TITLE = "Solution on Domain BulkDomain1D_0"
VARIABLES = "x [m]"  
"Vel_axial" 	"MF_sp(ECDMC)" 	"MF_sp(Li+)" 	"MF_sp(PF6-)" 	"Volt(Electroly)" 	"Volt(AnodeVolt)" 	"Temperature" 	
"Potential Drop Electrode-Electrolyte [V]" 	"Surf_0 Equilibrium Potential Drop Electrode-Electrolyte [V]" 	"Overpotential_0 [V]" 	"Current Source [A/m^2]" 	"Li+ flux [kmol/m^2/s]" 	"Electrolyte Current [A/m^2]" 	"Electrode Current [A/m^2]" 	
"Capacity discharged [A-s]" 	"Depth of discharge [-]" 	"Capacity remaining [A-s]" 	"Initial capacity [A-s]" 	"Porosity []" 	"Surface Area [m2/m2] (area per area)" 	"Specific current (per particle area) [A/m^2]" 	"Control volume thickness [m]" 	
"Moles Li_C6-bulk [mol/m^2] (per electrode area)" 	"Moles V_C6-bulk [mol/m^2] (per electrode area)" 	"qHeat_accum [J/m3]" 	"qHeat_step [W/m3]" 	"Joule_Lyte [W/m3]" 	"Joule_Solid [W/m3]" 	"electrodHeat [W/m3]" 	"OverpotHeat [W/m3]" 	"deltaSHeat [W/m3]" 	

ZONE T = "t = 0 [s]" I = 10 SOLUTIONTIME = 0.0000000000000E+00
0 	0 	0.92 	0.04 	0.04 	-0.07 	0 	302 	
0 	0 	0 	0 	0 	0 	27.9186 	
0 	0 	0 	0 	0.35 	8.53017 	6.54585 	4.37444e-05 	
0.00379119 	0.000947796 	0 	0.0 	 0.0 	 0.0 	 0.0 	 0.0 	 0.0 	 
8.74889e-05 	0 	0.92 	0.04 	0.04 	-0.07 	0 	298.15 	
0 	0 	0 	0 	0 	0 	-0 	
0 	0 	0 	0 	0.35 	17.0603 	3.62598 	8.74889e-05 	
0.00758237 	0.00189559 	0 	0.0 	 0.0 	 0.0 	 0.0 	 0.0 	 0.0 	 
0.000174978 	0 	0.92 	0.04 	0.04 	-0.07 	0 	298.15 	
0 	0 	0 	0 	0 	0 	-0 	
0 	0 	0 	0 	0.35 	17.0603 	3.62598 	8.74889e-05 	
0.00758237 	0.00189559 	0 	0.0 	 0.0 	 0.0 	 0.0 	 0.0 	 0.0 	 
0.000262467 	0 	0.92 	0.04 	0.04 	-0.07 	0 	298.15 	
0 	0 	0 	0 	0 	0 	-0 	
0 	0 	0 	0 	0.35 	17.0603 	3.62598 	8.74889e-05 	
0.00758237 	0.00189559 	0 	0.0 	 0.0 	 0.0 	 0.0 	 0.0 	 0.0 	 
0.000349956 	0 	0.92 	0.04 	0.04 	-0.07 	0 	298.15 	
0 	0 	0 	0 	0 	0 	-0 	
0 	0 	0 	0 	0.35 	17.0603 	3.62598 	8.74889e-05 	
0.00758237 	0.00189559 	0 	0.0 	 0.0 	 0.0 	 0.0 	 0.0 	 0.0 	 
0.000437444 	0 	0.92 	0.04 	0.04 	-0.07 	0 	298.15 	
0 	0 	0 	0 	0 	0 	-0 	
0 	0 	0 	0 	0.35 	17.0603 	3.62598 	8.74889e-05 	
0.00758237 	0.00189559 	0 	0.0 	 0.0 	 0.0 	 0.0 	 0.0 	 0.0 	 
0.000524933 	0 	0.92 	0.04 	0.04 	-0.07 	0 	298.15 	
0 	0 	0 	0 	0 	0 	-0 	
0 	0 	0 	0 	0.35 	17.0603 	3.62598 	8.74889e-05 	
0.00758237 	0.00189559 	0 	0.0 	 0.0 	 0.0 	 0.0 	 0.0 	 0.0 	 
0.000612422 	0 	0.92 	0.04 	0.04 	-0.07 	0 	298.15 	
0 	0 	0 	0 	0 	0 	-0 	
0 	0 	0 	0 	0.35 	17.0603 	3.62598 	8.74889e-05 	
0.00758237 	0.00189559 	0 	0.0 	 0.0 	 0.0 	 0.0 	 0.0 	 0.0 	 
0.000699911 	0 	0.92 	0.04 	0.04 	-0.07 	0 	298.15 	
0 	0 	0 	0 	0 	0 	-0 	
0 	0 	0 	0 	0.35 	17.0603 	3.62598 	8.74889e-05 	
0.00758237 	0.00189559 	0 	0.0 	 0.0 	 0.0 	 0.0 	 0.0 	 0.0 	 
0.0007874 	0 	0.92 	0.04 	0.04 	-0.07 	0 	298.15 	
0 	0 	0 	0 	0 	15.4651 	0 	
0 	0 	0 	0 	0.35 	8.53017 	3.62598 	4.37444e-05 	
0.00379119 	0.000947796 	0 	0.0 	 0.0 	 0.0 	 0.0 	 0.0 	 0.0 	 
ZONE T = "t = 1e-08 [s]" I = 10 SOLUTIONTIME = 1.0000000000000E-08
0 	-4.40197e-10 	0.92 	0.04 	0.04 	0.0251368 	0 	302 	
0.07 	-0.0436015 	0.113601 	55.8372 	-0 	-0.329746 	25.4349 	
0 	45724.2 	848.03 	962.628 	0.35 	8.53017 	0.541583 	4.37444e-05 	
0.00379119 	0.000947796 	2.02538e-05 	2025.38 	4.74335e-05 	0.00102045 	2025.38 	2025.38 	0 	
8.74889e-05 	2.37313e-09 	0.92 	0.04 	0.04 	0.0251368 	-3.86069e-09 	301.813 	
0.07 	-0.0409067 	0.110907 	61.8605 	-0 	1.35936 	21.1001 	
0 	91448.4 	1696.06 	1925.26 	0.35 	17.0603 	0.523469 	8.74889e-05 	
0.00758237 	0.00189559 	1.6508e+06 	1.6508e+14 	0.000645644 	0.000857392 	1.6508e+14 	1.6508e+14 	0 	
0.000174978 	4.92115e-09 	0.92 	0.04 	0.04 	0.0251368 	-7.04526e-09 	301.625 	
0.07 	-0.0409067 	0.110907 	61.8605 	-0 	5.21733 	17.241 	
0 	91448.4 	1696.06 	1925.26 	0.35 	17.0603 	0.505921 	8.74889e-05 	
0.00758237 	0.00189559 	1.56629e+06 	1.56629e+14 	0.00333379 	0.000573643 	1.56629e+14 	1.56629e+14 	0 	
0.000262467 	7.21289e-09 	0.92 	0.04 	0.04 	0.0251367 	-9.61741e-09 	301.438 	
0.07 	-0.0409067 	0.110907 	61.8605 	-0 	8.70975 	13.7567 	
0 	91448.4 	1696.06 	1925.26 	0.35 	17.0603 	0.488922 	8.74889e-05 	
0.00758237 	0.00189559 	1.48178e+06 	1.48178e+14 	0.0085571 	0.000366322 	1.48178e+14 	1.48178e+14 	0 	
0.000349956 	9.25819e-09 	0.92 	0.04 	0.04 	0.0251366 	-1.16386e-08 	301.25 	
0.07 	-0.0409067 	0.110907 	61.8605 	-0 	11.8373 	10.6339 	
0 	91448.4 	1696.06 	1925.26 	0.35 	17.0603 	0.472455 	8.74889e-05 	
0.00758237 	0.00189559 	1.39727e+06 	1.39727e+14 	0.0154839 	0.000219919 	1.39727e+14 	1.39727e+14 	0 	
0.000437444 	1.10659e-08 	0.92 	0.04 	0.04 	0.0251365 	-1.3168e-08 	301.063 	
0.07 	-0.0409067 	0.110907 	61.8605 	-0 	14.6135 	7.85951 	
0 	91448.4 	1696.06 	1925.26 	0.35 	17.0603 	0.456505 	8.74889e-05 	
0.00758237 	0.00189559 	1.31277e+06 	1.31277e+14 	0.0234082 	0.000121108 	1.31277e+14 	1.31277e+14 	0 	
0.000524933 	1.26448e-08 	0.92 	0.04 	0.04 	0.0251363 	-1.42628e-08 	300.875 	
0.07 	-0.0409067 	0.110907 	61.8605 	-0 	17.0513 	5.42104 	
0 	91448.4 	1696.06 	1925.26 	0.35 	17.0603 	0.441057 	8.74889e-05 	
0.00758237 	0.00189559 	1.22826e+06 	1.22826e+14 	0.0317394 	5.85445e-05 	1.22826e+14 	1.22826e+14 	0 	
0.000612422 	1.40031e-08 	0.92 	0.04 	0.04 	0.0251362 	-1.49781e-08 	300.688 	
0.07 	-0.0409067 	0.110907 	61.8605 	-0 	19.1634 	3.3062 	
0 	91448.4 	1696.06 	1925.26 	0.35 	17.0603 	0.426096 	8.74889e-05 	
0.00758237 	0.00189559 	1.14375e+06 	1.14375e+14 	0.0399914 	2.2684e-05 	1.14375e+14 	1.14375e+14 	0 	
0.000699911 	1.5149e-08 	0.92 	0.04 	0.04 	0.025136 	-1.53668e-08 	300.5 	
0.07 	-0.0409067 	0.110907 	61.8605 	-0 	20.9623 	1.50305 	
0 	91448.4 	1696.06 	1925.26 	0.35 	17.0603 	0.411607 	8.74889e-05 	
0.00758237 	0.00189559 	1.05924e+06 	1.05924e+14 	0.0477722 	5.61015e-06 	1.05924e+14 	1.05924e+14 	0 	
0.0007874 	1.56198e-08 	0.92 	0.04 	0.04 	0.0251358 	-1.548e-08 	300.313 	
0.07 	-0.0409067 	0.110907 	30.9302 	-0 	23.4807 	0.338964 	
0 	45724.2 	848.03 	962.628 	0.35 	8.53017 	0.397577 	4.37444e-05 	
0.00379119 	0.000947796 	974731 	9.74731e+13 	0.0515013 	8.76998e-07 	9.74731e+13 	9.74731e+13 	0 	
ZONE T = "t = 2e-08 [s]" I = 10 SOLUTIONTIME = 2.0000000000000E-08
0 	1.5978e-09 	0.92 	0.04 	0.04 	0.0342641 	0 	302 	
-0.0251368 	-0.0436015 	0.0184647 	4.61979 	-3.41777e-09 	1.15009 	33.3809 	
1.15786e-10 	45724.2 	848.03 	962.628 	0.35 	8.53017 	0.269652 	4.37444e-05 	
0.00379119 	0.000947796 	2.23811e-05 	212.722 	0.000624449 	0.00300276 	212.719 	212.719 	0 	
8.74889e-05 	4.66445e-09 	0.92 	0.04 	0.04 	0.0342641 	-5.38088e-09 	301.812 	
-0.0251368 	-0.04347 	0.0183332 	8.93056 	1.75063e-08 	4.50776 	30.0232 	
2.23827e-10 	91448.4 	1696.06 	1925.26 	0.35 	17.0603 	0.258797 	8.74889e-05 	
0.00758237 	0.00189559 	1.65047e+06 	-3.28979e+10 	0.0033917 	0.00258675 	-3.28979e+10 	-3.28979e+10 	0 	
0.000174978 	7.60555e-09 	0.92 	0.04 	0.04 	0.034264 	-1.00247e-08 	301.624 	
-0.0251368 	-0.0433385 	0.0182017 	8.63118 	3.65675e-08 	8.83358 	25.6974 	
2.16323e-10 	91448.4 	1696.06 	1925.26 	0.35 	17.0603 	0.248323 	8.74889e-05 	
0.00758237 	0.00189559 	1.56563e+06 	-6.57959e+10 	0.0123236 	0.00184231 	-6.57959e+10 	-6.57959e+10 	0 	
0.000262467 	1.04276e-08 	0.92 	0.04 	0.04 	0.0342639 	-1.39612e-08 	301.435 	
-0.0251367 	-0.043207 	0.0180703 	8.34117 	5.37028e-08 	12.9838 	21.5471 	
2.09055e-10 	91448.4 	1696.06 	1925.26 	0.35 	17.0603 	0.238216 	8.74889e-05 	
0.00758237 	0.00189559 	1.4808e+06 	-9.86938e+10 	0.0273616 	0.00126015 	-9.86938e+10 	-9.86938e+10 	0 	
0.000349956 	1.31342e-08 	0.92 	0.04 	0.04 	0.0342638 	-1.72192e-08 	301.247 	
-0.0251366 	-0.0430756 	0.0179389 	8.06024 	6.89826e-08 	16.9647 	17.5662 	
2.02014e-10 	91448.4 	1696.06 	1925.26 	0.35 	17.0603 	0.228465 	8.74889e-05 	
0.00758237 	0.00189559 	1.39596e+06 	-1.31592e+11 	0.0472141 	0.000815993 	-1.31592e+11 	-1.31592e+11 	0 	
0.000437444 	1.57294e-08 	0.92 	0.04 	0.04 	0.0342636 	-1.98265e-08 	301.059 	
-0.0251365 	-0.0429442 	0.0178077 	7.78813 	8.24755e-08 	20.7822 	13.7488 	
1.95194e-10 	91448.4 	1696.06 	1925.26 	0.35 	17.0603 	0.21906 	8.74889e-05 	
0.00758237 	0.00189559 	1.31112e+06 	-1.6449e+11 	0.0707561 	0.000488481 	-1.6449e+11 	-1.6449e+11 	0 	
0.000524933 	1.82174e-08 	0.92 	0.04 	0.04 	0.0342634 	-2.18099e-08 	300.871 	
-0.0251363 	-0.0428128 	0.0176764 	7.52459 	9.42484e-08 	24.442 	10.0889 	
1.88589e-10 	91448.4 	1696.06 	1925.26 	0.35 	17.0603 	0.209987 	8.74889e-05 	
0.00758237 	0.00189559 	1.22628e+06 	-1.97388e+11 	0.0970156 	0.000258899 	-1.97388e+11 	-1.97388e+11 	0 	
0.000612422 	2.06025e-08 	0.92 	0.04 	0.04 	0.0342631 	-2.31951e-08 	300.682 	
-0.0251362 	-0.0426814 	0.0175453 	7.26934 	1.04366e-07 	27.9498 	6.58111 	
1.82192e-10 	91448.4 	1696.06 	1925.26 	0.35 	17.0603 	0.201238 	8.74889e-05 	
0.00758237 	0.00189559 	1.14145e+06 	-2.30286e+11 	0.12516 	0.000110954 	-2.30286e+11 	-2.30286e+11 	0 	
0.000699911 	2.28855e-08 	0.92 	0.04 	0.04 	0.0342628 	-2.40073e-08 	300.494 	
-0.025136 	-0.0425501 	0.0174141 	7.02216 	1.12893e-07 	31.3111 	3.21988 	
1.75996e-10 	91448.4 	1696.06 	1925.26 	0.35 	17.0603 	0.192802 	8.74889e-05 	
0.00758237 	0.00189559 	1.05661e+06 	-2.63184e+11 	0.154483 	3.05553e-05 	-2.63184e+11 	-2.63184e+11 	0 	
0.0007874 	2.39798e-08 	0.92 	0.04 	0.04 	0.0342625 	-2.42703e-08 	300.306 	
-0.0251358 	-0.0424188 	0.0172831 	3.3914 	1.12893e-07 	33.7433 	0.787624 	
8.49986e-11 	45724.2 	848.03 	962.628 	0.35 	8.53017 	0.184668 	4.37444e-05 	
0.00379119 	0.000947796 	971771 	-2.96082e+11 	0.169358 	5.61208e-06 	-2.96082e+11 	-2.96082e+11 	0 	
ZONE T = "t = 3e-08 [s]" I = 10 SOLUTIONTIME = 3.0000000000000E-08
0 	1.59726e-09 	0.92 	0.04 	0.04 	0.0342641 	0 	302 	
-0.0342641 	-0.0436015 	0.00933739 	2.30018 	1.19196e-08 	1.15009 	33.3809 	
1.73435e-10 	45724.2 	848.03 	962.628 	0.35 	8.53017 	0.269652 	4.37444e-05 	
0.00379119 	0.000947796 	2.43463e-05 	196.52 	0.00120147 	0.00498507 	196.517 	196.517 	0 	
8.74889e-05 	4.66209e-09 	0.92 	0.04 	0.04 	0.0342641 	-5.38088e-09 	301.812 	
-0.0342641 	-0.0434695 	0.00920536 	4.41517 	3.47998e-08 	4.50776 	30.0232 	
3.34484e-10 	91448.4 	1696.06 	1925.26 	0.35 	17.0603 	0.258797 	8.74889e-05 	
0.00758237 	0.00189559 	1.65047e+06 	-36030 	0.00613775 	0.00431611 	-36030 	-36030 	0 	
0.000174978 	7.60392e-09 	0.92 	0.04 	0.04 	0.034264 	-1.00247e-08 	301.624 	
-0.034264 	-0.0433374 	0.00907342 	4.23647 	5.67538e-08 	8.83358 	25.6974 	
3.22502e-10 	91448.4 	1696.06 	1925.26 	0.35 	17.0603 	0.248323 	8.74889e-05 	
0.00758237 	0.00189559 	1.56563e+06 	-70272.3 	0.0213135 	0.00311098 	-70272.3 	-70272.3 	0 	
0.000262467 	1.0426e-08 	0.92 	0.04 	0.04 	0.0342639 	-1.39612e-08 	301.435 	
-0.0342639 	-0.0432055 	0.00894154 	4.06405 	7.78142e-08 	12.9838 	21.5471 	
3.10912e-10 	91448.4 	1696.06 	1925.26 	0.35 	17.0603 	0.238216 	8.74889e-05 	
0.00758237 	0.00189559 	1.4808e+06 	-106717 	0.0461662 	0.00215398 	-106717 	-106717 	0 	
0.000349956 	1.31326e-08 	0.92 	0.04 	0.04 	0.0342638 	-1.72192e-08 	301.247 	
-0.0342638 	-0.0430735 	0.00880973 	3.8977 	9.80126e-08 	16.9647 	17.5662 	
2.99702e-10 	91448.4 	1696.06 	1925.26 	0.35 	17.0603 	0.228465 	8.74889e-05 	
0.00758237 	0.00189559 	1.39596e+06 	-142112 	0.0789443 	0.00141207 	-142112 	-142112 	0 	
0.000437444 	1.57288e-08 	0.92 	0.04 	0.04 	0.0342636 	-1.98265e-08 	301.059 	
-0.0342636 	-0.0429416 	0.00867799 	3.73723 	1.17379e-07 	20.7822 	13.7488 	
2.8886e-10 	91448.4 	1696.06 	1925.26 	0.35 	17.0603 	0.21906 	8.74889e-05 	
0.00758237 	0.00189559 	1.31112e+06 	-177565 	0.118104 	0.000855853 	-177565 	-177565 	0 	
0.000524933 	1.82172e-08 	0.92 	0.04 	0.04 	0.0342634 	-2.18099e-08 	300.871 	
-0.0342634 	-0.0428097 	0.00854632 	3.58246 	1.35944e-07 	24.442 	10.0889 	
2.78376e-10 	91448.4 	1696.06 	1925.26 	0.35 	17.0603 	0.209987 	8.74889e-05 	
0.00758237 	0.00189559 	1.22628e+06 	-213258 	0.162292 	0.000459253 	-213258 	-213258 	0 	
0.000612422 	2.06002e-08 	0.92 	0.04 	0.04 	0.0342631 	-2.31951e-08 	300.682 	
-0.0342631 	-0.0426779 	0.00841471 	3.43319 	1.53735e-07 	27.9498 	6.58111 	
2.68238e-10 	91448.4 	1696.06 	1925.26 	0.35 	17.0603 	0.201238 	8.74889e-05 	
0.00758237 	0.00189559 	1.14145e+06 	-247697 	0.210329 	0.000199224 	-247697 	-247697 	0 	
0.000699911 	2.28843e-08 	0.92 	0.04 	0.04 	0.0342628 	-2.40073e-08 	300.494 	
-0.0342629 	-0.042546 	0.00828316 	3.28926 	1.70781e-07 	31.3111 	3.21988 	
2.58435e-10 	91448.4 	1696.06 	1925.26 	0.35 	17.0603 	0.192802 	8.74889e-05 	
0.00758237 	0.00189559 	1.05661e+06 	-282821 	0.261194 	5.55005e-05 	-282821 	-282821 	0 	
0.0007874 	2.39778e-08 	0.92 	0.04 	0.04 	0.0342625 	-2.42703e-08 	300.306 	
-0.0342626 	-0.0424142 	0.00815167 	1.57525 	1.70781e-07 	33.7433 	0.787624 	
1.24479e-10 	45724.2 	848.03 	962.628 	0.35 	8.53017 	0.184668 	4.37444e-05 	
0.00379119 	0.000947796 	971771 	-318101 	0.287215 	1.03472e-05 	-318101 	-318101 	0 	
ZONE T = "t = 4e-08 [s]" I = 10 SOLUTIONTIME = 4.0000000000000E-08
0 	1.59726e-09 	0.92 	0.04 	0.04 	0.0342641 	0 	302 	
-0.0342641 	-0.0436015 	0.00933739 	2.30018 	1.19196e-08 	1.15009 	33.3809 	
2.31084e-10 	45724.2 	848.03 	962.628 	0.35 	8.53017 	0.269652 	4.37444e-05 	
0.00379119 	0.000947796 	3.63568e-05 	1201.06 	0.00177848 	0.00696738 	1201.05 	1201.05 	0 	
8.74889e-05 	4.66354e-09 	0.92 	0.04 	0.04 	0.0342641 	-5.38088e-09 	301.812 	
-0.0342641 	-0.0434695 	0.00920536 	4.41517 	3.47998e-08 	4.50776 	30.0232 	
4.45141e-10 	91448.4 	1696.06 	1925.26 	0.35 	17.0603 	0.258797 	8.74889e-05 	
0.00758237 	0.00189559 	1.65047e+06 	-35100 	0.00888381 	0.00604547 	-35100 	-35100 	0 	
0.000174978 	7.60537e-09 	0.92 	0.04 	0.04 	0.034264 	-1.00247e-08 	301.624 	
-0.034264 	-0.0433374 	0.00907342 	4.23647 	5.67538e-08 	8.83358 	25.6974 	
4.28681e-10 	91448.4 	1696.06 	1925.26 	0.35 	17.0603 	0.248323 	8.74889e-05 	
0.00758237 	0.00189559 	1.56563e+06 	-70243.1 	0.0303033 	0.00437965 	-70243.1 	-70243.1 	0 	
0.000262467 	1.04282e-08 	0.92 	0.04 	0.04 	0.0342639 	-1.39612e-08 	301.435 	
-0.0342639 	-0.0432055 	0.00894154 	4.06405 	7.78142e-08 	12.9838 	21.5471 	
4.12769e-10 	91448.4 	1696.06 	1925.26 	0.35 	17.0603 	0.238216 	8.74889e-05 	
0.00758237 	0.00189559 	1.4808e+06 	-105188 	0.0649707 	0.0030478 	-105188 	-105188 	0 	
0.000349956 	1.31344e-08 	0.92 	0.04 	0.04 	0.0342638 	-1.72192e-08 	301.247 	
-0.0342638 	-0.0430735 	0.00880973 	3.8977 	9.80126e-08 	16.9647 	17.5662 	
3.9739e-10 	91448.4 	1696.06 	1925.26 	0.35 	17.0603 	0.228465 	8.74889e-05 	
0.00758237 	0.00189559 	1.39596e+06 	-140816 	0.110675 	0.00200814 	-140816 	-140816 	0 	
0.000437444 	1.57288e-08 	0.92 	0.04 	0.04 	0.0342636 	-1.98265e-08 	301.059 	
-0.0342636 	-0.0429416 	0.00867799 	3.73723 	1.17379e-07 	20.7822 	13.7488 	
3.82526e-10 	91448.4 	1696.06 	1925.26 	0.35 	17.0603 	0.21906 	8.74889e-05 	
0.00758237 	0.00189559 	1.31112e+06 	-177218 	0.165452 	0.00122323 	-177218 	-177218 	0 	
0.000524933 	1.82154e-08 	0.92 	0.04 	0.04 	0.0342634 	-2.18099e-08 	300.871 	
-0.0342634 	-0.0428097 	0.00854632 	3.58246 	1.35944e-07 	24.442 	10.0889 	
3.68163e-10 	91448.4 	1696.06 	1925.26 	0.35 	17.0603 	0.209987 	8.74889e-05 	
0.00758237 	0.00189559 	1.22628e+06 	-211751 	0.227568 	0.000659607 	-211751 	-211751 	0 	
0.000612422 	2.05995e-08 	0.92 	0.04 	0.04 	0.0342631 	-2.31951e-08 	300.682 	
-0.0342631 	-0.0426779 	0.00841471 	3.43319 	1.53735e-07 	27.9498 	6.58111 	
3.54284e-10 	91448.4 	1696.06 	1925.26 	0.35 	17.0603 	0.201238 	8.74889e-05 	
0.00758237 	0.00189559 	1.14145e+06 	-247901 	0.295497 	0.000287494 	-247901 	-247901 	0 	
0.000699911 	2.28832e-08 	0.92 	0.04 	0.04 	0.0342628 	-2.40073e-08 	300.494 	
-0.0342629 	-0.042546 	0.00828316 	3.28926 	1.70781e-07 	31.3111 	3.21988 	
3.40874e-10 	91448.4 	1696.06 	1925.26 	0.35 	17.0603 	0.192802 	8.74889e-05 	
0.00758237 	0.00189559 	1.05661e+06 	-283291 	0.367905 	8.04456e-05 	-283291 	-283291 	0 	
0.0007874 	2.39774e-08 	0.92 	0.04 	0.04 	0.0342625 	-2.42703e-08 	300.306 	
-0.0342626 	-0.0424142 	0.00815167 	1.57525 	1.70781e-07 	33.7433 	0.787624 	
1.63959e-10 	45724.2 	848.03 	962.628 	0.35 	8.53017 	0.184668 	4.37444e-05 	
0.00379119 	0.000947796 	971771 	-319978 	0.405072 	1.50822e-05 	-319978 	-319978 	0 	
ZONE T = "t = 5.5e-08 [s]" I = 10 SOLUTIONTIME = 5.5000000000000E-08
0 	1.5975e-09 	0.92 	0.04 	0.04 	0.0342641 	0 	302 	
-0.0342641 	-0.0436015 	0.00933739 	2.30018 	1.19196e-08 	1.15009 	33.3809 	
2.88734e-10 	45724.2 	848.03 	962.628 	0.35 	8.53017 	0.269652 	4.37444e-05 	
0.00379119 	0.000947796 	4.27071e-05 	423.351 	0.00176267 	0.00662723 	423.348 	423.348 	0 	
8.74889e-05 	4.66342e-09 	0.92 	0.04 	0.04 	0.0342641 	-5.38088e-09 	301.812 	
-0.0342641 	-0.0434695 	0.00920536 	4.41517 	3.47999e-08 	4.50776 	30.0232 	
5.55799e-10 	91448.4 	1696.06 	1925.26 	0.35 	17.0603 	0.258797 	8.74889e-05 	
0.00758237 	0.00189559 	1.65047e+06 	-34401.2 	0.00866859 	0.00575967 	-34401.2 	-34401.2 	0 	
0.000174978 	7.60525e-09 	0.92 	0.04 	0.04 	0.034264 	-1.00247e-08 	301.624 	
-0.034264 	-0.0433374 	0.00907342 	4.23647 	5.67538e-08 	8.83358 	25.6974 	
5.34859e-10 	91448.4 	1696.06 	1925.26 	0.35 	17.0603 	0.248323 	8.74889e-05 	
0.00758237 	0.00189559 	1.56563e+06 	-69880.2 	0.0291921 	0.00418843 	-69880.2 	-69880.2 	0 	
0.000262467 	1.04269e-08 	0.92 	0.04 	0.04 	0.0342639 	-1.39612e-08 	301.435 	
-0.0342639 	-0.0432055 	0.00894154 	4.06405 	7.78142e-08 	12.9838 	21.5471 	
5.14626e-10 	91448.4 	1696.06 	1925.26 	0.35 	17.0603 	0.238216 	8.74889e-05 	
0.00758237 	0.00189559 	1.4808e+06 	-106336 	0.0621183 	0.00292569 	-106336 	-106336 	0 	
0.000349956 	1.31344e-08 	0.92 	0.04 	0.04 	0.0342638 	-1.72192e-08 	301.247 	
-0.0342638 	-0.0430735 	0.00880973 	3.8977 	9.80126e-08 	16.9647 	17.5662 	
4.95078e-10 	91448.4 	1696.06 	1925.26 	0.35 	17.0603 	0.228465 	8.74889e-05 	
0.00758237 	0.00189559 	1.39596e+06 	-141628 	0.105513 	0.00193483 	-141628 	-141628 	0 	
0.000437444 	1.57293e-08 	0.92 	0.04 	0.04 	0.0342636 	-1.98265e-08 	301.059 	
-0.0342636 	-0.0429416 	0.00867799 	3.73723 	1.17379e-07 	20.7822 	13.7488 	
4.76193e-10 	91448.4 	1696.06 	1925.26 	0.35 	17.0603 	0.21906 	8.74889e-05 	
0.00758237 	0.00189559 	1.31112e+06 	-176571 	0.157649 	0.00118286 	-176571 	-176571 	0 	
0.000524933 	1.8217e-08 	0.92 	0.04 	0.04 	0.0342634 	-2.18099e-08 	300.871 	
-0.0342634 	-0.0428097 	0.00854632 	3.58246 	1.35944e-07 	24.442 	10.0889 	
4.5795e-10 	91448.4 	1696.06 	1925.26 	0.35 	17.0603 	0.209987 	8.74889e-05 	
0.00758237 	0.00189559 	1.22628e+06 	-212407 	0.216988 	0.000640093 	-212408 	-212408 	0 	
0.000612422 	2.0601e-08 	0.92 	0.04 	0.04 	0.0342631 	-2.31951e-08 	300.682 	
-0.0342631 	-0.0426779 	0.00841471 	3.43319 	1.53735e-07 	27.9498 	6.58111 	
4.4033e-10 	91448.4 	1696.06 	1925.26 	0.35 	17.0603 	0.201238 	8.74889e-05 	
0.00758237 	0.00189559 	1.14145e+06 	-248094 	0.282167 	0.000279933 	-248094 	-248094 	0 	
0.000699911 	2.28854e-08 	0.92 	0.04 	0.04 	0.0342628 	-2.40073e-08 	300.494 	
-0.0342629 	-0.042546 	0.00828316 	3.28926 	1.70781e-07 	31.3111 	3.21988 	
4.23313e-10 	91448.4 	1696.06 	1925.26 	0.35 	17.0603 	0.192802 	8.74889e-05 	
0.00758237 	0.00189559 	1.05661e+06 	-283558 	0.351981 	7.85756e-05 	-283559 	-283559 	0 	
0.0007874 	2.3979e-08 	0.92 	0.04 	0.04 	0.0342625 	-2.42703e-08 	300.306 	
-0.0342626 	-0.0424142 	0.00815167 	1.57525 	1.70781e-07 	33.7433 	0.787624 	
2.0344e-10 	45724.2 	848.03 	962.628 	0.35 	8.53017 	0.184668 	4.37444e-05 	
0.00379119 	0.000947796 	971771 	-318597 	0.387905 	1.47899e-05 	-318597 	-318597 	0 	
ZONE T = "t = 7.75e-08 [s]" I = 10 SOLUTIONTIME = 7.7500000000000E-08
0 	1.59734e-09 	0.92 	0.04 	0.04 	0.0342641 	0 	302 	
-0.0342641 	-0.0436015 	0.00933739 	2.30018 	1.19197e-08 	1.15009 	33.3809 	
3.75208e-10 	45724.2 	848.03 	962.628 	0.35 	8.53017 	0.269652 	4.37444e-05 	
0.00379119 	0.000947796 	4.94943e-05 	301.654 	0.00175213 	0.00640046 	301.651 	301.651 	0 	
8.74889e-05 	4.66326e-09 	0.92 	0.04 	0.04 	0.0342641 	-5.38088e-09 	301.812 	
-0.0342641 	-0.0434695 	0.00920536 	4.41517 	3.47999e-08 	4.50776 	30.0232 	
7.21785e-10 	91448.4 	1696.06 	1925.26 	0.35 	17.0603 	0.258797 	8.74889e-05 	
0.00758237 	0.00189559 	1.65047e+06 	-35372.6 	0.00852511 	0.00556914 	-35372.6 	-35372.6 	0 	
0.000174978 	7.60509e-09 	0.92 	0.04 	0.04 	0.034264 	-1.00247e-08 	301.624 	
-0.034264 	-0.0433374 	0.00907342 	4.23647 	5.67538e-08 	8.83358 	25.6974 	
6.94127e-10 	91448.4 	1696.06 	1925.26 	0.35 	17.0603 	0.248323 	8.74889e-05 	
0.00758237 	0.00189559 	1.56563e+06 	-70896.3 	0.0284512 	0.00406096 	-70896.3 	-70896.3 	0 	
0.000262467 	1.04272e-08 	0.92 	0.04 	0.04 	0.0342639 	-1.39612e-08 	301.435 	
-0.0342639 	-0.0432055 	0.00894154 	4.06405 	7.78142e-08 	12.9838 	21.5471 	
6.67412e-10 	91448.4 	1696.06 	1925.26 	0.35 	17.0603 	0.238216 	8.74889e-05 	
0.00758237 	0.00189559 	1.4808e+06 	-106029 	0.0602167 	0.00284429 	-106029 	-106029 	0 	
0.000349956 	1.31333e-08 	0.92 	0.04 	0.04 	0.0342638 	-1.72192e-08 	301.247 	
-0.0342638 	-0.0430735 	0.00880973 	3.8977 	9.80126e-08 	16.9647 	17.5662 	
6.4161e-10 	91448.4 	1696.06 	1925.26 	0.35 	17.0603 	0.228465 	8.74889e-05 	
0.00758237 	0.00189559 	1.39596e+06 	-141457 	0.102072 	0.00188596 	-141457 	-141457 	0 	
0.000437444 	1.57289e-08 	0.92 	0.04 	0.04 	0.0342636 	-1.98265e-08 	301.059 	
-0.0342636 	-0.0429416 	0.00867799 	3.73723 	1.17379e-07 	20.7822 	13.7488 	
6.16692e-10 	91448.4 	1696.06 	1925.26 	0.35 	17.0603 	0.21906 	8.74889e-05 	
0.00758237 	0.00189559 	1.31112e+06 	-177033 	0.152447 	0.00115594 	-177033 	-177033 	0 	
0.000524933 	1.82166e-08 	0.92 	0.04 	0.04 	0.0342634 	-2.18099e-08 	300.871 	
-0.0342634 	-0.0428097 	0.00854632 	3.58246 	1.35944e-07 	24.442 	10.0889 	
5.92631e-10 	91448.4 	1696.06 	1925.26 	0.35 	17.0603 	0.209987 	8.74889e-05 	
0.00758237 	0.00189559 	1.22628e+06 	-212577 	0.209935 	0.000627083 	-212577 	-212577 	0 	
0.000612422 	2.06006e-08 	0.92 	0.04 	0.04 	0.0342631 	-2.31951e-08 	300.682 	
-0.0342631 	-0.0426779 	0.00841471 	3.43319 	1.53735e-07 	27.9498 	6.58111 	
5.69399e-10 	91448.4 	1696.06 	1925.26 	0.35 	17.0603 	0.201238 	8.74889e-05 	
0.00758237 	0.00189559 	1.14145e+06 	-248054 	0.27328 	0.000274892 	-248054 	-248054 	0 	
0.000699911 	2.2885e-08 	0.92 	0.04 	0.04 	0.0342628 	-2.40073e-08 	300.494 	
-0.0342629 	-0.042546 	0.00828316 	3.28926 	1.70781e-07 	31.3111 	3.21988 	
5.46971e-10 	91448.4 	1696.06 	1925.26 	0.35 	17.0603 	0.192802 	8.74889e-05 	
0.00758237 	0.00189559 	1.05661e+06 	-283342 	0.341365 	7.73289e-05 	-283343 	-283343 	0 	
0.0007874 	2.39795e-08 	0.92 	0.04 	0.04 	0.0342625 	-2.42703e-08 	300.306 	
-0.0342626 	-0.0424142 	0.00815167 	1.57525 	1.70781e-07 	33.7433 	0.787624 	
2.6266e-10 	45724.2 	848.03 	962.628 	0.35 	8.53017 	0.184668 	4.37444e-05 	
0.00379119 	0.000947796 	971771 	-318902 	0.37646 	1.4595e-05 	-318902 	-318902 	0 	
ZONE T = "t = 1.1125e-07 [s]" I = 10 SOLUTIONTIME = 1.1125000000000E-07
0 	1.59709e-09 	0.92 	0.04 	0.04 	0.0342641 	0 	302 	
-0.0342641 	-0.0436015 	0.00933739 	2.30018 	1.19197e-08 	1.15009 	33.3809 	
5.04919e-10 	45724.2 	848.03 	962.628 	0.35 	8.53017 	0.269652 	4.37444e-05 	
0.00379119 	0.000947796 	6.79706e-05 	547.447 	0.0017451 	0.00624928 	547.445 	547.445 	0 	
8.74889e-05 	4.66323e-09 	0.92 	0.04 	0.04 	0.0342641 	-5.38088e-09 	301.812 	
-0.0342641 	-0.0434695 	0.00920536 	4.41517 	3.47999e-08 	4.50776 	30.0232 	
9.70764e-10 	91448.4 	1696.06 	1925.26 	0.35 	17.0603 	0.258797 	8.74889e-05 	
0.00758237 	0.00189559 	1.65047e+06 	-34726.4 	0.00842946 	0.00544212 	-34726.4 	-34726.4 	0 	
0.000174978 	7.60506e-09 	0.92 	0.04 	0.04 	0.034264 	-1.00247e-08 	301.624 	
-0.034264 	-0.0433374 	0.00907342 	4.23647 	5.67538e-08 	8.83358 	25.6974 	
9.33029e-10 	91448.4 	1696.06 	1925.26 	0.35 	17.0603 	0.248323 	8.74889e-05 	
0.00758237 	0.00189559 	1.56563e+06 	-70648.1 	0.0279573 	0.00397597 	-70648.1 	-70648.1 	0 	
0.000262467 	1.04272e-08 	0.92 	0.04 	0.04 	0.0342639 	-1.39612e-08 	301.435 	
-0.0342639 	-0.0432055 	0.00894154 	4.06405 	7.78143e-08 	12.9838 	21.5471 	
8.96591e-10 	91448.4 	1696.06 	1925.26 	0.35 	17.0603 	0.238216 	8.74889e-05 	
0.00758237 	0.00189559 	1.4808e+06 	-105746 	0.058949 	0.00279002 	-105746 	-105746 	0 	
0.000349956 	1.31337e-08 	0.92 	0.04 	0.04 	0.0342638 	-1.72192e-08 	301.247 	
-0.0342638 	-0.0430735 	0.00880973 	3.8977 	9.80126e-08 	16.9647 	17.5662 	
8.61408e-10 	91448.4 	1696.06 	1925.26 	0.35 	17.0603 	0.228465 	8.74889e-05 	
0.00758237 	0.00189559 	1.39596e+06 	-141456 	0.0997785 	0.00185338 	-141456 	-141456 	0 	
0.000437444 	1.57286e-08 	0.92 	0.04 	0.04 	0.0342636 	-1.98265e-08 	301.059 	
-0.0342636 	-0.0429416 	0.00867799 	3.73723 	1.17379e-07 	20.7822 	13.7488 	
8.27441e-10 	91448.4 	1696.06 	1925.26 	0.35 	17.0603 	0.21906 	8.74889e-05 	
0.00758237 	0.00189559 	1.31112e+06 	-177094 	0.148979 	0.001138 	-177095 	-177095 	0 	
0.000524933 	1.82166e-08 	0.92 	0.04 	0.04 	0.0342634 	-2.18099e-08 	300.871 	
-0.0342634 	-0.0428097 	0.00854632 	3.58246 	1.35944e-07 	24.442 	10.0889 	
7.94652e-10 	91448.4 	1696.06 	1925.26 	0.35 	17.0603 	0.209987 	8.74889e-05 	
0.00758237 	0.00189559 	1.22628e+06 	-212746 	0.205233 	0.000618409 	-212746 	-212746 	0 	
0.000612422 	2.06006e-08 	0.92 	0.04 	0.04 	0.0342631 	-2.31951e-08 	300.682 	
-0.0342631 	-0.0426779 	0.00841471 	3.43319 	1.53736e-07 	27.9498 	6.58111 	
7.63003e-10 	91448.4 	1696.06 	1925.26 	0.35 	17.0603 	0.201238 	8.74889e-05 	
0.00758237 	0.00189559 	1.14145e+06 	-247860 	0.267355 	0.000271532 	-247860 	-247860 	0 	
0.000699911 	2.2885e-08 	0.92 	0.04 	0.04 	0.0342628 	-2.40073e-08 	300.494 	
-0.0342629 	-0.042546 	0.00828316 	3.28926 	1.70781e-07 	31.3111 	3.21988 	
7.32458e-10 	91448.4 	1696.06 	1925.26 	0.35 	17.0603 	0.192802 	8.74889e-05 	
0.00758237 	0.00189559 	1.05661e+06 	-283442 	0.334287 	7.64978e-05 	-283442 	-283442 	0 	
0.0007874 	2.39786e-08 	0.92 	0.04 	0.04 	0.0342625 	-2.42703e-08 	300.306 	
-0.0342626 	-0.0424142 	0.00815167 	1.57525 	1.70781e-07 	33.7433 	0.787624 	
3.51491e-10 	45724.2 	848.03 	962.628 	0.35 	8.53017 	0.184668 	4.37444e-05 	
0.00379119 	0.000947796 	971771 	-319161 	0.368831 	1.44651e-05 	-319162 	-319162 	0 	
ZONE T = "t = 1.61875e-07 [s]" I = 10 SOLUTIONTIME = 1.6187500000000E-07
0 	1.59733e-09 	0.92 	0.04 	0.04 	0.0342641 	0 	302 	
-0.0342641 	-0.0436015 	0.00933739 	2.30018 	1.19197e-08 	1.15009 	33.3809 	
6.99485e-10 	45724.2 	848.03 	962.628 	0.35 	8.53017 	0.269652 	4.37444e-05 	
0.00379119 	0.000947796 	8.89613e-05 	414.629 	0.00174042 	0.0061485 	414.627 	414.627 	0 	
8.74889e-05 	4.66303e-09 	0.92 	0.04 	0.04 	0.0342641 	-5.38088e-09 	301.812 	
-0.0342641 	-0.0434695 	0.00920536 	4.41517 	3.47999e-08 	4.50776 	30.0232 	
1.34423e-09 	91448.4 	1696.06 	1925.26 	0.35 	17.0603 	0.258797 	8.74889e-05 	
0.00758237 	0.00189559 	1.65047e+06 	-35120.1 	0.0083657 	0.00535744 	-35120.1 	-35120.1 	0 	
0.000174978 	7.60486e-09 	0.92 	0.04 	0.04 	0.034264 	-1.00247e-08 	301.624 	
-0.034264 	-0.0433374 	0.00907342 	4.23647 	5.67539e-08 	8.83358 	25.6974 	
1.29138e-09 	91448.4 	1696.06 	1925.26 	0.35 	17.0603 	0.248323 	8.74889e-05 	
0.00758237 	0.00189559 	1.56563e+06 	-70443.6 	0.0276281 	0.00391932 	-70443.6 	-70443.6 	0 	
0.000262467 	1.04267e-08 	0.92 	0.04 	0.04 	0.0342639 	-1.39612e-08 	301.435 	
-0.0342639 	-0.0432055 	0.00894154 	4.06405 	7.78143e-08 	12.9838 	21.5471 	
1.24036e-09 	91448.4 	1696.06 	1925.26 	0.35 	17.0603 	0.238216 	8.74889e-05 	
0.00758237 	0.00189559 	1.4808e+06 	-105998 	0.0581039 	0.00275384 	-105998 	-105998 	0 	
0.000349956 	1.31333e-08 	0.92 	0.04 	0.04 	0.0342638 	-1.72192e-08 	301.247 	
-0.0342638 	-0.0430735 	0.00880973 	3.8977 	9.80127e-08 	16.9647 	17.5662 	
1.1911e-09 	91448.4 	1696.06 	1925.26 	0.35 	17.0603 	0.228465 	8.74889e-05 	
0.00758237 	0.00189559 	1.39596e+06 	-141368 	0.0982492 	0.00183166 	-141369 	-141369 	0 	
0.000437444 	1.57285e-08 	0.92 	0.04 	0.04 	0.0342636 	-1.98265e-08 	301.059 	
-0.0342636 	-0.0429416 	0.00867799 	3.73723 	1.17379e-07 	20.7822 	13.7488 	
1.14356e-09 	91448.4 	1696.06 	1925.26 	0.35 	17.0603 	0.21906 	8.74889e-05 	
0.00758237 	0.00189559 	1.31112e+06 	-176814 	0.146667 	0.00112604 	-176814 	-176814 	0 	
0.000524933 	1.82159e-08 	0.92 	0.04 	0.04 	0.0342634 	-2.18099e-08 	300.871 	
-0.0342634 	-0.0428097 	0.00854632 	3.58246 	1.35944e-07 	24.442 	10.0889 	
1.09768e-09 	91448.4 	1696.06 	1925.26 	0.35 	17.0603 	0.209987 	8.74889e-05 	
0.00758237 	0.00189559 	1.22628e+06 	-212223 	0.202098 	0.000612627 	-212223 	-212223 	0 	
0.000612422 	2.06e-08 	0.92 	0.04 	0.04 	0.0342631 	-2.31951e-08 	300.682 	
-0.0342631 	-0.0426779 	0.00841471 	3.43319 	1.53736e-07 	27.9498 	6.58111 	
1.05341e-09 	91448.4 	1696.06 	1925.26 	0.35 	17.0603 	0.201238 	8.74889e-05 	
0.00758237 	0.00189559 	1.14145e+06 	-247938 	0.263405 	0.000269291 	-247938 	-247938 	0 	
0.000699911 	2.28842e-08 	0.92 	0.04 	0.04 	0.0342628 	-2.40073e-08 	300.494 	
-0.0342629 	-0.042546 	0.00828316 	3.28926 	1.70782e-07 	31.3111 	3.21988 	
1.01069e-09 	91448.4 	1696.06 	1925.26 	0.35 	17.0603 	0.192802 	8.74889e-05 	
0.00758237 	0.00189559 	1.05661e+06 	-283500 	0.329569 	7.59437e-05 	-283500 	-283500 	0 	
0.0007874 	2.39781e-08 	0.92 	0.04 	0.04 	0.0342625 	-2.42703e-08 	300.306 	
-0.0342626 	-0.0424142 	0.00815167 	1.57525 	1.70782e-07 	33.7433 	0.787624 	
4.84738e-10 	45724.2 	848.03 	962.628 	0.35 	8.53017 	0.184668 	4.37444e-05 	
0.00379119 	0.000947796 	971770 	-318857 	0.363744 	1.43785e-05 	-318857 	-318857 	0 	
ZONE T = "t = 2.37813e-07 [s]" I = 10 SOLUTIONTIME = 2.3781250000000E-07
0 	1.59721e-09 	0.92 	0.04 	0.04 	0.0342641 	0 	302 	
-0.0342641 	-0.0436015 	0.00933739 	2.30018 	1.19197e-08 	1.15009 	33.3809 	
9.91335e-10 	45724.2 	848.03 	962.628 	0.35 	8.53017 	0.269652 	4.37444e-05 	
0.00379119 	0.000947796 	0.000135159 	608.363 	0.00173729 	0.00608131 	608.36 	608.36 	0 	
8.74889e-05 	4.66318e-09 	0.92 	0.04 	0.04 	0.0342641 	-5.38088e-09 	301.812 	
-0.0342641 	-0.0434695 	0.00920536 	4.41517 	3.47999e-08 	4.50776 	30.0232 	
1.90444e-09 	91448.4 	1696.06 	1925.26 	0.35 	17.0603 	0.258797 	8.74889e-05 	
0.00758237 	0.00189559 	1.65047e+06 	-35025.3 	0.00832319 	0.00530099 	-35025.3 	-35025.3 	0 	
0.000174978 	7.60501e-09 	0.92 	0.04 	0.04 	0.034264 	-1.00247e-08 	301.624 	