TITLE = "Solution on Domain BulkDomain1D_1"
VARIABLES = "x [m]"  
"Vel_axial" 	"MF_sp(ECDMC)" 	"MF_sp(Li+)" 	"MF_sp(PF6-)" 	"Volt(Electroly)" 	"Temperature" 	"qHeat_accum [J/m3]" 	"qHeat_step [W/m3]" 	"Joule_Lyte [W/m3]" 	"Joule_Solid [W/m3]" 	
ZONE T = "t = 0 [s]" I = 10 SOLUTIONTIME = 0.0000000000000E+00
0.0007874 	0 	0.92 	0.04 	0.04 	-0.07 	0 	
0 	0.0 	 0.0 	 0.0 	 
0.000841022 	0 	0.92 	0.04 	0.04 	-0.07 	298.15 	
0 	0.0 	 0.0 	 0.0 	 
0.000894644 	0 	0.92 	0.04 	0.04 	-0.07 	298.15 	
0 	0.0 	 0.0 	 0.0 	 
0.000948267 	0 	0.92 	0.04 	0.04 	-0.07 	298.15 	
0 	0.0 	 0.0 	 0.0 	 
0.00100189 	0 	0.92 	0.04 	0.04 	-0.07 	298.15 	
0 	0.0 	 0.0 	 0.0 	 
0.00105551 	0 	0.92 	0.04 	0.04 	-0.07 	298.15 	
0 	0.0 	 0.0 	 0.0 	 
0.00110913 	0 	0.92 	0.04 	0.04 	-0.07 	298.15 	
0 	0.0 	 0.0 	 0.0 	 
0.00116276 	0 	0.92 	0.04 	0.04 	-0.07 	298.15 	
0 	0.0 	 0.0 	 0.0 	 
0.00121638 	0 	0.92 	0.04 	0.04 	-0.07 	298.15 	
0 	0.0 	 0.0 	 0.0 	 
0.00127 	0 	0.92 	0.04 	0.04 	-0.07 	3.8 	
0 	0.0 	 0.0 	 0.0 	 
ZONE T = "t = 1e-08 [s]" I = 10 SOLUTIONTIME = 1.0000000000000E-08
0.0007874 	2.394e-08 	0.92 	0.04 	0.04 	0.0342612 	-2.42135e-08 	
3.66723e-10 	0.0366723 	0.0366723 	0 	
0.000841022 	2.394e-08 	0.92 	0.04 	0.04 	0.0342611 	300.177 	
3.66654e-10 	0.0366654 	0.0366654 	0 	
0.000894644 	2.394e-08 	0.92 	0.04 	0.04 	0.0342611 	300.066 	
3.66518e-10 	0.0366518 	0.0366518 	0 	
0.000948267 	2.394e-08 	0.92 	0.04 	0.04 	0.034261 	299.954 	
3.66382e-10 	0.0366382 	0.0366382 	0 	
0.00100189 	2.394e-08 	0.92 	0.04 	0.04 	0.034261 	299.842 	
3.66245e-10 	0.0366245 	0.0366245 	0 	
0.00105551 	2.394e-08 	0.92 	0.04 	0.04 	0.0342609 	299.731 	
3.66109e-10 	0.0366109 	0.0366109 	0 	
0.00110913 	2.394e-08 	0.92 	0.04 	0.04 	0.0342609 	299.619 	
3.65972e-10 	0.0365972 	0.0365972 	0 	
0.00116276 	2.394e-08 	0.92 	0.04 	0.04 	0.0342608 	299.507 	
3.65836e-10 	0.0365836 	0.0365836 	0 	
0.00121638 	2.394e-08 	0.92 	0.04 	0.04 	0.0342607 	299.396 	
3.657e-10 	0.03657 	0.03657 	0 	
0.00127 	2.1146e-08 	0.92 	0.04 	0.04 	0.0342607 	3.8002 	
3.65631e-10 	0.0365631 	0.0365631 	0 	
ZONE T = "t = 2e-08 [s]" I = 10 SOLUTIONTIME = 2.0000000000000E-08
0.0007874 	2.39395e-08 	0.92 	0.04 	0.04 	0.0342612 	-2.42135e-08 	
7.33445e-10 	0.0366723 	0.0366723 	0 	
0.000841022 	2.39395e-08 	0.92 	0.04 	0.04 	0.0342611 	300.177 	
7.33309e-10 	0.0366654 	0.0366654 	0 	
0.000894644 	2.39395e-08 	0.92 	0.04 	0.04 	0.0342611 	300.066 	
7.33036e-10 	0.0366518 	0.0366518 	0 	
0.000948267 	2.39395e-08 	0.92 	0.04 	0.04 	0.034261 	299.954 	
7.32763e-10 	0.0366382 	0.0366382 	0 	
0.00100189 	2.39395e-08 	0.92 	0.04 	0.04 	0.034261 	299.842 	
7.3249e-10 	0.0366245 	0.0366245 	0 	
0.00105551 	2.39395e-08 	0.92 	0.04 	0.04 	0.0342609 	299.731 	
7.32218e-10 	0.0366109 	0.0366109 	0 	
0.00110913 	2.39395e-08 	0.92 	0.04 	0.04 	0.0342609 	299.619 	
7.31945e-10 	0.0365972 	0.0365972 	0 	
0.00116276 	2.39395e-08 	0.92 	0.04 	0.04 	0.0342608 	299.507 	
7.31672e-10 	0.0365836 	0.0365836 	0 	
0.00121638 	2.39395e-08 	0.92 	0.04 	0.04 	0.0342607 	299.396 	
7.31399e-10 	0.03657 	0.03657 	0 	
0.00127 	2.11447e-08 	0.92 	0.04 	0.04 	0.0342607 	3.8002 	
7.31263e-10 	0.0365631 	0.0365631 	0 	
ZONE T = "t = 3e-08 [s]" I = 10 SOLUTIONTIME = 3.0000000000000E-08
0.0007874 	2.39391e-08 	0.92 	0.04 	0.04 	0.0342612 	-2.42135e-08 	
1.10017e-09 	0.0366723 	0.0366723 	0 	
0.000841022 	2.39391e-08 	0.92 	0.04 	0.04 	0.0342611 	300.177 	
1.09996e-09 	0.0366654 	0.0366654 	0 	
0.000894644 	2.39391e-08 	0.92 	0.04 	0.04 	0.0342611 	300.066 	
1.09955e-09 	0.0366518 	0.0366518 	0 	
0.000948267 	2.39391e-08 	0.92 	0.04 	0.04 	0.034261 	299.954 	
1.09914e-09 	0.0366382 	0.0366382 	0 	
0.00100189 	2.39391e-08 	0.92 	0.04 	0.04 	0.034261 	299.842 	
1.09874e-09 	0.0366245 	0.0366245 	0 	
0.00105551 	2.39391e-08 	0.92 	0.04 	0.04 	0.0342609 	299.731 	
1.09833e-09 	0.0366109 	0.0366109 	0 	
0.00110913 	2.39391e-08 	0.92 	0.04 	0.04 	0.0342609 	299.619 	
1.09792e-09 	0.0365972 	0.0365972 	0 	
0.00116276 	2.39391e-08 	0.92 	0.04 	0.04 	0.0342608 	299.507 	
1.09751e-09 	0.0365836 	0.0365836 	0 	
0.00121638 	2.39391e-08 	0.92 	0.04 	0.04 	0.0342607 	299.396 	
1.0971e-09 	0.03657 	0.03657 	0 	
0.00127 	2.11447e-08 	0.92 	0.04 	0.04 	0.0342607 	3.8002 	
1.09689e-09 	0.0365631 	0.0365631 	0 	
ZONE T = "t = 4e-08 [s]" I = 10 SOLUTIONTIME = 4.0000000000000E-08
0.0007874 	2.39415e-08 	0.92 	0.04 	0.04 	0.0342612 	-2.42135e-08 	
1.46689e-09 	0.0366723 	0.0366723 	0 	
0.000841022 	2.39415e-08 	0.92 	0.04 	0.04 	0.0342611 	300.177 	
1.46662e-09 	0.0366654 	0.0366654 	0 	
0.000894644 	2.39415e-08 	0.92 	0.04 	0.04 	0.0342611 	300.066 	
1.46607e-09 	0.0366518 	0.0366518 	0 	
0.000948267 	2.39415e-08 	0.92 	0.04 	0.04 	0.034261 	299.954 	
1.46553e-09 	0.0366382 	0.0366382 	0 	
0.00100189 	2.39415e-08 	0.92 	0.04 	0.04 	0.034261 	299.842 	
1.46498e-09 	0.0366245 	0.0366245 	0 	
0.00105551 	2.39415e-08 	0.92 	0.04 	0.04 	0.0342609 	299.731 	
1.46444e-09 	0.0366109 	0.0366109 	0 	
0.00110913 	2.39415e-08 	0.92 	0.04 	0.04 	0.0342609 	299.619 	
1.46389e-09 	0.0365972 	0.0365972 	0 	
0.00116276 	2.39415e-08 	0.92 	0.04 	0.04 	0.0342608 	299.507 	
1.46334e-09 	0.0365836 	0.0365836 	0 	
0.00121638 	2.39415e-08 	0.92 	0.04 	0.04 	0.0342607 	299.396 	
1.4628e-09 	0.03657 	0.03657 	0 	
0.00127 	2.1147e-08 	0.92 	0.04 	0.04 	0.0342607 	3.8002 	
1.46253e-09 	0.0365631 	0.0365631 	0 	
ZONE T = "t = 5.5e-08 [s]" I = 10 SOLUTIONTIME = 5.5000000000000E-08
0.0007874 	2.39399e-08 	0.92 	0.04 	0.04 	0.0342612 	-2.42135e-08 	
2.01697e-09 	0.0366723 	0.0366723 	0 	
0.000841022 	2.39399e-08 	0.92 	0.04 	0.04 	0.0342611 	300.177 	
2.0166e-09 	0.0366654 	0.0366654 	0 	
0.000894644 	2.39399e-08 	0.92 	0.04 	0.04 	0.0342611 	300.066 	
2.01585e-09 	0.0366518 	0.0366518 	0 	
0.000948267 	2.39399e-08 	0.92 	0.04 	0.04 	0.034261 	299.954 	
2.0151e-09 	0.0366382 	0.0366382 	0 	
0.00100189 	2.39399e-08 	0.92 	0.04 	0.04 	0.034261 	299.842 	
2.01435e-09 	0.0366245 	0.0366245 	0 	
0.00105551 	2.39399e-08 	0.92 	0.04 	0.04 	0.0342609 	299.731 	
2.0136e-09 	0.0366109 	0.0366109 	0 	
0.00110913 	2.39399e-08 	0.92 	0.04 	0.04 	0.0342609 	299.619 	
2.01285e-09 	0.0365972 	0.0365972 	0 	
0.00116276 	2.39399e-08 	0.92 	0.04 	0.04 	0.0342608 	299.507 	
2.0121e-09 	0.0365836 	0.0365836 	0 	
0.00121638 	2.39399e-08 	0.92 	0.04 	0.04 	0.0342607 	299.396 	
2.01135e-09 	0.03657 	0.03657 	0 	
0.00127 	2.11451e-08 	0.92 	0.04 	0.04 	0.0342607 	3.8002 	
2.01097e-09 	0.0365631 	0.0365631 	0 	
ZONE T = "t = 7.75e-08 [s]" I = 10 SOLUTIONTIME = 7.7500000000000E-08
0.0007874 	2.39378e-08 	0.92 	0.04 	0.04 	0.0342612 	-2.42135e-08 	
2.8421e-09 	0.0366723 	0.0366723 	0 	
0.000841022 	2.39378e-08 	0.92 	0.04 	0.04 	0.0342611 	300.177 	
2.84157e-09 	0.0366654 	0.0366654 	0 	
0.000894644 	2.39378e-08 	0.92 	0.04 	0.04 	0.0342611 	300.066 	
2.84051e-09 	0.0366518 	0.0366518 	0 	
0.000948267 	2.39378e-08 	0.92 	0.04 	0.04 	0.034261 	299.954 	
2.83946e-09 	0.0366382 	0.0366382 	0 	
0.00100189 	2.39378e-08 	0.92 	0.04 	0.04 	0.034261 	299.842 	
2.8384e-09 	0.0366245 	0.0366245 	0 	
0.00105551 	2.39378e-08 	0.92 	0.04 	0.04 	0.0342609 	299.731 	
2.83734e-09 	0.0366109 	0.0366109 	0 	
0.00110913 	2.39378e-08 	0.92 	0.04 	0.04 	0.0342609 	299.619 	
2.83629e-09 	0.0365972 	0.0365972 	0 	
0.00116276 	2.39378e-08 	0.92 	0.04 	0.04 	0.0342608 	299.507 	
2.83523e-09 	0.0365836 	0.0365836 	0 	
0.00121638 	2.39378e-08 	0.92 	0.04 	0.04 	0.0342607 	299.396 	
2.83417e-09 	0.03657 	0.03657 	0 	
0.00127 	2.11434e-08 	0.92 	0.04 	0.04 	0.0342607 	3.8002 	
2.83364e-09 	0.0365631 	0.0365631 	0 	
ZONE T = "t = 1.1125e-07 [s]" I = 10 SOLUTIONTIME = 1.1125000000000E-07
0.0007874 	2.39402e-08 	0.92 	0.04 	0.04 	0.0342612 	-2.42135e-08 	
4.07979e-09 	0.0366723 	0.0366723 	0 	
0.000841022 	2.39402e-08 	0.92 	0.04 	0.04 	0.0342611 	300.177 	
4.07903e-09 	0.0366654 	0.0366654 	0 	
0.000894644 	2.39402e-08 	0.92 	0.04 	0.04 	0.0342611 	300.066 	
4.07751e-09 	0.0366518 	0.0366518 	0 	
0.000948267 	2.39402e-08 	0.92 	0.04 	0.04 	0.034261 	299.954 	
4.07599e-09 	0.0366382 	0.0366382 	0 	
0.00100189 	2.39402e-08 	0.92 	0.04 	0.04 	0.034261 	299.842 	
4.07448e-09 	0.0366245 	0.0366245 	0 	
0.00105551 	2.39402e-08 	0.92 	0.04 	0.04 	0.0342609 	299.731 	
4.07296e-09 	0.0366109 	0.0366109 	0 	
0.00110913 	2.39402e-08 	0.92 	0.04 	0.04 	0.0342609 	299.619 	
4.07144e-09 	0.0365972 	0.0365972 	0 	
0.00116276 	2.39402e-08 	0.92 	0.04 	0.04 	0.0342608 	299.507 	
4.06993e-09 	0.0365836 	0.0365836 	0 	
0.00121638 	2.39402e-08 	0.92 	0.04 	0.04 	0.0342607 	299.396 	
4.06841e-09 	0.03657 	0.03657 	0 	
0.00127 	2.11459e-08 	0.92 	0.04 	0.04 	0.0342607 	3.8002 	
4.06765e-09 	0.0365631 	0.0365631 	0 	
ZONE T = "t = 1.61875e-07 [s]" I = 10 SOLUTIONTIME = 1.6187500000000E-07
0.0007874 	2.39392e-08 	0.92 	0.04 	0.04 	0.0342612 	-2.42135e-08 	
5.93632e-09 	0.0366723 	0.0366723 	0 	
0.000841022 	2.39392e-08 	0.92 	0.04 	0.04 	0.0342611 	300.177 	
5.93522e-09 	0.0366654 	0.0366654 	0 	
0.000894644 	2.39392e-08 	0.92 	0.04 	0.04 	0.0342611 	300.066 	
5.93301e-09 	0.0366518 	0.0366518 	0 	
0.000948267 	2.39392e-08 	0.92 	0.04 	0.04 	0.034261 	299.954 	
5.9308e-09 	0.0366382 	0.0366382 	0 	
0.00100189 	2.39392e-08 	0.92 	0.04 	0.04 	0.034261 	299.842 	
5.92859e-09 	0.0366245 	0.0366245 	0 	
0.00105551 	2.39392e-08 	0.92 	0.04 	0.04 	0.0342609 	299.731 	
5.92639e-09 	0.0366109 	0.0366109 	0 	
0.00110913 	2.39392e-08 	0.92 	0.04 	0.04 	0.0342609 	299.619 	
5.92418e-09 	0.0365972 	0.0365972 	0 	
0.00116276 	2.39392e-08 	0.92 	0.04 	0.04 	0.0342608 	299.507 	
5.92197e-09 	0.0365836 	0.0365836 	0 	
0.00121638 	2.39392e-08 	0.92 	0.04 	0.04 	0.0342607 	299.396 	
5.91976e-09 	0.03657 	0.03657 	0 	
0.00127 	2.11447e-08 	0.92 	0.04 	0.04 	0.0342607 	3.8002 	
5.91866e-09 	0.0365631 	0.0365631 	0 	
ZONE T = "t = 2.37813e-07 [s]" I = 10 SOLUTIONTIME = 2.3781250000000E-07
0.0007874 	2.3939e-08 	0.92 	0.04 	0.04 	0.0342612 	-2.42135e-08 	
8.72112e-09 	0.0366723 	0.0366723 	0 	
0.000841022 	2.3939e-08 	0.92 	0.04 	0.04 	0.0342611 	300.177 	
8.7195e-09 	0.0366654 	0.0366654 	0 	
0.000894644 	2.3939e-08 	0.92 	0.04 	0.04 	0.0342611 	300.066 	
8.71625e-09 	0.0366518 	0.0366518 	0 	
0.000948267 	2.3939e-08 	0.92 	0.04 	0.04 	0.034261 	299.954 	
8.71301e-09 	0.0366382 	0.0366382 	0 	
0.00100189 	2.3939e-08 	0.92 	0.04 	0.04 	0.034261 	299.842 	
8.70977e-09 	0.0366245 	0.0366245 	0 	
0.00105551 	2.3939e-08 	0.92 	0.04 	0.04 	0.0342609 	299.731 	
8.70652e-09 	0.0366109 	0.0366109 	0 	
0.00110913 	2.3939e-08 	0.92 	0.04 	0.04 	0.0342609 	299.619 	
8.70328e-09 	0.0365972 	0.0365972 	0 	
0.00116276 	2.3939e-08 	0.92 	0.04 	0.04 	0.0342608 	299.507 	
8.70004e-09 	0.0365836 	0.0365836 	0 	
0.00121638 	2.39389e-08 	0.92 	0.04 	0.04 	0.0342607 	299.396 	
8.69679e-09 	0.03657 	0.03657 	0 	
0.00127 	2.11445e-08 	0.92 	0.04 	0.04 	0.0342607 	3.8002 	
8.69517e-09 	0.0365631 	0.0365631 	0 	
ZONE T = "t = 3.51719e-07 [s]" I = 10 SOLUTIONTIME = 3.5171875000000E-07
0.0007874 	2.39392e-08 	0.92 	0.04 	0.04 	0.0342612 	-2.42135e-08 	
1.28983e-08 	0.0366723 	0.0366723 	0 	
0.000841022 	2.39392e-08 	0.92 	0.04 	0.04 	0.0342611 	300.177 	
1.28959e-08 	0.0366654 	0.0366654 	0 	
0.000894644 	2.39392e-08 	0.92 	0.04 	0.04 	0.0342611 	300.066 	
1.28911e-08 	0.0366518 	0.0366518 	0 	
0.000948267 	2.39392e-08 	0.92 	0.04 	0.04 	0.034261 	299.954 	
1.28863e-08 	0.0366382 	0.0366382 	0 	
0.00100189 	2.39392e-08 	0.92 	0.04 	0.04 	0.034261 	299.842 	
1.28815e-08 	0.0366245 	0.0366245 	0 	
0.00105551 	2.39392e-08 	0.92 	0.04 	0.04 	0.0342609 	299.731 	
1.28767e-08 	0.0366109 	0.0366109 	0 	
0.00110913 	2.39392e-08 	0.92 	0.04 	0.04 	0.0342609 	299.619 	
1.28719e-08 	0.0365972 	0.0365972 	0 	
0.00116276 	2.39392e-08 	0.92 	0.04 	0.04 	0.0342608 	299.507 	
1.28671e-08 	0.0365836 	0.0365836 	0 	
0.00121638 	2.39392e-08 	0.92 	0.04 	0.04 	0.0342607 	299.396 	
1.28623e-08 	0.03657 	0.03657 	0 	
0.00127 	2.11449e-08 	0.92 	0.04 	0.04 	0.0342607 	3.8002 	
1.28599e-08 	0.0365631 	0.0365631 	0 	
