TITLE = "Solution on Domain BulkDomain1D_2"
VARIABLES = "x [m]"  
"Vel_axial" 	"MF_sp(ECDMC)" 	"MF_sp(Li+)" 	"MF_sp(PF6-)" 	"Volt(Electroly)" 	"Volt(CathodeVo)" 	"Temperature" 	
"Potential Drop Electrode-Electrolyte [V]" 	"Surf_0 Equilibrium Potential Drop Electrode-Electrolyte [V]" 	"Overpotential_0 [V]" 	"Current Source [A/m^2]" 	"Li+ flux [kmol/m^2/s]" 	"Electrolyte Current [A/m^2]" 	"Electrode Current [A/m^2]" 	
"Capacity discharged [A-s]" 	"Depth of discharge [-]" 	"Capacity remaining [A-s]" 	"Initial capacity [A-s]" 	"Porosity []" 	"Surface Area [m2/m2] (area per area)" 	"Specific current (per particle area) [A/m^2]" 	"Control volume thickness [m]" 	
"Moles LiCoO2 [mol/m^2] (per electrode area)" 	"Moles CoO2 [mol/m^2] (per electrode area)" 	"qHeat_accum [J/m3]" 	"qHeat_step [W/m3]" 	"Joule_Lyte [W/m3]" 	"Joule_Solid [W/m3]" 	"electrodHeat [W/m3]" 	"OverpotHeat [W/m3]" 	"deltaSHeat [W/m3]" 	

ZONE T = "t = 0 [s]" I = 10 SOLUTIONTIME = 0.0000000000000E+00
0.00127 	0 	0.92 	0.04 	0.04 	-0.07 	3.8 	298.15 	
0 	0 	0 	0 	0 	0.119132 	0 	
0 	0 	0 	0 	0.35 	6.604 	-0.0360787 	3.38667e-05 	
0.000900955 	0.000600637 	0 	0.0 	 0.0 	 0.0 	 0.0 	 0.0 	 0.0 	 
0.00133773 	0 	0.92 	0.04 	0.04 	-0.07 	3.8 	298.15 	
0 	0 	0 	0 	0 	0 	-0 	
0 	0 	0 	0 	0.35 	13.208 	-0.0360787 	6.77333e-05 	
0.00180191 	0.00120127 	0 	0.0 	 0.0 	 0.0 	 0.0 	 0.0 	 0.0 	 
0.00140547 	0 	0.92 	0.04 	0.04 	-0.07 	3.8 	298.15 	
0 	0 	0 	0 	0 	0 	-0 	
0 	0 	0 	0 	0.35 	13.208 	-0.0360787 	6.77333e-05 	
0.00180191 	0.00120127 	0 	0.0 	 0.0 	 0.0 	 0.0 	 0.0 	 0.0 	 
0.0014732 	0 	0.92 	0.04 	0.04 	-0.07 	3.8 	298.15 	
0 	0 	0 	0 	0 	0 	-0 	
0 	0 	0 	0 	0.35 	13.208 	-0.0360787 	6.77333e-05 	
0.00180191 	0.00120127 	0 	0.0 	 0.0 	 0.0 	 0.0 	 0.0 	 0.0 	 
0.00154093 	0 	0.92 	0.04 	0.04 	-0.07 	3.8 	298.15 	
0 	0 	0 	0 	0 	0 	-0 	
0 	0 	0 	0 	0.35 	13.208 	-0.0360787 	6.77333e-05 	
0.00180191 	0.00120127 	0 	0.0 	 0.0 	 0.0 	 0.0 	 0.0 	 0.0 	 
0.00160867 	0 	0.92 	0.04 	0.04 	-0.07 	3.8 	298.15 	
0 	0 	0 	0 	0 	0 	-0 	
0 	0 	0 	0 	0.35 	13.208 	-0.0360787 	6.77333e-05 	
0.00180191 	0.00120127 	0 	0.0 	 0.0 	 0.0 	 0.0 	 0.0 	 0.0 	 
0.0016764 	0 	0.92 	0.04 	0.04 	-0.07 	3.8 	298.15 	
0 	0 	0 	0 	0 	0 	-0 	
0 	0 	0 	0 	0.35 	13.208 	-0.0360787 	6.77333e-05 	
0.00180191 	0.00120127 	0 	0.0 	 0.0 	 0.0 	 0.0 	 0.0 	 0.0 	 
0.00174413 	0 	0.92 	0.04 	0.04 	-0.07 	3.8 	298.15 	
0 	0 	0 	0 	0 	0 	-0 	
0 	0 	0 	0 	0.35 	13.208 	-0.0360787 	6.77333e-05 	
0.00180191 	0.00120127 	0 	0.0 	 0.0 	 0.0 	 0.0 	 0.0 	 0.0 	 
0.00181187 	0 	0.92 	0.04 	0.04 	-0.07 	3.8 	298.15 	
0 	0 	0 	0 	0 	0 	-0 	
0 	0 	0 	0 	0.35 	13.208 	-0.0360787 	6.77333e-05 	
0.00180191 	0.00120127 	0 	0.0 	 0.0 	 0.0 	 0.0 	 0.0 	 0.0 	 
0.0018796 	0 	0.92 	0.04 	0.04 	-0.07 	3.8 	298 	
0 	0 	0 	0 	0 	0 	0.117621 	
0 	0 	0 	0 	0.35 	6.604 	-0.0356212 	3.38667e-05 	
0.000900955 	0.000600637 	0 	0.0 	 0.0 	 0.0 	 0.0 	 0.0 	 0.0 	 
ZONE T = "t = 1e-08 [s]" I = 10 SOLUTIONTIME = 1.0000000000000E-08
0.00127 	1.38029e-08 	0.92 	0.04 	0.04 	0.025166 	3.80013 	299.297 	
3.87 	3.97141 	-0.101414 	-0.238264 	-0 	22.0161 	0.653253 	
-0 	7244.08 	123.46 	141.616 	0.35 	6.604 	-0.256007 	3.38667e-05 	
0.000900955 	0.000600637 	1.42378e+06 	1.42378e+14 	0.048447 	0.0325726 	1.42378e+14 	1.42378e+14 	0 	
0.00133773 	1.02102e-08 	0.92 	0.04 	0.04 	0.0251659 	3.80013 	299.153 	
3.87 	3.97141 	-0.101414 	-0.476527 	-0 	19.8791 	2.59995 	
-0 	14488.2 	246.919 	283.231 	0.35 	13.208 	-0.253113 	6.77333e-05 	
0.00180191 	0.00120127 	1.2449e+06 	1.2449e+14 	0.0428868 	0.160916 	1.2449e+14 	1.2449e+14 	0 	
0.00140547 	6.65324e-09 	0.92 	0.04 	0.04 	0.0251657 	3.80013 	299.009 	
3.87 	3.97141 	-0.101414 	-0.476527 	-0 	17.3083 	5.17396 	
-0 	14488.2 	246.919 	283.231 	0.35 	13.208 	-0.250265 	6.77333e-05 	
0.00180191 	0.00120127 	1.06602e+06 	1.06602e+14 	0.0325364 	0.542121 	1.06602e+14 	1.06602e+14 	0 	
0.0014732 	3.13165e-09 	0.92 	0.04 	0.04 	0.0251656 	3.80012 	298.865 	
3.87 	3.97141 	-0.101414 	-0.476527 	-0 	14.7627 	7.72236 	
-0 	14488.2 	246.919 	283.231 	0.35 	13.208 	-0.247462 	6.77333e-05 	
0.00180191 	0.00120127 	887135 	8.87135e+13 	0.0237029 	1.16864 	8.87135e+13 	8.87135e+13 	0 	
0.00154093 	-3.55095e-10 	0.92 	0.04 	0.04 	0.0251655 	3.80011 	298.721 	
3.87 	3.97141 	-0.101414 	-0.476527 	-0 	12.2418 	10.2455 	
-0 	14488.2 	246.919 	283.231 	0.35 	13.208 	-0.244703 	6.77333e-05 	
0.00180191 	0.00120127 	708254 	7.08254e+13 	0.0163421 	2.03314 	7.08254e+13 	7.08254e+13 	0 	
0.00160867 	-3.80744e-09 	0.92 	0.04 	0.04 	0.0251654 	3.80009 	298.577 	
3.87 	3.97141 	-0.101414 	-0.476527 	-0 	9.74539 	12.7437 	
-0 	14488.2 	246.919 	283.231 	0.35 	13.208 	-0.241988 	6.77333e-05 	
0.00180191 	0.00120127 	529374 	5.29374e+13 	0.0104106 	3.12848 	5.29374e+13 	5.29374e+13 	0 	
0.0016764 	-7.22621e-09 	0.92 	0.04 	0.04 	0.0251654 	3.80007 	298.432 	
3.87 	3.97141 	-0.101414 	-0.476527 	-0 	7.27312 	15.2173 	
-0 	14488.2 	246.919 	283.231 	0.35 	13.208 	-0.239315 	6.77333e-05 	
0.00180191 	0.00120127 	350494 	3.50494e+13 	0.00586632 	4.44772 	3.50494e+13 	3.50494e+13 	0 	
0.00174413 	-1.06111e-08 	0.92 	0.04 	0.04 	0.0251653 	3.80005 	298.288 	
3.87 	3.97141 	-0.101414 	-0.476527 	-0 	4.82468 	17.6666 	
-0 	14488.2 	246.919 	283.231 	0.35 	13.208 	-0.236684 	6.77333e-05 	
0.00180191 	0.00120127 	171613 	1.71613e+13 	0.00266847 	5.98411 	1.71613e+13 	1.71613e+13 	0 	
0.00181187 	-1.39629e-08 	0.92 	0.04 	0.04 	0.0251653 	3.80003 	298.144 	
3.87 	3.97141 	-0.101414 	-0.476527 	-0 	2.39972 	20.092 	
-0 	14488.2 	246.919 	283.231 	0.35 	13.208 	-0.234093 	6.77333e-05 	
0.00180191 	0.00120127 	-7267.01 	-7.26701e+11 	0.00077718 	7.73108 	-7.26701e+11 	-7.26701e+11 	0 	
0.0018796 	0 	0.92 	0.04 	0.04 	0.0251653 	3.8 	298 	
3.87 	3.97154 	-0.101535 	-0.235242 	-0 	0.596535 	22.0633 	
-0 	7244.08 	123.46 	141.616 	0.35 	6.604 	-0.231543 	3.38667e-05 	
0.000900955 	0.000600637 	9.07929e-05 	9079.29 	0.000153267 	8.6564 	9070.63 	9070.63 	0 	
ZONE T = "t = 2e-08 [s]" I = 10 SOLUTIONTIME = 2.0000000000000E-08
0.00127 	2.1175e-08 	0.92 	0.04 	0.04 	0.0342806 	3.8002 	299.297 	
3.77497 	3.97049 	-0.195521 	-1.69067 	1.0971e-07 	33.5163 	1.00747 	
4.23733e-11 	7244.08 	123.46 	141.616 	0.35 	6.604 	-0.30511 	3.38667e-05 	
0.000900955 	0.000600637 	1.42378e+06 	12390.3 	0.114234 	0.0774738 	12390.1 	12390.1 	0 	
0.00133773 	1.56413e-08 	0.92 	0.04 	0.04 	0.0342804 	3.8002 	299.153 	
3.77497 	3.9706 	-0.195639 	-3.34311 	9.63223e-08 	30.5165 	4.0073 	
8.37885e-11 	14488.2 	246.919 	283.231 	0.35 	13.208 	-0.30169 	6.77333e-05 	
0.00180191 	0.00120127 	1.2449e+06 	12314.3 	0.101069 	0.382178 	12313.8 	12313.8 	0 	
0.00140547 	1.01696e-08 	0.92 	0.04 	0.04 	0.0342801 	3.80019 	299.009 	
3.77496 	3.97072 	-0.19576 	-3.30549 	8.30658e-08 	26.5539 	7.96986 	
8.28456e-11 	14488.2 	246.919 	283.231 	0.35 	13.208 	-0.298335 	6.77333e-05 	
0.00180191 	0.00120127 	1.06602e+06 	11799.9 	0.0765836 	1.28615 	11798.6 	11798.6 	0 	
0.0014732 	4.75708e-09 	0.92 	0.04 	0.04 	0.03428 	3.80018 	298.865 	
3.77495 	3.97084 	-0.195885 	-3.26847 	6.99385e-08 	22.6353 	11.8885 	
8.19177e-11 	14488.2 	246.919 	283.231 	0.35 	13.208 	-0.295044 	6.77333e-05 	
0.00180191 	0.00120127 	887135 	11765 	0.0557268 	2.76948 	11762.2 	11762.2 	0 	
0.00154093 	-5.95432e-10 	0.92 	0.04 	0.04 	0.0342798 	3.80016 	298.721 	
3.77494 	3.97095 	-0.196013 	-3.23204 	5.69388e-08 	18.7596 	15.7641 	
8.10045e-11 	14488.2 	246.919 	283.231 	0.35 	13.208 	-0.291815 	6.77333e-05 	
0.00180191 	0.00120127 	708254 	11817.3 	0.0383786 	4.81297 	11812.5 	11812.5 	0 	
0.00160867 	-5.89017e-09 	0.92 	0.04 	0.04 	0.0342797 	3.80014 	298.577 	
3.77493 	3.97107 	-0.196144 	-3.19617 	4.40651e-08 	14.9263 	19.5975 	
8.01057e-11 	14488.2 	246.919 	283.231 	0.35 	13.208 	-0.288645 	6.77333e-05 	
0.00180191 	0.00120127 	529374 	11840.7 	0.0244234 	7.39811 	11833.3 	11833.3 	0 	
0.0016764 	-1.11279e-08 	0.92 	0.04 	0.04 	0.0342796 	3.80011 	298.432 	
3.77491 	3.97119 	-0.196278 	-3.16087 	3.13156e-08 	11.1344 	23.3894 	
7.92209e-11 	14488.2 	246.919 	283.231 	0.35 	13.208 	-0.285535 	6.77333e-05 	
0.00180191 	0.00120127 	350494 	11664.8 	0.0137496 	10.5071 	11654.3 	11654.3 	0 	
0.00174413 	-1.63099e-08 	0.92 	0.04 	0.04 	0.0342795 	3.80008 	298.288 	
3.77489 	3.9713 	-0.196416 	-3.12612 	1.86887e-08 	7.38323 	27.1406 	
7.83499e-11 	14488.2 	246.919 	283.231 	0.35 	13.208 	-0.282482 	6.77333e-05 	
0.00180191 	0.00120127 	171613 	11311.4 	0.00624957 	14.1226 	11297.3 	11297.3 	0 	
0.00181187 	-2.1437e-08 	0.92 	0.04 	0.04 	0.0342795 	3.80004 	298.144 	
3.77486 	3.97142 	-0.196557 	-3.09191 	6.18289e-09 	3.672 	30.8518 	
7.74925e-11 	14488.2 	246.919 	283.231 	0.35 	13.208 	-0.279485 	6.77333e-05 	
0.00180191 	0.00120127 	-7267.01 	11200.3 	0.00181946 	18.2281 	11182.1 	11182.1 	0 	
0.0018796 	0 	0.92 	0.04 	0.04 	0.0342795 	3.8 	298 	
3.77483 	3.97154 	-0.196701 	-1.52911 	6.18289e-09 	0.913143 	33.6106 	
3.83241e-11 	7244.08 	123.46 	141.616 	0.35 	6.604 	-0.276543 	3.38667e-05 	
0.000900955 	0.000600637 	0.000202377 	11158.4 	0.000359132 	20.4014 	11138 	11138 	0 	
ZONE T = "t = 3e-08 [s]" I = 10 SOLUTIONTIME = 3.0000000000000E-08
0.00127 	2.11759e-08 	0.92 	0.04 	0.04 	0.0342806 	3.8002 	299.297 	
3.76592 	3.97049 	-0.204564 	-2.01494 	1.68465e-07 	33.5163 	1.00747 	
9.28738e-11 	7244.08 	123.46 	141.616 	0.35 	6.604 	-0.30511 	3.38667e-05 	
0.000900955 	0.000600637 	1.42378e+06 	11992.6 	0.114234 	0.0774737 	11992.4 	11992.4 	0 	
0.00133773 	1.56419e-08 	0.92 	0.04 	0.04 	0.0342804 	3.8002 	299.153 	
3.76592 	3.9706 	-0.204683 	-3.98472 	1.47816e-07 	30.5165 	4.0073 	
1.83658e-10 	14488.2 	246.919 	283.231 	0.35 	13.208 	-0.30169 	6.77333e-05 	
0.00180191 	0.00120127 	1.2449e+06 	12063.2 	0.101069 	0.382178 	12062.7 	12062.7 	0 	
0.00140547 	1.0169e-08 	0.92 	0.04 	0.04 	0.0342801 	3.80019 	299.009 	
3.76591 	3.97072 	-0.204807 	-3.94041 	1.27396e-07 	26.5539 	7.96986 	
1.81604e-10 	14488.2 	246.919 	283.231 	0.35 	13.208 	-0.298335 	6.77333e-05 	
0.00180191 	0.00120127 	1.06602e+06 	12067.8 	0.0765836 	1.28615 	12066.4 	12066.4 	0 	
0.0014732 	4.7569e-09 	0.92 	0.04 	0.04 	0.03428 	3.80018 	298.865 	
3.7659 	3.97084 	-0.204936 	-3.89694 	1.07202e-07 	22.6353 	11.8885 	
1.79587e-10 	14488.2 	246.919 	283.231 	0.35 	13.208 	-0.295044 	6.77333e-05 	
0.00180191 	0.00120127 	887135 	11903.1 	0.0557268 	2.76948 	11900.3 	11900.3 	0 	
0.00154093 	-5.96339e-10 	0.92 	0.04 	0.04 	0.0342798 	3.80016 	298.721 	
3.76588 	3.97095 	-0.20507 	-3.85429 	8.72283e-08 	18.7596 	15.7641 	
1.77605e-10 	14488.2 	246.919 	283.231 	0.35 	13.208 	-0.291815 	6.77333e-05 	
0.00180191 	0.00120127 	708254 	11695.9 	0.0383786 	4.81297 	11691.1 	11691.1 	0 	
0.00160867 	-5.89108e-09 	0.92 	0.04 	0.04 	0.0342797 	3.80014 	298.577 	
3.76586 	3.97107 	-0.205209 	-3.81243 	6.74718e-08 	14.9263 	19.5975 	
1.75657e-10 	14488.2 	246.919 	283.231 	0.35 	13.208 	-0.288645 	6.77333e-05 	
0.00180191 	0.00120127 	529374 	11288.2 	0.0244234 	7.3981 	11280.8 	11280.8 	0 	
0.0016764 	-1.11288e-08 	0.92 	0.04 	0.04 	0.0342796 	3.80011 	298.432 	
3.76583 	3.97119 	-0.205353 	-3.77135 	4.79282e-08 	11.1344 	23.3894 	
1.73742e-10 	14488.2 	246.919 	283.231 	0.35 	13.208 	-0.285535 	6.77333e-05 	
0.00180191 	0.00120127 	350494 	11254.6 	0.0137496 	10.507 	11244.1 	11244.1 	0 	
0.00174413 	-1.63104e-08 	0.92 	0.04 	0.04 	0.0342795 	3.80008 	298.288 	
3.7658 	3.9713 	-0.205502 	-3.73102 	2.85936e-08 	7.38323 	27.1406 	
1.71861e-10 	14488.2 	246.919 	283.231 	0.35 	13.208 	-0.282482 	6.77333e-05 	
0.00180191 	0.00120127 	171613 	11315.6 	0.00624957 	14.1226 	11301.5 	11301.5 	0 	
0.00181187 	-2.14375e-08 	0.92 	0.04 	0.04 	0.0342795 	3.80004 	298.144 	
3.76576 	3.97142 	-0.205656 	-3.69144 	9.46467e-09 	3.672 	30.8518 	
1.70011e-10 	14488.2 	246.919 	283.231 	0.35 	13.208 	-0.279485 	6.77333e-05 	
0.00180191 	0.00120127 	-7267.01 	11325.9 	0.00181946 	18.2281 	11307.7 	11307.7 	0 	
0.0018796 	0 	0.92 	0.04 	0.04 	0.0342795 	3.8 	298 	
3.76572 	3.97154 	-0.205815 	-1.82629 	9.46467e-09 	0.913143 	33.6106 	
8.40964e-11 	7244.08 	123.46 	141.616 	0.35 	6.604 	-0.276543 	3.38667e-05 	
0.000900955 	0.000600637 	0.000311324 	10894.7 	0.000359132 	20.4014 	10874.3 	10874.3 	0 	
ZONE T = "t = 4e-08 [s]" I = 10 SOLUTIONTIME = 4.0000000000000E-08
0.00127 	2.11745e-08 	0.92 	0.04 	0.04 	0.0342806 	3.8002 	299.297 	
3.76592 	3.97049 	-0.204564 	-2.01494 	1.68466e-07 	33.5164 	1.00747 	
1.43374e-10 	7244.08 	123.46 	141.616 	0.35 	6.604 	-0.30511 	3.38667e-05 	
0.000900955 	0.000600637 	1.42378e+06 	12536.8 	0.114234 	0.077474 	12536.6 	12536.6 	0 	
0.00133773 	1.56404e-08 	0.92 	0.04 	0.04 	0.0342804 	3.8002 	299.153 	
3.76592 	3.9706 	-0.204683 	-3.98472 	1.47816e-07 	30.5165 	4.0073 	
2.83527e-10 	14488.2 	246.919 	283.231 	0.35 	13.208 	-0.30169 	6.77333e-05 	
0.00180191 	0.00120127 	1.2449e+06 	12054.8 	0.101069 	0.38218 	12054.3 	12054.3 	0 	
0.00140547 	1.01679e-08 	0.92 	0.04 	0.04 	0.0342801 	3.80019 	299.009 	
3.76591 	3.97072 	-0.204807 	-3.94041 	1.27396e-07 	26.554 	7.96987 	
2.80363e-10 	14488.2 	246.919 	283.231 	0.35 	13.208 	-0.298335 	6.77333e-05 	
0.00180191 	0.00120127 	1.06602e+06 	11812.5 	0.0765838 	1.28616 	11811.1 	11811.1 	0 	
0.0014732 	4.75545e-09 	0.92 	0.04 	0.04 	0.03428 	3.80018 	298.865 	
3.7659 	3.97084 	-0.204936 	-3.89694 	1.07202e-07 	22.6353 	11.8886 	
2.77256e-10 	14488.2 	246.919 	283.231 	0.35 	13.208 	-0.295044 	6.77333e-05 	
0.00180191 	0.00120127 	887135 	11635.3 	0.055727 	2.76949 	11632.4 	11632.4 	0 	
0.00154093 	-5.97793e-10 	0.92 	0.04 	0.04 	0.0342798 	3.80016 	298.721 	
3.76588 	3.97095 	-0.20507 	-3.85429 	8.72283e-08 	18.7597 	15.7642 	
2.74205e-10 	14488.2 	246.919 	283.231 	0.35 	13.208 	-0.291815 	6.77333e-05 	
0.00180191 	0.00120127 	708254 	11415.5 	0.0383787 	4.81298 	11410.6 	11410.6 	0 	
0.00160867 	-5.89218e-09 	0.92 	0.04 	0.04 	0.0342797 	3.80014 	298.577 	
3.76586 	3.97107 	-0.205209 	-3.81243 	6.74718e-08 	14.9263 	19.5975 	
2.71207e-10 	14488.2 	246.919 	283.231 	0.35 	13.208 	-0.288645 	6.77333e-05 	
0.00180191 	0.00120127 	529374 	11836.5 	0.0244235 	7.39813 	11829.1 	11829.1 	0 	
0.0016764 	-1.11299e-08 	0.92 	0.04 	0.04 	0.0342796 	3.80011 	298.432 	
3.76583 	3.97119 	-0.205353 	-3.77135 	4.79282e-08 	11.1344 	23.3894 	
2.68263e-10 	14488.2 	246.919 	283.231 	0.35 	13.208 	-0.285535 	6.77333e-05 	
0.00180191 	0.00120127 	350494 	11664.8 	0.0137496 	10.5071 	11654.3 	11654.3 	0 	
0.00174413 	-1.63112e-08 	0.92 	0.04 	0.04 	0.0342795 	3.80008 	298.288 	
3.7658 	3.9713 	-0.205502 	-3.73102 	2.85936e-08 	7.38324 	27.1406 	
2.65371e-10 	14488.2 	246.919 	283.231 	0.35 	13.208 	-0.282482 	6.77333e-05 	
0.00180191 	0.00120127 	171613 	11315.6 	0.00624959 	14.1226 	11301.5 	11301.5 	0 	
0.00181187 	-2.14372e-08 	0.92 	0.04 	0.04 	0.0342795 	3.80004 	298.144 	
3.76576 	3.97142 	-0.205656 	-3.69144 	9.46504e-09 	3.67201 	30.8518 	
2.6253e-10 	14488.2 	246.919 	283.231 	0.35 	13.208 	-0.279485 	6.77333e-05 	
0.00180191 	0.00120127 	-7267.01 	10924.1 	0.00181946 	18.2282 	10905.8 	10905.8 	0 	
0.0018796 	0 	0.92 	0.04 	0.04 	0.0342795 	3.8 	298 	
3.76572 	3.97154 	-0.205815 	-1.82629 	9.46504e-09 	0.913145 	33.6107 	
1.29869e-10 	7244.08 	123.46 	141.616 	0.35 	6.604 	-0.276543 	3.38667e-05 	
0.000900955 	0.000600637 	0.000424289 	11296.5 	0.000359133 	20.4014 	11276.1 	11276.1 	0 	
ZONE T = "t = 5.5e-08 [s]" I = 10 SOLUTIONTIME = 5.5000000000000E-08
0.00127 	2.11735e-08 	0.92 	0.04 	0.04 	0.0342806 	3.8002 	299.297 	
3.76592 	3.97049 	-0.204564 	-2.01494 	1.68466e-07 	33.5164 	1.00747 	
1.93875e-10 	7244.08 	123.46 	141.616 	0.35 	6.604 	-0.30511 	3.38667e-05 	
0.000900955 	0.000600637 	1.42378e+06 	12044.3 	0.114234 	0.077474 	12044.1 	12044.1 	0 	
0.00133773 	1.56395e-08 	0.92 	0.04 	0.04 	0.0342804 	3.8002 	299.153 	
3.76592 	3.9706 	-0.204683 	-3.98472 	1.47816e-07 	30.5165 	4.0073 	
3.83396e-10 	14488.2 	246.919 	283.231 	0.35 	13.208 	-0.30169 	6.77333e-05 	
0.00180191 	0.00120127 	1.2449e+06 	12064.6 	0.101069 	0.38218 	12064.1 	12064.1 	0 	
0.00140547 	1.0167e-08 	0.92 	0.04 	0.04 	0.0342801 	3.80019 	299.009 	
3.76591 	3.97072 	-0.204807 	-3.94041 	1.27396e-07 	26.554 	7.96987 	
3.79121e-10 	14488.2 	246.919 	283.231 	0.35 	13.208 	-0.298335 	6.77333e-05 	
0.00180191 	0.00120127 	1.06602e+06 	12030.1 	0.0765838 	1.28616 	12028.8 	12028.8 	0 	
0.0014732 	4.75509e-09 	0.92 	0.04 	0.04 	0.03428 	3.80018 	298.865 	
3.7659 	3.97084 	-0.204936 	-3.89694 	1.07202e-07 	22.6353 	11.8886 	
3.74925e-10 	14488.2 	246.919 	283.231 	0.35 	13.208 	-0.295044 	6.77333e-05 	
0.00180191 	0.00120127 	887135 	11585 	0.055727 	2.76949 	11582.2 	11582.2 	0 	
0.00154093 	-5.97551e-10 	0.92 	0.04 	0.04 	0.0342798 	3.80016 	298.721 	
3.76588 	3.97095 	-0.20507 	-3.85429 	8.72284e-08 	18.7597 	15.7642 	
3.70805e-10 	14488.2 	246.919 	283.231 	0.35 	13.208 	-0.291815 	6.77333e-05 	
0.00180191 	0.00120127 	708254 	11737.8 	0.0383787 	4.81298 	11732.9 	11732.9 	0 	
0.00160867 	-5.8923e-09 	0.92 	0.04 	0.04 	0.0342797 	3.80014 	298.577 	
3.76586 	3.97107 	-0.205209 	-3.81243 	6.74719e-08 	14.9263 	19.5975 	
3.66758e-10 	14488.2 	246.919 	283.231 	0.35 	13.208 	-0.288645 	6.77333e-05 	
0.00180191 	0.00120127 	529374 	11387.3 	0.0244235 	7.39813 	11379.9 	11379.9 	0 	
0.0016764 	-1.11293e-08 	0.92 	0.04 	0.04 	0.0342796 	3.80011 	298.432 	
3.76583 	3.97119 	-0.205353 	-3.77135 	4.79283e-08 	11.1344 	23.3894 	
3.62785e-10 	14488.2 	246.919 	283.231 	0.35 	13.208 	-0.285535 	6.77333e-05 	
0.00180191 	0.00120127 	350494 	11346.7 	0.0137496 	10.5071 	11336.2 	11336.2 	0 	
0.00174413 	-1.6311e-08 	0.92 	0.04 	0.04 	0.0342795 	3.80008 	298.288 	
3.7658 	3.9713 	-0.205502 	-3.73102 	2.85936e-08 	7.38324 	27.1406 	
3.58882e-10 	14488.2 	246.919 	283.231 	0.35 	13.208 	-0.282482 	6.77333e-05 	
0.00180191 	0.00120127 	171613 	11265.4 	0.00624959 	14.1226 	11251.3 	11251.3 	0 	
0.00181187 	-2.14377e-08 	0.92 	0.04 	0.04 	0.0342795 	3.80004 	298.144 	
3.76576 	3.97142 	-0.205656 	-3.69144 	9.46542e-09 	3.67201 	30.8518 	
3.55048e-10 	14488.2 	246.919 	283.231 	0.35 	13.208 	-0.279485 	6.77333e-05 	
0.00180191 	0.00120127 	-7267.01 	11418 	0.00181946 	18.2282 	11399.7 	11399.7 	0 	
0.0018796 	0 	0.92 	0.04 	0.04 	0.0342795 	3.8 	298 	
3.76572 	3.97154 	-0.205815 	-1.82629 	9.46542e-09 	0.913145 	33.6107 	
1.75641e-10 	7244.08 	123.46 	141.616 	0.35 	6.604 	-0.276543 	3.38667e-05 	
0.000900955 	0.000600637 	0.00058907 	10985.4 	0.000359133 	20.4014 	10965 	10965 	0 	
ZONE T = "t = 7.75e-08 [s]" I = 10 SOLUTIONTIME = 7.7500000000000E-08
0.00127 	2.11762e-08 	0.92 	0.04 	0.04 	0.0342806 	3.8002 	299.297 	
3.76592 	3.97049 	-0.204564 	-2.01494 	1.68466e-07 	33.5164 	1.00747 	
2.69626e-10 	7244.08 	123.46 	141.616 	0.35 	6.604 	-0.30511 	3.38667e-05 	
0.000900955 	0.000600637 	1.42378e+06 	12192.2 	0.114234 	0.077474 	12192 	12192 	0 	
0.00133773 	1.5642e-08 	0.92 	0.04 	0.04 	0.0342804 	3.8002 	299.153 	
3.76592 	3.9706 	-0.204683 	-3.98472 	1.47816e-07 	30.5165 	4.0073 	
5.33199e-10 	14488.2 	246.919 	283.231 	0.35 	13.208 	-0.30169 	6.77333e-05 	
0.00180191 	0.00120127 	1.2449e+06 	11998.5 	0.101069 	0.38218 	11998 	11998 	0 	
0.00140547 	1.01697e-08 	0.92 	0.04 	0.04 	0.0342801 	3.80019 	299.009 	
3.76591 	3.97072 	-0.204807 	-3.94041 	1.27396e-07 	26.554 	7.96987 	
5.27259e-10 	14488.2 	246.919 	283.231 	0.35 	13.208 	-0.298335 	6.77333e-05 	
0.00180191 	0.00120127 	1.06602e+06 	11997.6 	0.0765838 	1.28616 	11996.2 	11996.2 	0 	
0.0014732 	4.75743e-09 	0.92 	0.04 	0.04 	0.03428 	3.80018 	298.865 	
3.7659 	3.97084 	-0.204936 	-3.89694 	1.07202e-07 	22.6353 	11.8886 	
5.21429e-10 	14488.2 	246.919 	283.231 	0.35 	13.208 	-0.295044 	6.77333e-05 	
0.00180191 	0.00120127 	887135 	11892.9 	0.055727 	2.76949 	11890.1 	11890.1 	0 	
0.00154093 	-5.95453e-10 	0.92 	0.04 	0.04 	0.0342798 	3.80016 	298.721 	
3.76588 	3.97095 	-0.20507 	-3.85429 	8.72284e-08 	18.7597 	15.7642 	
5.15705e-10 	14488.2 	246.919 	283.231 	0.35 	13.208 	-0.291815 	6.77333e-05 	
0.00180191 	0.00120127 	708254 	11793.6 	0.0383787 	4.81298 	11788.7 	11788.7 	0 	
0.00160867 	-5.89036e-09 	0.92 	0.04 	0.04 	0.0342797 	3.80014 	298.577 	
3.76586 	3.97107 	-0.205209 	-3.81243 	6.74719e-08 	14.9263 	19.5975 	
5.10085e-10 	14488.2 	246.919 	283.231 	0.35 	13.208 	-0.288645 	6.77333e-05 	
0.00180191 	0.00120127 	529374 	11529.6 	0.0244235 	7.39813 	11522.2 	11522.2 	0 	
0.0016764 	-1.11284e-08 	0.92 	0.04 	0.04 	0.0342796 	3.80011 	298.432 	
3.76583 	3.97119 	-0.205353 	-3.77135 	4.79283e-08 	11.1344 	23.3894 	
5.04567e-10 	14488.2 	246.919 	283.231 	0.35 	13.208 	-0.285535 	6.77333e-05 	
0.00180191 	0.00120127 	350494 	11472.2 	0.0137496 	10.5071 	11461.7 	11461.7 	0 	
0.00174413 	-1.63104e-08 	0.92 	0.04 	0.04 	0.0342795 	3.80008 	298.288 	
3.7658 	3.9713 	-0.205502 	-3.73102 	2.85936e-08 	7.38324 	27.1406 	
4.99148e-10 	14488.2 	246.919 	283.231 	0.35 	13.208 	-0.282482 	6.77333e-05 	
0.00180191 	0.00120127 	171613 	11300.8 	0.00624959 	14.1226 	11286.6 	11286.6 	0 	
0.00181187 	-2.14371e-08 	0.92 	0.04 	0.04 	0.0342795 	3.80004 	298.144 	
3.76576 	3.97142 	-0.205656 	-3.69144 	9.46597e-09 	3.67201 	30.8518 	
4.93826e-10 	14488.2 	246.919 	283.231 	0.35 	13.208 	-0.279485 	6.77333e-05 	
0.00180191 	0.00120127 	-7267.01 	11086.8 	0.00181946 	18.2282 	11068.6 	11068.6 	0 	
0.0018796 	0 	0.92 	0.04 	0.04 	0.0342795 	3.8 	298 	
3.76572 	3.97154 	-0.205815 	-1.82629 	9.46597e-09 	0.913145 	33.6107 	
2.44299e-10 	7244.08 	123.46 	141.616 	0.35 	6.604 	-0.276543 	3.38667e-05 	
0.000900955 	0.000600637 	0.000838251 	11074.7 	0.000359133 	20.4014 	11054.3 	11054.3 	0 	
ZONE T = "t = 1.1125e-07 [s]" I = 10 SOLUTIONTIME = 1.1125000000000E-07
0.00127 	2.11749e-08 	0.92 	0.04 	0.04 	0.0342806 	3.8002 	299.297 	
3.76592 	3.97049 	-0.204564 	-2.01494 	1.68467e-07 	33.5164 	1.00747 	
3.83252e-10 	7244.08 	123.46 	141.616 	0.35 	6.604 	-0.30511 	3.38667e-05 	
0.000900955 	0.000600637 	1.42378e+06 	12091.7 	0.114234 	0.077474 	12091.5 	12091.5 	0 	
0.00133773 	1.5641e-08 	0.92 	0.04 	0.04 	0.0342804 	3.8002 	299.153 	
3.76592 	3.9706 	-0.204683 	-3.98472 	1.47816e-07 	30.5165 	4.0073 	
7.57905e-10 	14488.2 	246.919 	283.231 	0.35 	13.208 	-0.30169 	6.77333e-05 	
0.00180191 	0.00120127 	1.2449e+06 	12079.8 	0.101069 	0.38218 	12079.3 	12079.3 	0 	
0.00140547 	1.01683e-08 	0.92 	0.04 	0.04 	0.0342801 	3.80019 	299.009 	
3.76591 	3.97072 	-0.204807 	-3.94041 	1.27396e-07 	26.554 	7.96987 	
7.49466e-10 	14488.2 	246.919 	283.231 	0.35 	13.208 	-0.298335 	6.77333e-05 	
0.00180191 	0.00120127 	1.06602e+06 	11939.3 	0.0765838 	1.28616 	11937.9 	11937.9 	0 	
0.0014732 	4.75606e-09 	0.92 	0.04 	0.04 	0.03428 	3.80018 	298.865 	
3.7659 	3.97084 	-0.204936 	-3.89694 	1.07202e-07 	22.6353 	11.8886 	
7.41184e-10 	14488.2 	246.919 	283.231 	0.35 	13.208 	-0.295044 	6.77333e-05 	
0.00180191 	0.00120127 	887135 	11789.4 	0.055727 	2.76949 	11786.5 	11786.5 	0 	
0.00154093 	-5.96825e-10 	0.92 	0.04 	0.04 	0.0342798 	3.80016 	298.721 	
3.76588 	3.97095 	-0.20507 	-3.85429 	8.72284e-08 	18.7597 	15.7642 	
7.33055e-10 	14488.2 	246.919 	283.231 	0.35 	13.208 	-0.291815 	6.77333e-05 	
0.00180191 	0.00120127 	708254 	11756.4 	0.0383787 	4.81298 	11751.5 	11751.5 	0 	
0.00160867 	-5.89146e-09 	0.92 	0.04 	0.04 	0.0342797 	3.80014 	298.577 	
3.76586 	3.97107 	-0.205209 	-3.81243 	6.74719e-08 	14.9263 	19.5975 	
7.25074e-10 	14488.2 	246.919 	283.231 	0.35 	13.208 	-0.288645 	6.77333e-05 	
0.00180191 	0.00120127 	529374 	11478.1 	0.0244235 	7.39813 	11470.7 	11470.7 	0 	
0.0016764 	-1.1129e-08 	0.92 	0.04 	0.04 	0.0342796 	3.80011 	298.432 	
3.76583 	3.97119 	-0.205353 	-3.77135 	4.79283e-08 	11.1344 	23.3894 	
7.1724e-10 	14488.2 	246.919 	283.231 	0.35 	13.208 	-0.285535 	6.77333e-05 	
0.00180191 	0.00120127 	350494 	11466.7 	0.0137496 	10.5071 	11456.1 	11456.1 	0 	
0.00174413 	-1.63104e-08 	0.92 	0.04 	0.04 	0.0342795 	3.80008 	298.288 	
3.7658 	3.9713 	-0.205502 	-3.73102 	2.85936e-08 	7.38324 	27.1406 	
7.09547e-10 	14488.2 	246.919 	283.231 	0.35 	13.208 	-0.282482 	6.77333e-05 	
0.00180191 	0.00120127 	171613 	11301.4 	0.00624959 	14.1226 	11287.2 	11287.2 	0 	
0.00181187 	-2.14371e-08 	0.92 	0.04 	0.04 	0.0342795 	3.80004 	298.144 	
3.76576 	3.97142 	-0.205656 	-3.69144 	9.4668e-09 	3.67201 	30.8518 	
7.01993e-10 	14488.2 	246.919 	283.231 	0.35 	13.208 	-0.279485 	6.77333e-05 	
0.00180191 	0.00120127 	-7267.01 	11211.5 	0.00181946 	18.2282 	11193.3 	11193.3 	0 	
0.0018796 	0 	0.92 	0.04 	0.04 	0.0342795 	3.8 	298 	
3.76572 	3.97154 	-0.205815 	-1.82629 	9.4668e-09 	0.913145 	33.6107 	
3.47287e-10 	7244.08 	123.46 	141.616 	0.35 	6.604 	-0.276543 	3.38667e-05 	
0.000900955 	0.000600637 	0.00121054 	11030.7 	0.000359133 	20.4014 	11010.3 	11010.3 	0 	
ZONE T = "t = 1.61875e-07 [s]" I = 10 SOLUTIONTIME = 1.6187500000000E-07
0.00127 	2.11757e-08 	0.92 	0.04 	0.04 	0.0342806 	3.8002 	299.297 	
3.76592 	3.97049 	-0.204564 	-2.01494 	1.68467e-07 	33.5164 	1.00747 	
5.53691e-10 	7244.08 	123.46 	141.616 	0.35 	6.604 	-0.30511 	3.38667e-05 	
0.000900955 	0.000600637 	1.42378e+06 	12186.4 	0.114234 	0.077474 	12186.2 	12186.2 	0 	
0.00133773 	1.56417e-08 	0.92 	0.04 	0.04 	0.0342804 	3.8002 	299.153 	
3.76592 	3.9706 	-0.204683 	-3.98472 	1.47816e-07 	30.5165 	4.0073 	
1.09496e-09 	14488.2 	246.919 	283.231 	0.35 	13.208 	-0.30169 	6.77333e-05 	
0.00180191 	0.00120127 	1.2449e+06 	12039.7 	0.101069 	0.38218 	12039.2 	12039.2 	0 	
0.00140547 	1.01693e-08 	0.92 	0.04 	0.04 	0.0342801 	3.80019 	299.009 	
3.76591 	3.97072 	-0.204807 	-3.94041 	1.27396e-07 	26.554 	7.96987 	
1.08278e-09 	14488.2 	246.919 	283.231 	0.35 	13.208 	-0.298335 	6.77333e-05 	
0.00180191 	0.00120127 	1.06602e+06 	11900 	0.0765838 	1.28616 	11898.7 	11898.7 	0 	
0.0014732 	4.75715e-09 	0.92 	0.04 	0.04 	0.03428 	3.80018 	298.865 	
3.7659 	3.97084 	-0.204936 	-3.89694 	1.07202e-07 	22.6353 	11.8886 	
1.07082e-09 	14488.2 	246.919 	283.231 	0.35 	13.208 	-0.295044 	6.77333e-05 	
0.00180191 	0.00120127 	887135 	11791.8 	0.055727 	2.76949 	11789 	11789 	0 	
0.00154093 	-5.95731e-10 	0.92 	0.04 	0.04 	0.0342798 	3.80016 	298.721 	
3.76588 	3.97095 	-0.20507 	-3.85429 	8.72284e-08 	18.7597 	15.7642 	
1.05908e-09 	14488.2 	246.919 	283.231 	0.35 	13.208 	-0.291815 	6.77333e-05 	
0.00180191 	0.00120127 	708254 	11608.8 	0.0383787 	4.81298 	11604 	11604 	0 	
0.00160867 	-5.89041e-09 	0.92 	0.04 	0.04 	0.0342797 	3.80014 	298.577 	
3.76586 	3.97107 	-0.205209 	-3.81243 	6.74719e-08 	14.9263 	19.5975 	
1.04756e-09 	14488.2 	246.919 	283.231 	0.35 	13.208 	-0.288645 	6.77333e-05 	
0.00180191 	0.00120127 	529374 	11591.8 	0.0244235 	7.39813 	11584.4 	11584.4 	0 	
0.0016764 	-1.11282e-08 	0.92 	0.04 	0.04 	0.0342796 	3.80011 	298.432 	
3.76583 	3.97119 	-0.205353 	-3.77135 	4.79283e-08 	11.1344 	23.3894 	
1.03625e-09 	14488.2 	246.919 	283.231 	0.35 	13.208 	-0.285535 	6.77333e-05 	
0.00180191 	0.00120127 	350494 	11402.2 	0.0137496 	10.5071 	11391.7 	11391.7 	0 	
0.00174413 	-1.631e-08 	0.92 	0.04 	0.04 	0.0342795 	3.80008 	298.288 	
3.7658 	3.9713 	-0.205502 	-3.73102 	2.85936e-08 	7.38324 	27.1406 	
1.02515e-09 	14488.2 	246.919 	283.231 	0.35 	13.208 	-0.282482 	6.77333e-05 	
0.00180191 	0.00120127 	171613 	11351 	0.00624959 	14.1226 	11336.8 	11336.8 	0 	
0.00181187 	-2.14367e-08 	0.92 	0.04 	0.04 	0.0342795 	3.80004 	298.144 	
3.76576 	3.97142 	-0.205656 	-3.69144 	9.46803e-09 	3.67201 	30.8518 	
1.01424e-09 	14488.2 	246.919 	283.231 	0.35 	13.208 	-0.279485 	6.77333e-05 	
0.00180191 	0.00120127 	-7267.01 	11288 	0.00181946 	18.2282 	11269.7 	11269.7 	0 	
0.0018796 	0 	0.92 	0.04 	0.04 	0.0342795 	3.8 	298 	
3.76572 	3.97154 	-0.205815 	-1.82629 	9.46803e-09 	0.913145 	33.6107 	
5.01769e-10 	7244.08 	123.46 	141.616 	0.35 	6.604 	-0.276543 	3.38667e-05 	
0.000900955 	0.000600637 	0.00177528 	11155.5 	0.000359133 	20.4014 	11135.1 	11135.1 	0 	
ZONE T = "t = 2.37813e-07 [s]" I = 10 SOLUTIONTIME = 2.3781250000000E-07
0.00127 	2.11748e-08 	0.92 	0.04 	0.04 	0.0342806 	3.8002 	299.297 	
3.76592 	3.97049 	-0.204564 	-2.01494 	1.68468e-07 	33.5164 	1.00747 	
8.0935e-10 	7244.08 	123.46 	141.616 	0.35 	6.604 	-0.30511 	3.38667e-05 	
0.000900955 	0.000600637 	1.42378e+06 	12150 	0.114234 	0.077474 	12149.8 	12149.8 	0 	
0.00133773 	1.56408e-08 	0.92 	0.04 	0.04 	0.0342804 	3.8002 	299.153 	
3.76592 	3.9706 	-0.204683 	-3.98472 	1.47816e-07 	30.5165 	4.0073 	
1.60055e-09 	14488.2 	246.919 	283.231 	0.35 	13.208 	-0.30169 	6.77333e-05 	
0.00180191 	0.00120127 	1.2449e+06 	12023.4 	0.101069 	0.38218 	12022.9 	12022.9 	0 	
0.00140547 	1.01682e-08 	0.92 	0.04 	0.04 	0.0342801 	3.80019 	299.009 	
3.76591 	3.97072 	-0.204807 	-3.94041 	1.27396e-07 	26.554 	7.96987 	
1.58274e-09 	14488.2 	246.919 	283.231 	0.35 	13.208 	-0.298335 	6.77333e-05 	
0.00180191 	0.00120127 	1.06602e+06 	11934.2 	0.0765838 	1.28616 	11932.8 	11932.8 	0 	
0.0014732 	4.75611e-09 	0.92 	0.04 	0.04 	0.03428 	3.80018 	298.865 	
3.7659 	3.97084 	-0.204936 	-3.89694 	1.07202e-07 	22.6353 	11.8886 	
1.56527e-09 	14488.2 	246.919 	283.231 	0.35 	13.208 	-0.295044 	6.77333e-05 	
0.00180191 	0.00120127 	887135 	11798.7 	0.055727 	2.76949 	11795.9 	11795.9 	0 	
0.00154093 	-5.96771e-10 	0.92 	0.04 	0.04 	0.0342798 	3.80016 	298.721 	
3.76588 	3.97095 	-0.20507 	-3.85429 	8.72284e-08 	18.7597 	15.7642 	
1.54812e-09 	14488.2 	246.919 	283.231 	0.35 	13.208 	-0.291815 	6.77333e-05 	
0.00180191 	0.00120127 	708254 	11688.2 	0.0383787 	4.81298 	11683.3 	11683.3 	0 	
0.00160867 	-5.89161e-09 	0.92 	0.04 	0.04 	0.0342797 	3.80014 	298.577 	
3.76586 	3.97107 	-0.205209 	-3.81243 	6.74719e-08 	14.9263 	19.5975 	
1.53129e-09 	14488.2 	246.919 	283.231 	0.35 	13.208 	-0.288645 	6.77333e-05 	
0.00180191 	0.00120127 	529374 	11531.5 	0.0244235 	7.39813 	11524 	11524 	0 	
0.0016764 	-1.11294e-08 	0.92 	0.04 	0.04 	0.0342796 	3.80011 	298.432 	
3.76583 	3.97119 	-0.205353 	-3.77135 	4.79283e-08 	11.1344 	23.3894 	
1.51476e-09 	14488.2 	246.919 	283.231 	0.35 	13.208 	-0.285535 	6.77333e-05 	
0.00180191 	0.00120127 	350494 	11455.4 	0.0137496 	10.5071 	11444.8 	11444.8 	0 	