TITLE = "Solution on Domain BulkDomain1D_1"
VARIABLES = "x [m]"  
"Vel_axial" 	"MF_sp(ECDMC)" 	"MF_sp(Li+)" 	"MF_sp(PF6-)" 	"Volt(Electroly)" 	"Temperature" 	"qHeat_accum [J/m3]" 	"qHeat_step [W/m3]" 	"Joule_Lyte [W/m3]" 	"Joule_Solid [W/m3]" 	
ZONE T = "t = 0 [s]" I = 10 SOLUTIONTIME = 0.0000000000000E+00
0.0007874 	0 	0.92 	0.04 	0.04 	-0.07 	0 	
0 	0.0 	 0.0 	 0.0 	 
0.000841022 	0 	0.92 	0.04 	0.04 	-0.07 	298.15 	
0 	0.0 	 0.0 	 0.0 	 
0.000894644 	0 	0.92 	0.04 	0.04 	-0.07 	298.15 	
0 	0.0 	 0.0 	 0.0 	 
0.000948267 	0 	0.92 	0.04 	0.04 	-0.07 	298.15 	
0 	0.0 	 0.0 	 0.0 	 
0.00100189 	0 	0.92 	0.04 	0.04 	-0.07 	298.15 	
0 	0.0 	 0.0 	 0.0 	 
0.00105551 	0 	0.92 	0.04 	0.04 	-0.07 	298.15 	
0 	0.0 	 0.0 	 0.0 	 
0.00110913 	0 	0.92 	0.04 	0.04 	-0.07 	298.15 	
0 	0.0 	 0.0 	 0.0 	 
0.00116276 	0 	0.92 	0.04 	0.04 	-0.07 	298.15 	
0 	0.0 	 0.0 	 0.0 	 
0.00121638 	0 	0.92 	0.04 	0.04 	-0.07 	298.15 	
0 	0.0 	 0.0 	 0.0 	 
0.00127 	0 	0.92 	0.04 	0.04 	-0.07 	3.8 	
0 	0.0 	 0.0 	 0.0 	 
ZONE T = "t = 1e-08 [s]" I = 10 SOLUTIONTIME = 1.0000000000000E-08
0.0007874 	1.56179e-08 	0.92 	0.04 	0.04 	0.0251663 	-1.5528e-08 	
1.55693e-10 	0.0155693 	0.0155693 	0 	
0.000841022 	1.56179e-08 	0.92 	0.04 	0.04 	0.0251663 	300.21 	
1.55675e-10 	0.0155675 	0.0155675 	0 	
0.000894644 	1.56179e-08 	0.92 	0.04 	0.04 	0.0251663 	300.096 	
1.55638e-10 	0.0155638 	0.0155638 	0 	
0.000948267 	1.56179e-08 	0.92 	0.04 	0.04 	0.0251662 	299.982 	
1.55602e-10 	0.0155602 	0.0155602 	0 	
0.00100189 	1.56179e-08 	0.92 	0.04 	0.04 	0.0251662 	299.868 	
1.55565e-10 	0.0155565 	0.0155565 	0 	
0.00105551 	1.56179e-08 	0.92 	0.04 	0.04 	0.0251662 	299.754 	
1.55528e-10 	0.0155528 	0.0155528 	0 	
0.00110913 	1.56179e-08 	0.92 	0.04 	0.04 	0.0251661 	299.64 	
1.55492e-10 	0.0155492 	0.0155492 	0 	
0.00116276 	1.56179e-08 	0.92 	0.04 	0.04 	0.0251661 	299.526 	
1.55455e-10 	0.0155455 	0.0155455 	0 	
0.00121638 	1.56179e-08 	0.92 	0.04 	0.04 	0.0251661 	299.411 	
1.55418e-10 	0.0155418 	0.0155418 	0 	
0.00127 	1.38029e-08 	0.92 	0.04 	0.04 	0.025166 	3.80013 	
1.554e-10 	0.01554 	0.01554 	0 	
ZONE T = "t = 2e-08 [s]" I = 10 SOLUTIONTIME = 2.0000000000000E-08
0.0007874 	2.39733e-08 	0.92 	0.04 	0.04 	0.0342811 	-2.42825e-08 	
5.23508e-10 	0.0367814 	0.0367814 	0 	
0.000841022 	2.39733e-08 	0.92 	0.04 	0.04 	0.034281 	300.21 	
5.2342e-10 	0.0367744 	0.0367744 	0 	
0.000894644 	2.39733e-08 	0.92 	0.04 	0.04 	0.034281 	300.096 	
5.23243e-10 	0.0367605 	0.0367605 	0 	
0.000948267 	2.39733e-08 	0.92 	0.04 	0.04 	0.0342809 	299.982 	
5.23067e-10 	0.0367465 	0.0367465 	0 	
0.00100189 	2.39733e-08 	0.92 	0.04 	0.04 	0.0342809 	299.868 	
5.2289e-10 	0.0367325 	0.0367325 	0 	
0.00105551 	2.39733e-08 	0.92 	0.04 	0.04 	0.0342808 	299.754 	
5.22714e-10 	0.0367185 	0.0367185 	0 	
0.00110913 	2.39733e-08 	0.92 	0.04 	0.04 	0.0342808 	299.64 	
5.22537e-10 	0.0367046 	0.0367046 	0 	
0.00116276 	2.39733e-08 	0.92 	0.04 	0.04 	0.0342807 	299.526 	
5.22361e-10 	0.0366906 	0.0366906 	0 	
0.00121638 	2.39733e-08 	0.92 	0.04 	0.04 	0.0342806 	299.411 	
5.22184e-10 	0.0366766 	0.0366766 	0 	
0.00127 	2.1175e-08 	0.92 	0.04 	0.04 	0.0342806 	3.8002 	
5.22096e-10 	0.0366696 	0.0366696 	0 	
ZONE T = "t = 3e-08 [s]" I = 10 SOLUTIONTIME = 3.0000000000000E-08
0.0007874 	2.39742e-08 	0.92 	0.04 	0.04 	0.0342811 	-2.42825e-08 	
8.91322e-10 	0.0367814 	0.0367814 	0 	
0.000841022 	2.39742e-08 	0.92 	0.04 	0.04 	0.034281 	300.21 	
8.91164e-10 	0.0367744 	0.0367744 	0 	
0.000894644 	2.39742e-08 	0.92 	0.04 	0.04 	0.034281 	300.096 	
8.90848e-10 	0.0367605 	0.0367605 	0 	
0.000948267 	2.39742e-08 	0.92 	0.04 	0.04 	0.0342809 	299.982 	
8.90531e-10 	0.0367465 	0.0367465 	0 	
0.00100189 	2.39742e-08 	0.92 	0.04 	0.04 	0.0342809 	299.868 	
8.90215e-10 	0.0367325 	0.0367325 	0 	
0.00105551 	2.39742e-08 	0.92 	0.04 	0.04 	0.0342808 	299.754 	
8.89899e-10 	0.0367185 	0.0367185 	0 	
0.00110913 	2.39742e-08 	0.92 	0.04 	0.04 	0.0342808 	299.64 	
8.89583e-10 	0.0367045 	0.0367045 	0 	
0.00116276 	2.39742e-08 	0.92 	0.04 	0.04 	0.0342807 	299.526 	
8.89267e-10 	0.0366906 	0.0366906 	0 	
0.00121638 	2.39742e-08 	0.92 	0.04 	0.04 	0.0342806 	299.411 	
8.8895e-10 	0.0366766 	0.0366766 	0 	
0.00127 	2.11759e-08 	0.92 	0.04 	0.04 	0.0342806 	3.8002 	
8.88792e-10 	0.0366696 	0.0366696 	0 	
ZONE T = "t = 4e-08 [s]" I = 10 SOLUTIONTIME = 4.0000000000000E-08
0.0007874 	2.39725e-08 	0.92 	0.04 	0.04 	0.0342811 	-2.42825e-08 	
1.25914e-09 	0.0367816 	0.0367816 	0 	
0.000841022 	2.39725e-08 	0.92 	0.04 	0.04 	0.034281 	300.21 	
1.25891e-09 	0.0367746 	0.0367746 	0 	
0.000894644 	2.39725e-08 	0.92 	0.04 	0.04 	0.034281 	300.096 	
1.25845e-09 	0.0367606 	0.0367606 	0 	
0.000948267 	2.39725e-08 	0.92 	0.04 	0.04 	0.0342809 	299.982 	
1.258e-09 	0.0367466 	0.0367466 	0 	
0.00100189 	2.39725e-08 	0.92 	0.04 	0.04 	0.0342809 	299.868 	
1.25754e-09 	0.0367326 	0.0367326 	0 	
0.00105551 	2.39725e-08 	0.92 	0.04 	0.04 	0.0342808 	299.754 	
1.25709e-09 	0.0367186 	0.0367186 	0 	
0.00110913 	2.39725e-08 	0.92 	0.04 	0.04 	0.0342808 	299.64 	
1.25663e-09 	0.0367047 	0.0367047 	0 	
0.00116276 	2.39725e-08 	0.92 	0.04 	0.04 	0.0342807 	299.526 	
1.25617e-09 	0.0366907 	0.0366907 	0 	
0.00121638 	2.39725e-08 	0.92 	0.04 	0.04 	0.0342806 	299.411 	
1.25572e-09 	0.0366767 	0.0366767 	0 	
0.00127 	2.11745e-08 	0.92 	0.04 	0.04 	0.0342806 	3.8002 	
1.25549e-09 	0.0366697 	0.0366697 	0 	
ZONE T = "t = 5.5e-08 [s]" I = 10 SOLUTIONTIME = 5.5000000000000E-08
0.0007874 	2.39726e-08 	0.92 	0.04 	0.04 	0.0342811 	-2.42825e-08 	
1.81086e-09 	0.0367816 	0.0367816 	0 	
0.000841022 	2.39726e-08 	0.92 	0.04 	0.04 	0.034281 	300.21 	
1.81053e-09 	0.0367746 	0.0367746 	0 	
0.000894644 	2.39726e-08 	0.92 	0.04 	0.04 	0.034281 	300.096 	
1.80986e-09 	0.0367606 	0.0367606 	0 	
0.000948267 	2.39726e-08 	0.92 	0.04 	0.04 	0.0342809 	299.982 	
1.8092e-09 	0.0367466 	0.0367466 	0 	
0.00100189 	2.39726e-08 	0.92 	0.04 	0.04 	0.0342809 	299.868 	
1.80853e-09 	0.0367326 	0.0367326 	0 	
0.00105551 	2.39726e-08 	0.92 	0.04 	0.04 	0.0342808 	299.754 	
1.80787e-09 	0.0367186 	0.0367186 	0 	
0.00110913 	2.39726e-08 	0.92 	0.04 	0.04 	0.0342808 	299.64 	
1.8072e-09 	0.0367047 	0.0367047 	0 	
0.00116276 	2.39726e-08 	0.92 	0.04 	0.04 	0.0342807 	299.526 	
1.80653e-09 	0.0366907 	0.0366907 	0 	
0.00121638 	2.39726e-08 	0.92 	0.04 	0.04 	0.0342806 	299.411 	
1.80587e-09 	0.0366767 	0.0366767 	0 	
0.00127 	2.11735e-08 	0.92 	0.04 	0.04 	0.0342806 	3.8002 	
1.80554e-09 	0.0366697 	0.0366697 	0 	
ZONE T = "t = 7.75e-08 [s]" I = 10 SOLUTIONTIME = 7.7500000000000E-08
0.0007874 	2.3974e-08 	0.92 	0.04 	0.04 	0.0342811 	-2.42825e-08 	
2.63845e-09 	0.0367816 	0.0367816 	0 	
0.000841022 	2.3974e-08 	0.92 	0.04 	0.04 	0.034281 	300.21 	
2.63796e-09 	0.0367746 	0.0367746 	0 	
0.000894644 	2.3974e-08 	0.92 	0.04 	0.04 	0.034281 	300.096 	
2.63698e-09 	0.0367606 	0.0367606 	0 	
0.000948267 	2.3974e-08 	0.92 	0.04 	0.04 	0.0342809 	299.982 	
2.636e-09 	0.0367466 	0.0367466 	0 	
0.00100189 	2.3974e-08 	0.92 	0.04 	0.04 	0.0342809 	299.868 	
2.63501e-09 	0.0367326 	0.0367326 	0 	
0.00105551 	2.3974e-08 	0.92 	0.04 	0.04 	0.0342808 	299.754 	
2.63403e-09 	0.0367186 	0.0367186 	0 	
0.00110913 	2.3974e-08 	0.92 	0.04 	0.04 	0.0342808 	299.64 	
2.63305e-09 	0.0367047 	0.0367047 	0 	
0.00116276 	2.3974e-08 	0.92 	0.04 	0.04 	0.0342807 	299.526 	
2.63207e-09 	0.0366907 	0.0366907 	0 	
0.00121638 	2.3974e-08 	0.92 	0.04 	0.04 	0.0342806 	299.411 	
2.63109e-09 	0.0366767 	0.0366767 	0 	
0.00127 	2.11762e-08 	0.92 	0.04 	0.04 	0.0342806 	3.8002 	
2.6306e-09 	0.0366697 	0.0366697 	0 	
ZONE T = "t = 1.1125e-07 [s]" I = 10 SOLUTIONTIME = 1.1125000000000E-07
0.0007874 	2.39735e-08 	0.92 	0.04 	0.04 	0.0342811 	-2.42825e-08 	
3.87982e-09 	0.0367816 	0.0367816 	0 	
0.000841022 	2.39735e-08 	0.92 	0.04 	0.04 	0.034281 	300.21 	
3.8791e-09 	0.0367746 	0.0367746 	0 	
0.000894644 	2.39735e-08 	0.92 	0.04 	0.04 	0.034281 	300.096 	
3.87765e-09 	0.0367606 	0.0367606 	0 	
0.000948267 	2.39735e-08 	0.92 	0.04 	0.04 	0.0342809 	299.982 	
3.87619e-09 	0.0367466 	0.0367466 	0 	
0.00100189 	2.39735e-08 	0.92 	0.04 	0.04 	0.0342809 	299.868 	
3.87474e-09 	0.0367326 	0.0367326 	0 	
0.00105551 	2.39735e-08 	0.92 	0.04 	0.04 	0.0342808 	299.754 	
3.87329e-09 	0.0367186 	0.0367186 	0 	
0.00110913 	2.39735e-08 	0.92 	0.04 	0.04 	0.0342808 	299.64 	
3.87184e-09 	0.0367047 	0.0367047 	0 	
0.00116276 	2.39735e-08 	0.92 	0.04 	0.04 	0.0342807 	299.526 	
3.87039e-09 	0.0366907 	0.0366907 	0 	
0.00121638 	2.39735e-08 	0.92 	0.04 	0.04 	0.0342806 	299.411 	
3.86893e-09 	0.0366767 	0.0366767 	0 	
0.00127 	2.11749e-08 	0.92 	0.04 	0.04 	0.0342806 	3.8002 	
3.86821e-09 	0.0366697 	0.0366697 	0 	
ZONE T = "t = 1.61875e-07 [s]" I = 10 SOLUTIONTIME = 1.6187500000000E-07
0.0007874 	2.39739e-08 	0.92 	0.04 	0.04 	0.0342811 	-2.42825e-08 	
5.74189e-09 	0.0367816 	0.0367816 	0 	
0.000841022 	2.39739e-08 	0.92 	0.04 	0.04 	0.034281 	300.21 	
5.74081e-09 	0.0367746 	0.0367746 	0 	
0.000894644 	2.39739e-08 	0.92 	0.04 	0.04 	0.034281 	300.096 	
5.73865e-09 	0.0367606 	0.0367606 	0 	
0.000948267 	2.39739e-08 	0.92 	0.04 	0.04 	0.0342809 	299.982 	
5.73649e-09 	0.0367466 	0.0367466 	0 	
0.00100189 	2.39739e-08 	0.92 	0.04 	0.04 	0.0342809 	299.868 	
5.73433e-09 	0.0367326 	0.0367326 	0 	
0.00105551 	2.39739e-08 	0.92 	0.04 	0.04 	0.0342808 	299.754 	
5.73217e-09 	0.0367186 	0.0367186 	0 	
0.00110913 	2.39739e-08 	0.92 	0.04 	0.04 	0.0342808 	299.64 	
5.73001e-09 	0.0367047 	0.0367047 	0 	
0.00116276 	2.39739e-08 	0.92 	0.04 	0.04 	0.0342807 	299.526 	
5.72785e-09 	0.0366907 	0.0366907 	0 	
0.00121638 	2.39739e-08 	0.92 	0.04 	0.04 	0.0342806 	299.411 	
5.72569e-09 	0.0366767 	0.0366767 	0 	
0.00127 	2.11757e-08 	0.92 	0.04 	0.04 	0.0342806 	3.8002 	
5.72461e-09 	0.0366697 	0.0366697 	0 	
ZONE T = "t = 2.37813e-07 [s]" I = 10 SOLUTIONTIME = 2.3781250000000E-07
0.0007874 	2.39734e-08 	0.92 	0.04 	0.04 	0.0342811 	-2.42825e-08 	
8.53499e-09 	0.0367816 	0.0367816 	0 	
0.000841022 	2.39734e-08 	0.92 	0.04 	0.04 	0.034281 	300.21 	
8.53338e-09 	0.0367746 	0.0367746 	0 	
0.000894644 	2.39734e-08 	0.92 	0.04 	0.04 	0.034281 	300.096 	
8.53016e-09 	0.0367606 	0.0367606 	0 	
0.000948267 	2.39734e-08 	0.92 	0.04 	0.04 	0.0342809 	299.982 	
8.52694e-09 	0.0367466 	0.0367466 	0 	
0.00100189 	2.39734e-08 	0.92 	0.04 	0.04 	0.0342809 	299.868 	
8.52371e-09 	0.0367326 	0.0367326 	0 	
0.00105551 	2.39734e-08 	0.92 	0.04 	0.04 	0.0342808 	299.754 	
8.52049e-09 	0.0367186 	0.0367186 	0 	
0.00110913 	2.39734e-08 	0.92 	0.04 	0.04 	0.0342808 	299.64 	
8.51727e-09 	0.0367047 	0.0367047 	0 	
0.00116276 	2.39734e-08 	0.92 	0.04 	0.04 	0.0342807 	299.526 	
8.51405e-09 	0.0366907 	0.0366907 	0 	
0.00121638 	2.39733e-08 	0.92 	0.04 	0.04 	0.0342806 	299.411 	
8.51083e-09 	0.0366767 	0.0366767 	0 	
0.00127 	2.11748e-08 	0.92 	0.04 	0.04 	0.0342806 	3.8002 	
8.50922e-09 	0.0366697 	0.0366697 	0 	
ZONE T = "t = 3.51719e-07 [s]" I = 10 SOLUTIONTIME = 3.5171875000000E-07
0.0007874 	2.39735e-08 	0.92 	0.04 	0.04 	0.0342811 	-2.42825e-08 	
1.27246e-08 	0.0367816 	0.0367816 	0 	
0.000841022 	2.39735e-08 	0.92 	0.04 	0.04 	0.034281 	300.21 	
1.27222e-08 	0.0367746 	0.0367746 	0 	
0.000894644 	2.39735e-08 	0.92 	0.04 	0.04 	0.034281 	300.096 	
1.27174e-08 	0.0367606 	0.0367606 	0 	
0.000948267 	2.39735e-08 	0.92 	0.04 	0.04 	0.0342809 	299.982 	
1.27126e-08 	0.0367466 	0.0367466 	0 	
0.00100189 	2.39735e-08 	0.92 	0.04 	0.04 	0.0342809 	299.868 	
1.27078e-08 	0.0367326 	0.0367326 	0 	
0.00105551 	2.39735e-08 	0.92 	0.04 	0.04 	0.0342808 	299.754 	
1.2703e-08 	0.0367186 	0.0367186 	0 	
0.00110913 	2.39735e-08 	0.92 	0.04 	0.04 	0.0342808 	299.64 	
1.26982e-08 	0.0367047 	0.0367047 	0 	
0.00116276 	2.39735e-08 	0.92 	0.04 	0.04 	0.0342807 	299.526 	
1.26933e-08 	0.0366907 	0.0366907 	0 	
0.00121638 	2.39735e-08 	0.92 	0.04 	0.04 	0.0342806 	299.411 	
1.26885e-08 	0.0366767 	0.0366767 	0 	
0.00127 	2.11751e-08 	0.92 	0.04 	0.04 	0.0342806 	3.8002 	
1.26861e-08 	0.0366697 	0.0366697 	0 	
