TITLE = "Solution on Domain BulkDomain1D_2"
VARIABLES = "x [m]"  
"Vel_axial" 	"MF_sp(ECDMC)" 	"MF_sp(Li+)" 	"MF_sp(PF6-)" 	"Volt(Electroly)" 	"Volt(CathodeVo)" 	"Temperature" 	
"Potential Drop Electrode-Electrolyte [V]" 	"Surf_0 Equilibrium Potential Drop Electrode-Electrolyte [V]" 	"Overpotential_0 [V]" 	"Current Source [A/m^2]" 	"Li+ flux [kmol/m^2/s]" 	"Electrolyte Current [A/m^2]" 	"Electrode Current [A/m^2]" 	
"Capacity discharged [A-s]" 	"Depth of discharge [-]" 	"Capacity remaining [A-s]" 	"Initial capacity [A-s]" 	"Porosity []" 	"Surface Area [m2/m2] (area per area)" 	"Specific current (per particle area) [A/m^2]" 	"Control volume thickness [m]" 	
"Moles LiCoO2 [mol/m^2] (per electrode area)" 	"Moles CoO2 [mol/m^2] (per electrode area)" 	"qHeat_accum [J/m3]" 	"qHeat_step [W/m3]" 	"Joule_Lyte [W/m3]" 	"Joule_Solid [W/m3]" 	"electrodHeat [W/m3]" 	"OverpotHeat [W/m3]" 	"deltaSHeat [W/m3]" 	

ZONE T = "t = 0 [s]" I = 10 SOLUTIONTIME = 0.0000000000000E+00
0.00127 	0 	0.92 	0.04 	0.04 	-0.07 	3.8 	298.15 	
0 	0 	0 	0 	0 	0.119132 	0 	
0 	0 	0 	0 	0.35 	6.604 	-0.0360787 	3.38667e-05 	
0.000900955 	0.000600637 	0 	0.0 	 0.0 	 0.0 	 0.0 	 0.0 	 0.0 	 
0.00133773 	0 	0.92 	0.04 	0.04 	-0.07 	3.8 	298.15 	
0 	0 	0 	0 	0 	0 	-0 	
0 	0 	0 	0 	0.35 	13.208 	-0.0360787 	6.77333e-05 	
0.00180191 	0.00120127 	0 	0.0 	 0.0 	 0.0 	 0.0 	 0.0 	 0.0 	 
0.00140547 	0 	0.92 	0.04 	0.04 	-0.07 	3.8 	298.15 	
0 	0 	0 	0 	0 	0 	-0 	
0 	0 	0 	0 	0.35 	13.208 	-0.0360787 	6.77333e-05 	
0.00180191 	0.00120127 	0 	0.0 	 0.0 	 0.0 	 0.0 	 0.0 	 0.0 	 
0.0014732 	0 	0.92 	0.04 	0.04 	-0.07 	3.8 	298.15 	
0 	0 	0 	0 	0 	0 	-0 	
0 	0 	0 	0 	0.35 	13.208 	-0.0360787 	6.77333e-05 	
0.00180191 	0.00120127 	0 	0.0 	 0.0 	 0.0 	 0.0 	 0.0 	 0.0 	 
0.00154093 	0 	0.92 	0.04 	0.04 	-0.07 	3.8 	298.15 	
0 	0 	0 	0 	0 	0 	-0 	
0 	0 	0 	0 	0.35 	13.208 	-0.0360787 	6.77333e-05 	
0.00180191 	0.00120127 	0 	0.0 	 0.0 	 0.0 	 0.0 	 0.0 	 0.0 	 
0.00160867 	0 	0.92 	0.04 	0.04 	-0.07 	3.8 	298.15 	
0 	0 	0 	0 	0 	0 	-0 	
0 	0 	0 	0 	0.35 	13.208 	-0.0360787 	6.77333e-05 	
0.00180191 	0.00120127 	0 	0.0 	 0.0 	 0.0 	 0.0 	 0.0 	 0.0 	 
0.0016764 	0 	0.92 	0.04 	0.04 	-0.07 	3.8 	298.15 	
0 	0 	0 	0 	0 	0 	-0 	
0 	0 	0 	0 	0.35 	13.208 	-0.0360787 	6.77333e-05 	
0.00180191 	0.00120127 	0 	0.0 	 0.0 	 0.0 	 0.0 	 0.0 	 0.0 	 
0.00174413 	0 	0.92 	0.04 	0.04 	-0.07 	3.8 	298.15 	
0 	0 	0 	0 	0 	0 	-0 	
0 	0 	0 	0 	0.35 	13.208 	-0.0360787 	6.77333e-05 	
0.00180191 	0.00120127 	0 	0.0 	 0.0 	 0.0 	 0.0 	 0.0 	 0.0 	 
0.00181187 	0 	0.92 	0.04 	0.04 	-0.07 	3.8 	298.15 	
0 	0 	0 	0 	0 	0 	-0 	
0 	0 	0 	0 	0.35 	13.208 	-0.0360787 	6.77333e-05 	
0.00180191 	0.00120127 	0 	0.0 	 0.0 	 0.0 	 0.0 	 0.0 	 0.0 	 
0.0018796 	0 	0.92 	0.04 	0.04 	-0.07 	3.8 	298 	
0 	0 	0 	0 	0 	0 	0.117621 	
0 	0 	0 	0 	0.35 	6.604 	-0.0356212 	3.38667e-05 	
0.000900955 	0.000600637 	0 	0.0 	 0.0 	 0.0 	 0.0 	 0.0 	 0.0 	 
ZONE T = "t = 1e-08 [s]" I = 10 SOLUTIONTIME = 1.0000000000000E-08
0.00127 	1.38044e-08 	0.92 	0.04 	0.04 	0.0251354 	3.80013 	299.306 	
3.87 	3.97141 	-0.101414 	-0.238264 	-0 	22.0145 	0.653382 	
-0 	7244.08 	123.46 	141.616 	0.35 	6.604 	-0.256039 	3.38667e-05 	
0.000900955 	0.000600637 	1.43507e+06 	1.43507e+14 	0.0484403 	0.0325855 	1.43507e+14 	1.43507e+14 	0 	
0.00133773 	1.02111e-08 	0.92 	0.04 	0.04 	0.0251353 	3.80013 	299.161 	
3.87 	3.97141 	-0.101414 	-0.476527 	-0 	19.8772 	2.60039 	
-0 	14488.2 	246.919 	283.231 	0.35 	13.208 	-0.253124 	6.77333e-05 	
0.00180191 	0.00120127 	1.25494e+06 	1.25494e+14 	0.0428798 	0.160969 	1.25494e+14 	1.25494e+14 	0 	
0.00140547 	6.65393e-09 	0.92 	0.04 	0.04 	0.0251351 	3.80013 	299.016 	
3.87 	3.97141 	-0.101414 	-0.476527 	-0 	17.3062 	5.17469 	
-0 	14488.2 	246.919 	283.231 	0.35 	13.208 	-0.250256 	6.77333e-05 	
0.00180191 	0.00120127 	1.0748e+06 	1.0748e+14 	0.0325291 	0.542271 	1.0748e+14 	1.0748e+14 	0 	
0.0014732 	3.13224e-09 	0.92 	0.04 	0.04 	0.025135 	3.80012 	298.871 	
3.87 	3.97141 	-0.101414 	-0.476527 	-0 	14.7604 	7.72324 	
-0 	14488.2 	246.919 	283.231 	0.35 	13.208 	-0.247434 	6.77333e-05 	
0.00180191 	0.00120127 	894666 	8.94666e+13 	0.0236963 	1.1689 	8.94666e+13 	8.94666e+13 	0 	
0.00154093 	-3.54396e-10 	0.92 	0.04 	0.04 	0.0251349 	3.80011 	298.726 	
3.87 	3.97141 	-0.101414 	-0.476527 	-0 	12.2396 	10.2464 	
-0 	14488.2 	246.919 	283.231 	0.35 	13.208 	-0.244656 	6.77333e-05 	
0.00180191 	0.00120127 	714531 	7.14531e+13 	0.0163365 	2.03348 	7.14531e+13 	7.14531e+13 	0 	
0.00160867 	-3.80644e-09 	0.92 	0.04 	0.04 	0.0251348 	3.80009 	298.581 	
3.87 	3.97141 	-0.101414 	-0.476527 	-0 	9.74337 	12.7444 	
-0 	14488.2 	246.919 	283.231 	0.35 	13.208 	-0.241921 	6.77333e-05 	
0.00180191 	0.00120127 	534395 	5.34395e+13 	0.0104064 	3.12883 	5.34395e+13 	5.34395e+13 	0 	
0.0016764 	-7.22435e-09 	0.92 	0.04 	0.04 	0.0251348 	3.80007 	298.435 	
3.87 	3.97141 	-0.101414 	-0.476527 	-0 	7.27141 	15.2178 	
-0 	14488.2 	246.919 	283.231 	0.35 	13.208 	-0.23923 	6.77333e-05 	
0.00180191 	0.00120127 	354260 	3.5426e+13 	0.00586364 	4.44797 	3.5426e+13 	3.5426e+13 	0 	
0.00174413 	-1.06086e-08 	0.92 	0.04 	0.04 	0.0251347 	3.80005 	298.29 	
3.87 	3.97141 	-0.101414 	-0.476527 	-0 	4.82341 	17.6667 	
-0 	14488.2 	246.919 	283.231 	0.35 	13.208 	-0.236581 	6.77333e-05 	
0.00180191 	0.00120127 	174124 	1.74124e+13 	0.0026671 	5.98411 	1.74124e+13 	1.74124e+13 	0 	
0.00181187 	-1.39595e-08 	0.92 	0.04 	0.04 	0.0251347 	3.80003 	298.145 	
3.87 	3.97141 	-0.101414 	-0.476527 	-0 	2.39902 	20.0915 	
-0 	14488.2 	246.919 	283.231 	0.35 	13.208 	-0.233973 	6.77333e-05 	
0.00180191 	0.00120127 	-6011.75 	-6.01175e+11 	0.000776739 	7.73064 	-6.01175e+11 	-6.01175e+11 	0 	
0.0018796 	0 	0.92 	0.04 	0.04 	0.0251347 	3.8 	298 	
3.87 	3.97154 	-0.101535 	-0.235242 	-0 	0.596345 	22.062 	
-0 	7244.08 	123.46 	141.616 	0.35 	6.604 	-0.231405 	3.38667e-05 	
0.000900955 	0.000600637 	8.91626e-05 	8916.26 	0.000153169 	8.6557 	8907.61 	8907.61 	0 	
ZONE T = "t = 2e-08 [s]" I = 10 SOLUTIONTIME = 2.0000000000000E-08
0.00127 	2.11782e-08 	0.92 	0.04 	0.04 	0.034262 	3.8002 	299.311 	
3.775 	3.97048 	-0.195483 	-1.69088 	1.09701e-07 	33.5227 	1.00823 	
4.23786e-11 	7244.08 	123.46 	141.616 	0.35 	6.604 	-0.305339 	3.38667e-05 	
0.000900955 	0.000600637 	1.44138e+06 	6.31118e+11 	0.114279 	0.0775905 	6.31118e+11 	6.31118e+11 	0 	
0.00133773 	1.56418e-08 	0.92 	0.04 	0.04 	0.0342618 	3.8002 	299.166 	
3.775 	3.9706 	-0.195602 	-3.34327 	9.63116e-08 	30.5209 	4.01007 	
8.37923e-11 	14488.2 	246.919 	283.231 	0.35 	13.208 	-0.30188 	6.77333e-05 	
0.00180191 	0.00120127 	1.26055e+06 	5.60994e+11 	0.101103 	0.382698 	5.60994e+11 	5.60994e+11 	0 	
0.00140547 	1.01672e-08 	0.92 	0.04 	0.04 	0.0342616 	3.80019 	299.02 	
3.77499 	3.97071 	-0.195724 	-3.30538 	8.30542e-08 	26.5561 	7.97489 	
8.28428e-11 	14488.2 	246.919 	283.231 	0.35 	13.208 	-0.298486 	6.77333e-05 	
0.00180191 	0.00120127 	1.07971e+06 	4.9087e+11 	0.0765991 	1.28776 	4.9087e+11 	4.9087e+11 	0 	
0.0014732 	4.75232e-09 	0.92 	0.04 	0.04 	0.0342614 	3.80018 	298.874 	
3.77498 	3.97083 	-0.195849 	-3.2681 	6.99268e-08 	22.6356 	11.8953 	
8.19084e-11 	14488.2 	246.919 	283.231 	0.35 	13.208 	-0.295157 	6.77333e-05 	
0.00180191 	0.00120127 	898874 	4.20746e+11 	0.0557308 	2.77261 	4.20746e+11 	4.20746e+11 	0 	
0.00154093 	-6.01218e-10 	0.92 	0.04 	0.04 	0.0342612 	3.80016 	298.729 	
3.77497 	3.97095 	-0.195978 	-3.23141 	5.69277e-08 	18.7588 	15.7722 	
8.09889e-11 	14488.2 	246.919 	283.231 	0.35 	13.208 	-0.29189 	6.77333e-05 	
0.00180191 	0.00120127 	718037 	3.50621e+11 	0.0383763 	4.81784 	3.50621e+11 	3.50621e+11 	0 	
0.00160867 	-5.89668e-09 	0.92 	0.04 	0.04 	0.0342611 	3.80014 	298.583 	
3.77496 	3.97107 	-0.19611 	-3.1953 	4.40552e-08 	14.9247 	19.6063 	
8.00838e-11 	14488.2 	246.919 	283.231 	0.35 	13.208 	-0.288684 	6.77333e-05 	
0.00180191 	0.00120127 	537200 	2.80497e+11 	0.0244188 	7.4047 	2.80497e+11 	2.80497e+11 	0 	
0.0016764 	-1.11344e-08 	0.92 	0.04 	0.04 	0.034261 	3.80011 	298.437 	
3.77494 	3.97118 	-0.196245 	-3.15975 	3.13076e-08 	11.1325 	23.3985 	
7.91929e-11 	14488.2 	246.919 	283.231 	0.35 	13.208 	-0.285538 	6.77333e-05 	
0.00180191 	0.00120127 	356363 	2.10373e+11 	0.0137452 	10.5152 	2.10373e+11 	2.10373e+11 	0 	
0.00174413 	-1.63152e-08 	0.92 	0.04 	0.04 	0.034261 	3.80008 	298.291 	
3.77492 	3.9713 	-0.196384 	-3.12476 	1.86834e-08 	7.3815 	27.1494 	
7.83159e-11 	14488.2 	246.919 	283.231 	0.35 	13.208 	-0.28245 	6.77333e-05 	
0.00180191 	0.00120127 	175526 	1.40249e+11 	0.0062468 	14.1318 	1.40249e+11 	1.40249e+11 	0 	
0.00181187 	-2.14407e-08 	0.92 	0.04 	0.04 	0.0342609 	3.80004 	298.146 	
3.77489 	3.97142 	-0.196525 	-3.09031 	6.18092e-09 	3.67091 	30.86 	
7.74525e-11 	14488.2 	246.919 	283.231 	0.35 	13.208 	-0.279419 	6.77333e-05 	
0.00180191 	0.00120127 	-5310.5 	7.01243e+10 	0.00181843 	18.2378 	7.01243e+10 	7.01243e+10 	0 	
0.0018796 	0 	0.92 	0.04 	0.04 	0.0342609 	3.8 	298 	
3.77487 	3.97154 	-0.19667 	-1.5282 	6.18092e-09 	0.912815 	33.6181 	
3.83013e-11 	7244.08 	123.46 	141.616 	0.35 	6.604 	-0.276443 	3.38667e-05 	
0.000900955 	0.000600637 	0.000200124 	11096.1 	0.000358874 	20.4111 	11075.7 	11075.7 	0 	
ZONE T = "t = 3e-08 [s]" I = 10 SOLUTIONTIME = 3.0000000000000E-08
0.00127 	2.11775e-08 	0.92 	0.04 	0.04 	0.034262 	3.8002 	299.311 	
3.76594 	3.97048 	-0.204534 	-2.01646 	1.68495e-07 	33.5227 	1.00823 	
9.29172e-11 	7244.08 	123.46 	141.616 	0.35 	6.604 	-0.305339 	3.38667e-05 	
0.000900955 	0.000600637 	1.44138e+06 	693088 	0.114279 	0.0775905 	693087 	693087 	0 	
0.00133773 	1.56396e-08 	0.92 	0.04 	0.04 	0.0342618 	3.8002 	299.166 	
3.76594 	3.97059 	-0.204654 	-3.98723 	1.47832e-07 	30.5209 	4.01007 	
1.83724e-10 	14488.2 	246.919 	283.231 	0.35 	13.208 	-0.30188 	6.77333e-05 	
0.00180191 	0.00120127 	1.26055e+06 	617028 	0.101103 	0.382698 	617028 	617028 	0 	
0.00140547 	1.0164e-08 	0.92 	0.04 	0.04 	0.0342616 	3.80019 	299.02 	
3.76593 	3.97071 	-0.204779 	-3.94241 	1.27402e-07 	26.5561 	7.97489 	
1.81651e-10 	14488.2 	246.919 	283.231 	0.35 	13.208 	-0.298486 	6.77333e-05 	
0.00180191 	0.00120127 	1.07971e+06 	541199 	0.0765991 	1.28776 	541198 	541198 	0 	
0.0014732 	4.75014e-09 	0.92 	0.04 	0.04 	0.0342614 	3.80018 	298.874 	
3.76592 	3.97083 	-0.20491 	-3.89843 	1.072e-07 	22.6356 	11.8953 	
1.79615e-10 	14488.2 	246.919 	283.231 	0.35 	13.208 	-0.295157 	6.77333e-05 	
0.00180191 	0.00120127 	898874 	465590 	0.0557308 	2.77261 	465587 	465587 	0 	
0.00154093 	-6.04124e-10 	0.92 	0.04 	0.04 	0.0342612 	3.80016 	298.729 	
3.7659 	3.97095 	-0.205045 	-3.85529 	8.72212e-08 	18.7588 	15.7722 	
1.77614e-10 	14488.2 	246.919 	283.231 	0.35 	13.208 	-0.29189 	6.77333e-05 	
0.00180191 	0.00120127 	718037 	389656 	0.0383763 	4.81784 	389652 	389652 	0 	
0.00160867 	-5.89995e-09 	0.92 	0.04 	0.04 	0.0342611 	3.80014 	298.583 	
3.76588 	3.97106 	-0.205186 	-3.81294 	6.7462e-08 	14.9247 	19.6063 	
1.75648e-10 	14488.2 	246.919 	283.231 	0.35 	13.208 	-0.288684 	6.77333e-05 	
0.00180191 	0.00120127 	537200 	314221 	0.0244188 	7.4047 	314214 	314214 	0 	
0.0016764 	-1.11377e-08 	0.92 	0.04 	0.04 	0.034261 	3.80011 	298.437 	
3.76585 	3.97118 	-0.205331 	-3.77139 	4.79181e-08 	11.1325 	23.3985 	
1.73715e-10 	14488.2 	246.919 	283.231 	0.35 	13.208 	-0.285538 	6.77333e-05 	
0.00180191 	0.00120127 	356363 	238339 	0.0137452 	10.5152 	238329 	238329 	0 	
0.00174413 	-1.63192e-08 	0.92 	0.04 	0.04 	0.034261 	3.80008 	298.291 	
3.76582 	3.9713 	-0.205481 	-3.7306 	2.85857e-08 	7.3815 	27.1494 	
1.71816e-10 	14488.2 	246.919 	283.231 	0.35 	13.208 	-0.28245 	6.77333e-05 	
0.00180191 	0.00120127 	175526 	162815 	0.0062468 	14.1318 	162801 	162801 	0 	
0.00181187 	-2.14447e-08 	0.92 	0.04 	0.04 	0.0342609 	3.80004 	298.146 	
3.76578 	3.97142 	-0.205636 	-3.69057 	9.46126e-09 	3.67091 	30.86 	
1.69949e-10 	14488.2 	246.919 	283.231 	0.35 	13.208 	-0.279419 	6.77333e-05 	
0.00180191 	0.00120127 	-5310.5 	87113.6 	0.00181843 	18.2378 	87095.4 	87095.4 	0 	
0.0018796 	0 	0.92 	0.04 	0.04 	0.0342609 	3.8 	298 	
3.76574 	3.97154 	-0.205796 	-1.82563 	9.46126e-09 	0.912815 	33.6181 	
8.4057e-11 	7244.08 	123.46 	141.616 	0.35 	6.604 	-0.276443 	3.38667e-05 	
0.000900955 	0.000600637 	0.000309829 	10970.5 	0.000358874 	20.4111 	10950.1 	10950.1 	0 	
ZONE T = "t = 4e-08 [s]" I = 10 SOLUTIONTIME = 4.0000000000000E-08
0.00127 	2.11769e-08 	0.92 	0.04 	0.04 	0.034262 	3.8002 	299.311 	
3.76594 	3.97048 	-0.204534 	-2.01646 	1.68495e-07 	33.5227 	1.00823 	
1.43456e-10 	7244.08 	123.46 	141.616 	0.35 	6.604 	-0.305339 	3.38667e-05 	
0.000900955 	0.000600637 	1.44138e+06 	692652 	0.114279 	0.0775905 	692652 	692652 	0 	
0.00133773 	1.56394e-08 	0.92 	0.04 	0.04 	0.0342618 	3.8002 	299.166 	
3.76594 	3.97059 	-0.204654 	-3.98723 	1.47832e-07 	30.5209 	4.01007 	
2.83656e-10 	14488.2 	246.919 	283.231 	0.35 	13.208 	-0.30188 	6.77333e-05 	
0.00180191 	0.00120127 	1.26055e+06 	616605 	0.101103 	0.382698 	616605 	616605 	0 	
0.00140547 	1.01645e-08 	0.92 	0.04 	0.04 	0.0342616 	3.80019 	299.02 	
3.76593 	3.97071 	-0.204779 	-3.94241 	1.27402e-07 	26.5561 	7.97489 	
2.8046e-10 	14488.2 	246.919 	283.231 	0.35 	13.208 	-0.298486 	6.77333e-05 	
0.00180191 	0.00120127 	1.07971e+06 	541187 	0.0765991 	1.28776 	541185 	541185 	0 	
0.0014732 	4.75069e-09 	0.92 	0.04 	0.04 	0.0342614 	3.80018 	298.874 	
3.76592 	3.97083 	-0.20491 	-3.89843 	1.072e-07 	22.6356 	11.8953 	
2.77321e-10 	14488.2 	246.919 	283.231 	0.35 	13.208 	-0.295157 	6.77333e-05 	
0.00180191 	0.00120127 	898874 	465435 	0.0557308 	2.77261 	465432 	465432 	0 	
0.00154093 	-6.03942e-10 	0.92 	0.04 	0.04 	0.0342612 	3.80016 	298.729 	
3.7659 	3.97095 	-0.205045 	-3.85529 	8.72212e-08 	18.7588 	15.7722 	
2.74239e-10 	14488.2 	246.919 	283.231 	0.35 	13.208 	-0.29189 	6.77333e-05 	
0.00180191 	0.00120127 	718037 	389644 	0.0383763 	4.81784 	389639 	389639 	0 	
0.00160867 	-5.89904e-09 	0.92 	0.04 	0.04 	0.0342611 	3.80014 	298.583 	
3.76588 	3.97106 	-0.205186 	-3.81294 	6.7462e-08 	14.9247 	19.6063 	
2.71211e-10 	14488.2 	246.919 	283.231 	0.35 	13.208 	-0.288684 	6.77333e-05 	
0.00180191 	0.00120127 	537200 	313953 	0.0244188 	7.4047 	313946 	313946 	0 	
0.0016764 	-1.11368e-08 	0.92 	0.04 	0.04 	0.034261 	3.80011 	298.437 	
3.76585 	3.97118 	-0.205331 	-3.77139 	4.79181e-08 	11.1325 	23.3985 	
2.68238e-10 	14488.2 	246.919 	283.231 	0.35 	13.208 	-0.285538 	6.77333e-05 	
0.00180191 	0.00120127 	356363 	238063 	0.0137452 	10.5152 	238052 	238052 	0 	
0.00174413 	-1.63175e-08 	0.92 	0.04 	0.04 	0.034261 	3.80008 	298.291 	
3.76582 	3.9713 	-0.205481 	-3.7306 	2.85857e-08 	7.3815 	27.1494 	
2.65316e-10 	14488.2 	246.919 	283.231 	0.35 	13.208 	-0.28245 	6.77333e-05 	
0.00180191 	0.00120127 	175526 	162405 	0.0062468 	14.1318 	162390 	162390 	0 	
0.00181187 	-2.1443e-08 	0.92 	0.04 	0.04 	0.0342609 	3.80004 	298.146 	
3.76578 	3.97142 	-0.205636 	-3.69057 	9.46163e-09 	3.67091 	30.86 	
2.62446e-10 	14488.2 	246.919 	283.231 	0.35 	13.208 	-0.279419 	6.77333e-05 	
0.00180191 	0.00120127 	-5310.5 	86716 	0.00181843 	18.2378 	86697.8 	86697.8 	0 	
0.0018796 	0 	0.92 	0.04 	0.04 	0.0342609 	3.8 	298 	
3.76574 	3.97154 	-0.205796 	-1.82563 	9.46163e-09 	0.912815 	33.6181 	
1.29813e-10 	7244.08 	123.46 	141.616 	0.35 	6.604 	-0.276443 	3.38667e-05 	
0.000900955 	0.000600637 	0.000420916 	11108.7 	0.000358874 	20.4111 	11088.3 	11088.3 	0 	
ZONE T = "t = 5.5e-08 [s]" I = 10 SOLUTIONTIME = 5.5000000000000E-08
0.00127 	2.11785e-08 	0.92 	0.04 	0.04 	0.034262 	3.8002 	299.311 	
3.76594 	3.97048 	-0.204534 	-2.01646 	1.68495e-07 	33.5227 	1.00823 	
1.93994e-10 	7244.08 	123.46 	141.616 	0.35 	6.604 	-0.305339 	3.38667e-05 	
0.000900955 	0.000600637 	1.44138e+06 	692750 	0.114279 	0.0775905 	692750 	692750 	0 	
0.00133773 	1.5641e-08 	0.92 	0.04 	0.04 	0.0342618 	3.8002 	299.166 	
3.76594 	3.97059 	-0.204654 	-3.98723 	1.47832e-07 	30.5209 	4.01007 	
3.83588e-10 	14488.2 	246.919 	283.231 	0.35 	13.208 	-0.30188 	6.77333e-05 	
0.00180191 	0.00120127 	1.26055e+06 	617193 	0.101103 	0.382698 	617192 	617192 	0 	
0.00140547 	1.01657e-08 	0.92 	0.04 	0.04 	0.0342616 	3.80019 	299.02 	
3.76593 	3.97071 	-0.204779 	-3.94241 	1.27402e-07 	26.5561 	7.97489 	
3.79268e-10 	14488.2 	246.919 	283.231 	0.35 	13.208 	-0.298486 	6.77333e-05 	
0.00180191 	0.00120127 	1.07971e+06 	541131 	0.0765991 	1.28776 	541129 	541129 	0 	
0.0014732 	4.75129e-09 	0.92 	0.04 	0.04 	0.0342614 	3.80018 	298.874 	
3.76592 	3.97083 	-0.20491 	-3.89843 	1.072e-07 	22.6356 	11.8953 	
3.75028e-10 	14488.2 	246.919 	283.231 	0.35 	13.208 	-0.295157 	6.77333e-05 	
0.00180191 	0.00120127 	898874 	465757 	0.0557308 	2.77261 	465754 	465754 	0 	
0.00154093 	-6.02731e-10 	0.92 	0.04 	0.04 	0.0342612 	3.80016 	298.729 	
3.7659 	3.97095 	-0.205045 	-3.85529 	8.72212e-08 	18.7588 	15.7722 	
3.70864e-10 	14488.2 	246.919 	283.231 	0.35 	13.208 	-0.29189 	6.77333e-05 	
0.00180191 	0.00120127 	718037 	389875 	0.0383763 	4.81784 	389871 	389871 	0 	
0.00160867 	-5.8982e-09 	0.92 	0.04 	0.04 	0.0342611 	3.80014 	298.583 	
3.76588 	3.97106 	-0.205186 	-3.81294 	6.7462e-08 	14.9247 	19.6063 	
3.66775e-10 	14488.2 	246.919 	283.231 	0.35 	13.208 	-0.288684 	6.77333e-05 	
0.00180191 	0.00120127 	537200 	313853 	0.0244188 	7.4047 	313845 	313845 	0 	
0.0016764 	-1.11359e-08 	0.92 	0.04 	0.04 	0.034261 	3.80011 	298.437 	
3.76585 	3.97118 	-0.205331 	-3.77139 	4.79181e-08 	11.1325 	23.3985 	
3.6276e-10 	14488.2 	246.919 	283.231 	0.35 	13.208 	-0.285538 	6.77333e-05 	
0.00180191 	0.00120127 	356363 	238335 	0.0137452 	10.5152 	238324 	238324 	0 	
0.00174413 	-1.63171e-08 	0.92 	0.04 	0.04 	0.034261 	3.80008 	298.291 	
3.76582 	3.9713 	-0.205481 	-3.7306 	2.85857e-08 	7.3815 	27.1494 	
3.58816e-10 	14488.2 	246.919 	283.231 	0.35 	13.208 	-0.28245 	6.77333e-05 	
0.00180191 	0.00120127 	175526 	162505 	0.0062468 	14.1318 	162491 	162491 	0 	
0.00181187 	-2.1443e-08 	0.92 	0.04 	0.04 	0.0342609 	3.80004 	298.146 	
3.76578 	3.97142 	-0.205636 	-3.69057 	9.462e-09 	3.67091 	30.86 	
3.54942e-10 	14488.2 	246.919 	283.231 	0.35 	13.208 	-0.279419 	6.77333e-05 	
0.00180191 	0.00120127 	-5310.5 	86894.6 	0.00181843 	18.2378 	86876.4 	86876.4 	0 	
0.0018796 	0 	0.92 	0.04 	0.04 	0.0342609 	3.8 	298 	
3.76574 	3.97154 	-0.205796 	-1.82563 	9.462e-09 	0.912815 	33.6181 	
1.75568e-10 	7244.08 	123.46 	141.616 	0.35 	6.604 	-0.276443 	3.38667e-05 	
0.000900955 	0.000600637 	0.000593531 	11507.7 	0.000358874 	20.4111 	11487.3 	11487.3 	0 	
ZONE T = "t = 7.75e-08 [s]" I = 10 SOLUTIONTIME = 7.7500000000000E-08
0.00127 	2.11792e-08 	0.92 	0.04 	0.04 	0.034262 	3.8002 	299.311 	
3.76594 	3.97048 	-0.204534 	-2.01646 	1.68495e-07 	33.5227 	1.00823 	
2.69802e-10 	7244.08 	123.46 	141.616 	0.35 	6.604 	-0.305339 	3.38667e-05 	
0.000900955 	0.000600637 	1.44138e+06 	692724 	0.114279 	0.0775905 	692724 	692724 	0 	
0.00133773 	1.56416e-08 	0.92 	0.04 	0.04 	0.0342618 	3.8002 	299.166 	
3.76594 	3.97059 	-0.204654 	-3.98723 	1.47832e-07 	30.5209 	4.01007 	
5.33486e-10 	14488.2 	246.919 	283.231 	0.35 	13.208 	-0.30188 	6.77333e-05 	
0.00180191 	0.00120127 	1.26055e+06 	616782 	0.101103 	0.382698 	616781 	616781 	0 	
0.00140547 	1.01663e-08 	0.92 	0.04 	0.04 	0.0342616 	3.80019 	299.02 	
3.76593 	3.97071 	-0.204779 	-3.94241 	1.27402e-07 	26.5561 	7.97489 	
5.27481e-10 	14488.2 	246.919 	283.231 	0.35 	13.208 	-0.298486 	6.77333e-05 	
0.00180191 	0.00120127 	1.07971e+06 	541212 	0.0765991 	1.28776 	541210 	541210 	0 	
0.0014732 	4.75194e-09 	0.92 	0.04 	0.04 	0.0342614 	3.80018 	298.874 	
3.76592 	3.97083 	-0.20491 	-3.89843 	1.072e-07 	22.6356 	11.8953 	
5.21587e-10 	14488.2 	246.919 	283.231 	0.35 	13.208 	-0.295157 	6.77333e-05 	
0.00180191 	0.00120127 	898874 	465351 	0.0557308 	2.77261 	465349 	465349 	0 	
0.00154093 	-6.02328e-10 	0.92 	0.04 	0.04 	0.0342612 	3.80016 	298.729 	
3.7659 	3.97095 	-0.205045 	-3.85529 	8.72212e-08 	18.7588 	15.7722 	
5.15801e-10 	14488.2 	246.919 	283.231 	0.35 	13.208 	-0.29189 	6.77333e-05 	
0.00180191 	0.00120127 	718037 	389864 	0.0383763 	4.81784 	389859 	389859 	0 	
0.00160867 	-5.89779e-09 	0.92 	0.04 	0.04 	0.0342611 	3.80014 	298.583 	
3.76588 	3.97106 	-0.205186 	-3.81294 	6.7462e-08 	14.9247 	19.6063 	
5.10121e-10 	14488.2 	246.919 	283.231 	0.35 	13.208 	-0.288684 	6.77333e-05 	
0.00180191 	0.00120127 	537200 	313968 	0.0244188 	7.4047 	313961 	313961 	0 	
0.0016764 	-1.11357e-08 	0.92 	0.04 	0.04 	0.034261 	3.80011 	298.437 	
3.76585 	3.97118 	-0.205331 	-3.77139 	4.79181e-08 	11.1325 	23.3985 	
5.04543e-10 	14488.2 	246.919 	283.231 	0.35 	13.208 	-0.285538 	6.77333e-05 	
0.00180191 	0.00120127 	356363 	238390 	0.0137452 	10.5152 	238379 	238379 	0 	
0.00174413 	-1.63168e-08 	0.92 	0.04 	0.04 	0.034261 	3.80008 	298.291 	
3.76582 	3.9713 	-0.205481 	-3.7306 	2.85857e-08 	7.3815 	27.1494 	
4.99066e-10 	14488.2 	246.919 	283.231 	0.35 	13.208 	-0.28245 	6.77333e-05 	
0.00180191 	0.00120127 	175526 	162706 	0.0062468 	14.1318 	162692 	162692 	0 	
0.00181187 	-2.1442e-08 	0.92 	0.04 	0.04 	0.0342609 	3.80004 	298.146 	
3.76578 	3.97142 	-0.205636 	-3.69057 	9.46255e-09 	3.67091 	30.86 	
4.93687e-10 	14488.2 	246.919 	283.231 	0.35 	13.208 	-0.279419 	6.77333e-05 	
0.00180191 	0.00120127 	-5310.5 	86793.2 	0.00181843 	18.2378 	86775 	86775 	0 	
0.0018796 	0 	0.92 	0.04 	0.04 	0.0342609 	3.8 	298 	
3.76574 	3.97154 	-0.205796 	-1.82563 	9.46255e-09 	0.912815 	33.6181 	
2.44202e-10 	7244.08 	123.46 	141.616 	0.35 	6.604 	-0.276443 	3.38667e-05 	
0.000900955 	0.000600637 	0.000844418 	11150.5 	0.000358874 	20.4111 	11130.1 	11130.1 	0 	
ZONE T = "t = 1.1125e-07 [s]" I = 10 SOLUTIONTIME = 1.1125000000000E-07
0.00127 	2.1178e-08 	0.92 	0.04 	0.04 	0.034262 	3.8002 	299.311 	
3.76594 	3.97048 	-0.204534 	-2.01646 	1.68496e-07 	33.5227 	1.00823 	
3.83514e-10 	7244.08 	123.46 	141.616 	0.35 	6.604 	-0.305339 	3.38667e-05 	
0.000900955 	0.000600637 	1.44138e+06 	692526 	0.114279 	0.0775905 	692526 	692526 	0 	
0.00133773 	1.56406e-08 	0.92 	0.04 	0.04 	0.0342618 	3.8002 	299.166 	
3.76594 	3.97059 	-0.204654 	-3.98723 	1.47832e-07 	30.5209 	4.01007 	
7.58333e-10 	14488.2 	246.919 	283.231 	0.35 	13.208 	-0.30188 	6.77333e-05 	
0.00180191 	0.00120127 	1.26055e+06 	616950 	0.101103 	0.382698 	616950 	616950 	0 	
0.00140547 	1.01652e-08 	0.92 	0.04 	0.04 	0.0342616 	3.80019 	299.02 	
3.76593 	3.97071 	-0.204779 	-3.94241 	1.27402e-07 	26.5561 	7.97489 	
7.498e-10 	14488.2 	246.919 	283.231 	0.35 	13.208 	-0.298486 	6.77333e-05 	
0.00180191 	0.00120127 	1.07971e+06 	541001 	0.0765991 	1.28776 	540999 	540999 	0 	
0.0014732 	4.75111e-09 	0.92 	0.04 	0.04 	0.0342614 	3.80018 	298.874 	
3.76592 	3.97083 	-0.20491 	-3.89843 	1.072e-07 	22.6356 	11.8953 	
7.41427e-10 	14488.2 	246.919 	283.231 	0.35 	13.208 	-0.295157 	6.77333e-05 	
0.00180191 	0.00120127 	898874 	465364 	0.0557308 	2.77261 	465361 	465361 	0 	
0.00154093 	-6.03162e-10 	0.92 	0.04 	0.04 	0.0342612 	3.80016 	298.729 	
3.7659 	3.97095 	-0.205045 	-3.85529 	8.72212e-08 	18.7588 	15.7722 	
7.33208e-10 	14488.2 	246.919 	283.231 	0.35 	13.208 	-0.29189 	6.77333e-05 	
0.00180191 	0.00120127 	718037 	389639 	0.0383763 	4.81784 	389634 	389634 	0 	
0.00160867 	-5.89863e-09 	0.92 	0.04 	0.04 	0.0342611 	3.80014 	298.583 	
3.76588 	3.97106 	-0.205186 	-3.81294 	6.7462e-08 	14.9247 	19.6063 	
7.2514e-10 	14488.2 	246.919 	283.231 	0.35 	13.208 	-0.288684 	6.77333e-05 	
0.00180191 	0.00120127 	537200 	313990 	0.0244188 	7.4047 	313982 	313982 	0 	
0.0016764 	-1.11364e-08 	0.92 	0.04 	0.04 	0.034261 	3.80011 	298.437 	
3.76585 	3.97118 	-0.205331 	-3.77139 	4.79181e-08 	11.1325 	23.3985 	
7.17219e-10 	14488.2 	246.919 	283.231 	0.35 	13.208 	-0.285538 	6.77333e-05 	
0.00180191 	0.00120127 	356363 	238296 	0.0137452 	10.5152 	238286 	238286 	0 	
0.00174413 	-1.63176e-08 	0.92 	0.04 	0.04 	0.034261 	3.80008 	298.291 	
3.76582 	3.9713 	-0.205481 	-3.7306 	2.85856e-08 	7.3815 	27.1494 	
7.09442e-10 	14488.2 	246.919 	283.231 	0.35 	13.208 	-0.28245 	6.77333e-05 	
0.00180191 	0.00120127 	175526 	162437 	0.0062468 	14.1318 	162423 	162423 	0 	
0.00181187 	-2.14433e-08 	0.92 	0.04 	0.04 	0.0342609 	3.80004 	298.146 	
3.76578 	3.97142 	-0.205636 	-3.69057 	9.46337e-09 	3.67091 	30.86 	
7.01805e-10 	14488.2 	246.919 	283.231 	0.35 	13.208 	-0.279419 	6.77333e-05 	
0.00180191 	0.00120127 	-5310.49 	86860.8 	0.00181843 	18.2378 	86842.6 	86842.6 	0 	
0.0018796 	0 	0.92 	0.04 	0.04 	0.0342609 	3.8 	298 	
3.76574 	3.97154 	-0.205796 	-1.82563 	9.46337e-09 	0.912815 	33.6181 	
3.47153e-10 	7244.08 	123.46 	141.616 	0.35 	6.604 	-0.276443 	3.38667e-05 	
0.000900955 	0.000600637 	0.00122207 	11189.6 	0.000358874 	20.4111 	11169.2 	11169.2 	0 	
ZONE T = "t = 1.61875e-07 [s]" I = 10 SOLUTIONTIME = 1.6187500000000E-07
0.00127 	2.11777e-08 	0.92 	0.04 	0.04 	0.034262 	3.8002 	299.311 	
3.76594 	3.97048 	-0.204534 	-2.01646 	1.68496e-07 	33.5227 	1.00823 	
5.54081e-10 	7244.08 	123.46 	141.616 	0.35 	6.604 	-0.305339 	3.38667e-05 	
0.000900955 	0.000600637 	1.44138e+06 	692503 	0.114279 	0.0775905 	692502 	692502 	0 	
0.00133773 	1.56402e-08 	0.92 	0.04 	0.04 	0.0342618 	3.8002 	299.166 	
3.76594 	3.97059 	-0.204654 	-3.98723 	1.47832e-07 	30.5209 	4.01007 	
1.0956e-09 	14488.2 	246.919 	283.231 	0.35 	13.208 	-0.30188 	6.77333e-05 	
0.00180191 	0.00120127 	1.26055e+06 	616781 	0.101103 	0.382698 	616780 	616780 	0 	
0.00140547 	1.01649e-08 	0.92 	0.04 	0.04 	0.0342616 	3.80019 	299.02 	
3.76593 	3.97071 	-0.204779 	-3.94241 	1.27402e-07 	26.5561 	7.97489 	
1.08328e-09 	14488.2 	246.919 	283.231 	0.35 	13.208 	-0.298486 	6.77333e-05 	
0.00180191 	0.00120127 	1.07971e+06 	541039 	0.0765991 	1.28776 	541038 	541038 	0 	
0.0014732 	4.7508e-09 	0.92 	0.04 	0.04 	0.0342614 	3.80018 	298.874 	
3.76592 	3.97083 	-0.20491 	-3.89843 	1.072e-07 	22.6356 	11.8953 	
1.07119e-09 	14488.2 	246.919 	283.231 	0.35 	13.208 	-0.295157 	6.77333e-05 	
0.00180191 	0.00120127 	898874 	465358 	0.0557308 	2.77261 	465355 	465355 	0 	
0.00154093 	-6.0361e-10 	0.92 	0.04 	0.04 	0.0342612 	3.80016 	298.729 	
3.7659 	3.97095 	-0.205045 	-3.85529 	8.72212e-08 	18.7588 	15.7722 	
1.05932e-09 	14488.2 	246.919 	283.231 	0.35 	13.208 	-0.29189 	6.77333e-05 	
0.00180191 	0.00120127 	718037 	389626 	0.0383763 	4.81784 	389621 	389621 	0 	
0.00160867 	-5.89907e-09 	0.92 	0.04 	0.04 	0.0342611 	3.80014 	298.583 	
3.76588 	3.97106 	-0.205186 	-3.81294 	6.7462e-08 	14.9247 	19.6063 	
1.04767e-09 	14488.2 	246.919 	283.231 	0.35 	13.208 	-0.288684 	6.77333e-05 	
0.00180191 	0.00120127 	537200 	313821 	0.0244188 	7.4047 	313814 	313814 	0 	
0.0016764 	-1.11367e-08 	0.92 	0.04 	0.04 	0.034261 	3.80011 	298.437 	
3.76585 	3.97118 	-0.205331 	-3.77139 	4.79181e-08 	11.1325 	23.3985 	
1.03623e-09 	14488.2 	246.919 	283.231 	0.35 	13.208 	-0.285538 	6.77333e-05 	
0.00180191 	0.00120127 	356363 	238157 	0.0137452 	10.5152 	238146 	238146 	0 	
0.00174413 	-1.63178e-08 	0.92 	0.04 	0.04 	0.034261 	3.80008 	298.291 	
3.76582 	3.9713 	-0.205481 	-3.7306 	2.85856e-08 	7.3815 	27.1494 	
1.025e-09 	14488.2 	246.919 	283.231 	0.35 	13.208 	-0.28245 	6.77333e-05 	
0.00180191 	0.00120127 	175526 	162505 	0.0062468 	14.1318 	162491 	162491 	0 	
0.00181187 	-2.14431e-08 	0.92 	0.04 	0.04 	0.0342609 	3.80004 	298.146 	
3.76578 	3.97142 	-0.205636 	-3.69057 	9.46461e-09 	3.67091 	30.86 	
1.01398e-09 	14488.2 	246.919 	283.231 	0.35 	13.208 	-0.279419 	6.77333e-05 	
0.00180191 	0.00120127 	-5310.49 	86808.7 	0.00181843 	18.2378 	86790.5 	86790.5 	0 	
0.0018796 	0 	0.92 	0.04 	0.04 	0.0342609 	3.8 	298 	
3.76574 	3.97154 	-0.205796 	-1.82563 	9.46461e-09 	0.912815 	33.6181 	
5.01578e-10 	7244.08 	123.46 	141.616 	0.35 	6.604 	-0.276443 	3.38667e-05 	
0.000900955 	0.000600637 	0.00178525 	11124.7 	0.000358874 	20.4111 	11104.3 	11104.3 	0 	
ZONE T = "t = 2.37813e-07 [s]" I = 10 SOLUTIONTIME = 2.3781250000000E-07
0.00127 	2.11778e-08 	0.92 	0.04 	0.04 	0.034262 	3.8002 	299.311 	
3.76594 	3.97048 	-0.204534 	-2.01646 	1.68497e-07 	33.5227 	1.00823 	
8.09932e-10 	7244.08 	123.46 	141.616 	0.35 	6.604 	-0.305339 	3.38667e-05 	
0.000900955 	0.000600637 	1.44138e+06 	692364 	0.114279 	0.0775905 	692364 	692364 	0 	
0.00133773 	1.56403e-08 	0.92 	0.04 	0.04 	0.0342618 	3.8002 	299.166 	
3.76594 	3.97059 	-0.204654 	-3.98723 	1.47832e-07 	30.5209 	4.01007 	
1.60151e-09 	14488.2 	246.919 	283.231 	0.35 	13.208 	-0.30188 	6.77333e-05 	
0.00180191 	0.00120127 	1.26055e+06 	616664 	0.101103 	0.382698 	616663 	616663 	0 	
0.00140547 	1.01651e-08 	0.92 	0.04 	0.04 	0.0342616 	3.80019 	299.02 	
3.76593 	3.97071 	-0.204779 	-3.94241 	1.27402e-07 	26.5561 	7.97489 	
1.5835e-09 	14488.2 	246.919 	283.231 	0.35 	13.208 	-0.298486 	6.77333e-05 	
0.00180191 	0.00120127 	1.07971e+06 	540964 	0.0765991 	1.28776 	540963 	540963 	0 	
0.0014732 	4.75091e-09 	0.92 	0.04 	0.04 	0.0342614 	3.80018 	298.874 	
3.76592 	3.97083 	-0.20491 	-3.89843 	1.072e-07 	22.6356 	11.8953 	
1.56582e-09 	14488.2 	246.919 	283.231 	0.35 	13.208 	-0.295157 	6.77333e-05 	
0.00180191 	0.00120127 	898874 	465270 	0.0557308 	2.77261 	465267 	465267 	0 	
0.00154093 	-6.03264e-10 	0.92 	0.04 	0.04 	0.0342612 	3.80016 	298.729 	
3.7659 	3.97095 	-0.205045 	-3.85529 	8.72212e-08 	18.7588 	15.7722 	
1.54848e-09 	14488.2 	246.919 	283.231 	0.35 	13.208 	-0.29189 	6.77333e-05 	
0.00180191 	0.00120127 	718037 	389601 	0.0383763 	4.81784 	389597 	389597 	0 	
0.00160867 	-5.89878e-09 	0.92 	0.04 	0.04 	0.0342611 	3.80014 	298.583 	
3.76588 	3.97106 	-0.205186 	-3.81294 	6.7462e-08 	14.9247 	19.6063 	
1.53146e-09 	14488.2 	246.919 	283.231 	0.35 	13.208 	-0.288684 	6.77333e-05 	
0.00180191 	0.00120127 	537200 	313885 	0.0244188 	7.4047 	313878 	313878 	0 	
0.0016764 	-1.11366e-08 	0.92 	0.04 	0.04 	0.034261 	3.80011 	298.437 	
3.76585 	3.97118 	-0.205331 	-3.77139 	4.79181e-08 	11.1325 	23.3985 	
1.51475e-09 	14488.2 	246.919 	283.231 	0.35 	13.208 	-0.285538 	6.77333e-05 	
0.00180191 	0.00120127 	356363 	238144 	0.0137452 	10.5152 	238134 	238134 	0 	
0.00174413 	-1.63177e-08 	0.92 	0.04 	0.04 	0.034261 	3.80008 	298.291 	