TITLE = "Solution on Domain BulkDomain1D_0"
VARIABLES = "x [m]"  
"Vel_axial" 	"MF_sp(ECDMC)" 	"MF_sp(Li+)" 	"MF_sp(PF6-)" 	"Volt(Electroly)" 	"Volt(AnodeVolt)" 	"Temperature" 	
"Potential Drop Electrode-Electrolyte [V]" 	"Surf_0 Equilibrium Potential Drop Electrode-Electrolyte [V]" 	"Overpotential_0 [V]" 	"Current Source [A/m^2]" 	"Li+ flux [kmol/m^2/s]" 	"Electrolyte Current [A/m^2]" 	"Electrode Current [A/m^2]" 	
"Capacity discharged [A-s]" 	"Depth of discharge [-]" 	"Capacity remaining [A-s]" 	"Initial capacity [A-s]" 	"Porosity []" 	"Surface Area [m2/m2] (area per area)" 	"Specific current (per particle area) [A/m^2]" 	"Control volume thickness [m]" 	
"Moles Li_C6-bulk [mol/m^2] (per electrode area)" 	"Moles V_C6-bulk [mol/m^2] (per electrode area)" 	"qHeat_accum [J/m3]" 	"qHeat_step [W/m3]" 	"Joule_Lyte [W/m3]" 	"Joule_Solid [W/m3]" 	"electrodHeat [W/m3]" 	"OverpotHeat [W/m3]" 	"deltaSHeat [W/m3]" 	

ZONE T = "t = 0 [s]" I = 10 SOLUTIONTIME = 0.0000000000000E+00
0 	0 	0.92 	0.04 	0.04 	-0.07 	0 	302 	
0 	0 	0 	0 	0 	0 	27.9186 	
0 	0 	0 	0 	0.35 	8.53017 	6.54585 	4.37444e-05 	
0.00379119 	0.000947796 	0 	0.0 	 0.0 	 0.0 	 0.0 	 0.0 	 0.0 	 
8.74889e-05 	0 	0.92 	0.04 	0.04 	-0.07 	0 	298.15 	
0 	0 	0 	0 	0 	0 	-0 	
0 	0 	0 	0 	0.35 	17.0603 	3.62598 	8.74889e-05 	
0.00758237 	0.00189559 	0 	0.0 	 0.0 	 0.0 	 0.0 	 0.0 	 0.0 	 
0.000174978 	0 	0.92 	0.04 	0.04 	-0.07 	0 	298.15 	
0 	0 	0 	0 	0 	0 	-0 	
0 	0 	0 	0 	0.35 	17.0603 	3.62598 	8.74889e-05 	
0.00758237 	0.00189559 	0 	0.0 	 0.0 	 0.0 	 0.0 	 0.0 	 0.0 	 
0.000262467 	0 	0.92 	0.04 	0.04 	-0.07 	0 	298.15 	
0 	0 	0 	0 	0 	0 	-0 	
0 	0 	0 	0 	0.35 	17.0603 	3.62598 	8.74889e-05 	
0.00758237 	0.00189559 	0 	0.0 	 0.0 	 0.0 	 0.0 	 0.0 	 0.0 	 
0.000349956 	0 	0.92 	0.04 	0.04 	-0.07 	0 	298.15 	
0 	0 	0 	0 	0 	0 	-0 	
0 	0 	0 	0 	0.35 	17.0603 	3.62598 	8.74889e-05 	
0.00758237 	0.00189559 	0 	0.0 	 0.0 	 0.0 	 0.0 	 0.0 	 0.0 	 
0.000437444 	0 	0.92 	0.04 	0.04 	-0.07 	0 	298.15 	
0 	0 	0 	0 	0 	0 	-0 	
0 	0 	0 	0 	0.35 	17.0603 	3.62598 	8.74889e-05 	
0.00758237 	0.00189559 	0 	0.0 	 0.0 	 0.0 	 0.0 	 0.0 	 0.0 	 
0.000524933 	0 	0.92 	0.04 	0.04 	-0.07 	0 	298.15 	
0 	0 	0 	0 	0 	0 	-0 	
0 	0 	0 	0 	0.35 	17.0603 	3.62598 	8.74889e-05 	
0.00758237 	0.00189559 	0 	0.0 	 0.0 	 0.0 	 0.0 	 0.0 	 0.0 	 
0.000612422 	0 	0.92 	0.04 	0.04 	-0.07 	0 	298.15 	
0 	0 	0 	0 	0 	0 	-0 	
0 	0 	0 	0 	0.35 	17.0603 	3.62598 	8.74889e-05 	
0.00758237 	0.00189559 	0 	0.0 	 0.0 	 0.0 	 0.0 	 0.0 	 0.0 	 
0.000699911 	0 	0.92 	0.04 	0.04 	-0.07 	0 	298.15 	
0 	0 	0 	0 	0 	0 	-0 	
0 	0 	0 	0 	0.35 	17.0603 	3.62598 	8.74889e-05 	
0.00758237 	0.00189559 	0 	0.0 	 0.0 	 0.0 	 0.0 	 0.0 	 0.0 	 
0.0007874 	0 	0.92 	0.04 	0.04 	-0.07 	0 	298.15 	
0 	0 	0 	0 	0 	15.4651 	0 	
0 	0 	0 	0 	0.35 	8.53017 	3.62598 	4.37444e-05 	
0.00379119 	0.000947796 	0 	0.0 	 0.0 	 0.0 	 0.0 	 0.0 	 0.0 	 
ZONE T = "t = 1e-08 [s]" I = 10 SOLUTIONTIME = 1.0000000000000E-08
0 	-4.50159e-10 	0.92 	0.04 	0.04 	0.0251674 	0 	302 	
0.07 	-0.0436015 	0.113601 	55.8372 	-0 	-0.336675 	25.446 	
0 	45724.2 	848.03 	962.628 	0.35 	8.53017 	0.540648 	4.37444e-05 	
0.00379119 	0.000947796 	1.49262e-05 	1492.62 	4.94479e-05 	0.00102178 	1492.62 	1492.62 	0 	
8.74889e-05 	2.35174e-09 	0.92 	0.04 	0.04 	0.0251674 	-3.8632e-09 	301.814 	
0.07 	-0.0409067 	0.110907 	61.8605 	-0 	1.33804 	21.1226 	
0 	91448.4 	1696.06 	1925.26 	0.35 	17.0603 	0.522684 	8.74889e-05 	
0.00758237 	0.00189559 	1.65139e+06 	1.65139e+14 	0.000636103 	0.000859148 	1.65139e+14 	1.65139e+14 	0 	
0.000174978 	4.8921e-09 	0.92 	0.04 	0.04 	0.0251674 	-7.05277e-09 	301.628 	
0.07 	-0.0409067 	0.110907 	61.8605 	-0 	5.18355 	17.2759 	
0 	91448.4 	1696.06 	1925.26 	0.35 	17.0603 	0.505277 	8.74889e-05 	
0.00758237 	0.00189559 	1.56747e+06 	1.56747e+14 	0.00329355 	0.000575911 	1.56747e+14 	1.56747e+14 	0 	
0.000262467 	7.18015e-09 	0.92 	0.04 	0.04 	0.0251673 	-9.63159e-09 	301.441 	
0.07 	-0.0409067 	0.110907 	61.8605 	-0 	8.66832 	13.7993 	
0 	91448.4 	1696.06 	1925.26 	0.35 	17.0603 	0.48841 	8.74889e-05 	
0.00758237 	0.00189559 	1.48355e+06 	1.48355e+14 	0.00847786 	0.000368545 	1.48355e+14 	1.48355e+14 	0 	
0.000349956 	9.22486e-09 	0.92 	0.04 	0.04 	0.0251672 	-1.16603e-08 	301.255 	
0.07 	-0.0409067 	0.110907 	61.8605 	-0 	11.7928 	10.6795 	
0 	91448.4 	1696.06 	1925.26 	0.35 	17.0603 	0.472069 	8.74889e-05 	
0.00758237 	0.00189559 	1.39963e+06 	1.39963e+14 	0.0153696 	0.000221774 	1.39963e+14 	1.39963e+14 	0 	
0.000437444 	1.1035e-08 	0.92 	0.04 	0.04 	0.0251671 	-1.31975e-08 	301.069 	
0.07 	-0.0409067 	0.110907 	61.8605 	-0 	14.5702 	7.90392 	
0 	91448.4 	1696.06 	1925.26 	0.35 	17.0603 	0.456237 	8.74889e-05 	
0.00758237 	0.00189559 	1.31571e+06 	1.31571e+14 	0.0232718 	0.000122452 	1.31571e+14 	1.31571e+14 	0 	
0.000524933 	1.26189e-08 	0.92 	0.04 	0.04 	0.0251669 	-1.42994e-08 	300.883 	
0.07 	-0.0409067 	0.110907 	61.8605 	-0 	17.0134 	5.46005 	
0 	91448.4 	1696.06 	1925.26 	0.35 	17.0603 	0.4409 	8.74889e-05 	
0.00758237 	0.00189559 	1.23179e+06 	1.23179e+14 	0.0316008 	5.93706e-05 	1.23179e+14 	1.23179e+14 	0 	
0.000612422 	1.39858e-08 	0.92 	0.04 	0.04 	0.0251667 	-1.50206e-08 	300.697 	
0.07 	-0.0409067 	0.110907 	61.8605 	-0 	19.1348 	3.33588 	
0 	91448.4 	1696.06 	1925.26 	0.35 	17.0603 	0.426043 	8.74889e-05 	
0.00758237 	0.00189559 	1.14787e+06 	1.14787e+14 	0.0398747 	2.30813e-05 	1.14787e+14 	1.14787e+14 	0 	
0.000699911 	1.5142e-08 	0.92 	0.04 	0.04 	0.0251666 	-1.54133e-08 	300.511 	
0.07 	-0.0409067 	0.110907 	61.8605 	-0 	20.9467 	1.51966 	
0 	91448.4 	1696.06 	1925.26 	0.35 	17.0603 	0.411652 	8.74889e-05 	
0.00758237 	0.00189559 	1.06395e+06 	1.06395e+14 	0.0477039 	5.72952e-06 	1.06395e+14 	1.06395e+14 	0 	
0.0007874 	1.56179e-08 	0.92 	0.04 	0.04 	0.0251663 	-1.5528e-08 	300.324 	
0.07 	-0.0409067 	0.110907 	30.9302 	-0 	23.473 	0.343549 	
0 	45724.2 	848.03 	962.628 	0.35 	8.53017 	0.397713 	4.37444e-05 	
0.00379119 	0.000947796 	980031 	9.80031e+13 	0.0514641 	9.00881e-07 	9.80031e+13 	9.80031e+13 	0 	
ZONE T = "t = 2e-08 [s]" I = 10 SOLUTIONTIME = 2.0000000000000E-08
0 	1.5935e-09 	0.92 	0.04 	0.04 	0.0342827 	0 	302 	
-0.0251674 	-0.0436015 	0.0184341 	4.61182 	-3.48958e-09 	1.14777 	33.376 	
1.15586e-10 	45724.2 	848.03 	962.628 	0.35 	8.53017 	0.26911 	4.37444e-05 	
0.00379119 	0.000947796 	2.82367e-05 	1331.05 	0.000624147 	0.00300378 	1331.05 	1331.05 	0 	
8.74889e-05 	4.65417e-09 	0.92 	0.04 	0.04 	0.0342827 	-5.38046e-09 	301.814 	
-0.0251674 	-0.0434709 	0.0183035 	8.91716 	1.73572e-08 	4.49961 	30.0242 	
2.23491e-10 	91448.4 	1696.06 	1925.26 	0.35 	17.0603 	0.258385 	8.74889e-05 	
0.00758237 	0.00189559 	1.65139e+06 	778.944 	0.00337249 	0.00258859 	778.939 	778.939 	0 	
0.000174978 	7.59255e-09 	0.92 	0.04 	0.04 	0.0342826 	-1.0025e-08 	301.628 	
-0.0251674 	-0.0433403 	0.0181729 	8.62019 	3.63665e-08 	8.81943 	25.7044 	
2.16048e-10 	91448.4 	1696.06 	1925.26 	0.35 	17.0603 	0.248032 	8.74889e-05 	
0.00758237 	0.00189559 	1.56747e+06 	315.236 	0.0122552 	0.00184524 	315.226 	315.226 	0 	
0.000262467 	1.04125e-08 	0.92 	0.04 	0.04 	0.0342825 	-1.39631e-08 	301.441 	
-0.0251673 	-0.0432097 	0.0180424 	8.33244 	5.34743e-08 	12.9657 	21.5581 	
2.08836e-10 	91448.4 	1696.06 	1925.26 	0.35 	17.0603 	0.238039 	8.74889e-05 	
0.00758237 	0.00189559 	1.48355e+06 	328.434 	0.0272308 	0.00126326 	328.414 	328.414 	0 	
0.000349956 	1.31183e-08 	0.92 	0.04 	0.04 	0.0342823 	-1.72232e-08 	301.255 	
-0.0251672 	-0.0430792 	0.017912 	8.05365 	6.87496e-08 	16.9444 	17.5794 	
2.01849e-10 	91448.4 	1696.06 	1925.26 	0.35 	17.0603 	0.228394 	8.74889e-05 	
0.00758237 	0.00189559 	1.39963e+06 	711.27 	0.0470255 	0.000818724 	711.237 	711.237 	0 	
0.000437444 	1.57137e-08 	0.92 	0.04 	0.04 	0.0342822 	-1.98328e-08 	301.069 	
-0.0251671 	-0.0429487 	0.0177817 	7.78356 	8.226e-08 	20.7615 	13.7623 	
1.95079e-10 	91448.4 	1696.06 	1925.26 	0.35 	17.0603 	0.219086 	8.74889e-05 	
0.00758237 	0.00189559 	1.31571e+06 	1230.11 	0.070528 	0.000490536 	1230.06 	1230.06 	0 	
0.000524933 	1.82039e-08 	0.92 	0.04 	0.04 	0.0342819 	-2.18184e-08 	300.883 	
-0.0251669 	-0.0428183 	0.0176513 	7.5219 	9.4071e-08 	24.4226 	10.1012 	
1.88521e-10 	91448.4 	1696.06 	1925.26 	0.35 	17.0603 	0.210106 	8.74889e-05 	
0.00758237 	0.00189559 	1.23179e+06 	675.948 	0.0967767 	0.000260205 	675.883 	675.883 	0 	
0.000612422 	2.05903e-08 	0.92 	0.04 	0.04 	0.0342817 	-2.32055e-08 	300.697 	
-0.0251668 	-0.0426878 	0.0175211 	7.26844 	1.04247e-07 	27.9331 	6.59066 	
1.82169e-10 	91448.4 	1696.06 	1925.26 	0.35 	17.0603 	0.201441 	8.74889e-05 	
0.00758237 	0.00189559 	1.14787e+06 	169.682 	0.124947 	0.000111603 	169.596 	169.596 	0 	
0.000699911 	2.2877e-08 	0.92 	0.04 	0.04 	0.0342814 	-2.4019e-08 	300.511 	
-0.0251666 	-0.0425574 	0.0173909 	7.02292 	1.1285e-07 	31.2985 	3.2253 	
1.76015e-10 	91448.4 	1696.06 	1925.26 	0.35 	17.0603 	0.193084 	8.74889e-05 	
0.00758237 	0.00189559 	1.06395e+06 	838.686 	0.154336 	3.07564e-05 	838.579 	838.579 	0 	
0.0007874 	2.39733e-08 	0.92 	0.04 	0.04 	0.0342811 	-2.42825e-08 	300.324 	
-0.0251664 	-0.0424271 	0.0172607 	3.39256 	1.1285e-07 	33.7347 	0.789134 	
8.50277e-11 	45724.2 	848.03 	962.628 	0.35 	8.53017 	0.185022 	4.37444e-05 	
0.00379119 	0.000947796 	980031 	362.507 	0.169255 	5.65414e-06 	362.389 	362.389 	0 	
ZONE T = "t = 3e-08 [s]" I = 10 SOLUTIONTIME = 3.0000000000000E-08
0 	1.59404e-09 	0.92 	0.04 	0.04 	0.0342827 	0 	302 	
-0.0342827 	-0.0436015 	0.00931882 	2.29555 	1.18957e-08 	1.14777 	33.376 	
1.7312e-10 	45724.2 	848.03 	962.628 	0.35 	8.53017 	0.26911 	4.37444e-05 	
0.00379119 	0.000947796 	3.12425e-05 	300.587 	0.00119885 	0.00498578 	300.584 	300.584 	0 	
8.74889e-05 	4.65544e-09 	0.92 	0.04 	0.04 	0.0342827 	-5.38046e-09 	301.814 	
-0.0342827 	-0.0434709 	0.00918822 	4.40814 	3.47394e-08 	4.49961 	30.0242 	
3.33972e-10 	91448.4 	1696.06 	1925.26 	0.35 	17.0603 	0.258385 	8.74889e-05 	
0.00758237 	0.00189559 	1.65139e+06 	-232.075 	0.00610888 	0.00431803 	-232.08 	-232.08 	0 	
0.000174978 	7.59491e-09 	0.92 	0.04 	0.04 	0.0342826 	-1.0025e-08 	301.628 	
-0.0342826 	-0.0433403 	0.0090577 	4.23151 	5.66676e-08 	8.81943 	25.7044 	
3.22102e-10 	91448.4 	1696.06 	1925.26 	0.35 	17.0603 	0.248032 	8.74889e-05 	
0.00758237 	0.00189559 	1.56747e+06 	1063.78 	0.0212168 	0.00311458 	1063.77 	1063.77 	0 	
0.000262467 	1.04149e-08 	0.92 	0.04 	0.04 	0.0342825 	-1.39631e-08 	301.441 	
-0.0342825 	-0.0432097 	0.00892725 	4.06102 	7.77123e-08 	12.9657 	21.5581 	
3.10617e-10 	91448.4 	1696.06 	1925.26 	0.35 	17.0603 	0.238039 	8.74889e-05 	
0.00758237 	0.00189559 	1.48355e+06 	-50.6987 	0.0459838 	0.00215798 	-50.7183 	-50.7183 	0 	
0.000349956 	1.31206e-08 	0.92 	0.04 	0.04 	0.0342823 	-1.72232e-08 	301.255 	
-0.0342824 	-0.0430792 	0.00879687 	3.89647 	9.79043e-08 	16.9444 	17.5794 	
2.99506e-10 	91448.4 	1696.06 	1925.26 	0.35 	17.0603 	0.228394 	8.74889e-05 	
0.00758237 	0.00189559 	1.39963e+06 	416.388 	0.0786815 	0.00141567 	416.356 	416.356 	0 	
0.000437444 	1.57161e-08 	0.92 	0.04 	0.04 	0.0342822 	-1.98328e-08 	301.069 	
-0.0342822 	-0.0429487 	0.00866656 	3.73768 	1.17273e-07 	20.7615 	13.7623 	
2.88757e-10 	91448.4 	1696.06 	1925.26 	0.35 	17.0603 	0.219086 	8.74889e-05 	
0.00758237 	0.00189559 	1.31571e+06 	50.5855 	0.117784 	0.00085862 	50.5379 	50.5379 	0 	
0.000524933 	1.82055e-08 	0.92 	0.04 	0.04 	0.0342819 	-2.18184e-08 	300.883 	
-0.034282 	-0.0428183 	0.00853631 	3.58447 	1.35849e-07 	24.4226 	10.1012 	
2.78359e-10 	91448.4 	1696.06 	1925.26 	0.35 	17.0603 	0.210106 	8.74889e-05 	
0.00758237 	0.00189559 	1.23179e+06 	520.406 	0.161953 	0.00046104 	520.341 	520.341 	0 	
0.000612422 	2.0592e-08 	0.92 	0.04 	0.04 	0.0342817 	-2.32055e-08 	300.697 	
-0.0342817 	-0.0426878 	0.00840612 	3.43666 	1.53658e-07 	27.9331 	6.59066 	
2.68302e-10 	91448.4 	1696.06 	1925.26 	0.35 	17.0603 	0.201441 	8.74889e-05 	
0.00758237 	0.00189559 	1.14787e+06 	367.348 	0.210018 	0.000200124 	367.263 	367.263 	0 	
0.000699911 	2.28787e-08 	0.92 	0.04 	0.04 	0.0342814 	-2.4019e-08 	300.511 	
-0.0342814 	-0.0425574 	0.008276 	3.29407 	1.70728e-07 	31.2985 	3.2253 	
2.58575e-10 	91448.4 	1696.06 	1925.26 	0.35 	17.0603 	0.193084 	8.74889e-05 	
0.00758237 	0.00189559 	1.06395e+06 	187.356 	0.260968 	5.57834e-05 	187.249 	187.249 	0 	
0.0007874 	2.39742e-08 	0.92 	0.04 	0.04 	0.0342811 	-2.42825e-08 	300.324 	
-0.0342811 	-0.0424271 	0.00814594 	1.57827 	1.70728e-07 	33.7346 	0.789134 	
1.24584e-10 	45724.2 	848.03 	962.628 	0.35 	8.53017 	0.185022 	4.37444e-05 	
0.00379119 	0.000947796 	980031 	67.6254 	0.287046 	1.04074e-05 	67.5077 	67.5077 	0 	
ZONE T = "t = 4e-08 [s]" I = 10 SOLUTIONTIME = 4.0000000000000E-08
0 	1.59368e-09 	0.92 	0.04 	0.04 	0.0342827 	0 	302 	
-0.0342827 	-0.0436015 	0.00931882 	2.29555 	1.18957e-08 	1.14778 	33.3761 	
2.30653e-10 	45724.2 	848.03 	962.628 	0.35 	8.53017 	0.26911 	4.37444e-05 	
0.00379119 	0.000947796 	4.01784e-05 	893.589 	0.00177355 	0.00696778 	893.586 	893.586 	0 	
8.74889e-05 	4.65545e-09 	0.92 	0.04 	0.04 	0.0342827 	-5.38047e-09 	301.814 	
-0.0342827 	-0.0434709 	0.00918822 	4.40814 	3.47394e-08 	4.49962 	30.0242 	
4.44453e-10 	91448.4 	1696.06 	1925.26 	0.35 	17.0603 	0.258385 	8.74889e-05 	
0.00758237 	0.00189559 	1.65139e+06 	600.719 	0.00884528 	0.00604748 	600.715 	600.715 	0 	
0.000174978 	7.59383e-09 	0.92 	0.04 	0.04 	0.0342826 	-1.0025e-08 	301.628 	
-0.0342826 	-0.0433403 	0.0090577 	4.23151 	5.66676e-08 	8.81944 	25.7044 	
4.28156e-10 	91448.4 	1696.06 	1925.26 	0.35 	17.0603 	0.248032 	8.74889e-05 	
0.00758237 	0.00189559 	1.56747e+06 	-174.071 	0.0301784 	0.00438392 	-174.081 	-174.081 	0 	
0.000262467 	1.04138e-08 	0.92 	0.04 	0.04 	0.0342825 	-1.39631e-08 	301.441 	
-0.0342825 	-0.0432097 	0.00892725 	4.06102 	7.77123e-08 	12.9657 	21.5581 	
4.12399e-10 	91448.4 	1696.06 	1925.26 	0.35 	17.0603 	0.238039 	8.74889e-05 	
0.00758237 	0.00189559 	1.48355e+06 	1342.69 	0.0647368 	0.00305271 	1342.67 	1342.67 	0 	
0.000349956 	1.31196e-08 	0.92 	0.04 	0.04 	0.0342823 	-1.72232e-08 	301.255 	
-0.0342824 	-0.0430792 	0.00879687 	3.89647 	9.79043e-08 	16.9444 	17.5794 	
3.97163e-10 	91448.4 	1696.06 	1925.26 	0.35 	17.0603 	0.228394 	8.74889e-05 	
0.00758237 	0.00189559 	1.39963e+06 	442.313 	0.110338 	0.00201263 	442.28 	442.28 	0 	
0.000437444 	1.5715e-08 	0.92 	0.04 	0.04 	0.0342822 	-1.98328e-08 	301.069 	
-0.0342822 	-0.0429487 	0.00866655 	3.73768 	1.17273e-07 	20.7615 	13.7623 	
3.82435e-10 	91448.4 	1696.06 	1925.26 	0.35 	17.0603 	0.219086 	8.74889e-05 	
0.00758237 	0.00189559 	1.31571e+06 	455.641 	0.16504 	0.00122671 	455.594 	455.594 	0 	
0.000524933 	1.82041e-08 	0.92 	0.04 	0.04 	0.0342819 	-2.18184e-08 	300.883 	
-0.034282 	-0.0428183 	0.0085363 	3.58447 	1.35849e-07 	24.4226 	10.1012 	
3.68197e-10 	91448.4 	1696.06 	1925.26 	0.35 	17.0603 	0.210106 	8.74889e-05 	
0.00758237 	0.00189559 	1.23179e+06 	-82.3153 	0.227129 	0.000661875 	-82.3807 	-82.3807 	0 	
0.000612422 	2.05895e-08 	0.92 	0.04 	0.04 	0.0342817 	-2.32056e-08 	300.697 	
-0.0342817 	-0.0426878 	0.00840612 	3.43666 	1.53658e-07 	27.9332 	6.59067 	
3.54435e-10 	91448.4 	1696.06 	1925.26 	0.35 	17.0603 	0.201441 	8.74889e-05 	
0.00758237 	0.00189559 	1.14787e+06 	636.305 	0.295091 	0.000288646 	636.22 	636.22 	0 	
0.000699911 	2.28776e-08 	0.92 	0.04 	0.04 	0.0342814 	-2.4019e-08 	300.511 	
-0.0342814 	-0.0425574 	0.008276 	3.29407 	1.70728e-07 	31.2985 	3.22531 	
3.41134e-10 	91448.4 	1696.06 	1925.26 	0.35 	17.0603 	0.193084 	8.74889e-05 	
0.00758237 	0.00189559 	1.06395e+06 	-81.6001 	0.3676 	8.08104e-05 	-81.7068 	-81.7068 	0 	
0.0007874 	2.39725e-08 	0.92 	0.04 	0.04 	0.0342811 	-2.42825e-08 	300.324 	
-0.0342811 	-0.0424271 	0.00814594 	1.57827 	1.70728e-07 	33.7347 	0.789135 	
1.6414e-10 	45724.2 	848.03 	962.628 	0.35 	8.53017 	0.185022 	4.37444e-05 	
0.00379119 	0.000947796 	980031 	430.555 	0.404837 	1.51607e-05 	430.438 	430.438 	0 	
ZONE T = "t = 5.5e-08 [s]" I = 10 SOLUTIONTIME = 5.5000000000000E-08
0 	1.59405e-09 	0.92 	0.04 	0.04 	0.0342827 	0 	302 	
-0.0342827 	-0.0436015 	0.00931882 	2.29555 	1.18957e-08 	1.14778 	33.3761 	
2.88186e-10 	45724.2 	848.03 	962.628 	0.35 	8.53017 	0.26911 	4.37444e-05 	
0.00379119 	0.000947796 	4.62264e-05 	403.202 	0.00175706 	0.00662719 	403.199 	403.199 	0 	
8.74889e-05 	4.6546e-09 	0.92 	0.04 	0.04 	0.0342827 	-5.38047e-09 	301.814 	
-0.0342827 	-0.0434709 	0.00918822 	4.40814 	3.47395e-08 	4.49962 	30.0242 	
5.54934e-10 	91448.4 	1696.06 	1925.26 	0.35 	17.0603 	0.258385 	8.74889e-05 	
0.00758237 	0.00189559 	1.65139e+06 	302.599 	0.00863325 	0.0057611 	302.594 	302.594 	0 	
0.000174978 	7.59274e-09 	0.92 	0.04 	0.04 	0.0342826 	-1.0025e-08 	301.628 	
-0.0342826 	-0.0433403 	0.0090577 	4.23151 	5.66677e-08 	8.81944 	25.7044 	
5.34211e-10 	91448.4 	1696.06 	1925.26 	0.35 	17.0603 	0.248032 	8.74889e-05 	
0.00758237 	0.00189559 	1.56747e+06 	350.881 	0.0290806 	0.00419195 	350.87 	350.87 	0 	
0.000262467 	1.04127e-08 	0.92 	0.04 	0.04 	0.0342825 	-1.39631e-08 	301.441 	
-0.0342825 	-0.0432097 	0.00892725 	4.06102 	7.77124e-08 	12.9657 	21.5581 	
5.1418e-10 	91448.4 	1696.06 	1925.26 	0.35 	17.0603 	0.238039 	8.74889e-05 	
0.00758237 	0.00189559 	1.48355e+06 	647.077 	0.0619109 	0.00292986 	647.057 	647.057 	0 	
0.000349956 	1.31185e-08 	0.92 	0.04 	0.04 	0.0342823 	-1.72232e-08 	301.255 	
-0.0342824 	-0.0430792 	0.00879687 	3.89647 	9.79045e-08 	16.9444 	17.5794 	
4.94821e-10 	91448.4 	1696.06 	1925.26 	0.35 	17.0603 	0.228394 	8.74889e-05 	
0.00758237 	0.00189559 	1.39963e+06 	475.797 	0.105214 	0.0019387 	475.765 	475.765 	0 	
0.000437444 	1.57142e-08 	0.92 	0.04 	0.04 	0.0342822 	-1.98328e-08 	301.069 	
-0.0342822 	-0.0429487 	0.00866656 	3.73768 	1.17274e-07 	20.7615 	13.7623 	
4.76112e-10 	91448.4 	1696.06 	1925.26 	0.35 	17.0603 	0.219086 	8.74889e-05 	
0.00758237 	0.00189559 	1.31571e+06 	517.21 	0.157283 	0.00118589 	517.162 	517.162 	0 	
0.000524933 	1.82033e-08 	0.92 	0.04 	0.04 	0.0342819 	-2.18184e-08 	300.883 	
-0.034282 	-0.0428183 	0.00853631 	3.58447 	1.35849e-07 	24.4226 	10.1012 	
4.58034e-10 	91448.4 	1696.06 	1925.26 	0.35 	17.0603 	0.210106 	8.74889e-05 	
0.00758237 	0.00189559 	1.23179e+06 	349.744 	0.216595 	0.000642085 	349.678 	349.678 	0 	
0.000612422 	2.0589e-08 	0.92 	0.04 	0.04 	0.0342817 	-2.32056e-08 	300.697 	
-0.0342817 	-0.0426878 	0.00840612 	3.43666 	1.53658e-07 	27.9332 	6.59067 	
4.40568e-10 	91448.4 	1696.06 	1925.26 	0.35 	17.0603 	0.201441 	8.74889e-05 	
0.00758237 	0.00189559 	1.14787e+06 	405.153 	0.281799 	0.000280953 	405.068 	405.068 	0 	
0.000699911 	2.28764e-08 	0.92 	0.04 	0.04 	0.0342814 	-2.4019e-08 	300.511 	
-0.0342814 	-0.0425574 	0.008276 	3.29407 	1.70729e-07 	31.2985 	3.22531 	
4.23693e-10 	91448.4 	1696.06 	1925.26 	0.35 	17.0603 	0.193084 	8.74889e-05 	
0.00758237 	0.00189559 	1.06395e+06 	402.306 	0.351699 	7.89006e-05 	402.199 	402.199 	0 	
0.0007874 	2.39726e-08 	0.92 	0.04 	0.04 	0.0342811 	-2.42825e-08 	300.324 	
-0.0342811 	-0.0424271 	0.00814594 	1.57827 	1.70729e-07 	33.7347 	0.789135 	
2.03696e-10 	45724.2 	848.03 	962.628 	0.35 	8.53017 	0.185022 	4.37444e-05 	
0.00379119 	0.000947796 	980031 	-37.1483 	0.387683 	1.48604e-05 	-37.2661 	-37.2661 	0 	
ZONE T = "t = 7.75e-08 [s]" I = 10 SOLUTIONTIME = 7.7500000000000E-08
0 	1.59405e-09 	0.92 	0.04 	0.04 	0.0342827 	0 	302 	
-0.0342827 	-0.0436015 	0.00931882 	2.29555 	1.18957e-08 	1.14778 	33.3761 	
3.74486e-10 	45724.2 	848.03 	962.628 	0.35 	8.53017 	0.26911 	4.37444e-05 	
0.00379119 	0.000947796 	5.46018e-05 	372.237 	0.00174608 	0.00640013 	372.235 	372.235 	0 	
8.74889e-05 	4.65557e-09 	0.92 	0.04 	0.04 	0.0342827 	-5.38047e-09 	301.814 	
-0.0342827 	-0.0434709 	0.00918822 	4.40814 	3.47395e-08 	4.49962 	30.0242 	
7.20656e-10 	91448.4 	1696.06 	1925.26 	0.35 	17.0603 	0.258385 	8.74889e-05 	
0.00758237 	0.00189559 	1.65139e+06 	630.243 	0.0084919 	0.00557018 	630.239 	630.239 	0 	
0.000174978 	7.59411e-09 	0.92 	0.04 	0.04 	0.0342826 	-1.0025e-08 	301.628 	
-0.0342826 	-0.0433403 	0.0090577 	4.23151 	5.66677e-08 	8.81944 	25.7044 	
6.93292e-10 	91448.4 	1696.06 	1925.26 	0.35 	17.0603 	0.248032 	8.74889e-05 	
0.00758237 	0.00189559 	1.56747e+06 	440.893 	0.0283487 	0.00406397 	440.883 	440.883 	0 	
0.000262467 	1.04141e-08 	0.92 	0.04 	0.04 	0.0342825 	-1.39631e-08 	301.441 	
-0.0342825 	-0.0432097 	0.00892725 	4.06102 	7.77124e-08 	12.9657 	21.5581 	
6.66852e-10 	91448.4 	1696.06 	1925.26 	0.35 	17.0603 	0.238039 	8.74889e-05 	
0.00758237 	0.00189559 	1.48355e+06 	-44.9372 	0.0600269 	0.00284796 	-44.9569 	-44.9569 	0 	
0.000349956 	1.31198e-08 	0.92 	0.04 	0.04 	0.0342823 	-1.72232e-08 	301.255 	
-0.0342824 	-0.0430792 	0.00879687 	3.89647 	9.79045e-08 	16.9444 	17.5794 	
6.41306e-10 	91448.4 	1696.06 	1925.26 	0.35 	17.0603 	0.228394 	8.74889e-05 	
0.00758237 	0.00189559 	1.39963e+06 	449.874 	0.101799 	0.00188942 	449.841 	449.841 	0 	
0.000437444 	1.57151e-08 	0.92 	0.04 	0.04 	0.0342822 	-1.98328e-08 	301.069 	
-0.0342822 	-0.0429487 	0.00866656 	3.73768 	1.17274e-07 	20.7615 	13.7623 	
6.16628e-10 	91448.4 	1696.06 	1925.26 	0.35 	17.0603 	0.219086 	8.74889e-05 	
0.00758237 	0.00189559 	1.31571e+06 	401.274 	0.152112 	0.00115868 	401.226 	401.226 	0 	
0.000524933 	1.82042e-08 	0.92 	0.04 	0.04 	0.0342819 	-2.18184e-08 	300.883 	
-0.034282 	-0.0428183 	0.00853631 	3.58447 	1.35849e-07 	24.4226 	10.1012 	
5.92791e-10 	91448.4 	1696.06 	1925.26 	0.35 	17.0603 	0.210106 	8.74889e-05 	
0.00758237 	0.00189559 	1.23179e+06 	297.176 	0.209573 	0.000628892 	297.111 	297.111 	0 	
0.000612422 	2.05907e-08 	0.92 	0.04 	0.04 	0.0342817 	-2.32056e-08 	300.697 	
-0.0342817 	-0.0426878 	0.00840612 	3.43666 	1.53658e-07 	27.9332 	6.59067 	
5.69767e-10 	91448.4 	1696.06 	1925.26 	0.35 	17.0603 	0.201441 	8.74889e-05 	
0.00758237 	0.00189559 	1.14787e+06 	209.287 	0.272938 	0.000275824 	209.202 	209.202 	0 	
0.000699911 	2.28781e-08 	0.92 	0.04 	0.04 	0.0342814 	-2.4019e-08 	300.511 	
-0.0342814 	-0.0425574 	0.008276 	3.29407 	1.70729e-07 	31.2985 	3.22531 	
5.47532e-10 	91448.4 	1696.06 	1925.26 	0.35 	17.0603 	0.193084 	8.74889e-05 	
0.00758237 	0.00189559 	1.06395e+06 	168.994 	0.341098 	7.76274e-05 	168.887 	168.887 	0 	
0.0007874 	2.3974e-08 	0.92 	0.04 	0.04 	0.0342811 	-2.42825e-08 	300.324 	
-0.0342811 	-0.0424271 	0.00814594 	1.57827 	1.70729e-07 	33.7347 	0.789135 	
2.63031e-10 	45724.2 	848.03 	962.628 	0.35 	8.53017 	0.185022 	4.37444e-05 	
0.00379119 	0.000947796 	980031 	466.92 	0.376247 	1.46602e-05 	466.803 	466.803 	0 	
ZONE T = "t = 1.1125e-07 [s]" I = 10 SOLUTIONTIME = 1.1125000000000E-07
0 	1.59405e-09 	0.92 	0.04 	0.04 	0.0342827 	0 	302 	
-0.0342827 	-0.0436015 	0.00931882 	2.29555 	1.18957e-08 	1.14778 	33.3761 	
5.03937e-10 	45724.2 	848.03 	962.628 	0.35 	8.53017 	0.26911 	4.37444e-05 	
0.00379119 	0.000947796 	6.61927e-05 	343.434 	0.00173875 	0.00624876 	343.431 	343.431 	0 	
8.74889e-05 	4.65476e-09 	0.92 	0.04 	0.04 	0.0342827 	-5.38047e-09 	301.814 	
-0.0342827 	-0.0434709 	0.00918822 	4.40814 	3.47395e-08 	4.49962 	30.0242 	
9.69238e-10 	91448.4 	1696.06 	1925.26 	0.35 	17.0603 	0.258385 	8.74889e-05 	
0.00758237 	0.00189559 	1.65139e+06 	374.368 	0.00839766 	0.0054429 	374.364 	374.364 	0 	
0.000174978 	7.59314e-09 	0.92 	0.04 	0.04 	0.0342826 	-1.0025e-08 	301.628 	
-0.0342826 	-0.0433403 	0.0090577 	4.23151 	5.66677e-08 	8.81944 	25.7044 	
9.31914e-10 	91448.4 	1696.06 	1925.26 	0.35 	17.0603 	0.248032 	8.74889e-05 	
0.00758237 	0.00189559 	1.56747e+06 	518.663 	0.0278608 	0.00397865 	518.653 	518.653 	0 	
0.000262467 	1.04131e-08 	0.92 	0.04 	0.04 	0.0342825 	-1.39631e-08 	301.441 	
-0.0342825 	-0.0432097 	0.00892725 	4.06102 	7.77124e-08 	12.9657 	21.5581 	
8.9586e-10 	91448.4 	1696.06 	1925.26 	0.35 	17.0603 	0.238039 	8.74889e-05 	
0.00758237 	0.00189559 	1.48355e+06 	563.786 	0.058771 	0.00279336 	563.766 	563.766 	0 	
0.000349956 	1.31188e-08 	0.92 	0.04 	0.04 	0.0342823 	-1.72232e-08 	301.255 	
-0.0342824 	-0.0430792 	0.00879687 	3.89647 	9.79045e-08 	16.9444 	17.5794 	
8.61035e-10 	91448.4 	1696.06 	1925.26 	0.35 	17.0603 	0.228394 	8.74889e-05 	
0.00758237 	0.00189559 	1.39963e+06 	343.299 	0.0995221 	0.00185656 	343.267 	343.267 	0 	
0.000437444 	1.57143e-08 	0.92 	0.04 	0.04 	0.0342822 	-1.98328e-08 	301.069 	
-0.0342822 	-0.0429487 	0.00866656 	3.73768 	1.17274e-07 	20.7615 	13.7623 	
8.27403e-10 	91448.4 	1696.06 	1925.26 	0.35 	17.0603 	0.219086 	8.74889e-05 	
0.00758237 	0.00189559 	1.31571e+06 	234.211 	0.148664 	0.00114054 	234.164 	234.164 	0 	
0.000524933 	1.82037e-08 	0.92 	0.04 	0.04 	0.0342819 	-2.18184e-08 	300.883 	
-0.034282 	-0.0428183 	0.00853631 	3.58447 	1.35849e-07 	24.4226 	10.1012 	
7.94925e-10 	91448.4 	1696.06 	1925.26 	0.35 	17.0603 	0.210106 	8.74889e-05 	
0.00758237 	0.00189559 	1.23179e+06 	573.214 	0.204891 	0.000620097 	573.149 	573.149 	0 	
0.000612422 	2.05902e-08 	0.92 	0.04 	0.04 	0.0342817 	-2.32056e-08 	300.697 	
-0.0342817 	-0.0426878 	0.00840612 	3.43666 	1.53658e-07 	27.9332 	6.59067 	
7.63566e-10 	91448.4 	1696.06 	1925.26 	0.35 	17.0603 	0.201441 	8.74889e-05 	
0.00758237 	0.00189559 	1.14787e+06 	372.989 	0.267031 	0.000272404 	372.904 	372.904 	0 	
0.000699911 	2.28776e-08 	0.92 	0.04 	0.04 	0.0342814 	-2.4019e-08 	300.511 	
-0.0342814 	-0.0425574 	0.008276 	3.29407 	1.70729e-07 	31.2985 	3.22531 	
7.33291e-10 	91448.4 	1696.06 	1925.26 	0.35 	17.0603 	0.193084 	8.74889e-05 	
0.00758237 	0.00189559 	1.06395e+06 	326.456 	0.334031 	7.67786e-05 	326.349 	326.349 	0 	
0.0007874 	2.39735e-08 	0.92 	0.04 	0.04 	0.0342811 	-2.42825e-08 	300.324 	
-0.0342811 	-0.0424271 	0.00814594 	1.57827 	1.70729e-07 	33.7347 	0.789135 	
3.52032e-10 	45724.2 	848.03 	962.628 	0.35 	8.53017 	0.185022 	4.37444e-05 	
0.00379119 	0.000947796 	980031 	106.871 	0.368622 	1.45267e-05 	106.754 	106.754 	0 	
ZONE T = "t = 1.61875e-07 [s]" I = 10 SOLUTIONTIME = 1.6187500000000E-07
0 	1.59405e-09 	0.92 	0.04 	0.04 	0.0342827 	0 	302 	
-0.0342827 	-0.0436015 	0.00931882 	2.29555 	1.18957e-08 	1.14778 	33.3761 	
6.98112e-10 	45724.2 	848.03 	962.628 	0.35 	8.53017 	0.26911 	4.37444e-05 	
0.00379119 	0.000947796 	9.13074e-05 	496.094 	0.00173387 	0.00614784 	496.092 	496.092 	0 	
8.74889e-05 	4.65508e-09 	0.92 	0.04 	0.04 	0.0342827 	-5.38047e-09 	301.814 	
-0.0342827 	-0.0434709 	0.00918822 	4.40814 	3.47395e-08 	4.49962 	30.0242 	
1.34211e-09 	91448.4 	1696.06 	1925.26 	0.35 	17.0603 	0.258385 	8.74889e-05 	
0.00758237 	0.00189559 	1.65139e+06 	368.288 	0.00833484 	0.00535805 	368.283 	368.283 	0 	
0.000174978 	7.59347e-09 	0.92 	0.04 	0.04 	0.0342826 	-1.0025e-08 	301.628 	
-0.0342826 	-0.0433403 	0.0090577 	4.23151 	5.66677e-08 	8.81944 	25.7044 	
1.28985e-09 	91448.4 	1696.06 	1925.26 	0.35 	17.0603 	0.248032 	8.74889e-05 	
0.00758237 	0.00189559 	1.56747e+06 	377.204 	0.0275355 	0.00392177 	377.194 	377.194 	0 	
0.000262467 	1.04135e-08 	0.92 	0.04 	0.04 	0.0342825 	-1.39631e-08 	301.441 	
-0.0342825 	-0.0432097 	0.00892725 	4.06102 	7.77125e-08 	12.9657 	21.5581 	
1.23937e-09 	91448.4 	1696.06 	1925.26 	0.35 	17.0603 	0.238039 	8.74889e-05 	
0.00758237 	0.00189559 	1.48355e+06 	286.948 	0.0579337 	0.00275696 	286.928 	286.928 	0 	
0.000349956 	1.31193e-08 	0.92 	0.04 	0.04 	0.0342823 	-1.72232e-08 	301.255 	
-0.0342824 	-0.0430792 	0.00879687 	3.89647 	9.79045e-08 	16.9444 	17.5794 	
1.19063e-09 	91448.4 	1696.06 	1925.26 	0.35 	17.0603 	0.228394 	8.74889e-05 	
0.00758237 	0.00189559 	1.39963e+06 	337.858 	0.0980041 	0.00183466 	337.826 	337.826 	0 	
0.000437444 	1.57147e-08 	0.92 	0.04 	0.04 	0.0342822 	-1.98328e-08 	301.069 	
-0.0342822 	-0.0429487 	0.00866656 	3.73768 	1.17274e-07 	20.7615 	13.7623 	
1.14356e-09 	91448.4 	1696.06 	1925.26 	0.35 	17.0603 	0.219086 	8.74889e-05 	
0.00758237 	0.00189559 	1.31571e+06 	258.214 	0.146366 	0.00112844 	258.167 	258.167 	0 	
0.000524933 	1.82038e-08 	0.92 	0.04 	0.04 	0.0342819 	-2.18184e-08 	300.883 	
-0.034282 	-0.0428183 	0.00853631 	3.58447 	1.35849e-07 	24.4226 	10.1012 	
1.09813e-09 	91448.4 	1696.06 	1925.26 	0.35 	17.0603 	0.210106 	8.74889e-05 	
0.00758237 	0.00189559 	1.23179e+06 	223.086 	0.20177 	0.000614233 	223.021 	223.021 	0 	
0.000612422 	2.05903e-08 	0.92 	0.04 	0.04 	0.0342817 	-2.32056e-08 	300.697 	
-0.0342817 	-0.0426878 	0.00840612 	3.43666 	1.53658e-07 	27.9332 	6.59067 	
1.05427e-09 	91448.4 	1696.06 	1925.26 	0.35 	17.0603 	0.201441 	8.74889e-05 	
0.00758237 	0.00189559 	1.14787e+06 	267.375 	0.263093 	0.000270125 	267.289 	267.289 	0 	
0.000699911 	2.28777e-08 	0.92 	0.04 	0.04 	0.0342814 	-2.4019e-08 	300.511 	
-0.0342814 	-0.0425574 	0.008276 	3.29407 	1.70729e-07 	31.2985 	3.22531 	
1.01193e-09 	91448.4 	1696.06 	1925.26 	0.35 	17.0603 	0.193084 	8.74889e-05 	
0.00758237 	0.00189559 	1.06395e+06 	353.019 	0.32932 	7.62127e-05 	352.913 	352.913 	0 	
0.0007874 	2.39739e-08 	0.92 	0.04 	0.04 	0.0342811 	-2.42825e-08 	300.324 	
-0.0342811 	-0.0424271 	0.00814594 	1.57827 	1.70729e-07 	33.7347 	0.789135 	
4.85534e-10 	45724.2 	848.03 	962.628 	0.35 	8.53017 	0.185022 	4.37444e-05 	
0.00379119 	0.000947796 	980031 	418.274 	0.36354 	1.44378e-05 	418.156 	418.156 	0 	
ZONE T = "t = 2.37813e-07 [s]" I = 10 SOLUTIONTIME = 2.3781250000000E-07
0 	1.59405e-09 	0.92 	0.04 	0.04 	0.0342827 	0 	302 	
-0.0342827 	-0.0436015 	0.00931882 	2.29555 	1.18958e-08 	1.14778 	33.3761 	
9.89375e-10 	45724.2 	848.03 	962.628 	0.35 	8.53017 	0.26911 	4.37444e-05 	
0.00379119 	0.000947796 	0.000125512 	450.435 	0.00173061 	0.00608056 	450.432 	450.432 	0 	
8.74889e-05 	4.65508e-09 	0.92 	0.04 	0.04 	0.0342827 	-5.38047e-09 	301.814 	
-0.0342827 	-0.0434709 	0.00918822 	4.40814 	3.47395e-08 	4.49962 	30.0242 	
1.90142e-09 	91448.4 	1696.06 	1925.26 	0.35 	17.0603 	0.258385 	8.74889e-05 	
0.00758237 	0.00189559 	1.65139e+06 	484.783 	0.00829296 	0.00530148 	484.779 	484.779 	0 	
0.000174978 	7.59347e-09 	0.92 	0.04 	0.04 	0.0342826 	-1.0025e-08 	301.628 	
-0.0342826 	-0.0433403 	0.0090577 	4.23151 	5.66678e-08 	8.81944 	25.7044 	
1.82675e-09 	91448.4 	1696.06 	1925.26 	0.35 	17.0603 	0.248032 	8.74889e-05 	