TITLE = "Solution on Domain BulkDomain1D_1"
VARIABLES = "x [m]"  
"Vel_axial" 	"MF_sp(ECDMC)" 	"MF_sp(Li+)" 	"MF_sp(PF6-)" 	"Volt(Electroly)" 	"Temperature" 	"qHeat_accum [J/m3]" 	"qHeat_step [W/m3]" 	"Joule_Lyte [W/m3]" 	"Joule_Solid [W/m3]" 	
ZONE T = "t = 0 [s]" I = 10 SOLUTIONTIME = 0.0000000000000E+00
0.0007874 	0 	0.92 	0.04 	0.04 	-0.07 	0 	
0 	0.0 	 0.0 	 0.0 	 
0.000841022 	0 	0.92 	0.04 	0.04 	-0.07 	298.15 	
0 	0.0 	 0.0 	 0.0 	 
0.000894644 	0 	0.92 	0.04 	0.04 	-0.07 	298.15 	
0 	0.0 	 0.0 	 0.0 	 
0.000948267 	0 	0.92 	0.04 	0.04 	-0.07 	298.15 	
0 	0.0 	 0.0 	 0.0 	 
0.00100189 	0 	0.92 	0.04 	0.04 	-0.07 	298.15 	
0 	0.0 	 0.0 	 0.0 	 
0.00105551 	0 	0.92 	0.04 	0.04 	-0.07 	298.15 	
0 	0.0 	 0.0 	 0.0 	 
0.00110913 	0 	0.92 	0.04 	0.04 	-0.07 	298.15 	
0 	0.0 	 0.0 	 0.0 	 
0.00116276 	0 	0.92 	0.04 	0.04 	-0.07 	298.15 	
0 	0.0 	 0.0 	 0.0 	 
0.00121638 	0 	0.92 	0.04 	0.04 	-0.07 	298.15 	
0 	0.0 	 0.0 	 0.0 	 
0.00127 	0 	0.92 	0.04 	0.04 	-0.07 	3.8 	
0 	0.0 	 0.0 	 0.0 	 
ZONE T = "t = 1e-08 [s]" I = 10 SOLUTIONTIME = 1.0000000000000E-08
0.0007874 	1.56198e-08 	0.92 	0.04 	0.04 	0.0251358 	-1.548e-08 	
1.55676e-10 	0.0155676 	0.0155676 	0 	
0.000841022 	1.56198e-08 	0.92 	0.04 	0.04 	0.0251357 	300.201 	
1.55658e-10 	0.0155658 	0.0155658 	0 	
0.000894644 	1.56198e-08 	0.92 	0.04 	0.04 	0.0251357 	300.089 	
1.55621e-10 	0.0155621 	0.0155621 	0 	
0.000948267 	1.56198e-08 	0.92 	0.04 	0.04 	0.0251356 	299.977 	
1.55585e-10 	0.0155585 	0.0155585 	0 	
0.00100189 	1.56198e-08 	0.92 	0.04 	0.04 	0.0251356 	299.865 	
1.55548e-10 	0.0155548 	0.0155548 	0 	
0.00105551 	1.56198e-08 	0.92 	0.04 	0.04 	0.0251356 	299.754 	
1.55511e-10 	0.0155511 	0.0155511 	0 	
0.00110913 	1.56198e-08 	0.92 	0.04 	0.04 	0.0251355 	299.642 	
1.55475e-10 	0.0155475 	0.0155475 	0 	
0.00116276 	1.56198e-08 	0.92 	0.04 	0.04 	0.0251355 	299.53 	
1.55438e-10 	0.0155438 	0.0155438 	0 	
0.00121638 	1.56198e-08 	0.92 	0.04 	0.04 	0.0251355 	299.418 	
1.55402e-10 	0.0155402 	0.0155402 	0 	
0.00127 	1.38044e-08 	0.92 	0.04 	0.04 	0.0251354 	3.80013 	
1.55383e-10 	0.0155383 	0.0155383 	0 	
ZONE T = "t = 2e-08 [s]" I = 10 SOLUTIONTIME = 2.0000000000000E-08
0.0007874 	2.39798e-08 	0.92 	0.04 	0.04 	0.0342625 	-2.42703e-08 	
5.23623e-10 	0.0367947 	0.0367947 	0 	
0.000841022 	2.39798e-08 	0.92 	0.04 	0.04 	0.0342625 	300.195 	
5.23537e-10 	0.0367879 	0.0367879 	0 	
0.000894644 	2.39798e-08 	0.92 	0.04 	0.04 	0.0342624 	300.085 	
5.23365e-10 	0.0367744 	0.0367744 	0 	
0.000948267 	2.39798e-08 	0.92 	0.04 	0.04 	0.0342624 	299.974 	
5.23193e-10 	0.0367608 	0.0367608 	0 	
0.00100189 	2.39798e-08 	0.92 	0.04 	0.04 	0.0342623 	299.864 	
5.23021e-10 	0.0367473 	0.0367473 	0 	
0.00105551 	2.39798e-08 	0.92 	0.04 	0.04 	0.0342622 	299.753 	
5.22849e-10 	0.0367337 	0.0367337 	0 	
0.00110913 	2.39798e-08 	0.92 	0.04 	0.04 	0.0342622 	299.643 	
5.22677e-10 	0.0367202 	0.0367202 	0 	
0.00116276 	2.39798e-08 	0.92 	0.04 	0.04 	0.0342621 	299.532 	
5.22505e-10 	0.0367066 	0.0367066 	0 	
0.00121638 	2.39798e-08 	0.92 	0.04 	0.04 	0.0342621 	299.422 	
5.22333e-10 	0.0366931 	0.0366931 	0 	
0.00127 	2.11782e-08 	0.92 	0.04 	0.04 	0.034262 	3.8002 	
5.22247e-10 	0.0366863 	0.0366863 	0 	
ZONE T = "t = 3e-08 [s]" I = 10 SOLUTIONTIME = 3.0000000000000E-08
0.0007874 	2.39778e-08 	0.92 	0.04 	0.04 	0.0342625 	-2.42703e-08 	
8.91569e-10 	0.0367947 	0.0367947 	0 	
0.000841022 	2.39778e-08 	0.92 	0.04 	0.04 	0.0342625 	300.195 	
8.91416e-10 	0.0367879 	0.0367879 	0 	
0.000894644 	2.39778e-08 	0.92 	0.04 	0.04 	0.0342624 	300.085 	
8.91108e-10 	0.0367744 	0.0367744 	0 	
0.000948267 	2.39778e-08 	0.92 	0.04 	0.04 	0.0342624 	299.974 	
8.90801e-10 	0.0367608 	0.0367608 	0 	
0.00100189 	2.39778e-08 	0.92 	0.04 	0.04 	0.0342623 	299.864 	
8.90493e-10 	0.0367473 	0.0367473 	0 	
0.00105551 	2.39778e-08 	0.92 	0.04 	0.04 	0.0342622 	299.753 	
8.90186e-10 	0.0367337 	0.0367337 	0 	
0.00110913 	2.39778e-08 	0.92 	0.04 	0.04 	0.0342622 	299.643 	
8.89879e-10 	0.0367202 	0.0367202 	0 	
0.00116276 	2.39778e-08 	0.92 	0.04 	0.04 	0.0342621 	299.532 	
8.89571e-10 	0.0367066 	0.0367066 	0 	
0.00121638 	2.39778e-08 	0.92 	0.04 	0.04 	0.0342621 	299.422 	
8.89264e-10 	0.0366931 	0.0366931 	0 	
0.00127 	2.11775e-08 	0.92 	0.04 	0.04 	0.034262 	3.8002 	
8.8911e-10 	0.0366863 	0.0366863 	0 	
ZONE T = "t = 4e-08 [s]" I = 10 SOLUTIONTIME = 4.0000000000000E-08
0.0007874 	2.39774e-08 	0.92 	0.04 	0.04 	0.0342625 	-2.42703e-08 	
1.25952e-09 	0.0367947 	0.0367947 	0 	
0.000841022 	2.39774e-08 	0.92 	0.04 	0.04 	0.0342625 	300.195 	
1.25929e-09 	0.0367879 	0.0367879 	0 	
0.000894644 	2.39774e-08 	0.92 	0.04 	0.04 	0.0342624 	300.085 	
1.25885e-09 	0.0367744 	0.0367744 	0 	
0.000948267 	2.39774e-08 	0.92 	0.04 	0.04 	0.0342624 	299.974 	
1.25841e-09 	0.0367608 	0.0367608 	0 	
0.00100189 	2.39774e-08 	0.92 	0.04 	0.04 	0.0342623 	299.864 	
1.25797e-09 	0.0367473 	0.0367473 	0 	
0.00105551 	2.39774e-08 	0.92 	0.04 	0.04 	0.0342622 	299.753 	
1.25752e-09 	0.0367337 	0.0367337 	0 	
0.00110913 	2.39774e-08 	0.92 	0.04 	0.04 	0.0342622 	299.643 	
1.25708e-09 	0.0367202 	0.0367202 	0 	
0.00116276 	2.39774e-08 	0.92 	0.04 	0.04 	0.0342621 	299.532 	
1.25664e-09 	0.0367066 	0.0367066 	0 	
0.00121638 	2.39774e-08 	0.92 	0.04 	0.04 	0.0342621 	299.422 	
1.25619e-09 	0.0366931 	0.0366931 	0 	
0.00127 	2.11769e-08 	0.92 	0.04 	0.04 	0.034262 	3.8002 	
1.25597e-09 	0.0366863 	0.0366863 	0 	
ZONE T = "t = 5.5e-08 [s]" I = 10 SOLUTIONTIME = 5.5000000000000E-08
0.0007874 	2.3979e-08 	0.92 	0.04 	0.04 	0.0342625 	-2.42703e-08 	
1.81144e-09 	0.0367947 	0.0367947 	0 	
0.000841022 	2.3979e-08 	0.92 	0.04 	0.04 	0.0342625 	300.195 	
1.81111e-09 	0.0367879 	0.0367879 	0 	
0.000894644 	2.3979e-08 	0.92 	0.04 	0.04 	0.0342624 	300.085 	
1.81047e-09 	0.0367744 	0.0367744 	0 	
0.000948267 	2.3979e-08 	0.92 	0.04 	0.04 	0.0342624 	299.974 	
1.80982e-09 	0.0367608 	0.0367608 	0 	
0.00100189 	2.3979e-08 	0.92 	0.04 	0.04 	0.0342623 	299.864 	
1.80918e-09 	0.0367473 	0.0367473 	0 	
0.00105551 	2.3979e-08 	0.92 	0.04 	0.04 	0.0342622 	299.753 	
1.80853e-09 	0.0367337 	0.0367337 	0 	
0.00110913 	2.3979e-08 	0.92 	0.04 	0.04 	0.0342622 	299.643 	
1.80788e-09 	0.0367202 	0.0367202 	0 	
0.00116276 	2.3979e-08 	0.92 	0.04 	0.04 	0.0342621 	299.532 	
1.80724e-09 	0.0367066 	0.0367066 	0 	
0.00121638 	2.3979e-08 	0.92 	0.04 	0.04 	0.0342621 	299.422 	
1.80659e-09 	0.0366931 	0.0366931 	0 	
0.00127 	2.11785e-08 	0.92 	0.04 	0.04 	0.034262 	3.8002 	
1.80627e-09 	0.0366863 	0.0366863 	0 	
ZONE T = "t = 7.75e-08 [s]" I = 10 SOLUTIONTIME = 7.7500000000000E-08
0.0007874 	2.39795e-08 	0.92 	0.04 	0.04 	0.0342625 	-2.42703e-08 	
2.63932e-09 	0.0367947 	0.0367947 	0 	
0.000841022 	2.39795e-08 	0.92 	0.04 	0.04 	0.0342625 	300.195 	
2.63884e-09 	0.0367879 	0.0367879 	0 	
0.000894644 	2.39795e-08 	0.92 	0.04 	0.04 	0.0342624 	300.085 	
2.63789e-09 	0.0367744 	0.0367744 	0 	
0.000948267 	2.39795e-08 	0.92 	0.04 	0.04 	0.0342624 	299.974 	
2.63694e-09 	0.0367608 	0.0367608 	0 	
0.00100189 	2.39795e-08 	0.92 	0.04 	0.04 	0.0342623 	299.864 	
2.63599e-09 	0.0367473 	0.0367473 	0 	
0.00105551 	2.39795e-08 	0.92 	0.04 	0.04 	0.0342622 	299.753 	
2.63504e-09 	0.0367337 	0.0367337 	0 	
0.00110913 	2.39795e-08 	0.92 	0.04 	0.04 	0.0342622 	299.643 	
2.63409e-09 	0.0367202 	0.0367202 	0 	
0.00116276 	2.39795e-08 	0.92 	0.04 	0.04 	0.0342621 	299.532 	
2.63314e-09 	0.0367066 	0.0367066 	0 	
0.00121638 	2.39795e-08 	0.92 	0.04 	0.04 	0.0342621 	299.422 	
2.63219e-09 	0.0366931 	0.0366931 	0 	
0.00127 	2.11792e-08 	0.92 	0.04 	0.04 	0.034262 	3.8002 	
2.63171e-09 	0.0366863 	0.0366863 	0 	
ZONE T = "t = 1.1125e-07 [s]" I = 10 SOLUTIONTIME = 1.1125000000000E-07
0.0007874 	2.39786e-08 	0.92 	0.04 	0.04 	0.0342625 	-2.42703e-08 	
3.88114e-09 	0.0367947 	0.0367947 	0 	
0.000841022 	2.39786e-08 	0.92 	0.04 	0.04 	0.0342625 	300.195 	
3.88043e-09 	0.0367879 	0.0367879 	0 	
0.000894644 	2.39786e-08 	0.92 	0.04 	0.04 	0.0342624 	300.085 	
3.87902e-09 	0.0367744 	0.0367744 	0 	
0.000948267 	2.39786e-08 	0.92 	0.04 	0.04 	0.0342624 	299.974 	
3.87762e-09 	0.0367608 	0.0367608 	0 	
0.00100189 	2.39786e-08 	0.92 	0.04 	0.04 	0.0342623 	299.864 	
3.87621e-09 	0.0367473 	0.0367473 	0 	
0.00105551 	2.39786e-08 	0.92 	0.04 	0.04 	0.0342622 	299.753 	
3.8748e-09 	0.0367337 	0.0367337 	0 	
0.00110913 	2.39786e-08 	0.92 	0.04 	0.04 	0.0342622 	299.643 	
3.87339e-09 	0.0367202 	0.0367202 	0 	
0.00116276 	2.39786e-08 	0.92 	0.04 	0.04 	0.0342621 	299.532 	
3.87199e-09 	0.0367066 	0.0367066 	0 	
0.00121638 	2.39786e-08 	0.92 	0.04 	0.04 	0.0342621 	299.422 	
3.87058e-09 	0.0366931 	0.0366931 	0 	
0.00127 	2.1178e-08 	0.92 	0.04 	0.04 	0.034262 	3.8002 	
3.86988e-09 	0.0366863 	0.0366863 	0 	
ZONE T = "t = 1.61875e-07 [s]" I = 10 SOLUTIONTIME = 1.6187500000000E-07
0.0007874 	2.39781e-08 	0.92 	0.04 	0.04 	0.0342625 	-2.42703e-08 	
5.74387e-09 	0.0367947 	0.0367947 	0 	
0.000841022 	2.39781e-08 	0.92 	0.04 	0.04 	0.0342625 	300.195 	
5.74282e-09 	0.0367879 	0.0367879 	0 	
0.000894644 	2.39781e-08 	0.92 	0.04 	0.04 	0.0342624 	300.085 	
5.74073e-09 	0.0367744 	0.0367744 	0 	
0.000948267 	2.39781e-08 	0.92 	0.04 	0.04 	0.0342624 	299.974 	
5.73863e-09 	0.0367608 	0.0367608 	0 	
0.00100189 	2.39781e-08 	0.92 	0.04 	0.04 	0.0342623 	299.864 	
5.73654e-09 	0.0367473 	0.0367473 	0 	
0.00105551 	2.39781e-08 	0.92 	0.04 	0.04 	0.0342622 	299.753 	
5.73445e-09 	0.0367337 	0.0367337 	0 	
0.00110913 	2.39781e-08 	0.92 	0.04 	0.04 	0.0342622 	299.643 	
5.73235e-09 	0.0367202 	0.0367202 	0 	
0.00116276 	2.39781e-08 	0.92 	0.04 	0.04 	0.0342621 	299.532 	
5.73026e-09 	0.0367066 	0.0367066 	0 	
0.00121638 	2.39781e-08 	0.92 	0.04 	0.04 	0.0342621 	299.422 	
5.72817e-09 	0.0366931 	0.0366931 	0 	
0.00127 	2.11777e-08 	0.92 	0.04 	0.04 	0.034262 	3.8002 	
5.72712e-09 	0.0366863 	0.0366863 	0 	
ZONE T = "t = 2.37813e-07 [s]" I = 10 SOLUTIONTIME = 2.3781250000000E-07
0.0007874 	2.39784e-08 	0.92 	0.04 	0.04 	0.0342625 	-2.42703e-08 	
8.53796e-09 	0.0367947 	0.0367947 	0 	
0.000841022 	2.39784e-08 	0.92 	0.04 	0.04 	0.0342625 	300.195 	
8.5364e-09 	0.0367879 	0.0367879 	0 	
0.000894644 	2.39784e-08 	0.92 	0.04 	0.04 	0.0342624 	300.085 	
8.53328e-09 	0.0367744 	0.0367744 	0 	
0.000948267 	2.39784e-08 	0.92 	0.04 	0.04 	0.0342624 	299.974 	
8.53016e-09 	0.0367608 	0.0367608 	0 	
0.00100189 	2.39784e-08 	0.92 	0.04 	0.04 	0.0342623 	299.864 	
8.52704e-09 	0.0367473 	0.0367473 	0 	
0.00105551 	2.39784e-08 	0.92 	0.04 	0.04 	0.0342622 	299.753 	
8.52391e-09 	0.0367337 	0.0367337 	0 	
0.00110913 	2.39784e-08 	0.92 	0.04 	0.04 	0.0342622 	299.643 	
8.52079e-09 	0.0367202 	0.0367202 	0 	
0.00116276 	2.39784e-08 	0.92 	0.04 	0.04 	0.0342621 	299.532 	
8.51767e-09 	0.0367066 	0.0367066 	0 	
0.00121638 	2.39783e-08 	0.92 	0.04 	0.04 	0.0342621 	299.422 	
8.51455e-09 	0.0366931 	0.0366931 	0 	
0.00127 	2.11778e-08 	0.92 	0.04 	0.04 	0.034262 	3.8002 	
8.51299e-09 	0.0366863 	0.0366863 	0 	
ZONE T = "t = 3.51719e-07 [s]" I = 10 SOLUTIONTIME = 3.5171875000000E-07
0.0007874 	2.39787e-08 	0.92 	0.04 	0.04 	0.0342625 	-2.42703e-08 	
1.27291e-08 	0.0367947 	0.0367947 	0 	
0.000841022 	2.39787e-08 	0.92 	0.04 	0.04 	0.0342625 	300.195 	
1.27268e-08 	0.0367879 	0.0367879 	0 	
0.000894644 	2.39787e-08 	0.92 	0.04 	0.04 	0.0342624 	300.085 	
1.27221e-08 	0.0367744 	0.0367744 	0 	
0.000948267 	2.39787e-08 	0.92 	0.04 	0.04 	0.0342624 	299.974 	
1.27174e-08 	0.0367608 	0.0367608 	0 	
0.00100189 	2.39787e-08 	0.92 	0.04 	0.04 	0.0342623 	299.864 	
1.27128e-08 	0.0367473 	0.0367473 	0 	
0.00105551 	2.39787e-08 	0.92 	0.04 	0.04 	0.0342622 	299.753 	
1.27081e-08 	0.0367337 	0.0367337 	0 	
0.00110913 	2.39787e-08 	0.92 	0.04 	0.04 	0.0342622 	299.643 	
1.27035e-08 	0.0367202 	0.0367202 	0 	
0.00116276 	2.39787e-08 	0.92 	0.04 	0.04 	0.0342621 	299.532 	
1.26988e-08 	0.0367066 	0.0367066 	0 	
0.00121638 	2.39787e-08 	0.92 	0.04 	0.04 	0.0342621 	299.422 	
1.26941e-08 	0.0366931 	0.0366931 	0 	
0.00127 	2.11782e-08 	0.92 	0.04 	0.04 	0.034262 	3.8002 	
1.26918e-08 	0.0366863 	0.0366863 	0 	
