TITLE = "Solution on Domain BulkDomain1D_2"
VARIABLES = "x [m]"  
"Vel_axial" 	"MF_sp(ECDMC)" 	"MF_sp(Li+)" 	"MF_sp(PF6-)" 	"Volt(Electroly)" 	"Volt(CathodeVo)" 	
"Potential Drop Electrode-Electrolyte [V]" 	"Surf_0 Equilibrium Potential Drop Electrode-Electrolyte [V]" 	"Overpotential_0 [V]" 	"Current Source [A/m^2]" 	"Li+ flux [kmol/m^2/s]" 	"Electrolyte Current [A/m^2]" 	"Electrode Current [A/m^2]" 	
"CV Capacity discharged [A-s/m^2]" 	"Depth of discharge in CV [A-s/m^2]" 	"CV Capacity remaining [A-s/m^2]" 	"Initial CV capacity [A-s/m^2]" 	"Porosity []" 	"Surface Area [m2/m2] (area per area)" 	"Specific current (per particle area) [A/m^2]" 	"Control volume thickness [m]" 	
"MoleDens LiCoO2 [kmol/m^3]" 	"MoleDens CoO2 [kmol/m^3]" 	"qHeat_accum [J/m3]" 	"qHeat_step [W/m3]" 	"Joule_Lyte [W/m3]" 	"Joule_Solid [W/m3]" 	"electrodHeat [W/m3]" 	"OverpotHeat [W/m3]" 	"deltaSHeat [W/m3]" 	

ZONE T = "CATH, 0.0000E+00", I = 10, SOLUTIONTIME = 0.000000E+00
ZONETYPE = ORDERED
DATAPACKING = BLOCK
STRANDID = 3
 1.2700000000000E-03  1.3377333333333E-03  1.4054666666667E-03  1.4732000000000E-03  1.5409333333333E-03  1.6086666666667E-03  1.6764000000000E-03  1.7441333333333E-03  1.8118666666667E-03  1.8796000000000E-03 
 0.0000000000000E+00  0.0000000000000E+00  0.0000000000000E+00  0.0000000000000E+00  0.0000000000000E+00  0.0000000000000E+00  0.0000000000000E+00  0.0000000000000E+00  0.0000000000000E+00  0.0000000000000E+00 
 9.2000000000000E-01  9.2000000000000E-01  9.2000000000000E-01  9.2000000000000E-01  9.2000000000000E-01  9.2000000000000E-01  9.2000000000000E-01  9.2000000000000E-01  9.2000000000000E-01  9.2000000000000E-01 
 4.0000000000000E-02  4.0000000000000E-02  4.0000000000000E-02  4.0000000000000E-02  4.0000000000000E-02  4.0000000000000E-02  4.0000000000000E-02  4.0000000000000E-02  4.0000000000000E-02  4.0000000000000E-02 
 4.0000000000000E-02  4.0000000000000E-02  4.0000000000000E-02  4.0000000000000E-02  4.0000000000000E-02  4.0000000000000E-02  4.0000000000000E-02  4.0000000000000E-02  4.0000000000000E-02  4.0000000000000E-02 
-7.0000000000000E-02 -7.0000000000000E-02 -7.0000000000000E-02 -7.0000000000000E-02 -7.0000000000000E-02 -7.0000000000000E-02 -7.0000000000000E-02 -7.0000000000000E-02 -7.0000000000000E-02 -7.0000000000000E-02 
 3.8000000000000E+00  3.8000000000000E+00  3.8000000000000E+00  3.8000000000000E+00  3.8000000000000E+00  3.8000000000000E+00  3.8000000000000E+00  3.8000000000000E+00  3.8000000000000E+00  3.8000000000000E+00 
 3.8700000000000E+00  3.8700000000000E+00  3.8700000000000E+00  3.8700000000000E+00  3.8700000000000E+00  3.8700000000000E+00  3.8700000000000E+00  3.8700000000000E+00  3.8700000000000E+00  3.8700000000000E+00 
 3.9714218047884E+00  3.9714218047884E+00  3.9714218047884E+00  3.9714218047884E+00  3.9714218047884E+00  3.9714218047884E+00  3.9714218047884E+00  3.9714218047884E+00  3.9714218047884E+00  3.9714218047884E+00 
-1.0142180478844E-01 -1.0142180478844E-01 -1.0142180478844E-01 -1.0142180478844E-01 -1.0142180478844E-01 -1.0142180478844E-01 -1.0142180478844E-01 -1.0142180478844E-01 -1.0142180478844E-01 -1.0142180478844E-01 
-2.3829988127905E-01 -4.7659976255810E-01 -4.7659976255810E-01 -4.7659976255810E-01 -4.7659976255810E-01 -4.7659976255810E-01 -4.7659976255810E-01 -4.7659976255810E-01 -4.7659976255810E-01 -2.3829988127905E-01 
-0.0000000000000E+00 -0.0000000000000E+00 -0.0000000000000E+00 -0.0000000000000E+00 -0.0000000000000E+00 -0.0000000000000E+00 -0.0000000000000E+00 -0.0000000000000E+00 -0.0000000000000E+00 -0.0000000000000E+00 
 2.3829988127905E-01  0.0000000000000E+00  0.0000000000000E+00  0.0000000000000E+00  0.0000000000000E+00  0.0000000000000E+00  0.0000000000000E+00  0.0000000000000E+00  0.0000000000000E+00  0.0000000000000E+00 
 0.0000000000000E+00 -0.0000000000000E+00 -0.0000000000000E+00 -0.0000000000000E+00 -0.0000000000000E+00 -0.0000000000000E+00 -0.0000000000000E+00 -0.0000000000000E+00 -0.0000000000000E+00  2.3829988127905E-01 
-0.0000000000000E+00 -0.0000000000000E+00 -0.0000000000000E+00 -0.0000000000000E+00 -0.0000000000000E+00 -0.0000000000000E+00 -0.0000000000000E+00 -0.0000000000000E+00 -0.0000000000000E+00 -0.0000000000000E+00 
 7.2440786946225E+03  1.4488157389245E+04  1.4488157389245E+04  1.4488157389245E+04  1.4488157389245E+04  1.4488157389245E+04  1.4488157389245E+04  1.4488157389245E+04  1.4488157389245E+04  7.2440786946225E+03 
 4.9259735123433E+04  9.8519470246865E+04  9.8519470246866E+04  9.8519470246865E+04  9.8519470246866E+04  9.8519470246866E+04  9.8519470246865E+04  9.8519470246866E+04  9.8519470246865E+04  4.9259735123433E+04 
 5.6503813818055E+04  1.1300762763611E+05  1.1300762763611E+05  1.1300762763611E+05  1.1300762763611E+05  1.1300762763611E+05  1.1300762763611E+05  1.1300762763611E+05  1.1300762763611E+05  5.6503813818055E+04 
 3.5000000000000E-01  3.5000000000000E-01  3.5000000000000E-01  3.5000000000000E-01  3.5000000000000E-01  3.5000000000000E-01  3.5000000000000E-01  3.5000000000000E-01  3.5000000000000E-01  3.5000000000000E-01 
 6.6040000000000E+00  1.3208000000000E+01  1.3208000000000E+01  1.3208000000000E+01  1.3208000000000E+01  1.3208000000000E+01  1.3208000000000E+01  1.3208000000000E+01  1.3208000000000E+01  6.6040000000000E+00 
-3.6084173422024E-02 -3.6084173422024E-02 -3.6084173422024E-02 -3.6084173422024E-02 -3.6084173422024E-02 -3.6084173422024E-02 -3.6084173422024E-02 -3.6084173422024E-02 -3.6084173422024E-02 -3.6084173422024E-02 
 3.3866666666667E-05  6.7733333333333E-05  6.7733333333334E-05  6.7733333333333E-05  6.7733333333334E-05  6.7733333333334E-05  6.7733333333333E-05  6.7733333333334E-05  6.7733333333333E-05  3.3866666666667E-05 
 2.6603001364256E+01  2.6603001364256E+01  2.6603001364256E+01  2.6603001364256E+01  2.6603001364256E+01  2.6603001364256E+01  2.6603001364256E+01  2.6603001364256E+01  2.6603001364256E+01  2.6603001364256E+01 
 1.7735334242838E+01  1.7735334242838E+01  1.7735334242838E+01  1.7735334242838E+01  1.7735334242838E+01  1.7735334242838E+01  1.7735334242838E+01  1.7735334242838E+01  1.7735334242838E+01  1.7735334242838E+01 
 0.0000000000000E+00  0.0000000000000E+00  0.0000000000000E+00  0.0000000000000E+00  0.0000000000000E+00  0.0000000000000E+00  0.0000000000000E+00  0.0000000000000E+00  0.0000000000000E+00  0.0000000000000E+00 
 0.0000000000000E+00  0.0000000000000E+00  0.0000000000000E+00  0.0000000000000E+00  0.0000000000000E+00  0.0000000000000E+00  0.0000000000000E+00  0.0000000000000E+00  0.0000000000000E+00  0.0000000000000E+00 
 0.0000000000000E+00  0.0000000000000E+00  0.0000000000000E+00  0.0000000000000E+00  0.0000000000000E+00  0.0000000000000E+00  0.0000000000000E+00  0.0000000000000E+00  0.0000000000000E+00  0.0000000000000E+00 
 0.0000000000000E+00  0.0000000000000E+00  0.0000000000000E+00  0.0000000000000E+00  0.0000000000000E+00  0.0000000000000E+00  0.0000000000000E+00  0.0000000000000E+00  0.0000000000000E+00  0.0000000000000E+00 
 0.0000000000000E+00  0.0000000000000E+00  0.0000000000000E+00  0.0000000000000E+00  0.0000000000000E+00  0.0000000000000E+00  0.0000000000000E+00  0.0000000000000E+00  0.0000000000000E+00  0.0000000000000E+00 
 0.0000000000000E+00  0.0000000000000E+00  0.0000000000000E+00  0.0000000000000E+00  0.0000000000000E+00  0.0000000000000E+00  0.0000000000000E+00  0.0000000000000E+00  0.0000000000000E+00  0.0000000000000E+00 
 0.0000000000000E+00  0.0000000000000E+00  0.0000000000000E+00  0.0000000000000E+00  0.0000000000000E+00  0.0000000000000E+00  0.0000000000000E+00  0.0000000000000E+00  0.0000000000000E+00  0.0000000000000E+00 
ZONE T = "CATH, 1.0000E-08", I = 10, SOLUTIONTIME = 1.000000E-08
ZONETYPE = ORDERED
DATAPACKING = BLOCK
STRANDID = 3
 1.2700000000000E-03  1.3377333333333E-03  1.4054666666667E-03  1.4732000000000E-03  1.5409333333333E-03  1.6086666666667E-03  1.6764000000000E-03  1.7441333333333E-03  1.8118666666667E-03  1.8796000000000E-03 
 1.9704871079454E-08  1.7388967532054E-08  1.5072780666278E-08  1.2756114908554E-08  1.0438774523628E-08  8.1205635488998E-09  5.8009225201963E-09  3.4803812360357E-09  1.1587426524682E-09 -3.2688694847272E-12 
 9.2000000000032E-01  9.2000000000090E-01  9.2000000000090E-01  9.2000000000090E-01  9.2000000000090E-01  9.2000000000090E-01  9.2000000000090E-01  9.2000000000090E-01  9.2000000000090E-01  9.2000000000090E-01 
 3.9999999999841E-02  3.9999999999551E-02  3.9999999999551E-02  3.9999999999551E-02  3.9999999999550E-02  3.9999999999550E-02  3.9999999999550E-02  3.9999999999550E-02  3.9999999999550E-02  3.9999999999549E-02 
 3.9999999999841E-02  3.9999999999551E-02  3.9999999999551E-02  3.9999999999551E-02  3.9999999999550E-02  3.9999999999550E-02  3.9999999999550E-02  3.9999999999550E-02  3.9999999999550E-02  3.9999999999549E-02 
 2.9158119811554E-02  2.9157912801398E-02  2.9157730117226E-02  2.9157571762006E-02  2.9157437740788E-02  2.9157328060651E-02  2.9157242730734E-02  2.9157181762248E-02  2.9157145168460E-02  2.9157132964728E-02 
 3.8001746420680E+00  3.8001724871794E+00  3.8001660223504E+00  3.8001552470535E+00  3.8001401603973E+00  3.8001207611262E+00  3.8000970476197E+00  3.8000690178921E+00  3.8000366695917E+00  3.8000000000000E+00 
 3.7710165222564E+00  3.7710145743781E+00  3.7710082922332E+00  3.7709976752915E+00  3.7709827226565E+00  3.7709634330655E+00  3.7709398048889E+00  3.7709118361298E+00  3.7708795244232E+00  3.7708428670353E+00 
 3.9714218047883E+00  3.9714218047881E+00  3.9714218047881E+00  3.9714218047881E+00  3.9714218047881E+00  3.9714218047881E+00  3.9714218047881E+00  3.9714218047881E+00  3.9714218047881E+00  3.9714218047881E+00 
-2.0040528253184E-01 -2.0040723041002E-01 -2.0041351255490E-01 -2.0042412949662E-01 -2.0043908213158E-01 -2.0045837172256E-01 -2.0048199989913E-01 -2.0050996865824E-01 -2.0054228036486E-01 -2.0057893775280E-01 
-1.6672260832387E+00 -3.3345786729497E+00 -3.3349867043737E+00 -3.3356763983792E+00 -3.3366479876616E+00 -3.3379018001444E+00 -3.3394382592174E+00 -3.3412578840406E+00 -3.3433612899173E+00 -1.6728745943690E+00 
 1.4705141067398E-07  1.2977112563968E-07  1.1248886486054E-07  9.5203017005852E-08  7.7912139883094E-08  6.0614771514159E-08  4.3309439723763E-08  2.5994682756226E-08  8.6690162761903E-09  8.6690162761903E-09 
 3.0043810172011E+01  2.6709302762024E+01  2.3374536687532E+01  2.0039221091743E+01  1.6703074145423E+01  1.3365815638520E+01  1.0027162467755E+01  6.6868315522030E+00  3.3445386371940E+00  0.0000000000000E+00 
 0.0000000000000E+00  3.3344992704294E+00  6.6692657896788E+00  1.0004581130574E+01  1.3340727051480E+01  1.6677985590095E+01  2.0016639159834E+01  2.3356970645169E+01  2.6699263497494E+01  3.0043810329678E+01 
 1.6672260832387E-08  3.3345786729497E-08  3.3349867043737E-08  3.3356763983792E-08  3.3366479876616E-08  3.3379018001444E-08  3.3394382592174E-08  3.3412578840406E-08  3.3433612899173E-08  1.6728745943690E-08 
 7.2440786946392E+03  1.4488157389278E+04  1.4488157389278E+04  1.4488157389278E+04  1.4488157389278E+04  1.4488157389278E+04  1.4488157389278E+04  1.4488157389278E+04  1.4488157389278E+04  7.2440786946392E+03 
 4.9259735123416E+04  9.8519470246832E+04  9.8519470246832E+04  9.8519470246832E+04  9.8519470246832E+04  9.8519470246832E+04  9.8519470246832E+04  9.8519470246832E+04  9.8519470246832E+04  4.9259735123416E+04 
 5.6503813818055E+04  1.1300762763611E+05  1.1300762763611E+05  1.1300762763611E+05  1.1300762763611E+05  1.1300762763611E+05  1.1300762763611E+05  1.1300762763611E+05  1.1300762763611E+05  5.6503813818055E+04 
 3.5000000000000E-01  3.5000000000000E-01  3.5000000000000E-01  3.5000000000000E-01  3.5000000000000E-01  3.5000000000000E-01  3.5000000000000E-01  3.5000000000000E-01  3.5000000000000E-01  3.5000000000000E-01 
 6.6040000000000E+00  1.3208000000000E+01  1.3208000000000E+01  1.3208000000000E+01  1.3208000000000E+01  1.3208000000000E+01  1.3208000000000E+01  1.3208000000000E+01  1.3208000000000E+01  6.6040000000000E+00 
-2.5245700836444E-01 -2.5246658638323E-01 -2.5249747913187E-01 -2.5254969703053E-01 -2.5262325769697E-01 -2.5271818595884E-01 -2.5283451387170E-01 -2.5297228074202E-01 -2.5313153315546E-01 -2.5331232501045E-01 
 3.3866666666667E-05  6.7733333333333E-05  6.7733333333334E-05  6.7733333333333E-05  6.7733333333334E-05  6.7733333333334E-05  6.7733333333333E-05  6.7733333333334E-05  6.7733333333333E-05  3.3866666666667E-05 
 2.6603001364262E+01  2.6603001364262E+01  2.6603001364262E+01  2.6603001364262E+01  2.6603001364262E+01  2.6603001364262E+01  2.6603001364262E+01  2.6603001364262E+01  2.6603001364262E+01  2.6603001364262E+01 
 1.7735334242833E+01  1.7735334242833E+01  1.7735334242833E+01  1.7735334242833E+01  1.7735334242833E+01  1.7735334242833E+01  1.7735334242833E+01  1.7735334242833E+01  1.7735334242833E+01  1.7735334242833E+01 
 2.1713517295088E-04  2.1714639564481E-04  2.1718224533818E-04  2.1724284280674E-04  2.1732820982676E-04  2.1743837708739E-04  2.1757338421366E-04  2.1773327979646E-04  2.1791812142900E-04  2.1810879453902E-04 
 2.1713517295088E+04  2.1714639564481E+04  2.1718224533818E+04  2.1724284280674E+04  2.1732820982676E+04  2.1743837708739E+04  2.1757338421366E+04  2.1773327979646E+04  2.1791812142900E+04  2.1810879453902E+04 
 8.6726000614761E-02  7.7133529005946E-02  5.9145221008618E-02  4.3550057217500E-02  3.0348206788684E-02  1.9540655991198E-02  1.1129190942178E-02  5.1164125884874E-03  1.5057385621255E-03  3.0140561171170E-04 
 5.3041372291214E-02  2.6521893488393E-01  9.0182055201114E-01  1.9630557782025E+00  3.4492776598223E+00  5.3609829871969E+00  7.6988126506888E+00  1.0463552100052E+01  1.3656131908256E+01  1.5359507313176E+01 
 2.1713377527715E+04  2.1714297212017E+04  2.1717263568045E+04  2.1722277674838E+04  2.1729341356809E+04  2.1738457185096E+04  2.1749628479525E+04  2.1762859311134E+04  2.1778154505253E+04  2.1795519645184E+04 
 9.8657750272467E+03  9.8662452229005E+03  9.8677618073090E+03  9.8703253704998E+03  9.8739369100987E+03  9.8785978321019E+03  9.8843099519962E+03  9.8910754961968E+03  9.8988971038079E+03  9.9077778287202E+03 
 1.1847602500468E+04  1.1848051989116E+04  1.1849501760736E+04  1.1851952304339E+04  1.1855404446711E+04  1.1859859352994E+04  1.1865318527529E+04  1.1871783814937E+04  1.1879257401445E+04  1.1887741816463E+04 
ZONE T = "CATH, 2.0000E-08", I = 10, SOLUTIONTIME = 2.000000E-08
ZONETYPE = ORDERED
DATAPACKING = BLOCK
STRANDID = 3
 1.2700000000000E-03  1.3377333333333E-03  1.4054666666667E-03  1.4732000000000E-03  1.5409333333333E-03  1.6086666666667E-03  1.6764000000000E-03  1.7441333333333E-03  1.8118666666667E-03  1.8796000000000E-03 
 1.9703334326350E-08  1.7388145916600E-08  1.5071947750525E-08  1.2755270654423E-08  1.0438282085276E-08  8.1204228568925E-09  5.8014966967955E-09  3.4805805565347E-09  1.1585669990168E-09 -3.2688695502396E-12 
 9.2000000000063E-01  9.2000000000180E-01  9.2000000000180E-01  9.2000000000180E-01  9.2000000000180E-01  9.2000000000180E-01  9.2000000000180E-01  9.2000000000180E-01  9.2000000000180E-01  9.2000000000180E-01 
 3.9999999999683E-02  3.9999999999101E-02  3.9999999999101E-02  3.9999999999101E-02  3.9999999999101E-02  3.9999999999100E-02  3.9999999999100E-02  3.9999999999100E-02  3.9999999999099E-02  3.9999999999098E-02 
 3.9999999999683E-02  3.9999999999101E-02  3.9999999999101E-02  3.9999999999101E-02  3.9999999999101E-02  3.9999999999100E-02  3.9999999999100E-02  3.9999999999100E-02  3.9999999999099E-02  3.9999999999098E-02 
 2.9158121996198E-02  2.9157914985017E-02  2.9157732299938E-02  2.9157573943938E-02  2.9157439922047E-02  2.9157330241354E-02  2.9157244911005E-02  2.9157183942209E-02  2.9157147348241E-02  2.9157135144445E-02 
 3.8001746429253E+00  3.8001724880262E+00  3.8001660231657E+00  3.8001552478163E+00  3.8001401610865E+00  3.8001207617205E+00  3.8000970480979E+00  3.8000690182326E+00  3.8000366697729E+00  3.8000000000000E+00 
 3.7710165209291E+00  3.7710145730412E+00  3.7710082908658E+00  3.7709976738723E+00  3.7709827211644E+00  3.7709634314792E+00  3.7709398031869E+00  3.7709118342904E+00  3.7708795224247E+00  3.7708428648556E+00 
 3.9714218047881E+00  3.9714218047877E+00  3.9714218047877E+00  3.9714218047877E+00  3.9714218047877E+00  3.9714218047877E+00  3.9714218047877E+00  3.9714218047877E+00  3.9714218047877E+00  3.9714218047877E+00 
-2.0040528385902E-01 -2.0040723174647E-01 -2.0041351392193E-01 -2.0042413091538E-01 -2.0043908362328E-01 -2.0045837330853E-01 -2.0048200160083E-01 -2.0050997049728E-01 -2.0054228236305E-01 -2.0057893993215E-01 
-1.6672261263314E+00 -3.3345787597287E+00 -3.3349867931492E+00 -3.3356764905341E+00 -3.3366480845837E+00 -3.3379019032314E+00 -3.3394383698785E+00 -3.3412580036995E+00 -3.3433614200147E+00 -1.6728746653668E+00 
 1.4705227082045E-07  1.2977176978411E-07  1.1248941937984E-07  9.5203494873624E-08  7.7912535434472E-08  6.0615078543858E-08  4.3309659468976E-08  2.5994810818193E-08  8.6690619691127E-09  8.6690619691127E-09 
 3.0043950616799E+01  2.6709435110357E+01  2.3374652333759E+01  2.0039320691987E+01  1.6703158404502E+01  1.3365883410747E+01  1.0027213273978E+01  6.6868650870964E+00  3.3445553753922E+00  0.0000000000000E+00 
 0.0000000000000E+00  3.3345155061582E+00  6.6692982826107E+00  1.0004629924517E+01  1.3340792212058E+01  1.6678067205954E+01  2.0016737342469E+01  2.3357085529267E+01  2.6699395241104E+01  3.0043950616476E+01 
 3.3344522095701E-08  6.6691574326784E-08  6.6699734975229E-08  6.6713528889132E-08  6.6732960722453E-08  6.6758037033758E-08  6.6788766290958E-08  6.6825158877401E-08  6.6867227099320E-08  3.3457492597358E-08 
 7.2440786946558E+03  1.4488157389312E+04  1.4488157389312E+04  1.4488157389312E+04  1.4488157389312E+04  1.4488157389312E+04  1.4488157389312E+04  1.4488157389312E+04  1.4488157389312E+04  7.2440786946559E+03 
 4.9259735123400E+04  9.8519470246798E+04  9.8519470246799E+04  9.8519470246798E+04  9.8519470246799E+04  9.8519470246799E+04  9.8519470246798E+04  9.8519470246799E+04  9.8519470246798E+04  4.9259735123399E+04 
 5.6503813818055E+04  1.1300762763611E+05  1.1300762763611E+05  1.1300762763611E+05  1.1300762763611E+05  1.1300762763611E+05  1.1300762763611E+05  1.1300762763611E+05  1.1300762763611E+05  5.6503813818055E+04 
 3.5000000000000E-01  3.5000000000000E-01  3.5000000000000E-01  3.5000000000000E-01  3.5000000000000E-01  3.5000000000000E-01  3.5000000000000E-01  3.5000000000000E-01  3.5000000000000E-01  3.5000000000000E-01 
 6.6040000000000E+00  1.3208000000000E+01  1.3208000000000E+01  1.3208000000000E+01  1.3208000000000E+01  1.3208000000000E+01  1.3208000000000E+01  1.3208000000000E+01  1.3208000000000E+01  6.6040000000000E+00 
-2.5245701488966E-01 -2.5246659295342E-01 -2.5249748585321E-01 -2.5254970400773E-01 -2.5262326503511E-01 -2.5271819376373E-01 -2.5283452225004E-01 -2.5297228980159E-01 -2.5313154300535E-01 -2.5331233576118E-01 
 3.3866666666667E-05  6.7733333333333E-05  6.7733333333334E-05  6.7733333333333E-05  6.7733333333334E-05  6.7733333333334E-05  6.7733333333333E-05  6.7733333333334E-05  6.7733333333333E-05  3.3866666666667E-05 
 2.6603001364267E+01  2.6603001364267E+01  2.6603001364267E+01  2.6603001364267E+01  2.6603001364267E+01  2.6603001364267E+01  2.6603001364267E+01  2.6603001364267E+01  2.6603001364267E+01  2.6603001364267E+01 
 1.7735334242827E+01  1.7735334242827E+01  1.7735334242827E+01  1.7735334242827E+01  1.7735334242827E+01  1.7735334242827E+01  1.7735334242827E+01  1.7735334242827E+01  1.7735334242827E+01  1.7735334242827E+01 
 4.3427035218118E-04  4.3429279763214E-04  4.3436449722438E-04  4.3448569250941E-04  4.3465642704047E-04  4.3487676219691E-04  4.3514677723027E-04  4.3546656932407E-04  4.3583625366683E-04  4.3621760092313E-04 
 2.1713517923030E+04  2.1714640198734E+04  2.1718225188620E+04  2.1724284970267E+04  2.1732821721371E+04  2.1743838510952E+04  2.1757339301661E+04  2.1773328952761E+04  2.1791813223783E+04  2.1810880638411E+04 
 8.6726858823552E-02  7.7134293348619E-02  5.9145806399521E-02  4.3550489809158E-02  3.0348512804786E-02  1.9540854185144E-02  1.1129303709335E-02  5.1164640760852E-03  1.5057534831275E-03  3.0140877907997E-04 
 5.3041888673234E-02  2.6522151773823E-01  9.0182934026976E-01  1.9630749284148E+00  3.4493113581990E+00  5.3610354620825E+00  7.6988881849206E+00  1.0463655043660E+01  1.3656266691222E+01  1.5359659134106E+01 
 2.1713378154283E+04  2.1714297842923E+04  2.1717264213473E+04  2.1722278344849E+04  2.1729342061500E+04  2.1738457934636E+04  2.1749629284172E+04  2.1762860181253E+04  2.1778155451338E+04  2.1795520677868E+04 
 9.8657753475820E+03  9.8662455454546E+03  9.8677621372915E+03  9.8703257130577E+03  9.8739372703983E+03  9.8785982153470E+03  9.8843103634371E+03  9.8910759411399E+03  9.8988975876270E+03  9.9077783568634E+03 
 1.1847602806701E+04  1.1848052297468E+04  1.1849502076181E+04  1.1851952631791E+04  1.1855404791102E+04  1.1859859719289E+04  1.1865318920735E+04  1.1871784240113E+04  1.1879257863711E+04  1.1887742321005E+04 
ZONE T = "CATH, 3.0000E-08", I = 10, SOLUTIONTIME = 3.000000E-08
ZONETYPE = ORDERED
DATAPACKING = BLOCK
STRANDID = 3
 1.2700000000000E-03  1.3377333333333E-03  1.4054666666667E-03  1.4732000000000E-03  1.5409333333333E-03  1.6086666666667E-03  1.6764000000000E-03  1.7441333333333E-03  1.8118666666667E-03  1.8796000000000E-03 
 1.9706239987834E-08  1.7390325162668E-08  1.5074853412088E-08  1.2758902731481E-08  1.0441550954646E-08  8.1236917263027E-09  5.8047655662456E-09  3.4853022569360E-09  1.1640151149136E-09  2.5424540944488E-12 
 9.2000000000095E-01  9.2000000000270E-01  9.2000000000270E-01  9.2000000000270E-01  9.2000000000270E-01  9.2000000000270E-01  9.2000000000270E-01  9.2000000000270E-01  9.2000000000270E-01  9.2000000000270E-01 
 3.9999999999524E-02  3.9999999998652E-02  3.9999999998652E-02  3.9999999998652E-02  3.9999999998651E-02  3.9999999998651E-02  3.9999999998650E-02  3.9999999998649E-02  3.9999999998649E-02  3.9999999998648E-02 
 3.9999999999524E-02  3.9999999998652E-02  3.9999999998652E-02  3.9999999998652E-02  3.9999999998651E-02  3.9999999998651E-02  3.9999999998650E-02  3.9999999998649E-02  3.9999999998649E-02  3.9999999998648E-02 
 2.9158121995984E-02  2.9157914984804E-02  2.9157732299725E-02  2.9157573943724E-02  2.9157439921834E-02  2.9157330241141E-02  2.9157244910792E-02  2.9157183941996E-02  2.9157147348028E-02  2.9157135144232E-02 
 3.8001746429253E+00  3.8001724880262E+00  3.8001660231657E+00  3.8001552478163E+00  3.8001401610865E+00  3.8001207617205E+00  3.8000970480979E+00  3.8000690182326E+00  3.8000366697729E+00  3.8000000000000E+00 
 3.7710165209293E+00  3.7710145730414E+00  3.7710082908660E+00  3.7709976738725E+00  3.7709827211646E+00  3.7709634314794E+00  3.7709398031871E+00  3.7709118342906E+00  3.7708795224249E+00  3.7708428648558E+00 
 3.9714218047879E+00  3.9714218047873E+00  3.9714218047873E+00  3.9714218047873E+00  3.9714218047873E+00  3.9714218047873E+00  3.9714218047873E+00  3.9714218047873E+00  3.9714218047873E+00  3.9714218047873E+00 
-2.0040528385863E-01 -2.0040723174590E-01 -2.0041351392135E-01 -2.0042413091480E-01 -2.0043908362271E-01 -2.0045837330795E-01 -2.0048200160025E-01 -2.0050997049670E-01 -2.0054228236246E-01 -2.0057893993157E-01 
-1.6672261263148E+00 -3.3345787596714E+00 -3.3349867930919E+00 -3.3356764904768E+00 -3.3366480845264E+00 -3.3379019031739E+00 -3.3394383698209E+00 -3.3412580036418E+00 -3.3433614199570E+00 -1.6728746653379E+00 
 1.4705240338780E-07  1.2977176981380E-07  1.1248941942050E-07  9.5203494931949E-08  7.7912535507116E-08  6.0615078638664E-08  4.3309659581453E-08  2.5994810949481E-08  8.6690621131327E-09  8.6690621131327E-09 
 3.0043950616091E+01  2.6709435109871E+01  2.3374652333497E+01  2.0039320691762E+01  1.6703158404076E+01  1.3365883410359E+01  1.0027213273865E+01  6.6868650870211E+00  3.3445553753546E+00  0.0000000000000E+00 
 0.0000000000000E+00  3.3345155061582E+00  6.6692982826107E+00  1.0004629924345E+01  1.3340792211714E+01  1.6678067205611E+01  2.0016737342126E+01  2.3357085528923E+01  2.6699395240760E+01  3.0043950616103E+01 
 5.0016783358849E-08  1.0003736192350E-07  1.0004960290615E-07  1.0007029379390E-07  1.0009944156772E-07  1.0013705606550E-07  1.0018314998917E-07  1.0023773891382E-07  1.0030084129889E-07  5.0186239250737E-08 
 7.2440786946725E+03  1.4488157389345E+04  1.4488157389345E+04  1.4488157389345E+04  1.4488157389345E+04  1.4488157389345E+04  1.4488157389345E+04  1.4488157389345E+04  1.4488157389345E+04  7.2440786946727E+03 
 4.9259735123383E+04  9.8519470246765E+04  9.8519470246766E+04  9.8519470246765E+04  9.8519470246766E+04  9.8519470246766E+04  9.8519470246765E+04  9.8519470246766E+04  9.8519470246765E+04  4.9259735123383E+04 
 5.6503813818055E+04  1.1300762763611E+05  1.1300762763611E+05  1.1300762763611E+05  1.1300762763611E+05  1.1300762763611E+05  1.1300762763611E+05  1.1300762763611E+05  1.1300762763611E+05  5.6503813818055E+04 
 3.5000000000000E-01  3.5000000000000E-01  3.5000000000000E-01  3.5000000000000E-01  3.5000000000000E-01  3.5000000000000E-01  3.5000000000000E-01  3.5000000000000E-01  3.5000000000000E-01  3.5000000000000E-01 
 6.6040000000000E+00  1.3208000000000E+01  1.3208000000000E+01  1.3208000000000E+01  1.3208000000000E+01  1.3208000000000E+01  1.3208000000000E+01  1.3208000000000E+01  1.3208000000000E+01  6.6040000000000E+00 
-2.5245701488716E-01 -2.5246659294908E-01 -2.5249748584887E-01 -2.5254970400339E-01 -2.5262326503077E-01 -2.5271819375938E-01 -2.5283452224568E-01 -2.5297228979723E-01 -2.5313154300098E-01 -2.5331233575680E-01 
 3.3866666666667E-05  6.7733333333333E-05  6.7733333333334E-05  6.7733333333333E-05  6.7733333333334E-05  6.7733333333334E-05  6.7733333333333E-05  6.7733333333334E-05  6.7733333333333E-05  3.3866666666667E-05 
 2.6603001364272E+01  2.6603001364272E+01  2.6603001364272E+01  2.6603001364272E+01  2.6603001364272E+01  2.6603001364272E+01  2.6603001364272E+01  2.6603001364272E+01  2.6603001364272E+01  2.6603001364272E+01 
 1.7735334242822E+01  1.7735334242822E+01  1.7735334242822E+01  1.7735334242822E+01  1.7735334242822E+01  1.7735334242822E+01  1.7735334242822E+01  1.7735334242822E+01  1.7735334242822E+01  1.7735334242822E+01 
 6.5140553140922E-04  6.5143919961565E-04  6.5154674910674E-04  6.5172854220825E-04  6.5198464425034E-04  6.5231514730258E-04  6.5272017024303E-04  6.5319985884782E-04  6.5375438590078E-04  6.5432640730337E-04 
 2.1713517922804E+04  2.1714640198350E+04  2.1718225188236E+04  2.1724284969884E+04  2.1732821720987E+04  2.1743838510567E+04  2.1757339301275E+04  2.1773328952375E+04  2.1791813223396E+04  2.1810880638023E+04 
 8.6726858819986E-02  7.7134293346456E-02  5.9145806398857E-02  4.3550489808669E-02  3.0348512803675E-02  1.9540854184154E-02  1.1129303709209E-02  5.1164640760276E-03  1.5057534831105E-03  3.0140877907658E-04 
 5.3041888673234E-02  2.6522151773823E-01  9.0182934026976E-01  1.9630749283382E+00  3.4493113580241E+00  5.3610354618638E+00  7.6988881846581E+00  1.0463655043353E+01  1.3656266690872E+01  1.5359659133734E+01 
 2.1713378154057E+04  2.1714297842539E+04  2.1717264213089E+04  2.1722278344465E+04  2.1729342061116E+04  2.1738457934251E+04  2.1749629283787E+04  2.1762860180867E+04  2.1778155450951E+04  2.1795520677481E+04 
 9.8657753474649E+03  9.8662455452567E+03  9.8677621370936E+03  9.8703257128597E+03  9.8739372702002E+03  9.8785982151484E+03  9.8843103632381E+03  9.8910759409407E+03  9.8988975874274E+03  9.9077783566633E+03 
 1.1847602806592E+04  1.1848052297283E+04  1.1849502075996E+04  1.1851952631606E+04  1.1855404790916E+04  1.1859859719103E+04  1.1865318920549E+04  1.1871784239927E+04  1.1879257863524E+04  1.1887742320817E+04 
ZONE T = "CATH, 4.0000E-08", I = 10, SOLUTIONTIME = 4.000000E-08
ZONETYPE = ORDERED
DATAPACKING = BLOCK
STRANDID = 3
 1.2700000000000E-03  1.3377333333333E-03  1.4054666666667E-03  1.4732000000000E-03  1.5409333333333E-03  1.6086666666667E-03  1.6764000000000E-03  1.7441333333333E-03  1.8118666666667E-03  1.8796000000000E-03 
 1.9703515929537E-08  1.7388327519866E-08  1.5072129353870E-08  1.2755452257848E-08  1.0438826896508E-08  8.1209676682045E-09  5.8020415081873E-09  3.4814885757342E-09  1.1602014337519E-09 -1.2712270472258E-12 
 9.2000000000127E-01  9.2000000000359E-01  9.2000000000359E-01  9.2000000000360E-01  9.2000000000360E-01  9.2000000000360E-01  9.2000000000360E-01  9.2000000000360E-01  9.2000000000360E-01  9.2000000000361E-01 
 3.9999999999365E-02  3.9999999998203E-02  3.9999999998203E-02  3.9999999998202E-02  3.9999999998202E-02  3.9999999998201E-02  3.9999999998200E-02  3.9999999998199E-02  3.9999999998198E-02  3.9999999998197E-02 
 3.9999999999365E-02  3.9999999998203E-02  3.9999999998203E-02  3.9999999998202E-02  3.9999999998202E-02  3.9999999998201E-02  3.9999999998200E-02  3.9999999998199E-02  3.9999999998198E-02  3.9999999998197E-02 
 2.9158121995772E-02  2.9157914984591E-02  2.9157732299512E-02  2.9157573943512E-02  2.9157439921621E-02  2.9157330240928E-02  2.9157244910579E-02  2.9157183941783E-02  2.9157147347815E-02  2.9157135144019E-02 
 3.8001746429252E+00  3.8001724880262E+00  3.8001660231657E+00  3.8001552478163E+00  3.8001401610865E+00  3.8001207617205E+00  3.8000970480979E+00  3.8000690182326E+00  3.8000366697729E+00  3.8000000000000E+00 
 3.7710165209295E+00  3.7710145730417E+00  3.7710082908662E+00  3.7709976738727E+00  3.7709827211648E+00  3.7709634314796E+00  3.7709398031873E+00  3.7709118342908E+00  3.7708795224251E+00  3.7708428648560E+00 
 3.9714218047877E+00  3.9714218047870E+00  3.9714218047870E+00  3.9714218047870E+00  3.9714218047870E+00  3.9714218047870E+00  3.9714218047870E+00  3.9714218047870E+00  3.9714218047870E+00  3.9714218047870E+00 
-2.0040528385824E-01 -2.0040723174532E-01 -2.0041351392077E-01 -2.0042413091422E-01 -2.0043908362213E-01 -2.0045837330737E-01 -2.0048200159967E-01 -2.0050997049612E-01 -2.0054228236188E-01 -2.0057893993098E-01 
-1.6672261262983E+00 -3.3345787596142E+00 -3.3349867930346E+00 -3.3356764904195E+00 -3.3366480844691E+00 -3.3379019031165E+00 -3.3394383697635E+00 -3.3412580035843E+00 -3.3433614198994E+00 -1.6728746653090E+00 