TITLE = "Solution on Domain BulkDomain1D_1"
VARIABLES = "x [m]"  
"Vel_axial" 	"MF_sp(ECDMC)" 	"MF_sp(Li+)" 	"MF_sp(PF6-)" 	"Volt(Electroly)" 	"Porosity []" 	"Control volume thickness [m]" 	"volFrac MgO(S) []" 	"qHeat_accum [J/m3]" 	"qHeat_step [W/m3]" 	"Joule_Lyte [W/m3]" 	"Joule_Solid [W/m3]" 	
ZONE T = "SEP , 0.0000E+00", I = 10, SOLUTIONTIME = 0.000000E+00
ZONETYPE = ORDERED
DATAPACKING = BLOCK
STRANDID = 2
 7.8740000000000E-04  8.4102222222222E-04  8.9464444444444E-04  9.4826666666667E-04  1.0018888888889E-03  1.0555111111111E-03  1.1091333333333E-03  1.1627555555556E-03  1.2163777777778E-03  1.2700000000000E-03 
 0.0000000000000E+00  0.0000000000000E+00  0.0000000000000E+00  0.0000000000000E+00  0.0000000000000E+00  0.0000000000000E+00  0.0000000000000E+00  0.0000000000000E+00  0.0000000000000E+00  0.0000000000000E+00 
 9.2000000000000E-01  9.2000000000000E-01  9.2000000000000E-01  9.2000000000000E-01  9.2000000000000E-01  9.2000000000000E-01  9.2000000000000E-01  9.2000000000000E-01  9.2000000000000E-01  9.2000000000000E-01 
 4.0000000000000E-02  4.0000000000000E-02  4.0000000000000E-02  4.0000000000000E-02  4.0000000000000E-02  4.0000000000000E-02  4.0000000000000E-02  4.0000000000000E-02  4.0000000000000E-02  4.0000000000000E-02 
 4.0000000000000E-02  4.0000000000000E-02  4.0000000000000E-02  4.0000000000000E-02  4.0000000000000E-02  4.0000000000000E-02  4.0000000000000E-02  4.0000000000000E-02  4.0000000000000E-02  4.0000000000000E-02 
-7.0000000000000E-02 -7.0000000000000E-02 -7.0000000000000E-02 -7.0000000000000E-02 -7.0000000000000E-02 -7.0000000000000E-02 -7.0000000000000E-02 -7.0000000000000E-02 -7.0000000000000E-02 -7.0000000000000E-02 
 8.0911139820575E-01  8.0911139820575E-01  8.0911139820575E-01  8.0911139820575E-01  8.0911139820575E-01  8.0911139820575E-01  8.0911139820575E-01  8.0911139820575E-01  8.0911139820575E-01  8.0911139820575E-01 
 2.6811111111111E-05  5.3622222222222E-05  5.3622222222222E-05  5.3622222222222E-05  5.3622222222222E-05  5.3622222222222E-05  5.3622222222222E-05  5.3622222222223E-05  5.3622222222222E-05  2.6811111111111E-05 
 1.9088860179425E-01  1.9088860179425E-01  1.9088860179425E-01  1.9088860179425E-01  1.9088860179425E-01  1.9088860179425E-01  1.9088860179425E-01  1.9088860179425E-01  1.9088860179425E-01  1.9088860179425E-01 
 0.0000000000000E+00  0.0000000000000E+00  0.0000000000000E+00  0.0000000000000E+00  0.0000000000000E+00  0.0000000000000E+00  0.0000000000000E+00  0.0000000000000E+00  0.0000000000000E+00  0.0000000000000E+00 
 0.0000000000000E+00  0.0000000000000E+00  0.0000000000000E+00  0.0000000000000E+00  0.0000000000000E+00  0.0000000000000E+00  0.0000000000000E+00  0.0000000000000E+00  0.0000000000000E+00  0.0000000000000E+00 
 0.0000000000000E+00  0.0000000000000E+00  0.0000000000000E+00  0.0000000000000E+00  0.0000000000000E+00  0.0000000000000E+00  0.0000000000000E+00  0.0000000000000E+00  0.0000000000000E+00  0.0000000000000E+00 
 0.0000000000000E+00  0.0000000000000E+00  0.0000000000000E+00  0.0000000000000E+00  0.0000000000000E+00  0.0000000000000E+00  0.0000000000000E+00  0.0000000000000E+00  0.0000000000000E+00  0.0000000000000E+00 
ZONE T = "SEP , 1.0000E-08", I = 10, SOLUTIONTIME = 1.000000E-08
ZONETYPE = ORDERED
DATAPACKING = BLOCK
STRANDID = 2
 7.8740000000000E-04  8.4102222222222E-04  8.9464444444444E-04  9.4826666666667E-04  1.0018888888889E-03  1.0555111111111E-03  1.1091333333333E-03  1.1627555555556E-03  1.2163777777778E-03  1.2700000000000E-03 
 2.0863142140725E-08  2.0863142140725E-08  2.0863142140725E-08  2.0863142140725E-08  2.0863142140725E-08  2.0863142140725E-08  2.0863142140725E-08  2.0863142140725E-08  2.0863142140725E-08  1.9704871079454E-08 
 9.1999999999971E-01  9.2000000000000E-01  9.2000000000000E-01  9.2000000000000E-01  9.2000000000000E-01  9.2000000000000E-01  9.2000000000000E-01  9.2000000000000E-01  9.2000000000000E-01  9.2000000000032E-01 
 4.0000000000144E-02  4.0000000000000E-02  4.0000000000000E-02  4.0000000000000E-02  4.0000000000000E-02  4.0000000000000E-02  4.0000000000000E-02  4.0000000000000E-02  4.0000000000000E-02  3.9999999999841E-02 
 4.0000000000144E-02  4.0000000000000E-02  4.0000000000000E-02  4.0000000000000E-02  4.0000000000000E-02  4.0000000000000E-02  4.0000000000000E-02  4.0000000000000E-02  4.0000000000000E-02  3.9999999999841E-02 
 2.9158564095760E-02  2.9158514730845E-02  2.9158465365934E-02  2.9158416001024E-02  2.9158366636114E-02  2.9158317271199E-02  2.9158267906289E-02  2.9158218541379E-02  2.9158169176464E-02  2.9158119811554E-02 
 8.0911139820575E-01  8.0911139820575E-01  8.0911139820575E-01  8.0911139820575E-01  8.0911139820575E-01  8.0911139820575E-01  8.0911139820575E-01  8.0911139820575E-01  8.0911139820575E-01  8.0911139820575E-01 
 2.6811111111111E-05  5.3622222222222E-05  5.3622222222222E-05  5.3622222222222E-05  5.3622222222222E-05  5.3622222222222E-05  5.3622222222222E-05  5.3622222222223E-05  5.3622222222222E-05  2.6811111111111E-05 
 1.9088860179425E-01  1.9088860179425E-01  1.9088860179425E-01  1.9088860179425E-01  1.9088860179425E-01  1.9088860179425E-01  1.9088860179425E-01  1.9088860179425E-01  1.9088860179425E-01  1.9088860179425E-01 
 2.7658492310843E-10  2.7658489455253E-10  2.7658486267258E-10  2.7658485995115E-10  2.7658488866231E-10  2.7658489151982E-10  2.7658486341126E-10  2.7658488897333E-10  2.7658488897306E-10  2.7658486055320E-10 
 2.7658492310843E-02  2.7658489455253E-02  2.7658486267258E-02  2.7658485995115E-02  2.7658488866231E-02  2.7658489151982E-02  2.7658486341126E-02  2.7658488897333E-02  2.7658488897306E-02  2.7658486055320E-02 
 2.7658492310843E-02  2.7658489455253E-02  2.7658486267258E-02  2.7658485995115E-02  2.7658488866231E-02  2.7658489151982E-02  2.7658486341126E-02  2.7658488897333E-02  2.7658488897306E-02  2.7658486055320E-02 
 0.0000000000000E+00  0.0000000000000E+00  0.0000000000000E+00  0.0000000000000E+00  0.0000000000000E+00  0.0000000000000E+00  0.0000000000000E+00  0.0000000000000E+00  0.0000000000000E+00  0.0000000000000E+00 
ZONE T = "SEP , 2.0000E-08", I = 10, SOLUTIONTIME = 2.000000E-08
ZONETYPE = ORDERED
DATAPACKING = BLOCK
STRANDID = 2
 7.8740000000000E-04  8.4102222222222E-04  8.9464444444444E-04  9.4826666666667E-04  1.0018888888889E-03  1.0555111111111E-03  1.1091333333333E-03  1.1627555555556E-03  1.2163777777778E-03  1.2700000000000E-03 
 2.0861066211454E-08  2.0861066211454E-08  2.0861066211454E-08  2.0861066211454E-08  2.0861066211454E-08  2.0861066211454E-08  2.0861066211454E-08  2.0861066211454E-08  2.0861066211454E-08  1.9703334326350E-08 
 9.1999999999942E-01  9.2000000000000E-01  9.2000000000000E-01  9.2000000000000E-01  9.2000000000000E-01  9.2000000000000E-01  9.2000000000000E-01  9.2000000000000E-01  9.2000000000000E-01  9.2000000000063E-01 
 4.0000000000288E-02  4.0000000000000E-02  4.0000000000000E-02  4.0000000000000E-02  4.0000000000000E-02  4.0000000000000E-02  4.0000000000000E-02  4.0000000000000E-02  4.0000000000000E-02  3.9999999999683E-02 
 4.0000000000288E-02  4.0000000000000E-02  4.0000000000000E-02  4.0000000000000E-02  4.0000000000000E-02  4.0000000000000E-02  4.0000000000000E-02  4.0000000000000E-02  4.0000000000000E-02  3.9999999999683E-02 
 2.9158566282613E-02  2.9158516917456E-02  2.9158467552299E-02  2.9158418187141E-02  2.9158368821984E-02  2.9158319456827E-02  2.9158270091670E-02  2.9158220726512E-02  2.9158171361355E-02  2.9158121996198E-02 
 8.0911139820575E-01  8.0911139820575E-01  8.0911139820575E-01  8.0911139820575E-01  8.0911139820575E-01  8.0911139820575E-01  8.0911139820575E-01  8.0911139820575E-01  8.0911139820575E-01  8.0911139820575E-01 
 2.6811111111111E-05  5.3622222222222E-05  5.3622222222222E-05  5.3622222222222E-05  5.3622222222222E-05  5.3622222222222E-05  5.3622222222222E-05  5.3622222222223E-05  5.3622222222222E-05  2.6811111111111E-05 
 1.9088860179425E-01  1.9088860179425E-01  1.9088860179425E-01  1.9088860179425E-01  1.9088860179425E-01  1.9088860179425E-01  1.9088860179425E-01  1.9088860179425E-01  1.9088860179425E-01  1.9088860179425E-01 
 5.5317255510417E-10  5.5317252654777E-10  5.5317249466733E-10  5.5317249196533E-10  5.5317252067649E-10  5.5317252351457E-10  5.5317249542544E-10  5.5317252098751E-10  5.5317252096726E-10  5.5317249254685E-10 
 2.7658763199574E-02  2.7658763199524E-02  2.7658763199474E-02  2.7658763201418E-02  2.7658763201418E-02  2.7658763199475E-02  2.7658763201418E-02  2.7658763201418E-02  2.7658763199420E-02  2.7658763199365E-02 
 2.7658763199574E-02  2.7658763199524E-02  2.7658763199474E-02  2.7658763201418E-02  2.7658763201418E-02  2.7658763199475E-02  2.7658763201418E-02  2.7658763201418E-02  2.7658763199420E-02  2.7658763199365E-02 
 0.0000000000000E+00  0.0000000000000E+00  0.0000000000000E+00  0.0000000000000E+00  0.0000000000000E+00  0.0000000000000E+00  0.0000000000000E+00  0.0000000000000E+00  0.0000000000000E+00  0.0000000000000E+00 
ZONE T = "SEP , 3.0000E-08", I = 10, SOLUTIONTIME = 3.000000E-08
ZONETYPE = ORDERED
DATAPACKING = BLOCK
STRANDID = 2
 7.8740000000000E-04  8.4102222222222E-04  8.9464444444444E-04  9.4826666666667E-04  1.0018888888889E-03  1.0555111111111E-03  1.1091333333333E-03  1.1627555555556E-03  1.2163777777778E-03  1.2700000000000E-03 
 2.0864698288381E-08  2.0864698288381E-08  2.0864698288381E-08  2.0864698288381E-08  2.0864698288381E-08  2.0864698288381E-08  2.0864698288381E-08  2.0864698288381E-08  2.0864698288381E-08  1.9706239987834E-08 
 9.1999999999914E-01  9.2000000000000E-01  9.2000000000000E-01  9.2000000000000E-01  9.2000000000000E-01  9.2000000000000E-01  9.2000000000000E-01  9.2000000000000E-01  9.2000000000000E-01  9.2000000000095E-01 
 4.0000000000432E-02  4.0000000000000E-02  4.0000000000000E-02  4.0000000000000E-02  4.0000000000000E-02  4.0000000000000E-02  4.0000000000000E-02  4.0000000000000E-02  4.0000000000000E-02  3.9999999999524E-02 
 4.0000000000432E-02  4.0000000000000E-02  4.0000000000000E-02  4.0000000000000E-02  4.0000000000000E-02  4.0000000000000E-02  4.0000000000000E-02  4.0000000000000E-02  4.0000000000000E-02  3.9999999999524E-02 
 2.9158566282400E-02  2.9158516917242E-02  2.9158467552085E-02  2.9158418186928E-02  2.9158368821771E-02  2.9158319456613E-02  2.9158270091456E-02  2.9158220726299E-02  2.9158171361142E-02  2.9158121995984E-02 
 8.0911139820575E-01  8.0911139820575E-01  8.0911139820575E-01  8.0911139820575E-01  8.0911139820575E-01  8.0911139820575E-01  8.0911139820575E-01  8.0911139820575E-01  8.0911139820575E-01  8.0911139820575E-01 
 2.6811111111111E-05  5.3622222222222E-05  5.3622222222222E-05  5.3622222222222E-05  5.3622222222222E-05  5.3622222222222E-05  5.3622222222222E-05  5.3622222222223E-05  5.3622222222222E-05  2.6811111111111E-05 
 1.9088860179425E-01  1.9088860179425E-01  1.9088860179425E-01  1.9088860179425E-01  1.9088860179425E-01  1.9088860179425E-01  1.9088860179425E-01  1.9088860179425E-01  1.9088860179425E-01  1.9088860179425E-01 
 8.2976018710041E-10  8.2976015854326E-10  8.2976012666207E-10  8.2976012396007E-10  8.2976015267124E-10  8.2976015550931E-10  8.2976012742019E-10  8.2976015298225E-10  8.2976015296118E-10  8.2976012453995E-10 
 2.7658763199624E-02  2.7658763199549E-02  2.7658763199474E-02  2.7658763199474E-02  2.7658763199474E-02  2.7658763199475E-02  2.7658763199475E-02  2.7658763199474E-02  2.7658763199392E-02  2.7658763199310E-02 
 2.7658763199624E-02  2.7658763199549E-02  2.7658763199474E-02  2.7658763199474E-02  2.7658763199474E-02  2.7658763199475E-02  2.7658763199475E-02  2.7658763199474E-02  2.7658763199392E-02  2.7658763199310E-02 
 0.0000000000000E+00  0.0000000000000E+00  0.0000000000000E+00  0.0000000000000E+00  0.0000000000000E+00  0.0000000000000E+00  0.0000000000000E+00  0.0000000000000E+00  0.0000000000000E+00  0.0000000000000E+00 
ZONE T = "SEP , 4.0000E-08", I = 10, SOLUTIONTIME = 4.000000E-08
ZONETYPE = ORDERED
DATAPACKING = BLOCK
STRANDID = 2
 7.8740000000000E-04  8.4102222222222E-04  8.9464444444444E-04  9.4826666666667E-04  1.0018888888889E-03  1.0555111111111E-03  1.1091333333333E-03  1.1627555555556E-03  1.2163777777778E-03  1.2700000000000E-03 
 2.0859976587570E-08  2.0859976587570E-08  2.0859976587570E-08  2.0859976587570E-08  2.0859976587570E-08  2.0859976587570E-08  2.0859976587570E-08  2.0859976587570E-08  2.0859976587570E-08  1.9703515929537E-08 
 9.1999999999885E-01  9.2000000000000E-01  9.2000000000000E-01  9.2000000000000E-01  9.2000000000000E-01  9.2000000000000E-01  9.2000000000000E-01  9.2000000000000E-01  9.2000000000000E-01  9.2000000000127E-01 
 4.0000000000576E-02  4.0000000000000E-02  4.0000000000000E-02  4.0000000000000E-02  4.0000000000000E-02  4.0000000000000E-02  4.0000000000000E-02  4.0000000000000E-02  4.0000000000000E-02  3.9999999999365E-02 
 4.0000000000576E-02  4.0000000000000E-02  4.0000000000000E-02  4.0000000000000E-02  4.0000000000000E-02  4.0000000000000E-02  4.0000000000000E-02  4.0000000000000E-02  4.0000000000000E-02  3.9999999999365E-02 
 2.9158566282187E-02  2.9158516917030E-02  2.9158467551873E-02  2.9158418186715E-02  2.9158368821558E-02  2.9158319456401E-02  2.9158270091243E-02  2.9158220726086E-02  2.9158171360929E-02  2.9158121995772E-02 
 8.0911139820575E-01  8.0911139820575E-01  8.0911139820575E-01  8.0911139820575E-01  8.0911139820575E-01  8.0911139820575E-01  8.0911139820575E-01  8.0911139820575E-01  8.0911139820575E-01  8.0911139820575E-01 
 2.6811111111111E-05  5.3622222222222E-05  5.3622222222222E-05  5.3622222222222E-05  5.3622222222222E-05  5.3622222222222E-05  5.3622222222222E-05  5.3622222222223E-05  5.3622222222222E-05  2.6811111111111E-05 
 1.9088860179425E-01  1.9088860179425E-01  1.9088860179425E-01  1.9088860179425E-01  1.9088860179425E-01  1.9088860179425E-01  1.9088860179425E-01  1.9088860179425E-01  1.9088860179425E-01  1.9088860179425E-01 
 1.1063478190972E-09  1.1063477905390E-09  1.1063477586568E-09  1.1063477559354E-09  1.1063477846465E-09  1.1063477875041E-09  1.1063477594149E-09  1.1063477849770E-09  1.1063477849548E-09  1.1063477565325E-09 
 2.7658763199674E-02  2.7658763199574E-02  2.7658763199474E-02  2.7658763197531E-02  2.7658763197531E-02  2.7658763199475E-02  2.7658763199475E-02  2.7658763199474E-02  2.7658763199365E-02  2.7658763199255E-02 
 2.7658763199674E-02  2.7658763199574E-02  2.7658763199474E-02  2.7658763197531E-02  2.7658763197531E-02  2.7658763199475E-02  2.7658763199475E-02  2.7658763199474E-02  2.7658763199365E-02  2.7658763199255E-02 
 0.0000000000000E+00  0.0000000000000E+00  0.0000000000000E+00  0.0000000000000E+00  0.0000000000000E+00  0.0000000000000E+00  0.0000000000000E+00  0.0000000000000E+00  0.0000000000000E+00  0.0000000000000E+00 
ZONE T = "SEP , 5.5000E-08", I = 10, SOLUTIONTIME = 5.500000E-08
ZONETYPE = ORDERED
DATAPACKING = BLOCK
STRANDID = 2
 7.8740000000000E-04  8.4102222222222E-04  8.9464444444444E-04  9.4826666666667E-04  1.0018888888889E-03  1.0555111111111E-03  1.1091333333333E-03  1.1627555555556E-03  1.2163777777778E-03  1.2700000000000E-03 
 2.0865727376224E-08  2.0865727376224E-08  2.0865727376224E-08  2.0865727376224E-08  2.0865727376224E-08  2.0865727376224E-08  2.0865727376224E-08  2.0865727376224E-08  2.0865727376224E-08  1.9707995491156E-08 
 9.1999999999842E-01  9.2000000000000E-01  9.2000000000000E-01  9.2000000000000E-01  9.2000000000000E-01  9.2000000000000E-01  9.2000000000000E-01  9.2000000000000E-01  9.2000000000000E-01  9.2000000000175E-01 
 4.0000000000792E-02  4.0000000000000E-02  4.0000000000000E-02  4.0000000000000E-02  4.0000000000000E-02  4.0000000000000E-02  4.0000000000000E-02  4.0000000000000E-02  4.0000000000000E-02  3.9999999999127E-02 
 4.0000000000792E-02  4.0000000000000E-02  4.0000000000000E-02  4.0000000000000E-02  4.0000000000000E-02  4.0000000000000E-02  4.0000000000000E-02  4.0000000000000E-02  4.0000000000000E-02  3.9999999999127E-02 
 2.9158566281943E-02  2.9158516916786E-02  2.9158467551628E-02  2.9158418186471E-02  2.9158368821314E-02  2.9158319456157E-02  2.9158270090999E-02  2.9158220725842E-02  2.9158171360685E-02  2.9158121995528E-02 
 8.0911139820575E-01  8.0911139820575E-01  8.0911139820575E-01  8.0911139820575E-01  8.0911139820575E-01  8.0911139820575E-01  8.0911139820575E-01  8.0911139820575E-01  8.0911139820575E-01  8.0911139820575E-01 
 2.6811111111111E-05  5.3622222222222E-05  5.3622222222222E-05  5.3622222222222E-05  5.3622222222222E-05  5.3622222222222E-05  5.3622222222222E-05  5.3622222222223E-05  5.3622222222222E-05  2.6811111111111E-05 
 1.9088860179425E-01  1.9088860179425E-01  1.9088860179425E-01  1.9088860179425E-01  1.9088860179425E-01  1.9088860179425E-01  1.9088860179425E-01  1.9088860179425E-01  1.9088860179425E-01  1.9088860179425E-01 
 1.5212292670351E-09  1.5212292385040E-09  1.5212292066198E-09  1.5212292038983E-09  1.5212292326095E-09  1.5212292354670E-09  1.5212292074071E-09  1.5212292329400E-09  1.5212292329155E-09  1.5212292045201E-09 
 2.7658763195861E-02  2.7658763197668E-02  2.7658763197531E-02  2.7658763197531E-02  2.7658763197531E-02  2.7658763197531E-02  2.7658763199475E-02  2.7658763197530E-02  2.7658763197380E-02  2.7658763199173E-02 
 2.7658763195861E-02  2.7658763197668E-02  2.7658763197531E-02  2.7658763197531E-02  2.7658763197531E-02  2.7658763197531E-02  2.7658763199475E-02  2.7658763197530E-02  2.7658763197380E-02  2.7658763199173E-02 
 0.0000000000000E+00  0.0000000000000E+00  0.0000000000000E+00  0.0000000000000E+00  0.0000000000000E+00  0.0000000000000E+00  0.0000000000000E+00  0.0000000000000E+00  0.0000000000000E+00  0.0000000000000E+00 
ZONE T = "SEP , 7.7500E-08", I = 10, SOLUTIONTIME = 7.750000E-08
ZONETYPE = ORDERED
DATAPACKING = BLOCK
STRANDID = 2
 7.8740000000000E-04  8.4102222222222E-04  8.9464444444444E-04  9.4826666666667E-04  1.0018888888889E-03  1.0555111111111E-03  1.1091333333333E-03  1.1627555555556E-03  1.2163777777778E-03  1.2700000000000E-03 
 2.0861732090628E-08  2.0861732090628E-08  2.0861732090628E-08  2.0861732090628E-08  2.0861732090628E-08  2.0861732090628E-08  2.0861732090628E-08  2.0861732090628E-08  2.0861732090628E-08  1.9704161631237E-08 
 9.1999999999777E-01  9.2000000000000E-01  9.2000000000000E-01  9.2000000000000E-01  9.2000000000000E-01  9.2000000000000E-01  9.2000000000000E-01  9.2000000000000E-01  9.2000000000000E-01  9.2000000000246E-01 
 4.0000000001117E-02  4.0000000000000E-02  4.0000000000000E-02  4.0000000000000E-02  4.0000000000000E-02  4.0000000000000E-02  4.0000000000000E-02  4.0000000000000E-02  4.0000000000000E-02  3.9999999998770E-02 
 4.0000000001117E-02  4.0000000000000E-02  4.0000000000000E-02  4.0000000000000E-02  4.0000000000000E-02  4.0000000000000E-02  4.0000000000000E-02  4.0000000000000E-02  4.0000000000000E-02  3.9999999998770E-02 
 2.9158566281520E-02  2.9158516916363E-02  2.9158467551205E-02  2.9158418186048E-02  2.9158368820891E-02  2.9158319455734E-02  2.9158270090576E-02  2.9158220725419E-02  2.9158171360262E-02  2.9158121995105E-02 
 8.0911139820575E-01  8.0911139820575E-01  8.0911139820575E-01  8.0911139820575E-01  8.0911139820575E-01  8.0911139820575E-01  8.0911139820575E-01  8.0911139820575E-01  8.0911139820575E-01  8.0911139820575E-01 
 2.6811111111111E-05  5.3622222222222E-05  5.3622222222222E-05  5.3622222222222E-05  5.3622222222222E-05  5.3622222222222E-05  5.3622222222222E-05  5.3622222222223E-05  5.3622222222222E-05  2.6811111111111E-05 
 1.9088860179425E-01  1.9088860179425E-01  1.9088860179425E-01  1.9088860179425E-01  1.9088860179425E-01  1.9088860179425E-01  1.9088860179425E-01  1.9088860179425E-01  1.9088860179425E-01  1.9088860179425E-01 
 2.1435514389445E-09  2.1435514104528E-09  2.1435513785642E-09  2.1435513757990E-09  2.1435514045102E-09  2.1435514073677E-09  2.1435513793078E-09  2.1435514048844E-09  2.1435514048552E-09  2.1435513764112E-09 
 2.7658763195973E-02  2.7658763197724E-02  2.7658763197531E-02  2.7658763195587E-02  2.7658763195587E-02  2.7658763195587E-02  2.7658763195587E-02  2.7658763197530E-02  2.7658763197318E-02  2.7658763195161E-02 
 2.7658763195973E-02  2.7658763197724E-02  2.7658763197531E-02  2.7658763195587E-02  2.7658763195587E-02  2.7658763195587E-02  2.7658763195587E-02  2.7658763197530E-02  2.7658763197318E-02  2.7658763195161E-02 
 0.0000000000000E+00  0.0000000000000E+00  0.0000000000000E+00  0.0000000000000E+00  0.0000000000000E+00  0.0000000000000E+00  0.0000000000000E+00  0.0000000000000E+00  0.0000000000000E+00  0.0000000000000E+00 
ZONE T = "SEP , 1.1125E-07", I = 10, SOLUTIONTIME = 1.112500E-07
ZONETYPE = ORDERED
DATAPACKING = BLOCK
STRANDID = 2
 7.8740000000000E-04  8.4102222222222E-04  8.9464444444444E-04  9.4826666666667E-04  1.0018888888889E-03  1.0555111111111E-03  1.1091333333333E-03  1.1627555555556E-03  1.2163777777778E-03  1.2700000000000E-03 
 2.0863077303550E-08  2.0863077303550E-08  2.0863077303550E-08  2.0863077303550E-08  2.0863077303550E-08  2.0863077303550E-08  2.0863077303550E-08  2.0863077303550E-08  2.0863077303550E-08  1.9705345418534E-08 
 9.1999999999679E-01  9.2000000000000E-01  9.2000000000000E-01  9.2000000000000E-01  9.2000000000000E-01  9.2000000000000E-01  9.2000000000000E-01  9.2000000000000E-01  9.2000000000000E-01  9.2000000000353E-01 
 4.0000000001603E-02  4.0000000000000E-02  4.0000000000000E-02  4.0000000000000E-02  4.0000000000000E-02  4.0000000000000E-02  4.0000000000000E-02  4.0000000000000E-02  4.0000000000000E-02  3.9999999998234E-02 
 4.0000000001603E-02  4.0000000000000E-02  4.0000000000000E-02  4.0000000000000E-02  4.0000000000000E-02  4.0000000000000E-02  4.0000000000000E-02  4.0000000000000E-02  4.0000000000000E-02  3.9999999998234E-02 
 2.9158566280886E-02  2.9158516915728E-02  2.9158467550571E-02  2.9158418185414E-02  2.9158368820257E-02  2.9158319455099E-02  2.9158270089942E-02  2.9158220724785E-02  2.9158171359628E-02  2.9158121994470E-02 
 8.0911139820575E-01  8.0911139820575E-01  8.0911139820575E-01  8.0911139820575E-01  8.0911139820575E-01  8.0911139820575E-01  8.0911139820575E-01  8.0911139820575E-01  8.0911139820575E-01  8.0911139820575E-01 
 2.6811111111111E-05  5.3622222222222E-05  5.3622222222222E-05  5.3622222222222E-05  5.3622222222222E-05  5.3622222222222E-05  5.3622222222222E-05  5.3622222222223E-05  5.3622222222222E-05  2.6811111111111E-05 
 1.9088860179425E-01  1.9088860179425E-01  1.9088860179425E-01  1.9088860179425E-01  1.9088860179425E-01  1.9088860179425E-01  1.9088860179425E-01  1.9088860179425E-01  1.9088860179425E-01  1.9088860179425E-01 
 3.0770346968142E-09  3.0770346682476E-09  3.0770346363497E-09  3.0770346335845E-09  3.0770346622956E-09  3.0770346651532E-09  3.0770346370932E-09  3.0770346627354E-09  3.0770346626303E-09  3.0770346341105E-09 
 2.7658763196141E-02  2.7658763193920E-02  2.7658763193643E-02  2.7658763193643E-02  2.7658763193643E-02  2.7658763193643E-02  2.7658763193643E-02  2.7658763195586E-02  2.7658763193337E-02  2.7658763191088E-02 
 2.7658763196141E-02  2.7658763193920E-02  2.7658763193643E-02  2.7658763193643E-02  2.7658763193643E-02  2.7658763193643E-02  2.7658763193643E-02  2.7658763195586E-02  2.7658763193337E-02  2.7658763191088E-02 
 0.0000000000000E+00  0.0000000000000E+00  0.0000000000000E+00  0.0000000000000E+00  0.0000000000000E+00  0.0000000000000E+00  0.0000000000000E+00  0.0000000000000E+00  0.0000000000000E+00  0.0000000000000E+00 
ZONE T = "SEP , 1.6188E-07", I = 10, SOLUTIONTIME = 1.618750E-07
ZONETYPE = ORDERED
DATAPACKING = BLOCK
STRANDID = 2
 7.8740000000000E-04  8.4102222222222E-04  8.9464444444444E-04  9.4826666666667E-04  1.0018888888889E-03  1.0555111111111E-03  1.1091333333333E-03  1.1627555555556E-03  1.2163777777778E-03  1.2700000000000E-03 
 2.0863310472616E-08  2.0863310472616E-08  2.0863310472616E-08  2.0863310472616E-08  2.0863310472616E-08  2.0863310472616E-08  2.0863310472616E-08  2.0863310472616E-08  2.0863310472616E-08  1.9705399225806E-08 
 9.1999999999534E-01  9.2000000000000E-01  9.2000000000000E-01  9.2000000000000E-01  9.2000000000000E-01  9.2000000000000E-01  9.2000000000000E-01  9.2000000000000E-01  9.2000000000000E-01  9.2000000000514E-01 
 4.0000000002332E-02  4.0000000000001E-02  4.0000000000000E-02  4.0000000000000E-02  4.0000000000000E-02  4.0000000000000E-02  4.0000000000000E-02  4.0000000000000E-02  3.9999999999999E-02  3.9999999997431E-02 
 4.0000000002332E-02  4.0000000000001E-02  4.0000000000000E-02  4.0000000000000E-02  4.0000000000000E-02  4.0000000000000E-02  4.0000000000000E-02  4.0000000000000E-02  3.9999999999999E-02  3.9999999997431E-02 
 2.9158566279935E-02  2.9158516914778E-02  2.9158467549621E-02  2.9158418184463E-02  2.9158368819306E-02  2.9158319454149E-02  2.9158270088992E-02  2.9158220723834E-02  2.9158171358677E-02  2.9158121993520E-02 
 8.0911139820575E-01  8.0911139820575E-01  8.0911139820575E-01  8.0911139820575E-01  8.0911139820575E-01  8.0911139820575E-01  8.0911139820575E-01  8.0911139820575E-01  8.0911139820575E-01  8.0911139820575E-01 
 2.6811111111111E-05  5.3622222222222E-05  5.3622222222222E-05  5.3622222222222E-05  5.3622222222222E-05  5.3622222222222E-05  5.3622222222222E-05  5.3622222222223E-05  5.3622222222222E-05  2.6811111111111E-05 
 1.9088860179425E-01  1.9088860179425E-01  1.9088860179425E-01  1.9088860179425E-01  1.9088860179425E-01  1.9088860179425E-01  1.9088860179425E-01  1.9088860179425E-01  1.9088860179425E-01  1.9088860179425E-01 
 4.4772595832380E-09  4.4772595547494E-09  4.4772595228310E-09  4.4772595200658E-09  4.4772595487770E-09  4.4772595516345E-09  4.4772595236730E-09  4.4772595492168E-09  4.4772595491876E-09  4.4772595208421E-09 
 2.7658763188618E-02  2.7658763190158E-02  2.7658763189755E-02  2.7658763189755E-02  2.7658763189755E-02  2.7658763189755E-02  2.7658763191699E-02  2.7658763189755E-02  2.7658763191255E-02  2.7658763194698E-02 
 2.7658763188618E-02  2.7658763190158E-02  2.7658763189755E-02  2.7658763189755E-02  2.7658763189755E-02  2.7658763189755E-02  2.7658763191699E-02  2.7658763189755E-02  2.7658763191255E-02  2.7658763194698E-02 
 0.0000000000000E+00  0.0000000000000E+00  0.0000000000000E+00  0.0000000000000E+00  0.0000000000000E+00  0.0000000000000E+00  0.0000000000000E+00  0.0000000000000E+00  0.0000000000000E+00  0.0000000000000E+00 
ZONE T = "SEP , 2.3781E-07", I = 10, SOLUTIONTIME = 2.378125E-07
ZONETYPE = ORDERED
DATAPACKING = BLOCK
STRANDID = 2
 7.8740000000000E-04  8.4102222222222E-04  8.9464444444444E-04  9.4826666666667E-04  1.0018888888889E-03  1.0555111111111E-03  1.1091333333333E-03  1.1627555555556E-03  1.2163777777778E-03  1.2700000000000E-03 
 2.0862604980717E-08  2.0862700640365E-08  2.0862700640365E-08  2.0862700640365E-08  2.0862700640365E-08  2.0862700640365E-08  2.0862700640365E-08  2.0862700640365E-08  2.0862604980717E-08  1.9704944840554E-08 
 9.1999999999315E-01  9.2000000000000E-01  9.2000000000000E-01  9.2000000000000E-01  9.2000000000000E-01  9.2000000000000E-01  9.2000000000000E-01  9.2000000000000E-01  9.2000000000000E-01  9.2000000000755E-01 
 4.0000000003425E-02  4.0000000000002E-02  4.0000000000000E-02  4.0000000000000E-02  4.0000000000000E-02  4.0000000000000E-02  4.0000000000000E-02  4.0000000000000E-02  3.9999999999998E-02  3.9999999996226E-02 
 4.0000000003425E-02  4.0000000000002E-02  4.0000000000000E-02  4.0000000000000E-02  4.0000000000000E-02  4.0000000000000E-02  4.0000000000000E-02  4.0000000000000E-02  3.9999999999998E-02  3.9999999996226E-02 
 2.9158566278506E-02  2.9158516913349E-02  2.9158467548191E-02  2.9158418183034E-02  2.9158368817877E-02  2.9158319452720E-02  2.9158270087562E-02  2.9158220722405E-02  2.9158171357248E-02  2.9158121992091E-02 
 8.0911139820575E-01  8.0911139820575E-01  8.0911139820575E-01  8.0911139820575E-01  8.0911139820575E-01  8.0911139820575E-01  8.0911139820575E-01  8.0911139820575E-01  8.0911139820575E-01  8.0911139820575E-01 
 2.6811111111111E-05  5.3622222222222E-05  5.3622222222222E-05  5.3622222222222E-05  5.3622222222222E-05  5.3622222222222E-05  5.3622222222222E-05  5.3622222222223E-05  5.3622222222222E-05  2.6811111111111E-05 
 1.9088860179425E-01  1.9088860179425E-01  1.9088860179425E-01  1.9088860179425E-01  1.9088860179425E-01  1.9088860179425E-01  1.9088860179425E-01  1.9088860179425E-01  1.9088860179425E-01  1.9088860179425E-01 
 6.5775969126071E-09  6.5775968840735E-09  6.5775968522578E-09  6.5775968494926E-09  6.5775968780562E-09  6.5775968810613E-09  6.5775968530998E-09  6.5775968784959E-09  6.5775968785648E-09  6.5775968503173E-09 
 2.7658763185108E-02  2.7658763184516E-02  2.7658763185867E-02  2.7658763185867E-02  2.7658763183923E-02  2.7658763185867E-02  2.7658763185867E-02  2.7658763183923E-02  2.7658763185214E-02  2.7658763186506E-02 
 2.7658763185108E-02  2.7658763184516E-02  2.7658763185867E-02  2.7658763185867E-02  2.7658763183923E-02  2.7658763185867E-02  2.7658763185867E-02  2.7658763183923E-02  2.7658763185214E-02  2.7658763186506E-02 
 0.0000000000000E+00  0.0000000000000E+00  0.0000000000000E+00  0.0000000000000E+00  0.0000000000000E+00  0.0000000000000E+00  0.0000000000000E+00  0.0000000000000E+00  0.0000000000000E+00  0.0000000000000E+00 
ZONE T = "SEP , 3.5172E-07", I = 10, SOLUTIONTIME = 3.517188E-07
ZONETYPE = ORDERED
DATAPACKING = BLOCK
STRANDID = 2
 7.8740000000000E-04  8.4102222222222E-04  8.9464444444444E-04  9.4826666666667E-04  1.0018888888889E-03  1.0555111111111E-03  1.1091333333333E-03  1.1627555555556E-03  1.2163777777778E-03  1.2700000000000E-03 
 2.0862700637379E-08  2.0862636864281E-08  2.0862636864281E-08  2.0862636864281E-08  2.0862636864281E-08  2.0862636864281E-08  2.0862636864281E-08  2.0862636864281E-08  2.0862636864281E-08  1.9704904979486E-08 
 9.1999999998987E-01  9.1999999999999E-01  9.2000000000000E-01  9.2000000000000E-01  9.2000000000000E-01  9.2000000000000E-01  9.2000000000000E-01  9.2000000000000E-01  9.2000000000001E-01  9.2000000001116E-01 
 4.0000000005065E-02  4.0000000000003E-02  4.0000000000000E-02  4.0000000000000E-02  4.0000000000000E-02  4.0000000000000E-02  4.0000000000000E-02  4.0000000000000E-02  3.9999999999996E-02  3.9999999994419E-02 