TITLE = "Solution on Domain BulkDomain1D_0"
VARIABLES = "x [m]"  
"Vel_axial" 
"MF_sp(ECDMC)" 
"MF_sp(Li+)" 
"MF_sp(PF6-)" 
"Volt(Electroly)" 
"Volt(AnodeVolt)" 
"Potential Drop Electrode-Electrolyte [V]" 
"Surf_0 Equilibrium Potential Drop Electrode-Electrolyte [V]" 
"Overpotential_0 [V]" 
"Current Source [A/m^2]" 
"Li+ flux [kmol/m^2/s]" 
"Electrolyte Current [A/m^2]" 
"Electrode Current [A/m^2]" 
"CV Capacity discharged [A-s/m^2]" 
"Depth of discharge in CV [A-s/m^2]" 
"CV Capacity remaining [A-s/m^2]" 
"Initial CV capacity [A-s/m^2]" 
"Porosity []" 
"Surface Area [m2/m2] (area per area)" 
"Specific current (per particle area) [A/m^2]" 
"Control volume thickness [m]" 
"MoleDens Li_C6-bulk [kmol/m^3]" 
"MoleDens V_C6-bulk [kmol/m^3]" 
"qHeat_accum [J/m3]" 
"qHeat_step [W/m3]" 
"Joule_Lyte [W/m3]" 
"Joule_Solid [W/m3]" 
"electrodHeat [W/m3]" 
"OverpotHeat [W/m3]" 
"deltaSHeat [W/m3]" 

ZONE T = "ANOD, 0.0000E+00", I = 10, SOLUTIONTIME = 0.000000E+00
ZONETYPE = ORDERED
DATAPACKING = BLOCK
STRANDID = 1
 0.0000000000000E+00  8.7488888888889E-05  1.7497777777778E-04  2.6246666666667E-04  3.4995555555556E-04  4.3744444444444E-04  5.2493333333333E-04  6.1242222222222E-04  6.9991111111111E-04  7.8740000000000E-04 
 0.0000000000000E+00  0.0000000000000E+00  0.0000000000000E+00  0.0000000000000E+00  0.0000000000000E+00  0.0000000000000E+00  0.0000000000000E+00  0.0000000000000E+00  0.0000000000000E+00  0.0000000000000E+00 
 9.2000000000000E-01  9.2000000000000E-01  9.2000000000000E-01  9.2000000000000E-01  9.2000000000000E-01  9.2000000000000E-01  9.2000000000000E-01  9.2000000000000E-01  9.2000000000000E-01  9.2000000000000E-01 
 4.0000000000000E-02  4.0000000000000E-02  4.0000000000000E-02  4.0000000000000E-02  4.0000000000000E-02  4.0000000000000E-02  4.0000000000000E-02  4.0000000000000E-02  4.0000000000000E-02  4.0000000000000E-02 
 4.0000000000000E-02  4.0000000000000E-02  4.0000000000000E-02  4.0000000000000E-02  4.0000000000000E-02  4.0000000000000E-02  4.0000000000000E-02  4.0000000000000E-02  4.0000000000000E-02  4.0000000000000E-02 
-7.0000000000000E-02 -7.0000000000000E-02 -7.0000000000000E-02 -7.0000000000000E-02 -7.0000000000000E-02 -7.0000000000000E-02 -7.0000000000000E-02 -7.0000000000000E-02 -7.0000000000000E-02 -7.0000000000000E-02 
 0.0000000000000E+00  0.0000000000000E+00  0.0000000000000E+00  0.0000000000000E+00  0.0000000000000E+00  0.0000000000000E+00  0.0000000000000E+00  0.0000000000000E+00  0.0000000000000E+00  0.0000000000000E+00 
 7.0000000000000E-02  7.0000000000000E-02  7.0000000000000E-02  7.0000000000000E-02  7.0000000000000E-02  7.0000000000000E-02  7.0000000000000E-02  7.0000000000000E-02  7.0000000000000E-02  7.0000000000000E-02 
-4.0899179293840E-02 -4.0899179293840E-02 -4.0899179293840E-02 -4.0899179293840E-02 -4.0899179293840E-02 -4.0899179293840E-02 -4.0899179293840E-02 -4.0899179293840E-02 -4.0899179293840E-02 -4.0899179293840E-02 
 1.1089917929384E-01  1.1089917929384E-01  1.1089917929384E-01  1.1089917929384E-01  1.1089917929384E-01  1.1089917929384E-01  1.1089917929384E-01  1.1089917929384E-01  1.1089917929384E-01  1.1089917929384E-01 
 3.0925583987519E+01  6.1851167975038E+01  6.1851167975038E+01  6.1851167975038E+01  6.1851167975038E+01  6.1851167975038E+01  6.1851167975038E+01  6.1851167975038E+01  6.1851167975038E+01  3.0925583987519E+01 
-0.0000000000000E+00 -0.0000000000000E+00 -0.0000000000000E+00 -0.0000000000000E+00 -0.0000000000000E+00 -0.0000000000000E+00 -0.0000000000000E+00 -0.0000000000000E+00 -0.0000000000000E+00 -0.0000000000000E+00 
 0.0000000000000E+00  0.0000000000000E+00  0.0000000000000E+00  0.0000000000000E+00  0.0000000000000E+00  0.0000000000000E+00  0.0000000000000E+00  0.0000000000000E+00  0.0000000000000E+00  3.0925583987519E+01 
 3.0925583987519E+01 -0.0000000000000E+00 -0.0000000000000E+00 -0.0000000000000E+00 -0.0000000000000E+00 -0.0000000000000E+00 -0.0000000000000E+00 -0.0000000000000E+00 -0.0000000000000E+00  0.0000000000000E+00 
 0.0000000000000E+00  0.0000000000000E+00  0.0000000000000E+00  0.0000000000000E+00  0.0000000000000E+00  0.0000000000000E+00  0.0000000000000E+00  0.0000000000000E+00  0.0000000000000E+00  0.0000000000000E+00 
 9.1448444543281E+04  1.8289688908656E+05  1.8289688908656E+05  1.8289688908656E+05  1.8289688908656E+05  1.8289688908656E+05  1.8289688908656E+05  1.8289688908656E+05  1.8289688908656E+05  9.1448444543281E+04 
 3.6579377817312E+05  7.3158755634625E+05  7.3158755634625E+05  7.3158755634625E+05  7.3158755634625E+05  7.3158755634625E+05  7.3158755634625E+05  7.3158755634625E+05  7.3158755634625E+05  3.6579377817312E+05 
 4.5724222271640E+05  9.1448444543281E+05  9.1448444543281E+05  9.1448444543281E+05  9.1448444543281E+05  9.1448444543281E+05  9.1448444543281E+05  9.1448444543281E+05  9.1448444543281E+05  4.5724222271640E+05 
 3.5000000000000E-01  3.5000000000000E-01  3.5000000000000E-01  3.5000000000000E-01  3.5000000000000E-01  3.5000000000000E-01  3.5000000000000E-01  3.5000000000000E-01  3.5000000000000E-01  3.5000000000000E-01 
 8.5301666666666E+00  1.7060333333333E+01  1.7060333333333E+01  1.7060333333333E+01  1.7060333333333E+01  1.7060333333333E+01  1.7060333333333E+01  1.7060333333333E+01  1.7060333333333E+01  8.5301666666666E+00 
 3.6254372506421E+00  3.6254372506421E+00  3.6254372506421E+00  3.6254372506421E+00  3.6254372506421E+00  3.6254372506421E+00  3.6254372506421E+00  3.6254372506421E+00  3.6254372506421E+00  3.6254372506421E+00 
 4.3744444444444E-05  8.7488888888889E-05  8.7488888888889E-05  8.7488888888889E-05  8.7488888888889E-05  8.7488888888889E-05  8.7488888888889E-05  8.7488888888889E-05  8.7488888888889E-05  4.3744444444444E-05 
 8.6666666666666E+01  8.6666666666666E+01  8.6666666666666E+01  8.6666666666666E+01  8.6666666666666E+01  8.6666666666666E+01  8.6666666666666E+01  8.6666666666666E+01  8.6666666666666E+01  8.6666666666666E+01 
 2.1666666666667E+01  2.1666666666667E+01  2.1666666666667E+01  2.1666666666667E+01  2.1666666666667E+01  2.1666666666667E+01  2.1666666666667E+01  2.1666666666667E+01  2.1666666666667E+01  2.1666666666667E+01 
 0.0000000000000E+00  0.0000000000000E+00  0.0000000000000E+00  0.0000000000000E+00  0.0000000000000E+00  0.0000000000000E+00  0.0000000000000E+00  0.0000000000000E+00  0.0000000000000E+00  0.0000000000000E+00 
 0.0000000000000E+00  0.0000000000000E+00  0.0000000000000E+00  0.0000000000000E+00  0.0000000000000E+00  0.0000000000000E+00  0.0000000000000E+00  0.0000000000000E+00  0.0000000000000E+00  0.0000000000000E+00 
 0.0000000000000E+00  0.0000000000000E+00  0.0000000000000E+00  0.0000000000000E+00  0.0000000000000E+00  0.0000000000000E+00  0.0000000000000E+00  0.0000000000000E+00  0.0000000000000E+00  0.0000000000000E+00 
 0.0000000000000E+00  0.0000000000000E+00  0.0000000000000E+00  0.0000000000000E+00  0.0000000000000E+00  0.0000000000000E+00  0.0000000000000E+00  0.0000000000000E+00  0.0000000000000E+00  0.0000000000000E+00 
 0.0000000000000E+00  0.0000000000000E+00  0.0000000000000E+00  0.0000000000000E+00  0.0000000000000E+00  0.0000000000000E+00  0.0000000000000E+00  0.0000000000000E+00  0.0000000000000E+00  0.0000000000000E+00 
 0.0000000000000E+00  0.0000000000000E+00  0.0000000000000E+00  0.0000000000000E+00  0.0000000000000E+00  0.0000000000000E+00  0.0000000000000E+00  0.0000000000000E+00  0.0000000000000E+00  0.0000000000000E+00 
 0.0000000000000E+00  0.0000000000000E+00  0.0000000000000E+00  0.0000000000000E+00  0.0000000000000E+00  0.0000000000000E+00  0.0000000000000E+00  0.0000000000000E+00  0.0000000000000E+00  0.0000000000000E+00 
ZONE T = "ANOD, 1.0000E-08", I = 10, SOLUTIONTIME = 1.000000E-08
ZONETYPE = ORDERED
DATAPACKING = BLOCK
STRANDID = 1
 0.0000000000000E+00  8.7488888888889E-05  1.7497777777778E-04  2.6246666666667E-04  3.4995555555556E-04  4.3744444444444E-04  5.2493333333333E-04  6.1242222222222E-04  6.9991111111111E-04  7.8740000000000E-04 
 1.1589917776624E-09  3.4769775408720E-09  5.7949719419422E-09  8.1129814118288E-09  1.0431012381051E-08  1.2749071280217E-08  1.5067164540242E-08  1.7385298591675E-08  1.9703479865440E-08  2.0863142140725E-08 
 9.1999999999930E-01  9.1999999999930E-01  9.1999999999930E-01  9.1999999999930E-01  9.1999999999930E-01  9.1999999999930E-01  9.1999999999930E-01  9.1999999999930E-01  9.1999999999930E-01  9.1999999999971E-01 
 4.0000000000348E-02  4.0000000000348E-02  4.0000000000348E-02  4.0000000000348E-02  4.0000000000348E-02  4.0000000000348E-02  4.0000000000348E-02  4.0000000000348E-02  4.0000000000348E-02  4.0000000000144E-02 
 4.0000000000348E-02  4.0000000000348E-02  4.0000000000348E-02  4.0000000000348E-02  4.0000000000348E-02  4.0000000000348E-02  4.0000000000348E-02  4.0000000000348E-02  4.0000000000348E-02  4.0000000000144E-02 
 2.9159838013395E-02  2.9159822286291E-02  2.9159775104946E-02  2.9159696469226E-02  2.9159586378945E-02  2.9159444833796E-02  2.9159271833426E-02  2.9159067377337E-02  2.9158831465008E-02  2.9158564095760E-02 
 0.0000000000000E+00 -4.7371276066654E-09 -8.9169666337323E-09 -1.2539515004492E-08 -1.5604769096110E-08 -1.8112723739729E-08 -2.0063372220453E-08 -2.1456706277266E-08 -2.2292716103125E-08 -2.2571390344870E-08 
-2.9159838013395E-02 -2.9159827023419E-02 -2.9159784021912E-02 -2.9159709008741E-02 -2.9159601983714E-02 -2.9159462946520E-02 -2.9159291896798E-02 -2.9159088834044E-02 -2.9158853757724E-02 -2.9158586667150E-02 
-4.0899179293342E-02 -4.0899179293342E-02 -4.0899179293342E-02 -4.0899179293342E-02 -4.0899179293336E-02 -4.0899179293342E-02 -4.0899179293342E-02 -4.0899179293336E-02 -4.0899179293336E-02 -4.0899179293467E-02 
 1.1739341279947E-02  1.1739352269923E-02  1.1739395271430E-02  1.1739470284601E-02  1.1739577309623E-02  1.1739716346823E-02  1.1739887396544E-02  1.1740090459293E-02  1.1740325535612E-02  1.1740592626317E-02 
 1.6690490554344E+00  3.3381012900640E+00  3.3381137295983E+00  3.3381354295161E+00  3.3381663898821E+00  3.3382066107987E+00  3.3382560923875E+00  3.3383148348155E+00  3.3383828382611E+00  1.6692300514761E+00 
 8.6491903786452E-09  2.5947589729763E-08  4.3246061626382E-08  6.0544637108459E-08  7.7843380379554E-08  9.5142318594513E-08  1.1244152972824E-07  1.2974102867004E-07  1.4704097219258E-07  1.4704097219258E-07 
 0.0000000000000E+00  3.3380819691775E+00  6.6761727319637E+00  1.0014280488805E+01  1.3352414429304E+01  1.6690583368424E+01  2.0028797449579E+01  2.3367065632066E+01  2.6705397521143E+01  3.0043811486083E+01 
 3.0043810415147E+01  2.6705719297984E+01  2.3367628954923E+01  2.0029521542109E+01  1.6691387798769E+01  1.3353218464382E+01  1.0015004278135E+01  6.6767359792631E+00  3.3384043069924E+00  0.0000000000000E+00 
 1.6690490554344E-08  3.3381012900640E-08  3.3381137295983E-08  3.3381354295161E-08  3.3381663898821E-08  3.3382066107987E-08  3.3382560923875E-08  3.3383148348155E-08  3.3383828382611E-08  1.6692300514761E-08 
 9.1448444543298E+04  1.8289688908659E+05  1.8289688908660E+05  1.8289688908660E+05  1.8289688908660E+05  1.8289688908659E+05  1.8289688908659E+05  1.8289688908660E+05  1.8289688908660E+05  9.1448444543298E+04 
 3.6579377817311E+05  7.3158755634621E+05  7.3158755634621E+05  7.3158755634621E+05  7.3158755634621E+05  7.3158755634621E+05  7.3158755634621E+05  7.3158755634621E+05  7.3158755634621E+05  3.6579377817311E+05 
 4.5724222271640E+05  9.1448444543281E+05  9.1448444543281E+05  9.1448444543281E+05  9.1448444543281E+05  9.1448444543281E+05  9.1448444543281E+05  9.1448444543281E+05  9.1448444543281E+05  4.5724222271640E+05 
 3.5000000000000E-01  3.5000000000000E-01  3.5000000000000E-01  3.5000000000000E-01  3.5000000000000E-01  3.5000000000000E-01  3.5000000000000E-01  3.5000000000000E-01  3.5000000000000E-01  3.5000000000000E-01 
 8.5301666666666E+00  1.7060333333333E+01  1.7060333333333E+01  1.7060333333333E+01  1.7060333333333E+01  1.7060333333333E+01  1.7060333333333E+01  1.7060333333333E+01  1.7060333333333E+01  8.5301666666666E+00 
 1.9566429598106E-01  1.9566448233118E-01  1.9566521148072E-01  1.9566648343229E-01  1.9566829818969E-01  1.9567065575890E-01  1.9567355614706E-01  1.9567699936396E-01  1.9568098542005E-01  1.9568551432869E-01 
 4.3744444444444E-05  8.7488888888889E-05  8.7488888888889E-05  8.7488888888889E-05  8.7488888888889E-05  8.7488888888889E-05  8.7488888888889E-05  8.7488888888889E-05  8.7488888888889E-05  4.3744444444444E-05 
 8.6666666666662E+01  8.6666666666662E+01  8.6666666666662E+01  8.6666666666662E+01  8.6666666666662E+01  8.6666666666662E+01  8.6666666666662E+01  8.6666666666662E+01  8.6666666666662E+01  8.6666666666662E+01 
 2.1666666666671E+01  2.1666666666671E+01  2.1666666666671E+01  2.1666666666671E+01  2.1666666666671E+01  2.1666666666671E+01  2.1666666666671E+01  2.1666666666671E+01  2.1666666666671E+01  2.1666666666671E+01 
-7.4957894071791E-05 -7.4957950968257E-05 -7.4958181080276E-05 -7.4958582494428E-05 -7.4959155210973E-05 -7.4959899230538E-05 -7.4960814553615E-05 -7.4961901181254E-05 -7.4963159114205E-05 -7.4964696379737E-05 
-7.4957894071791E+03 -7.4957950968257E+03 -7.4958181080276E+03 -7.4958582494428E+03 -7.4959155210973E+03 -7.4959899230538E+03 -7.4960814553615E+03 -7.4961901181254E+03 -7.4963159114205E+03 -7.4964696379737E+03 
 3.0002857911645E-04  1.5001448305662E-03  5.1005068124528E-03  1.1101150388590E-02  1.9502139799288E-02  3.0303561934147E-02  4.3505537816777E-02  5.9108207735971E-02  7.7111746077543E-02  8.6713759812693E-02 
 1.5363649839049E-03  1.3662543268404E-03  1.0472954966877E-03  7.7086154772399E-04  5.3695254241088E-04  3.4556901515487E-04  1.9671197227979E-04  9.0382892064012E-05  2.6583724761041E-05  5.3168926172086E-06 
-7.4957912435726E+03 -7.4957979632249E+03 -7.4958242558299E+03 -7.4958701214547E+03 -7.4959355601896E+03 -7.4960205721848E+03 -7.4961251576113E+03 -7.4962493167160E+03 -7.4963930497503E+03 -7.4965563570504E+03 
 4.4790913963895E+02  4.4790998554424E+02  4.4791329540445E+02  4.4791906925806E+02  4.4792730716870E+02  4.4793800922983E+02  4.4795117555996E+02  4.4796680630936E+02  4.4798490165123E+02  4.4800546179175E+02 
-7.9437003832116E+03 -7.9437079487691E+03 -7.9437375512344E+03 -7.9437891907128E+03 -7.9438628673583E+03 -7.9439585814146E+03 -7.9440763331713E+03 -7.9442161230254E+03 -7.9443779514015E+03 -7.9445618188422E+03 
ZONE T = "ANOD, 2.0000E-08", I = 10, SOLUTIONTIME = 2.000000E-08
ZONETYPE = ORDERED
DATAPACKING = BLOCK
STRANDID = 1
 0.0000000000000E+00  8.7488888888889E-05  1.7497777777778E-04  2.6246666666667E-04  3.4995555555556E-04  4.3744444444444E-04  5.2493333333333E-04  6.1242222222222E-04  6.9991111111111E-04  7.8740000000000E-04 
 1.1589975177543E-09  3.4769947609268E-09  5.7950006422310E-09  8.1130215921627E-09  1.0431064041265E-08  1.2749134420152E-08  1.5066512744069E-08  1.7383931859282E-08  1.9701398196733E-08  2.0861066211454E-08 
 9.1999999999861E-01  9.1999999999861E-01  9.1999999999861E-01  9.1999999999861E-01  9.1999999999861E-01  9.1999999999861E-01  9.1999999999861E-01  9.1999999999861E-01  9.1999999999861E-01  9.1999999999942E-01 
 4.0000000000696E-02  4.0000000000696E-02  4.0000000000696E-02  4.0000000000696E-02  4.0000000000696E-02  4.0000000000696E-02  4.0000000000696E-02  4.0000000000696E-02  4.0000000000696E-02  4.0000000000288E-02 
 4.0000000000696E-02  4.0000000000696E-02  4.0000000000696E-02  4.0000000000696E-02  4.0000000000696E-02  4.0000000000696E-02  4.0000000000696E-02  4.0000000000696E-02  4.0000000000696E-02  4.0000000000288E-02 
 2.9159840206558E-02  2.9159824479373E-02  2.9159777297786E-02  2.9159698661682E-02  2.9159588570854E-02  2.9159447025013E-02  2.9159274023778E-02  2.9159069566683E-02  2.9158833653175E-02  2.9158566282613E-02 
 0.0000000000000E+00 -4.7371510660621E-09 -8.9170107925203E-09 -1.2539577102601E-08 -1.5604846373515E-08 -1.8112813436445E-08 -2.0063471576532E-08 -2.1456812532852E-08 -2.2292826498387E-08 -2.2571502120000E-08 
-2.9159840206558E-02 -2.9159829216524E-02 -2.9159786214797E-02 -2.9159711201259E-02 -2.9159604175701E-02 -2.9159465137826E-02 -2.9159294087249E-02 -2.9159091023495E-02 -2.9158855946001E-02 -2.9158588854115E-02 
-4.0899179292844E-02 -4.0899179292845E-02 -4.0899179292844E-02 -4.0899179292844E-02 -4.0899179292845E-02 -4.0899179292844E-02 -4.0899179292843E-02 -4.0899179292844E-02 -4.0899179292844E-02 -4.0899179293106E-02 
 1.1739339086286E-02  1.1739350076321E-02  1.1739393078047E-02  1.1739468091585E-02  1.1739575117144E-02  1.1739714155018E-02  1.1739885205594E-02  1.1740088269349E-02  1.1740323346843E-02  1.1740590438991E-02 
 1.6690487381541E+00  3.3381006555202E+00  3.3381130951178E+00  3.3381347951418E+00  3.3381657556604E+00  3.3382059767740E+00  3.3382554586097E+00  3.3383142013252E+00  3.3383822051098E+00  1.6692297351047E+00 
 8.6492352080660E-09  2.5947722096288E-08  4.3246273449470E-08  6.0544937252508E-08  7.7843761505384E-08  9.5142794173729E-08  1.1244208327507E-07  1.2974167679341E-07  1.4704176693803E-07  1.4704176693803E-07 
 0.0000000000000E+00  3.3380990659879E+00  6.6762059412144E+00  1.0014329886344E+01  1.3352480161857E+01  1.6690666028050E+01  2.0028896745587E+01  2.3367181575686E+01  2.6705529778938E+01  3.0043950616499E+01 
 3.0043950616518E+01  2.6705851550603E+01  2.3367744675284E+01  2.0029620730155E+01  1.6691470454754E+01  1.3353284588536E+01  1.0015053870845E+01  6.6767690408771E+00  3.3384208376596E+00  0.0000000000000E+00 
 3.3380977935886E-08  6.6762019455842E-08  6.6762268247161E-08  6.6762702246578E-08  6.6763321455425E-08  6.6764125875727E-08  6.6765115509972E-08  6.6766290361407E-08  6.6767650433709E-08  3.3384597865808E-08 
 9.1448444543314E+04  1.8289688908663E+05  1.8289688908663E+05  1.8289688908663E+05  1.8289688908663E+05  1.8289688908663E+05  1.8289688908663E+05  1.8289688908663E+05  1.8289688908663E+05  9.1448444543314E+04 
 3.6579377817309E+05  7.3158755634618E+05  7.3158755634618E+05  7.3158755634618E+05  7.3158755634618E+05  7.3158755634618E+05  7.3158755634618E+05  7.3158755634618E+05  7.3158755634618E+05  3.6579377817309E+05 
 4.5724222271640E+05  9.1448444543281E+05  9.1448444543281E+05  9.1448444543281E+05  9.1448444543281E+05  9.1448444543281E+05  9.1448444543281E+05  9.1448444543281E+05  9.1448444543281E+05  4.5724222271640E+05 
 3.5000000000000E-01  3.5000000000000E-01  3.5000000000000E-01  3.5000000000000E-01  3.5000000000000E-01  3.5000000000000E-01  3.5000000000000E-01  3.5000000000000E-01  3.5000000000000E-01  3.5000000000000E-01 
 8.5301666666666E+00  1.7060333333333E+01  1.7060333333333E+01  1.7060333333333E+01  1.7060333333333E+01  1.7060333333333E+01  1.7060333333333E+01  1.7060333333333E+01  1.7060333333333E+01  8.5301666666666E+00 
 1.9566425878597E-01  1.9566444513707E-01  1.9566517429033E-01  1.9566644624813E-01  1.9566826101446E-01  1.9567061859522E-01  1.9567351899785E-01  1.9567696223160E-01  1.9568094830756E-01  1.9568547724015E-01 
 4.3744444444444E-05  8.7488888888889E-05  8.7488888888889E-05  8.7488888888889E-05  8.7488888888889E-05  8.7488888888889E-05  8.7488888888889E-05  8.7488888888889E-05  8.7488888888889E-05  4.3744444444444E-05 
 8.6666666666658E+01  8.6666666666658E+01  8.6666666666658E+01  8.6666666666658E+01  8.6666666666658E+01  8.6666666666658E+01  8.6666666666658E+01  8.6666666666658E+01  8.6666666666658E+01  8.6666666666658E+01 
 2.1666666666674E+01  2.1666666666674E+01  2.1666666666674E+01  2.1666666666674E+01  2.1666666666674E+01  2.1666666666674E+01  2.1666666666674E+01  2.1666666666674E+01  2.1666666666674E+01  2.1666666666674E+01 
-1.4991577473105E-04 -1.4991588852424E-04 -1.4991634874930E-04 -1.4991715157929E-04 -1.4991829701483E-04 -1.4991978505707E-04 -1.4992161570718E-04 -1.4992378896701E-04 -1.4992630483835E-04 -1.4992937937724E-04 
-7.4957880659263E+03 -7.4957937555980E+03 -7.4958167669024E+03 -7.4958569084866E+03 -7.4959141803853E+03 -7.4959885826536E+03 -7.4960801153563E+03 -7.4961887785758E+03 -7.4963145724149E+03 -7.4964682997504E+03 
 6.0006026838088E-04  3.0003049910805E-03  1.0201064139196E-02  2.2202410398730E-02  3.9004471467815E-02  6.0607424328600E-02  8.7011506735191E-02  1.1821700234686E-01  1.5422425555685E-01  1.7342837193592E-01 
 3.0727451847462E-03  2.7325221857043E-03  2.0946013661672E-03  1.5417307302272E-03  1.0739104028322E-03  6.9114145278683E-04  3.9342589273962E-04  1.8076667924133E-04  5.3167712791533E-05  1.0633837888231E-05 
-7.4957899023382E+03 -7.4957966220260E+03 -7.4958229147656E+03 -7.4958687806158E+03 -7.4959342196748E+03 -7.4960192320884E+03 -7.4961238180391E+03 -7.4962479777542E+03 -7.4963917115084E+03 -7.4965550196795E+03 
 4.4790897079482E+02  4.4790981670441E+02  4.4791312658090E+02  4.4791890046167E+02  4.4792713841139E+02  4.4793784052300E+02  4.4795100691637E+02  4.4796663773939E+02  4.4798473316815E+02  4.4800529341472E+02 
-7.9436988731330E+03 -7.9437064387304E+03 -7.9437360413465E+03 -7.9437876810775E+03 -7.9438613580862E+03 -7.9439570726114E+03 -7.9440748249555E+03 -7.9442146154936E+03 -7.9443764446765E+03 -7.9445603130942E+03 
ZONE T = "ANOD, 3.0000E-08", I = 10, SOLUTIONTIME = 3.000000E-08
ZONETYPE = ORDERED
DATAPACKING = BLOCK
STRANDID = 1
 0.0000000000000E+00  8.7488888888889E-05  1.7497777777778E-04  2.6246666666667E-04  3.4995555555556E-04  4.3744444444444E-04  5.2493333333333E-04  6.1242222222222E-04  6.9991111111111E-04  7.8740000000000E-04 
 1.1589975177341E-09  3.4769947608661E-09  5.7950006421300E-09  8.1130215920214E-09  1.0431064041085E-08  1.2749497627659E-08  1.5068328782446E-08  1.7387200728531E-08  1.9706119896854E-08  2.0864698288381E-08 
 9.1999999999791E-01  9.1999999999791E-01  9.1999999999791E-01  9.1999999999791E-01  9.1999999999791E-01  9.1999999999791E-01  9.1999999999791E-01  9.1999999999791E-01  9.1999999999791E-01  9.1999999999914E-01 
 4.0000000001045E-02  4.0000000001045E-02  4.0000000001045E-02  4.0000000001045E-02  4.0000000001045E-02  4.0000000001045E-02  4.0000000001045E-02  4.0000000001045E-02  4.0000000001045E-02  4.0000000000432E-02 
 4.0000000001045E-02  4.0000000001045E-02  4.0000000001045E-02  4.0000000001045E-02  4.0000000001045E-02  4.0000000001045E-02  4.0000000001045E-02  4.0000000001045E-02  4.0000000001045E-02  4.0000000000432E-02 
 2.9159840206345E-02  2.9159824479159E-02  2.9159777297573E-02  2.9159698661468E-02  2.9159588570641E-02  2.9159447024799E-02  2.9159274023564E-02  2.9159069566470E-02  2.9158833652962E-02  2.9158566282400E-02 
 0.0000000000000E+00 -4.7371510659826E-09 -8.9170107923712E-09 -1.2539577102392E-08 -1.5604846373255E-08 -1.8112813436145E-08 -2.0063471576201E-08 -2.1456812532499E-08 -2.2292826498023E-08 -2.2571502119633E-08 
-2.9159840206345E-02 -2.9159829216311E-02 -2.9159786214584E-02 -2.9159711201045E-02 -2.9159604175487E-02 -2.9159465137613E-02 -2.9159294087036E-02 -2.9159091023282E-02 -2.9158855945788E-02 -2.9158588853902E-02 
-4.0899179292345E-02 -4.0899179292346E-02 -4.0899179292345E-02 -4.0899179292345E-02 -4.0899179292345E-02 -4.0899179292345E-02 -4.0899179292341E-02 -4.0899179292342E-02 -4.0899179292342E-02 -4.0899179292735E-02 
 1.1739339086000E-02  1.1739350076036E-02  1.1739393077761E-02  1.1739468091299E-02  1.1739575116857E-02  1.1739714154732E-02  1.1739885205305E-02  1.1740088269060E-02  1.1740323346554E-02  1.1740590438833E-02 
 1.6690487381251E+00  3.3381006554618E+00  3.3381130950597E+00  3.3381347950836E+00  3.3381657556034E+00  3.3382059767159E+00  3.3382554585515E+00  3.3383142012681E+00  3.3383822050528E+00  1.6692297350908E+00 
 8.6492352039783E-09  2.5947722098768E-08  4.3246273447939E-08  6.0544937246956E-08  7.7843761499990E-08  9.5142794176473E-08  1.1244208327189E-07  1.2974167678656E-07  1.4704183905653E-07  1.4704183905653E-07 
 0.0000000000000E+00  3.3380990658328E+00  6.6762059410884E+00  1.0014329886247E+01  1.3352480161605E+01  1.6690666027643E+01  2.0028896745394E+01  2.3367181575153E+01  2.6705529778398E+01  3.0043950616291E+01 
 3.0043950616013E+01  2.6705851550157E+01  2.3367744674896E+01  2.0029620729824E+01  1.6691470454481E+01  1.3353284588321E+01  1.0015053870687E+01  6.6767690407776E+00  3.3384208376172E+00  0.0000000000000E+00 
 5.0071465317136E-08  1.0014302601046E-07  1.0014339919776E-07  1.0014405019741E-07  1.0014497901146E-07  1.0014618564289E-07  1.0014767009549E-07  1.0014943237409E-07  1.0015147248424E-07  5.0076895216715E-08 
 9.1448444543331E+04  1.8289688908666E+05  1.8289688908666E+05  1.8289688908666E+05  1.8289688908666E+05  1.8289688908666E+05  1.8289688908666E+05  1.8289688908666E+05  1.8289688908666E+05  9.1448444543331E+04 
 3.6579377817307E+05  7.3158755634615E+05  7.3158755634615E+05  7.3158755634615E+05  7.3158755634615E+05  7.3158755634615E+05  7.3158755634615E+05  7.3158755634615E+05  7.3158755634615E+05  3.6579377817307E+05 
 4.5724222271640E+05  9.1448444543281E+05  9.1448444543281E+05  9.1448444543281E+05  9.1448444543281E+05  9.1448444543281E+05  9.1448444543281E+05  9.1448444543281E+05  9.1448444543281E+05  4.5724222271640E+05 
 3.5000000000000E-01  3.5000000000000E-01  3.5000000000000E-01  3.5000000000000E-01  3.5000000000000E-01  3.5000000000000E-01  3.5000000000000E-01  3.5000000000000E-01  3.5000000000000E-01  3.5000000000000E-01 
 8.5301666666666E+00  1.7060333333333E+01  1.7060333333333E+01  1.7060333333333E+01  1.7060333333333E+01  1.7060333333333E+01  1.7060333333333E+01  1.7060333333333E+01  1.7060333333333E+01  8.5301666666666E+00 
 1.9566425878256E-01  1.9566444513365E-01  1.9566517428693E-01  1.9566644624472E-01  1.9566826101112E-01  1.9567061859182E-01  1.9567351899444E-01  1.9567696222825E-01  1.9568094830422E-01  1.9568547723852E-01 
 4.3744444444444E-05  8.7488888888889E-05  8.7488888888889E-05  8.7488888888889E-05  8.7488888888889E-05  8.7488888888889E-05  8.7488888888889E-05  8.7488888888889E-05  8.7488888888889E-05  4.3744444444444E-05 
 8.6666666666654E+01  8.6666666666654E+01  8.6666666666654E+01  8.6666666666654E+01  8.6666666666654E+01  8.6666666666654E+01  8.6666666666654E+01  8.6666666666654E+01  8.6666666666654E+01  8.6666666666654E+01 
 2.1666666666678E+01  2.1666666666678E+01  2.1666666666678E+01  2.1666666666678E+01  2.1666666666678E+01  2.1666666666678E+01  2.1666666666678E+01  2.1666666666678E+01  2.1666666666678E+01  2.1666666666678E+01 
-2.2487365538903E-04 -2.2487382607892E-04 -2.2487451641704E-04 -2.2487572066287E-04 -2.2487743881741E-04 -2.2487967088232E-04 -2.2488241685945E-04 -2.2488567675150E-04 -2.2488945056124E-04 -2.2489406237414E-04 
-7.4957880657973E+03 -7.4957937554687E+03 -7.4958167667736E+03 -7.4958569083576E+03 -7.4959141802589E+03 -7.4959885825247E+03 -7.4960801152272E+03 -7.4961887784491E+03 -7.4963145722884E+03 -7.4964682996894E+03 
 9.0009195751554E-04  4.5004651515417E-03  1.5301621465652E-02  3.3303670408637E-02  5.8506803135319E-02  9.0911286721398E-02  1.3051747565240E-01  1.7732579695443E-01  2.3133676503260E-01  2.6014298405743E-01 
 4.6091253855361E-03  4.0987900445224E-03  3.1419072356119E-03  2.3125999127050E-03  1.6108682632361E-03  1.0367138904076E-03  5.9013981319326E-04  2.7115046641593E-04  7.9751700821303E-05  1.5950783159164E-05 
-7.4957899022091E+03 -7.4957966218967E+03 -7.4958229146368E+03 -7.4958687804868E+03 -7.4959342195484E+03 -7.4960192319596E+03 -7.4961238179101E+03 -7.4962479776275E+03 -7.4963917113819E+03 -7.4965550196185E+03 
 4.4790897077600E+02  4.4790981668554E+02  4.4791312656209E+02  4.4791890044285E+02  4.4792713839290E+02  4.4793784050420E+02  4.4795100689755E+02  4.4796663772087E+02  4.4798473314965E+02  4.4800529340510E+02 
-7.9436988729851E+03 -7.9437064385822E+03 -7.9437360411989E+03 -7.9437876809297E+03 -7.9438613579413E+03 -7.9439570724638E+03 -7.9440748248076E+03 -7.9442146153483E+03 -7.9443764445315E+03 -7.9445603130236E+03 
ZONE T = "ANOD, 4.0000E-08", I = 10, SOLUTIONTIME = 4.000000E-08
ZONETYPE = ORDERED
DATAPACKING = BLOCK
STRANDID = 1
 0.0000000000000E+00  8.7488888888889E-05  1.7497777777778E-04  2.6246666666667E-04  3.4995555555556E-04  4.3744444444444E-04  5.2493333333333E-04  6.1242222222222E-04  6.9991111111111E-04  7.8740000000000E-04 
 1.1588159138501E-09  3.4771763646701E-09  5.7948190381660E-09  8.1135664034728E-09  1.0430519229313E-08  1.2747499984936E-08  1.5064515101044E-08  1.7382660631633E-08  1.9700853384460E-08  2.0859976587570E-08 
 9.1999999999721E-01  9.1999999999721E-01  9.1999999999721E-01  9.1999999999721E-01  9.1999999999721E-01  9.1999999999721E-01  9.1999999999721E-01  9.1999999999721E-01  9.1999999999721E-01  9.1999999999885E-01 
 4.0000000001393E-02  4.0000000001393E-02  4.0000000001393E-02  4.0000000001393E-02  4.0000000001393E-02  4.0000000001393E-02  4.0000000001393E-02  4.0000000001393E-02  4.0000000001393E-02  4.0000000000576E-02 
 4.0000000001393E-02  4.0000000001393E-02  4.0000000001393E-02  4.0000000001393E-02  4.0000000001393E-02  4.0000000001393E-02  4.0000000001393E-02  4.0000000001393E-02  4.0000000001393E-02  4.0000000000576E-02 
 2.9159840206132E-02  2.9159824478947E-02  2.9159777297360E-02  2.9159698661256E-02  2.9159588570428E-02  2.9159447024587E-02  2.9159274023352E-02  2.9159069566257E-02  2.9158833652749E-02  2.9158566282187E-02 
 0.0000000000000E+00 -4.7371510659033E-09 -8.9170107922221E-09 -1.2539577102183E-08 -1.5604846372995E-08 -1.8112813435844E-08 -2.0063471575870E-08 -2.1456812532146E-08 -2.2292826497658E-08 -2.2571502119266E-08 
-2.9159840206132E-02 -2.9159829216098E-02 -2.9159786214371E-02 -2.9159711200833E-02 -2.9159604175275E-02 -2.9159465137400E-02 -2.9159294086823E-02 -2.9159091023069E-02 -2.9158855945575E-02 -2.9158588853689E-02 
-4.0899179291842E-02 -4.0899179291844E-02 -4.0899179291842E-02 -4.0899179291842E-02 -4.0899179291844E-02 -4.0899179291842E-02 -4.0899179291841E-02 -4.0899179291842E-02 -4.0899179291842E-02 -4.0899179292367E-02 
 1.1739339085710E-02  1.1739350075746E-02  1.1739393077471E-02  1.1739468091009E-02  1.1739575116569E-02  1.1739714154442E-02  1.1739885205018E-02  1.1740088268772E-02  1.1740323346266E-02  1.1740590438678E-02 
 1.6690487380961E+00  3.3381006554046E+00  3.3381130950019E+00  3.3381347950258E+00  3.3381657555455E+00  3.3382059766581E+00  3.3382554584944E+00  3.3383142012104E+00  3.3383822049951E+00  1.6692297350767E+00 