TITLE = "Solution on Domain BulkDomain1D_2"
VARIABLES = "x [m]"  
"Vel_axial" 	"MF_sp(ECDMC)" 	"MF_sp(Li+)" 	"MF_sp(PF6-)" 	"Volt(Electroly)" 	"Volt(CathodeVo)" 	
"Potential Drop Electrode-Electrolyte [V]" 	"Surf_0 Equilibrium Potential Drop Electrode-Electrolyte [V]" 	"Overpotential_0 [V]" 	"Current Source [A/m^2]" 	"Li+ flux [kmol/m^2/s]" 	"Electrolyte Current [A/m^2]" 	"Electrode Current [A/m^2]" 	
"Capacity discharged [A-s]" 	"Depth of discharge [-]" 	"Capacity remaining [A-s]" 	"Initial capacity [A-s]" 	"Porosity []" 	"Surface Area [m2/m2] (area per area)" 	"Specific current (per particle area) [A/m^2]" 	"Control volume thickness [m]" 	
"Moles LiCoO2 [mol/m^2] (per electrode area)" 	"Moles CoO2 [mol/m^2] (per electrode area)" 	"qHeat_accum [J/m3]" 	"qHeat_step [W/m3]" 	"Joule_Lyte [W/m3]" 	"Joule_Solid [W/m3]" 	"electrodHeat [W/m3]" 	"OverpotHeat [W/m3]" 	"deltaSHeat [W/m3]" 	

ZONE T = "t = 0 [s]" I = 10 SOLUTIONTIME = 0.0000000000000E+00
0.00127 	0 	0.92 	0.04 	0.04 	-0.07 	3.8 	
0 	0 	0 	0 	0 	0.119132 	0 	
0 	0 	0 	0 	0.35 	6.604 	-0.0360787 	3.38667e-05 	
0.000900955 	0.000600637 	0 	0.0 	 0.0 	 0.0 	 0.0 	 0.0 	 0.0 	 
0.00133773 	0 	0.92 	0.04 	0.04 	-0.07 	3.8 	
0 	0 	0 	0 	0 	0 	-0 	
0 	0 	0 	0 	0.35 	13.208 	-0.0360787 	6.77333e-05 	
0.00180191 	0.00120127 	0 	0.0 	 0.0 	 0.0 	 0.0 	 0.0 	 0.0 	 
0.00140547 	0 	0.92 	0.04 	0.04 	-0.07 	3.8 	
0 	0 	0 	0 	0 	0 	-0 	
0 	0 	0 	0 	0.35 	13.208 	-0.0360787 	6.77333e-05 	
0.00180191 	0.00120127 	0 	0.0 	 0.0 	 0.0 	 0.0 	 0.0 	 0.0 	 
0.0014732 	0 	0.92 	0.04 	0.04 	-0.07 	3.8 	
0 	0 	0 	0 	0 	0 	-0 	
0 	0 	0 	0 	0.35 	13.208 	-0.0360787 	6.77333e-05 	
0.00180191 	0.00120127 	0 	0.0 	 0.0 	 0.0 	 0.0 	 0.0 	 0.0 	 
0.00154093 	0 	0.92 	0.04 	0.04 	-0.07 	3.8 	
0 	0 	0 	0 	0 	0 	-0 	
0 	0 	0 	0 	0.35 	13.208 	-0.0360787 	6.77333e-05 	
0.00180191 	0.00120127 	0 	0.0 	 0.0 	 0.0 	 0.0 	 0.0 	 0.0 	 
0.00160867 	0 	0.92 	0.04 	0.04 	-0.07 	3.8 	
0 	0 	0 	0 	0 	0 	-0 	
0 	0 	0 	0 	0.35 	13.208 	-0.0360787 	6.77333e-05 	
0.00180191 	0.00120127 	0 	0.0 	 0.0 	 0.0 	 0.0 	 0.0 	 0.0 	 
0.0016764 	0 	0.92 	0.04 	0.04 	-0.07 	3.8 	
0 	0 	0 	0 	0 	0 	-0 	
0 	0 	0 	0 	0.35 	13.208 	-0.0360787 	6.77333e-05 	
0.00180191 	0.00120127 	0 	0.0 	 0.0 	 0.0 	 0.0 	 0.0 	 0.0 	 
0.00174413 	0 	0.92 	0.04 	0.04 	-0.07 	3.8 	
0 	0 	0 	0 	0 	0 	-0 	
0 	0 	0 	0 	0.35 	13.208 	-0.0360787 	6.77333e-05 	
0.00180191 	0.00120127 	0 	0.0 	 0.0 	 0.0 	 0.0 	 0.0 	 0.0 	 
0.00181187 	0 	0.92 	0.04 	0.04 	-0.07 	3.8 	
0 	0 	0 	0 	0 	0 	-0 	
0 	0 	0 	0 	0.35 	13.208 	-0.0360787 	6.77333e-05 	
0.00180191 	0.00120127 	0 	0.0 	 0.0 	 0.0 	 0.0 	 0.0 	 0.0 	 
0.0018796 	0 	0.92 	0.04 	0.04 	-0.07 	3.8 	
0 	0 	0 	0 	0 	0 	0.119132 	
0 	0 	0 	0 	0.35 	6.604 	-0.0360787 	3.38667e-05 	
0.000900955 	0.000600637 	0 	0.0 	 0.0 	 0.0 	 0.0 	 0.0 	 0.0 	 
ZONE T = "t = 0 [s]" I = 10 SOLUTIONTIME = 0.0000000000000E+00
0.00127 	0 	0.92 	0.04 	0.04 	-0.07 	3.8 	
0 	0 	0 	0 	0 	0.119132 	0 	
0 	0 	0 	0 	0.35 	6.604 	-0.0360787 	3.38667e-05 	
0.000900955 	0.000600637 	0 	0.0 	 0.0 	 0.0 	 0.0 	 0.0 	 0.0 	 
0.00133773 	0 	0.92 	0.04 	0.04 	-0.07 	3.8 	
0 	0 	0 	0 	0 	0 	-0 	
0 	0 	0 	0 	0.35 	13.208 	-0.0360787 	6.77333e-05 	
0.00180191 	0.00120127 	0 	0.0 	 0.0 	 0.0 	 0.0 	 0.0 	 0.0 	 
0.00140547 	0 	0.92 	0.04 	0.04 	-0.07 	3.8 	
0 	0 	0 	0 	0 	0 	-0 	
0 	0 	0 	0 	0.35 	13.208 	-0.0360787 	6.77333e-05 	
0.00180191 	0.00120127 	0 	0.0 	 0.0 	 0.0 	 0.0 	 0.0 	 0.0 	 
0.0014732 	0 	0.92 	0.04 	0.04 	-0.07 	3.8 	
0 	0 	0 	0 	0 	0 	-0 	
0 	0 	0 	0 	0.35 	13.208 	-0.0360787 	6.77333e-05 	
0.00180191 	0.00120127 	0 	0.0 	 0.0 	 0.0 	 0.0 	 0.0 	 0.0 	 
0.00154093 	0 	0.92 	0.04 	0.04 	-0.07 	3.8 	
0 	0 	0 	0 	0 	0 	-0 	
0 	0 	0 	0 	0.35 	13.208 	-0.0360787 	6.77333e-05 	
0.00180191 	0.00120127 	0 	0.0 	 0.0 	 0.0 	 0.0 	 0.0 	 0.0 	 
0.00160867 	0 	0.92 	0.04 	0.04 	-0.07 	3.8 	
0 	0 	0 	0 	0 	0 	-0 	
0 	0 	0 	0 	0.35 	13.208 	-0.0360787 	6.77333e-05 	
0.00180191 	0.00120127 	0 	0.0 	 0.0 	 0.0 	 0.0 	 0.0 	 0.0 	 
0.0016764 	0 	0.92 	0.04 	0.04 	-0.07 	3.8 	
0 	0 	0 	0 	0 	0 	-0 	
0 	0 	0 	0 	0.35 	13.208 	-0.0360787 	6.77333e-05 	
0.00180191 	0.00120127 	0 	0.0 	 0.0 	 0.0 	 0.0 	 0.0 	 0.0 	 
0.00174413 	0 	0.92 	0.04 	0.04 	-0.07 	3.8 	
0 	0 	0 	0 	0 	0 	-0 	
0 	0 	0 	0 	0.35 	13.208 	-0.0360787 	6.77333e-05 	
0.00180191 	0.00120127 	0 	0.0 	 0.0 	 0.0 	 0.0 	 0.0 	 0.0 	 
0.00181187 	0 	0.92 	0.04 	0.04 	-0.07 	3.8 	
0 	0 	0 	0 	0 	0 	-0 	
0 	0 	0 	0 	0.35 	13.208 	-0.0360787 	6.77333e-05 	
0.00180191 	0.00120127 	0 	0.0 	 0.0 	 0.0 	 0.0 	 0.0 	 0.0 	 
0.0018796 	0 	0.92 	0.04 	0.04 	-0.07 	3.8 	
0 	0 	0 	0 	0 	0 	0.119132 	
0 	0 	0 	0 	0.35 	6.604 	-0.0360787 	3.38667e-05 	
0.000900955 	0.000600637 	0 	0.0 	 0.0 	 0.0 	 0.0 	 0.0 	 0.0 	 
ZONE T = "t = 1e-08 [s]" I = 10 SOLUTIONTIME = 1.0000000000000E-08
0.00127 	1.85428e-08 	0.92 	0.04 	0.04 	0.0291657 	3.80017 	
3.87 	3.97141 	-0.101414 	-0.238264 	-0 	29.2102 	0.833608 	
-0 	7244.08 	123.46 	141.616 	0.35 	6.604 	-0.252457 	3.38667e-05 	
0.000900955 	0.000600637 	9.91584e-05 	9915.84 	0.0867258 	0.0530412 	9915.7 	9915.7 	0 	
0.00133773 	1.39117e-08 	0.92 	0.04 	0.04 	0.0291654 	3.80017 	
3.87 	3.97141 	-0.101414 	-0.476527 	-0 	26.7093 	3.33449 	
-0 	14488.2 	246.919 	283.231 	0.35 	13.208 	-0.252467 	6.77333e-05 	
0.00180191 	0.00120127 	0.000100427 	10042.7 	0.0771333 	0.265218 	10042.4 	10042.4 	0 	
0.00140547 	9.28005e-09 	0.92 	0.04 	0.04 	0.0291653 	3.80017 	
3.87 	3.97141 	-0.101414 	-0.476527 	-0 	23.3745 	6.66926 	
-0 	14488.2 	246.919 	283.231 	0.35 	13.208 	-0.252497 	6.77333e-05 	
0.00180191 	0.00120127 	9.88594e-05 	9885.94 	0.0591451 	0.901818 	9884.98 	9884.98 	0 	
0.0014732 	4.64745e-09 	0.92 	0.04 	0.04 	0.0291651 	3.80016 	
3.87 	3.97141 	-0.101414 	-0.476527 	-0 	20.0392 	10.0046 	
-0 	14488.2 	246.919 	283.231 	0.35 	13.208 	-0.25255 	6.77333e-05 	
0.00180191 	0.00120127 	9.98129e-05 	9981.29 	0.0435499 	1.96305 	9979.29 	9979.29 	0 	
0.00154093 	1.34985e-11 	0.92 	0.04 	0.04 	0.029165 	3.80014 	
3.87 	3.97141 	-0.101414 	-0.476527 	-0 	16.7031 	13.3407 	
-0 	14488.2 	246.919 	283.231 	0.35 	13.208 	-0.252623 	6.77333e-05 	
0.00180191 	0.00120127 	9.793e-05 	9793 	0.0303481 	3.44927 	9789.52 	9789.52 	0 	
0.00160867 	-4.62219e-09 	0.92 	0.04 	0.04 	0.0291649 	3.80012 	
3.87 	3.97141 	-0.101414 	-0.476527 	-0 	13.3658 	16.678 	
-0 	14488.2 	246.919 	283.231 	0.35 	13.208 	-0.252718 	6.77333e-05 	
0.00180191 	0.00120127 	9.86097e-05 	9860.97 	0.0195406 	5.36097 	9855.59 	9855.59 	0 	
0.0016764 	-9.26001e-09 	0.92 	0.04 	0.04 	0.0291648 	3.8001 	
3.87 	3.97141 	-0.101414 	-0.476527 	-0 	10.0271 	20.0166 	
-0 	14488.2 	246.919 	283.231 	0.35 	13.208 	-0.252835 	6.77333e-05 	
0.00180191 	0.00120127 	9.90058e-05 	9900.58 	0.0111292 	7.69879 	9892.87 	9892.87 	0 	
0.00174413 	-1.39004e-08 	0.92 	0.04 	0.04 	0.0291647 	3.80007 	
3.87 	3.97141 	-0.101414 	-0.476527 	-0 	6.68682 	23.3569 	
-0 	14488.2 	246.919 	283.231 	0.35 	13.208 	-0.252972 	6.77333e-05 	
0.00180191 	0.00120127 	9.94527e-05 	9945.27 	0.0051164 	10.4635 	9934.8 	9934.8 	0 	
0.00181187 	-1.85436e-08 	0.92 	0.04 	0.04 	0.0291647 	3.80004 	
3.87 	3.97141 	-0.101414 	-0.476527 	-0 	3.34453 	26.6992 	
-0 	14488.2 	246.919 	283.231 	0.35 	13.208 	-0.253132 	6.77333e-05 	
0.00180191 	0.00120127 	9.96153e-05 	9961.53 	0.00150573 	13.6561 	9947.88 	9947.88 	0 	
0.0018796 	0 	0.92 	0.04 	0.04 	0.0291647 	3.8 	
3.87 	3.97141 	-0.101414 	-0.238264 	-0 	0.836432 	29.2073 	
-0 	7244.08 	123.46 	141.616 	0.35 	6.604 	-0.253312 	3.38667e-05 	
0.000900955 	0.000600637 	0.000100897 	10089.7 	0.000301405 	15.3595 	10074.4 	10074.4 	0 	
ZONE T = "t = 2e-08 [s]" I = 10 SOLUTIONTIME = 2.0000000000000E-08
0.00127 	1.85467e-08 	0.92 	0.04 	0.04 	0.0291657 	3.80017 	
3.77101 	3.97141 	-0.200405 	-1.66723 	1.47051e-07 	29.2103 	0.833613 	
4.17857e-11 	7244.08 	123.46 	141.616 	0.35 	6.604 	-0.252457 	3.38667e-05 	
0.000900955 	0.000600637 	0.000195554 	9639.58 	0.0867269 	0.0530419 	9639.44 	9639.44 	0 	
0.00133773 	1.39156e-08 	0.92 	0.04 	0.04 	0.0291654 	3.80017 	
3.77101 	3.97141 	-0.200407 	-3.33458 	1.29771e-07 	26.7094 	3.33452 	
8.35745e-11 	14488.2 	246.919 	283.231 	0.35 	13.208 	-0.252467 	6.77333e-05 	
0.00180191 	0.00120127 	0.000199598 	9917.14 	0.0771343 	0.265222 	9916.79 	9916.79 	0 	
0.00140547 	9.28392e-09 	0.92 	0.04 	0.04 	0.0291653 	3.80017 	
3.771 	3.97141 	-0.200414 	-3.33499 	1.12489e-07 	23.3747 	6.6693 	
8.35848e-11 	14488.2 	246.919 	283.231 	0.35 	13.208 	-0.252497 	6.77333e-05 	
0.00180191 	0.00120127 	0.000194956 	9609.69 	0.0591458 	0.901829 	9608.73 	9608.73 	0 	
0.0014732 	4.65129e-09 	0.92 	0.04 	0.04 	0.0291651 	3.80016 	
3.77099 	3.97141 	-0.200424 	-3.33568 	9.52029e-08 	20.0393 	10.0046 	
8.36021e-11 	14488.2 	246.919 	283.231 	0.35 	13.208 	-0.25255 	6.77333e-05 	
0.00180191 	0.00120127 	0.00019837 	9855.72 	0.0435505 	1.96307 	9853.71 	9853.71 	0 	
0.00154093 	1.7314e-11 	0.92 	0.04 	0.04 	0.029165 	3.80014 	
3.77098 	3.97141 	-0.200439 	-3.33665 	7.7912e-08 	16.7032 	13.3408 	
8.36264e-11 	14488.2 	246.919 	283.231 	0.35 	13.208 	-0.252623 	6.77333e-05 	
0.00180191 	0.00120127 	0.00019858 	10065.1 	0.0303485 	3.44931 	10061.6 	10061.6 	0 	
0.00160867 	-4.6184e-09 	0.92 	0.04 	0.04 	0.0291649 	3.80012 	
3.77096 	3.97141 	-0.200458 	-3.3379 	6.06147e-08 	13.3659 	16.6781 	
8.36578e-11 	14488.2 	246.919 	283.231 	0.35 	13.208 	-0.252718 	6.77333e-05 	
0.00180191 	0.00120127 	0.000197136 	9852.6 	0.0195409 	5.36104 	9847.21 	9847.21 	0 	
0.0016764 	-9.25698e-09 	0.92 	0.04 	0.04 	0.0291648 	3.8001 	
3.77093 	3.97141 	-0.200482 	-3.33944 	4.33094e-08 	10.0272 	20.0167 	
8.36963e-11 	14488.2 	246.919 	283.231 	0.35 	13.208 	-0.252835 	6.77333e-05 	
0.00180191 	0.00120127 	0.000198095 	9908.94 	0.0111293 	7.69889 	9901.23 	9901.23 	0 	
0.00174413 	-1.38974e-08 	0.92 	0.04 	0.04 	0.0291647 	3.80007 	
3.7709 	3.97141 	-0.20051 	-3.34126 	2.59946e-08 	6.68687 	23.3571 	
8.37419e-11 	14488.2 	246.919 	283.231 	0.35 	13.208 	-0.252972 	6.77333e-05 	
0.00180191 	0.00120127 	0.000197482 	9802.96 	0.00511646 	10.4637 	9792.49 	9792.49 	0 	
0.00181187 	-1.8541e-08 	0.92 	0.04 	0.04 	0.0291647 	3.80004 	
3.77087 	3.97141 	-0.200542 	-3.34336 	8.66933e-09 	3.34456 	26.6994 	
8.37947e-11 	14488.2 	246.919 	283.231 	0.35 	13.208 	-0.253132 	6.77333e-05 	
0.00180191 	0.00120127 	0.000197766 	9815.03 	0.00150575 	13.6563 	9801.37 	9801.37 	0 	
0.0018796 	0 	0.92 	0.04 	0.04 	0.0291647 	3.8 	
3.77084 	3.97141 	-0.200579 	-1.67287 	8.66933e-09 	0.836437 	29.2075 	
4.19273e-11 	7244.08 	123.46 	141.616 	0.35 	6.604 	-0.253312 	3.38667e-05 	
0.000900955 	0.000600637 	0.000197818 	9692.07 	0.000301409 	15.3597 	9676.71 	9676.71 	0 	
ZONE T = "t = 3e-08 [s]" I = 10 SOLUTIONTIME = 3.0000000000000E-08
0.00127 	1.85487e-08 	0.92 	0.04 	0.04 	0.0291657 	3.80017 	
3.77101 	3.97141 	-0.200405 	-1.66723 	1.47052e-07 	29.2103 	0.833613 	
8.35714e-11 	7244.08 	123.46 	141.616 	0.35 	6.604 	-0.252457 	3.38667e-05 	
0.000900955 	0.000600637 	0.000297559 	10200.5 	0.0867269 	0.0530419 	10200.3 	10200.3 	0 	
0.00133773 	1.39176e-08 	0.92 	0.04 	0.04 	0.0291654 	3.80017 	
3.77101 	3.97141 	-0.200407 	-3.33458 	1.29772e-07 	26.7094 	3.33452 	
1.67149e-10 	14488.2 	246.919 	283.231 	0.35 	13.208 	-0.252467 	6.77333e-05 	
0.00180191 	0.00120127 	0.000298644 	9904.58 	0.0771343 	0.265222 	9904.24 	9904.24 	0 	
0.00140547 	9.28592e-09 	0.92 	0.04 	0.04 	0.0291653 	3.80017 	
3.771 	3.97141 	-0.200414 	-3.33499 	1.12489e-07 	23.3747 	6.6693 	
1.6717e-10 	14488.2 	246.919 	283.231 	0.35 	13.208 	-0.252497 	6.77333e-05 	
0.00180191 	0.00120127 	0.000296662 	10170.6 	0.0591458 	0.901829 	10169.6 	10169.6 	0 	
0.0014732 	4.65402e-09 	0.92 	0.04 	0.04 	0.0291651 	3.80016 	
3.77099 	3.97141 	-0.200424 	-3.33568 	9.52035e-08 	20.0393 	10.0046 	
1.67204e-10 	14488.2 	246.919 	283.231 	0.35 	13.208 	-0.25255 	6.77333e-05 	
0.00180191 	0.00120127 	0.000296802 	9843.16 	0.0435505 	1.96307 	9841.16 	9841.16 	0 	
0.00154093 	2.00381e-11 	0.92 	0.04 	0.04 	0.029165 	3.80014 	
3.77098 	3.97141 	-0.200439 	-3.33665 	7.79125e-08 	16.7032 	13.3408 	
1.67253e-10 	14488.2 	246.919 	283.231 	0.35 	13.208 	-0.252623 	6.77333e-05 	
0.00180191 	0.00120127 	0.00029651 	9792.99 	0.0303485 	3.44931 	9789.51 	9789.51 	0 	
0.00160867 	-4.61568e-09 	0.92 	0.04 	0.04 	0.0291649 	3.80012 	
3.77096 	3.97141 	-0.200458 	-3.3379 	6.06151e-08 	13.3659 	16.6781 	
1.67316e-10 	14488.2 	246.919 	283.231 	0.35 	13.208 	-0.252718 	6.77333e-05 	
0.00180191 	0.00120127 	0.000295745 	9860.97 	0.0195409 	5.36104 	9855.59 	9855.59 	0 	
0.0016764 	-9.25317e-09 	0.92 	0.04 	0.04 	0.0291648 	3.8001 	
3.77093 	3.97141 	-0.200482 	-3.33944 	4.33097e-08 	10.0272 	20.0167 	
1.67393e-10 	14488.2 	246.919 	283.231 	0.35 	13.208 	-0.252835 	6.77333e-05 	
0.00180191 	0.00120127 	0.000297227 	9913.13 	0.0111293 	7.69889 	9905.42 	9905.42 	0 	
0.00174413 	-1.38939e-08 	0.92 	0.04 	0.04 	0.0291647 	3.80007 	
3.7709 	3.97141 	-0.20051 	-3.34126 	2.59948e-08 	6.68687 	23.3571 	
1.67484e-10 	14488.2 	246.919 	283.231 	0.35 	13.208 	-0.252972 	6.77333e-05 	
0.00180191 	0.00120127 	0.000296893 	9941.08 	0.00511646 	10.4637 	9930.61 	9930.61 	0 	
0.00181187 	-1.85376e-08 	0.92 	0.04 	0.04 	0.0291647 	3.80004 	
3.77087 	3.97141 	-0.200542 	-3.34336 	8.6697e-09 	3.34456 	26.6994 	
1.67589e-10 	14488.2 	246.919 	283.231 	0.35 	13.208 	-0.253132 	6.77333e-05 	
0.00180191 	0.00120127 	0.000296041 	9827.59 	0.00150575 	13.6563 	9813.93 	9813.93 	0 	
0.0018796 	0 	0.92 	0.04 	0.04 	0.0291647 	3.8 	
3.77084 	3.97141 	-0.200579 	-1.67287 	8.6697e-09 	0.836437 	29.2075 	
8.38545e-11 	7244.08 	123.46 	141.616 	0.35 	6.604 	-0.253312 	3.38667e-05 	
0.000900955 	0.000600637 	0.000297417 	9959.95 	0.000301409 	15.3597 	9944.59 	9944.59 	0 	
ZONE T = "t = 4e-08 [s]" I = 10 SOLUTIONTIME = 4.0000000000000E-08
0.00127 	1.85449e-08 	0.92 	0.04 	0.04 	0.0291657 	3.80017 	
3.77101 	3.97141 	-0.200405 	-1.66723 	1.47052e-07 	29.2103 	0.833613 	
1.25357e-10 	7244.08 	123.46 	141.616 	0.35 	6.604 	-0.252457 	3.38667e-05 	
0.000900955 	0.000600637 	0.000396675 	9911.65 	0.0867269 	0.0530419 	9911.51 	9911.51 	0 	
0.00133773 	1.39138e-08 	0.92 	0.04 	0.04 	0.0291654 	3.80017 	
3.77101 	3.97141 	-0.200407 	-3.33458 	1.29772e-07 	26.7094 	3.33452 	
2.50724e-10 	14488.2 	246.919 	283.231 	0.35 	13.208 	-0.252467 	6.77333e-05 	
0.00180191 	0.00120127 	0.00039769 	9904.58 	0.0771343 	0.265222 	9904.24 	9904.24 	0 	
0.00140547 	9.2821e-09 	0.92 	0.04 	0.04 	0.0291653 	3.80017 	
3.771 	3.97141 	-0.200414 	-3.33499 	1.12489e-07 	23.3747 	6.6693 	
2.50754e-10 	14488.2 	246.919 	283.231 	0.35 	13.208 	-0.252497 	6.77333e-05 	
0.00180191 	0.00120127 	0.000395479 	9881.75 	0.0591458 	0.901829 	9880.79 	9880.79 	0 	
0.0014732 	4.64948e-09 	0.92 	0.04 	0.04 	0.0291651 	3.80016 	
3.77099 	3.97141 	-0.200424 	-3.33568 	9.52035e-08 	20.0393 	10.0046 	
2.50806e-10 	14488.2 	246.919 	283.231 	0.35 	13.208 	-0.25255 	6.77333e-05 	
0.00180191 	0.00120127 	0.000395317 	9851.53 	0.0435505 	1.96307 	9849.53 	9849.53 	0 	
0.00154093 	1.47715e-11 	0.92 	0.04 	0.04 	0.029165 	3.80014 	
3.77098 	3.97141 	-0.200439 	-3.33665 	7.79125e-08 	16.7032 	13.3408 	
2.50879e-10 	14488.2 	246.919 	283.231 	0.35 	13.208 	-0.252623 	6.77333e-05 	
0.00180191 	0.00120127 	0.00039444 	9792.99 	0.0303485 	3.44931 	9789.51 	9789.51 	0 	
0.00160867 	-4.62095e-09 	0.92 	0.04 	0.04 	0.0291649 	3.80012 	
3.77096 	3.97141 	-0.200458 	-3.3379 	6.06151e-08 	13.3659 	16.6781 	
2.50974e-10 	14488.2 	246.919 	283.231 	0.35 	13.208 	-0.252718 	6.77333e-05 	
0.00180191 	0.00120127 	0.000392974 	9722.84 	0.0195409 	5.36104 	9717.46 	9717.46 	0 	
0.0016764 	-9.25916e-09 	0.92 	0.04 	0.04 	0.0291648 	3.8001 	
3.77093 	3.97141 	-0.200482 	-3.33944 	4.33097e-08 	10.0272 	20.0167 	
2.51089e-10 	14488.2 	246.919 	283.231 	0.35 	13.208 	-0.252835 	6.77333e-05 	
0.00180191 	0.00120127 	0.000394977 	9775.01 	0.0111293 	7.69889 	9767.3 	9767.3 	0 	
0.00174413 	-1.38995e-08 	0.92 	0.04 	0.04 	0.0291647 	3.80007 	
3.7709 	3.97141 	-0.20051 	-3.34126 	2.59948e-08 	6.68687 	23.3571 	
2.51226e-10 	14488.2 	246.919 	283.231 	0.35 	13.208 	-0.252972 	6.77333e-05 	
0.00180191 	0.00120127 	0.000394964 	9807.14 	0.00511646 	10.4637 	9796.67 	9796.67 	0 	
0.00181187 	-1.85425e-08 	0.92 	0.04 	0.04 	0.0291647 	3.80004 	
3.77087 	3.97141 	-0.200542 	-3.34336 	8.67003e-09 	3.34456 	26.6994 	
2.51384e-10 	14488.2 	246.919 	283.231 	0.35 	13.208 	-0.253132 	6.77333e-05 	
0.00180191 	0.00120127 	0.000394359 	9831.77 	0.00150575 	13.6563 	9818.11 	9818.11 	0 	
0.0018796 	0 	0.92 	0.04 	0.04 	0.0291647 	3.8 	
3.77084 	3.97141 	-0.200579 	-1.67287 	8.67003e-09 	0.836437 	29.2075 	
1.25782e-10 	7244.08 	123.46 	141.616 	0.35 	6.604 	-0.253312 	3.38667e-05 	
0.000900955 	0.000600637 	0.000396975 	9955.77 	0.000301409 	15.3597 	9940.41 	9940.41 	0 	
ZONE T = "t = 5.5e-08 [s]" I = 10 SOLUTIONTIME = 5.5000000000000E-08
0.00127 	1.85499e-08 	0.92 	0.04 	0.04 	0.0291657 	3.80017 	
3.77101 	3.97141 	-0.200405 	-1.66723 	1.47052e-07 	29.2103 	0.833613 	
1.67143e-10 	7244.08 	123.46 	141.616 	0.35 	6.604 	-0.252457 	3.38667e-05 	
0.000900955 	0.000600637 	0.000546836 	10010.7 	0.0867269 	0.0530419 	10010.6 	10010.6 	0 	
0.00133773 	1.3919e-08 	0.92 	0.04 	0.04 	0.0291654 	3.80017 	
3.77101 	3.97141 	-0.200407 	-3.33458 	1.29772e-07 	26.7094 	3.33452 	
3.34298e-10 	14488.2 	246.919 	283.231 	0.35 	13.208 	-0.252467 	6.77333e-05 	
0.00180191 	0.00120127 	0.000549126 	10095.7 	0.0771343 	0.265222 	10095.4 	10095.4 	0 	
0.00140547 	9.28713e-09 	0.92 	0.04 	0.04 	0.0291653 	3.80017 	
3.771 	3.97141 	-0.200414 	-3.33499 	1.12489e-07 	23.3747 	6.6693 	
3.34339e-10 	14488.2 	246.919 	283.231 	0.35 	13.208 	-0.252497 	6.77333e-05 	
0.00180191 	0.00120127 	0.000545191 	9980.81 	0.0591458 	0.901829 	9979.85 	9979.85 	0 	
0.0014732 	4.65474e-09 	0.92 	0.04 	0.04 	0.0291651 	3.80016 	
3.77099 	3.97141 	-0.200424 	-3.33568 	9.52035e-08 	20.0393 	10.0046 	
3.34408e-10 	14488.2 	246.919 	283.231 	0.35 	13.208 	-0.25255 	6.77333e-05 	
0.00180191 	0.00120127 	0.000545748 	10028.7 	0.0435505 	1.96307 	10026.7 	10026.7 	0 	
0.00154093 	2.14909e-11 	0.92 	0.04 	0.04 	0.029165 	3.80014 	
3.77098 	3.97141 	-0.200439 	-3.33665 	7.79125e-08 	16.7032 	13.3408 	
3.34506e-10 	14488.2 	246.919 	283.231 	0.35 	13.208 	-0.252623 	6.77333e-05 	
0.00180191 	0.00120127 	0.000545479 	10069.2 	0.0303485 	3.44931 	10065.8 	10065.8 	0 	
0.00160867 	-4.61423e-09 	0.92 	0.04 	0.04 	0.0291649 	3.80012 	
3.77096 	3.97141 	-0.200458 	-3.3379 	6.06151e-08 	13.3659 	16.6781 	
3.34631e-10 	14488.2 	246.919 	283.231 	0.35 	13.208 	-0.252718 	6.77333e-05 	
0.00180191 	0.00120127 	0.000541579 	9907.01 	0.0195409 	5.36104 	9901.63 	9901.63 	0 	
0.0016764 	-9.2516e-09 	0.92 	0.04 	0.04 	0.0291648 	3.8001 	
3.77093 	3.97141 	-0.200482 	-3.33944 	4.33097e-08 	10.0272 	20.0167 	
3.34785e-10 	14488.2 	246.919 	283.231 	0.35 	13.208 	-0.252835 	6.77333e-05 	
0.00180191 	0.00120127 	0.000545013 	10002.4 	0.0111293 	7.69889 	9994.71 	9994.71 	0 	
0.00174413 	-1.38917e-08 	0.92 	0.04 	0.04 	0.0291647 	3.80007 	
3.7709 	3.97141 	-0.20051 	-3.34126 	2.59948e-08 	6.68687 	23.3571 	
3.34968e-10 	14488.2 	246.919 	283.231 	0.35 	13.208 	-0.252972 	6.77333e-05 	
0.00180191 	0.00120127 	0.000542093 	9808.54 	0.00511646 	10.4637 	9798.07 	9798.07 	0 	
0.00181187 	-1.85348e-08 	0.92 	0.04 	0.04 	0.0291647 	3.80004 	
3.77087 	3.97141 	-0.200542 	-3.34336 	8.67035e-09 	3.34456 	26.6994 	
3.35179e-10 	14488.2 	246.919 	283.231 	0.35 	13.208 	-0.253132 	6.77333e-05 	
0.00180191 	0.00120127 	0.000543698 	9955.94 	0.00150575 	13.6563 	9942.29 	9942.29 	0 	
0.0018796 	0 	0.92 	0.04 	0.04 	0.0291647 	3.8 	
3.77084 	3.97141 	-0.200579 	-1.67287 	8.67035e-09 	0.836437 	29.2075 	
1.67709e-10 	7244.08 	123.46 	141.616 	0.35 	6.604 	-0.253312 	3.38667e-05 	
0.000900955 	0.000600637 	0.000544365 	9826.01 	0.000301409 	15.3597 	9810.65 	9810.65 	0 	
ZONE T = "t = 7.75e-08 [s]" I = 10 SOLUTIONTIME = 7.7500000000000E-08
0.00127 	1.85456e-08 	0.92 	0.04 	0.04 	0.0291657 	3.80017 	
3.77101 	3.97141 	-0.200405 	-1.66723 	1.47053e-07 	29.2103 	0.833613 	
2.29821e-10 	7244.08 	123.46 	141.616 	0.35 	6.604 	-0.252457 	3.38667e-05 	
0.000900955 	0.000600637 	0.000767891 	9824.68 	0.0867269 	0.0530419 	9824.54 	9824.54 	0 	
0.00133773 	1.39144e-08 	0.92 	0.04 	0.04 	0.0291654 	3.80017 	
3.77101 	3.97141 	-0.200407 	-3.33458 	1.29772e-07 	26.7094 	3.33452 	
4.5966e-10 	14488.2 	246.919 	283.231 	0.35 	13.208 	-0.252467 	6.77333e-05 	
0.00180191 	0.00120127 	0.000772785 	9940.39 	0.0771343 	0.265222 	9940.05 	9940.05 	0 	
0.00140547 	9.28285e-09 	0.92 	0.04 	0.04 	0.0291653 	3.80017 	
3.771 	3.97141 	-0.200414 	-3.33499 	1.12489e-07 	23.3747 	6.6693 	
4.59716e-10 	14488.2 	246.919 	283.231 	0.35 	13.208 	-0.252497 	6.77333e-05 	
0.00180191 	0.00120127 	0.000765574 	9794.78 	0.0591458 	0.901829 	9793.82 	9793.82 	0 	
0.0014732 	4.65006e-09 	0.92 	0.04 	0.04 	0.0291651 	3.80016 	
3.77099 	3.97141 	-0.200424 	-3.33568 	9.52035e-08 	20.0393 	10.0046 	
4.59811e-10 	14488.2 	246.919 	283.231 	0.35 	13.208 	-0.25255 	6.77333e-05 	
0.00180191 	0.00120127 	0.000767983 	9877.11 	0.0435505 	1.96307 	9875.11 	9875.11 	0 	
0.00154093 	1.57603e-11 	0.92 	0.04 	0.04 	0.029165 	3.80014 	
3.77098 	3.97141 	-0.200439 	-3.33665 	7.79125e-08 	16.7032 	13.3408 	
4.59945e-10 	14488.2 	246.919 	283.231 	0.35 	13.208 	-0.252623 	6.77333e-05 	
0.00180191 	0.00120127 	0.000766533 	9824.61 	0.0303485 	3.44931 	9821.13 	9821.13 	0 	
0.00160867 	-4.6198e-09 	0.92 	0.04 	0.04 	0.0291649 	3.80012 	
3.77096 	3.97141 	-0.200458 	-3.3379 	6.06151e-08 	13.3659 	16.6781 	
4.60118e-10 	14488.2 	246.919 	283.231 	0.35 	13.208 	-0.252718 	6.77333e-05 	
0.00180191 	0.00120127 	0.000765114 	9934.91 	0.0195409 	5.36104 	9929.53 	9929.53 	0 	
0.0016764 	-9.25765e-09 	0.92 	0.04 	0.04 	0.0291648 	3.8001 	
3.77093 	3.97141 	-0.200482 	-3.33944 	4.33097e-08 	10.0272 	20.0167 	
4.6033e-10 	14488.2 	246.919 	283.231 	0.35 	13.208 	-0.252835 	6.77333e-05 	
0.00180191 	0.00120127 	0.000767912 	9906.62 	0.0111293 	7.69889 	9898.91 	9898.91 	0 	
0.00174413 	-1.3898e-08 	0.92 	0.04 	0.04 	0.0291647 	3.80007 	
3.7709 	3.97141 	-0.20051 	-3.34126 	2.59948e-08 	6.68687 	23.3571 	
4.60581e-10 	14488.2 	246.919 	283.231 	0.35 	13.208 	-0.252972 	6.77333e-05 	
0.00180191 	0.00120127 	0.000765421 	9925.73 	0.00511646 	10.4637 	9915.26 	9915.26 	0 	
0.00181187 	-1.85413e-08 	0.92 	0.04 	0.04 	0.0291647 	3.80004 	
3.77087 	3.97141 	-0.200542 	-3.34336 	8.67083e-09 	3.34456 	26.6994 	
4.60871e-10 	14488.2 	246.919 	283.231 	0.35 	13.208 	-0.253132 	6.77333e-05 	
0.00180191 	0.00120127 	0.000765719 	9867.58 	0.00150575 	13.6563 	9853.92 	9853.92 	0 	
0.0018796 	0 	0.92 	0.04 	0.04 	0.0291647 	3.8 	
3.77084 	3.97141 	-0.200579 	-1.67287 	8.67083e-09 	0.836437 	29.2075 	
2.306e-10 	7244.08 	123.46 	141.616 	0.35 	6.604 	-0.253312 	3.38667e-05 	
0.000900955 	0.000600637 	0.000768736 	9972.04 	0.000301409 	15.3597 	9956.68 	9956.68 	0 	
ZONE T = "t = 1.1125e-07 [s]" I = 10 SOLUTIONTIME = 1.1125000000000E-07
0.00127 	1.85472e-08 	0.92 	0.04 	0.04 	0.0291657 	3.80017 	
3.77101 	3.97141 	-0.200405 	-1.66723 	1.47053e-07 	29.2103 	0.833613 	
3.23839e-10 	7244.08 	123.46 	141.616 	0.35 	6.604 	-0.252457 	3.38667e-05 	
0.000900955 	0.000600637 	0.00110096 	9868.71 	0.0867269 	0.0530419 	9868.57 	9868.57 	0 	
0.00133773 	1.3916e-08 	0.92 	0.04 	0.04 	0.0291654 	3.80017 	
3.77101 	3.97141 	-0.200407 	-3.33458 	1.29772e-07 	26.7094 	3.33452 	
6.47703e-10 	14488.2 	246.919 	283.231 	0.35 	13.208 	-0.252467 	6.77333e-05 	
0.00180191 	0.00120127 	0.00110419 	9819.47 	0.0771343 	0.265222 	9819.13 	9819.13 	0 	
0.00140547 	9.28436e-09 	0.92 	0.04 	0.04 	0.0291653 	3.80017 	
3.771 	3.97141 	-0.200414 	-3.33499 	1.12489e-07 	23.3747 	6.6693 	
6.47782e-10 	14488.2 	246.919 	283.231 	0.35 	13.208 	-0.252497 	6.77333e-05 	
0.00180191 	0.00120127 	0.00109763 	9838.81 	0.0591458 	0.901829 	9837.85 	9837.85 	0 	
0.0014732 	4.6513e-09 	0.92 	0.04 	0.04 	0.0291651 	3.80016 	
3.77099 	3.97141 	-0.200424 	-3.33568 	9.52035e-08 	20.0393 	10.0046 	
6.47916e-10 	14488.2 	246.919 	283.231 	0.35 	13.208 	-0.25255 	6.77333e-05 	
0.00180191 	0.00120127 	0.00110276 	9919.28 	0.0435505 	1.96307 	9917.27 	9917.27 	0 	
0.00154093 	1.74283e-11 	0.92 	0.04 	0.04 	0.029165 	3.80014 	
3.77098 	3.97141 	-0.200439 	-3.33665 	7.79125e-08 	16.7032 	13.3408 	
6.48105e-10 	14488.2 	246.919 	283.231 	0.35 	13.208 	-0.252623 	6.77333e-05 	
0.00180191 	0.00120127 	0.00109943 	9863.68 	0.0303485 	3.44931 	9860.2 	9860.2 	0 	
0.00160867 	-4.6184e-09 	0.92 	0.04 	0.04 	0.0291649 	3.80012 	
3.77096 	3.97141 	-0.200458 	-3.3379 	6.06151e-08 	13.3659 	16.6781 	
6.48348e-10 	14488.2 	246.919 	283.231 	0.35 	13.208 	-0.252718 	6.77333e-05 	
0.00180191 	0.00120127 	0.00109975 	9915.07 	0.0195409 	5.36104 	9909.69 	9909.69 	0 	
0.0016764 	-9.25636e-09 	0.92 	0.04 	0.04 	0.0291648 	3.8001 	
3.77093 	3.97141 	-0.200482 	-3.33944 	4.33097e-08 	10.0272 	20.0167 	
6.48647e-10 	14488.2 	246.919 	283.231 	0.35 	13.208 	-0.252835 	6.77333e-05 	
0.00180191 	0.00120127 	0.00109822 	9786.94 	0.0111293 	7.69889 	9779.23 	9779.23 	0 	
0.00174413 	-1.38968e-08 	0.92 	0.04 	0.04 	0.0291647 	3.80007 	
3.7709 	3.97141 	-0.20051 	-3.34126 	2.59948e-08 	6.68687 	23.3571 	
6.49e-10 	14488.2 	246.919 	283.231 	0.35 	13.208 	-0.252972 	6.77333e-05 	
0.00180191 	0.00120127 	0.00109774 	9846.36 	0.00511646 	10.4637 	9835.89 	9835.89 	0 	
0.00181187 	-1.85401e-08 	0.92 	0.04 	0.04 	0.0291647 	3.80004 	
3.77087 	3.97141 	-0.200542 	-3.34336 	8.67155e-09 	3.34456 	26.6994 	
6.49409e-10 	14488.2 	246.919 	283.231 	0.35 	13.208 	-0.253132 	6.77333e-05 	
0.00180191 	0.00120127 	0.00110222 	9970.52 	0.00150575 	13.6563 	9956.86 	9956.86 	0 	
0.0018796 	0 	0.92 	0.04 	0.04 	0.0291647 	3.8 	
3.77084 	3.97141 	-0.200579 	-1.67287 	8.67155e-09 	0.836437 	29.2075 	
3.24936e-10 	7244.08 	123.46 	141.616 	0.35 	6.604 	-0.253312 	3.38667e-05 	
0.000900955 	0.000600637 	0.00110343 	9916.86 	0.000301409 	15.3597 	9901.5 	9901.5 	0 	
ZONE T = "t = 1.61875e-07 [s]" I = 10 SOLUTIONTIME = 1.6187500000000E-07
0.00127 	1.85486e-08 	0.92 	0.04 	0.04 	0.0291657 	3.80017 	
3.77101 	3.97141 	-0.200405 	-1.66723 	1.47053e-07 	29.2103 	0.833613 	
4.64866e-10 	7244.08 	123.46 	141.616 	0.35 	6.604 	-0.252457 	3.38667e-05 	
0.000900955 	0.000600637 	0.00159839 	9825.71 	0.0867269 	0.0530419 	9825.57 	9825.57 	0 	
0.00133773 	1.39174e-08 	0.92 	0.04 	0.04 	0.0291654 	3.80017 	
3.77101 	3.97141 	-0.200407 	-3.33458 	1.29772e-07 	26.7094 	3.33452 	
9.29767e-10 	14488.2 	246.919 	283.231 	0.35 	13.208 	-0.252467 	6.77333e-05 	
0.00180191 	0.00120127 	0.00160407 	9874.04 	0.0771343 	0.265222 	9873.7 	9873.7 	0 	
0.00140547 	9.28568e-09 	0.92 	0.04 	0.04 	0.0291653 	3.80017 	
3.771 	3.97141 	-0.200414 	-3.33499 	1.12489e-07 	23.3747 	6.6693 	
9.29881e-10 	14488.2 	246.919 	283.231 	0.35 	13.208 	-0.252497 	6.77333e-05 	
0.00180191 	0.00120127 	0.00159493 	9823.1 	0.0591458 	0.901829 	9822.14 	9822.14 	0 	
0.0014732 	4.65334e-09 	0.92 	0.04 	0.04 	0.0291651 	3.80016 	
3.77099 	3.97141 	-0.200424 	-3.33568 	9.52035e-08 	20.0393 	10.0046 	
9.30073e-10 	14488.2 	246.919 	283.231 	0.35 	13.208 	-0.25255 	6.77333e-05 	
0.00180191 	0.00120127 	0.00160082 	9838.25 	0.0435505 	1.96307 	9836.25 	9836.25 	0 	
0.00154093 	1.93654e-11 	0.92 	0.04 	0.04 	0.029165 	3.80014 	
3.77098 	3.97141 	-0.200439 	-3.33665 	7.79125e-08 	16.7032 	13.3408 	
9.30344e-10 	14488.2 	246.919 	283.231 	0.35 	13.208 	-0.252623 	6.77333e-05 	
0.00180191 	0.00120127 	0.00159884 	9864.92 	0.0303485 	3.44931 	9861.44 	9861.44 	0 	
0.00160867 	-4.61635e-09 	0.92 	0.04 	0.04 	0.0291649 	3.80012 	
3.77096 	3.97141 	-0.200458 	-3.3379 	6.06151e-08 	13.3659 	16.6781 	
9.30693e-10 	14488.2 	246.919 	283.231 	0.35 	13.208 	-0.252718 	6.77333e-05 	
0.00180191 	0.00120127 	0.00159963 	9874.14 	0.0195409 	5.36104 	9868.76 	9868.76 	0 	
0.0016764 	-9.25406e-09 	0.92 	0.04 	0.04 	0.0291648 	3.8001 	
3.77093 	3.97141 	-0.200482 	-3.33944 	4.33097e-08 	10.0272 	20.0167 	
9.31122e-10 	14488.2 	246.919 	283.231 	0.35 	13.208 	-0.252835 	6.77333e-05 	
0.00180191 	0.00120127 	0.00159781 	9868.38 	0.0111293 	7.69889 	9860.67 	9860.67 	0 	
0.00174413 	-1.38944e-08 	0.92 	0.04 	0.04 	0.0291647 	3.80007 	
3.7709 	3.97141 	-0.20051 	-3.34126 	2.59948e-08 	6.68687 	23.3571 	
9.31629e-10 	14488.2 	246.919 	283.231 	0.35 	13.208 	-0.252972 	6.77333e-05 	
0.00180191 	0.00120127 	0.00159757 	9873.23 	0.00511646 	10.4637 	9862.76 	9862.76 	0 	
0.00181187 	-1.85378e-08 	0.92 	0.04 	0.04 	0.0291647 	3.80004 	
3.77087 	3.97141 	-0.200542 	-3.34336 	8.67264e-09 	3.34456 	26.6994 	
9.32216e-10 	14488.2 	246.919 	283.231 	0.35 	13.208 	-0.253132 	6.77333e-05 	
0.00180191 	0.00120127 	0.00160422 	9915.95 	0.00150575 	13.6563 	9902.29 	9902.29 	0 	
0.0018796 	0 	0.92 	0.04 	0.04 	0.0291647 	3.8 	
3.77084 	3.97141 	-0.200579 	-1.67287 	8.67264e-09 	0.836437 	29.2075 	
4.66441e-10 	7244.08 	123.46 	141.616 	0.35 	6.604 	-0.253312 	3.38667e-05 	
0.000900955 	0.000600637 	0.00160664 	9940.01 	0.000301409 	15.3597 	9924.65 	9924.65 	0 	
ZONE T = "t = 2.37813e-07 [s]" I = 10 SOLUTIONTIME = 2.3781250000000E-07
0.00127 	1.85471e-08 	0.92 	0.04 	0.04 	0.0291657 	3.80017 	
3.77101 	3.97141 	-0.200405 	-1.66723 	1.47054e-07 	29.2103 	0.833613 	
6.76406e-10 	7244.08 	123.46 	141.616 	0.35 	6.604 	-0.252457 	3.38667e-05 	
0.000900955 	0.000600637 	0.00234804 	9872.01 	0.0867269 	0.0530419 	9871.87 	9871.87 	0 	
0.00133773 	1.39161e-08 	0.92 	0.04 	0.04 	0.0291654 	3.80017 	
3.77101 	3.97141 	-0.200407 	-3.33458 	1.29772e-07 	26.7094 	3.33452 	
1.35286e-09 	14488.2 	246.919 	283.231 	0.35 	13.208 	-0.252467 	6.77333e-05 	
0.00180191 	0.00120127 	0.00235452 	9882.58 	0.0771343 	0.265222 	9882.24 	9882.24 	0 	
0.00140547 	9.28444e-09 	0.92 	0.04 	0.04 	0.0291653 	3.80017 	
3.771 	3.97141 	-0.200414 	-3.33499 	1.12489e-07 	23.3747 	6.6693 	
1.35303e-09 	14488.2 	246.919 	283.231 	0.35 	13.208 	-0.252497 	6.77333e-05 	