TITLE = "Solution on Domain BulkDomain1D_0"
VARIABLES = "x [m]"  
"Vel_axial(0)" 	"MF_sp(ECDMC)" 	"MF_sp(Li+)" 	"MF_sp(PF6-)" 	"Volt(Electroly)" 	"Volt(AnodeVolt)" 	
"Potential Drop Electrode-Electrolyte [V]" 	"Surf_0 Equilibrium Potential Drop Electrode-Electrolyte [V]" 	"Overpotential_0 [V]" 	"Current Source [A/m^2]" 	"Li+ flux [kmol/m^2/s]" 	"Electrolyte Current [A/m^2]" 	"Electrode Current [A/m^2]" 	
"Capacity discharged [A-s]" 	"Depth of discharge [-]" 	"Capacity remaining [A-s]" 	"Initial capacity [A-s]" 	"Porosity []" 	"Surface Area [m2/m2] (area per area)" 	"Specific current (per particle area) [A/m^2]" 	"Control volume thickness [m]" 	
"Moles Li_C6-bulk [mol/m^2] (per electrode area)" 	"Moles V_C6-bulk [mol/m^2] (per electrode area)" 	"qHeat_accum [J/m3]" 	"qHeat_step [W/m3]" 	"Joule_Lyte [W/m3]" 	"Joule_Solid [W/m3]" 	"electrodHeat [W/m3]" 	"OverpotHeat [W/m3]" 	"deltaSHeat [W/m3]" 	

ZONE T = "t = 0 [s]" I = 10 SOLUTIONTIME = 0.0000000000000E+00
0 	0 	0.92 	0.04 	0.04 	-0.07 	0 	
0 	0 	0 	0 	0 	0 	15.4651 	
0 	0 	0 	0 	0.35 	8.53017 	3.62598 	4.37444e-05 	
0.00379119 	0.000947796 	0 	0.0 	 0.0 	 0.0 	 0.0 	 0.0 	 0.0 	 
8.74889e-05 	0 	0.92 	0.04 	0.04 	-0.07 	0 	
0 	0 	0 	0 	0 	0 	-0 	
0 	0 	0 	0 	0.35 	17.0603 	3.62598 	8.74889e-05 	
0.00758237 	0.00189559 	0 	0.0 	 0.0 	 0.0 	 0.0 	 0.0 	 0.0 	 
0.000174978 	0 	0.92 	0.04 	0.04 	-0.07 	0 	
0 	0 	0 	0 	0 	0 	-0 	
0 	0 	0 	0 	0.35 	17.0603 	3.62598 	8.74889e-05 	
0.00758237 	0.00189559 	0 	0.0 	 0.0 	 0.0 	 0.0 	 0.0 	 0.0 	 
0.000262467 	0 	0.92 	0.04 	0.04 	-0.07 	0 	
0 	0 	0 	0 	0 	0 	-0 	
0 	0 	0 	0 	0.35 	17.0603 	3.62598 	8.74889e-05 	
0.00758237 	0.00189559 	0 	0.0 	 0.0 	 0.0 	 0.0 	 0.0 	 0.0 	 
0.000349956 	0 	0.92 	0.04 	0.04 	-0.07 	0 	
0 	0 	0 	0 	0 	0 	-0 	
0 	0 	0 	0 	0.35 	17.0603 	3.62598 	8.74889e-05 	
0.00758237 	0.00189559 	0 	0.0 	 0.0 	 0.0 	 0.0 	 0.0 	 0.0 	 
0.000437444 	0 	0.92 	0.04 	0.04 	-0.07 	0 	
0 	0 	0 	0 	0 	0 	-0 	
0 	0 	0 	0 	0.35 	17.0603 	3.62598 	8.74889e-05 	
0.00758237 	0.00189559 	0 	0.0 	 0.0 	 0.0 	 0.0 	 0.0 	 0.0 	 
0.000524933 	0 	0.92 	0.04 	0.04 	-0.07 	0 	
0 	0 	0 	0 	0 	0 	-0 	
0 	0 	0 	0 	0.35 	17.0603 	3.62598 	8.74889e-05 	
0.00758237 	0.00189559 	0 	0.0 	 0.0 	 0.0 	 0.0 	 0.0 	 0.0 	 
0.000612422 	0 	0.92 	0.04 	0.04 	-0.07 	0 	
0 	0 	0 	0 	0 	0 	-0 	
0 	0 	0 	0 	0.35 	17.0603 	3.62598 	8.74889e-05 	
0.00758237 	0.00189559 	0 	0.0 	 0.0 	 0.0 	 0.0 	 0.0 	 0.0 	 
0.000699911 	0 	0.92 	0.04 	0.04 	-0.07 	0 	
0 	0 	0 	0 	0 	0 	-0 	
0 	0 	0 	0 	0.35 	17.0603 	3.62598 	8.74889e-05 	
0.00758237 	0.00189559 	0 	0.0 	 0.0 	 0.0 	 0.0 	 0.0 	 0.0 	 
0.0007874 	0 	0.92 	0.04 	0.04 	-0.07 	0 	
0 	0 	0 	0 	0 	15.4651 	0 	
0 	0 	0 	0 	0.35 	8.53017 	3.62598 	4.37444e-05 	
0.00379119 	0.000947796 	0 	0.0 	 0.0 	 0.0 	 0.0 	 0.0 	 0.0 	 
ZONE T = "t = 0 [s]" I = 10 SOLUTIONTIME = 0.0000000000000E+00
0 	0 	0.92 	0.04 	0.04 	-0.07 	0 	
0 	0 	0 	0 	0 	0 	15.4651 	
0 	0 	0 	0 	0.35 	8.53017 	3.62598 	4.37444e-05 	
0.00379119 	0.000947796 	0 	0.0 	 0.0 	 0.0 	 0.0 	 0.0 	 0.0 	 
8.74889e-05 	0 	0.92 	0.04 	0.04 	-0.07 	0 	
0 	0 	0 	0 	0 	0 	-0 	
0 	0 	0 	0 	0.35 	17.0603 	3.62598 	8.74889e-05 	
0.00758237 	0.00189559 	0 	0.0 	 0.0 	 0.0 	 0.0 	 0.0 	 0.0 	 
0.000174978 	0 	0.92 	0.04 	0.04 	-0.07 	0 	
0 	0 	0 	0 	0 	0 	-0 	
0 	0 	0 	0 	0.35 	17.0603 	3.62598 	8.74889e-05 	
0.00758237 	0.00189559 	0 	0.0 	 0.0 	 0.0 	 0.0 	 0.0 	 0.0 	 
0.000262467 	0 	0.92 	0.04 	0.04 	-0.07 	0 	
0 	0 	0 	0 	0 	0 	-0 	
0 	0 	0 	0 	0.35 	17.0603 	3.62598 	8.74889e-05 	
0.00758237 	0.00189559 	0 	0.0 	 0.0 	 0.0 	 0.0 	 0.0 	 0.0 	 
0.000349956 	0 	0.92 	0.04 	0.04 	-0.07 	0 	
0 	0 	0 	0 	0 	0 	-0 	
0 	0 	0 	0 	0.35 	17.0603 	3.62598 	8.74889e-05 	
0.00758237 	0.00189559 	0 	0.0 	 0.0 	 0.0 	 0.0 	 0.0 	 0.0 	 
0.000437444 	0 	0.92 	0.04 	0.04 	-0.07 	0 	
0 	0 	0 	0 	0 	0 	-0 	
0 	0 	0 	0 	0.35 	17.0603 	3.62598 	8.74889e-05 	
0.00758237 	0.00189559 	0 	0.0 	 0.0 	 0.0 	 0.0 	 0.0 	 0.0 	 
0.000524933 	0 	0.92 	0.04 	0.04 	-0.07 	0 	
0 	0 	0 	0 	0 	0 	-0 	
0 	0 	0 	0 	0.35 	17.0603 	3.62598 	8.74889e-05 	
0.00758237 	0.00189559 	0 	0.0 	 0.0 	 0.0 	 0.0 	 0.0 	 0.0 	 
0.000612422 	0 	0.92 	0.04 	0.04 	-0.07 	0 	
0 	0 	0 	0 	0 	0 	-0 	
0 	0 	0 	0 	0.35 	17.0603 	3.62598 	8.74889e-05 	
0.00758237 	0.00189559 	0 	0.0 	 0.0 	 0.0 	 0.0 	 0.0 	 0.0 	 
0.000699911 	0 	0.92 	0.04 	0.04 	-0.07 	0 	
0 	0 	0 	0 	0 	0 	-0 	
0 	0 	0 	0 	0.35 	17.0603 	3.62598 	8.74889e-05 	
0.00758237 	0.00189559 	0 	0.0 	 0.0 	 0.0 	 0.0 	 0.0 	 0.0 	 
0.0007874 	0 	0.92 	0.04 	0.04 	-0.07 	0 	
0 	0 	0 	0 	0 	15.4651 	0 	
0 	0 	0 	0 	0.35 	8.53017 	3.62598 	4.37444e-05 	
0.00379119 	0.000947796 	0 	0.0 	 0.0 	 0.0 	 0.0 	 0.0 	 0.0 	 
ZONE T = "t = 1e-08 [s]" I = 10 SOLUTIONTIME = 1.0000000000000E-08
0 	1.15922e-09 	0.92 	0.04 	0.04 	0.0291633 	0 	
0.07 	-0.0409067 	0.110907 	30.9302 	-0 	0.834817 	29.2197 	
0 	91448.4 	916.789 	1145.99 	0.35 	8.53017 	0.195734 	4.37444e-05 	
0.00379119 	0.000947796 	3.76624e-06 	376.624 	0.000300242 	0.00123954 	376.622 	376.622 	0 	
8.74889e-05 	3.47731e-09 	0.92 	0.04 	0.04 	0.0291632 	-3.82055e-09 	
0.07 	-0.0409067 	0.110907 	61.8605 	-0 	3.33927 	26.7152 	
0 	182897 	1833.58 	2291.97 	0.35 	17.0603 	0.195734 	8.74889e-05 	
0.00758237 	0.00189559 	2.76177e-06 	276.177 	0.00150121 	0.00110229 	276.175 	276.175 	0 	
0.000174978 	5.79576e-09 	0.92 	0.04 	0.04 	0.0291632 	-7.19164e-09 	
0.07 	-0.0409067 	0.110907 	61.8605 	-0 	6.67855 	23.3759 	
0 	182897 	1833.58 	2291.97 	0.35 	17.0603 	0.195735 	8.74889e-05 	
0.00758237 	0.00189559 	3.76657e-06 	376.657 	0.00510413 	0.000844957 	376.651 	376.651 	0 	
0.000262467 	8.11423e-09 	0.92 	0.04 	0.04 	0.0291631 	-1.01133e-08 	
0.07 	-0.0409067 	0.110907 	61.8605 	-0 	10.0178 	20.0366 	
0 	182897 	1833.58 	2291.97 	0.35 	17.0603 	0.195736 	8.74889e-05 	
0.00758237 	0.00189559 	3.76701e-06 	376.701 	0.011109 	0.000621931 	376.689 	376.689 	0 	
0.000349956 	1.04324e-08 	0.92 	0.04 	0.04 	0.029163 	-1.25854e-08 	
0.07 	-0.0409067 	0.110907 	61.8605 	-0 	13.3572 	16.6973 	
0 	182897 	1833.58 	2291.97 	0.35 	17.0603 	0.195738 	8.74889e-05 	
0.00758237 	0.00189559 	3.6036e-06 	360.36 	0.019516 	0.000433213 	360.34 	360.34 	0 	
0.000437444 	1.2752e-08 	0.92 	0.04 	0.04 	0.0291629 	-1.46081e-08 	
0.07 	-0.0409067 	0.110907 	61.8605 	-0 	16.6965 	13.358 	
0 	182897 	1833.58 	2291.97 	0.35 	17.0603 	0.195741 	8.74889e-05 	
0.00758237 	0.00189559 	3.30265e-06 	330.265 	0.0303251 	0.000278805 	330.235 	330.235 	0 	
0.000524933 	1.50716e-08 	0.92 	0.04 	0.04 	0.0291627 	-1.61814e-08 	
0.07 	-0.0409067 	0.110907 	61.8605 	-0 	20.0359 	10.0186 	
0 	182897 	1833.58 	2291.97 	0.35 	17.0603 	0.195743 	8.74889e-05 	
0.00758237 	0.00189559 	3.30366e-06 	330.366 	0.0435365 	0.000158707 	330.323 	330.323 	0 	
0.000612422 	1.73909e-08 	0.92 	0.04 	0.04 	0.0291625 	-1.73051e-08 	
0.07 	-0.0409067 	0.110907 	61.8605 	-0 	23.3754 	6.67911 	
0 	182897 	1833.58 	2291.97 	0.35 	17.0603 	0.195747 	8.74889e-05 	
0.00758237 	0.00189559 	3.60663e-06 	360.663 	0.0591502 	7.29209e-05 	360.603 	360.603 	0 	
0.000699911 	1.97103e-08 	0.92 	0.04 	0.04 	0.0291622 	-1.79794e-08 	
0.07 	-0.0409067 	0.110907 	61.8605 	-0 	26.7149 	3.33959 	
0 	182897 	1833.58 	2291.97 	0.35 	17.0603 	0.195751 	8.74889e-05 	
0.00758237 	0.00189559 	3.60801e-06 	360.801 	0.0771666 	2.14477e-05 	360.724 	360.724 	0 	
0.0007874 	2.08698e-08 	0.92 	0.04 	0.04 	0.029162 	-1.82041e-08 	
0.07 	-0.0409067 	0.110907 	30.9302 	-0 	29.2196 	0.834908 	
0 	91448.4 	916.789 	1145.99 	0.35 	8.53017 	0.195755 	4.37444e-05 	
0.00379119 	0.000947796 	3.60948e-06 	360.948 	0.0867754 	4.28967e-06 	360.861 	360.861 	0 	
ZONE T = "t = 2e-08 [s]" I = 10 SOLUTIONTIME = 2.0000000000000E-08
0 	1.15941e-09 	0.92 	0.04 	0.04 	0.0291633 	0 	
-0.0291633 	-0.0409067 	0.0117435 	1.66964 	8.65227e-09 	0.834822 	29.2199 	
4.18463e-11 	91448.4 	916.789 	1145.99 	0.35 	8.53017 	0.195734 	4.37444e-05 	
0.00379119 	0.000947796 	8.37498e-06 	460.874 	0.000600488 	0.00247909 	460.872 	460.872 	0 	
8.74889e-05 	3.47824e-09 	0.92 	0.04 	0.04 	0.0291632 	-3.82058e-09 	
-0.0291632 	-0.0409067 	0.0117435 	3.33929 	2.59568e-08 	3.33929 	26.7154 	
8.36927e-11 	182897 	1833.58 	2291.97 	0.35 	17.0603 	0.195734 	8.74889e-05 	
0.00758237 	0.00189559 	7.28147e-06 	451.97 	0.00300244 	0.0022046 	451.967 	451.967 	0 	
0.000174978 	5.79707e-09 	0.92 	0.04 	0.04 	0.0291632 	-7.19169e-09 	
-0.0291632 	-0.0409067 	0.0117435 	3.33931 	4.32614e-08 	6.67859 	23.3761 	
8.3693e-11 	182897 	1833.58 	2291.97 	0.35 	17.0603 	0.195735 	8.74889e-05 	
0.00758237 	0.00189559 	8.37563e-06 	460.907 	0.0102083 	0.00168993 	460.901 	460.901 	0 	
0.000262467 	8.11592e-09 	0.92 	0.04 	0.04 	0.0291631 	-1.01133e-08 	
-0.0291631 	-0.0409067 	0.0117436 	3.33933 	6.05662e-08 	10.0179 	20.0368 	
8.36936e-11 	182897 	1833.58 	2291.97 	0.35 	17.0603 	0.195736 	8.74889e-05 	
0.00758237 	0.00189559 	8.37653e-06 	460.951 	0.0222182 	0.00124387 	460.94 	460.94 	0 	
0.000349956 	1.04348e-08 	0.92 	0.04 	0.04 	0.029163 	-1.25855e-08 	
-0.029163 	-0.0409067 	0.0117437 	3.33936 	7.7871e-08 	13.3572 	16.6974 	
8.36943e-11 	182897 	1833.58 	2291.97 	0.35 	17.0603 	0.195738 	8.74889e-05 	
0.00758237 	0.00189559 	6.91757e-06 	331.397 	0.0390323 	0.000866431 	331.377 	331.377 	0 	
0.000437444 	1.27537e-08 	0.92 	0.04 	0.04 	0.0291629 	-1.46082e-08 	
-0.0291629 	-0.0409067 	0.0117438 	3.3394 	9.51761e-08 	16.6966 	13.3581 	
8.36953e-11 	182897 	1833.58 	2291.97 	0.35 	17.0603 	0.19574 	8.74889e-05 	
0.00758237 	0.00189559 	8.59412e-06 	529.146 	0.0606506 	0.000557613 	529.116 	529.116 	0 	
0.000524933 	1.50726e-08 	0.92 	0.04 	0.04 	0.0291627 	-1.61815e-08 	
-0.0291627 	-0.0409067 	0.011744 	3.33945 	1.12482e-07 	20.036 	10.0186 	
8.36966e-11 	182897 	1833.58 	2291.97 	0.35 	17.0603 	0.195743 	8.74889e-05 	
0.00758237 	0.00189559 	8.59614e-06 	529.247 	0.0870735 	0.000317416 	529.204 	529.204 	0 	
0.000612422 	1.73916e-08 	0.92 	0.04 	0.04 	0.0291625 	-1.73052e-08 	
-0.0291625 	-0.0409067 	0.0117442 	3.33951 	1.29787e-07 	23.3755 	6.67915 	
8.36981e-11 	182897 	1833.58 	2291.97 	0.35 	17.0603 	0.195747 	8.74889e-05 	
0.00758237 	0.00189559 	6.92363e-06 	331.7 	0.118301 	0.000145843 	331.641 	331.641 	0 	
0.000699911 	1.97106e-08 	0.92 	0.04 	0.04 	0.0291623 	-1.79795e-08 	
-0.0291623 	-0.0409067 	0.0117444 	3.33958 	1.47093e-07 	26.7151 	3.33961 	
8.36998e-11 	182897 	1833.58 	2291.97 	0.35 	17.0603 	0.195751 	8.74889e-05 	
0.00758237 	0.00189559 	6.9264e-06 	331.839 	0.154334 	4.28957e-05 	331.761 	331.761 	0 	
0.0007874 	2.08701e-08 	0.92 	0.04 	0.04 	0.029162 	-1.82042e-08 	
-0.029162 	-0.0409067 	0.0117447 	1.66983 	1.47093e-07 	29.2198 	0.834913 	
4.18509e-11 	91448.4 	916.789 	1145.99 	0.35 	8.53017 	0.195755 	4.37444e-05 	
0.00379119 	0.000947796 	6.92933e-06 	331.985 	0.173552 	8.57939e-06 	331.898 	331.898 	0 	
ZONE T = "t = 3e-08 [s]" I = 10 SOLUTIONTIME = 3.0000000000000E-08
0 	1.15977e-09 	0.92 	0.04 	0.04 	0.0291633 	0 	
-0.0291633 	-0.0409067 	0.0117435 	1.66964 	8.65232e-09 	0.834822 	29.2199 	
8.36926e-11 	91448.4 	916.789 	1145.99 	0.35 	8.53017 	0.195734 	4.37444e-05 	
0.00379119 	0.000947796 	1.27974e-05 	442.241 	0.000900734 	0.00371865 	442.24 	442.24 	0 	
8.74889e-05 	3.47969e-09 	0.92 	0.04 	0.04 	0.0291632 	-3.82058e-09 	
-0.0291632 	-0.0409067 	0.0117435 	3.33929 	2.5957e-08 	3.33929 	26.7154 	
1.67385e-10 	182897 	1833.58 	2291.97 	0.35 	17.0603 	0.195734 	8.74889e-05 	
0.00758237 	0.00189559 	1.14285e-05 	414.705 	0.00450367 	0.00330691 	414.702 	414.702 	0 	
0.000174978 	5.79852e-09 	0.92 	0.04 	0.04 	0.0291632 	-7.19169e-09 	
-0.0291632 	-0.0409067 	0.0117435 	3.3393 	4.32617e-08 	6.67859 	23.3761 	
1.67386e-10 	182897 	1833.58 	2291.97 	0.35 	17.0603 	0.195735 	8.74889e-05 	
0.00758237 	0.00189559 	1.27984e-05 	442.274 	0.0153125 	0.00253489 	442.268 	442.268 	0 	
0.000262467 	8.11737e-09 	0.92 	0.04 	0.04 	0.0291631 	-1.01133e-08 	
-0.0291631 	-0.0409067 	0.0117436 	3.33933 	6.05665e-08 	10.0179 	20.0368 	
1.67387e-10 	182897 	1833.58 	2291.97 	0.35 	17.0603 	0.195736 	8.74889e-05 	
0.00758237 	0.00189559 	1.27997e-05 	442.319 	0.0333274 	0.00186581 	442.307 	442.307 	0 	
0.000349956 	1.04362e-08 	0.92 	0.04 	0.04 	0.029163 	-1.25855e-08 	
-0.029163 	-0.0409067 	0.0117437 	3.33936 	7.78715e-08 	13.3572 	16.6974 	
1.67389e-10 	182897 	1833.58 	2291.97 	0.35 	17.0603 	0.195738 	8.74889e-05 	
0.00758237 	0.00189559 	1.18599e-05 	494.229 	0.0585485 	0.00129965 	494.209 	494.209 	0 	
0.000437444 	1.27551e-08 	0.92 	0.04 	0.04 	0.0291629 	-1.46082e-08 	
-0.0291629 	-0.0409067 	0.0117438 	3.3394 	9.51768e-08 	16.6966 	13.3581 	
1.67391e-10 	182897 	1833.58 	2291.97 	0.35 	17.0603 	0.19574 	8.74889e-05 	
0.00758237 	0.00189559 	1.45418e-05 	594.765 	0.0909761 	0.000836422 	594.735 	594.735 	0 	
0.000524933 	1.50741e-08 	0.92 	0.04 	0.04 	0.0291627 	-1.61815e-08 	
-0.0291627 	-0.0409067 	0.011744 	3.33945 	1.12482e-07 	20.036 	10.0186 	
1.67393e-10 	182897 	1833.58 	2291.97 	0.35 	17.0603 	0.195743 	8.74889e-05 	
0.00758237 	0.00189559 	1.45448e-05 	594.866 	0.130611 	0.000476125 	594.822 	594.822 	0 	
0.000612422 	1.7393e-08 	0.92 	0.04 	0.04 	0.0291625 	-1.73052e-08 	
-0.0291625 	-0.0409067 	0.0117442 	3.33951 	1.29788e-07 	23.3755 	6.67915 	
1.67396e-10 	182897 	1833.58 	2291.97 	0.35 	17.0603 	0.195747 	8.74889e-05 	
0.00758237 	0.00189559 	1.18689e-05 	494.532 	0.177452 	0.000218764 	494.473 	494.473 	0 	
0.000699911 	1.97121e-08 	0.92 	0.04 	0.04 	0.0291623 	-1.79795e-08 	
-0.0291623 	-0.0409067 	0.0117444 	3.33957 	1.47094e-07 	26.7151 	3.33961 	
1.674e-10 	182897 	1833.58 	2291.97 	0.35 	17.0603 	0.195751 	8.74889e-05 	
0.00758237 	0.00189559 	1.18731e-05 	494.671 	0.231502 	6.43437e-05 	494.594 	494.594 	0 	
0.0007874 	2.08716e-08 	0.92 	0.04 	0.04 	0.029162 	-1.82042e-08 	
-0.029162 	-0.0409067 	0.0117447 	1.66983 	1.47094e-07 	29.2198 	0.834913 	
8.37017e-11 	91448.4 	916.789 	1145.99 	0.35 	8.53017 	0.195755 	4.37444e-05 	
0.00379119 	0.000947796 	1.18775e-05 	494.817 	0.260328 	1.28691e-05 	494.731 	494.731 	0 	
ZONE T = "t = 4e-08 [s]" I = 10 SOLUTIONTIME = 4.0000000000000E-08
0 	1.15923e-09 	0.92 	0.04 	0.04 	0.0291633 	0 	
-0.0291633 	-0.0409067 	0.0117435 	1.66964 	8.65232e-09 	0.834822 	29.2199 	
1.25539e-10 	91448.4 	916.789 	1145.99 	0.35 	8.53017 	0.195734 	4.37444e-05 	
0.00379119 	0.000947796 	1.6596e-05 	379.863 	0.00120098 	0.0049582 	379.861 	379.861 	0 	
8.74889e-05 	3.47769e-09 	0.92 	0.04 	0.04 	0.0291632 	-3.82058e-09 	
-0.0291632 	-0.0409067 	0.0117435 	3.33929 	2.5957e-08 	3.33929 	26.7154 	
2.51078e-10 	182897 	1833.58 	2291.97 	0.35 	17.0603 	0.195734 	8.74889e-05 	
0.00758237 	0.00189559 	1.55675e-05 	413.895 	0.0060049 	0.00440921 	413.892 	413.892 	0 	
0.000174978 	5.79689e-09 	0.92 	0.04 	0.04 	0.0291632 	-7.19169e-09 	
-0.0291632 	-0.0409067 	0.0117435 	3.3393 	4.32617e-08 	6.67859 	23.3761 	
2.51079e-10 	182897 	1833.58 	2291.97 	0.35 	17.0603 	0.195735 	8.74889e-05 	
0.00758237 	0.00189559 	1.65973e-05 	379.896 	0.0204167 	0.00337986 	379.89 	379.89 	0 	
0.000262467 	8.1161e-09 	0.92 	0.04 	0.04 	0.0291631 	-1.01133e-08 	
-0.0291631 	-0.0409067 	0.0117436 	3.33933 	6.05665e-08 	10.0179 	20.0368 	
2.51081e-10 	182897 	1833.58 	2291.97 	0.35 	17.0603 	0.195736 	8.74889e-05 	
0.00758237 	0.00189559 	1.65991e-05 	379.94 	0.0444366 	0.00248775 	379.929 	379.929 	0 	
0.000349956 	1.04357e-08 	0.92 	0.04 	0.04 	0.029163 	-1.25855e-08 	
-0.029163 	-0.0409067 	0.0117437 	3.33936 	7.78715e-08 	13.3572 	16.6974 	
2.51083e-10 	182897 	1833.58 	2291.97 	0.35 	17.0603 	0.195738 	8.74889e-05 	
0.00758237 	0.00189559 	1.50847e-05 	322.486 	0.0780648 	0.00173287 	322.466 	322.466 	0 	
0.000437444 	1.27557e-08 	0.92 	0.04 	0.04 	0.0291629 	-1.46082e-08 	
-0.0291629 	-0.0409067 	0.0117438 	3.3394 	9.51768e-08 	16.6966 	13.3581 	
2.51086e-10 	182897 	1833.58 	2291.97 	0.35 	17.0603 	0.19574 	8.74889e-05 	
0.00758237 	0.00189559 	1.77675e-05 	322.568 	0.121302 	0.00111523 	322.537 	322.537 	0 	
0.000524933 	1.5075e-08 	0.92 	0.04 	0.04 	0.0291627 	-1.61815e-08 	
-0.0291627 	-0.0409067 	0.011744 	3.33945 	1.12482e-07 	20.036 	10.0186 	
2.5109e-10 	182897 	1833.58 	2291.97 	0.35 	17.0603 	0.195743 	8.74889e-05 	
0.00758237 	0.00189559 	1.59244e-05 	137.964 	0.174148 	0.000634834 	137.92 	137.92 	0 	
0.000612422 	1.73947e-08 	0.92 	0.04 	0.04 	0.0291625 	-1.73052e-08 	
-0.0291625 	-0.0409067 	0.0117442 	3.33951 	1.29788e-07 	23.3755 	6.67915 	
2.51094e-10 	182897 	1833.58 	2291.97 	0.35 	17.0603 	0.195747 	8.74889e-05 	
0.00758237 	0.00189559 	1.5672e-05 	380.307 	0.236603 	0.000291686 	380.247 	380.247 	0 	
0.000699911 	1.97144e-08 	0.92 	0.04 	0.04 	0.0291623 	-1.79795e-08 	
-0.0291623 	-0.0409067 	0.0117444 	3.33957 	1.47094e-07 	26.7151 	3.33961 	
2.51099e-10 	182897 	1833.58 	2291.97 	0.35 	17.0603 	0.195751 	8.74889e-05 	
0.00758237 	0.00189559 	1.56776e-05 	380.445 	0.308669 	8.57918e-05 	380.368 	380.368 	0 	
0.0007874 	2.0874e-08 	0.92 	0.04 	0.04 	0.029162 	-1.82042e-08 	
-0.029162 	-0.0409067 	0.0117447 	1.66983 	1.47094e-07 	29.2198 	0.834913 	
1.25553e-10 	91448.4 	916.789 	1145.99 	0.35 	8.53017 	0.195755 	4.37444e-05 	
0.00379119 	0.000947796 	1.56834e-05 	380.592 	0.347105 	1.71588e-05 	380.505 	380.505 	0 	
ZONE T = "t = 5.5e-08 [s]" I = 10 SOLUTIONTIME = 5.5000000000000E-08
0 	1.15941e-09 	0.92 	0.04 	0.04 	0.0291633 	0 	
-0.0291633 	-0.0409067 	0.0117435 	1.66964 	8.65232e-09 	0.834822 	29.2199 	
1.67385e-10 	91448.4 	916.789 	1145.99 	0.35 	8.53017 	0.195734 	4.37444e-05 	
0.00379119 	0.000947796 	2.40762e-05 	498.679 	0.0011009 	0.00454502 	498.678 	498.678 	0 	
8.74889e-05 	3.47824e-09 	0.92 	0.04 	0.04 	0.0291632 	-3.82058e-09 	
-0.0291632 	-0.0409067 	0.0117435 	3.33929 	2.5957e-08 	3.33929 	26.7154 	
3.34771e-10 	182897 	1833.58 	2291.97 	0.35 	17.0603 	0.195734 	8.74889e-05 	
0.00758237 	0.00189559 	2.29343e-05 	491.125 	0.0055045 	0.00404178 	491.123 	491.123 	0 	
0.000174978 	5.79707e-09 	0.92 	0.04 	0.04 	0.0291632 	-7.19169e-09 	
-0.0291632 	-0.0409067 	0.0117435 	3.3393 	4.32617e-08 	6.67859 	23.3761 	
3.34772e-10 	182897 	1833.58 	2291.97 	0.35 	17.0603 	0.195735 	8.74889e-05 	
0.00758237 	0.00189559 	2.18097e-05 	347.491 	0.0187153 	0.00309821 	347.485 	347.485 	0 	
0.000262467 	8.11592e-09 	0.92 	0.04 	0.04 	0.0291631 	-1.01133e-08 	
-0.0291631 	-0.0409067 	0.0117436 	3.33933 	6.05665e-08 	10.0179 	20.0368 	
3.34774e-10 	182897 	1833.58 	2291.97 	0.35 	17.0603 	0.195736 	8.74889e-05 	
0.00758237 	0.00189559 	2.18122e-05 	347.536 	0.0407336 	0.00228044 	347.524 	347.524 	0 	
0.000349956 	1.04348e-08 	0.92 	0.04 	0.04 	0.029163 	-1.25855e-08 	
-0.029163 	-0.0409067 	0.0117437 	3.33936 	7.78715e-08 	13.3572 	16.6974 	
3.34777e-10 	182897 	1833.58 	2291.97 	0.35 	17.0603 	0.195738 	8.74889e-05 	
0.00758237 	0.00189559 	2.28425e-05 	517.182 	0.0715594 	0.00158846 	517.163 	517.163 	0 	
0.000437444 	1.27537e-08 	0.92 	0.04 	0.04 	0.0291629 	-1.46082e-08 	
-0.0291629 	-0.0409067 	0.0117438 	3.3394 	9.51768e-08 	16.6966 	13.3581 	
3.34781e-10 	182897 	1833.58 	2291.97 	0.35 	17.0603 	0.19574 	8.74889e-05 	
0.00758237 	0.00189559 	2.39791e-05 	414.111 	0.111193 	0.0010223 	414.08 	414.08 	0 	
0.000524933 	1.50731e-08 	0.92 	0.04 	0.04 	0.0291627 	-1.61815e-08 	
-0.0291627 	-0.0409067 	0.011744 	3.33945 	1.12482e-07 	20.036 	10.0186 	
3.34786e-10 	182897 	1833.58 	2291.97 	0.35 	17.0603 	0.195743 	8.74889e-05 	
0.00758237 	0.00189559 	2.31259e-05 	480.101 	0.159635 	0.000581932 	480.057 	480.057 	0 	
0.000612422 	1.73921e-08 	0.92 	0.04 	0.04 	0.0291625 	-1.73052e-08 	
-0.0291625 	-0.0409067 	0.0117442 	3.33951 	1.29788e-07 	23.3755 	6.67915 	
3.34792e-10 	182897 	1833.58 	2291.97 	0.35 	17.0603 	0.195747 	8.74889e-05 	
0.00758237 	0.00189559 	2.17574e-05 	405.69 	0.216886 	0.000267379 	405.631 	405.631 	0 	
0.000699911 	1.97113e-08 	0.92 	0.04 	0.04 	0.0291623 	-1.79795e-08 	
-0.0291623 	-0.0409067 	0.0117444 	3.33957 	1.47094e-07 	26.7151 	3.33961 	
3.34799e-10 	182897 	1833.58 	2291.97 	0.35 	17.0603 	0.195751 	8.74889e-05 	
0.00758237 	0.00189559 	2.1765e-05 	405.829 	0.282947 	7.86425e-05 	405.751 	405.751 	0 	
0.0007874 	2.08704e-08 	0.92 	0.04 	0.04 	0.029162 	-1.82042e-08 	
-0.029162 	-0.0409067 	0.0117447 	1.66983 	1.47094e-07 	29.2198 	0.834913 	
1.67403e-10 	91448.4 	916.789 	1145.99 	0.35 	8.53017 	0.195755 	4.37444e-05 	
0.00379119 	0.000947796 	2.27614e-05 	471.864 	0.31818 	1.57289e-05 	471.777 	471.777 	0 	
ZONE T = "t = 7.75e-08 [s]" I = 10 SOLUTIONTIME = 7.7500000000000E-08
0 	1.15941e-09 	0.92 	0.04 	0.04 	0.0291633 	0 	
-0.0291633 	-0.0409067 	0.0117435 	1.66964 	8.65232e-09 	0.834822 	29.2199 	
2.30155e-10 	91448.4 	916.789 	1145.99 	0.35 	8.53017 	0.195734 	4.37444e-05 	
0.00379119 	0.000947796 	3.56691e-05 	515.241 	0.00103418 	0.00426957 	515.24 	515.24 	0 	
8.74889e-05 	3.47824e-09 	0.92 	0.04 	0.04 	0.0291632 	-3.82058e-09 	
-0.0291632 	-0.0409067 	0.0117435 	3.33929 	2.5957e-08 	3.33929 	26.7154 	
4.6031e-10 	182897 	1833.58 	2291.97 	0.35 	17.0603 	0.195734 	8.74889e-05 	
0.00758237 	0.00189559 	3.48515e-05 	529.65 	0.0051709 	0.00379683 	529.648 	529.648 	0 	
0.000174978 	5.79707e-09 	0.92 	0.04 	0.04 	0.0291632 	-7.19169e-09 	
-0.0291632 	-0.0409067 	0.0117435 	3.3393 	4.32617e-08 	6.67859 	23.3761 	
4.60311e-10 	182897 	1833.58 	2291.97 	0.35 	17.0603 	0.195735 	8.74889e-05 	
0.00758237 	0.00189559 	3.31927e-05 	505.913 	0.0175811 	0.00291044 	505.907 	505.907 	0 	
0.000262467 	8.11592e-09 	0.92 	0.04 	0.04 	0.0291631 	-1.01133e-08 	
-0.0291631 	-0.0409067 	0.0117436 	3.33933 	6.05665e-08 	10.0179 	20.0368 	
4.60314e-10 	182897 	1833.58 	2291.97 	0.35 	17.0603 	0.195736 	8.74889e-05 	
0.00758237 	0.00189559 	3.31962e-05 	505.958 	0.0382649 	0.00214223 	505.946 	505.946 	0 	
0.000349956 	1.04348e-08 	0.92 	0.04 	0.04 	0.029163 	-1.25855e-08 	
-0.029163 	-0.0409067 	0.0117437 	3.33936 	7.78715e-08 	13.3572 	16.6974 	
4.60319e-10 	182897 	1833.58 	2291.97 	0.35 	17.0603 	0.195738 	8.74889e-05 	
0.00758237 	0.00189559 	3.26725e-05 	436.892 	0.0672225 	0.00149219 	436.872 	436.872 	0 	
0.000437444 	1.27534e-08 	0.92 	0.04 	0.04 	0.0291629 	-1.46082e-08 	
-0.0291629 	-0.0409067 	0.0117438 	3.3394 	9.51768e-08 	16.6966 	13.3581 	
4.60324e-10 	182897 	1833.58 	2291.97 	0.35 	17.0603 	0.19574 	8.74889e-05 	
0.00758237 	0.00189559 	3.3649e-05 	429.773 	0.104454 	0.000960339 	429.742 	429.742 	0 	
0.000524933 	1.5072e-08 	0.92 	0.04 	0.04 	0.0291627 	-1.61815e-08 	
-0.0291627 	-0.0409067 	0.011744 	3.33945 	1.12482e-07 	20.036 	10.0186 	
4.60331e-10 	182897 	1833.58 	2291.97 	0.35 	17.0603 	0.195743 	8.74889e-05 	
0.00758237 	0.00189559 	3.33733e-05 	455.437 	0.149961 	0.000546664 	455.393 	455.393 	0 	
0.000612422 	1.73906e-08 	0.92 	0.04 	0.04 	0.0291625 	-1.73052e-08 	
-0.0291625 	-0.0409067 	0.0117442 	3.33951 	1.29788e-07 	23.3755 	6.67915 	
4.60339e-10 	182897 	1833.58 	2291.97 	0.35 	17.0603 	0.195747 	8.74889e-05 	
0.00758237 	0.00189559 	2.99335e-05 	363.384 	0.203742 	0.000251175 	363.325 	363.325 	0 	
0.000699911 	1.97092e-08 	0.92 	0.04 	0.04 	0.0291623 	-1.79795e-08 	
-0.0291623 	-0.0409067 	0.0117444 	3.33957 	1.47095e-07 	26.7151 	3.33961 	
4.60349e-10 	182897 	1833.58 	2291.97 	0.35 	17.0603 	0.195751 	8.74889e-05 	
0.00758237 	0.00189559 	3.05356e-05 	389.806 	0.265799 	7.38763e-05 	389.729 	389.729 	0 	
0.0007874 	2.08687e-08 	0.92 	0.04 	0.04 	0.029162 	-1.82042e-08 	
-0.029162 	-0.0409067 	0.0117447 	1.66983 	1.47095e-07 	29.2198 	0.834913 	
2.3018e-10 	91448.4 	916.789 	1145.99 	0.35 	8.53017 	0.195755 	4.37444e-05 	
0.00379119 	0.000947796 	3.28234e-05 	447.201 	0.298896 	1.47757e-05 	447.114 	447.114 	0 	
ZONE T = "t = 1.1125e-07 [s]" I = 10 SOLUTIONTIME = 1.1125000000000E-07
0 	1.15936e-09 	0.92 	0.04 	0.04 	0.0291633 	0 	
-0.0291633 	-0.0409067 	0.0117435 	1.66964 	8.65232e-09 	0.834822 	29.2199 	
3.24309e-10 	91448.4 	916.789 	1145.99 	0.35 	8.53017 	0.195734 	4.37444e-05 	
0.00379119 	0.000947796 	4.81493e-05 	369.781 	0.000989698 	0.00408593 	369.78 	369.78 	0 	
8.74889e-05 	3.47797e-09 	0.92 	0.04 	0.04 	0.0291632 	-3.82058e-09 	
-0.0291632 	-0.0409067 	0.0117435 	3.33929 	2.5957e-08 	3.33929 	26.7154 	
6.48618e-10 	182897 	1833.58 	2291.97 	0.35 	17.0603 	0.195734 	8.74889e-05 	
0.00758237 	0.00189559 	5.10665e-05 	480.444 	0.0049485 	0.00363353 	480.441 	480.441 	0 	
0.000174978 	5.79669e-09 	0.92 	0.04 	0.04 	0.0291632 	-7.19169e-09 	
-0.0291632 	-0.0409067 	0.0117435 	3.3393 	4.32617e-08 	6.67859 	23.3761 	
6.48621e-10 	182897 	1833.58 	2291.97 	0.35 	17.0603 	0.195735 	8.74889e-05 	
0.00758237 	0.00189559 	4.62654e-05 	387.337 	0.0168249 	0.00278526 	387.331 	387.331 	0 	
0.000262467 	8.11543e-09 	0.92 	0.04 	0.04 	0.0291631 	-1.01133e-08 	
-0.0291631 	-0.0409067 	0.0117436 	3.33933 	6.05665e-08 	10.0179 	20.0368 	
6.48625e-10 	182897 	1833.58 	2291.97 	0.35 	17.0603 	0.195736 	8.74889e-05 	
0.00758237 	0.00189559 	4.59139e-05 	376.82 	0.0366191 	0.00205009 	376.808 	376.808 	0 	
0.000349956 	1.04341e-08 	0.92 	0.04 	0.04 	0.029163 	-1.25855e-08 	
-0.029163 	-0.0409067 	0.0117437 	3.33936 	7.78715e-08 	13.3572 	16.6974 	
6.48631e-10 	182897 	1833.58 	2291.97 	0.35 	17.0603 	0.195738 	8.74889e-05 	
0.00758237 	0.00189559 	4.73852e-05 	435.931 	0.0643313 	0.00142801 	435.911 	435.911 	0 	
0.000437444 	1.27532e-08 	0.92 	0.04 	0.04 	0.0291629 	-1.46082e-08 	
-0.0291629 	-0.0409067 	0.0117438 	3.3394 	9.51768e-08 	16.6966 	13.3581 	
6.48639e-10 	182897 	1833.58 	2291.97 	0.35 	17.0603 	0.19574 	8.74889e-05 	
0.00758237 	0.00189559 	5.01386e-05 	488.581 	0.0999617 	0.000919034 	488.55 	488.55 	0 	
0.000524933 	1.5072e-08 	0.92 	0.04 	0.04 	0.0291627 	-1.61815e-08 	
-0.0291627 	-0.0409067 	0.011744 	3.33945 	1.12482e-07 	20.036 	10.0186 	
6.48648e-10 	182897 	1833.58 	2291.97 	0.35 	17.0603 	0.195743 	8.74889e-05 	
0.00758237 	0.00189559 	4.8157e-05 	438.035 	0.143511 	0.000523152 	437.991 	437.991 	0 	
0.000612422 	1.73908e-08 	0.92 	0.04 	0.04 	0.0291625 	-1.73052e-08 	
-0.0291625 	-0.0409067 	0.0117442 	3.33951 	1.29788e-07 	23.3755 	6.67915 	
6.4866e-10 	182897 	1833.58 	2291.97 	0.35 	17.0603 	0.195747 	8.74889e-05 	
0.00758237 	0.00189559 	4.42352e-05 	423.753 	0.194979 	0.000240372 	423.693 	423.693 	0 	
0.000699911 	1.97096e-08 	0.92 	0.04 	0.04 	0.0291623 	-1.79795e-08 	
-0.0291623 	-0.0409067 	0.0117444 	3.33957 	1.47095e-07 	26.7151 	3.33961 	
6.48673e-10 	182897 	1833.58 	2291.97 	0.35 	17.0603 	0.195751 	8.74889e-05 	
0.00758237 	0.00189559 	4.6527e-05 	473.818 	0.254367 	7.06989e-05 	473.741 	473.741 	0 	
0.0007874 	2.08693e-08 	0.92 	0.04 	0.04 	0.029162 	-1.82042e-08 	
-0.029162 	-0.0409067 	0.0117447 	1.66983 	1.47095e-07 	29.2198 	0.834913 	
3.24344e-10 	91448.4 	916.789 	1145.99 	0.35 	8.53017 	0.195755 	4.37444e-05 	
0.00379119 	0.000947796 	4.83417e-05 	459.803 	0.286041 	1.41402e-05 	459.716 	459.716 	0 	
ZONE T = "t = 1.61875e-07 [s]" I = 10 SOLUTIONTIME = 1.6187500000000E-07
0 	1.15945e-09 	0.92 	0.04 	0.04 	0.0291633 	0 	
-0.0291633 	-0.0409067 	0.0117435 	1.66964 	8.65232e-09 	0.834822 	29.2199 	
4.6554e-10 	91448.4 	916.789 	1145.99 	0.35 	8.53017 	0.195734 	4.37444e-05 	
0.00379119 	0.000947796 	7.62586e-05 	555.247 	0.000960044 	0.00396351 	555.245 	555.245 	0 	
8.74889e-05 	3.47841e-09 	0.92 	0.04 	0.04 	0.0291632 	-3.82058e-09 	
-0.0291632 	-0.0409067 	0.0117435 	3.33929 	2.5957e-08 	3.33929 	26.7154 	
9.31081e-10 	182897 	1833.58 	2291.97 	0.35 	17.0603 	0.195734 	8.74889e-05 	
0.00758237 	0.00189559 	7.37484e-05 	448.039 	0.00480023 	0.00352466 	448.037 	448.037 	0 	
0.000174978 	5.79732e-09 	0.92 	0.04 	0.04 	0.0291632 	-7.19169e-09 	
-0.0291632 	-0.0409067 	0.0117435 	3.3393 	4.32617e-08 	6.67859 	23.3761 	
9.31084e-10 	182897 	1833.58 	2291.97 	0.35 	17.0603 	0.195735 	8.74889e-05 	
0.00758237 	0.00189559 	7.24402e-05 	517.035 	0.0163208 	0.00270181 	517.029 	517.029 	0 	
0.000262467 	8.11624e-09 	0.92 	0.04 	0.04 	0.0291631 	-1.01133e-08 	
-0.0291631 	-0.0409067 	0.0117436 	3.33933 	6.05665e-08 	10.0179 	20.0368 	
9.31091e-10 	182897 	1833.58 	2291.97 	0.35 	17.0603 	0.195736 	8.74889e-05 	
0.00758237 	0.00189559 	7.07381e-05 	490.355 	0.0355219 	0.00198867 	490.344 	490.344 	0 	
0.000349956 	1.04353e-08 	0.92 	0.04 	0.04 	0.029163 	-1.25855e-08 	
-0.029163 	-0.0409067 	0.0117437 	3.33936 	7.78715e-08 	13.3572 	16.6974 	
9.31099e-10 	182897 	1833.58 	2291.97 	0.35 	17.0603 	0.195738 	8.74889e-05 	
0.00758237 	0.00189559 	6.89317e-05 	425.61 	0.0624038 	0.00138523 	425.59 	425.59 	0 	
0.000437444 	1.2754e-08 	0.92 	0.04 	0.04 	0.0291629 	-1.46082e-08 	
-0.0291629 	-0.0409067 	0.0117438 	3.3394 	9.51768e-08 	16.6966 	13.3581 	
9.31111e-10 	182897 	1833.58 	2291.97 	0.35 	17.0603 	0.19574 	8.74889e-05 	
0.00758237 	0.00189559 	7.38928e-05 	469.218 	0.0969666 	0.000891498 	469.187 	469.187 	0 	
0.000524933 	1.5073e-08 	0.92 	0.04 	0.04 	0.0291627 	-1.61815e-08 	
-0.0291627 	-0.0409067 	0.011744 	3.33945 	1.12482e-07 	20.036 	10.0186 	
9.31124e-10 	182897 	1833.58 	2291.97 	0.35 	17.0603 	0.195743 	8.74889e-05 	
0.00758237 	0.00189559 	7.46544e-05 	523.406 	0.139211 	0.000507477 	523.363 	523.363 	0 	
0.000612422 	1.73922e-08 	0.92 	0.04 	0.04 	0.0291625 	-1.73052e-08 	
-0.0291625 	-0.0409067 	0.0117442 	3.33951 	1.29788e-07 	23.3755 	6.67915 	
9.31141e-10 	182897 	1833.58 	2291.97 	0.35 	17.0603 	0.195747 	8.74889e-05 	
0.00758237 	0.00189559 	6.64694e-05 	439.195 	0.189137 	0.000233169 	439.135 	439.135 	0 	
0.000699911 	1.97114e-08 	0.92 	0.04 	0.04 	0.0291623 	-1.79795e-08 	
-0.0291623 	-0.0409067 	0.0117444 	3.33957 	1.47095e-07 	26.7151 	3.33961 	
9.3116e-10 	182897 	1833.58 	2291.97 	0.35 	17.0603 	0.195751 	8.74889e-05 	
0.00758237 	0.00189559 	6.8671e-05 	437.413 	0.246746 	6.85806e-05 	437.336 	437.336 	0 	
0.0007874 	2.08708e-08 	0.92 	0.04 	0.04 	0.029162 	-1.82042e-08 	
-0.029162 	-0.0409067 	0.0117447 	1.66983 	1.47095e-07 	29.2198 	0.834913 	
4.65591e-10 	91448.4 	916.789 	1145.99 	0.35 	8.53017 	0.195755 	4.37444e-05 	
0.00379119 	0.000947796 	7.13681e-05 	454.842 	0.27747 	1.37165e-05 	454.755 	454.755 	0 	
ZONE T = "t = 2.37813e-07 [s]" I = 10 SOLUTIONTIME = 2.3781250000000E-07