TITLE = "Solution on Domain BulkDomain1D_0"
VARIABLES = "x [m]"  
"Vel_axial" 
"MF_sp(ECDMC)" 
"MF_sp(Li+)" 
"MF_sp(PF6-)" 
"Volt(Electroly)" 
"Volt(AnodeVolt)" 
"Potential Drop Electrode-Electrolyte [V]" 
"Surf_0 Equilibrium Potential Drop Electrode-Electrolyte [V]" 
"Overpotential_0 [V]" 
"Current Source [A/m^2]" 
"Li+ flux [kmol/m^2/s]" 
"Electrolyte Current [A/m^2]" 
"Electrode Current [A/m^2]" 
"CV Capacity discharged [A-s/m^2]" 
"Depth of discharge in CV [A-s/m^2]" 
"CV Capacity remaining [A-s/m^2]" 
"Initial CV capacity [A-s/m^2]" 
"Porosity []" 
"Surface Area [m2/m2] (area per area)" 
"Specific current (per particle area) [A/m^2]" 
"Control volume thickness [m]" 
"MoleDens Li_C6-bulk [kmol/m^3]" 
"MoleDens V_C6-bulk [kmol/m^3]" 
"qHeat_accum [J/m3]" 
"qHeat_step [W/m3]" 
"Joule_Lyte [W/m3]" 
"Joule_Solid [W/m3]" 
"electrodHeat [W/m3]" 
"OverpotHeat [W/m3]" 
"deltaSHeat [W/m3]" 

ZONE T = "ANOD, 0.0000E+00", I = 10, SOLUTIONTIME = 0.000000E+00
ZONETYPE = ORDERED
DATAPACKING = BLOCK
STRANDID = 1
 0.0000000000000E+00  8.7488888888889E-05  1.7497777777778E-04  2.6246666666667E-04  3.4995555555556E-04  4.3744444444444E-04  5.2493333333333E-04  6.1242222222222E-04  6.9991111111111E-04  7.8740000000000E-04 
 0.0000000000000E+00  0.0000000000000E+00  0.0000000000000E+00  0.0000000000000E+00  0.0000000000000E+00  0.0000000000000E+00  0.0000000000000E+00  0.0000000000000E+00  0.0000000000000E+00  0.0000000000000E+00 
 9.2000000000000E-01  9.2000000000000E-01  9.2000000000000E-01  9.2000000000000E-01  9.2000000000000E-01  9.2000000000000E-01  9.2000000000000E-01  9.2000000000000E-01  9.2000000000000E-01  9.2000000000000E-01 
 4.0000000000000E-02  4.0000000000000E-02  4.0000000000000E-02  4.0000000000000E-02  4.0000000000000E-02  4.0000000000000E-02  4.0000000000000E-02  4.0000000000000E-02  4.0000000000000E-02  4.0000000000000E-02 
 4.0000000000000E-02  4.0000000000000E-02  4.0000000000000E-02  4.0000000000000E-02  4.0000000000000E-02  4.0000000000000E-02  4.0000000000000E-02  4.0000000000000E-02  4.0000000000000E-02  4.0000000000000E-02 
-7.0000000000000E-02 -7.0000000000000E-02 -7.0000000000000E-02 -7.0000000000000E-02 -7.0000000000000E-02 -7.0000000000000E-02 -7.0000000000000E-02 -7.0000000000000E-02 -7.0000000000000E-02 -7.0000000000000E-02 
 0.0000000000000E+00  0.0000000000000E+00  0.0000000000000E+00  0.0000000000000E+00  0.0000000000000E+00  0.0000000000000E+00  0.0000000000000E+00  0.0000000000000E+00  0.0000000000000E+00  0.0000000000000E+00 
 7.0000000000000E-02  7.0000000000000E-02  7.0000000000000E-02  7.0000000000000E-02  7.0000000000000E-02  7.0000000000000E-02  7.0000000000000E-02  7.0000000000000E-02  7.0000000000000E-02  7.0000000000000E-02 
-4.0906712753390E-02 -4.0906712753390E-02 -4.0906712753390E-02 -4.0906712753390E-02 -4.0906712753390E-02 -4.0906712753390E-02 -4.0906712753390E-02 -4.0906712753390E-02 -4.0906712753390E-02 -4.0906712753390E-02 
 1.1090671275339E-01  1.1090671275339E-01  1.1090671275339E-01  1.1090671275339E-01  1.1090671275339E-01  1.1090671275339E-01  1.1090671275339E-01  1.1090671275339E-01  1.1090671275339E-01  1.1090671275339E-01 
 3.0930240924008E+01  6.1860481848016E+01  6.1860481848016E+01  6.1860481848016E+01  6.1860481848016E+01  6.1860481848016E+01  6.1860481848016E+01  6.1860481848016E+01  6.1860481848016E+01  3.0930240924008E+01 
-0.0000000000000E+00 -0.0000000000000E+00 -0.0000000000000E+00 -0.0000000000000E+00 -0.0000000000000E+00 -0.0000000000000E+00 -0.0000000000000E+00 -0.0000000000000E+00 -0.0000000000000E+00 -0.0000000000000E+00 
 0.0000000000000E+00  0.0000000000000E+00  0.0000000000000E+00  0.0000000000000E+00  0.0000000000000E+00  0.0000000000000E+00  0.0000000000000E+00  0.0000000000000E+00  0.0000000000000E+00  3.0930240924008E+01 
 3.0930240924008E+01 -0.0000000000000E+00 -0.0000000000000E+00 -0.0000000000000E+00 -0.0000000000000E+00 -0.0000000000000E+00 -0.0000000000000E+00 -0.0000000000000E+00 -0.0000000000000E+00  0.0000000000000E+00 
 0.0000000000000E+00  0.0000000000000E+00  0.0000000000000E+00  0.0000000000000E+00  0.0000000000000E+00  0.0000000000000E+00  0.0000000000000E+00  0.0000000000000E+00  0.0000000000000E+00  0.0000000000000E+00 
 9.1448444543281E+04  1.8289688908656E+05  1.8289688908656E+05  1.8289688908656E+05  1.8289688908656E+05  1.8289688908656E+05  1.8289688908656E+05  1.8289688908656E+05  1.8289688908656E+05  9.1448444543281E+04 
 3.6579377817312E+05  7.3158755634625E+05  7.3158755634625E+05  7.3158755634625E+05  7.3158755634625E+05  7.3158755634625E+05  7.3158755634625E+05  7.3158755634625E+05  7.3158755634625E+05  3.6579377817312E+05 
 4.5724222271640E+05  9.1448444543281E+05  9.1448444543281E+05  9.1448444543281E+05  9.1448444543281E+05  9.1448444543281E+05  9.1448444543281E+05  9.1448444543281E+05  9.1448444543281E+05  4.5724222271640E+05 
 3.5000000000000E-01  3.5000000000000E-01  3.5000000000000E-01  3.5000000000000E-01  3.5000000000000E-01  3.5000000000000E-01  3.5000000000000E-01  3.5000000000000E-01  3.5000000000000E-01  3.5000000000000E-01 
 8.5301666666666E+00  1.7060333333333E+01  1.7060333333333E+01  1.7060333333333E+01  1.7060333333333E+01  1.7060333333333E+01  1.7060333333333E+01  1.7060333333333E+01  1.7060333333333E+01  8.5301666666666E+00 
 3.6259831879809E+00  3.6259831879809E+00  3.6259831879809E+00  3.6259831879809E+00  3.6259831879809E+00  3.6259831879809E+00  3.6259831879809E+00  3.6259831879809E+00  3.6259831879809E+00  3.6259831879809E+00 
 4.3744444444444E-05  8.7488888888889E-05  8.7488888888889E-05  8.7488888888889E-05  8.7488888888889E-05  8.7488888888889E-05  8.7488888888889E-05  8.7488888888889E-05  8.7488888888889E-05  4.3744444444444E-05 
 8.6666666666666E+01  8.6666666666666E+01  8.6666666666666E+01  8.6666666666666E+01  8.6666666666666E+01  8.6666666666666E+01  8.6666666666666E+01  8.6666666666666E+01  8.6666666666666E+01  8.6666666666666E+01 
 2.1666666666667E+01  2.1666666666667E+01  2.1666666666667E+01  2.1666666666667E+01  2.1666666666667E+01  2.1666666666667E+01  2.1666666666667E+01  2.1666666666667E+01  2.1666666666667E+01  2.1666666666667E+01 
 0.0000000000000E+00  0.0000000000000E+00  0.0000000000000E+00  0.0000000000000E+00  0.0000000000000E+00  0.0000000000000E+00  0.0000000000000E+00  0.0000000000000E+00  0.0000000000000E+00  0.0000000000000E+00 
 0.0000000000000E+00  0.0000000000000E+00  0.0000000000000E+00  0.0000000000000E+00  0.0000000000000E+00  0.0000000000000E+00  0.0000000000000E+00  0.0000000000000E+00  0.0000000000000E+00  0.0000000000000E+00 
 0.0000000000000E+00  0.0000000000000E+00  0.0000000000000E+00  0.0000000000000E+00  0.0000000000000E+00  0.0000000000000E+00  0.0000000000000E+00  0.0000000000000E+00  0.0000000000000E+00  0.0000000000000E+00 
 0.0000000000000E+00  0.0000000000000E+00  0.0000000000000E+00  0.0000000000000E+00  0.0000000000000E+00  0.0000000000000E+00  0.0000000000000E+00  0.0000000000000E+00  0.0000000000000E+00  0.0000000000000E+00 
 0.0000000000000E+00  0.0000000000000E+00  0.0000000000000E+00  0.0000000000000E+00  0.0000000000000E+00  0.0000000000000E+00  0.0000000000000E+00  0.0000000000000E+00  0.0000000000000E+00  0.0000000000000E+00 
 0.0000000000000E+00  0.0000000000000E+00  0.0000000000000E+00  0.0000000000000E+00  0.0000000000000E+00  0.0000000000000E+00  0.0000000000000E+00  0.0000000000000E+00  0.0000000000000E+00  0.0000000000000E+00 
 0.0000000000000E+00  0.0000000000000E+00  0.0000000000000E+00  0.0000000000000E+00  0.0000000000000E+00  0.0000000000000E+00  0.0000000000000E+00  0.0000000000000E+00  0.0000000000000E+00  0.0000000000000E+00 
ZONE T = "ANOD, 1.0000E-08", I = 10, SOLUTIONTIME = 1.000000E-08
ZONETYPE = ORDERED
DATAPACKING = BLOCK
STRANDID = 1
 0.0000000000000E+00  8.7488888888889E-05  1.7497777777778E-04  2.6246666666667E-04  3.4995555555556E-04  4.3744444444444E-04  5.2493333333333E-04  6.1242222222222E-04  6.9991111111111E-04  7.8740000000000E-04 
 1.1589917709936E-09  3.4769775208669E-09  5.7949719090862E-09  8.1129813658768E-09  1.0431012322014E-08  1.2749071208083E-08  1.5067164454774E-08  1.7385298493113E-08  1.9703479753785E-08  2.0863142022527E-08 
 9.1999999999930E-01  9.1999999999930E-01  9.1999999999930E-01  9.1999999999930E-01  9.1999999999930E-01  9.1999999999930E-01  9.1999999999930E-01  9.1999999999930E-01  9.1999999999930E-01  9.1999999999971E-01 
 4.0000000000348E-02  4.0000000000348E-02  4.0000000000348E-02  4.0000000000348E-02  4.0000000000348E-02  4.0000000000348E-02  4.0000000000348E-02  4.0000000000348E-02  4.0000000000348E-02  4.0000000000144E-02 
 4.0000000000348E-02  4.0000000000348E-02  4.0000000000348E-02  4.0000000000348E-02  4.0000000000348E-02  4.0000000000348E-02  4.0000000000348E-02  4.0000000000348E-02  4.0000000000348E-02  4.0000000000144E-02 
 2.9167371470620E-02  2.9167355743503E-02  2.9167308562147E-02  2.9167229926438E-02  2.9167119836153E-02  2.9166978291020E-02  2.9166805290646E-02  2.9166600834561E-02  2.9166364922219E-02  2.9166097552988E-02 
 0.0000000000000E+00 -4.7371275798520E-09 -8.9169665833115E-09 -1.2539514933554E-08 -1.5604769007803E-08 -1.8112723637200E-08 -2.0063372106849E-08 -2.1456706155793E-08 -2.2292715976931E-08 -2.2571390217101E-08 
-2.9167371470620E-02 -2.9167360480630E-02 -2.9167317479113E-02 -2.9167242465953E-02 -2.9167135440922E-02 -2.9166996403744E-02 -2.9166825354019E-02 -2.9166622291267E-02 -2.9166387214935E-02 -2.9166120124378E-02 
-4.0906712752893E-02 -4.0906712752892E-02 -4.0906712752893E-02 -4.0906712752893E-02 -4.0906712752887E-02 -4.0906712752893E-02 -4.0906712752893E-02 -4.0906712752887E-02 -4.0906712752887E-02 -4.0906712753018E-02 
 1.1739341282272E-02  1.1739352272262E-02  1.1739395273779E-02  1.1739470286940E-02  1.1739577311965E-02  1.1739716349148E-02  1.1739887398874E-02  1.1740090461620E-02  1.1740325537952E-02  1.1740592628639E-02 
 1.6690490557708E+00  3.3381012907406E+00  3.3381137302778E+00  3.3381354301927E+00  3.3381663905597E+00  3.3382066114715E+00  3.3382560930614E+00  3.3383148354887E+00  3.3383828389379E+00  1.6692300518120E+00 
 8.6491976501768E-09  2.5947595425255E-08  4.3246055808775E-08  6.0544639115714E-08  7.7843371262950E-08  9.5142320609401E-08  1.1244152832392E-07  1.2974103560957E-07  1.4704096268864E-07  1.4704096268864E-07 
 0.0000000000000E+00  3.3380832203051E+00  6.6761727201814E+00  1.0014280121162E+01  1.3352413743356E+01  1.6690582683213E+01  2.0028797508491E+01  2.3367066166133E+01  2.6705397273715E+01  3.0043809652438E+01 
 3.0043810254875E+01  2.6705719146977E+01  2.3367628822772E+01  2.0029521428644E+01  1.6691387704156E+01  1.3353218388618E+01  1.0015004221399E+01  6.6767359415535E+00  3.3384042881366E+00  0.0000000000000E+00 
 1.6690490557708E-08  3.3381012907406E-08  3.3381137302778E-08  3.3381354301927E-08  3.3381663905597E-08  3.3382066114715E-08  3.3382560930614E-08  3.3383148354887E-08  3.3383828389379E-08  1.6692300518120E-08 
 9.1448444543298E+04  1.8289688908659E+05  1.8289688908660E+05  1.8289688908660E+05  1.8289688908660E+05  1.8289688908659E+05  1.8289688908659E+05  1.8289688908660E+05  1.8289688908660E+05  9.1448444543298E+04 
 3.6579377817311E+05  7.3158755634621E+05  7.3158755634621E+05  7.3158755634621E+05  7.3158755634621E+05  7.3158755634621E+05  7.3158755634621E+05  7.3158755634621E+05  7.3158755634621E+05  3.6579377817311E+05 
 4.5724222271640E+05  9.1448444543281E+05  9.1448444543281E+05  9.1448444543281E+05  9.1448444543281E+05  9.1448444543281E+05  9.1448444543281E+05  9.1448444543281E+05  9.1448444543281E+05  4.5724222271640E+05 
 3.5000000000000E-01  3.5000000000000E-01  3.5000000000000E-01  3.5000000000000E-01  3.5000000000000E-01  3.5000000000000E-01  3.5000000000000E-01  3.5000000000000E-01  3.5000000000000E-01  3.5000000000000E-01 
 8.5301666666666E+00  1.7060333333333E+01  1.7060333333333E+01  1.7060333333333E+01  1.7060333333333E+01  1.7060333333333E+01  1.7060333333333E+01  1.7060333333333E+01  1.7060333333333E+01  8.5301666666666E+00 
 1.9566429602050E-01  1.9566448237084E-01  1.9566521152056E-01  1.9566648347195E-01  1.9566829822941E-01  1.9567065579834E-01  1.9567355618656E-01  1.9567699940342E-01  1.9568098545971E-01  1.9568551436807E-01 
 4.3744444444444E-05  8.7488888888889E-05  8.7488888888889E-05  8.7488888888889E-05  8.7488888888889E-05  8.7488888888889E-05  8.7488888888889E-05  8.7488888888889E-05  8.7488888888889E-05  4.3744444444444E-05 
 8.6666666666662E+01  8.6666666666662E+01  8.6666666666662E+01  8.6666666666662E+01  8.6666666666662E+01  8.6666666666662E+01  8.6666666666662E+01  8.6666666666662E+01  8.6666666666662E+01  8.6666666666662E+01 
 2.1666666666671E+01  2.1666666666671E+01  2.1666666666671E+01  2.1666666666671E+01  2.1666666666671E+01  2.1666666666671E+01  2.1666666666671E+01  2.1666666666671E+01  2.1666666666671E+01  2.1666666666671E+01 
-7.4957894086006E-05 -7.4957950982549E-05 -7.4958181094644E-05 -7.4958582508734E-05 -7.4959155225319E-05 -7.4959899244781E-05 -7.4960814567857E-05 -7.4961901195453E-05 -7.4963159128528E-05 -7.4964696394049E-05 
-7.4957894086006E+03 -7.4957950982549E+03 -7.4958181094644E+03 -7.4958582508734E+03 -7.4959155225319E+03 -7.4959899244781E+03 -7.4960814567857E+03 -7.4961901195453E+03 -7.4963159128528E+03 -7.4964696394049E+03 
 3.0002908359562E-04  1.5001456755128E-03  5.1005063961332E-03  1.1101149866968E-02  1.9502137440487E-02  3.0303559856780E-02  4.3505537952327E-02  5.9108210713612E-02  7.7111744083763E-02  8.6713748603268E-02 
 1.5363649665125E-03  1.3662543113885E-03  1.0472954848434E-03  7.7086153899043E-04  5.3695253632387E-04  3.4556901123375E-04  1.9671197005008E-04  9.0382891043068E-05  2.6583724460744E-05  5.3168925571462E-06 
-7.4957912449946E+03 -7.4957979646549E+03 -7.4958242572662E+03 -7.4958701228848E+03 -7.4959355616219E+03 -7.4960205736070E+03 -7.4961251590356E+03 -7.4962493181389E+03 -7.4963930511806E+03 -7.4965563584704E+03 
 4.4790913981797E+02  4.4790998572427E+02  4.4791329558528E+02  4.4791906943808E+02  4.4792730734901E+02  4.4793800940887E+02  4.4795117573928E+02  4.4796680648849E+02  4.4798490183131E+02  4.4800546197052E+02 
-7.9437003848126E+03 -7.9437079503792E+03 -7.9437375528515E+03 -7.9437891923229E+03 -7.9438628689709E+03 -7.9439585830159E+03 -7.9440763347749E+03 -7.9442161246274E+03 -7.9443779530119E+03 -7.9445618204409E+03 
ZONE T = "ANOD, 2.0000E-08", I = 10, SOLUTIONTIME = 2.000000E-08
ZONETYPE = ORDERED
DATAPACKING = BLOCK
STRANDID = 1
 0.0000000000000E+00  8.7488888888889E-05  1.7497777777778E-04  2.6246666666667E-04  3.4995555555556E-04  4.3744444444444E-04  5.2493333333333E-04  6.1242222222222E-04  6.9991111111111E-04  7.8740000000000E-04 
 1.1589975177543E-09  3.4769947609268E-09  5.7950006422310E-09  8.1130215921628E-09  1.0431064041266E-08  1.2749134420152E-08  1.5066512744069E-08  1.7383931859282E-08  1.9701398196733E-08  2.0861066211454E-08 
 9.1999999999861E-01  9.1999999999861E-01  9.1999999999861E-01  9.1999999999861E-01  9.1999999999861E-01  9.1999999999861E-01  9.1999999999861E-01  9.1999999999861E-01  9.1999999999861E-01  9.1999999999942E-01 
 4.0000000000696E-02  4.0000000000696E-02  4.0000000000696E-02  4.0000000000696E-02  4.0000000000696E-02  4.0000000000696E-02  4.0000000000696E-02  4.0000000000696E-02  4.0000000000696E-02  4.0000000000288E-02 
 4.0000000000696E-02  4.0000000000696E-02  4.0000000000696E-02  4.0000000000696E-02  4.0000000000696E-02  4.0000000000696E-02  4.0000000000696E-02  4.0000000000696E-02  4.0000000000696E-02  4.0000000000288E-02 
 2.9167373666109E-02  2.9167357938923E-02  2.9167310757337E-02  2.9167232121232E-02  2.9167122030405E-02  2.9166980484563E-02  2.9166807483328E-02  2.9166603026233E-02  2.9166367112725E-02  2.9166099742163E-02 
 0.0000000000000E+00 -4.7371510660621E-09 -8.9170107925204E-09 -1.2539577102601E-08 -1.5604846373515E-08 -1.8112813436445E-08 -2.0063471576533E-08 -2.1456812532852E-08 -2.2292826498388E-08 -2.2571502120000E-08 
-2.9167373666109E-02 -2.9167362676074E-02 -2.9167319674347E-02 -2.9167244660809E-02 -2.9167137635251E-02 -2.9166998597376E-02 -2.9166827546799E-02 -2.9166624483046E-02 -2.9166389405552E-02 -2.9166122313666E-02 
-4.0906712752394E-02 -4.0906712752395E-02 -4.0906712752394E-02 -4.0906712752394E-02 -4.0906712752395E-02 -4.0906712752394E-02 -4.0906712752394E-02 -4.0906712752394E-02 -4.0906712752394E-02 -4.0906712752657E-02 
 1.1739339086286E-02  1.1739350076321E-02  1.1739393078047E-02  1.1739468091585E-02  1.1739575117144E-02  1.1739714155018E-02  1.1739885205594E-02  1.1740088269349E-02  1.1740323346843E-02  1.1740590438991E-02 
 1.6690487381541E+00  3.3381006555202E+00  3.3381130951179E+00  3.3381347951418E+00  3.3381657556604E+00  3.3382059767740E+00  3.3382554586097E+00  3.3383142013252E+00  3.3383822051099E+00  1.6692297351047E+00 
 8.6492352080660E-09  2.5947722096288E-08  4.3246273449470E-08  6.0544937252508E-08  7.7843761503476E-08  9.5142794173729E-08  1.1244208327698E-07  1.2974167679150E-07  1.4704176693803E-07  1.4704176693803E-07 
 0.0000000000000E+00  3.3380990659879E+00  6.6762059412144E+00  1.0014329886344E+01  1.3352480161673E+01  1.6690666027866E+01  2.0028896745771E+01  2.3367181575686E+01  2.6705529778754E+01  3.0043950616499E+01 
 3.0043950616518E+01  2.6705851550604E+01  2.3367744675285E+01  2.0029620730155E+01  1.6691470454754E+01  1.3353284588536E+01  1.0015053870845E+01  6.6767690408771E+00  3.3384208376596E+00  0.0000000000000E+00 
 3.3380977939250E-08  6.6762019462608E-08  6.6762268253957E-08  6.6762702253344E-08  6.6763321462201E-08  6.6764125882455E-08  6.6765115516711E-08  6.6766290368140E-08  6.6767650440477E-08  3.3384597869167E-08 
 9.1448444543314E+04  1.8289688908663E+05  1.8289688908663E+05  1.8289688908663E+05  1.8289688908663E+05  1.8289688908663E+05  1.8289688908663E+05  1.8289688908663E+05  1.8289688908663E+05  9.1448444543314E+04 
 3.6579377817309E+05  7.3158755634618E+05  7.3158755634618E+05  7.3158755634618E+05  7.3158755634618E+05  7.3158755634618E+05  7.3158755634618E+05  7.3158755634618E+05  7.3158755634618E+05  3.6579377817309E+05 
 4.5724222271640E+05  9.1448444543281E+05  9.1448444543281E+05  9.1448444543281E+05  9.1448444543281E+05  9.1448444543281E+05  9.1448444543281E+05  9.1448444543281E+05  9.1448444543281E+05  4.5724222271640E+05 
 3.5000000000000E-01  3.5000000000000E-01  3.5000000000000E-01  3.5000000000000E-01  3.5000000000000E-01  3.5000000000000E-01  3.5000000000000E-01  3.5000000000000E-01  3.5000000000000E-01  3.5000000000000E-01 
 8.5301666666666E+00  1.7060333333333E+01  1.7060333333333E+01  1.7060333333333E+01  1.7060333333333E+01  1.7060333333333E+01  1.7060333333333E+01  1.7060333333333E+01  1.7060333333333E+01  8.5301666666666E+00 
 1.9566425878597E-01  1.9566444513707E-01  1.9566517429034E-01  1.9566644624813E-01  1.9566826101446E-01  1.9567061859522E-01  1.9567351899785E-01  1.9567696223161E-01  1.9568094830757E-01  1.9568547724015E-01 
 4.3744444444444E-05  8.7488888888889E-05  8.7488888888889E-05  8.7488888888889E-05  8.7488888888889E-05  8.7488888888889E-05  8.7488888888889E-05  8.7488888888889E-05  8.7488888888889E-05  4.3744444444444E-05 
 8.6666666666658E+01  8.6666666666658E+01  8.6666666666658E+01  8.6666666666658E+01  8.6666666666658E+01  8.6666666666658E+01  8.6666666666658E+01  8.6666666666658E+01  8.6666666666658E+01  8.6666666666658E+01 
 2.1666666666674E+01  2.1666666666674E+01  2.1666666666674E+01  2.1666666666674E+01  2.1666666666674E+01  2.1666666666674E+01  2.1666666666674E+01  2.1666666666674E+01  2.1666666666674E+01  2.1666666666674E+01 
-1.4991577474527E-04 -1.4991588853853E-04 -1.4991634876367E-04 -1.4991715159360E-04 -1.4991829702917E-04 -1.4991978507132E-04 -1.4992161572142E-04 -1.4992378898121E-04 -1.4992630485268E-04 -1.4992937939155E-04 
-7.4957880659262E+03 -7.4957937555980E+03 -7.4958167669026E+03 -7.4958569084866E+03 -7.4959141803853E+03 -7.4959885826535E+03 -7.4960801153563E+03 -7.4961887785759E+03 -7.4963145724151E+03 -7.4964682997504E+03 
 6.0006077286005E-04  3.0003058360271E-03  1.0201063722876E-02  2.2202409877109E-02  3.9004469108417E-02  6.0607422250638E-02  8.7011506871601E-02  1.1821700532437E-01  1.5422425356207E-01  1.7342836072650E-01 
 3.0727451673538E-03  2.7325221702524E-03  2.0946013543229E-03  1.5417307214937E-03  1.0739103967452E-03  6.9114144886571E-04  3.9342589050991E-04  1.8076667822038E-04  5.3167712491236E-05  1.0633837828169E-05 
-7.4957899023381E+03 -7.4957966220260E+03 -7.4958229147658E+03 -7.4958687806158E+03 -7.4959342196748E+03 -7.4960192320884E+03 -7.4961238180391E+03 -7.4962479777543E+03 -7.4963917115085E+03 -7.4965550196795E+03 
 4.4790897079482E+02  4.4790981670441E+02  4.4791312658091E+02  4.4791890046167E+02  4.4792713841139E+02  4.4793784052301E+02  4.4795100691638E+02  4.4796663773940E+02  4.4798473316817E+02  4.4800529341472E+02 
-7.9436988731329E+03 -7.9437064387304E+03 -7.9437360413467E+03 -7.9437876810775E+03 -7.9438613580862E+03 -7.9439570726114E+03 -7.9440748249555E+03 -7.9442146154937E+03 -7.9443764446767E+03 -7.9445603130942E+03 
ZONE T = "ANOD, 3.0000E-08", I = 10, SOLUTIONTIME = 3.000000E-08
ZONETYPE = ORDERED
DATAPACKING = BLOCK
STRANDID = 1
 0.0000000000000E+00  8.7488888888889E-05  1.7497777777778E-04  2.6246666666667E-04  3.4995555555556E-04  4.3744444444444E-04  5.2493333333333E-04  6.1242222222222E-04  6.9991111111111E-04  7.8740000000000E-04 
 1.1589975177341E-09  3.4769947608662E-09  5.7950006421301E-09  8.1130215920215E-09  1.0431064041085E-08  1.2749134419931E-08  1.5067965574719E-08  1.7386837520803E-08  1.9705756689126E-08  2.0864335080654E-08 
 9.1999999999791E-01  9.1999999999791E-01  9.1999999999791E-01  9.1999999999791E-01  9.1999999999791E-01  9.1999999999791E-01  9.1999999999791E-01  9.1999999999791E-01  9.1999999999791E-01  9.1999999999914E-01 
 4.0000000001045E-02  4.0000000001045E-02  4.0000000001045E-02  4.0000000001045E-02  4.0000000001045E-02  4.0000000001045E-02  4.0000000001045E-02  4.0000000001045E-02  4.0000000001045E-02  4.0000000000432E-02 
 4.0000000001045E-02  4.0000000001045E-02  4.0000000001045E-02  4.0000000001045E-02  4.0000000001045E-02  4.0000000001045E-02  4.0000000001045E-02  4.0000000001045E-02  4.0000000001045E-02  4.0000000000432E-02 
 2.9167373665895E-02  2.9167357938710E-02  2.9167310757123E-02  2.9167232121018E-02  2.9167122030191E-02  2.9166980484349E-02  2.9166807483114E-02  2.9166603026020E-02  2.9166367112512E-02  2.9166099741950E-02 
 0.0000000000000E+00 -4.7371510659827E-09 -8.9170107923713E-09 -1.2539577102392E-08 -1.5604846373255E-08 -1.8112813436145E-08 -2.0063471576202E-08 -2.1456812532500E-08 -2.2292826498023E-08 -2.2571502119634E-08 
-2.9167373665895E-02 -2.9167362675861E-02 -2.9167319674134E-02 -2.9167244660596E-02 -2.9167137635038E-02 -2.9166998597163E-02 -2.9166827546586E-02 -2.9166624482832E-02 -2.9166389405338E-02 -2.9166122313452E-02 
-4.0906712751895E-02 -4.0906712751897E-02 -4.0906712751895E-02 -4.0906712751895E-02 -4.0906712751895E-02 -4.0906712751895E-02 -4.0906712751892E-02 -4.0906712751892E-02 -4.0906712751892E-02 -4.0906712752285E-02 
 1.1739339086000E-02  1.1739350076036E-02  1.1739393077761E-02  1.1739468091299E-02  1.1739575116858E-02  1.1739714154732E-02  1.1739885205306E-02  1.1740088269060E-02  1.1740323346554E-02  1.1740590438833E-02 
 1.6690487381251E+00  3.3381006554619E+00  3.3381130950598E+00  3.3381347950837E+00  3.3381657556034E+00  3.3382059767160E+00  3.3382554585516E+00  3.3383142012682E+00  3.3383822050529E+00  1.6692297350908E+00 
 8.6492352039783E-09  2.5947722098768E-08  4.3246273447939E-08  6.0544937246956E-08  7.7843761502245E-08  9.5142794174218E-08  1.1244208327189E-07  1.2974167678656E-07  1.4704183905653E-07  1.4704183905653E-07 
 0.0000000000000E+00  3.3380990658328E+00  6.6762059410884E+00  1.0014329886247E+01  1.3352480161605E+01  1.6690666027643E+01  2.0028896745394E+01  2.3367181575153E+01  2.6705529778398E+01  3.0043950616291E+01 
 3.0043950616013E+01  2.6705851550157E+01  2.3367744674896E+01  2.0029620729825E+01  1.6691470454481E+01  1.3353284588321E+01  1.0015053870688E+01  6.6767690407777E+00  3.3384208376172E+00  0.0000000000000E+00 
 5.0071465320501E-08  1.0014302601723E-07  1.0014339920456E-07  1.0014405020418E-07  1.0014497901824E-07  1.0014618564962E-07  1.0014767010223E-07  1.0014943238082E-07  1.0015147249101E-07  5.0076895220075E-08 
 9.1448444543331E+04  1.8289688908666E+05  1.8289688908666E+05  1.8289688908666E+05  1.8289688908666E+05  1.8289688908666E+05  1.8289688908666E+05  1.8289688908666E+05  1.8289688908666E+05  9.1448444543331E+04 
 3.6579377817307E+05  7.3158755634615E+05  7.3158755634615E+05  7.3158755634615E+05  7.3158755634615E+05  7.3158755634615E+05  7.3158755634615E+05  7.3158755634615E+05  7.3158755634615E+05  3.6579377817307E+05 
 4.5724222271640E+05  9.1448444543281E+05  9.1448444543281E+05  9.1448444543281E+05  9.1448444543281E+05  9.1448444543281E+05  9.1448444543281E+05  9.1448444543281E+05  9.1448444543281E+05  4.5724222271640E+05 
 3.5000000000000E-01  3.5000000000000E-01  3.5000000000000E-01  3.5000000000000E-01  3.5000000000000E-01  3.5000000000000E-01  3.5000000000000E-01  3.5000000000000E-01  3.5000000000000E-01  3.5000000000000E-01 
 8.5301666666666E+00  1.7060333333333E+01  1.7060333333333E+01  1.7060333333333E+01  1.7060333333333E+01  1.7060333333333E+01  1.7060333333333E+01  1.7060333333333E+01  1.7060333333333E+01  8.5301666666666E+00 
 1.9566425878257E-01  1.9566444513366E-01  1.9566517428693E-01  1.9566644624472E-01  1.9566826101112E-01  1.9567061859182E-01  1.9567351899445E-01  1.9567696222826E-01  1.9568094830423E-01  1.9568547723852E-01 
 4.3744444444444E-05  8.7488888888889E-05  8.7488888888889E-05  8.7488888888889E-05  8.7488888888889E-05  8.7488888888889E-05  8.7488888888889E-05  8.7488888888889E-05  8.7488888888889E-05  4.3744444444444E-05 
 8.6666666666654E+01  8.6666666666654E+01  8.6666666666654E+01  8.6666666666654E+01  8.6666666666654E+01  8.6666666666654E+01  8.6666666666654E+01  8.6666666666654E+01  8.6666666666654E+01  8.6666666666654E+01 
 2.1666666666678E+01  2.1666666666678E+01  2.1666666666678E+01  2.1666666666678E+01  2.1666666666678E+01  2.1666666666678E+01  2.1666666666678E+01  2.1666666666678E+01  2.1666666666678E+01  2.1666666666678E+01 
-2.2487365540324E-04 -2.2487382609322E-04 -2.2487451643141E-04 -2.2487572067718E-04 -2.2487743883176E-04 -2.2487967089657E-04 -2.2488241687369E-04 -2.2488567676570E-04 -2.2488945057556E-04 -2.2489406238845E-04 
-7.4957880657974E+03 -7.4957937554689E+03 -7.4958167667738E+03 -7.4958569083578E+03 -7.4959141802589E+03 -7.4959885825249E+03 -7.4960801152274E+03 -7.4961887784492E+03 -7.4963145722886E+03 -7.4964682996896E+03 
 9.0009246199472E-04  4.5004659964883E-03  1.5301621049333E-02  3.3303669887016E-02  5.8506800775922E-02  9.0911284643436E-02  1.3051747578881E-01  1.7732579993194E-01  2.3133676303783E-01  2.6014297284801E-01 
 4.6091253681437E-03  4.0987900290705E-03  3.1419072237676E-03  2.3125999039715E-03  1.6108682571491E-03  1.0367138864865E-03  5.9013981096355E-04  2.7115046539499E-04  7.9751700521007E-05  1.5950783099102E-05 
-7.4957899022093E+03 -7.4957966218969E+03 -7.4958229146370E+03 -7.4958687804870E+03 -7.4959342195484E+03 -7.4960192319598E+03 -7.4961238179102E+03 -7.4962479776276E+03 -7.4963917113820E+03 -7.4965550196187E+03 
 4.4790897077602E+02  4.4790981668556E+02  4.4791312656211E+02  4.4791890044287E+02  4.4792713839291E+02  4.4793784050422E+02  4.4795100689757E+02  4.4796663772089E+02  4.4798473314967E+02  4.4800529340512E+02 
-7.9436988729853E+03 -7.9437064385824E+03 -7.9437360411991E+03 -7.9437876809299E+03 -7.9438613579413E+03 -7.9439570724640E+03 -7.9440748248078E+03 -7.9442146153485E+03 -7.9443764445317E+03 -7.9445603130238E+03 
ZONE T = "ANOD, 4.0000E-08", I = 10, SOLUTIONTIME = 4.000000E-08
ZONETYPE = ORDERED
DATAPACKING = BLOCK
STRANDID = 1
 0.0000000000000E+00  8.7488888888889E-05  1.7497777777778E-04  2.6246666666667E-04  3.4995555555556E-04  4.3744444444444E-04  5.2493333333333E-04  6.1242222222222E-04  6.9991111111111E-04  7.8740000000000E-04 
 1.1593607254418E-09  3.4777211762618E-09  5.7964534729411E-09  8.1152008382479E-09  1.0432153664088E-08  1.2749497627438E-08  1.5065786328092E-08  1.7383931858680E-08  1.9702124611508E-08  2.0861247814617E-08 
 9.1999999999721E-01  9.1999999999721E-01  9.1999999999721E-01  9.1999999999721E-01  9.1999999999721E-01  9.1999999999721E-01  9.1999999999721E-01  9.1999999999721E-01  9.1999999999721E-01  9.1999999999885E-01 
 4.0000000001393E-02  4.0000000001393E-02  4.0000000001393E-02  4.0000000001393E-02  4.0000000001393E-02  4.0000000001393E-02  4.0000000001393E-02  4.0000000001393E-02  4.0000000001393E-02  4.0000000000576E-02 
 4.0000000001393E-02  4.0000000001393E-02  4.0000000001393E-02  4.0000000001393E-02  4.0000000001393E-02  4.0000000001393E-02  4.0000000001393E-02  4.0000000001393E-02  4.0000000001393E-02  4.0000000000576E-02 
 2.9167373665683E-02  2.9167357938497E-02  2.9167310756911E-02  2.9167232120806E-02  2.9167122029979E-02  2.9166980484137E-02  2.9166807482902E-02  2.9166603025807E-02  2.9166367112299E-02  2.9166099741737E-02 
 0.0000000000000E+00 -4.7371510659033E-09 -8.9170107922220E-09 -1.2539577102182E-08 -1.5604846372995E-08 -1.8112813435844E-08 -2.0063471575869E-08 -2.1456812532146E-08 -2.2292826497657E-08 -2.2571502119266E-08 
-2.9167373665683E-02 -2.9167362675648E-02 -2.9167319673921E-02 -2.9167244660383E-02 -2.9167137634825E-02 -2.9166998596950E-02 -2.9166827546373E-02 -2.9166624482620E-02 -2.9166389405126E-02 -2.9166122313240E-02 
-4.0906712751392E-02 -4.0906712751394E-02 -4.0906712751392E-02 -4.0906712751392E-02 -4.0906712751394E-02 -4.0906712751392E-02 -4.0906712751391E-02 -4.0906712751392E-02 -4.0906712751392E-02 -4.0906712751917E-02 
 1.1739339085710E-02  1.1739350075746E-02  1.1739393077471E-02  1.1739468091009E-02  1.1739575116569E-02  1.1739714154442E-02  1.1739885205018E-02  1.1740088268772E-02  1.1740323346266E-02  1.1740590438678E-02 
 1.6690487380961E+00  3.3381006554046E+00  3.3381130950019E+00  3.3381347950257E+00  3.3381657555455E+00  3.3382059766581E+00  3.3382554584944E+00  3.3383142012103E+00  3.3383822049951E+00  1.6692297350767E+00 