TITLE = "Solution on Domain BulkDomain1D_2"
VARIABLES = "x [m]"  
"Vel_axial" 	"MF_sp(ECDMC)" 	"MF_sp(Li+)" 	"MF_sp(PF6-)" 	"Volt(Electroly)" 	"Volt(CathodeVo)" 	
"Potential Drop Electrode-Electrolyte [V]" 	"Surf_0 Equilibrium Potential Drop Electrode-Electrolyte [V]" 	"Overpotential_0 [V]" 	"Current Source [A/m^2]" 	"Li+ flux [kmol/m^2/s]" 	"Electrolyte Current [A/m^2]" 	"Electrode Current [A/m^2]" 	
"CV Capacity discharged [A-s/m^2]" 	"Depth of discharge in CV [A-s/m^2]" 	"CV Capacity remaining [A-s/m^2]" 	"Initial CV capacity [A-s/m^2]" 	"Porosity []" 	"Surface Area [m2/m2] (area per area)" 	"Specific current (per particle area) [A/m^2]" 	"Control volume thickness [m]" 	
"MoleDens LiCoO2 [kmol/m^3]" 	"MoleDens CoO2 [kmol/m^3]" 	"qHeat_accum [J/m3]" 	"qHeat_step [W/m3]" 	"Joule_Lyte [W/m3]" 	"Joule_Solid [W/m3]" 	"electrodHeat [W/m3]" 	"OverpotHeat [W/m3]" 	"deltaSHeat [W/m3]" 	

ZONE T = "CATH, 0.0000E+00", I = 10, SOLUTIONTIME = 0.000000E+00
ZONETYPE = ORDERED
DATAPACKING = BLOCK
STRANDID = 3
 1.2700000000000E-03  1.3377333333333E-03  1.4054666666667E-03  1.4732000000000E-03  1.5409333333333E-03  1.6086666666667E-03  1.6764000000000E-03  1.7441333333333E-03  1.8118666666667E-03  1.8796000000000E-03 
 0.0000000000000E+00  0.0000000000000E+00  0.0000000000000E+00  0.0000000000000E+00  0.0000000000000E+00  0.0000000000000E+00  0.0000000000000E+00  0.0000000000000E+00  0.0000000000000E+00  0.0000000000000E+00 
 9.2000000000000E-01  9.2000000000000E-01  9.2000000000000E-01  9.2000000000000E-01  9.2000000000000E-01  9.2000000000000E-01  9.2000000000000E-01  9.2000000000000E-01  9.2000000000000E-01  9.2000000000000E-01 
 4.0000000000000E-02  4.0000000000000E-02  4.0000000000000E-02  4.0000000000000E-02  4.0000000000000E-02  4.0000000000000E-02  4.0000000000000E-02  4.0000000000000E-02  4.0000000000000E-02  4.0000000000000E-02 
 4.0000000000000E-02  4.0000000000000E-02  4.0000000000000E-02  4.0000000000000E-02  4.0000000000000E-02  4.0000000000000E-02  4.0000000000000E-02  4.0000000000000E-02  4.0000000000000E-02  4.0000000000000E-02 
-7.0000000000000E-02 -7.0000000000000E-02 -7.0000000000000E-02 -7.0000000000000E-02 -7.0000000000000E-02 -7.0000000000000E-02 -7.0000000000000E-02 -7.0000000000000E-02 -7.0000000000000E-02 -7.0000000000000E-02 
 3.8000000000000E+00  3.8000000000000E+00  3.8000000000000E+00  3.8000000000000E+00  3.8000000000000E+00  3.8000000000000E+00  3.8000000000000E+00  3.8000000000000E+00  3.8000000000000E+00  3.8000000000000E+00 
 3.8700000000000E+00  3.8700000000000E+00  3.8700000000000E+00  3.8700000000000E+00  3.8700000000000E+00  3.8700000000000E+00  3.8700000000000E+00  3.8700000000000E+00  3.8700000000000E+00  3.8700000000000E+00 
 3.9714142713289E+00  3.9714142713289E+00  3.9714142713289E+00  3.9714142713289E+00  3.9714142713289E+00  3.9714142713289E+00  3.9714142713289E+00  3.9714142713289E+00  3.9714142713289E+00  3.9714142713289E+00 
-1.0141427132889E-01 -1.0141427132889E-01 -1.0141427132889E-01 -1.0141427132889E-01 -1.0141427132889E-01 -1.0141427132889E-01 -1.0141427132889E-01 -1.0141427132889E-01 -1.0141427132889E-01 -1.0141427132889E-01 
-2.3826357195711E-01 -4.7652714391422E-01 -4.7652714391423E-01 -4.7652714391422E-01 -4.7652714391423E-01 -4.7652714391423E-01 -4.7652714391422E-01 -4.7652714391423E-01 -4.7652714391422E-01 -2.3826357195711E-01 
-0.0000000000000E+00 -0.0000000000000E+00 -0.0000000000000E+00 -0.0000000000000E+00 -0.0000000000000E+00 -0.0000000000000E+00 -0.0000000000000E+00 -0.0000000000000E+00 -0.0000000000000E+00 -0.0000000000000E+00 
 2.3826357195711E-01  0.0000000000000E+00  0.0000000000000E+00  0.0000000000000E+00  0.0000000000000E+00  0.0000000000000E+00  0.0000000000000E+00  0.0000000000000E+00  0.0000000000000E+00  0.0000000000000E+00 
 0.0000000000000E+00 -0.0000000000000E+00 -0.0000000000000E+00 -0.0000000000000E+00 -0.0000000000000E+00 -0.0000000000000E+00 -0.0000000000000E+00 -0.0000000000000E+00 -0.0000000000000E+00  2.3826357195711E-01 
-0.0000000000000E+00 -0.0000000000000E+00 -0.0000000000000E+00 -0.0000000000000E+00 -0.0000000000000E+00 -0.0000000000000E+00 -0.0000000000000E+00 -0.0000000000000E+00 -0.0000000000000E+00 -0.0000000000000E+00 
 7.2440786946225E+03  1.4488157389245E+04  1.4488157389245E+04  1.4488157389245E+04  1.4488157389245E+04  1.4488157389245E+04  1.4488157389245E+04  1.4488157389245E+04  1.4488157389245E+04  7.2440786946225E+03 
 4.9259735123433E+04  9.8519470246865E+04  9.8519470246866E+04  9.8519470246865E+04  9.8519470246866E+04  9.8519470246866E+04  9.8519470246865E+04  9.8519470246866E+04  9.8519470246865E+04  4.9259735123433E+04 
 5.6503813818055E+04  1.1300762763611E+05  1.1300762763611E+05  1.1300762763611E+05  1.1300762763611E+05  1.1300762763611E+05  1.1300762763611E+05  1.1300762763611E+05  1.1300762763611E+05  5.6503813818055E+04 
 3.5000000000000E-01  3.5000000000000E-01  3.5000000000000E-01  3.5000000000000E-01  3.5000000000000E-01  3.5000000000000E-01  3.5000000000000E-01  3.5000000000000E-01  3.5000000000000E-01  3.5000000000000E-01 
 6.6040000000000E+00  1.3208000000000E+01  1.3208000000000E+01  1.3208000000000E+01  1.3208000000000E+01  1.3208000000000E+01  1.3208000000000E+01  1.3208000000000E+01  1.3208000000000E+01  6.6040000000000E+00 
-3.6078675341780E-02 -3.6078675341780E-02 -3.6078675341780E-02 -3.6078675341780E-02 -3.6078675341780E-02 -3.6078675341780E-02 -3.6078675341780E-02 -3.6078675341780E-02 -3.6078675341780E-02 -3.6078675341780E-02 
 3.3866666666667E-05  6.7733333333333E-05  6.7733333333334E-05  6.7733333333333E-05  6.7733333333334E-05  6.7733333333334E-05  6.7733333333333E-05  6.7733333333334E-05  6.7733333333333E-05  3.3866666666667E-05 
 2.6603001364256E+01  2.6603001364256E+01  2.6603001364256E+01  2.6603001364256E+01  2.6603001364256E+01  2.6603001364256E+01  2.6603001364256E+01  2.6603001364256E+01  2.6603001364256E+01  2.6603001364256E+01 
 1.7735334242838E+01  1.7735334242838E+01  1.7735334242838E+01  1.7735334242838E+01  1.7735334242838E+01  1.7735334242838E+01  1.7735334242838E+01  1.7735334242838E+01  1.7735334242838E+01  1.7735334242838E+01 
 0.0000000000000E+00  0.0000000000000E+00  0.0000000000000E+00  0.0000000000000E+00  0.0000000000000E+00  0.0000000000000E+00  0.0000000000000E+00  0.0000000000000E+00  0.0000000000000E+00  0.0000000000000E+00 
 0.0000000000000E+00  0.0000000000000E+00  0.0000000000000E+00  0.0000000000000E+00  0.0000000000000E+00  0.0000000000000E+00  0.0000000000000E+00  0.0000000000000E+00  0.0000000000000E+00  0.0000000000000E+00 
 0.0000000000000E+00  0.0000000000000E+00  0.0000000000000E+00  0.0000000000000E+00  0.0000000000000E+00  0.0000000000000E+00  0.0000000000000E+00  0.0000000000000E+00  0.0000000000000E+00  0.0000000000000E+00 
 0.0000000000000E+00  0.0000000000000E+00  0.0000000000000E+00  0.0000000000000E+00  0.0000000000000E+00  0.0000000000000E+00  0.0000000000000E+00  0.0000000000000E+00  0.0000000000000E+00  0.0000000000000E+00 
 0.0000000000000E+00  0.0000000000000E+00  0.0000000000000E+00  0.0000000000000E+00  0.0000000000000E+00  0.0000000000000E+00  0.0000000000000E+00  0.0000000000000E+00  0.0000000000000E+00  0.0000000000000E+00 
 0.0000000000000E+00  0.0000000000000E+00  0.0000000000000E+00  0.0000000000000E+00  0.0000000000000E+00  0.0000000000000E+00  0.0000000000000E+00  0.0000000000000E+00  0.0000000000000E+00  0.0000000000000E+00 
 0.0000000000000E+00  0.0000000000000E+00  0.0000000000000E+00  0.0000000000000E+00  0.0000000000000E+00  0.0000000000000E+00  0.0000000000000E+00  0.0000000000000E+00  0.0000000000000E+00  0.0000000000000E+00 
ZONE T = "CATH, 1.0000E-08", I = 10, SOLUTIONTIME = 1.000000E-08
ZONETYPE = ORDERED
DATAPACKING = BLOCK
STRANDID = 3
 1.2700000000000E-03  1.3377333333333E-03  1.4054666666667E-03  1.4732000000000E-03  1.5409333333333E-03  1.6086666666667E-03  1.6764000000000E-03  1.7441333333333E-03  1.8118666666667E-03  1.8796000000000E-03 
 1.9682875568121E-08  1.7369457663716E-08  1.5055755863565E-08  1.2741574267225E-08  1.0426716819265E-08  8.1109872458263E-09  5.7941889910421E-09  3.4761251532646E-09  1.1565984210624E-09 -3.9952849973266E-12 
 9.2000000000032E-01  9.2000000000090E-01  9.2000000000090E-01  9.2000000000090E-01  9.2000000000090E-01  9.2000000000090E-01  9.2000000000090E-01  9.2000000000090E-01  9.2000000000090E-01  9.2000000000090E-01 
 3.9999999999841E-02  3.9999999999551E-02  3.9999999999551E-02  3.9999999999551E-02  3.9999999999551E-02  3.9999999999551E-02  3.9999999999550E-02  3.9999999999550E-02  3.9999999999550E-02  3.9999999999550E-02 
 3.9999999999841E-02  3.9999999999551E-02  3.9999999999551E-02  3.9999999999551E-02  3.9999999999551E-02  3.9999999999551E-02  3.9999999999550E-02  3.9999999999550E-02  3.9999999999550E-02  3.9999999999550E-02 
 2.9180542363069E-02  2.9180335542016E-02  2.9180153024650E-02  2.9179994813952E-02  2.9179860914962E-02  2.9179751334782E-02  2.9179666082573E-02  2.9179605169563E-02  2.9179568609046E-02  2.9179556416392E-02 
 3.8001744822351E+00  3.8001723293221E+00  3.8001658704191E+00  3.8001551049976E+00  3.8001400321646E+00  3.8001206506621E+00  3.8000969588669E+00  3.8000689547898E+00  3.8000366360751E+00  3.8000000000000E+00 
 3.7709939398721E+00  3.7709919937801E+00  3.7709857173944E+00  3.7709751101836E+00  3.7709601712496E+00  3.7709408993273E+00  3.7709172927843E+00  3.7708893496202E+00  3.7708570674661E+00  3.7708204435836E+00 
 3.9714142713287E+00  3.9714142713285E+00  3.9714142713285E+00  3.9714142713285E+00  3.9714142713285E+00  3.9714142713285E+00  3.9714142713285E+00  3.9714142713285E+00  3.9714142713285E+00  3.9714142713285E+00 
-2.0042033145663E-01 -2.0042227754842E-01 -2.0042855393411E-01 -2.0043916114491E-01 -2.0045410007892E-01 -2.0047337200119E-01 -2.0049697854419E-01 -2.0052492170830E-01 -2.0055720386245E-01 -2.0059382774491E-01 
-1.6677148275410E+00 -3.3355560825247E+00 -3.3359638591548E+00 -3.3366531225245E+00 -3.3376241051862E+00 -3.3388771348585E+00 -3.3404126346611E+00 -3.3422311234169E+00 -3.3443332160234E+00 -1.6733598119466E+00 
 1.4691707911496E-07  1.2965263397128E-07  1.1238620264532E-07  9.5116190746628E-08  7.7841135183114E-08  6.0559571222630E-08  4.3270032019558E-08  2.5971048177516E-08  8.6611472092738E-09  8.6611472092738E-09 
 3.0018376888681E+01  2.6684909039714E+01  2.3353198580466E+01  2.0020938232532E+01  1.6687845772416E+01  1.3353638707256E+01  1.0018034183455E+01  6.6807488963248E+00  3.3414989973461E+00  0.0000000000000E+00 
 0.0000000000000E+00  3.3314426168171E+00  6.6631530760023E+00  9.9954134238457E+00  1.3328505884101E+01  1.6662712949549E+01  1.9998317473227E+01  2.3335602759985E+01  2.6674852659263E+01  3.0018364092073E+01 
 1.6677148275410E-08  3.3355560825247E-08  3.3359638591548E-08  3.3366531225245E-08  3.3376241051862E-08  3.3388771348585E-08  3.3404126346611E-08  3.3422311234169E-08  3.3443332160234E-08  1.6733598119466E-08 
 7.2440786946392E+03  1.4488157389278E+04  1.4488157389278E+04  1.4488157389278E+04  1.4488157389278E+04  1.4488157389278E+04  1.4488157389278E+04  1.4488157389278E+04  1.4488157389278E+04  7.2440786946392E+03 
 4.9259735123416E+04  9.8519470246832E+04  9.8519470246832E+04  9.8519470246832E+04  9.8519470246832E+04  9.8519470246832E+04  9.8519470246832E+04  9.8519470246832E+04  9.8519470246832E+04  4.9259735123416E+04 
 5.6503813818055E+04  1.1300762763611E+05  1.1300762763611E+05  1.1300762763611E+05  1.1300762763611E+05  1.1300762763611E+05  1.1300762763611E+05  1.1300762763611E+05  1.1300762763611E+05  5.6503813818055E+04 
 3.5000000000000E-01  3.5000000000000E-01  3.5000000000000E-01  3.5000000000000E-01  3.5000000000000E-01  3.5000000000000E-01  3.5000000000000E-01  3.5000000000000E-01  3.5000000000000E-01  3.5000000000000E-01 
 6.6040000000000E+00  1.3208000000000E+01  1.3208000000000E+01  1.3208000000000E+01  1.3208000000000E+01  1.3208000000000E+01  1.3208000000000E+01  1.3208000000000E+01  1.3208000000000E+01  6.6040000000000E+00 
-2.5253101567853E-01 -2.5254058771386E-01 -2.5257146117163E-01 -2.5262364646612E-01 -2.5269716120428E-01 -2.5279203019825E-01 -2.5290828548313E-01 -2.5304596633986E-01 -2.5320511932339E-01 -2.5338579829597E-01 
 3.3866666666667E-05  6.7733333333333E-05  6.7733333333334E-05  6.7733333333333E-05  6.7733333333334E-05  6.7733333333334E-05  6.7733333333333E-05  6.7733333333334E-05  6.7733333333333E-05  3.3866666666667E-05 
 2.6603001364262E+01  2.6603001364262E+01  2.6603001364262E+01  2.6603001364262E+01  2.6603001364262E+01  2.6603001364262E+01  2.6603001364262E+01  2.6603001364262E+01  2.6603001364262E+01  2.6603001364262E+01 
 1.7735334242833E+01  1.7735334242833E+01  1.7735334242833E+01  1.7735334242833E+01  1.7735334242833E+01  1.7735334242833E+01  1.7735334242833E+01  1.7735334242833E+01  1.7735334242833E+01  1.7735334242833E+01 
 2.1720623339194E-04  2.1721744690930E-04  2.1725326765222E-04  2.1731381619467E-04  2.1739911430422E-04  2.1750919265710E-04  2.1764409086106E-04  2.1780385748489E-04  2.1798855009475E-04  2.1817908900900E-04 
 2.1720623339194E+04  2.1721744690930E+04  2.1725326765222E+04  2.1731381619467E+04  2.1739911430422E+04  2.1750919265710E+04  2.1764409086106E+04  2.1780385748489E+04  2.1798855009475E+04  2.1817908900900E+04 
 8.6567624472607E-02  7.6992698571688E-02  5.9037283690813E-02  4.3470625092722E-02  3.0292892454929E-02  1.9505065585110E-02  1.1108935783352E-02  5.1071077728375E-03  1.5030021941968E-03  3.0085867447629E-04 
 5.2944165930605E-02  2.6473292585774E-01  9.0016821535235E-01  1.9594598037066E+00  3.4429610574599E+00  5.3511691859937E+00  7.6847255871349E+00  1.0444416293655E+01  1.3631172521710E+01  1.5331442510819E+01 
 2.1720483827404E+04  2.1721402965306E+04  2.1724367559723E+04  2.1729378689038E+04  2.1736438176473E+04  2.1745548591459E+04  2.1756713251583E+04  2.1769936225088E+04  2.1785222333951E+04  2.1802577157530E+04 
 9.8694082237522E+03  9.8698781538050E+03  9.8713938819070E+03  9.8739559977068E+03  9.8775654981460E+03  9.8822237882438E+03  9.8879326822051E+03  9.8946944048500E+03  9.9025115933699E+03  9.9113872994103E+03 
 1.1851075603652E+04  1.1851524811501E+04  1.1852973677816E+04  1.1855422691332E+04  1.1858872678327E+04  1.1863324803215E+04  1.1868780569378E+04  1.1875241820238E+04  1.1882710740581E+04  1.1891189858120E+04 
ZONE T = "CATH, 2.0000E-08", I = 10, SOLUTIONTIME = 2.000000E-08
ZONETYPE = ORDERED
DATAPACKING = BLOCK
STRANDID = 3
 1.2700000000000E-03  1.3377333333333E-03  1.4054666666667E-03  1.4732000000000E-03  1.5409333333333E-03  1.6086666666667E-03  1.6764000000000E-03  1.7441333333333E-03  1.8118666666667E-03  1.8796000000000E-03 
 1.9697523129468E-08  1.7382377225771E-08  1.5067311211727E-08  1.2751403097672E-08  1.0434820355563E-08  8.1166406064954E-09  5.7977572162390E-09  3.4776103591958E-09  1.1560029902850E-09 -5.8113236439432E-12 
 9.2000000000063E-01  9.2000000000180E-01  9.2000000000180E-01  9.2000000000180E-01  9.2000000000180E-01  9.2000000000180E-01  9.2000000000180E-01  9.2000000000180E-01  9.2000000000180E-01  9.2000000000180E-01 
 3.9999999999683E-02  3.9999999999102E-02  3.9999999999102E-02  3.9999999999102E-02  3.9999999999101E-02  3.9999999999101E-02  3.9999999999100E-02  3.9999999999100E-02  3.9999999999099E-02  3.9999999999099E-02 
 3.9999999999683E-02  3.9999999999102E-02  3.9999999999102E-02  3.9999999999102E-02  3.9999999999101E-02  3.9999999999101E-02  3.9999999999100E-02  3.9999999999100E-02  3.9999999999099E-02  3.9999999999099E-02 
 2.9165953672594E-02  2.9165746665228E-02  2.9165563983517E-02  2.9165405630437E-02  2.9165271611020E-02  2.9165161932353E-02  2.9165076603582E-02  2.9165015635915E-02  2.9164979042625E-02  2.9164966839055E-02 
 3.8001746397140E+00  3.8001724848545E+00  3.8001660201127E+00  3.8001552449611E+00  3.8001401585083E+00  3.8001207594988E+00  3.8000970463120E+00  3.8000690169622E+00  3.8000366690977E+00  3.8000000000000E+00 
 3.7710086860414E+00  3.7710067381893E+00  3.7710004561292E+00  3.7709898393306E+00  3.7709748868973E+00  3.7709555975664E+00  3.7709319697084E+00  3.7709040013262E+00  3.7708716900550E+00  3.7708350331609E+00 
 3.9714142713285E+00  3.9714142713282E+00  3.9714142713282E+00  3.9714142713282E+00  3.9714142713282E+00  3.9714142713282E+00  3.9714142713282E+00  3.9714142713282E+00  3.9714142713282E+00  3.9714142713282E+00 
-2.0040558528712E-01 -2.0040753313883E-01 -2.0041381519899E-01 -2.0042443199753E-01 -2.0043938443085E-01 -2.0045867376174E-01 -2.0048230161978E-01 -2.0051027000191E-01 -2.0054258127312E-01 -2.0057923816721E-01 
-1.6672359144158E+00 -3.3345983343181E+00 -3.3350063626404E+00 -3.3356960514030E+00 -3.3366676332964E+00 -3.3379214362402E+00 -3.3394578836187E+00 -3.3412774945848E+00 -3.3433808844335E+00 -1.6728843825224E+00 
 1.4704956114525E-07  1.2976937742855E-07  1.1248734441065E-07  9.5201737564154E-08  7.7911096177474E-08  6.0613957851520E-08  4.3308857951356E-08  2.5994329207525E-08  8.6689011163002E-09  8.6689011163002E-09 
 3.0043437539397E+01  2.6708942850946E+01  2.3374221302904E+01  2.0038950933205E+01  1.6702849982711E+01  1.3365636412978E+01  1.0027027808903E+01  6.6867412843129E+00  3.3444933870872E+00  0.0000000000000E+00 
 0.0000000000000E+00  3.3344542995891E+00  6.6691758476546E+00  1.0004446217538E+01  1.3340547167775E+01  1.6677760737611E+01  2.0016369341835E+01  2.3356655866123E+01  2.6698903763584E+01  3.0043437908294E+01 
 3.3349507419568E-08  6.6701544168427E-08  6.6709702217953E-08  6.6723491739275E-08  6.6742917384825E-08  6.6767985710987E-08  6.6798705182798E-08  6.6835086180017E-08  6.6877141004568E-08  3.3462441944691E-08 
 7.2440786946558E+03  1.4488157389312E+04  1.4488157389312E+04  1.4488157389312E+04  1.4488157389312E+04  1.4488157389312E+04  1.4488157389312E+04  1.4488157389312E+04  1.4488157389312E+04  7.2440786946559E+03 
 4.9259735123400E+04  9.8519470246798E+04  9.8519470246799E+04  9.8519470246798E+04  9.8519470246799E+04  9.8519470246799E+04  9.8519470246798E+04  9.8519470246799E+04  9.8519470246798E+04  4.9259735123399E+04 
 5.6503813818055E+04  1.1300762763611E+05  1.1300762763611E+05  1.1300762763611E+05  1.1300762763611E+05  1.1300762763611E+05  1.1300762763611E+05  1.1300762763611E+05  1.1300762763611E+05  5.6503813818055E+04 
 3.5000000000000E-01  3.5000000000000E-01  3.5000000000000E-01  3.5000000000000E-01  3.5000000000000E-01  3.5000000000000E-01  3.5000000000000E-01  3.5000000000000E-01  3.5000000000000E-01  3.5000000000000E-01 
 6.6040000000000E+00  1.3208000000000E+01  1.3208000000000E+01  1.3208000000000E+01  1.3208000000000E+01  1.3208000000000E+01  1.3208000000000E+01  1.3208000000000E+01  1.3208000000000E+01  6.6040000000000E+00 
-2.5245849703449E-01 -2.5246807497865E-01 -2.5249896749246E-01 -2.5255118499417E-01 -2.5262474510118E-01 -2.5271967264084E-01 -2.5283599966828E-01 -2.5297376548946E-01 -2.5313301668939E-01 -2.5331380716572E-01 
 3.3866666666667E-05  6.7733333333333E-05  6.7733333333334E-05  6.7733333333333E-05  6.7733333333334E-05  6.7733333333334E-05  6.7733333333333E-05  6.7733333333334E-05  6.7733333333333E-05  3.3866666666667E-05 
 2.6603001364267E+01  2.6603001364267E+01  2.6603001364267E+01  2.6603001364267E+01  2.6603001364267E+01  2.6603001364267E+01  2.6603001364267E+01  2.6603001364267E+01  2.6603001364267E+01  2.6603001364267E+01 
 1.7735334242827E+01  1.7735334242827E+01  1.7735334242827E+01  1.7735334242827E+01  1.7735334242827E+01  1.7735334242827E+01  1.7735334242827E+01  1.7735334242827E+01  1.7735334242827E+01  1.7735334242827E+01 
 4.3434283572844E-04  4.3436527181928E-04  4.3443694188148E-04  4.3455808726020E-04  4.3472875149888E-04  4.3494899596245E-04  4.3521889988323E-04  4.3553856042028E-04  4.3590809273221E-04  4.3628930308025E-04 
 2.1713660233650E+04  2.1714782490998E+04  2.1718367422926E+04  2.1724427106553E+04  2.1732963719466E+04  2.1743980330535E+04  2.1757480902217E+04  2.1773470293538E+04  2.1791954263746E+04  2.1811021407126E+04 
 8.6723662819482E-02  7.7131450222583E-02  5.9143625156175E-02  4.3548882710942E-02  3.0347392094332E-02  1.9540132010622E-02  1.1128892045496E-02  5.1162746452520E-03  1.5056976806319E-03  3.0139759395544E-04 
 5.3039941606964E-02  2.6521178116867E-01  9.0179622833888E-01  1.9630028347885E+00  3.4491846423513E+00  5.3608384357830E+00  7.6986050985593E+00  1.0463270072185E+01  1.3655763920579E+01  1.5359093473414E+01 
 2.1713520470045E+04  2.1714440147766E+04  2.1717406483072E+04  2.1722420554835E+04  2.1729484187431E+04  2.1738599951967E+04  2.1749771168227E+04  2.1763001907192E+04  2.1778296994128E+04  2.1795662012255E+04 
 9.8658481074908E+03  9.8663183000567E+03  9.8678348747633E+03  9.8703984215523E+03  9.8740099380300E+03  9.8786708301755E+03  9.8843829134520E+03  9.8911484142442E+03  9.8989699716209E+03  9.9078506394288E+03 
 1.1847672362554E+04  1.1848121847709E+04  1.1849571608309E+04  1.1852022133283E+04  1.1855474249401E+04  1.1859929121791E+04  1.1865388254775E+04  1.1871853492947E+04  1.1879327022507E+04  1.1887811372826E+04 
ZONE T = "CATH, 3.0000E-08", I = 10, SOLUTIONTIME = 3.000000E-08
ZONETYPE = ORDERED
DATAPACKING = BLOCK
STRANDID = 3
 1.2700000000000E-03  1.3377333333333E-03  1.4054666666667E-03  1.4732000000000E-03  1.5409333333333E-03  1.6086666666667E-03  1.6764000000000E-03  1.7441333333333E-03  1.8118666666667E-03  1.8796000000000E-03 
 1.9711128055049E-08  1.7395172492985E-08  1.5079659983640E-08  1.2762942092608E-08  1.0445549470233E-08  8.1276493313774E-09  5.8083189736587E-09  3.4880881650301E-09  1.1663966229103E-09  4.7217004610084E-12 
 9.2000000000095E-01  9.2000000000269E-01  9.2000000000270E-01  9.2000000000270E-01  9.2000000000270E-01  9.2000000000270E-01  9.2000000000270E-01  9.2000000000270E-01  9.2000000000270E-01  9.2000000000270E-01 
 3.9999999999524E-02  3.9999999998653E-02  3.9999999998652E-02  3.9999999998652E-02  3.9999999998652E-02  3.9999999998651E-02  3.9999999998651E-02  3.9999999998650E-02  3.9999999998649E-02  3.9999999998648E-02 
 3.9999999999524E-02  3.9999999998653E-02  3.9999999998652E-02  3.9999999998652E-02  3.9999999998652E-02  3.9999999998651E-02  3.9999999998651E-02  3.9999999998650E-02  3.9999999998649E-02  3.9999999998648E-02 
 2.9165369696872E-02  2.9165162682036E-02  2.9164979993729E-02  2.9164821634929E-02  2.9164687610668E-02  2.9164577928033E-02  2.9164492596172E-02  2.9164431626295E-02  2.9164395031677E-02  2.9164382827664E-02 
 3.8001746460029E+00  3.8001724910659E+00  3.8001660260917E+00  3.8001552505526E+00  3.8001401635573E+00  3.8001207638498E+00  3.8000970498095E+00  3.8000690194502E+00  3.8000366704200E+00  3.8000000000000E+00 
 3.7710092763060E+00  3.7710073283839E+00  3.7710010460979E+00  3.7709904289177E+00  3.7709754759466E+00  3.7709561859218E+00  3.7709325572133E+00  3.7709045878239E+00  3.7708722753884E+00  3.7708356171723E+00 
 3.9714142713283E+00  3.9714142713278E+00  3.9714142713278E+00  3.9714142713278E+00  3.9714142713278E+00  3.9714142713278E+00  3.9714142713278E+00  3.9714142713278E+00  3.9714142713278E+00  3.9714142713278E+00 
-2.0040499502237E-01 -2.0040694294388E-01 -2.0041322522984E-01 -2.0042384241008E-01 -2.0043879538114E-01 -2.0045808540600E-01 -2.0048171411448E-01 -2.0050968350385E-01 -2.0054199593943E-01 -2.0057865415545E-01 
-1.6672167471709E+00 -3.3345600028975E+00 -3.3349680412041E+00 -3.3356577468530E+00 -3.3366293525537E+00 -3.3378831862522E+00 -3.3394196713670E+00 -3.3412393270930E+00 -3.3433427687747E+00 -1.6728653541749E+00 
 1.4705500007412E-07  1.2977406259442E-07  1.1249140803861E-07  9.5205179110869E-08  7.7913914870654E-08  6.0616152698401E-08  4.3310427746775E-08  2.5995272509700E-08  8.6692162784949E-09  8.6692162784949E-09 
 3.0044442342490E+01  2.6709906883195E+01  2.3375065426452E+01  2.0039675062734E+01  1.6703453991001E+01  1.3366120129533E+01  1.0027391021374E+01  6.6869837382614E+00  3.3446147843211E+00  0.0000000000000E+00 
 0.0000000000000E+00  3.3345741650233E+00  6.6694156216435E+00  1.0004805985463E+01  1.3341027057279E+01  1.6678360918598E+01  2.0017090026815E+01  2.3357497310037E+01  2.6699866263808E+01  3.0044441988038E+01 
 5.0021674891277E-08  1.0004714419740E-07  1.0005938262999E-07  1.0008006920780E-07  1.0010921091036E-07  1.0014681757351E-07  1.0019290189647E-07  1.0024747945095E-07  1.0031056869232E-07  5.0191095486440E-08 
 7.2440786946725E+03  1.4488157389345E+04  1.4488157389345E+04  1.4488157389345E+04  1.4488157389345E+04  1.4488157389345E+04  1.4488157389345E+04  1.4488157389345E+04  1.4488157389345E+04  7.2440786946727E+03 
 4.9259735123383E+04  9.8519470246765E+04  9.8519470246766E+04  9.8519470246765E+04  9.8519470246766E+04  9.8519470246766E+04  9.8519470246765E+04  9.8519470246766E+04  9.8519470246765E+04  4.9259735123383E+04 
 5.6503813818055E+04  1.1300762763611E+05  1.1300762763611E+05  1.1300762763611E+05  1.1300762763611E+05  1.1300762763611E+05  1.1300762763611E+05  1.1300762763611E+05  1.1300762763611E+05  5.6503813818055E+04 
 3.5000000000000E-01  3.5000000000000E-01  3.5000000000000E-01  3.5000000000000E-01  3.5000000000000E-01  3.5000000000000E-01  3.5000000000000E-01  3.5000000000000E-01  3.5000000000000E-01  3.5000000000000E-01 
 6.6040000000000E+00  1.3208000000000E+01  1.3208000000000E+01  1.3208000000000E+01  1.3208000000000E+01  1.3208000000000E+01  1.3208000000000E+01  1.3208000000000E+01  1.3208000000000E+01  6.6040000000000E+00 
-2.5245559466549E-01 -2.5246517284203E-01 -2.5249606611176E-01 -2.5254828489196E-01 -2.5262184680146E-01 -2.5271677666961E-01 -2.5283310655414E-01 -2.5297087576416E-01 -2.5313013088846E-01 -2.5331092582903E-01 
 3.3866666666667E-05  6.7733333333333E-05  6.7733333333334E-05  6.7733333333333E-05  6.7733333333334E-05  6.7733333333334E-05  6.7733333333333E-05  6.7733333333334E-05  6.7733333333333E-05  3.3866666666667E-05 
 2.6603001364272E+01  2.6603001364272E+01  2.6603001364272E+01  2.6603001364272E+01  2.6603001364272E+01  2.6603001364272E+01  2.6603001364272E+01  2.6603001364272E+01  2.6603001364272E+01  2.6603001364272E+01 
 1.7735334242822E+01  1.7735334242822E+01  1.7735334242822E+01  1.7735334242822E+01  1.7735334242822E+01  1.7735334242822E+01  1.7735334242822E+01  1.7735334242822E+01  1.7735334242822E+01  1.7735334242822E+01 
 6.5147665130767E-04  6.5151031032990E-04  6.5161783084644E-04  6.5179957498109E-04  6.5205560805527E-04  6.5238602212554E-04  6.5279093605262E-04  6.5327049559046E-04  6.5382487349569E-04  6.5439676058977E-04 
 2.1713381557923E+04  2.1714503851061E+04  2.1718088896496E+04  2.1724148772089E+04  2.1732685655639E+04  2.1743702616309E+04  2.1757203616939E+04  2.1773193517019E+04  2.1791678076348E+04  2.1810745750951E+04 
 8.6729921872128E-02  7.7137018200809E-02  5.9147896904739E-02  4.3552030053933E-02  3.0349586895519E-02  1.9541546318541E-02  1.1129698249889E-02  5.1166456278714E-03  1.5058069644989E-03  3.0141949911308E-04 
 5.3043754709042E-02  2.6523084921188E-01  9.0186107460449E-01  1.9631440226943E+00  3.4494328021400E+00  5.3612242912397E+00  7.6991594940544E+00  1.0464023999451E+01  1.3656748545742E+01  1.5360201262596E+01 
 2.1713241784247E+04  2.1714161483194E+04  2.1717127887524E+04  2.1722142076036E+04  2.1729205873250E+04  2.1738321850472E+04  2.1749493327746E+04  2.1762724376373E+04  2.1778019821995E+04  2.1795385248269E+04 
 9.8657056275048E+03  9.8661758303829E+03  9.8676924386387E+03  9.8702560421781E+03  9.8738676386838E+03  9.8785286342416E+03  9.8842408444526E+03  9.8910064958710E+03  9.8988282277663E+03  9.9077090942176E+03 
 1.1847536156742E+04  1.1847985652811E+04  1.1849435448886E+04  1.1851886033858E+04  1.1855338234566E+04  1.1859793216230E+04  1.1865252483294E+04  1.1871717880502E+04  1.1879191594229E+04  1.1887676154052E+04 
ZONE T = "CATH, 4.0000E-08", I = 10, SOLUTIONTIME = 4.000000E-08
ZONETYPE = ORDERED
DATAPACKING = BLOCK
STRANDID = 3
 1.2700000000000E-03  1.3377333333333E-03  1.4054666666667E-03  1.4732000000000E-03  1.5409333333333E-03  1.6086666666667E-03  1.6764000000000E-03  1.7441333333333E-03  1.8118666666667E-03  1.8796000000000E-03 
 1.9702810707844E-08  1.7387256609289E-08  1.5071419168532E-08  1.2755466003272E-08  1.0438838154160E-08  8.1213396418569E-09  5.8024109852769E-09  3.4822187582703E-09  1.1609291074004E-09 -5.4481159168621E-13 
 9.2000000000127E-01  9.2000000000359E-01  9.2000000000359E-01  9.2000000000359E-01  9.2000000000360E-01  9.2000000000360E-01  9.2000000000360E-01  9.2000000000360E-01  9.2000000000360E-01  9.2000000000361E-01 
 3.9999999999365E-02  3.9999999998203E-02  3.9999999998203E-02  3.9999999998203E-02  3.9999999998202E-02  3.9999999998201E-02  3.9999999998201E-02  3.9999999998200E-02  3.9999999998198E-02  3.9999999998197E-02 
 3.9999999999365E-02  3.9999999998203E-02  3.9999999998203E-02  3.9999999998203E-02  3.9999999998202E-02  3.9999999998201E-02  3.9999999998201E-02  3.9999999998200E-02  3.9999999998198E-02  3.9999999998197E-02 
 2.9165638049365E-02  2.9165431037962E-02  2.9165248352686E-02  2.9165089996515E-02  2.9164955974480E-02  2.9164846293669E-02  2.9164760963228E-02  2.9164699994366E-02  2.9164663400359E-02  2.9164651196549E-02 
 3.8001746431127E+00  3.8001724882114E+00  3.8001660233439E+00  3.8001552479829E+00  3.8001401612370E+00  3.8001207618502E+00  3.8000970482021E+00  3.8000690183068E+00  3.8000366698123E+00  3.8000000000000E+00 
 3.7710090050633E+00  3.7710070571734E+00  3.7710007749912E+00  3.7709901579864E+00  3.7709752052625E+00  3.7709559155565E+00  3.7709322872389E+00  3.7709043183124E+00  3.7708720064120E+00  3.7708353488035E+00 
 3.9714142713282E+00  3.9714142713274E+00  3.9714142713274E+00  3.9714142713274E+00  3.9714142713274E+00  3.9714142713274E+00  3.9714142713274E+00  3.9714142713274E+00  3.9714142713274E+00  3.9714142713274E+00 
-2.0040526626483E-01 -2.0040721415400E-01 -2.0041349633619E-01 -2.0042411334101E-01 -2.0043906606495E-01 -2.0045835577087E-01 -2.0048198408852E-01 -2.0050995301499E-01 -2.0054226491546E-01 -2.0057892252396E-01 
-1.6672255550006E+00 -3.3345776171110E+00 -3.3349856508290E+00 -3.3356753487172E+00 -3.3366469434764E+00 -3.3379007630405E+00 -3.3394372308122E+00 -3.3412568659672E+00 -3.3433602838272E+00 -1.6728740981517E+00 