TITLE = "Solution on Domain BulkDomain1D_1"
VARIABLES = "x [m]"  
"Vel_axial(0)" 	"MF_sp(ECDMC)" 	"MF_sp(Li+)" 	"MF_sp(PF6-)" 	"Volt(Electroly)" 	"qHeat_accum [J/m3]" 	"qHeat_step [W/m3]" 	"Joule_Lyte [W/m3]" 	"Joule_Solid [W/m3]" 	
ZONE T = "t = 0 [s]" I = 10 SOLUTIONTIME = 0.0000000000000E+00
0.0007874 	0 	0.92 	0.04 	0.04 	-0.07 	
0 	0.0 	 0.0 	 0.0 	 
0.000841022 	0 	0.92 	0.04 	0.04 	-0.07 	
0 	0.0 	 0.0 	 0.0 	 
0.000894644 	0 	0.92 	0.04 	0.04 	-0.07 	
0 	0.0 	 0.0 	 0.0 	 
0.000948267 	0 	0.92 	0.04 	0.04 	-0.07 	
0 	0.0 	 0.0 	 0.0 	 
0.00100189 	0 	0.92 	0.04 	0.04 	-0.07 	
0 	0.0 	 0.0 	 0.0 	 
0.00105551 	0 	0.92 	0.04 	0.04 	-0.07 	
0 	0.0 	 0.0 	 0.0 	 
0.00110913 	0 	0.92 	0.04 	0.04 	-0.07 	
0 	0.0 	 0.0 	 0.0 	 
0.00116276 	0 	0.92 	0.04 	0.04 	-0.07 	
0 	0.0 	 0.0 	 0.0 	 
0.00121638 	0 	0.92 	0.04 	0.04 	-0.07 	
0 	0.0 	 0.0 	 0.0 	 
0.00127 	0 	0.92 	0.04 	0.04 	-0.07 	
0 	0.0 	 0.0 	 0.0 	 
ZONE T = "t = 0 [s]" I = 10 SOLUTIONTIME = 0.0000000000000E+00
0.0007874 	0 	0.92 	0.04 	0.04 	-0.07 	
0 	0.0 	 0.0 	 0.0 	 
0.000841022 	0 	0.92 	0.04 	0.04 	-0.07 	
0 	0.0 	 0.0 	 0.0 	 
0.000894644 	0 	0.92 	0.04 	0.04 	-0.07 	
0 	0.0 	 0.0 	 0.0 	 
0.000948267 	0 	0.92 	0.04 	0.04 	-0.07 	
0 	0.0 	 0.0 	 0.0 	 
0.00100189 	0 	0.92 	0.04 	0.04 	-0.07 	
0 	0.0 	 0.0 	 0.0 	 
0.00105551 	0 	0.92 	0.04 	0.04 	-0.07 	
0 	0.0 	 0.0 	 0.0 	 
0.00110913 	0 	0.92 	0.04 	0.04 	-0.07 	
0 	0.0 	 0.0 	 0.0 	 
0.00116276 	0 	0.92 	0.04 	0.04 	-0.07 	
0 	0.0 	 0.0 	 0.0 	 
0.00121638 	0 	0.92 	0.04 	0.04 	-0.07 	
0 	0.0 	 0.0 	 0.0 	 
0.00127 	0 	0.92 	0.04 	0.04 	-0.07 	
0 	0.0 	 0.0 	 0.0 	 
ZONE T = "t = 1e-08 [s]" I = 10 SOLUTIONTIME = 1.0000000000000E-08
0.0007874 	2.94941e-08 	0.92 	0.04 	0.04 	0.0113601 	
5.52876e-10 	0.0552876 	0.0552876 	0 	
0.000841022 	2.94941e-08 	0.92 	0.04 	0.04 	0.0113601 	
5.52876e-10 	0.0552876 	0.0552876 	0 	
0.000894644 	2.94941e-08 	0.92 	0.04 	0.04 	0.01136 	
5.52876e-10 	0.0552876 	0.0552876 	0 	
0.000948267 	2.94941e-08 	0.92 	0.04 	0.04 	0.0113599 	
5.52876e-10 	0.0552876 	0.0552876 	0 	
0.00100189 	2.94941e-08 	0.92 	0.04 	0.04 	0.0113599 	
5.52876e-10 	0.0552876 	0.0552876 	0 	
0.00105551 	2.94941e-08 	0.92 	0.04 	0.04 	0.0113598 	
5.52876e-10 	0.0552876 	0.0552876 	0 	
0.00110913 	2.94941e-08 	0.92 	0.04 	0.04 	0.0113597 	
5.52876e-10 	0.0552876 	0.0552876 	0 	
0.00116276 	2.94941e-08 	0.92 	0.04 	0.04 	0.0113596 	
5.52876e-10 	0.0552876 	0.0552876 	0 	
0.00121638 	2.94941e-08 	0.92 	0.04 	0.04 	0.0113596 	
5.52876e-10 	0.0552876 	0.0552876 	0 	
0.00127 	2.6221e-08 	0.92 	0.04 	0.04 	0.0113595 	
5.52876e-10 	0.0552876 	0.0552876 	0 	
ZONE T = "t = 2e-08 [s]" I = 10 SOLUTIONTIME = 2.0000000000000E-08
0.0007874 	2.08694e-08 	0.92 	0.04 	0.04 	0.0291619 	
8.29613e-10 	0.0276738 	0.0276738 	0 	
0.000841022 	2.08694e-08 	0.92 	0.04 	0.04 	0.0291619 	
8.29613e-10 	0.0276738 	0.0276738 	0 	
0.000894644 	2.08694e-08 	0.92 	0.04 	0.04 	0.0291618 	
8.29613e-10 	0.0276738 	0.0276738 	0 	
0.000948267 	2.08694e-08 	0.92 	0.04 	0.04 	0.0291618 	
8.29613e-10 	0.0276738 	0.0276738 	0 	
0.00100189 	2.08694e-08 	0.92 	0.04 	0.04 	0.0291617 	
8.29613e-10 	0.0276738 	0.0276738 	0 	
0.00105551 	2.08694e-08 	0.92 	0.04 	0.04 	0.0291617 	
8.29613e-10 	0.0276738 	0.0276738 	0 	
0.00110913 	2.08694e-08 	0.92 	0.04 	0.04 	0.0291616 	
8.29613e-10 	0.0276738 	0.0276738 	0 	
0.00116276 	2.08694e-08 	0.92 	0.04 	0.04 	0.0291616 	
8.29613e-10 	0.0276738 	0.0276738 	0 	
0.00121638 	2.08694e-08 	0.92 	0.04 	0.04 	0.0291615 	
8.29613e-10 	0.0276738 	0.0276738 	0 	
0.00127 	1.85523e-08 	0.92 	0.04 	0.04 	0.0291615 	
8.29613e-10 	0.0276738 	0.0276738 	0 	
ZONE T = "t = 3e-08 [s]" I = 10 SOLUTIONTIME = 3.0000000000000E-08
0.0007874 	2.08648e-08 	0.92 	0.04 	0.04 	0.029162 	
1.10635e-09 	0.0276736 	0.0276736 	0 	
0.000841022 	2.08648e-08 	0.92 	0.04 	0.04 	0.029162 	
1.10635e-09 	0.0276736 	0.0276736 	0 	
0.000894644 	2.08648e-08 	0.92 	0.04 	0.04 	0.0291619 	
1.10635e-09 	0.0276736 	0.0276736 	0 	
0.000948267 	2.08648e-08 	0.92 	0.04 	0.04 	0.0291619 	
1.10635e-09 	0.0276736 	0.0276736 	0 	
0.00100189 	2.08648e-08 	0.92 	0.04 	0.04 	0.0291618 	
1.10635e-09 	0.0276736 	0.0276736 	0 	
0.00105551 	2.08648e-08 	0.92 	0.04 	0.04 	0.0291618 	
1.10635e-09 	0.0276736 	0.0276736 	0 	
0.00110913 	2.08648e-08 	0.92 	0.04 	0.04 	0.0291617 	
1.10635e-09 	0.0276736 	0.0276736 	0 	
0.00116276 	2.08648e-08 	0.92 	0.04 	0.04 	0.0291617 	
1.10635e-09 	0.0276736 	0.0276736 	0 	
0.00121638 	2.08648e-08 	0.92 	0.04 	0.04 	0.0291616 	
1.10635e-09 	0.0276736 	0.0276736 	0 	
0.00127 	1.85482e-08 	0.92 	0.04 	0.04 	0.0291616 	
1.10635e-09 	0.0276736 	0.0276736 	0 	
ZONE T = "t = 4e-08 [s]" I = 10 SOLUTIONTIME = 4.0000000000000E-08
0.0007874 	2.08711e-08 	0.92 	0.04 	0.04 	0.029162 	
1.38313e-09 	0.0276785 	0.0276785 	0 	
0.000841022 	2.08711e-08 	0.92 	0.04 	0.04 	0.0291619 	
1.38313e-09 	0.0276785 	0.0276785 	0 	
0.000894644 	2.08711e-08 	0.92 	0.04 	0.04 	0.0291619 	
1.38313e-09 	0.0276785 	0.0276785 	0 	
0.000948267 	2.08711e-08 	0.92 	0.04 	0.04 	0.0291618 	
1.38313e-09 	0.0276785 	0.0276785 	0 	
0.00100189 	2.08711e-08 	0.92 	0.04 	0.04 	0.0291618 	
1.38313e-09 	0.0276785 	0.0276785 	0 	
0.00105551 	2.08711e-08 	0.92 	0.04 	0.04 	0.0291617 	
1.38313e-09 	0.0276785 	0.0276785 	0 	
0.00110913 	2.08711e-08 	0.92 	0.04 	0.04 	0.0291617 	
1.38313e-09 	0.0276785 	0.0276785 	0 	
0.00116276 	2.08711e-08 	0.92 	0.04 	0.04 	0.0291616 	
1.38313e-09 	0.0276785 	0.0276785 	0 	
0.00121638 	2.08711e-08 	0.92 	0.04 	0.04 	0.0291616 	
1.38313e-09 	0.0276785 	0.0276785 	0 	
0.00127 	1.85535e-08 	0.92 	0.04 	0.04 	0.0291615 	
1.38313e-09 	0.0276785 	0.0276785 	0 	
ZONE T = "t = 5.5e-08 [s]" I = 10 SOLUTIONTIME = 5.5000000000000E-08
0.0007874 	2.08665e-08 	0.92 	0.04 	0.04 	0.029162 	
1.79831e-09 	0.0276785 	0.0276785 	0 	
0.000841022 	2.08665e-08 	0.92 	0.04 	0.04 	0.0291619 	
1.79831e-09 	0.0276785 	0.0276785 	0 	
0.000894644 	2.08665e-08 	0.92 	0.04 	0.04 	0.0291619 	
1.79831e-09 	0.0276785 	0.0276785 	0 	
0.000948267 	2.08665e-08 	0.92 	0.04 	0.04 	0.0291618 	
1.79831e-09 	0.0276785 	0.0276785 	0 	
0.00100189 	2.08665e-08 	0.92 	0.04 	0.04 	0.0291618 	
1.79831e-09 	0.0276785 	0.0276785 	0 	
0.00105551 	2.08665e-08 	0.92 	0.04 	0.04 	0.0291617 	
1.79831e-09 	0.0276785 	0.0276785 	0 	
0.00110913 	2.08665e-08 	0.92 	0.04 	0.04 	0.0291617 	
1.79831e-09 	0.0276785 	0.0276785 	0 	
0.00116276 	2.08665e-08 	0.92 	0.04 	0.04 	0.0291616 	
1.79831e-09 	0.0276785 	0.0276785 	0 	
0.00121638 	2.08665e-08 	0.92 	0.04 	0.04 	0.0291616 	
1.79831e-09 	0.0276785 	0.0276785 	0 	
0.00127 	1.85498e-08 	0.92 	0.04 	0.04 	0.0291615 	
1.79831e-09 	0.0276785 	0.0276785 	0 	
ZONE T = "t = 7.75e-08 [s]" I = 10 SOLUTIONTIME = 7.7500000000000E-08
0.0007874 	2.0871e-08 	0.92 	0.04 	0.04 	0.029162 	
2.42108e-09 	0.0276785 	0.0276785 	0 	
0.000841022 	2.0871e-08 	0.92 	0.04 	0.04 	0.0291619 	
2.42108e-09 	0.0276785 	0.0276785 	0 	
0.000894644 	2.0871e-08 	0.92 	0.04 	0.04 	0.0291619 	
2.42108e-09 	0.0276785 	0.0276785 	0 	
0.000948267 	2.0871e-08 	0.92 	0.04 	0.04 	0.0291618 	
2.42108e-09 	0.0276785 	0.0276785 	0 	
0.00100189 	2.0871e-08 	0.92 	0.04 	0.04 	0.0291618 	
2.42108e-09 	0.0276785 	0.0276785 	0 	
0.00105551 	2.0871e-08 	0.92 	0.04 	0.04 	0.0291617 	
2.42108e-09 	0.0276785 	0.0276785 	0 	
0.00110913 	2.0871e-08 	0.92 	0.04 	0.04 	0.0291617 	
2.42108e-09 	0.0276785 	0.0276785 	0 	
0.00116276 	2.0871e-08 	0.92 	0.04 	0.04 	0.0291616 	
2.42108e-09 	0.0276785 	0.0276785 	0 	
0.00121638 	2.0871e-08 	0.92 	0.04 	0.04 	0.0291616 	
2.42108e-09 	0.0276785 	0.0276785 	0 	
0.00127 	1.85545e-08 	0.92 	0.04 	0.04 	0.0291615 	
2.42108e-09 	0.0276785 	0.0276785 	0 	
ZONE T = "t = 1.1125e-07 [s]" I = 10 SOLUTIONTIME = 1.1125000000000E-07
0.0007874 	2.08711e-08 	0.92 	0.04 	0.04 	0.029162 	
3.35523e-09 	0.0276785 	0.0276785 	0 	
0.000841022 	2.08711e-08 	0.92 	0.04 	0.04 	0.0291619 	
3.35523e-09 	0.0276785 	0.0276785 	0 	
0.000894644 	2.08711e-08 	0.92 	0.04 	0.04 	0.0291619 	
3.35523e-09 	0.0276785 	0.0276785 	0 	
0.000948267 	2.08711e-08 	0.92 	0.04 	0.04 	0.0291618 	
3.35523e-09 	0.0276785 	0.0276785 	0 	
0.00100189 	2.08711e-08 	0.92 	0.04 	0.04 	0.0291618 	
3.35523e-09 	0.0276785 	0.0276785 	0 	
0.00105551 	2.08711e-08 	0.92 	0.04 	0.04 	0.0291617 	
3.35523e-09 	0.0276785 	0.0276785 	0 	
0.00110913 	2.08711e-08 	0.92 	0.04 	0.04 	0.0291617 	
3.35523e-09 	0.0276785 	0.0276785 	0 	
0.00116276 	2.08711e-08 	0.92 	0.04 	0.04 	0.0291616 	
3.35523e-09 	0.0276785 	0.0276785 	0 	
0.00121638 	2.08709e-08 	0.92 	0.04 	0.04 	0.0291616 	
3.35523e-09 	0.0276785 	0.0276785 	0 	
0.00127 	1.85541e-08 	0.92 	0.04 	0.04 	0.0291615 	
3.35523e-09 	0.0276785 	0.0276785 	0 	
ZONE T = "t = 1.61875e-07 [s]" I = 10 SOLUTIONTIME = 1.6187500000000E-07
0.0007874 	2.087e-08 	0.92 	0.04 	0.04 	0.029162 	
4.75645e-09 	0.0276785 	0.0276785 	0 	
0.000841022 	2.087e-08 	0.92 	0.04 	0.04 	0.0291619 	
4.75645e-09 	0.0276785 	0.0276785 	0 	
0.000894644 	2.087e-08 	0.92 	0.04 	0.04 	0.0291619 	
4.75645e-09 	0.0276785 	0.0276785 	0 	
0.000948267 	2.087e-08 	0.92 	0.04 	0.04 	0.0291618 	
4.75645e-09 	0.0276785 	0.0276785 	0 	
0.00100189 	2.087e-08 	0.92 	0.04 	0.04 	0.0291618 	
4.75645e-09 	0.0276785 	0.0276785 	0 	
0.00105551 	2.087e-08 	0.92 	0.04 	0.04 	0.0291617 	
4.75645e-09 	0.0276785 	0.0276785 	0 	
0.00110913 	2.087e-08 	0.92 	0.04 	0.04 	0.0291617 	
4.75645e-09 	0.0276785 	0.0276785 	0 	
0.00116276 	2.087e-08 	0.92 	0.04 	0.04 	0.0291616 	
4.75645e-09 	0.0276785 	0.0276785 	0 	
0.00121638 	2.08701e-08 	0.92 	0.04 	0.04 	0.0291616 	
4.75645e-09 	0.0276785 	0.0276785 	0 	
0.00127 	1.85533e-08 	0.92 	0.04 	0.04 	0.0291615 	
4.75645e-09 	0.0276785 	0.0276785 	0 	
ZONE T = "t = 2.37813e-07 [s]" I = 10 SOLUTIONTIME = 2.3781250000000E-07
0.0007874 	2.08695e-08 	0.92 	0.04 	0.04 	0.029162 	
6.85829e-09 	0.0276785 	0.0276785 	0 	
0.000841022 	2.08696e-08 	0.92 	0.04 	0.04 	0.0291619 	
6.85829e-09 	0.0276785 	0.0276785 	0 	
0.000894644 	2.08696e-08 	0.92 	0.04 	0.04 	0.0291619 	
6.85829e-09 	0.0276785 	0.0276785 	0 	
0.000948267 	2.08696e-08 	0.92 	0.04 	0.04 	0.0291618 	
6.85829e-09 	0.0276785 	0.0276785 	0 	
0.00100189 	2.08696e-08 	0.92 	0.04 	0.04 	0.0291618 	
6.85829e-09 	0.0276785 	0.0276785 	0 	
0.00105551 	2.08696e-08 	0.92 	0.04 	0.04 	0.0291617 	
6.85829e-09 	0.0276785 	0.0276785 	0 	
0.00110913 	2.08696e-08 	0.92 	0.04 	0.04 	0.0291617 	
6.85829e-09 	0.0276785 	0.0276785 	0 	
0.00116276 	2.08696e-08 	0.92 	0.04 	0.04 	0.0291616 	
6.85829e-09 	0.0276785 	0.0276785 	0 	
0.00121638 	2.08695e-08 	0.92 	0.04 	0.04 	0.0291616 	
6.85829e-09 	0.0276785 	0.0276785 	0 	
0.00127 	1.85526e-08 	0.92 	0.04 	0.04 	0.0291615 	
6.85829e-09 	0.0276785 	0.0276785 	0 	
ZONE T = "t = 3.51719e-07 [s]" I = 10 SOLUTIONTIME = 3.5171875000000E-07
0.0007874 	2.08705e-08 	0.92 	0.04 	0.04 	0.029162 	
1.0011e-08 	0.0276785 	0.0276785 	0 	
0.000841022 	2.08704e-08 	0.92 	0.04 	0.04 	0.0291619 	
1.0011e-08 	0.0276785 	0.0276785 	0 	
0.000894644 	2.08704e-08 	0.92 	0.04 	0.04 	0.0291619 	
1.0011e-08 	0.0276785 	0.0276785 	0 	
0.000948267 	2.08704e-08 	0.92 	0.04 	0.04 	0.0291618 	
1.0011e-08 	0.0276785 	0.0276785 	0 	
0.00100189 	2.08704e-08 	0.92 	0.04 	0.04 	0.0291618 	
1.0011e-08 	0.0276785 	0.0276785 	0 	
0.00105551 	2.08704e-08 	0.92 	0.04 	0.04 	0.0291617 	
1.0011e-08 	0.0276785 	0.0276785 	0 	
0.00110913 	2.08704e-08 	0.92 	0.04 	0.04 	0.0291617 	
1.0011e-08 	0.0276785 	0.0276785 	0 	
0.00116276 	2.08704e-08 	0.92 	0.04 	0.04 	0.0291616 	
1.0011e-08 	0.0276785 	0.0276785 	0 	
0.00121638 	2.08704e-08 	0.92 	0.04 	0.04 	0.0291616 	
1.0011e-08 	0.0276785 	0.0276785 	0 	
0.00127 	1.85537e-08 	0.92 	0.04 	0.04 	0.0291615 	
1.0011e-08 	0.0276785 	0.0276785 	0 	
ZONE T = "t = 5.22578e-07 [s]" I = 10 SOLUTIONTIME = 5.2257812500000E-07
0.0007874 	2.08702e-08 	0.92 	0.04 	0.04 	0.029162 	
1.47402e-08 	0.0276785 	0.0276785 	0 	
0.000841022 	2.08702e-08 	0.92 	0.04 	0.04 	0.0291619 	
1.47402e-08 	0.0276785 	0.0276785 	0 	
0.000894644 	2.08702e-08 	0.92 	0.04 	0.04 	0.0291619 	
1.47402e-08 	0.0276785 	0.0276785 	0 	
0.000948267 	2.08702e-08 	0.92 	0.04 	0.04 	0.0291618 	
1.47402e-08 	0.0276785 	0.0276785 	0 	
0.00100189 	2.08702e-08 	0.92 	0.04 	0.04 	0.0291618 	
1.47402e-08 	0.0276785 	0.0276785 	0 	
0.00105551 	2.08702e-08 	0.92 	0.04 	0.04 	0.0291617 	
1.47402e-08 	0.0276785 	0.0276785 	0 	
0.00110913 	2.08702e-08 	0.92 	0.04 	0.04 	0.0291617 	
1.47402e-08 	0.0276785 	0.0276785 	0 	
0.00116276 	2.08702e-08 	0.92 	0.04 	0.04 	0.0291616 	
1.47402e-08 	0.0276785 	0.0276785 	0 	
0.00121638 	2.08702e-08 	0.92 	0.04 	0.04 	0.0291616 	
1.47402e-08 	0.0276785 	0.0276785 	0 	
0.00127 	1.85534e-08 	0.92 	0.04 	0.04 	0.0291615 	
1.47402e-08 	0.0276785 	0.0276785 	0 	
ZONE T = "t = 7.78867e-07 [s]" I = 10 SOLUTIONTIME = 7.7886718750000E-07
0.0007874 	2.08702e-08 	0.92 	0.04 	0.04 	0.029162 	
2.18339e-08 	0.0276785 	0.0276785 	0 	
0.000841022 	2.08702e-08 	0.92 	0.04 	0.04 	0.0291619 	
2.18339e-08 	0.0276785 	0.0276785 	0 	
0.000894644 	2.08702e-08 	0.92 	0.04 	0.04 	0.0291619 	
2.18339e-08 	0.0276785 	0.0276785 	0 	
0.000948267 	2.08702e-08 	0.92 	0.04 	0.04 	0.0291618 	
2.18339e-08 	0.0276785 	0.0276785 	0 	
0.00100189 	2.08702e-08 	0.92 	0.04 	0.04 	0.0291618 	
2.18339e-08 	0.0276785 	0.0276785 	0 	
0.00105551 	2.08702e-08 	0.92 	0.04 	0.04 	0.0291617 	
2.18339e-08 	0.0276785 	0.0276785 	0 	
0.00110913 	2.08702e-08 	0.92 	0.04 	0.04 	0.0291617 	
2.18339e-08 	0.0276785 	0.0276785 	0 	
0.00116276 	2.08702e-08 	0.92 	0.04 	0.04 	0.0291616 	
2.18339e-08 	0.0276785 	0.0276785 	0 	
0.00121638 	2.08702e-08 	0.92 	0.04 	0.04 	0.0291616 	
2.18339e-08 	0.0276785 	0.0276785 	0 	
0.00127 	1.85534e-08 	0.92 	0.04 	0.04 	0.0291615 	
2.18339e-08 	0.0276785 	0.0276785 	0 	
ZONE T = "t = 1.1633e-06 [s]" I = 10 SOLUTIONTIME = 1.1633007812500E-06
0.0007874 	2.08701e-08 	0.92 	0.04 	0.04 	0.029162 	
3.24744e-08 	0.0276785 	0.0276785 	0 	
0.000841022 	2.08701e-08 	0.92 	0.04 	0.04 	0.0291619 	
3.24744e-08 	0.0276785 	0.0276785 	0 	
0.000894644 	2.08701e-08 	0.92 	0.04 	0.04 	0.0291619 	
3.24744e-08 	0.0276785 	0.0276785 	0 	
0.000948267 	2.08701e-08 	0.92 	0.04 	0.04 	0.0291618 	
3.24744e-08 	0.0276785 	0.0276785 	0 	
0.00100189 	2.08701e-08 	0.92 	0.04 	0.04 	0.0291618 	
3.24744e-08 	0.0276785 	0.0276785 	0 	
0.00105551 	2.08701e-08 	0.92 	0.04 	0.04 	0.0291617 	
3.24744e-08 	0.0276785 	0.0276785 	0 	
0.00110913 	2.08701e-08 	0.92 	0.04 	0.04 	0.0291617 	
3.24744e-08 	0.0276785 	0.0276785 	0 	
0.00116276 	2.08701e-08 	0.92 	0.04 	0.04 	0.0291616 	
3.24744e-08 	0.0276785 	0.0276785 	0 	
0.00121638 	2.08702e-08 	0.92 	0.04 	0.04 	0.0291616 	
3.24744e-08 	0.0276785 	0.0276785 	0 	
0.00127 	1.85533e-08 	0.92 	0.04 	0.04 	0.0291615 	
3.24744e-08 	0.0276785 	0.0276785 	0 	
ZONE T = "t = 1.73995e-06 [s]" I = 10 SOLUTIONTIME = 1.7399511718750E-06
0.0007874 	2.08701e-08 	0.92 	0.04 	0.04 	0.029162 	
4.84353e-08 	0.0276785 	0.0276785 	0 	
0.000841022 	2.08701e-08 	0.92 	0.04 	0.04 	0.0291619 	
4.84353e-08 	0.0276785 	0.0276785 	0 	
0.000894644 	2.08701e-08 	0.92 	0.04 	0.04 	0.0291619 	
4.84353e-08 	0.0276785 	0.0276785 	0 	
0.000948267 	2.08701e-08 	0.92 	0.04 	0.04 	0.0291618 	
4.84353e-08 	0.0276785 	0.0276785 	0 	
0.00100189 	2.08701e-08 	0.92 	0.04 	0.04 	0.0291618 	
4.84353e-08 	0.0276785 	0.0276785 	0 	
0.00105551 	2.08701e-08 	0.92 	0.04 	0.04 	0.0291617 	
4.84353e-08 	0.0276785 	0.0276785 	0 	
0.00110913 	2.08701e-08 	0.92 	0.04 	0.04 	0.0291617 	
4.84353e-08 	0.0276785 	0.0276785 	0 	
0.00116276 	2.08701e-08 	0.92 	0.04 	0.04 	0.0291616 	
4.84353e-08 	0.0276785 	0.0276785 	0 	
0.00121638 	2.08701e-08 	0.92 	0.04 	0.04 	0.0291616 	
4.84353e-08 	0.0276785 	0.0276785 	0 	
0.00127 	1.85533e-08 	0.92 	0.04 	0.04 	0.0291615 	
4.84353e-08 	0.0276785 	0.0276785 	0 	
ZONE T = "t = 2.60493e-06 [s]" I = 10 SOLUTIONTIME = 2.6049267578125E-06
0.0007874 	2.08701e-08 	0.92 	0.04 	0.04 	0.029162 	
7.23765e-08 	0.0276785 	0.0276785 	0 	
0.000841022 	2.08701e-08 	0.92 	0.04 	0.04 	0.0291619 	
7.23765e-08 	0.0276785 	0.0276785 	0 	
0.000894644 	2.08701e-08 	0.92 	0.04 	0.04 	0.0291619 	
7.23765e-08 	0.0276785 	0.0276785 	0 	
0.000948267 	2.08701e-08 	0.92 	0.04 	0.04 	0.0291618 	
7.23765e-08 	0.0276785 	0.0276785 	0 	
0.00100189 	2.08701e-08 	0.92 	0.04 	0.04 	0.0291618 	
7.23765e-08 	0.0276785 	0.0276785 	0 	
0.00105551 	2.08701e-08 	0.92 	0.04 	0.04 	0.0291617 	
7.23765e-08 	0.0276785 	0.0276785 	0 	
0.00110913 	2.08701e-08 	0.92 	0.04 	0.04 	0.0291617 	
7.23765e-08 	0.0276785 	0.0276785 	0 	
0.00116276 	2.08701e-08 	0.92 	0.04 	0.04 	0.0291616 	
7.23765e-08 	0.0276785 	0.0276785 	0 	
0.00121638 	2.08701e-08 	0.92 	0.04 	0.04 	0.0291616 	
7.23765e-08 	0.0276785 	0.0276785 	0 	
0.00127 	1.85533e-08 	0.92 	0.04 	0.04 	0.0291615 	
7.23765e-08 	0.0276785 	0.0276785 	0 	
ZONE T = "t = 3.90239e-06 [s]" I = 10 SOLUTIONTIME = 3.9023901367188E-06
0.0007874 	2.08702e-08 	0.92 	0.04 	0.04 	0.029162 	
1.08288e-07 	0.0276785 	0.0276785 	0 	
0.000841022 	2.08702e-08 	0.92 	0.04 	0.04 	0.0291619 	
1.08288e-07 	0.0276785 	0.0276785 	0 	
0.000894644 	2.08702e-08 	0.92 	0.04 	0.04 	0.0291619 	
1.08288e-07 	0.0276785 	0.0276785 	0 	
0.000948267 	2.08702e-08 	0.92 	0.04 	0.04 	0.0291618 	
1.08288e-07 	0.0276785 	0.0276785 	0 	
0.00100189 	2.08702e-08 	0.92 	0.04 	0.04 	0.0291618 	
1.08288e-07 	0.0276785 	0.0276785 	0 	
0.00105551 	2.08702e-08 	0.92 	0.04 	0.04 	0.0291617 	
1.08288e-07 	0.0276785 	0.0276785 	0 	
0.00110913 	2.08702e-08 	0.92 	0.04 	0.04 	0.0291617 	
1.08288e-07 	0.0276785 	0.0276785 	0 	
0.00116276 	2.08702e-08 	0.92 	0.04 	0.04 	0.0291616 	
1.08288e-07 	0.0276785 	0.0276785 	0 	
0.00121638 	2.08702e-08 	0.92 	0.04 	0.04 	0.0291616 	
1.08288e-07 	0.0276785 	0.0276785 	0 	
0.00127 	1.85533e-08 	0.92 	0.04 	0.04 	0.0291615 	
1.08288e-07 	0.0276785 	0.0276785 	0 	
ZONE T = "t = 5.84859e-06 [s]" I = 10 SOLUTIONTIME = 5.8485852050781E-06
0.0007874 	2.08702e-08 	0.92 	0.04 	0.04 	0.029162 	
1.62156e-07 	0.0276785 	0.0276785 	0 	
0.000841022 	2.08701e-08 	0.92 	0.04 	0.04 	0.0291619 	
1.62156e-07 	0.0276785 	0.0276785 	0 	
0.000894644 	2.08701e-08 	0.92 	0.04 	0.04 	0.0291619 	
1.62156e-07 	0.0276785 	0.0276785 	0 	
0.000948267 	2.08701e-08 	0.92 	0.04 	0.04 	0.0291618 	
1.62156e-07 	0.0276785 	0.0276785 	0 	
0.00100189 	2.08701e-08 	0.92 	0.04 	0.04 	0.0291618 	
1.62156e-07 	0.0276785 	0.0276785 	0 	
0.00105551 	2.08701e-08 	0.92 	0.04 	0.04 	0.0291617 	
1.62156e-07 	0.0276785 	0.0276785 	0 	
0.00110913 	2.08701e-08 	0.92 	0.04 	0.04 	0.0291617 	
1.62156e-07 	0.0276785 	0.0276785 	0 	
0.00116276 	2.08701e-08 	0.92 	0.04 	0.04 	0.0291616 	
1.62156e-07 	0.0276785 	0.0276785 	0 	
0.00121638 	2.08701e-08 	0.92 	0.04 	0.04 	0.0291616 	
1.62156e-07 	0.0276785 	0.0276785 	0 	
0.00127 	1.85533e-08 	0.92 	0.04 	0.04 	0.0291615 	
1.62156e-07 	0.0276785 	0.0276785 	0 	
ZONE T = "t = 8.76788e-06 [s]" I = 10 SOLUTIONTIME = 8.7678778076172E-06
0.0007874 	2.08702e-08 	0.92 	0.04 	0.04 	0.029162 	
2.42958e-07 	0.0276785 	0.0276785 	0 	
0.000841022 	2.08702e-08 	0.92 	0.04 	0.04 	0.0291619 	
2.42958e-07 	0.0276785 	0.0276785 	0 	
0.000894644 	2.08702e-08 	0.92 	0.04 	0.04 	0.0291619 	
2.42958e-07 	0.0276785 	0.0276785 	0 	
0.000948267 	2.08702e-08 	0.92 	0.04 	0.04 	0.0291618 	
2.42958e-07 	0.0276785 	0.0276785 	0 	
0.00100189 	2.08702e-08 	0.92 	0.04 	0.04 	0.0291618 	
2.42958e-07 	0.0276785 	0.0276785 	0 	
0.00105551 	2.08702e-08 	0.92 	0.04 	0.04 	0.0291617 	
2.42958e-07 	0.0276785 	0.0276785 	0 	
0.00110913 	2.08702e-08 	0.92 	0.04 	0.04 	0.0291617 	
2.42958e-07 	0.0276785 	0.0276785 	0 	
0.00116276 	2.08702e-08 	0.92 	0.04 	0.04 	0.0291616 	
2.42958e-07 	0.0276785 	0.0276785 	0 	
0.00121638 	2.08702e-08 	0.92 	0.04 	0.04 	0.0291616 	
2.42958e-07 	0.0276785 	0.0276785 	0 	
0.00127 	1.85534e-08 	0.92 	0.04 	0.04 	0.0291615 	
2.42958e-07 	0.0276785 	0.0276785 	0 	
ZONE T = "t = 1.31468e-05 [s]" I = 10 SOLUTIONTIME = 1.3146816711426E-05
0.0007874 	2.08702e-08 	0.92 	0.04 	0.04 	0.029162 	
3.6416e-07 	0.0276785 	0.0276785 	0 	
0.000841022 	2.08701e-08 	0.92 	0.04 	0.04 	0.0291619 	
3.6416e-07 	0.0276785 	0.0276785 	0 	
0.000894644 	2.08701e-08 	0.92 	0.04 	0.04 	0.0291619 	
3.6416e-07 	0.0276785 	0.0276785 	0 	
0.000948267 	2.08701e-08 	0.92 	0.04 	0.04 	0.0291618 	
3.6416e-07 	0.0276785 	0.0276785 	0 	
0.00100189 	2.08701e-08 	0.92 	0.04 	0.04 	0.0291618 	
3.6416e-07 	0.0276785 	0.0276785 	0 	
0.00105551 	2.08701e-08 	0.92 	0.04 	0.04 	0.0291617 	
3.6416e-07 	0.0276785 	0.0276785 	0 	
0.00110913 	2.08701e-08 	0.92 	0.04 	0.04 	0.0291617 	
3.6416e-07 	0.0276785 	0.0276785 	0 	
0.00116276 	2.08701e-08 	0.92 	0.04 	0.04 	0.0291616 	
3.6416e-07 	0.0276785 	0.0276785 	0 	
0.00121638 	2.08701e-08 	0.92 	0.04 	0.04 	0.0291616 	
3.6416e-07 	0.0276785 	0.0276785 	0 	
0.00127 	1.85533e-08 	0.92 	0.04 	0.04 	0.0291615 	
3.6416e-07 	0.0276785 	0.0276785 	0 	
ZONE T = "t = 1.97152e-05 [s]" I = 10 SOLUTIONTIME = 1.9715225067139E-05
0.0007874 	2.08701e-08 	0.92 	0.04 	0.04 	0.029162 	
5.45964e-07 	0.0276785 	0.0276785 	0 	
0.000841022 	2.08701e-08 	0.92 	0.04 	0.04 	0.0291619 	
5.45964e-07 	0.0276785 	0.0276785 	0 	
0.000894644 	2.08701e-08 	0.92 	0.04 	0.04 	0.0291619 	
5.45964e-07 	0.0276785 	0.0276785 	0 	
0.000948267 	2.08701e-08 	0.92 	0.04 	0.04 	0.0291618 	
5.45964e-07 	0.0276785 	0.0276785 	0 	
0.00100189 	2.08701e-08 	0.92 	0.04 	0.04 	0.0291618 	
5.45964e-07 	0.0276785 	0.0276785 	0 	
0.00105551 	2.08701e-08 	0.92 	0.04 	0.04 	0.0291617 	
5.45964e-07 	0.0276785 	0.0276785 	0 	
0.00110913 	2.08701e-08 	0.92 	0.04 	0.04 	0.0291617 	
5.45964e-07 	0.0276785 	0.0276785 	0 	
0.00116276 	2.08701e-08 	0.92 	0.04 	0.04 	0.0291616 	
5.45964e-07 	0.0276785 	0.0276785 	0 	
0.00121638 	2.08701e-08 	0.92 	0.04 	0.04 	0.0291616 	
5.45964e-07 	0.0276785 	0.0276785 	0 	
0.00127 	1.85533e-08 	0.92 	0.04 	0.04 	0.0291615 	
5.45964e-07 	0.0276785 	0.0276785 	0 	
ZONE T = "t = 2.95678e-05 [s]" I = 10 SOLUTIONTIME = 2.9567837600708E-05
0.0007874 	2.08701e-08 	0.92 	0.04 	0.04 	0.029162 	
8.1867e-07 	0.0276785 	0.0276785 	0 	
0.000841022 	2.08701e-08 	0.92 	0.04 	0.04 	0.0291619 	
8.1867e-07 	0.0276785 	0.0276785 	0 	
0.000894644 	2.08701e-08 	0.92 	0.04 	0.04 	0.0291619 	
8.1867e-07 	0.0276785 	0.0276785 	0 	
0.000948267 	2.08701e-08 	0.92 	0.04 	0.04 	0.0291618 	
8.1867e-07 	0.0276785 	0.0276785 	0 	
0.00100189 	2.08701e-08 	0.92 	0.04 	0.04 	0.0291618 	
8.1867e-07 	0.0276785 	0.0276785 	0 	
0.00105551 	2.08701e-08 	0.92 	0.04 	0.04 	0.0291617 	
8.1867e-07 	0.0276785 	0.0276785 	0 	
0.00110913 	2.08701e-08 	0.92 	0.04 	0.04 	0.0291617 	
8.1867e-07 	0.0276785 	0.0276785 	0 	
0.00116276 	2.08701e-08 	0.92 	0.04 	0.04 	0.0291616 	
8.1867e-07 	0.0276785 	0.0276785 	0 	
0.00121638 	2.08701e-08 	0.92 	0.04 	0.04 	0.0291616 	
8.1867e-07 	0.0276785 	0.0276785 	0 	
0.00127 	1.85533e-08 	0.92 	0.04 	0.04 	0.0291615 	
8.1867e-07 	0.0276785 	0.0276785 	0 	
ZONE T = "t = 4.43468e-05 [s]" I = 10 SOLUTIONTIME = 4.4346756401062E-05
0.0007874 	2.08701e-08 	0.92 	0.04 	0.04 	0.029162 	
1.22773e-06 	0.0276785 	0.0276785 	0 	
0.000841022 	2.08701e-08 	0.92 	0.04 	0.04 	0.0291619 	
1.22773e-06 	0.0276785 	0.0276785 	0 	
0.000894644 	2.08701e-08 	0.92 	0.04 	0.04 	0.0291619 	
1.22773e-06 	0.0276785 	0.0276785 	0 	
0.000948267 	2.08701e-08 	0.92 	0.04 	0.04 	0.0291618 	
1.22773e-06 	0.0276785 	0.0276785 	0 	
0.00100189 	2.08701e-08 	0.92 	0.04 	0.04 	0.0291618 	
1.22773e-06 	0.0276785 	0.0276785 	0 	
0.00105551 	2.08701e-08 	0.92 	0.04 	0.04 	0.0291617 	
1.22773e-06 	0.0276785 	0.0276785 	0 	
0.00110913 	2.08701e-08 	0.92 	0.04 	0.04 	0.0291617 	
1.22773e-06 	0.0276785 	0.0276785 	0 	
0.00116276 	2.08701e-08 	0.92 	0.04 	0.04 	0.0291616 	
1.22773e-06 	0.0276785 	0.0276785 	0 	
0.00121638 	2.08701e-08 	0.92 	0.04 	0.04 	0.0291616 	
1.22773e-06 	0.0276785 	0.0276785 	0 	
0.00127 	1.85533e-08 	0.92 	0.04 	0.04 	0.0291615 	
1.22773e-06 	0.0276785 	0.0276785 	0 	
ZONE T = "t = 6.65151e-05 [s]" I = 10 SOLUTIONTIME = 6.6515134601593E-05
0.0007874 	2.08701e-08 	0.92 	0.04 	0.04 	0.029162 	
1.84132e-06 	0.0276785 	0.0276785 	0 	
0.000841022 	2.08701e-08 	0.92 	0.04 	0.04 	0.0291619 	
1.84132e-06 	0.0276785 	0.0276785 	0 	
0.000894644 	2.08701e-08 	0.92 	0.04 	0.04 	0.0291619 	
1.84132e-06 	0.0276785 	0.0276785 	0 	
0.000948267 	2.08701e-08 	0.92 	0.04 	0.04 	0.0291618 	
1.84132e-06 	0.0276785 	0.0276785 	0 	
0.00100189 	2.08701e-08 	0.92 	0.04 	0.04 	0.0291618 	
1.84132e-06 	0.0276785 	0.0276785 	0 	
0.00105551 	2.08701e-08 	0.92 	0.04 	0.04 	0.0291617 	
1.84132e-06 	0.0276785 	0.0276785 	0 	
0.00110913 	2.08701e-08 	0.92 	0.04 	0.04 	0.0291617 	
1.84132e-06 	0.0276785 	0.0276785 	0 	
0.00116276 	2.08701e-08 	0.92 	0.04 	0.04 	0.0291616 	
1.84132e-06 	0.0276785 	0.0276785 	0 	
0.00121638 	2.08701e-08 	0.92 	0.04 	0.04 	0.0291616 	
1.84132e-06 	0.0276785 	0.0276785 	0 	
0.00127 	1.85533e-08 	0.92 	0.04 	0.04 	0.0291615 	
1.84132e-06 	0.0276785 	0.0276785 	0 	
ZONE T = "t = 9.97677e-05 [s]" I = 10 SOLUTIONTIME = 9.9767701902390E-05
0.0007874 	2.08701e-08 	0.92 	0.04 	0.04 	0.029162 	
2.7617e-06 	0.0276785 	0.0276785 	0 	
0.000841022 	2.08701e-08 	0.92 	0.04 	0.04 	0.0291619 	
2.7617e-06 	0.0276785 	0.0276785 	0 	
0.000894644 	2.08701e-08 	0.92 	0.04 	0.04 	0.0291619 	
2.7617e-06 	0.0276785 	0.0276785 	0 	
0.000948267 	2.08701e-08 	0.92 	0.04 	0.04 	0.0291618 	
2.7617e-06 	0.0276785 	0.0276785 	0 	
0.00100189 	2.08701e-08 	0.92 	0.04 	0.04 	0.0291618 	
2.7617e-06 	0.0276785 	0.0276785 	0 	
0.00105551 	2.08701e-08 	0.92 	0.04 	0.04 	0.0291617 	
2.7617e-06 	0.0276785 	0.0276785 	0 	
0.00110913 	2.08701e-08 	0.92 	0.04 	0.04 	0.0291617 	
2.7617e-06 	0.0276785 	0.0276785 	0 	
0.00116276 	2.08701e-08 	0.92 	0.04 	0.04 	0.0291616 	
2.7617e-06 	0.0276785 	0.0276785 	0 	
0.00121638 	2.08701e-08 	0.92 	0.04 	0.04 	0.0291616 	
2.7617e-06 	0.0276785 	0.0276785 	0 	
0.00127 	1.85533e-08 	0.92 	0.04 	0.04 	0.0291615 	
2.7617e-06 	0.0276785 	0.0276785 	0 	
ZONE T = "t = 0.000149647 [s]" I = 10 SOLUTIONTIME = 1.4964655285358E-04
0.0007874 	2.08701e-08 	0.92 	0.04 	0.04 	0.029162 	
4.14227e-06 	0.0276785 	0.0276785 	0 	
0.000841022 	2.08701e-08 	0.92 	0.04 	0.04 	0.0291619 	
4.14227e-06 	0.0276785 	0.0276785 	0 	
0.000894644 	2.08701e-08 	0.92 	0.04 	0.04 	0.0291619 	
4.14227e-06 	0.0276785 	0.0276785 	0 	
0.000948267 	2.08701e-08 	0.92 	0.04 	0.04 	0.0291618 	
4.14227e-06 	0.0276785 	0.0276785 	0 	
0.00100189 	2.08701e-08 	0.92 	0.04 	0.04 	0.0291618 	
4.14227e-06 	0.0276785 	0.0276785 	0 	
0.00105551 	2.08701e-08 	0.92 	0.04 	0.04 	0.0291617 	
4.14227e-06 	0.0276785 	0.0276785 	0 	
0.00110913 	2.08701e-08 	0.92 	0.04 	0.04 	0.0291617 	
4.14227e-06 	0.0276785 	0.0276785 	0 	
0.00116276 	2.08701e-08 	0.92 	0.04 	0.04 	0.0291616 	
4.14227e-06 	0.0276785 	0.0276785 	0 	
0.00121638 	2.08701e-08 	0.92 	0.04 	0.04 	0.0291616 	
4.14227e-06 	0.0276785 	0.0276785 	0 	
0.00127 	1.85533e-08 	0.92 	0.04 	0.04 	0.0291615 	
4.14227e-06 	0.0276785 	0.0276785 	0 	
ZONE T = "t = 0.000224465 [s]" I = 10 SOLUTIONTIME = 2.2446482928038E-04
0.0007874 	2.08701e-08 	0.92 	0.04 	0.04 	0.029162 	
6.21313e-06 	0.0276785 	0.0276785 	0 	
0.000841022 	2.08701e-08 	0.92 	0.04 	0.04 	0.0291619 	
6.21313e-06 	0.0276785 	0.0276785 	0 	
0.000894644 	2.08701e-08 	0.92 	0.04 	0.04 	0.0291619 	
6.21313e-06 	0.0276785 	0.0276785 	0 	
0.000948267 	2.08701e-08 	0.92 	0.04 	0.04 	0.0291618 	
6.21313e-06 	0.0276785 	0.0276785 	0 	
0.00100189 	2.08701e-08 	0.92 	0.04 	0.04 	0.0291618 	
6.21313e-06 	0.0276785 	0.0276785 	0 	
0.00105551 	2.08701e-08 	0.92 	0.04 	0.04 	0.0291617 	
6.21313e-06 	0.0276785 	0.0276785 	0 	
0.00110913 	2.08701e-08 	0.92 	0.04 	0.04 	0.0291617 	
6.21313e-06 	0.0276785 	0.0276785 	0 	
0.00116276 	2.08701e-08 	0.92 	0.04 	0.04 	0.0291616 	
6.21313e-06 	0.0276785 	0.0276785 	0 	
0.00121638 	2.08701e-08 	0.92 	0.04 	0.04 	0.0291616 	
6.21313e-06 	0.0276785 	0.0276785 	0 	
0.00127 	1.85533e-08 	0.92 	0.04 	0.04 	0.0291615 	
6.21313e-06 	0.0276785 	0.0276785 	0 	
ZONE T = "t = 0.000336692 [s]" I = 10 SOLUTIONTIME = 3.3669224392056E-04
0.0007874 	2.08701e-08 	0.92 	0.04 	0.04 	0.029162 	
9.31941e-06 	0.0276785 	0.0276785 	0 	
0.000841022 	2.08701e-08 	0.92 	0.04 	0.04 	0.0291619 	
9.31941e-06 	0.0276785 	0.0276785 	0 	
0.000894644 	2.08701e-08 	0.92 	0.04 	0.04 	0.0291619 	
9.31941e-06 	0.0276785 	0.0276785 	0 	
0.000948267 	2.08701e-08 	0.92 	0.04 	0.04 	0.0291618 	
9.31941e-06 	0.0276785 	0.0276785 	0 	
0.00100189 	2.08701e-08 	0.92 	0.04 	0.04 	0.0291618 	
9.31941e-06 	0.0276785 	0.0276785 	0 	
0.00105551 	2.08701e-08 	0.92 	0.04 	0.04 	0.0291617 	
9.31941e-06 	0.0276785 	0.0276785 	0 	
0.00110913 	2.08701e-08 	0.92 	0.04 	0.04 	0.0291617 	
9.31941e-06 	0.0276785 	0.0276785 	0 	
0.00116276 	2.08701e-08 	0.92 	0.04 	0.04 	0.0291616 	
9.31941e-06 	0.0276785 	0.0276785 	0 	
0.00121638 	2.08701e-08 	0.92 	0.04 	0.04 	0.0291616 	
9.31941e-06 	0.0276785 	0.0276785 	0 	
0.00127 	1.85533e-08 	0.92 	0.04 	0.04 	0.0291615 	
9.31941e-06 	0.0276785 	0.0276785 	0 	
ZONE T = "t = 0.000505033 [s]" I = 10 SOLUTIONTIME = 5.0503336588085E-04
0.0007874 	2.08701e-08 	0.92 	0.04 	0.04 	0.029162 	
1.39788e-05 	0.0276785 	0.0276785 	0 	
0.000841022 	2.08701e-08 	0.92 	0.04 	0.04 	0.0291619 	
1.39788e-05 	0.0276785 	0.0276785 	0 	
0.000894644 	2.08701e-08 	0.92 	0.04 	0.04 	0.0291619 	
1.39788e-05 	0.0276785 	0.0276785 	0 	
0.000948267 	2.08701e-08 	0.92 	0.04 	0.04 	0.0291618 	
1.39788e-05 	0.0276785 	0.0276785 	0 	
0.00100189 	2.08701e-08 	0.92 	0.04 	0.04 	0.0291618 	
1.39788e-05 	0.0276785 	0.0276785 	0 	
0.00105551 	2.08701e-08 	0.92 	0.04 	0.04 	0.0291617 	
1.39788e-05 	0.0276785 	0.0276785 	0 	
0.00110913 	2.08701e-08 	0.92 	0.04 	0.04 	0.0291617 	
1.39788e-05 	0.0276785 	0.0276785 	0 	
0.00116276 	2.08701e-08 	0.92 	0.04 	0.04 	0.0291616 	
1.39788e-05 	0.0276785 	0.0276785 	0 	
0.00121638 	2.08701e-08 	0.92 	0.04 	0.04 	0.0291616 	
1.39788e-05 	0.0276785 	0.0276785 	0 	
0.00127 	1.85533e-08 	0.92 	0.04 	0.04 	0.0291615 	
1.39788e-05 	0.0276785 	0.0276785 	0 	
ZONE T = "t = 0.000757545 [s]" I = 10 SOLUTIONTIME = 7.5754504882127E-04
0.0007874 	2.08701e-08 	0.92 	0.04 	0.04 	0.029162 	
2.0968e-05 	0.0276785 	0.0276785 	0 	