TITLE = "Solution on Domain BulkDomain1D_1"
VARIABLES = "x [m]"  
"Vel_axial" 	"MF_sp(ECDMC)" 	"MF_sp(Li+)" 	"MF_sp(PF6-)" 	"Volt(Electroly)" 	"Porosity []" 	"Control volume thickness [m]" 	"volFrac MgO(S) []" 	"qHeat_accum [J/m3]" 	"qHeat_step [W/m3]" 	"Joule_Lyte [W/m3]" 	"Joule_Solid [W/m3]" 	
ZONE T = "SEP , 0.0000E+00", I = 10, SOLUTIONTIME = 0.000000E+00
ZONETYPE = ORDERED
DATAPACKING = BLOCK
STRANDID = 2
 7.8740000000000E-04  8.4102222222222E-04  8.9464444444444E-04  9.4826666666667E-04  1.0018888888889E-03  1.0555111111111E-03  1.1091333333333E-03  1.1627555555556E-03  1.2163777777778E-03  1.2700000000000E-03 
 0.0000000000000E+00  0.0000000000000E+00  0.0000000000000E+00  0.0000000000000E+00  0.0000000000000E+00  0.0000000000000E+00  0.0000000000000E+00  0.0000000000000E+00  0.0000000000000E+00  0.0000000000000E+00 
 9.2000000000000E-01  9.2000000000000E-01  9.2000000000000E-01  9.2000000000000E-01  9.2000000000000E-01  9.2000000000000E-01  9.2000000000000E-01  9.2000000000000E-01  9.2000000000000E-01  9.2000000000000E-01 
 4.0000000000000E-02  4.0000000000000E-02  4.0000000000000E-02  4.0000000000000E-02  4.0000000000000E-02  4.0000000000000E-02  4.0000000000000E-02  4.0000000000000E-02  4.0000000000000E-02  4.0000000000000E-02 
 4.0000000000000E-02  4.0000000000000E-02  4.0000000000000E-02  4.0000000000000E-02  4.0000000000000E-02  4.0000000000000E-02  4.0000000000000E-02  4.0000000000000E-02  4.0000000000000E-02  4.0000000000000E-02 
-7.0000000000000E-02 -7.0000000000000E-02 -7.0000000000000E-02 -7.0000000000000E-02 -7.0000000000000E-02 -7.0000000000000E-02 -7.0000000000000E-02 -7.0000000000000E-02 -7.0000000000000E-02 -7.0000000000000E-02 
 8.0911139820575E-01  8.0911139820575E-01  8.0911139820575E-01  8.0911139820575E-01  8.0911139820575E-01  8.0911139820575E-01  8.0911139820575E-01  8.0911139820575E-01  8.0911139820575E-01  8.0911139820575E-01 
 2.6811111111111E-05  5.3622222222222E-05  5.3622222222222E-05  5.3622222222222E-05  5.3622222222222E-05  5.3622222222222E-05  5.3622222222222E-05  5.3622222222223E-05  5.3622222222222E-05  2.6811111111111E-05 
 1.9088860179425E-01  1.9088860179425E-01  1.9088860179425E-01  1.9088860179425E-01  1.9088860179425E-01  1.9088860179425E-01  1.9088860179425E-01  1.9088860179425E-01  1.9088860179425E-01  1.9088860179425E-01 
 0.0000000000000E+00  0.0000000000000E+00  0.0000000000000E+00  0.0000000000000E+00  0.0000000000000E+00  0.0000000000000E+00  0.0000000000000E+00  0.0000000000000E+00  0.0000000000000E+00  0.0000000000000E+00 
 0.0000000000000E+00  0.0000000000000E+00  0.0000000000000E+00  0.0000000000000E+00  0.0000000000000E+00  0.0000000000000E+00  0.0000000000000E+00  0.0000000000000E+00  0.0000000000000E+00  0.0000000000000E+00 
 0.0000000000000E+00  0.0000000000000E+00  0.0000000000000E+00  0.0000000000000E+00  0.0000000000000E+00  0.0000000000000E+00  0.0000000000000E+00  0.0000000000000E+00  0.0000000000000E+00  0.0000000000000E+00 
 0.0000000000000E+00  0.0000000000000E+00  0.0000000000000E+00  0.0000000000000E+00  0.0000000000000E+00  0.0000000000000E+00  0.0000000000000E+00  0.0000000000000E+00  0.0000000000000E+00  0.0000000000000E+00 
ZONE T = "SEP , 1.0000E-08", I = 10, SOLUTIONTIME = 1.000000E-08
ZONETYPE = ORDERED
DATAPACKING = BLOCK
STRANDID = 2
 7.8740000000000E-04  8.4102222222222E-04  8.9464444444444E-04  9.4826666666667E-04  1.0018888888889E-03  1.0555111111111E-03  1.1091333333333E-03  1.1627555555556E-03  1.2163777777778E-03  1.2700000000000E-03 
 2.0863142023055E-08  2.0863142023055E-08  2.0863142023055E-08  2.0863142023054E-08  2.0863142023054E-08  2.0863142023054E-08  2.0863142023054E-08  2.0863142023054E-08  2.0863142023054E-08  1.9704870968252E-08 
 9.1999999999971E-01  9.2000000000000E-01  9.2000000000000E-01  9.2000000000000E-01  9.2000000000000E-01  9.2000000000000E-01  9.2000000000000E-01  9.2000000000000E-01  9.2000000000000E-01  9.2000000000032E-01 
 4.0000000000144E-02  4.0000000000000E-02  4.0000000000000E-02  4.0000000000000E-02  4.0000000000000E-02  4.0000000000000E-02  4.0000000000000E-02  4.0000000000000E-02  4.0000000000000E-02  3.9999999999841E-02 
 4.0000000000144E-02  4.0000000000000E-02  4.0000000000000E-02  4.0000000000000E-02  4.0000000000000E-02  4.0000000000000E-02  4.0000000000000E-02  4.0000000000000E-02  4.0000000000000E-02  3.9999999999841E-02 
 2.9166097552903E-02  2.9166048187992E-02  2.9165998823081E-02  2.9165949458170E-02  2.9165900093265E-02  2.9165850728339E-02  2.9165801363429E-02  2.9165751998518E-02  2.9165702633607E-02  2.9165653268702E-02 
 8.0911139820575E-01  8.0911139820575E-01  8.0911139820575E-01  8.0911139820575E-01  8.0911139820575E-01  8.0911139820575E-01  8.0911139820575E-01  8.0911139820575E-01  8.0911139820575E-01  8.0911139820575E-01 
 2.6811111111111E-05  5.3622222222222E-05  5.3622222222222E-05  5.3622222222222E-05  5.3622222222222E-05  5.3622222222222E-05  5.3622222222222E-05  5.3622222222223E-05  5.3622222222222E-05  2.6811111111111E-05 
 1.9088860179425E-01  1.9088860179425E-01  1.9088860179425E-01  1.9088860179425E-01  1.9088860179425E-01  1.9088860179425E-01  1.9088860179425E-01  1.9088860179425E-01  1.9088860179425E-01  1.9088860179425E-01 
 2.7658487416144E-10  2.7658487414175E-10  2.7658487105072E-10  2.7658483979307E-10  2.7658492338009E-10  2.7658495127482E-10  2.7658487075914E-10  2.7658487013709E-10  2.7658483885973E-10  2.7658481156733E-10 
 2.7658487416144E-02  2.7658487414175E-02  2.7658487105072E-02  2.7658483979307E-02  2.7658492338009E-02  2.7658495127482E-02  2.7658487075914E-02  2.7658487013709E-02  2.7658483885973E-02  2.7658481156733E-02 
 2.7658487416144E-02  2.7658487414175E-02  2.7658487105072E-02  2.7658483979307E-02  2.7658492338009E-02  2.7658495127482E-02  2.7658487075914E-02  2.7658487013709E-02  2.7658483885973E-02  2.7658481156733E-02 
 0.0000000000000E+00  0.0000000000000E+00  0.0000000000000E+00  0.0000000000000E+00  0.0000000000000E+00  0.0000000000000E+00  0.0000000000000E+00  0.0000000000000E+00  0.0000000000000E+00  0.0000000000000E+00 
ZONE T = "SEP , 2.0000E-08", I = 10, SOLUTIONTIME = 2.000000E-08
ZONETYPE = ORDERED
DATAPACKING = BLOCK
STRANDID = 2
 7.8740000000000E-04  8.4102222222222E-04  8.9464444444444E-04  9.4826666666667E-04  1.0018888888889E-03  1.0555111111111E-03  1.1091333333333E-03  1.1627555555556E-03  1.2163777777778E-03  1.2700000000000E-03 
 2.0861066211454E-08  2.0861066211454E-08  2.0861066211454E-08  2.0861066211454E-08  2.0861066211454E-08  2.0861066211454E-08  2.0861066211454E-08  2.0861066211454E-08  2.0861066211454E-08  1.9703334326350E-08 
 9.1999999999942E-01  9.2000000000000E-01  9.2000000000000E-01  9.2000000000000E-01  9.2000000000000E-01  9.2000000000000E-01  9.2000000000000E-01  9.2000000000000E-01  9.2000000000000E-01  9.2000000000063E-01 
 4.0000000000288E-02  4.0000000000000E-02  4.0000000000000E-02  4.0000000000000E-02  4.0000000000000E-02  4.0000000000000E-02  4.0000000000000E-02  4.0000000000000E-02  4.0000000000000E-02  3.9999999999683E-02 
 4.0000000000288E-02  4.0000000000000E-02  4.0000000000000E-02  4.0000000000000E-02  4.0000000000000E-02  4.0000000000000E-02  4.0000000000000E-02  4.0000000000000E-02  4.0000000000000E-02  3.9999999999683E-02 
 2.9166099742163E-02  2.9166050377006E-02  2.9166001011849E-02  2.9165951646692E-02  2.9165902281534E-02  2.9165852916377E-02  2.9165803551220E-02  2.9165754186063E-02  2.9165704820905E-02  2.9165655455748E-02 
 8.0911139820575E-01  8.0911139820575E-01  8.0911139820575E-01  8.0911139820575E-01  8.0911139820575E-01  8.0911139820575E-01  8.0911139820575E-01  8.0911139820575E-01  8.0911139820575E-01  8.0911139820575E-01 
 2.6811111111111E-05  5.3622222222222E-05  5.3622222222222E-05  5.3622222222222E-05  5.3622222222222E-05  5.3622222222222E-05  5.3622222222222E-05  5.3622222222223E-05  5.3622222222222E-05  2.6811111111111E-05 
 1.9088860179425E-01  1.9088860179425E-01  1.9088860179425E-01  1.9088860179425E-01  1.9088860179425E-01  1.9088860179425E-01  1.9088860179425E-01  1.9088860179425E-01  1.9088860179425E-01  1.9088860179425E-01 
 5.5317250615718E-10  5.5317250613699E-10  5.5317250306491E-10  5.5317247180725E-10  5.5317255537483E-10  5.5317258326957E-10  5.5317250277332E-10  5.5317250215128E-10  5.5317247085393E-10  5.5317244356098E-10 
 2.7658763199574E-02  2.7658763199524E-02  2.7658763201418E-02  2.7658763201418E-02  2.7658763199474E-02  2.7658763199475E-02  2.7658763201418E-02  2.7658763201418E-02  2.7658763199420E-02  2.7658763199365E-02 
 2.7658763199574E-02  2.7658763199524E-02  2.7658763201418E-02  2.7658763201418E-02  2.7658763199474E-02  2.7658763199475E-02  2.7658763201418E-02  2.7658763201418E-02  2.7658763199420E-02  2.7658763199365E-02 
 0.0000000000000E+00  0.0000000000000E+00  0.0000000000000E+00  0.0000000000000E+00  0.0000000000000E+00  0.0000000000000E+00  0.0000000000000E+00  0.0000000000000E+00  0.0000000000000E+00  0.0000000000000E+00 
ZONE T = "SEP , 3.0000E-08", I = 10, SOLUTIONTIME = 3.000000E-08
ZONETYPE = ORDERED
DATAPACKING = BLOCK
STRANDID = 2
 7.8740000000000E-04  8.4102222222222E-04  8.9464444444444E-04  9.4826666666667E-04  1.0018888888889E-03  1.0555111111111E-03  1.1091333333333E-03  1.1627555555556E-03  1.2163777777778E-03  1.2700000000000E-03 
 2.0864335080654E-08  2.0864335080654E-08  2.0864335080654E-08  2.0864335080654E-08  2.0864335080654E-08  2.0864335080654E-08  2.0864335080654E-08  2.0864335080654E-08  2.0864335080654E-08  1.9705876780106E-08 
 9.1999999999914E-01  9.2000000000000E-01  9.2000000000000E-01  9.2000000000000E-01  9.2000000000000E-01  9.2000000000000E-01  9.2000000000000E-01  9.2000000000000E-01  9.2000000000000E-01  9.2000000000095E-01 
 4.0000000000432E-02  4.0000000000000E-02  4.0000000000000E-02  4.0000000000000E-02  4.0000000000000E-02  4.0000000000000E-02  4.0000000000000E-02  4.0000000000000E-02  4.0000000000000E-02  3.9999999999524E-02 
 4.0000000000432E-02  4.0000000000000E-02  4.0000000000000E-02  4.0000000000000E-02  4.0000000000000E-02  4.0000000000000E-02  4.0000000000000E-02  4.0000000000000E-02  4.0000000000000E-02  3.9999999999524E-02 
 2.9166099741950E-02  2.9166050376793E-02  2.9166001011635E-02  2.9165951646478E-02  2.9165902281321E-02  2.9165852916164E-02  2.9165803551006E-02  2.9165754185849E-02  2.9165704820692E-02  2.9165655455535E-02 
 8.0911139820575E-01  8.0911139820575E-01  8.0911139820575E-01  8.0911139820575E-01  8.0911139820575E-01  8.0911139820575E-01  8.0911139820575E-01  8.0911139820575E-01  8.0911139820575E-01  8.0911139820575E-01 
 2.6811111111111E-05  5.3622222222222E-05  5.3622222222222E-05  5.3622222222222E-05  5.3622222222222E-05  5.3622222222222E-05  5.3622222222222E-05  5.3622222222223E-05  5.3622222222222E-05  2.6811111111111E-05 
 1.9088860179425E-01  1.9088860179425E-01  1.9088860179425E-01  1.9088860179425E-01  1.9088860179425E-01  1.9088860179425E-01  1.9088860179425E-01  1.9088860179425E-01  1.9088860179425E-01  1.9088860179425E-01 
 8.2976013815342E-10  8.2976013813248E-10  8.2976013505965E-10  8.2976010380200E-10  8.2976018736958E-10  8.2976021526431E-10  8.2976013476807E-10  8.2976013414602E-10  8.2976010284785E-10  8.2976007555408E-10 
 2.7658763199624E-02  2.7658763199549E-02  2.7658763199474E-02  2.7658763199474E-02  2.7658763199474E-02  2.7658763199475E-02  2.7658763199475E-02  2.7658763199474E-02  2.7658763199392E-02  2.7658763199310E-02 
 2.7658763199624E-02  2.7658763199549E-02  2.7658763199474E-02  2.7658763199474E-02  2.7658763199474E-02  2.7658763199475E-02  2.7658763199475E-02  2.7658763199474E-02  2.7658763199392E-02  2.7658763199310E-02 
 0.0000000000000E+00  0.0000000000000E+00  0.0000000000000E+00  0.0000000000000E+00  0.0000000000000E+00  0.0000000000000E+00  0.0000000000000E+00  0.0000000000000E+00  0.0000000000000E+00  0.0000000000000E+00 
ZONE T = "SEP , 4.0000E-08", I = 10, SOLUTIONTIME = 4.000000E-08
ZONETYPE = ORDERED
DATAPACKING = BLOCK
STRANDID = 2
 7.8740000000000E-04  8.4102222222222E-04  8.9464444444444E-04  9.4826666666667E-04  1.0018888888889E-03  1.0555111111111E-03  1.1091333333333E-03  1.1627555555556E-03  1.2163777777778E-03  1.2700000000000E-03 
 2.0861247814617E-08  2.0861247814617E-08  2.0861247814617E-08  2.0861247814617E-08  2.0861247814617E-08  2.0861247814617E-08  2.0861247814617E-08  2.0861247814617E-08  2.0861247814617E-08  1.9704787156584E-08 
 9.1999999999885E-01  9.2000000000000E-01  9.2000000000000E-01  9.2000000000000E-01  9.2000000000000E-01  9.2000000000000E-01  9.2000000000000E-01  9.2000000000000E-01  9.2000000000000E-01  9.2000000000127E-01 
 4.0000000000576E-02  4.0000000000000E-02  4.0000000000000E-02  4.0000000000000E-02  4.0000000000000E-02  4.0000000000000E-02  4.0000000000000E-02  4.0000000000000E-02  4.0000000000000E-02  3.9999999999365E-02 
 4.0000000000576E-02  4.0000000000000E-02  4.0000000000000E-02  4.0000000000000E-02  4.0000000000000E-02  4.0000000000000E-02  4.0000000000000E-02  4.0000000000000E-02  4.0000000000000E-02  3.9999999999365E-02 
 2.9166099741737E-02  2.9166050376580E-02  2.9166001011423E-02  2.9165951646266E-02  2.9165902281108E-02  2.9165852915951E-02  2.9165803550794E-02  2.9165754185637E-02  2.9165704820479E-02  2.9165655455322E-02 
 8.0911139820575E-01  8.0911139820575E-01  8.0911139820575E-01  8.0911139820575E-01  8.0911139820575E-01  8.0911139820575E-01  8.0911139820575E-01  8.0911139820575E-01  8.0911139820575E-01  8.0911139820575E-01 
 2.6811111111111E-05  5.3622222222222E-05  5.3622222222222E-05  5.3622222222222E-05  5.3622222222222E-05  5.3622222222222E-05  5.3622222222222E-05  5.3622222222223E-05  5.3622222222222E-05  2.6811111111111E-05 
 1.9088860179425E-01  1.9088860179425E-01  1.9088860179425E-01  1.9088860179425E-01  1.9088860179425E-01  1.9088860179425E-01  1.9088860179425E-01  1.9088860179425E-01  1.9088860179425E-01  1.9088860179425E-01 
 1.1063477701502E-09  1.1063477701088E-09  1.1063477670350E-09  1.1063477357967E-09  1.1063478193643E-09  1.1063478472591E-09  1.1063477667628E-09  1.1063477661213E-09  1.1063477348221E-09  1.1063477075466E-09 
 2.7658763199674E-02  2.7658763197630E-02  2.7658763197531E-02  2.7658763199474E-02  2.7658763199474E-02  2.7658763199475E-02  2.7658763199475E-02  2.7658763197530E-02  2.7658763197421E-02  2.7658763199255E-02 
 2.7658763199674E-02  2.7658763197630E-02  2.7658763197531E-02  2.7658763199474E-02  2.7658763199474E-02  2.7658763199475E-02  2.7658763199475E-02  2.7658763197530E-02  2.7658763197421E-02  2.7658763199255E-02 
 0.0000000000000E+00  0.0000000000000E+00  0.0000000000000E+00  0.0000000000000E+00  0.0000000000000E+00  0.0000000000000E+00  0.0000000000000E+00  0.0000000000000E+00  0.0000000000000E+00  0.0000000000000E+00 
ZONE T = "SEP , 5.5000E-08", I = 10, SOLUTIONTIME = 5.500000E-08
ZONETYPE = ORDERED
DATAPACKING = BLOCK
STRANDID = 2
 7.8740000000000E-04  8.4102222222222E-04  8.9464444444444E-04  9.4826666666667E-04  1.0018888888889E-03  1.0555111111111E-03  1.1091333333333E-03  1.1627555555556E-03  1.2163777777778E-03  1.2700000000000E-03 
 2.0865364168496E-08  2.0865364168496E-08  2.0865364168496E-08  2.0865364168496E-08  2.0865364168496E-08  2.0865364168496E-08  2.0865364168496E-08  2.0865364168496E-08  2.0865364168496E-08  1.9707632283428E-08 
 9.1999999999842E-01  9.2000000000000E-01  9.2000000000000E-01  9.2000000000000E-01  9.2000000000000E-01  9.2000000000000E-01  9.2000000000000E-01  9.2000000000000E-01  9.2000000000000E-01  9.2000000000175E-01 
 4.0000000000792E-02  4.0000000000000E-02  4.0000000000000E-02  4.0000000000000E-02  4.0000000000000E-02  4.0000000000000E-02  4.0000000000000E-02  4.0000000000000E-02  4.0000000000000E-02  3.9999999999127E-02 
 4.0000000000792E-02  4.0000000000000E-02  4.0000000000000E-02  4.0000000000000E-02  4.0000000000000E-02  4.0000000000000E-02  4.0000000000000E-02  4.0000000000000E-02  4.0000000000000E-02  3.9999999999127E-02 
 2.9166099741493E-02  2.9166050376336E-02  2.9166001011179E-02  2.9165951646021E-02  2.9165902280864E-02  2.9165852915707E-02  2.9165803550550E-02  2.9165754185392E-02  2.9165704820235E-02  2.9165655455078E-02 
 8.0911139820575E-01  8.0911139820575E-01  8.0911139820575E-01  8.0911139820575E-01  8.0911139820575E-01  8.0911139820575E-01  8.0911139820575E-01  8.0911139820575E-01  8.0911139820575E-01  8.0911139820575E-01 
 2.6811111111111E-05  5.3622222222222E-05  5.3622222222222E-05  5.3622222222222E-05  5.3622222222222E-05  5.3622222222222E-05  5.3622222222222E-05  5.3622222222223E-05  5.3622222222222E-05  2.6811111111111E-05 
 1.9088860179425E-01  1.9088860179425E-01  1.9088860179425E-01  1.9088860179425E-01  1.9088860179425E-01  1.9088860179425E-01  1.9088860179425E-01  1.9088860179425E-01  1.9088860179425E-01  1.9088860179425E-01 
 1.5212292180881E-09  1.5212292180738E-09  1.5212292149979E-09  1.5212291837597E-09  1.5212292673273E-09  1.5212292952220E-09  1.5212292147258E-09  1.5212292140843E-09  1.5212291828119E-09  1.5212291555342E-09 
 2.7658763195861E-02  2.7658763197668E-02  2.7658763197531E-02  2.7658763197531E-02  2.7658763197531E-02  2.7658763197531E-02  2.7658763197531E-02  2.7658763197530E-02  2.7658763199324E-02  2.7658763199173E-02 
 2.7658763195861E-02  2.7658763197668E-02  2.7658763197531E-02  2.7658763197531E-02  2.7658763197531E-02  2.7658763197531E-02  2.7658763197531E-02  2.7658763197530E-02  2.7658763199324E-02  2.7658763199173E-02 
 0.0000000000000E+00  0.0000000000000E+00  0.0000000000000E+00  0.0000000000000E+00  0.0000000000000E+00  0.0000000000000E+00  0.0000000000000E+00  0.0000000000000E+00  0.0000000000000E+00  0.0000000000000E+00 
ZONE T = "SEP , 7.7500E-08", I = 10, SOLUTIONTIME = 7.750000E-08
ZONETYPE = ORDERED
DATAPACKING = BLOCK
STRANDID = 2
 7.8740000000000E-04  8.4102222222222E-04  8.9464444444444E-04  9.4826666666667E-04  1.0018888888889E-03  1.0555111111111E-03  1.1091333333333E-03  1.1627555555556E-03  1.2163777777778E-03  1.2700000000000E-03 
 2.0862700644569E-08  2.0862700644569E-08  2.0862700644569E-08  2.0862700644569E-08  2.0862700644569E-08  2.0862700644569E-08  2.0862700644569E-08  2.0862700644569E-08  2.0862700644569E-08  1.9705130185178E-08 
 9.1999999999777E-01  9.2000000000000E-01  9.2000000000000E-01  9.2000000000000E-01  9.2000000000000E-01  9.2000000000000E-01  9.2000000000000E-01  9.2000000000000E-01  9.2000000000000E-01  9.2000000000246E-01 
 4.0000000001117E-02  4.0000000000000E-02  4.0000000000000E-02  4.0000000000000E-02  4.0000000000000E-02  4.0000000000000E-02  4.0000000000000E-02  4.0000000000000E-02  4.0000000000000E-02  3.9999999998770E-02 
 4.0000000001117E-02  4.0000000000000E-02  4.0000000000000E-02  4.0000000000000E-02  4.0000000000000E-02  4.0000000000000E-02  4.0000000000000E-02  4.0000000000000E-02  4.0000000000000E-02  3.9999999998770E-02 
 2.9166099741070E-02  2.9166050375913E-02  2.9166001010756E-02  2.9165951645599E-02  2.9165902280441E-02  2.9165852915284E-02  2.9165803550127E-02  2.9165754184970E-02  2.9165704819812E-02  2.9165655454655E-02 
 8.0911139820575E-01  8.0911139820575E-01  8.0911139820575E-01  8.0911139820575E-01  8.0911139820575E-01  8.0911139820575E-01  8.0911139820575E-01  8.0911139820575E-01  8.0911139820575E-01  8.0911139820575E-01 
 2.6811111111111E-05  5.3622222222222E-05  5.3622222222222E-05  5.3622222222222E-05  5.3622222222222E-05  5.3622222222222E-05  5.3622222222222E-05  5.3622222222223E-05  5.3622222222222E-05  2.6811111111111E-05 
 1.9088860179425E-01  1.9088860179425E-01  1.9088860179425E-01  1.9088860179425E-01  1.9088860179425E-01  1.9088860179425E-01  1.9088860179425E-01  1.9088860179425E-01  1.9088860179425E-01  1.9088860179425E-01 
 2.1435513899975E-09  2.1435513899788E-09  2.1435513869424E-09  2.1435513557041E-09  2.1435514392280E-09  2.1435514671227E-09  2.1435513866265E-09  2.1435513859850E-09  2.1435513547516E-09  2.1435513275128E-09 
 2.7658763195973E-02  2.7658763195780E-02  2.7658763197531E-02  2.7658763197531E-02  2.7658763195587E-02  2.7658763195587E-02  2.7658763195587E-02  2.7658763195586E-02  2.7658763197318E-02  2.7658763199049E-02 
 2.7658763195973E-02  2.7658763195780E-02  2.7658763197531E-02  2.7658763197531E-02  2.7658763195587E-02  2.7658763195587E-02  2.7658763195587E-02  2.7658763195586E-02  2.7658763197318E-02  2.7658763199049E-02 
 0.0000000000000E+00  0.0000000000000E+00  0.0000000000000E+00  0.0000000000000E+00  0.0000000000000E+00  0.0000000000000E+00  0.0000000000000E+00  0.0000000000000E+00  0.0000000000000E+00  0.0000000000000E+00 
ZONE T = "SEP , 1.1125E-07", I = 10, SOLUTIONTIME = 1.112500E-07
ZONETYPE = ORDERED
DATAPACKING = BLOCK
STRANDID = 2
 7.8740000000000E-04  8.4102222222222E-04  8.9464444444444E-04  9.4826666666667E-04  1.0018888888889E-03  1.0555111111111E-03  1.1091333333333E-03  1.1627555555556E-03  1.2163777777778E-03  1.2700000000000E-03 
 2.0862431600923E-08  2.0862431600923E-08  2.0862431600923E-08  2.0862431600923E-08  2.0862431600923E-08  2.0862431600923E-08  2.0862431600923E-08  2.0862431600923E-08  2.0862431600923E-08  1.9704699715907E-08 
 9.1999999999679E-01  9.2000000000000E-01  9.2000000000000E-01  9.2000000000000E-01  9.2000000000000E-01  9.2000000000000E-01  9.2000000000000E-01  9.2000000000000E-01  9.2000000000000E-01  9.2000000000353E-01 
 4.0000000001603E-02  4.0000000000000E-02  4.0000000000000E-02  4.0000000000000E-02  4.0000000000000E-02  4.0000000000000E-02  4.0000000000000E-02  4.0000000000000E-02  4.0000000000000E-02  3.9999999998234E-02 
 4.0000000001603E-02  4.0000000000000E-02  4.0000000000000E-02  4.0000000000000E-02  4.0000000000000E-02  4.0000000000000E-02  4.0000000000000E-02  4.0000000000000E-02  4.0000000000000E-02  3.9999999998234E-02 
 2.9166099740436E-02  2.9166050375279E-02  2.9166001010121E-02  2.9165951644964E-02  2.9165902279807E-02  2.9165852914650E-02  2.9165803549492E-02  2.9165754184335E-02  2.9165704819178E-02  2.9165655454021E-02 
 8.0911139820575E-01  8.0911139820575E-01  8.0911139820575E-01  8.0911139820575E-01  8.0911139820575E-01  8.0911139820575E-01  8.0911139820575E-01  8.0911139820575E-01  8.0911139820575E-01  8.0911139820575E-01 
 2.6811111111111E-05  5.3622222222222E-05  5.3622222222222E-05  5.3622222222222E-05  5.3622222222222E-05  5.3622222222222E-05  5.3622222222222E-05  5.3622222222223E-05  5.3622222222222E-05  2.6811111111111E-05 
 1.9088860179425E-01  1.9088860179425E-01  1.9088860179425E-01  1.9088860179425E-01  1.9088860179425E-01  1.9088860179425E-01  1.9088860179425E-01  1.9088860179425E-01  1.9088860179425E-01  1.9088860179425E-01 
 3.0770346477360E-09  3.0770346477736E-09  3.0770346447278E-09  3.0770346134896E-09  3.0770346970790E-09  3.0770347249082E-09  3.0770346444119E-09  3.0770346437704E-09  3.0770346125267E-09  3.0770345853433E-09 
 2.7658763192253E-02  2.7658763193920E-02  2.7658763193643E-02  2.7658763193643E-02  2.7658763195587E-02  2.7658763193643E-02  2.7658763193643E-02  2.7658763193643E-02  2.7658763193337E-02  2.7658763194976E-02 
 2.7658763192253E-02  2.7658763193920E-02  2.7658763193643E-02  2.7658763193643E-02  2.7658763195587E-02  2.7658763193643E-02  2.7658763193643E-02  2.7658763193643E-02  2.7658763193337E-02  2.7658763194976E-02 
 0.0000000000000E+00  0.0000000000000E+00  0.0000000000000E+00  0.0000000000000E+00  0.0000000000000E+00  0.0000000000000E+00  0.0000000000000E+00  0.0000000000000E+00  0.0000000000000E+00  0.0000000000000E+00 
ZONE T = "SEP , 1.6188E-07", I = 10, SOLUTIONTIME = 1.618750E-07
ZONETYPE = ORDERED
DATAPACKING = BLOCK
STRANDID = 2
 7.8740000000000E-04  8.4102222222222E-04  8.9464444444444E-04  9.4826666666667E-04  1.0018888888889E-03  1.0555111111111E-03  1.1091333333333E-03  1.1627555555556E-03  1.2163777777778E-03  1.2700000000000E-03 
 2.0863453962089E-08  2.0863453962089E-08  2.0863453962089E-08  2.0863453962089E-08  2.0863453962089E-08  2.0863453962089E-08  2.0863453962089E-08  2.0863453962089E-08  2.0863453962089E-08  1.9705542715278E-08 
 9.1999999999534E-01  9.2000000000000E-01  9.2000000000000E-01  9.2000000000000E-01  9.2000000000000E-01  9.2000000000000E-01  9.2000000000000E-01  9.2000000000000E-01  9.2000000000000E-01  9.2000000000514E-01 
 4.0000000002332E-02  4.0000000000001E-02  4.0000000000000E-02  4.0000000000000E-02  4.0000000000000E-02  4.0000000000000E-02  4.0000000000000E-02  4.0000000000000E-02  3.9999999999999E-02  3.9999999997431E-02 
 4.0000000002332E-02  4.0000000000001E-02  4.0000000000000E-02  4.0000000000000E-02  4.0000000000000E-02  4.0000000000000E-02  4.0000000000000E-02  4.0000000000000E-02  3.9999999999999E-02  3.9999999997431E-02 
 2.9166099739485E-02  2.9166050374328E-02  2.9166001009171E-02  2.9165951644014E-02  2.9165902278856E-02  2.9165852913699E-02  2.9165803548542E-02  2.9165754183385E-02  2.9165704818227E-02  2.9165655453070E-02 
 8.0911139820575E-01  8.0911139820575E-01  8.0911139820575E-01  8.0911139820575E-01  8.0911139820575E-01  8.0911139820575E-01  8.0911139820575E-01  8.0911139820575E-01  8.0911139820575E-01  8.0911139820575E-01 
 2.6811111111111E-05  5.3622222222222E-05  5.3622222222222E-05  5.3622222222222E-05  5.3622222222222E-05  5.3622222222222E-05  5.3622222222222E-05  5.3622222222223E-05  5.3622222222222E-05  2.6811111111111E-05 
 1.9088860179425E-01  1.9088860179425E-01  1.9088860179425E-01  1.9088860179425E-01  1.9088860179425E-01  1.9088860179425E-01  1.9088860179425E-01  1.9088860179425E-01  1.9088860179425E-01  1.9088860179425E-01 
 4.4772595341598E-09  4.4772595341770E-09  4.4772595312091E-09  4.4772595000693E-09  4.4772595835604E-09  4.4772596113895E-09  4.4772595309917E-09  4.4772595302517E-09  4.4772594989856E-09  4.4772594718781E-09 
 2.7658763188618E-02  2.7658763188214E-02  2.7658763189755E-02  2.7658763191699E-02  2.7658763189755E-02  2.7658763189755E-02  2.7658763191699E-02  2.7658763189755E-02  2.7658763189311E-02  2.7658763190810E-02 
 2.7658763188618E-02  2.7658763188214E-02  2.7658763189755E-02  2.7658763191699E-02  2.7658763189755E-02  2.7658763189755E-02  2.7658763191699E-02  2.7658763189755E-02  2.7658763189311E-02  2.7658763190810E-02 
 0.0000000000000E+00  0.0000000000000E+00  0.0000000000000E+00  0.0000000000000E+00  0.0000000000000E+00  0.0000000000000E+00  0.0000000000000E+00  0.0000000000000E+00  0.0000000000000E+00  0.0000000000000E+00 
ZONE T = "SEP , 2.3781E-07", I = 10, SOLUTIONTIME = 2.378125E-07
ZONETYPE = ORDERED
DATAPACKING = BLOCK
STRANDID = 2
 7.8740000000000E-04  8.4102222222222E-04  8.9464444444444E-04  9.4826666666667E-04  1.0018888888889E-03  1.0555111111111E-03  1.1091333333333E-03  1.1627555555556E-03  1.2163777777778E-03  1.2700000000000E-03 
 2.0862413661420E-08  2.0862509321069E-08  2.0862509321069E-08  2.0862509321069E-08  2.0862509321069E-08  2.0862509321069E-08  2.0862509321069E-08  2.0862509321069E-08  2.0862413661420E-08  1.9704753521257E-08 
 9.1999999999315E-01  9.2000000000000E-01  9.2000000000000E-01  9.2000000000000E-01  9.2000000000000E-01  9.2000000000000E-01  9.2000000000000E-01  9.2000000000000E-01  9.2000000000000E-01  9.2000000000755E-01 
 4.0000000003425E-02  4.0000000000002E-02  4.0000000000000E-02  4.0000000000000E-02  4.0000000000000E-02  4.0000000000000E-02  4.0000000000000E-02  4.0000000000000E-02  3.9999999999998E-02  3.9999999996226E-02 
 4.0000000003425E-02  4.0000000000002E-02  4.0000000000000E-02  4.0000000000000E-02  4.0000000000000E-02  4.0000000000000E-02  4.0000000000000E-02  4.0000000000000E-02  3.9999999999998E-02  3.9999999996226E-02 
 2.9166099738056E-02  2.9166050372899E-02  2.9166001007742E-02  2.9165951642585E-02  2.9165902277427E-02  2.9165852912270E-02  2.9165803547113E-02  2.9165754181956E-02  2.9165704816798E-02  2.9165655451641E-02 
 8.0911139820575E-01  8.0911139820575E-01  8.0911139820575E-01  8.0911139820575E-01  8.0911139820575E-01  8.0911139820575E-01  8.0911139820575E-01  8.0911139820575E-01  8.0911139820575E-01  8.0911139820575E-01 
 2.6811111111111E-05  5.3622222222222E-05  5.3622222222222E-05  5.3622222222222E-05  5.3622222222222E-05  5.3622222222222E-05  5.3622222222222E-05  5.3622222222223E-05  5.3622222222222E-05  2.6811111111111E-05 
 1.9088860179425E-01  1.9088860179425E-01  1.9088860179425E-01  1.9088860179425E-01  1.9088860179425E-01  1.9088860179425E-01  1.9088860179425E-01  1.9088860179425E-01  1.9088860179425E-01  1.9088860179425E-01 
 6.5775968635289E-09  6.5775968635012E-09  6.5775968606360E-09  6.5775968294961E-09  6.5775969128395E-09  6.5775969408163E-09  6.5775968604185E-09  6.5775968595309E-09  6.5775968283628E-09  6.5775968013533E-09 
 2.7658763185108E-02  2.7658763184516E-02  2.7658763185867E-02  2.7658763185867E-02  2.7658763183923E-02  2.7658763185867E-02  2.7658763185867E-02  2.7658763183923E-02  2.7658763185214E-02  2.7658763186506E-02 
 2.7658763185108E-02  2.7658763184516E-02  2.7658763185867E-02  2.7658763185867E-02  2.7658763183923E-02  2.7658763185867E-02  2.7658763185867E-02  2.7658763183923E-02  2.7658763185214E-02  2.7658763186506E-02 
 0.0000000000000E+00  0.0000000000000E+00  0.0000000000000E+00  0.0000000000000E+00  0.0000000000000E+00  0.0000000000000E+00  0.0000000000000E+00  0.0000000000000E+00  0.0000000000000E+00  0.0000000000000E+00 
ZONE T = "SEP , 3.5172E-07", I = 10, SOLUTIONTIME = 3.517188E-07
ZONETYPE = ORDERED
DATAPACKING = BLOCK
STRANDID = 2
 7.8740000000000E-04  8.4102222222222E-04  8.9464444444444E-04  9.4826666666667E-04  1.0018888888889E-03  1.0555111111111E-03  1.1091333333333E-03  1.1627555555556E-03  1.2163777777778E-03  1.2700000000000E-03 
 2.0862764410479E-08  2.0862700637380E-08  2.0862700637380E-08  2.0862700637380E-08  2.0862700637380E-08  2.0862700637380E-08  2.0862700637380E-08  2.0862700637380E-08  2.0862700637380E-08  1.9704968752585E-08 
 9.1999999998987E-01  9.1999999999999E-01  9.2000000000000E-01  9.2000000000000E-01  9.2000000000000E-01  9.2000000000000E-01  9.2000000000000E-01  9.2000000000000E-01  9.2000000000001E-01  9.2000000001116E-01 
 4.0000000005065E-02  4.0000000000003E-02  4.0000000000000E-02  4.0000000000000E-02  4.0000000000000E-02  4.0000000000000E-02  4.0000000000000E-02  4.0000000000000E-02  3.9999999999996E-02  3.9999999994419E-02 