TITLE = "Solution on Domain BulkDomain1D_0"
VARIABLES = "x [m]"  
"Vel_axial(0)" 	"MF_sp(ECDMC)" 	"MF_sp(Li+)" 	"MF_sp(PF6-)" 	"Volt(Electroly)" 	"Volt(AnodeVolt)" 	
"Potential Drop Electrode-Electrolyte [V]" 	"Surf_0 Equilibrium Potential Drop Electrode-Electrolyte [V]" 	"Overpotential_0 [V]" 	"Current Source [A/m^2]" 	"Li+ flux [kmol/m^2/s]" 	"Electrolyte Current [A/m^2]" 	"Electrode Current [A/m^2]" 	
"Capacity discharged [A-s]" 	"Depth of discharge [-]" 	"Capacity remaining [A-s]" 	"Initial capacity [A-s]" 	"Porosity []" 	"Surface Area [m2/m2] (area per area)" 	"Specific current (per particle area) [A/m^2]" 	"Control volume thickness [m]" 	
"Moles Li_C6-bulk [mol/m^2] (per electrode area)" 	"Moles V_C6-bulk [mol/m^2] (per electrode area)" 	"qHeat_accum [J/m3]" 	"qHeat_step [W/m3]" 	"Joule_Lyte [W/m3]" 	"Joule_Solid [W/m3]" 	"electrodHeat [W/m3]" 	"OverpotHeat [W/m3]" 	"deltaSHeat [W/m3]" 	

ZONE T = "t = 0 [s]" I = 10 SOLUTIONTIME = 0.0000000000000E+00
0 	0 	0.92 	0.04 	0.04 	-0.07 	0 	
0 	0 	0 	0 	0 	0 	15.4651 	
0 	0 	0 	0 	0.35 	8.53017 	3.62598 	4.37444e-05 	
0.00379119 	0.000947796 	0 	0.0 	 0.0 	 0.0 	 0.0 	 0.0 	 0.0 	 
8.74889e-05 	0 	0.92 	0.04 	0.04 	-0.07 	0 	
0 	0 	0 	0 	0 	0 	-0 	
0 	0 	0 	0 	0.35 	17.0603 	3.62598 	8.74889e-05 	
0.00758237 	0.00189559 	0 	0.0 	 0.0 	 0.0 	 0.0 	 0.0 	 0.0 	 
0.000174978 	0 	0.92 	0.04 	0.04 	-0.07 	0 	
0 	0 	0 	0 	0 	0 	-0 	
0 	0 	0 	0 	0.35 	17.0603 	3.62598 	8.74889e-05 	
0.00758237 	0.00189559 	0 	0.0 	 0.0 	 0.0 	 0.0 	 0.0 	 0.0 	 
0.000262467 	0 	0.92 	0.04 	0.04 	-0.07 	0 	
0 	0 	0 	0 	0 	0 	-0 	
0 	0 	0 	0 	0.35 	17.0603 	3.62598 	8.74889e-05 	
0.00758237 	0.00189559 	0 	0.0 	 0.0 	 0.0 	 0.0 	 0.0 	 0.0 	 
0.000349956 	0 	0.92 	0.04 	0.04 	-0.07 	0 	
0 	0 	0 	0 	0 	0 	-0 	
0 	0 	0 	0 	0.35 	17.0603 	3.62598 	8.74889e-05 	
0.00758237 	0.00189559 	0 	0.0 	 0.0 	 0.0 	 0.0 	 0.0 	 0.0 	 
0.000437444 	0 	0.92 	0.04 	0.04 	-0.07 	0 	
0 	0 	0 	0 	0 	0 	-0 	
0 	0 	0 	0 	0.35 	17.0603 	3.62598 	8.74889e-05 	
0.00758237 	0.00189559 	0 	0.0 	 0.0 	 0.0 	 0.0 	 0.0 	 0.0 	 
0.000524933 	0 	0.92 	0.04 	0.04 	-0.07 	0 	
0 	0 	0 	0 	0 	0 	-0 	
0 	0 	0 	0 	0.35 	17.0603 	3.62598 	8.74889e-05 	
0.00758237 	0.00189559 	0 	0.0 	 0.0 	 0.0 	 0.0 	 0.0 	 0.0 	 
0.000612422 	0 	0.92 	0.04 	0.04 	-0.07 	0 	
0 	0 	0 	0 	0 	0 	-0 	
0 	0 	0 	0 	0.35 	17.0603 	3.62598 	8.74889e-05 	
0.00758237 	0.00189559 	0 	0.0 	 0.0 	 0.0 	 0.0 	 0.0 	 0.0 	 
0.000699911 	0 	0.92 	0.04 	0.04 	-0.07 	0 	
0 	0 	0 	0 	0 	0 	-0 	
0 	0 	0 	0 	0.35 	17.0603 	3.62598 	8.74889e-05 	
0.00758237 	0.00189559 	0 	0.0 	 0.0 	 0.0 	 0.0 	 0.0 	 0.0 	 
0.0007874 	0 	0.92 	0.04 	0.04 	-0.07 	0 	
0 	0 	0 	0 	0 	15.4651 	0 	
0 	0 	0 	0 	0.35 	8.53017 	3.62598 	4.37444e-05 	
0.00379119 	0.000947796 	0 	0.0 	 0.0 	 0.0 	 0.0 	 0.0 	 0.0 	 
ZONE T = "t = 0 [s]" I = 10 SOLUTIONTIME = 0.0000000000000E+00
0 	0 	0.92 	0.04 	0.04 	-0.07 	0 	
0 	0 	0 	0 	0 	0 	15.4651 	
0 	0 	0 	0 	0.35 	8.53017 	3.62598 	4.37444e-05 	
0.00379119 	0.000947796 	0 	0.0 	 0.0 	 0.0 	 0.0 	 0.0 	 0.0 	 
8.74889e-05 	0 	0.92 	0.04 	0.04 	-0.07 	0 	
0 	0 	0 	0 	0 	0 	-0 	
0 	0 	0 	0 	0.35 	17.0603 	3.62598 	8.74889e-05 	
0.00758237 	0.00189559 	0 	0.0 	 0.0 	 0.0 	 0.0 	 0.0 	 0.0 	 
0.000174978 	0 	0.92 	0.04 	0.04 	-0.07 	0 	
0 	0 	0 	0 	0 	0 	-0 	
0 	0 	0 	0 	0.35 	17.0603 	3.62598 	8.74889e-05 	
0.00758237 	0.00189559 	0 	0.0 	 0.0 	 0.0 	 0.0 	 0.0 	 0.0 	 
0.000262467 	0 	0.92 	0.04 	0.04 	-0.07 	0 	
0 	0 	0 	0 	0 	0 	-0 	
0 	0 	0 	0 	0.35 	17.0603 	3.62598 	8.74889e-05 	
0.00758237 	0.00189559 	0 	0.0 	 0.0 	 0.0 	 0.0 	 0.0 	 0.0 	 
0.000349956 	0 	0.92 	0.04 	0.04 	-0.07 	0 	
0 	0 	0 	0 	0 	0 	-0 	
0 	0 	0 	0 	0.35 	17.0603 	3.62598 	8.74889e-05 	
0.00758237 	0.00189559 	0 	0.0 	 0.0 	 0.0 	 0.0 	 0.0 	 0.0 	 
0.000437444 	0 	0.92 	0.04 	0.04 	-0.07 	0 	
0 	0 	0 	0 	0 	0 	-0 	
0 	0 	0 	0 	0.35 	17.0603 	3.62598 	8.74889e-05 	
0.00758237 	0.00189559 	0 	0.0 	 0.0 	 0.0 	 0.0 	 0.0 	 0.0 	 
0.000524933 	0 	0.92 	0.04 	0.04 	-0.07 	0 	
0 	0 	0 	0 	0 	0 	-0 	
0 	0 	0 	0 	0.35 	17.0603 	3.62598 	8.74889e-05 	
0.00758237 	0.00189559 	0 	0.0 	 0.0 	 0.0 	 0.0 	 0.0 	 0.0 	 
0.000612422 	0 	0.92 	0.04 	0.04 	-0.07 	0 	
0 	0 	0 	0 	0 	0 	-0 	
0 	0 	0 	0 	0.35 	17.0603 	3.62598 	8.74889e-05 	
0.00758237 	0.00189559 	0 	0.0 	 0.0 	 0.0 	 0.0 	 0.0 	 0.0 	 
0.000699911 	0 	0.92 	0.04 	0.04 	-0.07 	0 	
0 	0 	0 	0 	0 	0 	-0 	
0 	0 	0 	0 	0.35 	17.0603 	3.62598 	8.74889e-05 	
0.00758237 	0.00189559 	0 	0.0 	 0.0 	 0.0 	 0.0 	 0.0 	 0.0 	 
0.0007874 	0 	0.92 	0.04 	0.04 	-0.07 	0 	
0 	0 	0 	0 	0 	15.4651 	0 	
0 	0 	0 	0 	0.35 	8.53017 	3.62598 	4.37444e-05 	
0.00379119 	0.000947796 	0 	0.0 	 0.0 	 0.0 	 0.0 	 0.0 	 0.0 	 
ZONE T = "t = 1e-08 [s]" I = 10 SOLUTIONTIME = 1.0000000000000E-08
0 	1.63301e-09 	0.92 	0.04 	0.04 	0.0113517 	0 	
0.07 	-0.0409067 	0.110907 	30.9302 	-0 	1.17583 	41.1613 	
0 	91448.4 	916.789 	1145.99 	0.35 	8.53017 	0.276878 	4.37444e-05 	
0.00379119 	0.000947796 	5.90368e-06 	590.368 	0.000595634 	0.00245913 	590.365 	590.365 	0 	
8.74889e-05 	4.89903e-09 	0.92 	0.04 	0.04 	0.0113517 	-5.3813e-09 	
0.07 	-0.0409067 	0.110907 	61.8605 	-0 	4.70333 	37.6288 	
0 	182897 	1833.58 	2291.97 	0.35 	17.0603 	0.276878 	8.74889e-05 	
0.00758237 	0.00189559 	5.89572e-06 	589.572 	0.00297818 	0.00218685 	589.567 	589.567 	0 	
0.000174978 	8.16507e-09 	0.92 	0.04 	0.04 	0.0113516 	-1.01295e-08 	
0.07 	-0.0409067 	0.110907 	61.8605 	-0 	9.40668 	32.9254 	
0 	182897 	1833.58 	2291.97 	0.35 	17.0603 	0.27688 	8.74889e-05 	
0.00758237 	0.00189559 	5.90434e-06 	590.434 	0.0101258 	0.00167633 	590.422 	590.422 	0 	
0.000262467 	1.14311e-08 	0.92 	0.04 	0.04 	0.0113515 	-1.42447e-08 	
0.07 	-0.0409067 	0.110907 	61.8605 	-0 	14.1101 	28.222 	
0 	182897 	1833.58 	2291.97 	0.35 	17.0603 	0.276882 	8.74889e-05 	
0.00758237 	0.00189559 	5.90522e-06 	590.522 	0.0220387 	0.00123387 	590.499 	590.499 	0 	
0.000349956 	1.46973e-08 	0.92 	0.04 	0.04 	0.0113513 	-1.77268e-08 	
0.07 	-0.0409067 	0.110907 	61.8605 	-0 	18.8135 	23.5186 	
0 	182897 	1833.58 	2291.97 	0.35 	17.0603 	0.276886 	8.74889e-05 	
0.00758237 	0.00189559 	7.47e-06 	747 	0.038717 	0.00085947 	746.96 	746.96 	0 	
0.000437444 	1.79634e-08 	0.92 	0.04 	0.04 	0.0113511 	-2.05758e-08 	
0.07 	-0.0409067 	0.110907 	61.8605 	-0 	23.517 	18.8151 	
0 	182897 	1833.58 	2291.97 	0.35 	17.0603 	0.276891 	8.74889e-05 	
0.00758237 	0.00189559 	5.51522e-06 	551.522 	0.0601609 	0.000553137 	551.461 	551.461 	0 	
0.000524933 	2.12297e-08 	0.92 	0.04 	0.04 	0.0113509 	-2.27918e-08 	
0.07 	-0.0409067 	0.110907 	61.8605 	-0 	28.2206 	14.1115 	
0 	182897 	1833.58 	2291.97 	0.35 	17.0603 	0.276897 	8.74889e-05 	
0.00758237 	0.00189559 	5.51723e-06 	551.723 	0.0863709 	0.00031487 	551.636 	551.636 	0 	
0.000612422 	2.4496e-08 	0.92 	0.04 	0.04 	0.0113506 	-2.43746e-08 	
0.07 	-0.0409067 	0.110907 	61.8605 	-0 	32.9243 	9.40781 	
0 	182897 	1833.58 	2291.97 	0.35 	17.0603 	0.276903 	8.74889e-05 	
0.00758237 	0.00189559 	5.75859e-06 	575.859 	0.117347 	0.000144674 	575.742 	575.742 	0 	
0.000699911 	2.77624e-08 	0.92 	0.04 	0.04 	0.0113503 	-2.53243e-08 	
0.07 	-0.0409067 	0.110907 	61.8605 	-0 	37.6281 	4.70398 	
0 	182897 	1833.58 	2291.97 	0.35 	17.0603 	0.276911 	8.74889e-05 	
0.00758237 	0.00189559 	5.76135e-06 	576.135 	0.15309 	4.25524e-05 	575.982 	575.982 	0 	
0.0007874 	2.93957e-08 	0.92 	0.04 	0.04 	0.0113499 	-2.56409e-08 	
0.07 	-0.0409067 	0.110907 	30.9302 	-0 	41.1612 	1.17601 	
0 	91448.4 	916.789 	1145.99 	0.35 	8.53017 	0.27692 	4.37444e-05 	
0.00379119 	0.000947796 	5.76427e-06 	576.427 	0.172154 	8.51081e-06 	576.255 	576.255 	0 	
ZONE T = "t = 2e-08 [s]" I = 10 SOLUTIONTIME = 2.0000000000000E-08
0 	1.15931e-09 	0.92 	0.04 	0.04 	0.0291632 	0 	
-0.0113517 	-0.0409067 	0.029555 	2.36182 	1.21866e-08 	0.83475 	29.2174 	
5.91942e-11 	91448.4 	916.789 	1145.99 	0.35 	8.53017 	0.195735 	4.37444e-05 	
0.00379119 	0.000947796 	1.11729e-05 	526.926 	0.000895828 	0.00369847 	526.924 	526.924 	0 	
8.74889e-05 	3.47794e-09 	0.92 	0.04 	0.04 	0.0291632 	-3.82025e-09 	
-0.0113517 	-0.0409067 	0.0295551 	4.72364 	3.65599e-08 	3.339 	26.7131 	
1.18389e-10 	182897 	1833.58 	2291.97 	0.35 	17.0603 	0.195735 	8.74889e-05 	
0.00758237 	0.00189559 	9.29369e-06 	339.797 	0.00447915 	0.00328897 	339.795 	339.795 	0 	
0.000174978 	5.79657e-09 	0.92 	0.04 	0.04 	0.0291631 	-7.19107e-09 	
-0.0113516 	-0.0409067 	0.0295551 	4.72366 	6.09334e-08 	6.67801 	23.3741 	
1.18389e-10 	182897 	1833.58 	2291.97 	0.35 	17.0603 	0.195736 	8.74889e-05 	
0.00758237 	0.00189559 	1.11739e-05 	526.959 	0.0152292 	0.00252115 	526.953 	526.953 	0 	
0.000262467 	8.11522e-09 	0.92 	0.04 	0.04 	0.0291631 	-1.01125e-08 	
-0.0113515 	-0.0409067 	0.0295552 	4.72371 	8.53071e-08 	10.017 	20.035 	
1.1839e-10 	182897 	1833.58 	2291.97 	0.35 	17.0603 	0.195737 	8.74889e-05 	
0.00758237 	0.00189559 	1.11753e-05 	527.003 	0.033146 	0.0018557 	526.992 	526.992 	0 	
0.000349956 	1.04339e-08 	0.92 	0.04 	0.04 	0.029163 	-1.25844e-08 	
-0.0113513 	-0.0409067 	0.0295554 	4.72377 	1.09681e-07 	13.3561 	16.696 	
1.18392e-10 	182897 	1833.58 	2291.97 	0.35 	17.0603 	0.195739 	8.74889e-05 	
0.00758237 	0.00189559 	1.26759e-05 	520.586 	0.0582299 	0.00129261 	520.566 	520.566 	0 	
0.000437444 	1.27526e-08 	0.92 	0.04 	0.04 	0.0291628 	-1.4607e-08 	
-0.0113511 	-0.0409067 	0.0295556 	4.72385 	1.34055e-07 	16.6952 	13.3569 	
1.18394e-10 	182897 	1833.58 	2291.97 	0.35 	17.0603 	0.195741 	8.74889e-05 	
0.00758237 	0.00189559 	1.04586e-05 	494.339 	0.0904812 	0.000831897 	494.309 	494.309 	0 	
0.000524933 	1.50713e-08 	0.92 	0.04 	0.04 	0.0291626 	-1.61801e-08 	
-0.0113509 	-0.0409067 	0.0295558 	4.72395 	1.5843e-07 	20.0343 	10.0178 	
1.18396e-10 	182897 	1833.58 	2291.97 	0.35 	17.0603 	0.195744 	8.74889e-05 	
0.00758237 	0.00189559 	1.04616e-05 	494.44 	0.1299 	0.000473552 	494.397 	494.397 	0 	
0.000612422 	1.73901e-08 	0.92 	0.04 	0.04 	0.0291624 	-1.73037e-08 	
-0.0113506 	-0.0409067 	0.0295561 	4.72407 	1.82806e-07 	23.3735 	6.67858 	
1.18399e-10 	182897 	1833.58 	2291.97 	0.35 	17.0603 	0.195748 	8.74889e-05 	
0.00758237 	0.00189559 	1.08217e-05 	506.307 	0.176488 	0.000217583 	506.247 	506.247 	0 	
0.000699911 	1.97089e-08 	0.92 	0.04 	0.04 	0.0291622 	-1.79779e-08 	
-0.0113503 	-0.0409067 	0.0295564 	4.7242 	2.07182e-07 	26.7128 	3.33933 	
1.18403e-10 	182897 	1833.58 	2291.97 	0.35 	17.0603 	0.195752 	8.74889e-05 	
0.00758237 	0.00189559 	1.08258e-05 	506.445 	0.230245 	6.39967e-05 	506.368 	506.368 	0 	
0.0007874 	2.08683e-08 	0.92 	0.04 	0.04 	0.0291619 	-1.82027e-08 	
-0.0113499 	-0.0409067 	0.0295568 	2.36218 	2.07182e-07 	29.2173 	0.834841 	
5.92033e-11 	91448.4 	916.789 	1145.99 	0.35 	8.53017 	0.195756 	4.37444e-05 	
0.00379119 	0.000947796 	1.08302e-05 	506.592 	0.258915 	1.27998e-05 	506.505 	506.505 	0 	
ZONE T = "t = 3e-08 [s]" I = 10 SOLUTIONTIME = 3.0000000000000E-08
0 	1.15931e-09 	0.92 	0.04 	0.04 	0.0291633 	0 	
-0.0291632 	-0.0409067 	0.0117435 	1.66965 	8.65157e-09 	0.834748 	29.2173 	
1.01041e-10 	91448.4 	916.789 	1145.99 	0.35 	8.53017 	0.195733 	4.37444e-05 	
0.00379119 	0.000947796 	1.67333e-05 	556.035 	0.00119602 	0.0049378 	556.034 	556.034 	0 	
8.74889e-05 	3.47792e-09 	0.92 	0.04 	0.04 	0.0291633 	-3.82024e-09 	
-0.0291632 	-0.0409067 	0.0117435 	3.33931 	2.59547e-08 	3.33899 	26.713 	
2.02082e-10 	182897 	1833.58 	2291.97 	0.35 	17.0603 	0.195733 	8.74889e-05 	
0.00758237 	0.00189559 	1.36146e-05 	432.095 	0.00598011 	0.00439108 	432.093 	432.093 	0 	
0.000174978 	5.79655e-09 	0.92 	0.04 	0.04 	0.0291632 	-7.19105e-09 	
-0.0291631 	-0.0409067 	0.0117436 	3.33932 	4.3258e-08 	6.67799 	23.374 	
2.02083e-10 	182897 	1833.58 	2291.97 	0.35 	17.0603 	0.195734 	8.74889e-05 	
0.00758237 	0.00189559 	1.67346e-05 	556.068 	0.0203324 	0.00336597 	556.062 	556.062 	0 	
0.000262467 	8.11519e-09 	0.92 	0.04 	0.04 	0.0291632 	-1.01124e-08 	
-0.0291631 	-0.0409067 	0.0117436 	3.33934 	6.05613e-08 	10.017 	20.035 	
2.02084e-10 	182897 	1833.58 	2291.97 	0.35 	17.0603 	0.195735 	8.74889e-05 	
0.00758237 	0.00189559 	1.67364e-05 	556.113 	0.0442532 	0.00247753 	556.101 	556.101 	0 	
0.000349956 	1.04339e-08 	0.92 	0.04 	0.04 	0.0291631 	-1.25844e-08 	
-0.029163 	-0.0409067 	0.0117437 	3.33937 	7.78648e-08 	13.3561 	16.6959 	
2.02087e-10 	182897 	1833.58 	2291.97 	0.35 	17.0603 	0.195737 	8.74889e-05 	
0.00758237 	0.00189559 	1.93961e-05 	672.022 	0.0777427 	0.00172576 	672.002 	672.002 	0 	
0.000437444 	1.27525e-08 	0.92 	0.04 	0.04 	0.0291629 	-1.46069e-08 	
-0.0291628 	-0.0409067 	0.0117439 	3.33941 	9.51685e-08 	16.6951 	13.3569 	
2.0209e-10 	182897 	1833.58 	2291.97 	0.35 	17.0603 	0.19574 	8.74889e-05 	
0.00758237 	0.00189559 	1.66085e-05 	614.991 	0.120801 	0.00111066 	614.961 	614.961 	0 	
0.000524933 	1.50713e-08 	0.92 	0.04 	0.04 	0.0291627 	-1.618e-08 	
-0.0291627 	-0.0409067 	0.0117441 	3.33946 	1.12473e-07 	20.0343 	10.0177 	
2.02093e-10 	182897 	1833.58 	2291.97 	0.35 	17.0603 	0.195743 	8.74889e-05 	
0.00758237 	0.00189559 	1.66126e-05 	615.092 	0.17343 	0.000632233 	615.049 	615.049 	0 	
0.000612422 	1.739e-08 	0.92 	0.04 	0.04 	0.0291625 	-1.73037e-08 	
-0.0291624 	-0.0409067 	0.0117443 	3.33952 	1.29777e-07 	23.3734 	6.67856 	
2.02098e-10 	182897 	1833.58 	2291.97 	0.35 	17.0603 	0.195746 	8.74889e-05 	
0.00758237 	0.00189559 	1.71074e-05 	628.579 	0.235628 	0.000290492 	628.52 	628.52 	0 	
0.000699911 	1.97089e-08 	0.92 	0.04 	0.04 	0.0291623 	-1.79779e-08 	
-0.0291622 	-0.0409067 	0.0117445 	3.33959 	1.47082e-07 	26.7127 	3.33931 	
2.02103e-10 	182897 	1833.58 	2291.97 	0.35 	17.0603 	0.19575 	8.74889e-05 	
0.00758237 	0.00189559 	1.7113e-05 	628.717 	0.307398 	8.54409e-05 	628.64 	628.64 	0 	
0.0007874 	2.08683e-08 	0.92 	0.04 	0.04 	0.029162 	-1.82026e-08 	
-0.0291619 	-0.0409067 	0.0117448 	1.66983 	1.47082e-07 	29.2172 	0.834838 	
1.01054e-10 	91448.4 	916.789 	1145.99 	0.35 	8.53017 	0.195754 	4.37444e-05 	
0.00379119 	0.000947796 	1.71188e-05 	628.864 	0.345676 	1.70887e-05 	628.777 	628.777 	0 	
ZONE T = "t = 4e-08 [s]" I = 10 SOLUTIONTIME = 4.0000000000000E-08
0 	1.15941e-09 	0.92 	0.04 	0.04 	0.0291633 	0 	
-0.0291633 	-0.0409067 	0.0117434 	1.66964 	8.65155e-09 	0.834822 	29.2199 	
1.42887e-10 	91448.4 	916.789 	1145.99 	0.35 	8.53017 	0.195734 	4.37444e-05 	
0.00379119 	0.000947796 	2.2059e-05 	532.569 	0.00149627 	0.00617736 	532.567 	532.567 	0 	
8.74889e-05 	3.47824e-09 	0.92 	0.04 	0.04 	0.0291632 	-3.82058e-09 	
-0.0291633 	-0.0409067 	0.0117434 	3.33928 	2.59547e-08 	3.33929 	26.7154 	
2.85774e-10 	182897 	1833.58 	2291.97 	0.35 	17.0603 	0.195734 	8.74889e-05 	
0.00758237 	0.00189559 	1.8746e-05 	513.133 	0.00748134 	0.00549339 	513.131 	513.131 	0 	
0.000174978 	5.79707e-09 	0.92 	0.04 	0.04 	0.0291632 	-7.19169e-09 	
-0.0291633 	-0.0409067 	0.0117435 	3.33929 	4.32578e-08 	6.67859 	23.3761 	
2.85775e-10 	182897 	1833.58 	2291.97 	0.35 	17.0603 	0.195735 	8.74889e-05 	
0.00758237 	0.00189559 	2.20606e-05 	532.602 	0.0254366 	0.00421094 	532.596 	532.596 	0 	
0.000262467 	8.11592e-09 	0.92 	0.04 	0.04 	0.0291631 	-1.01133e-08 	
-0.0291632 	-0.0409067 	0.0117435 	3.33931 	6.05611e-08 	10.0179 	20.0368 	
2.85777e-10 	182897 	1833.58 	2291.97 	0.35 	17.0603 	0.195736 	8.74889e-05 	
0.00758237 	0.00189559 	2.20628e-05 	532.646 	0.0553624 	0.00309947 	532.634 	532.634 	0 	
0.000349956 	1.04348e-08 	0.92 	0.04 	0.04 	0.029163 	-1.25855e-08 	
-0.0291631 	-0.0409067 	0.0117436 	3.33934 	7.78646e-08 	13.3572 	16.6974 	
2.8578e-10 	182897 	1833.58 	2291.97 	0.35 	17.0603 	0.195738 	8.74889e-05 	
0.00758237 	0.00189559 	2.62624e-05 	686.631 	0.0972589 	0.00215897 	686.611 	686.611 	0 	
0.000437444 	1.27537e-08 	0.92 	0.04 	0.04 	0.0291629 	-1.46082e-08 	
-0.0291629 	-0.0409067 	0.0117438 	3.33938 	9.51683e-08 	16.6966 	13.3581 	
2.85785e-10 	182897 	1833.58 	2291.97 	0.35 	17.0603 	0.19574 	8.74889e-05 	
0.00758237 	0.00189559 	2.22726e-05 	566.411 	0.151127 	0.00138946 	566.381 	566.381 	0 	
0.000524933 	1.50726e-08 	0.92 	0.04 	0.04 	0.0291627 	-1.61815e-08 	
-0.0291628 	-0.0409067 	0.011744 	3.33943 	1.12472e-07 	20.036 	10.0186 	
2.85789e-10 	182897 	1833.58 	2291.97 	0.35 	17.0603 	0.195743 	8.74889e-05 	
0.00758237 	0.00189559 	2.22777e-05 	566.512 	0.216967 	0.000790942 	566.469 	566.469 	0 	
0.000612422 	1.73916e-08 	0.92 	0.04 	0.04 	0.0291625 	-1.73052e-08 	
-0.0291626 	-0.0409067 	0.0117442 	3.33949 	1.29776e-07 	23.3755 	6.67915 	
2.85795e-10 	182897 	1833.58 	2291.97 	0.35 	17.0603 	0.195747 	8.74889e-05 	
0.00758237 	0.00189559 	2.28426e-05 	573.518 	0.294779 	0.000363414 	573.459 	573.459 	0 	
0.000699911 	1.97106e-08 	0.92 	0.04 	0.04 	0.0291623 	-1.79795e-08 	
-0.0291623 	-0.0409067 	0.0117444 	3.33956 	1.47081e-07 	26.7151 	3.33961 	
2.85802e-10 	182897 	1833.58 	2291.97 	0.35 	17.0603 	0.195751 	8.74889e-05 	
0.00758237 	0.00189559 	2.28495e-05 	573.657 	0.384566 	0.000106889 	573.579 	573.579 	0 	
0.0007874 	2.08701e-08 	0.92 	0.04 	0.04 	0.029162 	-1.82042e-08 	
-0.0291621 	-0.0409067 	0.0117447 	1.66982 	1.47081e-07 	29.2198 	0.834913 	
1.42905e-10 	91448.4 	916.789 	1145.99 	0.35 	8.53017 	0.195755 	4.37444e-05 	
0.00379119 	0.000947796 	2.28569e-05 	573.803 	0.432453 	2.13785e-05 	573.716 	573.716 	0 	
ZONE T = "t = 5.5e-08 [s]" I = 10 SOLUTIONTIME = 5.5000000000000E-08
0 	1.15941e-09 	0.92 	0.04 	0.04 	0.0291633 	0 	
-0.0291633 	-0.0409067 	0.0117435 	1.66964 	8.65232e-09 	0.834822 	29.2199 	
1.84733e-10 	91448.4 	916.789 	1145.99 	0.35 	8.53017 	0.195734 	4.37444e-05 	
0.00379119 	0.000947796 	2.88101e-05 	450.072 	0.00129776 	0.00535779 	450.071 	450.071 	0 	
8.74889e-05 	3.47824e-09 	0.92 	0.04 	0.04 	0.0291632 	-3.82058e-09 	
-0.0291632 	-0.0409067 	0.0117435 	3.33929 	2.5957e-08 	3.33929 	26.7154 	
3.69467e-10 	182897 	1833.58 	2291.97 	0.35 	17.0603 	0.195734 	8.74889e-05 	
0.00758237 	0.00189559 	2.57402e-05 	466.282 	0.00648879 	0.00476457 	466.279 	466.279 	0 	
0.000174978 	5.79707e-09 	0.92 	0.04 	0.04 	0.0291632 	-7.19169e-09 	
-0.0291632 	-0.0409067 	0.0117435 	3.3393 	4.32617e-08 	6.67859 	23.3761 	
3.69468e-10 	182897 	1833.58 	2291.97 	0.35 	17.0603 	0.195735 	8.74889e-05 	
0.00758237 	0.00189559 	2.88122e-05 	450.105 	0.022062 	0.00365226 	450.099 	450.099 	0 	
0.000262467 	8.11592e-09 	0.92 	0.04 	0.04 	0.0291631 	-1.01133e-08 	
-0.0291631 	-0.0409067 	0.0117436 	3.33933 	6.05665e-08 	10.0179 	20.0368 	
3.69471e-10 	182897 	1833.58 	2291.97 	0.35 	17.0603 	0.195736 	8.74889e-05 	
0.00758237 	0.00189559 	2.88151e-05 	450.15 	0.0480174 	0.00268825 	450.138 	450.138 	0 	
0.000349956 	1.04348e-08 	0.92 	0.04 	0.04 	0.029163 	-1.25855e-08 	
-0.029163 	-0.0409067 	0.0117437 	3.33936 	7.78715e-08 	13.3572 	16.6974 	
3.69475e-10 	182897 	1833.58 	2291.97 	0.35 	17.0603 	0.195738 	8.74889e-05 	
0.00758237 	0.00189559 	3.09903e-05 	315.195 	0.0843555 	0.00187253 	315.175 	315.175 	0 	
0.000437444 	1.27537e-08 	0.92 	0.04 	0.04 	0.0291629 	-1.46082e-08 	
-0.0291629 	-0.0409067 	0.0117438 	3.3394 	9.51768e-08 	16.6966 	13.3581 	
3.6948e-10 	182897 	1833.58 	2291.97 	0.35 	17.0603 	0.19574 	8.74889e-05 	
0.00758237 	0.00189559 	2.81116e-05 	389.267 	0.131077 	0.00120512 	389.237 	389.237 	0 	
0.000524933 	1.50726e-08 	0.92 	0.04 	0.04 	0.0291627 	-1.61815e-08 	
-0.0291627 	-0.0409067 	0.011744 	3.33945 	1.12482e-07 	20.036 	10.0186 	
3.69486e-10 	182897 	1833.58 	2291.97 	0.35 	17.0603 	0.195743 	8.74889e-05 	
0.00758237 	0.00189559 	2.81182e-05 	389.368 	0.188181 	0.000686004 	389.324 	389.324 	0 	
0.000612422 	1.73916e-08 	0.92 	0.04 	0.04 	0.0291625 	-1.73052e-08 	
-0.0291625 	-0.0409067 	0.0117442 	3.33951 	1.29788e-07 	23.3755 	6.67915 	
3.69493e-10 	182897 	1833.58 	2291.97 	0.35 	17.0603 	0.195747 	8.74889e-05 	
0.00758237 	0.00189559 	3.03457e-05 	500.203 	0.255671 	0.000315198 	500.144 	500.144 	0 	
0.000699911 	1.97106e-08 	0.92 	0.04 	0.04 	0.0291623 	-1.79795e-08 	
-0.0291623 	-0.0409067 	0.0117444 	3.33957 	1.47094e-07 	26.7151 	3.33961 	
3.69502e-10 	182897 	1833.58 	2291.97 	0.35 	17.0603 	0.195751 	8.74889e-05 	
0.00758237 	0.00189559 	3.03547e-05 	500.342 	0.333545 	9.27073e-05 	500.264 	500.264 	0 	
0.0007874 	2.08701e-08 	0.92 	0.04 	0.04 	0.029162 	-1.82042e-08 	
-0.029162 	-0.0409067 	0.0117447 	1.66983 	1.47094e-07 	29.2198 	0.834913 	
1.84756e-10 	91448.4 	916.789 	1145.99 	0.35 	8.53017 	0.195755 	4.37444e-05 	
0.00379119 	0.000947796 	3.03642e-05 	500.488 	0.375078 	1.8542e-05 	500.401 	500.401 	0 	
ZONE T = "t = 7.75e-08 [s]" I = 10 SOLUTIONTIME = 7.7500000000000E-08
0 	1.15941e-09 	0.92 	0.04 	0.04 	0.0291633 	0 	
-0.0291633 	-0.0409067 	0.0117435 	1.66964 	8.65232e-09 	0.834822 	29.2199 	
2.47502e-10 	91448.4 	916.789 	1145.99 	0.35 	8.53017 	0.195734 	4.37444e-05 	
0.00379119 	0.000947796 	3.91878e-05 	461.234 	0.00116542 	0.00481142 	461.232 	461.232 	0 	
8.74889e-05 	3.47824e-09 	0.92 	0.04 	0.04 	0.0291632 	-3.82058e-09 	
-0.0291632 	-0.0409067 	0.0117435 	3.33929 	2.5957e-08 	3.33929 	26.7154 	
4.95006e-10 	182897 	1833.58 	2291.97 	0.35 	17.0603 	0.195734 	8.74889e-05 	
0.00758237 	0.00189559 	3.77951e-05 	535.771 	0.00582709 	0.00427868 	535.769 	535.769 	0 	
0.000174978 	5.79707e-09 	0.92 	0.04 	0.04 	0.0291632 	-7.19169e-09 	
-0.0291632 	-0.0409067 	0.0117435 	3.3393 	4.32617e-08 	6.67859 	23.3761 	
4.95008e-10 	182897 	1833.58 	2291.97 	0.35 	17.0603 	0.195735 	8.74889e-05 	
0.00758237 	0.00189559 	3.91907e-05 	461.267 	0.0198122 	0.00327981 	461.261 	461.261 	0 	
0.000262467 	8.11592e-09 	0.92 	0.04 	0.04 	0.0291631 	-1.01133e-08 	
-0.0291631 	-0.0409067 	0.0117436 	3.33933 	6.05665e-08 	10.0179 	20.0368 	
4.95011e-10 	182897 	1833.58 	2291.97 	0.35 	17.0603 	0.195736 	8.74889e-05 	
0.00758237 	0.00189559 	3.91946e-05 	461.311 	0.0431208 	0.0024141 	461.3 	461.3 	0 	
0.000349956 	1.04348e-08 	0.92 	0.04 	0.04 	0.029163 	-1.25855e-08 	
-0.029163 	-0.0409067 	0.0117437 	3.33936 	7.78715e-08 	13.3572 	16.6974 	
4.95016e-10 	182897 	1833.58 	2291.97 	0.35 	17.0603 	0.195738 	8.74889e-05 	
0.00758237 	0.00189559 	4.3437e-05 	553.187 	0.0757533 	0.00168157 	553.167 	553.167 	0 	
0.000437444 	1.27537e-08 	0.92 	0.04 	0.04 	0.0291629 	-1.46082e-08 	
-0.0291629 	-0.0409067 	0.0117438 	3.3394 	9.51768e-08 	16.6966 	13.3581 	
4.95023e-10 	182897 	1833.58 	2291.97 	0.35 	17.0603 	0.19574 	8.74889e-05 	
0.00758237 	0.00189559 	4.09896e-05 	572.352 	0.11771 	0.00108222 	572.322 	572.322 	0 	
0.000524933 	1.50726e-08 	0.92 	0.04 	0.04 	0.0291627 	-1.61815e-08 	
-0.0291627 	-0.0409067 	0.011744 	3.33945 	1.12482e-07 	20.036 	10.0186 	
4.95031e-10 	182897 	1833.58 	2291.97 	0.35 	17.0603 	0.195743 	8.74889e-05 	
0.00758237 	0.00189559 	4.09984e-05 	572.453 	0.168991 	0.000616045 	572.409 	572.409 	0 	
0.000612422 	1.73916e-08 	0.92 	0.04 	0.04 	0.0291625 	-1.73052e-08 	
-0.0291625 	-0.0409067 	0.0117442 	3.33951 	1.29788e-07 	23.3755 	6.67915 	
4.9504e-10 	182897 	1833.58 	2291.97 	0.35 	17.0603 	0.195747 	8.74889e-05 	
0.00758237 	0.00189559 	4.02474e-05 	440.075 	0.229598 	0.000283054 	440.016 	440.016 	0 	
0.000699911 	1.97106e-08 	0.92 	0.04 	0.04 	0.0291623 	-1.79795e-08 	
-0.0291623 	-0.0409067 	0.0117444 	3.33957 	1.47095e-07 	26.7151 	3.33961 	
4.95052e-10 	182897 	1833.58 	2291.97 	0.35 	17.0603 	0.195751 	8.74889e-05 	
0.00758237 	0.00189559 	4.02595e-05 	440.213 	0.299531 	8.32528e-05 	440.136 	440.136 	0 	
0.0007874 	2.08701e-08 	0.92 	0.04 	0.04 	0.029162 	-1.82042e-08 	
-0.029162 	-0.0409067 	0.0117447 	1.66983 	1.47095e-07 	29.2198 	0.834913 	
2.47532e-10 	91448.4 	916.789 	1145.99 	0.35 	8.53017 	0.195755 	4.37444e-05 	
0.00379119 	0.000947796 	4.32535e-05 	572.858 	0.336829 	1.66511e-05 	572.771 	572.771 	0 	
ZONE T = "t = 1.1125e-07 [s]" I = 10 SOLUTIONTIME = 1.1125000000000E-07
0 	1.15941e-09 	0.92 	0.04 	0.04 	0.0291633 	0 	
-0.0291633 	-0.0409067 	0.0117435 	1.66964 	8.65232e-09 	0.834822 	29.2199 	
3.41657e-10 	91448.4 	916.789 	1145.99 	0.35 	8.53017 	0.195734 	4.37444e-05 	
0.00379119 	0.000947796 	5.01773e-05 	325.615 	0.00107719 	0.00444716 	325.614 	325.614 	0 	
8.74889e-05 	3.47824e-09 	0.92 	0.04 	0.04 	0.0291632 	-3.82058e-09 	
-0.0291632 	-0.0409067 	0.0117435 	3.33929 	2.5957e-08 	3.33929 	26.7154 	
6.83314e-10 	182897 	1833.58 	2291.97 	0.35 	17.0603 	0.195734 	8.74889e-05 	
0.00758237 	0.00189559 	5.27058e-05 	441.798 	0.00538596 	0.00395476 	441.796 	441.796 	0 	
0.000174978 	5.79707e-09 	0.92 	0.04 	0.04 	0.0291632 	-7.19169e-09 	
-0.0291632 	-0.0409067 	0.0117435 	3.3393 	4.32617e-08 	6.67859 	23.3761 	
6.83317e-10 	182897 	1833.58 	2291.97 	0.35 	17.0603 	0.195735 	8.74889e-05 	
0.00758237 	0.00189559 	5.01813e-05 	325.648 	0.0183123 	0.00303151 	325.642 	325.642 	0 	
0.000262467 	8.11592e-09 	0.92 	0.04 	0.04 	0.0291631 	-1.01133e-08 	
-0.0291631 	-0.0409067 	0.0117436 	3.33933 	6.05665e-08 	10.0179 	20.0368 	
6.83322e-10 	182897 	1833.58 	2291.97 	0.35 	17.0603 	0.195736 	8.74889e-05 	
0.00758237 	0.00189559 	5.01867e-05 	325.693 	0.0398564 	0.00223134 	325.681 	325.681 	0 	
0.000349956 	1.04348e-08 	0.92 	0.04 	0.04 	0.029163 	-1.25855e-08 	
-0.029163 	-0.0409067 	0.0117437 	3.33936 	7.78715e-08 	13.3572 	16.6974 	
6.83328e-10 	182897 	1833.58 	2291.97 	0.35 	17.0603 	0.195738 	8.74889e-05 	
0.00758237 	0.00189559 	5.83765e-05 	442.652 	0.0700184 	0.00155427 	442.632 	442.632 	0 	
0.000437444 	1.27537e-08 	0.92 	0.04 	0.04 	0.0291629 	-1.46082e-08 	
-0.0291629 	-0.0409067 	0.0117438 	3.3394 	9.51768e-08 	16.6966 	13.3581 	
6.83337e-10 	182897 	1833.58 	2291.97 	0.35 	17.0603 	0.19574 	8.74889e-05 	
0.00758237 	0.00189559 	5.83541e-05 	514.504 	0.108799 	0.00100029 	514.474 	514.474 	0 	
0.000524933 	1.50726e-08 	0.92 	0.04 	0.04 	0.0291627 	-1.61815e-08 	
-0.0291627 	-0.0409067 	0.011744 	3.33945 	1.12482e-07 	20.036 	10.0186 	
6.83348e-10 	182897 	1833.58 	2291.97 	0.35 	17.0603 	0.195743 	8.74889e-05 	
0.00758237 	0.00189559 	5.79451e-05 	502.124 	0.156198 	0.000569406 	502.08 	502.08 	0 	
0.000612422 	1.73916e-08 	0.92 	0.04 	0.04 	0.0291625 	-1.73052e-08 	
-0.0291625 	-0.0409067 	0.0117442 	3.33951 	1.29788e-07 	23.3755 	6.67915 	
6.83361e-10 	182897 	1833.58 	2291.97 	0.35 	17.0603 	0.195747 	8.74889e-05 	
0.00758237 	0.00189559 	5.26209e-05 	366.625 	0.212216 	0.000261624 	366.566 	366.566 	0 	
0.000699911 	1.97106e-08 	0.92 	0.04 	0.04 	0.0291623 	-1.79795e-08 	
-0.0291623 	-0.0409067 	0.0117444 	3.33957 	1.47095e-07 	26.7151 	3.33961 	
6.83376e-10 	182897 	1833.58 	2291.97 	0.35 	17.0603 	0.195751 	8.74889e-05 	
0.00758237 	0.00189559 	5.26377e-05 	366.763 	0.276855 	7.69499e-05 	366.686 	366.686 	0 	
0.0007874 	2.08701e-08 	0.92 	0.04 	0.04 	0.029162 	-1.82042e-08 	
-0.029162 	-0.0409067 	0.0117447 	1.66983 	1.47095e-07 	29.2198 	0.834913 	
3.41696e-10 	91448.4 	916.789 	1145.99 	0.35 	8.53017 	0.195755 	4.37444e-05 	
0.00379119 	0.000947796 	5.52235e-05 	354.668 	0.311329 	1.53904e-05 	354.581 	354.581 	0 	
ZONE T = "t = 1.61875e-07 [s]" I = 10 SOLUTIONTIME = 1.6187500000000E-07
0 	1.15941e-09 	0.92 	0.04 	0.04 	0.0291633 	0 	
-0.0291633 	-0.0409067 	0.0117435 	1.66964 	8.65232e-09 	0.834822 	29.2199 	
4.82888e-10 	91448.4 	916.789 	1145.99 	0.35 	8.53017 	0.195734 	4.37444e-05 	
0.00379119 	0.000947796 	7.69095e-05 	528.043 	0.00101837 	0.00420433 	528.042 	528.042 	0 	
8.74889e-05 	3.47824e-09 	0.92 	0.04 	0.04 	0.0291632 	-3.82058e-09 	
-0.0291632 	-0.0409067 	0.0117435 	3.33929 	2.5957e-08 	3.33929 	26.7154 	
9.65777e-10 	182897 	1833.58 	2291.97 	0.35 	17.0603 	0.195734 	8.74889e-05 	
0.00758237 	0.00189559 	7.54445e-05 	449.159 	0.00509187 	0.00373882 	449.157 	449.157 	0 	
0.000174978 	5.79707e-09 	0.92 	0.04 	0.04 	0.0291632 	-7.19169e-09 	
-0.0291632 	-0.0409067 	0.0117435 	3.3393 	4.32617e-08 	6.67859 	23.3761 	
9.65781e-10 	182897 	1833.58 	2291.97 	0.35 	17.0603 	0.195735 	8.74889e-05 	
0.00758237 	0.00189559 	7.66965e-05 	523.755 	0.0173124 	0.00286597 	523.749 	523.749 	0 	
0.000262467 	8.11592e-09 	0.92 	0.04 	0.04 	0.0291631 	-1.01133e-08 	
-0.0291631 	-0.0409067 	0.0117436 	3.33933 	6.05665e-08 	10.0179 	20.0368 	
9.65787e-10 	182897 	1833.58 	2291.97 	0.35 	17.0603 	0.195736 	8.74889e-05 	
0.00758237 	0.00189559 	7.67041e-05 	523.8 	0.0376801 	0.0021095 	523.788 	523.788 	0 	
0.000349956 	1.04348e-08 	0.92 	0.04 	0.04 	0.029163 	-1.25855e-08 	
-0.029163 	-0.0409067 	0.0117437 	3.33936 	7.78715e-08 	13.3572 	16.6974 	
9.65797e-10 	182897 	1833.58 	2291.97 	0.35 	17.0603 	0.195738 	8.74889e-05 	
0.00758237 	0.00189559 	8.24749e-05 	476.017 	0.0661952 	0.0014694 	475.997 	475.997 	0 	
0.000437444 	1.27537e-08 	0.92 	0.04 	0.04 	0.0291629 	-1.46082e-08 	
-0.0291629 	-0.0409067 	0.0117438 	3.3394 	9.51768e-08 	16.6966 	13.3581 	
9.65809e-10 	182897 	1833.58 	2291.97 	0.35 	17.0603 	0.19574 	8.74889e-05 	
0.00758237 	0.00189559 	8.26186e-05 	479.299 	0.102858 	0.000945668 	479.269 	479.269 	0 	
0.000524933 	1.50726e-08 	0.92 	0.04 	0.04 	0.0291627 	-1.61815e-08 	
-0.0291627 	-0.0409067 	0.011744 	3.33945 	1.12482e-07 	20.036 	10.0186 	
9.65824e-10 	182897 	1833.58 	2291.97 	0.35 	17.0603 	0.195743 	8.74889e-05 	
0.00758237 	0.00189559 	8.36324e-05 	507.404 	0.147669 	0.000538313 	507.361 	507.361 	0 	
0.000612422 	1.73916e-08 	0.92 	0.04 	0.04 	0.0291625 	-1.73052e-08 	
-0.0291625 	-0.0409067 	0.0117442 	3.33951 	1.29788e-07 	23.3755 	6.67915 	
9.65842e-10 	182897 	1833.58 	2291.97 	0.35 	17.0603 	0.195747 	8.74889e-05 	
0.00758237 	0.00189559 	7.57463e-05 	456.797 	0.200629 	0.000247338 	456.738 	456.738 	0 	
0.000699911 	1.97106e-08 	0.92 	0.04 	0.04 	0.0291623 	-1.79795e-08 	
-0.0291623 	-0.0409067 	0.0117444 	3.33957 	1.47095e-07 	26.7151 	3.33961 	
9.65863e-10 	182897 	1833.58 	2291.97 	0.35 	17.0603 	0.195751 	8.74889e-05 	
0.00758237 	0.00189559 	7.54136e-05 	449.895 	0.261737 	7.27479e-05 	449.817 	449.817 	0 	
0.0007874 	2.08701e-08 	0.92 	0.04 	0.04 	0.029162 	-1.82042e-08 	
-0.029162 	-0.0409067 	0.0117447 	1.66983 	1.47095e-07 	29.2198 	0.834913 	
4.82943e-10 	91448.4 	916.789 	1145.99 	0.35 	8.53017 	0.195755 	4.37444e-05 	
0.00379119 	0.000947796 	7.69375e-05 	428.918 	0.294329 	1.455e-05 	428.832 	428.832 	0 	
ZONE T = "t = 2.37813e-07 [s]" I = 10 SOLUTIONTIME = 2.3781250000000E-07