TITLE = "Solution on Domain BulkDomain1D_0"
VARIABLES = "x [m]"  
"Vel_axial(0)" 	"MF_sp(ECDMC)" 	"MF_sp(Li+)" 	"MF_sp(PF6-)" 	"Volt(Electroly)" 	"Volt(AnodeVolt)" 	
"Potential Drop Electrode-Electrolyte [V]" 	"Surf_0 Equilibrium Potential Drop Electrode-Electrolyte [V]" 	"Overpotential_0 [V]" 	"Current Source [A/m^2]" 	"Li+ flux [kmol/m^2/s]" 	"Electrolyte Current [A/m^2]" 	"Electrode Current [A/m^2]" 	
"Capacity discharged [A-s]" 	"Depth of discharge [-]" 	"Capacity remaining [A-s]" 	"Initial capacity [A-s]" 	"Porosity []" 	"Surface Area [m2/m2] (area per area)" 	"Specific current (per particle area) [A/m^2]" 	"Control volume thickness [m]" 	
"Moles Li_C6-bulk [mol/m^2] (per electrode area)" 	"Moles V_C6-bulk [mol/m^2] (per electrode area)" 	"qHeat_accum [J/m3]" 	"qHeat_step [W/m3]" 	"Joule_Lyte [W/m3]" 	"Joule_Solid [W/m3]" 	"electrodHeat [W/m3]" 	"OverpotHeat [W/m3]" 	"deltaSHeat [W/m3]" 	

ZONE T = "t = 0 [s]" I = 10 SOLUTIONTIME = 0.0000000000000E+00
0 	0 	0.92 	0.04 	0.04 	-0.07 	0 	
0 	0 	0 	0 	0 	0 	15.4651 	
0 	0 	0 	0 	0.35 	8.53017 	3.62598 	4.37444e-05 	
0.00379119 	0.000947796 	0 	0.0 	 0.0 	 0.0 	 0.0 	 0.0 	 0.0 	 
8.74889e-05 	0 	0.92 	0.04 	0.04 	-0.07 	0 	
0 	0 	0 	0 	0 	0 	-0 	
0 	0 	0 	0 	0.35 	17.0603 	3.62598 	8.74889e-05 	
0.00758237 	0.00189559 	0 	0.0 	 0.0 	 0.0 	 0.0 	 0.0 	 0.0 	 
0.000174978 	0 	0.92 	0.04 	0.04 	-0.07 	0 	
0 	0 	0 	0 	0 	0 	-0 	
0 	0 	0 	0 	0.35 	17.0603 	3.62598 	8.74889e-05 	
0.00758237 	0.00189559 	0 	0.0 	 0.0 	 0.0 	 0.0 	 0.0 	 0.0 	 
0.000262467 	0 	0.92 	0.04 	0.04 	-0.07 	0 	
0 	0 	0 	0 	0 	0 	-0 	
0 	0 	0 	0 	0.35 	17.0603 	3.62598 	8.74889e-05 	
0.00758237 	0.00189559 	0 	0.0 	 0.0 	 0.0 	 0.0 	 0.0 	 0.0 	 
0.000349956 	0 	0.92 	0.04 	0.04 	-0.07 	0 	
0 	0 	0 	0 	0 	0 	-0 	
0 	0 	0 	0 	0.35 	17.0603 	3.62598 	8.74889e-05 	
0.00758237 	0.00189559 	0 	0.0 	 0.0 	 0.0 	 0.0 	 0.0 	 0.0 	 
0.000437444 	0 	0.92 	0.04 	0.04 	-0.07 	0 	
0 	0 	0 	0 	0 	0 	-0 	
0 	0 	0 	0 	0.35 	17.0603 	3.62598 	8.74889e-05 	
0.00758237 	0.00189559 	0 	0.0 	 0.0 	 0.0 	 0.0 	 0.0 	 0.0 	 
0.000524933 	0 	0.92 	0.04 	0.04 	-0.07 	0 	
0 	0 	0 	0 	0 	0 	-0 	
0 	0 	0 	0 	0.35 	17.0603 	3.62598 	8.74889e-05 	
0.00758237 	0.00189559 	0 	0.0 	 0.0 	 0.0 	 0.0 	 0.0 	 0.0 	 
0.000612422 	0 	0.92 	0.04 	0.04 	-0.07 	0 	
0 	0 	0 	0 	0 	0 	-0 	
0 	0 	0 	0 	0.35 	17.0603 	3.62598 	8.74889e-05 	
0.00758237 	0.00189559 	0 	0.0 	 0.0 	 0.0 	 0.0 	 0.0 	 0.0 	 
0.000699911 	0 	0.92 	0.04 	0.04 	-0.07 	0 	
0 	0 	0 	0 	0 	0 	-0 	
0 	0 	0 	0 	0.35 	17.0603 	3.62598 	8.74889e-05 	
0.00758237 	0.00189559 	0 	0.0 	 0.0 	 0.0 	 0.0 	 0.0 	 0.0 	 
0.0007874 	0 	0.92 	0.04 	0.04 	-0.07 	0 	
0 	0 	0 	0 	0 	15.4651 	0 	
0 	0 	0 	0 	0.35 	8.53017 	3.62598 	4.37444e-05 	
0.00379119 	0.000947796 	0 	0.0 	 0.0 	 0.0 	 0.0 	 0.0 	 0.0 	 
ZONE T = "t = 0 [s]" I = 10 SOLUTIONTIME = 0.0000000000000E+00
0 	0 	0.92 	0.04 	0.04 	-0.07 	0 	
0 	0 	0 	0 	0 	0 	15.4651 	
0 	0 	0 	0 	0.35 	8.53017 	3.62598 	4.37444e-05 	
0.00379119 	0.000947796 	0 	0.0 	 0.0 	 0.0 	 0.0 	 0.0 	 0.0 	 
8.74889e-05 	0 	0.92 	0.04 	0.04 	-0.07 	0 	
0 	0 	0 	0 	0 	0 	-0 	
0 	0 	0 	0 	0.35 	17.0603 	3.62598 	8.74889e-05 	
0.00758237 	0.00189559 	0 	0.0 	 0.0 	 0.0 	 0.0 	 0.0 	 0.0 	 
0.000174978 	0 	0.92 	0.04 	0.04 	-0.07 	0 	
0 	0 	0 	0 	0 	0 	-0 	
0 	0 	0 	0 	0.35 	17.0603 	3.62598 	8.74889e-05 	
0.00758237 	0.00189559 	0 	0.0 	 0.0 	 0.0 	 0.0 	 0.0 	 0.0 	 
0.000262467 	0 	0.92 	0.04 	0.04 	-0.07 	0 	
0 	0 	0 	0 	0 	0 	-0 	
0 	0 	0 	0 	0.35 	17.0603 	3.62598 	8.74889e-05 	
0.00758237 	0.00189559 	0 	0.0 	 0.0 	 0.0 	 0.0 	 0.0 	 0.0 	 
0.000349956 	0 	0.92 	0.04 	0.04 	-0.07 	0 	
0 	0 	0 	0 	0 	0 	-0 	
0 	0 	0 	0 	0.35 	17.0603 	3.62598 	8.74889e-05 	
0.00758237 	0.00189559 	0 	0.0 	 0.0 	 0.0 	 0.0 	 0.0 	 0.0 	 
0.000437444 	0 	0.92 	0.04 	0.04 	-0.07 	0 	
0 	0 	0 	0 	0 	0 	-0 	
0 	0 	0 	0 	0.35 	17.0603 	3.62598 	8.74889e-05 	
0.00758237 	0.00189559 	0 	0.0 	 0.0 	 0.0 	 0.0 	 0.0 	 0.0 	 
0.000524933 	0 	0.92 	0.04 	0.04 	-0.07 	0 	
0 	0 	0 	0 	0 	0 	-0 	
0 	0 	0 	0 	0.35 	17.0603 	3.62598 	8.74889e-05 	
0.00758237 	0.00189559 	0 	0.0 	 0.0 	 0.0 	 0.0 	 0.0 	 0.0 	 
0.000612422 	0 	0.92 	0.04 	0.04 	-0.07 	0 	
0 	0 	0 	0 	0 	0 	-0 	
0 	0 	0 	0 	0.35 	17.0603 	3.62598 	8.74889e-05 	
0.00758237 	0.00189559 	0 	0.0 	 0.0 	 0.0 	 0.0 	 0.0 	 0.0 	 
0.000699911 	0 	0.92 	0.04 	0.04 	-0.07 	0 	
0 	0 	0 	0 	0 	0 	-0 	
0 	0 	0 	0 	0.35 	17.0603 	3.62598 	8.74889e-05 	
0.00758237 	0.00189559 	0 	0.0 	 0.0 	 0.0 	 0.0 	 0.0 	 0.0 	 
0.0007874 	0 	0.92 	0.04 	0.04 	-0.07 	0 	
0 	0 	0 	0 	0 	15.4651 	0 	
0 	0 	0 	0 	0.35 	8.53017 	3.62598 	4.37444e-05 	
0.00379119 	0.000947796 	0 	0.0 	 0.0 	 0.0 	 0.0 	 0.0 	 0.0 	 
ZONE T = "t = 1e-08 [s]" I = 10 SOLUTIONTIME = 1.0000000000000E-08
0 	1.15899e-09 	0.92 	0.04 	0.04 	0.0291674 	0 	
0.07 	-0.0409067 	0.110907 	30.9302 	-0 	0.834519 	29.2092 	
0 	91448.4 	916.789 	1145.99 	0.35 	8.53017 	0.195664 	4.37444e-05 	
0.00379119 	0.000947796 	2.74061e-06 	274.061 	0.000300028 	0.00153636 	274.06 	274.06 	0 	
8.74889e-05 	3.47625e-09 	0.92 	0.04 	0.04 	0.0291674 	-4.73712e-09 	
0.07 	-0.0409067 	0.110907 	61.8605 	-0 	3.33808 	26.7057 	
0 	182897 	1833.58 	2291.97 	0.35 	17.0603 	0.195664 	8.74889e-05 	
0.00758237 	0.00189559 	9.42235e-07 	94.2235 	0.00150014 	0.00136625 	94.2207 	94.2207 	0 	
0.000174978 	5.79387e-09 	0.92 	0.04 	0.04 	0.0291673 	-8.91695e-09 	
0.07 	-0.0409067 	0.110907 	61.8605 	-0 	6.67616 	23.3676 	
0 	182897 	1833.58 	2291.97 	0.35 	17.0603 	0.195665 	8.74889e-05 	
0.00758237 	0.00189559 	2.74093e-06 	274.093 	0.00510049 	0.00104729 	274.087 	274.087 	0 	
0.000262467 	8.11152e-09 	0.92 	0.04 	0.04 	0.0291672 	-1.25395e-08 	
0.07 	-0.0409067 	0.110907 	61.8605 	-0 	10.0143 	20.0295 	
0 	182897 	1833.58 	2291.97 	0.35 	17.0603 	0.195666 	8.74889e-05 	
0.00758237 	0.00189559 	2.74138e-06 	274.138 	0.0111011 	0.000770859 	274.126 	274.126 	0 	
0.000349956 	1.04288e-08 	0.92 	0.04 	0.04 	0.0291671 	-1.56047e-08 	
0.07 	-0.0409067 	0.110907 	61.8605 	-0 	13.3524 	16.6914 	
0 	182897 	1833.58 	2291.97 	0.35 	17.0603 	0.195668 	8.74889e-05 	
0.00758237 	0.00189559 	2.57796e-06 	257.796 	0.0195021 	0.000536951 	257.776 	257.776 	0 	
0.000437444 	1.27465e-08 	0.92 	0.04 	0.04 	0.029167 	-1.81127e-08 	
0.07 	-0.0409067 	0.110907 	61.8605 	-0 	16.6906 	13.3532 	
0 	182897 	1833.58 	2291.97 	0.35 	17.0603 	0.195671 	8.74889e-05 	
0.00758237 	0.00189559 	3.41116e-06 	341.116 	0.0303035 	0.000345568 	341.086 	341.086 	0 	
0.000524933 	1.50642e-08 	0.92 	0.04 	0.04 	0.0291668 	-2.00633e-08 	
0.07 	-0.0409067 	0.110907 	61.8605 	-0 	20.0288 	10.015 	
0 	182897 	1833.58 	2291.97 	0.35 	17.0603 	0.195674 	8.74889e-05 	
0.00758237 	0.00189559 	3.41217e-06 	341.217 	0.0435054 	0.000196711 	341.173 	341.173 	0 	
0.000612422 	1.73816e-08 	0.92 	0.04 	0.04 	0.0291666 	-2.14567e-08 	
0.07 	-0.0409067 	0.110907 	61.8605 	-0 	23.367 	6.67673 	
0 	182897 	1833.58 	2291.97 	0.35 	17.0603 	0.195677 	8.74889e-05 	
0.00758237 	0.00189559 	2.58098e-06 	258.098 	0.059108 	9.03826e-05 	258.039 	258.039 	0 	
0.000699911 	1.96991e-08 	0.92 	0.04 	0.04 	0.0291664 	-2.22927e-08 	
0.07 	-0.0409067 	0.110907 	61.8605 	-0 	26.7054 	3.3384 	
0 	182897 	1833.58 	2291.97 	0.35 	17.0603 	0.195681 	8.74889e-05 	
0.00758237 	0.00189559 	2.58236e-06 	258.236 	0.0771115 	2.65837e-05 	258.159 	258.159 	0 	
0.0007874 	2.08588e-08 	0.92 	0.04 	0.04 	0.0291661 	-2.25714e-08 	
0.07 	-0.0409067 	0.110907 	30.9302 	-0 	29.2092 	0.83461 	
0 	91448.4 	916.789 	1145.99 	0.35 	8.53017 	0.195686 	4.37444e-05 	
0.00379119 	0.000947796 	2.58383e-06 	258.383 	0.0867135 	5.31688e-06 	258.296 	258.296 	0 	
ZONE T = "t = 2e-08 [s]" I = 10 SOLUTIONTIME = 2.0000000000000E-08
0 	1.159e-09 	0.92 	0.04 	0.04 	0.0291674 	0 	
-0.0291674 	-0.0409067 	0.0117393 	1.66905 	8.64918e-09 	0.834524 	29.2094 	
4.18314e-11 	91448.4 	916.789 	1145.99 	0.35 	8.53017 	0.195664 	4.37444e-05 	
0.00379119 	0.000947796 	7.36067e-06 	462.006 	0.00060006 	0.00307274 	462.004 	462.004 	0 	
8.74889e-05 	3.47699e-09 	0.92 	0.04 	0.04 	0.0291674 	-4.73715e-09 	
-0.0291674 	-0.0409067 	0.0117394 	3.3381 	2.59476e-08 	3.3381 	26.7059 	
8.36628e-11 	182897 	1833.58 	2291.97 	0.35 	17.0603 	0.195664 	8.74889e-05 	
0.00758237 	0.00189559 	4.87376e-06 	393.153 	0.0030003 	0.00273252 	393.15 	393.15 	0 	
0.000174978 	5.795e-09 	0.92 	0.04 	0.04 	0.0291673 	-8.91701e-09 	
-0.0291673 	-0.0409067 	0.0117394 	3.33811 	4.3246e-08 	6.67621 	23.3677 	
8.36631e-11 	182897 	1833.58 	2291.97 	0.35 	17.0603 	0.195665 	8.74889e-05 	
0.00758237 	0.00189559 	7.36131e-06 	462.038 	0.010201 	0.0020946 	462.031 	462.031 	0 	
0.000262467 	8.11302e-09 	0.92 	0.04 	0.04 	0.0291672 	-1.25396e-08 	
-0.0291672 	-0.0409067 	0.0117395 	3.33814 	6.05446e-08 	10.0143 	20.0296 	
8.36637e-11 	182897 	1833.58 	2291.97 	0.35 	17.0603 	0.195666 	8.74889e-05 	
0.00758237 	0.00189559 	7.36219e-06 	462.082 	0.0222024 	0.00154173 	462.07 	462.07 	0 	
0.000349956 	1.04311e-08 	0.92 	0.04 	0.04 	0.0291671 	-1.56048e-08 	
-0.0291671 	-0.0409067 	0.0117396 	3.33817 	7.78433e-08 	13.3525 	16.6915 	
8.36645e-11 	182897 	1833.58 	2291.97 	0.35 	17.0603 	0.195668 	8.74889e-05 	
0.00758237 	0.00189559 	7.76648e-06 	518.852 	0.0390044 	0.00107391 	518.832 	518.832 	0 	
0.000437444 	1.27491e-08 	0.92 	0.04 	0.04 	0.029167 	-1.81128e-08 	
-0.029167 	-0.0409067 	0.0117397 	3.33821 	9.51422e-08 	16.6907 	13.3533 	
8.36655e-11 	182897 	1833.58 	2291.97 	0.35 	17.0603 	0.195671 	8.74889e-05 	
0.00758237 	0.00189559 	6.90738e-06 	349.621 	0.0606073 	0.00069114 	349.591 	349.591 	0 	
0.000524933 	1.50672e-08 	0.92 	0.04 	0.04 	0.0291668 	-2.00635e-08 	
-0.0291668 	-0.0409067 	0.0117399 	3.33826 	1.12441e-07 	20.0289 	10.0151 	
8.36667e-11 	182897 	1833.58 	2291.97 	0.35 	17.0603 	0.195674 	8.74889e-05 	
0.00758237 	0.00189559 	5.5079e-06 	209.573 	0.0870114 	0.000393425 	209.529 	209.529 	0 	
0.000612422 	1.73854e-08 	0.92 	0.04 	0.04 	0.0291666 	-2.14568e-08 	
-0.0291666 	-0.0409067 	0.0117401 	3.33832 	1.29741e-07 	23.3672 	6.67677 	
8.36682e-11 	182897 	1833.58 	2291.97 	0.35 	17.0603 	0.195677 	8.74889e-05 	
0.00758237 	0.00189559 	7.35127e-06 	477.029 	0.118217 	0.000180766 	476.97 	476.97 	0 	
0.000699911 	1.97036e-08 	0.92 	0.04 	0.04 	0.0291664 	-2.22928e-08 	
-0.0291664 	-0.0409067 	0.0117403 	3.33838 	1.47041e-07 	26.7055 	3.33842 	
8.36699e-11 	182897 	1833.58 	2291.97 	0.35 	17.0603 	0.195681 	8.74889e-05 	
0.00758237 	0.00189559 	7.35403e-06 	477.167 	0.154224 	5.31676e-05 	477.09 	477.09 	0 	
0.0007874 	2.08632e-08 	0.92 	0.04 	0.04 	0.0291661 	-2.25715e-08 	
-0.0291661 	-0.0409067 	0.0117406 	1.66923 	1.47041e-07 	29.2093 	0.834615 	
4.18359e-11 	91448.4 	916.789 	1145.99 	0.35 	8.53017 	0.195685 	4.37444e-05 	
0.00379119 	0.000947796 	7.35696e-06 	477.314 	0.173428 	1.06338e-05 	477.227 	477.227 	0 	
ZONE T = "t = 3e-08 [s]" I = 10 SOLUTIONTIME = 3.0000000000000E-08
0 	1.159e-09 	0.92 	0.04 	0.04 	0.0291674 	0 	
-0.0291674 	-0.0409067 	0.0117393 	1.66905 	8.64924e-09 	0.834524 	29.2094 	
8.36627e-11 	91448.4 	916.789 	1145.99 	0.35 	8.53017 	0.195664 	4.37444e-05 	
0.00379119 	0.000947796 	1.28232e-05 	546.257 	0.000900091 	0.00460912 	546.255 	546.255 	0 	
8.74889e-05 	3.47699e-09 	0.92 	0.04 	0.04 	0.0291674 	-4.73715e-09 	
-0.0291674 	-0.0409067 	0.0117394 	3.3381 	2.59477e-08 	3.3381 	26.7059 	
1.67326e-10 	182897 	1833.58 	2291.97 	0.35 	17.0603 	0.195664 	8.74889e-05 	
0.00758237 	0.00189559 	8.91871e-06 	404.494 	0.00450046 	0.00409879 	404.492 	404.492 	0 	
0.000174978 	5.795e-09 	0.92 	0.04 	0.04 	0.0291673 	-8.91701e-09 	
-0.0291673 	-0.0409067 	0.0117394 	3.33811 	4.32463e-08 	6.67621 	23.3677 	
1.67326e-10 	182897 	1833.58 	2291.97 	0.35 	17.0603 	0.195665 	8.74889e-05 	
0.00758237 	0.00189559 	1.28242e-05 	546.289 	0.0153016 	0.0031419 	546.283 	546.283 	0 	
0.000262467 	8.11302e-09 	0.92 	0.04 	0.04 	0.0291672 	-1.25396e-08 	
-0.0291672 	-0.0409067 	0.0117395 	3.33813 	6.05449e-08 	10.0143 	20.0296 	
1.67327e-10 	182897 	1833.58 	2291.97 	0.35 	17.0603 	0.195666 	8.74889e-05 	
0.00758237 	0.00189559 	1.28255e-05 	546.333 	0.0333036 	0.0023126 	546.321 	546.321 	0 	
0.000349956 	1.04311e-08 	0.92 	0.04 	0.04 	0.0291671 	-1.56048e-08 	
-0.0291671 	-0.0409067 	0.0117396 	3.33817 	7.78438e-08 	13.3525 	16.6915 	
1.67329e-10 	182897 	1833.58 	2291.97 	0.35 	17.0603 	0.195668 	8.74889e-05 	
0.00758237 	0.00189559 	1.12538e-05 	348.729 	0.0585067 	0.00161087 	348.709 	348.709 	0 	
0.000437444 	1.27491e-08 	0.92 	0.04 	0.04 	0.029167 	-1.81128e-08 	
-0.029167 	-0.0409067 	0.0117397 	3.33821 	9.51428e-08 	16.6907 	13.3533 	
1.67331e-10 	182897 	1833.58 	2291.97 	0.35 	17.0603 	0.195671 	8.74889e-05 	
0.00758237 	0.00189559 	1.19671e-05 	505.973 	0.0909112 	0.00103671 	505.942 	505.942 	0 	
0.000524933 	1.50672e-08 	0.92 	0.04 	0.04 	0.0291668 	-2.00635e-08 	
-0.0291668 	-0.0409067 	0.0117399 	3.33826 	1.12442e-07 	20.0289 	10.0151 	
1.67333e-10 	182897 	1833.58 	2291.97 	0.35 	17.0603 	0.195674 	8.74889e-05 	
0.00758237 	0.00189559 	1.09089e-05 	540.098 	0.130517 	0.000590139 	540.054 	540.054 	0 	
0.000612422 	1.73861e-08 	0.92 	0.04 	0.04 	0.0291666 	-2.14568e-08 	
-0.0291666 	-0.0409067 	0.0117401 	3.33831 	1.29742e-07 	23.3672 	6.67677 	
1.67336e-10 	182897 	1833.58 	2291.97 	0.35 	17.0603 	0.195677 	8.74889e-05 	
0.00758237 	0.00189559 	1.24051e-05 	505.383 	0.177326 	0.00027115 	505.323 	505.323 	0 	
0.000699911 	1.9705e-08 	0.92 	0.04 	0.04 	0.0291664 	-2.22928e-08 	
-0.0291664 	-0.0409067 	0.0117403 	3.33838 	1.47042e-07 	26.7055 	3.33842 	
1.6734e-10 	182897 	1833.58 	2291.97 	0.35 	17.0603 	0.195681 	8.74889e-05 	
0.00758237 	0.00189559 	1.24092e-05 	505.521 	0.231337 	7.97516e-05 	505.444 	505.444 	0 	
0.0007874 	2.08636e-08 	0.92 	0.04 	0.04 	0.0291661 	-2.25715e-08 	
-0.0291661 	-0.0409067 	0.0117406 	1.66923 	1.47042e-07 	29.2093 	0.834615 	
8.36718e-11 	91448.4 	916.789 	1145.99 	0.35 	8.53017 	0.195685 	4.37444e-05 	
0.00379119 	0.000947796 	1.27053e-05 	534.831 	0.260143 	1.59508e-05 	534.745 	534.745 	0 	
ZONE T = "t = 4e-08 [s]" I = 10 SOLUTIONTIME = 4.0000000000000E-08
0 	1.15918e-09 	0.92 	0.04 	0.04 	0.0291674 	0 	
-0.0291674 	-0.0409067 	0.0117393 	1.66905 	8.64924e-09 	0.834524 	29.2094 	
1.25494e-10 	91448.4 	916.789 	1145.99 	0.35 	8.53017 	0.195664 	4.37444e-05 	
0.00379119 	0.000947796 	1.70706e-05 	424.741 	0.00120012 	0.0061455 	424.739 	424.739 	0 	
8.74889e-05 	3.47681e-09 	0.92 	0.04 	0.04 	0.0291674 	-4.73715e-09 	
-0.0291674 	-0.0409067 	0.0117394 	3.3381 	2.59477e-08 	3.3381 	26.7059 	
2.50988e-10 	182897 	1833.58 	2291.97 	0.35 	17.0603 	0.195664 	8.74889e-05 	
0.00758237 	0.00189559 	1.20482e-05 	312.952 	0.00600062 	0.00546505 	312.949 	312.949 	0 	
0.000174978 	5.79409e-09 	0.92 	0.04 	0.04 	0.0291673 	-8.91701e-09 	
-0.0291673 	-0.0409067 	0.0117394 	3.33811 	4.32463e-08 	6.67621 	23.3677 	
2.50989e-10 	182897 	1833.58 	2291.97 	0.35 	17.0603 	0.195665 	8.74889e-05 	
0.00758237 	0.00189559 	1.70719e-05 	424.772 	0.0204022 	0.00418921 	424.766 	424.766 	0 	
0.000262467 	8.11248e-09 	0.92 	0.04 	0.04 	0.0291672 	-1.25396e-08 	
-0.0291672 	-0.0409067 	0.0117395 	3.33813 	6.05449e-08 	10.0143 	20.0296 	
2.50991e-10 	182897 	1833.58 	2291.97 	0.35 	17.0603 	0.195666 	8.74889e-05 	
0.00758237 	0.00189559 	1.70737e-05 	424.817 	0.0444049 	0.00308347 	424.805 	424.805 	0 	
0.000349956 	1.04302e-08 	0.92 	0.04 	0.04 	0.0291671 	-1.56048e-08 	
-0.0291671 	-0.0409067 	0.0117396 	3.33817 	7.78438e-08 	13.3525 	16.6915 	
2.50993e-10 	182897 	1833.58 	2291.97 	0.35 	17.0603 	0.195668 	8.74889e-05 	
0.00758237 	0.00189559 	1.36555e-05 	240.174 	0.0780091 	0.00214782 	240.154 	240.154 	0 	
0.000437444 	1.27475e-08 	0.92 	0.04 	0.04 	0.029167 	-1.81128e-08 	
-0.029167 	-0.0409067 	0.0117397 	3.33821 	9.51428e-08 	16.6907 	13.3533 	
2.50996e-10 	182897 	1833.58 	2291.97 	0.35 	17.0603 	0.195671 	8.74889e-05 	
0.00758237 	0.00189559 	1.63058e-05 	433.873 	0.121215 	0.00138229 	433.842 	433.842 	0 	
0.000524933 	1.50656e-08 	0.92 	0.04 	0.04 	0.0291668 	-2.00635e-08 	
-0.0291668 	-0.0409067 	0.0117399 	3.33826 	1.12442e-07 	20.0289 	10.0151 	
2.51e-10 	182897 	1833.58 	2291.97 	0.35 	17.0603 	0.195674 	8.74889e-05 	
0.00758237 	0.00189559 	1.41064e-05 	319.748 	0.174023 	0.000786853 	319.704 	319.704 	0 	
0.000612422 	1.73838e-08 	0.92 	0.04 	0.04 	0.0291666 	-2.14568e-08 	
-0.0291666 	-0.0409067 	0.0117401 	3.33831 	1.29742e-07 	23.3672 	6.67677 	
2.51005e-10 	182897 	1833.58 	2291.97 	0.35 	17.0603 	0.195677 	8.74889e-05 	
0.00758237 	0.00189559 	1.68189e-05 	441.384 	0.236434 	0.000361534 	441.325 	441.325 	0 	
0.000699911 	1.97019e-08 	0.92 	0.04 	0.04 	0.0291664 	-2.22928e-08 	
-0.0291664 	-0.0409067 	0.0117403 	3.33838 	1.47042e-07 	26.7055 	3.33842 	
2.5101e-10 	182897 	1833.58 	2291.97 	0.35 	17.0603 	0.195681 	8.74889e-05 	
0.00758237 	0.00189559 	1.68245e-05 	441.522 	0.308449 	0.000106336 	441.445 	441.445 	0 	
0.0007874 	2.08611e-08 	0.92 	0.04 	0.04 	0.0291661 	-2.25715e-08 	
-0.0291661 	-0.0409067 	0.0117406 	1.66923 	1.47042e-07 	29.2093 	0.834615 	
1.25508e-10 	91448.4 	916.789 	1145.99 	0.35 	8.53017 	0.195685 	4.37444e-05 	
0.00379119 	0.000947796 	1.59068e-05 	320.152 	0.346857 	2.12677e-05 	320.065 	320.065 	0 	
ZONE T = "t = 5.5e-08 [s]" I = 10 SOLUTIONTIME = 5.5000000000000E-08
0 	1.159e-09 	0.92 	0.04 	0.04 	0.0291674 	0 	
-0.0291674 	-0.0409067 	0.0117393 	1.66905 	8.64924e-09 	0.834524 	29.2094 	
1.67325e-10 	91448.4 	916.789 	1145.99 	0.35 	8.53017 	0.195664 	4.37444e-05 	
0.00379119 	0.000947796 	2.16514e-05 	305.384 	0.00110011 	0.00563338 	305.382 	305.382 	0 	
8.74889e-05 	3.47772e-09 	0.92 	0.04 	0.04 	0.0291674 	-4.73715e-09 	
-0.0291674 	-0.0409067 	0.0117394 	3.3381 	2.59477e-08 	3.3381 	26.7059 	
3.34651e-10 	182897 	1833.58 	2291.97 	0.35 	17.0603 	0.195664 	8.74889e-05 	
0.00758237 	0.00189559 	1.65805e-05 	302.15 	0.00550057 	0.00500964 	302.148 	302.148 	0 	
0.000174978 	5.79645e-09 	0.92 	0.04 	0.04 	0.0291673 	-8.91701e-09 	
-0.0291673 	-0.0409067 	0.0117394 	3.33811 	4.32463e-08 	6.67621 	23.3677 	
3.34653e-10 	182897 	1833.58 	2291.97 	0.35 	17.0603 	0.195665 	8.74889e-05 	
0.00758237 	0.00189559 	2.16532e-05 	305.416 	0.018702 	0.00384011 	305.41 	305.41 	0 	
0.000262467 	8.11447e-09 	0.92 	0.04 	0.04 	0.0291672 	-1.25396e-08 	
-0.0291672 	-0.0409067 	0.0117395 	3.33813 	6.05449e-08 	10.0143 	20.0296 	
3.34655e-10 	182897 	1833.58 	2291.97 	0.35 	17.0603 	0.195666 	8.74889e-05 	
0.00758237 	0.00189559 	2.16556e-05 	305.46 	0.0407045 	0.00282651 	305.448 	305.448 	0 	
0.000349956 	1.04332e-08 	0.92 	0.04 	0.04 	0.0291671 	-1.56048e-08 	
-0.0291671 	-0.0409067 	0.0117396 	3.33817 	7.78438e-08 	13.3525 	16.6915 	
3.34658e-10 	182897 	1833.58 	2291.97 	0.35 	17.0603 	0.195668 	8.74889e-05 	
0.00758237 	0.00189559 	1.95507e-05 	393.015 	0.0715084 	0.00196884 	392.995 	392.995 	0 	
0.000437444 	1.2752e-08 	0.92 	0.04 	0.04 	0.029167 	-1.81128e-08 	
-0.029167 	-0.0409067 	0.0117397 	3.33821 	9.51428e-08 	16.6907 	13.3533 	
3.34662e-10 	182897 	1833.58 	2291.97 	0.35 	17.0603 	0.195671 	8.74889e-05 	
0.00758237 	0.00189559 	2.41709e-05 	524.335 	0.111114 	0.0012671 	524.304 	524.304 	0 	
0.000524933 	1.50701e-08 	0.92 	0.04 	0.04 	0.0291668 	-2.00635e-08 	
-0.0291668 	-0.0409067 	0.0117399 	3.33826 	1.12442e-07 	20.0289 	10.0151 	
3.34667e-10 	182897 	1833.58 	2291.97 	0.35 	17.0603 	0.195674 	8.74889e-05 	
0.00758237 	0.00189559 	2.1098e-05 	466.108 	0.159522 	0.000721283 	466.064 	466.064 	0 	
0.000612422 	1.73883e-08 	0.92 	0.04 	0.04 	0.0291666 	-2.14568e-08 	
-0.0291666 	-0.0409067 	0.0117401 	3.33831 	1.29742e-07 	23.3672 	6.67677 	
3.34673e-10 	182897 	1833.58 	2291.97 	0.35 	17.0603 	0.195677 	8.74889e-05 	
0.00758237 	0.00189559 	2.14954e-05 	311.766 	0.216732 	0.000331406 	311.707 	311.707 	0 	
0.000699911 	1.97067e-08 	0.92 	0.04 	0.04 	0.0291664 	-2.22928e-08 	
-0.0291664 	-0.0409067 	0.0117403 	3.33838 	1.47042e-07 	26.7055 	3.33842 	
3.3468e-10 	182897 	1833.58 	2291.97 	0.35 	17.0603 	0.195681 	8.74889e-05 	
0.00758237 	0.00189559 	2.1503e-05 	311.905 	0.282745 	9.74744e-05 	311.827 	311.827 	0 	
0.0007874 	2.08654e-08 	0.92 	0.04 	0.04 	0.0291661 	-2.25715e-08 	
-0.0291661 	-0.0409067 	0.0117406 	1.66923 	1.47042e-07 	29.2093 	0.834615 	
1.67344e-10 	91448.4 	916.789 	1145.99 	0.35 	8.53017 	0.195685 	4.37444e-05 	
0.00379119 	0.000947796 	1.9818e-05 	260.744 	0.317953 	1.94954e-05 	260.657 	260.657 	0 	
ZONE T = "t = 7.75e-08 [s]" I = 10 SOLUTIONTIME = 7.7500000000000E-08
0 	1.15892e-09 	0.92 	0.04 	0.04 	0.0291674 	0 	
-0.0291674 	-0.0409067 	0.0117393 	1.66905 	8.64924e-09 	0.834524 	29.2094 	
2.30073e-10 	91448.4 	916.789 	1145.99 	0.35 	8.53017 	0.195664 	4.37444e-05 	
0.00379119 	0.000947796 	2.9681e-05 	356.871 	0.00103344 	0.00529197 	356.869 	356.869 	0 	
8.74889e-05 	3.47659e-09 	0.92 	0.04 	0.04 	0.0291674 	-4.73715e-09 	
-0.0291674 	-0.0409067 	0.0117394 	3.3381 	2.59477e-08 	3.3381 	26.7059 	
4.60146e-10 	182897 	1833.58 	2291.97 	0.35 	17.0603 	0.195664 	8.74889e-05 	
0.00758237 	0.00189559 	2.85636e-05 	532.582 	0.00516721 	0.00470603 	532.579 	532.579 	0 	
0.000174978 	5.79444e-09 	0.92 	0.04 	0.04 	0.0291673 	-8.91701e-09 	
-0.0291673 	-0.0409067 	0.0117394 	3.33811 	4.32463e-08 	6.67621 	23.3677 	
4.60147e-10 	182897 	1833.58 	2291.97 	0.35 	17.0603 	0.195665 	8.74889e-05 	
0.00758237 	0.00189559 	2.96835e-05 	356.903 	0.0175686 	0.00360738 	356.897 	356.897 	0 	
0.000262467 	8.1123e-09 	0.92 	0.04 	0.04 	0.0291672 	-1.25396e-08 	
-0.0291672 	-0.0409067 	0.0117395 	3.33813 	6.05449e-08 	10.0143 	20.0296 	
4.6015e-10 	182897 	1833.58 	2291.97 	0.35 	17.0603 	0.195666 	8.74889e-05 	
0.00758237 	0.00189559 	2.96869e-05 	356.947 	0.0382376 	0.00265521 	356.936 	356.936 	0 	
0.000349956 	1.04303e-08 	0.92 	0.04 	0.04 	0.0291671 	-1.56048e-08 	
-0.0291671 	-0.0409067 	0.0117396 	3.33817 	7.78438e-08 	13.3525 	16.6915 	
4.60154e-10 	182897 	1833.58 	2291.97 	0.35 	17.0603 	0.195668 	8.74889e-05 	
0.00758237 	0.00189559 	2.86852e-05 	405.977 	0.0671746 	0.00184952 	405.957 	405.957 	0 	
0.000437444 	1.27482e-08 	0.92 	0.04 	0.04 	0.029167 	-1.81128e-08 	
-0.029167 	-0.0409067 	0.0117397 	3.33821 	9.51428e-08 	16.6907 	13.3533 	
4.6016e-10 	182897 	1833.58 	2291.97 	0.35 	17.0603 	0.195671 	8.74889e-05 	
0.00758237 	0.00189559 	3.41902e-05 	445.304 	0.10438 	0.0011903 	445.274 	445.274 	0 	
0.000524933 	1.50662e-08 	0.92 	0.04 	0.04 	0.0291668 	-2.00635e-08 	
-0.0291668 	-0.0409067 	0.0117399 	3.33826 	1.12442e-07 	20.0289 	10.0151 	
4.60167e-10 	182897 	1833.58 	2291.97 	0.35 	17.0603 	0.195674 	8.74889e-05 	
0.00758237 	0.00189559 	3.27641e-05 	518.495 	0.149854 	0.000677569 	518.451 	518.451 	0 	
0.000612422 	1.7384e-08 	0.92 	0.04 	0.04 	0.0291666 	-2.14568e-08 	
-0.0291666 	-0.0409067 	0.0117401 	3.33831 	1.29742e-07 	23.3672 	6.67677 	
4.60175e-10 	182897 	1833.58 	2291.97 	0.35 	17.0603 	0.195677 	8.74889e-05 	
0.00758237 	0.00189559 	3.4987e-05 	599.626 	0.203597 	0.000311321 	599.566 	599.566 	0 	
0.000699911 	1.97017e-08 	0.92 	0.04 	0.04 	0.0291664 	-2.22928e-08 	
-0.0291664 	-0.0409067 	0.0117403 	3.33838 	1.47042e-07 	26.7055 	3.33842 	
4.60184e-10 	182897 	1833.58 	2291.97 	0.35 	17.0603 	0.195681 	8.74889e-05 	
0.00758237 	0.00189559 	3.49977e-05 	599.764 	0.265609 	9.15669e-05 	599.687 	599.687 	0 	
0.0007874 	2.08608e-08 	0.92 	0.04 	0.04 	0.0291661 	-2.25715e-08 	
-0.0291661 	-0.0409067 	0.0117406 	1.66923 	1.47042e-07 	29.2093 	0.834615 	
2.30097e-10 	91448.4 	916.789 	1145.99 	0.35 	8.53017 	0.195685 	4.37444e-05 	
0.00379119 	0.000947796 	2.95165e-05 	431.047 	0.298683 	1.83139e-05 	430.961 	430.961 	0 	
ZONE T = "t = 1.1125e-07 [s]" I = 10 SOLUTIONTIME = 1.1125000000000E-07
0 	1.15905e-09 	0.92 	0.04 	0.04 	0.0291674 	0 	
-0.0291674 	-0.0409067 	0.0117393 	1.66905 	8.64924e-09 	0.834524 	29.2094 	
3.24193e-10 	91448.4 	916.789 	1145.99 	0.35 	8.53017 	0.195664 	4.37444e-05 	
0.00379119 	0.000947796 	4.39856e-05 	423.84 	0.000988992 	0.00506436 	423.839 	423.839 	0 	
8.74889e-05 	3.47694e-09 	0.92 	0.04 	0.04 	0.0291674 	-4.73715e-09 	
-0.0291674 	-0.0409067 	0.0117394 	3.3381 	2.59477e-08 	3.3381 	26.7059 	
6.48387e-10 	182897 	1833.58 	2291.97 	0.35 	17.0603 	0.195664 	8.74889e-05 	
0.00758237 	0.00189559 	4.65463e-05 	532.822 	0.00494497 	0.00450362 	532.819 	532.819 	0 	
0.000174978 	5.79473e-09 	0.92 	0.04 	0.04 	0.0291673 	-8.91701e-09 	
-0.0291673 	-0.0409067 	0.0117394 	3.33811 	4.32463e-08 	6.67621 	23.3677 	
6.48389e-10 	182897 	1833.58 	2291.97 	0.35 	17.0603 	0.195665 	8.74889e-05 	
0.00758237 	0.00189559 	4.39892e-05 	423.872 	0.0168129 	0.00345223 	423.866 	423.866 	0 	
0.000262467 	8.11254e-09 	0.92 	0.04 	0.04 	0.0291672 	-1.25396e-08 	
-0.0291672 	-0.0409067 	0.0117395 	3.33813 	6.05449e-08 	10.0143 	20.0296 	
6.48393e-10 	182897 	1833.58 	2291.97 	0.35 	17.0603 	0.195666 	8.74889e-05 	
0.00758237 	0.00189559 	4.39941e-05 	423.917 	0.036593 	0.00254101 	423.905 	423.905 	0 	
0.000349956 	1.04306e-08 	0.92 	0.04 	0.04 	0.0291671 	-1.56048e-08 	
-0.0291671 	-0.0409067 	0.0117396 	3.33817 	7.78438e-08 	13.3525 	16.6915 	
6.48399e-10 	182897 	1833.58 	2291.97 	0.35 	17.0603 	0.195668 	8.74889e-05 	
0.00758237 	0.00189559 	4.27677e-05 	417.259 	0.0642854 	0.00176997 	417.239 	417.239 	0 	
0.000437444 	1.27488e-08 	0.92 	0.04 	0.04 	0.029167 	-1.81128e-08 	
-0.029167 	-0.0409067 	0.0117397 	3.33821 	9.51428e-08 	16.6907 	13.3533 	
6.48407e-10 	182897 	1833.58 	2291.97 	0.35 	17.0603 	0.195671 	8.74889e-05 	
0.00758237 	0.00189559 	5.26176e-05 	545.998 	0.0998904 	0.00113911 	545.967 	545.967 	0 	
0.000524933 	1.50666e-08 	0.92 	0.04 	0.04 	0.0291668 	-2.00635e-08 	
-0.0291668 	-0.0409067 	0.0117399 	3.33826 	1.12442e-07 	20.0289 	10.0151 	
6.48417e-10 	182897 	1833.58 	2291.97 	0.35 	17.0603 	0.195674 	8.74889e-05 	
0.00758237 	0.00189559 	4.88537e-05 	476.729 	0.143408 	0.000648427 	476.686 	476.686 	0 	
0.000612422 	1.7385e-08 	0.92 	0.04 	0.04 	0.0291666 	-2.14568e-08 	
-0.0291666 	-0.0409067 	0.0117401 	3.33831 	1.29742e-07 	23.3672 	6.67677 	
6.48428e-10 	182897 	1833.58 	2291.97 	0.35 	17.0603 	0.195677 	8.74889e-05 	
0.00758237 	0.00189559 	4.84559e-05 	399.078 	0.19484 	0.000297931 	399.019 	399.019 	0 	
0.000699911 	1.97034e-08 	0.92 	0.04 	0.04 	0.0291664 	-2.22928e-08 	
-0.0291664 	-0.0409067 	0.0117403 	3.33838 	1.47042e-07 	26.7055 	3.33842 	
6.48442e-10 	182897 	1833.58 	2291.97 	0.35 	17.0603 	0.195681 	8.74889e-05 	
0.00758237 	0.00189559 	4.93948e-05 	426.58 	0.254185 	8.76286e-05 	426.503 	426.503 	0 	
0.0007874 	2.08628e-08 	0.92 	0.04 	0.04 	0.0291661 	-2.25715e-08 	
-0.0291661 	-0.0409067 	0.0117406 	1.66923 	1.47042e-07 	29.2093 	0.834615 	
3.24228e-10 	91448.4 	916.789 	1145.99 	0.35 	8.53017 	0.195685 	4.37444e-05 	
0.00379119 	0.000947796 	4.13505e-05 	350.636 	0.285837 	1.75262e-05 	350.55 	350.55 	0 	
ZONE T = "t = 1.61875e-07 [s]" I = 10 SOLUTIONTIME = 1.6187500000000E-07
0 	1.159e-09 	0.92 	0.04 	0.04 	0.0291674 	0 	
-0.0291674 	-0.0409067 	0.0117393 	1.66905 	8.64924e-09 	0.834524 	29.2094 	
4.65374e-10 	91448.4 	916.789 	1145.99 	0.35 	8.53017 	0.195664 	4.37444e-05 	
0.00379119 	0.000947796 	7.12591e-05 	538.736 	0.00095936 	0.00491262 	538.734 	538.734 	0 	
8.74889e-05 	3.47721e-09 	0.92 	0.04 	0.04 	0.0291674 	-4.73715e-09 	
-0.0291674 	-0.0409067 	0.0117394 	3.3381 	2.59477e-08 	3.3381 	26.7059 	
9.30749e-10 	182897 	1833.58 	2291.97 	0.35 	17.0603 	0.195664 	8.74889e-05 	
0.00758237 	0.00189559 	6.90648e-05 	444.81 	0.0047968 	0.00436868 	444.807 	444.807 	0 	
0.000174978 	5.79543e-09 	0.92 	0.04 	0.04 	0.0291673 	-8.91701e-09 	
-0.0291673 	-0.0409067 	0.0117394 	3.33811 	4.32463e-08 	6.67621 	23.3677 	
9.30752e-10 	182897 	1833.58 	2291.97 	0.35 	17.0603 	0.195665 	8.74889e-05 	
0.00758237 	0.00189559 	7.12643e-05 	538.768 	0.0163092 	0.00334879 	538.762 	538.762 	0 	
0.000262467 	8.11367e-09 	0.92 	0.04 	0.04 	0.0291672 	-1.25396e-08 	
-0.0291672 	-0.0409067 	0.0117395 	3.33813 	6.05449e-08 	10.0143 	20.0296 	
9.30758e-10 	182897 	1833.58 	2291.97 	0.35 	17.0603 	0.195666 	8.74889e-05 	
0.00758237 	0.00189559 	7.12715e-05 	538.812 	0.0354966 	0.00246488 	538.8 	538.8 	0 	
0.000349956 	1.0432e-08 	0.92 	0.04 	0.04 	0.0291671 	-1.56048e-08 	
-0.0291671 	-0.0409067 	0.0117396 	3.33817 	7.78438e-08 	13.3525 	16.6915 	
9.30767e-10 	182897 	1833.58 	2291.97 	0.35 	17.0603 	0.195668 	8.74889e-05 	
0.00758237 	0.00189559 	6.73911e-05 	486.388 	0.0623593 	0.00171694 	486.368 	486.368 	0 	
0.000437444 	1.27501e-08 	0.92 	0.04 	0.04 	0.029167 	-1.81128e-08 	
-0.029167 	-0.0409067 	0.0117397 	3.33821 	9.51428e-08 	16.6907 	13.3533 	
9.30778e-10 	182897 	1833.58 	2291.97 	0.35 	17.0603 	0.195671 	8.74889e-05 	
0.00758237 	0.00189559 	7.87034e-05 	515.274 	0.0968975 	0.00110498 	515.243 	515.243 	0 	
0.000524933 	1.50684e-08 	0.92 	0.04 	0.04 	0.0291668 	-2.00635e-08 	
-0.0291668 	-0.0409067 	0.0117399 	3.33826 	1.12442e-07 	20.0289 	10.0151 	
9.30792e-10 	182897 	1833.58 	2291.97 	0.35 	17.0603 	0.195674 	8.74889e-05 	
0.00758237 	0.00189559 	7.62407e-05 	540.978 	0.139112 	0.000628998 	540.934 	540.934 	0 	
0.000612422 	1.73866e-08 	0.92 	0.04 	0.04 	0.0291666 	-2.14568e-08 	
-0.0291666 	-0.0409067 	0.0117401 	3.33831 	1.29742e-07 	23.3672 	6.67677 	
9.30808e-10 	182897 	1833.58 	2291.97 	0.35 	17.0603 	0.195677 	8.74889e-05 	
0.00758237 	0.00189559 	6.79342e-05 	384.756 	0.189002 	0.000289005 	384.697 	384.697 	0 	
0.000699911 	1.97048e-08 	0.92 	0.04 	0.04 	0.0291664 	-2.22928e-08 	
-0.0291664 	-0.0409067 	0.0117403 	3.33838 	1.47042e-07 	26.7055 	3.33842 	
9.30827e-10 	182897 	1833.58 	2291.97 	0.35 	17.0603 	0.195681 	8.74889e-05 	
0.00758237 	0.00189559 	6.88801e-05 	384.895 	0.246569 	8.50031e-05 	384.817 	384.817 	0 	
0.0007874 	2.08639e-08 	0.92 	0.04 	0.04 	0.0291661 	-2.25715e-08 	
-0.0291661 	-0.0409067 	0.0117406 	1.66923 	1.47042e-07 	29.2093 	0.834615 	
4.65424e-10 	91448.4 	916.789 	1145.99 	0.35 	8.53017 	0.195685 	4.37444e-05 	
0.00379119 	0.000947796 	5.99278e-05 	366.959 	0.277272 	1.70011e-05 	366.872 	366.872 	0 	