TITLE = "Solution on Domain BulkDomain1D_0"
VARIABLES = "x [m]"  
"Vel_axial" 
"MF_sp(ECDMC)" 
"MF_sp(Li+)" 
"MF_sp(PF6-)" 
"Volt(Electroly)" 
"Volt(AnodeVolt)" 
"Temperature" 
"Potential Drop Electrode-Electrolyte [V]" 
"Surf_0 Equilibrium Potential Drop Electrode-Electrolyte [V]" 
"Overpotential_0 [V]" 
"Current Source [A/m^2]" 
"Li+ flux [kmol/m^2/s]" 
"Electrolyte Current [A/m^2]" 
"Electrode Current [A/m^2]" 
"CV Capacity discharged [A-s/m^2]" 
"Depth of discharge in CV [A-s/m^2]" 
"CV Capacity remaining [A-s/m^2]" 
"Initial CV capacity [A-s/m^2]" 
"Porosity []" 
"Surface Area [m2/m2] (area per area)" 
"Specific current (per particle area) [A/m^2]" 
"Control volume thickness [m]" 
"MoleDens Li_C6-bulk [kmol/m^3]" 
"MoleDens V_C6-bulk [kmol/m^3]" 
"qHeat_accum [J/m3]" 
"qHeat_step [W/m3]" 
"Joule_Lyte [W/m3]" 
"Joule_Solid [W/m3]" 
"electrodHeat [W/m3]" 
"OverpotHeat [W/m3]" 
"deltaSHeat [W/m3]" 

ZONE T = "ANOD, 0.0000E+00", I = 10, SOLUTIONTIME = 0.000000E+00
ZONETYPE = ORDERED
DATAPACKING = BLOCK
STRANDID = 1
 0.0000000000000E+00  8.7488888888889E-05  1.7497777777778E-04  2.6246666666667E-04  3.4995555555556E-04  4.3744444444444E-04  5.2493333333333E-04  6.1242222222222E-04  6.9991111111111E-04  7.8740000000000E-04 
 0.0000000000000E+00  0.0000000000000E+00  0.0000000000000E+00  0.0000000000000E+00  0.0000000000000E+00  0.0000000000000E+00  0.0000000000000E+00  0.0000000000000E+00  0.0000000000000E+00  0.0000000000000E+00 
 9.2000000000000E-01  9.2000000000000E-01  9.2000000000000E-01  9.2000000000000E-01  9.2000000000000E-01  9.2000000000000E-01  9.2000000000000E-01  9.2000000000000E-01  9.2000000000000E-01  9.2000000000000E-01 
 4.0000000000000E-02  4.0000000000000E-02  4.0000000000000E-02  4.0000000000000E-02  4.0000000000000E-02  4.0000000000000E-02  4.0000000000000E-02  4.0000000000000E-02  4.0000000000000E-02  4.0000000000000E-02 
 4.0000000000000E-02  4.0000000000000E-02  4.0000000000000E-02  4.0000000000000E-02  4.0000000000000E-02  4.0000000000000E-02  4.0000000000000E-02  4.0000000000000E-02  4.0000000000000E-02  4.0000000000000E-02 
-7.0000000000000E-02 -7.0000000000000E-02 -7.0000000000000E-02 -7.0000000000000E-02 -7.0000000000000E-02 -7.0000000000000E-02 -7.0000000000000E-02 -7.0000000000000E-02 -7.0000000000000E-02 -7.0000000000000E-02 
 0.0000000000000E+00  0.0000000000000E+00  0.0000000000000E+00  0.0000000000000E+00  0.0000000000000E+00  0.0000000000000E+00  0.0000000000000E+00  0.0000000000000E+00  0.0000000000000E+00  0.0000000000000E+00 
 2.9815000000000E+02  2.9815000000000E+02  2.9815000000000E+02  2.9815000000000E+02  2.9815000000000E+02  2.9815000000000E+02  2.9815000000000E+02  2.9815000000000E+02  2.9815000000000E+02  2.9815000000000E+02 
 7.0000000000000E-02  7.0000000000000E-02  7.0000000000000E-02  7.0000000000000E-02  7.0000000000000E-02  7.0000000000000E-02  7.0000000000000E-02  7.0000000000000E-02  7.0000000000000E-02  7.0000000000000E-02 
-4.0906712753391E-02 -4.0906712753391E-02 -4.0906712753391E-02 -4.0906712753391E-02 -4.0906712753391E-02 -4.0906712753391E-02 -4.0906712753391E-02 -4.0906712753391E-02 -4.0906712753391E-02 -4.0906712753391E-02 
 1.1090671275339E-01  1.1090671275339E-01  1.1090671275339E-01  1.1090671275339E-01  1.1090671275339E-01  1.1090671275339E-01  1.1090671275339E-01  1.1090671275339E-01  1.1090671275339E-01  1.1090671275339E-01 
 3.0930240924008E+01  6.1860481848017E+01  6.1860481848017E+01  6.1860481848017E+01  6.1860481848017E+01  6.1860481848017E+01  6.1860481848017E+01  6.1860481848017E+01  6.1860481848017E+01  3.0930240924008E+01 
-0.0000000000000E+00 -0.0000000000000E+00 -0.0000000000000E+00 -0.0000000000000E+00 -0.0000000000000E+00 -0.0000000000000E+00 -0.0000000000000E+00 -0.0000000000000E+00 -0.0000000000000E+00 -0.0000000000000E+00 
 0.0000000000000E+00  0.0000000000000E+00  0.0000000000000E+00  0.0000000000000E+00  0.0000000000000E+00  0.0000000000000E+00  0.0000000000000E+00  0.0000000000000E+00  0.0000000000000E+00  3.0930240924008E+01 
 3.0930240924008E+01 -0.0000000000000E+00 -0.0000000000000E+00 -0.0000000000000E+00 -0.0000000000000E+00 -0.0000000000000E+00 -0.0000000000000E+00 -0.0000000000000E+00 -0.0000000000000E+00  0.0000000000000E+00 
 0.0000000000000E+00  0.0000000000000E+00  0.0000000000000E+00  0.0000000000000E+00  0.0000000000000E+00  0.0000000000000E+00  0.0000000000000E+00  0.0000000000000E+00  0.0000000000000E+00  0.0000000000000E+00 
 4.5724222271641E+04  9.1448444543281E+04  9.1448444543281E+04  9.1448444543281E+04  9.1448444543281E+04  9.1448444543281E+04  9.1448444543281E+04  9.1448444543281E+04  9.1448444543281E+04  4.5724222271641E+04 
 3.3835924481014E+05  6.7671848962028E+05  6.7671848962028E+05  6.7671848962028E+05  6.7671848962028E+05  6.7671848962028E+05  6.7671848962028E+05  6.7671848962028E+05  6.7671848962028E+05  3.3835924481014E+05 
 3.8408346708178E+05  7.6816693416356E+05  7.6816693416356E+05  7.6816693416356E+05  7.6816693416356E+05  7.6816693416356E+05  7.6816693416356E+05  7.6816693416356E+05  7.6816693416356E+05  3.8408346708178E+05 
 3.5000000000000E-01  3.5000000000000E-01  3.5000000000000E-01  3.5000000000000E-01  3.5000000000000E-01  3.5000000000000E-01  3.5000000000000E-01  3.5000000000000E-01  3.5000000000000E-01  3.5000000000000E-01 
 8.5301666666667E+00  1.7060333333333E+01  1.7060333333333E+01  1.7060333333333E+01  1.7060333333333E+01  1.7060333333333E+01  1.7060333333333E+01  1.7060333333333E+01  1.7060333333333E+01  8.5301666666667E+00 
 3.6259831879809E+00  3.6259831879809E+00  3.6259831879809E+00  3.6259831879809E+00  3.6259831879809E+00  3.6259831879809E+00  3.6259831879809E+00  3.6259831879809E+00  3.6259831879809E+00  3.6259831879809E+00 
 4.3744444444444E-05  8.7488888888889E-05  8.7488888888889E-05  8.7488888888889E-05  8.7488888888889E-05  8.7488888888889E-05  8.7488888888889E-05  8.7488888888889E-05  8.7488888888889E-05  4.3744444444444E-05 
 8.6666666666667E+01  8.6666666666667E+01  8.6666666666667E+01  8.6666666666667E+01  8.6666666666667E+01  8.6666666666667E+01  8.6666666666667E+01  8.6666666666667E+01  8.6666666666667E+01  8.6666666666667E+01 
 2.1666666666667E+01  2.1666666666667E+01  2.1666666666667E+01  2.1666666666667E+01  2.1666666666667E+01  2.1666666666667E+01  2.1666666666667E+01  2.1666666666667E+01  2.1666666666667E+01  2.1666666666667E+01 
 0.0000000000000E+00  0.0000000000000E+00  0.0000000000000E+00  0.0000000000000E+00  0.0000000000000E+00  0.0000000000000E+00  0.0000000000000E+00  0.0000000000000E+00  0.0000000000000E+00  0.0000000000000E+00 
 0.0000000000000E+00  0.0000000000000E+00  0.0000000000000E+00  0.0000000000000E+00  0.0000000000000E+00  0.0000000000000E+00  0.0000000000000E+00  0.0000000000000E+00  0.0000000000000E+00  0.0000000000000E+00 
 0.0000000000000E+00  0.0000000000000E+00  0.0000000000000E+00  0.0000000000000E+00  0.0000000000000E+00  0.0000000000000E+00  0.0000000000000E+00  0.0000000000000E+00  0.0000000000000E+00  0.0000000000000E+00 
 0.0000000000000E+00  0.0000000000000E+00  0.0000000000000E+00  0.0000000000000E+00  0.0000000000000E+00  0.0000000000000E+00  0.0000000000000E+00  0.0000000000000E+00  0.0000000000000E+00  0.0000000000000E+00 
 0.0000000000000E+00  0.0000000000000E+00  0.0000000000000E+00  0.0000000000000E+00  0.0000000000000E+00  0.0000000000000E+00  0.0000000000000E+00  0.0000000000000E+00  0.0000000000000E+00  0.0000000000000E+00 
 0.0000000000000E+00  0.0000000000000E+00  0.0000000000000E+00  0.0000000000000E+00  0.0000000000000E+00  0.0000000000000E+00  0.0000000000000E+00  0.0000000000000E+00  0.0000000000000E+00  0.0000000000000E+00 
 0.0000000000000E+00  0.0000000000000E+00  0.0000000000000E+00  0.0000000000000E+00  0.0000000000000E+00  0.0000000000000E+00  0.0000000000000E+00  0.0000000000000E+00  0.0000000000000E+00  0.0000000000000E+00 
ZONE T = "ANOD, 1.0000E-08", I = 10, SOLUTIONTIME = 1.000000E-08
ZONETYPE = ORDERED
DATAPACKING = BLOCK
STRANDID = 1
 0.0000000000000E+00  8.7488888888889E-05  1.7497777777778E-04  2.6246666666667E-04  3.4995555555556E-04  4.3744444444444E-04  5.2493333333333E-04  6.1242222222222E-04  6.9991111111111E-04  7.8740000000000E-04 
 1.1699574957499E-09  3.4871529879010E-09  5.8040698771024E-09  8.1209982569758E-09  1.0437948109553E-08  1.2754925917155E-08  1.5072301348141E-08  1.7389354350222E-08  1.9706454562460E-08  2.0865758162723E-08 
 9.1999999999930E-01  9.1999999999930E-01  9.1999999999930E-01  9.1999999999930E-01  9.1999999999930E-01  9.1999999999930E-01  9.1999999999930E-01  9.1999999999930E-01  9.1999999999930E-01  9.1999999999971E-01 
 4.0000000000352E-02  4.0000000000348E-02  4.0000000000348E-02  4.0000000000348E-02  4.0000000000348E-02  4.0000000000348E-02  4.0000000000348E-02  4.0000000000348E-02  4.0000000000348E-02  4.0000000000144E-02 
 4.0000000000352E-02  4.0000000000348E-02  4.0000000000348E-02  4.0000000000348E-02  4.0000000000348E-02  4.0000000000348E-02  4.0000000000348E-02  4.0000000000348E-02  4.0000000000348E-02  4.0000000000144E-02 
 2.9172734108571E-02  2.9172718231368E-02  2.9172670911890E-02  2.9172592152718E-02  2.9172481953651E-02  2.9172340314396E-02  2.9172167234573E-02  2.9171962713716E-02  2.9171726751271E-02  2.9171459346597E-02 
 0.0000000000000E+00 -4.7349891951553E-09 -8.9128798071480E-09 -1.2533738817513E-08 -1.5597563463670E-08 -1.8104348583166E-08 -2.0054087455074E-08 -2.1446771805170E-08 -2.2282391829470E-08 -2.2560936177742E-08 
 2.9819800356644E+02  2.9815060799855E+02  2.9815000611934E+02  2.9814999857131E+02  2.9814999846913E+02  2.9814999848330E+02  2.9814999856465E+02  2.9814999851224E+02  2.9814999846938E+02  2.9814999952140E+02 
-2.9172734108571E-02 -2.9172722966358E-02 -2.9172679824770E-02 -2.9172604686457E-02 -2.9172497551214E-02 -2.9172358418744E-02 -2.9172187288660E-02 -2.9171984160487E-02 -2.9171749033662E-02 -2.9171481907533E-02 
-4.0940234614664E-02 -4.0907137318444E-02 -4.0906717026222E-02 -4.0906711755430E-02 -4.0906711684089E-02 -4.0906711693982E-02 -4.0906711750788E-02 -4.0906711714192E-02 -4.0906711684265E-02 -4.0906712419020E-02 
 1.1767500506092E-02  1.1734414352087E-02  1.1734037201453E-02  1.1734107068973E-02  1.1734214132875E-02  1.1734353275238E-02  1.1734524462128E-02  1.1734727553705E-02  1.1734962650603E-02  1.1735230511487E-02 
 1.6848430179565E+00  3.3369679404385E+00  3.3365667275197E+00  3.3365832753714E+00  3.3366141966649E+00  3.3366544539278E+00  3.3367040135066E+00  3.3367627374487E+00  3.3368307244386E+00  1.6684543603456E+00 
 8.7310272955228E-09  2.6023529769394E-08  4.3313954302046E-08  6.0604464597319E-08  7.7895135135798E-08  9.5186014296949E-08  1.1247715028821E-07  1.2976859060283E-07  1.4706045531941E-07  1.4706045531941E-07 
 0.0000000000000E+00  3.3533050142403E+00  6.6900504788712E+00  1.0026603612003E+01  1.3363180480134E+01  1.6699792938045E+01  2.0036450305475E+01  2.3373161816204E+01  2.6709936682898E+01  3.0046795473310E+01 
 3.0046795578471E+01  2.6693479525417E+01  2.3356734060444E+01  2.0020180926949E+01  1.6683604058511E+01  1.3346991600141E+01  1.0010334232296E+01  6.6736227214291E+00  3.3368478550954E+00  0.0000000000000E+00 
 1.6848430179565E-08  3.3369679404385E-08  3.3365667275197E-08  3.3365832753714E-08  3.3366141966649E-08  3.3366544539278E-08  3.3367040135066E-08  3.3367627374487E-08  3.3368307244386E-08  1.6684543603456E-08 
 4.5724222271657E+04  9.1448444543315E+04  9.1448444543315E+04  9.1448444543315E+04  9.1448444543315E+04  9.1448444543315E+04  9.1448444543315E+04  9.1448444543315E+04  9.1448444543315E+04  4.5724222271657E+04 
 3.3835924481012E+05  6.7671848962025E+05  6.7671848962025E+05  6.7671848962025E+05  6.7671848962025E+05  6.7671848962025E+05  6.7671848962025E+05  6.7671848962025E+05  6.7671848962025E+05  3.3835924481012E+05 
 3.8408346708178E+05  7.6816693416356E+05  7.6816693416356E+05  7.6816693416356E+05  7.6816693416356E+05  7.6816693416356E+05  7.6816693416356E+05  7.6816693416356E+05  7.6816693416356E+05  3.8408346708178E+05 
 3.5000000000000E-01  3.5000000000000E-01  3.5000000000000E-01  3.5000000000000E-01  3.5000000000000E-01  3.5000000000000E-01  3.5000000000000E-01  3.5000000000000E-01  3.5000000000000E-01  3.5000000000000E-01 
 8.5301666666667E+00  1.7060333333333E+01  1.7060333333333E+01  1.7060333333333E+01  1.7060333333333E+01  1.7060333333333E+01  1.7060333333333E+01  1.7060333333333E+01  1.7060333333333E+01  8.5301666666667E+00 
 1.9751583805980E-01  1.9559805047411E-01  1.9557453317753E-01  1.9557550313816E-01  1.9557731560530E-01  1.9557967530497E-01  1.9558258026455E-01  1.9558602239789E-01  1.9559000748942E-01  1.9559457927891E-01 
 4.3744444444444E-05  8.7488888888889E-05  8.7488888888889E-05  8.7488888888889E-05  8.7488888888889E-05  8.7488888888889E-05  8.7488888888889E-05  8.7488888888889E-05  8.7488888888889E-05  4.3744444444444E-05 
 8.6666666666663E+01  8.6666666666663E+01  8.6666666666663E+01  8.6666666666663E+01  8.6666666666663E+01  8.6666666666663E+01  8.6666666666663E+01  8.6666666666663E+01  8.6666666666663E+01  8.6666666666663E+01 
 2.1666666666671E+01  2.1666666666671E+01  2.1666666666671E+01  2.1666666666671E+01  2.1666666666671E+01  2.1666666666671E+01  2.1666666666671E+01  2.1666666666671E+01  2.1666666666671E+01  2.1666666666671E+01 
-7.5673994128560E-05 -7.4934605723406E-05 -7.4925488179112E-05 -7.4925773074476E-05 -7.4926344853632E-05 -7.4927089680533E-05 -7.4928006792463E-05 -7.4929093069307E-05 -7.4930350737836E-05 -7.4931904643041E-05 
-7.5673994128560E+03 -7.4934605723406E+03 -7.4925488179112E+03 -7.4925773074476E+03 -7.4926344853632E+03 -7.4927089680533E+03 -7.4928006792463E+03 -7.4929093069307E+03 -7.4930350737836E+03 -7.4931904643041E+03 
 3.0575789999925E-04  1.5109252267833E-03  5.1202073711024E-03  1.1127469762074E-02  1.9532837513275E-02  3.0336402235453E-02  4.3538280837866E-02  5.9138616609482E-02  7.7137579397693E-02  8.6736740472287E-02 
 1.5349782198983E-03  1.3650034972546E-03  1.0463191596219E-03  7.7014274404141E-04  5.3645186144621E-04  3.4524679863594E-04  1.9652855907839E-04  9.0298622809826E-05  2.6558941263634E-05  5.3119372349956E-06 
-7.5674012535921E+03 -7.4934634482694E+03 -7.4925549844377E+03 -7.4925892050601E+03 -7.4926545546526E+03 -7.4927396497023E+03 -7.4928444140557E+03 -7.4929685358459E+03 -7.4931122379219E+03 -7.4932772063565E+03 
 4.5323220625305E+02  4.4756957129963E+02  4.4750137536108E+02  4.4750625931735E+02  4.4751448967339E+02  4.4752519568806E+02  4.4753837164222E+02  4.4755399380817E+02  4.4757207938882E+02  4.4759275755741E+02 
-8.0206334598451E+03 -7.9410330195690E+03 -7.9400563597988E+03 -7.9400954643775E+03 -7.9401690443260E+03 -7.9402648453904E+03 -7.9403827856979E+03 -7.9405225296541E+03 -7.9406843173107E+03 -7.9408699639140E+03 
ZONE T = "ANOD, 2.0000E-08", I = 10, SOLUTIONTIME = 2.000000E-08
ZONETYPE = ORDERED
DATAPACKING = BLOCK
STRANDID = 1
 0.0000000000000E+00  8.7488888888889E-05  1.7497777777778E-04  2.6246666666667E-04  3.4995555555556E-04  4.3744444444444E-04  5.2493333333333E-04  6.1242222222222E-04  6.9991111111111E-04  7.8740000000000E-04 
 1.1806862989322E-09  3.4973809174772E-09  5.8132419001163E-09  8.1291037412717E-09  1.0444986917938E-08  1.2760898119423E-08  1.5076843662155E-08  1.7392829980736E-08  1.9708863608743E-08  2.0866907736273E-08 
 9.1999999999859E-01  9.1999999999861E-01  9.1999999999861E-01  9.1999999999861E-01  9.1999999999861E-01  9.1999999999861E-01  9.1999999999861E-01  9.1999999999861E-01  9.1999999999861E-01  9.1999999999942E-01 
 4.0000000000706E-02  4.0000000000696E-02  4.0000000000696E-02  4.0000000000696E-02  4.0000000000696E-02  4.0000000000696E-02  4.0000000000696E-02  4.0000000000696E-02  4.0000000000696E-02  4.0000000000288E-02 
 4.0000000000706E-02  4.0000000000696E-02  4.0000000000696E-02  4.0000000000696E-02  4.0000000000696E-02  4.0000000000696E-02  4.0000000000696E-02  4.0000000000696E-02  4.0000000000696E-02  4.0000000000288E-02 
 2.9178116970756E-02  2.9178100946671E-02  2.9178053488307E-02  2.9177974604672E-02  2.9177864295616E-02  2.9177722560847E-02  2.9177549399985E-02  2.9177344812562E-02  2.9177108798027E-02  2.9176841355735E-02 
 0.0000000000000E+00 -4.7329481296265E-09 -8.9089180957867E-09 -1.2528110320665E-08 -1.5590524597858E-08 -1.8096155797896E-08 -2.0044997183070E-08 -2.1437040497082E-08 -2.2272275936630E-08 -2.2550692127612E-08 
 2.9824461145068E+02  2.9815179253806E+02  2.9815002732160E+02  2.9814999743339E+02  2.9814999699942E+02  2.9814999712085E+02  2.9814999701598E+02  2.9814999693223E+02  2.9814999707680E+02  2.9814999909252E+02 
-2.9178116970756E-02 -2.9178105679619E-02 -2.9178062397225E-02 -2.9177987132782E-02 -2.9177879886141E-02 -2.9177740657003E-02 -2.9177569444982E-02 -2.9177366249603E-02 -2.9177131070303E-02 -2.9176863906428E-02 
-4.0972783730052E-02 -4.0907964482930E-02 -4.0906731831456E-02 -4.0906710960532E-02 -4.0906710657490E-02 -4.0906710742288E-02 -4.0906710669051E-02 -4.0906710610573E-02 -4.0906710711522E-02 -4.0906712119364E-02 
 1.1794666759296E-02  1.1729858803311E-02  1.1728669434231E-02  1.1728723827750E-02  1.1728830771349E-02  1.1728970085285E-02  1.1729141224069E-02  1.1729344360970E-02  1.1729579641219E-02  1.1729848212936E-02 
 1.7002823103291E+00  3.3362247722896E+00  3.3350242702014E+00  3.3350255065334E+00  3.3350562313697E+00  3.3350965893380E+00  3.3351460434716E+00  3.3352047639408E+00  3.3352728932847E+00  1.6676757802936E+00 
 8.8110953638456E-09  2.6099857647868E-08  4.3382402240418E-08  6.0664953290481E-08  7.7947663565190E-08  9.5230582977909E-08  1.1251375866570E-07  1.2979723866071E-07  1.4708121583863E-07  1.4708121583863E-07 
 0.0000000000000E+00  3.3683946965732E+00  6.7040192179854E+00  1.0039044106345E+01  1.3374084975296E+01  1.6709161385624E+01  2.0044282701926E+01  2.3379458105763E+01  2.6714696934306E+01  3.0050009161067E+01 
 3.0050009161066E+01  2.6681614464584E+01  2.3345989943331E+01  2.0010965054964E+01  1.6675924186013E+01  1.3340847775659E+01  1.0005726459253E+01  6.6705510555475E+00  3.3353122269355E+00  0.0000000000000E+00 
 3.3851253282855E-08  6.6731927127281E-08  6.6715909977211E-08  6.6716087819048E-08  6.6716704280347E-08  6.6717510432659E-08  6.6718500569782E-08  6.6719675013895E-08  6.6721036177233E-08  3.3361301406393E-08 
 4.5724222271674E+04  9.1448444543348E+04  9.1448444543348E+04  9.1448444543348E+04  9.1448444543348E+04  9.1448444543348E+04  9.1448444543348E+04  9.1448444543348E+04  9.1448444543348E+04  4.5724222271674E+04 
 3.3835924481011E+05  6.7671848962021E+05  6.7671848962021E+05  6.7671848962021E+05  6.7671848962021E+05  6.7671848962021E+05  6.7671848962021E+05  6.7671848962021E+05  6.7671848962021E+05  3.3835924481011E+05 
 3.8408346708178E+05  7.6816693416356E+05  7.6816693416356E+05  7.6816693416356E+05  7.6816693416356E+05  7.6816693416356E+05  7.6816693416356E+05  7.6816693416356E+05  7.6816693416356E+05  3.8408346708178E+05 
 3.5000000000000E-01  3.5000000000000E-01  3.5000000000000E-01  3.5000000000000E-01  3.5000000000000E-01  3.5000000000000E-01  3.5000000000000E-01  3.5000000000000E-01  3.5000000000000E-01  3.5000000000000E-01 
 8.5301666666667E+00  1.7060333333333E+01  1.7060333333333E+01  1.7060333333333E+01  1.7060333333333E+01  1.7060333333333E+01  1.7060333333333E+01  1.7060333333333E+01  1.7060333333333E+01  8.5301666666667E+00 
 1.9932580180095E-01  1.9555448930011E-01  1.9548412126774E-01  1.9548419373596E-01  1.9548599468766E-01  1.9548836029023E-01  1.9549125906908E-01  1.9549470099885E-01  1.9549869443454E-01  1.9550330555796E-01 
 4.3744444444444E-05  8.7488888888889E-05  8.7488888888889E-05  8.7488888888889E-05  8.7488888888889E-05  8.7488888888889E-05  8.7488888888889E-05  8.7488888888889E-05  8.7488888888889E-05  4.3744444444444E-05 
 8.6666666666659E+01  8.6666666666659E+01  8.6666666666659E+01  8.6666666666659E+01  8.6666666666659E+01  8.6666666666659E+01  8.6666666666659E+01  8.6666666666659E+01  8.6666666666659E+01  8.6666666666659E+01 
 2.1666666666675E+01  2.1666666666675E+01  2.1666666666675E+01  2.1666666666675E+01  2.1666666666675E+01  2.1666666666675E+01  2.1666666666675E+01  2.1666666666675E+01  2.1666666666675E+01  2.1666666666675E+01 
-1.5204815381235E-04 -1.4985469072449E-04 -1.4981839279639E-04 -1.4981861647644E-04 -1.4981975553907E-04 -1.4982124745264E-04 -1.4982307931780E-04 -1.4982525185721E-04 -1.4982777051551E-04 -1.4983089359702E-04 
-7.6374159683786E+03 -7.4920085001082E+03 -7.4892904617273E+03 -7.4892843401967E+03 -7.4893410685435E+03 -7.4894157772106E+03 -7.4895072525334E+03 -7.4896158787907E+03 -7.4897419777671E+03 -7.4898988953980E+03 
 6.1717422071759E-04  3.0326604940720E-03  1.0260295589070E-02  2.2281549323641E-02  3.9096800582208E-02  6.0706238460427E-02  8.7110096608746E-02  1.1830866137258E-01  1.5430227309130E-01  1.7349788666192E-01 
 3.0686333888880E-03  2.7287962207209E-03  2.0916759705369E-03  1.5395766130865E-03  1.0724099520625E-03  6.9017582535543E-04  3.9287623425361E-04  1.8051414033892E-04  5.3093441998050E-05  1.0618987586636E-05 
-7.6374178134501E+03 -7.4920113856362E+03 -7.4892966471724E+03 -7.4892962637101E+03 -7.4893611684647E+03 -7.4894464919758E+03 -7.4895510206969E+03 -7.4896751390510E+03 -7.4898191689953E+03 -7.4899856618513E+03 
 4.5844137471935E+02  4.4729617683808E+02  4.4708988441664E+02  4.4709212360731E+02  4.4710031923130E+02  4.4711104033229E+02  4.4712419421854E+02  4.4713981041680E+02  4.4715791370276E+02  4.4717869937134E+02 
-8.0958591881694E+03 -7.9393075624742E+03 -7.9363865315890E+03 -7.9363883873174E+03 -7.9364614876960E+03 -7.9365575323081E+03 -7.9366752149154E+03 -7.9368149494678E+03 -7.9369770826981E+03 -7.9371643612226E+03 
ZONE T = "ANOD, 3.0000E-08", I = 10, SOLUTIONTIME = 3.000000E-08
ZONETYPE = ORDERED
DATAPACKING = BLOCK
STRANDID = 1
 0.0000000000000E+00  8.7488888888889E-05  1.7497777777778E-04  2.6246666666667E-04  3.4995555555556E-04  4.3744444444444E-04  5.2493333333333E-04  6.1242222222222E-04  6.9991111111111E-04  7.8740000000000E-04 
 1.1911678202206E-09  3.5076039426564E-09  5.8224017092040E-09  8.1371798737516E-09  1.0451978895579E-08  1.2767895648961E-08  1.5083846670924E-08  1.7398748881369E-08  1.9713698401849E-08  2.0871200751251E-08 
 9.1999999999787E-01  9.1999999999791E-01  9.1999999999791E-01  9.1999999999791E-01  9.1999999999791E-01  9.1999999999791E-01  9.1999999999791E-01  9.1999999999791E-01  9.1999999999791E-01  9.1999999999914E-01 
 4.0000000001064E-02  4.0000000001044E-02  4.0000000001044E-02  4.0000000001044E-02  4.0000000001044E-02  4.0000000001044E-02  4.0000000001044E-02  4.0000000001044E-02  4.0000000001044E-02  4.0000000000432E-02 
 4.0000000001064E-02  4.0000000001044E-02  4.0000000001044E-02  4.0000000001044E-02  4.0000000001044E-02  4.0000000001044E-02  4.0000000001044E-02  4.0000000001044E-02  4.0000000001044E-02  4.0000000000432E-02 
 2.9183511153445E-02  2.9183494985833E-02  2.9183447388604E-02  2.9183368380667E-02  2.9183257962022E-02  2.9183116132375E-02  2.9182942891346E-02  2.9182738238468E-02  2.9182502173187E-02  2.9182234694862E-02 
 0.0000000000000E+00 -4.7309363601506E-09 -8.9049567042959E-09 -1.2522454924858E-08 -1.5583435734536E-08 -1.8087894118836E-08 -2.0035823319964E-08 -2.1427215099090E-08 -2.2262059644301E-08 -2.2540345581350E-08 
 2.9828987869619E+02  2.9815352203992E+02  2.9815006976625E+02  2.9814999691671E+02  2.9814999543422E+02  2.9814999569181E+02  2.9814999540212E+02  2.9814999536763E+02  2.9814999549434E+02  2.9814999865391E+02 
-2.9183511153445E-02 -2.9183499716769E-02 -2.9183456293560E-02 -2.9183380903122E-02 -2.9183273545458E-02 -2.9183134220270E-02 -2.9182962927169E-02 -2.9182759665683E-02 -2.9182524435247E-02 -2.9182257235208E-02 
-4.1004398375739E-02 -4.0909172197162E-02 -4.0906761470243E-02 -4.0906710599432E-02 -4.0906709564206E-02 -4.0906709744087E-02 -4.0906709541791E-02 -4.0906709517708E-02 -4.0906709606192E-02 -4.0906711812908E-02 
 1.1820887222295E-02  1.1725672480393E-02  1.1723305176682E-02  1.1723329696310E-02  1.1723436018748E-02  1.1723575523818E-02  1.1723746614622E-02  1.1723949852025E-02  1.1724185170945E-02  1.1724454577700E-02 
 1.7153765360284E+00  3.3358525173207E+00  3.3334931543467E+00  3.3334649259039E+00  3.3334949620500E+00  3.3335354403417E+00  3.3335847898318E+00  3.3336435618758E+00  3.3337116920962E+00  1.6668955766388E+00 
 8.8893191672328E-09  2.6176148968391E-08  4.3450759025737E-08  6.0725222934036E-08  7.7999842499679E-08  9.5274671832116E-08  1.1254975689217E-07  1.2982514652600E-07  1.4710110537012E-07  1.4710110537012E-07 
 0.0000000000000E+00  3.3833027947127E+00  6.7179756305563E+00  1.0051454670612E+01  1.3384934614618E+01  1.6718449815824E+01  2.0052009931002E+01  2.3385624106679E+01  2.6719301733637E+01  3.0053053156530E+01 
 3.0053053156430E+01  2.6669750361742E+01  2.3335077525910E+01  2.0001598485785E+01  1.6668118541808E+01  1.3334603340612E+01  1.0001043225526E+01  6.6674290496733E+00  3.3337514226869E+00  0.0000000000000E+00 
 5.1005018643140E-08  1.0009045230049E-07  1.0005084152068E-07  1.0005073707809E-07  1.0005165390085E-07  1.0005286483608E-07  1.0005434846810E-07  1.0005611063265E-07  1.0005815309820E-07  5.0030257172780E-08 
 4.5724222271692E+04  9.1448444543381E+04  9.1448444543381E+04  9.1448444543381E+04  9.1448444543381E+04  9.1448444543381E+04  9.1448444543381E+04  9.1448444543381E+04  9.1448444543381E+04  4.5724222271691E+04 
 3.3835924481009E+05  6.7671848962018E+05  6.7671848962018E+05  6.7671848962018E+05  6.7671848962018E+05  6.7671848962018E+05  6.7671848962018E+05  6.7671848962018E+05  6.7671848962018E+05  3.3835924481009E+05 
 3.8408346708178E+05  7.6816693416356E+05  7.6816693416356E+05  7.6816693416356E+05  7.6816693416356E+05  7.6816693416356E+05  7.6816693416356E+05  7.6816693416356E+05  7.6816693416356E+05  3.8408346708178E+05 
 3.5000000000000E-01  3.5000000000000E-01  3.5000000000000E-01  3.5000000000000E-01  3.5000000000000E-01  3.5000000000000E-01  3.5000000000000E-01  3.5000000000000E-01  3.5000000000000E-01  3.5000000000000E-01 
 8.5301666666667E+00  1.7060333333333E+01  1.7060333333333E+01  1.7060333333333E+01  1.7060333333333E+01  1.7060333333333E+01  1.7060333333333E+01  1.7060333333333E+01  1.7060333333333E+01  8.5301666666667E+00 
 2.0109531302965E-01  1.9553266938829E-01  1.9539437414353E-01  1.9539271951919E-01  1.9539448010297E-01  1.9539685275835E-01  1.9539974540348E-01  1.9540319035633E-01  1.9540718384339E-01  1.9541184150041E-01 
 4.3744444444444E-05  8.7488888888889E-05  8.7488888888889E-05  8.7488888888889E-05  8.7488888888889E-05  8.7488888888889E-05  8.7488888888889E-05  8.7488888888889E-05  8.7488888888889E-05  4.3744444444444E-05 
 8.6666666666655E+01  8.6666666666655E+01  8.6666666666655E+01  8.6666666666655E+01  8.6666666666655E+01  8.6666666666655E+01  8.6666666666655E+01  8.6666666666655E+01  8.6666666666655E+01  8.6666666666655E+01 
 2.1666666666679E+01  2.1666666666679E+01  2.1666666666679E+01  2.1666666666679E+01  2.1666666666679E+01  2.1666666666679E+01  2.1666666666679E+01  2.1666666666679E+01  2.1666666666679E+01  2.1666666666679E+01 
-2.2910697020646E-04 -2.2476864106332E-04 -2.2467897302885E-04 -2.2467846952010E-04 -2.2468016024770E-04 -2.2468240195292E-04 -2.2468514623281E-04 -2.2468840626722E-04 -2.2469218604266E-04 -2.2469689635033E-04 
-7.7058816394115E+03 -7.4913950338833E+03 -7.4860580232468E+03 -7.4859853043658E+03 -7.4860404708637E+03 -7.4861154500278E+03 -7.4862066915014E+03 -7.4863154410008E+03 -7.4864415527156E+03 -7.4866002753309E+03 
 9.3416924722144E-04  4.5651868046718E-03  1.5420288558881E-02  3.3462203061838E-02  5.8691752270730E-02  9.1109235020552E-02  1.3071500187851E-01  1.7750948211832E-01  2.3149318682495E-01  2.6028241430262E-01 
 4.6009850553483E-03  4.0913799165514E-03  3.1360558536138E-03  2.3082903514924E-03  1.6078664183806E-03  1.0347820262913E-03  5.8904014858505E-04  2.7064523008199E-04  7.9603112868620E-05  1.5921073410318E-05 
-7.7058834887582E+03 -7.4913979289933E+03 -7.4860642276196E+03 -7.4859972537333E+03 -7.4860606012719E+03 -7.4861461976305E+03 -7.4862504925706E+03 -7.4863747319526E+03 -7.4865187701390E+03 -7.4866870651606E+03 
 4.6353937817885E+02  4.4708664789901E+02  4.4668023619735E+02  4.4667738788902E+02  4.4668546375972E+02  4.4669620329214E+02  4.4670933522456E+02  4.4672495491786E+02  4.4674305139551E+02  4.4676396562870E+02 
-8.1694228669371E+03 -7.9384845768923E+03 -7.9327444638170E+03 -7.9326746416223E+03 -7.9327460650316E+03 -7.9328424009227E+03 -7.9329598277951E+03 -7.9330996868705E+03 -7.9332618215345E+03 -7.9334510307893E+03 
ZONE T = "ANOD, 4.0000E-08", I = 10, SOLUTIONTIME = 4.000000E-08
ZONETYPE = ORDERED
DATAPACKING = BLOCK
STRANDID = 1
 0.0000000000000E+00  8.7488888888889E-05  1.7497777777778E-04  2.6246666666667E-04  3.4995555555556E-04  4.3744444444444E-04  5.2493333333333E-04  6.1242222222222E-04  6.9991111111111E-04  7.8740000000000E-04 
 1.2014154655482E-09  3.5178365025179E-09  5.8315817563645E-09  8.1452743245042E-09  1.0458986849773E-08  1.2771637874023E-08  1.5084323213392E-08  1.7398139000253E-08  1.9712002107977E-08  2.0869687903194E-08 
 9.1999999999715E-01  9.1999999999722E-01  9.1999999999722E-01  9.1999999999722E-01  9.1999999999722E-01  9.1999999999722E-01  9.1999999999722E-01  9.1999999999722E-01  9.1999999999722E-01  9.1999999999885E-01 
 4.0000000001425E-02  4.0000000001392E-02  4.0000000001391E-02  4.0000000001391E-02  4.0000000001391E-02  4.0000000001391E-02  4.0000000001391E-02  4.0000000001391E-02  4.0000000001391E-02  4.0000000000576E-02 
 4.0000000001425E-02  4.0000000001392E-02  4.0000000001391E-02  4.0000000001391E-02  4.0000000001391E-02  4.0000000001391E-02  4.0000000001391E-02  4.0000000001391E-02  4.0000000001391E-02  4.0000000000576E-02 
 2.9188917326456E-02  2.9188901018489E-02  2.9188853282222E-02  2.9188774149706E-02  2.9188663621223E-02  2.9188521696481E-02  2.9188348375100E-02  2.9188143656613E-02  2.9187907540467E-02  2.9187640026017E-02 
 0.0000000000000E+00 -4.7289821318122E-09 -8.9010518744568E-09 -1.2516852537914E-08 -1.5576396788846E-08 -1.8079679829174E-08 -2.0026694897785E-08 -2.1417433744662E-08 -2.2251886554852E-08 -2.2530041951505E-08 