TITLE = "Solution on Domain BulkDomain1D_0"
VARIABLES = "x [m]"  
"Vel_axial" 	"MF_sp(ECDMC)" 	"MF_sp(Li+)" 	"MF_sp(PF6-)" 	"Volt(Electroly)" 	"Volt(AnodeVolt)" 	"Temperature" 	
"Potential Drop Electrode-Electrolyte [V]" 	"Surf_0 Equilibrium Potential Drop Electrode-Electrolyte [V]" 	"Overpotential_0 [V]" 	"Current Source [A/m^2]" 	"Li+ flux [kmol/m^2/s]" 	"Electrolyte Current [A/m^2]" 	"Electrode Current [A/m^2]" 	
"Capacity discharged [A-s]" 	"Depth of discharge [-]" 	"Capacity remaining [A-s]" 	"Initial capacity [A-s]" 	"Porosity []" 	"Surface Area [m2/m2] (area per area)" 	"Specific current (per particle area) [A/m^2]" 	"Control volume thickness [m]" 	
"Moles Li_C6-bulk [mol/m^2] (per electrode area)" 	"Moles V_C6-bulk [mol/m^2] (per electrode area)" 	"qHeat_accum [J/m3]" 	"qHeat_step [W/m3]" 	"Joule_Lyte [W/m3]" 	"Joule_Solid [W/m3]" 	"electrodHeat [W/m3]" 	"OverpotHeat [W/m3]" 	"deltaSHeat [W/m3]" 	

ZONE T = "t = 0 [s]" I = 10 SOLUTIONTIME = 0.0000000000000E+00
0 	0 	0.92 	0.04 	0.04 	-0.07 	0 	298.15 	
0 	0 	0 	0 	0 	0 	15.4651 	
0 	0 	0 	0 	0.35 	8.53017 	3.62598 	4.37444e-05 	
0.00379119 	0.000947796 	0 	0.0 	 0.0 	 0.0 	 0.0 	 0.0 	 0.0 	 
8.74889e-05 	0 	0.92 	0.04 	0.04 	-0.07 	0 	298.15 	
0 	0 	0 	0 	0 	0 	-0 	
0 	0 	0 	0 	0.35 	17.0603 	3.62598 	8.74889e-05 	
0.00758237 	0.00189559 	0 	0.0 	 0.0 	 0.0 	 0.0 	 0.0 	 0.0 	 
0.000174978 	0 	0.92 	0.04 	0.04 	-0.07 	0 	298.15 	
0 	0 	0 	0 	0 	0 	-0 	
0 	0 	0 	0 	0.35 	17.0603 	3.62598 	8.74889e-05 	
0.00758237 	0.00189559 	0 	0.0 	 0.0 	 0.0 	 0.0 	 0.0 	 0.0 	 
0.000262467 	0 	0.92 	0.04 	0.04 	-0.07 	0 	298.15 	
0 	0 	0 	0 	0 	0 	-0 	
0 	0 	0 	0 	0.35 	17.0603 	3.62598 	8.74889e-05 	
0.00758237 	0.00189559 	0 	0.0 	 0.0 	 0.0 	 0.0 	 0.0 	 0.0 	 
0.000349956 	0 	0.92 	0.04 	0.04 	-0.07 	0 	298.15 	
0 	0 	0 	0 	0 	0 	-0 	
0 	0 	0 	0 	0.35 	17.0603 	3.62598 	8.74889e-05 	
0.00758237 	0.00189559 	0 	0.0 	 0.0 	 0.0 	 0.0 	 0.0 	 0.0 	 
0.000437444 	0 	0.92 	0.04 	0.04 	-0.07 	0 	298.15 	
0 	0 	0 	0 	0 	0 	-0 	
0 	0 	0 	0 	0.35 	17.0603 	3.62598 	8.74889e-05 	
0.00758237 	0.00189559 	0 	0.0 	 0.0 	 0.0 	 0.0 	 0.0 	 0.0 	 
0.000524933 	0 	0.92 	0.04 	0.04 	-0.07 	0 	298.15 	
0 	0 	0 	0 	0 	0 	-0 	
0 	0 	0 	0 	0.35 	17.0603 	3.62598 	8.74889e-05 	
0.00758237 	0.00189559 	0 	0.0 	 0.0 	 0.0 	 0.0 	 0.0 	 0.0 	 
0.000612422 	0 	0.92 	0.04 	0.04 	-0.07 	0 	298.15 	
0 	0 	0 	0 	0 	0 	-0 	
0 	0 	0 	0 	0.35 	17.0603 	3.62598 	8.74889e-05 	
0.00758237 	0.00189559 	0 	0.0 	 0.0 	 0.0 	 0.0 	 0.0 	 0.0 	 
0.000699911 	0 	0.92 	0.04 	0.04 	-0.07 	0 	298.15 	
0 	0 	0 	0 	0 	0 	-0 	
0 	0 	0 	0 	0.35 	17.0603 	3.62598 	8.74889e-05 	
0.00758237 	0.00189559 	0 	0.0 	 0.0 	 0.0 	 0.0 	 0.0 	 0.0 	 
0.0007874 	0 	0.92 	0.04 	0.04 	-0.07 	0 	298.15 	
0 	0 	0 	0 	0 	15.4651 	0 	
0 	0 	0 	0 	0.35 	8.53017 	3.62598 	4.37444e-05 	
0.00379119 	0.000947796 	0 	0.0 	 0.0 	 0.0 	 0.0 	 0.0 	 0.0 	 
ZONE T = "t = 1e-08 [s]" I = 10 SOLUTIONTIME = 1.0000000000000E-08
0 	2.63504e-09 	0.92 	0.04 	0.04 	0.0413425 	0 	307.361 	
0.07 	-0.0409067 	0.110907 	30.9302 	-0 	1.89889 	43.7054 	
0 	45724.2 	848.03 	962.628 	0.35 	8.53017 	0.366376 	4.37444e-05 	
0.00379119 	0.000947796 	4.1516e+06 	4.1516e+14 	0.00160047 	0.00338903 	4.1516e+14 	4.1516e+14 	0 	
8.74889e-05 	7.45315e-09 	0.92 	0.04 	0.04 	0.0413425 	-7.03567e-09 	307.001 	
0.07 	-0.0409067 	0.110907 	61.8605 	-0 	7.26819 	38.6735 	
0 	91448.4 	1696.06 	1925.26 	0.35 	17.0603 	0.334048 	8.74889e-05 	
0.00758237 	0.00189559 	3.9896e+06 	3.9896e+14 	0.00719091 	0.00287699 	3.9896e+14 	3.9896e+14 	0 	
0.000174978 	1.18491e-08 	0.92 	0.04 	0.04 	0.0413424 	-1.2913e-08 	306.642 	
0.07 	-0.0409067 	0.110907 	61.8605 	-0 	13.9033 	32.039 	
0 	91448.4 	1696.06 	1925.26 	0.35 	17.0603 	0.303962 	8.74889e-05 	
0.00758237 	0.00189559 	3.8276e+06 	3.8276e+14 	0.022516 	0.00197791 	3.8276e+14 	3.8276e+14 	0 	
0.000262467 	1.58511e-08 	0.92 	0.04 	0.04 	0.0413422 	-1.77334e-08 	306.283 	
0.07 	-0.0409067 	0.110907 	61.8605 	-0 	19.9475 	25.9921 	
0 	91448.4 	1696.06 	1925.26 	0.35 	17.0603 	0.275982 	8.74889e-05 	
0.00758237 	0.00189559 	3.6656e+06 	3.6656e+14 	0.0449345 	0.00130502 	3.6656e+14 	3.6656e+14 	0 	
0.000349956 	1.94857e-08 	0.92 	0.04 	0.04 	0.041342 	-2.15917e-08 	305.923 	
0.07 	-0.0409067 	0.110907 	61.8605 	-0 	25.4406 	20.4935 	
0 	91448.4 	1696.06 	1925.26 	0.35 	17.0603 	0.249979 	8.74889e-05 	
0.00758237 	0.00189559 	3.5036e+06 	3.5036e+14 	0.0722719 	0.000814492 	3.5036e+14 	3.5036e+14 	0 	
0.000437444 	2.27781e-08 	0.92 	0.04 	0.04 	0.0413417 	-2.45761e-08 	305.564 	
0.07 	-0.0409067 	0.110907 	61.8605 	-0 	30.4201 	15.5061 	
0 	91448.4 	1696.06 	1925.26 	0.35 	17.0603 	0.225833 	8.74889e-05 	
0.00758237 	0.00189559 	3.3416e+06 	3.3416e+14 	0.102753 	0.000469534 	3.3416e+14 	3.3416e+14 	0 	
0.000524933 	2.57511e-08 	0.92 	0.04 	0.04 	0.0413414 	-2.67691e-08 	305.204 	
0.07 	-0.0409067 	0.110907 	61.8605 	-0 	34.9213 	10.995 	
0 	91448.4 	1696.06 	1925.26 	0.35 	17.0603 	0.203428 	8.74889e-05 	
0.00758237 	0.00189559 	3.1796e+06 	3.1796e+14 	0.134944 	0.00023943 	3.1796e+14 	3.1796e+14 	0 	
0.000612422 	2.84274e-08 	0.92 	0.04 	0.04 	0.041341 	-2.82473e-08 	304.845 	
0.07 	-0.0409067 	0.110907 	61.8605 	-0 	38.9776 	6.92727 	
0 	91448.4 	1696.06 	1925.26 	0.35 	17.0603 	0.182656 	8.74889e-05 	
0.00758237 	0.00189559 	3.0176e+06 	3.0176e+14 	0.167699 	9.8656e-05 	3.0176e+14 	3.0176e+14 	0 	
0.000699911 	3.08276e-08 	0.92 	0.04 	0.04 	0.0413406 	-2.90821e-08 	304.486 	
0.07 	-0.0409067 	0.110907 	61.8605 	-0 	42.6204 	3.27198 	
0 	91448.4 	1696.06 	1925.26 	0.35 	17.0603 	0.163416 	8.74889e-05 	
0.00758237 	0.00189559 	2.8556e+06 	2.8556e+14 	0.200116 	2.6129e-05 	2.8556e+14 	2.8556e+14 	0 	
0.0007874 	3.18996e-08 	0.92 	0.04 	0.04 	0.0413402 	-2.93398e-08 	304.126 	
0.07 	-0.0409067 	0.110907 	30.9302 	-0 	44.9632 	0.771847 	
0 	45724.2 	848.03 	962.628 	0.35 	8.53017 	0.14561 	4.37444e-05 	
0.00379119 	0.000947796 	2.6936e+06 	2.6936e+14 	0.216142 	4.54729e-06 	2.6936e+14 	2.6936e+14 	0 	
ZONE T = "t = 2e-08 [s]" I = 10 SOLUTIONTIME = 2.0000000000000E-08
0 	2.58532e-09 	0.92 	0.04 	0.04 	0.0401951 	0 	307.361 	
-0.0413425 	-0.0473747 	0.0060322 	3.12525 	1.96806e-08 	1.86153 	44.2568 	
7.83281e-11 	45724.2 	848.03 	962.628 	0.35 	8.53017 	0.436459 	4.37444e-05 	
0.00379119 	0.000947796 	4.1516e+06 	456.772 	0.00313859 	0.0068188 	456.767 	456.767 	0 	
8.74889e-05 	7.33155e-09 	0.92 	0.04 	0.04 	0.0401951 	-7.07784e-09 	307.001 	
-0.0413425 	-0.047121 	0.0057785 	5.69898 	5.5649e-08 	7.14132 	38.977 	
1.42833e-10 	91448.4 	1696.06 	1925.26 	0.35 	17.0603 	0.400726 	8.74889e-05 	
0.00758237 	0.00189559 	3.9896e+06 	491.512 	0.0141393 	0.00579828 	491.502 	491.502 	0 	
0.000174978 	1.16844e-08 	0.92 	0.04 	0.04 	0.040195 	-1.30143e-08 	306.642 	
-0.0413424 	-0.0468673 	0.00552497 	5.1857 	8.84489e-08 	13.6935 	32.4248 	
1.29969e-10 	91448.4 	1696.06 	1925.26 	0.35 	17.0603 	0.367395 	8.74889e-05 	
0.00758237 	0.00189559 	3.8276e+06 	292.145 	0.0443694 	0.0040029 	292.121 	292.121 	0 	
0.000262467 	1.56691e-08 	0.92 	0.04 	0.04 	0.0401948 	-1.79044e-08 	306.283 	
-0.0413422 	-0.0466138 	0.00527162 	4.70835 	1.18293e-07 	19.6963 	26.422 	
1.18005e-10 	91448.4 	1696.06 	1925.26 	0.35 	17.0603 	0.336321 	8.74889e-05 	
0.00758237 	0.00189559 	3.6656e+06 	172.108 	0.0887606 	0.0026529 	172.063 	172.063 	0 	
0.000349956 	1.93093e-08 	0.92 	0.04 	0.04 	0.0401946 	-2.18366e-08 	305.923 	
-0.041342 	-0.0463604 	0.00501843 	4.26473 	1.45381e-07 	25.1871 	20.9312 	
1.06887e-10 	91448.4 	1696.06 	1925.26 	0.35 	17.0603 	0.30737 	8.74889e-05 	
0.00758237 	0.00189559 	3.5036e+06 	-841.384 	0.14313 	0.00166363 	-841.456 	-841.456 	0 	
0.000437444 	2.26313e-08 	0.92 	0.04 	0.04 	0.0401943 	-2.48933e-08 	305.564 	
-0.0413417 	-0.0461071 	0.0047654 	3.85278 	1.69901e-07 	30.201 	15.9173 	
9.65623e-11 	91448.4 	1696.06 	1925.26 	0.35 	17.0603 	0.280414 	8.74889e-05 	
0.00758237 	0.00189559 	3.3416e+06 	400.945 	0.204055 	0.000963922 	400.843 	400.843 	0 	
0.000524933 	2.56566e-08 	0.92 	0.04 	0.04 	0.040194 	-2.71513e-08 	305.204 	
-0.0413414 	-0.0458539 	0.00451253 	3.47055 	1.92032e-07 	34.7711 	11.3473 	
8.69823e-11 	91448.4 	1696.06 	1925.26 	0.35 	17.0603 	0.255333 	8.74889e-05 	
0.00758237 	0.00189559 	3.1796e+06 	697.314 	0.268755 	0.000494188 	697.18 	697.18 	0 	
0.000612422 	2.84052e-08 	0.92 	0.04 	0.04 	0.0401936 	-2.86821e-08 	304.845 	
-0.0413411 	-0.0456009 	0.0042598 	3.11617 	2.11942e-07 	38.9282 	7.19019 	
7.81007e-11 	91448.4 	1696.06 	1925.26 	0.35 	17.0603 	0.232011 	8.74889e-05 	
0.00758237 	0.00189559 	3.0176e+06 	851.326 	0.335 	0.000204783 	851.159 	851.159 	0 	
0.000699911 	3.08977e-08 	0.92 	0.04 	0.04 	0.0401932 	-2.95521e-08 	304.486 	
-0.0413407 	-0.0453479 	0.00400722 	2.78793 	2.29787e-07 	42.7015 	3.41686 	
6.98738e-11 	91448.4 	1696.06 	1925.26 	0.35 	17.0603 	0.210341 	8.74889e-05 	
0.00758237 	0.00189559 	2.8556e+06 	273.382 	0.401022 	5.45506e-05 	273.181 	273.181 	0 	
0.0007874 	3.20245e-08 	0.92 	0.04 	0.04 	0.0401928 	-2.9823e-08 	304.126 	
-0.0413402 	-0.045095 	0.00375479 	1.24208 	2.29787e-07 	45.307 	0.811308 	
3.11303e-11 	45724.2 	848.03 	962.628 	0.35 	8.53017 	0.190221 	4.37444e-05 	
0.00379119 	0.000947796 	2.6936e+06 	512.733 	0.433783 	9.57143e-06 	512.515 	512.515 	0 	
ZONE T = "t = 3e-08 [s]" I = 10 SOLUTIONTIME = 3.0000000000000E-08
0 	2.58532e-09 	0.92 	0.04 	0.04 	0.0401951 	0 	307.361 	
-0.0401951 	-0.0473747 	0.00717961 	3.72306 	1.92935e-08 	1.86153 	44.2568 	
1.71639e-10 	45724.2 	848.03 	962.628 	0.35 	8.53017 	0.436459 	4.37444e-05 	
0.00379119 	0.000947796 	4.1516e+06 	1046.53 	0.0046767 	0.0102486 	1046.53 	1046.53 	0 	
8.74889e-05 	7.33373e-09 	0.92 	0.04 	0.04 	0.0401951 	-7.07784e-09 	307.001 	
-0.0401951 	-0.047121 	0.00692591 	6.83652 	5.47212e-08 	7.14132 	38.977 	
3.14177e-10 	91448.4 	1696.06 	1925.26 	0.35 	17.0603 	0.400726 	8.74889e-05 	
0.00758237 	0.00189559 	3.9896e+06 	1071.55 	0.0210878 	0.00871957 	1071.54 	1071.54 	0 	
0.000174978 	1.16862e-08 	0.92 	0.04 	0.04 	0.040195 	-1.30143e-08 	306.642 	
-0.040195 	-0.0468673 	0.00667238 	6.26788 	8.72022e-08 	13.6935 	32.4248 	
2.87061e-10 	91448.4 	1696.06 	1925.26 	0.35 	17.0603 	0.367395 	8.74889e-05 	
0.00758237 	0.00189559 	3.8276e+06 	713.402 	0.0662227 	0.00602789 	713.379 	713.379 	0 	
0.000262467 	1.56705e-08 	0.92 	0.04 	0.04 	0.0401948 	-1.79044e-08 	306.283 	
-0.0401948 	-0.0466138 	0.00641902 	5.73775 	1.16936e-07 	19.6963 	26.422 	
2.61811e-10 	91448.4 	1696.06 	1925.26 	0.35 	17.0603 	0.336321 	8.74889e-05 	
0.00758237 	0.00189559 	3.6656e+06 	904.448 	0.132587 	0.00400079 	904.403 	904.403 	0 	
0.000349956 	1.93119e-08 	0.92 	0.04 	0.04 	0.0401946 	-2.18366e-08 	305.923 	
-0.0401946 	-0.0463604 	0.00616583 	5.24384 	1.4411e-07 	25.1871 	20.9312 	
2.38313e-10 	91448.4 	1696.06 	1925.26 	0.35 	17.0603 	0.30737 	8.74889e-05 	
0.00758237 	0.00189559 	3.5036e+06 	1115.84 	0.213989 	0.00251278 	1115.77 	1115.77 	0 	
0.000437444 	2.26335e-08 	0.92 	0.04 	0.04 	0.0401943 	-2.48933e-08 	305.564 	
-0.0401943 	-0.0461071 	0.0059128 	4.78396 	1.68901e-07 	30.201 	15.9173 	
2.16463e-10 	91448.4 	1696.06 	1925.26 	0.35 	17.0603 	0.280414 	8.74889e-05 	
0.00758237 	0.00189559 	3.3416e+06 	637.497 	0.305356 	0.00145831 	637.395 	637.395 	0 	
0.000524933 	2.56591e-08 	0.92 	0.04 	0.04 	0.040194 	-2.71513e-08 	305.204 	
-0.040194 	-0.0458539 	0.00565992 	4.35606 	1.91475e-07 	34.7711 	11.3473 	
1.96158e-10 	91448.4 	1696.06 	1925.26 	0.35 	17.0603 	0.255333 	8.74889e-05 	
0.00758237 	0.00189559 	3.1796e+06 	71.9084 	0.402565 	0.000748946 	71.7744 	71.7744 	0 	
0.000612422 	2.84088e-08 	0.92 	0.04 	0.04 	0.0401936 	-2.86821e-08 	304.845 	
-0.0401937 	-0.0456009 	0.0054072 	3.95818 	2.11987e-07 	38.9282 	7.19019 	
1.77304e-10 	91448.4 	1696.06 	1925.26 	0.35 	17.0603 	0.232011 	8.74889e-05 	
0.00758237 	0.00189559 	3.0176e+06 	-62.4787 	0.5023 	0.00031091 	-62.6461 	-62.6461 	0 	
0.000699911 	3.08999e-08 	0.92 	0.04 	0.04 	0.0401932 	-2.95521e-08 	304.486 	
-0.0401933 	-0.0453479 	0.00515462 	3.58848 	2.30583e-07 	42.7015 	3.41686 	
1.59812e-10 	91448.4 	1696.06 	1925.26 	0.35 	17.0603 	0.210341 	8.74889e-05 	
0.00758237 	0.00189559 	2.8556e+06 	-170.559 	0.601927 	8.29721e-05 	-170.76 	-170.76 	0 	
0.0007874 	3.20267e-08 	0.92 	0.04 	0.04 	0.0401928 	-2.9823e-08 	304.126 	
-0.0401928 	-0.045095 	0.00490219 	1.62262 	2.30583e-07 	45.307 	0.811308 	
7.17979e-11 	45724.2 	848.03 	962.628 	0.35 	8.53017 	0.190221 	4.37444e-05 	
0.00379119 	0.000947796 	2.6936e+06 	564.58 	0.651424 	1.45956e-05 	564.363 	564.363 	0 	
ZONE T = "t = 4e-08 [s]" I = 10 SOLUTIONTIME = 4.0000000000000E-08
0 	2.58532e-09 	0.92 	0.04 	0.04 	0.0401951 	0 	307.361 	
-0.0401951 	-0.0473747 	0.00717961 	3.72306 	1.92935e-08 	1.86153 	44.2568 	
2.6495e-10 	45724.2 	848.03 	962.628 	0.35 	8.53017 	0.436459 	4.37444e-05 	
0.00379119 	0.000947796 	4.1516e+06 	479.455 	0.00621482 	0.0136783 	479.45 	479.45 	0 	
8.74889e-05 	7.33264e-09 	0.92 	0.04 	0.04 	0.0401951 	-7.07784e-09 	307.001 	
-0.0401951 	-0.047121 	0.00692591 	6.83652 	5.47213e-08 	7.14132 	38.977 	
4.85521e-10 	91448.4 	1696.06 	1925.26 	0.35 	17.0603 	0.400726 	8.74889e-05 	
0.00758237 	0.00189559 	3.9896e+06 	31.3692 	0.0280362 	0.0116409 	31.3593 	31.3593 	0 	
0.000174978 	1.16844e-08 	0.92 	0.04 	0.04 	0.040195 	-1.30143e-08 	306.642 	
-0.040195 	-0.0468673 	0.00667238 	6.26788 	8.72022e-08 	13.6935 	32.4248 	
4.44153e-10 	91448.4 	1696.06 	1925.26 	0.35 	17.0603 	0.367395 	8.74889e-05 	
0.00758237 	0.00189559 	3.8276e+06 	379.637 	0.088076 	0.00805289 	379.613 	379.613 	0 	
0.000262467 	1.56691e-08 	0.92 	0.04 	0.04 	0.0401948 	-1.79044e-08 	306.283 	
-0.0401948 	-0.0466138 	0.00641902 	5.73775 	1.16936e-07 	19.6963 	26.422 	
4.05616e-10 	91448.4 	1696.06 	1925.26 	0.35 	17.0603 	0.336321 	8.74889e-05 	
0.00758237 	0.00189559 	3.6656e+06 	-275.073 	0.176413 	0.00534867 	-275.118 	-275.118 	0 	
0.000349956 	1.93104e-08 	0.92 	0.04 	0.04 	0.0401946 	-2.18366e-08 	305.923 	
-0.0401946 	-0.0463604 	0.00616583 	5.24384 	1.4411e-07 	25.1871 	20.9312 	
3.6974e-10 	91448.4 	1696.06 	1925.26 	0.35 	17.0603 	0.30737 	8.74889e-05 	
0.00758237 	0.00189559 	3.5036e+06 	-799.258 	0.284848 	0.00336192 	-799.33 	-799.33 	0 	
0.000437444 	2.26324e-08 	0.92 	0.04 	0.04 	0.0401943 	-2.48933e-08 	305.564 	
-0.0401943 	-0.0461071 	0.0059128 	4.78396 	1.68901e-07 	30.201 	15.9173 	
3.36363e-10 	91448.4 	1696.06 	1925.26 	0.35 	17.0603 	0.280414 	8.74889e-05 	
0.00758237 	0.00189559 	3.3416e+06 	5.61091 	0.406658 	0.0019527 	5.50911 	5.50911 	0 	
0.000524933 	2.56569e-08 	0.92 	0.04 	0.04 	0.040194 	-2.71513e-08 	305.204 	
-0.040194 	-0.0458539 	0.00565992 	4.35606 	1.91475e-07 	34.7711 	11.3473 	
3.05334e-10 	91448.4 	1696.06 	1925.26 	0.35 	17.0603 	0.255333 	8.74889e-05 	
0.00758237 	0.00189559 	3.1796e+06 	801.008 	0.536375 	0.0010037 	800.874 	800.874 	0 	
0.000612422 	2.84062e-08 	0.92 	0.04 	0.04 	0.0401936 	-2.86821e-08 	304.845 	
-0.0401937 	-0.0456009 	0.0054072 	3.95818 	2.11987e-07 	38.9282 	7.19019 	
2.76508e-10 	91448.4 	1696.06 	1925.26 	0.35 	17.0603 	0.232011 	8.74889e-05 	
0.00758237 	0.00189559 	3.0176e+06 	-39.7956 	0.6696 	0.000417037 	-39.963 	-39.963 	0 	
0.000699911 	3.08981e-08 	0.92 	0.04 	0.04 	0.0401932 	-2.95521e-08 	304.486 	
-0.0401933 	-0.0453479 	0.00515462 	3.58848 	2.30583e-07 	42.7015 	3.41686 	
2.4975e-10 	91448.4 	1696.06 	1925.26 	0.35 	17.0603 	0.210341 	8.74889e-05 	
0.00758237 	0.00189559 	2.8556e+06 	250.698 	0.802833 	0.000111394 	250.497 	250.497 	0 	
0.0007874 	3.20249e-08 	0.92 	0.04 	0.04 	0.0401928 	-2.9823e-08 	304.126 	
-0.0401928 	-0.045095 	0.00490219 	1.62262 	2.30583e-07 	45.307 	0.811308 	
1.12466e-10 	45724.2 	848.03 	962.628 	0.35 	8.53017 	0.190221 	4.37444e-05 	
0.00379119 	0.000947796 	2.6936e+06 	-60.8251 	0.869066 	1.96197e-05 	-61.0428 	-61.0428 	0 	
ZONE T = "t = 5.5e-08 [s]" I = 10 SOLUTIONTIME = 5.5000000000000E-08
0 	2.58532e-09 	0.92 	0.04 	0.04 	0.0401951 	0 	307.361 	
-0.0401951 	-0.0473747 	0.00717961 	3.72306 	1.92935e-08 	1.86153 	44.2568 	
3.58262e-10 	45724.2 	848.03 	962.628 	0.35 	8.53017 	0.436459 	4.37444e-05 	
0.00379119 	0.000947796 	4.1516e+06 	123.006 	0.00568133 	0.0125487 	123.001 	123.001 	0 	
8.74889e-05 	7.33264e-09 	0.92 	0.04 	0.04 	0.0401951 	-7.07784e-09 	307.001 	
-0.0401951 	-0.047121 	0.00692591 	6.83652 	5.47213e-08 	7.14132 	38.977 	
6.56865e-10 	91448.4 	1696.06 	1925.26 	0.35 	17.0603 	0.400726 	8.74889e-05 	
0.00758237 	0.00189559 	3.9896e+06 	583.324 	0.0256392 	0.0106819 	583.315 	583.315 	0 	
0.000174978 	1.16844e-08 	0.92 	0.04 	0.04 	0.040195 	-1.30143e-08 	306.642 	
-0.040195 	-0.0468673 	0.00667238 	6.26788 	8.72023e-08 	13.6935 	32.4248 	
6.01245e-10 	91448.4 	1696.06 	1925.26 	0.35 	17.0603 	0.367395 	8.74889e-05 	
0.00758237 	0.00189559 	3.8276e+06 	-185.28 	0.0805707 	0.00739358 	-185.304 	-185.304 	0 	
0.000262467 	1.56687e-08 	0.92 	0.04 	0.04 	0.0401948 	-1.79044e-08 	306.283 	
-0.0401948 	-0.0466138 	0.00641902 	5.73775 	1.16936e-07 	19.6963 	26.422 	
5.49421e-10 	91448.4 	1696.06 	1925.26 	0.35 	17.0603 	0.336321 	8.74889e-05 	
0.00758237 	0.00189559 	3.6656e+06 	720.823 	0.161434 	0.00491366 	720.778 	720.778 	0 	
0.000349956 	1.93101e-08 	0.92 	0.04 	0.04 	0.0401946 	-2.18366e-08 	305.923 	
-0.0401946 	-0.0463604 	0.00616583 	5.24384 	1.4411e-07 	25.1871 	20.9312 	
5.01166e-10 	91448.4 	1696.06 	1925.26 	0.35 	17.0603 	0.30737 	8.74889e-05 	
0.00758237 	0.00189559 	3.5036e+06 	742.112 	0.260757 	0.00309042 	742.04 	742.04 	0 	
0.000437444 	2.26321e-08 	0.92 	0.04 	0.04 	0.0401943 	-2.48933e-08 	305.564 	
-0.0401943 	-0.0461071 	0.0059128 	4.78396 	1.68901e-07 	30.201 	15.9173 	
4.56264e-10 	91448.4 	1696.06 	1925.26 	0.35 	17.0603 	0.280414 	8.74889e-05 	
0.00758237 	0.00189559 	3.3416e+06 	410.666 	0.372406 	0.00179619 	410.564 	410.564 	0 	
0.000524933 	2.56569e-08 	0.92 	0.04 	0.04 	0.040194 	-2.71513e-08 	305.204 	
-0.040194 	-0.0458539 	0.00565992 	4.35606 	1.91475e-07 	34.7711 	11.3473 	
4.1451e-10 	91448.4 	1696.06 	1925.26 	0.35 	17.0603 	0.255333 	8.74889e-05 	
0.00758237 	0.00189559 	3.1796e+06 	47.065 	0.491394 	0.000923894 	46.931 	46.931 	0 	
0.000612422 	2.84048e-08 	0.92 	0.04 	0.04 	0.0401936 	-2.86821e-08 	304.845 	
-0.0401937 	-0.0456009 	0.0054072 	3.95818 	2.11987e-07 	38.9282 	7.19019 	
3.75712e-10 	91448.4 	1696.06 	1925.26 	0.35 	17.0603 	0.232011 	8.74889e-05 	
0.00758237 	0.00189559 	3.0176e+06 	404.145 	0.6137 	0.000384152 	403.978 	403.978 	0 	
0.000699911 	3.08964e-08 	0.92 	0.04 	0.04 	0.0401932 	-2.95521e-08 	304.486 	
-0.0401933 	-0.0453479 	0.00515462 	3.58848 	2.30583e-07 	42.7015 	3.41686 	
3.39688e-10 	91448.4 	1696.06 	1925.26 	0.35 	17.0603 	0.210341 	8.74889e-05 	
0.00758237 	0.00189559 	2.8556e+06 	85.4359 	0.736127 	0.000102684 	85.235 	85.235 	0 	
0.0007874 	3.20232e-08 	0.92 	0.04 	0.04 	0.0401928 	-2.9823e-08 	304.126 	
-0.0401928 	-0.045095 	0.00490219 	1.62262 	2.30583e-07 	45.307 	0.811308 	
1.53133e-10 	45724.2 	848.03 	962.628 	0.35 	8.53017 	0.190221 	4.37444e-05 	
0.00379119 	0.000947796 	2.6936e+06 	371.234 	0.797018 	1.81039e-05 	371.016 	371.016 	0 	
ZONE T = "t = 7.75e-08 [s]" I = 10 SOLUTIONTIME = 7.7500000000000E-08
0 	2.58548e-09 	0.92 	0.04 	0.04 	0.0401951 	0 	307.361 	
-0.0401951 	-0.0473747 	0.00717961 	3.72306 	1.92935e-08 	1.86153 	44.2568 	
4.98228e-10 	45724.2 	848.03 	962.628 	0.35 	8.53017 	0.436459 	4.37444e-05 	
0.00379119 	0.000947796 	4.1516e+06 	732.209 	0.00532567 	0.0117956 	732.204 	732.204 	0 	
8.74889e-05 	7.3328e-09 	0.92 	0.04 	0.04 	0.0401951 	-7.07784e-09 	307.001 	
-0.0401951 	-0.047121 	0.00692591 	6.83652 	5.47213e-08 	7.14132 	38.977 	
9.1388e-10 	91448.4 	1696.06 	1925.26 	0.35 	17.0603 	0.400726 	8.74889e-05 	
0.00758237 	0.00189559 	3.9896e+06 	494.752 	0.0240412 	0.0100425 	494.742 	494.742 	0 	
0.000174978 	1.16857e-08 	0.92 	0.04 	0.04 	0.040195 	-1.30143e-08 	306.642 	
-0.040195 	-0.0468673 	0.00667238 	6.26788 	8.72023e-08 	13.6935 	32.4248 	
8.36882e-10 	91448.4 	1696.06 	1925.26 	0.35 	17.0603 	0.367395 	8.74889e-05 	
0.00758237 	0.00189559 	3.8276e+06 	1010.08 	0.0755671 	0.00695405 	1010.06 	1010.06 	0 	
0.000262467 	1.56701e-08 	0.92 	0.04 	0.04 	0.0401948 	-1.79044e-08 	306.283 	
-0.0401948 	-0.0466138 	0.00641902 	5.73775 	1.16936e-07 	19.6963 	26.422 	
7.65129e-10 	91448.4 	1696.06 	1925.26 	0.35 	17.0603 	0.336321 	8.74889e-05 	
0.00758237 	0.00189559 	3.6656e+06 	322.609 	0.151449 	0.00462366 	322.564 	322.564 	0 	
0.000349956 	1.93117e-08 	0.92 	0.04 	0.04 	0.0401946 	-2.18366e-08 	305.923 	
-0.0401946 	-0.0463604 	0.00616583 	5.24384 	1.4411e-07 	25.1871 	20.9312 	
6.98306e-10 	91448.4 	1696.06 	1925.26 	0.35 	17.0603 	0.30737 	8.74889e-05 	
0.00758237 	0.00189559 	3.5036e+06 	415.908 	0.244697 	0.00290942 	415.836 	415.836 	0 	
0.000437444 	2.26338e-08 	0.92 	0.04 	0.04 	0.0401943 	-2.48933e-08 	305.564 	
-0.0401943 	-0.0461071 	0.0059128 	4.78396 	1.68902e-07 	30.201 	15.9173 	
6.36115e-10 	91448.4 	1696.06 	1925.26 	0.35 	17.0603 	0.280414 	8.74889e-05 	
0.00758237 	0.00189559 	3.3416e+06 	341.537 	0.349572 	0.00169185 	341.435 	341.435 	0 	
0.000524933 	2.56586e-08 	0.92 	0.04 	0.04 	0.040194 	-2.71513e-08 	305.204 	
-0.040194 	-0.0458539 	0.00565992 	4.35606 	1.91475e-07 	34.7711 	11.3473 	
5.78274e-10 	91448.4 	1696.06 	1925.26 	0.35 	17.0603 	0.255333 	8.74889e-05 	
0.00758237 	0.00189559 	3.1796e+06 	339.425 	0.461406 	0.000870687 	339.291 	339.291 	0 	
0.000612422 	2.84074e-08 	0.92 	0.04 	0.04 	0.0401936 	-2.86821e-08 	304.845 	
-0.0401937 	-0.0456009 	0.0054072 	3.95818 	2.11987e-07 	38.9282 	7.19019 	
5.24518e-10 	91448.4 	1696.06 	1925.26 	0.35 	17.0603 	0.232011 	8.74889e-05 	
0.00758237 	0.00189559 	3.0176e+06 	273.807 	0.576433 	0.000362228 	273.64 	273.64 	0 	
0.000699911 	3.08999e-08 	0.92 	0.04 	0.04 	0.0401932 	-2.95521e-08 	304.486 	
-0.0401933 	-0.0453479 	0.00515462 	3.58848 	2.30583e-07 	42.7015 	3.41686 	
4.74595e-10 	91448.4 	1696.06 	1925.26 	0.35 	17.0603 	0.210341 	8.74889e-05 	
0.00758237 	0.00189559 	2.8556e+06 	341.791 	0.691657 	9.68775e-05 	341.59 	341.59 	0 	
0.0007874 	3.20266e-08 	0.92 	0.04 	0.04 	0.0401928 	-2.9823e-08 	304.126 	
-0.0401928 	-0.045095 	0.00490219 	1.62262 	2.30583e-07 	45.307 	0.811308 	
2.14135e-10 	45724.2 	848.03 	962.628 	0.35 	8.53017 	0.190221 	4.37444e-05 	
0.00379119 	0.000947796 	2.6936e+06 	43.5891 	0.748987 	1.70934e-05 	43.3715 	43.3715 	0 	
ZONE T = "t = 1.1125e-07 [s]" I = 10 SOLUTIONTIME = 1.1125000000000E-07
0 	2.58521e-09 	0.92 	0.04 	0.04 	0.0401951 	0 	307.361 	
-0.0401951 	-0.0473747 	0.00717961 	3.72306 	1.92936e-08 	1.86153 	44.2568 	
7.08178e-10 	45724.2 	848.03 	962.628 	0.35 	8.53017 	0.436459 	4.37444e-05 	
0.00379119 	0.000947796 	4.1516e+06 	859.907 	0.00508857 	0.0112935 	859.902 	859.902 	0 	
8.74889e-05 	7.33253e-09 	0.92 	0.04 	0.04 	0.0401951 	-7.07784e-09 	307.001 	
-0.0401951 	-0.047121 	0.00692591 	6.83652 	5.47214e-08 	7.14132 	38.977 	
1.2994e-09 	91448.4 	1696.06 	1925.26 	0.35 	17.0603 	0.400726 	8.74889e-05 	
0.00758237 	0.00189559 	3.9896e+06 	572.043 	0.0229759 	0.00961632 	572.033 	572.033 	0 	
0.000174978 	1.16853e-08 	0.92 	0.04 	0.04 	0.040195 	-1.30143e-08 	306.642 	
-0.040195 	-0.0468673 	0.00667238 	6.26788 	8.72023e-08 	13.6935 	32.4248 	
1.19034e-09 	91448.4 	1696.06 	1925.26 	0.35 	17.0603 	0.367395 	8.74889e-05 	
0.00758237 	0.00189559 	3.8276e+06 	331.27 	0.0722314 	0.00666103 	331.246 	331.246 	0 	
0.000262467 	1.56696e-08 	0.92 	0.04 	0.04 	0.0401948 	-1.79044e-08 	306.283 	
-0.0401948 	-0.0466138 	0.00641902 	5.73775 	1.16936e-07 	19.6963 	26.422 	
1.08869e-09 	91448.4 	1696.06 	1925.26 	0.35 	17.0603 	0.336321 	8.74889e-05 	
0.00758237 	0.00189559 	3.6656e+06 	504.074 	0.144792 	0.00443032 	504.029 	504.029 	0 	
0.000349956 	1.93108e-08 	0.92 	0.04 	0.04 	0.0401946 	-2.18366e-08 	305.923 	
-0.0401946 	-0.0463604 	0.00616583 	5.24384 	1.4411e-07 	25.1871 	20.9312 	
9.94015e-10 	91448.4 	1696.06 	1925.26 	0.35 	17.0603 	0.30737 	8.74889e-05 	
0.00758237 	0.00189559 	3.5036e+06 	387.584 	0.23399 	0.00278876 	387.512 	387.512 	0 	
0.000437444 	2.26328e-08 	0.92 	0.04 	0.04 	0.0401943 	-2.48933e-08 	305.564 	
-0.0401943 	-0.0461071 	0.0059128 	4.78396 	1.68902e-07 	30.201 	15.9173 	
9.05891e-10 	91448.4 	1696.06 	1925.26 	0.35 	17.0603 	0.280414 	8.74889e-05 	
0.00758237 	0.00189559 	3.3416e+06 	126.947 	0.33435 	0.00162229 	126.846 	126.846 	0 	
0.000524933 	2.56574e-08 	0.92 	0.04 	0.04 	0.040194 	-2.71513e-08 	305.204 	
-0.040194 	-0.0458539 	0.00565992 	4.35606 	1.91475e-07 	34.7711 	11.3473 	
8.2392e-10 	91448.4 	1696.06 	1925.26 	0.35 	17.0603 	0.255333 	8.74889e-05 	
0.00758237 	0.00189559 	3.1796e+06 	229.49 	0.441414 	0.000835216 	229.356 	229.356 	0 	
0.000612422 	2.8406e-08 	0.92 	0.04 	0.04 	0.0401936 	-2.86821e-08 	304.845 	
-0.0401937 	-0.0456009 	0.0054072 	3.95818 	2.11987e-07 	38.9282 	7.19019 	
7.47726e-10 	91448.4 	1696.06 	1925.26 	0.35 	17.0603 	0.232011 	8.74889e-05 	
0.00758237 	0.00189559 	3.0176e+06 	170.593 	0.551589 	0.000347613 	170.426 	170.426 	0 	
0.000699911 	3.08976e-08 	0.92 	0.04 	0.04 	0.0401932 	-2.95521e-08 	304.486 	
-0.0401933 	-0.0453479 	0.00515462 	3.58848 	2.30584e-07 	42.7015 	3.41686 	
6.76956e-10 	91448.4 	1696.06 	1925.26 	0.35 	17.0603 	0.210341 	8.74889e-05 	
0.00758237 	0.00189559 	2.8556e+06 	168.007 	0.66201 	9.30065e-05 	167.806 	167.806 	0 	
0.0007874 	3.20244e-08 	0.92 	0.04 	0.04 	0.0401928 	-2.9823e-08 	304.126 	
-0.0401928 	-0.045095 	0.00490219 	1.62262 	2.30584e-07 	45.307 	0.811308 	
3.05637e-10 	45724.2 	848.03 	962.628 	0.35 	8.53017 	0.190221 	4.37444e-05 	
0.00379119 	0.000947796 	2.6936e+06 	235.135 	0.716966 	1.64198e-05 	234.918 	234.918 	0 	
ZONE T = "t = 1.61875e-07 [s]" I = 10 SOLUTIONTIME = 1.6187500000000E-07
0 	2.58532e-09 	0.92 	0.04 	0.04 	0.0401951 	0 	307.361 	
-0.0401951 	-0.0473747 	0.00717961 	3.72306 	1.92937e-08 	1.86153 	44.2568 	
1.0231e-09 	45724.2 	848.03 	962.628 	0.35 	8.53017 	0.436459 	4.37444e-05 	
0.00379119 	0.000947796 	4.1516e+06 	535.062 	0.0049305 	0.0109588 	535.057 	535.057 	0 	
8.74889e-05 	7.33264e-09 	0.92 	0.04 	0.04 	0.0401951 	-7.07784e-09 	307.001 	
-0.0401951 	-0.047121 	0.00692591 	6.83652 	5.47214e-08 	7.14132 	38.977 	
1.87769e-09 	91448.4 	1696.06 	1925.26 	0.35 	17.0603 	0.400726 	8.74889e-05 	
0.00758237 	0.00189559 	3.9896e+06 	500.993 	0.0222657 	0.00933217 	500.983 	500.983 	0 	
0.000174978 	1.16849e-08 	0.92 	0.04 	0.04 	0.040195 	-1.30143e-08 	306.642 	
-0.040195 	-0.0468673 	0.00667238 	6.26788 	8.72024e-08 	13.6935 	32.4248 	
1.72052e-09 	91448.4 	1696.06 	1925.26 	0.35 	17.0603 	0.367395 	8.74889e-05 	
0.00758237 	0.00189559 	3.8276e+06 	540.579 	0.0700076 	0.00646568 	540.555 	540.555 	0 	
0.000262467 	1.56692e-08 	0.92 	0.04 	0.04 	0.0401948 	-1.79044e-08 	306.283 	
-0.0401948 	-0.0466138 	0.00641902 	5.73775 	1.16936e-07 	19.6963 	26.422 	
1.57403e-09 	91448.4 	1696.06 	1925.26 	0.35 	17.0603 	0.336321 	8.74889e-05 	
0.00758237 	0.00189559 	3.6656e+06 	295.725 	0.140354 	0.00430143 	295.68 	295.68 	0 	
0.000349956 	1.93108e-08 	0.92 	0.04 	0.04 	0.0401946 	-2.18366e-08 	305.923 	
-0.0401946 	-0.0463604 	0.00616583 	5.24384 	1.4411e-07 	25.1871 	20.9312 	
1.43758e-09 	91448.4 	1696.06 	1925.26 	0.35 	17.0603 	0.30737 	8.74889e-05 	
0.00758237 	0.00189559 	3.5036e+06 	384.063 	0.226852 	0.00270831 	383.992 	383.992 	0 	
0.000437444 	2.26328e-08 	0.92 	0.04 	0.04 	0.0401943 	-2.48933e-08 	305.564 	
-0.0401943 	-0.0461071 	0.0059128 	4.78396 	1.68902e-07 	30.201 	15.9173 	
1.31055e-09 	91448.4 	1696.06 	1925.26 	0.35 	17.0603 	0.280414 	8.74889e-05 	
0.00758237 	0.00189559 	3.3416e+06 	348.738 	0.324201 	0.00157591 	348.636 	348.636 	0 	
0.000524933 	2.56577e-08 	0.92 	0.04 	0.04 	0.040194 	-2.71513e-08 	305.204 	
-0.040194 	-0.0458539 	0.00565992 	4.35606 	1.91475e-07 	34.7711 	11.3473 	
1.19239e-09 	91448.4 	1696.06 	1925.26 	0.35 	17.0603 	0.255333 	8.74889e-05 	
0.00758237 	0.00189559 	3.1796e+06 	340.545 	0.428086 	0.000811569 	340.411 	340.411 	0 	
0.000612422 	2.84062e-08 	0.92 	0.04 	0.04 	0.0401936 	-2.86821e-08 	304.845 	
-0.0401937 	-0.0456009 	0.0054072 	3.95818 	2.11987e-07 	38.9282 	7.19019 	
1.08254e-09 	91448.4 	1696.06 	1925.26 	0.35 	17.0603 	0.232011 	8.74889e-05 	
0.00758237 	0.00189559 	3.0176e+06 	374.141 	0.535026 	0.000337869 	373.973 	373.973 	0 	
0.000699911 	3.08983e-08 	0.92 	0.04 	0.04 	0.0401932 	-2.95521e-08 	304.486 	
-0.0401933 	-0.0453479 	0.00515462 	3.58848 	2.30584e-07 	42.7015 	3.41686 	
9.80497e-10 	91448.4 	1696.06 	1925.26 	0.35 	17.0603 	0.210341 	8.74889e-05 	
0.00758237 	0.00189559 	2.8556e+06 	132.802 	0.642245 	9.04259e-05 	132.601 	132.601 	0 	
0.0007874 	3.2025e-08 	0.92 	0.04 	0.04 	0.0401928 	-2.9823e-08 	304.126 	
-0.0401928 	-0.045095 	0.00490219 	1.62262 	2.30584e-07 	45.307 	0.811308 	
4.4289e-10 	45724.2 	848.03 	962.628 	0.35 	8.53017 	0.190221 	4.37444e-05 	
0.00379119 	0.000947796 	2.6936e+06 	184.568 	0.695619 	1.59706e-05 	184.351 	184.351 	0 	
ZONE T = "t = 2.37813e-07 [s]" I = 10 SOLUTIONTIME = 2.3781250000000E-07
0 	2.58532e-09 	0.92 	0.04 	0.04 	0.0401951 	0 	307.361 	
-0.0401951 	-0.0473747 	0.00717961 	3.72306 	1.92938e-08 	1.86153 	44.2568 	
1.49549e-09 	45724.2 	848.03 	962.628 	0.35 	8.53017 	0.436459 	4.37444e-05 	
0.00379119 	0.000947796 	4.1516e+06 	606.752 	0.00482512 	0.0107356 	606.747 	606.747 	0 	
8.74889e-05 	7.33264e-09 	0.92 	0.04 	0.04 	0.0401951 	-7.07784e-09 	307.001 	
-0.0401951 	-0.047121 	0.00692591 	6.83652 	5.47215e-08 	7.14132 	38.977 	
2.74512e-09 	91448.4 	1696.06 	1925.26 	0.35 	17.0603 	0.400726 	8.74889e-05 	
0.00758237 	0.00189559 	3.9896e+06 	615.355 	0.0217922 	0.00914274 	615.346 	615.346 	0 	
0.000174978 	1.16852e-08 	0.92 	0.04 	0.04 	0.040195 	-1.30143e-08 	306.642 	
-0.040195 	-0.0468673 	0.00667238 	6.26788 	8.72025e-08 	13.6935 	32.4248 	
2.5158e-09 	91448.4 	1696.06 	1925.26 	0.35 	17.0603 	0.367395 	8.74889e-05 	
0.00758237 	0.00189559 	3.8276e+06 	379.277 	0.068525 	0.00633545 	379.253 	379.253 	0 	