TITLE = "Solution on Domain BulkDomain1D_2"
VARIABLES = "x [m]"  
"Vel_axial" 	"MF_sp(ECDMC)" 	"MF_sp(Li+)" 	"MF_sp(PF6-)" 	"Volt(Electroly)" 	"Volt(CathodeVo)" 	"Temperature" 	
"Potential Drop Electrode-Electrolyte [V]" 	"Surf_0 Equilibrium Potential Drop Electrode-Electrolyte [V]" 	"Overpotential_0 [V]" 	"Current Source [A/m^2]" 	"Li+ flux [kmol/m^2/s]" 	"Electrolyte Current [A/m^2]" 	"Electrode Current [A/m^2]" 	
"CV Capacity discharged [A-s/m^2]" 	"Depth of discharge in CV [A-s/m^2]" 	"CV Capacity remaining [A-s/m^2]" 	"Initial CV capacity [A-s/m^2]" 	"Porosity []" 	"Surface Area [m2/m2] (area per area)" 	"Specific current (per particle area) [A/m^2]" 	"Control volume thickness [m]" 	
"MoleDens LiCoO2 [kmol/m^3]" 	"MoleDens CoO2 [kmol/m^3]" 	"qHeat_accum [J/m3]" 	"qHeat_step [W/m3]" 	"Joule_Lyte [W/m3]" 	"Joule_Solid [W/m3]" 	"electrodHeat [W/m3]" 	"OverpotHeat [W/m3]" 	"deltaSHeat [W/m3]" 	

ZONE T = "CATH, 0.0000E+00", I = 10, SOLUTIONTIME = 0.000000E+00
ZONETYPE = ORDERED
DATAPACKING = BLOCK
STRANDID = 3
 1.2700000000000E-03  1.3377333333333E-03  1.4054666666667E-03  1.4732000000000E-03  1.5409333333333E-03  1.6086666666667E-03  1.6764000000000E-03  1.7441333333333E-03  1.8118666666667E-03  1.8796000000000E-03 
 0.0000000000000E+00  0.0000000000000E+00  0.0000000000000E+00  0.0000000000000E+00  0.0000000000000E+00  0.0000000000000E+00  0.0000000000000E+00  0.0000000000000E+00  0.0000000000000E+00  0.0000000000000E+00 
 9.2000000000000E-01  9.2000000000000E-01  9.2000000000000E-01  9.2000000000000E-01  9.2000000000000E-01  9.2000000000000E-01  9.2000000000000E-01  9.2000000000000E-01  9.2000000000000E-01  9.2000000000000E-01 
 4.0000000000000E-02  4.0000000000000E-02  4.0000000000000E-02  4.0000000000000E-02  4.0000000000000E-02  4.0000000000000E-02  4.0000000000000E-02  4.0000000000000E-02  4.0000000000000E-02  4.0000000000000E-02 
 4.0000000000000E-02  4.0000000000000E-02  4.0000000000000E-02  4.0000000000000E-02  4.0000000000000E-02  4.0000000000000E-02  4.0000000000000E-02  4.0000000000000E-02  4.0000000000000E-02  4.0000000000000E-02 
-7.0000000000000E-02 -7.0000000000000E-02 -7.0000000000000E-02 -7.0000000000000E-02 -7.0000000000000E-02 -7.0000000000000E-02 -7.0000000000000E-02 -7.0000000000000E-02 -7.0000000000000E-02 -7.0000000000000E-02 
 3.8000000000000E+00  3.8000000000000E+00  3.8000000000000E+00  3.8000000000000E+00  3.8000000000000E+00  3.8000000000000E+00  3.8000000000000E+00  3.8000000000000E+00  3.8000000000000E+00  3.8000000000000E+00 
 2.9815000000000E+02  2.9815000000000E+02  2.9815000000000E+02  2.9815000000000E+02  2.9815000000000E+02  2.9815000000000E+02  2.9815000000000E+02  2.9815000000000E+02  2.9815000000000E+02  2.9815000000000E+02 
 3.8700000000000E+00  3.8700000000000E+00  3.8700000000000E+00  3.8700000000000E+00  3.8700000000000E+00  3.8700000000000E+00  3.8700000000000E+00  3.8700000000000E+00  3.8700000000000E+00  3.8700000000000E+00 
 3.9714142713289E+00  3.9714142713289E+00  3.9714142713289E+00  3.9714142713289E+00  3.9714142713289E+00  3.9714142713289E+00  3.9714142713289E+00  3.9714142713289E+00  3.9714142713289E+00  3.9714142713289E+00 
-1.0141427132889E-01 -1.0141427132889E-01 -1.0141427132889E-01 -1.0141427132889E-01 -1.0141427132889E-01 -1.0141427132889E-01 -1.0141427132889E-01 -1.0141427132889E-01 -1.0141427132889E-01 -1.0141427132889E-01 
-2.3826357195711E-01 -4.7652714391422E-01 -4.7652714391423E-01 -4.7652714391422E-01 -4.7652714391423E-01 -4.7652714391423E-01 -4.7652714391422E-01 -4.7652714391423E-01 -4.7652714391422E-01 -2.3826357195711E-01 
-0.0000000000000E+00 -0.0000000000000E+00 -0.0000000000000E+00 -0.0000000000000E+00 -0.0000000000000E+00 -0.0000000000000E+00 -0.0000000000000E+00 -0.0000000000000E+00 -0.0000000000000E+00 -0.0000000000000E+00 
 2.3826357195711E-01  0.0000000000000E+00  0.0000000000000E+00  0.0000000000000E+00  0.0000000000000E+00  0.0000000000000E+00  0.0000000000000E+00  0.0000000000000E+00  0.0000000000000E+00  0.0000000000000E+00 
 0.0000000000000E+00 -0.0000000000000E+00 -0.0000000000000E+00 -0.0000000000000E+00 -0.0000000000000E+00 -0.0000000000000E+00 -0.0000000000000E+00 -0.0000000000000E+00 -0.0000000000000E+00  2.3826357195711E-01 
-0.0000000000000E+00 -0.0000000000000E+00 -0.0000000000000E+00 -0.0000000000000E+00 -0.0000000000000E+00 -0.0000000000000E+00 -0.0000000000000E+00 -0.0000000000000E+00 -0.0000000000000E+00 -0.0000000000000E+00 
 7.2440786946225E+03  1.4488157389245E+04  1.4488157389245E+04  1.4488157389245E+04  1.4488157389245E+04  1.4488157389245E+04  1.4488157389245E+04  1.4488157389245E+04  1.4488157389245E+04  7.2440786946225E+03 
 4.9259735123433E+04  9.8519470246865E+04  9.8519470246866E+04  9.8519470246865E+04  9.8519470246866E+04  9.8519470246866E+04  9.8519470246865E+04  9.8519470246866E+04  9.8519470246865E+04  4.9259735123433E+04 
 5.6503813818055E+04  1.1300762763611E+05  1.1300762763611E+05  1.1300762763611E+05  1.1300762763611E+05  1.1300762763611E+05  1.1300762763611E+05  1.1300762763611E+05  1.1300762763611E+05  5.6503813818055E+04 
 3.5000000000000E-01  3.5000000000000E-01  3.5000000000000E-01  3.5000000000000E-01  3.5000000000000E-01  3.5000000000000E-01  3.5000000000000E-01  3.5000000000000E-01  3.5000000000000E-01  3.5000000000000E-01 
 6.6040000000000E+00  1.3208000000000E+01  1.3208000000000E+01  1.3208000000000E+01  1.3208000000000E+01  1.3208000000000E+01  1.3208000000000E+01  1.3208000000000E+01  1.3208000000000E+01  6.6040000000000E+00 
-3.6078675341780E-02 -3.6078675341780E-02 -3.6078675341780E-02 -3.6078675341780E-02 -3.6078675341780E-02 -3.6078675341780E-02 -3.6078675341780E-02 -3.6078675341780E-02 -3.6078675341780E-02 -3.6078675341780E-02 
 3.3866666666667E-05  6.7733333333333E-05  6.7733333333334E-05  6.7733333333333E-05  6.7733333333334E-05  6.7733333333334E-05  6.7733333333333E-05  6.7733333333334E-05  6.7733333333333E-05  3.3866666666667E-05 
 2.6603001364256E+01  2.6603001364256E+01  2.6603001364256E+01  2.6603001364256E+01  2.6603001364256E+01  2.6603001364256E+01  2.6603001364256E+01  2.6603001364256E+01  2.6603001364256E+01  2.6603001364256E+01 
 1.7735334242838E+01  1.7735334242838E+01  1.7735334242838E+01  1.7735334242838E+01  1.7735334242838E+01  1.7735334242838E+01  1.7735334242838E+01  1.7735334242838E+01  1.7735334242838E+01  1.7735334242838E+01 
 0.0000000000000E+00  0.0000000000000E+00  0.0000000000000E+00  0.0000000000000E+00  0.0000000000000E+00  0.0000000000000E+00  0.0000000000000E+00  0.0000000000000E+00  0.0000000000000E+00  0.0000000000000E+00 
 0.0000000000000E+00  0.0000000000000E+00  0.0000000000000E+00  0.0000000000000E+00  0.0000000000000E+00  0.0000000000000E+00  0.0000000000000E+00  0.0000000000000E+00  0.0000000000000E+00  0.0000000000000E+00 
 0.0000000000000E+00  0.0000000000000E+00  0.0000000000000E+00  0.0000000000000E+00  0.0000000000000E+00  0.0000000000000E+00  0.0000000000000E+00  0.0000000000000E+00  0.0000000000000E+00  0.0000000000000E+00 
 0.0000000000000E+00  0.0000000000000E+00  0.0000000000000E+00  0.0000000000000E+00  0.0000000000000E+00  0.0000000000000E+00  0.0000000000000E+00  0.0000000000000E+00  0.0000000000000E+00  0.0000000000000E+00 
 0.0000000000000E+00  0.0000000000000E+00  0.0000000000000E+00  0.0000000000000E+00  0.0000000000000E+00  0.0000000000000E+00  0.0000000000000E+00  0.0000000000000E+00  0.0000000000000E+00  0.0000000000000E+00 
 0.0000000000000E+00  0.0000000000000E+00  0.0000000000000E+00  0.0000000000000E+00  0.0000000000000E+00  0.0000000000000E+00  0.0000000000000E+00  0.0000000000000E+00  0.0000000000000E+00  0.0000000000000E+00 
 0.0000000000000E+00  0.0000000000000E+00  0.0000000000000E+00  0.0000000000000E+00  0.0000000000000E+00  0.0000000000000E+00  0.0000000000000E+00  0.0000000000000E+00  0.0000000000000E+00  0.0000000000000E+00 
ZONE T = "CATH, 1.0000E-08", I = 10, SOLUTIONTIME = 1.000000E-08
ZONETYPE = ORDERED
DATAPACKING = BLOCK
STRANDID = 3
 1.2700000000000E-03  1.3377333333333E-03  1.4054666666667E-03  1.4732000000000E-03  1.5409333333333E-03  1.6086666666667E-03  1.6764000000000E-03  1.7441333333333E-03  1.8118666666667E-03  1.8796000000000E-03 
 1.9707213499763E-08  1.7391068144503E-08  1.5074639393807E-08  1.2757731649002E-08  1.0439785940974E-08  8.1213326605372E-09  5.8018123130982E-09  3.4813915112809E-09  1.1591498604451E-09 -2.9056617448250E-12 
 9.2000000000032E-01  9.2000000000090E-01  9.2000000000090E-01  9.2000000000090E-01  9.2000000000090E-01  9.2000000000090E-01  9.2000000000090E-01  9.2000000000090E-01  9.2000000000090E-01  9.2000000000090E-01 
 3.9999999999841E-02  3.9999999999551E-02  3.9999999999551E-02  3.9999999999551E-02  3.9999999999550E-02  3.9999999999550E-02  3.9999999999550E-02  3.9999999999550E-02  3.9999999999549E-02  3.9999999999549E-02 
 3.9999999999841E-02  3.9999999999551E-02  3.9999999999551E-02  3.9999999999551E-02  3.9999999999550E-02  3.9999999999550E-02  3.9999999999550E-02  3.9999999999550E-02  3.9999999999549E-02  3.9999999999549E-02 
 2.9171015550899E-02  2.9170808519958E-02  2.9170625817523E-02  2.9170467446605E-02  2.9170333412213E-02  2.9170223721444E-02  2.9170138383439E-02  2.9170077409426E-02  2.9170040812657E-02  2.9170028608477E-02 
 3.8001746603047E+00  3.8001725051917E+00  3.8001660396880E+00  3.8001552632663E+00  3.8001401750349E+00  3.8001207737379E+00  3.8000970577546E+00  3.8000690250987E+00  3.8000366734182E+00  3.8000000000000E+00 
 2.9815000102834E+02  2.9815000412169E+02  2.9815000422010E+02  2.9815000422910E+02  2.9815000416233E+02  2.9815000420771E+02  2.9815000419614E+02  2.9815000384297E+02  2.9814998664458E+02  2.9814916177468E+02 
 3.7710036447538E+00  3.7710016966717E+00  3.7709954138705E+00  3.7709847958197E+00  3.7709698416227E+00  3.7709505500165E+00  3.7709269193711E+00  3.7708989476893E+00  3.7708666326055E+00  3.7708299713915E+00 
 3.9714142704986E+00  3.9714142680016E+00  3.9714142679221E+00  3.9714142679148E+00  3.9714142679687E+00  3.9714142679321E+00  3.9714142679415E+00  3.9714142682265E+00  3.9714142821088E+00  3.9714149479320E+00 
-2.0041062574487E-01 -2.0041257132985E-01 -2.0041885405161E-01 -2.0042947209516E-01 -2.0044442634606E-01 -2.0046371791563E-01 -2.0048734857033E-01 -2.0051532053728E-01 -2.0054764950329E-01 -2.0058497654044E-01 
-1.6673997616713E+00 -3.3349268755688E+00 -3.3353350182298E+00 -3.3360248585918E+00 -3.3369966330164E+00 -3.3382507193393E+00 -3.3397874962590E+00 -3.3416074075406E+00 -3.3437066859870E+00 -1.6729379470599E+00 
 1.4706617356143E-07  1.2978409724781E-07  1.1250001429850E-07  9.5212373937761E-08  7.7919691415624E-08  6.0620516183299E-08  4.3313365587321E-08  2.5996800432675E-08  8.6693469417548E-09  8.6693469417548E-09 
 3.0046832652350E+01  2.6711978732952E+01  2.3376864014865E+01  2.0041199655740E+01  1.6704705564023E+01  1.3367098526816E+01  1.0028095532356E+01  6.6874146651939E+00  3.3447748678977E+00  0.0000000000000E+00 
 0.0000000000000E+00  3.3348470718765E+00  6.6699618693011E+00  1.0005625617389E+01  1.3342120111268E+01  1.6679727452373E+01  2.0018730120604E+01  2.3359411006616E+01  2.6702051339305E+01  3.0046834232568E+01 
 1.6673997616713E-08  3.3349268755688E-08  3.3353350182298E-08  3.3360248585918E-08  3.3369966330164E-08  3.3382507193393E-08  3.3397874962590E-08  3.3416074075406E-08  3.3437066859870E-08  1.6729379470599E-08 
 7.2440786946392E+03  1.4488157389278E+04  1.4488157389278E+04  1.4488157389278E+04  1.4488157389278E+04  1.4488157389278E+04  1.4488157389278E+04  1.4488157389278E+04  1.4488157389278E+04  7.2440786946392E+03 
 4.9259735123416E+04  9.8519470246832E+04  9.8519470246832E+04  9.8519470246832E+04  9.8519470246832E+04  9.8519470246832E+04  9.8519470246832E+04  9.8519470246832E+04  9.8519470246832E+04  4.9259735123416E+04 
 5.6503813818055E+04  1.1300762763611E+05  1.1300762763611E+05  1.1300762763611E+05  1.1300762763611E+05  1.1300762763611E+05  1.1300762763611E+05  1.1300762763611E+05  1.1300762763611E+05  5.6503813818055E+04 
 3.5000000000000E-01  3.5000000000000E-01  3.5000000000000E-01  3.5000000000000E-01  3.5000000000000E-01  3.5000000000000E-01  3.5000000000000E-01  3.5000000000000E-01  3.5000000000000E-01  3.5000000000000E-01 
 6.6040000000000E+00  1.3208000000000E+01  1.3208000000000E+01  1.3208000000000E+01  1.3208000000000E+01  1.3208000000000E+01  1.3208000000000E+01  1.3208000000000E+01  1.3208000000000E+01  6.6040000000000E+00 
-2.5248330733969E-01 -2.5249294939194E-01 -2.5252385056253E-01 -2.5257607954208E-01 -2.5264965422596E-01 -2.5274460322072E-01 -2.5286095519829E-01 -2.5299874375686E-01 -2.5315768367557E-01 -2.5332191808902E-01 
 3.3866666666667E-05  6.7733333333333E-05  6.7733333333334E-05  6.7733333333333E-05  6.7733333333334E-05  6.7733333333334E-05  6.7733333333333E-05  6.7733333333334E-05  6.7733333333333E-05  3.3866666666667E-05 
 2.6603001364262E+01  2.6603001364262E+01  2.6603001364262E+01  2.6603001364262E+01  2.6603001364262E+01  2.6603001364262E+01  2.6603001364262E+01  2.6603001364262E+01  2.6603001364262E+01  2.6603001364262E+01 
 1.7735334242833E+01  1.7735334242833E+01  1.7735334242833E+01  1.7735334242833E+01  1.7735334242833E+01  1.7735334242833E+01  1.7735334242833E+01  1.7735334242833E+01  1.7735334242833E+01  1.7735334242833E+01 
 2.1716042374413E-04  2.1717170262510E-04  2.1720756183524E-04  2.1726817265724E-04  2.1735355711004E-04  2.1746374915993E-04  2.1759878550438E-04  2.1775870979203E-04  2.1794329204341E-04  2.1811962379720E-04 
 2.1716042374413E+04  2.1717170262510E+04  2.1720756183524E+04  2.1726817265724E+04  2.1735355711004E+04  2.1746374915993E+04  2.1759878550438E+04  2.1775870979203E+04  2.1794329204341E+04  2.1811962379720E+04 
 8.6743415552819E-02  7.7148988525800E-02  5.9157003740970E-02  4.3558661024673E-02  3.0354139872594E-02  1.9544412665366E-02  1.1131269653506E-02  5.1173153493065E-03  1.5059706097091E-03  3.0142817608803E-04 
 5.3052424530174E-02  2.6527427772262E-01  9.0200881835101E-01  1.9634656964715E+00  3.4499980634039E+00  5.3621028669071E+00  7.7004212013643E+00  1.0465738714926E+01  1.3658983788755E+01  1.5362713056224E+01 
 2.1715902578573E+04  2.1716827839244E+04  2.1719795017702E+04  2.1724810241367E+04  2.1731875358801E+04  2.1740993268713E+04  2.1752166997967E+04  2.1765400123173E+04  2.1780668714582E+04  2.1796599365235E+04 
 9.8670658347511E+03  9.8675384399222E+03  9.8690554463505E+03  9.8716196058787E+03  9.8752319265453E+03  9.8798939547380E+03  9.8856073806245E+03  9.8923742190015E+03  9.9001847909068E+03  9.9084513444418E+03 
 1.1848836743822E+04  1.1849289399321E+04  1.1850739571351E+04  1.1853190635488E+04  1.1856643432256E+04  1.1861099313975E+04  1.1866559617343E+04  1.1873025904171E+04  1.1880483923675E+04  1.1888148020794E+04 
ZONE T = "CATH, 2.0000E-08", I = 10, SOLUTIONTIME = 2.000000E-08
ZONETYPE = ORDERED
DATAPACKING = BLOCK
STRANDID = 3
 1.2700000000000E-03  1.3377333333333E-03  1.4054666666667E-03  1.4732000000000E-03  1.5409333333333E-03  1.6086666666667E-03  1.6764000000000E-03  1.7441333333333E-03  1.8118666666667E-03  1.8796000000000E-03 
 1.9706573435551E-08  1.7390174216313E-08  1.5074581126023E-08  1.2758145699046E-08  1.0441035301425E-08  8.1226906730816E-09  5.8032786860562E-09  3.4826028428884E-09  1.1601117375936E-09 -1.8160386389570E-12 
 9.2000000000064E-01  9.2000000000180E-01  9.2000000000180E-01  9.2000000000180E-01  9.2000000000180E-01  9.2000000000180E-01  9.2000000000180E-01  9.2000000000180E-01  9.2000000000180E-01  9.2000000000180E-01 
 3.9999999999682E-02  3.9999999999101E-02  3.9999999999101E-02  3.9999999999101E-02  3.9999999999101E-02  3.9999999999100E-02  3.9999999999100E-02  3.9999999999099E-02  3.9999999999099E-02  3.9999999999098E-02 
 3.9999999999682E-02  3.9999999999101E-02  3.9999999999101E-02  3.9999999999101E-02  3.9999999999101E-02  3.9999999999100E-02  3.9999999999100E-02  3.9999999999099E-02  3.9999999999099E-02  3.9999999999098E-02 
 2.9176396931215E-02  2.9176189878371E-02  2.9176007156715E-02  2.9175848769230E-02  2.9175714720947E-02  2.9175605018958E-02  2.9175519672413E-02  2.9175458692527E-02  2.9175422092578E-02  2.9175409887851E-02 
 3.8001746794516E+00  3.8001725241028E+00  3.8001660578910E+00  3.8001552802883E+00  3.8001401904031E+00  3.8001207869789E+00  3.8000970683945E+00  3.8000690326632E+00  3.8000366774326E+00  3.8000000000000E+00 
 2.9815000213424E+02  2.9815000835274E+02  2.9815000854235E+02  2.9815000853501E+02  2.9815000857678E+02  2.9815000857424E+02  2.9815000846847E+02  2.9815000718005E+02  2.9814995739051E+02  2.9814836189792E+02 
 3.7709982825203E+00  3.7709963342245E+00  3.7709900507343E+00  3.7709794315191E+00  3.7709644756821E+00  3.7709451819599E+00  3.7709215487221E+00  3.7708935739707E+00  3.7708612553400E+00  3.7708245901121E+00 
 3.9714142696058E+00  3.9714142645859E+00  3.9714142644329E+00  3.9714142644388E+00  3.9714142644051E+00  3.9714142644071E+00  3.9714142644925E+00  3.9714142655325E+00  3.9714143057219E+00  3.9714155935801E+00 
-2.0041598708545E-01 -2.0041793036146E-01 -2.0042421369860E-01 -2.0043483291969E-01 -2.0044978872297E-01 -2.0046908244724E-01 -2.0049271577047E-01 -2.0052069156185E-01 -2.0055305038190E-01 -2.0059100346791E-01 
-1.6675740592321E+00 -3.3352763257165E+00 -3.3356845799956E+00 -3.3363745638594E+00 -3.3373465753439E+00 -3.3386009178340E+00 -3.3401379993510E+00 -3.3419580528575E+00 -3.3440491268493E+00 -1.6730070197249E+00 
 1.4708186433150E-07  1.2979774836906E-07  1.1251178193694E-07  9.5222239929308E-08  7.7927660814723E-08  6.0626581533414E-08  4.3317536890988E-08  2.5999060479966E-08  8.6697478068776E-09  8.6697478068776E-09 
 3.0050009220790E+01  2.6714796998693E+01  2.3379316545872E+01  2.0043286973752E+01  1.6706426404347E+01  1.3368452657772E+01  1.0029083199032E+01  6.6880351731366E+00  3.3450315830512E+00  0.0000000000000E+00 
 0.0000000000000E+00  3.3352122221052E+00  6.6706926750046E+00  1.0006722246925E+01  1.3343582816487E+01  1.6681556563119E+01  2.0020926021695E+01  2.3361974047653E+01  2.6704977637574E+01  3.0050009220926E+01 
 3.3349738209034E-08  6.6702032012853E-08  6.6710195982254E-08  6.6723994224512E-08  6.6743432083604E-08  6.6768516371733E-08  6.6799254956100E-08  6.6835654603981E-08  6.6877558128362E-08  3.3459449667848E-08 
 7.2440786946558E+03  1.4488157389312E+04  1.4488157389312E+04  1.4488157389312E+04  1.4488157389312E+04  1.4488157389312E+04  1.4488157389312E+04  1.4488157389312E+04  1.4488157389312E+04  7.2440786946559E+03 
 4.9259735123400E+04  9.8519470246798E+04  9.8519470246799E+04  9.8519470246798E+04  9.8519470246799E+04  9.8519470246799E+04  9.8519470246798E+04  9.8519470246799E+04  9.8519470246798E+04  4.9259735123399E+04 
 5.6503813818055E+04  1.1300762763611E+05  1.1300762763611E+05  1.1300762763611E+05  1.1300762763611E+05  1.1300762763611E+05  1.1300762763611E+05  1.1300762763611E+05  1.1300762763611E+05  5.6503813818055E+04 
 3.5000000000000E-01  3.5000000000000E-01  3.5000000000000E-01  3.5000000000000E-01  3.5000000000000E-01  3.5000000000000E-01  3.5000000000000E-01  3.5000000000000E-01  3.5000000000000E-01  3.5000000000000E-01 
 6.6040000000000E+00  1.3208000000000E+01  1.3208000000000E+01  1.3208000000000E+01  1.3208000000000E+01  1.3208000000000E+01  1.3208000000000E+01  1.3208000000000E+01  1.3208000000000E+01  6.6040000000000E+00 
-2.5250970006543E-01 -2.5251940685316E-01 -2.5255031647453E-01 -2.5260255631885E-01 -2.5267614895093E-01 -2.5277111734055E-01 -2.5288749237969E-01 -2.5302529170635E-01 -2.5318361045194E-01 -2.5333237730540E-01 
 3.3866666666667E-05  6.7733333333333E-05  6.7733333333334E-05  6.7733333333333E-05  6.7733333333334E-05  6.7733333333334E-05  6.7733333333333E-05  6.7733333333334E-05  6.7733333333333E-05  3.3866666666667E-05 
 2.6603001364267E+01  2.6603001364267E+01  2.6603001364267E+01  2.6603001364267E+01  2.6603001364267E+01  2.6603001364267E+01  2.6603001364267E+01  2.6603001364267E+01  2.6603001364267E+01  2.6603001364267E+01 
 1.7735334242827E+01  1.7735334242827E+01  1.7735334242827E+01  1.7735334242827E+01  1.7735334242827E+01  1.7735334242827E+01  1.7735334242827E+01  1.7735334242827E+01  1.7735334242827E+01  1.7735334242827E+01 
 4.3434618844621E-04  4.3436880303109E-04  4.3444053107520E-04  4.3456176602432E-04  4.3473255596454E-04  4.3495296394832E-04  4.3522306529852E-04  4.3554293348601E-04  4.3591157149493E-04  4.3625083815150E-04 
 2.1718576470208E+04  2.1719710040599E+04  2.1723296923996E+04  2.1729359336708E+04  2.1737899885449E+04  2.1748921478839E+04  2.1762427979414E+04  2.1778422369398E+04  2.1796827945151E+04  2.1813121435431E+04 
 8.6761770537914E-02  7.7165272474871E-02  5.9169420324619E-02  4.3567739024248E-02  3.0360398517123E-02  1.9548378238490E-02  1.1133469129766E-02  5.1182756027234E-03  1.5062199123012E-03  3.0145562486830E-04 
 5.3064029571724E-02  2.6533238708190E-01  9.0220649857281E-01  1.9638961260548E+00  3.4507545684757E+00  5.3632789715566E+00  7.7021106690715E+00  1.0468035504462E+01  1.3661977519993E+01  1.5366076563487E+01 
 2.1718436644408E+04  2.1719367542939E+04  2.1722335548077E+04  2.1727351872843E+04  2.1734418770482E+04  2.1743538651490E+04  2.1754714735275E+04  2.1767949215618E+04  2.1783164461412E+04  2.1797755057411E+04 
 9.8683612535213E+03  9.8688362950489E+03  9.8703537267686E+03  9.8729184783314E+03  9.8765317311609E+03  9.8811948226868E+03  9.8869095256741E+03  9.8936772627558E+03  9.9014653496681E+03  9.9091581760617E+03 
 1.1850075390887E+04  1.1850531247891E+04  1.1851981821309E+04  1.1854433394511E+04  1.1857887039321E+04  1.1862343828803E+04  1.1867805209601E+04  1.1874271952862E+04  1.1881699111743E+04  1.1888596881350E+04 
ZONE T = "CATH, 3.0000E-08", I = 10, SOLUTIONTIME = 3.000000E-08
ZONETYPE = ORDERED
DATAPACKING = BLOCK
STRANDID = 3
 1.2700000000000E-03  1.3377333333333E-03  1.4054666666667E-03  1.4732000000000E-03  1.5409333333333E-03  1.6086666666667E-03  1.6764000000000E-03  1.7441333333333E-03  1.8118666666667E-03  1.8796000000000E-03 
 1.9715103600077E-08  1.7399187543732E-08  1.5082987914241E-08  1.2765582649513E-08  1.0447502266000E-08  8.1281874760041E-09  5.8085315081944E-09  3.4876117775222E-09  1.1656114028927E-09  3.9952850055231E-12 
 9.2000000000095E-01  9.2000000000270E-01  9.2000000000270E-01  9.2000000000270E-01  9.2000000000270E-01  9.2000000000270E-01  9.2000000000270E-01  9.2000000000270E-01  9.2000000000270E-01  9.2000000000271E-01 
 3.9999999999524E-02  3.9999999998652E-02  3.9999999998652E-02  3.9999999998651E-02  3.9999999998651E-02  3.9999999998650E-02  3.9999999998650E-02  3.9999999998649E-02  3.9999999998648E-02  3.9999999998647E-02 
 3.9999999999524E-02  3.9999999998652E-02  3.9999999998652E-02  3.9999999998651E-02  3.9999999998651E-02  3.9999999998650E-02  3.9999999998650E-02  3.9999999998649E-02  3.9999999998648E-02  3.9999999998647E-02 
 2.9181790325631E-02  2.9181583251854E-02  2.9181400511820E-02  2.9181242108512E-02  2.9181108046965E-02  2.9180998334271E-02  2.9180912979583E-02  2.9180851994115E-02  2.9180815391152E-02  2.9180803185900E-02 
 3.8001746977858E+00  3.8001725422112E+00  3.8001660753207E+00  3.8001552965865E+00  3.8001402051167E+00  3.8001207996545E+00  3.8000970785784E+00  3.8000690399013E+00  3.8000366812710E+00  3.8000000000000E+00 
 2.9815000326437E+02  2.9815001252198E+02  2.9815001281702E+02  2.9815001275659E+02  2.9815001283321E+02  2.9815001279171E+02  2.9815001274216E+02  2.9815000950664E+02  2.9814991358301E+02  2.9814759790430E+02 
 3.7709929074601E+00  3.7709909589593E+00  3.7709846748089E+00  3.7709740544780E+00  3.7709590970697E+00  3.7709398013202E+00  3.7709161655988E+00  3.7708881879072E+00  3.7708558658799E+00  3.7708191968141E+00 
 3.9714142686934E+00  3.9714142612202E+00  3.9714142609821E+00  3.9714142610308E+00  3.9714142609690E+00  3.9714142610025E+00  3.9714142610425E+00  3.9714142636542E+00  3.9714143410824E+00  3.9714162102633E+00 
-2.0042136123327E-01 -2.0042330226088E-01 -2.0042958617315E-01 -2.0044020655281E-01 -2.0045516389930E-01 -2.0047445968229E-01 -2.0049809544366E-01 -2.0052607574692E-01 -2.0055847520248E-01 -2.0059701344922E-01 
-1.6677487948374E+00 -3.3356266287827E+00 -3.3360349966994E+00 -3.3367251113558E+00 -3.3376973361760E+00 -3.3389519317729E+00 -3.3404893511120E+00 -3.3423092702927E+00 -3.3443885317186E+00 -1.6730812549415E+00 
 1.4709686579176E-07  1.2981080192927E-07  1.1252301959876E-07  9.5231661028940E-08  7.7935264238696E-08  6.0632365977679E-08  4.3321500594690E-08  2.6001204147434E-08  8.6701326130953E-09  8.6701326130953E-09 
 3.0053053207715E+01  2.6717491098581E+01  2.3381660285833E+01  2.0045280231526E+01  1.6708069007696E+01  1.3369744374113E+01  1.0030023732733E+01  6.6886244215851E+00  3.3452755206527E+00  0.0000000000000E+00 
 0.0000000000000E+00  3.3355621093024E+00  6.6713929218323E+00  1.0007772975873E+01  1.3344984199863E+01  1.6683308833877E+01  2.0023029475148E+01  2.3364428785847E+01  2.6707777686890E+01  3.0053053207624E+01 
 5.0027226157408E-08  1.0005829830068E-07  1.0007054594925E-07  1.0009124533807E-07  1.0012040544536E-07  1.0015803568946E-07  1.0020414846722E-07  1.0025874730691E-07  1.0032144344555E-07  5.0190262217262E-08 
 7.2440786946725E+03  1.4488157389345E+04  1.4488157389345E+04  1.4488157389345E+04  1.4488157389345E+04  1.4488157389345E+04  1.4488157389345E+04  1.4488157389345E+04  1.4488157389345E+04  7.2440786946727E+03 
 4.9259735123383E+04  9.8519470246765E+04  9.8519470246766E+04  9.8519470246765E+04  9.8519470246766E+04  9.8519470246766E+04  9.8519470246765E+04  9.8519470246765E+04  9.8519470246765E+04  4.9259735123383E+04 
 5.6503813818055E+04  1.1300762763611E+05  1.1300762763611E+05  1.1300762763611E+05  1.1300762763611E+05  1.1300762763611E+05  1.1300762763611E+05  1.1300762763611E+05  1.1300762763611E+05  5.6503813818055E+04 
 3.5000000000000E-01  3.5000000000000E-01  3.5000000000000E-01  3.5000000000000E-01  3.5000000000000E-01  3.5000000000000E-01  3.5000000000000E-01  3.5000000000000E-01  3.5000000000000E-01  3.5000000000000E-01 
 6.6040000000000E+00  1.3208000000000E+01  1.3208000000000E+01  1.3208000000000E+01  1.3208000000000E+01  1.3208000000000E+01  1.3208000000000E+01  1.3208000000000E+01  1.3208000000000E+01  6.6040000000000E+00 
-2.5253615912135E-01 -2.5254592889027E-01 -2.5257684711534E-01 -2.5262909686219E-01 -2.5270270564628E-01 -2.5279769319904E-01 -2.5291409381527E-01 -2.5305188297189E-01 -2.5320930736815E-01 -2.5334361825280E-01 
 3.3866666666667E-05  6.7733333333333E-05  6.7733333333334E-05  6.7733333333333E-05  6.7733333333334E-05  6.7733333333334E-05  6.7733333333333E-05  6.7733333333334E-05  6.7733333333333E-05  3.3866666666667E-05 
 2.6603001364272E+01  2.6603001364272E+01  2.6603001364272E+01  2.6603001364272E+01  2.6603001364272E+01  2.6603001364272E+01  2.6603001364272E+01  2.6603001364272E+01  2.6603001364272E+01  2.6603001364272E+01 
 1.7735334242822E+01  1.7735334242822E+01  1.7735334242822E+01  1.7735334242822E+01  1.7735334242822E+01  1.7735334242822E+01  1.7735334242822E+01  1.7735334242822E+01  1.7735334242822E+01  1.7735334242822E+01 
 6.5155735801630E-04  6.5159136358745E-04  6.5169897015376E-04  6.5188084158599E-04  6.5213705632889E-04  6.5246770371845E-04  6.5287290065542E-04  6.5335271389946E-04  6.5390464402736E-04  6.5439432490629E-04 
 2.1721116957009E+04  2.1722256055637E+04  2.1725843907857E+04  2.1731907556167E+04  2.1740450036435E+04  2.1751473977013E+04  2.1764983535691E+04  2.1780978041345E+04  2.1799307253243E+04  2.1814348675479E+04 
 8.6779314125003E-02  7.7180840361105E-02  5.9181287922067E-02  4.3576408864056E-02  3.0366373478518E-02  1.9552161503606E-02  1.1135564437904E-02  5.1191876986258E-03  1.5064565112908E-03  3.0148196977771E-04 
 5.3075150718126E-02  2.6538807348278E-01  9.0239593249076E-01  1.9643085819978E+00  3.4514794322413E+00  5.3644057843054E+00  7.7037291774982E+00  1.0470235460735E+01  1.3664842261910E+01  1.5369292957958E+01 
 2.1720977102544E+04  2.1721913486723E+04  2.1724882330636E+04  2.1729899671176E+04  2.1736968190629E+04  2.1746090019067E+04  2.1757268670949E+04  2.1770502686696E+04  2.1785640904524E+04  2.1798979081039E+04 
 9.8696599504908E+03  9.8701373629562E+03  9.8716552241423E+03  9.8742205294943E+03  9.8778346442480E+03  9.8824987858505E+03  9.8882148535741E+03  9.8949827052949E+03  9.9027381556168E+03  9.9098947736106E+03 
 1.1851317152053E+04  1.1851776123767E+04  1.1853227106494E+04  1.1855679141682E+04  1.1859133546381E+04  1.1863591233217E+04  1.1869053817375E+04  1.1875519981401E+04  1.1882902748908E+04  1.1889084307428E+04 
ZONE T = "CATH, 4.0000E-08", I = 10, SOLUTIONTIME = 4.000000E-08
ZONETYPE = ORDERED
DATAPACKING = BLOCK
STRANDID = 3
 1.2700000000000E-03  1.3377333333333E-03  1.4054666666667E-03  1.4732000000000E-03  1.5409333333333E-03  1.6086666666667E-03  1.6764000000000E-03  1.7441333333333E-03  1.8118666666667E-03  1.8796000000000E-03 
 1.9712379532447E-08  1.7395493254916E-08  1.5078323303225E-08  1.2761400462674E-08  1.0443075930823E-08  8.1249696363318E-09  5.8043427124453E-09  3.4828155558617E-09  1.1605814097343E-09 -1.4528309111738E-12 
 9.2000000000127E-01  9.2000000000360E-01  9.2000000000360E-01  9.2000000000360E-01  9.2000000000360E-01  9.2000000000360E-01  9.2000000000360E-01  9.2000000000360E-01  9.2000000000360E-01  9.2000000000361E-01 
 3.9999999999365E-02  3.9999999998202E-02  3.9999999998202E-02  3.9999999998202E-02  3.9999999998201E-02  3.9999999998201E-02  3.9999999998200E-02  3.9999999998199E-02  3.9999999998198E-02  3.9999999998197E-02 
 3.9999999999365E-02  3.9999999998202E-02  3.9999999998202E-02  3.9999999998202E-02  3.9999999998201E-02  3.9999999998201E-02  3.9999999998200E-02  3.9999999998199E-02  3.9999999998198E-02  3.9999999998197E-02 
 2.9187195526649E-02  2.9186988431883E-02  2.9186805673422E-02  2.9186647254249E-02  2.9186513179401E-02  2.9186403455971E-02  2.9186318093114E-02  2.9186257102048E-02  2.9186220496055E-02  2.9186208290242E-02 
 3.8001747161573E+00  3.8001725603564E+00  3.8001660927858E+00  3.8001553129174E+00  3.8001402198592E+00  3.8001208123543E+00  3.8000970887807E+00  3.8000690471510E+00  3.8000366851134E+00  3.8000000000000E+00 