TITLE = "Solution on Domain BulkDomain1D_1"
VARIABLES = "x [m]"  
"Vel_axial" 	"MF_sp(ECDMC)" 	"MF_sp(Li+)" 	"MF_sp(PF6-)" 	"Volt(Electroly)" 	"Temperature" 	"Porosity []" 	"Control volume thickness [m]" 	"volFrac MgO(S) []" 	"qHeat_accum [J/m3]" 	"qHeat_step [W/m3]" 	"Joule_Lyte [W/m3]" 	"Joule_Solid [W/m3]" 	
ZONE T = "SEP , 0.0000E+00", I = 10, SOLUTIONTIME = 0.000000E+00
ZONETYPE = ORDERED
DATAPACKING = BLOCK
STRANDID = 2
 7.8740000000000E-04  8.4102222222222E-04  8.9464444444444E-04  9.4826666666667E-04  1.0018888888889E-03  1.0555111111111E-03  1.1091333333333E-03  1.1627555555556E-03  1.2163777777778E-03  1.2700000000000E-03 
 0.0000000000000E+00  0.0000000000000E+00  0.0000000000000E+00  0.0000000000000E+00  0.0000000000000E+00  0.0000000000000E+00  0.0000000000000E+00  0.0000000000000E+00  0.0000000000000E+00  0.0000000000000E+00 
 9.2000000000000E-01  9.2000000000000E-01  9.2000000000000E-01  9.2000000000000E-01  9.2000000000000E-01  9.2000000000000E-01  9.2000000000000E-01  9.2000000000000E-01  9.2000000000000E-01  9.2000000000000E-01 
 4.0000000000000E-02  4.0000000000000E-02  4.0000000000000E-02  4.0000000000000E-02  4.0000000000000E-02  4.0000000000000E-02  4.0000000000000E-02  4.0000000000000E-02  4.0000000000000E-02  4.0000000000000E-02 
 4.0000000000000E-02  4.0000000000000E-02  4.0000000000000E-02  4.0000000000000E-02  4.0000000000000E-02  4.0000000000000E-02  4.0000000000000E-02  4.0000000000000E-02  4.0000000000000E-02  4.0000000000000E-02 
-7.0000000000000E-02 -7.0000000000000E-02 -7.0000000000000E-02 -7.0000000000000E-02 -7.0000000000000E-02 -7.0000000000000E-02 -7.0000000000000E-02 -7.0000000000000E-02 -7.0000000000000E-02 -7.0000000000000E-02 
 2.9815000000000E+02  2.9815000000000E+02  2.9815000000000E+02  2.9815000000000E+02  2.9815000000000E+02  2.9815000000000E+02  2.9815000000000E+02  2.9815000000000E+02  2.9815000000000E+02  2.9815000000000E+02 
 8.0911499769706E-01  8.0911499769706E-01  8.0911499769706E-01  8.0911499769706E-01  8.0911499769706E-01  8.0911499769706E-01  8.0911499769706E-01  8.0911499769706E-01  8.0911499769706E-01  8.0911499769706E-01 
 2.6811111111111E-05  5.3622222222222E-05  5.3622222222222E-05  5.3622222222222E-05  5.3622222222222E-05  5.3622222222222E-05  5.3622222222222E-05  5.3622222222223E-05  5.3622222222222E-05  2.6811111111111E-05 
 1.9088500230294E-01  1.9088500230294E-01  1.9088500230294E-01  1.9088500230294E-01  1.9088500230294E-01  1.9088500230294E-01  1.9088500230294E-01  1.9088500230294E-01  1.9088500230294E-01  1.9088500230294E-01 
 0.0000000000000E+00  0.0000000000000E+00  0.0000000000000E+00  0.0000000000000E+00  0.0000000000000E+00  0.0000000000000E+00  0.0000000000000E+00  0.0000000000000E+00  0.0000000000000E+00  0.0000000000000E+00 
 0.0000000000000E+00  0.0000000000000E+00  0.0000000000000E+00  0.0000000000000E+00  0.0000000000000E+00  0.0000000000000E+00  0.0000000000000E+00  0.0000000000000E+00  0.0000000000000E+00  0.0000000000000E+00 
 0.0000000000000E+00  0.0000000000000E+00  0.0000000000000E+00  0.0000000000000E+00  0.0000000000000E+00  0.0000000000000E+00  0.0000000000000E+00  0.0000000000000E+00  0.0000000000000E+00  0.0000000000000E+00 
 0.0000000000000E+00  0.0000000000000E+00  0.0000000000000E+00  0.0000000000000E+00  0.0000000000000E+00  0.0000000000000E+00  0.0000000000000E+00  0.0000000000000E+00  0.0000000000000E+00  0.0000000000000E+00 
ZONE T = "SEP , 1.0000E-08", I = 10, SOLUTIONTIME = 1.000000E-08
ZONETYPE = ORDERED
DATAPACKING = BLOCK
STRANDID = 2
 7.8740000000000E-04  8.4102222222222E-04  8.9464444444444E-04  9.4826666666667E-04  1.0018888888889E-03  1.0555111111111E-03  1.1091333333333E-03  1.1627555555556E-03  1.2163777777778E-03  1.2700000000000E-03 
 2.0865060340246E-08  2.0865060340246E-08  2.0865060340246E-08  2.0865060340246E-08  2.0865060340246E-08  2.0865060340246E-08  2.0865060340246E-08  2.0865060340246E-08  2.0865060340246E-08  1.9707213478943E-08 
 9.1999999999971E-01  9.2000000000000E-01  9.2000000000000E-01  9.2000000000000E-01  9.2000000000000E-01  9.2000000000000E-01  9.2000000000000E-01  9.2000000000000E-01  9.2000000000000E-01  9.2000000000032E-01 
 4.0000000000144E-02  4.0000000000000E-02  4.0000000000000E-02  4.0000000000000E-02  4.0000000000000E-02  4.0000000000000E-02  4.0000000000000E-02  4.0000000000000E-02  4.0000000000000E-02  3.9999999999841E-02 
 4.0000000000144E-02  4.0000000000000E-02  4.0000000000000E-02  4.0000000000000E-02  4.0000000000000E-02  4.0000000000000E-02  4.0000000000000E-02  4.0000000000000E-02  4.0000000000000E-02  3.9999999999841E-02 
 2.9171459874397E-02  2.9171410504839E-02  2.9171361135281E-02  2.9171311765736E-02  2.9171262396178E-02  2.9171213026634E-02  2.9171163657081E-02  2.9171114287523E-02  2.9171064917979E-02  2.9171015548420E-02 
 2.9814999956203E+02  2.9814999998829E+02  2.9814999999604E+02  2.9814999999286E+02  2.9814999999292E+02  2.9814999999295E+02  2.9815000000094E+02  2.9814999999810E+02  2.9815000000788E+02  2.9815000102788E+02 
 8.0911499769706E-01  8.0911499769706E-01  8.0911499769706E-01  8.0911499769706E-01  8.0911499769706E-01  8.0911499769706E-01  8.0911499769706E-01  8.0911499769706E-01  8.0911499769706E-01  8.0911499769706E-01 
 2.6811111111111E-05  5.3622222222222E-05  5.3622222222222E-05  5.3622222222222E-05  5.3622222222222E-05  5.3622222222222E-05  5.3622222222222E-05  5.3622222222223E-05  5.3622222222222E-05  2.6811111111111E-05 
 1.9088500230294E-01  1.9088500230294E-01  1.9088500230294E-01  1.9088500230294E-01  1.9088500230294E-01  1.9088500230294E-01  1.9088500230294E-01  1.9088500230294E-01  1.9088500230294E-01  1.9088500230294E-01 
 2.7663880037765E-10  2.7663879819656E-10  2.7663871729863E-10  2.7663871945623E-10  2.7663871601591E-10  2.7663868492820E-10  2.7663876708194E-10  2.7663871729126E-10  2.7663871969446E-10  2.7663880081504E-10 
 2.7663880037765E-02  2.7663879819656E-02  2.7663871729863E-02  2.7663871945623E-02  2.7663871601591E-02  2.7663868492820E-02  2.7663876708194E-02  2.7663871729126E-02  2.7663871969446E-02  2.7663880081504E-02 
 2.7663880037765E-02  2.7663879819656E-02  2.7663871729863E-02  2.7663871945623E-02  2.7663871601591E-02  2.7663868492820E-02  2.7663876708194E-02  2.7663871729126E-02  2.7663871969446E-02  2.7663880081504E-02 
 0.0000000000000E+00  0.0000000000000E+00  0.0000000000000E+00  0.0000000000000E+00  0.0000000000000E+00  0.0000000000000E+00  0.0000000000000E+00  0.0000000000000E+00  0.0000000000000E+00  0.0000000000000E+00 
ZONE T = "SEP , 2.0000E-08", I = 10, SOLUTIONTIME = 2.000000E-08
ZONETYPE = ORDERED
DATAPACKING = BLOCK
STRANDID = 2
 7.8740000000000E-04  8.4102222222222E-04  8.9464444444444E-04  9.4826666666667E-04  1.0018888888889E-03  1.0555111111111E-03  1.1091333333333E-03  1.1627555555556E-03  1.2163777777778E-03  1.2700000000000E-03 
 2.0867089360800E-08  2.0865636529889E-08  2.0865636529889E-08  2.0865636529889E-08  2.0865636529889E-08  2.0865636529889E-08  2.0865636529889E-08  2.0865636529889E-08  2.0865636529889E-08  1.9706755017533E-08 
 9.1999999999942E-01  9.2000000000000E-01  9.2000000000000E-01  9.2000000000000E-01  9.2000000000000E-01  9.2000000000000E-01  9.2000000000000E-01  9.2000000000000E-01  9.2000000000000E-01  9.2000000000064E-01 
 4.0000000000288E-02  4.0000000000000E-02  4.0000000000000E-02  4.0000000000000E-02  4.0000000000000E-02  4.0000000000000E-02  4.0000000000000E-02  4.0000000000000E-02  4.0000000000000E-02  3.9999999999682E-02 
 4.0000000000288E-02  4.0000000000000E-02  4.0000000000000E-02  4.0000000000000E-02  4.0000000000000E-02  4.0000000000000E-02  4.0000000000000E-02  4.0000000000000E-02  4.0000000000000E-02  3.9999999999682E-02 
 2.9176841368352E-02  2.9176791993569E-02  2.9176742618786E-02  2.9176693244004E-02  2.9176643869221E-02  2.9176594494439E-02  2.9176545119656E-02  2.9176495744873E-02  2.9176446370091E-02  2.9176396995308E-02 
 2.9814999911006E+02  2.9814999996891E+02  2.9814999999557E+02  2.9814999999826E+02  2.9814999999283E+02  2.9814999998753E+02  2.9815000000061E+02  2.9814999999850E+02  2.9815000002222E+02  2.9815000213176E+02 
 8.0911499769706E-01  8.0911499769706E-01  8.0911499769706E-01  8.0911499769706E-01  8.0911499769706E-01  8.0911499769706E-01  8.0911499769706E-01  8.0911499769706E-01  8.0911499769706E-01  8.0911499769706E-01 
 2.6811111111111E-05  5.3622222222222E-05  5.3622222222222E-05  5.3622222222222E-05  5.3622222222222E-05  5.3622222222222E-05  5.3622222222222E-05  5.3622222222223E-05  5.3622222222222E-05  2.6811111111111E-05 
 1.9088500230294E-01  1.9088500230294E-01  1.9088500230294E-01  1.9088500230294E-01  1.9088500230294E-01  1.9088500230294E-01  1.9088500230294E-01  1.9088500230294E-01  1.9088500230294E-01  1.9088500230294E-01 
 5.5333614848153E-10  5.5333614650279E-10  5.5333606581985E-10  5.5333606797127E-10  5.5333606453407E-10  5.5333603346649E-10  5.5333611561589E-10  5.5333606581765E-10  5.5333606873136E-10  5.5333615036748E-10 
 2.7669734810387E-02  2.7669734830623E-02  2.7669734852121E-02  2.7669734851504E-02  2.7669734851817E-02  2.7669734853829E-02  2.7669734853394E-02  2.7669734852638E-02  2.7669734903691E-02  2.7669734955244E-02 
 2.7669734810387E-02  2.7669734830623E-02  2.7669734852121E-02  2.7669734851504E-02  2.7669734851817E-02  2.7669734853829E-02  2.7669734853394E-02  2.7669734852638E-02  2.7669734903691E-02  2.7669734955244E-02 
 0.0000000000000E+00  0.0000000000000E+00  0.0000000000000E+00  0.0000000000000E+00  0.0000000000000E+00  0.0000000000000E+00  0.0000000000000E+00  0.0000000000000E+00  0.0000000000000E+00  0.0000000000000E+00 
ZONE T = "SEP , 3.0000E-08", I = 10, SOLUTIONTIME = 3.000000E-08
ZONETYPE = ORDERED
DATAPACKING = BLOCK
STRANDID = 2
 7.8740000000000E-04  8.4102222222222E-04  8.9464444444444E-04  9.4826666666667E-04  1.0018888888889E-03  1.0555111111111E-03  1.1091333333333E-03  1.1627555555556E-03  1.2163777777778E-03  1.2700000000000E-03 
 2.0873379981257E-08  2.0874832812168E-08  2.0874832812168E-08  2.0874832812168E-08  2.0874832812168E-08  2.0874832812168E-08  2.0874832812168E-08  2.0874832812168E-08  2.0874832812168E-08  1.9717282797358E-08 
 9.1999999999914E-01  9.2000000000000E-01  9.2000000000000E-01  9.2000000000000E-01  9.2000000000000E-01  9.2000000000000E-01  9.2000000000000E-01  9.2000000000000E-01  9.2000000000000E-01  9.2000000000095E-01 
 4.0000000000432E-02  4.0000000000000E-02  4.0000000000000E-02  4.0000000000000E-02  4.0000000000000E-02  4.0000000000000E-02  4.0000000000000E-02  4.0000000000000E-02  4.0000000000000E-02  3.9999999999524E-02 
 4.0000000000432E-02  4.0000000000000E-02  4.0000000000000E-02  4.0000000000000E-02  4.0000000000000E-02  4.0000000000000E-02  4.0000000000000E-02  4.0000000000000E-02  4.0000000000000E-02  3.9999999999524E-02 
 2.9182234656843E-02  2.9182185277059E-02  2.9182135897275E-02  2.9182086517491E-02  2.9182037137707E-02  2.9181987757923E-02  2.9181938378139E-02  2.9181888998355E-02  2.9181839618571E-02  2.9181790238786E-02 
 2.9814999864743E+02  2.9814999995855E+02  2.9814999999465E+02  2.9815000000323E+02  2.9814999999823E+02  2.9814999998777E+02  2.9814999999450E+02  2.9814999999966E+02  2.9815000004219E+02  2.9815000325439E+02 
 8.0911499769706E-01  8.0911499769706E-01  8.0911499769706E-01  8.0911499769706E-01  8.0911499769706E-01  8.0911499769706E-01  8.0911499769706E-01  8.0911499769706E-01  8.0911499769706E-01  8.0911499769706E-01 
 2.6811111111111E-05  5.3622222222222E-05  5.3622222222222E-05  5.3622222222222E-05  5.3622222222222E-05  5.3622222222222E-05  5.3622222222222E-05  5.3622222222223E-05  5.3622222222222E-05  2.6811111111111E-05 
 1.9088500230294E-01  1.9088500230294E-01  1.9088500230294E-01  1.9088500230294E-01  1.9088500230294E-01  1.9088500230294E-01  1.9088500230294E-01  1.9088500230294E-01  1.9088500230294E-01  1.9088500230294E-01 
 8.3008955580837E-10  8.3008955413848E-10  8.3008947377347E-10  8.3008947593314E-10  8.3008947249870E-10  8.3008944143557E-10  8.3008952358308E-10  8.3008947379045E-10  8.3008947747313E-10  8.3008955986984E-10 
 2.7675340732685E-02  2.7675340763570E-02  2.7675340795362E-02  2.7675340796187E-02  2.7675340796463E-02  2.7675340796908E-02  2.7675340796719E-02  2.7675340797280E-02  2.7675340874177E-02  2.7675340950235E-02 
 2.7675340732685E-02  2.7675340763570E-02  2.7675340795362E-02  2.7675340796187E-02  2.7675340796463E-02  2.7675340796908E-02  2.7675340796719E-02  2.7675340797280E-02  2.7675340874177E-02  2.7675340950235E-02 
 0.0000000000000E+00  0.0000000000000E+00  0.0000000000000E+00  0.0000000000000E+00  0.0000000000000E+00  0.0000000000000E+00  0.0000000000000E+00  0.0000000000000E+00  0.0000000000000E+00  0.0000000000000E+00 
ZONE T = "SEP , 4.0000E-08", I = 10, SOLUTIONTIME = 4.000000E-08
ZONETYPE = ORDERED
DATAPACKING = BLOCK
STRANDID = 2
 7.8740000000000E-04  8.4102222222222E-04  8.9464444444444E-04  9.4826666666667E-04  1.0018888888889E-03  1.0555111111111E-03  1.1091333333333E-03  1.1627555555556E-03  1.2163777777778E-03  1.2700000000000E-03 
 2.0867871909059E-08  2.0867871909059E-08  2.0867871909059E-08  2.0867871909059E-08  2.0867871909059E-08  2.0867871909059E-08  2.0867871909059E-08  2.0867871909059E-08  2.0867871909059E-08  1.9710563486624E-08 
 9.1999999999885E-01  9.2000000000000E-01  9.2000000000000E-01  9.2000000000000E-01  9.2000000000000E-01  9.2000000000000E-01  9.2000000000000E-01  9.2000000000000E-01  9.2000000000000E-01  9.2000000000127E-01 
 4.0000000000576E-02  4.0000000000000E-02  4.0000000000000E-02  4.0000000000000E-02  4.0000000000000E-02  4.0000000000000E-02  4.0000000000000E-02  4.0000000000000E-02  4.0000000000000E-02  3.9999999999365E-02 
 4.0000000000576E-02  4.0000000000000E-02  4.0000000000000E-02  4.0000000000000E-02  4.0000000000000E-02  4.0000000000000E-02  4.0000000000000E-02  4.0000000000000E-02  4.0000000000000E-02  3.9999999999365E-02 
 2.9187639972027E-02  2.9187590587229E-02  2.9187541202430E-02  2.9187491817631E-02  2.9187442432833E-02  2.9187393048034E-02  2.9187343663235E-02  2.9187294278437E-02  2.9187244893638E-02  2.9187195508839E-02 
 2.9814999827761E+02  2.9814999994241E+02  2.9814999999307E+02  2.9815000000772E+02  2.9815000000358E+02  2.9814999999346E+02  2.9814999999420E+02  2.9815000000723E+02  2.9815000006948E+02  2.9815000436449E+02 
 8.0911499769706E-01  8.0911499769706E-01  8.0911499769706E-01  8.0911499769706E-01  8.0911499769706E-01  8.0911499769706E-01  8.0911499769706E-01  8.0911499769706E-01  8.0911499769706E-01  8.0911499769706E-01 
 2.6811111111111E-05  5.3622222222222E-05  5.3622222222222E-05  5.3622222222222E-05  5.3622222222222E-05  5.3622222222222E-05  5.3622222222222E-05  5.3622222222223E-05  5.3622222222222E-05  2.6811111111111E-05 
 1.9088500230294E-01  1.9088500230294E-01  1.9088500230294E-01  1.9088500230294E-01  1.9088500230294E-01  1.9088500230294E-01  1.9088500230294E-01  1.9088500230294E-01  1.9088500230294E-01  1.9088500230294E-01 
 1.1068991754806E-09  1.1068991742283E-09  1.1068990942852E-09  1.1068990964661E-09  1.1068990930326E-09  1.1068990619555E-09  1.1068991441020E-09  1.1068990943276E-09  1.1068990990417E-09  1.1068991824484E-09 
 2.7680961967222E-02  2.7680962008982E-02  2.7680962051172E-02  2.7680962053301E-02  2.7680962053388E-02  2.7680962051992E-02  2.7680962051890E-02  2.7680962053712E-02  2.7680962156857E-02  2.7680962257859E-02 
 2.7680961967222E-02  2.7680962008982E-02  2.7680962051172E-02  2.7680962053301E-02  2.7680962053388E-02  2.7680962051992E-02  2.7680962051890E-02  2.7680962053712E-02  2.7680962156857E-02  2.7680962257859E-02 
 0.0000000000000E+00  0.0000000000000E+00  0.0000000000000E+00  0.0000000000000E+00  0.0000000000000E+00  0.0000000000000E+00  0.0000000000000E+00  0.0000000000000E+00  0.0000000000000E+00  0.0000000000000E+00 
ZONE T = "SEP , 5.5000E-08", I = 10, SOLUTIONTIME = 5.500000E-08
ZONETYPE = ORDERED
DATAPACKING = BLOCK
STRANDID = 2
 7.8740000000000E-04  8.4102222222222E-04  8.9464444444444E-04  9.4826666666667E-04  1.0018888888889E-03  1.0555111111111E-03  1.1091333333333E-03  1.1627555555556E-03  1.2163777777778E-03  1.2700000000000E-03 
 2.0874808219296E-08  2.0874808219296E-08  2.0874808219296E-08  2.0874808219296E-08  2.0874808219296E-08  2.0874808219296E-08  2.0874808219296E-08  2.0874808219296E-08  2.0874808219296E-08  1.9715803804447E-08 
 9.1999999999842E-01  9.2000000000000E-01  9.2000000000000E-01  9.2000000000000E-01  9.2000000000000E-01  9.2000000000000E-01  9.2000000000000E-01  9.2000000000000E-01  9.2000000000000E-01  9.2000000000175E-01 
 4.0000000000791E-02  4.0000000000000E-02  4.0000000000000E-02  4.0000000000000E-02  4.0000000000000E-02  4.0000000000000E-02  4.0000000000000E-02  4.0000000000000E-02  4.0000000000000E-02  3.9999999999127E-02 
 4.0000000000791E-02  4.0000000000000E-02  4.0000000000000E-02  4.0000000000000E-02  4.0000000000000E-02  4.0000000000000E-02  4.0000000000000E-02  4.0000000000000E-02  4.0000000000000E-02  3.9999999999127E-02 
 2.9195755548756E-02  2.9195706156425E-02  2.9195656764095E-02  2.9195607371764E-02  2.9195557979433E-02  2.9195508587103E-02  2.9195459194772E-02  2.9195409802442E-02  2.9195360410111E-02  2.9195311017780E-02 
 2.9814999760665E+02  2.9814999991052E+02  2.9814999999948E+02  2.9815000000856E+02  2.9815000001124E+02  2.9814999999639E+02  2.9814999999415E+02  2.9814999999988E+02  2.9815000014668E+02  2.9815000612489E+02 
 8.0911499769706E-01  8.0911499769706E-01  8.0911499769706E-01  8.0911499769706E-01  8.0911499769706E-01  8.0911499769706E-01  8.0911499769706E-01  8.0911499769706E-01  8.0911499769706E-01  8.0911499769706E-01 
 2.6811111111111E-05  5.3622222222222E-05  5.3622222222222E-05  5.3622222222222E-05  5.3622222222222E-05  5.3622222222222E-05  5.3622222222222E-05  5.3622222222223E-05  5.3622222222222E-05  2.6811111111111E-05 
 1.9088500230294E-01  1.9088500230294E-01  1.9088500230294E-01  1.9088500230294E-01  1.9088500230294E-01  1.9088500230294E-01  1.9088500230294E-01  1.9088500230294E-01  1.9088500230294E-01  1.9088500230294E-01 
 1.5222402671277E-09  1.5222402667029E-09  1.5222401876116E-09  1.5222401898418E-09  1.5222401864084E-09  1.5222401553123E-09  1.5222402374636E-09  1.5222401877515E-09  1.5222401946533E-09  1.5222402801842E-09 
 2.7689406109805E-02  2.7689406164976E-02  2.7689406221760E-02  2.7689406225046E-02  2.7689406225055E-02  2.7689406223789E-02  2.7689406224105E-02  2.7689406228262E-02  2.7689406374108E-02  2.7689406515715E-02 
 2.7689406109805E-02  2.7689406164976E-02  2.7689406221760E-02  2.7689406225046E-02  2.7689406225055E-02  2.7689406223789E-02  2.7689406224105E-02  2.7689406228262E-02  2.7689406374108E-02  2.7689406515715E-02 
 0.0000000000000E+00  0.0000000000000E+00  0.0000000000000E+00  0.0000000000000E+00  0.0000000000000E+00  0.0000000000000E+00  0.0000000000000E+00  0.0000000000000E+00  0.0000000000000E+00  0.0000000000000E+00 
ZONE T = "SEP , 7.7500E-08", I = 10, SOLUTIONTIME = 7.750000E-08
ZONETYPE = ORDERED
DATAPACKING = BLOCK
STRANDID = 2
 7.8740000000000E-04  8.4102222222222E-04  8.9464444444444E-04  9.4826666666667E-04  1.0018888888889E-03  1.0555111111111E-03  1.1091333333333E-03  1.1627555555556E-03  1.2163777777778E-03  1.2700000000000E-03 
 2.0878780504014E-08  2.0878780504014E-08  2.0878780504014E-08  2.0878780504014E-08  2.0878780504014E-08  2.0878780504014E-08  2.0878780504014E-08  2.0878780504014E-08  2.0878780504014E-08  1.9720268746714E-08 
 9.1999999999777E-01  9.2000000000000E-01  9.2000000000000E-01  9.2000000000000E-01  9.2000000000000E-01  9.2000000000000E-01  9.2000000000000E-01  9.2000000000000E-01  9.2000000000000E-01  9.2000000000246E-01 
 4.0000000001114E-02  4.0000000000000E-02  4.0000000000000E-02  4.0000000000000E-02  4.0000000000000E-02  4.0000000000000E-02  4.0000000000000E-02  4.0000000000000E-02  4.0000000000000E-02  3.9999999998769E-02 
 4.0000000001114E-02  4.0000000000000E-02  4.0000000000000E-02  4.0000000000000E-02  4.0000000000000E-02  4.0000000000000E-02  4.0000000000000E-02  4.0000000000000E-02  4.0000000000000E-02  3.9999999998769E-02 
 2.9207934067309E-02  2.9207884663669E-02  2.9207835260030E-02  2.9207785856390E-02  2.9207736452751E-02  2.9207687049111E-02  2.9207637645472E-02  2.9207588241832E-02  2.9207538838192E-02  2.9207489434552E-02 
 2.9814999656707E+02  2.9814999985781E+02  2.9814999999797E+02  2.9815000000445E+02  2.9815000001602E+02  2.9815000000679E+02  2.9814999999984E+02  2.9815000000646E+02  2.9815000031358E+02  2.9815000880702E+02 
 8.0911499769706E-01  8.0911499769706E-01  8.0911499769706E-01  8.0911499769706E-01  8.0911499769706E-01  8.0911499769706E-01  8.0911499769706E-01  8.0911499769706E-01  8.0911499769706E-01  8.0911499769706E-01 
 2.6811111111111E-05  5.3622222222222E-05  5.3622222222222E-05  5.3622222222222E-05  5.3622222222222E-05  5.3622222222222E-05  5.3622222222222E-05  5.3622222222223E-05  5.3622222222222E-05  2.6811111111111E-05 
 1.9088500230294E-01  1.9088500230294E-01  1.9088500230294E-01  1.9088500230294E-01  1.9088500230294E-01  1.9088500230294E-01  1.9088500230294E-01  1.9088500230294E-01  1.9088500230294E-01  1.9088500230294E-01 
 2.1455372272552E-09  2.1455372286223E-09  2.1455371513775E-09  2.1455371536967E-09  2.1455371502964E-09  2.1455371192076E-09  2.1455372013674E-09  2.1455371517980E-09  2.1455371634301E-09  2.1455372535487E-09 
 2.7702087116779E-02  2.7702087196416E-02  2.7702087278484E-02  2.7702087282440E-02  2.7702087283912E-02  2.7702087284233E-02  2.7702087284617E-02  2.7702087290955E-02  2.7702087501189E-02  2.7702087705092E-02 
 2.7702087116779E-02  2.7702087196416E-02  2.7702087278484E-02  2.7702087282440E-02  2.7702087283912E-02  2.7702087284233E-02  2.7702087284617E-02  2.7702087290955E-02  2.7702087501189E-02  2.7702087705092E-02 
 0.0000000000000E+00  0.0000000000000E+00  0.0000000000000E+00  0.0000000000000E+00  0.0000000000000E+00  0.0000000000000E+00  0.0000000000000E+00  0.0000000000000E+00  0.0000000000000E+00  0.0000000000000E+00 
ZONE T = "SEP , 1.1125E-07", I = 10, SOLUTIONTIME = 1.112500E-07
ZONETYPE = ORDERED
DATAPACKING = BLOCK
STRANDID = 2
 7.8740000000000E-04  8.4102222222222E-04  8.9464444444444E-04  9.4826666666667E-04  1.0018888888889E-03  1.0555111111111E-03  1.1091333333333E-03  1.1627555555556E-03  1.2163777777778E-03  1.2700000000000E-03 
 2.0886700346735E-08  2.0886700346735E-08  2.0886700346735E-08  2.0886700346735E-08  2.0886700346735E-08  2.0886700346735E-08  2.0886700346735E-08  2.0886700346735E-08  2.0886700346735E-08  1.9727454880316E-08 
 9.1999999999680E-01  9.2000000000000E-01  9.2000000000000E-01  9.2000000000000E-01  9.2000000000000E-01  9.2000000000000E-01  9.2000000000000E-01  9.2000000000000E-01  9.2000000000000E-01  9.2000000000353E-01 
 4.0000000001598E-02  4.0000000000000E-02  4.0000000000000E-02  4.0000000000000E-02  4.0000000000000E-02  4.0000000000000E-02  4.0000000000000E-02  4.0000000000000E-02  4.0000000000000E-02  3.9999999998233E-02 
 4.0000000001598E-02  4.0000000000000E-02  4.0000000000000E-02  4.0000000000000E-02  4.0000000000000E-02  4.0000000000000E-02  4.0000000000000E-02  4.0000000000000E-02  4.0000000000000E-02  3.9999999998233E-02 
 2.9226181995235E-02  2.9226132574639E-02  2.9226083154042E-02  2.9226033733445E-02  2.9225984312849E-02  2.9225934892252E-02  2.9225885471655E-02  2.9225836051058E-02  2.9225786630461E-02  2.9225737209863E-02 
 2.9814999505675E+02  2.9814999970785E+02  2.9814999999009E+02  2.9815000000419E+02  2.9815000001604E+02  2.9815000000639E+02  2.9815000000356E+02  2.9815000002587E+02  2.9815000066391E+02  2.9815001294783E+02 
 8.0911499769706E-01  8.0911499769706E-01  8.0911499769706E-01  8.0911499769706E-01  8.0911499769706E-01  8.0911499769706E-01  8.0911499769706E-01  8.0911499769706E-01  8.0911499769706E-01  8.0911499769706E-01 
 2.6811111111111E-05  5.3622222222222E-05  5.3622222222222E-05  5.3622222222222E-05  5.3622222222222E-05  5.3622222222222E-05  5.3622222222222E-05  5.3622222222223E-05  5.3622222222222E-05  2.6811111111111E-05 
 1.9088500230294E-01  1.9088500230294E-01  1.9088500230294E-01  1.9088500230294E-01  1.9088500230294E-01  1.9088500230294E-01  1.9088500230294E-01  1.9088500230294E-01  1.9088500230294E-01  1.9088500230294E-01 
 3.0811245945326E-09  3.0811245997706E-09  3.0811245265581E-09  3.0811245291500E-09  3.0811245257933E-09  3.0811244947125E-09  3.0811245768668E-09  3.0811245278149E-09  3.0811245501276E-09  3.0811246503284E-09 
 2.7721107178591E-02  2.7721107293281E-02  2.7721107412759E-02  2.7721107420836E-02  2.7721107422128E-02  2.7721107422367E-02  2.7721107422204E-02  2.7721107437539E-02  2.7721107754002E-02  2.7721108052730E-02 
 2.7721107178591E-02  2.7721107293281E-02  2.7721107412759E-02  2.7721107420836E-02  2.7721107422128E-02  2.7721107422367E-02  2.7721107422204E-02  2.7721107437539E-02  2.7721107754002E-02  2.7721108052730E-02 
 0.0000000000000E+00  0.0000000000000E+00  0.0000000000000E+00  0.0000000000000E+00  0.0000000000000E+00  0.0000000000000E+00  0.0000000000000E+00  0.0000000000000E+00  0.0000000000000E+00  0.0000000000000E+00 
ZONE T = "SEP , 1.6188E-07", I = 10, SOLUTIONTIME = 1.618750E-07
ZONETYPE = ORDERED
DATAPACKING = BLOCK
STRANDID = 2
 7.8740000000000E-04  8.4102222222222E-04  8.9464444444444E-04  9.4826666666667E-04  1.0018888888889E-03  1.0555111111111E-03  1.1091333333333E-03  1.1627555555556E-03  1.2163777777778E-03  1.2700000000000E-03 
 2.0897020114338E-08  2.0896733135392E-08  2.0896733135392E-08  2.0896733135392E-08  2.0896733135392E-08  2.0896733135392E-08  2.0896733135392E-08  2.0896733135392E-08  2.0896733135392E-08  1.9737322060725E-08 
 9.1999999999536E-01  9.2000000000000E-01  9.2000000000000E-01  9.2000000000000E-01  9.2000000000000E-01  9.2000000000000E-01  9.2000000000000E-01  9.2000000000000E-01  9.2000000000000E-01  9.2000000000514E-01 
 4.0000000002321E-02  4.0000000000001E-02  4.0000000000000E-02  4.0000000000000E-02  4.0000000000000E-02  4.0000000000000E-02  4.0000000000000E-02  4.0000000000000E-02  3.9999999999999E-02  3.9999999997428E-02 
 4.0000000002321E-02  4.0000000000001E-02  4.0000000000000E-02  4.0000000000000E-02  4.0000000000000E-02  4.0000000000000E-02  4.0000000000000E-02  4.0000000000000E-02  3.9999999999999E-02  3.9999999997428E-02 
 2.9253439782448E-02  2.9253390336500E-02  2.9253340890551E-02  2.9253291444603E-02  2.9253241998654E-02  2.9253192552705E-02  2.9253143106756E-02  2.9253093660807E-02  2.9253044214858E-02  2.9252994768907E-02 
 2.9814999269367E+02  2.9814999942725E+02  2.9814999996146E+02  2.9815000000123E+02  2.9815000001410E+02  2.9815000000661E+02  2.9815000000990E+02  2.9815000007940E+02  2.9815000141220E+02  2.9815001938475E+02 
 8.0911499769706E-01  8.0911499769706E-01  8.0911499769706E-01  8.0911499769706E-01  8.0911499769706E-01  8.0911499769706E-01  8.0911499769706E-01  8.0911499769706E-01  8.0911499769706E-01  8.0911499769706E-01 
 2.6811111111111E-05  5.3622222222222E-05  5.3622222222222E-05  5.3622222222222E-05  5.3622222222222E-05  5.3622222222222E-05  5.3622222222222E-05  5.3622222222223E-05  5.3622222222222E-05  2.6811111111111E-05 
 1.9088500230294E-01  1.9088500230294E-01  1.9088500230294E-01  1.9088500230294E-01  1.9088500230294E-01  1.9088500230294E-01  1.9088500230294E-01  1.9088500230294E-01  1.9088500230294E-01  1.9088500230294E-01 
 4.4859458380742E-09  4.4859458518821E-09  4.4859457879434E-09  4.4859457912757E-09  4.4859457879493E-09  4.4859457568671E-09  4.4859458391378E-09  4.4859457917983E-09  4.4859458384887E-09  4.4859459614661E-09 
 2.7749555427982E-02  2.7749555597265E-02  2.7749555780451E-02  2.7749555795077E-02  2.7749555795674E-02  2.7749555795647E-02  2.7749555797945E-02  2.7749555831770E-02  2.7749556313305E-02  2.7749556763214E-02 
 2.7749555427982E-02  2.7749555597265E-02  2.7749555780451E-02  2.7749555795077E-02  2.7749555795674E-02  2.7749555795647E-02  2.7749555797945E-02  2.7749555831770E-02  2.7749556313305E-02  2.7749556763214E-02 
 0.0000000000000E+00  0.0000000000000E+00  0.0000000000000E+00  0.0000000000000E+00  0.0000000000000E+00  0.0000000000000E+00  0.0000000000000E+00  0.0000000000000E+00  0.0000000000000E+00  0.0000000000000E+00 
ZONE T = "SEP , 2.3781E-07", I = 10, SOLUTIONTIME = 2.378125E-07
ZONETYPE = ORDERED
DATAPACKING = BLOCK
STRANDID = 2
 7.8740000000000E-04  8.4102222222222E-04  8.9464444444444E-04  9.4826666666667E-04  1.0018888888889E-03  1.0555111111111E-03  1.1091333333333E-03  1.1627555555556E-03  1.2163777777778E-03  1.2700000000000E-03 
 2.0913379616237E-08  2.0913666595183E-08  2.0913666595183E-08  2.0913666595183E-08  2.0913666595183E-08  2.0913666595183E-08  2.0913666595183E-08  2.0913666595183E-08  2.0913570935534E-08  1.9752768346005E-08 
 9.1999999999319E-01  9.2000000000000E-01  9.2000000000000E-01  9.2000000000000E-01  9.2000000000000E-01  9.2000000000000E-01  9.2000000000000E-01  9.2000000000000E-01  9.2000000000000E-01  9.2000000000756E-01 
 4.0000000003403E-02  4.0000000000002E-02  4.0000000000000E-02  4.0000000000000E-02  4.0000000000000E-02  4.0000000000000E-02  4.0000000000000E-02  4.0000000000000E-02  3.9999999999998E-02  3.9999999996220E-02 
 4.0000000003403E-02  4.0000000000002E-02  4.0000000000000E-02  4.0000000000000E-02  4.0000000000000E-02  4.0000000000000E-02  4.0000000000000E-02  4.0000000000000E-02  3.9999999999998E-02  3.9999999996220E-02 
 2.9293951337162E-02  2.9293901853495E-02  2.9293852369827E-02  2.9293802886159E-02  2.9293753402491E-02  2.9293703918823E-02  2.9293654435155E-02  2.9293604951486E-02  2.9293555467818E-02  2.9293505984147E-02 
 2.9814998906860E+02  2.9814999884989E+02  2.9814999990160E+02  2.9815000000610E+02  2.9815000000976E+02  2.9815000000910E+02  2.9815000002036E+02  2.9815000025186E+02  2.9815000301359E+02  2.9815002944739E+02 
 8.0911499769706E-01  8.0911499769706E-01  8.0911499769706E-01  8.0911499769706E-01  8.0911499769706E-01  8.0911499769706E-01  8.0911499769706E-01  8.0911499769706E-01  8.0911499769706E-01  8.0911499769706E-01 
 2.6811111111111E-05  5.3622222222222E-05  5.3622222222222E-05  5.3622222222222E-05  5.3622222222222E-05  5.3622222222222E-05  5.3622222222222E-05  5.3622222222223E-05  5.3622222222222E-05  2.6811111111111E-05 