TITLE = "Solution on Domain BulkDomain1D_1"
VARIABLES = "x [m]"  
"Vel_axial" 	"MF_sp(ECDMC)" 	"MF_sp(Li+)" 	"MF_sp(PF6-)" 	"Volt(Electroly)" 	"Temperature" 	"qHeat_accum [J/m3]" 	"qHeat_step [W/m3]" 	"Joule_Lyte [W/m3]" 	"Joule_Solid [W/m3]" 	
ZONE T = "t = 0 [s]" I = 10 SOLUTIONTIME = 0.0000000000000E+00
0.0007874 	0 	0.92 	0.04 	0.04 	-0.07 	0 	
0 	0.0 	 0.0 	 0.0 	 
0.000841022 	0 	0.92 	0.04 	0.04 	-0.07 	298.15 	
0 	0.0 	 0.0 	 0.0 	 
0.000894644 	0 	0.92 	0.04 	0.04 	-0.07 	298.15 	
0 	0.0 	 0.0 	 0.0 	 
0.000948267 	0 	0.92 	0.04 	0.04 	-0.07 	298.15 	
0 	0.0 	 0.0 	 0.0 	 
0.00100189 	0 	0.92 	0.04 	0.04 	-0.07 	298.15 	
0 	0.0 	 0.0 	 0.0 	 
0.00105551 	0 	0.92 	0.04 	0.04 	-0.07 	298.15 	
0 	0.0 	 0.0 	 0.0 	 
0.00110913 	0 	0.92 	0.04 	0.04 	-0.07 	298.15 	
0 	0.0 	 0.0 	 0.0 	 
0.00116276 	0 	0.92 	0.04 	0.04 	-0.07 	298.15 	
0 	0.0 	 0.0 	 0.0 	 
0.00121638 	0 	0.92 	0.04 	0.04 	-0.07 	298.15 	
0 	0.0 	 0.0 	 0.0 	 
0.00127 	0 	0.92 	0.04 	0.04 	-0.07 	3.8 	
0 	0.0 	 0.0 	 0.0 	 
ZONE T = "t = 1e-08 [s]" I = 10 SOLUTIONTIME = 1.0000000000000E-08
0.0007874 	2.08657e-08 	0.92 	0.04 	0.04 	0.0291715 	-2.25609e-08 	
2.76639e-10 	0.0276639 	0.0276639 	0 	
0.000841022 	2.08657e-08 	0.92 	0.04 	0.04 	0.0291714 	298.15 	
2.76639e-10 	0.0276639 	0.0276639 	0 	
0.000894644 	2.08657e-08 	0.92 	0.04 	0.04 	0.0291714 	298.15 	
2.76639e-10 	0.0276639 	0.0276639 	0 	
0.000948267 	2.08657e-08 	0.92 	0.04 	0.04 	0.0291713 	298.15 	
2.76639e-10 	0.0276639 	0.0276639 	0 	
0.00100189 	2.08657e-08 	0.92 	0.04 	0.04 	0.0291713 	298.15 	
2.76639e-10 	0.0276639 	0.0276639 	0 	
0.00105551 	2.08657e-08 	0.92 	0.04 	0.04 	0.0291712 	298.15 	
2.76639e-10 	0.0276639 	0.0276639 	0 	
0.00110913 	2.08657e-08 	0.92 	0.04 	0.04 	0.0291712 	298.15 	
2.76639e-10 	0.0276639 	0.0276639 	0 	
0.00116276 	2.08657e-08 	0.92 	0.04 	0.04 	0.0291711 	298.15 	
2.76639e-10 	0.0276639 	0.0276639 	0 	
0.00121638 	2.08657e-08 	0.92 	0.04 	0.04 	0.0291711 	298.15 	
2.76639e-10 	0.0276639 	0.0276639 	0 	
0.00127 	1.97079e-08 	0.92 	0.04 	0.04 	0.029171 	3.80017 	
2.76639e-10 	0.0276639 	0.0276639 	0 	
ZONE T = "t = 2e-08 [s]" I = 10 SOLUTIONTIME = 2.0000000000000E-08
0.0007874 	2.08668e-08 	0.92 	0.04 	0.04 	0.0291769 	-2.25506e-08 	
5.53336e-10 	0.0276697 	0.0276697 	0 	
0.000841022 	2.08668e-08 	0.92 	0.04 	0.04 	0.0291768 	298.15 	
5.53336e-10 	0.0276697 	0.0276697 	0 	
0.000894644 	2.08668e-08 	0.92 	0.04 	0.04 	0.0291768 	298.15 	
5.53336e-10 	0.0276697 	0.0276697 	0 	
0.000948267 	2.08668e-08 	0.92 	0.04 	0.04 	0.0291767 	298.15 	
5.53336e-10 	0.0276697 	0.0276697 	0 	
0.00100189 	2.08668e-08 	0.92 	0.04 	0.04 	0.0291767 	298.15 	
5.53336e-10 	0.0276697 	0.0276697 	0 	
0.00105551 	2.08668e-08 	0.92 	0.04 	0.04 	0.0291766 	298.15 	
5.53336e-10 	0.0276697 	0.0276697 	0 	
0.00110913 	2.08668e-08 	0.92 	0.04 	0.04 	0.0291766 	298.15 	
5.53336e-10 	0.0276697 	0.0276697 	0 	
0.00116276 	2.08668e-08 	0.92 	0.04 	0.04 	0.0291765 	298.15 	
5.53336e-10 	0.0276697 	0.0276697 	0 	
0.00121638 	2.08668e-08 	0.92 	0.04 	0.04 	0.0291765 	298.15 	
5.53336e-10 	0.0276697 	0.0276697 	0 	
0.00127 	1.9708e-08 	0.92 	0.04 	0.04 	0.0291764 	3.80017 	
5.53336e-10 	0.0276697 	0.0276697 	0 	
ZONE T = "t = 3e-08 [s]" I = 10 SOLUTIONTIME = 3.0000000000000E-08
0.0007874 	2.08711e-08 	0.92 	0.04 	0.04 	0.0291823 	-2.25402e-08 	
8.30089e-10 	0.0276753 	0.0276753 	0 	
0.000841022 	2.08711e-08 	0.92 	0.04 	0.04 	0.0291822 	298.15 	
8.30089e-10 	0.0276753 	0.0276753 	0 	
0.000894644 	2.08711e-08 	0.92 	0.04 	0.04 	0.0291822 	298.15 	
8.30089e-10 	0.0276753 	0.0276753 	0 	
0.000948267 	2.08711e-08 	0.92 	0.04 	0.04 	0.0291821 	298.15 	
8.30089e-10 	0.0276753 	0.0276753 	0 	
0.00100189 	2.08711e-08 	0.92 	0.04 	0.04 	0.0291821 	298.15 	
8.30089e-10 	0.0276753 	0.0276753 	0 	
0.00105551 	2.08711e-08 	0.92 	0.04 	0.04 	0.029182 	298.15 	
8.30089e-10 	0.0276753 	0.0276753 	0 	
0.00110913 	2.08711e-08 	0.92 	0.04 	0.04 	0.029182 	298.15 	
8.30089e-10 	0.0276753 	0.0276753 	0 	
0.00116276 	2.08711e-08 	0.92 	0.04 	0.04 	0.0291819 	298.15 	
8.30089e-10 	0.0276753 	0.0276753 	0 	
0.00121638 	2.08711e-08 	0.92 	0.04 	0.04 	0.0291819 	298.15 	
8.30089e-10 	0.0276753 	0.0276753 	0 	
0.00127 	1.97141e-08 	0.92 	0.04 	0.04 	0.0291818 	3.80017 	
8.30089e-10 	0.0276753 	0.0276753 	0 	
ZONE T = "t = 4e-08 [s]" I = 10 SOLUTIONTIME = 4.0000000000000E-08
0.0007874 	2.08696e-08 	0.92 	0.04 	0.04 	0.0291877 	-2.25299e-08 	
1.1069e-09 	0.0276808 	0.0276808 	0 	
0.000841022 	2.08696e-08 	0.92 	0.04 	0.04 	0.0291877 	298.15 	
1.1069e-09 	0.0276808 	0.0276808 	0 	
0.000894644 	2.08696e-08 	0.92 	0.04 	0.04 	0.0291876 	298.15 	
1.1069e-09 	0.0276808 	0.0276808 	0 	
0.000948267 	2.08696e-08 	0.92 	0.04 	0.04 	0.0291876 	298.15 	
1.1069e-09 	0.0276808 	0.0276808 	0 	
0.00100189 	2.08696e-08 	0.92 	0.04 	0.04 	0.0291875 	298.15 	
1.1069e-09 	0.0276808 	0.0276808 	0 	
0.00105551 	2.08696e-08 	0.92 	0.04 	0.04 	0.0291875 	298.15 	
1.1069e-09 	0.0276808 	0.0276808 	0 	
0.00110913 	2.08696e-08 	0.92 	0.04 	0.04 	0.0291874 	298.15 	
1.1069e-09 	0.0276808 	0.0276808 	0 	
0.00116276 	2.08696e-08 	0.92 	0.04 	0.04 	0.0291874 	298.15 	
1.1069e-09 	0.0276808 	0.0276808 	0 	
0.00121638 	2.08696e-08 	0.92 	0.04 	0.04 	0.0291873 	298.15 	
1.1069e-09 	0.0276808 	0.0276808 	0 	
0.00127 	1.97113e-08 	0.92 	0.04 	0.04 	0.0291873 	3.80017 	
1.1069e-09 	0.0276808 	0.0276808 	0 	
ZONE T = "t = 5.5e-08 [s]" I = 10 SOLUTIONTIME = 5.5000000000000E-08
0.0007874 	2.08746e-08 	0.92 	0.04 	0.04 	0.0291959 	-2.25145e-08 	
1.52223e-09 	0.0276891 	0.0276891 	0 	
0.000841022 	2.08746e-08 	0.92 	0.04 	0.04 	0.0291958 	298.15 	
1.52223e-09 	0.0276891 	0.0276891 	0 	
0.000894644 	2.08746e-08 	0.92 	0.04 	0.04 	0.0291958 	298.15 	
1.52223e-09 	0.0276891 	0.0276891 	0 	
0.000948267 	2.08746e-08 	0.92 	0.04 	0.04 	0.0291957 	298.15 	
1.52223e-09 	0.0276891 	0.0276891 	0 	
0.00100189 	2.08746e-08 	0.92 	0.04 	0.04 	0.0291957 	298.15 	
1.52223e-09 	0.0276891 	0.0276891 	0 	
0.00105551 	2.08746e-08 	0.92 	0.04 	0.04 	0.0291956 	298.15 	
1.52223e-09 	0.0276891 	0.0276891 	0 	
0.00110913 	2.08746e-08 	0.92 	0.04 	0.04 	0.0291956 	298.15 	
1.52223e-09 	0.0276891 	0.0276891 	0 	
0.00116276 	2.08746e-08 	0.92 	0.04 	0.04 	0.0291955 	298.15 	
1.52223e-09 	0.0276891 	0.0276891 	0 	
0.00121638 	2.08746e-08 	0.92 	0.04 	0.04 	0.0291955 	298.15 	
1.52223e-09 	0.0276891 	0.0276891 	0 	
0.00127 	1.97159e-08 	0.92 	0.04 	0.04 	0.0291954 	3.80017 	
1.52223e-09 	0.0276891 	0.0276891 	0 	
ZONE T = "t = 7.75e-08 [s]" I = 10 SOLUTIONTIME = 7.7500000000000E-08
0.0007874 	2.08782e-08 	0.92 	0.04 	0.04 	0.0292081 	-2.24917e-08 	
2.14552e-09 	0.0277016 	0.0277016 	0 	
0.000841022 	2.08782e-08 	0.92 	0.04 	0.04 	0.029208 	298.15 	
2.14552e-09 	0.0277016 	0.0277016 	0 	
0.000894644 	2.08782e-08 	0.92 	0.04 	0.04 	0.029208 	298.15 	
2.14552e-09 	0.0277016 	0.0277016 	0 	
0.000948267 	2.08782e-08 	0.92 	0.04 	0.04 	0.0292079 	298.15 	
2.14552e-09 	0.0277016 	0.0277016 	0 	
0.00100189 	2.08782e-08 	0.92 	0.04 	0.04 	0.0292079 	298.15 	
2.14552e-09 	0.0277016 	0.0277016 	0 	
0.00105551 	2.08782e-08 	0.92 	0.04 	0.04 	0.0292078 	298.15 	
2.14552e-09 	0.0277016 	0.0277016 	0 	
0.00110913 	2.08782e-08 	0.92 	0.04 	0.04 	0.0292078 	298.15 	
2.14552e-09 	0.0277016 	0.0277016 	0 	
0.00116276 	2.08782e-08 	0.92 	0.04 	0.04 	0.0292077 	298.15 	
2.14552e-09 	0.0277016 	0.0277016 	0 	
0.00121638 	2.08782e-08 	0.92 	0.04 	0.04 	0.0292077 	298.15 	
2.14552e-09 	0.0277016 	0.0277016 	0 	
0.00127 	1.97195e-08 	0.92 	0.04 	0.04 	0.0292076 	3.80017 	
2.14552e-09 	0.0277016 	0.0277016 	0 	
ZONE T = "t = 1.1125e-07 [s]" I = 10 SOLUTIONTIME = 1.1125000000000E-07
0.0007874 	2.08863e-08 	0.92 	0.04 	0.04 	0.0292264 	-2.24582e-08 	
3.08108e-09 	0.0277203 	0.0277203 	0 	
0.000841022 	2.08863e-08 	0.92 	0.04 	0.04 	0.0292263 	298.15 	
3.08108e-09 	0.0277203 	0.0277203 	0 	
0.000894644 	2.08863e-08 	0.92 	0.04 	0.04 	0.0292263 	298.15 	
3.08108e-09 	0.0277203 	0.0277203 	0 	
0.000948267 	2.08863e-08 	0.92 	0.04 	0.04 	0.0292262 	298.15 	
3.08108e-09 	0.0277203 	0.0277203 	0 	
0.00100189 	2.08863e-08 	0.92 	0.04 	0.04 	0.0292262 	298.15 	
3.08108e-09 	0.0277203 	0.0277203 	0 	
0.00105551 	2.08863e-08 	0.92 	0.04 	0.04 	0.0292261 	298.15 	
3.08108e-09 	0.0277203 	0.0277203 	0 	
0.00110913 	2.08863e-08 	0.92 	0.04 	0.04 	0.0292261 	298.15 	
3.08108e-09 	0.0277203 	0.0277203 	0 	
0.00116276 	2.08863e-08 	0.92 	0.04 	0.04 	0.029226 	298.15 	
3.08108e-09 	0.0277203 	0.0277203 	0 	
0.00121638 	2.08863e-08 	0.92 	0.04 	0.04 	0.029226 	298.15 	
3.08108e-09 	0.0277203 	0.0277203 	0 	
0.00127 	1.9727e-08 	0.92 	0.04 	0.04 	0.0292259 	3.80017 	
3.08108e-09 	0.0277203 	0.0277203 	0 	
ZONE T = "t = 1.61875e-07 [s]" I = 10 SOLUTIONTIME = 1.6187500000000E-07
0.0007874 	2.08963e-08 	0.92 	0.04 	0.04 	0.0292537 	-2.24094e-08 	
4.48584e-09 	0.0277484 	0.0277484 	0 	
0.000841022 	2.08963e-08 	0.92 	0.04 	0.04 	0.0292537 	298.15 	
4.48584e-09 	0.0277484 	0.0277484 	0 	
0.000894644 	2.08963e-08 	0.92 	0.04 	0.04 	0.0292536 	298.15 	
4.48584e-09 	0.0277484 	0.0277484 	0 	
0.000948267 	2.08963e-08 	0.92 	0.04 	0.04 	0.0292536 	298.15 	
4.48584e-09 	0.0277484 	0.0277484 	0 	
0.00100189 	2.08963e-08 	0.92 	0.04 	0.04 	0.0292535 	298.15 	
4.48584e-09 	0.0277484 	0.0277484 	0 	
0.00105551 	2.08963e-08 	0.92 	0.04 	0.04 	0.0292535 	298.15 	
4.48584e-09 	0.0277484 	0.0277484 	0 	
0.00110913 	2.08963e-08 	0.92 	0.04 	0.04 	0.0292534 	298.15 	
4.48584e-09 	0.0277484 	0.0277484 	0 	
0.00116276 	2.08963e-08 	0.92 	0.04 	0.04 	0.0292534 	298.15 	
4.48584e-09 	0.0277484 	0.0277484 	0 	
0.00121638 	2.08963e-08 	0.92 	0.04 	0.04 	0.0292533 	298.15 	
4.48584e-09 	0.0277484 	0.0277484 	0 	
0.00127 	1.97368e-08 	0.92 	0.04 	0.04 	0.0292533 	3.80017 	
4.48584e-09 	0.0277484 	0.0277484 	0 	
ZONE T = "t = 2.37813e-07 [s]" I = 10 SOLUTIONTIME = 2.3781250000000E-07
0.0007874 	2.09121e-08 	0.92 	0.04 	0.04 	0.0292944 	-2.23394e-08 	
6.59615e-09 	0.0277901 	0.0277901 	0 	
0.000841022 	2.09122e-08 	0.92 	0.04 	0.04 	0.0292943 	298.15 	
6.59615e-09 	0.0277901 	0.0277901 	0 	
0.000894644 	2.09122e-08 	0.92 	0.04 	0.04 	0.0292943 	298.15 	
6.59615e-09 	0.0277901 	0.0277901 	0 	
0.000948267 	2.09122e-08 	0.92 	0.04 	0.04 	0.0292942 	298.15 	
6.59615e-09 	0.0277901 	0.0277901 	0 	
0.00100189 	2.09122e-08 	0.92 	0.04 	0.04 	0.0292942 	298.15 	
6.59615e-09 	0.0277901 	0.0277901 	0 	
0.00105551 	2.09122e-08 	0.92 	0.04 	0.04 	0.0292941 	298.15 	
6.59615e-09 	0.0277901 	0.0277901 	0 	
0.00110913 	2.09122e-08 	0.92 	0.04 	0.04 	0.0292941 	298.15 	
6.59615e-09 	0.0277901 	0.0277901 	0 	
0.00116276 	2.09122e-08 	0.92 	0.04 	0.04 	0.029294 	298.15 	
6.59615e-09 	0.0277901 	0.0277901 	0 	
0.00121638 	2.09121e-08 	0.92 	0.04 	0.04 	0.029294 	298.15 	
6.59615e-09 	0.0277901 	0.0277901 	0 	
0.00127 	1.97514e-08 	0.92 	0.04 	0.04 	0.0292939 	3.80018 	
6.59615e-09 	0.0277901 	0.0277901 	0 	
ZONE T = "t = 3.51719e-07 [s]" I = 10 SOLUTIONTIME = 3.5171875000000E-07
0.0007874 	2.09352e-08 	0.92 	0.04 	0.04 	0.0293544 	-2.22406e-08 	
9.76864e-09 	0.0278518 	0.0278518 	0 	
0.000841022 	2.09352e-08 	0.92 	0.04 	0.04 	0.0293543 	298.15 	
9.76864e-09 	0.0278518 	0.0278518 	0 	
0.000894644 	2.09352e-08 	0.92 	0.04 	0.04 	0.0293543 	298.15 	
9.76864e-09 	0.0278518 	0.0278518 	0 	
0.000948267 	2.09352e-08 	0.92 	0.04 	0.04 	0.0293542 	298.15 	
9.76864e-09 	0.0278518 	0.0278518 	0 	
0.00100189 	2.09352e-08 	0.92 	0.04 	0.04 	0.0293542 	298.15 	
9.76864e-09 	0.0278518 	0.0278518 	0 	
0.00105551 	2.09352e-08 	0.92 	0.04 	0.04 	0.0293541 	298.15 	
9.76864e-09 	0.0278518 	0.0278518 	0 	
0.00110913 	2.09352e-08 	0.92 	0.04 	0.04 	0.0293541 	298.15 	
9.76864e-09 	0.0278518 	0.0278518 	0 	
0.00116276 	2.09352e-08 	0.92 	0.04 	0.04 	0.029354 	298.15 	
9.76864e-09 	0.0278518 	0.0278518 	0 	
0.00121638 	2.09352e-08 	0.92 	0.04 	0.04 	0.029354 	298.15 	
9.76864e-09 	0.0278518 	0.0278518 	0 	
0.00127 	1.97732e-08 	0.92 	0.04 	0.04 	0.0293539 	3.80018 	
9.76864e-09 	0.0278518 	0.0278518 	0 	
ZONE T = "t = 5.22578e-07 [s]" I = 10 SOLUTIONTIME = 5.2257812500000E-07
0.0007874 	2.09694e-08 	0.92 	0.04 	0.04 	0.0294422 	-2.21043e-08 	
1.45429e-08 	0.0279425 	0.0279425 	0 	
0.000841022 	2.09694e-08 	0.92 	0.04 	0.04 	0.0294422 	298.15 	
1.45429e-08 	0.0279425 	0.0279425 	0 	
0.000894644 	2.09694e-08 	0.92 	0.04 	0.04 	0.0294421 	298.15 	
1.45429e-08 	0.0279425 	0.0279425 	0 	
0.000948267 	2.09694e-08 	0.92 	0.04 	0.04 	0.0294421 	298.15 	
1.45429e-08 	0.0279425 	0.0279425 	0 	
0.00100189 	2.09694e-08 	0.92 	0.04 	0.04 	0.029442 	298.15 	
1.45429e-08 	0.0279425 	0.0279425 	0 	
0.00105551 	2.09694e-08 	0.92 	0.04 	0.04 	0.029442 	298.15 	
1.45429e-08 	0.0279425 	0.0279425 	0 	
0.00110913 	2.09694e-08 	0.92 	0.04 	0.04 	0.0294419 	298.15 	
1.45429e-08 	0.0279425 	0.0279425 	0 	
0.00116276 	2.09694e-08 	0.92 	0.04 	0.04 	0.0294419 	298.15 	
1.45429e-08 	0.0279425 	0.0279425 	0 	
0.00121638 	2.09695e-08 	0.92 	0.04 	0.04 	0.0294418 	298.15 	
1.45429e-08 	0.0279425 	0.0279425 	0 	
0.00127 	1.98056e-08 	0.92 	0.04 	0.04 	0.0294418 	3.80018 	
1.45429e-08 	0.0279425 	0.0279425 	0 	
ZONE T = "t = 7.78867e-07 [s]" I = 10 SOLUTIONTIME = 7.7886718750000E-07
0.0007874 	2.10191e-08 	0.92 	0.04 	0.04 	0.02957 	-2.1921e-08 	
2.17382e-08 	0.0280749 	0.0280749 	0 	
0.000841022 	2.10191e-08 	0.92 	0.04 	0.04 	0.0295699 	298.15 	
2.17382e-08 	0.0280749 	0.0280749 	0 	
0.000894644 	2.10191e-08 	0.92 	0.04 	0.04 	0.0295699 	298.15 	
2.17382e-08 	0.0280749 	0.0280749 	0 	
0.000948267 	2.10191e-08 	0.92 	0.04 	0.04 	0.0295698 	298.15 	
2.17382e-08 	0.0280749 	0.0280749 	0 	
0.00100189 	2.10191e-08 	0.92 	0.04 	0.04 	0.0295698 	298.15 	
2.17382e-08 	0.0280749 	0.0280749 	0 	
0.00105551 	2.10191e-08 	0.92 	0.04 	0.04 	0.0295697 	298.15 	
2.17382e-08 	0.0280749 	0.0280749 	0 	
0.00110913 	2.10191e-08 	0.92 	0.04 	0.04 	0.0295697 	298.15 	
2.17382e-08 	0.0280749 	0.0280749 	0 	
0.00116276 	2.10191e-08 	0.92 	0.04 	0.04 	0.0295696 	298.15 	
2.17382e-08 	0.0280749 	0.0280749 	0 	
0.00121638 	2.10191e-08 	0.92 	0.04 	0.04 	0.0295696 	298.15 	
2.17382e-08 	0.0280749 	0.0280749 	0 	
0.00127 	1.98522e-08 	0.92 	0.04 	0.04 	0.0295695 	3.80018 	
2.17382e-08 	0.0280749 	0.0280749 	0 	
ZONE T = "t = 1.1633e-06 [s]" I = 10 SOLUTIONTIME = 1.1633007812500E-06
0.0007874 	2.10908e-08 	0.92 	0.04 	0.04 	0.0297541 	-2.16822e-08 	
3.26049e-08 	0.0282668 	0.0282668 	0 	
0.000841022 	2.10908e-08 	0.92 	0.04 	0.04 	0.029754 	298.15 	
3.26049e-08 	0.0282668 	0.0282668 	0 	
0.000894644 	2.10908e-08 	0.92 	0.04 	0.04 	0.029754 	298.15 	
3.26049e-08 	0.0282668 	0.0282668 	0 	
0.000948267 	2.10908e-08 	0.92 	0.04 	0.04 	0.0297539 	298.15 	
3.26049e-08 	0.0282668 	0.0282668 	0 	
0.00100189 	2.10908e-08 	0.92 	0.04 	0.04 	0.0297539 	298.15 	
3.26049e-08 	0.0282668 	0.0282668 	0 	
0.00105551 	2.10908e-08 	0.92 	0.04 	0.04 	0.0297538 	298.15 	
3.26049e-08 	0.0282668 	0.0282668 	0 	
0.00110913 	2.10908e-08 	0.92 	0.04 	0.04 	0.0297538 	298.15 	
3.26049e-08 	0.0282668 	0.0282668 	0 	
0.00116276 	2.10908e-08 	0.92 	0.04 	0.04 	0.0297537 	298.15 	
3.26049e-08 	0.0282668 	0.0282668 	0 	
0.00121638 	2.10908e-08 	0.92 	0.04 	0.04 	0.0297537 	298.15 	
3.26049e-08 	0.0282668 	0.0282668 	0 	
0.00127 	1.99197e-08 	0.92 	0.04 	0.04 	0.0297536 	3.80018 	
3.26049e-08 	0.0282668 	0.0282668 	0 	
ZONE T = "t = 1.73995e-06 [s]" I = 10 SOLUTIONTIME = 1.7399511718750E-06
0.0007874 	2.11934e-08 	0.92 	0.04 	0.04 	0.0300165 	-2.13844e-08 	
4.9064e-08 	0.0285427 	0.0285427 	0 	
0.000841022 	2.11934e-08 	0.92 	0.04 	0.04 	0.0300164 	298.15 	
4.9064e-08 	0.0285427 	0.0285427 	0 	
0.000894644 	2.11934e-08 	0.92 	0.04 	0.04 	0.0300164 	298.15 	
4.9064e-08 	0.0285427 	0.0285427 	0 	
0.000948267 	2.11934e-08 	0.92 	0.04 	0.04 	0.0300163 	298.15 	
4.9064e-08 	0.0285427 	0.0285427 	0 	
0.00100189 	2.11934e-08 	0.92 	0.04 	0.04 	0.0300163 	298.15 	
4.9064e-08 	0.0285427 	0.0285427 	0 	
0.00105551 	2.11934e-08 	0.92 	0.04 	0.04 	0.0300162 	298.15 	
4.9064e-08 	0.0285427 	0.0285427 	0 	
0.00110913 	2.11934e-08 	0.92 	0.04 	0.04 	0.0300162 	298.15 	
4.9064e-08 	0.0285427 	0.0285427 	0 	
0.00116276 	2.11934e-08 	0.92 	0.04 	0.04 	0.0300161 	298.15 	
4.9064e-08 	0.0285427 	0.0285427 	0 	
0.00121638 	2.11934e-08 	0.92 	0.04 	0.04 	0.0300161 	298.15 	
4.9064e-08 	0.0285427 	0.0285427 	0 	
0.00127 	2.00164e-08 	0.92 	0.04 	0.04 	0.030016 	3.80018 	
4.9064e-08 	0.0285427 	0.0285427 	0 	
ZONE T = "t = 2.60493e-06 [s]" I = 10 SOLUTIONTIME = 2.6049267578125E-06
0.0007874 	2.13381e-08 	0.92 	0.04 	0.04 	0.0303836 	-2.10354e-08 	
7.40908e-08 	0.0289336 	0.0289336 	0 	
0.000841022 	2.13381e-08 	0.92 	0.04 	0.04 	0.0303836 	298.15 	
7.40908e-08 	0.0289336 	0.0289336 	0 	
0.000894644 	2.13381e-08 	0.92 	0.04 	0.04 	0.0303835 	298.15 	
7.40908e-08 	0.0289336 	0.0289336 	0 	
0.000948267 	2.13381e-08 	0.92 	0.04 	0.04 	0.0303835 	298.15 	
7.40908e-08 	0.0289336 	0.0289336 	0 	
0.00100189 	2.13381e-08 	0.92 	0.04 	0.04 	0.0303834 	298.15 	
7.40908e-08 	0.0289336 	0.0289336 	0 	
0.00105551 	2.13381e-08 	0.92 	0.04 	0.04 	0.0303834 	298.15 	
7.40908e-08 	0.0289336 	0.0289336 	0 	
0.00110913 	2.13381e-08 	0.92 	0.04 	0.04 	0.0303833 	298.15 	
7.40908e-08 	0.0289336 	0.0289336 	0 	
0.00116276 	2.13381e-08 	0.92 	0.04 	0.04 	0.0303833 	298.15 	
7.40908e-08 	0.0289336 	0.0289336 	0 	
0.00121638 	2.13381e-08 	0.92 	0.04 	0.04 	0.0303832 	298.15 	
7.40909e-08 	0.0289336 	0.0289336 	0 	
0.00127 	2.01527e-08 	0.92 	0.04 	0.04 	0.0303832 	3.80018 	
7.40909e-08 	0.0289336 	0.0289336 	0 	
ZONE T = "t = 3.90239e-06 [s]" I = 10 SOLUTIONTIME = 3.9023901367188E-06
0.0007874 	2.15364e-08 	0.92 	0.04 	0.04 	0.0308824 	-2.06589e-08 	
1.12332e-07 	0.0294738 	0.0294738 	0 	
0.000841022 	2.15364e-08 	0.92 	0.04 	0.04 	0.0308823 	298.15 	
1.12332e-07 	0.0294738 	0.0294738 	0 	
0.000894644 	2.15364e-08 	0.92 	0.04 	0.04 	0.0308823 	298.15 	
1.12332e-07 	0.0294738 	0.0294738 	0 	
0.000948267 	2.15364e-08 	0.92 	0.04 	0.04 	0.0308822 	298.15 	
1.12332e-07 	0.0294738 	0.0294738 	0 	
0.00100189 	2.15364e-08 	0.92 	0.04 	0.04 	0.0308822 	298.15 	
1.12332e-07 	0.0294738 	0.0294738 	0 	
0.00105551 	2.15364e-08 	0.92 	0.04 	0.04 	0.0308821 	298.15 	
1.12332e-07 	0.0294738 	0.0294738 	0 	
0.00110913 	2.15364e-08 	0.92 	0.04 	0.04 	0.0308821 	298.15 	
1.12332e-07 	0.0294738 	0.0294738 	0 	
0.00116276 	2.15364e-08 	0.92 	0.04 	0.04 	0.030882 	298.15 	
1.12332e-07 	0.0294738 	0.0294738 	0 	
0.00121638 	2.15364e-08 	0.92 	0.04 	0.04 	0.0308819 	298.15 	
1.12332e-07 	0.0294738 	0.0294738 	0 	
0.00127 	2.03394e-08 	0.92 	0.04 	0.04 	0.0308819 	3.80018 	
1.12332e-07 	0.0294738 	0.0294738 	0 	
ZONE T = "t = 5.34137e-06 [s]" I = 10 SOLUTIONTIME = 5.3413667935880E-06
0.0007874 	2.17355e-08 	0.92 	0.04 	0.04 	0.0313779 	-2.03599e-08 	
1.55532e-07 	0.0300213 	0.0300213 	0 	
0.000841022 	2.17355e-08 	0.92 	0.04 	0.04 	0.0313779 	298.15 	
1.55532e-07 	0.0300213 	0.0300213 	0 	
0.000894644 	2.17355e-08 	0.92 	0.04 	0.04 	0.0313778 	298.15 	
1.55532e-07 	0.0300213 	0.0300213 	0 	
0.000948267 	2.17355e-08 	0.92 	0.04 	0.04 	0.0313778 	298.15 	
1.55532e-07 	0.0300213 	0.0300213 	0 	
0.00100189 	2.17355e-08 	0.92 	0.04 	0.04 	0.0313777 	298.15 	
1.55532e-07 	0.0300213 	0.0300213 	0 	
0.00105551 	2.17355e-08 	0.92 	0.04 	0.04 	0.0313777 	298.15 	
1.55532e-07 	0.0300213 	0.0300213 	0 	
0.00110913 	2.17355e-08 	0.92 	0.04 	0.04 	0.0313776 	298.15 	
1.55532e-07 	0.0300213 	0.0300213 	0 	
0.00116276 	2.17355e-08 	0.92 	0.04 	0.04 	0.0313776 	298.15 	
1.55532e-07 	0.0300213 	0.0300213 	0 	
0.00121638 	2.17355e-08 	0.92 	0.04 	0.04 	0.0313775 	298.15 	
1.55532e-07 	0.0300213 	0.0300213 	0 	
0.00127 	2.05269e-08 	0.92 	0.04 	0.04 	0.0313775 	3.80018 	
1.55532e-07 	0.0300213 	0.0300213 	0 	
ZONE T = "t = 6.86324e-06 [s]" I = 10 SOLUTIONTIME = 6.8632399246076E-06
0.0007874 	2.19246e-08 	0.92 	0.04 	0.04 	0.0318437 	-2.01307e-08 	
2.02019e-07 	0.0305461 	0.0305461 	0 	
0.000841022 	2.19246e-08 	0.92 	0.04 	0.04 	0.0318436 	298.15 	
2.02019e-07 	0.0305461 	0.0305461 	0 	
0.000894644 	2.19246e-08 	0.92 	0.04 	0.04 	0.0318436 	298.15 	
2.02019e-07 	0.0305461 	0.0305461 	0 	
0.000948267 	2.19246e-08 	0.92 	0.04 	0.04 	0.0318435 	298.15 	
2.02019e-07 	0.0305461 	0.0305461 	0 	
0.00100189 	2.19246e-08 	0.92 	0.04 	0.04 	0.0318435 	298.15 	
2.02019e-07 	0.0305461 	0.0305461 	0 	
0.00105551 	2.19246e-08 	0.92 	0.04 	0.04 	0.0318434 	298.15 	
2.02019e-07 	0.0305461 	0.0305461 	0 	
0.00110913 	2.19246e-08 	0.92 	0.04 	0.04 	0.0318434 	298.15 	
2.02019e-07 	0.0305461 	0.0305461 	0 	
0.00116276 	2.19246e-08 	0.92 	0.04 	0.04 	0.0318433 	298.15 	
2.02019e-07 	0.0305461 	0.0305461 	0 	
0.00121638 	2.19246e-08 	0.92 	0.04 	0.04 	0.0318433 	298.15 	
2.02019e-07 	0.0305461 	0.0305461 	0 	
0.00127 	2.07051e-08 	0.92 	0.04 	0.04 	0.0318432 	3.80018 	
2.02019e-07 	0.0305461 	0.0305461 	0 	
ZONE T = "t = 8.46415e-06 [s]" I = 10 SOLUTIONTIME = 8.4641510732565E-06
0.0007874 	2.2102e-08 	0.92 	0.04 	0.04 	0.0322762 	-1.99527e-08 	
2.51715e-07 	0.0310424 	0.0310424 	0 	
0.000841022 	2.2102e-08 	0.92 	0.04 	0.04 	0.0322761 	298.15 	
2.51715e-07 	0.0310424 	0.0310424 	0 	
0.000894644 	2.2102e-08 	0.92 	0.04 	0.04 	0.0322761 	298.15 	
2.51715e-07 	0.0310424 	0.0310424 	0 	
0.000948267 	2.2102e-08 	0.92 	0.04 	0.04 	0.032276 	298.15 	
2.51715e-07 	0.0310424 	0.0310424 	0 	
0.00100189 	2.2102e-08 	0.92 	0.04 	0.04 	0.032276 	298.15 	
2.51715e-07 	0.0310424 	0.0310424 	0 	
0.00105551 	2.2102e-08 	0.92 	0.04 	0.04 	0.0322759 	298.15 	
2.51715e-07 	0.0310424 	0.0310424 	0 	
0.00110913 	2.2102e-08 	0.92 	0.04 	0.04 	0.0322759 	298.15 	
2.51715e-07 	0.0310424 	0.0310424 	0 	
0.00116276 	2.2102e-08 	0.92 	0.04 	0.04 	0.0322758 	298.15 	
2.51715e-07 	0.0310424 	0.0310424 	0 	
0.00121638 	2.2102e-08 	0.92 	0.04 	0.04 	0.0322758 	298.15 	
2.51715e-07 	0.0310424 	0.0310424 	0 	
0.00127 	2.08722e-08 	0.92 	0.04 	0.04 	0.0322757 	3.80019 	
2.51715e-07 	0.0310424 	0.0310424 	0 	
ZONE T = "t = 1.01624e-05 [s]" I = 10 SOLUTIONTIME = 1.0162433436170E-05
0.0007874 	2.22686e-08 	0.92 	0.04 	0.04 	0.0326784 	-1.98099e-08 	
3.05232e-07 	0.0315121 	0.0315121 	0 	
0.000841022 	2.22686e-08 	0.92 	0.04 	0.04 	0.0326783 	298.15 	
3.05232e-07 	0.031512 	0.031512 	0 	
0.000894644 	2.22686e-08 	0.92 	0.04 	0.04 	0.0326783 	298.15 	
3.05232e-07 	0.031512 	0.031512 	0 	
0.000948267 	2.22686e-08 	0.92 	0.04 	0.04 	0.0326782 	298.15 	
3.05232e-07 	0.031512 	0.031512 	0 	
0.00100189 	2.22686e-08 	0.92 	0.04 	0.04 	0.0326782 	298.15 	
3.05232e-07 	0.031512 	0.031512 	0 	
0.00105551 	2.22686e-08 	0.92 	0.04 	0.04 	0.0326781 	298.15 	
3.05232e-07 	0.031512 	0.031512 	0 	
0.00110913 	2.22686e-08 	0.92 	0.04 	0.04 	0.0326781 	298.15 	
3.05232e-07 	0.031512 	0.031512 	0 	
0.00116276 	2.22686e-08 	0.92 	0.04 	0.04 	0.032678 	298.15 	
3.05232e-07 	0.031512 	0.031512 	0 	
0.00121638 	2.22686e-08 	0.92 	0.04 	0.04 	0.032678 	298.15 	
3.05232e-07 	0.031512 	0.031512 	0 	
0.00127 	2.10292e-08 	0.92 	0.04 	0.04 	0.0326779 	3.80019 	
3.05232e-07 	0.031512 	0.031512 	0 	
ZONE T = "t = 1.19771e-05 [s]" I = 10 SOLUTIONTIME = 1.1977113224509E-05
0.0007874 	2.24248e-08 	0.92 	0.04 	0.04 	0.0330522 	-1.96918e-08 	
3.63221e-07 	0.0319557 	0.0319557 	0 	
0.000841022 	2.24248e-08 	0.92 	0.04 	0.04 	0.0330521 	298.15 	
3.63221e-07 	0.0319557 	0.0319557 	0 	
0.000894644 	2.24248e-08 	0.92 	0.04 	0.04 	0.0330521 	298.15 	
3.63221e-07 	0.0319557 	0.0319557 	0 	
0.000948267 	2.24248e-08 	0.92 	0.04 	0.04 	0.033052 	298.15 	
3.63221e-07 	0.0319557 	0.0319557 	0 	
0.00100189 	2.24248e-08 	0.92 	0.04 	0.04 	0.033052 	298.15 	
3.63221e-07 	0.0319557 	0.0319557 	0 	
0.00105551 	2.24248e-08 	0.92 	0.04 	0.04 	0.0330519 	298.15 	
3.63221e-07 	0.0319557 	0.0319557 	0 	
0.00110913 	2.24248e-08 	0.92 	0.04 	0.04 	0.0330518 	298.15 	
3.63221e-07 	0.0319557 	0.0319557 	0 	
0.00116276 	2.24248e-08 	0.92 	0.04 	0.04 	0.0330518 	298.15 	
3.63221e-07 	0.0319557 	0.0319557 	0 	
0.00121638 	2.24248e-08 	0.92 	0.04 	0.04 	0.0330517 	298.15 	
3.63221e-07 	0.0319557 	0.0319557 	0 	
0.00127 	2.11763e-08 	0.92 	0.04 	0.04 	0.0330517 	3.80019 	
3.63221e-07 	0.0319557 	0.0319557 	0 	
ZONE T = "t = 1.39276e-05 [s]" I = 10 SOLUTIONTIME = 1.3927638971236E-05
0.0007874 	2.25708e-08 	0.92 	0.04 	0.04 	0.0333985 	-1.95911e-08 	
4.26366e-07 	0.0323732 	0.0323732 	0 	
0.000841022 	2.25708e-08 	0.92 	0.04 	0.04 	0.0333985 	298.15 	
4.26366e-07 	0.0323732 	0.0323732 	0 	
0.000894644 	2.25708e-08 	0.92 	0.04 	0.04 	0.0333984 	298.15 	
4.26366e-07 	0.0323731 	0.0323731 	0 	
0.000948267 	2.25708e-08 	0.92 	0.04 	0.04 	0.0333984 	298.15 	
4.26366e-07 	0.0323731 	0.0323731 	0 	
0.00100189 	2.25708e-08 	0.92 	0.04 	0.04 	0.0333983 	298.15 	
4.26366e-07 	0.0323731 	0.0323731 	0 	
0.00105551 	2.25708e-08 	0.92 	0.04 	0.04 	0.0333983 	298.15 	
4.26366e-07 	0.0323731 	0.0323731 	0 	
0.00110913 	2.25708e-08 	0.92 	0.04 	0.04 	0.0333982 	298.15 	
4.26366e-07 	0.0323731 	0.0323731 	0 	
0.00116276 	2.25708e-08 	0.92 	0.04 	0.04 	0.0333982 	298.15 	
4.26366e-07 	0.0323731 	0.0323731 	0 	
0.00121638 	2.25708e-08 	0.92 	0.04 	0.04 	0.0333981 	298.15 	
4.26366e-07 	0.0323731 	0.0323731 	0 	
0.00127 	2.13139e-08 	0.92 	0.04 	0.04 	0.0333981 	3.80019 	
4.26366e-07 	0.0323731 	0.0323731 	0 	
ZONE T = "t = 1.60354e-05 [s]" I = 10 SOLUTIONTIME = 1.6035415366598E-05
0.0007874 	2.27066e-08 	0.92 	0.04 	0.04 	0.033718 	-1.95032e-08 	
4.95425e-07 	0.0327639 	0.0327639 	0 	
0.000841022 	2.27066e-08 	0.92 	0.04 	0.04 	0.033718 	298.15 	
4.95425e-07 	0.0327638 	0.0327638 	0 	
0.000894644 	2.27066e-08 	0.92 	0.04 	0.04 	0.0337179 	298.15 	
4.95424e-07 	0.0327638 	0.0327638 	0 	
0.000948267 	2.27066e-08 	0.92 	0.04 	0.04 	0.0337179 	298.15 	
4.95424e-07 	0.0327638 	0.0327638 	0 	
0.00100189 	2.27066e-08 	0.92 	0.04 	0.04 	0.0337178 	298.15 	
4.95424e-07 	0.0327638 	0.0327638 	0 	
0.00105551 	2.27066e-08 	0.92 	0.04 	0.04 	0.0337178 	298.15 	
4.95424e-07 	0.0327638 	0.0327638 	0 	
0.00110913 	2.27066e-08 	0.92 	0.04 	0.04 	0.0337177 	298.15 	
4.95424e-07 	0.0327638 	0.0327638 	0 	
0.00116276 	2.27066e-08 	0.92 	0.04 	0.04 	0.0337176 	298.15 	
4.95424e-07 	0.0327638 	0.0327638 	0 	
0.00121638 	2.27066e-08 	0.92 	0.04 	0.04 	0.0337176 	298.15 	
4.95424e-07 	0.0327638 	0.0327638 	0 	
0.00127 	2.14419e-08 	0.92 	0.04 	0.04 	0.0337175 	3.80019 	
4.95425e-07 	0.0327638 	0.0327638 	0 	
ZONE T = "t = 1.83253e-05 [s]" I = 10 SOLUTIONTIME = 1.8325302994843E-05
0.0007874 	2.2832e-08 	0.92 	0.04 	0.04 	0.0340109 	-1.94251e-08 	
5.71282e-07 	0.033127 	0.033127 	0 	
0.000841022 	2.2832e-08 	0.92 	0.04 	0.04 	0.0340109 	298.15 	
5.71282e-07 	0.0331269 	0.0331269 	0 	
0.000894644 	2.2832e-08 	0.92 	0.04 	0.04 	0.0340108 	298.15 	
5.71281e-07 	0.0331269 	0.0331269 	0 	
0.000948267 	2.2832e-08 	0.92 	0.04 	0.04 	0.0340108 	298.15 	
5.71281e-07 	0.0331269 	0.0331269 	0 	
0.00100189 	2.2832e-08 	0.92 	0.04 	0.04 	0.0340107 	298.15 	
5.71281e-07 	0.0331269 	0.0331269 	0 	
0.00105551 	2.2832e-08 	0.92 	0.04 	0.04 	0.0340107 	298.15 	
5.71281e-07 	0.0331269 	0.0331269 	0 	
0.00110913 	2.2832e-08 	0.92 	0.04 	0.04 	0.0340106 	298.15 	
5.71281e-07 	0.0331269 	0.0331269 	0 	
0.00116276 	2.2832e-08 	0.92 	0.04 	0.04 	0.0340106 	298.15 	
5.71281e-07 	0.0331269 	0.0331269 	0 	
0.00121638 	2.2832e-08 	0.92 	0.04 	0.04 	0.0340105 	298.15 	
5.71281e-07 	0.0331269 	0.0331269 	0 	
0.00127 	2.15602e-08 	0.92 	0.04 	0.04 	0.0340104 	3.80019 	
5.71281e-07 	0.0331269 	0.0331269 	0 	
ZONE T = "t = 2.08273e-05 [s]" I = 10 SOLUTIONTIME = 2.0827287218304E-05
0.0007874 	2.2947e-08 	0.92 	0.04 	0.04 	0.0342775 	-1.93551e-08 	
6.55002e-07 	0.0334616 	0.0334616 	0 	
0.000841022 	2.2947e-08 	0.92 	0.04 	0.04 	0.0342774 	298.15 	
6.55002e-07 	0.0334615 	0.0334615 	0 	
0.000894644 	2.2947e-08 	0.92 	0.04 	0.04 	0.0342774 	298.15 	
6.55001e-07 	0.0334615 	0.0334615 	0 	
0.000948267 	2.2947e-08 	0.92 	0.04 	0.04 	0.0342773 	298.15 	
6.55001e-07 	0.0334615 	0.0334615 	0 	
0.00100189 	2.2947e-08 	0.92 	0.04 	0.04 	0.0342773 	298.15 	
6.55001e-07 	0.0334615 	0.0334615 	0 	
0.00105551 	2.2947e-08 	0.92 	0.04 	0.04 	0.0342772 	298.15 	
6.55001e-07 	0.0334615 	0.0334615 	0 	
0.00110913 	2.2947e-08 	0.92 	0.04 	0.04 	0.0342772 	298.15 	
6.55001e-07 	0.0334615 	0.0334615 	0 	
0.00116276 	2.2947e-08 	0.92 	0.04 	0.04 	0.0342771 	298.15 	
6.55001e-07 	0.0334615 	0.0334615 	0 	
0.00121638 	2.2947e-08 	0.92 	0.04 	0.04 	0.034277 	298.15 	
6.55001e-07 	0.0334615 	0.0334615 	0 	
0.00127 	2.16686e-08 	0.92 	0.04 	0.04 	0.034277 	3.80019 	
6.55001e-07 	0.0334615 	0.0334615 	0 	
ZONE T = "t = 2.35786e-05 [s]" I = 10 SOLUTIONTIME = 2.3578625841392E-05
0.0007874 	2.30515e-08 	0.92 	0.04 	0.04 	0.0345179 	-1.9292e-08 	
7.47906e-07 	0.0337669 	0.0337669 	0 	
0.000841022 	2.30515e-08 	0.92 	0.04 	0.04 	0.0345178 	298.15 	
7.47906e-07 	0.0337668 	0.0337668 	0 	
0.000894644 	2.30515e-08 	0.92 	0.04 	0.04 	0.0345178 	298.15 	
7.47905e-07 	0.0337668 	0.0337668 	0 	
0.000948267 	2.30515e-08 	0.92 	0.04 	0.04 	0.0345177 	298.15 	
7.47905e-07 	0.0337668 	0.0337668 	0 	
0.00100189 	2.30515e-08 	0.92 	0.04 	0.04 	0.0345177 	298.15 	
7.47905e-07 	0.0337668 	0.0337668 	0 	
0.00105551 	2.30515e-08 	0.92 	0.04 	0.04 	0.0345176 	298.15 	
7.47905e-07 	0.0337668 	0.0337668 	0 	
0.00110913 	2.30515e-08 	0.92 	0.04 	0.04 	0.0345176 	298.15 	
7.47905e-07 	0.0337668 	0.0337668 	0 	
0.00116276 	2.30515e-08 	0.92 	0.04 	0.04 	0.0345175 	298.15 	
7.47905e-07 	0.0337668 	0.0337668 	0 	
0.00121638 	2.30515e-08 	0.92 	0.04 	0.04 	0.0345175 	298.15 	
7.47905e-07 	0.0337668 	0.0337668 	0 	
0.00127 	2.1767e-08 	0.92 	0.04 	0.04 	0.0345174 	3.80019 	
7.47905e-07 	0.0337668 	0.0337668 	0 	
ZONE T = "t = 2.66267e-05 [s]" I = 10 SOLUTIONTIME = 2.6626727669665E-05
0.0007874 	2.31453e-08 	0.92 	0.04 	0.04 	0.0347325 	-1.92355e-08 	
8.51671e-07 	0.0340424 	0.0340424 	0 	
0.000841022 	2.31453e-08 	0.92 	0.04 	0.04 	0.0347324 	298.15 	
8.5167e-07 	0.0340423 	0.0340423 	0 	
0.000894644 	2.31453e-08 	0.92 	0.04 	0.04 	0.0347324 	298.15 	
8.51669e-07 	0.0340422 	0.0340422 	0 	
0.000948267 	2.31453e-08 	0.92 	0.04 	0.04 	0.0347323 	298.15 	
8.51669e-07 	0.0340422 	0.0340422 	0 	
0.00100189 	2.31453e-08 	0.92 	0.04 	0.04 	0.0347323 	298.15 	