TITLE = "Solution on Domain BulkDomain1D_2"
VARIABLES = "x [m]"  
"Vel_axial" 	"MF_sp(ECDMC)" 	"MF_sp(Li+)" 	"MF_sp(PF6-)" 	"Volt(Electroly)" 	"Volt(CathodeVo)" 	"Temperature" 	
"Potential Drop Electrode-Electrolyte [V]" 	"Surf_0 Equilibrium Potential Drop Electrode-Electrolyte [V]" 	"Overpotential_0 [V]" 	"Current Source [A/m^2]" 	"Li+ flux [kmol/m^2/s]" 	"Electrolyte Current [A/m^2]" 	"Electrode Current [A/m^2]" 	
"CV Capacity discharged [A-s/m^2]" 	"Depth of discharge in CV [A-s/m^2]" 	"CV Capacity remaining [A-s/m^2]" 	"Initial CV capacity [A-s/m^2]" 	"Porosity []" 	"Surface Area [m2/m2] (area per area)" 	"Specific current (per particle area) [A/m^2]" 	"Control volume thickness [m]" 	
"MoleDens LiCoO2 [kmol/m^3]" 	"MoleDens CoO2 [kmol/m^3]" 	"qHeat_accum [J/m3]" 	"qHeat_step [W/m3]" 	"Joule_Lyte [W/m3]" 	"Joule_Solid [W/m3]" 	"electrodHeat [W/m3]" 	"OverpotHeat [W/m3]" 	"deltaSHeat [W/m3]" 	

ZONE T = "CATH, 0.0000E+00", I = 10, SOLUTIONTIME = 0.000000E+00
ZONETYPE = ORDERED
DATAPACKING = BLOCK
STRANDID = 3
 1.2700000000000E-03  1.3377333333333E-03  1.4054666666667E-03  1.4732000000000E-03  1.5409333333333E-03  1.6086666666667E-03  1.6764000000000E-03  1.7441333333333E-03  1.8118666666667E-03  1.8796000000000E-03 
 0.0000000000000E+00  0.0000000000000E+00  0.0000000000000E+00  0.0000000000000E+00  0.0000000000000E+00  0.0000000000000E+00  0.0000000000000E+00  0.0000000000000E+00  0.0000000000000E+00  0.0000000000000E+00 
 9.2000000000000E-01  9.2000000000000E-01  9.2000000000000E-01  9.2000000000000E-01  9.2000000000000E-01  9.2000000000000E-01  9.2000000000000E-01  9.2000000000000E-01  9.2000000000000E-01  9.2000000000000E-01 
 4.0000000000000E-02  4.0000000000000E-02  4.0000000000000E-02  4.0000000000000E-02  4.0000000000000E-02  4.0000000000000E-02  4.0000000000000E-02  4.0000000000000E-02  4.0000000000000E-02  4.0000000000000E-02 
 4.0000000000000E-02  4.0000000000000E-02  4.0000000000000E-02  4.0000000000000E-02  4.0000000000000E-02  4.0000000000000E-02  4.0000000000000E-02  4.0000000000000E-02  4.0000000000000E-02  4.0000000000000E-02 
-7.0000000000000E-02 -7.0000000000000E-02 -7.0000000000000E-02 -7.0000000000000E-02 -7.0000000000000E-02 -7.0000000000000E-02 -7.0000000000000E-02 -7.0000000000000E-02 -7.0000000000000E-02 -7.0000000000000E-02 
 3.8000000000000E+00  3.8000000000000E+00  3.8000000000000E+00  3.8000000000000E+00  3.8000000000000E+00  3.8000000000000E+00  3.8000000000000E+00  3.8000000000000E+00  3.8000000000000E+00  3.8000000000000E+00 
 2.9815000000000E+02  2.9815000000000E+02  2.9815000000000E+02  2.9815000000000E+02  2.9815000000000E+02  2.9815000000000E+02  2.9815000000000E+02  2.9815000000000E+02  2.9815000000000E+02  2.9815000000000E+02 
 3.8700000000000E+00  3.8700000000000E+00  3.8700000000000E+00  3.8700000000000E+00  3.8700000000000E+00  3.8700000000000E+00  3.8700000000000E+00  3.8700000000000E+00  3.8700000000000E+00  3.8700000000000E+00 
 3.9714142713289E+00  3.9714142713289E+00  3.9714142713289E+00  3.9714142713289E+00  3.9714142713289E+00  3.9714142713289E+00  3.9714142713289E+00  3.9714142713289E+00  3.9714142713289E+00  3.9714142713289E+00 
-1.0141427132889E-01 -1.0141427132889E-01 -1.0141427132889E-01 -1.0141427132889E-01 -1.0141427132889E-01 -1.0141427132889E-01 -1.0141427132889E-01 -1.0141427132889E-01 -1.0141427132889E-01 -1.0141427132889E-01 
-2.3826357195711E-01 -4.7652714391422E-01 -4.7652714391423E-01 -4.7652714391422E-01 -4.7652714391423E-01 -4.7652714391423E-01 -4.7652714391422E-01 -4.7652714391423E-01 -4.7652714391422E-01 -2.3826357195711E-01 
-0.0000000000000E+00 -0.0000000000000E+00 -0.0000000000000E+00 -0.0000000000000E+00 -0.0000000000000E+00 -0.0000000000000E+00 -0.0000000000000E+00 -0.0000000000000E+00 -0.0000000000000E+00 -0.0000000000000E+00 
 2.3826357195711E-01  0.0000000000000E+00  0.0000000000000E+00  0.0000000000000E+00  0.0000000000000E+00  0.0000000000000E+00  0.0000000000000E+00  0.0000000000000E+00  0.0000000000000E+00  0.0000000000000E+00 
 0.0000000000000E+00 -0.0000000000000E+00 -0.0000000000000E+00 -0.0000000000000E+00 -0.0000000000000E+00 -0.0000000000000E+00 -0.0000000000000E+00 -0.0000000000000E+00 -0.0000000000000E+00  2.3826357195711E-01 
-0.0000000000000E+00 -0.0000000000000E+00 -0.0000000000000E+00 -0.0000000000000E+00 -0.0000000000000E+00 -0.0000000000000E+00 -0.0000000000000E+00 -0.0000000000000E+00 -0.0000000000000E+00 -0.0000000000000E+00 
 7.2440786946225E+03  1.4488157389245E+04  1.4488157389245E+04  1.4488157389245E+04  1.4488157389245E+04  1.4488157389245E+04  1.4488157389245E+04  1.4488157389245E+04  1.4488157389245E+04  7.2440786946225E+03 
 4.9259735123433E+04  9.8519470246865E+04  9.8519470246866E+04  9.8519470246865E+04  9.8519470246866E+04  9.8519470246866E+04  9.8519470246865E+04  9.8519470246866E+04  9.8519470246865E+04  4.9259735123433E+04 
 5.6503813818055E+04  1.1300762763611E+05  1.1300762763611E+05  1.1300762763611E+05  1.1300762763611E+05  1.1300762763611E+05  1.1300762763611E+05  1.1300762763611E+05  1.1300762763611E+05  5.6503813818055E+04 
 3.5000000000000E-01  3.5000000000000E-01  3.5000000000000E-01  3.5000000000000E-01  3.5000000000000E-01  3.5000000000000E-01  3.5000000000000E-01  3.5000000000000E-01  3.5000000000000E-01  3.5000000000000E-01 
 6.6040000000000E+00  1.3208000000000E+01  1.3208000000000E+01  1.3208000000000E+01  1.3208000000000E+01  1.3208000000000E+01  1.3208000000000E+01  1.3208000000000E+01  1.3208000000000E+01  6.6040000000000E+00 
-3.6078675341780E-02 -3.6078675341780E-02 -3.6078675341780E-02 -3.6078675341780E-02 -3.6078675341780E-02 -3.6078675341780E-02 -3.6078675341780E-02 -3.6078675341780E-02 -3.6078675341780E-02 -3.6078675341780E-02 
 3.3866666666667E-05  6.7733333333333E-05  6.7733333333334E-05  6.7733333333333E-05  6.7733333333334E-05  6.7733333333334E-05  6.7733333333333E-05  6.7733333333334E-05  6.7733333333333E-05  3.3866666666667E-05 
 2.6603001364256E+01  2.6603001364256E+01  2.6603001364256E+01  2.6603001364256E+01  2.6603001364256E+01  2.6603001364256E+01  2.6603001364256E+01  2.6603001364256E+01  2.6603001364256E+01  2.6603001364256E+01 
 1.7735334242838E+01  1.7735334242838E+01  1.7735334242838E+01  1.7735334242838E+01  1.7735334242838E+01  1.7735334242838E+01  1.7735334242838E+01  1.7735334242838E+01  1.7735334242838E+01  1.7735334242838E+01 
 0.0000000000000E+00  0.0000000000000E+00  0.0000000000000E+00  0.0000000000000E+00  0.0000000000000E+00  0.0000000000000E+00  0.0000000000000E+00  0.0000000000000E+00  0.0000000000000E+00  0.0000000000000E+00 
 0.0000000000000E+00  0.0000000000000E+00  0.0000000000000E+00  0.0000000000000E+00  0.0000000000000E+00  0.0000000000000E+00  0.0000000000000E+00  0.0000000000000E+00  0.0000000000000E+00  0.0000000000000E+00 
 0.0000000000000E+00  0.0000000000000E+00  0.0000000000000E+00  0.0000000000000E+00  0.0000000000000E+00  0.0000000000000E+00  0.0000000000000E+00  0.0000000000000E+00  0.0000000000000E+00  0.0000000000000E+00 
 0.0000000000000E+00  0.0000000000000E+00  0.0000000000000E+00  0.0000000000000E+00  0.0000000000000E+00  0.0000000000000E+00  0.0000000000000E+00  0.0000000000000E+00  0.0000000000000E+00  0.0000000000000E+00 
 0.0000000000000E+00  0.0000000000000E+00  0.0000000000000E+00  0.0000000000000E+00  0.0000000000000E+00  0.0000000000000E+00  0.0000000000000E+00  0.0000000000000E+00  0.0000000000000E+00  0.0000000000000E+00 
 0.0000000000000E+00  0.0000000000000E+00  0.0000000000000E+00  0.0000000000000E+00  0.0000000000000E+00  0.0000000000000E+00  0.0000000000000E+00  0.0000000000000E+00  0.0000000000000E+00  0.0000000000000E+00 
 0.0000000000000E+00  0.0000000000000E+00  0.0000000000000E+00  0.0000000000000E+00  0.0000000000000E+00  0.0000000000000E+00  0.0000000000000E+00  0.0000000000000E+00  0.0000000000000E+00  0.0000000000000E+00 
ZONE T = "CATH, 1.0000E-08", I = 10, SOLUTIONTIME = 1.000000E-08
ZONETYPE = ORDERED
DATAPACKING = BLOCK
STRANDID = 3
 1.2700000000000E-03  1.3377333333333E-03  1.4054666666667E-03  1.4732000000000E-03  1.5409333333333E-03  1.6086666666667E-03  1.6764000000000E-03  1.7441333333333E-03  1.8118666666667E-03  1.8796000000000E-03 
 1.9707213521772E-08  1.7391068172254E-08  1.5074639429476E-08  1.2757731682519E-08  1.0439785969460E-08  8.1213326816279E-09  5.8025387395850E-09  3.4817547366885E-09  1.1595130744182E-09 -2.5424538749951E-12 
 9.2000000000032E-01  9.2000000000090E-01  9.2000000000090E-01  9.2000000000090E-01  9.2000000000090E-01  9.2000000000090E-01  9.2000000000090E-01  9.2000000000090E-01  9.2000000000090E-01  9.2000000000090E-01 
 3.9999999999841E-02  3.9999999999551E-02  3.9999999999551E-02  3.9999999999551E-02  3.9999999999550E-02  3.9999999999550E-02  3.9999999999550E-02  3.9999999999550E-02  3.9999999999549E-02  3.9999999999549E-02 
 3.9999999999841E-02  3.9999999999551E-02  3.9999999999551E-02  3.9999999999551E-02  3.9999999999550E-02  3.9999999999550E-02  3.9999999999550E-02  3.9999999999550E-02  3.9999999999549E-02  3.9999999999549E-02 
 2.9171015573319E-02  2.9170808542357E-02  2.9170625839942E-02  2.9170467469010E-02  2.9170333434626E-02  2.9170223743857E-02  2.9170138405852E-02  2.9170077431823E-02  2.9170040835069E-02  2.9170028630889E-02 
 3.8001746603047E+00  3.8001725051917E+00  3.8001660396881E+00  3.8001552632663E+00  3.8001401750350E+00  3.8001207737380E+00  3.8000970577546E+00  3.8000690250987E+00  3.8000366734182E+00  3.8000000000000E+00 
 2.9815000104863E+02  2.9815000408566E+02  2.9815000417137E+02  2.9815000423749E+02  2.9815000418474E+02  2.9815000424327E+02  2.9815000424488E+02  2.9815000380042E+02  2.9814998670197E+02  2.9814916183435E+02 
 3.7710036447314E+00  3.7710016966493E+00  3.7709954138481E+00  3.7709847957973E+00  3.7709698416003E+00  3.7709505499941E+00  3.7709269193488E+00  3.7708989476669E+00  3.7708666325832E+00  3.7708299713691E+00 
 3.9714142704823E+00  3.9714142680306E+00  3.9714142679614E+00  3.9714142679081E+00  3.9714142679507E+00  3.9714142679034E+00  3.9714142679021E+00  3.9714142682609E+00  3.9714142820625E+00  3.9714149478838E+00 
-2.0041062575088E-01 -2.0041257138131E-01 -2.0041885411333E-01 -2.0042947211074E-01 -2.0044442635031E-01 -2.0046371790926E-01 -2.0048734855333E-01 -2.0051532059397E-01 -2.0054764947934E-01 -2.0058497651468E-01 
-1.6673997650851E+00 -3.3349268674791E+00 -3.3353350067768E+00 -3.3360248622654E+00 -3.3369966404086E+00 -3.3382507302202E+00 -3.3397875106409E+00 -3.3416073977045E+00 -3.3437067026852E+00 -1.6729379557181E+00 
 1.4706618858920E-07  1.2978408286097E-07  1.1250002463996E-07  9.5212367628528E-08  7.7919692347041E-08  6.0620515657173E-08  4.3313376300263E-08  2.5996790332307E-08  8.6693469819502E-09  8.6693469819502E-09 
 3.0046835555683E+01  2.6711978794793E+01  2.3376863624545E+01  2.0041200044791E+01  1.6704705045142E+01  1.3367098565921E+01  1.0028096515234E+01  6.6874147242984E+00  3.3447738972386E+00  0.0000000000000E+00 
 0.0000000000000E+00  3.3348470713611E+00  6.6699618586499E+00  1.0005625602787E+01  1.3342120101991E+01  1.6679727451858E+01  2.0018730132629E+01  2.3359411021047E+01  2.6702051357343E+01  3.0046834267683E+01 
 1.6673997650851E-08  3.3349268674791E-08  3.3353350067768E-08  3.3360248622654E-08  3.3369966404086E-08  3.3382507302202E-08  3.3397875106409E-08  3.3416073977045E-08  3.3437067026852E-08  1.6729379557181E-08 
 7.2440786946392E+03  1.4488157389278E+04  1.4488157389278E+04  1.4488157389278E+04  1.4488157389278E+04  1.4488157389278E+04  1.4488157389278E+04  1.4488157389278E+04  1.4488157389278E+04  7.2440786946392E+03 
 4.9259735123416E+04  9.8519470246832E+04  9.8519470246832E+04  9.8519470246832E+04  9.8519470246832E+04  9.8519470246832E+04  9.8519470246832E+04  9.8519470246832E+04  9.8519470246832E+04  4.9259735123416E+04 
 5.6503813818055E+04  1.1300762763611E+05  1.1300762763611E+05  1.1300762763611E+05  1.1300762763611E+05  1.1300762763611E+05  1.1300762763611E+05  1.1300762763611E+05  1.1300762763611E+05  5.6503813818055E+04 
 3.5000000000000E-01  3.5000000000000E-01  3.5000000000000E-01  3.5000000000000E-01  3.5000000000000E-01  3.5000000000000E-01  3.5000000000000E-01  3.5000000000000E-01  3.5000000000000E-01  3.5000000000000E-01 
 6.6040000000000E+00  1.3208000000000E+01  1.3208000000000E+01  1.3208000000000E+01  1.3208000000000E+01  1.3208000000000E+01  1.3208000000000E+01  1.3208000000000E+01  1.3208000000000E+01  6.6040000000000E+00 
-2.5248330785661E-01 -2.5249294877946E-01 -2.5252384969540E-01 -2.5257607982022E-01 -2.5264965478563E-01 -2.5274460404454E-01 -2.5286095628716E-01 -2.5299874301215E-01 -2.5315768493983E-01 -2.5332191940007E-01 
 3.3866666666667E-05  6.7733333333333E-05  6.7733333333334E-05  6.7733333333333E-05  6.7733333333334E-05  6.7733333333334E-05  6.7733333333333E-05  6.7733333333334E-05  6.7733333333333E-05  3.3866666666667E-05 
 2.6603001364262E+01  2.6603001364262E+01  2.6603001364262E+01  2.6603001364262E+01  2.6603001364262E+01  2.6603001364262E+01  2.6603001364262E+01  2.6603001364262E+01  2.6603001364262E+01  2.6603001364262E+01 
 1.7735334242833E+01  1.7735334242833E+01  1.7735334242833E+01  1.7735334242833E+01  1.7735334242833E+01  1.7735334242833E+01  1.7735334242833E+01  1.7735334242833E+01  1.7735334242833E+01  1.7735334242833E+01 
 2.1716042420248E-04  2.1717170210480E-04  2.1720756109425E-04  2.1726817290850E-04  2.1735355760522E-04  2.1746374988405E-04  2.1759878645834E-04  2.1775870915716E-04  2.1794329314959E-04  2.1811962494415E-04 
 2.1716042420248E+04  2.1717170210480E+04  2.1720756109425E+04  2.1726817290850E+04  2.1735355760522E+04  2.1746374988405E+04  2.1759878645834E+04  2.1775870915716E+04  2.1794329314959E+04  2.1811962494415E+04 
 8.6743433278078E-02  7.7148989895064E-02  5.9157000911904E-02  4.3558663280663E-02  3.0354137756541E-02  1.9544412830751E-02  1.1131271387656E-02  5.1173161572649E-03  1.5059695580722E-03  3.0142817894235E-04 
 5.3052424770681E-02  2.6527427738371E-01  9.0200881526792E-01  1.9634656910157E+00  3.4499980588989E+00  5.3621028669183E+00  7.7004212110117E+00  1.0465738727484E+01  1.3658983807674E+01  1.5362713084873E+01 
 2.1715902624390E+04  2.1716827787213E+04  2.1719794943609E+04  2.1724810266496E+04  2.1731875408325E+04  2.1740993341125E+04  2.1752167093351E+04  2.1765400059673E+04  2.1780668825181E+04  2.1796599479902E+04 
 9.8670658552485E+03  9.8675384185196E+03  9.8690554155006E+03  9.8716196175167E+03  9.8752319486307E+03  9.8798939866274E+03  9.8856074223557E+03  9.8923741926800E+03  9.9001848391655E+03  9.9084513944502E+03 
 1.1848836769142E+04  1.1849289368694E+04  1.1850739528109E+04  1.1853190648979E+04  1.1856643459694E+04  1.1861099354498E+04  1.1866559670996E+04  1.1873025866993E+04  1.1880483986016E+04  1.1888148085452E+04 
ZONE T = "CATH, 2.0000E-08", I = 10, SOLUTIONTIME = 2.000000E-08
ZONETYPE = ORDERED
DATAPACKING = BLOCK
STRANDID = 3
 1.2700000000000E-03  1.3377333333333E-03  1.4054666666667E-03  1.4732000000000E-03  1.5409333333333E-03  1.6086666666667E-03  1.6764000000000E-03  1.7441333333333E-03  1.8118666666667E-03  1.8796000000000E-03 
 1.9706755074274E-08  1.7390355857647E-08  1.5074036352979E-08  1.2757237703097E-08  1.0440127310084E-08  8.1217826892279E-09  5.8023706791844E-09  3.4816948566122E-09  1.1592037256516E-09 -2.7240579583892E-12 
 9.2000000000064E-01  9.2000000000180E-01  9.2000000000180E-01  9.2000000000180E-01  9.2000000000180E-01  9.2000000000180E-01  9.2000000000180E-01  9.2000000000180E-01  9.2000000000180E-01  9.2000000000180E-01 
 3.9999999999682E-02  3.9999999999101E-02  3.9999999999101E-02  3.9999999999101E-02  3.9999999999101E-02  3.9999999999100E-02  3.9999999999100E-02  3.9999999999099E-02  3.9999999999099E-02  3.9999999999098E-02 
 3.9999999999682E-02  3.9999999999101E-02  3.9999999999101E-02  3.9999999999101E-02  3.9999999999101E-02  3.9999999999100E-02  3.9999999999100E-02  3.9999999999099E-02  3.9999999999099E-02  3.9999999999098E-02 
 2.9176397012423E-02  2.9176189959578E-02  2.9176007237923E-02  2.9175848850437E-02  2.9175714802154E-02  2.9175605100164E-02  2.9175519753620E-02  2.9175458773733E-02  2.9175422173784E-02  2.9175409969057E-02 
 3.8001746794517E+00  3.8001725241030E+00  3.8001660578912E+00  3.8001552802885E+00  3.8001401904032E+00  3.8001207869790E+00  3.8000970683946E+00  3.8000690326633E+00  3.8000366774327E+00  3.8000000000000E+00 
 2.9815000213643E+02  2.9815000831866E+02  2.9815000851662E+02  2.9815000859761E+02  2.9815000853187E+02  2.9815000851369E+02  2.9815000857353E+02  2.9815000704841E+02  2.9814995750977E+02  2.9814836195796E+02 
 3.7709982824393E+00  3.7709963341434E+00  3.7709900506532E+00  3.7709794314381E+00  3.7709644756011E+00  3.7709451818788E+00  3.7709215486410E+00  3.7708935738895E+00  3.7708612552589E+00  3.7708245900309E+00 
 3.9714142696040E+00  3.9714142646134E+00  3.9714142644537E+00  3.9714142643883E+00  3.9714142644413E+00  3.9714142644560E+00  3.9714142644077E+00  3.9714142656388E+00  3.9714143056257E+00  3.9714155935316E+00 
-2.0041598716474E-01 -2.0041793047002E-01 -2.0042421380043E-01 -2.0043483295022E-01 -2.0044978884029E-01 -2.0046908257721E-01 -2.0049271576677E-01 -2.0052069174925E-01 -2.0055305036678E-01 -2.0059100350065E-01 
-1.6675740621544E+00 -3.3352763219556E+00 -3.3356845784434E+00 -3.3363745857142E+00 -3.3373465687108E+00 -3.3386009070521E+00 -3.3401380324972E+00 -3.3419580232009E+00 -3.3440491638072E+00 -1.6730070303490E+00 
 1.4708186459075E-07  1.2979774864825E-07  1.1251178222573E-07  9.5222240103931E-08  7.7927661020740E-08  6.0626581799989E-08  4.3317536984106E-08  2.5999060726960E-08  8.6697478609554E-09  8.6697478609554E-09 
 3.0050009273740E+01  2.6714797050645E+01  2.3379316600674E+01  2.0043287018464E+01  1.6706426441073E+01  1.3368452703370E+01  1.0029083233737E+01  6.6880352059525E+00  3.3450316121003E+00  0.0000000000000E+00 
 0.0000000000000E+00  3.3352122231360E+00  6.6706926734585E+00  1.0006722255515E+01  1.3343582832636E+01  1.6681556570507E+01  2.0020926040249E+01  2.3361974068097E+01  2.6704977661625E+01  3.0050009273812E+01 
 3.3349738272395E-08  6.6702031894348E-08  6.6710195852202E-08  6.6723994479796E-08  6.6743432091194E-08  6.6768516372724E-08  6.6799255431380E-08  6.6835654209054E-08  6.6877558664924E-08  3.3459449860670E-08 
 7.2440786946558E+03  1.4488157389312E+04  1.4488157389312E+04  1.4488157389312E+04  1.4488157389312E+04  1.4488157389312E+04  1.4488157389312E+04  1.4488157389312E+04  1.4488157389312E+04  7.2440786946559E+03 
 4.9259735123400E+04  9.8519470246798E+04  9.8519470246799E+04  9.8519470246798E+04  9.8519470246799E+04  9.8519470246799E+04  9.8519470246798E+04  9.8519470246799E+04  9.8519470246798E+04  4.9259735123399E+04 
 5.6503813818055E+04  1.1300762763611E+05  1.1300762763611E+05  1.1300762763611E+05  1.1300762763611E+05  1.1300762763611E+05  1.1300762763611E+05  1.1300762763611E+05  1.1300762763611E+05  5.6503813818055E+04 
 3.5000000000000E-01  3.5000000000000E-01  3.5000000000000E-01  3.5000000000000E-01  3.5000000000000E-01  3.5000000000000E-01  3.5000000000000E-01  3.5000000000000E-01  3.5000000000000E-01  3.5000000000000E-01 
 6.6040000000000E+00  1.3208000000000E+01  1.3208000000000E+01  1.3208000000000E+01  1.3208000000000E+01  1.3208000000000E+01  1.3208000000000E+01  1.3208000000000E+01  1.3208000000000E+01  6.6040000000000E+00 
-2.5250970050794E-01 -2.5251940656842E-01 -2.5255031635701E-01 -2.5260255797352E-01 -2.5267614844873E-01 -2.5277111652423E-01 -2.5288749488925E-01 -2.5302528946100E-01 -2.5318361325009E-01 -2.5333237891413E-01 
 3.3866666666667E-05  6.7733333333333E-05  6.7733333333334E-05  6.7733333333333E-05  6.7733333333334E-05  6.7733333333334E-05  6.7733333333333E-05  6.7733333333334E-05  6.7733333333333E-05  3.3866666666667E-05 
 2.6603001364267E+01  2.6603001364267E+01  2.6603001364267E+01  2.6603001364267E+01  2.6603001364267E+01  2.6603001364267E+01  2.6603001364267E+01  2.6603001364267E+01  2.6603001364267E+01  2.6603001364267E+01 
 1.7735334242827E+01  1.7735334242827E+01  1.7735334242827E+01  1.7735334242827E+01  1.7735334242827E+01  1.7735334242827E+01  1.7735334242827E+01  1.7735334242827E+01  1.7735334242827E+01  1.7735334242827E+01 
 4.3434618932536E-04  4.3436880230152E-04  4.3444053026981E-04  4.3456176774666E-04  4.3473255606211E-04  4.3495296400264E-04  4.3522306846469E-04  4.3554293094308E-04  4.3591157506389E-04  4.3625084073082E-04 
 2.1718576512288E+04  2.1719710019672E+04  2.1723296917556E+04  2.1729359483816E+04  2.1737899845689E+04  2.1748921411859E+04  2.1762428200636E+04  2.1778422178592E+04  2.1796828191431E+04  2.1813121578667E+04 
 8.6761770839130E-02  7.7165272767429E-02  5.9169420598452E-02  4.3567739223359E-02  3.0360398646585E-02  1.9548378366093E-02  1.1133469211144E-02  5.1182756444598E-03  1.5062199399535E-03  3.0145562871962E-04 
 5.3064029746657E-02  2.6533238710376E-01  9.0220649812451E-01  1.9638961300352E+00  3.4507545764806E+00  5.3632789759203E+00  7.7021106842994E+00  1.0468035521758E+01  1.3661977545668E+01  1.5366076609256E+01 
 2.1718436686487E+04  2.1719367522012E+04  2.1722335541637E+04  2.1727352019947E+04  2.1734418730714E+04  2.1743538584505E+04  2.1754714956482E+04  2.1767949024794E+04  2.1783164707665E+04  2.1797755200602E+04 
 9.8683612747195E+03  9.8688362892666E+03  9.8703537271905E+03  9.8729185445072E+03  9.8765317173118E+03  9.8811947971820E+03  9.8869096236051E+03  9.8936771842054E+03  9.9014654583513E+03  9.9091582406050E+03 
 1.1850075411768E+04  1.1850531232745E+04  1.1851981814447E+04  1.1854433475440E+04  1.1857887013403E+04  1.1862343787323E+04  1.1867805332877E+04  1.1874271840589E+04  1.1881699249314E+04  1.1888596959997E+04 
ZONE T = "CATH, 3.0000E-08", I = 10, SOLUTIONTIME = 3.000000E-08
ZONETYPE = ORDERED
DATAPACKING = BLOCK
STRANDID = 3
 1.2700000000000E-03  1.3377333333333E-03  1.4054666666667E-03  1.4732000000000E-03  1.5409333333333E-03  1.6086666666667E-03  1.6764000000000E-03  1.7441333333333E-03  1.8118666666667E-03  1.8796000000000E-03 
 1.9717282888847E-08  1.7401366843788E-08  1.5085167207902E-08  1.2767761904057E-08  1.0449681518474E-08  8.1303667129087E-09  5.8107107302308E-09  3.4897910359624E-09  1.1677906489489E-09  6.1745313722255E-12 
 9.2000000000095E-01  9.2000000000270E-01  9.2000000000270E-01  9.2000000000270E-01  9.2000000000270E-01  9.2000000000270E-01  9.2000000000270E-01  9.2000000000270E-01  9.2000000000270E-01  9.2000000000271E-01 
 3.9999999999524E-02  3.9999999998652E-02  3.9999999998652E-02  3.9999999998651E-02  3.9999999998651E-02  3.9999999998650E-02  3.9999999998650E-02  3.9999999998649E-02  3.9999999998648E-02  3.9999999998647E-02 
 3.9999999999524E-02  3.9999999998652E-02  3.9999999998652E-02  3.9999999998651E-02  3.9999999998651E-02  3.9999999998650E-02  3.9999999998650E-02  3.9999999998649E-02  3.9999999998648E-02  3.9999999998647E-02 
 2.9181790330056E-02  2.9181583256278E-02  2.9181400516244E-02  2.9181242112936E-02  2.9181108051389E-02  2.9180998338694E-02  2.9180912984006E-02  2.9180851998539E-02  2.9180815395576E-02  2.9180803190323E-02 
 3.8001746977862E+00  3.8001725422116E+00  3.8001660753212E+00  3.8001552965870E+00  3.8001402051171E+00  3.8001207996548E+00  3.8000970785787E+00  3.8000690399015E+00  3.8000366812711E+00  3.8000000000000E+00 
 2.9815000323595E+02  2.9815001245965E+02  2.9815001285080E+02  2.9815001296815E+02  2.9815001284347E+02  2.9815001287525E+02  2.9815001282185E+02  2.9815000930810E+02  2.9814991364910E+02  2.9814759789986E+02 
 3.7709929074561E+00  3.7709909589553E+00  3.7709846748049E+00  3.7709740544741E+00  3.7709590970657E+00  3.7709398013161E+00  3.7709161655947E+00  3.7708881879029E+00  3.7708558658755E+00  3.7708191968097E+00 
 3.9714142687163E+00  3.9714142612705E+00  3.9714142609548E+00  3.9714142608601E+00  3.9714142609607E+00  3.9714142609351E+00  3.9714142609782E+00  3.9714142638144E+00  3.9714143410290E+00  3.9714162102669E+00 
-2.0042136126022E-01 -2.0042330231519E-01 -2.0042958614986E-01 -2.0044020638600E-01 -2.0045516389504E-01 -2.0047445961894E-01 -2.0049809538351E-01 -2.0052607591148E-01 -2.0055847515349E-01 -2.0059701345723E-01 
-1.6677487912030E+00 -3.3356266125292E+00 -3.3360350059082E+00 -3.3367251676814E+00 -3.3376973391588E+00 -3.3389519541931E+00 -3.3404893725246E+00 -3.3423092178699E+00 -3.3443885495529E+00 -1.6730812544953E+00 
 1.4709686610989E-07  1.2981080232734E-07  1.1252301995172E-07  9.5231661092095E-08  7.7935264285585E-08  6.0632365904397E-08  4.3321500413556E-08  2.6001204239470E-08  8.6701326097345E-09  8.6701326097345E-09 
 3.0053053265471E+01  2.6717491167685E+01  2.3381660358298E+01  2.0045280271675E+01  1.6708069018314E+01  1.3369744371566E+01  1.0030023708185E+01  6.6886244129883E+00  3.3452755292085E+00  0.0000000000000E+00 
 0.0000000000000E+00  3.3355620976204E+00  6.6713929067144E+00  1.0007772993396E+01  1.3344984246935E+01  1.6683308893661E+01  2.0023029556922E+01  2.3364428851988E+01  2.6707777735851E+01  3.0053053265245E+01 
 5.0027226184425E-08  1.0005829801964E-07  1.0007054591128E-07  1.0009124615661E-07  1.0012040548278E-07  1.0015803591465E-07  1.0020414915663E-07  1.0025874638775E-07  1.0032144416045E-07  5.0190262405623E-08 
 7.2440786946725E+03  1.4488157389345E+04  1.4488157389345E+04  1.4488157389345E+04  1.4488157389345E+04  1.4488157389345E+04  1.4488157389345E+04  1.4488157389345E+04  1.4488157389345E+04  7.2440786946727E+03 
 4.9259735123383E+04  9.8519470246765E+04  9.8519470246766E+04  9.8519470246765E+04  9.8519470246766E+04  9.8519470246766E+04  9.8519470246765E+04  9.8519470246765E+04  9.8519470246765E+04  4.9259735123383E+04 
 5.6503813818055E+04  1.1300762763611E+05  1.1300762763611E+05  1.1300762763611E+05  1.1300762763611E+05  1.1300762763611E+05  1.1300762763611E+05  1.1300762763611E+05  1.1300762763611E+05  5.6503813818055E+04 
 3.5000000000000E-01  3.5000000000000E-01  3.5000000000000E-01  3.5000000000000E-01  3.5000000000000E-01  3.5000000000000E-01  3.5000000000000E-01  3.5000000000000E-01  3.5000000000000E-01  3.5000000000000E-01 
 6.6040000000000E+00  1.3208000000000E+01  1.3208000000000E+01  1.3208000000000E+01  1.3208000000000E+01  1.3208000000000E+01  1.3208000000000E+01  1.3208000000000E+01  1.3208000000000E+01  6.6040000000000E+00 
-2.5253615857102E-01 -2.5254592765969E-01 -2.5257684781255E-01 -2.5262910112670E-01 -2.5270270587211E-01 -2.5279769489651E-01 -2.5291409543645E-01 -2.5305187900287E-01 -2.5320930871842E-01 -2.5334361818523E-01 
 3.3866666666667E-05  6.7733333333333E-05  6.7733333333334E-05  6.7733333333333E-05  6.7733333333334E-05  6.7733333333334E-05  6.7733333333333E-05  6.7733333333334E-05  6.7733333333333E-05  3.3866666666667E-05 
 2.6603001364272E+01  2.6603001364272E+01  2.6603001364272E+01  2.6603001364272E+01  2.6603001364272E+01  2.6603001364272E+01  2.6603001364272E+01  2.6603001364272E+01  2.6603001364272E+01  2.6603001364272E+01 
 1.7735334242822E+01  1.7735334242822E+01  1.7735334242822E+01  1.7735334242822E+01  1.7735334242822E+01  1.7735334242822E+01  1.7735334242822E+01  1.7735334242822E+01  1.7735334242822E+01  1.7735334242822E+01 
 6.5155735842051E-04  6.5159136179357E-04  6.5169896995425E-04  6.5188084700509E-04  6.5213705662423E-04  6.5246770524588E-04  6.5287290522896E-04  6.5335270791960E-04  6.5390464876904E-04  6.5439432742972E-04 
 2.1721116909514E+04  2.1722255949205E+04  2.1725843968443E+04  2.1731907925842E+04  2.1740450056212E+04  2.1751474124324E+04  2.1764983676427E+04  2.1780977697652E+04  2.1799307370515E+04  2.1814348669891E+04 
 8.6779314487159E-02  7.7180840747814E-02  5.9181288297431E-02  4.3576409064676E-02  3.0366373525977E-02  1.9552161504376E-02  1.1135564389880E-02  5.1191876757005E-03  1.5064565204859E-03  3.0148196957515E-04 
 5.3075150477567E-02  2.6538807149266E-01  9.0239592892594E-01  1.9643085904844E+00  3.4514794563026E+00  5.3644058230932E+00  7.7037292406663E+00  1.0470235518036E+01  1.3664842312397E+01  1.5369293020850E+01 
 2.1720977055049E+04  2.1721913380292E+04  2.1724882391226E+04  2.1729900040843E+04  2.1736968210382E+04  2.1746090166339E+04  2.1757268811622E+04  2.1770502342946E+04  2.1785641021746E+04  2.1798979075388E+04 
 9.8696599303097E+03  9.8701373175370E+03  9.8716552502450E+03  9.8742206879585E+03  9.8778346528652E+03  9.8824988490862E+03  9.8882149139914E+03  9.8949825582163E+03  9.9027382060053E+03  9.9098947713634E+03 
 1.1851317124740E+04  1.1851776062755E+04  1.1853227140981E+04  1.1855679352884E+04  1.1859133557517E+04  1.1863591317253E+04  1.1869053897631E+04  1.1875519784730E+04  1.1882902815741E+04  1.1889084304024E+04 
ZONE T = "CATH, 4.0000E-08", I = 10, SOLUTIONTIME = 4.000000E-08
ZONETYPE = ORDERED
DATAPACKING = BLOCK
STRANDID = 3
 1.2700000000000E-03  1.3377333333333E-03  1.4054666666667E-03  1.4732000000000E-03  1.5409333333333E-03  1.6086666666667E-03  1.6764000000000E-03  1.7441333333333E-03  1.8118666666667E-03  1.8796000000000E-03 
 1.9710563518024E-08  1.7393677250572E-08  1.5076507304377E-08  1.2759584413343E-08  1.0441259874219E-08  8.1231535750155E-09  5.8025266426290E-09  3.4809995184862E-09  1.1587653714027E-09 -3.2688695501089E-12 
 9.2000000000127E-01  9.2000000000360E-01  9.2000000000360E-01  9.2000000000360E-01  9.2000000000360E-01  9.2000000000360E-01  9.2000000000360E-01  9.2000000000360E-01  9.2000000000360E-01  9.2000000000361E-01 
 3.9999999999365E-02  3.9999999998202E-02  3.9999999998202E-02  3.9999999998202E-02  3.9999999998201E-02  3.9999999998201E-02  3.9999999998200E-02  3.9999999998199E-02  3.9999999998198E-02  3.9999999998197E-02 
 3.9999999999365E-02  3.9999999998202E-02  3.9999999998202E-02  3.9999999998202E-02  3.9999999998201E-02  3.9999999998201E-02  3.9999999998200E-02  3.9999999998199E-02  3.9999999998198E-02  3.9999999998197E-02 
 2.9187195535249E-02  2.9186988440483E-02  2.9186805682022E-02  2.9186647262849E-02  2.9186513188000E-02  2.9186403464571E-02  2.9186318101714E-02  2.9186257110648E-02  2.9186220504655E-02  2.9186208298842E-02 
 3.8001747161576E+00  3.8001725603567E+00  3.8001660927861E+00  3.8001553129178E+00  3.8001402198595E+00  3.8001208123545E+00  3.8000970887809E+00  3.8000690471510E+00  3.8000366851134E+00  3.8000000000000E+00 