TITLE = "Solution on Domain BulkDomain1D_0"
VARIABLES = "x [m]"  
"Vel_axial" 
"MF_sp(ECDMC)" 
"MF_sp(Li+)" 
"MF_sp(PF6-)" 
"Volt(Electroly)" 
"Volt(AnodeVolt)" 
"Temperature" 
"Potential Drop Electrode-Electrolyte [V]" 
"Surf_0 Equilibrium Potential Drop Electrode-Electrolyte [V]" 
"Overpotential_0 [V]" 
"Current Source [A/m^2]" 
"Li+ flux [kmol/m^2/s]" 
"Electrolyte Current [A/m^2]" 
"Electrode Current [A/m^2]" 
"CV Capacity discharged [A-s/m^2]" 
"Depth of discharge in CV [A-s/m^2]" 
"CV Capacity remaining [A-s/m^2]" 
"Initial CV capacity [A-s/m^2]" 
"Porosity []" 
"Surface Area [m2/m2] (area per area)" 
"Specific current (per particle area) [A/m^2]" 
"Control volume thickness [m]" 
"MoleDens Li_C6-bulk [kmol/m^3]" 
"MoleDens V_C6-bulk [kmol/m^3]" 
"qHeat_accum [J/m3]" 
"qHeat_step [W/m3]" 
"Joule_Lyte [W/m3]" 
"Joule_Solid [W/m3]" 
"electrodHeat [W/m3]" 
"OverpotHeat [W/m3]" 
"deltaSHeat [W/m3]" 

ZONE T = "ANOD, 0.0000E+00", I = 10, SOLUTIONTIME = 0.000000E+00
ZONETYPE = ORDERED
DATAPACKING = BLOCK
STRANDID = 1
 0.0000000000000E+00  8.7488888888889E-05  1.7497777777778E-04  2.6246666666667E-04  3.4995555555556E-04  4.3744444444444E-04  5.2493333333333E-04  6.1242222222222E-04  6.9991111111111E-04  7.8740000000000E-04 
 0.0000000000000E+00  0.0000000000000E+00  0.0000000000000E+00  0.0000000000000E+00  0.0000000000000E+00  0.0000000000000E+00  0.0000000000000E+00  0.0000000000000E+00  0.0000000000000E+00  0.0000000000000E+00 
 9.2000000000000E-01  9.2000000000000E-01  9.2000000000000E-01  9.2000000000000E-01  9.2000000000000E-01  9.2000000000000E-01  9.2000000000000E-01  9.2000000000000E-01  9.2000000000000E-01  9.2000000000000E-01 
 4.0000000000000E-02  4.0000000000000E-02  4.0000000000000E-02  4.0000000000000E-02  4.0000000000000E-02  4.0000000000000E-02  4.0000000000000E-02  4.0000000000000E-02  4.0000000000000E-02  4.0000000000000E-02 
 4.0000000000000E-02  4.0000000000000E-02  4.0000000000000E-02  4.0000000000000E-02  4.0000000000000E-02  4.0000000000000E-02  4.0000000000000E-02  4.0000000000000E-02  4.0000000000000E-02  4.0000000000000E-02 
-7.0000000000000E-02 -7.0000000000000E-02 -7.0000000000000E-02 -7.0000000000000E-02 -7.0000000000000E-02 -7.0000000000000E-02 -7.0000000000000E-02 -7.0000000000000E-02 -7.0000000000000E-02 -7.0000000000000E-02 
 0.0000000000000E+00  0.0000000000000E+00  0.0000000000000E+00  0.0000000000000E+00  0.0000000000000E+00  0.0000000000000E+00  0.0000000000000E+00  0.0000000000000E+00  0.0000000000000E+00  0.0000000000000E+00 
 2.9815000000000E+02  2.9815000000000E+02  2.9815000000000E+02  2.9815000000000E+02  2.9815000000000E+02  2.9815000000000E+02  2.9815000000000E+02  2.9815000000000E+02  2.9815000000000E+02  2.9815000000000E+02 
 7.0000000000000E-02  7.0000000000000E-02  7.0000000000000E-02  7.0000000000000E-02  7.0000000000000E-02  7.0000000000000E-02  7.0000000000000E-02  7.0000000000000E-02  7.0000000000000E-02  7.0000000000000E-02 
-4.0899179293840E-02 -4.0899179293840E-02 -4.0899179293840E-02 -4.0899179293840E-02 -4.0899179293840E-02 -4.0899179293840E-02 -4.0899179293840E-02 -4.0899179293840E-02 -4.0899179293840E-02 -4.0899179293840E-02 
 1.1089917929384E-01  1.1089917929384E-01  1.1089917929384E-01  1.1089917929384E-01  1.1089917929384E-01  1.1089917929384E-01  1.1089917929384E-01  1.1089917929384E-01  1.1089917929384E-01  1.1089917929384E-01 
 3.0925583987519E+01  6.1851167975038E+01  6.1851167975038E+01  6.1851167975038E+01  6.1851167975038E+01  6.1851167975038E+01  6.1851167975038E+01  6.1851167975038E+01  6.1851167975038E+01  3.0925583987519E+01 
-0.0000000000000E+00 -0.0000000000000E+00 -0.0000000000000E+00 -0.0000000000000E+00 -0.0000000000000E+00 -0.0000000000000E+00 -0.0000000000000E+00 -0.0000000000000E+00 -0.0000000000000E+00 -0.0000000000000E+00 
 0.0000000000000E+00  0.0000000000000E+00  0.0000000000000E+00  0.0000000000000E+00  0.0000000000000E+00  0.0000000000000E+00  0.0000000000000E+00  0.0000000000000E+00  0.0000000000000E+00  3.0925583987519E+01 
 3.0925583987519E+01 -0.0000000000000E+00 -0.0000000000000E+00 -0.0000000000000E+00 -0.0000000000000E+00 -0.0000000000000E+00 -0.0000000000000E+00 -0.0000000000000E+00 -0.0000000000000E+00  0.0000000000000E+00 
 0.0000000000000E+00  0.0000000000000E+00  0.0000000000000E+00  0.0000000000000E+00  0.0000000000000E+00  0.0000000000000E+00  0.0000000000000E+00  0.0000000000000E+00  0.0000000000000E+00  0.0000000000000E+00 
 4.5724222271641E+04  9.1448444543281E+04  9.1448444543281E+04  9.1448444543281E+04  9.1448444543281E+04  9.1448444543281E+04  9.1448444543281E+04  9.1448444543281E+04  9.1448444543281E+04  4.5724222271641E+04 
 3.3835924481014E+05  6.7671848962028E+05  6.7671848962028E+05  6.7671848962028E+05  6.7671848962028E+05  6.7671848962028E+05  6.7671848962028E+05  6.7671848962028E+05  6.7671848962028E+05  3.3835924481014E+05 
 3.8408346708178E+05  7.6816693416356E+05  7.6816693416356E+05  7.6816693416356E+05  7.6816693416356E+05  7.6816693416356E+05  7.6816693416356E+05  7.6816693416356E+05  7.6816693416356E+05  3.8408346708178E+05 
 3.5000000000000E-01  3.5000000000000E-01  3.5000000000000E-01  3.5000000000000E-01  3.5000000000000E-01  3.5000000000000E-01  3.5000000000000E-01  3.5000000000000E-01  3.5000000000000E-01  3.5000000000000E-01 
 8.5301666666667E+00  1.7060333333333E+01  1.7060333333333E+01  1.7060333333333E+01  1.7060333333333E+01  1.7060333333333E+01  1.7060333333333E+01  1.7060333333333E+01  1.7060333333333E+01  8.5301666666667E+00 
 3.6254372506421E+00  3.6254372506421E+00  3.6254372506421E+00  3.6254372506421E+00  3.6254372506421E+00  3.6254372506421E+00  3.6254372506421E+00  3.6254372506421E+00  3.6254372506421E+00  3.6254372506421E+00 
 4.3744444444444E-05  8.7488888888889E-05  8.7488888888889E-05  8.7488888888889E-05  8.7488888888889E-05  8.7488888888889E-05  8.7488888888889E-05  8.7488888888889E-05  8.7488888888889E-05  4.3744444444444E-05 
 8.6666666666667E+01  8.6666666666667E+01  8.6666666666667E+01  8.6666666666667E+01  8.6666666666667E+01  8.6666666666667E+01  8.6666666666667E+01  8.6666666666667E+01  8.6666666666667E+01  8.6666666666667E+01 
 2.1666666666667E+01  2.1666666666667E+01  2.1666666666667E+01  2.1666666666667E+01  2.1666666666667E+01  2.1666666666667E+01  2.1666666666667E+01  2.1666666666667E+01  2.1666666666667E+01  2.1666666666667E+01 
 0.0000000000000E+00  0.0000000000000E+00  0.0000000000000E+00  0.0000000000000E+00  0.0000000000000E+00  0.0000000000000E+00  0.0000000000000E+00  0.0000000000000E+00  0.0000000000000E+00  0.0000000000000E+00 
 0.0000000000000E+00  0.0000000000000E+00  0.0000000000000E+00  0.0000000000000E+00  0.0000000000000E+00  0.0000000000000E+00  0.0000000000000E+00  0.0000000000000E+00  0.0000000000000E+00  0.0000000000000E+00 
 0.0000000000000E+00  0.0000000000000E+00  0.0000000000000E+00  0.0000000000000E+00  0.0000000000000E+00  0.0000000000000E+00  0.0000000000000E+00  0.0000000000000E+00  0.0000000000000E+00  0.0000000000000E+00 
 0.0000000000000E+00  0.0000000000000E+00  0.0000000000000E+00  0.0000000000000E+00  0.0000000000000E+00  0.0000000000000E+00  0.0000000000000E+00  0.0000000000000E+00  0.0000000000000E+00  0.0000000000000E+00 
 0.0000000000000E+00  0.0000000000000E+00  0.0000000000000E+00  0.0000000000000E+00  0.0000000000000E+00  0.0000000000000E+00  0.0000000000000E+00  0.0000000000000E+00  0.0000000000000E+00  0.0000000000000E+00 
 0.0000000000000E+00  0.0000000000000E+00  0.0000000000000E+00  0.0000000000000E+00  0.0000000000000E+00  0.0000000000000E+00  0.0000000000000E+00  0.0000000000000E+00  0.0000000000000E+00  0.0000000000000E+00 
 0.0000000000000E+00  0.0000000000000E+00  0.0000000000000E+00  0.0000000000000E+00  0.0000000000000E+00  0.0000000000000E+00  0.0000000000000E+00  0.0000000000000E+00  0.0000000000000E+00  0.0000000000000E+00 
ZONE T = "ANOD, 1.0000E-08", I = 10, SOLUTIONTIME = 1.000000E-08
ZONETYPE = ORDERED
DATAPACKING = BLOCK
STRANDID = 1
 0.0000000000000E+00  8.7488888888889E-05  1.7497777777778E-04  2.6246666666667E-04  3.4995555555556E-04  4.3744444444444E-04  5.2493333333333E-04  6.1242222222222E-04  6.9991111111111E-04  7.8740000000000E-04 
 1.1699591082827E-09  3.4871577926278E-09  5.8040779347699E-09  8.1210095027469E-09  1.0437962554518E-08  1.2754943513377E-08  1.5071958870307E-08  1.7388651860190E-08  1.9705392076622E-08  2.0864697279187E-08 
 9.1999999999930E-01  9.1999999999930E-01  9.1999999999930E-01  9.1999999999930E-01  9.1999999999930E-01  9.1999999999930E-01  9.1999999999930E-01  9.1999999999930E-01  9.1999999999930E-01  9.1999999999971E-01 
 4.0000000000352E-02  4.0000000000348E-02  4.0000000000348E-02  4.0000000000348E-02  4.0000000000348E-02  4.0000000000348E-02  4.0000000000348E-02  4.0000000000348E-02  4.0000000000348E-02  4.0000000000144E-02 
 4.0000000000352E-02  4.0000000000348E-02  4.0000000000348E-02  4.0000000000348E-02  4.0000000000348E-02  4.0000000000348E-02  4.0000000000348E-02  4.0000000000348E-02  4.0000000000348E-02  4.0000000000144E-02 
 2.9165201214859E-02  2.9165185337634E-02  2.9165138018096E-02  2.9165059258814E-02  2.9164949059593E-02  2.9164807420142E-02  2.9164634340084E-02  2.9164429818944E-02  2.9164193856165E-02  2.9163926451133E-02 
 0.0000000000000E+00 -4.7349957169411E-09 -8.9128920832549E-09 -1.2533756065877E-08 -1.5597584917817E-08 -1.8104373473954E-08 -2.0054115024883E-08 -2.1446801300642E-08 -2.2282422482349E-08 -2.2560967215828E-08 
 2.9819800356398E+02  2.9815060799048E+02  2.9815000623889E+02  2.9814999855523E+02  2.9814999847563E+02  2.9814999839134E+02  2.9814999843688E+02  2.9814999851155E+02  2.9814999850154E+02  2.9814999953914E+02 
-2.9165201214859E-02 -2.9165190072630E-02 -2.9165146930988E-02 -2.9165071792570E-02 -2.9164964657178E-02 -2.9164825524516E-02 -2.9164654394199E-02 -2.9164451265745E-02 -2.9164216138588E-02 -2.9163949012100E-02 
-4.0932701153396E-02 -4.0899603853256E-02 -4.0899183650151E-02 -4.0899178284650E-02 -4.0899178229077E-02 -4.0899178170213E-02 -4.0899178202015E-02 -4.0899178254162E-02 -4.0899178247164E-02 -4.0899178971858E-02 
 1.1767499938537E-02  1.1734413780626E-02  1.1734036719163E-02  1.1734106492080E-02  1.1734213571899E-02  1.1734352645697E-02  1.1734523807816E-02  1.1734726988417E-02  1.1734962108576E-02  1.1735229959758E-02 
 1.6848429346775E+00  3.3369677711978E+00  3.3365666460194E+00  3.3365831006875E+00  3.3366140375423E+00  3.3366542271872E+00  3.3367037622225E+00  3.3367625735910E+00  3.3368305832473E+00  1.6684542848498E+00 
 8.7310393897420E-09  2.6023562449875E-08  4.3314015237254E-08  6.0604548755418E-08  7.7895242766707E-08  9.5186143973298E-08  1.1247730583277E-07  1.2976877406717E-07  1.4706065270696E-07  1.4706065270696E-07 
 0.0000000000000E+00  3.3533093339071E+00  6.6900595109773E+00  1.0026617611815E+01  1.3363198984961E+01  1.6699815834498E+01  2.0036477825329E+01  2.3373194525592E+01  2.6709973429520E+01  3.0046833487823E+01 
 3.0046834559818E+01  2.6693516291537E+01  2.3356766185830E+01  2.0020208414566E+01  1.6683626947059E+01  1.3347009916142E+01  1.0010348023018E+01  6.6736319550150E+00  3.3368524751197E+00  0.0000000000000E+00 
 1.6848429346775E-08  3.3369677711978E-08  3.3365666460194E-08  3.3365831006875E-08  3.3366140375423E-08  3.3366542271872E-08  3.3367037622225E-08  3.3367625735910E-08  3.3368305832473E-08  1.6684542848498E-08 
 4.5724222271657E+04  9.1448444543315E+04  9.1448444543315E+04  9.1448444543315E+04  9.1448444543315E+04  9.1448444543315E+04  9.1448444543315E+04  9.1448444543315E+04  9.1448444543315E+04  4.5724222271657E+04 
 3.3835924481012E+05  6.7671848962025E+05  6.7671848962025E+05  6.7671848962025E+05  6.7671848962025E+05  6.7671848962025E+05  6.7671848962025E+05  6.7671848962025E+05  6.7671848962025E+05  3.3835924481012E+05 
 3.8408346708178E+05  7.6816693416356E+05  7.6816693416356E+05  7.6816693416356E+05  7.6816693416356E+05  7.6816693416356E+05  7.6816693416356E+05  7.6816693416356E+05  7.6816693416356E+05  3.8408346708178E+05 
 3.5000000000000E-01  3.5000000000000E-01  3.5000000000000E-01  3.5000000000000E-01  3.5000000000000E-01  3.5000000000000E-01  3.5000000000000E-01  3.5000000000000E-01  3.5000000000000E-01  3.5000000000000E-01 
 8.5301666666667E+00  1.7060333333333E+01  1.7060333333333E+01  1.7060333333333E+01  1.7060333333333E+01  1.7060333333333E+01  1.7060333333333E+01  1.7060333333333E+01  1.7060333333333E+01  8.5301666666667E+00 
 1.9751582829692E-01  1.9559804055398E-01  1.9557452840035E-01  1.9557549289898E-01  1.9557730627824E-01  1.9557966201445E-01  1.9558256553540E-01  1.9558601279328E-01  1.9558999921342E-01  1.9559457042845E-01 
 4.3744444444444E-05  8.7488888888889E-05  8.7488888888889E-05  8.7488888888889E-05  8.7488888888889E-05  8.7488888888889E-05  8.7488888888889E-05  8.7488888888889E-05  8.7488888888889E-05  4.3744444444444E-05 
 8.6666666666663E+01  8.6666666666663E+01  8.6666666666663E+01  8.6666666666663E+01  8.6666666666663E+01  8.6666666666663E+01  8.6666666666663E+01  8.6666666666663E+01  8.6666666666663E+01  8.6666666666663E+01 
 2.1666666666671E+01  2.1666666666671E+01  2.1666666666671E+01  2.1666666666671E+01  2.1666666666671E+01  2.1666666666671E+01  2.1666666666671E+01  2.1666666666671E+01  2.1666666666671E+01  2.1666666666671E+01 
-7.5673990605763E-05 -7.4934602137904E-05 -7.4925486576186E-05 -7.4925769365629E-05 -7.4926341496146E-05 -7.4927084794690E-05 -7.4928001351548E-05 -7.4929089603439E-05 -7.4930347783576E-05 -7.4931901466966E-05 
-7.5673990605763E+03 -7.4934602137904E+03 -7.4925486576186E+03 -7.4925769365629E+03 -7.4926341496146E+03 -7.4927084794690E+03 -7.4928001351548E+03 -7.4929089603439E+03 -7.4930347783576E+03 -7.4931901466966E+03 
 3.0575874706625E-04  1.5109290609849E-03  5.1202213678447E-03  1.1127500804742E-02  1.9532891591488E-02  3.0336485355880E-02  4.3538400497926E-02  5.9138782257099E-02  7.7137791307648E-02  8.6736973319470E-02 
 1.5349824483371E-03  1.3650072574204E-03  1.0463220381899E-03  7.7014485887965E-04  5.3645333347791E-04  3.4524774606712E-04  1.9652910030506E-04  9.0298872635751E-05  2.6559014825092E-05  5.3119519270881E-06 
-7.5674009013175E+03 -7.4934630897267E+03 -7.4925548241620E+03 -7.4925888342085E+03 -7.4926542189595E+03 -7.4927391612021E+03 -7.4928438700844E+03 -7.4929681894250E+03 -7.4931119427080E+03 -7.4932768889819E+03 
 4.5323216199079E+02  4.4756952680384E+02  4.4750134603714E+02  4.4750621388747E+02  4.4751444693722E+02  4.4752514126725E+02  4.4753831298396E+02  4.4755395027055E+02  4.4757203977777E+02  4.4759271626084E+02 
-8.0206330633083E+03 -7.9410326165306E+03 -7.9400561701991E+03 -7.9400950480960E+03 -7.9401686658967E+03 -7.9402643024693E+03 -7.9403821830684E+03 -7.9405221396956E+03 -7.9406839824857E+03 -7.9408696052427E+03 
ZONE T = "ANOD, 2.0000E-08", I = 10, SOLUTIONTIME = 2.000000E-08
ZONETYPE = ORDERED
DATAPACKING = BLOCK
STRANDID = 1
 0.0000000000000E+00  8.7488888888889E-05  1.7497777777778E-04  2.6246666666667E-04  3.4995555555556E-04  4.3744444444444E-04  5.2493333333333E-04  6.1242222222222E-04  6.9991111111111E-04  7.8740000000000E-04 
 1.1808678946658E-09  3.4975624694621E-09  5.8134234052617E-09  8.1292852724085E-09  1.0445168504365E-08  1.2761079619067E-08  1.5077025192137E-08  1.7393011568294E-08  1.9709045223177E-08  2.0867089358331E-08 
 9.1999999999859E-01  9.1999999999861E-01  9.1999999999861E-01  9.1999999999861E-01  9.1999999999861E-01  9.1999999999861E-01  9.1999999999861E-01  9.1999999999861E-01  9.1999999999861E-01  9.1999999999942E-01 
 4.0000000000706E-02  4.0000000000696E-02  4.0000000000696E-02  4.0000000000696E-02  4.0000000000696E-02  4.0000000000696E-02  4.0000000000696E-02  4.0000000000696E-02  4.0000000000696E-02  4.0000000000288E-02 
 4.0000000000706E-02  4.0000000000696E-02  4.0000000000696E-02  4.0000000000696E-02  4.0000000000696E-02  4.0000000000696E-02  4.0000000000696E-02  4.0000000000696E-02  4.0000000000696E-02  4.0000000000288E-02 
 2.9170583494076E-02  2.9170567469991E-02  2.9170520011628E-02  2.9170441127994E-02  2.9170330818939E-02  2.9170189084171E-02  2.9170015923309E-02  2.9169811335888E-02  2.9169575321353E-02  2.9169307879061E-02 
 0.0000000000000E+00 -4.7329481359556E-09 -8.9089181189630E-09 -1.2528110371950E-08 -1.5590524671002E-08 -1.8096155879606E-08 -2.0044997294212E-08 -2.1437040630361E-08 -2.2272276078203E-08 -2.2550692271018E-08 
 2.9824461141144E+02  2.9815179243927E+02  2.9815002721625E+02  2.9814999748068E+02  2.9814999710808E+02  2.9814999693175E+02  2.9814999707235E+02  2.9814999704571E+02  2.9814999712590E+02  2.9814999911726E+02 
-2.9170583494076E-02 -2.9170572202939E-02 -2.9170528920546E-02 -2.9170453656104E-02 -2.9170346409464E-02 -2.9170207180327E-02 -2.9170035968307E-02 -2.9169832772929E-02 -2.9169597593629E-02 -2.9169330429753E-02 
-4.0965250243097E-02 -4.0900430954392E-02 -4.0899198298342E-02 -4.0899177533998E-02 -4.0899177273817E-02 -4.0899177150688E-02 -4.0899177248869E-02 -4.0899177230263E-02 -4.0899177286257E-02 -4.0899178677085E-02 
 1.1794666749022E-02  1.1729858751453E-02  1.1728669377796E-02  1.1728723877895E-02  1.1728830864353E-02  1.1728969970361E-02  1.1729141280563E-02  1.1729344457334E-02  1.1729579692628E-02  1.1729848247332E-02 
 1.7002822991253E+00  3.3362247093449E+00  3.3350242027768E+00  3.3350255439759E+00  3.3350563109818E+00  3.3350964643644E+00  3.3351460871604E+00  3.3352048468619E+00  3.3352729319726E+00  1.6676757912697E+00 
 8.8110952991061E-09  2.6099857269488E-08  4.3382401502415E-08  6.0664952739664E-08  7.7947663439020E-08  9.5230582201545E-08  1.1251375811467E-07  1.2979723853756E-07  1.4708121591773E-07  1.4708121591773E-07 
 0.0000000000000E+00  3.3683946534498E+00  6.7040191095330E+00  1.0039043982797E+01  1.3374084910346E+01  1.6709161298108E+01  2.0044282573851E+01  2.3379458040714E+01  2.6714696930055E+01  3.0050009187307E+01 
 3.0050009187772E+01  2.6681614533996E+01  2.3345990077970E+01  2.0010965204614E+01  1.6675924277136E+01  1.3340847889458E+01  1.0005726613695E+01  6.6705511466879E+00  3.3353122572676E+00  0.0000000000000E+00 
 3.3851252338028E-08  6.6731924805427E-08  6.6715908487962E-08  6.6716086446634E-08  6.6716703485241E-08  6.6717506915516E-08  6.6718498493829E-08  6.6719674204530E-08  6.6721035152199E-08  3.3361300761195E-08 
 4.5724222271674E+04  9.1448444543348E+04  9.1448444543348E+04  9.1448444543348E+04  9.1448444543348E+04  9.1448444543348E+04  9.1448444543348E+04  9.1448444543348E+04  9.1448444543348E+04  4.5724222271674E+04 
 3.3835924481011E+05  6.7671848962021E+05  6.7671848962021E+05  6.7671848962021E+05  6.7671848962021E+05  6.7671848962021E+05  6.7671848962021E+05  6.7671848962021E+05  6.7671848962021E+05  3.3835924481011E+05 
 3.8408346708178E+05  7.6816693416356E+05  7.6816693416356E+05  7.6816693416356E+05  7.6816693416356E+05  7.6816693416356E+05  7.6816693416356E+05  7.6816693416356E+05  7.6816693416356E+05  3.8408346708178E+05 
 3.5000000000000E-01  3.5000000000000E-01  3.5000000000000E-01  3.5000000000000E-01  3.5000000000000E-01  3.5000000000000E-01  3.5000000000000E-01  3.5000000000000E-01  3.5000000000000E-01  3.5000000000000E-01 
 8.5301666666667E+00  1.7060333333333E+01  1.7060333333333E+01  1.7060333333333E+01  1.7060333333333E+01  1.7060333333333E+01  1.7060333333333E+01  1.7060333333333E+01  1.7060333333333E+01  8.5301666666667E+00 
 1.9932580048752E-01  1.9555448561057E-01  1.9548411731561E-01  1.9548419593067E-01  1.9548599935416E-01  1.9548835296483E-01  1.9549126162992E-01  1.9549470585932E-01  1.9549869670225E-01  1.9550330684470E-01 
 4.3744444444444E-05  8.7488888888889E-05  8.7488888888889E-05  8.7488888888889E-05  8.7488888888889E-05  8.7488888888889E-05  8.7488888888889E-05  8.7488888888889E-05  8.7488888888889E-05  4.3744444444444E-05 
 8.6666666666659E+01  8.6666666666659E+01  8.6666666666659E+01  8.6666666666659E+01  8.6666666666659E+01  8.6666666666659E+01  8.6666666666659E+01  8.6666666666659E+01  8.6666666666659E+01  8.6666666666659E+01 
 2.1666666666675E+01  2.1666666666675E+01  2.1666666666675E+01  2.1666666666675E+01  2.1666666666675E+01  2.1666666666675E+01  2.1666666666675E+01  2.1666666666675E+01  2.1666666666675E+01  2.1666666666675E+01 
-1.5204814977574E-04 -1.4985468570932E-04 -1.4981838966256E-04 -1.4981861360650E-04 -1.4981975397343E-04 -1.4982123973541E-04 -1.4982307485694E-04 -1.4982525025798E-04 -1.4982776842829E-04 -1.4983089090979E-04 
-7.6374159169980E+03 -7.4920083571415E+03 -7.4892903086376E+03 -7.4892844240868E+03 -7.4893412477287E+03 -7.4894154940716E+03 -7.4895073505391E+03 -7.4896160654536E+03 -7.4897420644712E+03 -7.4898989442826E+03 
 6.1717506340654E-04  3.0326642852088E-03  1.0260309416164E-02  2.2281580107477E-02  3.9096854487866E-02  6.0706321237791E-02  8.7110215726816E-02  1.1830882672388E-01  1.5430248499839E-01  1.7349811961316E-01 
 3.0686376214286E-03  2.7287999877543E-03  2.0916788608864E-03  1.5395787394727E-03  1.0724114301469E-03  6.9017677818302E-04  3.9287678151690E-04  1.8051439274893E-04  5.3093516068766E-05  1.0619002348619E-05 
-7.6374177620695E+03 -7.4920112426695E+03 -7.4892964940825E+03 -7.4892963476000E+03 -7.4893613476497E+03 -7.4894462088365E+03 -7.4895511187020E+03 -7.4896753257136E+03 -7.4898192556994E+03 -7.4899857107359E+03 
 4.5844137129915E+02  4.4729616642141E+02  4.4708987322653E+02  4.4709213053832E+02  4.4710033344945E+02  4.4711101919710E+02  4.4712420222921E+02  4.4713982520730E+02  4.4715792084945E+02  4.4717870362580E+02 
-8.0958591333686E+03 -7.9393074090909E+03 -7.9363863673090E+03 -7.9363884781383E+03 -7.9364616810991E+03 -7.9365572280336E+03 -7.9366753209313E+03 -7.9368151509209E+03 -7.9369771765488E+03 -7.9371644143617E+03 
ZONE T = "ANOD, 3.0000E-08", I = 10, SOLUTIONTIME = 3.000000E-08
ZONETYPE = ORDERED
DATAPACKING = BLOCK
STRANDID = 1
 0.0000000000000E+00  8.7488888888889E-05  1.7497777777778E-04  2.6246666666667E-04  3.4995555555556E-04  4.3744444444444E-04  5.2493333333333E-04  6.1242222222222E-04  6.9991111111111E-04  7.8740000000000E-04 
 1.1911678064131E-09  3.5076039690328E-09  5.8224016887740E-09  8.1371798236576E-09  1.0451978869113E-08  1.2766805829611E-08  1.5082756953684E-08  1.7397659233165E-08  1.9712608820461E-08  2.0870111163751E-08 
 9.1999999999787E-01  9.1999999999791E-01  9.1999999999791E-01  9.1999999999791E-01  9.1999999999791E-01  9.1999999999791E-01  9.1999999999791E-01  9.1999999999791E-01  9.1999999999791E-01  9.1999999999914E-01 
 4.0000000001064E-02  4.0000000001044E-02  4.0000000001044E-02  4.0000000001044E-02  4.0000000001044E-02  4.0000000001044E-02  4.0000000001044E-02  4.0000000001044E-02  4.0000000001044E-02  4.0000000000432E-02 
 4.0000000001064E-02  4.0000000001044E-02  4.0000000001044E-02  4.0000000001044E-02  4.0000000001044E-02  4.0000000001044E-02  4.0000000001044E-02  4.0000000001044E-02  4.0000000001044E-02  4.0000000000432E-02 
 2.9175977726875E-02  2.9175961559263E-02  2.9175913962034E-02  2.9175834954098E-02  2.9175724535454E-02  2.9175582705807E-02  2.9175409464780E-02  2.9175204811903E-02  2.9174968746623E-02  2.9174701268297E-02 
 0.0000000000000E+00 -4.7309363720492E-09 -8.9049567184321E-09 -1.2522454952485E-08 -1.5583435782785E-08 -1.8087894182028E-08 -2.0035823438897E-08 -2.1427215249215E-08 -2.2262059809020E-08 -2.2540345744599E-08 
 2.9828987865361E+02  2.9815352213802E+02  2.9815006968204E+02  2.9814999686843E+02  2.9814999549766E+02  2.9814999534985E+02  2.9814999563008E+02  2.9814999552628E+02  2.9814999564833E+02  2.9814999864217E+02 
-2.9175977726875E-02 -2.9175966290200E-02 -2.9175922866991E-02 -2.9175847476553E-02 -2.9175740118889E-02 -2.9175600793701E-02 -2.9175429500603E-02 -2.9175226239118E-02 -2.9174991008683E-02 -2.9174723808643E-02 
-4.0996864886445E-02 -4.0901638806121E-02 -4.0899227951889E-02 -4.0899177106161E-02 -4.0899176148960E-02 -4.0899176045748E-02 -4.0899176241425E-02 -4.0899176168945E-02 -4.0899176254167E-02 -4.0899178345159E-02 
 1.1820887159570E-02  1.1725672515921E-02  1.1723305084898E-02  1.1723329629608E-02  1.1723436030071E-02  1.1723575252046E-02  1.1723746740821E-02  1.1723949929827E-02  1.1724185245484E-02  1.1724454536516E-02 
 1.7153765161520E+00  3.3358525752021E+00  3.3334930869675E+00  3.3334648831973E+00  3.3334949960889E+00  3.3335351959263E+00  3.3335849368663E+00  3.3336436613074E+00  3.3337117883230E+00  1.6668955678354E+00 
 8.8893190630486E-09  2.6176149168818E-08  4.3450758873209E-08  6.0725222555914E-08  7.7999842305932E-08  9.5274670365530E-08  1.1254975618955E-07  1.2982514634154E-07  1.4710110568230E-07  1.4710110568230E-07 
 0.0000000000000E+00  3.3833028037812E+00  6.7179756347426E+00  1.0051454619847E+01  1.3384934559441E+01  1.6718449655409E+01  2.0052009721923E+01  2.3385624021089E+01  2.6719301745959E+01  3.0053053207967E+01 
 3.0053053207824E+01  2.6669750404079E+01  2.3335077573015E+01  2.0001598587952E+01  1.6668118648321E+01  1.3334603552302E+01  1.0001043485885E+01  6.6674291867999E+00  3.3337514619946E+00  0.0000000000000E+00 
 5.1005017499548E-08  1.0009045055745E-07  1.0005083935764E-07  1.0005073527861E-07  1.0005165344613E-07  1.0005285887478E-07  1.0005434786249E-07  1.0005611081760E-07  1.0005815303543E-07  5.0030256439549E-08 
 4.5724222271692E+04  9.1448444543381E+04  9.1448444543381E+04  9.1448444543381E+04  9.1448444543381E+04  9.1448444543381E+04  9.1448444543381E+04  9.1448444543381E+04  9.1448444543381E+04  4.5724222271691E+04 
 3.3835924481009E+05  6.7671848962018E+05  6.7671848962018E+05  6.7671848962018E+05  6.7671848962018E+05  6.7671848962018E+05  6.7671848962018E+05  6.7671848962018E+05  6.7671848962018E+05  3.3835924481009E+05 
 3.8408346708178E+05  7.6816693416356E+05  7.6816693416356E+05  7.6816693416356E+05  7.6816693416356E+05  7.6816693416356E+05  7.6816693416356E+05  7.6816693416356E+05  7.6816693416356E+05  3.8408346708178E+05 
 3.5000000000000E-01  3.5000000000000E-01  3.5000000000000E-01  3.5000000000000E-01  3.5000000000000E-01  3.5000000000000E-01  3.5000000000000E-01  3.5000000000000E-01  3.5000000000000E-01  3.5000000000000E-01 
 8.5301666666667E+00  1.7060333333333E+01  1.7060333333333E+01  1.7060333333333E+01  1.7060333333333E+01  1.7060333333333E+01  1.7060333333333E+01  1.7060333333333E+01  1.7060333333333E+01  8.5301666666667E+00 
 2.0109531069952E-01  1.9553267278103E-01  1.9539437019406E-01  1.9539271701592E-01  1.9539448209817E-01  1.9539683843182E-01  1.9539975402198E-01  1.9540319618456E-01  1.9540718948377E-01  1.9541184046838E-01 
 4.3744444444444E-05  8.7488888888889E-05  8.7488888888889E-05  8.7488888888889E-05  8.7488888888889E-05  8.7488888888889E-05  8.7488888888889E-05  8.7488888888889E-05  8.7488888888889E-05  4.3744444444444E-05 
 8.6666666666655E+01  8.6666666666655E+01  8.6666666666655E+01  8.6666666666655E+01  8.6666666666655E+01  8.6666666666655E+01  8.6666666666655E+01  8.6666666666655E+01  8.6666666666655E+01  8.6666666666655E+01 
 2.1666666666679E+01  2.1666666666679E+01  2.1666666666679E+01  2.1666666666679E+01  2.1666666666679E+01  2.1666666666679E+01  2.1666666666679E+01  2.1666666666679E+01  2.1666666666679E+01  2.1666666666679E+01 
-2.2910696528563E-04 -2.2476863737013E-04 -2.2467896838626E-04 -2.2467846569896E-04 -2.2468015946522E-04 -2.2468238872614E-04 -2.2468514510866E-04 -2.2468840692892E-04 -2.2469218614395E-04 -2.2469689327913E-04 
-7.7058815509888E+03 -7.4913951660809E+03 -7.4860578723700E+03 -7.4859852092463E+03 -7.4860405491790E+03 -7.4861148990739E+03 -7.4862070251721E+03 -7.4863156670949E+03 -7.4864417715665E+03 -7.4866002369340E+03 
 9.3417008267026E-04  4.5651906127885E-03  1.5420302379153E-02  3.3462233727449E-02  5.8691806017865E-02  9.1109317167180E-02  1.3071512013288E-01  1.7750964709060E-01  2.3149339884824E-01  2.6028264764290E-01 
 4.6009892955968E-03  4.0913836880782E-03  3.1360587479440E-03  2.3082924855417E-03  1.6078679033489E-03  1.0347829891148E-03  5.8904070625353E-04  2.7064548629753E-04  7.9603187745504E-05  1.5921088116304E-05 
-7.7058834003355E+03 -7.4913980611910E+03 -7.4860640767428E+03 -7.4859971586136E+03 -7.4860606795871E+03 -7.4861456466760E+03 -7.4862508262405E+03 -7.4863749580463E+03 -7.4865189889900E+03 -7.4866870267641E+03 
 4.6353937034807E+02  4.4708665701118E+02  4.4668022367153E+02  4.4667737962496E+02  4.4668546875234E+02  4.4669616018514E+02  4.4670935973613E+02  4.4672497120671E+02  4.4674306713091E+02  4.4676396169987E+02 
-8.1694227706835E+03 -7.9384847182022E+03 -7.9327443004144E+03 -7.9326745382386E+03 -7.9327461483394E+03 -7.9328418068612E+03 -7.9329601859766E+03 -7.9330999292531E+03 -7.9332620561209E+03 -7.9334509884639E+03 
ZONE T = "ANOD, 4.0000E-08", I = 10, SOLUTIONTIME = 4.000000E-08
ZONETYPE = ORDERED
DATAPACKING = BLOCK
STRANDID = 1
 0.0000000000000E+00  8.7488888888889E-05  1.7497777777778E-04  2.6246666666667E-04  3.4995555555556E-04  4.3744444444444E-04  5.2493333333333E-04  6.1242222222222E-04  6.9991111111111E-04  7.8740000000000E-04 
 1.2014154411645E-09  3.5178364714853E-09  5.8315816958695E-09  8.1452741563956E-09  1.0458986812508E-08  1.2772727321930E-08  1.5085412708539E-08  1.7399228553757E-08  1.9713091733478E-08  2.0870777539961E-08 
 9.1999999999715E-01  9.1999999999722E-01  9.1999999999722E-01  9.1999999999722E-01  9.1999999999722E-01  9.1999999999722E-01  9.1999999999722E-01  9.1999999999722E-01  9.1999999999722E-01  9.1999999999885E-01 
 4.0000000001425E-02  4.0000000001392E-02  4.0000000001391E-02  4.0000000001391E-02  4.0000000001391E-02  4.0000000001391E-02  4.0000000001391E-02  4.0000000001391E-02  4.0000000001391E-02  4.0000000000576E-02 
 4.0000000001425E-02  4.0000000001392E-02  4.0000000001391E-02  4.0000000001391E-02  4.0000000001391E-02  4.0000000001391E-02  4.0000000001391E-02  4.0000000001391E-02  4.0000000001391E-02  4.0000000000576E-02 
 2.9181383865616E-02  2.9181367557650E-02  2.9181319821383E-02  2.9181240688868E-02  2.9181130160387E-02  2.9180988235646E-02  2.9180814914267E-02  2.9180610195782E-02  2.9180374079636E-02  2.9180106565187E-02 
 0.0000000000000E+00 -4.7289821409404E-09 -8.9010518943116E-09 -1.2516852575579E-08 -1.5576396870194E-08 -1.8079679922747E-08 -2.0026695036764E-08 -2.1417433917689E-08 -2.2251886747897E-08 -2.2530042147258E-08 