TITLE = "Solution on Domain BulkDomain1D_1"
VARIABLES = "x [m]"  
"Vel_axial" 	"MF_sp(ECDMC)" 	"MF_sp(Li+)" 	"MF_sp(PF6-)" 	"Volt(Electroly)" 	"Temperature" 	"qHeat_accum [J/m3]" 	"qHeat_step [W/m3]" 	"Joule_Lyte [W/m3]" 	"Joule_Solid [W/m3]" 	
ZONE T = "t = 0 [s]" I = 10 SOLUTIONTIME = 0.0000000000000E+00
0.0007874 	0 	0.92 	0.04 	0.04 	-0.07 	0 	
0 	0.0 	 0.0 	 0.0 	 
0.000841022 	0 	0.92 	0.04 	0.04 	-0.07 	298.15 	
0 	0.0 	 0.0 	 0.0 	 
0.000894644 	0 	0.92 	0.04 	0.04 	-0.07 	298.15 	
0 	0.0 	 0.0 	 0.0 	 
0.000948267 	0 	0.92 	0.04 	0.04 	-0.07 	298.15 	
0 	0.0 	 0.0 	 0.0 	 
0.00100189 	0 	0.92 	0.04 	0.04 	-0.07 	298.15 	
0 	0.0 	 0.0 	 0.0 	 
0.00105551 	0 	0.92 	0.04 	0.04 	-0.07 	298.15 	
0 	0.0 	 0.0 	 0.0 	 
0.00110913 	0 	0.92 	0.04 	0.04 	-0.07 	298.15 	
0 	0.0 	 0.0 	 0.0 	 
0.00116276 	0 	0.92 	0.04 	0.04 	-0.07 	298.15 	
0 	0.0 	 0.0 	 0.0 	 
0.00121638 	0 	0.92 	0.04 	0.04 	-0.07 	298.15 	
0 	0.0 	 0.0 	 0.0 	 
0.00127 	0 	0.92 	0.04 	0.04 	-0.07 	3.8 	
0 	0.0 	 0.0 	 0.0 	 
ZONE T = "t = 1e-08 [s]" I = 10 SOLUTIONTIME = 1.0000000000000E-08
0.0007874 	3.18996e-08 	0.92 	0.04 	0.04 	0.0413402 	-2.93398e-08 	
6.57699e-10 	0.0657699 	0.0657699 	0 	
0.000841022 	3.18996e-08 	0.92 	0.04 	0.04 	0.0413401 	303.906 	
6.57491e-10 	0.0657491 	0.0657491 	0 	
0.000894644 	3.18996e-08 	0.92 	0.04 	0.04 	0.0413401 	303.686 	
6.57076e-10 	0.0657076 	0.0657076 	0 	
0.000948267 	3.18996e-08 	0.92 	0.04 	0.04 	0.04134 	303.465 	
6.5666e-10 	0.065666 	0.065666 	0 	
0.00100189 	3.18996e-08 	0.92 	0.04 	0.04 	0.0413399 	303.245 	
6.56245e-10 	0.0656245 	0.0656245 	0 	
0.00105551 	3.18996e-08 	0.92 	0.04 	0.04 	0.0413398 	303.025 	
6.55829e-10 	0.0655829 	0.0655829 	0 	
0.00110913 	3.18996e-08 	0.92 	0.04 	0.04 	0.0413397 	302.804 	
6.55413e-10 	0.0655413 	0.0655413 	0 	
0.00116276 	3.18996e-08 	0.92 	0.04 	0.04 	0.0413397 	302.584 	
6.54998e-10 	0.0654998 	0.0654998 	0 	
0.00121638 	3.18996e-08 	0.92 	0.04 	0.04 	0.0413396 	302.364 	
6.54582e-10 	0.0654582 	0.0654582 	0 	
0.00127 	2.80179e-08 	0.92 	0.04 	0.04 	0.0413395 	3.80028 	
6.54374e-10 	0.0654374 	0.0654374 	0 	
ZONE T = "t = 2e-08 [s]" I = 10 SOLUTIONTIME = 2.0000000000000E-08
0.0007874 	3.20245e-08 	0.92 	0.04 	0.04 	0.0401928 	-2.9823e-08 	
1.32225e-09 	0.066455 	0.066455 	0 	
0.000841022 	3.20245e-08 	0.92 	0.04 	0.04 	0.0401927 	303.906 	
1.3218e-09 	0.0664309 	0.0664309 	0 	
0.000894644 	3.20245e-08 	0.92 	0.04 	0.04 	0.0401927 	303.686 	
1.3209e-09 	0.0663828 	0.0663828 	0 	
0.000948267 	3.20245e-08 	0.92 	0.04 	0.04 	0.0401926 	303.465 	
1.32001e-09 	0.0663346 	0.0663346 	0 	
0.00100189 	3.20245e-08 	0.92 	0.04 	0.04 	0.0401925 	303.245 	
1.31911e-09 	0.0662865 	0.0662865 	0 	
0.00105551 	3.20245e-08 	0.92 	0.04 	0.04 	0.0401924 	303.025 	
1.31821e-09 	0.0662383 	0.0662383 	0 	
0.00110913 	3.20245e-08 	0.92 	0.04 	0.04 	0.0401923 	302.804 	
1.31732e-09 	0.0661902 	0.0661902 	0 	
0.00116276 	3.20245e-08 	0.92 	0.04 	0.04 	0.0401923 	302.584 	
1.31642e-09 	0.066142 	0.066142 	0 	
0.00121638 	3.20245e-08 	0.92 	0.04 	0.04 	0.0401922 	302.364 	
1.31552e-09 	0.0660939 	0.0660939 	0 	
0.00127 	2.81188e-08 	0.92 	0.04 	0.04 	0.0401921 	3.80028 	
1.31507e-09 	0.0660698 	0.0660698 	0 	
ZONE T = "t = 3e-08 [s]" I = 10 SOLUTIONTIME = 3.0000000000000E-08
0.0007874 	3.20267e-08 	0.92 	0.04 	0.04 	0.0401928 	-2.9823e-08 	
1.9868e-09 	0.066455 	0.066455 	0 	
0.000841022 	3.20267e-08 	0.92 	0.04 	0.04 	0.0401927 	303.906 	
1.98611e-09 	0.0664309 	0.0664309 	0 	
0.000894644 	3.20267e-08 	0.92 	0.04 	0.04 	0.0401927 	303.686 	
1.98473e-09 	0.0663828 	0.0663828 	0 	
0.000948267 	3.20267e-08 	0.92 	0.04 	0.04 	0.0401926 	303.465 	
1.98335e-09 	0.0663346 	0.0663346 	0 	
0.00100189 	3.20267e-08 	0.92 	0.04 	0.04 	0.0401925 	303.245 	
1.98197e-09 	0.0662865 	0.0662865 	0 	
0.00105551 	3.20267e-08 	0.92 	0.04 	0.04 	0.0401924 	303.025 	
1.9806e-09 	0.0662383 	0.0662383 	0 	
0.00110913 	3.20267e-08 	0.92 	0.04 	0.04 	0.0401923 	302.804 	
1.97922e-09 	0.0661902 	0.0661902 	0 	
0.00116276 	3.20267e-08 	0.92 	0.04 	0.04 	0.0401923 	302.584 	
1.97784e-09 	0.066142 	0.066142 	0 	
0.00121638 	3.20267e-08 	0.92 	0.04 	0.04 	0.0401922 	302.364 	
1.97646e-09 	0.0660939 	0.0660939 	0 	
0.00127 	2.8121e-08 	0.92 	0.04 	0.04 	0.0401921 	3.80028 	
1.97577e-09 	0.0660698 	0.0660698 	0 	
ZONE T = "t = 4e-08 [s]" I = 10 SOLUTIONTIME = 4.0000000000000E-08
0.0007874 	3.20249e-08 	0.92 	0.04 	0.04 	0.0401928 	-2.9823e-08 	
2.65135e-09 	0.066455 	0.066455 	0 	
0.000841022 	3.20249e-08 	0.92 	0.04 	0.04 	0.0401927 	303.906 	
2.65042e-09 	0.0664309 	0.0664309 	0 	
0.000894644 	3.20249e-08 	0.92 	0.04 	0.04 	0.0401927 	303.686 	
2.64856e-09 	0.0663828 	0.0663828 	0 	
0.000948267 	3.20249e-08 	0.92 	0.04 	0.04 	0.0401926 	303.465 	
2.6467e-09 	0.0663346 	0.0663346 	0 	
0.00100189 	3.20249e-08 	0.92 	0.04 	0.04 	0.0401925 	303.245 	
2.64484e-09 	0.0662865 	0.0662865 	0 	
0.00105551 	3.20249e-08 	0.92 	0.04 	0.04 	0.0401924 	303.025 	
2.64298e-09 	0.0662383 	0.0662383 	0 	
0.00110913 	3.20249e-08 	0.92 	0.04 	0.04 	0.0401923 	302.804 	
2.64112e-09 	0.0661902 	0.0661902 	0 	
0.00116276 	3.20249e-08 	0.92 	0.04 	0.04 	0.0401923 	302.584 	
2.63926e-09 	0.066142 	0.066142 	0 	
0.00121638 	3.20249e-08 	0.92 	0.04 	0.04 	0.0401922 	302.364 	
2.6374e-09 	0.0660939 	0.0660939 	0 	
0.00127 	2.81192e-08 	0.92 	0.04 	0.04 	0.0401921 	3.80028 	
2.63647e-09 	0.0660698 	0.0660698 	0 	
ZONE T = "t = 5.5e-08 [s]" I = 10 SOLUTIONTIME = 5.5000000000000E-08
0.0007874 	3.20232e-08 	0.92 	0.04 	0.04 	0.0401928 	-2.9823e-08 	
3.64818e-09 	0.066455 	0.066455 	0 	
0.000841022 	3.20232e-08 	0.92 	0.04 	0.04 	0.0401927 	303.906 	
3.64688e-09 	0.0664309 	0.0664309 	0 	
0.000894644 	3.20232e-08 	0.92 	0.04 	0.04 	0.0401927 	303.686 	
3.6443e-09 	0.0663828 	0.0663828 	0 	
0.000948267 	3.20232e-08 	0.92 	0.04 	0.04 	0.0401926 	303.465 	
3.64172e-09 	0.0663346 	0.0663346 	0 	
0.00100189 	3.20232e-08 	0.92 	0.04 	0.04 	0.0401925 	303.245 	
3.63914e-09 	0.0662865 	0.0662865 	0 	
0.00105551 	3.20232e-08 	0.92 	0.04 	0.04 	0.0401924 	303.025 	
3.63655e-09 	0.0662383 	0.0662383 	0 	
0.00110913 	3.20232e-08 	0.92 	0.04 	0.04 	0.0401923 	302.804 	
3.63397e-09 	0.0661902 	0.0661902 	0 	
0.00116276 	3.20232e-08 	0.92 	0.04 	0.04 	0.0401923 	302.584 	
3.63139e-09 	0.066142 	0.066142 	0 	
0.00121638 	3.20232e-08 	0.92 	0.04 	0.04 	0.0401922 	302.364 	
3.62881e-09 	0.0660939 	0.0660939 	0 	
0.00127 	2.81175e-08 	0.92 	0.04 	0.04 	0.0401921 	3.80028 	
3.62751e-09 	0.0660698 	0.0660698 	0 	
ZONE T = "t = 7.75e-08 [s]" I = 10 SOLUTIONTIME = 7.7500000000000E-08
0.0007874 	3.20266e-08 	0.92 	0.04 	0.04 	0.0401928 	-2.9823e-08 	
5.14341e-09 	0.066455 	0.066455 	0 	
0.000841022 	3.20266e-08 	0.92 	0.04 	0.04 	0.0401927 	303.906 	
5.14158e-09 	0.0664309 	0.0664309 	0 	
0.000894644 	3.20266e-08 	0.92 	0.04 	0.04 	0.0401927 	303.686 	
5.13791e-09 	0.0663828 	0.0663828 	0 	
0.000948267 	3.20266e-08 	0.92 	0.04 	0.04 	0.0401926 	303.465 	
5.13425e-09 	0.0663346 	0.0663346 	0 	
0.00100189 	3.20266e-08 	0.92 	0.04 	0.04 	0.0401925 	303.245 	
5.13058e-09 	0.0662865 	0.0662865 	0 	
0.00105551 	3.20266e-08 	0.92 	0.04 	0.04 	0.0401924 	303.025 	
5.12692e-09 	0.0662383 	0.0662383 	0 	
0.00110913 	3.20266e-08 	0.92 	0.04 	0.04 	0.0401923 	302.804 	
5.12325e-09 	0.0661902 	0.0661902 	0 	
0.00116276 	3.20266e-08 	0.92 	0.04 	0.04 	0.0401923 	302.584 	
5.11958e-09 	0.066142 	0.066142 	0 	
0.00121638 	3.20266e-08 	0.92 	0.04 	0.04 	0.0401922 	302.364 	
5.11592e-09 	0.0660939 	0.0660939 	0 	
0.00127 	2.8121e-08 	0.92 	0.04 	0.04 	0.0401921 	3.80028 	
5.11409e-09 	0.0660698 	0.0660698 	0 	
ZONE T = "t = 1.1125e-07 [s]" I = 10 SOLUTIONTIME = 1.1125000000000E-07
0.0007874 	3.20244e-08 	0.92 	0.04 	0.04 	0.0401928 	-2.9823e-08 	
7.38627e-09 	0.066455 	0.066455 	0 	
0.000841022 	3.20244e-08 	0.92 	0.04 	0.04 	0.0401927 	303.906 	
7.38362e-09 	0.0664309 	0.0664309 	0 	
0.000894644 	3.20244e-08 	0.92 	0.04 	0.04 	0.0401927 	303.686 	
7.37833e-09 	0.0663828 	0.0663828 	0 	
0.000948267 	3.20244e-08 	0.92 	0.04 	0.04 	0.0401926 	303.465 	
7.37304e-09 	0.0663346 	0.0663346 	0 	
0.00100189 	3.20244e-08 	0.92 	0.04 	0.04 	0.0401925 	303.245 	
7.36775e-09 	0.0662865 	0.0662865 	0 	
0.00105551 	3.20244e-08 	0.92 	0.04 	0.04 	0.0401924 	303.025 	
7.36246e-09 	0.0662383 	0.0662383 	0 	
0.00110913 	3.20244e-08 	0.92 	0.04 	0.04 	0.0401923 	302.804 	
7.35717e-09 	0.0661902 	0.0661902 	0 	
0.00116276 	3.20244e-08 	0.92 	0.04 	0.04 	0.0401923 	302.584 	
7.35188e-09 	0.066142 	0.066142 	0 	
0.00121638 	3.20244e-08 	0.92 	0.04 	0.04 	0.0401922 	302.364 	
7.34659e-09 	0.0660939 	0.0660939 	0 	
0.00127 	2.81188e-08 	0.92 	0.04 	0.04 	0.0401921 	3.80028 	
7.34394e-09 	0.0660698 	0.0660698 	0 	
ZONE T = "t = 1.61875e-07 [s]" I = 10 SOLUTIONTIME = 1.6187500000000E-07
0.0007874 	3.2025e-08 	0.92 	0.04 	0.04 	0.0401928 	-2.9823e-08 	
1.07506e-08 	0.066455 	0.066455 	0 	
0.000841022 	3.2025e-08 	0.92 	0.04 	0.04 	0.0401927 	303.906 	
1.07467e-08 	0.0664309 	0.0664309 	0 	
0.000894644 	3.2025e-08 	0.92 	0.04 	0.04 	0.0401927 	303.686 	
1.0739e-08 	0.0663828 	0.0663828 	0 	
0.000948267 	3.2025e-08 	0.92 	0.04 	0.04 	0.0401926 	303.465 	
1.07312e-08 	0.0663346 	0.0663346 	0 	
0.00100189 	3.2025e-08 	0.92 	0.04 	0.04 	0.0401925 	303.245 	
1.07235e-08 	0.0662865 	0.0662865 	0 	
0.00105551 	3.2025e-08 	0.92 	0.04 	0.04 	0.0401924 	303.025 	
1.07158e-08 	0.0662383 	0.0662383 	0 	
0.00110913 	3.2025e-08 	0.92 	0.04 	0.04 	0.0401923 	302.804 	
1.0708e-08 	0.0661902 	0.0661902 	0 	
0.00116276 	3.2025e-08 	0.92 	0.04 	0.04 	0.0401923 	302.584 	
1.07003e-08 	0.066142 	0.066142 	0 	
0.00121638 	3.20249e-08 	0.92 	0.04 	0.04 	0.0401922 	302.364 	
1.06926e-08 	0.0660939 	0.0660939 	0 	
0.00127 	2.81193e-08 	0.92 	0.04 	0.04 	0.0401921 	3.80028 	
1.06887e-08 	0.0660698 	0.0660698 	0 	
ZONE T = "t = 2.37813e-07 [s]" I = 10 SOLUTIONTIME = 2.3781250000000E-07
0.0007874 	3.2025e-08 	0.92 	0.04 	0.04 	0.0401928 	-2.9823e-08 	
1.5797e-08 	0.066455 	0.066455 	0 	
0.000841022 	3.2025e-08 	0.92 	0.04 	0.04 	0.0401927 	303.906 	
1.57913e-08 	0.0664309 	0.0664309 	0 	
0.000894644 	3.2025e-08 	0.92 	0.04 	0.04 	0.0401927 	303.686 	
1.57799e-08 	0.0663828 	0.0663828 	0 	
0.000948267 	3.2025e-08 	0.92 	0.04 	0.04 	0.0401926 	303.465 	
1.57685e-08 	0.0663346 	0.0663346 	0 	
0.00100189 	3.2025e-08 	0.92 	0.04 	0.04 	0.0401925 	303.245 	
1.57571e-08 	0.0662865 	0.0662865 	0 	
0.00105551 	3.2025e-08 	0.92 	0.04 	0.04 	0.0401924 	303.025 	
1.57457e-08 	0.0662383 	0.0662383 	0 	
0.00110913 	3.2025e-08 	0.92 	0.04 	0.04 	0.0401923 	302.804 	
1.57344e-08 	0.0661902 	0.0661902 	0 	
0.00116276 	3.2025e-08 	0.92 	0.04 	0.04 	0.0401923 	302.584 	
1.5723e-08 	0.066142 	0.066142 	0 	
0.00121638 	3.2025e-08 	0.92 	0.04 	0.04 	0.0401922 	302.364 	
1.57116e-08 	0.0660939 	0.0660939 	0 	
0.00127 	2.81192e-08 	0.92 	0.04 	0.04 	0.0401921 	3.80028 	
1.57059e-08 	0.0660698 	0.0660698 	0 	
ZONE T = "t = 3.51719e-07 [s]" I = 10 SOLUTIONTIME = 3.5171875000000E-07
0.0007874 	3.20247e-08 	0.92 	0.04 	0.04 	0.0401928 	-2.9823e-08 	
2.33666e-08 	0.066455 	0.066455 	0 	
0.000841022 	3.20249e-08 	0.92 	0.04 	0.04 	0.0401927 	303.906 	
2.33582e-08 	0.0664309 	0.0664309 	0 	
0.000894644 	3.20249e-08 	0.92 	0.04 	0.04 	0.0401927 	303.686 	
2.33413e-08 	0.0663828 	0.0663828 	0 	
0.000948267 	3.20249e-08 	0.92 	0.04 	0.04 	0.0401926 	303.465 	
2.33245e-08 	0.0663346 	0.0663346 	0 	
0.00100189 	3.20249e-08 	0.92 	0.04 	0.04 	0.0401925 	303.245 	
2.33076e-08 	0.0662865 	0.0662865 	0 	
0.00105551 	3.20249e-08 	0.92 	0.04 	0.04 	0.0401924 	303.025 	
2.32907e-08 	0.0662383 	0.0662383 	0 	
0.00110913 	3.20249e-08 	0.92 	0.04 	0.04 	0.0401923 	302.804 	
2.32738e-08 	0.0661902 	0.0661902 	0 	
0.00116276 	3.20249e-08 	0.92 	0.04 	0.04 	0.0401923 	302.584 	
2.3257e-08 	0.066142 	0.066142 	0 	
0.00121638 	3.20249e-08 	0.92 	0.04 	0.04 	0.0401922 	302.364 	
2.32401e-08 	0.0660939 	0.0660939 	0 	
0.00127 	2.81193e-08 	0.92 	0.04 	0.04 	0.0401921 	3.80028 	
2.32317e-08 	0.0660698 	0.0660698 	0 	
ZONE T = "t = 5.22578e-07 [s]" I = 10 SOLUTIONTIME = 5.2257812500000E-07
0.0007874 	3.20249e-08 	0.92 	0.04 	0.04 	0.0401928 	-2.9823e-08 	
3.47211e-08 	0.066455 	0.066455 	0 	
0.000841022 	3.20248e-08 	0.92 	0.04 	0.04 	0.0401927 	303.906 	
3.47085e-08 	0.0664309 	0.0664309 	0 	
0.000894644 	3.20248e-08 	0.92 	0.04 	0.04 	0.0401927 	303.686 	
3.46834e-08 	0.0663828 	0.0663828 	0 	
0.000948267 	3.20248e-08 	0.92 	0.04 	0.04 	0.0401926 	303.465 	
3.46583e-08 	0.0663346 	0.0663346 	0 	
0.00100189 	3.20248e-08 	0.92 	0.04 	0.04 	0.0401925 	303.245 	
3.46332e-08 	0.0662865 	0.0662865 	0 	
0.00105551 	3.20248e-08 	0.92 	0.04 	0.04 	0.0401924 	303.025 	
3.46082e-08 	0.0662383 	0.0662383 	0 	
0.00110913 	3.20248e-08 	0.92 	0.04 	0.04 	0.0401923 	302.804 	
3.45831e-08 	0.0661902 	0.0661902 	0 	
0.00116276 	3.20248e-08 	0.92 	0.04 	0.04 	0.0401923 	302.584 	
3.4558e-08 	0.066142 	0.066142 	0 	
0.00121638 	3.20248e-08 	0.92 	0.04 	0.04 	0.0401922 	302.364 	
3.45329e-08 	0.0660939 	0.0660939 	0 	
0.00127 	2.81191e-08 	0.92 	0.04 	0.04 	0.0401921 	3.80028 	
3.45203e-08 	0.0660698 	0.0660698 	0 	
ZONE T = "t = 7.78867e-07 [s]" I = 10 SOLUTIONTIME = 7.7886718750000E-07
0.0007874 	3.20249e-08 	0.92 	0.04 	0.04 	0.0401928 	-2.9823e-08 	
5.17528e-08 	0.066455 	0.066455 	0 	
0.000841022 	3.20249e-08 	0.92 	0.04 	0.04 	0.0401927 	303.906 	
5.17341e-08 	0.0664309 	0.0664309 	0 	
0.000894644 	3.20249e-08 	0.92 	0.04 	0.04 	0.0401927 	303.686 	
5.16966e-08 	0.0663828 	0.0663828 	0 	
0.000948267 	3.20249e-08 	0.92 	0.04 	0.04 	0.0401926 	303.465 	
5.16592e-08 	0.0663346 	0.0663346 	0 	
0.00100189 	3.20249e-08 	0.92 	0.04 	0.04 	0.0401925 	303.245 	
5.16218e-08 	0.0662865 	0.0662865 	0 	
0.00105551 	3.20249e-08 	0.92 	0.04 	0.04 	0.0401924 	303.025 	
5.15843e-08 	0.0662383 	0.0662383 	0 	
0.00110913 	3.20249e-08 	0.92 	0.04 	0.04 	0.0401923 	302.804 	
5.15469e-08 	0.0661902 	0.0661902 	0 	
0.00116276 	3.20249e-08 	0.92 	0.04 	0.04 	0.0401923 	302.584 	
5.15094e-08 	0.066142 	0.066142 	0 	
0.00121638 	3.20249e-08 	0.92 	0.04 	0.04 	0.0401922 	302.364 	
5.1472e-08 	0.0660939 	0.0660939 	0 	
0.00127 	2.81193e-08 	0.92 	0.04 	0.04 	0.0401921 	3.80028 	
5.14533e-08 	0.0660698 	0.0660698 	0 	
ZONE T = "t = 1.1633e-06 [s]" I = 10 SOLUTIONTIME = 1.1633007812500E-06
0.0007874 	3.20249e-08 	0.92 	0.04 	0.04 	0.0401928 	-2.9823e-08 	
7.73003e-08 	0.066455 	0.066455 	0 	
0.000841022 	3.20249e-08 	0.92 	0.04 	0.04 	0.0401927 	303.906 	
7.72724e-08 	0.0664309 	0.0664309 	0 	
0.000894644 	3.20249e-08 	0.92 	0.04 	0.04 	0.0401927 	303.686 	
7.72164e-08 	0.0663828 	0.0663828 	0 	
0.000948267 	3.20249e-08 	0.92 	0.04 	0.04 	0.0401926 	303.465 	
7.71605e-08 	0.0663346 	0.0663346 	0 	
0.00100189 	3.20249e-08 	0.92 	0.04 	0.04 	0.0401925 	303.245 	
7.71045e-08 	0.0662865 	0.0662865 	0 	
0.00105551 	3.20249e-08 	0.92 	0.04 	0.04 	0.0401924 	303.025 	
7.70486e-08 	0.0662383 	0.0662383 	0 	
0.00110913 	3.20249e-08 	0.92 	0.04 	0.04 	0.0401923 	302.804 	
7.69926e-08 	0.0661902 	0.0661902 	0 	
0.00116276 	3.20249e-08 	0.92 	0.04 	0.04 	0.0401923 	302.584 	
7.69367e-08 	0.066142 	0.066142 	0 	
0.00121638 	3.20249e-08 	0.92 	0.04 	0.04 	0.0401922 	302.364 	
7.68807e-08 	0.0660939 	0.0660939 	0 	
0.00127 	2.81193e-08 	0.92 	0.04 	0.04 	0.0401921 	3.80028 	
7.68527e-08 	0.0660698 	0.0660698 	0 	
ZONE T = "t = 1.73995e-06 [s]" I = 10 SOLUTIONTIME = 1.7399511718750E-06
0.0007874 	3.20248e-08 	0.92 	0.04 	0.04 	0.0401928 	-2.9823e-08 	
1.15622e-07 	0.066455 	0.066455 	0 	
0.000841022 	3.20248e-08 	0.92 	0.04 	0.04 	0.0401927 	303.906 	
1.1558e-07 	0.0664309 	0.0664309 	0 	
0.000894644 	3.20248e-08 	0.92 	0.04 	0.04 	0.0401927 	303.686 	
1.15496e-07 	0.0663828 	0.0663828 	0 	
0.000948267 	3.20248e-08 	0.92 	0.04 	0.04 	0.0401926 	303.465 	
1.15412e-07 	0.0663346 	0.0663346 	0 	
0.00100189 	3.20248e-08 	0.92 	0.04 	0.04 	0.0401925 	303.245 	
1.15329e-07 	0.0662865 	0.0662865 	0 	
0.00105551 	3.20248e-08 	0.92 	0.04 	0.04 	0.0401924 	303.025 	
1.15245e-07 	0.0662383 	0.0662383 	0 	
0.00110913 	3.20248e-08 	0.92 	0.04 	0.04 	0.0401923 	302.804 	
1.15161e-07 	0.0661902 	0.0661902 	0 	
0.00116276 	3.20248e-08 	0.92 	0.04 	0.04 	0.0401923 	302.584 	
1.15077e-07 	0.066142 	0.066142 	0 	
0.00121638 	3.20248e-08 	0.92 	0.04 	0.04 	0.0401922 	302.364 	
1.14994e-07 	0.0660939 	0.0660939 	0 	
0.00127 	2.81192e-08 	0.92 	0.04 	0.04 	0.0401921 	3.80028 	
1.14952e-07 	0.0660698 	0.0660698 	0 	
ZONE T = "t = 2.60493e-06 [s]" I = 10 SOLUTIONTIME = 2.6049267578125E-06
0.0007874 	3.20249e-08 	0.92 	0.04 	0.04 	0.0401928 	-2.9823e-08 	
1.73104e-07 	0.066455 	0.066455 	0 	
0.000841022 	3.20249e-08 	0.92 	0.04 	0.04 	0.0401927 	303.906 	
1.73041e-07 	0.0664309 	0.0664309 	0 	
0.000894644 	3.20249e-08 	0.92 	0.04 	0.04 	0.0401927 	303.686 	
1.72916e-07 	0.0663828 	0.0663828 	0 	
0.000948267 	3.20249e-08 	0.92 	0.04 	0.04 	0.0401926 	303.465 	
1.7279e-07 	0.0663346 	0.0663346 	0 	
0.00100189 	3.20249e-08 	0.92 	0.04 	0.04 	0.0401925 	303.245 	
1.72665e-07 	0.0662865 	0.0662865 	0 	
0.00105551 	3.20249e-08 	0.92 	0.04 	0.04 	0.0401924 	303.025 	
1.72539e-07 	0.0662383 	0.0662383 	0 	
0.00110913 	3.20249e-08 	0.92 	0.04 	0.04 	0.0401923 	302.804 	
1.72414e-07 	0.0661902 	0.0661902 	0 	
0.00116276 	3.20249e-08 	0.92 	0.04 	0.04 	0.0401923 	302.584 	
1.72289e-07 	0.066142 	0.066142 	0 	
0.00121638 	3.20249e-08 	0.92 	0.04 	0.04 	0.0401922 	302.364 	
1.72163e-07 	0.0660939 	0.0660939 	0 	
0.00127 	2.81192e-08 	0.92 	0.04 	0.04 	0.0401921 	3.80028 	
1.72101e-07 	0.0660698 	0.0660698 	0 	
ZONE T = "t = 3.90239e-06 [s]" I = 10 SOLUTIONTIME = 3.9023901367188E-06
0.0007874 	3.20249e-08 	0.92 	0.04 	0.04 	0.0401928 	-2.9823e-08 	
2.59327e-07 	0.066455 	0.066455 	0 	
0.000841022 	3.20249e-08 	0.92 	0.04 	0.04 	0.0401927 	303.906 	
2.59233e-07 	0.0664309 	0.0664309 	0 	
0.000894644 	3.20249e-08 	0.92 	0.04 	0.04 	0.0401927 	303.686 	
2.59045e-07 	0.0663828 	0.0663828 	0 	
0.000948267 	3.20249e-08 	0.92 	0.04 	0.04 	0.0401926 	303.465 	
2.58857e-07 	0.0663346 	0.0663346 	0 	
0.00100189 	3.20249e-08 	0.92 	0.04 	0.04 	0.0401925 	303.245 	
2.58669e-07 	0.0662865 	0.0662865 	0 	
0.00105551 	3.20249e-08 	0.92 	0.04 	0.04 	0.0401924 	303.025 	
2.58481e-07 	0.0662383 	0.0662383 	0 	
0.00110913 	3.20249e-08 	0.92 	0.04 	0.04 	0.0401923 	302.804 	
2.58293e-07 	0.0661902 	0.0661902 	0 	
0.00116276 	3.20249e-08 	0.92 	0.04 	0.04 	0.0401923 	302.584 	
2.58106e-07 	0.066142 	0.066142 	0 	
0.00121638 	3.20249e-08 	0.92 	0.04 	0.04 	0.0401922 	302.364 	
2.57918e-07 	0.0660939 	0.0660939 	0 	
0.00127 	2.81192e-08 	0.92 	0.04 	0.04 	0.0401921 	3.80028 	
2.57824e-07 	0.0660698 	0.0660698 	0 	
ZONE T = "t = 5.84859e-06 [s]" I = 10 SOLUTIONTIME = 5.8485852050781E-06
0.0007874 	3.20249e-08 	0.92 	0.04 	0.04 	0.0401928 	-2.9823e-08 	
3.88661e-07 	0.066455 	0.066455 	0 	
0.000841022 	3.20249e-08 	0.92 	0.04 	0.04 	0.0401927 	303.906 	
3.8852e-07 	0.0664309 	0.0664309 	0 	
0.000894644 	3.20249e-08 	0.92 	0.04 	0.04 	0.0401927 	303.686 	
3.88239e-07 	0.0663828 	0.0663828 	0 	
0.000948267 	3.20249e-08 	0.92 	0.04 	0.04 	0.0401926 	303.465 	
3.87957e-07 	0.0663346 	0.0663346 	0 	
0.00100189 	3.20249e-08 	0.92 	0.04 	0.04 	0.0401925 	303.245 	
3.87676e-07 	0.0662865 	0.0662865 	0 	
0.00105551 	3.20249e-08 	0.92 	0.04 	0.04 	0.0401924 	303.025 	
3.87394e-07 	0.0662383 	0.0662383 	0 	
0.00110913 	3.20249e-08 	0.92 	0.04 	0.04 	0.0401923 	302.804 	
3.87112e-07 	0.0661902 	0.0661902 	0 	
0.00116276 	3.20249e-08 	0.92 	0.04 	0.04 	0.0401923 	302.584 	
3.86831e-07 	0.066142 	0.066142 	0 	
0.00121638 	3.20249e-08 	0.92 	0.04 	0.04 	0.0401922 	302.364 	
3.86549e-07 	0.0660939 	0.0660939 	0 	
0.00127 	2.81192e-08 	0.92 	0.04 	0.04 	0.0401921 	3.80028 	
3.86409e-07 	0.0660698 	0.0660698 	0 	
ZONE T = "t = 8.76788e-06 [s]" I = 10 SOLUTIONTIME = 8.7678778076172E-06
0.0007874 	3.20249e-08 	0.92 	0.04 	0.04 	0.0401928 	-2.9823e-08 	
5.82663e-07 	0.066455 	0.066455 	0 	
0.000841022 	3.20249e-08 	0.92 	0.04 	0.04 	0.0401927 	303.906 	
5.82452e-07 	0.0664309 	0.0664309 	0 	
0.000894644 	3.20249e-08 	0.92 	0.04 	0.04 	0.0401927 	303.686 	
5.82029e-07 	0.0663828 	0.0663828 	0 	
0.000948267 	3.20249e-08 	0.92 	0.04 	0.04 	0.0401926 	303.465 	
5.81607e-07 	0.0663346 	0.0663346 	0 	
0.00100189 	3.20249e-08 	0.92 	0.04 	0.04 	0.0401925 	303.245 	
5.81185e-07 	0.0662865 	0.0662865 	0 	
0.00105551 	3.20249e-08 	0.92 	0.04 	0.04 	0.0401924 	303.025 	
5.80763e-07 	0.0662383 	0.0662383 	0 	
0.00110913 	3.20249e-08 	0.92 	0.04 	0.04 	0.0401923 	302.804 	
5.80341e-07 	0.0661902 	0.0661902 	0 	
0.00116276 	3.20249e-08 	0.92 	0.04 	0.04 	0.0401923 	302.584 	
5.79919e-07 	0.066142 	0.066142 	0 	
0.00121638 	3.20249e-08 	0.92 	0.04 	0.04 	0.0401922 	302.364 	
5.79497e-07 	0.0660939 	0.0660939 	0 	
0.00127 	2.81192e-08 	0.92 	0.04 	0.04 	0.0401921 	3.80028 	
5.79286e-07 	0.0660698 	0.0660698 	0 	
ZONE T = "t = 1.31468e-05 [s]" I = 10 SOLUTIONTIME = 1.3146816711426E-05
0.0007874 	3.20249e-08 	0.92 	0.04 	0.04 	0.0401928 	-2.9823e-08 	
8.73665e-07 	0.066455 	0.066455 	0 	
0.000841022 	3.20249e-08 	0.92 	0.04 	0.04 	0.0401927 	303.906 	
8.73349e-07 	0.0664309 	0.0664309 	0 	
0.000894644 	3.20249e-08 	0.92 	0.04 	0.04 	0.0401927 	303.686 	
8.72716e-07 	0.0663828 	0.0663828 	0 	
0.000948267 	3.20249e-08 	0.92 	0.04 	0.04 	0.0401926 	303.465 	
8.72083e-07 	0.0663346 	0.0663346 	0 	
0.00100189 	3.20249e-08 	0.92 	0.04 	0.04 	0.0401925 	303.245 	
8.7145e-07 	0.0662865 	0.0662865 	0 	
0.00105551 	3.20249e-08 	0.92 	0.04 	0.04 	0.0401924 	303.025 	
8.70817e-07 	0.0662383 	0.0662383 	0 	
0.00110913 	3.20249e-08 	0.92 	0.04 	0.04 	0.0401923 	302.804 	
8.70184e-07 	0.0661902 	0.0661902 	0 	
0.00116276 	3.20249e-08 	0.92 	0.04 	0.04 	0.0401923 	302.584 	
8.69551e-07 	0.066142 	0.066142 	0 	
0.00121638 	3.20249e-08 	0.92 	0.04 	0.04 	0.0401922 	302.364 	
8.68918e-07 	0.0660939 	0.0660939 	0 	
0.00127 	2.81192e-08 	0.92 	0.04 	0.04 	0.0401921 	3.80028 	
8.68601e-07 	0.0660698 	0.0660698 	0 	
ZONE T = "t = 1.97152e-05 [s]" I = 10 SOLUTIONTIME = 1.9715225067139E-05
0.0007874 	3.20249e-08 	0.92 	0.04 	0.04 	0.0401928 	-2.9823e-08 	
1.31017e-06 	0.066455 	0.066455 	0 	
0.000841022 	3.20249e-08 	0.92 	0.04 	0.04 	0.0401927 	303.906 	
1.30969e-06 	0.0664309 	0.0664309 	0 	
0.000894644 	3.20249e-08 	0.92 	0.04 	0.04 	0.0401927 	303.686 	
1.30874e-06 	0.0663828 	0.0663828 	0 	
0.000948267 	3.20249e-08 	0.92 	0.04 	0.04 	0.0401926 	303.465 	
1.3078e-06 	0.0663346 	0.0663346 	0 	
0.00100189 	3.20249e-08 	0.92 	0.04 	0.04 	0.0401925 	303.245 	
1.30685e-06 	0.0662865 	0.0662865 	0 	
0.00105551 	3.20249e-08 	0.92 	0.04 	0.04 	0.0401924 	303.025 	
1.3059e-06 	0.0662383 	0.0662383 	0 	
0.00110913 	3.20249e-08 	0.92 	0.04 	0.04 	0.0401923 	302.804 	
1.30495e-06 	0.0661902 	0.0661902 	0 	
0.00116276 	3.20249e-08 	0.92 	0.04 	0.04 	0.0401923 	302.584 	
1.304e-06 	0.066142 	0.066142 	0 	
0.00121638 	3.20249e-08 	0.92 	0.04 	0.04 	0.0401922 	302.364 	
1.30305e-06 	0.0660939 	0.0660939 	0 	
0.00127 	2.81192e-08 	0.92 	0.04 	0.04 	0.0401921 	3.80028 	
1.30257e-06 	0.0660698 	0.0660698 	0 	
ZONE T = "t = 2.95678e-05 [s]" I = 10 SOLUTIONTIME = 2.9567837600708E-05
0.0007874 	3.20249e-08 	0.92 	0.04 	0.04 	0.0401928 	-2.9823e-08 	
1.96492e-06 	0.066455 	0.066455 	0 	
0.000841022 	3.20249e-08 	0.92 	0.04 	0.04 	0.0401927 	303.906 	
1.96421e-06 	0.0664309 	0.0664309 	0 	
0.000894644 	3.20249e-08 	0.92 	0.04 	0.04 	0.0401927 	303.686 	
1.96279e-06 	0.0663828 	0.0663828 	0 	
0.000948267 	3.20249e-08 	0.92 	0.04 	0.04 	0.0401926 	303.465 	
1.96137e-06 	0.0663346 	0.0663346 	0 	
0.00100189 	3.20249e-08 	0.92 	0.04 	0.04 	0.0401925 	303.245 	
1.95994e-06 	0.0662865 	0.0662865 	0 	
0.00105551 	3.20249e-08 	0.92 	0.04 	0.04 	0.0401924 	303.025 	
1.95852e-06 	0.0662383 	0.0662383 	0 	
0.00110913 	3.20249e-08 	0.92 	0.04 	0.04 	0.0401923 	302.804 	
1.95709e-06 	0.0661902 	0.0661902 	0 	
0.00116276 	3.20249e-08 	0.92 	0.04 	0.04 	0.0401923 	302.584 	
1.95567e-06 	0.066142 	0.066142 	0 	
0.00121638 	3.20249e-08 	0.92 	0.04 	0.04 	0.0401922 	302.364 	
1.95425e-06 	0.0660939 	0.0660939 	0 	
0.00127 	2.81192e-08 	0.92 	0.04 	0.04 	0.0401921 	3.80028 	
1.95353e-06 	0.0660698 	0.0660698 	0 	
ZONE T = "t = 4.43468e-05 [s]" I = 10 SOLUTIONTIME = 4.4346756401062E-05
0.0007874 	3.20249e-08 	0.92 	0.04 	0.04 	0.0401928 	-2.9823e-08 	
2.94706e-06 	0.066455 	0.066455 	0 	
0.000841022 	3.20249e-08 	0.92 	0.04 	0.04 	0.0401927 	303.906 	
2.94599e-06 	0.0664309 	0.0664309 	0 	
0.000894644 	3.20249e-08 	0.92 	0.04 	0.04 	0.0401927 	303.686 	
2.94385e-06 	0.0663828 	0.0663828 	0 	
0.000948267 	3.20249e-08 	0.92 	0.04 	0.04 	0.0401926 	303.465 	
2.94172e-06 	0.0663346 	0.0663346 	0 	
0.00100189 	3.20249e-08 	0.92 	0.04 	0.04 	0.0401925 	303.245 	
2.93958e-06 	0.0662865 	0.0662865 	0 	
0.00105551 	3.20249e-08 	0.92 	0.04 	0.04 	0.0401924 	303.025 	
2.93745e-06 	0.0662383 	0.0662383 	0 	
0.00110913 	3.20249e-08 	0.92 	0.04 	0.04 	0.0401923 	302.804 	
2.93531e-06 	0.0661902 	0.0661902 	0 	
0.00116276 	3.20249e-08 	0.92 	0.04 	0.04 	0.0401923 	302.584 	
2.93318e-06 	0.066142 	0.066142 	0 	
0.00121638 	3.20249e-08 	0.92 	0.04 	0.04 	0.0401922 	302.364 	
2.93104e-06 	0.0660939 	0.0660939 	0 	
0.00127 	2.81192e-08 	0.92 	0.04 	0.04 	0.0401921 	3.80028 	
2.92997e-06 	0.0660698 	0.0660698 	0 	
ZONE T = "t = 6.65151e-05 [s]" I = 10 SOLUTIONTIME = 6.6515134601593E-05
0.0007874 	3.20249e-08 	0.92 	0.04 	0.04 	0.0401928 	-2.9823e-08 	
4.42026e-06 	0.066455 	0.066455 	0 	
0.000841022 	3.20249e-08 	0.92 	0.04 	0.04 	0.0401927 	303.906 	
4.41866e-06 	0.0664309 	0.0664309 	0 	
0.000894644 	3.20249e-08 	0.92 	0.04 	0.04 	0.0401927 	303.686 	
4.41545e-06 	0.0663828 	0.0663828 	0 	
0.000948267 	3.20249e-08 	0.92 	0.04 	0.04 	0.0401926 	303.465 	
4.41225e-06 	0.0663346 	0.0663346 	0 	
0.00100189 	3.20249e-08 	0.92 	0.04 	0.04 	0.0401925 	303.245 	
4.40905e-06 	0.0662865 	0.0662865 	0 	
0.00105551 	3.20249e-08 	0.92 	0.04 	0.04 	0.0401924 	303.025 	
4.40584e-06 	0.0662383 	0.0662383 	0 	
0.00110913 	3.20249e-08 	0.92 	0.04 	0.04 	0.0401923 	302.804 	
4.40264e-06 	0.0661902 	0.0661902 	0 	
0.00116276 	3.20249e-08 	0.92 	0.04 	0.04 	0.0401923 	302.584 	
4.39944e-06 	0.066142 	0.066142 	0 	
0.00121638 	3.20249e-08 	0.92 	0.04 	0.04 	0.0401922 	302.364 	
4.39624e-06 	0.0660939 	0.0660939 	0 	
0.00127 	2.81192e-08 	0.92 	0.04 	0.04 	0.0401921 	3.80028 	
4.39463e-06 	0.0660698 	0.0660698 	0 	
ZONE T = "t = 9.97677e-05 [s]" I = 10 SOLUTIONTIME = 9.9767701902390E-05
0.0007874 	3.20249e-08 	0.92 	0.04 	0.04 	0.0401928 	-2.9823e-08 	
6.63006e-06 	0.066455 	0.066455 	0 	
0.000841022 	3.20249e-08 	0.92 	0.04 	0.04 	0.0401927 	303.906 	
6.62765e-06 	0.0664309 	0.0664309 	0 	
0.000894644 	3.20249e-08 	0.92 	0.04 	0.04 	0.0401927 	303.686 	
6.62285e-06 	0.0663828 	0.0663828 	0 	
0.000948267 	3.20249e-08 	0.92 	0.04 	0.04 	0.0401926 	303.465 	
6.61805e-06 	0.0663346 	0.0663346 	0 	
0.00100189 	3.20249e-08 	0.92 	0.04 	0.04 	0.0401925 	303.245 	
6.61324e-06 	0.0662865 	0.0662865 	0 	
0.00105551 	3.20249e-08 	0.92 	0.04 	0.04 	0.0401924 	303.025 	
6.60844e-06 	0.0662383 	0.0662383 	0 	
0.00110913 	3.20249e-08 	0.92 	0.04 	0.04 	0.0401923 	302.804 	
6.60363e-06 	0.0661902 	0.0661902 	0 	
0.00116276 	3.20249e-08 	0.92 	0.04 	0.04 	0.0401923 	302.584 	
6.59883e-06 	0.066142 	0.066142 	0 	
0.00121638 	3.20249e-08 	0.92 	0.04 	0.04 	0.0401922 	302.364 	
6.59403e-06 	0.0660939 	0.0660939 	0 	
0.00127 	2.81192e-08 	0.92 	0.04 	0.04 	0.0401921 	3.80028 	
6.59162e-06 	0.0660698 	0.0660698 	0 	
ZONE T = "t = 0.000149647 [s]" I = 10 SOLUTIONTIME = 1.4964655285358E-04
0.0007874 	3.20249e-08 	0.92 	0.04 	0.04 	0.0401928 	-2.9823e-08 	
9.94476e-06 	0.066455 	0.066455 	0 	
0.000841022 	3.20249e-08 	0.92 	0.04 	0.04 	0.0401927 	303.906 	
9.94115e-06 	0.0664309 	0.0664309 	0 	
0.000894644 	3.20249e-08 	0.92 	0.04 	0.04 	0.0401926 	303.686 	
9.93395e-06 	0.0663828 	0.0663828 	0 	
0.000948267 	3.20249e-08 	0.92 	0.04 	0.04 	0.0401926 	303.465 	
9.92674e-06 	0.0663346 	0.0663346 	0 	
0.00100189 	3.20249e-08 	0.92 	0.04 	0.04 	0.0401925 	303.245 	
9.91953e-06 	0.0662865 	0.0662865 	0 	
0.00105551 	3.20249e-08 	0.92 	0.04 	0.04 	0.0401924 	303.025 	
9.91233e-06 	0.0662383 	0.0662383 	0 	
0.00110913 	3.20249e-08 	0.92 	0.04 	0.04 	0.0401923 	302.804 	
9.90512e-06 	0.0661901 	0.0661901 	0 	
0.00116276 	3.20249e-08 	0.92 	0.04 	0.04 	0.0401923 	302.584 	
9.89792e-06 	0.066142 	0.066142 	0 	
0.00121638 	3.20249e-08 	0.92 	0.04 	0.04 	0.0401922 	302.364 	
9.89071e-06 	0.0660938 	0.0660938 	0 	
0.00127 	2.81192e-08 	0.92 	0.04 	0.04 	0.0401921 	3.80028 	
9.88711e-06 	0.0660698 	0.0660698 	0 	
ZONE T = "t = 0.000224465 [s]" I = 10 SOLUTIONTIME = 2.2446482928038E-04
0.0007874 	3.20249e-08 	0.92 	0.04 	0.04 	0.0401928 	-2.9823e-08 	
1.49168e-05 	0.066455 	0.066455 	0 	
0.000841022 	3.20249e-08 	0.92 	0.04 	0.04 	0.0401927 	303.906 	
1.49114e-05 	0.0664309 	0.0664309 	0 	
0.000894644 	3.20249e-08 	0.92 	0.04 	0.04 	0.0401926 	303.686 	
1.49006e-05 	0.0663827 	0.0663827 	0 	
0.000948267 	3.20249e-08 	0.92 	0.04 	0.04 	0.0401926 	303.465 	
1.48898e-05 	0.0663346 	0.0663346 	0 	
0.00100189 	3.20249e-08 	0.92 	0.04 	0.04 	0.0401925 	303.245 	
1.4879e-05 	0.0662864 	0.0662864 	0 	
0.00105551 	3.20249e-08 	0.92 	0.04 	0.04 	0.0401924 	303.025 	
1.48682e-05 	0.0662383 	0.0662383 	0 	
0.00110913 	3.20249e-08 	0.92 	0.04 	0.04 	0.0401923 	302.804 	
1.48574e-05 	0.0661901 	0.0661901 	0 	
0.00116276 	3.20249e-08 	0.92 	0.04 	0.04 	0.0401923 	302.584 	
1.48465e-05 	0.066142 	0.066142 	0 	
0.00121638 	3.20249e-08 	0.92 	0.04 	0.04 	0.0401922 	302.364 	
1.48357e-05 	0.0660938 	0.0660938 	0 	
0.00127 	2.81192e-08 	0.92 	0.04 	0.04 	0.0401921 	3.80028 	
1.48303e-05 	0.0660698 	0.0660698 	0 	
ZONE T = "t = 0.000336692 [s]" I = 10 SOLUTIONTIME = 3.3669224392056E-04
0.0007874 	3.20248e-08 	0.92 	0.04 	0.04 	0.0401928 	-2.9823e-08 	
2.23749e-05 	0.0664549 	0.0664549 	0 	
0.000841022 	3.20248e-08 	0.92 	0.04 	0.04 	0.0401927 	303.906 	
2.23668e-05 	0.0664309 	0.0664309 	0 	
0.000894644 	3.20248e-08 	0.92 	0.04 	0.04 	0.0401926 	303.686 	
2.23505e-05 	0.0663827 	0.0663827 	0 	