TITLE = "Solution on Domain BulkDomain1D_2"
VARIABLES = "x [m]"  
"Vel_axial" 	"MF_sp(ECDMC)" 	"MF_sp(Li+)" 	"MF_sp(PF6-)" 	"Volt(Electroly)" 	"Volt(CathodeVo)" 	"Temperature" 	
"Potential Drop Electrode-Electrolyte [V]" 	"Surf_0 Equilibrium Potential Drop Electrode-Electrolyte [V]" 	"Overpotential_0 [V]" 	"Current Source [A/m^2]" 	"Li+ flux [kmol/m^2/s]" 	"Electrolyte Current [A/m^2]" 	"Electrode Current [A/m^2]" 	
"CV Capacity discharged [A-s/m^2]" 	"Depth of discharge in CV [A-s/m^2]" 	"CV Capacity remaining [A-s/m^2]" 	"Initial CV capacity [A-s/m^2]" 	"Porosity []" 	"Surface Area [m2/m2] (area per area)" 	"Specific current (per particle area) [A/m^2]" 	"Control volume thickness [m]" 	
"MoleDens LiCoO2 [kmol/m^3]" 	"MoleDens CoO2 [kmol/m^3]" 	"qHeat_accum [J/m3]" 	"qHeat_step [W/m3]" 	"Joule_Lyte [W/m3]" 	"Joule_Solid [W/m3]" 	"electrodHeat [W/m3]" 	"OverpotHeat [W/m3]" 	"deltaSHeat [W/m3]" 	

ZONE T = "CATH, 0.0000E+00", I = 10, SOLUTIONTIME = 0.000000E+00
ZONETYPE = ORDERED
DATAPACKING = BLOCK
STRANDID = 3
 1.2700000000000E-03  1.3377333333333E-03  1.4054666666667E-03  1.4732000000000E-03  1.5409333333333E-03  1.6086666666667E-03  1.6764000000000E-03  1.7441333333333E-03  1.8118666666667E-03  1.8796000000000E-03 
 0.0000000000000E+00  0.0000000000000E+00  0.0000000000000E+00  0.0000000000000E+00  0.0000000000000E+00  0.0000000000000E+00  0.0000000000000E+00  0.0000000000000E+00  0.0000000000000E+00  0.0000000000000E+00 
 9.2000000000000E-01  9.2000000000000E-01  9.2000000000000E-01  9.2000000000000E-01  9.2000000000000E-01  9.2000000000000E-01  9.2000000000000E-01  9.2000000000000E-01  9.2000000000000E-01  9.2000000000000E-01 
 4.0000000000000E-02  4.0000000000000E-02  4.0000000000000E-02  4.0000000000000E-02  4.0000000000000E-02  4.0000000000000E-02  4.0000000000000E-02  4.0000000000000E-02  4.0000000000000E-02  4.0000000000000E-02 
 4.0000000000000E-02  4.0000000000000E-02  4.0000000000000E-02  4.0000000000000E-02  4.0000000000000E-02  4.0000000000000E-02  4.0000000000000E-02  4.0000000000000E-02  4.0000000000000E-02  4.0000000000000E-02 
-7.0000000000000E-02 -7.0000000000000E-02 -7.0000000000000E-02 -7.0000000000000E-02 -7.0000000000000E-02 -7.0000000000000E-02 -7.0000000000000E-02 -7.0000000000000E-02 -7.0000000000000E-02 -7.0000000000000E-02 
 3.8000000000000E+00  3.8000000000000E+00  3.8000000000000E+00  3.8000000000000E+00  3.8000000000000E+00  3.8000000000000E+00  3.8000000000000E+00  3.8000000000000E+00  3.8000000000000E+00  3.8000000000000E+00 
 2.9815000000000E+02  2.9815000000000E+02  2.9815000000000E+02  2.9815000000000E+02  2.9815000000000E+02  2.9815000000000E+02  2.9815000000000E+02  2.9815000000000E+02  2.9815000000000E+02  2.9815000000000E+02 
 3.8700000000000E+00  3.8700000000000E+00  3.8700000000000E+00  3.8700000000000E+00  3.8700000000000E+00  3.8700000000000E+00  3.8700000000000E+00  3.8700000000000E+00  3.8700000000000E+00  3.8700000000000E+00 
 3.9714142713289E+00  3.9714142713289E+00  3.9714142713289E+00  3.9714142713289E+00  3.9714142713289E+00  3.9714142713289E+00  3.9714142713289E+00  3.9714142713289E+00  3.9714142713289E+00  3.9714142713289E+00 
-1.0141427132889E-01 -1.0141427132889E-01 -1.0141427132889E-01 -1.0141427132889E-01 -1.0141427132889E-01 -1.0141427132889E-01 -1.0141427132889E-01 -1.0141427132889E-01 -1.0141427132889E-01 -1.0141427132889E-01 
-2.3826357195711E-01 -4.7652714391422E-01 -4.7652714391423E-01 -4.7652714391422E-01 -4.7652714391423E-01 -4.7652714391423E-01 -4.7652714391422E-01 -4.7652714391423E-01 -4.7652714391422E-01 -2.3826357195711E-01 
-0.0000000000000E+00 -0.0000000000000E+00 -0.0000000000000E+00 -0.0000000000000E+00 -0.0000000000000E+00 -0.0000000000000E+00 -0.0000000000000E+00 -0.0000000000000E+00 -0.0000000000000E+00 -0.0000000000000E+00 
 2.3826357195711E-01  0.0000000000000E+00  0.0000000000000E+00  0.0000000000000E+00  0.0000000000000E+00  0.0000000000000E+00  0.0000000000000E+00  0.0000000000000E+00  0.0000000000000E+00  0.0000000000000E+00 
 0.0000000000000E+00 -0.0000000000000E+00 -0.0000000000000E+00 -0.0000000000000E+00 -0.0000000000000E+00 -0.0000000000000E+00 -0.0000000000000E+00 -0.0000000000000E+00 -0.0000000000000E+00  2.3826357195711E-01 
-0.0000000000000E+00 -0.0000000000000E+00 -0.0000000000000E+00 -0.0000000000000E+00 -0.0000000000000E+00 -0.0000000000000E+00 -0.0000000000000E+00 -0.0000000000000E+00 -0.0000000000000E+00 -0.0000000000000E+00 
 7.2440786946225E+03  1.4488157389245E+04  1.4488157389245E+04  1.4488157389245E+04  1.4488157389245E+04  1.4488157389245E+04  1.4488157389245E+04  1.4488157389245E+04  1.4488157389245E+04  7.2440786946225E+03 
 4.9259735123433E+04  9.8519470246865E+04  9.8519470246866E+04  9.8519470246865E+04  9.8519470246866E+04  9.8519470246866E+04  9.8519470246865E+04  9.8519470246866E+04  9.8519470246865E+04  4.9259735123433E+04 
 5.6503813818055E+04  1.1300762763611E+05  1.1300762763611E+05  1.1300762763611E+05  1.1300762763611E+05  1.1300762763611E+05  1.1300762763611E+05  1.1300762763611E+05  1.1300762763611E+05  5.6503813818055E+04 
 3.5000000000000E-01  3.5000000000000E-01  3.5000000000000E-01  3.5000000000000E-01  3.5000000000000E-01  3.5000000000000E-01  3.5000000000000E-01  3.5000000000000E-01  3.5000000000000E-01  3.5000000000000E-01 
 6.6040000000000E+00  1.3208000000000E+01  1.3208000000000E+01  1.3208000000000E+01  1.3208000000000E+01  1.3208000000000E+01  1.3208000000000E+01  1.3208000000000E+01  1.3208000000000E+01  6.6040000000000E+00 
-3.6078675341780E-02 -3.6078675341780E-02 -3.6078675341780E-02 -3.6078675341780E-02 -3.6078675341780E-02 -3.6078675341780E-02 -3.6078675341780E-02 -3.6078675341780E-02 -3.6078675341780E-02 -3.6078675341780E-02 
 3.3866666666667E-05  6.7733333333333E-05  6.7733333333334E-05  6.7733333333333E-05  6.7733333333334E-05  6.7733333333334E-05  6.7733333333333E-05  6.7733333333334E-05  6.7733333333333E-05  3.3866666666667E-05 
 2.6603001364256E+01  2.6603001364256E+01  2.6603001364256E+01  2.6603001364256E+01  2.6603001364256E+01  2.6603001364256E+01  2.6603001364256E+01  2.6603001364256E+01  2.6603001364256E+01  2.6603001364256E+01 
 1.7735334242838E+01  1.7735334242838E+01  1.7735334242838E+01  1.7735334242838E+01  1.7735334242838E+01  1.7735334242838E+01  1.7735334242838E+01  1.7735334242838E+01  1.7735334242838E+01  1.7735334242838E+01 
 0.0000000000000E+00  0.0000000000000E+00  0.0000000000000E+00  0.0000000000000E+00  0.0000000000000E+00  0.0000000000000E+00  0.0000000000000E+00  0.0000000000000E+00  0.0000000000000E+00  0.0000000000000E+00 
 0.0000000000000E+00  0.0000000000000E+00  0.0000000000000E+00  0.0000000000000E+00  0.0000000000000E+00  0.0000000000000E+00  0.0000000000000E+00  0.0000000000000E+00  0.0000000000000E+00  0.0000000000000E+00 
 0.0000000000000E+00  0.0000000000000E+00  0.0000000000000E+00  0.0000000000000E+00  0.0000000000000E+00  0.0000000000000E+00  0.0000000000000E+00  0.0000000000000E+00  0.0000000000000E+00  0.0000000000000E+00 
 0.0000000000000E+00  0.0000000000000E+00  0.0000000000000E+00  0.0000000000000E+00  0.0000000000000E+00  0.0000000000000E+00  0.0000000000000E+00  0.0000000000000E+00  0.0000000000000E+00  0.0000000000000E+00 
 0.0000000000000E+00  0.0000000000000E+00  0.0000000000000E+00  0.0000000000000E+00  0.0000000000000E+00  0.0000000000000E+00  0.0000000000000E+00  0.0000000000000E+00  0.0000000000000E+00  0.0000000000000E+00 
 0.0000000000000E+00  0.0000000000000E+00  0.0000000000000E+00  0.0000000000000E+00  0.0000000000000E+00  0.0000000000000E+00  0.0000000000000E+00  0.0000000000000E+00  0.0000000000000E+00  0.0000000000000E+00 
 0.0000000000000E+00  0.0000000000000E+00  0.0000000000000E+00  0.0000000000000E+00  0.0000000000000E+00  0.0000000000000E+00  0.0000000000000E+00  0.0000000000000E+00  0.0000000000000E+00  0.0000000000000E+00 
ZONE T = "CATH, 1.0000E-08", I = 10, SOLUTIONTIME = 1.000000E-08
ZONETYPE = ORDERED
DATAPACKING = BLOCK
STRANDID = 3
 1.2700000000000E-03  1.3377333333333E-03  1.4054666666667E-03  1.4732000000000E-03  1.5409333333333E-03  1.6086666666667E-03  1.6764000000000E-03  1.7441333333333E-03  1.8118666666667E-03  1.8796000000000E-03 
 1.9707912863863E-08  1.7391770648462E-08  1.5075345032086E-08  1.2758440446197E-08  1.0441587504089E-08  8.1231374028465E-09  5.8036202547558E-09  3.4828394705829E-09  1.1606010593487E-09 -1.4528312541488E-12 
 9.2000000000032E-01  9.2000000000090E-01  9.2000000000090E-01  9.2000000000090E-01  9.2000000000090E-01  9.2000000000090E-01  9.2000000000090E-01  9.2000000000090E-01  9.2000000000090E-01  9.2000000000090E-01 
 3.9999999999841E-02  3.9999999999551E-02  3.9999999999551E-02  3.9999999999551E-02  3.9999999999550E-02  3.9999999999550E-02  3.9999999999550E-02  3.9999999999550E-02  3.9999999999549E-02  3.9999999999549E-02 
 3.9999999999841E-02  3.9999999999551E-02  3.9999999999551E-02  3.9999999999551E-02  3.9999999999550E-02  3.9999999999550E-02  3.9999999999550E-02  3.9999999999550E-02  3.9999999999549E-02  3.9999999999549E-02 
 2.9171015018274E-02  2.9170807987609E-02  2.9170625285434E-02  2.9170466914728E-02  2.9170332880521E-02  2.9170223189903E-02  2.9170137852022E-02  2.9170076878087E-02  2.9170040281375E-02  2.9170028077213E-02 
 3.8001746600668E+00  3.8001725049567E+00  3.8001660394618E+00  3.8001552630547E+00  3.8001401748438E+00  3.8001207735731E+00  3.8000970576220E+00  3.8000690250043E+00  3.8000366733680E+00  3.8000000000000E+00 
 2.9815000103320E+02  2.9815000405526E+02  2.9815000420874E+02  2.9815000413493E+02  2.9815000422364E+02  2.9815000415233E+02  2.9815000413661E+02  2.9815000376582E+02  2.9814998663688E+02  2.9814916179911E+02 
 3.7710036450485E+00  3.7710016969691E+00  3.7709954141764E+00  3.7709847961400E+00  3.7709698419632E+00  3.7709505503832E+00  3.7709269197699E+00  3.7708989481262E+00  3.7708666330866E+00  3.7708299719228E+00 
 3.9714142704947E+00  3.9714142680552E+00  3.9714142679313E+00  3.9714142679909E+00  3.9714142679193E+00  3.9714142679768E+00  3.9714142679895E+00  3.9714142682888E+00  3.9714142821150E+00  3.9714149479122E+00 
-2.0041062544619E-01 -2.0041257108608E-01 -2.0041885375489E-01 -2.0042947185091E-01 -2.0044442595602E-01 -2.0046371759363E-01 -2.0048734821957E-01 -2.0051532016263E-01 -2.0054764902844E-01 -2.0058497598945E-01 
-1.6673997527417E+00 -3.3349268386573E+00 -3.3353349953517E+00 -3.3360248128304E+00 -3.3369966271346E+00 -3.3382506808126E+00 -3.3397874545271E+00 -3.3416073586285E+00 -3.3437066526145E+00 -1.6729379329962E+00 
 1.4706597761295E-07  1.2978391213771E-07  1.1249986434076E-07  9.5212242138497E-08  7.7919584336025E-08  6.0620428439359E-08  4.3313309511515E-08  2.5996760456465E-08  8.6693335811739E-09  8.6693335811739E-09 
 3.0046794831112E+01  2.6711941966387E+01  2.3376831685731E+01  2.0041172470602E+01  1.6704682515911E+01  1.3367079728920E+01  1.0028081655664E+01  6.6874053975829E+00  3.3447697216795E+00  0.0000000000000E+00 
 0.0000000000000E+00  3.3348425610833E+00  6.6699528406712E+00  1.0005612057351E+01  1.3342102013980E+01  1.6679704803062E+01  2.0018702878382E+01  2.3359379138499E+01  2.6702014816259E+01  3.0046795362841E+01 
 1.6673997527417E-08  3.3349268386573E-08  3.3353349953517E-08  3.3360248128304E-08  3.3369966271346E-08  3.3382506808126E-08  3.3397874545271E-08  3.3416073586285E-08  3.3437066526145E-08  1.6729379329962E-08 
 7.2440786946392E+03  1.4488157389278E+04  1.4488157389278E+04  1.4488157389278E+04  1.4488157389278E+04  1.4488157389278E+04  1.4488157389278E+04  1.4488157389278E+04  1.4488157389278E+04  7.2440786946392E+03 
 4.9259735123416E+04  9.8519470246832E+04  9.8519470246832E+04  9.8519470246832E+04  9.8519470246832E+04  9.8519470246832E+04  9.8519470246832E+04  9.8519470246832E+04  9.8519470246832E+04  4.9259735123416E+04 
 5.6503813818055E+04  1.1300762763611E+05  1.1300762763611E+05  1.1300762763611E+05  1.1300762763611E+05  1.1300762763611E+05  1.1300762763611E+05  1.1300762763611E+05  1.1300762763611E+05  5.6503813818055E+04 
 3.5000000000000E-01  3.5000000000000E-01  3.5000000000000E-01  3.5000000000000E-01  3.5000000000000E-01  3.5000000000000E-01  3.5000000000000E-01  3.5000000000000E-01  3.5000000000000E-01  3.5000000000000E-01 
 6.6040000000000E+00  1.3208000000000E+01  1.3208000000000E+01  1.3208000000000E+01  1.3208000000000E+01  1.3208000000000E+01  1.3208000000000E+01  1.3208000000000E+01  1.3208000000000E+01  6.6040000000000E+00 
-2.5248330598754E-01 -2.5249294659732E-01 -2.5252384883038E-01 -2.5257607607741E-01 -2.5264965378063E-01 -2.5274460030380E-01 -2.5286095203870E-01 -2.5299874005364E-01 -2.5315768114889E-01 -2.5332191595944E-01 
 3.3866666666667E-05  6.7733333333333E-05  6.7733333333334E-05  6.7733333333333E-05  6.7733333333334E-05  6.7733333333334E-05  6.7733333333333E-05  6.7733333333334E-05  6.7733333333333E-05  3.3866666666667E-05 
 2.6603001364262E+01  2.6603001364262E+01  2.6603001364262E+01  2.6603001364262E+01  2.6603001364262E+01  2.6603001364262E+01  2.6603001364262E+01  2.6603001364262E+01  2.6603001364262E+01  2.6603001364262E+01 
 1.7735334242833E+01  1.7735334242833E+01  1.7735334242833E+01  1.7735334242833E+01  1.7735334242833E+01  1.7735334242833E+01  1.7735334242833E+01  1.7735334242833E+01  1.7735334242833E+01  1.7735334242833E+01 
 2.1716042243290E-04  2.1717170005738E-04  2.1720756016730E-04  2.1726816945319E-04  2.1735355647251E-04  2.1746374631692E-04  2.1759878237231E-04  2.1775870609517E-04  2.1794328925738E-04  2.1811962128472E-04 
 2.1716042243290E+04  2.1717170005738E+04  2.1720756016730E+04  2.1726816945319E+04  2.1735355647251E+04  2.1746374631692E+04  2.1759878237231E+04  2.1775870609517E+04  2.1794328925738E+04  2.1811962128472E+04 
 8.6743184392900E-02  7.7148776588927E-02  5.9156839719427E-02  4.3558543031213E-02  3.0354056080568E-02  1.9544357867444E-02  1.1131238576796E-02  5.1173014390817E-03  1.5059659769314E-03  3.0142724701787E-04 
 5.3052281362892E-02  2.6527355973799E-01  9.0200637642223E-01  1.9634603736435E+00  3.4499887042652E+00  5.3620883031212E+00  7.7004002413625E+00  1.0465710156403E+01  1.3658946420358E+01  1.5362670980367E+01 
 2.1715902447824E+04  2.1716827583402E+04  2.1719794853513E+04  2.1724809926403E+04  2.1731875304490E+04  2.1740992999031E+04  2.1752166705751E+04  2.1765399782060E+04  2.1780668473351E+04  2.1796599156065E+04 
 9.8670657672036E+03  9.8675383187044E+03  9.8690553640442E+03  9.8716194584366E+03  9.8752318899234E+03  9.8798938248443E+03  9.8856072398044E+03  9.8923740557209E+03  9.9001846686550E+03  9.9084512339278E+03 
 1.1848836680621E+04  1.1849289264697E+04  1.1850739489469E+04  1.1853190467966E+04  1.1856643414567E+04  1.1861099174186E+04  1.1866559465947E+04  1.1873025726339E+04  1.1880483804696E+04  1.1888147922137E+04 
ZONE T = "CATH, 2.0000E-08", I = 10, SOLUTIONTIME = 2.000000E-08
ZONETYPE = ORDERED
DATAPACKING = BLOCK
STRANDID = 3
 1.2700000000000E-03  1.3377333333333E-03  1.4054666666667E-03  1.4732000000000E-03  1.5409333333333E-03  1.6086666666667E-03  1.6764000000000E-03  1.7441333333333E-03  1.8118666666667E-03  1.8796000000000E-03 
 1.9708026226021E-08  1.7391627016040E-08  1.5076033925933E-08  1.2759598500933E-08  1.0443214522644E-08  8.1248699073086E-09  5.8054579174539E-09  3.4847821035665E-09  1.1622909862960E-09  3.6320772807037E-13 
 9.2000000000064E-01  9.2000000000180E-01  9.2000000000180E-01  9.2000000000180E-01  9.2000000000180E-01  9.2000000000180E-01  9.2000000000180E-01  9.2000000000180E-01  9.2000000000180E-01  9.2000000000180E-01 
 3.9999999999682E-02  3.9999999999101E-02  3.9999999999101E-02  3.9999999999101E-02  3.9999999999101E-02  3.9999999999100E-02  3.9999999999100E-02  3.9999999999099E-02  3.9999999999099E-02  3.9999999999098E-02 
 3.9999999999682E-02  3.9999999999101E-02  3.9999999999101E-02  3.9999999999101E-02  3.9999999999101E-02  3.9999999999100E-02  3.9999999999100E-02  3.9999999999099E-02  3.9999999999099E-02  3.9999999999098E-02 
 2.9176396979727E-02  2.9176189926883E-02  2.9176007205228E-02  2.9175848817743E-02  2.9175714769461E-02  2.9175605067472E-02  2.9175519720928E-02  2.9175458741041E-02  2.9175422141093E-02  2.9175409936365E-02 
 3.8001746794512E+00  3.8001725241025E+00  3.8001660578906E+00  3.8001552802880E+00  3.8001401904028E+00  3.8001207869786E+00  3.8000970683942E+00  3.8000690326630E+00  3.8000366774325E+00  3.8000000000000E+00 
 2.9815000211270E+02  2.9815000829043E+02  2.9815000852937E+02  2.9815000851229E+02  2.9815000854376E+02  2.9815000849163E+02  2.9815000847187E+02  2.9815000700925E+02  2.9814995744353E+02  2.9814836191134E+02 
 3.7709982824715E+00  3.7709963341756E+00  3.7709900506854E+00  3.7709794314703E+00  3.7709644756333E+00  3.7709451819111E+00  3.7709215486733E+00  3.7708935739220E+00  3.7708612552914E+00  3.7708245900636E+00 
 3.9714142696232E+00  3.9714142646362E+00  3.9714142644434E+00  3.9714142644572E+00  3.9714142644318E+00  3.9714142644738E+00  3.9714142644898E+00  3.9714142656704E+00  3.9714143056791E+00  3.9714155935692E+00 
-2.0041598715173E-01 -2.0041793046065E-01 -2.0042421375795E-01 -2.0043483298689E-01 -2.0044978879845E-01 -2.0046908256272E-01 -2.0049271581647E-01 -2.0052069174842E-01 -2.0055305038770E-01 -2.0059100350559E-01 
-1.6675740579672E+00 -3.3352763123871E+00 -3.3356845797313E+00 -3.3363745610116E+00 -3.3373465697647E+00 -3.3386008991022E+00 -3.3401380034250E+00 -3.3419580106941E+00 -3.3440491440949E+00 -1.6730070230886E+00 
 1.4708186403224E-07  1.2979774813653E-07  1.1251178170708E-07  9.5222239711024E-08  7.7927660628190E-08  6.0626581442886E-08  4.3317536779921E-08  2.5999060586147E-08  8.6697478256281E-09  8.6697478256281E-09 
 3.0050009161214E+01  2.6714796947102E+01  2.3379316501258E+01  2.0043286930794E+01  1.6706426365288E+01  1.3368452630758E+01  1.0029083179581E+01  6.6880351726652E+00  3.3450315951054E+00  0.0000000000000E+00 
 0.0000000000000E+00  3.3352122142027E+00  6.6706926602304E+00  1.0006722230605E+01  1.3343582796043E+01  1.6681556530307E+01  2.0020925981667E+01  2.3361973988728E+01  2.6704977566108E+01  3.0050009161413E+01 
 3.3349738107089E-08  6.6702031510445E-08  6.6710195750831E-08  6.6723993738420E-08  6.6743431968993E-08  6.6768515799147E-08  6.6799254579521E-08  6.6835653693227E-08  6.6877557967093E-08  3.3459449560848E-08 
 7.2440786946558E+03  1.4488157389312E+04  1.4488157389312E+04  1.4488157389312E+04  1.4488157389312E+04  1.4488157389312E+04  1.4488157389312E+04  1.4488157389312E+04  1.4488157389312E+04  7.2440786946559E+03 
 4.9259735123400E+04  9.8519470246798E+04  9.8519470246799E+04  9.8519470246798E+04  9.8519470246799E+04  9.8519470246799E+04  9.8519470246798E+04  9.8519470246799E+04  9.8519470246798E+04  4.9259735123399E+04 
 5.6503813818055E+04  1.1300762763611E+05  1.1300762763611E+05  1.1300762763611E+05  1.1300762763611E+05  1.1300762763611E+05  1.1300762763611E+05  1.1300762763611E+05  1.1300762763611E+05  5.6503813818055E+04 
 3.5000000000000E-01  3.5000000000000E-01  3.5000000000000E-01  3.5000000000000E-01  3.5000000000000E-01  3.5000000000000E-01  3.5000000000000E-01  3.5000000000000E-01  3.5000000000000E-01  3.5000000000000E-01 
 6.6040000000000E+00  1.3208000000000E+01  1.3208000000000E+01  1.3208000000000E+01  1.3208000000000E+01  1.3208000000000E+01  1.3208000000000E+01  1.3208000000000E+01  1.3208000000000E+01  6.6040000000000E+00 
-2.5250969987389E-01 -2.5251940584397E-01 -2.5255031645452E-01 -2.5260255610324E-01 -2.5267614852852E-01 -2.5277111592233E-01 -2.5288749268814E-01 -2.5302528851409E-01 -2.5318361175764E-01 -2.5333237781475E-01 
 3.3866666666667E-05  6.7733333333333E-05  6.7733333333334E-05  6.7733333333333E-05  6.7733333333334E-05  6.7733333333334E-05  6.7733333333333E-05  6.7733333333334E-05  6.7733333333333E-05  3.3866666666667E-05 
 2.6603001364267E+01  2.6603001364267E+01  2.6603001364267E+01  2.6603001364267E+01  2.6603001364267E+01  2.6603001364267E+01  2.6603001364267E+01  2.6603001364267E+01  2.6603001364267E+01  2.6603001364267E+01 
 1.7735334242827E+01  1.7735334242827E+01  1.7735334242827E+01  1.7735334242827E+01  1.7735334242827E+01  1.7735334242827E+01  1.7735334242827E+01  1.7735334242827E+01  1.7735334242827E+01  1.7735334242827E+01 
 4.3434618699160E-04  4.3436879961158E-04  4.3444052941244E-04  4.3456176265596E-04  4.3473255498345E-04  4.3495295989879E-04  4.3522306245595E-04  4.3554292704481E-04  4.3591156986222E-04  4.3625083610228E-04 
 2.1718576455870E+04  2.1719709955420E+04  2.1723296924515E+04  2.1729359320276E+04  2.1737899851094E+04  2.1748921358188E+04  2.1762428008364E+04  2.1778422094963E+04  2.1796828060484E+04  2.1813121481755E+04 
 8.6761770169215E-02  7.7165272165208E-02  5.9169420094063E-02  4.3567738835055E-02  3.0360398371602E-02  1.9548378153929E-02  1.1133469086423E-02  5.1182755931755E-03  1.5062199237741E-03  3.0145562620583E-04 
 5.3064029484257E-02  2.6533238566053E-01  9.0220649478964E-01  1.9638961197455E+00  3.4507545578788E+00  5.3632789500646E+00  7.7021106386289E+00  1.0468035450577E+01  1.3661977447704E+01  1.5366076495392E+01 
 2.1718436630071E+04  2.1719367457763E+04  2.1722335548600E+04  2.1727351856418E+04  2.1734418736138E+04  2.1743538530859E+04  2.1754714764256E+04  2.1767948941237E+04  2.1783164576817E+04  2.1797755103804E+04 
 9.8683612492994E+03  9.8688362604922E+03  9.8703537289096E+03  9.8729184732143E+03  9.8765317183690E+03  9.8811947729387E+03  9.8869095400017E+03  9.8936771471388E+03  9.9014654010172E+03  9.9091581978467E+03 
 1.1850075380771E+04  1.1850531197270E+04  1.1851981819690E+04  1.1854433383204E+04  1.1857887017769E+04  1.1862343757921E+04  1.1867805224255E+04  1.1874271794099E+04  1.1881699175800E+04  1.1888596905957E+04 
ZONE T = "CATH, 3.0000E-08", I = 10, SOLUTIONTIME = 3.000000E-08
ZONETYPE = ORDERED
DATAPACKING = BLOCK
STRANDID = 3
 1.2700000000000E-03  1.3377333333333E-03  1.4054666666667E-03  1.4732000000000E-03  1.5409333333333E-03  1.6086666666667E-03  1.6764000000000E-03  1.7441333333333E-03  1.8118666666667E-03  1.8796000000000E-03 
 1.9714195550621E-08  1.7398279512486E-08  1.5082079870193E-08  1.2764674592172E-08  1.0447320619922E-08  8.1280058331970E-09  5.8083498751884E-09  3.4874301739862E-09  1.1654297956148E-09  3.8136811424319E-12 
 9.2000000000095E-01  9.2000000000270E-01  9.2000000000270E-01  9.2000000000270E-01  9.2000000000270E-01  9.2000000000270E-01  9.2000000000270E-01  9.2000000000270E-01  9.2000000000270E-01  9.2000000000271E-01 
 3.9999999999524E-02  3.9999999998652E-02  3.9999999998652E-02  3.9999999998651E-02  3.9999999998651E-02  3.9999999998650E-02  3.9999999998650E-02  3.9999999998649E-02  3.9999999998648E-02  3.9999999998647E-02 
 3.9999999999524E-02  3.9999999998652E-02  3.9999999998652E-02  3.9999999998651E-02  3.9999999998651E-02  3.9999999998650E-02  3.9999999998650E-02  3.9999999998649E-02  3.9999999998648E-02  3.9999999998647E-02 
 2.9181790273839E-02  2.9181583200062E-02  2.9181400460029E-02  2.9181242056721E-02  2.9181107995174E-02  2.9180998282481E-02  2.9180912927793E-02  2.9180851942326E-02  2.9180815339362E-02  2.9180803134110E-02 
 3.8001746977856E+00  3.8001725422110E+00  3.8001660753206E+00  3.8001552965864E+00  3.8001402051165E+00  3.8001207996543E+00  3.8000970785783E+00  3.8000690399012E+00  3.8000366812710E+00  3.8000000000000E+00 
 2.9815000321771E+02  2.9815001243565E+02  2.9815001289927E+02  2.9815001284148E+02  2.9815001286865E+02  2.9815001278661E+02  2.9815001270163E+02  2.9815000935943E+02  2.9814991361599E+02  2.9814759788000E+02 
 3.7709929075117E+00  3.7709909590110E+00  3.7709846748606E+00  3.7709740545297E+00  3.7709590971214E+00  3.7709398013719E+00  3.7709161656505E+00  3.7708881879589E+00  3.7708558659316E+00  3.7708191968659E+00 
 3.9714142687311E+00  3.9714142612899E+00  3.9714142609157E+00  3.9714142609623E+00  3.9714142609404E+00  3.9714142610066E+00  3.9714142610752E+00  3.9714142637730E+00  3.9714143410557E+00  3.9714162102829E+00 
-2.0042136121933E-01 -2.0042330227895E-01 -2.0042958605511E-01 -2.0044020643261E-01 -2.0045516381902E-01 -2.0047445963475E-01 -2.0049809542472E-01 -2.0052607581409E-01 -2.0055847512413E-01 -2.0059701341705E-01 
-1.6677487869804E+00 -3.3356266025578E+00 -3.3360350151349E+00 -3.3367251304956E+00 -3.3376973422132E+00 -3.3389519270627E+00 -3.3404893369982E+00 -3.3423092278525E+00 -3.3443885371078E+00 -1.6730812500242E+00 
 1.4709686557073E-07  1.2981080183897E-07  1.1252301941442E-07  9.5231660745567E-08  7.7935263927109E-08  6.0632365684108E-08  4.3321500376663E-08  2.6001204152416E-08  8.6701325858591E-09  8.6701325858591E-09 
 3.0053053156252E+01  2.6717491068066E+01  2.3381660259335E+01  2.0045280186680E+01  1.6708068950291E+01  1.3369744315443E+01  1.0030023683371E+01  6.6886244010292E+00  3.3452755185055E+00  0.0000000000000E+00 
 0.0000000000000E+00  3.3355620883436E+00  6.6713928970940E+00  1.0007772969860E+01  1.3344984206219E+01  1.6683308840921E+01  2.0023029472915E+01  2.3364428755439E+01  2.6707777637928E+01  3.0053053156323E+01 
 5.0027225976893E-08  1.0005829753602E-07  1.0007054590218E-07  1.0009124504338E-07  1.0012040539112E-07  1.0015803506977E-07  1.0020414794950E-07  1.0025874597175E-07  1.0032144333817E-07  5.0190262061090E-08 
 7.2440786946725E+03  1.4488157389345E+04  1.4488157389345E+04  1.4488157389345E+04  1.4488157389345E+04  1.4488157389345E+04  1.4488157389345E+04  1.4488157389345E+04  1.4488157389345E+04  7.2440786946727E+03 
 4.9259735123383E+04  9.8519470246765E+04  9.8519470246766E+04  9.8519470246765E+04  9.8519470246766E+04  9.8519470246766E+04  9.8519470246765E+04  9.8519470246765E+04  9.8519470246765E+04  4.9259735123383E+04 
 5.6503813818055E+04  1.1300762763611E+05  1.1300762763611E+05  1.1300762763611E+05  1.1300762763611E+05  1.1300762763611E+05  1.1300762763611E+05  1.1300762763611E+05  1.1300762763611E+05  5.6503813818055E+04 
 3.5000000000000E-01  3.5000000000000E-01  3.5000000000000E-01  3.5000000000000E-01  3.5000000000000E-01  3.5000000000000E-01  3.5000000000000E-01  3.5000000000000E-01  3.5000000000000E-01  3.5000000000000E-01 
 6.6040000000000E+00  1.3208000000000E+01  1.3208000000000E+01  1.3208000000000E+01  1.3208000000000E+01  1.3208000000000E+01  1.3208000000000E+01  1.3208000000000E+01  1.3208000000000E+01  6.6040000000000E+00 
-2.5253615793162E-01 -2.5254592690474E-01 -2.5257684851112E-01 -2.5262909831129E-01 -2.5270270610336E-01 -2.5279769284242E-01 -2.5291409274669E-01 -2.5305187975867E-01 -2.5320930777618E-01 -2.5334361750821E-01 
 3.3866666666667E-05  6.7733333333333E-05  6.7733333333334E-05  6.7733333333333E-05  6.7733333333334E-05  6.7733333333334E-05  6.7733333333333E-05  6.7733333333334E-05  6.7733333333333E-05  3.3866666666667E-05 
 2.6603001364272E+01  2.6603001364272E+01  2.6603001364272E+01  2.6603001364272E+01  2.6603001364272E+01  2.6603001364272E+01  2.6603001364272E+01  2.6603001364272E+01  2.6603001364272E+01  2.6603001364272E+01 
 1.7735334242822E+01  1.7735334242822E+01  1.7735334242822E+01  1.7735334242822E+01  1.7735334242822E+01  1.7735334242822E+01  1.7735334242822E+01  1.7735334242822E+01  1.7735334242822E+01  1.7735334242822E+01 
 6.5155735550710E-04  6.5159135842386E-04  6.5169896967640E-04  6.5188083944927E-04  6.5213705572000E-04  6.5246769933609E-04  6.5287289686300E-04  6.5335270464955E-04  6.5390464272382E-04  6.5439432218723E-04 
 2.1721116851550E+04  2.1722255881227E+04  2.1725844026396E+04  2.1731907679331E+04  2.1740450073655E+04  2.1751473943730E+04  2.1764983440705E+04  2.1780977760474E+04  2.1799307286160E+04  2.1814348608495E+04 
 8.6779313839026E-02  7.7180840170874E-02  5.9181287798750E-02  4.3576408684534E-02  3.0366373277387E-02  1.9552161333970E-02  1.1135564326884E-02  5.1191876598191E-03  1.5064565106057E-03  3.0148196788796E-04 
 5.3075150215139E-02  2.6538806998366E-01  9.0239592678268E-01  1.9643085803028E+00  3.4514794356646E+00  5.3644057886478E+00  7.7037291753426E+00  1.0470235432273E+01  1.3664842212169E+01  1.5369292907718E+01 
 2.1720976997086E+04  2.1721913312317E+04  2.1724882449181E+04  2.1729899794342E+04  2.1736968227846E+04  2.1746089985780E+04  2.1757268575965E+04  2.1770502405854E+04  2.1785640937492E+04  2.1798979014106E+04 
 9.8696599033072E+03  9.8701372862468E+03  9.8716552728807E+03  9.8742205802122E+03  9.8778346581587E+03  9.8824987695659E+03  9.8882148108618E+03  9.8949825829642E+03  9.9027381677058E+03  9.9098947428958E+03 
 1.1851317093779E+04  1.1851776026071E+04  1.1853227176300E+04  1.1855679214130E+04  1.1859133569687E+04  1.1863591216214E+04  1.1869053765103E+04  1.1875519822890E+04  1.1882902769786E+04  1.1889084271210E+04 
ZONE T = "CATH, 4.0000E-08", I = 10, SOLUTIONTIME = 4.000000E-08
ZONETYPE = ORDERED
DATAPACKING = BLOCK
STRANDID = 3
 1.2700000000000E-03  1.3377333333333E-03  1.4054666666667E-03  1.4732000000000E-03  1.5409333333333E-03  1.6086666666667E-03  1.6764000000000E-03  1.7441333333333E-03  1.8118666666667E-03  1.8796000000000E-03 
 1.9711471461509E-08  1.7394585224577E-08  1.5077415259610E-08  1.2760492389840E-08  1.0442894268387E-08  8.1247879848485E-09  5.8041610924284E-09  3.4826339564427E-09  1.1603998019738E-09 -1.6344347749584E-12 
 9.2000000000127E-01  9.2000000000360E-01  9.2000000000360E-01  9.2000000000360E-01  9.2000000000360E-01  9.2000000000360E-01  9.2000000000360E-01  9.2000000000360E-01  9.2000000000360E-01  9.2000000000361E-01 
 3.9999999999365E-02  3.9999999998202E-02  3.9999999998202E-02  3.9999999998202E-02  3.9999999998201E-02  3.9999999998201E-02  3.9999999998200E-02  3.9999999998199E-02  3.9999999998198E-02  3.9999999998197E-02 
 3.9999999999365E-02  3.9999999998202E-02  3.9999999998202E-02  3.9999999998202E-02  3.9999999998201E-02  3.9999999998201E-02  3.9999999998200E-02  3.9999999998199E-02  3.9999999998198E-02  3.9999999998197E-02 
 2.9187195559864E-02  2.9186988465099E-02  2.9186805706638E-02  2.9186647287465E-02  2.9186513212618E-02  2.9186403489188E-02  2.9186318126332E-02  2.9186257135266E-02  2.9186220529273E-02  2.9186208323460E-02 
 3.8001747161568E+00  3.8001725603559E+00  3.8001660927854E+00  3.8001553129171E+00  3.8001402198589E+00  3.8001208123540E+00  3.8000970887804E+00  3.8000690471508E+00  3.8000366851133E+00  3.8000000000000E+00 