TITLE = "Solution on Domain BulkDomain1D_2"
VARIABLES = "x [m]"  
"Vel_axial" 	"MF_sp(ECDMC)" 	"MF_sp(Li+)" 	"MF_sp(PF6-)" 	"Volt(Electroly)" 	"Volt(CathodeVo)" 	"Temperature" 	
"Potential Drop Electrode-Electrolyte [V]" 	"Surf_0 Equilibrium Potential Drop Electrode-Electrolyte [V]" 	"Overpotential_0 [V]" 	"Current Source [A/m^2]" 	"Li+ flux [kmol/m^2/s]" 	"Electrolyte Current [A/m^2]" 	"Electrode Current [A/m^2]" 	
"CV Capacity discharged [A-s/m^2]" 	"Depth of discharge in CV [A-s/m^2]" 	"CV Capacity remaining [A-s/m^2]" 	"Initial CV capacity [A-s/m^2]" 	"Porosity []" 	"Surface Area [m2/m2] (area per area)" 	"Specific current (per particle area) [A/m^2]" 	"Control volume thickness [m]" 	
"MoleDens LiCoO2 [kmol/m^3]" 	"MoleDens CoO2 [kmol/m^3]" 	"qHeat_accum [J/m3]" 	"qHeat_step [W/m3]" 	"Joule_Lyte [W/m3]" 	"Joule_Solid [W/m3]" 	"electrodHeat [W/m3]" 	"OverpotHeat [W/m3]" 	"deltaSHeat [W/m3]" 	

ZONE T = "CATH, 0.0000E+00", I = 10, SOLUTIONTIME = 0.000000E+00
ZONETYPE = ORDERED
DATAPACKING = BLOCK
STRANDID = 3
 1.2700000000000E-03  1.3377333333333E-03  1.4054666666667E-03  1.4732000000000E-03  1.5409333333333E-03  1.6086666666667E-03  1.6764000000000E-03  1.7441333333333E-03  1.8118666666667E-03  1.8796000000000E-03 
 0.0000000000000E+00  0.0000000000000E+00  0.0000000000000E+00  0.0000000000000E+00  0.0000000000000E+00  0.0000000000000E+00  0.0000000000000E+00  0.0000000000000E+00  0.0000000000000E+00  0.0000000000000E+00 
 9.2000000000000E-01  9.2000000000000E-01  9.2000000000000E-01  9.2000000000000E-01  9.2000000000000E-01  9.2000000000000E-01  9.2000000000000E-01  9.2000000000000E-01  9.2000000000000E-01  9.2000000000000E-01 
 4.0000000000000E-02  4.0000000000000E-02  4.0000000000000E-02  4.0000000000000E-02  4.0000000000000E-02  4.0000000000000E-02  4.0000000000000E-02  4.0000000000000E-02  4.0000000000000E-02  4.0000000000000E-02 
 4.0000000000000E-02  4.0000000000000E-02  4.0000000000000E-02  4.0000000000000E-02  4.0000000000000E-02  4.0000000000000E-02  4.0000000000000E-02  4.0000000000000E-02  4.0000000000000E-02  4.0000000000000E-02 
-7.0000000000000E-02 -7.0000000000000E-02 -7.0000000000000E-02 -7.0000000000000E-02 -7.0000000000000E-02 -7.0000000000000E-02 -7.0000000000000E-02 -7.0000000000000E-02 -7.0000000000000E-02 -7.0000000000000E-02 
 3.8000000000000E+00  3.8000000000000E+00  3.8000000000000E+00  3.8000000000000E+00  3.8000000000000E+00  3.8000000000000E+00  3.8000000000000E+00  3.8000000000000E+00  3.8000000000000E+00  3.8000000000000E+00 
 2.9815000000000E+02  2.9815000000000E+02  2.9815000000000E+02  2.9815000000000E+02  2.9815000000000E+02  2.9815000000000E+02  2.9815000000000E+02  2.9815000000000E+02  2.9815000000000E+02  2.9815000000000E+02 
 3.8700000000000E+00  3.8700000000000E+00  3.8700000000000E+00  3.8700000000000E+00  3.8700000000000E+00  3.8700000000000E+00  3.8700000000000E+00  3.8700000000000E+00  3.8700000000000E+00  3.8700000000000E+00 
 3.9714218047884E+00  3.9714218047884E+00  3.9714218047884E+00  3.9714218047884E+00  3.9714218047884E+00  3.9714218047884E+00  3.9714218047884E+00  3.9714218047884E+00  3.9714218047884E+00  3.9714218047884E+00 
-1.0142180478844E-01 -1.0142180478844E-01 -1.0142180478844E-01 -1.0142180478844E-01 -1.0142180478844E-01 -1.0142180478844E-01 -1.0142180478844E-01 -1.0142180478844E-01 -1.0142180478844E-01 -1.0142180478844E-01 
-2.3829988127905E-01 -4.7659976255810E-01 -4.7659976255810E-01 -4.7659976255810E-01 -4.7659976255810E-01 -4.7659976255810E-01 -4.7659976255810E-01 -4.7659976255810E-01 -4.7659976255810E-01 -2.3829988127905E-01 
-0.0000000000000E+00 -0.0000000000000E+00 -0.0000000000000E+00 -0.0000000000000E+00 -0.0000000000000E+00 -0.0000000000000E+00 -0.0000000000000E+00 -0.0000000000000E+00 -0.0000000000000E+00 -0.0000000000000E+00 
 2.3829988127905E-01  0.0000000000000E+00  0.0000000000000E+00  0.0000000000000E+00  0.0000000000000E+00  0.0000000000000E+00  0.0000000000000E+00  0.0000000000000E+00  0.0000000000000E+00  0.0000000000000E+00 
 0.0000000000000E+00 -0.0000000000000E+00 -0.0000000000000E+00 -0.0000000000000E+00 -0.0000000000000E+00 -0.0000000000000E+00 -0.0000000000000E+00 -0.0000000000000E+00 -0.0000000000000E+00  2.3829988127905E-01 
-0.0000000000000E+00 -0.0000000000000E+00 -0.0000000000000E+00 -0.0000000000000E+00 -0.0000000000000E+00 -0.0000000000000E+00 -0.0000000000000E+00 -0.0000000000000E+00 -0.0000000000000E+00 -0.0000000000000E+00 
 7.2440786946225E+03  1.4488157389245E+04  1.4488157389245E+04  1.4488157389245E+04  1.4488157389245E+04  1.4488157389245E+04  1.4488157389245E+04  1.4488157389245E+04  1.4488157389245E+04  7.2440786946225E+03 
 4.9259735123433E+04  9.8519470246865E+04  9.8519470246866E+04  9.8519470246865E+04  9.8519470246866E+04  9.8519470246866E+04  9.8519470246865E+04  9.8519470246866E+04  9.8519470246865E+04  4.9259735123433E+04 
 5.6503813818055E+04  1.1300762763611E+05  1.1300762763611E+05  1.1300762763611E+05  1.1300762763611E+05  1.1300762763611E+05  1.1300762763611E+05  1.1300762763611E+05  1.1300762763611E+05  5.6503813818055E+04 
 3.5000000000000E-01  3.5000000000000E-01  3.5000000000000E-01  3.5000000000000E-01  3.5000000000000E-01  3.5000000000000E-01  3.5000000000000E-01  3.5000000000000E-01  3.5000000000000E-01  3.5000000000000E-01 
 6.6040000000000E+00  1.3208000000000E+01  1.3208000000000E+01  1.3208000000000E+01  1.3208000000000E+01  1.3208000000000E+01  1.3208000000000E+01  1.3208000000000E+01  1.3208000000000E+01  6.6040000000000E+00 
-3.6084173422024E-02 -3.6084173422024E-02 -3.6084173422024E-02 -3.6084173422024E-02 -3.6084173422024E-02 -3.6084173422024E-02 -3.6084173422024E-02 -3.6084173422024E-02 -3.6084173422024E-02 -3.6084173422024E-02 
 3.3866666666667E-05  6.7733333333333E-05  6.7733333333334E-05  6.7733333333333E-05  6.7733333333334E-05  6.7733333333334E-05  6.7733333333333E-05  6.7733333333334E-05  6.7733333333333E-05  3.3866666666667E-05 
 2.6603001364256E+01  2.6603001364256E+01  2.6603001364256E+01  2.6603001364256E+01  2.6603001364256E+01  2.6603001364256E+01  2.6603001364256E+01  2.6603001364256E+01  2.6603001364256E+01  2.6603001364256E+01 
 1.7735334242838E+01  1.7735334242838E+01  1.7735334242838E+01  1.7735334242838E+01  1.7735334242838E+01  1.7735334242838E+01  1.7735334242838E+01  1.7735334242838E+01  1.7735334242838E+01  1.7735334242838E+01 
 0.0000000000000E+00  0.0000000000000E+00  0.0000000000000E+00  0.0000000000000E+00  0.0000000000000E+00  0.0000000000000E+00  0.0000000000000E+00  0.0000000000000E+00  0.0000000000000E+00  0.0000000000000E+00 
 0.0000000000000E+00  0.0000000000000E+00  0.0000000000000E+00  0.0000000000000E+00  0.0000000000000E+00  0.0000000000000E+00  0.0000000000000E+00  0.0000000000000E+00  0.0000000000000E+00  0.0000000000000E+00 
 0.0000000000000E+00  0.0000000000000E+00  0.0000000000000E+00  0.0000000000000E+00  0.0000000000000E+00  0.0000000000000E+00  0.0000000000000E+00  0.0000000000000E+00  0.0000000000000E+00  0.0000000000000E+00 
 0.0000000000000E+00  0.0000000000000E+00  0.0000000000000E+00  0.0000000000000E+00  0.0000000000000E+00  0.0000000000000E+00  0.0000000000000E+00  0.0000000000000E+00  0.0000000000000E+00  0.0000000000000E+00 
 0.0000000000000E+00  0.0000000000000E+00  0.0000000000000E+00  0.0000000000000E+00  0.0000000000000E+00  0.0000000000000E+00  0.0000000000000E+00  0.0000000000000E+00  0.0000000000000E+00  0.0000000000000E+00 
 0.0000000000000E+00  0.0000000000000E+00  0.0000000000000E+00  0.0000000000000E+00  0.0000000000000E+00  0.0000000000000E+00  0.0000000000000E+00  0.0000000000000E+00  0.0000000000000E+00  0.0000000000000E+00 
 0.0000000000000E+00  0.0000000000000E+00  0.0000000000000E+00  0.0000000000000E+00  0.0000000000000E+00  0.0000000000000E+00  0.0000000000000E+00  0.0000000000000E+00  0.0000000000000E+00  0.0000000000000E+00 
ZONE T = "CATH, 1.0000E-08", I = 10, SOLUTIONTIME = 1.000000E-08
ZONETYPE = ORDERED
DATAPACKING = BLOCK
STRANDID = 3
 1.2700000000000E-03  1.3377333333333E-03  1.4054666666667E-03  1.4732000000000E-03  1.5409333333333E-03  1.6086666666667E-03  1.6764000000000E-03  1.7441333333333E-03  1.8118666666667E-03  1.8796000000000E-03 
 1.9706850409482E-08  1.7390705044986E-08  1.5074276287644E-08  1.2757368533042E-08  1.0439422811536E-08  8.1209695106858E-09  5.8014491511061E-09  3.4810283343291E-09  1.1587866658693E-09 -3.2688693789303E-12 
 9.2000000000032E-01  9.2000000000090E-01  9.2000000000090E-01  9.2000000000090E-01  9.2000000000090E-01  9.2000000000090E-01  9.2000000000090E-01  9.2000000000090E-01  9.2000000000090E-01  9.2000000000090E-01 
 3.9999999999841E-02  3.9999999999551E-02  3.9999999999551E-02  3.9999999999551E-02  3.9999999999550E-02  3.9999999999550E-02  3.9999999999550E-02  3.9999999999550E-02  3.9999999999549E-02  3.9999999999549E-02 
 3.9999999999841E-02  3.9999999999551E-02  3.9999999999551E-02  3.9999999999551E-02  3.9999999999550E-02  3.9999999999550E-02  3.9999999999550E-02  3.9999999999550E-02  3.9999999999549E-02  3.9999999999549E-02 
 2.9163482125156E-02  2.9163275094216E-02  2.9163092391789E-02  2.9162934020853E-02  2.9162799986469E-02  2.9162690295694E-02  2.9162604957687E-02  2.9162543983673E-02  2.9162507386901E-02  2.9162495182734E-02 
 3.8001746603056E+00  3.8001725051925E+00  3.8001660396889E+00  3.8001552632671E+00  3.8001401750357E+00  3.8001207737386E+00  3.8000970577551E+00  3.8000690250991E+00  3.8000366734184E+00  3.8000000000000E+00 
 2.9815000104129E+02  2.9815000409442E+02  2.9815000417733E+02  2.9815000420525E+02  2.9815000415709E+02  2.9815000423987E+02  2.9815000418254E+02  2.9815000384489E+02  2.9814998665978E+02  2.9814916183472E+02 
 3.7710111781804E+00  3.7710092300983E+00  3.7710029472971E+00  3.7709923292463E+00  3.7709773750492E+00  3.7709580834429E+00  3.7709344527974E+00  3.7709064811154E+00  3.7708741660315E+00  3.7708375048173E+00 
 3.9714218039477E+00  3.9714218014831E+00  3.9714218014162E+00  3.9714218013936E+00  3.9714218014325E+00  3.9714218013657E+00  3.9714218014120E+00  3.9714218016845E+00  3.9714218155561E+00  3.9714224813430E+00 
-2.0041062576732E-01 -2.0041257138478E-01 -2.0041885411909E-01 -2.0042947214739E-01 -2.0044442638334E-01 -2.0046371792281E-01 -2.0048734861457E-01 -2.0051532056914E-01 -2.0054764952460E-01 -2.0058497652578E-01 
-1.6673997644547E+00 -3.3349268704839E+00 -3.3353350090423E+00 -3.3360248544155E+00 -3.3369966337768E+00 -3.3382507300216E+00 -3.3397874948152E+00 -3.3416074102258E+00 -3.3437066922117E+00 -1.6729379561389E+00 
 1.4706617344420E-07  1.2978409106024E-07  1.1250002765368E-07  9.5212368236975E-08  7.7919695639244E-08  6.0620517775536E-08  4.3313365989890E-08  2.5996802492291E-08  8.6693378439986E-09  8.6693378439986E-09 
 3.0046832632511E+01  2.6711978124350E+01  2.3376864706434E+01  2.0041200394558E+01  1.6704705421693E+01  1.3367099087961E+01  1.0028095724630E+01  6.6874149027587E+00  3.3447741888204E+00  0.0000000000000E+00 
 0.0000000000000E+00  3.3348470907738E+00  6.6699618995369E+00  1.0005625659479E+01  1.3342120170021E+01  1.6679727535522E+01  2.0018730227288E+01  2.3359411132713E+01  2.6702051488937E+01  3.0046834404164E+01 
 1.6673997644547E-08  3.3349268704839E-08  3.3353350090423E-08  3.3360248544155E-08  3.3369966337768E-08  3.3382507300216E-08  3.3397874948152E-08  3.3416074102258E-08  3.3437066922117E-08  1.6729379561389E-08 
 7.2440786946392E+03  1.4488157389278E+04  1.4488157389278E+04  1.4488157389278E+04  1.4488157389278E+04  1.4488157389278E+04  1.4488157389278E+04  1.4488157389278E+04  1.4488157389278E+04  7.2440786946392E+03 
 4.9259735123416E+04  9.8519470246832E+04  9.8519470246832E+04  9.8519470246832E+04  9.8519470246832E+04  9.8519470246832E+04  9.8519470246832E+04  9.8519470246832E+04  9.8519470246832E+04  4.9259735123416E+04 
 5.6503813818055E+04  1.1300762763611E+05  1.1300762763611E+05  1.1300762763611E+05  1.1300762763611E+05  1.1300762763611E+05  1.1300762763611E+05  1.1300762763611E+05  1.1300762763611E+05  5.6503813818055E+04 
 3.5000000000000E-01  3.5000000000000E-01  3.5000000000000E-01  3.5000000000000E-01  3.5000000000000E-01  3.5000000000000E-01  3.5000000000000E-01  3.5000000000000E-01  3.5000000000000E-01  3.5000000000000E-01 
 6.6040000000000E+00  1.3208000000000E+01  1.3208000000000E+01  1.3208000000000E+01  1.3208000000000E+01  1.3208000000000E+01  1.3208000000000E+01  1.3208000000000E+01  1.3208000000000E+01  6.6040000000000E+00 
-2.5248330776116E-01 -2.5249294900696E-01 -2.5252384986692E-01 -2.5257607922588E-01 -2.5264965428353E-01 -2.5274460402949E-01 -2.5286095508898E-01 -2.5299874396016E-01 -2.5315768414686E-01 -2.5332191946380E-01 
 3.3866666666667E-05  6.7733333333333E-05  6.7733333333334E-05  6.7733333333333E-05  6.7733333333334E-05  6.7733333333334E-05  6.7733333333333E-05  6.7733333333334E-05  6.7733333333333E-05  3.3866666666667E-05 
 2.6603001364262E+01  2.6603001364262E+01  2.6603001364262E+01  2.6603001364262E+01  2.6603001364262E+01  2.6603001364262E+01  2.6603001364262E+01  2.6603001364262E+01  2.6603001364262E+01  2.6603001364262E+01 
 1.7735334242833E+01  1.7735334242833E+01  1.7735334242833E+01  1.7735334242833E+01  1.7735334242833E+01  1.7735334242833E+01  1.7735334242833E+01  1.7735334242833E+01  1.7735334242833E+01  1.7735334242833E+01 
 2.1716042412446E-04  2.1717170230675E-04  2.1720756124790E-04  2.1726817239872E-04  2.1735355717549E-04  2.1746374987656E-04  2.1759878542586E-04  2.1775870998479E-04  2.1794329246892E-04  2.1811962500613E-04 
 2.1716042412446E+04  2.1717170230675E+04  2.1720756124790E+04  2.1726817239872E+04  2.1735355717549E+04  2.1746374987656E+04  2.1759878542586E+04  2.1775870998479E+04  2.1794329246892E+04  2.1811962500613E+04 
 8.6743415412444E-02  7.7148985229402E-02  5.9157006539033E-02  4.3558664871152E-02  3.0354139015892E-02  1.9544414373309E-02  1.1131270110215E-02  5.1173156339460E-03  1.5059705081859E-03  3.0142754347896E-04 
 5.3052425317289E-02  2.6527428054318E-01  9.0200882635385E-01  1.9634657129921E+00  3.4499980939335E+00  5.3621029207783E+00  7.7004212834298E+00  1.0465738828020E+01  1.3658983942063E+01  1.5362713232210E+01 
 2.1715902616605E+04  2.1716827807409E+04  2.1719794958957E+04  2.1724810215494E+04  2.1731875365316E+04  2.1740993340321E+04  2.1752166990032E+04  2.1765400142336E+04  2.1780668756979E+04  2.1796599485953E+04 
 9.8670658523270E+03  9.8675384275813E+03  9.8690554224876E+03  9.8716195960931E+03  9.8752319306323E+03  9.8798939867070E+03  9.8856073785323E+03  9.8923742285226E+03  9.9001848103895E+03  9.9084513974909E+03 
 1.1848836764278E+04  1.1849289379828E+04  1.1850739536470E+04  1.1853190619401E+04  1.1856643434684E+04  1.1861099353614E+04  1.1866559611500E+04  1.1873025913813E+04  1.1880483946590E+04  1.1888148088462E+04 
ZONE T = "CATH, 2.0000E-08", I = 10, SOLUTIONTIME = 2.000000E-08
ZONETYPE = ORDERED
DATAPACKING = BLOCK
STRANDID = 3
 1.2700000000000E-03  1.3377333333333E-03  1.4054666666667E-03  1.4732000000000E-03  1.5409333333333E-03  1.6086666666667E-03  1.6764000000000E-03  1.7441333333333E-03  1.8118666666667E-03  1.8796000000000E-03 
 1.9706755013305E-08  1.7390355803235E-08  1.5074762712643E-08  1.2758327276886E-08  1.0441216896838E-08  8.1228722797712E-09  5.8034602879567E-09  3.4827844548719E-09  1.1602933451440E-09 -1.6344347750563E-12 
 9.2000000000064E-01  9.2000000000180E-01  9.2000000000180E-01  9.2000000000180E-01  9.2000000000180E-01  9.2000000000180E-01  9.2000000000180E-01  9.2000000000180E-01  9.2000000000180E-01  9.2000000000180E-01 
 3.9999999999682E-02  3.9999999999101E-02  3.9999999999101E-02  3.9999999999101E-02  3.9999999999101E-02  3.9999999999100E-02  3.9999999999100E-02  3.9999999999099E-02  3.9999999999099E-02  3.9999999999098E-02 
 3.9999999999682E-02  3.9999999999101E-02  3.9999999999101E-02  3.9999999999101E-02  3.9999999999101E-02  3.9999999999100E-02  3.9999999999100E-02  3.9999999999099E-02  3.9999999999099E-02  3.9999999999098E-02 
 2.9168863506017E-02  2.9168656453174E-02  2.9168473731519E-02  2.9168315344033E-02  2.9168181295751E-02  2.9168071593762E-02  2.9167986247217E-02  2.9167925267331E-02  2.9167888667382E-02  2.9167876462655E-02 
 3.8001746794513E+00  3.8001725241026E+00  3.8001660578908E+00  3.8001552802881E+00  3.8001401904029E+00  3.8001207869787E+00  3.8000970683943E+00  3.8000690326631E+00  3.8000366774326E+00  3.8000000000000E+00 
 2.9815000215821E+02  2.9815000829442E+02  2.9815000853551E+02  2.9815000857424E+02  2.9815000847284E+02  2.9815000850453E+02  2.9815000848600E+02  2.9815000711690E+02  2.9814995740612E+02  2.9814836192945E+02 
 3.7710058159453E+00  3.7710038676494E+00  3.7709975841593E+00  3.7709869649441E+00  3.7709720091071E+00  3.7709527153849E+00  3.7709290821471E+00  3.7709011073958E+00  3.7708687887652E+00  3.7708321235373E+00 
 3.9714218030460E+00  3.9714217980926E+00  3.9714217978980E+00  3.9714217978667E+00  3.9714217979485E+00  3.9714217979230E+00  3.9714217979379E+00  3.9714217990430E+00  3.9714218391689E+00  3.9714231270142E+00 
-2.0041598710069E-01 -2.0041793044313E-01 -2.0042421373871E-01 -2.0043483292260E-01 -2.0044978884144E-01 -2.0046908253806E-01 -2.0049271579082E-01 -2.0052069164729E-01 -2.0055305040371E-01 -2.0059100347681E-01 
-1.6675740635307E+00 -3.3352763125153E+00 -3.3356845804285E+00 -3.3363745765017E+00 -3.3373465500419E+00 -3.3386009015962E+00 -3.3401380062469E+00 -3.3419580383391E+00 -3.3440491332333E+00 -1.6730070250342E+00 
 1.4708186413541E-07  1.2979774824859E-07  1.1251178180178E-07  9.5222239737548E-08  7.7927660748693E-08  6.0626581555971E-08  4.3317536874585E-08  2.5999060541188E-08  8.6697478357670E-09  8.6697478357670E-09 
 3.0050009187249E+01  2.6714796967588E+01  2.3379316521207E+01  2.0043286942771E+01  1.6706426379474E+01  1.3368452653577E+01  1.0029083199626E+01  6.6880351774610E+00  3.3450315917457E+00  0.0000000000000E+00 
 0.0000000000000E+00  3.3352122197001E+00  6.6706926662432E+00  1.0006722244692E+01  1.3343582808069E+01  1.6681556533914E+01  2.0020925987680E+01  2.3361974010031E+01  2.6704977595828E+01  3.0050009187410E+01 
 3.3349738279854E-08  6.6702031829993E-08  6.6710195894708E-08  6.6723994309171E-08  6.6743431838187E-08  6.6768516316178E-08  6.6799255010621E-08  6.6835654485650E-08  6.6877558254451E-08  3.3459449811732E-08 
 7.2440786946558E+03  1.4488157389312E+04  1.4488157389312E+04  1.4488157389312E+04  1.4488157389312E+04  1.4488157389312E+04  1.4488157389312E+04  1.4488157389312E+04  1.4488157389312E+04  7.2440786946559E+03 
 4.9259735123400E+04  9.8519470246798E+04  9.8519470246799E+04  9.8519470246798E+04  9.8519470246799E+04  9.8519470246799E+04  9.8519470246798E+04  9.8519470246799E+04  9.8519470246798E+04  4.9259735123399E+04 
 5.6503813818055E+04  1.1300762763611E+05  1.1300762763611E+05  1.1300762763611E+05  1.1300762763611E+05  1.1300762763611E+05  1.1300762763611E+05  1.1300762763611E+05  1.1300762763611E+05  5.6503813818055E+04 
 3.5000000000000E-01  3.5000000000000E-01  3.5000000000000E-01  3.5000000000000E-01  3.5000000000000E-01  3.5000000000000E-01  3.5000000000000E-01  3.5000000000000E-01  3.5000000000000E-01  3.5000000000000E-01 
 6.6040000000000E+00  1.3208000000000E+01  1.3208000000000E+01  1.3208000000000E+01  1.3208000000000E+01  1.3208000000000E+01  1.3208000000000E+01  1.3208000000000E+01  1.3208000000000E+01  6.6040000000000E+00 
-2.5250970071633E-01 -2.5251940585367E-01 -2.5255031650731E-01 -2.5260255727602E-01 -2.5267614703527E-01 -2.5277111611116E-01 -2.5288749290179E-01 -2.5302529060714E-01 -2.5318361093529E-01 -2.5333237810936E-01 
 3.3866666666667E-05  6.7733333333333E-05  6.7733333333334E-05  6.7733333333333E-05  6.7733333333334E-05  6.7733333333334E-05  6.7733333333333E-05  6.7733333333334E-05  6.7733333333333E-05  3.3866666666667E-05 
 2.6603001364267E+01  2.6603001364267E+01  2.6603001364267E+01  2.6603001364267E+01  2.6603001364267E+01  2.6603001364267E+01  2.6603001364267E+01  2.6603001364267E+01  2.6603001364267E+01  2.6603001364267E+01 
 1.7735334242827E+01  1.7735334242827E+01  1.7735334242827E+01  1.7735334242827E+01  1.7735334242827E+01  1.7735334242827E+01  1.7735334242827E+01  1.7735334242827E+01  1.7735334242827E+01  1.7735334242827E+01 
 4.3434618940643E-04  4.3436880186278E-04  4.3444053053220E-04  4.3456176661105E-04  4.3473255438610E-04  4.3495296361550E-04  4.3522306568810E-04  4.3554293274183E-04  4.3591157235482E-04  4.3625084007272E-04 
 2.1718576528197E+04  2.1719709955602E+04  2.1723296928430E+04  2.1729359421233E+04  2.1737899721061E+04  2.1748921373893E+04  2.1762428026224E+04  2.1778422275703E+04  2.1796827988590E+04  2.1813121506659E+04 
 8.6761770301578E-02  7.7165272287266E-02  5.9169420198198E-02  4.3567738892057E-02  3.0360398417733E-02  1.9548378219147E-02  1.1133469131468E-02  5.1182756058617E-03  1.5062199195934E-03  3.0145562690115E-04 
 5.3064029834124E-02  2.6533238636027E-01  9.0220649635321E-01  1.9638961256066E+00  3.4507545633902E+00  5.3632789524381E+00  7.7021106432998E+00  1.0468035470468E+01  1.3661977477633E+01  1.5366076521439E+01 
 2.1718436702397E+04  2.1719367457944E+04  2.1722335552513E+04  2.1727351957369E+04  2.1734418606100E+04  2.1743538546563E+04  2.1754714782111E+04  2.1767949121957E+04  2.1783164504893E+04  2.1797755128682E+04 
 9.8683612797099E+03  9.8688362600089E+03  9.8703537300248E+03  9.8729185158850E+03  9.8765316621193E+03  9.8811947791046E+03  9.8869095470896E+03  9.8936772239905E+03  9.9014653696476E+03  9.9091582079484E+03 
 1.1850075422687E+04  1.1850531197935E+04  1.1851981822488E+04  1.1854433441484E+04  1.1857886943980E+04  1.1862343767458E+04  1.1867805235022E+04  1.1874271897967E+04  1.1881699135245E+04  1.1888596920734E+04 
ZONE T = "CATH, 3.0000E-08", I = 10, SOLUTIONTIME = 3.000000E-08
ZONETYPE = ORDERED
DATAPACKING = BLOCK
STRANDID = 3
 1.2700000000000E-03  1.3377333333333E-03  1.4054666666667E-03  1.4732000000000E-03  1.5409333333333E-03  1.6086666666667E-03  1.6764000000000E-03  1.7441333333333E-03  1.8118666666667E-03  1.8796000000000E-03 
 1.9714013977674E-08  1.7398097931242E-08  1.5081898302902E-08  1.2764493015769E-08  1.0446412643369E-08  8.1274610559952E-09  5.8078050930849E-09  3.4868853608202E-09  1.1648849844225E-09  3.2688695499729E-12 
 9.2000000000095E-01  9.2000000000270E-01  9.2000000000270E-01  9.2000000000270E-01  9.2000000000270E-01  9.2000000000270E-01  9.2000000000270E-01  9.2000000000270E-01  9.2000000000270E-01  9.2000000000271E-01 
 3.9999999999524E-02  3.9999999998652E-02  3.9999999998652E-02  3.9999999998651E-02  3.9999999998651E-02  3.9999999998650E-02  3.9999999998650E-02  3.9999999998649E-02  3.9999999998648E-02  3.9999999998647E-02 
 3.9999999999524E-02  3.9999999998652E-02  3.9999999998652E-02  3.9999999998651E-02  3.9999999998651E-02  3.9999999998650E-02  3.9999999998650E-02  3.9999999998649E-02  3.9999999998648E-02  3.9999999998647E-02 
 2.9174256850239E-02  2.9174049776462E-02  2.9173867036428E-02  2.9173708633120E-02  2.9173574571573E-02  2.9173464858879E-02  2.9173379504191E-02  2.9173318518724E-02  2.9173281915760E-02  2.9173269710508E-02 
 3.8001746977857E+00  3.8001725422112E+00  3.8001660753207E+00  3.8001552965866E+00  3.8001402051167E+00  3.8001207996545E+00  3.8000970785784E+00  3.8000690399014E+00  3.8000366812710E+00  3.8000000000000E+00 
 2.9815000326075E+02  2.9815001247197E+02  2.9815001281465E+02  2.9815001288222E+02  2.9815001277672E+02  2.9815001282332E+02  2.9815001271947E+02  2.9815000951916E+02  2.9814991359649E+02  2.9814759787552E+02 
 3.7710004409355E+00  3.7709984924347E+00  3.7709922082843E+00  3.7709815879535E+00  3.7709666305451E+00  3.7709473347956E+00  3.7709236990742E+00  3.7708957213826E+00  3.7708633993553E+00  3.7708267302895E+00 
 3.9714218021559E+00  3.9714217947201E+00  3.9714217944435E+00  3.9714217943890E+00  3.9714217944741E+00  3.9714217944365E+00  3.9714217945204E+00  3.9714217971036E+00  3.9714218745310E+00  3.9714237437461E+00 
-2.0042136122035E-01 -2.0042330228541E-01 -2.0042958615921E-01 -2.0044020643553E-01 -2.0045516392904E-01 -2.0047445964092E-01 -2.0049809544613E-01 -2.0052607572097E-01 -2.0055847517576E-01 -2.0059701345661E-01 
-1.6677487938436E+00 -3.3356266145055E+00 -3.3360349950397E+00 -3.3367251436181E+00 -3.3376973201715E+00 -3.3389519391251E+00 -3.3404893440595E+00 -3.3423092725839E+00 -3.3443885342650E+00 -1.6730812506006E+00 
 1.4709686579760E-07  1.2981080201550E-07  1.1252301968058E-07  9.5231660951355E-08  7.7935264244411E-08  6.0632365939804E-08  4.3321500597894E-08  2.6001204141372E-08  8.6701325886724E-09  8.6701325886724E-09 
 3.0053053207847E+01  2.6717491106903E+01  2.3381660302048E+01  2.0045280232497E+01  1.6708069000762E+01  1.3369744371010E+01  1.0030023729387E+01  6.6886244213093E+00  3.3452755177113E+00  0.0000000000000E+00 
 0.0000000000000E+00  3.3355621010563E+00  6.6713929058555E+00  1.0007772975186E+01  1.3344984207078E+01  1.6683308836797E+01  2.0023029478240E+01  2.3364428786706E+01  2.6707777690154E+01  3.0053053207750E+01 
 5.0027226218290E-08  1.0005829797505E-07  1.0007054584510E-07  1.0009124574535E-07  1.0012040503990E-07  1.0015803570743E-07  1.0020414845122E-07  1.0025874721149E-07  1.0032144359710E-07  5.0190262317738E-08 
 7.2440786946725E+03  1.4488157389345E+04  1.4488157389345E+04  1.4488157389345E+04  1.4488157389345E+04  1.4488157389345E+04  1.4488157389345E+04  1.4488157389345E+04  1.4488157389345E+04  7.2440786946727E+03 
 4.9259735123383E+04  9.8519470246765E+04  9.8519470246766E+04  9.8519470246765E+04  9.8519470246766E+04  9.8519470246766E+04  9.8519470246765E+04  9.8519470246765E+04  9.8519470246765E+04  4.9259735123383E+04 
 5.6503813818055E+04  1.1300762763611E+05  1.1300762763611E+05  1.1300762763611E+05  1.1300762763611E+05  1.1300762763611E+05  1.1300762763611E+05  1.1300762763611E+05  1.1300762763611E+05  5.6503813818055E+04 
 3.5000000000000E-01  3.5000000000000E-01  3.5000000000000E-01  3.5000000000000E-01  3.5000000000000E-01  3.5000000000000E-01  3.5000000000000E-01  3.5000000000000E-01  3.5000000000000E-01  3.5000000000000E-01 
 6.6040000000000E+00  1.3208000000000E+01  1.3208000000000E+01  1.3208000000000E+01  1.3208000000000E+01  1.3208000000000E+01  1.3208000000000E+01  1.3208000000000E+01  1.3208000000000E+01  6.6040000000000E+00 
-2.5253615897087E-01 -2.5254592780932E-01 -2.5257684698968E-01 -2.5262909930482E-01 -2.5270270443455E-01 -2.5279769375568E-01 -2.5291409328131E-01 -2.5305188314536E-01 -2.5320930756094E-01 -2.5334361759549E-01 
 3.3866666666667E-05  6.7733333333333E-05  6.7733333333334E-05  6.7733333333333E-05  6.7733333333334E-05  6.7733333333334E-05  6.7733333333333E-05  6.7733333333334E-05  6.7733333333333E-05  3.3866666666667E-05 
 2.6603001364272E+01  2.6603001364272E+01  2.6603001364272E+01  2.6603001364272E+01  2.6603001364272E+01  2.6603001364272E+01  2.6603001364272E+01  2.6603001364272E+01  2.6603001364272E+01  2.6603001364272E+01 
 1.7735334242822E+01  1.7735334242822E+01  1.7735334242822E+01  1.7735334242822E+01  1.7735334242822E+01  1.7735334242822E+01  1.7735334242822E+01  1.7735334242822E+01  1.7735334242822E+01  1.7735334242822E+01 
 6.5155735883884E-04  6.5159136147530E-04  6.5169896949453E-04  6.5188084428174E-04  6.5213705369326E-04  6.5246770386064E-04  6.5287290057500E-04  6.5335271329828E-04  6.5390464504703E-04  6.5439432625051E-04 
 2.1721116943240E+04  2.1722255961253E+04  2.1725843896233E+04  2.1731907767068E+04  2.1740449930716E+04  2.1751474024515E+04  2.1764983488691E+04  2.1780978055646E+04  2.1799307269221E+04  2.1814348617780E+04 
 8.6779314124083E-02  7.7180840399540E-02  5.9181288005764E-02  4.3576408881334E-02  3.0366373452272E-02  1.9552161495785E-02  1.1135564429296E-02  5.1191876985451E-03  1.5064565098646E-03  3.0148196807148E-04 
 5.3075150652519E-02  2.6538807197379E-01  9.0239592839008E-01  1.9643085827416E+00  3.4514794354128E+00  5.3644057863948E+00  7.7037291796422E+00  1.0470235461577E+01  1.3664842265314E+01  1.5369292962796E+01 
 2.1720977088776E+04  2.1721913392340E+04  2.1724882319017E+04  2.1729899882077E+04  2.1736968084907E+04  2.1746090066567E+04  2.1757268623947E+04  2.1770502700996E+04  2.1785640920499E+04  2.1798979023335E+04 
 9.8696599439737E+03  9.8701373219180E+03  9.8716552185445E+03  9.8742206191889E+03  9.8778345983482E+03  9.8824988055716E+03  9.8882148328196E+03  9.8949827107975E+03  9.9027381618372E+03  9.9098947482643E+03 
 1.1851317144802E+04  1.1851776070422E+04  1.1853227100472E+04  1.1855679262888E+04  1.1859133486559E+04  1.1863591260995E+04  1.1869053791127E+04  1.1875519990199E+04  1.1882902758662E+04  1.1889084275071E+04 
ZONE T = "CATH, 4.0000E-08", I = 10, SOLUTIONTIME = 4.000000E-08
ZONETYPE = ORDERED
DATAPACKING = BLOCK
STRANDID = 3
 1.2700000000000E-03  1.3377333333333E-03  1.4054666666667E-03  1.4732000000000E-03  1.5409333333333E-03  1.6086666666667E-03  1.6764000000000E-03  1.7441333333333E-03  1.8118666666667E-03  1.8796000000000E-03 
 1.9713469112692E-08  1.7396582864740E-08  1.5079412917516E-08  1.2762490062868E-08  1.0444165530374E-08  8.1260592422750E-09  5.8054323392521E-09  3.4839051724380E-09  1.1616710288917E-09 -3.6320772784112E-13 
 9.2000000000127E-01  9.2000000000360E-01  9.2000000000360E-01  9.2000000000360E-01  9.2000000000360E-01  9.2000000000360E-01  9.2000000000360E-01  9.2000000000360E-01  9.2000000000360E-01  9.2000000000361E-01 
 3.9999999999365E-02  3.9999999998202E-02  3.9999999998202E-02  3.9999999998202E-02  3.9999999998201E-02  3.9999999998201E-02  3.9999999998200E-02  3.9999999998199E-02  3.9999999998198E-02  3.9999999998197E-02 
 3.9999999999365E-02  3.9999999998202E-02  3.9999999998202E-02  3.9999999998202E-02  3.9999999998201E-02  3.9999999998201E-02  3.9999999998200E-02  3.9999999998199E-02  3.9999999998198E-02  3.9999999998197E-02 
 2.9179662101999E-02  2.9179455007234E-02  2.9179272248773E-02  2.9179113829600E-02  2.9178979754752E-02  2.9178870031323E-02  2.9178784668466E-02  2.9178723677399E-02  2.9178687071407E-02  2.9178674865594E-02 
 3.8001747161568E+00  3.8001725603559E+00  3.8001660927853E+00  3.8001553129170E+00  3.8001402198589E+00  3.8001208123540E+00  3.8000970887805E+00  3.8000690471508E+00  3.8000366851133E+00  3.8000000000000E+00 