TITLE = "Solution on Domain BulkDomain1D_1"
VARIABLES = "x [m]"  
"Vel_axial" 	"MF_sp(ECDMC)" 	"MF_sp(Li+)" 	"MF_sp(PF6-)" 	"Volt(Electroly)" 	"Temperature" 	"Porosity []" 	"Control volume thickness [m]" 	"volFrac MgO(S) []" 	"qHeat_accum [J/m3]" 	"qHeat_step [W/m3]" 	"Joule_Lyte [W/m3]" 	"Joule_Solid [W/m3]" 	
ZONE T = "SEP , 0.0000E+00", I = 10, SOLUTIONTIME = 0.000000E+00
ZONETYPE = ORDERED
DATAPACKING = BLOCK
STRANDID = 2
 7.8740000000000E-04  8.4102222222222E-04  8.9464444444444E-04  9.4826666666667E-04  1.0018888888889E-03  1.0555111111111E-03  1.1091333333333E-03  1.1627555555556E-03  1.2163777777778E-03  1.2700000000000E-03 
 0.0000000000000E+00  0.0000000000000E+00  0.0000000000000E+00  0.0000000000000E+00  0.0000000000000E+00  0.0000000000000E+00  0.0000000000000E+00  0.0000000000000E+00  0.0000000000000E+00  0.0000000000000E+00 
 9.2000000000000E-01  9.2000000000000E-01  9.2000000000000E-01  9.2000000000000E-01  9.2000000000000E-01  9.2000000000000E-01  9.2000000000000E-01  9.2000000000000E-01  9.2000000000000E-01  9.2000000000000E-01 
 4.0000000000000E-02  4.0000000000000E-02  4.0000000000000E-02  4.0000000000000E-02  4.0000000000000E-02  4.0000000000000E-02  4.0000000000000E-02  4.0000000000000E-02  4.0000000000000E-02  4.0000000000000E-02 
 4.0000000000000E-02  4.0000000000000E-02  4.0000000000000E-02  4.0000000000000E-02  4.0000000000000E-02  4.0000000000000E-02  4.0000000000000E-02  4.0000000000000E-02  4.0000000000000E-02  4.0000000000000E-02 
-7.0000000000000E-02 -7.0000000000000E-02 -7.0000000000000E-02 -7.0000000000000E-02 -7.0000000000000E-02 -7.0000000000000E-02 -7.0000000000000E-02 -7.0000000000000E-02 -7.0000000000000E-02 -7.0000000000000E-02 
 2.9815000000000E+02  2.9815000000000E+02  2.9815000000000E+02  2.9815000000000E+02  2.9815000000000E+02  2.9815000000000E+02  2.9815000000000E+02  2.9815000000000E+02  2.9815000000000E+02  2.9815000000000E+02 
 8.0911499769706E-01  8.0911499769706E-01  8.0911499769706E-01  8.0911499769706E-01  8.0911499769706E-01  8.0911499769706E-01  8.0911499769706E-01  8.0911499769706E-01  8.0911499769706E-01  8.0911499769706E-01 
 2.6811111111111E-05  5.3622222222222E-05  5.3622222222222E-05  5.3622222222222E-05  5.3622222222222E-05  5.3622222222222E-05  5.3622222222222E-05  5.3622222222223E-05  5.3622222222222E-05  2.6811111111111E-05 
 1.9088500230294E-01  1.9088500230294E-01  1.9088500230294E-01  1.9088500230294E-01  1.9088500230294E-01  1.9088500230294E-01  1.9088500230294E-01  1.9088500230294E-01  1.9088500230294E-01  1.9088500230294E-01 
 0.0000000000000E+00  0.0000000000000E+00  0.0000000000000E+00  0.0000000000000E+00  0.0000000000000E+00  0.0000000000000E+00  0.0000000000000E+00  0.0000000000000E+00  0.0000000000000E+00  0.0000000000000E+00 
 0.0000000000000E+00  0.0000000000000E+00  0.0000000000000E+00  0.0000000000000E+00  0.0000000000000E+00  0.0000000000000E+00  0.0000000000000E+00  0.0000000000000E+00  0.0000000000000E+00  0.0000000000000E+00 
 0.0000000000000E+00  0.0000000000000E+00  0.0000000000000E+00  0.0000000000000E+00  0.0000000000000E+00  0.0000000000000E+00  0.0000000000000E+00  0.0000000000000E+00  0.0000000000000E+00  0.0000000000000E+00 
 0.0000000000000E+00  0.0000000000000E+00  0.0000000000000E+00  0.0000000000000E+00  0.0000000000000E+00  0.0000000000000E+00  0.0000000000000E+00  0.0000000000000E+00  0.0000000000000E+00  0.0000000000000E+00 
ZONE T = "SEP , 1.0000E-08", I = 10, SOLUTIONTIME = 1.000000E-08
ZONETYPE = ORDERED
DATAPACKING = BLOCK
STRANDID = 2
 7.8740000000000E-04  8.4102222222222E-04  8.9464444444444E-04  9.4826666666667E-04  1.0018888888889E-03  1.0555111111111E-03  1.1091333333333E-03  1.1627555555556E-03  1.2163777777778E-03  1.2700000000000E-03 
 2.0865060349706E-08  2.0865060349706E-08  2.0865060349706E-08  2.0865060349706E-08  2.0865060349706E-08  2.0865060349706E-08  2.0865060349706E-08  2.0865060349706E-08  2.0865060349706E-08  1.9707213486763E-08 
 9.1999999999971E-01  9.2000000000000E-01  9.2000000000000E-01  9.2000000000000E-01  9.2000000000000E-01  9.2000000000000E-01  9.2000000000000E-01  9.2000000000000E-01  9.2000000000000E-01  9.2000000000032E-01 
 4.0000000000144E-02  4.0000000000000E-02  4.0000000000000E-02  4.0000000000000E-02  4.0000000000000E-02  4.0000000000000E-02  4.0000000000000E-02  4.0000000000000E-02  4.0000000000000E-02  3.9999999999841E-02 
 4.0000000000144E-02  4.0000000000000E-02  4.0000000000000E-02  4.0000000000000E-02  4.0000000000000E-02  4.0000000000000E-02  4.0000000000000E-02  4.0000000000000E-02  4.0000000000000E-02  3.9999999999841E-02 
 2.9171459938172E-02  2.9171410568619E-02  2.9171361199060E-02  2.9171311829516E-02  2.9171262459958E-02  2.9171213090414E-02  2.9171163720855E-02  2.9171114351303E-02  2.9171064981744E-02  2.9171015612201E-02 
 2.9814999955381E+02  2.9814999999724E+02  2.9814999999764E+02  2.9814999999713E+02  2.9815000000090E+02  2.9814999999294E+02  2.9814999999166E+02  2.9814999999922E+02  2.9815000000984E+02  2.9815000103068E+02 
 8.0911499769706E-01  8.0911499769706E-01  8.0911499769706E-01  8.0911499769706E-01  8.0911499769706E-01  8.0911499769706E-01  8.0911499769706E-01  8.0911499769706E-01  8.0911499769706E-01  8.0911499769706E-01 
 2.6811111111111E-05  5.3622222222222E-05  5.3622222222222E-05  5.3622222222222E-05  5.3622222222222E-05  5.3622222222222E-05  5.3622222222222E-05  5.3622222222223E-05  5.3622222222222E-05  2.6811111111111E-05 
 1.9088500230294E-01  1.9088500230294E-01  1.9088500230294E-01  1.9088500230294E-01  1.9088500230294E-01  1.9088500230294E-01  1.9088500230294E-01  1.9088500230294E-01  1.9088500230294E-01  1.9088500230294E-01 
 2.7663873828341E-10  2.7663876988815E-10  2.7663871972493E-10  2.7663871439741E-10  2.7663871754704E-10  2.7663871970808E-10  2.7663876461701E-10  2.7663876735248E-10  2.7663871650435E-10  2.7663863237778E-10 
 2.7663873828341E-02  2.7663876988815E-02  2.7663871972493E-02  2.7663871439741E-02  2.7663871754704E-02  2.7663871970808E-02  2.7663876461701E-02  2.7663876735248E-02  2.7663871650435E-02  2.7663863237778E-02 
 2.7663873828341E-02  2.7663876988815E-02  2.7663871972493E-02  2.7663871439741E-02  2.7663871754704E-02  2.7663871970808E-02  2.7663876461701E-02  2.7663876735248E-02  2.7663871650435E-02  2.7663863237778E-02 
 0.0000000000000E+00  0.0000000000000E+00  0.0000000000000E+00  0.0000000000000E+00  0.0000000000000E+00  0.0000000000000E+00  0.0000000000000E+00  0.0000000000000E+00  0.0000000000000E+00  0.0000000000000E+00 
ZONE T = "SEP , 2.0000E-08", I = 10, SOLUTIONTIME = 2.000000E-08
ZONETYPE = ORDERED
DATAPACKING = BLOCK
STRANDID = 2
 7.8740000000000E-04  8.4102222222222E-04  8.9464444444444E-04  9.4826666666667E-04  1.0018888888889E-03  1.0555111111111E-03  1.1091333333333E-03  1.1627555555556E-03  1.2163777777778E-03  1.2700000000000E-03 
 2.0867089345195E-08  2.0865636514284E-08  2.0865636514284E-08  2.0865636514284E-08  2.0865636514284E-08  2.0865636514284E-08  2.0865636514284E-08  2.0865636514284E-08  2.0865636514284E-08  1.9706755003477E-08 
 9.1999999999942E-01  9.2000000000000E-01  9.2000000000000E-01  9.2000000000000E-01  9.2000000000000E-01  9.2000000000000E-01  9.2000000000000E-01  9.2000000000000E-01  9.2000000000000E-01  9.2000000000064E-01 
 4.0000000000288E-02  4.0000000000000E-02  4.0000000000000E-02  4.0000000000000E-02  4.0000000000000E-02  4.0000000000000E-02  4.0000000000000E-02  4.0000000000000E-02  4.0000000000000E-02  3.9999999999682E-02 
 4.0000000000288E-02  4.0000000000000E-02  4.0000000000000E-02  4.0000000000000E-02  4.0000000000000E-02  4.0000000000000E-02  4.0000000000000E-02  4.0000000000000E-02  4.0000000000000E-02  3.9999999999682E-02 
 2.9176841399758E-02  2.9176792024976E-02  2.9176742650193E-02  2.9176693275411E-02  2.9176643900628E-02  2.9176594525845E-02  2.9176545151063E-02  2.9176495776280E-02  2.9176446401498E-02  2.9176397026715E-02 
 2.9814999913429E+02  2.9814999998357E+02  2.9814999999729E+02  2.9814999999174E+02  2.9815000001147E+02  2.9814999999310E+02  2.9814999999718E+02  2.9814999999955E+02  2.9815000002940E+02  2.9815000210723E+02 
 8.0911499769706E-01  8.0911499769706E-01  8.0911499769706E-01  8.0911499769706E-01  8.0911499769706E-01  8.0911499769706E-01  8.0911499769706E-01  8.0911499769706E-01  8.0911499769706E-01  8.0911499769706E-01 
 2.6811111111111E-05  5.3622222222222E-05  5.3622222222222E-05  5.3622222222222E-05  5.3622222222222E-05  5.3622222222222E-05  5.3622222222222E-05  5.3622222222223E-05  5.3622222222222E-05  2.6811111111111E-05 
 1.9088500230294E-01  1.9088500230294E-01  1.9088500230294E-01  1.9088500230294E-01  1.9088500230294E-01  1.9088500230294E-01  1.9088500230294E-01  1.9088500230294E-01  1.9088500230294E-01  1.9088500230294E-01 
 5.5333608601926E-10  5.5333611781213E-10  5.5333606783515E-10  5.5333606250245E-10  5.5333606566792E-10  5.5333606783197E-10  5.5333611272326E-10  5.5333611546920E-10  5.5333606513507E-10  5.5333598151054E-10 
 2.7669734773585E-02  2.7669734792399E-02  2.7669734811022E-02  2.7669734810504E-02  2.7669734812088E-02  2.7669734812388E-02  2.7669734810626E-02  2.7669734811672E-02  2.7669734863072E-02  2.7669734913276E-02 
 2.7669734773585E-02  2.7669734792399E-02  2.7669734811022E-02  2.7669734810504E-02  2.7669734812088E-02  2.7669734812388E-02  2.7669734810626E-02  2.7669734811672E-02  2.7669734863072E-02  2.7669734913276E-02 
 0.0000000000000E+00  0.0000000000000E+00  0.0000000000000E+00  0.0000000000000E+00  0.0000000000000E+00  0.0000000000000E+00  0.0000000000000E+00  0.0000000000000E+00  0.0000000000000E+00  0.0000000000000E+00 
ZONE T = "SEP , 3.0000E-08", I = 10, SOLUTIONTIME = 3.000000E-08
ZONETYPE = ORDERED
DATAPACKING = BLOCK
STRANDID = 2
 7.8740000000000E-04  8.4102222222222E-04  8.9464444444444E-04  9.4826666666667E-04  1.0018888888889E-03  1.0555111111111E-03  1.1091333333333E-03  1.1627555555556E-03  1.2163777777778E-03  1.2700000000000E-03 
 2.0871200766620E-08  2.0872653597531E-08  2.0872653597531E-08  2.0872653597531E-08  2.0872653597531E-08  2.0872653597531E-08  2.0872653597531E-08  2.0872653597531E-08  2.0872653597531E-08  1.9715103581999E-08 
 9.1999999999914E-01  9.2000000000000E-01  9.2000000000000E-01  9.2000000000000E-01  9.2000000000000E-01  9.2000000000000E-01  9.2000000000000E-01  9.2000000000000E-01  9.2000000000000E-01  9.2000000000095E-01 
 4.0000000000432E-02  4.0000000000000E-02  4.0000000000000E-02  4.0000000000000E-02  4.0000000000000E-02  4.0000000000000E-02  4.0000000000000E-02  4.0000000000000E-02  4.0000000000000E-02  3.9999999999524E-02 
 4.0000000000432E-02  4.0000000000000E-02  4.0000000000000E-02  4.0000000000000E-02  4.0000000000000E-02  4.0000000000000E-02  4.0000000000000E-02  4.0000000000000E-02  4.0000000000000E-02  3.9999999999524E-02 
 2.9182234775013E-02  2.9182185395229E-02  2.9182136015445E-02  2.9182086635661E-02  2.9182037255877E-02  2.9181987876093E-02  2.9181938496309E-02  2.9181889116524E-02  2.9181839736740E-02  2.9181790356956E-02 
 2.9814999866903E+02  2.9814999997350E+02  2.9815000000695E+02  2.9814999998712E+02  2.9815000001557E+02  2.9814999999916E+02  2.9815000000236E+02  2.9815000000078E+02  2.9815000005417E+02  2.9815000323335E+02 
 8.0911499769706E-01  8.0911499769706E-01  8.0911499769706E-01  8.0911499769706E-01  8.0911499769706E-01  8.0911499769706E-01  8.0911499769706E-01  8.0911499769706E-01  8.0911499769706E-01  8.0911499769706E-01 
 2.6811111111111E-05  5.3622222222222E-05  5.3622222222222E-05  5.3622222222222E-05  5.3622222222222E-05  5.3622222222222E-05  5.3622222222222E-05  5.3622222222223E-05  5.3622222222222E-05  2.6811111111111E-05 
 1.9088500230294E-01  1.9088500230294E-01  1.9088500230294E-01  1.9088500230294E-01  1.9088500230294E-01  1.9088500230294E-01  1.9088500230294E-01  1.9088500230294E-01  1.9088500230294E-01  1.9088500230294E-01 
 8.3008949418472E-10  8.3008952628860E-10  8.3008947663891E-10  8.3008947132049E-10  8.3008947448116E-10  8.3008947664549E-10  8.3008952153947E-10  8.3008952429246E-10  8.3008947471203E-10  8.3008939183377E-10 
 2.7675340816546E-02  2.7675340847647E-02  2.7675340880376E-02  2.7675340881804E-02  2.7675340881325E-02  2.7675340881352E-02  2.7675340881621E-02  2.7675340882325E-02  2.7675340957696E-02  2.7675341032324E-02 
 2.7675340816546E-02  2.7675340847647E-02  2.7675340880376E-02  2.7675340881804E-02  2.7675340881325E-02  2.7675340881352E-02  2.7675340881621E-02  2.7675340882325E-02  2.7675340957696E-02  2.7675341032324E-02 
 0.0000000000000E+00  0.0000000000000E+00  0.0000000000000E+00  0.0000000000000E+00  0.0000000000000E+00  0.0000000000000E+00  0.0000000000000E+00  0.0000000000000E+00  0.0000000000000E+00  0.0000000000000E+00 
ZONE T = "SEP , 4.0000E-08", I = 10, SOLUTIONTIME = 4.000000E-08
ZONETYPE = ORDERED
DATAPACKING = BLOCK
STRANDID = 2
 7.8740000000000E-04  8.4102222222222E-04  8.9464444444444E-04  9.4826666666667E-04  1.0018888888889E-03  1.0555111111111E-03  1.1091333333333E-03  1.1627555555556E-03  1.2163777777778E-03  1.2700000000000E-03 
 2.0870777564192E-08  2.0870777564192E-08  2.0870777564192E-08  2.0870777564192E-08  2.0870777564192E-08  2.0870777564192E-08  2.0870777564192E-08  2.0870777564192E-08  2.0870777564192E-08  1.9713469138947E-08 
 9.1999999999885E-01  9.2000000000000E-01  9.2000000000000E-01  9.2000000000000E-01  9.2000000000000E-01  9.2000000000000E-01  9.2000000000000E-01  9.2000000000000E-01  9.2000000000000E-01  9.2000000000127E-01 
 4.0000000000576E-02  4.0000000000000E-02  4.0000000000000E-02  4.0000000000000E-02  4.0000000000000E-02  4.0000000000000E-02  4.0000000000000E-02  4.0000000000000E-02  4.0000000000000E-02  3.9999999999365E-02 
 4.0000000000576E-02  4.0000000000000E-02  4.0000000000000E-02  4.0000000000000E-02  4.0000000000000E-02  4.0000000000000E-02  4.0000000000000E-02  4.0000000000000E-02  4.0000000000000E-02  3.9999999999365E-02 
 2.9187640083981E-02  2.9187590699183E-02  2.9187541314384E-02  2.9187491929586E-02  2.9187442544787E-02  2.9187393159988E-02  2.9187343775190E-02  2.9187294390391E-02  2.9187245005592E-02  2.9187195620793E-02 
 2.9814999826980E+02  2.9814999997312E+02  2.9815000000458E+02  2.9814999998869E+02  2.9815000001883E+02  2.9815000000541E+02  2.9815000000732E+02  2.9815000000356E+02  2.9815000009675E+02  2.9815000436759E+02 
 8.0911499769706E-01  8.0911499769706E-01  8.0911499769706E-01  8.0911499769706E-01  8.0911499769706E-01  8.0911499769706E-01  8.0911499769706E-01  8.0911499769706E-01  8.0911499769706E-01  8.0911499769706E-01 
 2.6811111111111E-05  5.3622222222222E-05  5.3622222222222E-05  5.3622222222222E-05  5.3622222222222E-05  5.3622222222222E-05  5.3622222222222E-05  5.3622222222223E-05  5.3622222222222E-05  2.6811111111111E-05 
 1.9088500230294E-01  1.9088500230294E-01  1.9088500230294E-01  1.9088500230294E-01  1.9088500230294E-01  1.9088500230294E-01  1.9088500230294E-01  1.9088500230294E-01  1.9088500230294E-01  1.9088500230294E-01 
 1.1068991136907E-09  1.1068991462077E-09  1.1068990969870E-09  1.1068990916811E-09  1.1068990948346E-09  1.1068990969977E-09  1.1068991418948E-09  1.1068991446663E-09  1.1068990961125E-09  1.1068990142427E-09 
 2.7680961950602E-02  2.7680961991914E-02  2.7680962034809E-02  2.7680962036061E-02  2.7680962035342E-02  2.7680962035222E-02  2.7680962035532E-02  2.7680962037388E-02  2.7680962140047E-02  2.7680962240892E-02 
 2.7680961950602E-02  2.7680961991914E-02  2.7680962034809E-02  2.7680962036061E-02  2.7680962035342E-02  2.7680962035222E-02  2.7680962035532E-02  2.7680962037388E-02  2.7680962140047E-02  2.7680962240892E-02 
 0.0000000000000E+00  0.0000000000000E+00  0.0000000000000E+00  0.0000000000000E+00  0.0000000000000E+00  0.0000000000000E+00  0.0000000000000E+00  0.0000000000000E+00  0.0000000000000E+00  0.0000000000000E+00 
ZONE T = "SEP , 5.5000E-08", I = 10, SOLUTIONTIME = 5.500000E-08
ZONETYPE = ORDERED
DATAPACKING = BLOCK
STRANDID = 2
 7.8740000000000E-04  8.4102222222222E-04  8.9464444444444E-04  9.4826666666667E-04  1.0018888888889E-03  1.0555111111111E-03  1.1091333333333E-03  1.1627555555556E-03  1.2163777777778E-03  1.2700000000000E-03 
 2.0874808214840E-08  2.0874808214840E-08  2.0874808214840E-08  2.0874808214840E-08  2.0874808214840E-08  2.0874808214840E-08  2.0874808214840E-08  2.0874808214840E-08  2.0874808214840E-08  1.9715803797844E-08 
 9.1999999999842E-01  9.2000000000000E-01  9.2000000000000E-01  9.2000000000000E-01  9.2000000000000E-01  9.2000000000000E-01  9.2000000000000E-01  9.2000000000000E-01  9.2000000000000E-01  9.2000000000175E-01 
 4.0000000000791E-02  4.0000000000000E-02  4.0000000000000E-02  4.0000000000000E-02  4.0000000000000E-02  4.0000000000000E-02  4.0000000000000E-02  4.0000000000000E-02  4.0000000000000E-02  3.9999999999127E-02 
 4.0000000000791E-02  4.0000000000000E-02  4.0000000000000E-02  4.0000000000000E-02  4.0000000000000E-02  4.0000000000000E-02  4.0000000000000E-02  4.0000000000000E-02  4.0000000000000E-02  3.9999999999127E-02 
 2.9195755639959E-02  2.9195706247629E-02  2.9195656855298E-02  2.9195607462968E-02  2.9195558070637E-02  2.9195508678306E-02  2.9195459285976E-02  2.9195409893645E-02  2.9195360501315E-02  2.9195311108984E-02 
 2.9814999762791E+02  2.9814999995696E+02  2.9814999999396E+02  2.9814999998631E+02  2.9815000001190E+02  2.9815000000899E+02  2.9815000000382E+02  2.9815000000621E+02  2.9815000016870E+02  2.9815000612589E+02 
 8.0911499769706E-01  8.0911499769706E-01  8.0911499769706E-01  8.0911499769706E-01  8.0911499769706E-01  8.0911499769706E-01  8.0911499769706E-01  8.0911499769706E-01  8.0911499769706E-01  8.0911499769706E-01 
 2.6811111111111E-05  5.3622222222222E-05  5.3622222222222E-05  5.3622222222222E-05  5.3622222222222E-05  5.3622222222222E-05  5.3622222222222E-05  5.3622222222223E-05  5.3622222222222E-05  2.6811111111111E-05 
 1.9088500230294E-01  1.9088500230294E-01  1.9088500230294E-01  1.9088500230294E-01  1.9088500230294E-01  1.9088500230294E-01  1.9088500230294E-01  1.9088500230294E-01  1.9088500230294E-01  1.9088500230294E-01 
 1.5222402052323E-09  1.5222402385570E-09  1.5222401901338E-09  1.5222401848698E-09  1.5222401880383E-09  1.5222401901963E-09  1.5222402350972E-09  1.5222402379290E-09  1.5222401915604E-09  1.5222401117873E-09 
 2.7689406102771E-02  2.7689406156619E-02  2.7689406209785E-02  2.7689406212577E-02  2.7689406213579E-02  2.7689406213240E-02  2.7689406213492E-02  2.7689406217508E-02  2.7689406363190E-02  2.7689406502976E-02 
 2.7689406102771E-02  2.7689406156619E-02  2.7689406209785E-02  2.7689406212577E-02  2.7689406213579E-02  2.7689406213240E-02  2.7689406213492E-02  2.7689406217508E-02  2.7689406363190E-02  2.7689406502976E-02 
 0.0000000000000E+00  0.0000000000000E+00  0.0000000000000E+00  0.0000000000000E+00  0.0000000000000E+00  0.0000000000000E+00  0.0000000000000E+00  0.0000000000000E+00  0.0000000000000E+00  0.0000000000000E+00 
ZONE T = "SEP , 7.7500E-08", I = 10, SOLUTIONTIME = 7.750000E-08
ZONETYPE = ORDERED
DATAPACKING = BLOCK
STRANDID = 2
 7.8740000000000E-04  8.4102222222222E-04  8.9464444444444E-04  9.4826666666667E-04  1.0018888888889E-03  1.0555111111111E-03  1.1091333333333E-03  1.1627555555556E-03  1.2163777777778E-03  1.2700000000000E-03 
 2.0878780534003E-08  2.0878780534003E-08  2.0878780534003E-08  2.0878780534003E-08  2.0878780534003E-08  2.0878780534003E-08  2.0878780534003E-08  2.0878780534003E-08  2.0878780534003E-08  1.9720268776777E-08 
 9.1999999999777E-01  9.2000000000000E-01  9.2000000000000E-01  9.2000000000000E-01  9.2000000000000E-01  9.2000000000000E-01  9.2000000000000E-01  9.2000000000000E-01  9.2000000000000E-01  9.2000000000246E-01 
 4.0000000001114E-02  4.0000000000000E-02  4.0000000000000E-02  4.0000000000000E-02  4.0000000000000E-02  4.0000000000000E-02  4.0000000000000E-02  4.0000000000000E-02  4.0000000000000E-02  3.9999999998769E-02 
 4.0000000001114E-02  4.0000000000000E-02  4.0000000000000E-02  4.0000000000000E-02  4.0000000000000E-02  4.0000000000000E-02  4.0000000000000E-02  4.0000000000000E-02  4.0000000000000E-02  3.9999999998769E-02 
 2.9207934120687E-02  2.9207884717047E-02  2.9207835313408E-02  2.9207785909768E-02  2.9207736506129E-02  2.9207687102489E-02  2.9207637698849E-02  2.9207588295210E-02  2.9207538891570E-02  2.9207489487930E-02 
 2.9814999655410E+02  2.9814999990127E+02  2.9814999999079E+02  2.9814999998930E+02  2.9815000001127E+02  2.9815000000856E+02  2.9814999999923E+02  2.9815000001165E+02  2.9815000033131E+02  2.9815000879324E+02 
 8.0911499769706E-01  8.0911499769706E-01  8.0911499769706E-01  8.0911499769706E-01  8.0911499769706E-01  8.0911499769706E-01  8.0911499769706E-01  8.0911499769706E-01  8.0911499769706E-01  8.0911499769706E-01 
 2.6811111111111E-05  5.3622222222222E-05  5.3622222222222E-05  5.3622222222222E-05  5.3622222222222E-05  5.3622222222222E-05  5.3622222222222E-05  5.3622222222223E-05  5.3622222222222E-05  2.6811111111111E-05 
 1.9088500230294E-01  1.9088500230294E-01  1.9088500230294E-01  1.9088500230294E-01  1.9088500230294E-01  1.9088500230294E-01  1.9088500230294E-01  1.9088500230294E-01  1.9088500230294E-01  1.9088500230294E-01 
 2.1455371672539E-09  2.1455372023237E-09  2.1455371556870E-09  2.1455371504976E-09  2.1455371537329E-09  2.1455371558872E-09  2.1455372007489E-09  2.1455372037557E-09  2.1455371621615E-09  2.1455370869862E-09 
 2.7702087200961E-02  2.7702087278519E-02  2.7702087357922E-02  2.7702087361238E-02  2.7702087364206E-02  2.7702087364038E-02  2.7702087362300E-02  2.7702087370078E-02  2.7702087582272E-02  2.7702087786616E-02 
 2.7702087200961E-02  2.7702087278519E-02  2.7702087357922E-02  2.7702087361238E-02  2.7702087364206E-02  2.7702087364038E-02  2.7702087362300E-02  2.7702087370078E-02  2.7702087582272E-02  2.7702087786616E-02 
 0.0000000000000E+00  0.0000000000000E+00  0.0000000000000E+00  0.0000000000000E+00  0.0000000000000E+00  0.0000000000000E+00  0.0000000000000E+00  0.0000000000000E+00  0.0000000000000E+00  0.0000000000000E+00 
ZONE T = "SEP , 1.1125E-07", I = 10, SOLUTIONTIME = 1.112500E-07
ZONETYPE = ORDERED
DATAPACKING = BLOCK
STRANDID = 2
 7.8740000000000E-04  8.4102222222222E-04  8.9464444444444E-04  9.4826666666667E-04  1.0018888888889E-03  1.0555111111111E-03  1.1091333333333E-03  1.1627555555556E-03  1.2163777777778E-03  1.2700000000000E-03 
 2.0886700386504E-08  2.0886700386504E-08  2.0886700386504E-08  2.0886700386504E-08  2.0886700386504E-08  2.0886700386504E-08  2.0886700386504E-08  2.0886700386504E-08  2.0886700386504E-08  1.9727454924438E-08 
 9.1999999999680E-01  9.2000000000000E-01  9.2000000000000E-01  9.2000000000000E-01  9.2000000000000E-01  9.2000000000000E-01  9.2000000000000E-01  9.2000000000000E-01  9.2000000000000E-01  9.2000000000353E-01 
 4.0000000001598E-02  4.0000000000000E-02  4.0000000000000E-02  4.0000000000000E-02  4.0000000000000E-02  4.0000000000000E-02  4.0000000000000E-02  4.0000000000000E-02  4.0000000000000E-02  3.9999999998233E-02 
 4.0000000001598E-02  4.0000000000000E-02  4.0000000000000E-02  4.0000000000000E-02  4.0000000000000E-02  4.0000000000000E-02  4.0000000000000E-02  4.0000000000000E-02  4.0000000000000E-02  3.9999999998233E-02 
 2.9226181980665E-02  2.9226132560068E-02  2.9226083139472E-02  2.9226033718875E-02  2.9225984298278E-02  2.9225934877681E-02  2.9225885457084E-02  2.9225836036487E-02  2.9225786615890E-02  2.9225737195292E-02 
 2.9814999500979E+02  2.9814999977081E+02  2.9814999997974E+02  2.9814999999424E+02  2.9815000001428E+02  2.9815000000746E+02  2.9814999999519E+02  2.9815000003367E+02  2.9815000067822E+02  2.9815001290430E+02 
 8.0911499769706E-01  8.0911499769706E-01  8.0911499769706E-01  8.0911499769706E-01  8.0911499769706E-01  8.0911499769706E-01  8.0911499769706E-01  8.0911499769706E-01  8.0911499769706E-01  8.0911499769706E-01 
 2.6811111111111E-05  5.3622222222222E-05  5.3622222222222E-05  5.3622222222222E-05  5.3622222222222E-05  5.3622222222222E-05  5.3622222222222E-05  5.3622222222223E-05  5.3622222222222E-05  2.6811111111111E-05 
 1.9088500230294E-01  1.9088500230294E-01  1.9088500230294E-01  1.9088500230294E-01  1.9088500230294E-01  1.9088500230294E-01  1.9088500230294E-01  1.9088500230294E-01  1.9088500230294E-01  1.9088500230294E-01 
 3.0811245380530E-09  3.0811245770305E-09  3.0811245345204E-09  3.0811245295227E-09  3.0811245327862E-09  3.0811245349451E-09  3.0811245798012E-09  3.0811245833682E-09  3.0811245524114E-09  3.0811244873584E-09 
 2.7721107282936E-02  2.7721107398721E-02  2.7721107520989E-02  2.7721107526669E-02  2.7721107527505E-02  2.7721107527642E-02  2.7721107527476E-02  2.7721107544074E-02  2.7721107859256E-02  2.7721108159178E-02 
 2.7721107282936E-02  2.7721107398721E-02  2.7721107520989E-02  2.7721107526669E-02  2.7721107527505E-02  2.7721107527642E-02  2.7721107527476E-02  2.7721107544074E-02  2.7721107859256E-02  2.7721108159178E-02 
 0.0000000000000E+00  0.0000000000000E+00  0.0000000000000E+00  0.0000000000000E+00  0.0000000000000E+00  0.0000000000000E+00  0.0000000000000E+00  0.0000000000000E+00  0.0000000000000E+00  0.0000000000000E+00 
ZONE T = "SEP , 1.6188E-07", I = 10, SOLUTIONTIME = 1.618750E-07
ZONETYPE = ORDERED
DATAPACKING = BLOCK
STRANDID = 2
 7.8740000000000E-04  8.4102222222222E-04  8.9464444444444E-04  9.4826666666667E-04  1.0018888888889E-03  1.0555111111111E-03  1.1091333333333E-03  1.1627555555556E-03  1.2163777777778E-03  1.2700000000000E-03 
 2.0896912530967E-08  2.0896912530967E-08  2.0896912530967E-08  2.0896912530967E-08  2.0896912530967E-08  2.0896912530967E-08  2.0896912530967E-08  2.0896912530967E-08  2.0896912530967E-08  1.9737501458947E-08 
 9.1999999999536E-01  9.2000000000000E-01  9.2000000000000E-01  9.2000000000000E-01  9.2000000000000E-01  9.2000000000000E-01  9.2000000000000E-01  9.2000000000000E-01  9.2000000000000E-01  9.2000000000514E-01 
 4.0000000002321E-02  4.0000000000001E-02  4.0000000000000E-02  4.0000000000000E-02  4.0000000000000E-02  4.0000000000000E-02  4.0000000000000E-02  4.0000000000000E-02  3.9999999999999E-02  3.9999999997428E-02 
 4.0000000002321E-02  4.0000000000001E-02  4.0000000000000E-02  4.0000000000000E-02  4.0000000000000E-02  4.0000000000000E-02  4.0000000000000E-02  4.0000000000000E-02  3.9999999999999E-02  3.9999999997428E-02 
 2.9253439705131E-02  2.9253390259183E-02  2.9253340813234E-02  2.9253291367285E-02  2.9253241921336E-02  2.9253192475387E-02  2.9253143029438E-02  2.9253093583489E-02  2.9253044137540E-02  2.9252994691589E-02 
 2.9814999264360E+02  2.9814999947989E+02  2.9814999995556E+02  2.9814999998007E+02  2.9815000000975E+02  2.9815000000595E+02  2.9815000000326E+02  2.9815000009541E+02  2.9815000142436E+02  2.9815001937513E+02 
 8.0911499769706E-01  8.0911499769706E-01  8.0911499769706E-01  8.0911499769706E-01  8.0911499769706E-01  8.0911499769706E-01  8.0911499769706E-01  8.0911499769706E-01  8.0911499769706E-01  8.0911499769706E-01 
 2.6811111111111E-05  5.3622222222222E-05  5.3622222222222E-05  5.3622222222222E-05  5.3622222222222E-05  5.3622222222222E-05  5.3622222222222E-05  5.3622222222223E-05  5.3622222222222E-05  2.6811111111111E-05 
 1.9088500230294E-01  1.9088500230294E-01  1.9088500230294E-01  1.9088500230294E-01  1.9088500230294E-01  1.9088500230294E-01  1.9088500230294E-01  1.9088500230294E-01  1.9088500230294E-01  1.9088500230294E-01 
 4.4859457861228E-09  4.4859458337168E-09  4.4859458004169E-09  4.4859457960476E-09  4.4859457994139E-09  4.4859458016485E-09  4.4859458466041E-09  4.4859458519402E-09  4.4859458453691E-09  4.4859458030244E-09 
 2.7749555517428E-02  2.7749555687630E-02  2.7749555869560E-02  2.7749555881972E-02  2.7749555884003E-02  2.7749555885499E-02  2.7749555887463E-02  2.7749555922410E-02  2.7749556404103E-02  2.7749556852662E-02 
 2.7749555517428E-02  2.7749555687630E-02  2.7749555869560E-02  2.7749555881972E-02  2.7749555884003E-02  2.7749555885499E-02  2.7749555887463E-02  2.7749555922410E-02  2.7749556404103E-02  2.7749556852662E-02 
 0.0000000000000E+00  0.0000000000000E+00  0.0000000000000E+00  0.0000000000000E+00  0.0000000000000E+00  0.0000000000000E+00  0.0000000000000E+00  0.0000000000000E+00  0.0000000000000E+00  0.0000000000000E+00 
ZONE T = "SEP , 2.3781E-07", I = 10, SOLUTIONTIME = 2.378125E-07
ZONETYPE = ORDERED
DATAPACKING = BLOCK
STRANDID = 2
 7.8740000000000E-04  8.4102222222222E-04  8.9464444444444E-04  9.4826666666667E-04  1.0018888888889E-03  1.0555111111111E-03  1.1091333333333E-03  1.1627555555556E-03  1.2163777777778E-03  1.2700000000000E-03 
 2.0913355739089E-08  2.0913642718035E-08  2.0913642718035E-08  2.0913642718035E-08  2.0913642718035E-08  2.0913642718035E-08  2.0913642718035E-08  2.0913642718035E-08  2.0913547058386E-08  1.9752744473228E-08 
 9.1999999999319E-01  9.2000000000000E-01  9.2000000000000E-01  9.2000000000000E-01  9.2000000000000E-01  9.2000000000000E-01  9.2000000000000E-01  9.2000000000000E-01  9.2000000000000E-01  9.2000000000756E-01 
 4.0000000003403E-02  4.0000000000002E-02  4.0000000000000E-02  4.0000000000000E-02  4.0000000000000E-02  4.0000000000000E-02  4.0000000000000E-02  4.0000000000000E-02  3.9999999999998E-02  3.9999999996220E-02 
 4.0000000003403E-02  4.0000000000002E-02  4.0000000000000E-02  4.0000000000000E-02  4.0000000000000E-02  4.0000000000000E-02  4.0000000000000E-02  4.0000000000000E-02  3.9999999999998E-02  3.9999999996220E-02 
 2.9293951122964E-02  2.9293901639297E-02  2.9293852155629E-02  2.9293802671961E-02  2.9293753188293E-02  2.9293703704625E-02  2.9293654220956E-02  2.9293604737288E-02  2.9293555253620E-02  2.9293505769949E-02 
 2.9814998900042E+02  2.9814999889413E+02  2.9814999990391E+02  2.9814999997407E+02  2.9815000000004E+02  2.9815000000532E+02  2.9815000002370E+02  2.9815000026659E+02  2.9815000301779E+02  2.9815002945266E+02 
 8.0911499769706E-01  8.0911499769706E-01  8.0911499769706E-01  8.0911499769706E-01  8.0911499769706E-01  8.0911499769706E-01  8.0911499769706E-01  8.0911499769706E-01  8.0911499769706E-01  8.0911499769706E-01 
 2.6811111111111E-05  5.3622222222222E-05  5.3622222222222E-05  5.3622222222222E-05  5.3622222222222E-05  5.3622222222222E-05  5.3622222222222E-05  5.3622222222223E-05  5.3622222222222E-05  2.6811111111111E-05 