TITLE = "Solution on Domain BulkDomain1D_1"
VARIABLES = "x [m]"  
"Vel_axial" 	"MF_sp(ECDMC)" 	"MF_sp(Li+)" 	"MF_sp(PF6-)" 	"Volt(Electroly)" 	"Temperature" 	"Porosity []" 	"Control volume thickness [m]" 	"volFrac MgO(S) []" 	"qHeat_accum [J/m3]" 	"qHeat_step [W/m3]" 	"Joule_Lyte [W/m3]" 	"Joule_Solid [W/m3]" 	
ZONE T = "SEP , 0.0000E+00", I = 10, SOLUTIONTIME = 0.000000E+00
ZONETYPE = ORDERED
DATAPACKING = BLOCK
STRANDID = 2
 7.8740000000000E-04  8.4102222222222E-04  8.9464444444444E-04  9.4826666666667E-04  1.0018888888889E-03  1.0555111111111E-03  1.1091333333333E-03  1.1627555555556E-03  1.2163777777778E-03  1.2700000000000E-03 
 0.0000000000000E+00  0.0000000000000E+00  0.0000000000000E+00  0.0000000000000E+00  0.0000000000000E+00  0.0000000000000E+00  0.0000000000000E+00  0.0000000000000E+00  0.0000000000000E+00  0.0000000000000E+00 
 9.2000000000000E-01  9.2000000000000E-01  9.2000000000000E-01  9.2000000000000E-01  9.2000000000000E-01  9.2000000000000E-01  9.2000000000000E-01  9.2000000000000E-01  9.2000000000000E-01  9.2000000000000E-01 
 4.0000000000000E-02  4.0000000000000E-02  4.0000000000000E-02  4.0000000000000E-02  4.0000000000000E-02  4.0000000000000E-02  4.0000000000000E-02  4.0000000000000E-02  4.0000000000000E-02  4.0000000000000E-02 
 4.0000000000000E-02  4.0000000000000E-02  4.0000000000000E-02  4.0000000000000E-02  4.0000000000000E-02  4.0000000000000E-02  4.0000000000000E-02  4.0000000000000E-02  4.0000000000000E-02  4.0000000000000E-02 
-7.0000000000000E-02 -7.0000000000000E-02 -7.0000000000000E-02 -7.0000000000000E-02 -7.0000000000000E-02 -7.0000000000000E-02 -7.0000000000000E-02 -7.0000000000000E-02 -7.0000000000000E-02 -7.0000000000000E-02 
 2.9815000000000E+02  2.9815000000000E+02  2.9815000000000E+02  2.9815000000000E+02  2.9815000000000E+02  2.9815000000000E+02  2.9815000000000E+02  2.9815000000000E+02  2.9815000000000E+02  2.9815000000000E+02 
 8.0911499769706E-01  8.0911499769706E-01  8.0911499769706E-01  8.0911499769706E-01  8.0911499769706E-01  8.0911499769706E-01  8.0911499769706E-01  8.0911499769706E-01  8.0911499769706E-01  8.0911499769706E-01 
 2.6811111111111E-05  5.3622222222222E-05  5.3622222222222E-05  5.3622222222222E-05  5.3622222222222E-05  5.3622222222222E-05  5.3622222222222E-05  5.3622222222223E-05  5.3622222222222E-05  2.6811111111111E-05 
 1.9088500230294E-01  1.9088500230294E-01  1.9088500230294E-01  1.9088500230294E-01  1.9088500230294E-01  1.9088500230294E-01  1.9088500230294E-01  1.9088500230294E-01  1.9088500230294E-01  1.9088500230294E-01 
 0.0000000000000E+00  0.0000000000000E+00  0.0000000000000E+00  0.0000000000000E+00  0.0000000000000E+00  0.0000000000000E+00  0.0000000000000E+00  0.0000000000000E+00  0.0000000000000E+00  0.0000000000000E+00 
 0.0000000000000E+00  0.0000000000000E+00  0.0000000000000E+00  0.0000000000000E+00  0.0000000000000E+00  0.0000000000000E+00  0.0000000000000E+00  0.0000000000000E+00  0.0000000000000E+00  0.0000000000000E+00 
 0.0000000000000E+00  0.0000000000000E+00  0.0000000000000E+00  0.0000000000000E+00  0.0000000000000E+00  0.0000000000000E+00  0.0000000000000E+00  0.0000000000000E+00  0.0000000000000E+00  0.0000000000000E+00 
 0.0000000000000E+00  0.0000000000000E+00  0.0000000000000E+00  0.0000000000000E+00  0.0000000000000E+00  0.0000000000000E+00  0.0000000000000E+00  0.0000000000000E+00  0.0000000000000E+00  0.0000000000000E+00 
ZONE T = "SEP , 1.0000E-08", I = 10, SOLUTIONTIME = 1.000000E-08
ZONETYPE = ORDERED
DATAPACKING = BLOCK
STRANDID = 2
 7.8740000000000E-04  8.4102222222222E-04  8.9464444444444E-04  9.4826666666667E-04  1.0018888888889E-03  1.0555111111111E-03  1.1091333333333E-03  1.1627555555556E-03  1.2163777777778E-03  1.2700000000000E-03 
 2.0865060361052E-08  2.0865060361052E-08  2.0865060361052E-08  2.0865060361052E-08  2.0865060361052E-08  2.0865060361052E-08  2.0865060361052E-08  2.0865060361052E-08  2.0865060361052E-08  1.9707213499763E-08 
 9.1999999999971E-01  9.2000000000000E-01  9.2000000000000E-01  9.2000000000000E-01  9.2000000000000E-01  9.2000000000000E-01  9.2000000000000E-01  9.2000000000000E-01  9.2000000000000E-01  9.2000000000032E-01 
 4.0000000000144E-02  4.0000000000000E-02  4.0000000000000E-02  4.0000000000000E-02  4.0000000000000E-02  4.0000000000000E-02  4.0000000000000E-02  4.0000000000000E-02  4.0000000000000E-02  3.9999999999841E-02 
 4.0000000000144E-02  4.0000000000000E-02  4.0000000000000E-02  4.0000000000000E-02  4.0000000000000E-02  4.0000000000000E-02  4.0000000000000E-02  4.0000000000000E-02  4.0000000000000E-02  3.9999999999841E-02 
 2.9171459876876E-02  2.9171410507317E-02  2.9171361137774E-02  2.9171311768214E-02  2.9171262398662E-02  2.9171213029118E-02  2.9171163659560E-02  2.9171114290001E-02  2.9171064920457E-02  2.9171015550899E-02 
 2.9814999954289E+02  2.9814999998799E+02  2.9815000000152E+02  2.9814999999553E+02  2.9814999999168E+02  2.9815000000390E+02  2.9815000000097E+02  2.9814999999813E+02  2.9815000000419E+02  2.9815000102834E+02 
 8.0911499769706E-01  8.0911499769706E-01  8.0911499769706E-01  8.0911499769706E-01  8.0911499769706E-01  8.0911499769706E-01  8.0911499769706E-01  8.0911499769706E-01  8.0911499769706E-01  8.0911499769706E-01 
 2.6811111111111E-05  5.3622222222222E-05  5.3622222222222E-05  5.3622222222222E-05  5.3622222222222E-05  5.3622222222222E-05  5.3622222222222E-05  5.3622222222223E-05  5.3622222222222E-05  2.6811111111111E-05 
 1.9088500230294E-01  1.9088500230294E-01  1.9088500230294E-01  1.9088500230294E-01  1.9088500230294E-01  1.9088500230294E-01  1.9088500230294E-01  1.9088500230294E-01  1.9088500230294E-01  1.9088500230294E-01 
 2.7663880093102E-10  2.7663871705399E-10  2.7663872056160E-10  2.7663877048609E-10  2.7663868325558E-10  2.7663871447341E-10  2.7663879824298E-10  2.7663872057759E-10  2.7663872024039E-10  2.7663880034996E-10 
 2.7663880093102E-02  2.7663871705399E-02  2.7663872056160E-02  2.7663877048609E-02  2.7663868325558E-02  2.7663871447341E-02  2.7663879824298E-02  2.7663872057759E-02  2.7663872024039E-02  2.7663880034996E-02 
 2.7663880093102E-02  2.7663871705399E-02  2.7663872056160E-02  2.7663877048609E-02  2.7663868325558E-02  2.7663871447341E-02  2.7663879824298E-02  2.7663872057759E-02  2.7663872024039E-02  2.7663880034996E-02 
 0.0000000000000E+00  0.0000000000000E+00  0.0000000000000E+00  0.0000000000000E+00  0.0000000000000E+00  0.0000000000000E+00  0.0000000000000E+00  0.0000000000000E+00  0.0000000000000E+00  0.0000000000000E+00 
ZONE T = "SEP , 2.0000E-08", I = 10, SOLUTIONTIME = 2.000000E-08
ZONETYPE = ORDERED
DATAPACKING = BLOCK
STRANDID = 2
 7.8740000000000E-04  8.4102222222222E-04  8.9464444444444E-04  9.4826666666667E-04  1.0018888888889E-03  1.0555111111111E-03  1.1091333333333E-03  1.1627555555556E-03  1.2163777777778E-03  1.2700000000000E-03 
 2.0866907777592E-08  2.0865454946681E-08  2.0865454946681E-08  2.0865454946681E-08  2.0865454946681E-08  2.0865454946681E-08  2.0865454946681E-08  2.0865454946681E-08  2.0865454946681E-08  1.9706573435551E-08 
 9.1999999999942E-01  9.2000000000000E-01  9.2000000000000E-01  9.2000000000000E-01  9.2000000000000E-01  9.2000000000000E-01  9.2000000000000E-01  9.2000000000000E-01  9.2000000000000E-01  9.2000000000064E-01 
 4.0000000000288E-02  4.0000000000000E-02  4.0000000000000E-02  4.0000000000000E-02  4.0000000000000E-02  4.0000000000000E-02  4.0000000000000E-02  4.0000000000000E-02  4.0000000000000E-02  3.9999999999682E-02 
 4.0000000000288E-02  4.0000000000000E-02  4.0000000000000E-02  4.0000000000000E-02  4.0000000000000E-02  4.0000000000000E-02  4.0000000000000E-02  4.0000000000000E-02  4.0000000000000E-02  3.9999999999682E-02 
 2.9176841304259E-02  2.9176791929476E-02  2.9176742554694E-02  2.9176693179911E-02  2.9176643805128E-02  2.9176594430346E-02  2.9176545055563E-02  2.9176495680780E-02  2.9176446305998E-02  2.9176396931215E-02 
 2.9814999911111E+02  2.9814999996894E+02  2.9815000000090E+02  2.9815000000092E+02  2.9814999999191E+02  2.9815000000359E+02  2.9815000000638E+02  2.9815000000407E+02  2.9815000002965E+02  2.9815000213424E+02 
 8.0911499769706E-01  8.0911499769706E-01  8.0911499769706E-01  8.0911499769706E-01  8.0911499769706E-01  8.0911499769706E-01  8.0911499769706E-01  8.0911499769706E-01  8.0911499769706E-01  8.0911499769706E-01 
 2.6811111111111E-05  5.3622222222222E-05  5.3622222222222E-05  5.3622222222222E-05  5.3622222222222E-05  5.3622222222222E-05  5.3622222222222E-05  5.3622222222223E-05  5.3622222222222E-05  2.6811111111111E-05 
 1.9088500230294E-01  1.9088500230294E-01  1.9088500230294E-01  1.9088500230294E-01  1.9088500230294E-01  1.9088500230294E-01  1.9088500230294E-01  1.9088500230294E-01  1.9088500230294E-01  1.9088500230294E-01 
 5.5333614957879E-10  5.5333606592257E-10  5.5333606964356E-10  5.5333611954327E-10  5.5333603233367E-10  5.5333606356697E-10  5.5333614731362E-10  5.5333606966216E-10  5.5333606983583E-10  5.5333615044220E-10 
 2.7669734864777E-02  2.7669734886857E-02  2.7669734908196E-02  2.7669734905718E-02  2.7669734907809E-02  2.7669734909356E-02  2.7669734907065E-02  2.7669734908457E-02  2.7669734959543E-02  2.7669735009225E-02 
 2.7669734864777E-02  2.7669734886857E-02  2.7669734908196E-02  2.7669734905718E-02  2.7669734907809E-02  2.7669734909356E-02  2.7669734907065E-02  2.7669734908457E-02  2.7669734959543E-02  2.7669735009225E-02 
 0.0000000000000E+00  0.0000000000000E+00  0.0000000000000E+00  0.0000000000000E+00  0.0000000000000E+00  0.0000000000000E+00  0.0000000000000E+00  0.0000000000000E+00  0.0000000000000E+00  0.0000000000000E+00 
ZONE T = "SEP , 3.0000E-08", I = 10, SOLUTIONTIME = 3.000000E-08
ZONETYPE = ORDERED
DATAPACKING = BLOCK
STRANDID = 2
 7.8740000000000E-04  8.4102222222222E-04  8.9464444444444E-04  9.4826666666667E-04  1.0018888888889E-03  1.0555111111111E-03  1.1091333333333E-03  1.1627555555556E-03  1.2163777777778E-03  1.2700000000000E-03 
 2.0871200786843E-08  2.0872653617755E-08  2.0872653617755E-08  2.0872653617755E-08  2.0872653617755E-08  2.0872653617755E-08  2.0872653617755E-08  2.0872653617754E-08  2.0872653617754E-08  1.9715103600077E-08 
 9.1999999999914E-01  9.2000000000000E-01  9.2000000000000E-01  9.2000000000000E-01  9.2000000000000E-01  9.2000000000000E-01  9.2000000000000E-01  9.2000000000000E-01  9.2000000000000E-01  9.2000000000095E-01 
 4.0000000000432E-02  4.0000000000000E-02  4.0000000000000E-02  4.0000000000000E-02  4.0000000000000E-02  4.0000000000000E-02  4.0000000000000E-02  4.0000000000000E-02  4.0000000000000E-02  3.9999999999524E-02 
 4.0000000000432E-02  4.0000000000000E-02  4.0000000000000E-02  4.0000000000000E-02  4.0000000000000E-02  4.0000000000000E-02  4.0000000000000E-02  4.0000000000000E-02  4.0000000000000E-02  3.9999999999524E-02 
 2.9182234743689E-02  2.9182185363905E-02  2.9182135984121E-02  2.9182086604337E-02  2.9182037224552E-02  2.9181987844768E-02  2.9181938464984E-02  2.9181889085200E-02  2.9181839705416E-02  2.9181790325631E-02 
 2.9814999864700E+02  2.9814999995885E+02  2.9814999998861E+02  2.9815000000035E+02  2.9814999999237E+02  2.9815000000304E+02  2.9815000001157E+02  2.9815000000542E+02  2.9815000006080E+02  2.9815000326437E+02 
 8.0911499769706E-01  8.0911499769706E-01  8.0911499769706E-01  8.0911499769706E-01  8.0911499769706E-01  8.0911499769706E-01  8.0911499769706E-01  8.0911499769706E-01  8.0911499769706E-01  8.0911499769706E-01 
 2.6811111111111E-05  5.3622222222222E-05  5.3622222222222E-05  5.3622222222222E-05  5.3622222222222E-05  5.3622222222222E-05  5.3622222222222E-05  5.3622222222223E-05  5.3622222222222E-05  2.6811111111111E-05 
 1.9088500230294E-01  1.9088500230294E-01  1.9088500230294E-01  1.9088500230294E-01  1.9088500230294E-01  1.9088500230294E-01  1.9088500230294E-01  1.9088500230294E-01  1.9088500230294E-01  1.9088500230294E-01 
 8.3008955826683E-10  8.3008947494021E-10  8.3008947898117E-10  8.3008952887038E-10  8.3008944167873E-10  8.3008947292639E-10  8.3008955666804E-10  8.3008947902404E-10  8.3008947996533E-10  8.3008956133131E-10 
 2.7675340868804E-02  2.7675340901764E-02  2.7675340933761E-02  2.7675340932711E-02  2.7675340934506E-02  2.7675340935942E-02  2.7675340935441E-02  2.7675340936188E-02  2.7675341012950E-02  2.7675341088911E-02 
 2.7675340868804E-02  2.7675340901764E-02  2.7675340933761E-02  2.7675340932711E-02  2.7675340934506E-02  2.7675340935942E-02  2.7675340935441E-02  2.7675340936188E-02  2.7675341012950E-02  2.7675341088911E-02 
 0.0000000000000E+00  0.0000000000000E+00  0.0000000000000E+00  0.0000000000000E+00  0.0000000000000E+00  0.0000000000000E+00  0.0000000000000E+00  0.0000000000000E+00  0.0000000000000E+00  0.0000000000000E+00 
ZONE T = "SEP , 4.0000E-08", I = 10, SOLUTIONTIME = 4.000000E-08
ZONETYPE = ORDERED
DATAPACKING = BLOCK
STRANDID = 2
 7.8740000000000E-04  8.4102222222222E-04  8.9464444444444E-04  9.4826666666667E-04  1.0018888888889E-03  1.0555111111111E-03  1.1091333333333E-03  1.1627555555556E-03  1.2163777777778E-03  1.2700000000000E-03 
 2.0869687961568E-08  2.0869687961568E-08  2.0869687961568E-08  2.0869687961568E-08  2.0869687961568E-08  2.0869687961568E-08  2.0869687961568E-08  2.0869687961568E-08  2.0869687961568E-08  1.9712379532447E-08 
 9.1999999999885E-01  9.2000000000000E-01  9.2000000000000E-01  9.2000000000000E-01  9.2000000000000E-01  9.2000000000000E-01  9.2000000000000E-01  9.2000000000000E-01  9.2000000000000E-01  9.2000000000127E-01 
 4.0000000000576E-02  4.0000000000000E-02  4.0000000000000E-02  4.0000000000000E-02  4.0000000000000E-02  4.0000000000000E-02  4.0000000000000E-02  4.0000000000000E-02  4.0000000000000E-02  3.9999999999365E-02 
 4.0000000000576E-02  4.0000000000000E-02  4.0000000000000E-02  4.0000000000000E-02  4.0000000000000E-02  4.0000000000000E-02  4.0000000000000E-02  4.0000000000000E-02  4.0000000000000E-02  3.9999999999365E-02 
 2.9187639989837E-02  2.9187590605039E-02  2.9187541220240E-02  2.9187491835441E-02  2.9187442450642E-02  2.9187393065844E-02  2.9187343681045E-02  2.9187294296246E-02  2.9187244911448E-02  2.9187195526649E-02 
 2.9814999820747E+02  2.9814999994717E+02  2.9814999999233E+02  2.9814999999930E+02  2.9814999998774E+02  2.9815000000760E+02  2.9815000000558E+02  2.9815000000808E+02  2.9815000009960E+02  2.9815000443282E+02 
 8.0911499769706E-01  8.0911499769706E-01  8.0911499769706E-01  8.0911499769706E-01  8.0911499769706E-01  8.0911499769706E-01  8.0911499769706E-01  8.0911499769706E-01  8.0911499769706E-01  8.0911499769706E-01 
 2.6811111111111E-05  5.3622222222222E-05  5.3622222222222E-05  5.3622222222222E-05  5.3622222222222E-05  5.3622222222222E-05  5.3622222222222E-05  5.3622222222223E-05  5.3622222222222E-05  2.6811111111111E-05 
 1.9088500230294E-01  1.9088500230294E-01  1.9088500230294E-01  1.9088500230294E-01  1.9088500230294E-01  1.9088500230294E-01  1.9088500230294E-01  1.9088500230294E-01  1.9088500230294E-01  1.9088500230294E-01 
 1.1068991782806E-09  1.1068990953943E-09  1.1068990998636E-09  1.1068991497612E-09  1.1068990625687E-09  1.1068990938103E-09  1.1068991775671E-09  1.1068990999401E-09  1.1068991019317E-09  1.1068991843309E-09 
 2.7680962001373E-02  2.7680962045411E-02  2.7680962088240E-02  2.7680962089081E-02  2.7680962088995E-02  2.7680962088388E-02  2.7680962089908E-02  2.7680962091604E-02  2.7680962196636E-02  2.7680962299961E-02 
 2.7680962001373E-02  2.7680962045411E-02  2.7680962088240E-02  2.7680962089081E-02  2.7680962088995E-02  2.7680962088388E-02  2.7680962089908E-02  2.7680962091604E-02  2.7680962196636E-02  2.7680962299961E-02 
 0.0000000000000E+00  0.0000000000000E+00  0.0000000000000E+00  0.0000000000000E+00  0.0000000000000E+00  0.0000000000000E+00  0.0000000000000E+00  0.0000000000000E+00  0.0000000000000E+00  0.0000000000000E+00 
ZONE T = "SEP , 5.5000E-08", I = 10, SOLUTIONTIME = 5.500000E-08
ZONETYPE = ORDERED
DATAPACKING = BLOCK
STRANDID = 2
 7.8740000000000E-04  8.4102222222222E-04  8.9464444444444E-04  9.4826666666667E-04  1.0018888888889E-03  1.0555111111111E-03  1.1091333333333E-03  1.1627555555556E-03  1.2163777777778E-03  1.2700000000000E-03 
 2.0874808260189E-08  2.0874808260189E-08  2.0874808260189E-08  2.0874808260189E-08  2.0874808260189E-08  2.0874808260189E-08  2.0874808260189E-08  2.0874808260189E-08  2.0874808260189E-08  1.9715803840576E-08 
 9.1999999999842E-01  9.2000000000000E-01  9.2000000000000E-01  9.2000000000000E-01  9.2000000000000E-01  9.2000000000000E-01  9.2000000000000E-01  9.2000000000000E-01  9.2000000000000E-01  9.2000000000175E-01 
 4.0000000000791E-02  4.0000000000000E-02  4.0000000000000E-02  4.0000000000000E-02  4.0000000000000E-02  4.0000000000000E-02  4.0000000000000E-02  4.0000000000000E-02  4.0000000000000E-02  3.9999999999127E-02 
 4.0000000000791E-02  4.0000000000000E-02  4.0000000000000E-02  4.0000000000000E-02  4.0000000000000E-02  4.0000000000000E-02  4.0000000000000E-02  4.0000000000000E-02  4.0000000000000E-02  3.9999999999127E-02 
 2.9195755592492E-02  2.9195706200162E-02  2.9195656807831E-02  2.9195607415500E-02  2.9195558023169E-02  2.9195508630839E-02  2.9195459238508E-02  2.9195409846177E-02  2.9195360453847E-02  2.9195311061515E-02 
 2.9814999749877E+02  2.9814999990823E+02  2.9814999999046E+02  2.9815000000238E+02  2.9814999998711E+02  2.9815000000299E+02  2.9815000001281E+02  2.9815000000558E+02  2.9815000017748E+02  2.9815000616599E+02 
 8.0911499769706E-01  8.0911499769706E-01  8.0911499769706E-01  8.0911499769706E-01  8.0911499769706E-01  8.0911499769706E-01  8.0911499769706E-01  8.0911499769706E-01  8.0911499769706E-01  8.0911499769706E-01 
 2.6811111111111E-05  5.3622222222222E-05  5.3622222222222E-05  5.3622222222222E-05  5.3622222222222E-05  5.3622222222222E-05  5.3622222222222E-05  5.3622222222223E-05  5.3622222222222E-05  2.6811111111111E-05 
 1.9088500230294E-01  1.9088500230294E-01  1.9088500230294E-01  1.9088500230294E-01  1.9088500230294E-01  1.9088500230294E-01  1.9088500230294E-01  1.9088500230294E-01  1.9088500230294E-01  1.9088500230294E-01 
 1.5222402714631E-09  1.5222401894283E-09  1.5222401948038E-09  1.5222402447573E-09  1.5222401575658E-09  1.5222401888274E-09  1.5222402725744E-09  1.5222401950058E-09  1.5222401991977E-09  1.5222402837087E-09 
 2.7689406212169E-02  2.7689406268935E-02  2.7689406329349E-02  2.7689406333076E-02  2.7689406333140E-02  2.7689406334474E-02  2.7689406333817E-02  2.7689406337713E-02  2.7689406484400E-02  2.7689406625185E-02 
 2.7689406212169E-02  2.7689406268935E-02  2.7689406329349E-02  2.7689406333076E-02  2.7689406333140E-02  2.7689406334474E-02  2.7689406333817E-02  2.7689406337713E-02  2.7689406484400E-02  2.7689406625185E-02 
 0.0000000000000E+00  0.0000000000000E+00  0.0000000000000E+00  0.0000000000000E+00  0.0000000000000E+00  0.0000000000000E+00  0.0000000000000E+00  0.0000000000000E+00  0.0000000000000E+00  0.0000000000000E+00 
ZONE T = "SEP , 7.7500E-08", I = 10, SOLUTIONTIME = 7.750000E-08
ZONETYPE = ORDERED
DATAPACKING = BLOCK
STRANDID = 2
 7.8740000000000E-04  8.4102222222222E-04  8.9464444444444E-04  9.4826666666667E-04  1.0018888888889E-03  1.0555111111111E-03  1.1091333333333E-03  1.1627555555556E-03  1.2163777777778E-03  1.2700000000000E-03 
 2.0878780539216E-08  2.0878780539216E-08  2.0878780539216E-08  2.0878780539216E-08  2.0878780539216E-08  2.0878780539216E-08  2.0878780539216E-08  2.0878780539216E-08  2.0878780539216E-08  1.9720268782302E-08 
 9.1999999999777E-01  9.2000000000000E-01  9.2000000000000E-01  9.2000000000000E-01  9.2000000000000E-01  9.2000000000000E-01  9.2000000000000E-01  9.2000000000000E-01  9.2000000000000E-01  9.2000000000246E-01 
 4.0000000001114E-02  4.0000000000000E-02  4.0000000000000E-02  4.0000000000000E-02  4.0000000000000E-02  4.0000000000000E-02  4.0000000000000E-02  4.0000000000000E-02  4.0000000000000E-02  3.9999999998769E-02 
 4.0000000001114E-02  4.0000000000000E-02  4.0000000000000E-02  4.0000000000000E-02  4.0000000000000E-02  4.0000000000000E-02  4.0000000000000E-02  4.0000000000000E-02  4.0000000000000E-02  3.9999999998769E-02 
 2.9207933985331E-02  2.9207884581691E-02  2.9207835178052E-02  2.9207785774412E-02  2.9207736370773E-02  2.9207686967133E-02  2.9207637563493E-02  2.9207588159854E-02  2.9207538756214E-02  2.9207489352574E-02 
 2.9814999644351E+02  2.9814999984570E+02  2.9814999999320E+02  2.9815000000045E+02  2.9814999998739E+02  2.9815000000673E+02  2.9815000001745E+02  2.9815000001517E+02  2.9815000034951E+02  2.9815000882302E+02 
 8.0911499769706E-01  8.0911499769706E-01  8.0911499769706E-01  8.0911499769706E-01  8.0911499769706E-01  8.0911499769706E-01  8.0911499769706E-01  8.0911499769706E-01  8.0911499769706E-01  8.0911499769706E-01 
 2.6811111111111E-05  5.3622222222222E-05  5.3622222222222E-05  5.3622222222222E-05  5.3622222222222E-05  5.3622222222222E-05  5.3622222222222E-05  5.3622222222223E-05  5.3622222222222E-05  2.6811111111111E-05 
 1.9088500230294E-01  1.9088500230294E-01  1.9088500230294E-01  1.9088500230294E-01  1.9088500230294E-01  1.9088500230294E-01  1.9088500230294E-01  1.9088500230294E-01  1.9088500230294E-01  1.9088500230294E-01 
 2.1455372335708E-09  2.1455371533534E-09  2.1455371606841E-09  2.1455372107349E-09  2.1455371234993E-09  2.1455371547857E-09  2.1455372385564E-09  2.1455371612038E-09  2.1455371701563E-09  2.1455372592076E-09 
 2.7702087204789E-02  2.7702087285558E-02  2.7702087372460E-02  2.7702087376782E-02  2.7702087374825E-02  2.7702087375927E-02  2.7702087376978E-02  2.7702087386578E-02  2.7702087598162E-02  2.7702087799950E-02 
 2.7702087204789E-02  2.7702087285558E-02  2.7702087372460E-02  2.7702087376782E-02  2.7702087374825E-02  2.7702087375927E-02  2.7702087376978E-02  2.7702087386578E-02  2.7702087598162E-02  2.7702087799950E-02 
 0.0000000000000E+00  0.0000000000000E+00  0.0000000000000E+00  0.0000000000000E+00  0.0000000000000E+00  0.0000000000000E+00  0.0000000000000E+00  0.0000000000000E+00  0.0000000000000E+00  0.0000000000000E+00 
ZONE T = "SEP , 1.1125E-07", I = 10, SOLUTIONTIME = 1.112500E-07
ZONETYPE = ORDERED
DATAPACKING = BLOCK
STRANDID = 2
 7.8740000000000E-04  8.4102222222222E-04  8.9464444444444E-04  9.4826666666667E-04  1.0018888888889E-03  1.0555111111111E-03  1.1091333333333E-03  1.1627555555556E-03  1.2163777777778E-03  1.2700000000000E-03 
 2.0886700387795E-08  2.0886700387795E-08  2.0886700387795E-08  2.0886700387795E-08  2.0886700387795E-08  2.0886700387795E-08  2.0886700387795E-08  2.0886700387795E-08  2.0886700387795E-08  1.9727454925334E-08 
 9.1999999999680E-01  9.2000000000000E-01  9.2000000000000E-01  9.2000000000000E-01  9.2000000000000E-01  9.2000000000000E-01  9.2000000000000E-01  9.2000000000000E-01  9.2000000000000E-01  9.2000000000353E-01 
 4.0000000001598E-02  4.0000000000000E-02  4.0000000000000E-02  4.0000000000000E-02  4.0000000000000E-02  4.0000000000000E-02  4.0000000000000E-02  4.0000000000000E-02  4.0000000000000E-02  3.9999999998233E-02 
 4.0000000001598E-02  4.0000000000000E-02  4.0000000000000E-02  4.0000000000000E-02  4.0000000000000E-02  4.0000000000000E-02  4.0000000000000E-02  4.0000000000000E-02  4.0000000000000E-02  3.9999999998233E-02 
 2.9226181870943E-02  2.9226132450347E-02  2.9226083029750E-02  2.9226033609153E-02  2.9225984188556E-02  2.9225934767959E-02  2.9225885347362E-02  2.9225835926765E-02  2.9225786506168E-02  2.9225737085570E-02 
 2.9814999489411E+02  2.9814999970560E+02  2.9814999998633E+02  2.9814999999659E+02  2.9814999998910E+02  2.9815000000625E+02  2.9815000001948E+02  2.9815000003980E+02  2.9815000069433E+02  2.9815001293546E+02 
 8.0911499769706E-01  8.0911499769706E-01  8.0911499769706E-01  8.0911499769706E-01  8.0911499769706E-01  8.0911499769706E-01  8.0911499769706E-01  8.0911499769706E-01  8.0911499769706E-01  8.0911499769706E-01 
 2.6811111111111E-05  5.3622222222222E-05  5.3622222222222E-05  5.3622222222222E-05  5.3622222222222E-05  5.3622222222222E-05  5.3622222222222E-05  5.3622222222223E-05  5.3622222222222E-05  2.6811111111111E-05 
 1.9088500230294E-01  1.9088500230294E-01  1.9088500230294E-01  1.9088500230294E-01  1.9088500230294E-01  1.9088500230294E-01  1.9088500230294E-01  1.9088500230294E-01  1.9088500230294E-01  1.9088500230294E-01 
 3.0811246042597E-09  3.0811245279854E-09  3.0811245395565E-09  3.0811245899023E-09  3.0811245025913E-09  3.0811245339119E-09  3.0811246177638E-09  3.0811245409720E-09  3.0811245606144E-09  3.0811246597684E-09 
 2.7721107279669E-02  2.7721107396504E-02  2.7721107522144E-02  2.7721107530885E-02  2.7721107528649E-02  2.7721107529665E-02  2.7721107532071E-02  2.7721107548688E-02  2.7721107865425E-02  2.7721108164764E-02 
 2.7721107279669E-02  2.7721107396504E-02  2.7721107522144E-02  2.7721107530885E-02  2.7721107528649E-02  2.7721107529665E-02  2.7721107532071E-02  2.7721107548688E-02  2.7721107865425E-02  2.7721108164764E-02 
 0.0000000000000E+00  0.0000000000000E+00  0.0000000000000E+00  0.0000000000000E+00  0.0000000000000E+00  0.0000000000000E+00  0.0000000000000E+00  0.0000000000000E+00  0.0000000000000E+00  0.0000000000000E+00 
ZONE T = "SEP , 1.6188E-07", I = 10, SOLUTIONTIME = 1.618750E-07
ZONETYPE = ORDERED
DATAPACKING = BLOCK
STRANDID = 2
 7.8740000000000E-04  8.4102222222222E-04  8.9464444444444E-04  9.4826666666667E-04  1.0018888888889E-03  1.0555111111111E-03  1.1091333333333E-03  1.1627555555556E-03  1.2163777777778E-03  1.2700000000000E-03 
 2.0896912553770E-08  2.0896912553770E-08  2.0896912553770E-08  2.0896912553770E-08  2.0896912553770E-08  2.0896912553770E-08  2.0896912553770E-08  2.0896912553770E-08  2.0896912553770E-08  1.9737501482857E-08 
 9.1999999999536E-01  9.2000000000000E-01  9.2000000000000E-01  9.2000000000000E-01  9.2000000000000E-01  9.2000000000000E-01  9.2000000000000E-01  9.2000000000000E-01  9.2000000000000E-01  9.2000000000514E-01 
 4.0000000002321E-02  4.0000000000001E-02  4.0000000000000E-02  4.0000000000000E-02  4.0000000000000E-02  4.0000000000000E-02  4.0000000000000E-02  4.0000000000000E-02  3.9999999999999E-02  3.9999999997428E-02 
 4.0000000002321E-02  4.0000000000001E-02  4.0000000000000E-02  4.0000000000000E-02  4.0000000000000E-02  4.0000000000000E-02  4.0000000000000E-02  4.0000000000000E-02  3.9999999999999E-02  3.9999999997428E-02 
 2.9253439578137E-02  2.9253390132189E-02  2.9253340686240E-02  2.9253291240291E-02  2.9253241794342E-02  2.9253192348393E-02  2.9253142902444E-02  2.9253093456495E-02  2.9253044010546E-02  2.9252994564595E-02 
 2.9814999253204E+02  2.9814999941863E+02  2.9814999996221E+02  2.9814999998842E+02  2.9814999998249E+02  2.9815000000499E+02  2.9815000001672E+02  2.9815000009684E+02  2.9815000144195E+02  2.9815001939424E+02 
 8.0911499769706E-01  8.0911499769706E-01  8.0911499769706E-01  8.0911499769706E-01  8.0911499769706E-01  8.0911499769706E-01  8.0911499769706E-01  8.0911499769706E-01  8.0911499769706E-01  8.0911499769706E-01 
 2.6811111111111E-05  5.3622222222222E-05  5.3622222222222E-05  5.3622222222222E-05  5.3622222222222E-05  5.3622222222222E-05  5.3622222222222E-05  5.3622222222223E-05  5.3622222222222E-05  2.6811111111111E-05 
 1.9088500230294E-01  1.9088500230294E-01  1.9088500230294E-01  1.9088500230294E-01  1.9088500230294E-01  1.9088500230294E-01  1.9088500230294E-01  1.9088500230294E-01  1.9088500230294E-01  1.9088500230294E-01 
 4.4859458551023E-09  4.4859457875024E-09  4.4859458084567E-09  4.4859458595860E-09  4.4859457723302E-09  4.4859458035910E-09  4.4859458875900E-09  4.4859458126583E-09  4.4859458567594E-09  4.4859459786994E-09 
 2.7749555572201E-02  2.7749555743547E-02  2.7749555928894E-02  2.7749555944370E-02  2.7749555945460E-02  2.7749555944278E-02  2.7749555947185E-02  2.7749555983927E-02  2.7749556467061E-02  2.7749556917155E-02 
 2.7749555572201E-02  2.7749555743547E-02  2.7749555928894E-02  2.7749555944370E-02  2.7749555945460E-02  2.7749555944278E-02  2.7749555947185E-02  2.7749555983927E-02  2.7749556467061E-02  2.7749556917155E-02 
 0.0000000000000E+00  0.0000000000000E+00  0.0000000000000E+00  0.0000000000000E+00  0.0000000000000E+00  0.0000000000000E+00  0.0000000000000E+00  0.0000000000000E+00  0.0000000000000E+00  0.0000000000000E+00 
ZONE T = "SEP , 2.3781E-07", I = 10, SOLUTIONTIME = 2.378125E-07
ZONETYPE = ORDERED
DATAPACKING = BLOCK
STRANDID = 2
 7.8740000000000E-04  8.4102222222222E-04  8.9464444444444E-04  9.4826666666667E-04  1.0018888888889E-03  1.0555111111111E-03  1.1091333333333E-03  1.1627555555556E-03  1.2163777777778E-03  1.2700000000000E-03 
 2.0913164436801E-08  2.0913451415746E-08  2.0913451415746E-08  2.0913451415746E-08  2.0913451415746E-08  2.0913451415746E-08  2.0913451415746E-08  2.0913451415746E-08  2.0913355756098E-08  1.9752553169980E-08 
 9.1999999999319E-01  9.2000000000000E-01  9.2000000000000E-01  9.2000000000000E-01  9.2000000000000E-01  9.2000000000000E-01  9.2000000000000E-01  9.2000000000000E-01  9.2000000000000E-01  9.2000000000756E-01 
 4.0000000003403E-02  4.0000000000002E-02  4.0000000000000E-02  4.0000000000000E-02  4.0000000000000E-02  4.0000000000000E-02  4.0000000000000E-02  4.0000000000000E-02  3.9999999999998E-02  3.9999999996220E-02 
 4.0000000003403E-02  4.0000000000002E-02  4.0000000000000E-02  4.0000000000000E-02  4.0000000000000E-02  4.0000000000000E-02  4.0000000000000E-02  4.0000000000000E-02  3.9999999999998E-02  3.9999999996220E-02 
 2.9293951128583E-02  2.9293901644916E-02  2.9293852161248E-02  2.9293802677580E-02  2.9293753193912E-02  2.9293703710243E-02  2.9293654226575E-02  2.9293604742907E-02  2.9293555259238E-02  2.9293505775568E-02 
 2.9814998896080E+02  2.9814999883395E+02  2.9814999990318E+02  2.9814999998247E+02  2.9814999998569E+02  2.9815000000397E+02  2.9815000003099E+02  2.9815000027299E+02  2.9815000303644E+02  2.9815002946165E+02 
 8.0911499769706E-01  8.0911499769706E-01  8.0911499769706E-01  8.0911499769706E-01  8.0911499769706E-01  8.0911499769706E-01  8.0911499769706E-01  8.0911499769706E-01  8.0911499769706E-01  8.0911499769706E-01 
 2.6811111111111E-05  5.3622222222222E-05  5.3622222222222E-05  5.3622222222222E-05  5.3622222222222E-05  5.3622222222222E-05  5.3622222222222E-05  5.3622222222223E-05  5.3622222222222E-05  2.6811111111111E-05 