TITLE = "Solution on Domain BulkDomain1D_0"
VARIABLES = "x [m]"  
"Vel_axial" 
"MF_sp(ECDMC)" 
"MF_sp(Li+)" 
"MF_sp(PF6-)" 
"Volt(Electroly)" 
"Volt(AnodeVolt)" 
"Temperature" 
"Potential Drop Electrode-Electrolyte [V]" 
"Surf_0 Equilibrium Potential Drop Electrode-Electrolyte [V]" 
"Overpotential_0 [V]" 
"Current Source [A/m^2]" 
"Li+ flux [kmol/m^2/s]" 
"Electrolyte Current [A/m^2]" 
"Electrode Current [A/m^2]" 
"CV Capacity discharged [A-s/m^2]" 
"Depth of discharge in CV [A-s/m^2]" 
"CV Capacity remaining [A-s/m^2]" 
"Initial CV capacity [A-s/m^2]" 
"Porosity []" 
"Surface Area [m2/m2] (area per area)" 
"Specific current (per particle area) [A/m^2]" 
"Control volume thickness [m]" 
"MoleDens Li_C6-bulk [kmol/m^3]" 
"MoleDens V_C6-bulk [kmol/m^3]" 
"qHeat_accum [J/m3]" 
"qHeat_step [W/m3]" 
"Joule_Lyte [W/m3]" 
"Joule_Solid [W/m3]" 
"electrodHeat [W/m3]" 
"OverpotHeat [W/m3]" 
"deltaSHeat [W/m3]" 

ZONE T = "ANOD, 0.0000E+00", I = 10, SOLUTIONTIME = 0.000000E+00
ZONETYPE = ORDERED
DATAPACKING = BLOCK
STRANDID = 1
 0.0000000000000E+00  8.7488888888889E-05  1.7497777777778E-04  2.6246666666667E-04  3.4995555555556E-04  4.3744444444444E-04  5.2493333333333E-04  6.1242222222222E-04  6.9991111111111E-04  7.8740000000000E-04 
 0.0000000000000E+00  0.0000000000000E+00  0.0000000000000E+00  0.0000000000000E+00  0.0000000000000E+00  0.0000000000000E+00  0.0000000000000E+00  0.0000000000000E+00  0.0000000000000E+00  0.0000000000000E+00 
 9.2000000000000E-01  9.2000000000000E-01  9.2000000000000E-01  9.2000000000000E-01  9.2000000000000E-01  9.2000000000000E-01  9.2000000000000E-01  9.2000000000000E-01  9.2000000000000E-01  9.2000000000000E-01 
 4.0000000000000E-02  4.0000000000000E-02  4.0000000000000E-02  4.0000000000000E-02  4.0000000000000E-02  4.0000000000000E-02  4.0000000000000E-02  4.0000000000000E-02  4.0000000000000E-02  4.0000000000000E-02 
 4.0000000000000E-02  4.0000000000000E-02  4.0000000000000E-02  4.0000000000000E-02  4.0000000000000E-02  4.0000000000000E-02  4.0000000000000E-02  4.0000000000000E-02  4.0000000000000E-02  4.0000000000000E-02 
-7.0000000000000E-02 -7.0000000000000E-02 -7.0000000000000E-02 -7.0000000000000E-02 -7.0000000000000E-02 -7.0000000000000E-02 -7.0000000000000E-02 -7.0000000000000E-02 -7.0000000000000E-02 -7.0000000000000E-02 
 0.0000000000000E+00  0.0000000000000E+00  0.0000000000000E+00  0.0000000000000E+00  0.0000000000000E+00  0.0000000000000E+00  0.0000000000000E+00  0.0000000000000E+00  0.0000000000000E+00  0.0000000000000E+00 
 2.9815000000000E+02  2.9815000000000E+02  2.9815000000000E+02  2.9815000000000E+02  2.9815000000000E+02  2.9815000000000E+02  2.9815000000000E+02  2.9815000000000E+02  2.9815000000000E+02  2.9815000000000E+02 
 7.0000000000000E-02  7.0000000000000E-02  7.0000000000000E-02  7.0000000000000E-02  7.0000000000000E-02  7.0000000000000E-02  7.0000000000000E-02  7.0000000000000E-02  7.0000000000000E-02  7.0000000000000E-02 
-4.0906712753390E-02 -4.0906712753390E-02 -4.0906712753390E-02 -4.0906712753390E-02 -4.0906712753390E-02 -4.0906712753390E-02 -4.0906712753390E-02 -4.0906712753390E-02 -4.0906712753390E-02 -4.0906712753390E-02 
 1.1090671275339E-01  1.1090671275339E-01  1.1090671275339E-01  1.1090671275339E-01  1.1090671275339E-01  1.1090671275339E-01  1.1090671275339E-01  1.1090671275339E-01  1.1090671275339E-01  1.1090671275339E-01 
 3.0930240924008E+01  6.1860481848017E+01  6.1860481848017E+01  6.1860481848017E+01  6.1860481848017E+01  6.1860481848017E+01  6.1860481848017E+01  6.1860481848017E+01  6.1860481848017E+01  3.0930240924008E+01 
-0.0000000000000E+00 -0.0000000000000E+00 -0.0000000000000E+00 -0.0000000000000E+00 -0.0000000000000E+00 -0.0000000000000E+00 -0.0000000000000E+00 -0.0000000000000E+00 -0.0000000000000E+00 -0.0000000000000E+00 
 0.0000000000000E+00  0.0000000000000E+00  0.0000000000000E+00  0.0000000000000E+00  0.0000000000000E+00  0.0000000000000E+00  0.0000000000000E+00  0.0000000000000E+00  0.0000000000000E+00  3.0930240924008E+01 
 3.0930240924008E+01 -0.0000000000000E+00 -0.0000000000000E+00 -0.0000000000000E+00 -0.0000000000000E+00 -0.0000000000000E+00 -0.0000000000000E+00 -0.0000000000000E+00 -0.0000000000000E+00  0.0000000000000E+00 
 0.0000000000000E+00  0.0000000000000E+00  0.0000000000000E+00  0.0000000000000E+00  0.0000000000000E+00  0.0000000000000E+00  0.0000000000000E+00  0.0000000000000E+00  0.0000000000000E+00  0.0000000000000E+00 
 4.5724222271641E+04  9.1448444543281E+04  9.1448444543281E+04  9.1448444543281E+04  9.1448444543281E+04  9.1448444543281E+04  9.1448444543281E+04  9.1448444543281E+04  9.1448444543281E+04  4.5724222271641E+04 
 3.3835924481014E+05  6.7671848962028E+05  6.7671848962028E+05  6.7671848962028E+05  6.7671848962028E+05  6.7671848962028E+05  6.7671848962028E+05  6.7671848962028E+05  6.7671848962028E+05  3.3835924481014E+05 
 3.8408346708178E+05  7.6816693416356E+05  7.6816693416356E+05  7.6816693416356E+05  7.6816693416356E+05  7.6816693416356E+05  7.6816693416356E+05  7.6816693416356E+05  7.6816693416356E+05  3.8408346708178E+05 
 3.5000000000000E-01  3.5000000000000E-01  3.5000000000000E-01  3.5000000000000E-01  3.5000000000000E-01  3.5000000000000E-01  3.5000000000000E-01  3.5000000000000E-01  3.5000000000000E-01  3.5000000000000E-01 
 8.5301666666667E+00  1.7060333333333E+01  1.7060333333333E+01  1.7060333333333E+01  1.7060333333333E+01  1.7060333333333E+01  1.7060333333333E+01  1.7060333333333E+01  1.7060333333333E+01  8.5301666666667E+00 
 3.6259831879809E+00  3.6259831879809E+00  3.6259831879809E+00  3.6259831879809E+00  3.6259831879809E+00  3.6259831879809E+00  3.6259831879809E+00  3.6259831879809E+00  3.6259831879809E+00  3.6259831879809E+00 
 4.3744444444444E-05  8.7488888888889E-05  8.7488888888889E-05  8.7488888888889E-05  8.7488888888889E-05  8.7488888888889E-05  8.7488888888889E-05  8.7488888888889E-05  8.7488888888889E-05  4.3744444444444E-05 
 8.6666666666667E+01  8.6666666666667E+01  8.6666666666667E+01  8.6666666666667E+01  8.6666666666667E+01  8.6666666666667E+01  8.6666666666667E+01  8.6666666666667E+01  8.6666666666667E+01  8.6666666666667E+01 
 2.1666666666667E+01  2.1666666666667E+01  2.1666666666667E+01  2.1666666666667E+01  2.1666666666667E+01  2.1666666666667E+01  2.1666666666667E+01  2.1666666666667E+01  2.1666666666667E+01  2.1666666666667E+01 
 0.0000000000000E+00  0.0000000000000E+00  0.0000000000000E+00  0.0000000000000E+00  0.0000000000000E+00  0.0000000000000E+00  0.0000000000000E+00  0.0000000000000E+00  0.0000000000000E+00  0.0000000000000E+00 
 0.0000000000000E+00  0.0000000000000E+00  0.0000000000000E+00  0.0000000000000E+00  0.0000000000000E+00  0.0000000000000E+00  0.0000000000000E+00  0.0000000000000E+00  0.0000000000000E+00  0.0000000000000E+00 
 0.0000000000000E+00  0.0000000000000E+00  0.0000000000000E+00  0.0000000000000E+00  0.0000000000000E+00  0.0000000000000E+00  0.0000000000000E+00  0.0000000000000E+00  0.0000000000000E+00  0.0000000000000E+00 
 0.0000000000000E+00  0.0000000000000E+00  0.0000000000000E+00  0.0000000000000E+00  0.0000000000000E+00  0.0000000000000E+00  0.0000000000000E+00  0.0000000000000E+00  0.0000000000000E+00  0.0000000000000E+00 
 0.0000000000000E+00  0.0000000000000E+00  0.0000000000000E+00  0.0000000000000E+00  0.0000000000000E+00  0.0000000000000E+00  0.0000000000000E+00  0.0000000000000E+00  0.0000000000000E+00  0.0000000000000E+00 
 0.0000000000000E+00  0.0000000000000E+00  0.0000000000000E+00  0.0000000000000E+00  0.0000000000000E+00  0.0000000000000E+00  0.0000000000000E+00  0.0000000000000E+00  0.0000000000000E+00  0.0000000000000E+00 
 0.0000000000000E+00  0.0000000000000E+00  0.0000000000000E+00  0.0000000000000E+00  0.0000000000000E+00  0.0000000000000E+00  0.0000000000000E+00  0.0000000000000E+00  0.0000000000000E+00  0.0000000000000E+00 
ZONE T = "ANOD, 1.0000E-08", I = 10, SOLUTIONTIME = 1.000000E-08
ZONETYPE = ORDERED
DATAPACKING = BLOCK
STRANDID = 1
 0.0000000000000E+00  8.7488888888889E-05  1.7497777777778E-04  2.6246666666667E-04  3.4995555555556E-04  4.3744444444444E-04  5.2493333333333E-04  6.1242222222222E-04  6.9991111111111E-04  7.8740000000000E-04 
 1.1699590888824E-09  3.4871577462054E-09  5.8040778624547E-09  8.1210094547605E-09  1.0437962507658E-08  1.2754943484880E-08  1.5071958808995E-08  1.7389014909925E-08  1.9705755135329E-08  2.0865060340246E-08 
 9.1999999999930E-01  9.1999999999930E-01  9.1999999999930E-01  9.1999999999930E-01  9.1999999999930E-01  9.1999999999930E-01  9.1999999999930E-01  9.1999999999930E-01  9.1999999999930E-01  9.1999999999971E-01 
 4.0000000000352E-02  4.0000000000348E-02  4.0000000000348E-02  4.0000000000348E-02  4.0000000000348E-02  4.0000000000348E-02  4.0000000000348E-02  4.0000000000348E-02  4.0000000000348E-02  4.0000000000144E-02 
 4.0000000000352E-02  4.0000000000348E-02  4.0000000000348E-02  4.0000000000348E-02  4.0000000000348E-02  4.0000000000348E-02  4.0000000000348E-02  4.0000000000348E-02  4.0000000000348E-02  4.0000000000144E-02 
 2.9172734638113E-02  2.9172718760891E-02  2.9172671441351E-02  2.9172592682062E-02  2.9172482482846E-02  2.9172340843398E-02  2.9172167763334E-02  2.9171963242202E-02  2.9171727279430E-02  2.9171459874397E-02 
 0.0000000000000E+00 -4.7349956863461E-09 -8.9128920285612E-09 -1.2533755993310E-08 -1.5597584821526E-08 -1.8104373353671E-08 -2.0054114876191E-08 -2.1446801131430E-08 -2.2282422315859E-08 -2.2560967049901E-08 
 2.9819800349796E+02  2.9815060794753E+02  2.9815000619745E+02  2.9814999861808E+02  2.9814999849074E+02  2.9814999844324E+02  2.9814999838217E+02  2.9814999832547E+02  2.9814999853335E+02  2.9814999956203E+02 
-2.9172734638113E-02 -2.9172723495886E-02 -2.9172680354243E-02 -2.9172605215818E-02 -2.9172498080431E-02 -2.9172358947771E-02 -2.9172187817449E-02 -2.9171984689003E-02 -2.9171749561853E-02 -2.9171482435364E-02 
-4.0940234566843E-02 -4.0907137282808E-02 -4.0906717080761E-02 -4.0906711788091E-02 -4.0906711699182E-02 -4.0906711666011E-02 -4.0906711623367E-02 -4.0906711583771E-02 -4.0906711728934E-02 -4.0906712447391E-02 
 1.1767499928730E-02  1.1734413786922E-02  1.1734036726518E-02  1.1734106572274E-02  1.1734213618751E-02  1.1734352718240E-02  1.1734523805918E-02  1.1734726894768E-02  1.1734962167081E-02  1.1735230012026E-02 
 1.6848429170757E+00  3.3369677521698E+00  3.3365666280356E+00  3.3365831543868E+00  3.3366140584298E+00  3.3366542733628E+00  3.3367037351227E+00  3.3367624561900E+00  3.3368306156130E+00  1.6684542979648E+00 
 8.7310382389767E-09  2.6023563302634E-08  4.3314019076579E-08  6.0604546122042E-08  7.7895241122756E-08  9.5186146946468E-08  1.1247730152943E-07  1.2976877036515E-07  1.4706065282512E-07  1.4706065282512E-07 
 0.0000000000000E+00  3.3533093051539E+00  6.6900599636946E+00  1.0026617727802E+01  1.3363198572262E+01  1.6699815963117E+01  2.0036477697204E+01  2.3373193753192E+01  2.6709973083513E+01  3.0046833523739E+01 
 3.0046834358956E+01  2.6693516127733E+01  2.3356766060126E+01  2.0020208289987E+01  1.6683626804152E+01  1.3347009759201E+01  1.0010347876482E+01  6.6736319017117E+00  3.3368524849589E+00  0.0000000000000E+00 
 1.6848429170757E-08  3.3369677521698E-08  3.3365666280356E-08  3.3365831543868E-08  3.3366140584298E-08  3.3366542733628E-08  3.3367037351227E-08  3.3367624561900E-08  3.3368306156130E-08  1.6684542979648E-08 
 4.5724222271657E+04  9.1448444543315E+04  9.1448444543315E+04  9.1448444543315E+04  9.1448444543315E+04  9.1448444543315E+04  9.1448444543315E+04  9.1448444543315E+04  9.1448444543315E+04  4.5724222271657E+04 
 3.3835924481012E+05  6.7671848962025E+05  6.7671848962025E+05  6.7671848962025E+05  6.7671848962025E+05  6.7671848962025E+05  6.7671848962025E+05  6.7671848962025E+05  6.7671848962025E+05  3.3835924481012E+05 
 3.8408346708178E+05  7.6816693416356E+05  7.6816693416356E+05  7.6816693416356E+05  7.6816693416356E+05  7.6816693416356E+05  7.6816693416356E+05  7.6816693416356E+05  7.6816693416356E+05  3.8408346708178E+05 
 3.5000000000000E-01  3.5000000000000E-01  3.5000000000000E-01  3.5000000000000E-01  3.5000000000000E-01  3.5000000000000E-01  3.5000000000000E-01  3.5000000000000E-01  3.5000000000000E-01  3.5000000000000E-01 
 8.5301666666667E+00  1.7060333333333E+01  1.7060333333333E+01  1.7060333333333E+01  1.7060333333333E+01  1.7060333333333E+01  1.7060333333333E+01  1.7060333333333E+01  1.7060333333333E+01  8.5301666666667E+00 
 1.9751582623345E-01  1.9559803943865E-01  1.9557452734622E-01  1.9557549604659E-01  1.9557730750258E-01  1.9557966472106E-01  1.9558256394693E-01  1.9558600591176E-01  1.9559000111055E-01  1.9559457196594E-01 
 4.3744444444444E-05  8.7488888888889E-05  8.7488888888889E-05  8.7488888888889E-05  8.7488888888889E-05  8.7488888888889E-05  8.7488888888889E-05  8.7488888888889E-05  8.7488888888889E-05  4.3744444444444E-05 
 8.6666666666663E+01  8.6666666666663E+01  8.6666666666663E+01  8.6666666666663E+01  8.6666666666663E+01  8.6666666666663E+01  8.6666666666663E+01  8.6666666666663E+01  8.6666666666663E+01  8.6666666666663E+01 
 2.1666666666671E+01  2.1666666666671E+01  2.1666666666671E+01  2.1666666666671E+01  2.1666666666671E+01  2.1666666666671E+01  2.1666666666671E+01  2.1666666666671E+01  2.1666666666671E+01  2.1666666666671E+01 
-7.5673989794719E-05 -7.4934601692589E-05 -7.4925486154460E-05 -7.4925770563766E-05 -7.4926341952833E-05 -7.4927085822808E-05 -7.4928000723838E-05 -7.4929086935187E-05 -7.4930348499652E-05 -7.4931902044368E-05 
-7.5673989794719E+03 -7.4934601692589E+03 -7.4925486154460E+03 -7.4925770563766E+03 -7.4926341952833E+03 -7.4927085822808E+03 -7.4928000723838E+03 -7.4929086935187E+03 -7.4930348499652E+03 -7.4931902044368E+03 
 3.0575866641136E-04  1.5109291094684E-03  5.1202221237434E-03  1.1127500831790E-02  1.9532890440426E-02  3.0336485979797E-02  4.3538399682382E-02  5.9138778369977E-02  7.7137789444681E-02  8.6736973466813E-02 
 1.5349824285006E-03  1.3650072406091E-03  1.0463220268659E-03  7.7014484947256E-04  5.3645332438383E-04  3.4524773815706E-04  1.9652909455635E-04  9.0298870834939E-05  2.6559014991545E-05  5.3119519485851E-06 
-7.5674008202130E+03 -7.4934630451953E+03 -7.4925547819901E+03 -7.4925889540223E+03 -7.4926542646270E+03 -7.4927392640145E+03 -7.4928438073125E+03 -7.4929679225959E+03 -7.4931120143137E+03 -7.4932769467222E+03 
 4.5323215687810E+02  4.4756952449186E+02  4.4750134390566E+02  4.4750622414803E+02  4.4751445152553E+02  4.4752515022716E+02  4.4753830927678E+02  4.4755393095206E+02  4.4757204635039E+02  4.4759272177273E+02 
-8.0206329770911E+03 -7.9410325696872E+03 -7.9400561258958E+03 -7.9400951781704E+03 -7.9401687161526E+03 -7.9402644142417E+03 -7.9403821165893E+03 -7.9405218535480E+03 -7.9406840606641E+03 -7.9408696684949E+03 
ZONE T = "ANOD, 2.0000E-08", I = 10, SOLUTIONTIME = 2.000000E-08
ZONETYPE = ORDERED
DATAPACKING = BLOCK
STRANDID = 1
 0.0000000000000E+00  8.7488888888889E-05  1.7497777777778E-04  2.6246666666667E-04  3.4995555555556E-04  4.3744444444444E-04  5.2493333333333E-04  6.1242222222222E-04  6.9991111111111E-04  7.8740000000000E-04 
 1.1808678604442E-09  3.4975624448420E-09  5.8134234368031E-09  8.1292853460298E-09  1.0445168562372E-08  1.2761079729551E-08  1.5077025253530E-08  1.7393011539222E-08  1.9709045230352E-08  2.0867089360800E-08 
 9.1999999999859E-01  9.1999999999861E-01  9.1999999999861E-01  9.1999999999861E-01  9.1999999999861E-01  9.1999999999861E-01  9.1999999999861E-01  9.1999999999861E-01  9.1999999999861E-01  9.1999999999942E-01 
 4.0000000000706E-02  4.0000000000696E-02  4.0000000000696E-02  4.0000000000696E-02  4.0000000000696E-02  4.0000000000696E-02  4.0000000000696E-02  4.0000000000696E-02  4.0000000000696E-02  4.0000000000288E-02 
 4.0000000000706E-02  4.0000000000696E-02  4.0000000000696E-02  4.0000000000696E-02  4.0000000000696E-02  4.0000000000696E-02  4.0000000000696E-02  4.0000000000696E-02  4.0000000000696E-02  4.0000000000288E-02 
 2.9178116983370E-02  2.9178100959286E-02  2.9178053500922E-02  2.9177974617288E-02  2.9177864308233E-02  2.9177722573463E-02  2.9177549412601E-02  2.9177344825178E-02  2.9177108810643E-02  2.9176841368352E-02 
 0.0000000000000E+00 -4.7329481447767E-09 -8.9089181342968E-09 -1.2528110380294E-08 -1.5590524662240E-08 -1.8096155857491E-08 -2.0044997246128E-08 -2.1437040568111E-08 -2.2272276023536E-08 -2.2550692215220E-08 
 2.9824461128229E+02  2.9815179247186E+02  2.9815002734643E+02  2.9814999758137E+02  2.9814999708789E+02  2.9814999705426E+02  2.9814999698197E+02  2.9814999686862E+02  2.9814999721439E+02  2.9814999911006E+02 
-2.9178116983370E-02 -2.9178105692234E-02 -2.9178062409841E-02 -2.9177987145398E-02 -2.9177879898757E-02 -2.9177740669619E-02 -2.9177569457598E-02 -2.9177366262219E-02 -2.9177131082919E-02 -2.9176863919044E-02 
-4.0972783612456E-02 -4.0907964436701E-02 -4.0906731848799E-02 -4.0906711063866E-02 -4.0906710719272E-02 -4.0906710695785E-02 -4.0906710645304E-02 -4.0906710566153E-02 -4.0906710807603E-02 -4.0906712131612E-02 
 1.1794666629087E-02  1.1729858744467E-02  1.1728669438958E-02  1.1728723918468E-02  1.1728830820514E-02  1.1728970026165E-02  1.1729141187706E-02  1.1729344303934E-02  1.1729579724684E-02  1.1729848212569E-02 
 1.7002822496161E+00  3.3362247231394E+00  3.3350242836162E+00  3.3350256045570E+00  3.3350562885070E+00  3.3350965399331E+00  3.3351460164565E+00  3.3352047165846E+00  3.3352729841748E+00  1.6676757844953E+00 
 8.8110950468045E-09  2.6099857084916E-08  4.3382401737479E-08  6.0664953293131E-08  7.7947663867616E-08  9.5230583026411E-08  1.1251375856929E-07  1.2979723832441E-07  1.4708121597209E-07  1.4708121597209E-07 
 0.0000000000000E+00  3.3683946112979E+00  6.7040191144048E+00  1.0039044058443E+01  1.3374085005100E+01  1.6709161419484E+01  2.0044282697521E+01  2.3379458064012E+01  2.6714696914517E+01  3.0050009191023E+01 
 3.0050009191101E+01  2.6681614579920E+01  2.3345990076542E+01  2.0010965132448E+01  1.6675924185914E+01  1.3340847771693E+01  1.0005726493493E+01  6.6705511269713E+00  3.3353122765899E+00  0.0000000000000E+00 
 3.3851251666918E-08  6.6731924753092E-08  6.6715909116518E-08  6.6716087589438E-08  6.6716703469368E-08  6.6717508132960E-08  6.6718497515791E-08  6.6719671727746E-08  6.6721035997878E-08  3.3361300824601E-08 
 4.5724222271674E+04  9.1448444543348E+04  9.1448444543348E+04  9.1448444543348E+04  9.1448444543348E+04  9.1448444543348E+04  9.1448444543348E+04  9.1448444543348E+04  9.1448444543348E+04  4.5724222271674E+04 
 3.3835924481011E+05  6.7671848962021E+05  6.7671848962021E+05  6.7671848962021E+05  6.7671848962021E+05  6.7671848962021E+05  6.7671848962021E+05  6.7671848962021E+05  6.7671848962021E+05  3.3835924481011E+05 
 3.8408346708178E+05  7.6816693416356E+05  7.6816693416356E+05  7.6816693416356E+05  7.6816693416356E+05  7.6816693416356E+05  7.6816693416356E+05  7.6816693416356E+05  7.6816693416356E+05  3.8408346708178E+05 
 3.5000000000000E-01  3.5000000000000E-01  3.5000000000000E-01  3.5000000000000E-01  3.5000000000000E-01  3.5000000000000E-01  3.5000000000000E-01  3.5000000000000E-01  3.5000000000000E-01  3.5000000000000E-01 
 8.5301666666667E+00  1.7060333333333E+01  1.7060333333333E+01  1.7060333333333E+01  1.7060333333333E+01  1.7060333333333E+01  1.7060333333333E+01  1.7060333333333E+01  1.7060333333333E+01  8.5301666666667E+00 
 1.9932579468351E-01  1.9555448641914E-01  1.9548412205406E-01  1.9548419948166E-01  1.9548599803679E-01  1.9548835739433E-01  1.9549125748558E-01  1.9549469822305E-01  1.9549869976211E-01  1.9550330605053E-01 
 4.3744444444444E-05  8.7488888888889E-05  8.7488888888889E-05  8.7488888888889E-05  8.7488888888889E-05  8.7488888888889E-05  8.7488888888889E-05  8.7488888888889E-05  8.7488888888889E-05  4.3744444444444E-05 
 8.6666666666659E+01  8.6666666666659E+01  8.6666666666659E+01  8.6666666666659E+01  8.6666666666659E+01  8.6666666666659E+01  8.6666666666659E+01  8.6666666666659E+01  8.6666666666659E+01  8.6666666666659E+01 
 2.1666666666675E+01  2.1666666666675E+01  2.1666666666675E+01  2.1666666666675E+01  2.1666666666675E+01  2.1666666666675E+01  2.1666666666675E+01  2.1666666666675E+01  2.1666666666675E+01  2.1666666666675E+01 
-1.5204814673957E-04 -1.4985468558829E-04 -1.4981839108021E-04 -1.4981861618621E-04 -1.4981975393479E-04 -1.4982124248378E-04 -1.4982307264401E-04 -1.4982524465827E-04 -1.4982777033658E-04 -1.4983089119357E-04 
-7.6374156944847E+03 -7.4920083895705E+03 -7.4892904925749E+03 -7.4892845622442E+03 -7.4893411981953E+03 -7.4894156660975E+03 -7.4895071920171E+03 -7.4896157723079E+03 -7.4897421836932E+03 -7.4898989149206E+03 
 6.1717496486671E-04  3.0326643058023E-03  1.0260310195475E-02  2.2281580311445E-02  3.9096853608852E-02  6.0706322315219E-02  8.7110215422076E-02  1.1830882291438E-01  1.5430248305625E-01  1.7349811983647E-01 
 3.0686376073089E-03  2.7287999756633E-03  2.0916788496925E-03  1.5395787247471E-03  1.0724114151756E-03  6.9017676451745E-04  3.9287677095313E-04  1.8051439003161E-04  5.3093516647283E-05  1.0619002326982E-05 
-7.6374175395562E+03 -7.4920112750985E+03 -7.4892966780198E+03 -7.4892964857576E+03 -7.4893612981166E+03 -7.4894463808628E+03 -7.4895509601805E+03 -7.4896750325680E+03 -7.4898193749214E+03 -7.4899856813740E+03 
 4.5844135328846E+02  4.4729616800448E+02  4.4708988639523E+02  4.4709214020643E+02  4.4710032876534E+02  4.4711103145530E+02  4.4712418921057E+02  4.4713980189364E+02  4.4715792907019E+02  4.4717870048399E+02 
-8.0958588928446E+03 -7.9393074431029E+03 -7.9363865644151E+03 -7.9363886259640E+03 -7.9364616268819E+03 -7.9365574123181E+03 -7.9366751493911E+03 -7.9368148344616E+03 -7.9369773039916E+03 -7.9371643818580E+03 
ZONE T = "ANOD, 3.0000E-08", I = 10, SOLUTIONTIME = 3.000000E-08
ZONETYPE = ORDERED
DATAPACKING = BLOCK
STRANDID = 1
 0.0000000000000E+00  8.7488888888889E-05  1.7497777777778E-04  2.6246666666667E-04  3.4995555555556E-04  4.3744444444444E-04  5.2493333333333E-04  6.1242222222222E-04  6.9991111111111E-04  7.8740000000000E-04 
 1.1911677885087E-09  3.5076039229695E-09  5.8234914031960E-09  8.1393592006912E-09  1.0455247867289E-08  1.2770074826973E-08  1.5086025826736E-08  1.7400927994081E-08  1.9715877629582E-08  2.0873379981257E-08 
 9.1999999999787E-01  9.1999999999791E-01  9.1999999999791E-01  9.1999999999791E-01  9.1999999999791E-01  9.1999999999791E-01  9.1999999999791E-01  9.1999999999791E-01  9.1999999999791E-01  9.1999999999914E-01 
 4.0000000001064E-02  4.0000000001044E-02  4.0000000001044E-02  4.0000000001044E-02  4.0000000001044E-02  4.0000000001044E-02  4.0000000001044E-02  4.0000000001044E-02  4.0000000001044E-02  4.0000000000432E-02 
 4.0000000001064E-02  4.0000000001044E-02  4.0000000001044E-02  4.0000000001044E-02  4.0000000001044E-02  4.0000000001044E-02  4.0000000001044E-02  4.0000000001044E-02  4.0000000001044E-02  4.0000000000432E-02 
 2.9183511115424E-02  2.9183494947813E-02  2.9183447350584E-02  2.9183368342647E-02  2.9183257924000E-02  2.9183116094352E-02  2.9182942853323E-02  2.9182738200447E-02  2.9182502135168E-02  2.9182234656843E-02 
 0.0000000000000E+00 -4.7309363638415E-09 -8.9049567087868E-09 -1.2522454908392E-08 -1.5583435694765E-08 -1.8087894050571E-08 -2.0035823264200E-08 -2.1427215061163E-08 -2.2262059634574E-08 -2.2540345572169E-08 
 2.9828987855072E+02  2.9815352204913E+02  2.9815006993997E+02  2.9814999692119E+02  2.9814999546351E+02  2.9814999531833E+02  2.9814999533957E+02  2.9814999526126E+02  2.9814999571945E+02  2.9814999864743E+02 
-2.9183511115424E-02 -2.9183499678749E-02 -2.9183456255541E-02 -2.9183380865102E-02 -2.9183273507436E-02 -2.9183134182246E-02 -2.9182962889147E-02 -2.9182759627662E-02 -2.9182524397228E-02 -2.9182257197189E-02 
-4.1004398274137E-02 -4.0909172203594E-02 -4.0906761591550E-02 -4.0906710602559E-02 -4.0906709584657E-02 -4.0906709483281E-02 -4.0906709498115E-02 -4.0906709443431E-02 -4.0906709763384E-02 -4.0906711808386E-02 
 1.1820887158713E-02  1.1725672524845E-02  1.1723305336009E-02  1.1723329737458E-02  1.1723436077221E-02  1.1723575301034E-02  1.1723746608969E-02  1.1723949815769E-02  1.1724185366156E-02  1.1724454611198E-02 
 1.7153764903803E+00  3.3358525346533E+00  3.3334932846610E+00  3.3334649399767E+00  3.3334949931651E+00  3.3335351948117E+00  3.3335847578692E+00  3.3336434998132E+00  3.3337118577175E+00  1.6668955799131E+00 
 8.8893189285612E-09  2.6176148827840E-08  4.3450759554635E-08  6.0725223530935E-08  7.7999843264380E-08  9.5274671319485E-08  1.1254975621201E-07  1.2982514553312E-07  1.4710110523033E-07  1.4710110523033E-07 
 0.0000000000000E+00  3.3833027576882E+00  6.7179756673734E+00  1.0051454779670E+01  1.3384934746210E+01  1.6718449840145E+01  2.0052009816350E+01  2.3385623945255E+01  2.6719301624132E+01  3.0053053132827E+01 
 3.0053053132890E+01  2.6669750375192E+01  2.3335077465541E+01  2.0001598353224E+01  1.6668118386673E+01  1.3334603292711E+01  1.0001043316387E+01  6.6674291875530E+00  3.3337515087800E+00  0.0000000000000E+00 
 5.1005016570721E-08  1.0009045009963E-07  1.0005084196313E-07  1.0005073698921E-07  1.0005165340102E-07  1.0005286008108E-07  1.0005434509448E-07  1.0005610672588E-07  1.0005815457505E-07  5.0030256623732E-08 
 4.5724222271692E+04  9.1448444543381E+04  9.1448444543381E+04  9.1448444543381E+04  9.1448444543381E+04  9.1448444543381E+04  9.1448444543381E+04  9.1448444543381E+04  9.1448444543381E+04  4.5724222271691E+04 
 3.3835924481009E+05  6.7671848962018E+05  6.7671848962018E+05  6.7671848962018E+05  6.7671848962018E+05  6.7671848962018E+05  6.7671848962018E+05  6.7671848962018E+05  6.7671848962018E+05  3.3835924481009E+05 
 3.8408346708178E+05  7.6816693416356E+05  7.6816693416356E+05  7.6816693416356E+05  7.6816693416356E+05  7.6816693416356E+05  7.6816693416356E+05  7.6816693416356E+05  7.6816693416356E+05  3.8408346708178E+05 
 3.5000000000000E-01  3.5000000000000E-01  3.5000000000000E-01  3.5000000000000E-01  3.5000000000000E-01  3.5000000000000E-01  3.5000000000000E-01  3.5000000000000E-01  3.5000000000000E-01  3.5000000000000E-01 
 8.5301666666667E+00  1.7060333333333E+01  1.7060333333333E+01  1.7060333333333E+01  1.7060333333333E+01  1.7060333333333E+01  1.7060333333333E+01  1.7060333333333E+01  1.7060333333333E+01  8.5301666666667E+00 
 2.0109530767827E-01  1.9553267040425E-01  1.9539438178197E-01  1.9539272034408E-01  1.9539448192680E-01  1.9539683836648E-01  1.9539974352997E-01  1.9540318671850E-01  1.9540719355136E-01  1.9541184188426E-01 
 4.3744444444444E-05  8.7488888888889E-05  8.7488888888889E-05  8.7488888888889E-05  8.7488888888889E-05  8.7488888888889E-05  8.7488888888889E-05  8.7488888888889E-05  8.7488888888889E-05  4.3744444444444E-05 
 8.6666666666655E+01  8.6666666666655E+01  8.6666666666655E+01  8.6666666666655E+01  8.6666666666655E+01  8.6666666666655E+01  8.6666666666655E+01  8.6666666666655E+01  8.6666666666655E+01  8.6666666666655E+01 
 2.1666666666679E+01  2.1666666666679E+01  2.1666666666679E+01  2.1666666666679E+01  2.1666666666679E+01  2.1666666666679E+01  2.1666666666679E+01  2.1666666666679E+01  2.1666666666679E+01  2.1666666666679E+01 
-2.2910696105359E-04 -2.2476863630277E-04 -2.2467897424157E-04 -2.2467846953185E-04 -2.2468015933054E-04 -2.2468239141936E-04 -2.2468513882067E-04 -2.2468839764971E-04 -2.2469218959051E-04 -2.2469689407883E-04 
-7.7058814314020E+03 -7.4913950714475E+03 -7.4860583161358E+03 -7.4859853345641E+03 -7.4860405395750E+03 -7.4861148935581E+03 -7.4862066176661E+03 -7.4863152991444E+03 -7.4864419253925E+03 -7.4866002885256E+03 
 9.3416997443680E-04  4.5651905928911E-03  1.5420303243541E-02  3.3462234289831E-02  5.8691805675734E-02  9.1109318898486E-02  1.3071512017031E-01  1.7750964283550E-01  2.3149339621192E-01  2.6028264734403E-01 
 4.6009892761601E-03  4.0913836729179E-03  3.1360587278076E-03  2.3082924530786E-03  1.6078678717241E-03  1.0347829622346E-03  5.8904068865091E-04  2.7064548308575E-04  7.9603189140080E-05  1.5921088171490E-05 
-7.7058832807487E+03 -7.4913979665575E+03 -7.4860645205087E+03 -7.4859972839318E+03 -7.4860606699836E+03 -7.4861456411609E+03 -7.4862504187348E+03 -7.4863745900954E+03 -7.4865191428153E+03 -7.4866870783552E+03 
 4.6353936335027E+02  4.4708665191691E+02  4.4668025972982E+02  4.4667739134255E+02  4.4668547015705E+02  4.4669616190234E+02  4.4670933072607E+02  4.4672494521968E+02  4.4674308102845E+02  4.4676396778272E+02 
-8.1694226440989E+03 -7.9384846184744E+03 -7.9327447802385E+03 -7.9326746752743E+03 -7.9327461401406E+03 -7.9328418030632E+03 -7.9329597494609E+03 -7.9330995353151E+03 -7.9332622238437E+03 -7.9334510461379E+03 
ZONE T = "ANOD, 4.0000E-08", I = 10, SOLUTIONTIME = 4.000000E-08
ZONETYPE = ORDERED
DATAPACKING = BLOCK
STRANDID = 1
 0.0000000000000E+00  8.7488888888889E-05  1.7497777777778E-04  2.6246666666667E-04  3.4995555555556E-04  4.3744444444444E-04  5.2493333333333E-04  6.1242222222222E-04  6.9991111111111E-04  7.8740000000000E-04 
 1.2014154403212E-09  3.5178364091231E-09  5.8304922283228E-09  8.1430951319762E-09  1.0456807703675E-08  1.2770548219979E-08  1.5083233473454E-08  1.7397049218158E-08  1.9710912509051E-08  2.0867871909059E-08 
 9.1999999999715E-01  9.1999999999722E-01  9.1999999999722E-01  9.1999999999722E-01  9.1999999999722E-01  9.1999999999722E-01  9.1999999999722E-01  9.1999999999722E-01  9.1999999999722E-01  9.1999999999885E-01 
 4.0000000001425E-02  4.0000000001392E-02  4.0000000001391E-02  4.0000000001391E-02  4.0000000001391E-02  4.0000000001391E-02  4.0000000001391E-02  4.0000000001391E-02  4.0000000001391E-02  4.0000000000576E-02 
 4.0000000001425E-02  4.0000000001392E-02  4.0000000001391E-02  4.0000000001391E-02  4.0000000001391E-02  4.0000000001391E-02  4.0000000001391E-02  4.0000000001391E-02  4.0000000001391E-02  4.0000000000576E-02 
 2.9188917272464E-02  2.9188900964498E-02  2.9188853228232E-02  2.9188774095715E-02  2.9188663567230E-02  2.9188521642487E-02  2.9188348321107E-02  2.9188143602622E-02  2.9187907486477E-02  2.9187639972027E-02 
 0.0000000000000E+00 -4.7289821485770E-09 -8.9010519243752E-09 -1.2516852575658E-08 -1.5576396824347E-08 -1.8079679851268E-08 -2.0026694937998E-08 -2.1417433823645E-08 -2.2251886682740E-08 -2.2530042084260E-08 