TITLE = "Solution on Domain BulkDomain1D_2"
VARIABLES = "x [m]"  
"Vel_axial" 	"MF_sp(ECDMC)" 	"MF_sp(Li+)" 	"MF_sp(PF6-)" 	"Volt(Electroly)" 	"Volt(CathodeVo)" 	"Temperature" 	
"Potential Drop Electrode-Electrolyte [V]" 	"Surf_0 Equilibrium Potential Drop Electrode-Electrolyte [V]" 	"Overpotential_0 [V]" 	"Current Source [A/m^2]" 	"Li+ flux [kmol/m^2/s]" 	"Electrolyte Current [A/m^2]" 	"Electrode Current [A/m^2]" 	
"Capacity discharged [A-s]" 	"Depth of discharge [-]" 	"Capacity remaining [A-s]" 	"Initial capacity [A-s]" 	"Porosity []" 	"Surface Area [m2/m2] (area per area)" 	"Specific current (per particle area) [A/m^2]" 	"Control volume thickness [m]" 	
"Moles LiCoO2 [mol/m^2] (per electrode area)" 	"Moles CoO2 [mol/m^2] (per electrode area)" 	"qHeat_accum [J/m3]" 	"qHeat_step [W/m3]" 	"Joule_Lyte [W/m3]" 	"Joule_Solid [W/m3]" 	"electrodHeat [W/m3]" 	"OverpotHeat [W/m3]" 	"deltaSHeat [W/m3]" 	

ZONE T = "t = 0 [s]" I = 10 SOLUTIONTIME = 0.0000000000000E+00
0.00127 	0 	0.92 	0.04 	0.04 	-0.07 	3.8 	298.15 	
0 	0 	0 	0 	0 	0.119132 	0 	
0 	0 	0 	0 	0.35 	6.604 	-0.0360787 	3.38667e-05 	
0.000900955 	0.000600637 	0 	0.0 	 0.0 	 0.0 	 0.0 	 0.0 	 0.0 	 
0.00133773 	0 	0.92 	0.04 	0.04 	-0.07 	3.8 	298.15 	
0 	0 	0 	0 	0 	0 	-0 	
0 	0 	0 	0 	0.35 	13.208 	-0.0360787 	6.77333e-05 	
0.00180191 	0.00120127 	0 	0.0 	 0.0 	 0.0 	 0.0 	 0.0 	 0.0 	 
0.00140547 	0 	0.92 	0.04 	0.04 	-0.07 	3.8 	298.15 	
0 	0 	0 	0 	0 	0 	-0 	
0 	0 	0 	0 	0.35 	13.208 	-0.0360787 	6.77333e-05 	
0.00180191 	0.00120127 	0 	0.0 	 0.0 	 0.0 	 0.0 	 0.0 	 0.0 	 
0.0014732 	0 	0.92 	0.04 	0.04 	-0.07 	3.8 	298.15 	
0 	0 	0 	0 	0 	0 	-0 	
0 	0 	0 	0 	0.35 	13.208 	-0.0360787 	6.77333e-05 	
0.00180191 	0.00120127 	0 	0.0 	 0.0 	 0.0 	 0.0 	 0.0 	 0.0 	 
0.00154093 	0 	0.92 	0.04 	0.04 	-0.07 	3.8 	298.15 	
0 	0 	0 	0 	0 	0 	-0 	
0 	0 	0 	0 	0.35 	13.208 	-0.0360787 	6.77333e-05 	
0.00180191 	0.00120127 	0 	0.0 	 0.0 	 0.0 	 0.0 	 0.0 	 0.0 	 
0.00160867 	0 	0.92 	0.04 	0.04 	-0.07 	3.8 	298.15 	
0 	0 	0 	0 	0 	0 	-0 	
0 	0 	0 	0 	0.35 	13.208 	-0.0360787 	6.77333e-05 	
0.00180191 	0.00120127 	0 	0.0 	 0.0 	 0.0 	 0.0 	 0.0 	 0.0 	 
0.0016764 	0 	0.92 	0.04 	0.04 	-0.07 	3.8 	298.15 	
0 	0 	0 	0 	0 	0 	-0 	
0 	0 	0 	0 	0.35 	13.208 	-0.0360787 	6.77333e-05 	
0.00180191 	0.00120127 	0 	0.0 	 0.0 	 0.0 	 0.0 	 0.0 	 0.0 	 
0.00174413 	0 	0.92 	0.04 	0.04 	-0.07 	3.8 	298.15 	
0 	0 	0 	0 	0 	0 	-0 	
0 	0 	0 	0 	0.35 	13.208 	-0.0360787 	6.77333e-05 	
0.00180191 	0.00120127 	0 	0.0 	 0.0 	 0.0 	 0.0 	 0.0 	 0.0 	 
0.00181187 	0 	0.92 	0.04 	0.04 	-0.07 	3.8 	298.15 	
0 	0 	0 	0 	0 	0 	-0 	
0 	0 	0 	0 	0.35 	13.208 	-0.0360787 	6.77333e-05 	
0.00180191 	0.00120127 	0 	0.0 	 0.0 	 0.0 	 0.0 	 0.0 	 0.0 	 
0.0018796 	0 	0.92 	0.04 	0.04 	-0.07 	3.8 	298.15 	
0 	0 	0 	0 	0 	0 	0.119132 	
0 	0 	0 	0 	0.35 	6.604 	-0.0360787 	3.38667e-05 	
0.000900955 	0.000600637 	0 	0.0 	 0.0 	 0.0 	 0.0 	 0.0 	 0.0 	 
ZONE T = "t = 1e-08 [s]" I = 10 SOLUTIONTIME = 1.0000000000000E-08
0.00127 	2.80179e-08 	0.92 	0.04 	0.04 	0.0413395 	3.80028 	302.143 	
3.87 	3.97141 	-0.101414 	-0.238264 	-0 	44.5444 	1.39749 	
-0 	7244.08 	123.46 	141.616 	0.35 	6.604 	-0.435341 	3.38667e-05 	
0.000900955 	0.000600637 	4.95584e+06 	4.95584e+14 	0.202722 	0.149069 	4.95584e+14 	4.95584e+14 	0 	
0.00133773 	2.04137e-08 	0.92 	0.04 	0.04 	0.0413392 	3.80027 	301.865 	
3.87 	3.97141 	-0.101414 	-0.476527 	-0 	40.3727 	5.53265 	
-0 	14488.2 	246.919 	283.231 	0.35 	13.208 	-0.426189 	6.77333e-05 	
0.00180191 	0.00120127 	4.61052e+06 	4.61052e+14 	0.178565 	0.72713 	4.61052e+14 	4.61052e+14 	0 	
0.00140547 	1.29644e-08 	0.92 	0.04 	0.04 	0.0413389 	3.80026 	301.587 	
3.87 	3.97141 	-0.101414 	-0.476527 	-0 	34.9597 	10.9521 	
-0 	14488.2 	246.919 	283.231 	0.35 	13.208 	-0.417269 	6.77333e-05 	
0.00180191 	0.00120127 	4.26521e+06 	4.26521e+14 	0.133942 	2.4261 	4.26521e+14 	4.26521e+14 	0 	
0.0014732 	5.66716e-09 	0.92 	0.04 	0.04 	0.0413387 	3.80024 	301.309 	
3.87 	3.97141 	-0.101414 	-0.476527 	-0 	29.6565 	16.261 	
-0 	14488.2 	246.919 	283.231 	0.35 	13.208 	-0.408575 	6.77333e-05 	
0.00180191 	0.00120127 	3.91989e+06 	3.91989e+14 	0.0964871 	5.17741 	3.91989e+14 	3.91989e+14 	0 	
0.00154093 	-1.48253e-09 	0.92 	0.04 	0.04 	0.0413385 	3.80022 	301.03 	
3.87 	3.97141 	-0.101414 	-0.476527 	-0 	24.4604 	21.462 	
-0 	14488.2 	246.919 	283.231 	0.35 	13.208 	-0.400098 	6.77333e-05 	
0.00180191 	0.00120127 	3.57458e+06 	3.57458e+14 	0.0657882 	8.91606 	3.57458e+14 	3.57458e+14 	0 	
0.00160867 	-8.48743e-09 	0.92 	0.04 	0.04 	0.0413383 	3.80019 	300.752 	
3.87 	3.97141 	-0.101414 	-0.476527 	-0 	19.3689 	26.5578 	
-0 	14488.2 	246.919 	283.231 	0.35 	13.208 	-0.391832 	6.77333e-05 	
0.00180191 	0.00120127 	3.22926e+06 	3.22926e+14 	0.0414528 	13.5804 	3.22926e+14 	3.22926e+14 	0 	
0.0016764 	-1.53513e-08 	0.92 	0.04 	0.04 	0.0413382 	3.80015 	300.474 	
3.87 	3.97141 	-0.101414 	-0.476527 	-0 	14.3794 	31.5509 	
-0 	14488.2 	246.919 	283.231 	0.35 	13.208 	-0.38377 	6.77333e-05 	
0.00180191 	0.00120127 	2.88394e+06 	2.88394e+14 	0.0231087 	19.1121 	2.88394e+14 	2.88394e+14 	0 	
0.00174413 	-2.20779e-08 	0.92 	0.04 	0.04 	0.0413381 	3.80011 	300.196 	
3.87 	3.97141 	-0.101414 	-0.476527 	-0 	9.48967 	36.4436 	
-0 	14488.2 	246.919 	283.231 	0.35 	13.208 	-0.375905 	6.77333e-05 	
0.00180191 	0.00120127 	2.53863e+06 	2.53863e+14 	0.0104032 	25.4557 	2.53863e+14 	2.53863e+14 	0 	
0.00181187 	-2.86697e-08 	0.92 	0.04 	0.04 	0.0413381 	3.80006 	299.917 	
3.87 	3.97141 	-0.101414 	-0.476527 	-0 	4.69726 	41.2383 	
-0 	14488.2 	246.919 	283.231 	0.35 	13.208 	-0.368232 	6.77333e-05 	
0.00180191 	0.00120127 	2.19331e+06 	2.19331e+14 	0.00300125 	32.5588 	2.19331e+14 	2.19331e+14 	0 	
0.0018796 	0 	0.92 	0.04 	0.04 	0.041338 	3.8 	299.639 	
3.87 	3.97141 	-0.101414 	-0.238264 	-0 	1.16255 	44.8027 	
-0 	7244.08 	123.46 	141.616 	0.35 	6.604 	-0.360744 	3.38667e-05 	
0.000900955 	0.000600637 	1.848e+06 	1.848e+14 	0.000585435 	36.2938 	1.848e+14 	1.848e+14 	0 	
ZONE T = "t = 2e-08 [s]" I = 10 SOLUTIONTIME = 2.0000000000000E-08
0.00127 	2.81188e-08 	0.92 	0.04 	0.04 	0.0401921 	3.80028 	302.143 	
3.75894 	3.96818 	-0.209248 	-2.87499 	2.23386e-07 	44.7122 	1.40611 	
7.2056e-11 	7244.08 	123.46 	141.616 	0.35 	6.604 	-0.425837 	3.38667e-05 	
0.000900955 	0.000600637 	4.95584e+06 	17183.3 	0.2046 	0.150915 	17182.9 	17182.9 	0 	
0.00133773 	2.04719e-08 	0.92 	0.04 	0.04 	0.0401918 	3.80027 	301.865 	
3.75893 	3.96841 	-0.209477 	-5.62911 	1.95047e-07 	40.5531 	5.56528 	
1.41082e-10 	14488.2 	246.919 	283.231 	0.35 	13.208 	-0.416876 	6.77333e-05 	
0.00180191 	0.00120127 	4.61052e+06 	16777.6 	0.180169 	0.735653 	16776.7 	16776.7 	0 	
0.00140547 	1.29848e-08 	0.92 	0.04 	0.04 	0.0401915 	3.80026 	301.587 	
3.75892 	3.96863 	-0.209713 	-5.51129 	1.67285e-07 	35.1046 	11.0137 	
1.3813e-10 	14488.2 	246.919 	283.231 	0.35 	13.208 	-0.408144 	6.77333e-05 	
0.00180191 	0.00120127 	4.26521e+06 	16867.6 	0.135058 	2.45335 	16865 	16865 	0 	
0.0014732 	5.65379e-09 	0.92 	0.04 	0.04 	0.0401913 	3.80024 	301.309 	
3.7589 	3.96886 	-0.209955 	-5.39646 	1.40084e-07 	29.7701 	16.3483 	
1.35251e-10 	14488.2 	246.919 	283.231 	0.35 	13.208 	-0.399632 	6.77333e-05 	
0.00180191 	0.00120127 	3.91989e+06 	16517.2 	0.0972302 	5.23295 	16511.8 	16511.8 	0 	
0.00154093 	-1.52497e-09 	0.92 	0.04 	0.04 	0.0401911 	3.80022 	301.03 	
3.75888 	3.96909 	-0.210205 	-5.28449 	1.13431e-07 	24.5465 	21.5718 	
1.32445e-10 	14488.2 	246.919 	283.231 	0.35 	13.208 	-0.391334 	6.77333e-05 	
0.00180191 	0.00120127 	3.57458e+06 	16012.3 	0.0662544 	9.00724 	16003.2 	16003.2 	0 	
0.00160867 	-8.55531e-09 	0.92 	0.04 	0.04 	0.0401909 	3.80019 	300.752 	
3.75885 	3.96931 	-0.210461 	-5.17531 	8.73135e-08 	19.4312 	26.6871 	
1.29709e-10 	14488.2 	246.919 	283.231 	0.35 	13.208 	-0.383242 	6.77333e-05 	
0.00180191 	0.00120127 	3.22926e+06 	15349.7 	0.0417217 	13.7127 	15335.9 	15335.9 	0 	
0.0016764 	-1.54398e-08 	0.92 	0.04 	0.04 	0.0401908 	3.80015 	300.474 	
3.75881 	3.96954 	-0.210724 	-5.06883 	6.17189e-08 	14.4215 	31.6969 	
1.2704e-10 	14488.2 	246.919 	283.231 	0.35 	13.208 	-0.375351 	6.77333e-05 	
0.00180191 	0.00120127 	2.88394e+06 	15200 	0.0232452 	19.289 	15180.6 	15180.6 	0 	
0.00174413 	-2.21834e-08 	0.92 	0.04 	0.04 	0.0401907 	3.80011 	300.196 	
3.75877 	3.96976 	-0.210993 	-4.96496 	3.66347e-08 	9.51471 	36.6036 	
1.24437e-10 	14488.2 	246.919 	283.231 	0.35 	13.208 	-0.367652 	6.77333e-05 	
0.00180191 	0.00120127 	2.53863e+06 	15182.8 	0.0104588 	25.6794 	15157.1 	15157.1 	0 	
0.00181187 	-2.87897e-08 	0.92 	0.04 	0.04 	0.0401907 	3.80006 	299.917 	
3.75872 	3.96999 	-0.211268 	-4.86361 	1.20495e-08 	4.70836 	41.41 	
1.21897e-10 	14488.2 	246.919 	283.231 	0.35 	13.208 	-0.360142 	6.77333e-05 	
0.00180191 	0.00120127 	2.19331e+06 	14892.6 	0.00301577 	32.83 	14859.7 	14859.7 	0 	
0.0018796 	0 	0.92 	0.04 	0.04 	0.0401906 	3.8 	299.639 	
3.75866 	3.97021 	-0.211549 	-2.38236 	1.20495e-08 	1.16499 	44.9534 	
5.9709e-11 	7244.08 	123.46 	141.616 	0.35 	6.604 	-0.352813 	3.38667e-05 	
0.000900955 	0.000600637 	1.848e+06 	14844.5 	0.000587893 	36.5888 	14807.9 	14807.9 	0 	
ZONE T = "t = 3e-08 [s]" I = 10 SOLUTIONTIME = 3.0000000000000E-08
0.00127 	2.8121e-08 	0.92 	0.04 	0.04 	0.0401921 	3.80028 	302.143 	
3.76008 	3.96818 	-0.208099 	-2.81223 	2.24419e-07 	44.7122 	1.40611 	
1.42539e-10 	7244.08 	123.46 	141.616 	0.35 	6.604 	-0.425837 	3.38667e-05 	
0.000900955 	0.000600637 	4.95584e+06 	17350.7 	0.2046 	0.150915 	17350.3 	17350.3 	0 	
0.00133773 	2.04734e-08 	0.92 	0.04 	0.04 	0.0401918 	3.80027 	301.865 	
3.76008 	3.96841 	-0.208328 	-5.5061 	1.95885e-07 	40.5531 	5.56528 	
2.79082e-10 	14488.2 	246.919 	283.231 	0.35 	13.208 	-0.416876 	6.77333e-05 	
0.00180191 	0.00120127 	4.61052e+06 	17066.4 	0.180169 	0.735653 	17065.5 	17065.5 	0 	
0.00140547 	1.29866e-08 	0.92 	0.04 	0.04 	0.0401915 	3.80026 	301.587 	
3.76007 	3.96863 	-0.208564 	-5.39076 	1.67949e-07 	35.1046 	11.0137 	
2.73238e-10 	14488.2 	246.919 	283.231 	0.35 	13.208 	-0.408144 	6.77333e-05 	
0.00180191 	0.00120127 	4.26521e+06 	16478.3 	0.135058 	2.45335 	16475.7 	16475.7 	0 	
0.0014732 	5.65561e-09 	0.92 	0.04 	0.04 	0.0401913 	3.80024 	301.309 	
3.76005 	3.96886 	-0.208807 	-5.27834 	1.40596e-07 	29.7701 	16.3483 	
2.67542e-10 	14488.2 	246.919 	283.231 	0.35 	13.208 	-0.399632 	6.77333e-05 	
0.00180191 	0.00120127 	3.91989e+06 	16002.4 	0.0972302 	5.23295 	15997 	15997 	0 	
0.00154093 	-1.52207e-09 	0.92 	0.04 	0.04 	0.0401911 	3.80022 	301.03 	
3.76003 	3.96909 	-0.209057 	-5.16874 	1.13811e-07 	24.5465 	21.5718 	
2.61989e-10 	14488.2 	246.919 	283.231 	0.35 	13.208 	-0.391334 	6.77333e-05 	
0.00180191 	0.00120127 	3.57458e+06 	15895.1 	0.0662544 	9.00724 	15886 	15886 	0 	
0.00160867 	-8.55168e-09 	0.92 	0.04 	0.04 	0.0401909 	3.80019 	300.752 	
3.76 	3.96931 	-0.209313 	-5.06186 	8.75797e-08 	19.4312 	26.6871 	
2.56574e-10 	14488.2 	246.919 	283.231 	0.35 	13.208 	-0.383242 	6.77333e-05 	
0.00180191 	0.00120127 	3.22926e+06 	15625.9 	0.0417217 	13.7127 	15612.2 	15612.2 	0 	
0.0016764 	-1.54373e-08 	0.92 	0.04 	0.04 	0.0401908 	3.80015 	300.474 	
3.75996 	3.96954 	-0.209576 	-4.95763 	6.18886e-08 	14.4215 	31.6969 	
2.51293e-10 	14488.2 	246.919 	283.231 	0.35 	13.208 	-0.375351 	6.77333e-05 	
0.00180191 	0.00120127 	2.88394e+06 	15220.9 	0.0232452 	19.289 	15201.6 	15201.6 	0 	
0.00174413 	-2.21816e-08 	0.92 	0.04 	0.04 	0.0401907 	3.80011 	300.196 	
3.75992 	3.96976 	-0.209845 	-4.85595 	3.67244e-08 	9.51471 	36.6036 	
2.46141e-10 	14488.2 	246.919 	283.231 	0.35 	13.208 	-0.367652 	6.77333e-05 	
0.00180191 	0.00120127 	2.53863e+06 	14927.5 	0.0104588 	25.6794 	14901.8 	14901.8 	0 	
0.00181187 	-2.87871e-08 	0.92 	0.04 	0.04 	0.0401907 	3.80006 	299.917 	
3.75987 	3.96999 	-0.21012 	-4.75676 	1.20752e-08 	4.70836 	41.41 	
2.41115e-10 	14488.2 	246.919 	283.231 	0.35 	13.208 	-0.360142 	6.77333e-05 	
0.00180191 	0.00120127 	2.19331e+06 	15026.5 	0.00301577 	32.83 	14993.7 	14993.7 	0 	
0.0018796 	0 	0.92 	0.04 	0.04 	0.0401906 	3.8 	299.639 	
3.75981 	3.97021 	-0.210402 	-2.32998 	1.20752e-08 	1.16499 	44.9534 	
1.18105e-10 	7244.08 	123.46 	141.616 	0.35 	6.604 	-0.352813 	3.38667e-05 	
0.000900955 	0.000600637 	1.848e+06 	14325.5 	0.000587893 	36.5888 	14288.9 	14288.9 	0 	
ZONE T = "t = 4e-08 [s]" I = 10 SOLUTIONTIME = 4.0000000000000E-08
0.00127 	2.81192e-08 	0.92 	0.04 	0.04 	0.0401921 	3.80028 	302.143 	
3.76008 	3.96818 	-0.208099 	-2.81223 	2.24419e-07 	44.7122 	1.40611 	
2.13022e-10 	7244.08 	123.46 	141.616 	0.35 	6.604 	-0.425837 	3.38667e-05 	
0.000900955 	0.000600637 	4.95584e+06 	17346.5 	0.2046 	0.150915 	17346.2 	17346.2 	0 	
0.00133773 	2.04723e-08 	0.92 	0.04 	0.04 	0.0401918 	3.80027 	301.865 	
3.76008 	3.96841 	-0.208328 	-5.5061 	1.95885e-07 	40.5531 	5.56528 	
4.17081e-10 	14488.2 	246.919 	283.231 	0.35 	13.208 	-0.416876 	6.77333e-05 	
0.00180191 	0.00120127 	4.61052e+06 	16936.6 	0.180169 	0.735653 	16935.7 	16935.7 	0 	
0.00140547 	1.29848e-08 	0.92 	0.04 	0.04 	0.0401915 	3.80026 	301.587 	
3.76007 	3.96863 	-0.208564 	-5.39076 	1.67949e-07 	35.1046 	11.0137 	
4.08347e-10 	14488.2 	246.919 	283.231 	0.35 	13.208 	-0.408144 	6.77333e-05 	
0.00180191 	0.00120127 	4.26521e+06 	16624.8 	0.135058 	2.45335 	16622.2 	16622.2 	0 	
0.0014732 	5.65416e-09 	0.92 	0.04 	0.04 	0.0401913 	3.80024 	301.309 	
3.76005 	3.96886 	-0.208807 	-5.27834 	1.40596e-07 	29.7701 	16.3483 	
3.99833e-10 	14488.2 	246.919 	283.231 	0.35 	13.208 	-0.399632 	6.77333e-05 	
0.00180191 	0.00120127 	3.91989e+06 	16400 	0.0972302 	5.23295 	16394.7 	16394.7 	0 	
0.00154093 	-1.52425e-09 	0.92 	0.04 	0.04 	0.0401911 	3.80022 	301.03 	
3.76003 	3.96909 	-0.209057 	-5.16874 	1.13811e-07 	24.5465 	21.5718 	
3.91533e-10 	14488.2 	246.919 	283.231 	0.35 	13.208 	-0.391334 	6.77333e-05 	
0.00180191 	0.00120127 	3.57458e+06 	15899.3 	0.0662544 	9.00724 	15890.2 	15890.2 	0 	
0.00160867 	-8.55422e-09 	0.92 	0.04 	0.04 	0.0401909 	3.80019 	300.752 	
3.76 	3.96931 	-0.209313 	-5.06186 	8.75797e-08 	19.4312 	26.6871 	
3.8344e-10 	14488.2 	246.919 	283.231 	0.35 	13.208 	-0.383242 	6.77333e-05 	
0.00180191 	0.00120127 	3.22926e+06 	15638.5 	0.0417217 	13.7127 	15624.7 	15624.7 	0 	
0.0016764 	-1.54391e-08 	0.92 	0.04 	0.04 	0.0401908 	3.80015 	300.474 	
3.75996 	3.96954 	-0.209576 	-4.95763 	6.18886e-08 	14.4215 	31.6969 	
3.75546e-10 	14488.2 	246.919 	283.231 	0.35 	13.208 	-0.375351 	6.77333e-05 	
0.00180191 	0.00120127 	2.88394e+06 	15225.1 	0.0232452 	19.289 	15205.8 	15205.8 	0 	
0.00174413 	-2.21827e-08 	0.92 	0.04 	0.04 	0.0401907 	3.80011 	300.196 	
3.75992 	3.96976 	-0.209845 	-4.85595 	3.67244e-08 	9.51471 	36.6036 	
3.67846e-10 	14488.2 	246.919 	283.231 	0.35 	13.208 	-0.367652 	6.77333e-05 	
0.00180191 	0.00120127 	2.53863e+06 	15065.6 	0.0104588 	25.6794 	15039.9 	15039.9 	0 	
0.00181187 	-2.8789e-08 	0.92 	0.04 	0.04 	0.0401907 	3.80006 	299.917 	
3.75987 	3.96999 	-0.21012 	-4.75676 	1.20757e-08 	4.70836 	41.41 	
3.60334e-10 	14488.2 	246.919 	283.231 	0.35 	13.208 	-0.360142 	6.77333e-05 	
0.00180191 	0.00120127 	2.19331e+06 	14884.2 	0.00301577 	32.83 	14851.4 	14851.4 	0 	
0.0018796 	0 	0.92 	0.04 	0.04 	0.0401906 	3.8 	299.639 	
3.75981 	3.97021 	-0.210402 	-2.32998 	1.20757e-08 	1.16499 	44.9534 	
1.76502e-10 	7244.08 	123.46 	141.616 	0.35 	6.604 	-0.352813 	3.38667e-05 	
0.000900955 	0.000600637 	1.848e+06 	14714.8 	0.000587893 	36.5888 	14678.2 	14678.2 	0 	
ZONE T = "t = 5.5e-08 [s]" I = 10 SOLUTIONTIME = 5.5000000000000E-08
0.00127 	2.81175e-08 	0.92 	0.04 	0.04 	0.0401921 	3.80028 	302.143 	
3.76008 	3.96818 	-0.208099 	-2.81223 	2.24419e-07 	44.7122 	1.40611 	
2.83505e-10 	7244.08 	123.46 	141.616 	0.35 	6.604 	-0.425837 	3.38667e-05 	
0.000900955 	0.000600637 	4.95584e+06 	17163.7 	0.2046 	0.150915 	17163.4 	17163.4 	0 	
0.00133773 	2.04706e-08 	0.92 	0.04 	0.04 	0.0401918 	3.80027 	301.865 	
3.76008 	3.96841 	-0.208328 	-5.5061 	1.95885e-07 	40.5531 	5.56528 	
5.55081e-10 	14488.2 	246.919 	283.231 	0.35 	13.208 	-0.416876 	6.77333e-05 	
0.00180191 	0.00120127 	4.61052e+06 	17027.3 	0.180169 	0.735653 	17026.4 	17026.4 	0 	
0.00140547 	1.29838e-08 	0.92 	0.04 	0.04 	0.0401915 	3.80026 	301.587 	
3.76007 	3.96863 	-0.208564 	-5.39076 	1.67949e-07 	35.1046 	11.0137 	
5.43456e-10 	14488.2 	246.919 	283.231 	0.35 	13.208 	-0.408144 	6.77333e-05 	
0.00180191 	0.00120127 	4.26521e+06 	16440.6 	0.135058 	2.45335 	16438.1 	16438.1 	0 	
0.0014732 	5.65319e-09 	0.92 	0.04 	0.04 	0.0401913 	3.80024 	301.309 	
3.76005 	3.96886 	-0.208807 	-5.27834 	1.40596e-07 	29.7701 	16.3483 	
5.32125e-10 	14488.2 	246.919 	283.231 	0.35 	13.208 	-0.399632 	6.77333e-05 	
0.00180191 	0.00120127 	3.91989e+06 	16229.8 	0.0972302 	5.23295 	16224.4 	16224.4 	0 	
0.00154093 	-1.52522e-09 	0.92 	0.04 	0.04 	0.0401911 	3.80022 	301.03 	
3.76003 	3.96909 	-0.209057 	-5.16874 	1.13811e-07 	24.5465 	21.5718 	
5.21077e-10 	14488.2 	246.919 	283.231 	0.35 	13.208 	-0.391334 	6.77333e-05 	
0.00180191 	0.00120127 	3.57458e+06 	15945.3 	0.0662544 	9.00724 	15936.2 	15936.2 	0 	
0.00160867 	-8.55519e-09 	0.92 	0.04 	0.04 	0.0401909 	3.80019 	300.752 	
3.76 	3.96931 	-0.209313 	-5.06186 	8.75797e-08 	19.4312 	26.6871 	
5.10305e-10 	14488.2 	246.919 	283.231 	0.35 	13.208 	-0.383242 	6.77333e-05 	
0.00180191 	0.00120127 	3.22926e+06 	15586.9 	0.0417217 	13.7127 	15573.1 	15573.1 	0 	
0.0016764 	-1.54409e-08 	0.92 	0.04 	0.04 	0.0401908 	3.80015 	300.474 	
3.75996 	3.96954 	-0.209576 	-4.95763 	6.18886e-08 	14.4215 	31.6969 	
4.99799e-10 	14488.2 	246.919 	283.231 	0.35 	13.208 	-0.375351 	6.77333e-05 	
0.00180191 	0.00120127 	2.88394e+06 	15349.2 	0.0232452 	19.289 	15329.9 	15329.9 	0 	
0.00174413 	-2.21847e-08 	0.92 	0.04 	0.04 	0.0401907 	3.80011 	300.196 	
3.75992 	3.96976 	-0.209845 	-4.85595 	3.67244e-08 	9.51471 	36.6036 	
4.89551e-10 	14488.2 	246.919 	283.231 	0.35 	13.208 	-0.367652 	6.77333e-05 	
0.00180191 	0.00120127 	2.53863e+06 	15055.8 	0.0104588 	25.6794 	15030.1 	15030.1 	0 	
0.00181187 	-2.87911e-08 	0.92 	0.04 	0.04 	0.0401907 	3.80006 	299.917 	
3.75987 	3.96999 	-0.21012 	-4.75676 	1.20762e-08 	4.70836 	41.41 	
4.79552e-10 	14488.2 	246.919 	283.231 	0.35 	13.208 	-0.360142 	6.77333e-05 	
0.00180191 	0.00120127 	2.19331e+06 	14716.8 	0.00301577 	32.83 	14684 	14684 	0 	
0.0018796 	0 	0.92 	0.04 	0.04 	0.0401906 	3.8 	299.639 	
3.75981 	3.97021 	-0.210402 	-2.32998 	1.20762e-08 	1.16499 	44.9534 	
2.34898e-10 	7244.08 	123.46 	141.616 	0.35 	6.604 	-0.352813 	3.38667e-05 	
0.000900955 	0.000600637 	1.848e+06 	14407.8 	0.000587893 	36.5888 	14371.2 	14371.2 	0 	
ZONE T = "t = 7.75e-08 [s]" I = 10 SOLUTIONTIME = 7.7500000000000E-08
0.00127 	2.8121e-08 	0.92 	0.04 	0.04 	0.0401921 	3.80028 	302.143 	
3.76008 	3.96818 	-0.208099 	-2.81223 	2.24419e-07 	44.7122 	1.40611 	
3.89229e-10 	7244.08 	123.46 	141.616 	0.35 	6.604 	-0.425837 	3.38667e-05 	
0.000900955 	0.000600637 	4.95584e+06 	17194.4 	0.2046 	0.150915 	17194.1 	17194.1 	0 	
0.00133773 	2.0474e-08 	0.92 	0.04 	0.04 	0.0401918 	3.80027 	301.865 	
3.76008 	3.96841 	-0.208328 	-5.5061 	1.95885e-07 	40.5531 	5.56528 	
7.6208e-10 	14488.2 	246.919 	283.231 	0.35 	13.208 	-0.416876 	6.77333e-05 	
0.00180191 	0.00120127 	4.61052e+06 	16994.8 	0.180169 	0.735653 	16993.9 	16993.9 	0 	
0.00140547 	1.29874e-08 	0.92 	0.04 	0.04 	0.0401915 	3.80026 	301.587 	
3.76007 	3.96863 	-0.208564 	-5.39076 	1.67949e-07 	35.1046 	11.0137 	
7.46119e-10 	14488.2 	246.919 	283.231 	0.35 	13.208 	-0.408144 	6.77333e-05 	
0.00180191 	0.00120127 	4.26521e+06 	16682.5 	0.135058 	2.45335 	16679.9 	16679.9 	0 	
0.0014732 	5.65682e-09 	0.92 	0.04 	0.04 	0.0401913 	3.80024 	301.309 	
3.76005 	3.96886 	-0.208807 	-5.27834 	1.40596e-07 	29.7701 	16.3483 	
7.30561e-10 	14488.2 	246.919 	283.231 	0.35 	13.208 	-0.399632 	6.77333e-05 	
0.00180191 	0.00120127 	3.91989e+06 	16261.4 	0.0972302 	5.23295 	16256.1 	16256.1 	0 	
0.00154093 	-1.52158e-09 	0.92 	0.04 	0.04 	0.0401911 	3.80022 	301.03 	
3.76003 	3.96909 	-0.209057 	-5.16874 	1.13811e-07 	24.5465 	21.5718 	
7.15394e-10 	14488.2 	246.919 	283.231 	0.35 	13.208 	-0.391334 	6.77333e-05 	
0.00180191 	0.00120127 	3.57458e+06 	15969.5 	0.0662544 	9.00724 	15960.4 	15960.4 	0 	
0.00160867 	-8.55172e-09 	0.92 	0.04 	0.04 	0.0401909 	3.80019 	300.752 	
3.76 	3.96931 	-0.209313 	-5.06186 	8.75797e-08 	19.4312 	26.6871 	
7.00604e-10 	14488.2 	246.919 	283.231 	0.35 	13.208 	-0.383242 	6.77333e-05 	
0.00180191 	0.00120127 	3.22926e+06 	15705.9 	0.0417217 	13.7127 	15692.2 	15692.2 	0 	
0.0016764 	-1.54366e-08 	0.92 	0.04 	0.04 	0.0401908 	3.80015 	300.474 	
3.75996 	3.96954 	-0.209576 	-4.95763 	6.18886e-08 	14.4215 	31.6969 	
6.86179e-10 	14488.2 	246.919 	283.231 	0.35 	13.208 	-0.375351 	6.77333e-05 	
0.00180191 	0.00120127 	2.88394e+06 	15353 	0.0232452 	19.289 	15333.6 	15333.6 	0 	
0.00174413 	-2.21806e-08 	0.92 	0.04 	0.04 	0.0401907 	3.80011 	300.196 	
3.75992 	3.96976 	-0.209845 	-4.85595 	3.67244e-08 	9.51471 	36.6036 	
6.72108e-10 	14488.2 	246.919 	283.231 	0.35 	13.208 	-0.367652 	6.77333e-05 	
0.00180191 	0.00120127 	2.53863e+06 	15092.1 	0.0104588 	25.6794 	15066.4 	15066.4 	0 	
0.00181187 	-2.8787e-08 	0.92 	0.04 	0.04 	0.0401907 	3.80006 	299.917 	
3.75987 	3.96999 	-0.21012 	-4.75676 	1.20769e-08 	4.70836 	41.41 	
6.5838e-10 	14488.2 	246.919 	283.231 	0.35 	13.208 	-0.360142 	6.77333e-05 	
0.00180191 	0.00120127 	2.19331e+06 	14745.6 	0.00301577 	32.83 	14712.8 	14712.8 	0 	
0.0018796 	0 	0.92 	0.04 	0.04 	0.0401906 	3.8 	299.639 	
3.75981 	3.97021 	-0.210402 	-2.32998 	1.20769e-08 	1.16499 	44.9534 	
3.22492e-10 	7244.08 	123.46 	141.616 	0.35 	6.604 	-0.352813 	3.38667e-05 	
0.000900955 	0.000600637 	1.848e+06 	14615.2 	0.000587893 	36.5888 	14578.7 	14578.7 	0 	
ZONE T = "t = 1.1125e-07 [s]" I = 10 SOLUTIONTIME = 1.1125000000000E-07
0.00127 	2.81188e-08 	0.92 	0.04 	0.04 	0.0401921 	3.80028 	302.143 	
3.76008 	3.96818 	-0.208099 	-2.81223 	2.2442e-07 	44.7122 	1.40611 	
5.47815e-10 	7244.08 	123.46 	141.616 	0.35 	6.604 	-0.425837 	3.38667e-05 	
0.000900955 	0.000600637 	4.95584e+06 	17317.8 	0.2046 	0.150915 	17317.5 	17317.5 	0 	
0.00133773 	2.04718e-08 	0.92 	0.04 	0.04 	0.0401918 	3.80027 	301.865 	
3.76008 	3.96841 	-0.208328 	-5.5061 	1.95885e-07 	40.5531 	5.56528 	
1.07258e-09 	14488.2 	246.919 	283.231 	0.35 	13.208 	-0.416876 	6.77333e-05 	
0.00180191 	0.00120127 	4.61052e+06 	16915.4 	0.180169 	0.735653 	16914.5 	16914.5 	0 	
0.00140547 	1.29849e-08 	0.92 	0.04 	0.04 	0.0401915 	3.80026 	301.587 	
3.76007 	3.96863 	-0.208564 	-5.39076 	1.67949e-07 	35.1046 	11.0137 	
1.05011e-09 	14488.2 	246.919 	283.231 	0.35 	13.208 	-0.408144 	6.77333e-05 	
0.00180191 	0.00120127 	4.26521e+06 	16579.5 	0.135058 	2.45335 	16577 	16577 	0 	
0.0014732 	5.65429e-09 	0.92 	0.04 	0.04 	0.0401913 	3.80024 	301.309 	
3.76005 	3.96886 	-0.208807 	-5.27834 	1.40596e-07 	29.7701 	16.3483 	
1.02822e-09 	14488.2 	246.919 	283.231 	0.35 	13.208 	-0.399632 	6.77333e-05 	
0.00180191 	0.00120127 	3.91989e+06 	16235.3 	0.0972302 	5.23295 	16230 	16230 	0 	
0.00154093 	-1.52411e-09 	0.92 	0.04 	0.04 	0.0401911 	3.80022 	301.03 	
3.76003 	3.96909 	-0.209057 	-5.16874 	1.13811e-07 	24.5465 	21.5718 	
1.00687e-09 	14488.2 	246.919 	283.231 	0.35 	13.208 	-0.391334 	6.77333e-05 	
0.00180191 	0.00120127 	3.57458e+06 	15931.7 	0.0662544 	9.00724 	15922.6 	15922.6 	0 	
0.00160867 	-8.55398e-09 	0.92 	0.04 	0.04 	0.0401909 	3.80019 	300.752 	
3.76 	3.96931 	-0.209313 	-5.06186 	8.75797e-08 	19.4312 	26.6871 	
9.86051e-10 	14488.2 	246.919 	283.231 	0.35 	13.208 	-0.383242 	6.77333e-05 	
0.00180191 	0.00120127 	3.22926e+06 	15630.3 	0.0417217 	13.7127 	15616.5 	15616.5 	0 	
0.0016764 	-1.54392e-08 	0.92 	0.04 	0.04 	0.0401908 	3.80015 	300.474 	
3.75996 	3.96954 	-0.209576 	-4.95763 	6.18886e-08 	14.4215 	31.6969 	
9.65748e-10 	14488.2 	246.919 	283.231 	0.35 	13.208 	-0.375351 	6.77333e-05 	
0.00180191 	0.00120127 	2.88394e+06 	15372.2 	0.0232452 	19.289 	15352.9 	15352.9 	0 	
0.00174413 	-2.21832e-08 	0.92 	0.04 	0.04 	0.0401907 	3.80011 	300.196 	
3.75992 	3.96976 	-0.209845 	-4.85595 	3.67244e-08 	9.51471 	36.6036 	
9.45944e-10 	14488.2 	246.919 	283.231 	0.35 	13.208 	-0.367652 	6.77333e-05 	
0.00180191 	0.00120127 	2.53863e+06 	15091.5 	0.0104588 	25.6794 	15065.8 	15065.8 	0 	
0.00181187 	-2.87891e-08 	0.92 	0.04 	0.04 	0.0401907 	3.80006 	299.917 	
3.75987 	3.96999 	-0.21012 	-4.75676 	1.2078e-08 	4.70836 	41.41 	
9.26622e-10 	14488.2 	246.919 	283.231 	0.35 	13.208 	-0.360142 	6.77333e-05 	
0.00180191 	0.00120127 	2.19331e+06 	14744.4 	0.00301577 	32.83 	14711.5 	14711.5 	0 	
0.0018796 	0 	0.92 	0.04 	0.04 	0.0401906 	3.8 	299.639 	
3.75981 	3.97021 	-0.210402 	-2.32998 	1.2078e-08 	1.16499 	44.9534 	
4.53884e-10 	7244.08 	123.46 	141.616 	0.35 	6.604 	-0.352813 	3.38667e-05 	
0.000900955 	0.000600637 	1.848e+06 	14456.5 	0.000587893 	36.5888 	14419.9 	14419.9 	0 	
ZONE T = "t = 1.61875e-07 [s]" I = 10 SOLUTIONTIME = 1.6187500000000E-07
0.00127 	2.81193e-08 	0.92 	0.04 	0.04 	0.0401921 	3.80028 	302.143 	
3.76008 	3.96818 	-0.208099 	-2.81223 	2.2442e-07 	44.7122 	1.40611 	
7.85695e-10 	7244.08 	123.46 	141.616 	0.35 	6.604 	-0.425837 	3.38667e-05 	
0.000900955 	0.000600637 	4.95584e+06 	17317.4 	0.2046 	0.150915 	17317.1 	17317.1 	0 	
0.00133773 	2.04724e-08 	0.92 	0.04 	0.04 	0.0401918 	3.80027 	301.865 	
3.76008 	3.96841 	-0.208328 	-5.5061 	1.95885e-07 	40.5531 	5.56528 	
1.53833e-09 	14488.2 	246.919 	283.231 	0.35 	13.208 	-0.416876 	6.77333e-05 	
0.00180191 	0.00120127 	4.61052e+06 	16914.2 	0.180169 	0.735653 	16913.2 	16913.2 	0 	
0.00140547 	1.29858e-08 	0.92 	0.04 	0.04 	0.0401915 	3.80026 	301.587 	
3.76007 	3.96863 	-0.208564 	-5.39076 	1.67949e-07 	35.1046 	11.0137 	
1.50611e-09 	14488.2 	246.919 	283.231 	0.35 	13.208 	-0.408144 	6.77333e-05 	
0.00180191 	0.00120127 	4.26521e+06 	16606.4 	0.135058 	2.45335 	16603.8 	16603.8 	0 	
0.0014732 	5.65513e-09 	0.92 	0.04 	0.04 	0.0401913 	3.80024 	301.309 	
3.76005 	3.96886 	-0.208807 	-5.27834 	1.40596e-07 	29.7701 	16.3483 	
1.4747e-09 	14488.2 	246.919 	283.231 	0.35 	13.208 	-0.399632 	6.77333e-05 	
0.00180191 	0.00120127 	3.91989e+06 	16316.4 	0.0972302 	5.23295 	16311 	16311 	0 	
0.00154093 	-1.52327e-09 	0.92 	0.04 	0.04 	0.0401911 	3.80022 	301.03 	
3.76003 	3.96909 	-0.209057 	-5.16874 	1.13811e-07 	24.5465 	21.5718 	
1.44408e-09 	14488.2 	246.919 	283.231 	0.35 	13.208 	-0.391334 	6.77333e-05 	
0.00180191 	0.00120127 	3.57458e+06 	15918.8 	0.0662544 	9.00724 	15909.8 	15909.8 	0 	
0.00160867 	-8.55325e-09 	0.92 	0.04 	0.04 	0.0401909 	3.80019 	300.752 	
3.76 	3.96931 	-0.209313 	-5.06186 	8.75797e-08 	19.4312 	26.6871 	
1.41422e-09 	14488.2 	246.919 	283.231 	0.35 	13.208 	-0.383242 	6.77333e-05 	
0.00180191 	0.00120127 	3.22926e+06 	15654.7 	0.0417217 	13.7127 	15640.9 	15640.9 	0 	
0.0016764 	-1.54385e-08 	0.92 	0.04 	0.04 	0.0401908 	3.80015 	300.474 	
3.75996 	3.96954 	-0.209576 	-4.95763 	6.18886e-08 	14.4215 	31.6969 	
1.3851e-09 	14488.2 	246.919 	283.231 	0.35 	13.208 	-0.375351 	6.77333e-05 	
0.00180191 	0.00120127 	2.88394e+06 	15347.8 	0.0232452 	19.289 	15328.5 	15328.5 	0 	
0.00174413 	-2.21825e-08 	0.92 	0.04 	0.04 	0.0401907 	3.80011 	300.196 	
3.75992 	3.96976 	-0.209845 	-4.85595 	3.67243e-08 	9.51471 	36.6036 	
1.3567e-09 	14488.2 	246.919 	283.231 	0.35 	13.208 	-0.367652 	6.77333e-05 	
0.00180191 	0.00120127 	2.53863e+06 	15075.8 	0.0104588 	25.6794 	15050.1 	15050.1 	0 	
0.00181187 	-2.87888e-08 	0.92 	0.04 	0.04 	0.0401907 	3.80006 	299.917 	
3.75987 	3.96999 	-0.21012 	-4.75676 	1.20797e-08 	4.70836 	41.41 	
1.32898e-09 	14488.2 	246.919 	283.231 	0.35 	13.208 	-0.360142 	6.77333e-05 	
0.00180191 	0.00120127 	2.19331e+06 	14850.6 	0.00301577 	32.83 	14817.8 	14817.8 	0 	
0.0018796 	0 	0.92 	0.04 	0.04 	0.0401906 	3.8 	299.639 	
3.75981 	3.97021 	-0.210402 	-2.32998 	1.20797e-08 	1.16499 	44.9534 	
6.50971e-10 	7244.08 	123.46 	141.616 	0.35 	6.604 	-0.352813 	3.38667e-05 	
0.000900955 	0.000600637 	1.848e+06 	14536.3 	0.000587893 	36.5888 	14499.7 	14499.7 	0 	
ZONE T = "t = 2.37813e-07 [s]" I = 10 SOLUTIONTIME = 2.3781250000000E-07
0.00127 	2.81192e-08 	0.92 	0.04 	0.04 	0.0401921 	3.80028 	302.143 	
3.76008 	3.96818 	-0.208099 	-2.81223 	2.24421e-07 	44.7122 	1.40611 	
1.14251e-09 	7244.08 	123.46 	141.616 	0.35 	6.604 	-0.425837 	3.38667e-05 	
0.000900955 	0.000600637 	4.95584e+06 	17244.1 	0.2046 	0.150915 	17243.8 	17243.8 	0 	
0.00133773 	2.04722e-08 	0.92 	0.04 	0.04 	0.0401918 	3.80027 	301.865 	
3.76008 	3.96841 	-0.208328 	-5.5061 	1.95885e-07 	40.5531 	5.56528 	
2.23695e-09 	14488.2 	246.919 	283.231 	0.35 	13.208 	-0.416876 	6.77333e-05 	
0.00180191 	0.00120127 	4.61052e+06 	16942 	0.180169 	0.735653 	16941.1 	16941.1 	0 	
0.00140547 	1.29854e-08 	0.92 	0.04 	0.04 	0.0401915 	3.80026 	301.587 	
3.76007 	3.96863 	-0.208564 	-5.39076 	1.67949e-07 	35.1046 	11.0137 	
2.19009e-09 	14488.2 	246.919 	283.231 	0.35 	13.208 	-0.408144 	6.77333e-05 	
0.00180191 	0.00120127 	4.26521e+06 	16607 	0.135058 	2.45335 	16604.4 	16604.4 	0 	
0.0014732 	5.65486e-09 	0.92 	0.04 	0.04 	0.0401913 	3.80024 	301.309 	
3.76005 	3.96886 	-0.208807 	-5.27834 	1.40596e-07 	29.7701 	16.3483 	
2.14442e-09 	14488.2 	246.919 	283.231 	0.35 	13.208 	-0.399632 	6.77333e-05 	
0.00180191 	0.00120127 	3.91989e+06 	16281.1 	0.0972302 	5.23295 	16275.8 	16275.8 	0 	
0.00154093 	-1.52355e-09 	0.92 	0.04 	0.04 	0.0401911 	3.80022 	301.03 	
3.76003 	3.96909 	-0.209057 	-5.16874 	1.13811e-07 	24.5465 	21.5718 	
2.0999e-09 	14488.2 	246.919 	283.231 	0.35 	13.208 	-0.391334 	6.77333e-05 	
0.00180191 	0.00120127 	3.57458e+06 	15953.3 	0.0662544 	9.00724 	15944.2 	15944.2 	0 	
0.00160867 	-8.55352e-09 	0.92 	0.04 	0.04 	0.0401909 	3.80019 	300.752 	
3.76 	3.96931 	-0.209313 	-5.06186 	8.75796e-08 	19.4312 	26.6871 	
2.05648e-09 	14488.2 	246.919 	283.231 	0.35 	13.208 	-0.383242 	6.77333e-05 	
0.00180191 	0.00120127 	3.22926e+06 	15647.5 	0.0417217 	13.7127 	15633.8 	15633.8 	0 	
0.0016764 	-1.54388e-08 	0.92 	0.04 	0.04 	0.0401908 	3.80015 	300.474 	