TITLE = "Solution on Domain BulkDomain1D_2"
VARIABLES = "x [m]"  
"Vel_axial(0)" 	"MF_sp(ECDMC)" 	"MF_sp(Li+)" 	"MF_sp(PF6-)" 	"Volt(Electroly)" 	"Volt(CathodeVo)" 	
"Potential Drop Electrode-Electrolyte [V]" 	"Surf_0 Equilibrium Potential Drop Electrode-Electrolyte [V]" 	"Overpotential_0 [V]" 	"Current Source [A/m^2]" 	"Li+ flux [kmol/m^2/s]" 	"Electrolyte Current [A/m^2]" 	"Electrode Current [A/m^2]" 	
"Capacity discharged [A-s]" 	"Depth of discharge [-]" 	"Capacity remaining [A-s]" 	"Initial capacity [A-s]" 	"Porosity []" 	"Surface Area [m2/m2] (area per area)" 	"Specific current (per particle area) [A/m^2]" 	"Control volume thickness [m]" 	
"Moles LiCoO2 [mol/m^2] (per electrode area)" 	"Moles CoO2 [mol/m^2] (per electrode area)" 	"qHeat_accum [J/m3]" 	"qHeat_step [W/m3]" 	"Joule_Lyte [W/m3]" 	"Joule_Solid [W/m3]" 	"electrodHeat [W/m3]" 	"OverpotHeat [W/m3]" 	"deltaSHeat [W/m3]" 	

ZONE T = "t = 0 [s]" I = 10 SOLUTIONTIME = 0.0000000000000E+00
0.00127 	0 	0.92 	0.04 	0.04 	-0.07 	3.8 	
0 	0 	0 	0 	0 	0.119132 	0 	
0 	0 	0 	0 	0.35 	6.604 	-0.0360787 	3.38667e-05 	
0.000900955 	0.000600637 	0 	0.0 	 0.0 	 0.0 	 0.0 	 0.0 	 0.0 	 
0.00133773 	0 	0.92 	0.04 	0.04 	-0.07 	3.8 	
0 	0 	0 	0 	0 	0 	-0 	
0 	0 	0 	0 	0.35 	13.208 	-0.0360787 	6.77333e-05 	
0.00180191 	0.00120127 	0 	0.0 	 0.0 	 0.0 	 0.0 	 0.0 	 0.0 	 
0.00140547 	0 	0.92 	0.04 	0.04 	-0.07 	3.8 	
0 	0 	0 	0 	0 	0 	-0 	
0 	0 	0 	0 	0.35 	13.208 	-0.0360787 	6.77333e-05 	
0.00180191 	0.00120127 	0 	0.0 	 0.0 	 0.0 	 0.0 	 0.0 	 0.0 	 
0.0014732 	0 	0.92 	0.04 	0.04 	-0.07 	3.8 	
0 	0 	0 	0 	0 	0 	-0 	
0 	0 	0 	0 	0.35 	13.208 	-0.0360787 	6.77333e-05 	
0.00180191 	0.00120127 	0 	0.0 	 0.0 	 0.0 	 0.0 	 0.0 	 0.0 	 
0.00154093 	0 	0.92 	0.04 	0.04 	-0.07 	3.8 	
0 	0 	0 	0 	0 	0 	-0 	
0 	0 	0 	0 	0.35 	13.208 	-0.0360787 	6.77333e-05 	
0.00180191 	0.00120127 	0 	0.0 	 0.0 	 0.0 	 0.0 	 0.0 	 0.0 	 
0.00160867 	0 	0.92 	0.04 	0.04 	-0.07 	3.8 	
0 	0 	0 	0 	0 	0 	-0 	
0 	0 	0 	0 	0.35 	13.208 	-0.0360787 	6.77333e-05 	
0.00180191 	0.00120127 	0 	0.0 	 0.0 	 0.0 	 0.0 	 0.0 	 0.0 	 
0.0016764 	0 	0.92 	0.04 	0.04 	-0.07 	3.8 	
0 	0 	0 	0 	0 	0 	-0 	
0 	0 	0 	0 	0.35 	13.208 	-0.0360787 	6.77333e-05 	
0.00180191 	0.00120127 	0 	0.0 	 0.0 	 0.0 	 0.0 	 0.0 	 0.0 	 
0.00174413 	0 	0.92 	0.04 	0.04 	-0.07 	3.8 	
0 	0 	0 	0 	0 	0 	-0 	
0 	0 	0 	0 	0.35 	13.208 	-0.0360787 	6.77333e-05 	
0.00180191 	0.00120127 	0 	0.0 	 0.0 	 0.0 	 0.0 	 0.0 	 0.0 	 
0.00181187 	0 	0.92 	0.04 	0.04 	-0.07 	3.8 	
0 	0 	0 	0 	0 	0 	-0 	
0 	0 	0 	0 	0.35 	13.208 	-0.0360787 	6.77333e-05 	
0.00180191 	0.00120127 	0 	0.0 	 0.0 	 0.0 	 0.0 	 0.0 	 0.0 	 
0.0018796 	0 	0.92 	0.04 	0.04 	-0.07 	3.8 	
0 	0 	0 	0 	0 	0 	0.119132 	
0 	0 	0 	0 	0.35 	6.604 	-0.0360787 	3.38667e-05 	
0.000900955 	0.000600637 	0 	0.0 	 0.0 	 0.0 	 0.0 	 0.0 	 0.0 	 
ZONE T = "t = 0 [s]" I = 10 SOLUTIONTIME = 0.0000000000000E+00
0.00127 	0 	0.92 	0.04 	0.04 	-0.07 	3.8 	
0 	0 	0 	0 	0 	0.119132 	0 	
0 	0 	0 	0 	0.35 	6.604 	-0.0360787 	3.38667e-05 	
0.000900955 	0.000600637 	0 	0.0 	 0.0 	 0.0 	 0.0 	 0.0 	 0.0 	 
0.00133773 	0 	0.92 	0.04 	0.04 	-0.07 	3.8 	
0 	0 	0 	0 	0 	0 	-0 	
0 	0 	0 	0 	0.35 	13.208 	-0.0360787 	6.77333e-05 	
0.00180191 	0.00120127 	0 	0.0 	 0.0 	 0.0 	 0.0 	 0.0 	 0.0 	 
0.00140547 	0 	0.92 	0.04 	0.04 	-0.07 	3.8 	
0 	0 	0 	0 	0 	0 	-0 	
0 	0 	0 	0 	0.35 	13.208 	-0.0360787 	6.77333e-05 	
0.00180191 	0.00120127 	0 	0.0 	 0.0 	 0.0 	 0.0 	 0.0 	 0.0 	 
0.0014732 	0 	0.92 	0.04 	0.04 	-0.07 	3.8 	
0 	0 	0 	0 	0 	0 	-0 	
0 	0 	0 	0 	0.35 	13.208 	-0.0360787 	6.77333e-05 	
0.00180191 	0.00120127 	0 	0.0 	 0.0 	 0.0 	 0.0 	 0.0 	 0.0 	 
0.00154093 	0 	0.92 	0.04 	0.04 	-0.07 	3.8 	
0 	0 	0 	0 	0 	0 	-0 	
0 	0 	0 	0 	0.35 	13.208 	-0.0360787 	6.77333e-05 	
0.00180191 	0.00120127 	0 	0.0 	 0.0 	 0.0 	 0.0 	 0.0 	 0.0 	 
0.00160867 	0 	0.92 	0.04 	0.04 	-0.07 	3.8 	
0 	0 	0 	0 	0 	0 	-0 	
0 	0 	0 	0 	0.35 	13.208 	-0.0360787 	6.77333e-05 	
0.00180191 	0.00120127 	0 	0.0 	 0.0 	 0.0 	 0.0 	 0.0 	 0.0 	 
0.0016764 	0 	0.92 	0.04 	0.04 	-0.07 	3.8 	
0 	0 	0 	0 	0 	0 	-0 	
0 	0 	0 	0 	0.35 	13.208 	-0.0360787 	6.77333e-05 	
0.00180191 	0.00120127 	0 	0.0 	 0.0 	 0.0 	 0.0 	 0.0 	 0.0 	 
0.00174413 	0 	0.92 	0.04 	0.04 	-0.07 	3.8 	
0 	0 	0 	0 	0 	0 	-0 	
0 	0 	0 	0 	0.35 	13.208 	-0.0360787 	6.77333e-05 	
0.00180191 	0.00120127 	0 	0.0 	 0.0 	 0.0 	 0.0 	 0.0 	 0.0 	 
0.00181187 	0 	0.92 	0.04 	0.04 	-0.07 	3.8 	
0 	0 	0 	0 	0 	0 	-0 	
0 	0 	0 	0 	0.35 	13.208 	-0.0360787 	6.77333e-05 	
0.00180191 	0.00120127 	0 	0.0 	 0.0 	 0.0 	 0.0 	 0.0 	 0.0 	 
0.0018796 	0 	0.92 	0.04 	0.04 	-0.07 	3.8 	
0 	0 	0 	0 	0 	0 	0.119132 	
0 	0 	0 	0 	0.35 	6.604 	-0.0360787 	3.38667e-05 	
0.000900955 	0.000600637 	0 	0.0 	 0.0 	 0.0 	 0.0 	 0.0 	 0.0 	 
ZONE T = "t = 1e-08 [s]" I = 10 SOLUTIONTIME = 1.0000000000000E-08
0.00127 	1.85523e-08 	0.92 	0.04 	0.04 	0.0291615 	3.80014 	
3.87 	3.97141 	-0.101414 	-0.238264 	-0 	29.2204 	0.83409 	
-0 	7244.08 	123.46 	141.616 	0.35 	6.604 	-0.252603 	3.38667e-05 	
0.000900955 	0.000600637 	9.80511e-05 	9805.11 	0.0867854 	0.0428126 	9804.98 	9804.98 	0 	
0.00133773 	1.39186e-08 	0.92 	0.04 	0.04 	0.0291613 	3.80014 	
3.87 	3.97141 	-0.101414 	-0.476527 	-0 	26.7181 	3.33641 	
-0 	14488.2 	246.919 	283.231 	0.35 	13.208 	-0.25261 	6.77333e-05 	
0.00180191 	0.00120127 	9.93349e-05 	9933.49 	0.0771844 	0.214071 	9933.2 	9933.2 	0 	
0.00140547 	9.28444e-09 	0.92 	0.04 	0.04 	0.0291611 	3.80013 	
3.87 	3.97141 	-0.101414 	-0.476527 	-0 	23.3815 	6.67303 	
-0 	14488.2 	246.919 	283.231 	0.35 	13.208 	-0.252635 	6.77333e-05 	
0.00180191 	0.00120127 	9.78126e-05 	9781.26 	0.0591804 	0.72789 	9780.47 	9780.47 	0 	
0.0014732 	4.6495e-09 	0.92 	0.04 	0.04 	0.029161 	3.80013 	
3.87 	3.97141 	-0.101414 	-0.476527 	-0 	20.0444 	10.0101 	
-0 	14488.2 	246.919 	283.231 	0.35 	13.208 	-0.252677 	6.77333e-05 	
0.00180191 	0.00120127 	9.88416e-05 	9884.16 	0.0435727 	1.58441 	9882.54 	9882.54 	0 	
0.00154093 	1.3481e-11 	0.92 	0.04 	0.04 	0.0291609 	3.80011 	
3.87 	3.97141 	-0.101414 	-0.476527 	-0 	16.7067 	13.3478 	
-0 	14488.2 	246.919 	283.231 	0.35 	13.208 	-0.252736 	6.77333e-05 	
0.00180191 	0.00120127 	9.84458e-05 	9844.58 	0.0303614 	2.78385 	9841.76 	9841.76 	0 	
0.00160867 	-4.62395e-09 	0.92 	0.04 	0.04 	0.0291607 	3.8001 	
3.87 	3.97141 	-0.101414 	-0.476527 	-0 	13.368 	16.6864 	
-0 	14488.2 	246.919 	283.231 	0.35 	13.208 	-0.252813 	6.77333e-05 	
0.00180191 	0.00120127 	9.77967e-05 	9779.67 	0.0195473 	4.32654 	9775.33 	9775.33 	0 	
0.0016764 	-9.26309e-09 	0.92 	0.04 	0.04 	0.0291607 	3.80008 	
3.87 	3.97141 	-0.101414 	-0.476527 	-0 	10.0283 	20.0262 	
-0 	14488.2 	246.919 	283.231 	0.35 	13.208 	-0.252907 	6.77333e-05 	
0.00180191 	0.00120127 	9.84431e-05 	9844.31 	0.0111318 	6.21289 	9838.09 	9838.09 	0 	
0.00174413 	-1.39043e-08 	0.92 	0.04 	0.04 	0.0291606 	3.80006 	
3.87 	3.97141 	-0.101414 	-0.476527 	-0 	6.68718 	23.3673 	
-0 	14488.2 	246.919 	283.231 	0.35 	13.208 	-0.253018 	6.77333e-05 	
0.00180191 	0.00120127 	9.90872e-05 	9908.72 	0.00511703 	8.44343 	9900.27 	9900.27 	0 	
0.00181187 	-1.85478e-08 	0.92 	0.04 	0.04 	0.0291606 	3.80003 	
3.87 	3.97141 	-0.101414 	-0.476527 	-0 	3.3445 	26.71 	
-0 	14488.2 	246.919 	283.231 	0.35 	13.208 	-0.253146 	6.77333e-05 	
0.00180191 	0.00120127 	9.94776e-05 	9947.76 	0.00150574 	11.0187 	9936.73 	9936.73 	0 	
0.0018796 	0 	0.92 	0.04 	0.04 	0.0291605 	3.8 	
3.87 	3.97141 	-0.101414 	-0.238264 	-0 	0.836365 	29.2181 	
-0 	7244.08 	123.46 	141.616 	0.35 	6.604 	-0.253292 	3.38667e-05 	
0.000900955 	0.000600637 	0.000101022 	10102.2 	0.000301357 	12.3927 	10089.8 	10089.8 	0 	
ZONE T = "t = 2e-08 [s]" I = 10 SOLUTIONTIME = 2.0000000000000E-08
0.00127 	1.85528e-08 	0.92 	0.04 	0.04 	0.0291615 	3.80014 	
3.77098 	3.97141 	-0.200435 	-1.66819 	1.47102e-07 	29.2206 	0.834095 	
4.18098e-11 	7244.08 	123.46 	141.616 	0.35 	6.604 	-0.252603 	3.38667e-05 	
0.000900955 	0.000600637 	0.000196186 	9813.48 	0.0867865 	0.0428132 	9813.35 	9813.35 	0 	
0.00133773 	1.39191e-08 	0.92 	0.04 	0.04 	0.0291613 	3.80014 	
3.77098 	3.97141 	-0.200436 	-3.33648 	1.29812e-07 	26.7182 	3.33643 	
8.36222e-11 	14488.2 	246.919 	283.231 	0.35 	13.208 	-0.25261 	6.77333e-05 	
0.00180191 	0.00120127 	0.000197414 	9807.92 	0.0771853 	0.214074 	9807.63 	9807.63 	0 	
0.00140547 	9.28486e-09 	0.92 	0.04 	0.04 	0.0291611 	3.80013 	
3.77097 	3.97141 	-0.200442 	-3.33681 	1.1252e-07 	23.3816 	6.67307 	
8.36304e-11 	14488.2 	246.919 	283.231 	0.35 	13.208 	-0.252635 	6.77333e-05 	
0.00180191 	0.00120127 	0.000198346 	10053.3 	0.0591811 	0.727899 	10052.5 	10052.5 	0 	
0.0014732 	4.6499e-09 	0.92 	0.04 	0.04 	0.029161 	3.80013 	
3.77096 	3.97141 	-0.20045 	-3.33736 	9.52255e-08 	20.0445 	10.0102 	
8.36443e-11 	14488.2 	246.919 	283.231 	0.35 	13.208 	-0.252677 	6.77333e-05 	
0.00180191 	0.00120127 	0.000196428 	9758.59 	0.0435732 	1.58443 	9756.96 	9756.96 	0 	
0.00154093 	1.38456e-11 	0.92 	0.04 	0.04 	0.0291609 	3.80011 	
3.77095 	3.97141 	-0.200462 	-3.33814 	7.79269e-08 	16.7068 	13.3479 	
8.36639e-11 	14488.2 	246.919 	283.231 	0.35 	13.208 	-0.252736 	6.77333e-05 	
0.00180191 	0.00120127 	0.000196808 	9836.2 	0.0303618 	2.78388 	9833.38 	9833.38 	0 	
0.00160867 	-4.62434e-09 	0.92 	0.04 	0.04 	0.0291607 	3.8001 	
3.77094 	3.97141 	-0.200478 	-3.33915 	6.06231e-08 	13.3681 	16.6866 	
8.36892e-11 	14488.2 	246.919 	283.231 	0.35 	13.208 	-0.252813 	6.77333e-05 	
0.00180191 	0.00120127 	0.000197017 	9921.98 	0.0195475 	4.32659 	9917.63 	9917.63 	0 	
0.0016764 	-9.26351e-09 	0.92 	0.04 	0.04 	0.0291607 	3.80008 	
3.77092 	3.97141 	-0.200497 	-3.34039 	4.33128e-08 	10.0284 	20.0263 	
8.37202e-11 	14488.2 	246.919 	283.231 	0.35 	13.208 	-0.252907 	6.77333e-05 	
0.00180191 	0.00120127 	0.00019697 	9852.68 	0.0111319 	6.21297 	9846.45 	9846.45 	0 	
0.00174413 	-1.39055e-08 	0.92 	0.04 	0.04 	0.0291606 	3.80006 	
3.7709 	3.97141 	-0.200519 	-3.34186 	2.5995e-08 	6.68723 	23.3675 	
8.3757e-11 	14488.2 	246.919 	283.231 	0.35 	13.208 	-0.253018 	6.77333e-05 	
0.00180191 	0.00120127 	0.000198049 	9896.15 	0.00511709 	8.44353 	9887.7 	9887.7 	0 	
0.00181187 	-1.8549e-08 	0.92 	0.04 	0.04 	0.0291606 	3.80003 	
3.77087 	3.97141 	-0.200545 	-3.34356 	8.66863e-09 	3.34452 	26.7102 	
8.37995e-11 	14488.2 	246.919 	283.231 	0.35 	13.208 	-0.253146 	6.77333e-05 	
0.00180191 	0.00120127 	0.00019749 	9801.25 	0.00150576 	11.0189 	9790.23 	9790.23 	0 	
0.0018796 	0 	0.92 	0.04 	0.04 	0.0291606 	3.8 	
3.77084 	3.97141 	-0.200575 	-1.67274 	8.66863e-09 	0.83637 	29.2183 	
4.19239e-11 	7244.08 	123.46 	141.616 	0.35 	6.604 	-0.253292 	3.38667e-05 	
0.000900955 	0.000600637 	0.000198067 	9704.52 	0.00030136 	12.3928 	9692.13 	9692.13 	0 	
ZONE T = "t = 3e-08 [s]" I = 10 SOLUTIONTIME = 3.0000000000000E-08
0.00127 	1.85553e-08 	0.92 	0.04 	0.04 	0.0291615 	3.80014 	
3.77098 	3.97141 	-0.200435 	-1.66819 	1.47103e-07 	29.2206 	0.834095 	
8.36197e-11 	7244.08 	123.46 	141.616 	0.35 	6.604 	-0.252603 	3.38667e-05 	
0.000900955 	0.000600637 	0.000294195 	9800.92 	0.0867865 	0.0428132 	9800.79 	9800.79 	0 	
0.00133773 	1.39216e-08 	0.92 	0.04 	0.04 	0.0291613 	3.80014 	
3.77098 	3.97141 	-0.200436 	-3.33648 	1.29813e-07 	26.7182 	3.33643 	
1.67244e-10 	14488.2 	246.919 	283.231 	0.35 	13.208 	-0.25261 	6.77333e-05 	
0.00180191 	0.00120127 	0.000295368 	9795.36 	0.0771853 	0.214074 	9795.07 	9795.07 	0 	
0.00140547 	9.28741e-09 	0.92 	0.04 	0.04 	0.0291611 	3.80013 	
3.77097 	3.97141 	-0.200442 	-3.33681 	1.12521e-07 	23.3816 	6.67307 	
1.67261e-10 	14488.2 	246.919 	283.231 	0.35 	13.208 	-0.252635 	6.77333e-05 	
0.00180191 	0.00120127 	0.000296158 	9781.25 	0.0591811 	0.727899 	9780.47 	9780.47 	0 	
0.0014732 	4.65244e-09 	0.92 	0.04 	0.04 	0.029161 	3.80013 	
3.77096 	3.97141 	-0.20045 	-3.33736 	9.52261e-08 	20.0445 	10.0102 	
1.67289e-10 	14488.2 	246.919 	283.231 	0.35 	13.208 	-0.252677 	6.77333e-05 	
0.00180191 	0.00120127 	0.000293888 	9746.03 	0.0435732 	1.58443 	9744.41 	9744.41 	0 	
0.00154093 	1.63881e-11 	0.92 	0.04 	0.04 	0.0291609 	3.80011 	
3.77095 	3.97141 	-0.200462 	-3.33814 	7.79274e-08 	16.7068 	13.3479 	
1.67328e-10 	14488.2 	246.919 	283.231 	0.35 	13.208 	-0.252736 	6.77333e-05 	
0.00180191 	0.00120127 	0.000295253 	9844.57 	0.0303618 	2.78388 	9841.75 	9841.75 	0 	
0.00160867 	-4.62107e-09 	0.92 	0.04 	0.04 	0.0291607 	3.8001 	
3.77094 	3.97141 	-0.200478 	-3.33915 	6.06234e-08 	13.3681 	16.6866 	
1.67378e-10 	14488.2 	246.919 	283.231 	0.35 	13.208 	-0.252813 	6.77333e-05 	
0.00180191 	0.00120127 	0.000296278 	9926.16 	0.0195475 	4.32659 	9921.82 	9921.82 	0 	
0.0016764 	-9.26024e-09 	0.92 	0.04 	0.04 	0.0291607 	3.80008 	
3.77092 	3.97141 	-0.200497 	-3.34039 	4.33131e-08 	10.0284 	20.0263 	
1.6744e-10 	14488.2 	246.919 	283.231 	0.35 	13.208 	-0.252907 	6.77333e-05 	
0.00180191 	0.00120127 	0.000295538 	9856.86 	0.0111319 	6.21297 	9850.64 	9850.64 	0 	
0.00174413 	-1.39007e-08 	0.92 	0.04 	0.04 	0.0291606 	3.80006 	
3.7709 	3.97141 	-0.200519 	-3.34186 	2.59951e-08 	6.68723 	23.3675 	
1.67514e-10 	14488.2 	246.919 	283.231 	0.35 	13.208 	-0.253018 	6.77333e-05 	
0.00180191 	0.00120127 	0.000297136 	9908.71 	0.00511709 	8.44353 	9900.26 	9900.26 	0 	
0.00181187 	-1.85443e-08 	0.92 	0.04 	0.04 	0.0291606 	3.80003 	
3.77087 	3.97141 	-0.200545 	-3.34356 	8.66901e-09 	3.34452 	26.7102 	
1.67599e-10 	14488.2 	246.919 	283.231 	0.35 	13.208 	-0.253146 	6.77333e-05 	
0.00180191 	0.00120127 	0.000295628 	9813.81 	0.00150576 	11.0189 	9802.79 	9802.79 	0 	
0.0018796 	0 	0.92 	0.04 	0.04 	0.0291606 	3.8 	
3.77084 	3.97141 	-0.200575 	-1.67274 	8.66901e-09 	0.83637 	29.2183 	
8.38478e-11 	7244.08 	123.46 	141.616 	0.35 	6.604 	-0.253292 	3.38667e-05 	
0.000900955 	0.000600637 	0.000297791 	9972.4 	0.00030136 	12.3928 	9960.01 	9960.01 	0 	
ZONE T = "t = 4e-08 [s]" I = 10 SOLUTIONTIME = 4.0000000000000E-08
0.00127 	1.85566e-08 	0.92 	0.04 	0.04 	0.0291615 	3.80014 	
3.77098 	3.97141 	-0.200435 	-1.66819 	1.47103e-07 	29.2206 	0.834095 	
1.25429e-10 	7244.08 	123.46 	141.616 	0.35 	6.604 	-0.252603 	3.38667e-05 	
0.000900955 	0.000600637 	0.000392288 	9809.29 	0.0867865 	0.0428132 	9809.16 	9809.16 	0 	
0.00133773 	1.39229e-08 	0.92 	0.04 	0.04 	0.0291613 	3.80014 	
3.77098 	3.97141 	-0.200436 	-3.33648 	1.29813e-07 	26.7182 	3.33643 	
2.50866e-10 	14488.2 	246.919 	283.231 	0.35 	13.208 	-0.25261 	6.77333e-05 	
0.00180191 	0.00120127 	0.000393405 	9803.74 	0.0771853 	0.214074 	9803.44 	9803.44 	0 	
0.00140547 	9.28868e-09 	0.92 	0.04 	0.04 	0.0291611 	3.80013 	
3.77097 	3.97141 	-0.200442 	-3.33681 	1.12521e-07 	23.3816 	6.67307 	
2.50891e-10 	14488.2 	246.919 	283.231 	0.35 	13.208 	-0.252635 	6.77333e-05 	
0.00180191 	0.00120127 	0.000393971 	9781.25 	0.0591811 	0.727899 	9780.47 	9780.47 	0 	
0.0014732 	4.65371e-09 	0.92 	0.04 	0.04 	0.029161 	3.80013 	
3.77096 	3.97141 	-0.20045 	-3.33736 	9.52261e-08 	20.0445 	10.0102 	
2.50933e-10 	14488.2 	246.919 	283.231 	0.35 	13.208 	-0.252677 	6.77333e-05 	
0.00180191 	0.00120127 	0.00039139 	9750.22 	0.0435732 	1.58443 	9748.59 	9748.59 	0 	
0.00154093 	1.69329e-11 	0.92 	0.04 	0.04 	0.0291609 	3.80011 	
3.77095 	3.97141 	-0.200462 	-3.33814 	7.79274e-08 	16.7068 	13.3479 	
2.50992e-10 	14488.2 	246.919 	283.231 	0.35 	13.208 	-0.252736 	6.77333e-05 	
0.00180191 	0.00120127 	0.000392318 	9706.45 	0.0303618 	2.78388 	9703.63 	9703.63 	0 	
0.00160867 	-4.62016e-09 	0.92 	0.04 	0.04 	0.0291607 	3.8001 	
3.77094 	3.97141 	-0.200478 	-3.33915 	6.06234e-08 	13.3681 	16.6866 	
2.51068e-10 	14488.2 	246.919 	283.231 	0.35 	13.208 	-0.252813 	6.77333e-05 	
0.00180191 	0.00120127 	0.000395498 	9921.98 	0.0195475 	4.32659 	9917.63 	9917.63 	0 	
0.0016764 	-9.2597e-09 	0.92 	0.04 	0.04 	0.0291607 	3.80008 	
3.77092 	3.97141 	-0.200497 	-3.34039 	4.33131e-08 	10.0284 	20.0263 	
2.51161e-10 	14488.2 	246.919 	283.231 	0.35 	13.208 	-0.252907 	6.77333e-05 	
0.00180191 	0.00120127 	0.000392726 	9718.74 	0.0111319 	6.21297 	9712.51 	9712.51 	0 	
0.00174413 	-1.39013e-08 	0.92 	0.04 	0.04 	0.0291606 	3.80006 	
3.7709 	3.97141 	-0.200519 	-3.34186 	2.59951e-08 	6.68723 	23.3675 	
2.51271e-10 	14488.2 	246.919 	283.231 	0.35 	13.208 	-0.253018 	6.77333e-05 	
0.00180191 	0.00120127 	0.000397604 	10046.8 	0.00511709 	8.44353 	10038.4 	10038.4 	0 	
0.00181187 	-1.85452e-08 	0.92 	0.04 	0.04 	0.0291606 	3.80003 	
3.77087 	3.97141 	-0.200545 	-3.34356 	8.66933e-09 	3.34452 	26.7102 	
2.51399e-10 	14488.2 	246.919 	283.231 	0.35 	13.208 	-0.253146 	6.77333e-05 	
0.00180191 	0.00120127 	0.000393808 	9817.99 	0.00150576 	11.0189 	9806.97 	9806.97 	0 	
0.0018796 	0 	0.92 	0.04 	0.04 	0.0291606 	3.8 	
3.77084 	3.97141 	-0.200575 	-1.67274 	8.66933e-09 	0.83637 	29.2183 	
1.25772e-10 	7244.08 	123.46 	141.616 	0.35 	6.604 	-0.253292 	3.38667e-05 	
0.000900955 	0.000600637 	0.000397473 	9968.21 	0.00030136 	12.3928 	9955.82 	9955.82 	0 	
ZONE T = "t = 5.5e-08 [s]" I = 10 SOLUTIONTIME = 5.5000000000000E-08
0.00127 	1.85536e-08 	0.92 	0.04 	0.04 	0.0291615 	3.80014 	
3.77098 	3.97141 	-0.200435 	-1.66819 	1.47103e-07 	29.2206 	0.834095 	
1.67239e-10 	7244.08 	123.46 	141.616 	0.35 	6.604 	-0.252603 	3.38667e-05 	
0.000900955 	0.000600637 	0.000544764 	10165.1 	0.0867865 	0.0428132 	10164.9 	10164.9 	0 	
0.00133773 	1.39196e-08 	0.92 	0.04 	0.04 	0.0291613 	3.80014 	
3.77098 	3.97141 	-0.200436 	-3.33648 	1.29813e-07 	26.7182 	3.33643 	
3.34489e-10 	14488.2 	246.919 	283.231 	0.35 	13.208 	-0.25261 	6.77333e-05 	
0.00180191 	0.00120127 	0.000543077 	9978.13 	0.0771853 	0.214074 	9977.84 	9977.84 	0 	
0.00140547 	9.28541e-09 	0.92 	0.04 	0.04 	0.0291611 	3.80013 	
3.77097 	3.97141 	-0.200442 	-3.33681 	1.12521e-07 	23.3816 	6.67307 	
3.34521e-10 	14488.2 	246.919 	283.231 	0.35 	13.208 	-0.252635 	6.77333e-05 	
0.00180191 	0.00120127 	0.000544833 	10057.5 	0.0591811 	0.727899 	10056.7 	10056.7 	0 	
0.0014732 	4.65044e-09 	0.92 	0.04 	0.04 	0.029161 	3.80013 	
3.77096 	3.97141 	-0.20045 	-3.33736 	9.52261e-08 	20.0445 	10.0102 	
3.34577e-10 	14488.2 	246.919 	283.231 	0.35 	13.208 	-0.252677 	6.77333e-05 	
0.00180191 	0.00120127 	0.000537643 	9750.22 	0.0435732 	1.58443 	9748.59 	9748.59 	0 	
0.00154093 	1.48747e-11 	0.92 	0.04 	0.04 	0.0291609 	3.80011 	
3.77095 	3.97141 	-0.200462 	-3.33814 	7.79274e-08 	16.7068 	13.3479 	
3.34655e-10 	14488.2 	246.919 	283.231 	0.35 	13.208 	-0.252736 	6.77333e-05 	
0.00180191 	0.00120127 	0.000540677 	9890.61 	0.0303618 	2.78388 	9887.8 	9887.8 	0 	
0.00160867 	-4.62282e-09 	0.92 	0.04 	0.04 	0.0291607 	3.8001 	
3.77094 	3.97141 	-0.200478 	-3.33915 	6.06234e-08 	13.3681 	16.6866 	
3.34757e-10 	14488.2 	246.919 	283.231 	0.35 	13.208 	-0.252813 	6.77333e-05 	
0.00180191 	0.00120127 	0.000543009 	9834.08 	0.0195475 	4.32659 	9829.73 	9829.73 	0 	
0.0016764 	-9.26176e-09 	0.92 	0.04 	0.04 	0.0291607 	3.80008 	
3.77092 	3.97141 	-0.200497 	-3.34039 	4.33131e-08 	10.0284 	20.0263 	
3.34881e-10 	14488.2 	246.919 	283.231 	0.35 	13.208 	-0.252907 	6.77333e-05 	
0.00180191 	0.00120127 	0.000539156 	9761.99 	0.0111319 	6.21297 	9755.76 	9755.76 	0 	
0.00174413 	-1.39027e-08 	0.92 	0.04 	0.04 	0.0291606 	3.80006 	
3.7709 	3.97141 	-0.200519 	-3.34186 	2.59951e-08 	6.68723 	23.3675 	
3.35028e-10 	14488.2 	246.919 	283.231 	0.35 	13.208 	-0.253018 	6.77333e-05 	
0.00180191 	0.00120127 	0.000544142 	9769.19 	0.00511709 	8.44353 	9760.74 	9760.74 	0 	
0.00181187 	-1.85458e-08 	0.92 	0.04 	0.04 	0.0291606 	3.80003 	
3.77087 	3.97141 	-0.200545 	-3.34356 	8.66965e-09 	3.34452 	26.7102 	
3.35198e-10 	14488.2 	246.919 	283.231 	0.35 	13.208 	-0.253146 	6.77333e-05 	
0.00180191 	0.00120127 	0.000542941 	9942.17 	0.00150576 	11.0189 	9931.15 	9931.15 	0 	
0.0018796 	0 	0.92 	0.04 	0.04 	0.0291606 	3.8 	
3.77084 	3.97141 	-0.200575 	-1.67274 	8.66965e-09 	0.83637 	29.2183 	
1.67696e-10 	7244.08 	123.46 	141.616 	0.35 	6.604 	-0.253292 	3.38667e-05 	
0.000900955 	0.000600637 	0.00054505 	9838.46 	0.00030136 	12.3928 	9826.07 	9826.07 	0 	
ZONE T = "t = 7.75e-08 [s]" I = 10 SOLUTIONTIME = 7.7500000000000E-08
0.00127 	1.85521e-08 	0.92 	0.04 	0.04 	0.0291615 	3.80014 	
3.77098 	3.97141 	-0.200435 	-1.66819 	1.47103e-07 	29.2206 	0.834095 	
2.29954e-10 	7244.08 	123.46 	141.616 	0.35 	6.604 	-0.252603 	3.38667e-05 	
0.000900955 	0.000600637 	0.00076609 	9836.73 	0.0867865 	0.0428132 	9836.6 	9836.6 	0 	
0.00133773 	1.39184e-08 	0.92 	0.04 	0.04 	0.0291613 	3.80014 	
3.77098 	3.97141 	-0.200436 	-3.33648 	1.29813e-07 	26.7182 	3.33643 	
4.59922e-10 	14488.2 	246.919 	283.231 	0.35 	13.208 	-0.25261 	6.77333e-05 	
0.00180191 	0.00120127 	0.000765618 	9890.7 	0.0771853 	0.214074 	9890.41 	9890.41 	0 	
0.00140547 	9.28404e-09 	0.92 	0.04 	0.04 	0.0291611 	3.80013 	
3.77097 	3.97141 	-0.200442 	-3.33681 	1.12521e-07 	23.3816 	6.67307 	
4.59967e-10 	14488.2 	246.919 	283.231 	0.35 	13.208 	-0.252635 	6.77333e-05 	
0.00180191 	0.00120127 	0.000765623 	9812.88 	0.0591811 	0.727899 	9812.09 	9812.09 	0 	
0.0014732 	4.64907e-09 	0.92 	0.04 	0.04 	0.029161 	3.80013 	
3.77096 	3.97141 	-0.20045 	-3.33736 	9.52261e-08 	20.0445 	10.0102 	
4.60043e-10 	14488.2 	246.919 	283.231 	0.35 	13.208 	-0.252677 	6.77333e-05 	
0.00180191 	0.00120127 	0.000761837 	9964.15 	0.0435732 	1.58443 	9962.52 	9962.52 	0 	
0.00154093 	1.28569e-11 	0.92 	0.04 	0.04 	0.0291609 	3.80011 	
3.77095 	3.97141 	-0.200462 	-3.33814 	7.79274e-08 	16.7068 	13.3479 	
4.60151e-10 	14488.2 	246.919 	283.231 	0.35 	13.208 	-0.252736 	6.77333e-05 	
0.00180191 	0.00120127 	0.000763802 	9916.65 	0.0303618 	2.78388 	9913.84 	9913.84 	0 	
0.00160867 	-4.62476e-09 	0.92 	0.04 	0.04 	0.0291607 	3.8001 	
3.77094 	3.97141 	-0.200478 	-3.33915 	6.06234e-08 	13.3681 	16.6866 	
4.60291e-10 	14488.2 	246.919 	283.231 	0.35 	13.208 	-0.252813 	6.77333e-05 	
0.00180191 	0.00120127 	0.000767541 	9979.18 	0.0195475 	4.32659 	9974.83 	9974.83 	0 	
0.0016764 	-9.26378e-09 	0.92 	0.04 	0.04 	0.0291607 	3.80008 	
3.77092 	3.97141 	-0.200497 	-3.34039 	4.33131e-08 	10.0284 	20.0263 	
4.60461e-10 	14488.2 	246.919 	283.231 	0.35 	13.208 	-0.252907 	6.77333e-05 	
0.00180191 	0.00120127 	0.000763551 	9973.13 	0.0111319 	6.21297 	9966.9 	9966.9 	0 	
0.00174413 	-1.3905e-08 	0.92 	0.04 	0.04 	0.0291606 	3.80006 	
3.7709 	3.97141 	-0.200519 	-3.34186 	2.59951e-08 	6.68723 	23.3675 	
4.60664e-10 	14488.2 	246.919 	283.231 	0.35 	13.208 	-0.253018 	6.77333e-05 	
0.00180191 	0.00120127 	0.00076669 	9891.04 	0.00511709 	8.44353 	9882.59 	9882.59 	0 	
0.00181187 	-1.85486e-08 	0.92 	0.04 	0.04 	0.0291606 	3.80003 	
3.77087 	3.97141 	-0.200545 	-3.34356 	8.67013e-09 	3.34452 	26.7102 	
4.60897e-10 	14488.2 	246.919 	283.231 	0.35 	13.208 	-0.253146 	6.77333e-05 	
0.00180191 	0.00120127 	0.000764651 	9853.8 	0.00150576 	11.0189 	9842.78 	9842.78 	0 	
0.0018796 	0 	0.92 	0.04 	0.04 	0.0291606 	3.8 	
3.77084 	3.97141 	-0.200575 	-1.67274 	8.67013e-09 	0.83637 	29.2183 	
2.30581e-10 	7244.08 	123.46 	141.616 	0.35 	6.604 	-0.253292 	3.38667e-05 	
0.000900955 	0.000600637 	0.000769785 	9988.21 	0.00030136 	12.3928 	9975.82 	9975.82 	0 	
ZONE T = "t = 1.1125e-07 [s]" I = 10 SOLUTIONTIME = 1.1125000000000E-07
0.00127 	1.85522e-08 	0.92 	0.04 	0.04 	0.0291615 	3.80014 	
3.77098 	3.97141 	-0.200435 	-1.66819 	1.47104e-07 	29.2206 	0.834095 	
3.24026e-10 	7244.08 	123.46 	141.616 	0.35 	6.604 	-0.252603 	3.38667e-05 	
0.000900955 	0.000600637 	0.00109806 	9836.11 	0.0867865 	0.0428132 	9835.98 	9835.98 	0 	
0.00133773 	1.39185e-08 	0.92 	0.04 	0.04 	0.0291613 	3.80014 	
3.77098 	3.97141 	-0.200436 	-3.33648 	1.29813e-07 	26.7182 	3.33643 	
6.48072e-10 	14488.2 	246.919 	283.231 	0.35 	13.208 	-0.25261 	6.77333e-05 	
0.00180191 	0.00120127 	0.00109882 	9872.72 	0.0771853 	0.214074 	9872.43 	9872.43 	0 	
0.00140547 	9.28444e-09 	0.92 	0.04 	0.04 	0.0291611 	3.80013 	
3.77097 	3.97141 	-0.200442 	-3.33681 	1.12521e-07 	23.3816 	6.67307 	
6.48135e-10 	14488.2 	246.919 	283.231 	0.35 	13.208 	-0.252635 	6.77333e-05 	
0.00180191 	0.00120127 	0.00109813 	9851.94 	0.0591811 	0.727899 	9851.15 	9851.15 	0 	
0.0014732 	4.64937e-09 	0.92 	0.04 	0.04 	0.029161 	3.80013 	
3.77096 	3.97141 	-0.20045 	-3.33736 	9.52261e-08 	20.0445 	10.0102 	
6.48243e-10 	14488.2 	246.919 	283.231 	0.35 	13.208 	-0.252677 	6.77333e-05 	
0.00180191 	0.00120127 	0.00109329 	9820.91 	0.0435732 	1.58443 	9819.28 	9819.28 	0 	
0.00154093 	1.34219e-11 	0.92 	0.04 	0.04 	0.0291609 	3.80011 	
3.77095 	3.97141 	-0.200462 	-3.33814 	7.79274e-08 	16.7068 	13.3479 	
6.48395e-10 	14488.2 	246.919 	283.231 	0.35 	13.208 	-0.252736 	6.77333e-05 	
0.00180191 	0.00120127 	0.00109516 	9818.06 	0.0303618 	2.78388 	9815.25 	9815.25 	0 	
0.00160867 	-4.62393e-09 	0.92 	0.04 	0.04 	0.0291607 	3.8001 	
3.77094 	3.97141 	-0.200478 	-3.33915 	6.06234e-08 	13.3681 	16.6866 	
6.48591e-10 	14488.2 	246.919 	283.231 	0.35 	13.208 	-0.252813 	6.77333e-05 	
0.00180191 	0.00120127 	0.00109833 	9801.22 	0.0195475 	4.32659 	9796.87 	9796.87 	0 	
0.0016764 	-9.263e-09 	0.92 	0.04 	0.04 	0.0291607 	3.80008 	
3.77092 	3.97141 	-0.200497 	-3.34039 	4.33131e-08 	10.0284 	20.0263 	
6.48832e-10 	14488.2 	246.919 	283.231 	0.35 	13.208 	-0.252907 	6.77333e-05 	
0.00180191 	0.00120127 	0.00109334 	9771.6 	0.0111319 	6.21297 	9765.38 	9765.38 	0 	
0.00174413 	-1.39042e-08 	0.92 	0.04 	0.04 	0.0291606 	3.80006 	
3.7709 	3.97141 	-0.200519 	-3.34186 	2.59951e-08 	6.68723 	23.3675 	
6.49117e-10 	14488.2 	246.919 	283.231 	0.35 	13.208 	-0.253018 	6.77333e-05 	
0.00180191 	0.00120127 	0.00110045 	9889.18 	0.00511709 	8.44353 	9880.73 	9880.73 	0 	
0.00181187 	-1.85478e-08 	0.92 	0.04 	0.04 	0.0291606 	3.80003 	
3.77087 	3.97141 	-0.200545 	-3.34356 	8.67086e-09 	3.34452 	26.7102 	
6.49446e-10 	14488.2 	246.919 	283.231 	0.35 	13.208 	-0.253146 	6.77333e-05 	
0.00180191 	0.00120127 	0.00110069 	9956.74 	0.00150576 	11.0189 	9945.72 	9945.72 	0 	
0.0018796 	0 	0.92 	0.04 	0.04 	0.0291606 	3.8 	
3.77084 	3.97141 	-0.200575 	-1.67274 	8.67086e-09 	0.83637 	29.2183 	
3.2491e-10 	7244.08 	123.46 	141.616 	0.35 	6.604 	-0.253292 	3.38667e-05 	
0.000900955 	0.000600637 	0.00110343 	9885.9 	0.00030136 	12.3928 	9873.51 	9873.51 	0 	
ZONE T = "t = 1.61875e-07 [s]" I = 10 SOLUTIONTIME = 1.6187500000000E-07
0.00127 	1.85543e-08 	0.92 	0.04 	0.04 	0.0291615 	3.80014 	
3.77098 	3.97141 	-0.200435 	-1.66819 	1.47104e-07 	29.2206 	0.834095 	
4.65134e-10 	7244.08 	123.46 	141.616 	0.35 	6.604 	-0.252603 	3.38667e-05 	
0.000900955 	0.000600637 	0.00159938 	9902.67 	0.0867865 	0.0428132 	9902.54 	9902.54 	0 	
0.00133773 	1.39206e-08 	0.92 	0.04 	0.04 	0.0291613 	3.80014 	
3.77098 	3.97141 	-0.200436 	-3.33648 	1.29813e-07 	26.7182 	3.33643 	
9.30297e-10 	14488.2 	246.919 	283.231 	0.35 	13.208 	-0.25261 	6.77333e-05 	
0.00180191 	0.00120127 	0.00159714 	9843.37 	0.0771853 	0.214074 	9843.08 	9843.08 	0 	
0.00140547 	9.28641e-09 	0.92 	0.04 	0.04 	0.0291611 	3.80013 	
3.77097 	3.97141 	-0.200442 	-3.33681 	1.12521e-07 	23.3816 	6.67307 	
9.30388e-10 	14488.2 	246.919 	283.231 	0.35 	13.208 	-0.252635 	6.77333e-05 	
0.00180191 	0.00120127 	0.0015969 	9852.36 	0.0591811 	0.727899 	9851.57 	9851.57 	0 	
0.0014732 	4.6513e-09 	0.92 	0.04 	0.04 	0.029161 	3.80013 	
3.77096 	3.97141 	-0.20045 	-3.33736 	9.52261e-08 	20.0445 	10.0102 	
9.30542e-10 	14488.2 	246.919 	283.231 	0.35 	13.208 	-0.252677 	6.77333e-05 	
0.00180191 	0.00120127 	0.00159452 	9900.69 	0.0435732 	1.58443 	9899.07 	9899.07 	0 	
0.00154093 	1.52514e-11 	0.92 	0.04 	0.04 	0.0291609 	3.80011 	
3.77095 	3.97141 	-0.200462 	-3.33814 	7.79274e-08 	16.7068 	13.3479 	
9.30761e-10 	14488.2 	246.919 	283.231 	0.35 	13.208 	-0.252736 	6.77333e-05 	
0.00180191 	0.00120127 	0.00159421 	9857.75 	0.0303618 	2.78388 	9854.93 	9854.93 	0 	
0.00160867 	-4.62206e-09 	0.92 	0.04 	0.04 	0.0291607 	3.8001 	
3.77094 	3.97141 	-0.200478 	-3.33915 	6.06234e-08 	13.3681 	16.6866 	
9.31042e-10 	14488.2 	246.919 	283.231 	0.35 	13.208 	-0.252813 	6.77333e-05 	
0.00180191 	0.00120127 	0.00159866 	9883.07 	0.0195475 	4.32659 	9878.72 	9878.72 	0 	
0.0016764 	-9.26131e-09 	0.92 	0.04 	0.04 	0.0291607 	3.80008 	
3.77092 	3.97141 	-0.200497 	-3.34039 	4.33131e-08 	10.0284 	20.0263 	
9.31388e-10 	14488.2 	246.919 	283.231 	0.35 	13.208 	-0.252907 	6.77333e-05 	
0.00180191 	0.00120127 	0.00159548 	9918.77 	0.0111319 	6.21297 	9912.54 	9912.54 	0 	
0.00174413 	-1.39025e-08 	0.92 	0.04 	0.04 	0.0291606 	3.80006 	
3.7709 	3.97141 	-0.200519 	-3.34186 	2.59951e-08 	6.68723 	23.3675 	
9.31797e-10 	14488.2 	246.919 	283.231 	0.35 	13.208 	-0.253018 	6.77333e-05 	
0.00180191 	0.00120127 	0.00160115 	9890.42 	0.00511709 	8.44353 	9881.97 	9881.97 	0 	
0.00181187 	-1.8546e-08 	0.92 	0.04 	0.04 	0.0291606 	3.80003 	
3.77087 	3.97141 	-0.200545 	-3.34356 	8.67194e-09 	3.34452 	26.7102 	
9.3227e-10 	14488.2 	246.919 	283.231 	0.35 	13.208 	-0.253146 	6.77333e-05 	
0.00180191 	0.00120127 	0.00160065 	9875.71 	0.00150576 	11.0189 	9864.69 	9864.69 	0 	
0.0018796 	0 	0.92 	0.04 	0.04 	0.0291606 	3.8 	
3.77084 	3.97141 	-0.200575 	-1.67274 	8.67194e-09 	0.83637 	29.2183 	
4.66403e-10 	7244.08 	123.46 	141.616 	0.35 	6.604 	-0.253292 	3.38667e-05 	
0.000900955 	0.000600637 	0.00160594 	9926 	0.00030136 	12.3928 	9913.6 	9913.6 	0 	
ZONE T = "t = 2.37813e-07 [s]" I = 10 SOLUTIONTIME = 2.3781250000000E-07
0.00127 	1.85535e-08 	0.92 	0.04 	0.04 	0.0291615 	3.80014 	
3.77098 	3.97141 	-0.200435 	-1.66819 	1.47105e-07 	29.2206 	0.834095 	
6.76797e-10 	7244.08 	123.46 	141.616 	0.35 	6.604 	-0.252603 	3.38667e-05 	
0.000900955 	0.000600637 	0.00234733 	9849.48 	0.0867865 	0.0428132 	9849.35 	9849.35 	0 	
0.00133773 	1.39197e-08 	0.92 	0.04 	0.04 	0.0291613 	3.80014 	
3.77098 	3.97141 	-0.200436 	-3.33648 	1.29813e-07 	26.7182 	3.33643 	
1.35363e-09 	14488.2 	246.919 	283.231 	0.35 	13.208 	-0.25261 	6.77333e-05 	
0.00180191 	0.00120127 	0.00234739 	9879.75 	0.0771853 	0.214074 	9879.46 	9879.46 	0 	
0.00140547 	9.2855e-09 	0.92 	0.04 	0.04 	0.0291611 	3.80013 	
3.77097 	3.97141 	-0.200442 	-3.33681 	1.12521e-07 	23.3816 	6.67307 	
1.35377e-09 	14488.2 	246.919 	283.231 	0.35 	13.208 	-0.252635 	6.77333e-05 	