TITLE = "Solution on Domain BulkDomain1D_0"
VARIABLES = "x [m]"  
"Vel_axial" 	"MF_sp(ECDMC)" 	"MF_sp(Li+)" 	"MF_sp(PF6-)" 	"Volt(Electroly)" 	"Volt(AnodeVolt)" 	
"Potential Drop Electrode-Electrolyte [V]" 	"Surf_0 Equilibrium Potential Drop Electrode-Electrolyte [V]" 	"Overpotential_0 [V]" 	"Current Source [A/m^2]" 	"Li+ flux [kmol/m^2/s]" 	"Electrolyte Current [A/m^2]" 	"Electrode Current [A/m^2]" 	
"Capacity discharged [A-s]" 	"Depth of discharge [-]" 	"Capacity remaining [A-s]" 	"Initial capacity [A-s]" 	"Porosity []" 	"Surface Area [m2/m2] (area per area)" 	"Specific current (per particle area) [A/m^2]" 	"Control volume thickness [m]" 	
"Moles Li_C6-bulk [mol/m^2] (per electrode area)" 	"Moles V_C6-bulk [mol/m^2] (per electrode area)" 	"qHeat_accum [J/m3]" 	"qHeat_step [W/m3]" 	"Joule_Lyte [W/m3]" 	"Joule_Solid [W/m3]" 	"electrodHeat [W/m3]" 	"OverpotHeat [W/m3]" 	"deltaSHeat [W/m3]" 	

ZONE T = "t = 0 [s]" I = 10 SOLUTIONTIME = 0.0000000000000E+00
0 	0 	0.92 	0.04 	0.04 	-0.07 	0 	
0 	0 	0 	0 	0 	0 	15.4651 	
0 	0 	0 	0 	0.35 	8.53017 	3.62598 	4.37444e-05 	
0.00379119 	0.000947796 	0 	0.0 	 0.0 	 0.0 	 0.0 	 0.0 	 0.0 	 
8.74889e-05 	0 	0.92 	0.04 	0.04 	-0.07 	0 	
0 	0 	0 	0 	0 	0 	-0 	
0 	0 	0 	0 	0.35 	17.0603 	3.62598 	8.74889e-05 	
0.00758237 	0.00189559 	0 	0.0 	 0.0 	 0.0 	 0.0 	 0.0 	 0.0 	 
0.000174978 	0 	0.92 	0.04 	0.04 	-0.07 	0 	
0 	0 	0 	0 	0 	0 	-0 	
0 	0 	0 	0 	0.35 	17.0603 	3.62598 	8.74889e-05 	
0.00758237 	0.00189559 	0 	0.0 	 0.0 	 0.0 	 0.0 	 0.0 	 0.0 	 
0.000262467 	0 	0.92 	0.04 	0.04 	-0.07 	0 	
0 	0 	0 	0 	0 	0 	-0 	
0 	0 	0 	0 	0.35 	17.0603 	3.62598 	8.74889e-05 	
0.00758237 	0.00189559 	0 	0.0 	 0.0 	 0.0 	 0.0 	 0.0 	 0.0 	 
0.000349956 	0 	0.92 	0.04 	0.04 	-0.07 	0 	
0 	0 	0 	0 	0 	0 	-0 	
0 	0 	0 	0 	0.35 	17.0603 	3.62598 	8.74889e-05 	
0.00758237 	0.00189559 	0 	0.0 	 0.0 	 0.0 	 0.0 	 0.0 	 0.0 	 
0.000437444 	0 	0.92 	0.04 	0.04 	-0.07 	0 	
0 	0 	0 	0 	0 	0 	-0 	
0 	0 	0 	0 	0.35 	17.0603 	3.62598 	8.74889e-05 	
0.00758237 	0.00189559 	0 	0.0 	 0.0 	 0.0 	 0.0 	 0.0 	 0.0 	 
0.000524933 	0 	0.92 	0.04 	0.04 	-0.07 	0 	
0 	0 	0 	0 	0 	0 	-0 	
0 	0 	0 	0 	0.35 	17.0603 	3.62598 	8.74889e-05 	
0.00758237 	0.00189559 	0 	0.0 	 0.0 	 0.0 	 0.0 	 0.0 	 0.0 	 
0.000612422 	0 	0.92 	0.04 	0.04 	-0.07 	0 	
0 	0 	0 	0 	0 	0 	-0 	
0 	0 	0 	0 	0.35 	17.0603 	3.62598 	8.74889e-05 	
0.00758237 	0.00189559 	0 	0.0 	 0.0 	 0.0 	 0.0 	 0.0 	 0.0 	 
0.000699911 	0 	0.92 	0.04 	0.04 	-0.07 	0 	
0 	0 	0 	0 	0 	0 	-0 	
0 	0 	0 	0 	0.35 	17.0603 	3.62598 	8.74889e-05 	
0.00758237 	0.00189559 	0 	0.0 	 0.0 	 0.0 	 0.0 	 0.0 	 0.0 	 
0.0007874 	0 	0.92 	0.04 	0.04 	-0.07 	0 	
0 	0 	0 	0 	0 	15.4651 	0 	
0 	0 	0 	0 	0.35 	8.53017 	3.62598 	4.37444e-05 	
0.00379119 	0.000947796 	0 	0.0 	 0.0 	 0.0 	 0.0 	 0.0 	 0.0 	 
ZONE T = "t = 0 [s]" I = 10 SOLUTIONTIME = 0.0000000000000E+00
0 	0 	0.92 	0.04 	0.04 	-0.07 	0 	
0 	0 	0 	0 	0 	0 	15.4651 	
0 	0 	0 	0 	0.35 	8.53017 	3.62598 	4.37444e-05 	
0.00379119 	0.000947796 	0 	0.0 	 0.0 	 0.0 	 0.0 	 0.0 	 0.0 	 
8.74889e-05 	0 	0.92 	0.04 	0.04 	-0.07 	0 	
0 	0 	0 	0 	0 	0 	-0 	
0 	0 	0 	0 	0.35 	17.0603 	3.62598 	8.74889e-05 	
0.00758237 	0.00189559 	0 	0.0 	 0.0 	 0.0 	 0.0 	 0.0 	 0.0 	 
0.000174978 	0 	0.92 	0.04 	0.04 	-0.07 	0 	
0 	0 	0 	0 	0 	0 	-0 	
0 	0 	0 	0 	0.35 	17.0603 	3.62598 	8.74889e-05 	
0.00758237 	0.00189559 	0 	0.0 	 0.0 	 0.0 	 0.0 	 0.0 	 0.0 	 
0.000262467 	0 	0.92 	0.04 	0.04 	-0.07 	0 	
0 	0 	0 	0 	0 	0 	-0 	
0 	0 	0 	0 	0.35 	17.0603 	3.62598 	8.74889e-05 	
0.00758237 	0.00189559 	0 	0.0 	 0.0 	 0.0 	 0.0 	 0.0 	 0.0 	 
0.000349956 	0 	0.92 	0.04 	0.04 	-0.07 	0 	
0 	0 	0 	0 	0 	0 	-0 	
0 	0 	0 	0 	0.35 	17.0603 	3.62598 	8.74889e-05 	
0.00758237 	0.00189559 	0 	0.0 	 0.0 	 0.0 	 0.0 	 0.0 	 0.0 	 
0.000437444 	0 	0.92 	0.04 	0.04 	-0.07 	0 	
0 	0 	0 	0 	0 	0 	-0 	
0 	0 	0 	0 	0.35 	17.0603 	3.62598 	8.74889e-05 	
0.00758237 	0.00189559 	0 	0.0 	 0.0 	 0.0 	 0.0 	 0.0 	 0.0 	 
0.000524933 	0 	0.92 	0.04 	0.04 	-0.07 	0 	
0 	0 	0 	0 	0 	0 	-0 	
0 	0 	0 	0 	0.35 	17.0603 	3.62598 	8.74889e-05 	
0.00758237 	0.00189559 	0 	0.0 	 0.0 	 0.0 	 0.0 	 0.0 	 0.0 	 
0.000612422 	0 	0.92 	0.04 	0.04 	-0.07 	0 	
0 	0 	0 	0 	0 	0 	-0 	
0 	0 	0 	0 	0.35 	17.0603 	3.62598 	8.74889e-05 	
0.00758237 	0.00189559 	0 	0.0 	 0.0 	 0.0 	 0.0 	 0.0 	 0.0 	 
0.000699911 	0 	0.92 	0.04 	0.04 	-0.07 	0 	
0 	0 	0 	0 	0 	0 	-0 	
0 	0 	0 	0 	0.35 	17.0603 	3.62598 	8.74889e-05 	
0.00758237 	0.00189559 	0 	0.0 	 0.0 	 0.0 	 0.0 	 0.0 	 0.0 	 
0.0007874 	0 	0.92 	0.04 	0.04 	-0.07 	0 	
0 	0 	0 	0 	0 	15.4651 	0 	
0 	0 	0 	0 	0.35 	8.53017 	3.62598 	4.37444e-05 	
0.00379119 	0.000947796 	0 	0.0 	 0.0 	 0.0 	 0.0 	 0.0 	 0.0 	 
ZONE T = "t = 1e-08 [s]" I = 10 SOLUTIONTIME = 1.0000000000000E-08
0 	1.15899e-09 	0.92 	0.04 	0.04 	0.0291674 	0 	
0.07 	-0.0409067 	0.110907 	30.9302 	-0 	0.834519 	29.2092 	
0 	91448.4 	916.789 	1145.99 	0.35 	8.53017 	0.195664 	4.37444e-05 	
0.00379119 	0.000947796 	-7.49579e-05 	-7495.79 	0.000300028 	0.00153636 	-7495.79 	447.909 	-7943.7 	
8.74889e-05 	3.47625e-09 	0.92 	0.04 	0.04 	0.0291674 	-4.73712e-09 	
0.07 	-0.0409067 	0.110907 	61.8605 	-0 	3.33808 	26.7057 	
0 	182897 	1833.58 	2291.97 	0.35 	17.0603 	0.195664 	8.74889e-05 	
0.00758237 	0.00189559 	-7.4958e-05 	-7495.8 	0.00150014 	0.00136625 	-7495.8 	447.91 	-7943.71 	
0.000174978 	5.79387e-09 	0.92 	0.04 	0.04 	0.0291673 	-8.91695e-09 	
0.07 	-0.0409067 	0.110907 	61.8605 	-0 	6.67616 	23.3676 	
0 	182897 	1833.58 	2291.97 	0.35 	17.0603 	0.195665 	8.74889e-05 	
0.00758237 	0.00189559 	-7.49582e-05 	-7495.82 	0.00510049 	0.00104729 	-7495.82 	447.913 	-7943.74 	
0.000262467 	8.11152e-09 	0.92 	0.04 	0.04 	0.0291672 	-1.25395e-08 	
0.07 	-0.0409067 	0.110907 	61.8605 	-0 	10.0143 	20.0295 	
0 	182897 	1833.58 	2291.97 	0.35 	17.0603 	0.195666 	8.74889e-05 	
0.00758237 	0.00189559 	-7.49586e-05 	-7495.86 	0.0111011 	0.000770859 	-7495.87 	447.919 	-7943.79 	
0.000349956 	1.04288e-08 	0.92 	0.04 	0.04 	0.0291671 	-1.56047e-08 	
0.07 	-0.0409067 	0.110907 	61.8605 	-0 	13.3524 	16.6914 	
0 	182897 	1833.58 	2291.97 	0.35 	17.0603 	0.195668 	8.74889e-05 	
0.00758237 	0.00189559 	-7.49592e-05 	-7495.92 	0.0195021 	0.000536951 	-7495.94 	447.927 	-7943.86 	
0.000437444 	1.27465e-08 	0.92 	0.04 	0.04 	0.029167 	-1.81127e-08 	
0.07 	-0.0409067 	0.110907 	61.8605 	-0 	16.6906 	13.3532 	
0 	182897 	1833.58 	2291.97 	0.35 	17.0603 	0.195671 	8.74889e-05 	
0.00758237 	0.00189559 	-7.49599e-05 	-7495.99 	0.0303035 	0.000345568 	-7496.02 	447.938 	-7943.96 	
0.000524933 	1.50642e-08 	0.92 	0.04 	0.04 	0.0291668 	-2.00633e-08 	
0.07 	-0.0409067 	0.110907 	61.8605 	-0 	20.0288 	10.015 	
0 	182897 	1833.58 	2291.97 	0.35 	17.0603 	0.195674 	8.74889e-05 	
0.00758237 	0.00189559 	-7.49608e-05 	-7496.08 	0.0435054 	0.000196711 	-7496.13 	447.951 	-7944.08 	
0.000612422 	1.73816e-08 	0.92 	0.04 	0.04 	0.0291666 	-2.14567e-08 	
0.07 	-0.0409067 	0.110907 	61.8605 	-0 	23.367 	6.67673 	
0 	182897 	1833.58 	2291.97 	0.35 	17.0603 	0.195677 	8.74889e-05 	
0.00758237 	0.00189559 	-7.49619e-05 	-7496.19 	0.059108 	9.03826e-05 	-7496.25 	447.967 	-7944.22 	
0.000699911 	1.96991e-08 	0.92 	0.04 	0.04 	0.0291664 	-2.22927e-08 	
0.07 	-0.0409067 	0.110907 	61.8605 	-0 	26.7054 	3.3384 	
0 	182897 	1833.58 	2291.97 	0.35 	17.0603 	0.195681 	8.74889e-05 	
0.00758237 	0.00189559 	-7.49632e-05 	-7496.32 	0.0771115 	2.65837e-05 	-7496.39 	447.985 	-7944.38 	
0.0007874 	2.08588e-08 	0.92 	0.04 	0.04 	0.0291661 	-2.25714e-08 	
0.07 	-0.0409067 	0.110907 	30.9302 	-0 	29.2092 	0.83461 	
0 	91448.4 	916.789 	1145.99 	0.35 	8.53017 	0.195686 	4.37444e-05 	
0.00379119 	0.000947796 	-7.49647e-05 	-7496.47 	0.0867135 	5.31688e-06 	-7496.56 	448.006 	-7944.56 	
ZONE T = "t = 2e-08 [s]" I = 10 SOLUTIONTIME = 2.0000000000000E-08
0 	1.159e-09 	0.92 	0.04 	0.04 	0.0291674 	0 	
-0.0291674 	-0.0409067 	0.0117393 	1.66905 	8.64918e-09 	0.834524 	29.2094 	
4.18314e-11 	91448.4 	916.789 	1145.99 	0.35 	8.53017 	0.195664 	4.37444e-05 	
0.00379119 	0.000947796 	-0.000149916 	-7495.79 	0.00060006 	0.00307274 	-7495.79 	447.909 	-7943.7 	
8.74889e-05 	3.47699e-09 	0.92 	0.04 	0.04 	0.0291674 	-4.73715e-09 	
-0.0291674 	-0.0409067 	0.0117394 	3.3381 	2.59476e-08 	3.3381 	26.7059 	
8.36628e-11 	182897 	1833.58 	2291.97 	0.35 	17.0603 	0.195664 	8.74889e-05 	
0.00758237 	0.00189559 	-0.000149916 	-7495.79 	0.0030003 	0.00273252 	-7495.8 	447.91 	-7943.71 	
0.000174978 	5.795e-09 	0.92 	0.04 	0.04 	0.0291673 	-8.91701e-09 	
-0.0291673 	-0.0409067 	0.0117394 	3.33811 	4.3246e-08 	6.67621 	23.3677 	
8.36631e-11 	182897 	1833.58 	2291.97 	0.35 	17.0603 	0.195665 	8.74889e-05 	
0.00758237 	0.00189559 	-0.000149916 	-7495.82 	0.010201 	0.0020946 	-7495.82 	447.913 	-7943.74 	
0.000262467 	8.11302e-09 	0.92 	0.04 	0.04 	0.0291672 	-1.25396e-08 	
-0.0291672 	-0.0409067 	0.0117395 	3.33814 	6.05446e-08 	10.0143 	20.0296 	
8.36637e-11 	182897 	1833.58 	2291.97 	0.35 	17.0603 	0.195666 	8.74889e-05 	
0.00758237 	0.00189559 	-0.000149917 	-7495.86 	0.0222024 	0.00154173 	-7495.87 	447.919 	-7943.79 	
0.000349956 	1.04311e-08 	0.92 	0.04 	0.04 	0.0291671 	-1.56048e-08 	
-0.0291671 	-0.0409067 	0.0117396 	3.33817 	7.78433e-08 	13.3525 	16.6915 	
8.36645e-11 	182897 	1833.58 	2291.97 	0.35 	17.0603 	0.195668 	8.74889e-05 	
0.00758237 	0.00189559 	-0.000149918 	-7495.91 	0.0390044 	0.00107391 	-7495.93 	447.927 	-7943.86 	
0.000437444 	1.27491e-08 	0.92 	0.04 	0.04 	0.029167 	-1.81128e-08 	
-0.029167 	-0.0409067 	0.0117397 	3.33821 	9.51422e-08 	16.6907 	13.3533 	
8.36655e-11 	182897 	1833.58 	2291.97 	0.35 	17.0603 	0.195671 	8.74889e-05 	
0.00758237 	0.00189559 	-0.00014992 	-7495.99 	0.0606073 	0.00069114 	-7496.02 	447.938 	-7943.96 	
0.000524933 	1.50672e-08 	0.92 	0.04 	0.04 	0.0291668 	-2.00635e-08 	
-0.0291668 	-0.0409067 	0.0117399 	3.33826 	1.12441e-07 	20.0289 	10.0151 	
8.36667e-11 	182897 	1833.58 	2291.97 	0.35 	17.0603 	0.195674 	8.74889e-05 	
0.00758237 	0.00189559 	-0.000149922 	-7496.08 	0.0870114 	0.000393425 	-7496.12 	447.951 	-7944.07 	
0.000612422 	1.73854e-08 	0.92 	0.04 	0.04 	0.0291666 	-2.14568e-08 	
-0.0291666 	-0.0409067 	0.0117401 	3.33832 	1.29741e-07 	23.3672 	6.67677 	
8.36682e-11 	182897 	1833.58 	2291.97 	0.35 	17.0603 	0.195677 	8.74889e-05 	
0.00758237 	0.00189559 	-0.000149924 	-7496.19 	0.118217 	0.000180766 	-7496.25 	447.967 	-7944.21 	
0.000699911 	1.97036e-08 	0.92 	0.04 	0.04 	0.0291664 	-2.22928e-08 	
-0.0291664 	-0.0409067 	0.0117403 	3.33838 	1.47041e-07 	26.7055 	3.33842 	
8.36699e-11 	182897 	1833.58 	2291.97 	0.35 	17.0603 	0.195681 	8.74889e-05 	
0.00758237 	0.00189559 	-0.000149926 	-7496.31 	0.154224 	5.31676e-05 	-7496.39 	447.985 	-7944.38 	
0.0007874 	2.08632e-08 	0.92 	0.04 	0.04 	0.0291661 	-2.25715e-08 	
-0.0291661 	-0.0409067 	0.0117406 	1.66923 	1.47041e-07 	29.2093 	0.834615 	
4.18359e-11 	91448.4 	916.789 	1145.99 	0.35 	8.53017 	0.195685 	4.37444e-05 	
0.00379119 	0.000947796 	-0.000149929 	-7496.47 	0.173428 	1.06338e-05 	-7496.56 	448.005 	-7944.56 	
ZONE T = "t = 3e-08 [s]" I = 10 SOLUTIONTIME = 3.0000000000000E-08
0 	1.159e-09 	0.92 	0.04 	0.04 	0.0291674 	0 	
-0.0291674 	-0.0409067 	0.0117393 	1.66905 	8.64924e-09 	0.834524 	29.2094 	
8.36627e-11 	91448.4 	916.789 	1145.99 	0.35 	8.53017 	0.195664 	4.37444e-05 	
0.00379119 	0.000947796 	-0.000224874 	-7495.79 	0.000900091 	0.00460912 	-7495.79 	447.909 	-7943.7 	
8.74889e-05 	3.47699e-09 	0.92 	0.04 	0.04 	0.0291674 	-4.73715e-09 	
-0.0291674 	-0.0409067 	0.0117394 	3.3381 	2.59477e-08 	3.3381 	26.7059 	
1.67326e-10 	182897 	1833.58 	2291.97 	0.35 	17.0603 	0.195664 	8.74889e-05 	
0.00758237 	0.00189559 	-0.000224874 	-7495.79 	0.00450046 	0.00409879 	-7495.8 	447.91 	-7943.71 	
0.000174978 	5.795e-09 	0.92 	0.04 	0.04 	0.0291673 	-8.91701e-09 	
-0.0291673 	-0.0409067 	0.0117394 	3.33811 	4.32463e-08 	6.67621 	23.3677 	
1.67326e-10 	182897 	1833.58 	2291.97 	0.35 	17.0603 	0.195665 	8.74889e-05 	
0.00758237 	0.00189559 	-0.000224875 	-7495.82 	0.0153016 	0.0031419 	-7495.82 	447.913 	-7943.74 	
0.000262467 	8.11302e-09 	0.92 	0.04 	0.04 	0.0291672 	-1.25396e-08 	
-0.0291672 	-0.0409067 	0.0117395 	3.33813 	6.05449e-08 	10.0143 	20.0296 	
1.67327e-10 	182897 	1833.58 	2291.97 	0.35 	17.0603 	0.195666 	8.74889e-05 	
0.00758237 	0.00189559 	-0.000224876 	-7495.86 	0.0333036 	0.0023126 	-7495.87 	447.919 	-7943.79 	
0.000349956 	1.04311e-08 	0.92 	0.04 	0.04 	0.0291671 	-1.56048e-08 	
-0.0291671 	-0.0409067 	0.0117396 	3.33817 	7.78438e-08 	13.3525 	16.6915 	
1.67329e-10 	182897 	1833.58 	2291.97 	0.35 	17.0603 	0.195668 	8.74889e-05 	
0.00758237 	0.00189559 	-0.000224877 	-7495.91 	0.0585067 	0.00161087 	-7495.93 	447.927 	-7943.86 	
0.000437444 	1.27491e-08 	0.92 	0.04 	0.04 	0.029167 	-1.81128e-08 	
-0.029167 	-0.0409067 	0.0117397 	3.33821 	9.51428e-08 	16.6907 	13.3533 	
1.67331e-10 	182897 	1833.58 	2291.97 	0.35 	17.0603 	0.195671 	8.74889e-05 	
0.00758237 	0.00189559 	-0.00022488 	-7495.99 	0.0909112 	0.00103671 	-7496.02 	447.938 	-7943.96 	
0.000524933 	1.50672e-08 	0.92 	0.04 	0.04 	0.0291668 	-2.00635e-08 	
-0.0291668 	-0.0409067 	0.0117399 	3.33826 	1.12442e-07 	20.0289 	10.0151 	
1.67333e-10 	182897 	1833.58 	2291.97 	0.35 	17.0603 	0.195674 	8.74889e-05 	
0.00758237 	0.00189559 	-0.000224882 	-7496.08 	0.130517 	0.000590139 	-7496.12 	447.951 	-7944.07 	
0.000612422 	1.73861e-08 	0.92 	0.04 	0.04 	0.0291666 	-2.14568e-08 	
-0.0291666 	-0.0409067 	0.0117401 	3.33831 	1.29742e-07 	23.3672 	6.67677 	
1.67336e-10 	182897 	1833.58 	2291.97 	0.35 	17.0603 	0.195677 	8.74889e-05 	
0.00758237 	0.00189559 	-0.000224886 	-7496.19 	0.177326 	0.00027115 	-7496.25 	447.967 	-7944.21 	
0.000699911 	1.9705e-08 	0.92 	0.04 	0.04 	0.0291664 	-2.22928e-08 	
-0.0291664 	-0.0409067 	0.0117403 	3.33838 	1.47042e-07 	26.7055 	3.33842 	
1.6734e-10 	182897 	1833.58 	2291.97 	0.35 	17.0603 	0.195681 	8.74889e-05 	
0.00758237 	0.00189559 	-0.000224889 	-7496.31 	0.231337 	7.97516e-05 	-7496.39 	447.985 	-7944.38 	
0.0007874 	2.08636e-08 	0.92 	0.04 	0.04 	0.0291661 	-2.25715e-08 	
-0.0291661 	-0.0409067 	0.0117406 	1.66923 	1.47042e-07 	29.2093 	0.834615 	
8.36718e-11 	91448.4 	916.789 	1145.99 	0.35 	8.53017 	0.195685 	4.37444e-05 	
0.00379119 	0.000947796 	-0.000224894 	-7496.47 	0.260143 	1.59508e-05 	-7496.56 	448.005 	-7944.56 	
ZONE T = "t = 4e-08 [s]" I = 10 SOLUTIONTIME = 4.0000000000000E-08
0 	1.15918e-09 	0.92 	0.04 	0.04 	0.0291674 	0 	
-0.0291674 	-0.0409067 	0.0117393 	1.66905 	8.64924e-09 	0.834524 	29.2094 	
1.25494e-10 	91448.4 	916.789 	1145.99 	0.35 	8.53017 	0.195664 	4.37444e-05 	
0.00379119 	0.000947796 	-0.000299832 	-7495.79 	0.00120012 	0.0061455 	-7495.79 	447.909 	-7943.7 	
8.74889e-05 	3.47681e-09 	0.92 	0.04 	0.04 	0.0291674 	-4.73715e-09 	
-0.0291674 	-0.0409067 	0.0117394 	3.3381 	2.59477e-08 	3.3381 	26.7059 	
2.50988e-10 	182897 	1833.58 	2291.97 	0.35 	17.0603 	0.195664 	8.74889e-05 	
0.00758237 	0.00189559 	-0.000299832 	-7495.79 	0.00600062 	0.00546505 	-7495.8 	447.91 	-7943.71 	
0.000174978 	5.79409e-09 	0.92 	0.04 	0.04 	0.0291673 	-8.91701e-09 	
-0.0291673 	-0.0409067 	0.0117394 	3.33811 	4.32463e-08 	6.67621 	23.3677 	
2.50989e-10 	182897 	1833.58 	2291.97 	0.35 	17.0603 	0.195665 	8.74889e-05 	
0.00758237 	0.00189559 	-0.000299833 	-7495.82 	0.0204022 	0.00418921 	-7495.82 	447.913 	-7943.74 	
0.000262467 	8.11248e-09 	0.92 	0.04 	0.04 	0.0291672 	-1.25396e-08 	
-0.0291672 	-0.0409067 	0.0117395 	3.33813 	6.05449e-08 	10.0143 	20.0296 	
2.50991e-10 	182897 	1833.58 	2291.97 	0.35 	17.0603 	0.195666 	8.74889e-05 	
0.00758237 	0.00189559 	-0.000299834 	-7495.86 	0.0444049 	0.00308347 	-7495.87 	447.919 	-7943.79 	
0.000349956 	1.04302e-08 	0.92 	0.04 	0.04 	0.0291671 	-1.56048e-08 	
-0.0291671 	-0.0409067 	0.0117396 	3.33817 	7.78438e-08 	13.3525 	16.6915 	
2.50993e-10 	182897 	1833.58 	2291.97 	0.35 	17.0603 	0.195668 	8.74889e-05 	
0.00758237 	0.00189559 	-0.000299837 	-7495.91 	0.0780091 	0.00214782 	-7495.93 	447.927 	-7943.86 	
0.000437444 	1.27475e-08 	0.92 	0.04 	0.04 	0.029167 	-1.81128e-08 	
-0.029167 	-0.0409067 	0.0117397 	3.33821 	9.51428e-08 	16.6907 	13.3533 	
2.50996e-10 	182897 	1833.58 	2291.97 	0.35 	17.0603 	0.195671 	8.74889e-05 	
0.00758237 	0.00189559 	-0.00029984 	-7495.99 	0.121215 	0.00138229 	-7496.02 	447.938 	-7943.96 	
0.000524933 	1.50656e-08 	0.92 	0.04 	0.04 	0.0291668 	-2.00635e-08 	
-0.0291668 	-0.0409067 	0.0117399 	3.33826 	1.12442e-07 	20.0289 	10.0151 	
2.51e-10 	182897 	1833.58 	2291.97 	0.35 	17.0603 	0.195674 	8.74889e-05 	
0.00758237 	0.00189559 	-0.000299843 	-7496.08 	0.174023 	0.000786853 	-7496.12 	447.951 	-7944.07 	
0.000612422 	1.73838e-08 	0.92 	0.04 	0.04 	0.0291666 	-2.14568e-08 	
-0.0291666 	-0.0409067 	0.0117401 	3.33831 	1.29742e-07 	23.3672 	6.67677 	
2.51005e-10 	182897 	1833.58 	2291.97 	0.35 	17.0603 	0.195677 	8.74889e-05 	
0.00758237 	0.00189559 	-0.000299848 	-7496.19 	0.236434 	0.000361534 	-7496.25 	447.967 	-7944.21 	
0.000699911 	1.97019e-08 	0.92 	0.04 	0.04 	0.0291664 	-2.22928e-08 	
-0.0291664 	-0.0409067 	0.0117403 	3.33838 	1.47042e-07 	26.7055 	3.33842 	
2.5101e-10 	182897 	1833.58 	2291.97 	0.35 	17.0603 	0.195681 	8.74889e-05 	
0.00758237 	0.00189559 	-0.000299853 	-7496.31 	0.308449 	0.000106336 	-7496.39 	447.985 	-7944.38 	
0.0007874 	2.08611e-08 	0.92 	0.04 	0.04 	0.0291661 	-2.25715e-08 	
-0.0291661 	-0.0409067 	0.0117406 	1.66923 	1.47042e-07 	29.2093 	0.834615 	
1.25508e-10 	91448.4 	916.789 	1145.99 	0.35 	8.53017 	0.195685 	4.37444e-05 	
0.00379119 	0.000947796 	-0.000299859 	-7496.47 	0.346857 	2.12677e-05 	-7496.56 	448.005 	-7944.56 	
ZONE T = "t = 5.5e-08 [s]" I = 10 SOLUTIONTIME = 5.5000000000000E-08
0 	1.159e-09 	0.92 	0.04 	0.04 	0.0291674 	0 	
-0.0291674 	-0.0409067 	0.0117393 	1.66905 	8.64924e-09 	0.834524 	29.2094 	
1.67325e-10 	91448.4 	916.789 	1145.99 	0.35 	8.53017 	0.195664 	4.37444e-05 	
0.00379119 	0.000947796 	-0.000412268 	-7495.79 	0.00110011 	0.00563338 	-7495.79 	447.909 	-7943.7 	
8.74889e-05 	3.47772e-09 	0.92 	0.04 	0.04 	0.0291674 	-4.73715e-09 	
-0.0291674 	-0.0409067 	0.0117394 	3.3381 	2.59477e-08 	3.3381 	26.7059 	
3.34651e-10 	182897 	1833.58 	2291.97 	0.35 	17.0603 	0.195664 	8.74889e-05 	
0.00758237 	0.00189559 	-0.000412269 	-7495.79 	0.00550057 	0.00500964 	-7495.8 	447.91 	-7943.71 	
0.000174978 	5.79645e-09 	0.92 	0.04 	0.04 	0.0291673 	-8.91701e-09 	
-0.0291673 	-0.0409067 	0.0117394 	3.33811 	4.32463e-08 	6.67621 	23.3677 	
3.34653e-10 	182897 	1833.58 	2291.97 	0.35 	17.0603 	0.195665 	8.74889e-05 	
0.00758237 	0.00189559 	-0.00041227 	-7495.82 	0.018702 	0.00384011 	-7495.82 	447.913 	-7943.74 	
0.000262467 	8.11447e-09 	0.92 	0.04 	0.04 	0.0291672 	-1.25396e-08 	
-0.0291672 	-0.0409067 	0.0117395 	3.33813 	6.05449e-08 	10.0143 	20.0296 	
3.34655e-10 	182897 	1833.58 	2291.97 	0.35 	17.0603 	0.195666 	8.74889e-05 	
0.00758237 	0.00189559 	-0.000412272 	-7495.86 	0.0407045 	0.00282651 	-7495.87 	447.919 	-7943.79 	
0.000349956 	1.04332e-08 	0.92 	0.04 	0.04 	0.0291671 	-1.56048e-08 	
-0.0291671 	-0.0409067 	0.0117396 	3.33817 	7.78438e-08 	13.3525 	16.6915 	
3.34658e-10 	182897 	1833.58 	2291.97 	0.35 	17.0603 	0.195668 	8.74889e-05 	
0.00758237 	0.00189559 	-0.000412275 	-7495.91 	0.0715084 	0.00196884 	-7495.93 	447.927 	-7943.86 	
0.000437444 	1.2752e-08 	0.92 	0.04 	0.04 	0.029167 	-1.81128e-08 	
-0.029167 	-0.0409067 	0.0117397 	3.33821 	9.51428e-08 	16.6907 	13.3533 	
3.34662e-10 	182897 	1833.58 	2291.97 	0.35 	17.0603 	0.195671 	8.74889e-05 	
0.00758237 	0.00189559 	-0.000412279 	-7495.99 	0.111114 	0.0012671 	-7496.02 	447.938 	-7943.96 	
0.000524933 	1.50701e-08 	0.92 	0.04 	0.04 	0.0291668 	-2.00635e-08 	
-0.0291668 	-0.0409067 	0.0117399 	3.33826 	1.12442e-07 	20.0289 	10.0151 	
3.34667e-10 	182897 	1833.58 	2291.97 	0.35 	17.0603 	0.195674 	8.74889e-05 	
0.00758237 	0.00189559 	-0.000412284 	-7496.08 	0.159522 	0.000721283 	-7496.12 	447.951 	-7944.07 	
0.000612422 	1.73883e-08 	0.92 	0.04 	0.04 	0.0291666 	-2.14568e-08 	
-0.0291666 	-0.0409067 	0.0117401 	3.33831 	1.29742e-07 	23.3672 	6.67677 	
3.34673e-10 	182897 	1833.58 	2291.97 	0.35 	17.0603 	0.195677 	8.74889e-05 	
0.00758237 	0.00189559 	-0.00041229 	-7496.19 	0.216732 	0.000331406 	-7496.25 	447.967 	-7944.21 	
0.000699911 	1.97067e-08 	0.92 	0.04 	0.04 	0.0291664 	-2.22928e-08 	
-0.0291664 	-0.0409067 	0.0117403 	3.33838 	1.47042e-07 	26.7055 	3.33842 	
3.3468e-10 	182897 	1833.58 	2291.97 	0.35 	17.0603 	0.195681 	8.74889e-05 	
0.00758237 	0.00189559 	-0.000412297 	-7496.31 	0.282745 	9.74744e-05 	-7496.39 	447.985 	-7944.38 	
0.0007874 	2.08654e-08 	0.92 	0.04 	0.04 	0.0291661 	-2.25715e-08 	
-0.0291661 	-0.0409067 	0.0117406 	1.66923 	1.47042e-07 	29.2093 	0.834615 	
1.67344e-10 	91448.4 	916.789 	1145.99 	0.35 	8.53017 	0.195685 	4.37444e-05 	
0.00379119 	0.000947796 	-0.000412306 	-7496.47 	0.317953 	1.94954e-05 	-7496.56 	448.005 	-7944.56 	
ZONE T = "t = 7.75e-08 [s]" I = 10 SOLUTIONTIME = 7.7500000000000E-08
0 	1.15892e-09 	0.92 	0.04 	0.04 	0.0291674 	0 	
-0.0291674 	-0.0409067 	0.0117393 	1.66905 	8.64924e-09 	0.834524 	29.2094 	
2.30073e-10 	91448.4 	916.789 	1145.99 	0.35 	8.53017 	0.195664 	4.37444e-05 	
0.00379119 	0.000947796 	-0.000580924 	-7495.79 	0.00103344 	0.00529197 	-7495.79 	447.909 	-7943.7 	
8.74889e-05 	3.47659e-09 	0.92 	0.04 	0.04 	0.0291674 	-4.73715e-09 	
-0.0291674 	-0.0409067 	0.0117394 	3.3381 	2.59477e-08 	3.3381 	26.7059 	
4.60146e-10 	182897 	1833.58 	2291.97 	0.35 	17.0603 	0.195664 	8.74889e-05 	
0.00758237 	0.00189559 	-0.000580924 	-7495.79 	0.00516721 	0.00470603 	-7495.8 	447.91 	-7943.71 	
0.000174978 	5.79444e-09 	0.92 	0.04 	0.04 	0.0291673 	-8.91701e-09 	
-0.0291673 	-0.0409067 	0.0117394 	3.33811 	4.32463e-08 	6.67621 	23.3677 	
4.60147e-10 	182897 	1833.58 	2291.97 	0.35 	17.0603 	0.195665 	8.74889e-05 	
0.00758237 	0.00189559 	-0.000580926 	-7495.82 	0.0175686 	0.00360738 	-7495.82 	447.913 	-7943.74 	
0.000262467 	8.1123e-09 	0.92 	0.04 	0.04 	0.0291672 	-1.25396e-08 	
-0.0291672 	-0.0409067 	0.0117395 	3.33813 	6.05449e-08 	10.0143 	20.0296 	
4.6015e-10 	182897 	1833.58 	2291.97 	0.35 	17.0603 	0.195666 	8.74889e-05 	
0.00758237 	0.00189559 	-0.000580929 	-7495.86 	0.0382376 	0.00265521 	-7495.87 	447.919 	-7943.79 	
0.000349956 	1.04303e-08 	0.92 	0.04 	0.04 	0.0291671 	-1.56048e-08 	
-0.0291671 	-0.0409067 	0.0117396 	3.33817 	7.78438e-08 	13.3525 	16.6915 	
4.60154e-10 	182897 	1833.58 	2291.97 	0.35 	17.0603 	0.195668 	8.74889e-05 	
0.00758237 	0.00189559 	-0.000580933 	-7495.91 	0.0671746 	0.00184952 	-7495.93 	447.927 	-7943.86 	
0.000437444 	1.27482e-08 	0.92 	0.04 	0.04 	0.029167 	-1.81128e-08 	
-0.029167 	-0.0409067 	0.0117397 	3.33821 	9.51428e-08 	16.6907 	13.3533 	
4.6016e-10 	182897 	1833.58 	2291.97 	0.35 	17.0603 	0.195671 	8.74889e-05 	
0.00758237 	0.00189559 	-0.000580939 	-7495.99 	0.10438 	0.0011903 	-7496.02 	447.938 	-7943.96 	
0.000524933 	1.50662e-08 	0.92 	0.04 	0.04 	0.0291668 	-2.00635e-08 	
-0.0291668 	-0.0409067 	0.0117399 	3.33826 	1.12442e-07 	20.0289 	10.0151 	
4.60167e-10 	182897 	1833.58 	2291.97 	0.35 	17.0603 	0.195674 	8.74889e-05 	
0.00758237 	0.00189559 	-0.000580946 	-7496.08 	0.149854 	0.000677569 	-7496.12 	447.951 	-7944.07 	
0.000612422 	1.7384e-08 	0.92 	0.04 	0.04 	0.0291666 	-2.14568e-08 	
-0.0291666 	-0.0409067 	0.0117401 	3.33831 	1.29742e-07 	23.3672 	6.67677 	
4.60175e-10 	182897 	1833.58 	2291.97 	0.35 	17.0603 	0.195677 	8.74889e-05 	
0.00758237 	0.00189559 	-0.000580955 	-7496.19 	0.203597 	0.000311321 	-7496.25 	447.967 	-7944.21 	
0.000699911 	1.97017e-08 	0.92 	0.04 	0.04 	0.0291664 	-2.22928e-08 	
-0.0291664 	-0.0409067 	0.0117403 	3.33838 	1.47042e-07 	26.7055 	3.33842 	
4.60184e-10 	182897 	1833.58 	2291.97 	0.35 	17.0603 	0.195681 	8.74889e-05 	
0.00758237 	0.00189559 	-0.000580964 	-7496.31 	0.265609 	9.15669e-05 	-7496.39 	447.985 	-7944.38 	
0.0007874 	2.08608e-08 	0.92 	0.04 	0.04 	0.0291661 	-2.25715e-08 	
-0.0291661 	-0.0409067 	0.0117406 	1.66923 	1.47042e-07 	29.2093 	0.834615 	
2.30097e-10 	91448.4 	916.789 	1145.99 	0.35 	8.53017 	0.195685 	4.37444e-05 	
0.00379119 	0.000947796 	-0.000580976 	-7496.47 	0.298683 	1.83139e-05 	-7496.56 	448.005 	-7944.56 	
ZONE T = "t = 1.1125e-07 [s]" I = 10 SOLUTIONTIME = 1.1125000000000E-07
0 	1.15905e-09 	0.92 	0.04 	0.04 	0.0291674 	0 	
-0.0291674 	-0.0409067 	0.0117393 	1.66905 	8.64924e-09 	0.834524 	29.2094 	
3.24193e-10 	91448.4 	916.789 	1145.99 	0.35 	8.53017 	0.195664 	4.37444e-05 	
0.00379119 	0.000947796 	-0.000833906 	-7495.79 	0.000988992 	0.00506436 	-7495.79 	447.909 	-7943.7 	
8.74889e-05 	3.47694e-09 	0.92 	0.04 	0.04 	0.0291674 	-4.73715e-09 	
-0.0291674 	-0.0409067 	0.0117394 	3.3381 	2.59477e-08 	3.3381 	26.7059 	
6.48387e-10 	182897 	1833.58 	2291.97 	0.35 	17.0603 	0.195664 	8.74889e-05 	
0.00758237 	0.00189559 	-0.000833907 	-7495.79 	0.00494497 	0.00450362 	-7495.8 	447.91 	-7943.71 	
0.000174978 	5.79473e-09 	0.92 	0.04 	0.04 	0.0291673 	-8.91701e-09 	
-0.0291673 	-0.0409067 	0.0117394 	3.33811 	4.32463e-08 	6.67621 	23.3677 	
6.48389e-10 	182897 	1833.58 	2291.97 	0.35 	17.0603 	0.195665 	8.74889e-05 	
0.00758237 	0.00189559 	-0.00083391 	-7495.82 	0.0168129 	0.00345223 	-7495.82 	447.913 	-7943.74 	
0.000262467 	8.11254e-09 	0.92 	0.04 	0.04 	0.0291672 	-1.25396e-08 	
-0.0291672 	-0.0409067 	0.0117395 	3.33813 	6.05449e-08 	10.0143 	20.0296 	
6.48393e-10 	182897 	1833.58 	2291.97 	0.35 	17.0603 	0.195666 	8.74889e-05 	
0.00758237 	0.00189559 	-0.000833914 	-7495.86 	0.036593 	0.00254101 	-7495.87 	447.919 	-7943.79 	
0.000349956 	1.04306e-08 	0.92 	0.04 	0.04 	0.0291671 	-1.56048e-08 	
-0.0291671 	-0.0409067 	0.0117396 	3.33817 	7.78438e-08 	13.3525 	16.6915 	
6.48399e-10 	182897 	1833.58 	2291.97 	0.35 	17.0603 	0.195668 	8.74889e-05 	
0.00758237 	0.00189559 	-0.00083392 	-7495.91 	0.0642854 	0.00176997 	-7495.93 	447.927 	-7943.86 	
0.000437444 	1.27488e-08 	0.92 	0.04 	0.04 	0.029167 	-1.81128e-08 	
-0.029167 	-0.0409067 	0.0117397 	3.33821 	9.51428e-08 	16.6907 	13.3533 	
6.48407e-10 	182897 	1833.58 	2291.97 	0.35 	17.0603 	0.195671 	8.74889e-05 	
0.00758237 	0.00189559 	-0.000833929 	-7495.99 	0.0998904 	0.00113911 	-7496.02 	447.938 	-7943.96 	
0.000524933 	1.50666e-08 	0.92 	0.04 	0.04 	0.0291668 	-2.00635e-08 	
-0.0291668 	-0.0409067 	0.0117399 	3.33826 	1.12442e-07 	20.0289 	10.0151 	
6.48417e-10 	182897 	1833.58 	2291.97 	0.35 	17.0603 	0.195674 	8.74889e-05 	
0.00758237 	0.00189559 	-0.000833939 	-7496.08 	0.143408 	0.000648427 	-7496.12 	447.951 	-7944.07 	
0.000612422 	1.7385e-08 	0.92 	0.04 	0.04 	0.0291666 	-2.14568e-08 	
-0.0291666 	-0.0409067 	0.0117401 	3.33831 	1.29742e-07 	23.3672 	6.67677 	
6.48428e-10 	182897 	1833.58 	2291.97 	0.35 	17.0603 	0.195677 	8.74889e-05 	
0.00758237 	0.00189559 	-0.000833951 	-7496.19 	0.19484 	0.000297931 	-7496.25 	447.967 	-7944.21 	
0.000699911 	1.97034e-08 	0.92 	0.04 	0.04 	0.0291664 	-2.22928e-08 	
-0.0291664 	-0.0409067 	0.0117403 	3.33838 	1.47042e-07 	26.7055 	3.33842 	
6.48442e-10 	182897 	1833.58 	2291.97 	0.35 	17.0603 	0.195681 	8.74889e-05 	
0.00758237 	0.00189559 	-0.000833965 	-7496.31 	0.254185 	8.76286e-05 	-7496.39 	447.985 	-7944.38 	
0.0007874 	2.08628e-08 	0.92 	0.04 	0.04 	0.0291661 	-2.25715e-08 	
-0.0291661 	-0.0409067 	0.0117406 	1.66923 	1.47042e-07 	29.2093 	0.834615 	
3.24228e-10 	91448.4 	916.789 	1145.99 	0.35 	8.53017 	0.195685 	4.37444e-05 	
0.00379119 	0.000947796 	-0.000833982 	-7496.47 	0.285837 	1.75262e-05 	-7496.56 	448.005 	-7944.56 	
ZONE T = "t = 1.61875e-07 [s]" I = 10 SOLUTIONTIME = 1.6187500000000E-07
0 	1.159e-09 	0.92 	0.04 	0.04 	0.0291674 	0 	
-0.0291674 	-0.0409067 	0.0117393 	1.66905 	8.64924e-09 	0.834524 	29.2094 	
4.65374e-10 	91448.4 	916.789 	1145.99 	0.35 	8.53017 	0.195664 	4.37444e-05 	
0.00379119 	0.000947796 	-0.00121338 	-7495.79 	0.00095936 	0.00491262 	-7495.79 	447.909 	-7943.7 	
8.74889e-05 	3.47721e-09 	0.92 	0.04 	0.04 	0.0291674 	-4.73715e-09 	
-0.0291674 	-0.0409067 	0.0117394 	3.3381 	2.59477e-08 	3.3381 	26.7059 	
9.30749e-10 	182897 	1833.58 	2291.97 	0.35 	17.0603 	0.195664 	8.74889e-05 	
0.00758237 	0.00189559 	-0.00121338 	-7495.79 	0.0047968 	0.00436868 	-7495.8 	447.91 	-7943.71 	
0.000174978 	5.79543e-09 	0.92 	0.04 	0.04 	0.0291673 	-8.91701e-09 	
-0.0291673 	-0.0409067 	0.0117394 	3.33811 	4.32463e-08 	6.67621 	23.3677 	
9.30752e-10 	182897 	1833.58 	2291.97 	0.35 	17.0603 	0.195665 	8.74889e-05 	
0.00758237 	0.00189559 	-0.00121339 	-7495.82 	0.0163092 	0.00334879 	-7495.82 	447.913 	-7943.74 	
0.000262467 	8.11367e-09 	0.92 	0.04 	0.04 	0.0291672 	-1.25396e-08 	
-0.0291672 	-0.0409067 	0.0117395 	3.33813 	6.05449e-08 	10.0143 	20.0296 	
9.30758e-10 	182897 	1833.58 	2291.97 	0.35 	17.0603 	0.195666 	8.74889e-05 	
0.00758237 	0.00189559 	-0.00121339 	-7495.86 	0.0354966 	0.00246488 	-7495.87 	447.919 	-7943.79 	
0.000349956 	1.0432e-08 	0.92 	0.04 	0.04 	0.0291671 	-1.56048e-08 	
-0.0291671 	-0.0409067 	0.0117396 	3.33817 	7.78438e-08 	13.3525 	16.6915 	
9.30767e-10 	182897 	1833.58 	2291.97 	0.35 	17.0603 	0.195668 	8.74889e-05 	
0.00758237 	0.00189559 	-0.0012134 	-7495.91 	0.0623593 	0.00171694 	-7495.93 	447.927 	-7943.86 	
0.000437444 	1.27501e-08 	0.92 	0.04 	0.04 	0.029167 	-1.81128e-08 	
-0.029167 	-0.0409067 	0.0117397 	3.33821 	9.51428e-08 	16.6907 	13.3533 	
9.30778e-10 	182897 	1833.58 	2291.97 	0.35 	17.0603 	0.195671 	8.74889e-05 	
0.00758237 	0.00189559 	-0.00121341 	-7495.99 	0.0968975 	0.00110498 	-7496.02 	447.938 	-7943.96 	
0.000524933 	1.50684e-08 	0.92 	0.04 	0.04 	0.0291668 	-2.00635e-08 	
-0.0291668 	-0.0409067 	0.0117399 	3.33826 	1.12442e-07 	20.0289 	10.0151 	
9.30792e-10 	182897 	1833.58 	2291.97 	0.35 	17.0603 	0.195674 	8.74889e-05 	
0.00758237 	0.00189559 	-0.00121343 	-7496.08 	0.139112 	0.000628998 	-7496.12 	447.951 	-7944.07 	
0.000612422 	1.73866e-08 	0.92 	0.04 	0.04 	0.0291666 	-2.14568e-08 	
-0.0291666 	-0.0409067 	0.0117401 	3.33831 	1.29742e-07 	23.3672 	6.67677 	
9.30808e-10 	182897 	1833.58 	2291.97 	0.35 	17.0603 	0.195677 	8.74889e-05 	