TITLE = "Solution on Domain BulkDomain1D_0"
VARIABLES = "x [m]"  
"Vel_axial" 
"MF_sp(ECDMC)" 
"MF_sp(Li+)" 
"MF_sp(PF6-)" 
"Volt(Electroly)" 
"Volt(AnodeVolt)" 
"Potential Drop Electrode-Electrolyte [V]" 
"Surf_0 Equilibrium Potential Drop Electrode-Electrolyte [V]" 
"Overpotential_0 [V]" 
"Current Source [A/m^2]" 
"Li+ flux [kmol/m^2/s]" 
"Electrolyte Current [A/m^2]" 
"Electrode Current [A/m^2]" 
"CV Capacity discharged [A-s/m^2]" 
"Depth of discharge in CV [A-s/m^2]" 
"CV Capacity remaining [A-s/m^2]" 
"Initial CV capacity [A-s/m^2]" 
"Porosity []" 
"Surface Area [m2/m2] (area per area)" 
"Specific current (per particle area) [A/m^2]" 
"Control volume thickness [m]" 
"MoleDens Li_C6-bulk [kmol/m^3]" 
"MoleDens V_C6-bulk [kmol/m^3]" 
"qHeat_accum [J/m3]" 
"qHeat_step [W/m3]" 
"Joule_Lyte [W/m3]" 
"Joule_Solid [W/m3]" 
"electrodHeat [W/m3]" 
"OverpotHeat [W/m3]" 
"deltaSHeat [W/m3]" 

ZONE T = "ANOD, 0.0000E+00", I = 10, SOLUTIONTIME = 0.000000E+00
ZONETYPE = ORDERED
DATAPACKING = BLOCK
STRANDID = 1
 0.0000000000000E+00  8.7488888888889E-05  1.7497777777778E-04  2.6246666666667E-04  3.4995555555556E-04  4.3744444444444E-04  5.2493333333333E-04  6.1242222222222E-04  6.9991111111111E-04  7.8740000000000E-04 
 0.0000000000000E+00  0.0000000000000E+00  0.0000000000000E+00  0.0000000000000E+00  0.0000000000000E+00  0.0000000000000E+00  0.0000000000000E+00  0.0000000000000E+00  0.0000000000000E+00  0.0000000000000E+00 
 9.2000000000000E-01  9.2000000000000E-01  9.2000000000000E-01  9.2000000000000E-01  9.2000000000000E-01  9.2000000000000E-01  9.2000000000000E-01  9.2000000000000E-01  9.2000000000000E-01  9.2000000000000E-01 
 4.0000000000000E-02  4.0000000000000E-02  4.0000000000000E-02  4.0000000000000E-02  4.0000000000000E-02  4.0000000000000E-02  4.0000000000000E-02  4.0000000000000E-02  4.0000000000000E-02  4.0000000000000E-02 
 4.0000000000000E-02  4.0000000000000E-02  4.0000000000000E-02  4.0000000000000E-02  4.0000000000000E-02  4.0000000000000E-02  4.0000000000000E-02  4.0000000000000E-02  4.0000000000000E-02  4.0000000000000E-02 
-7.0000000000000E-02 -7.0000000000000E-02 -7.0000000000000E-02 -7.0000000000000E-02 -7.0000000000000E-02 -7.0000000000000E-02 -7.0000000000000E-02 -7.0000000000000E-02 -7.0000000000000E-02 -7.0000000000000E-02 
 0.0000000000000E+00  0.0000000000000E+00  0.0000000000000E+00  0.0000000000000E+00  0.0000000000000E+00  0.0000000000000E+00  0.0000000000000E+00  0.0000000000000E+00  0.0000000000000E+00  0.0000000000000E+00 
 7.0000000000000E-02  7.0000000000000E-02  7.0000000000000E-02  7.0000000000000E-02  7.0000000000000E-02  7.0000000000000E-02  7.0000000000000E-02  7.0000000000000E-02  7.0000000000000E-02  7.0000000000000E-02 
-4.0906712753392E-02 -4.0906712753392E-02 -4.0906712753392E-02 -4.0906712753392E-02 -4.0906712753392E-02 -4.0906712753392E-02 -4.0906712753392E-02 -4.0906712753392E-02 -4.0906712753392E-02 -4.0906712753392E-02 
 1.1090671275339E-01  1.1090671275339E-01  1.1090671275339E-01  1.1090671275339E-01  1.1090671275339E-01  1.1090671275339E-01  1.1090671275339E-01  1.1090671275339E-01  1.1090671275339E-01  1.1090671275339E-01 
 3.0930240924008E+01  6.1860481848016E+01  6.1860481848016E+01  6.1860481848016E+01  6.1860481848016E+01  6.1860481848016E+01  6.1860481848016E+01  6.1860481848016E+01  6.1860481848016E+01  3.0930240924008E+01 
-0.0000000000000E+00 -0.0000000000000E+00 -0.0000000000000E+00 -0.0000000000000E+00 -0.0000000000000E+00 -0.0000000000000E+00 -0.0000000000000E+00 -0.0000000000000E+00 -0.0000000000000E+00 -0.0000000000000E+00 
 0.0000000000000E+00  0.0000000000000E+00  0.0000000000000E+00  0.0000000000000E+00  0.0000000000000E+00  0.0000000000000E+00  0.0000000000000E+00  0.0000000000000E+00  0.0000000000000E+00  3.0930240924008E+01 
 3.0930240924008E+01 -0.0000000000000E+00 -0.0000000000000E+00 -0.0000000000000E+00 -0.0000000000000E+00 -0.0000000000000E+00 -0.0000000000000E+00 -0.0000000000000E+00 -0.0000000000000E+00  0.0000000000000E+00 
 0.0000000000000E+00  0.0000000000000E+00  0.0000000000000E+00  0.0000000000000E+00  0.0000000000000E+00  0.0000000000000E+00  0.0000000000000E+00  0.0000000000000E+00  0.0000000000000E+00  0.0000000000000E+00 
 9.1448444543281E+04  1.8289688908656E+05  1.8289688908656E+05  1.8289688908656E+05  1.8289688908656E+05  1.8289688908656E+05  1.8289688908656E+05  1.8289688908656E+05  1.8289688908656E+05  9.1448444543281E+04 
 3.6579377817312E+05  7.3158755634625E+05  7.3158755634625E+05  7.3158755634625E+05  7.3158755634625E+05  7.3158755634625E+05  7.3158755634625E+05  7.3158755634625E+05  7.3158755634625E+05  3.6579377817312E+05 
 4.5724222271640E+05  9.1448444543281E+05  9.1448444543281E+05  9.1448444543281E+05  9.1448444543281E+05  9.1448444543281E+05  9.1448444543281E+05  9.1448444543281E+05  9.1448444543281E+05  4.5724222271640E+05 
 3.5000000000000E-01  3.5000000000000E-01  3.5000000000000E-01  3.5000000000000E-01  3.5000000000000E-01  3.5000000000000E-01  3.5000000000000E-01  3.5000000000000E-01  3.5000000000000E-01  3.5000000000000E-01 
 8.5301666666666E+00  1.7060333333333E+01  1.7060333333333E+01  1.7060333333333E+01  1.7060333333333E+01  1.7060333333333E+01  1.7060333333333E+01  1.7060333333333E+01  1.7060333333333E+01  8.5301666666666E+00 
 3.6259831879809E+00  3.6259831879809E+00  3.6259831879809E+00  3.6259831879809E+00  3.6259831879809E+00  3.6259831879809E+00  3.6259831879809E+00  3.6259831879809E+00  3.6259831879809E+00  3.6259831879809E+00 
 4.3744444444444E-05  8.7488888888889E-05  8.7488888888889E-05  8.7488888888889E-05  8.7488888888889E-05  8.7488888888889E-05  8.7488888888889E-05  8.7488888888889E-05  8.7488888888889E-05  4.3744444444444E-05 
 8.6666666666666E+01  8.6666666666666E+01  8.6666666666666E+01  8.6666666666666E+01  8.6666666666666E+01  8.6666666666666E+01  8.6666666666666E+01  8.6666666666666E+01  8.6666666666666E+01  8.6666666666666E+01 
 2.1666666666667E+01  2.1666666666667E+01  2.1666666666667E+01  2.1666666666667E+01  2.1666666666667E+01  2.1666666666667E+01  2.1666666666667E+01  2.1666666666667E+01  2.1666666666667E+01  2.1666666666667E+01 
 0.0000000000000E+00  0.0000000000000E+00  0.0000000000000E+00  0.0000000000000E+00  0.0000000000000E+00  0.0000000000000E+00  0.0000000000000E+00  0.0000000000000E+00  0.0000000000000E+00  0.0000000000000E+00 
 0.0000000000000E+00  0.0000000000000E+00  0.0000000000000E+00  0.0000000000000E+00  0.0000000000000E+00  0.0000000000000E+00  0.0000000000000E+00  0.0000000000000E+00  0.0000000000000E+00  0.0000000000000E+00 
 0.0000000000000E+00  0.0000000000000E+00  0.0000000000000E+00  0.0000000000000E+00  0.0000000000000E+00  0.0000000000000E+00  0.0000000000000E+00  0.0000000000000E+00  0.0000000000000E+00  0.0000000000000E+00 
 0.0000000000000E+00  0.0000000000000E+00  0.0000000000000E+00  0.0000000000000E+00  0.0000000000000E+00  0.0000000000000E+00  0.0000000000000E+00  0.0000000000000E+00  0.0000000000000E+00  0.0000000000000E+00 
 0.0000000000000E+00  0.0000000000000E+00  0.0000000000000E+00  0.0000000000000E+00  0.0000000000000E+00  0.0000000000000E+00  0.0000000000000E+00  0.0000000000000E+00  0.0000000000000E+00  0.0000000000000E+00 
 0.0000000000000E+00  0.0000000000000E+00  0.0000000000000E+00  0.0000000000000E+00  0.0000000000000E+00  0.0000000000000E+00  0.0000000000000E+00  0.0000000000000E+00  0.0000000000000E+00  0.0000000000000E+00 
 0.0000000000000E+00  0.0000000000000E+00  0.0000000000000E+00  0.0000000000000E+00  0.0000000000000E+00  0.0000000000000E+00  0.0000000000000E+00  0.0000000000000E+00  0.0000000000000E+00  0.0000000000000E+00 
ZONE T = "ANOD, 1.0000E-08", I = 10, SOLUTIONTIME = 1.000000E-08
ZONETYPE = ORDERED
DATAPACKING = BLOCK
STRANDID = 1
 0.0000000000000E+00  8.7488888888889E-05  1.7497777777778E-04  2.6246666666667E-04  3.4995555555556E-04  4.3744444444444E-04  5.2493333333333E-04  6.1242222222222E-04  6.9991111111111E-04  7.8740000000000E-04 
 1.1588159139144E-09  3.4760867416792E-09  5.7937294153037E-09  8.1113871575557E-09  1.0428703191251E-08  1.2746410362458E-08  1.5064151894150E-08  1.7381571009412E-08  1.9699037346912E-08  2.0858160550055E-08 
 9.1999999999930E-01  9.1999999999930E-01  9.1999999999930E-01  9.1999999999930E-01  9.1999999999930E-01  9.1999999999930E-01  9.1999999999930E-01  9.1999999999930E-01  9.1999999999930E-01  9.1999999999971E-01 
 4.0000000000348E-02  4.0000000000348E-02  4.0000000000348E-02  4.0000000000348E-02  4.0000000000348E-02  4.0000000000348E-02  4.0000000000348E-02  4.0000000000348E-02  4.0000000000348E-02  4.0000000000144E-02 
 4.0000000000348E-02  4.0000000000348E-02  4.0000000000348E-02  4.0000000000348E-02  4.0000000000348E-02  4.0000000000348E-02  4.0000000000348E-02  4.0000000000348E-02  4.0000000000348E-02  4.0000000000144E-02 
 2.9167373666285E-02  2.9167357939099E-02  2.9167310757513E-02  2.9167232121408E-02  2.9167122030581E-02  2.9166980484739E-02  2.9166807483504E-02  2.9166603026409E-02  2.9166367112901E-02  2.9166099742339E-02 
 0.0000000000000E+00 -4.7371510661581E-09 -8.9170107927008E-09 -1.2539577102854E-08 -1.5604846373829E-08 -1.8112813436810E-08 -2.0063471576935E-08 -2.1456812533282E-08 -2.2292826498832E-08 -2.2571502120449E-08 
-2.9167373666285E-02 -2.9167362676250E-02 -2.9167319674523E-02 -2.9167244660985E-02 -2.9167137635427E-02 -2.9166998597552E-02 -2.9166827546975E-02 -2.9166624483222E-02 -2.9166389405728E-02 -2.9166122313841E-02 
-4.0906712752892E-02 -4.0906712752896E-02 -4.0906712752892E-02 -4.0906712752892E-02 -4.0906712752892E-02 -4.0906712752896E-02 -4.0906712752896E-02 -4.0906712752892E-02 -4.0906712752892E-02 -4.0906712753023E-02 
 1.1739339086607E-02  1.1739350076646E-02  1.1739393078368E-02  1.1739468091907E-02  1.1739575117465E-02  1.1739714155344E-02  1.1739885205921E-02  1.1740088269670E-02  1.1740323347164E-02  1.1740590439181E-02 
 1.6690487381885E+00  3.3381006555887E+00  3.3381130951865E+00  3.3381347952104E+00  3.3381657557295E+00  3.3382059768423E+00  3.3382554586781E+00  3.3383142013949E+00  3.3383822051796E+00  1.6692297351249E+00 
 8.6492352079907E-09  2.5947722096062E-08  4.3246273448747E-08  6.0544937256144E-08  7.7843761500196E-08  9.5142794181227E-08  1.1244208328016E-07  1.2974167679384E-07  1.4704169482977E-07  1.4704169482977E-07 
 0.0000000000000E+00  3.3380990659588E+00  6.6762059413403E+00  1.0014329886625E+01  1.3352480161925E+01  1.6690666028273E+01  2.0028896746149E+01  2.3367181576219E+01  2.6705529779478E+01  3.0043950617081E+01 
 3.0043950617127E+01  2.6705851551144E+01  2.3367744675756E+01  2.0029620730557E+01  1.6691470455087E+01  1.3353284588800E+01  1.0015053871040E+01  6.6767690410027E+00  3.3384208377150E+00  0.0000000000000E+00 
 1.6690487381885E-08  3.3381006555887E-08  3.3381130951865E-08  3.3381347952104E-08  3.3381657557295E-08  3.3382059768423E-08  3.3382554586781E-08  3.3383142013949E-08  3.3383822051796E-08  1.6692297351249E-08 
 9.1448444543298E+04  1.8289688908659E+05  1.8289688908660E+05  1.8289688908660E+05  1.8289688908660E+05  1.8289688908660E+05  1.8289688908660E+05  1.8289688908660E+05  1.8289688908660E+05  9.1448444543298E+04 
 3.6579377817311E+05  7.3158755634621E+05  7.3158755634621E+05  7.3158755634621E+05  7.3158755634621E+05  7.3158755634621E+05  7.3158755634621E+05  7.3158755634621E+05  7.3158755634621E+05  3.6579377817311E+05 
 4.5724222271640E+05  9.1448444543281E+05  9.1448444543281E+05  9.1448444543281E+05  9.1448444543281E+05  9.1448444543281E+05  9.1448444543281E+05  9.1448444543281E+05  9.1448444543281E+05  4.5724222271640E+05 
 3.5000000000000E-01  3.5000000000000E-01  3.5000000000000E-01  3.5000000000000E-01  3.5000000000000E-01  3.5000000000000E-01  3.5000000000000E-01  3.5000000000000E-01  3.5000000000000E-01  3.5000000000000E-01 
 8.5301666666666E+00  1.7060333333333E+01  1.7060333333333E+01  1.7060333333333E+01  1.7060333333333E+01  1.7060333333333E+01  1.7060333333333E+01  1.7060333333333E+01  1.7060333333333E+01  8.5301666666666E+00 
 1.9566425879000E-01  1.9566444514109E-01  1.9566517429436E-01  1.9566644625215E-01  1.9566826101851E-01  1.9567061859922E-01  1.9567351900187E-01  1.9567696223569E-01  1.9568094831165E-01  1.9568547724252E-01 
 4.3744444444444E-05  8.7488888888889E-05  8.7488888888889E-05  8.7488888888889E-05  8.7488888888889E-05  8.7488888888889E-05  8.7488888888889E-05  8.7488888888889E-05  8.7488888888889E-05  4.3744444444444E-05 
 8.6666666666662E+01  8.6666666666662E+01  8.6666666666662E+01  8.6666666666662E+01  8.6666666666662E+01  8.6666666666662E+01  8.6666666666662E+01  8.6666666666662E+01  8.6666666666662E+01  8.6666666666662E+01 
 2.1666666666671E+01  2.1666666666671E+01  2.1666666666671E+01  2.1666666666671E+01  2.1666666666671E+01  2.1666666666671E+01  2.1666666666671E+01  2.1666666666671E+01  2.1666666666671E+01  2.1666666666671E+01 
-7.4957880660773E-05 -7.4957937557490E-05 -7.4958167670537E-05 -7.4958569086377E-05 -7.4959141805374E-05 -7.4959885828039E-05 -7.4960801155069E-05 -7.4961887787292E-05 -7.4963145725685E-05 -7.4964682998379E-05 
-7.4957880660773E+03 -7.4957937557490E+03 -7.4958167670537E+03 -7.4958569086377E+03 -7.4959141805374E+03 -7.4959885828039E+03 -7.4960801155069E+03 -7.4961887787292E+03 -7.4963145725685E+03 -7.4964682998379E+03 
 3.0003168926182E-04  1.5001601605012E-03  5.1005573270295E-03  1.1101260010839E-02  1.9502331668820E-02  3.0303862395646E-02  4.3505968921212E-02  5.9108794614086E-02  7.7112509482977E-02  8.6714612127196E-02 
 1.5363802009036E-03  1.3662678589192E-03  1.0473058695218E-03  7.7086918253419E-04  5.3695786044280E-04  3.4557243764563E-04  1.9671392046750E-04  9.0383787180741E-05  2.6583988031422E-05  5.3169452711520E-06 
-7.4957899024892E+03 -7.4957966221770E+03 -7.4958229149169E+03 -7.4958687807669E+03 -7.4959342198269E+03 -7.4960192322388E+03 -7.4961238181898E+03 -7.4962479779076E+03 -7.4963917116620E+03 -7.4965550197670E+03 
 4.4790897081642E+02  4.4790981672597E+02  4.4791312660251E+02  4.4791890048327E+02  4.4792713843311E+02  4.4793784054451E+02  4.4795100693793E+02  4.4796663776129E+02  4.4798473319007E+02  4.4800529342768E+02 
-7.9436988733057E+03 -7.9437064389030E+03 -7.9437360415194E+03 -7.9437876812502E+03 -7.9438613582601E+03 -7.9439570727833E+03 -7.9440748251277E+03 -7.9442146156689E+03 -7.9443764448520E+03 -7.9445603131947E+03 
ZONE T = "ANOD, 2.0000E-08", I = 10, SOLUTIONTIME = 2.000000E-08
ZONETYPE = ORDERED
DATAPACKING = BLOCK
STRANDID = 1
 0.0000000000000E+00  8.7488888888889E-05  1.7497777777778E-04  2.6246666666667E-04  3.4995555555556E-04  4.3744444444444E-04  5.2493333333333E-04  6.1242222222222E-04  6.9991111111111E-04  7.8740000000000E-04 
 1.1589975177541E-09  3.4769947609261E-09  5.7950006422300E-09  8.1130215921614E-09  1.0431064041264E-08  1.2749134420151E-08  1.5067239159523E-08  1.7385384690192E-08  1.9703577443099E-08  2.0863245457820E-08 
 9.1999999999861E-01  9.1999999999861E-01  9.1999999999861E-01  9.1999999999861E-01  9.1999999999861E-01  9.1999999999861E-01  9.1999999999861E-01  9.1999999999861E-01  9.1999999999861E-01  9.1999999999942E-01 
 4.0000000000696E-02  4.0000000000696E-02  4.0000000000696E-02  4.0000000000696E-02  4.0000000000696E-02  4.0000000000696E-02  4.0000000000696E-02  4.0000000000696E-02  4.0000000000696E-02  4.0000000000288E-02 
 4.0000000000696E-02  4.0000000000696E-02  4.0000000000696E-02  4.0000000000696E-02  4.0000000000696E-02  4.0000000000696E-02  4.0000000000696E-02  4.0000000000696E-02  4.0000000000696E-02  4.0000000000288E-02 
 2.9167373666107E-02  2.9167357938921E-02  2.9167310757335E-02  2.9167232121230E-02  2.9167122030403E-02  2.9166980484561E-02  2.9166807483326E-02  2.9166603026231E-02  2.9166367112724E-02  2.9166099742162E-02 
 0.0000000000000E+00 -4.7371510660620E-09 -8.9170107925203E-09 -1.2539577102601E-08 -1.5604846373515E-08 -1.8112813436446E-08 -2.0063471576533E-08 -2.1456812532853E-08 -2.2292826498388E-08 -2.2571502120001E-08 
-2.9167373666107E-02 -2.9167362676073E-02 -2.9167319674346E-02 -2.9167244660807E-02 -2.9167137635249E-02 -2.9166998597375E-02 -2.9166827546798E-02 -2.9166624483044E-02 -2.9166389405550E-02 -2.9166122313664E-02 
-4.0906712752388E-02 -4.0906712752390E-02 -4.0906712752388E-02 -4.0906712752388E-02 -4.0906712752391E-02 -4.0906712752390E-02 -4.0906712752390E-02 -4.0906712752390E-02 -4.0906712752390E-02 -4.0906712752653E-02 
 1.1739339086281E-02  1.1739350076318E-02  1.1739393078043E-02  1.1739468091581E-02  1.1739575117142E-02  1.1739714155016E-02  1.1739885205593E-02  1.1740088269346E-02  1.1740323346840E-02  1.1740590438989E-02 
 1.6690487381539E+00  3.3381006555194E+00  3.3381130951174E+00  3.3381347951412E+00  3.3381657556605E+00  3.3382059767741E+00  3.3382554586094E+00  3.3383142013258E+00  3.3383822051103E+00  1.6692297351049E+00 
 8.6492352039030E-09  2.5947722098543E-08  4.3246273447215E-08  6.0544937250253E-08  7.7843761499305E-08  9.5142794177553E-08  1.1244208327507E-07  1.2974167679116E-07  1.4704176694254E-07  1.4704176694254E-07 
 0.0000000000000E+00  3.3380990658038E+00  6.6762059412144E+00  1.0014329886344E+01  1.3352480161857E+01  1.6690666028050E+01  2.0028896745587E+01  2.3367181575686E+01  2.6705529778938E+01  3.0043950616499E+01 
 3.0043950616517E+01  2.6705851550603E+01  2.3367744675285E+01  2.0029620730156E+01  1.6691470454755E+01  1.3353284588537E+01  1.0015053870846E+01  6.6767690408781E+00  3.3384208376601E+00  0.0000000000000E+00 
 3.3380974763423E-08  6.6762013111082E-08  6.6762261903039E-08  6.6762695903516E-08  6.6763315113900E-08  6.6764119536164E-08  6.6765109172876E-08  6.6766284027206E-08  6.6767644102899E-08  3.3384594702298E-08 
 9.1448444543314E+04  1.8289688908663E+05  1.8289688908663E+05  1.8289688908663E+05  1.8289688908663E+05  1.8289688908663E+05  1.8289688908663E+05  1.8289688908663E+05  1.8289688908663E+05  9.1448444543314E+04 
 3.6579377817309E+05  7.3158755634618E+05  7.3158755634618E+05  7.3158755634618E+05  7.3158755634618E+05  7.3158755634618E+05  7.3158755634618E+05  7.3158755634618E+05  7.3158755634618E+05  3.6579377817309E+05 
 4.5724222271640E+05  9.1448444543281E+05  9.1448444543281E+05  9.1448444543281E+05  9.1448444543281E+05  9.1448444543281E+05  9.1448444543281E+05  9.1448444543281E+05  9.1448444543281E+05  4.5724222271640E+05 
 3.5000000000000E-01  3.5000000000000E-01  3.5000000000000E-01  3.5000000000000E-01  3.5000000000000E-01  3.5000000000000E-01  3.5000000000000E-01  3.5000000000000E-01  3.5000000000000E-01  3.5000000000000E-01 
 8.5301666666666E+00  1.7060333333333E+01  1.7060333333333E+01  1.7060333333333E+01  1.7060333333333E+01  1.7060333333333E+01  1.7060333333333E+01  1.7060333333333E+01  1.7060333333333E+01  8.5301666666666E+00 
 1.9566425878594E-01  1.9566444513703E-01  1.9566517429031E-01  1.9566644624809E-01  1.9566826101447E-01  1.9567061859523E-01  1.9567351899784E-01  1.9567696223164E-01  1.9568094830759E-01  1.9568547724018E-01 
 4.3744444444444E-05  8.7488888888889E-05  8.7488888888889E-05  8.7488888888889E-05  8.7488888888889E-05  8.7488888888889E-05  8.7488888888889E-05  8.7488888888889E-05  8.7488888888889E-05  4.3744444444444E-05 
 8.6666666666658E+01  8.6666666666658E+01  8.6666666666658E+01  8.6666666666658E+01  8.6666666666658E+01  8.6666666666658E+01  8.6666666666658E+01  8.6666666666658E+01  8.6666666666658E+01  8.6666666666658E+01 
 2.1666666666674E+01  2.1666666666674E+01  2.1666666666674E+01  2.1666666666674E+01  2.1666666666674E+01  2.1666666666674E+01  2.1666666666674E+01  2.1666666666674E+01  2.1666666666674E+01  2.1666666666674E+01 
-1.4991576132002E-04 -1.4991587511345E-04 -1.4991633533955E-04 -1.4991713817123E-04 -1.4991828360923E-04 -1.4991977165458E-04 -1.4992160230863E-04 -1.4992377557306E-04 -1.4992629144985E-04 -1.4992936599589E-04 
-7.4957880659251E+03 -7.4957937555965E+03 -7.4958167669014E+03 -7.4958569084854E+03 -7.4959141803855E+03 -7.4959885826537E+03 -7.4960801153557E+03 -7.4961887785771E+03 -7.4963145724160E+03 -7.4964682997515E+03 
 6.0006337839387E-04  3.0003203209494E-03  1.0201114653773E-02  2.2202520020979E-02  3.9004663337346E-02  6.0607724790100E-02  8.7011937839627E-02  1.1821758922498E-01  1.5422501896228E-01  1.7342922425042E-01 
 3.0727604017449E-03  2.7325357177830E-03  2.0946117390013E-03  1.5417383650375E-03  1.0739157208642E-03  6.9114487527765E-04  3.9342784092737E-04  1.8076757435808E-04  5.3167976061923E-05  1.0633890542176E-05 
-7.4957899023370E+03 -7.4957966220245E+03 -7.4958229147646E+03 -7.4958687806146E+03 -7.4959342196750E+03 -7.4960192320885E+03 -7.4961238180385E+03 -7.4962479777555E+03 -7.4963917115095E+03 -7.4965550196806E+03 
 4.4790897079465E+02  4.4790981670419E+02  4.4791312658074E+02  4.4791890046150E+02  4.4792713841140E+02  4.4793784052302E+02  4.4795100691629E+02  4.4796663773954E+02  4.4798473316829E+02  4.4800529341486E+02 
-7.9436988731316E+03 -7.9437064387287E+03 -7.9437360413454E+03 -7.9437876810762E+03 -7.9438613580864E+03 -7.9439570726116E+03 -7.9440748249548E+03 -7.9442146154950E+03 -7.9443764446778E+03 -7.9445603130955E+03 
ZONE T = "ANOD, 3.0000E-08", I = 10, SOLUTIONTIME = 3.000000E-08
ZONETYPE = ORDERED
DATAPACKING = BLOCK
STRANDID = 1
 0.0000000000000E+00  8.7488888888889E-05  1.7497777777778E-04  2.6246666666667E-04  3.4995555555556E-04  4.3744444444444E-04  5.2493333333333E-04  6.1242222222222E-04  6.9991111111111E-04  7.8740000000000E-04 
 1.1589975177340E-09  3.4769947608662E-09  5.7950006421298E-09  8.1130215920209E-09  1.0431064041084E-08  1.2749134419931E-08  1.5067239159263E-08  1.7386111105347E-08  1.9705030273670E-08  2.0863608665198E-08 
 9.1999999999791E-01  9.1999999999791E-01  9.1999999999791E-01  9.1999999999791E-01  9.1999999999791E-01  9.1999999999791E-01  9.1999999999791E-01  9.1999999999791E-01  9.1999999999791E-01  9.1999999999914E-01 
 4.0000000001045E-02  4.0000000001045E-02  4.0000000001045E-02  4.0000000001045E-02  4.0000000001045E-02  4.0000000001045E-02  4.0000000001045E-02  4.0000000001045E-02  4.0000000001045E-02  4.0000000000432E-02 
 4.0000000001045E-02  4.0000000001045E-02  4.0000000001045E-02  4.0000000001045E-02  4.0000000001045E-02  4.0000000001045E-02  4.0000000001045E-02  4.0000000001045E-02  4.0000000001045E-02  4.0000000000432E-02 
 2.9167373665896E-02  2.9167357938710E-02  2.9167310757124E-02  2.9167232121019E-02  2.9167122030192E-02  2.9166980484350E-02  2.9166807483115E-02  2.9166603026020E-02  2.9166367112512E-02  2.9166099741950E-02 
 0.0000000000000E+00 -4.7371510659828E-09 -8.9170107923714E-09 -1.2539577102392E-08 -1.5604846373256E-08 -1.8112813436146E-08 -2.0063471576202E-08 -2.1456812532500E-08 -2.2292826498024E-08 -2.2571502119635E-08 
-2.9167373665896E-02 -2.9167362675861E-02 -2.9167319674135E-02 -2.9167244660596E-02 -2.9167137635038E-02 -2.9166998597164E-02 -2.9166827546587E-02 -2.9166624482833E-02 -2.9166389405339E-02 -2.9166122313453E-02 
-4.0906712751892E-02 -4.0906712751891E-02 -4.0906712751892E-02 -4.0906712751892E-02 -4.0906712751890E-02 -4.0906712751894E-02 -4.0906712751893E-02 -4.0906712751894E-02 -4.0906712751894E-02 -4.0906712752287E-02 
 1.1739339085996E-02  1.1739350076030E-02  1.1739393077757E-02  1.1739468091296E-02  1.1739575116852E-02  1.1739714154731E-02  1.1739885205307E-02  1.1740088269062E-02  1.1740323346555E-02  1.1740590438834E-02 
 1.6690487381249E+00  3.3381006554622E+00  3.3381130950594E+00  3.3381347950833E+00  3.3381657556031E+00  3.3382059767163E+00  3.3382554585518E+00  3.3383142012684E+00  3.3383822050531E+00  1.6692297350909E+00 
 8.6492352058863E-09  2.5947722098768E-08  4.3246273445684E-08  6.0544937245048E-08  7.7843761501898E-08  9.5142794171963E-08  1.1244208327223E-07  1.2974167678621E-07  1.4704183905913E-07  1.4704183905913E-07 
 0.0000000000000E+00  3.3380990660169E+00  6.6762059410884E+00  1.0014329886063E+01  1.3352480161605E+01  1.6690666027827E+01  2.0028896745209E+01  2.3367181575153E+01  2.6705529778398E+01  3.0043950615923E+01 
 3.0043950616013E+01  2.6705851550157E+01  2.3367744674897E+01  2.0029620729825E+01  1.6691470454482E+01  1.3353284588322E+01  1.0015053870688E+01  6.6767690407782E+00  3.3384208376174E+00  0.0000000000000E+00 
 5.0071462144672E-08  1.0014301966570E-07  1.0014339285363E-07  1.0014404385435E-07  1.0014497266993E-07  1.0014617930333E-07  1.0014766375839E-07  1.0014942603989E-07  1.0015146615343E-07  5.0076892053207E-08 
 9.1448444543331E+04  1.8289688908666E+05  1.8289688908666E+05  1.8289688908666E+05  1.8289688908666E+05  1.8289688908666E+05  1.8289688908666E+05  1.8289688908666E+05  1.8289688908666E+05  9.1448444543331E+04 
 3.6579377817307E+05  7.3158755634615E+05  7.3158755634615E+05  7.3158755634615E+05  7.3158755634615E+05  7.3158755634615E+05  7.3158755634615E+05  7.3158755634615E+05  7.3158755634615E+05  3.6579377817307E+05 
 4.5724222271640E+05  9.1448444543281E+05  9.1448444543281E+05  9.1448444543281E+05  9.1448444543281E+05  9.1448444543281E+05  9.1448444543281E+05  9.1448444543281E+05  9.1448444543281E+05  4.5724222271640E+05 
 3.5000000000000E-01  3.5000000000000E-01  3.5000000000000E-01  3.5000000000000E-01  3.5000000000000E-01  3.5000000000000E-01  3.5000000000000E-01  3.5000000000000E-01  3.5000000000000E-01  3.5000000000000E-01 
 8.5301666666666E+00  1.7060333333333E+01  1.7060333333333E+01  1.7060333333333E+01  1.7060333333333E+01  1.7060333333333E+01  1.7060333333333E+01  1.7060333333333E+01  1.7060333333333E+01  8.5301666666666E+00 
 1.9566425878254E-01  1.9566444513368E-01  1.9566517428691E-01  1.9566644624470E-01  1.9566826101110E-01  1.9567061859184E-01  1.9567351899446E-01  1.9567696222827E-01  1.9568094830424E-01  1.9568547723853E-01 
 4.3744444444444E-05  8.7488888888889E-05  8.7488888888889E-05  8.7488888888889E-05  8.7488888888889E-05  8.7488888888889E-05  8.7488888888889E-05  8.7488888888889E-05  8.7488888888889E-05  4.3744444444444E-05 
 8.6666666666654E+01  8.6666666666654E+01  8.6666666666654E+01  8.6666666666654E+01  8.6666666666654E+01  8.6666666666654E+01  8.6666666666654E+01  8.6666666666654E+01  8.6666666666654E+01  8.6666666666654E+01 
 2.1666666666678E+01  2.1666666666678E+01  2.1666666666678E+01  2.1666666666678E+01  2.1666666666678E+01  2.1666666666678E+01  2.1666666666678E+01  2.1666666666678E+01  2.1666666666678E+01  2.1666666666678E+01 
-2.2487364197799E-04 -2.2487381266815E-04 -2.2487450300728E-04 -2.2487570725480E-04 -2.2487742541181E-04 -2.2487965747983E-04 -2.2488240346091E-04 -2.2488566335756E-04 -2.2488943717274E-04 -2.2489404899280E-04 
-7.4957880657967E+03 -7.4957937554696E+03 -7.4958167667730E+03 -7.4958569083571E+03 -7.4959141802583E+03 -7.4959885825256E+03 -7.4960801152279E+03 -7.4961887784499E+03 -7.4963145722892E+03 -7.4964682996901E+03 
 9.0009506766092E-04  4.5004804814767E-03  1.5301671980229E-02  3.3303780030423E-02  5.8506995004983E-02  9.0911587183494E-02  1.3051790675597E-01  1.7732638383268E-01  2.3133752843790E-01  2.6014383636969E-01 
 4.6091406025348E-03  4.0988035766012E-03  3.1419176084461E-03  2.3126075475153E-03  1.6108735812681E-03  1.0367173128985E-03  5.9014176138105E-04  2.7115136153270E-04  7.9751964091697E-05  1.5950835813110E-05 
-7.4957899022086E+03 -7.4957966218976E+03 -7.4958229146362E+03 -7.4958687804862E+03 -7.4959342195478E+03 -7.4960192319604E+03 -7.4961238179107E+03 -7.4962479776283E+03 -7.4963917113827E+03 -7.4965550196192E+03 
 4.4790897077589E+02  4.4790981668563E+02  4.4791312656199E+02  4.4791890044274E+02  4.4792713839279E+02  4.4793784050430E+02  4.4795100689764E+02  4.4796663772098E+02  4.4798473314975E+02  4.4800529340519E+02 
-7.9436988729845E+03 -7.9437064385833E+03 -7.9437360411982E+03 -7.9437876809290E+03 -7.9438613579406E+03 -7.9439570724647E+03 -7.9440748248084E+03 -7.9442146153493E+03 -7.9443764445324E+03 -7.9445603130244E+03 
ZONE T = "ANOD, 4.0000E-08", I = 10, SOLUTIONTIME = 4.000000E-08
ZONETYPE = ORDERED
DATAPACKING = BLOCK
STRANDID = 1
 0.0000000000000E+00  8.7488888888889E-05  1.7497777777778E-04  2.6246666666667E-04  3.4995555555556E-04  4.3744444444444E-04  5.2493333333333E-04  6.1242222222222E-04  6.9991111111111E-04  7.8740000000000E-04 
 1.1586343099863E-09  3.4762683453496E-09  5.7935478111179E-09  8.1119319686972E-09  1.0429611209993E-08  1.2746955173344E-08  1.5065059912636E-08  1.7383205443225E-08  1.9701398196052E-08  2.0860521399162E-08 
 9.1999999999721E-01  9.1999999999721E-01  9.1999999999721E-01  9.1999999999721E-01  9.1999999999721E-01  9.1999999999721E-01  9.1999999999721E-01  9.1999999999721E-01  9.1999999999721E-01  9.1999999999885E-01 
 4.0000000001393E-02  4.0000000001393E-02  4.0000000001393E-02  4.0000000001393E-02  4.0000000001393E-02  4.0000000001393E-02  4.0000000001393E-02  4.0000000001393E-02  4.0000000001393E-02  4.0000000000576E-02 
 4.0000000001393E-02  4.0000000001393E-02  4.0000000001393E-02  4.0000000001393E-02  4.0000000001393E-02  4.0000000001393E-02  4.0000000001393E-02  4.0000000001393E-02  4.0000000001393E-02  4.0000000000576E-02 
 2.9167373665683E-02  2.9167357938498E-02  2.9167310756912E-02  2.9167232120807E-02  2.9167122029980E-02  2.9166980484138E-02  2.9166807482903E-02  2.9166603025808E-02  2.9166367112300E-02  2.9166099741738E-02 
 0.0000000000000E+00 -4.7371510659033E-09 -8.9170107922224E-09 -1.2539577102183E-08 -1.5604846372996E-08 -1.8112813435845E-08 -2.0063471575871E-08 -2.1456812532147E-08 -2.2292826497659E-08 -2.2571502119267E-08 
-2.9167373665683E-02 -2.9167362675649E-02 -2.9167319673922E-02 -2.9167244660384E-02 -2.9167137634826E-02 -2.9166998596951E-02 -2.9166827546374E-02 -2.9166624482621E-02 -2.9166389405127E-02 -2.9166122313240E-02 
-4.0906712751392E-02 -4.0906712751389E-02 -4.0906712751392E-02 -4.0906712751392E-02 -4.0906712751397E-02 -4.0906712751393E-02 -4.0906712751393E-02 -4.0906712751393E-02 -4.0906712751393E-02 -4.0906712751917E-02 
 1.1739339085708E-02  1.1739350075740E-02  1.1739393077469E-02  1.1739468091008E-02  1.1739575116571E-02  1.1739714154441E-02  1.1739885205018E-02  1.1740088268772E-02  1.1740323346266E-02  1.1740590438677E-02 
 1.6690487380963E+00  3.3381006554028E+00  3.3381130950023E+00  3.3381347950261E+00  3.3381657555458E+00  3.3382059766582E+00  3.3382554584948E+00  3.3383142012104E+00  3.3383822049951E+00  1.6692297350771E+00 