TITLE = "Solution on Domain BulkDomain1D_0"
VARIABLES = "x [m]"  
"Vel_axial(0)" 	"MF_sp(ECDMC)" 	"MF_sp(Li+)" 	"MF_sp(PF6-)" 	"Volt(Electroly)" 	"Volt(AnodeVolt)" 	
"Potential Drop Electrode-Electrolyte [V]" 	"Surf_0 Equilibrium Potential Drop Electrode-Electrolyte [V]" 	"Overpotential_0 [V]" 	"Current Source [A/m^2]" 	"Li+ flux [kmol/m^2/s]" 	"Electrolyte Current [A/m^2]" 	"Electrode Current [A/m^2]" 	
"Capacity discharged [A-s]" 	"Depth of discharge [-]" 	"Capacity remaining [A-s]" 	"Initial capacity [A-s]" 	"Porosity []" 	"Surface Area [m2/m2] (area per area)" 	"Specific current (per particle area) [A/m^2]" 	"Control volume thickness [m]" 	
"Moles Li_C6-bulk [mol/m^2] (per electrode area)" 	"Moles V_C6-bulk [mol/m^2] (per electrode area)" 	"qHeat_accum [J/m3]" 	"qHeat_step [W/m3]" 	"Joule_Lyte [W/m3]" 	"Joule_Solid [W/m3]" 	"electrodHeat [W/m3]" 	"OverpotHeat [W/m3]" 	"deltaSHeat [W/m3]" 	

ZONE T = "t = 0 [s]" I = 10 SOLUTIONTIME = 0.0000000000000E+00
0 	0 	0.92 	0.04 	0.04 	-0.07 	0 	
0 	0 	0 	0 	0 	0 	15.4651 	
0 	0 	0 	0 	0.35 	8.53017 	3.62598 	4.37444e-05 	
0.00379119 	0.000947796 	0 	0.0 	 0.0 	 0.0 	 0.0 	 0.0 	 0.0 	 
8.74889e-05 	0 	0.92 	0.04 	0.04 	-0.07 	0 	
0 	0 	0 	0 	0 	0 	-0 	
0 	0 	0 	0 	0.35 	17.0603 	3.62598 	8.74889e-05 	
0.00758237 	0.00189559 	0 	0.0 	 0.0 	 0.0 	 0.0 	 0.0 	 0.0 	 
0.000174978 	0 	0.92 	0.04 	0.04 	-0.07 	0 	
0 	0 	0 	0 	0 	0 	-0 	
0 	0 	0 	0 	0.35 	17.0603 	3.62598 	8.74889e-05 	
0.00758237 	0.00189559 	0 	0.0 	 0.0 	 0.0 	 0.0 	 0.0 	 0.0 	 
0.000262467 	0 	0.92 	0.04 	0.04 	-0.07 	0 	
0 	0 	0 	0 	0 	0 	-0 	
0 	0 	0 	0 	0.35 	17.0603 	3.62598 	8.74889e-05 	
0.00758237 	0.00189559 	0 	0.0 	 0.0 	 0.0 	 0.0 	 0.0 	 0.0 	 
0.000349956 	0 	0.92 	0.04 	0.04 	-0.07 	0 	
0 	0 	0 	0 	0 	0 	-0 	
0 	0 	0 	0 	0.35 	17.0603 	3.62598 	8.74889e-05 	
0.00758237 	0.00189559 	0 	0.0 	 0.0 	 0.0 	 0.0 	 0.0 	 0.0 	 
0.000437444 	0 	0.92 	0.04 	0.04 	-0.07 	0 	
0 	0 	0 	0 	0 	0 	-0 	
0 	0 	0 	0 	0.35 	17.0603 	3.62598 	8.74889e-05 	
0.00758237 	0.00189559 	0 	0.0 	 0.0 	 0.0 	 0.0 	 0.0 	 0.0 	 
0.000524933 	0 	0.92 	0.04 	0.04 	-0.07 	0 	
0 	0 	0 	0 	0 	0 	-0 	
0 	0 	0 	0 	0.35 	17.0603 	3.62598 	8.74889e-05 	
0.00758237 	0.00189559 	0 	0.0 	 0.0 	 0.0 	 0.0 	 0.0 	 0.0 	 
0.000612422 	0 	0.92 	0.04 	0.04 	-0.07 	0 	
0 	0 	0 	0 	0 	0 	-0 	
0 	0 	0 	0 	0.35 	17.0603 	3.62598 	8.74889e-05 	
0.00758237 	0.00189559 	0 	0.0 	 0.0 	 0.0 	 0.0 	 0.0 	 0.0 	 
0.000699911 	0 	0.92 	0.04 	0.04 	-0.07 	0 	
0 	0 	0 	0 	0 	0 	-0 	
0 	0 	0 	0 	0.35 	17.0603 	3.62598 	8.74889e-05 	
0.00758237 	0.00189559 	0 	0.0 	 0.0 	 0.0 	 0.0 	 0.0 	 0.0 	 
0.0007874 	0 	0.92 	0.04 	0.04 	-0.07 	0 	
0 	0 	0 	0 	0 	15.4651 	0 	
0 	0 	0 	0 	0.35 	8.53017 	3.62598 	4.37444e-05 	
0.00379119 	0.000947796 	0 	0.0 	 0.0 	 0.0 	 0.0 	 0.0 	 0.0 	 
ZONE T = "t = 0 [s]" I = 10 SOLUTIONTIME = 0.0000000000000E+00
0 	0 	0.92 	0.04 	0.04 	-0.07 	0 	
0 	0 	0 	0 	0 	0 	15.4651 	
0 	0 	0 	0 	0.35 	8.53017 	3.62598 	4.37444e-05 	
0.00379119 	0.000947796 	0 	0.0 	 0.0 	 0.0 	 0.0 	 0.0 	 0.0 	 
8.74889e-05 	0 	0.92 	0.04 	0.04 	-0.07 	0 	
0 	0 	0 	0 	0 	0 	-0 	
0 	0 	0 	0 	0.35 	17.0603 	3.62598 	8.74889e-05 	
0.00758237 	0.00189559 	0 	0.0 	 0.0 	 0.0 	 0.0 	 0.0 	 0.0 	 
0.000174978 	0 	0.92 	0.04 	0.04 	-0.07 	0 	
0 	0 	0 	0 	0 	0 	-0 	
0 	0 	0 	0 	0.35 	17.0603 	3.62598 	8.74889e-05 	
0.00758237 	0.00189559 	0 	0.0 	 0.0 	 0.0 	 0.0 	 0.0 	 0.0 	 
0.000262467 	0 	0.92 	0.04 	0.04 	-0.07 	0 	
0 	0 	0 	0 	0 	0 	-0 	
0 	0 	0 	0 	0.35 	17.0603 	3.62598 	8.74889e-05 	
0.00758237 	0.00189559 	0 	0.0 	 0.0 	 0.0 	 0.0 	 0.0 	 0.0 	 
0.000349956 	0 	0.92 	0.04 	0.04 	-0.07 	0 	
0 	0 	0 	0 	0 	0 	-0 	
0 	0 	0 	0 	0.35 	17.0603 	3.62598 	8.74889e-05 	
0.00758237 	0.00189559 	0 	0.0 	 0.0 	 0.0 	 0.0 	 0.0 	 0.0 	 
0.000437444 	0 	0.92 	0.04 	0.04 	-0.07 	0 	
0 	0 	0 	0 	0 	0 	-0 	
0 	0 	0 	0 	0.35 	17.0603 	3.62598 	8.74889e-05 	
0.00758237 	0.00189559 	0 	0.0 	 0.0 	 0.0 	 0.0 	 0.0 	 0.0 	 
0.000524933 	0 	0.92 	0.04 	0.04 	-0.07 	0 	
0 	0 	0 	0 	0 	0 	-0 	
0 	0 	0 	0 	0.35 	17.0603 	3.62598 	8.74889e-05 	
0.00758237 	0.00189559 	0 	0.0 	 0.0 	 0.0 	 0.0 	 0.0 	 0.0 	 
0.000612422 	0 	0.92 	0.04 	0.04 	-0.07 	0 	
0 	0 	0 	0 	0 	0 	-0 	
0 	0 	0 	0 	0.35 	17.0603 	3.62598 	8.74889e-05 	
0.00758237 	0.00189559 	0 	0.0 	 0.0 	 0.0 	 0.0 	 0.0 	 0.0 	 
0.000699911 	0 	0.92 	0.04 	0.04 	-0.07 	0 	
0 	0 	0 	0 	0 	0 	-0 	
0 	0 	0 	0 	0.35 	17.0603 	3.62598 	8.74889e-05 	
0.00758237 	0.00189559 	0 	0.0 	 0.0 	 0.0 	 0.0 	 0.0 	 0.0 	 
0.0007874 	0 	0.92 	0.04 	0.04 	-0.07 	0 	
0 	0 	0 	0 	0 	15.4651 	0 	
0 	0 	0 	0 	0.35 	8.53017 	3.62598 	4.37444e-05 	
0.00379119 	0.000947796 	0 	0.0 	 0.0 	 0.0 	 0.0 	 0.0 	 0.0 	 
ZONE T = "t = 1e-08 [s]" I = 10 SOLUTIONTIME = 1.0000000000000E-08
0 	1.63301e-09 	0.92 	0.04 	0.04 	0.0113517 	0 	
0.07 	-0.0409067 	0.110907 	30.9302 	-0 	1.17583 	41.1613 	
0 	91448.4 	916.789 	1145.99 	0.35 	8.53017 	0.276878 	4.37444e-05 	
0.00379119 	0.000947796 	5.00243e-06 	500.243 	0.000595634 	0.00245913 	500.24 	500.24 	0 	
8.74889e-05 	4.89903e-09 	0.92 	0.04 	0.04 	0.0113517 	-5.3813e-09 	
0.07 	-0.0409067 	0.110907 	61.8605 	-0 	4.70333 	37.6288 	
0 	182897 	1833.58 	2291.97 	0.35 	17.0603 	0.276878 	8.74889e-05 	
0.00758237 	0.00189559 	3.62741e-06 	362.741 	0.00297818 	0.00218685 	362.736 	362.736 	0 	
0.000174978 	8.16507e-09 	0.92 	0.04 	0.04 	0.0113516 	-1.01295e-08 	
0.07 	-0.0409067 	0.110907 	61.8605 	-0 	9.40668 	32.9254 	
0 	182897 	1833.58 	2291.97 	0.35 	17.0603 	0.27688 	8.74889e-05 	
0.00758237 	0.00189559 	5.00309e-06 	500.309 	0.0101258 	0.00167633 	500.297 	500.297 	0 	
0.000262467 	1.14311e-08 	0.92 	0.04 	0.04 	0.0113515 	-1.42447e-08 	
0.07 	-0.0409067 	0.110907 	61.8605 	-0 	14.1101 	28.222 	
0 	182897 	1833.58 	2291.97 	0.35 	17.0603 	0.276882 	8.74889e-05 	
0.00758237 	0.00189559 	5.00397e-06 	500.397 	0.0220387 	0.00123387 	500.374 	500.374 	0 	
0.000349956 	1.46973e-08 	0.92 	0.04 	0.04 	0.0113513 	-1.77268e-08 	
0.07 	-0.0409067 	0.110907 	61.8605 	-0 	18.8135 	23.5186 	
0 	182897 	1833.58 	2291.97 	0.35 	17.0603 	0.276886 	8.74889e-05 	
0.00758237 	0.00189559 	5.00524e-06 	500.524 	0.038717 	0.00085947 	500.484 	500.484 	0 	
0.000437444 	1.79634e-08 	0.92 	0.04 	0.04 	0.0113511 	-2.05758e-08 	
0.07 	-0.0409067 	0.110907 	61.8605 	-0 	23.517 	18.8151 	
0 	182897 	1833.58 	2291.97 	0.35 	17.0603 	0.276891 	8.74889e-05 	
0.00758237 	0.00189559 	4.64435e-06 	464.435 	0.0601609 	0.000553137 	464.374 	464.374 	0 	
0.000524933 	2.12297e-08 	0.92 	0.04 	0.04 	0.0113509 	-2.27918e-08 	
0.07 	-0.0409067 	0.110907 	61.8605 	-0 	28.2206 	14.1115 	
0 	182897 	1833.58 	2291.97 	0.35 	17.0603 	0.276897 	8.74889e-05 	
0.00758237 	0.00189559 	4.64636e-06 	464.636 	0.0863709 	0.00031487 	464.549 	464.549 	0 	
0.000612422 	2.4496e-08 	0.92 	0.04 	0.04 	0.0113506 	-2.43746e-08 	
0.07 	-0.0409067 	0.110907 	61.8605 	-0 	32.9243 	9.40781 	
0 	182897 	1833.58 	2291.97 	0.35 	17.0603 	0.276903 	8.74889e-05 	
0.00758237 	0.00189559 	5.65936e-06 	565.936 	0.117347 	0.000144674 	565.818 	565.818 	0 	
0.000699911 	2.77624e-08 	0.92 	0.04 	0.04 	0.0113503 	-2.53243e-08 	
0.07 	-0.0409067 	0.110907 	61.8605 	-0 	37.6281 	4.70398 	
0 	182897 	1833.58 	2291.97 	0.35 	17.0603 	0.276911 	8.74889e-05 	
0.00758237 	0.00189559 	5.66211e-06 	566.211 	0.15309 	4.25524e-05 	566.058 	566.058 	0 	
0.0007874 	2.93957e-08 	0.92 	0.04 	0.04 	0.0113499 	-2.56409e-08 	
0.07 	-0.0409067 	0.110907 	30.9302 	-0 	41.1612 	1.17601 	
0 	91448.4 	916.789 	1145.99 	0.35 	8.53017 	0.27692 	4.37444e-05 	
0.00379119 	0.000947796 	5.66503e-06 	566.503 	0.172154 	8.51081e-06 	566.331 	566.331 	0 	
ZONE T = "t = 2e-08 [s]" I = 10 SOLUTIONTIME = 2.0000000000000E-08
0 	1.15931e-09 	0.92 	0.04 	0.04 	0.0291632 	0 	
-0.0113517 	-0.0409067 	0.029555 	2.36182 	1.21866e-08 	0.83475 	29.2174 	
5.91942e-11 	91448.4 	916.789 	1145.99 	0.35 	8.53017 	0.195735 	4.37444e-05 	
0.00379119 	0.000947796 	9.64588e-06 	464.345 	0.000895828 	0.00369847 	464.343 	464.343 	0 	
8.74889e-05 	3.47794e-09 	0.92 	0.04 	0.04 	0.0291632 	-3.82025e-09 	
-0.0113517 	-0.0409067 	0.0295551 	4.72364 	3.65599e-08 	3.339 	26.7131 	
1.18389e-10 	182897 	1833.58 	2291.97 	0.35 	17.0603 	0.195735 	8.74889e-05 	
0.00758237 	0.00189559 	7.83549e-06 	420.808 	0.00447915 	0.00328897 	420.806 	420.806 	0 	
0.000174978 	5.79657e-09 	0.92 	0.04 	0.04 	0.0291631 	-7.19107e-09 	
-0.0113516 	-0.0409067 	0.0295551 	4.72366 	6.09334e-08 	6.67801 	23.3741 	
1.18389e-10 	182897 	1833.58 	2291.97 	0.35 	17.0603 	0.195736 	8.74889e-05 	
0.00758237 	0.00189559 	9.64686e-06 	464.378 	0.0152292 	0.00252115 	464.372 	464.372 	0 	
0.000262467 	8.11522e-09 	0.92 	0.04 	0.04 	0.0291631 	-1.01125e-08 	
-0.0113515 	-0.0409067 	0.0295552 	4.72371 	8.53071e-08 	10.017 	20.035 	
1.1839e-10 	182897 	1833.58 	2291.97 	0.35 	17.0603 	0.195737 	8.74889e-05 	
0.00758237 	0.00189559 	9.6482e-06 	464.422 	0.033146 	0.0018557 	464.41 	464.41 	0 	
0.000349956 	1.04339e-08 	0.92 	0.04 	0.04 	0.029163 	-1.25844e-08 	
-0.0113513 	-0.0409067 	0.0295554 	4.72377 	1.09681e-07 	13.3561 	16.696 	
1.18392e-10 	182897 	1833.58 	2291.97 	0.35 	17.0603 	0.195739 	8.74889e-05 	
0.00758237 	0.00189559 	9.65009e-06 	464.486 	0.0582299 	0.00129261 	464.466 	464.466 	0 	
0.000437444 	1.27526e-08 	0.92 	0.04 	0.04 	0.0291628 	-1.4607e-08 	
-0.0113511 	-0.0409067 	0.0295556 	4.72385 	1.34055e-07 	16.6952 	13.3569 	
1.18394e-10 	182897 	1833.58 	2291.97 	0.35 	17.0603 	0.195741 	8.74889e-05 	
0.00758237 	0.00189559 	7.73664e-06 	309.229 	0.0904812 	0.000831897 	309.198 	309.198 	0 	
0.000524933 	1.50713e-08 	0.92 	0.04 	0.04 	0.0291626 	-1.61801e-08 	
-0.0113509 	-0.0409067 	0.0295558 	4.72395 	1.5843e-07 	20.0343 	10.0178 	
1.18396e-10 	182897 	1833.58 	2291.97 	0.35 	17.0603 	0.195744 	8.74889e-05 	
0.00758237 	0.00189559 	7.73966e-06 	309.33 	0.1299 	0.000473552 	309.286 	309.286 	0 	
0.000612422 	1.73901e-08 	0.92 	0.04 	0.04 	0.0291624 	-1.73037e-08 	
-0.0113506 	-0.0409067 	0.0295561 	4.72407 	1.82806e-07 	23.3735 	6.67858 	
1.18399e-10 	182897 	1833.58 	2291.97 	0.35 	17.0603 	0.195748 	8.74889e-05 	
0.00758237 	0.00189559 	1.34586e-05 	779.921 	0.176488 	0.000217583 	779.862 	779.862 	0 	
0.000699911 	1.97089e-08 	0.92 	0.04 	0.04 	0.0291622 	-1.79779e-08 	
-0.0113503 	-0.0409067 	0.0295564 	4.7242 	2.07182e-07 	26.7128 	3.33933 	
1.18403e-10 	182897 	1833.58 	2291.97 	0.35 	17.0603 	0.195752 	8.74889e-05 	
0.00758237 	0.00189559 	1.34627e-05 	780.06 	0.230245 	6.39967e-05 	779.983 	779.983 	0 	
0.0007874 	2.08683e-08 	0.92 	0.04 	0.04 	0.0291619 	-1.82027e-08 	
-0.0113499 	-0.0409067 	0.0295568 	2.36218 	2.07182e-07 	29.2173 	0.834841 	
5.92033e-11 	91448.4 	916.789 	1145.99 	0.35 	8.53017 	0.195756 	4.37444e-05 	
0.00379119 	0.000947796 	9.97552e-06 	431.049 	0.258915 	1.27998e-05 	430.962 	430.962 	0 	
ZONE T = "t = 3e-08 [s]" I = 10 SOLUTIONTIME = 3.0000000000000E-08
0 	1.15931e-09 	0.92 	0.04 	0.04 	0.0291633 	0 	
-0.0291632 	-0.0409067 	0.0117435 	1.66965 	8.65157e-09 	0.834748 	29.2173 	
1.01041e-10 	91448.4 	916.789 	1145.99 	0.35 	8.53017 	0.195733 	4.37444e-05 	
0.00379119 	0.000947796 	1.52933e-05 	564.744 	0.00119602 	0.0049378 	564.742 	564.742 	0 	
8.74889e-05 	3.47792e-09 	0.92 	0.04 	0.04 	0.0291633 	-3.82024e-09 	
-0.0291632 	-0.0409067 	0.0117435 	3.33931 	2.59547e-08 	3.33899 	26.713 	
2.02082e-10 	182897 	1833.58 	2291.97 	0.35 	17.0603 	0.195733 	8.74889e-05 	
0.00758237 	0.00189559 	1.00583e-05 	222.277 	0.00598011 	0.00439108 	222.274 	222.274 	0 	
0.000174978 	5.79655e-09 	0.92 	0.04 	0.04 	0.0291632 	-7.19105e-09 	
-0.0291631 	-0.0409067 	0.0117436 	3.33932 	4.3258e-08 	6.67799 	23.374 	
2.02083e-10 	182897 	1833.58 	2291.97 	0.35 	17.0603 	0.195734 	8.74889e-05 	
0.00758237 	0.00189559 	1.52946e-05 	564.777 	0.0203324 	0.00336597 	564.771 	564.771 	0 	
0.000262467 	8.11519e-09 	0.92 	0.04 	0.04 	0.0291632 	-1.01124e-08 	
-0.0291631 	-0.0409067 	0.0117436 	3.33934 	6.05613e-08 	10.017 	20.035 	
2.02084e-10 	182897 	1833.58 	2291.97 	0.35 	17.0603 	0.195735 	8.74889e-05 	
0.00758237 	0.00189559 	1.52964e-05 	564.821 	0.0442532 	0.00247753 	564.81 	564.81 	0 	
0.000349956 	1.04339e-08 	0.92 	0.04 	0.04 	0.0291631 	-1.25844e-08 	
-0.029163 	-0.0409067 	0.0117437 	3.33937 	7.78648e-08 	13.3561 	16.6959 	
2.02087e-10 	182897 	1833.58 	2291.97 	0.35 	17.0603 	0.195737 	8.74889e-05 	
0.00758237 	0.00189559 	1.52989e-05 	564.885 	0.0777427 	0.00172576 	564.865 	564.865 	0 	
0.000437444 	1.27525e-08 	0.92 	0.04 	0.04 	0.0291629 	-1.46069e-08 	
-0.0291628 	-0.0409067 	0.0117439 	3.33941 	9.51685e-08 	16.6951 	13.3569 	
2.0209e-10 	182897 	1833.58 	2291.97 	0.35 	17.0603 	0.19574 	8.74889e-05 	
0.00758237 	0.00189559 	1.06826e-05 	294.593 	0.120801 	0.00111066 	294.562 	294.562 	0 	
0.000524933 	1.50713e-08 	0.92 	0.04 	0.04 	0.0291627 	-1.618e-08 	
-0.0291627 	-0.0409067 	0.0117441 	3.33946 	1.12473e-07 	20.0343 	10.0177 	
2.02093e-10 	182897 	1833.58 	2291.97 	0.35 	17.0603 	0.195743 	8.74889e-05 	
0.00758237 	0.00189559 	1.06866e-05 	294.694 	0.17343 	0.000632233 	294.65 	294.65 	0 	
0.000612422 	1.739e-08 	0.92 	0.04 	0.04 	0.0291625 	-1.73037e-08 	
-0.0291624 	-0.0409067 	0.0117443 	3.33952 	1.29777e-07 	23.3734 	6.67856 	
2.02098e-10 	182897 	1833.58 	2291.97 	0.35 	17.0603 	0.195746 	8.74889e-05 	
0.00758237 	0.00189559 	1.82679e-05 	480.936 	0.235628 	0.000290492 	480.877 	480.877 	0 	
0.000699911 	1.97089e-08 	0.92 	0.04 	0.04 	0.0291623 	-1.79779e-08 	
-0.0291622 	-0.0409067 	0.0117445 	3.33959 	1.47082e-07 	26.7127 	3.33931 	
2.02103e-10 	182897 	1833.58 	2291.97 	0.35 	17.0603 	0.19575 	8.74889e-05 	
0.00758237 	0.00189559 	1.82735e-05 	481.075 	0.307398 	8.54409e-05 	480.998 	480.998 	0 	
0.0007874 	2.08683e-08 	0.92 	0.04 	0.04 	0.029162 	-1.82026e-08 	
-0.0291619 	-0.0409067 	0.0117448 	1.66983 	1.47082e-07 	29.2172 	0.834838 	
1.01054e-10 	91448.4 	916.789 	1145.99 	0.35 	8.53017 	0.195754 	4.37444e-05 	
0.00379119 	0.000947796 	1.69912e-05 	701.571 	0.345676 	1.70887e-05 	701.484 	701.484 	0 	
ZONE T = "t = 4e-08 [s]" I = 10 SOLUTIONTIME = 4.0000000000000E-08
0 	1.15941e-09 	0.92 	0.04 	0.04 	0.0291633 	0 	
-0.0291633 	-0.0409067 	0.0117434 	1.66964 	8.65155e-09 	0.834822 	29.2199 	
1.42887e-10 	91448.4 	916.789 	1145.99 	0.35 	8.53017 	0.195734 	4.37444e-05 	
0.00379119 	0.000947796 	2.22291e-05 	693.578 	0.00149627 	0.00617736 	693.577 	693.577 	0 	
8.74889e-05 	3.47824e-09 	0.92 	0.04 	0.04 	0.0291632 	-3.82058e-09 	
-0.0291633 	-0.0409067 	0.0117434 	3.33928 	2.59547e-08 	3.33929 	26.7154 	
2.85774e-10 	182897 	1833.58 	2291.97 	0.35 	17.0603 	0.195734 	8.74889e-05 	
0.00758237 	0.00189559 	1.33749e-05 	331.668 	0.00748134 	0.00549339 	331.666 	331.666 	0 	
0.000174978 	5.79707e-09 	0.92 	0.04 	0.04 	0.0291632 	-7.19169e-09 	
-0.0291633 	-0.0409067 	0.0117435 	3.33929 	4.32578e-08 	6.67859 	23.3761 	
2.85775e-10 	182897 	1833.58 	2291.97 	0.35 	17.0603 	0.195735 	8.74889e-05 	
0.00758237 	0.00189559 	2.22307e-05 	693.611 	0.0254366 	0.00421094 	693.605 	693.605 	0 	
0.000262467 	8.11592e-09 	0.92 	0.04 	0.04 	0.0291631 	-1.01133e-08 	
-0.0291632 	-0.0409067 	0.0117435 	3.33931 	6.05611e-08 	10.0179 	20.0368 	
2.85777e-10 	182897 	1833.58 	2291.97 	0.35 	17.0603 	0.195736 	8.74889e-05 	
0.00758237 	0.00189559 	2.2233e-05 	693.656 	0.0553624 	0.00309947 	693.644 	693.644 	0 	
0.000349956 	1.04348e-08 	0.92 	0.04 	0.04 	0.029163 	-1.25855e-08 	
-0.0291631 	-0.0409067 	0.0117436 	3.33934 	7.78646e-08 	13.3572 	16.6974 	
2.8578e-10 	182897 	1833.58 	2291.97 	0.35 	17.0603 	0.195738 	8.74889e-05 	
0.00758237 	0.00189559 	2.22361e-05 	693.719 	0.0972589 	0.00215897 	693.699 	693.699 	0 	
0.000437444 	1.27537e-08 	0.92 	0.04 	0.04 	0.0291629 	-1.46082e-08 	
-0.0291629 	-0.0409067 	0.0117438 	3.33938 	9.51683e-08 	16.6966 	13.3581 	
2.85785e-10 	182897 	1833.58 	2291.97 	0.35 	17.0603 	0.19574 	8.74889e-05 	
0.00758237 	0.00189559 	1.40095e-05 	332.694 	0.151127 	0.00138946 	332.664 	332.664 	0 	
0.000524933 	1.50726e-08 	0.92 	0.04 	0.04 	0.0291627 	-1.61815e-08 	
-0.0291628 	-0.0409067 	0.011744 	3.33943 	1.12472e-07 	20.036 	10.0186 	
2.85789e-10 	182897 	1833.58 	2291.97 	0.35 	17.0603 	0.195743 	8.74889e-05 	
0.00758237 	0.00189559 	1.40145e-05 	332.795 	0.216967 	0.000790942 	332.752 	332.752 	0 	
0.000612422 	1.73916e-08 	0.92 	0.04 	0.04 	0.0291625 	-1.73052e-08 	
-0.0291626 	-0.0409067 	0.0117442 	3.33949 	1.29776e-07 	23.3755 	6.67915 	
2.85795e-10 	182897 	1833.58 	2291.97 	0.35 	17.0603 	0.195747 	8.74889e-05 	
0.00758237 	0.00189559 	2.48031e-05 	653.516 	0.294779 	0.000363414 	653.457 	653.457 	0 	
0.000699911 	1.97106e-08 	0.92 	0.04 	0.04 	0.0291623 	-1.79795e-08 	
-0.0291623 	-0.0409067 	0.0117444 	3.33956 	1.47081e-07 	26.7151 	3.33961 	
2.85802e-10 	182897 	1833.58 	2291.97 	0.35 	17.0603 	0.195751 	8.74889e-05 	
0.00758237 	0.00189559 	2.481e-05 	653.655 	0.384566 	0.000106889 	653.578 	653.578 	0 	
0.0007874 	2.08701e-08 	0.92 	0.04 	0.04 	0.029162 	-1.82042e-08 	
-0.0291621 	-0.0409067 	0.0117447 	1.66982 	1.47081e-07 	29.2198 	0.834913 	
1.42905e-10 	91448.4 	916.789 	1145.99 	0.35 	8.53017 	0.195755 	4.37444e-05 	
0.00379119 	0.000947796 	2.21845e-05 	519.323 	0.432453 	2.13785e-05 	519.236 	519.236 	0 	
ZONE T = "t = 5.5e-08 [s]" I = 10 SOLUTIONTIME = 5.5000000000000E-08
0 	1.15941e-09 	0.92 	0.04 	0.04 	0.0291633 	0 	
-0.0291633 	-0.0409067 	0.0117435 	1.66964 	8.65232e-09 	0.834822 	29.2199 	
1.84733e-10 	91448.4 	916.789 	1145.99 	0.35 	8.53017 	0.195734 	4.37444e-05 	
0.00379119 	0.000947796 	2.76273e-05 	359.88 	0.00129776 	0.00535779 	359.879 	359.879 	0 	
8.74889e-05 	3.47824e-09 	0.92 	0.04 	0.04 	0.0291632 	-3.82058e-09 	
-0.0291632 	-0.0409067 	0.0117435 	3.33929 	2.5957e-08 	3.33929 	26.7154 	
3.69467e-10 	182897 	1833.58 	2291.97 	0.35 	17.0603 	0.195734 	8.74889e-05 	
0.00758237 	0.00189559 	1.99965e-05 	441.438 	0.00648879 	0.00476457 	441.436 	441.436 	0 	
0.000174978 	5.79707e-09 	0.92 	0.04 	0.04 	0.0291632 	-7.19169e-09 	
-0.0291632 	-0.0409067 	0.0117435 	3.3393 	4.32617e-08 	6.67859 	23.3761 	
3.69468e-10 	182897 	1833.58 	2291.97 	0.35 	17.0603 	0.195735 	8.74889e-05 	
0.00758237 	0.00189559 	2.76294e-05 	359.913 	0.022062 	0.00365226 	359.907 	359.907 	0 	
0.000262467 	8.11592e-09 	0.92 	0.04 	0.04 	0.0291631 	-1.01133e-08 	
-0.0291631 	-0.0409067 	0.0117436 	3.33933 	6.05665e-08 	10.0179 	20.0368 	
3.69471e-10 	182897 	1833.58 	2291.97 	0.35 	17.0603 	0.195736 	8.74889e-05 	
0.00758237 	0.00189559 	2.76323e-05 	359.958 	0.0480174 	0.00268825 	359.946 	359.946 	0 	
0.000349956 	1.04348e-08 	0.92 	0.04 	0.04 	0.029163 	-1.25855e-08 	
-0.029163 	-0.0409067 	0.0117437 	3.33936 	7.78715e-08 	13.3572 	16.6974 	
3.69475e-10 	182897 	1833.58 	2291.97 	0.35 	17.0603 	0.195738 	8.74889e-05 	
0.00758237 	0.00189559 	2.76364e-05 	360.021 	0.0843555 	0.00187253 	360.001 	360.001 	0 	
0.000437444 	1.27537e-08 	0.92 	0.04 	0.04 	0.0291629 	-1.46082e-08 	
-0.0291629 	-0.0409067 	0.0117438 	3.3394 	9.51768e-08 	16.6966 	13.3581 	
3.6948e-10 	182897 	1833.58 	2291.97 	0.35 	17.0603 	0.19574 	8.74889e-05 	
0.00758237 	0.00189559 	2.04723e-05 	430.853 	0.131077 	0.00120512 	430.822 	430.822 	0 	
0.000524933 	1.50726e-08 	0.92 	0.04 	0.04 	0.0291627 	-1.61815e-08 	
-0.0291627 	-0.0409067 	0.011744 	3.33945 	1.12482e-07 	20.036 	10.0186 	
3.69486e-10 	182897 	1833.58 	2291.97 	0.35 	17.0603 	0.195743 	8.74889e-05 	
0.00758237 	0.00189559 	2.04789e-05 	430.954 	0.188181 	0.000686004 	430.91 	430.91 	0 	
0.000612422 	1.73916e-08 	0.92 	0.04 	0.04 	0.0291625 	-1.73052e-08 	
-0.0291625 	-0.0409067 	0.0117442 	3.33951 	1.29788e-07 	23.3755 	6.67915 	
3.69493e-10 	182897 	1833.58 	2291.97 	0.35 	17.0603 	0.195747 	8.74889e-05 	
0.00758237 	0.00189559 	3.13664e-05 	437.554 	0.255671 	0.000315198 	437.495 	437.495 	0 	
0.000699911 	1.97106e-08 	0.92 	0.04 	0.04 	0.0291623 	-1.79795e-08 	
-0.0291623 	-0.0409067 	0.0117444 	3.33957 	1.47094e-07 	26.7151 	3.33961 	
3.69502e-10 	182897 	1833.58 	2291.97 	0.35 	17.0603 	0.195751 	8.74889e-05 	
0.00758237 	0.00189559 	3.13754e-05 	437.693 	0.333545 	9.27073e-05 	437.616 	437.616 	0 	
0.0007874 	2.08701e-08 	0.92 	0.04 	0.04 	0.029162 	-1.82042e-08 	
-0.029162 	-0.0409067 	0.0117447 	1.66983 	1.47094e-07 	29.2198 	0.834913 	
1.84756e-10 	91448.4 	916.789 	1145.99 	0.35 	8.53017 	0.195755 	4.37444e-05 	
0.00379119 	0.000947796 	2.91166e-05 	462.143 	0.375078 	1.8542e-05 	462.056 	462.056 	0 	
ZONE T = "t = 7.75e-08 [s]" I = 10 SOLUTIONTIME = 7.7500000000000E-08
0 	1.15941e-09 	0.92 	0.04 	0.04 	0.0291633 	0 	
-0.0291633 	-0.0409067 	0.0117435 	1.66964 	8.65232e-09 	0.834822 	29.2199 	
2.47502e-10 	91448.4 	916.789 	1145.99 	0.35 	8.53017 	0.195734 	4.37444e-05 	
0.00379119 	0.000947796 	4.04273e-05 	568.889 	0.00116542 	0.00481142 	568.887 	568.887 	0 	
8.74889e-05 	3.47824e-09 	0.92 	0.04 	0.04 	0.0291632 	-3.82058e-09 	
-0.0291632 	-0.0409067 	0.0117435 	3.33929 	2.5957e-08 	3.33929 	26.7154 	
4.95006e-10 	182897 	1833.58 	2291.97 	0.35 	17.0603 	0.195734 	8.74889e-05 	
0.00758237 	0.00189559 	2.91755e-05 	407.954 	0.00582709 	0.00427868 	407.951 	407.951 	0 	
0.000174978 	5.79707e-09 	0.92 	0.04 	0.04 	0.0291632 	-7.19169e-09 	
-0.0291632 	-0.0409067 	0.0117435 	3.3393 	4.32617e-08 	6.67859 	23.3761 	
4.95008e-10 	182897 	1833.58 	2291.97 	0.35 	17.0603 	0.195735 	8.74889e-05 	
0.00758237 	0.00189559 	4.04302e-05 	568.922 	0.0198122 	0.00327981 	568.916 	568.916 	0 	
0.000262467 	8.11592e-09 	0.92 	0.04 	0.04 	0.0291631 	-1.01133e-08 	
-0.0291631 	-0.0409067 	0.0117436 	3.33933 	6.05665e-08 	10.0179 	20.0368 	
4.95011e-10 	182897 	1833.58 	2291.97 	0.35 	17.0603 	0.195736 	8.74889e-05 	
0.00758237 	0.00189559 	4.04341e-05 	568.966 	0.0431208 	0.0024141 	568.954 	568.954 	0 	
0.000349956 	1.04348e-08 	0.92 	0.04 	0.04 	0.029163 	-1.25855e-08 	
-0.029163 	-0.0409067 	0.0117437 	3.33936 	7.78715e-08 	13.3572 	16.6974 	
4.95016e-10 	182897 	1833.58 	2291.97 	0.35 	17.0603 	0.195738 	8.74889e-05 	
0.00758237 	0.00189559 	4.04396e-05 	569.03 	0.0757533 	0.00168157 	569.01 	569.01 	0 	
0.000437444 	1.27537e-08 	0.92 	0.04 	0.04 	0.0291629 	-1.46082e-08 	
-0.0291629 	-0.0409067 	0.0117438 	3.3394 	9.51768e-08 	16.6966 	13.3581 	
4.95023e-10 	182897 	1833.58 	2291.97 	0.35 	17.0603 	0.19574 	8.74889e-05 	
0.00758237 	0.00189559 	3.12196e-05 	477.659 	0.11771 	0.00108222 	477.629 	477.629 	0 	
0.000524933 	1.50726e-08 	0.92 	0.04 	0.04 	0.0291627 	-1.61815e-08 	
-0.0291627 	-0.0409067 	0.011744 	3.33945 	1.12482e-07 	20.036 	10.0186 	
4.95031e-10 	182897 	1833.58 	2291.97 	0.35 	17.0603 	0.195743 	8.74889e-05 	
0.00758237 	0.00189559 	3.12285e-05 	477.76 	0.168991 	0.000616045 	477.717 	477.717 	0 	
0.000612422 	1.73916e-08 	0.92 	0.04 	0.04 	0.0291625 	-1.73052e-08 	
-0.0291625 	-0.0409067 	0.0117442 	3.33951 	1.29788e-07 	23.3755 	6.67915 	
4.9504e-10 	182897 	1833.58 	2291.97 	0.35 	17.0603 	0.195747 	8.74889e-05 	
0.00758237 	0.00189559 	4.16245e-05 	455.917 	0.229598 	0.000283054 	455.858 	455.858 	0 	
0.000699911 	1.97106e-08 	0.92 	0.04 	0.04 	0.0291623 	-1.79795e-08 	
-0.0291623 	-0.0409067 	0.0117444 	3.33957 	1.47095e-07 	26.7151 	3.33961 	
4.95052e-10 	182897 	1833.58 	2291.97 	0.35 	17.0603 	0.195751 	8.74889e-05 	
0.00758237 	0.00189559 	4.16367e-05 	456.056 	0.299531 	8.32528e-05 	455.978 	455.978 	0 	
0.0007874 	2.08701e-08 	0.92 	0.04 	0.04 	0.029162 	-1.82042e-08 	
-0.029162 	-0.0409067 	0.0117447 	1.66983 	1.47095e-07 	29.2198 	0.834913 	
2.47532e-10 	91448.4 	916.789 	1145.99 	0.35 	8.53017 	0.195755 	4.37444e-05 	
0.00379119 	0.000947796 	3.80283e-05 	396.074 	0.336829 	1.66511e-05 	395.987 	395.987 	0 	
ZONE T = "t = 1.1125e-07 [s]" I = 10 SOLUTIONTIME = 1.1125000000000E-07
0 	1.15941e-09 	0.92 	0.04 	0.04 	0.0291633 	0 	
-0.0291633 	-0.0409067 	0.0117435 	1.66964 	8.65232e-09 	0.834822 	29.2199 	
3.41657e-10 	91448.4 	916.789 	1145.99 	0.35 	8.53017 	0.195734 	4.37444e-05 	
0.00379119 	0.000947796 	5.69418e-05 	489.318 	0.00107719 	0.00444716 	489.316 	489.316 	0 	
8.74889e-05 	3.47824e-09 	0.92 	0.04 	0.04 	0.0291632 	-3.82058e-09 	
-0.0291632 	-0.0409067 	0.0117435 	3.33929 	2.5957e-08 	3.33929 	26.7154 	
6.83314e-10 	182897 	1833.58 	2291.97 	0.35 	17.0603 	0.195734 	8.74889e-05 	
0.00758237 	0.00189559 	4.59899e-05 	498.206 	0.00538596 	0.00395476 	498.204 	498.204 	0 	
0.000174978 	5.79707e-09 	0.92 	0.04 	0.04 	0.0291632 	-7.19169e-09 	
-0.0291632 	-0.0409067 	0.0117435 	3.3393 	4.32617e-08 	6.67859 	23.3761 	
6.83317e-10 	182897 	1833.58 	2291.97 	0.35 	17.0603 	0.195735 	8.74889e-05 	
0.00758237 	0.00189559 	5.51068e-05 	434.863 	0.0183123 	0.00303151 	434.857 	434.857 	0 	
0.000262467 	8.11592e-09 	0.92 	0.04 	0.04 	0.0291631 	-1.01133e-08 	
-0.0291631 	-0.0409067 	0.0117436 	3.33933 	6.05665e-08 	10.0179 	20.0368 	
6.83322e-10 	182897 	1833.58 	2291.97 	0.35 	17.0603 	0.195736 	8.74889e-05 	
0.00758237 	0.00189559 	5.51122e-05 	434.908 	0.0398564 	0.00223134 	434.896 	434.896 	0 	
0.000349956 	1.04348e-08 	0.92 	0.04 	0.04 	0.029163 	-1.25855e-08 	
-0.029163 	-0.0409067 	0.0117437 	3.33936 	7.78715e-08 	13.3572 	16.6974 	
6.83328e-10 	182897 	1833.58 	2291.97 	0.35 	17.0603 	0.195738 	8.74889e-05 	
0.00758237 	0.00189559 	5.51199e-05 	434.971 	0.0700184 	0.00155427 	434.951 	434.951 	0 	
0.000437444 	1.27537e-08 	0.92 	0.04 	0.04 	0.0291629 	-1.46082e-08 	
-0.0291629 	-0.0409067 	0.0117438 	3.3394 	9.51768e-08 	16.6966 	13.3581 	
6.83337e-10 	182897 	1833.58 	2291.97 	0.35 	17.0603 	0.19574 	8.74889e-05 	
0.00758237 	0.00189559 	4.63483e-05 	448.255 	0.108799 	0.00100029 	448.225 	448.225 	0 	
0.000524933 	1.50726e-08 	0.92 	0.04 	0.04 	0.0291627 	-1.61815e-08 	
-0.0291627 	-0.0409067 	0.011744 	3.33945 	1.12482e-07 	20.036 	10.0186 	
6.83348e-10 	182897 	1833.58 	2291.97 	0.35 	17.0603 	0.195743 	8.74889e-05 	
0.00758237 	0.00189559 	4.50724e-05 	410.191 	0.156198 	0.000569406 	410.147 	410.147 	0 	
0.000612422 	1.73916e-08 	0.92 	0.04 	0.04 	0.0291625 	-1.73052e-08 	
-0.0291625 	-0.0409067 	0.0117442 	3.33951 	1.29788e-07 	23.3755 	6.67915 	
6.83361e-10 	182897 	1833.58 	2291.97 	0.35 	17.0603 	0.195747 	8.74889e-05 	
0.00758237 	0.00189559 	5.85753e-05 	502.243 	0.212216 	0.000261624 	502.184 	502.184 	0 	
0.000699911 	1.97106e-08 	0.92 	0.04 	0.04 	0.0291623 	-1.79795e-08 	
-0.0291623 	-0.0409067 	0.0117444 	3.33957 	1.47095e-07 	26.7151 	3.33961 	
6.83376e-10 	182897 	1833.58 	2291.97 	0.35 	17.0603 	0.195751 	8.74889e-05 	
0.00758237 	0.00189559 	5.8592e-05 	502.382 	0.276855 	7.69499e-05 	502.305 	502.305 	0 	
0.0007874 	2.08701e-08 	0.92 	0.04 	0.04 	0.029162 	-1.82042e-08 	
-0.029162 	-0.0409067 	0.0117447 	1.66983 	1.47095e-07 	29.2198 	0.834913 	
3.41696e-10 	91448.4 	916.789 	1145.99 	0.35 	8.53017 	0.195755 	4.37444e-05 	
0.00379119 	0.000947796 	5.25178e-05 	429.318 	0.311329 	1.53904e-05 	429.232 	429.232 	0 	
ZONE T = "t = 1.61875e-07 [s]" I = 10 SOLUTIONTIME = 1.6187500000000E-07
0 	1.15941e-09 	0.92 	0.04 	0.04 	0.0291633 	0 	
-0.0291633 	-0.0409067 	0.0117435 	1.66964 	8.65232e-09 	0.834822 	29.2199 	
4.82888e-10 	91448.4 	916.789 	1145.99 	0.35 	8.53017 	0.195734 	4.37444e-05 	
0.00379119 	0.000947796 	7.70634e-05 	397.465 	0.00101837 	0.00420433 	397.464 	397.464 	0 	
8.74889e-05 	3.47824e-09 	0.92 	0.04 	0.04 	0.0291632 	-3.82058e-09 	
-0.0291632 	-0.0409067 	0.0117435 	3.33929 	2.5957e-08 	3.33929 	26.7154 	
9.65777e-10 	182897 	1833.58 	2291.97 	0.35 	17.0603 	0.195734 	8.74889e-05 	
0.00758237 	0.00189559 	6.74163e-05 	423.236 	0.00509187 	0.00373882 	423.233 	423.233 	0 	
0.000174978 	5.79707e-09 	0.92 	0.04 	0.04 	0.0291632 	-7.19169e-09 	
-0.0291632 	-0.0409067 	0.0117435 	3.3393 	4.32617e-08 	6.67859 	23.3761 	
9.65781e-10 	182897 	1833.58 	2291.97 	0.35 	17.0603 	0.195735 	8.74889e-05 	
0.00758237 	0.00189559 	7.48575e-05 	390.137 	0.0173124 	0.00286597 	390.131 	390.131 	0 	
0.000262467 	8.11592e-09 	0.92 	0.04 	0.04 	0.0291631 	-1.01133e-08 	
-0.0291631 	-0.0409067 	0.0117436 	3.33933 	6.05665e-08 	10.0179 	20.0368 	
9.65787e-10 	182897 	1833.58 	2291.97 	0.35 	17.0603 	0.195736 	8.74889e-05 	
0.00758237 	0.00189559 	7.48652e-05 	390.182 	0.0376801 	0.0021095 	390.17 	390.17 	0 	
0.000349956 	1.04348e-08 	0.92 	0.04 	0.04 	0.029163 	-1.25855e-08 	
-0.029163 	-0.0409067 	0.0117437 	3.33936 	7.78715e-08 	13.3572 	16.6974 	
9.65797e-10 	182897 	1833.58 	2291.97 	0.35 	17.0603 	0.195738 	8.74889e-05 	
0.00758237 	0.00189559 	7.48761e-05 	390.245 	0.0661952 	0.0014694 	390.225 	390.225 	0 	
0.000437444 	1.27537e-08 	0.92 	0.04 	0.04 	0.0291629 	-1.46082e-08 	
-0.0291629 	-0.0409067 	0.0117438 	3.3394 	9.51768e-08 	16.6966 	13.3581 	
9.65809e-10 	182897 	1833.58 	2291.97 	0.35 	17.0603 	0.19574 	8.74889e-05 	
0.00758237 	0.00189559 	6.65055e-05 	398.168 	0.102858 	0.000945668 	398.138 	398.138 	0 	
0.000524933 	1.50726e-08 	0.92 	0.04 	0.04 	0.0291627 	-1.61815e-08 	
-0.0291627 	-0.0409067 	0.011744 	3.33945 	1.12482e-07 	20.036 	10.0186 	
9.65824e-10 	182897 	1833.58 	2291.97 	0.35 	17.0603 	0.195743 	8.74889e-05 	
0.00758237 	0.00189559 	6.98686e-05 	489.802 	0.147669 	0.000538313 	489.758 	489.758 	0 	
0.000612422 	1.73916e-08 	0.92 	0.04 	0.04 	0.0291625 	-1.73052e-08 	
-0.0291625 	-0.0409067 	0.0117442 	3.33951 	1.29788e-07 	23.3755 	6.67915 	
9.65842e-10 	182897 	1833.58 	2291.97 	0.35 	17.0603 	0.195747 	8.74889e-05 	
0.00758237 	0.00189559 	7.96915e-05 	417.112 	0.200629 	0.000247338 	417.052 	417.052 	0 	
0.000699911 	1.97106e-08 	0.92 	0.04 	0.04 	0.0291623 	-1.79795e-08 	
-0.0291623 	-0.0409067 	0.0117444 	3.33957 	1.47095e-07 	26.7151 	3.33961 	
9.65863e-10 	182897 	1833.58 	2291.97 	0.35 	17.0603 	0.195751 	8.74889e-05 	
0.00758237 	0.00189559 	7.97153e-05 	417.25 	0.261737 	7.27479e-05 	417.173 	417.173 	0 	
0.0007874 	2.08701e-08 	0.92 	0.04 	0.04 	0.029162 	-1.82042e-08 	
-0.029162 	-0.0409067 	0.0117447 	1.66983 	1.47095e-07 	29.2198 	0.834913 	
4.82943e-10 	91448.4 	916.789 	1145.99 	0.35 	8.53017 	0.195755 	4.37444e-05 	
0.00379119 	0.000947796 	7.48798e-05 	441.72 	0.294329 	1.455e-05 	441.633 	441.633 	0 	
ZONE T = "t = 2.37813e-07 [s]" I = 10 SOLUTIONTIME = 2.3781250000000E-07