TITLE = "Solution on Domain BulkDomain1D_2"
VARIABLES = "x [m]"  
"Vel_axial" 	"MF_sp(ECDMC)" 	"MF_sp(Li+)" 	"MF_sp(PF6-)" 	"Volt(Electroly)" 	"Volt(CathodeVo)" 	
"Potential Drop Electrode-Electrolyte [V]" 	"Surf_0 Equilibrium Potential Drop Electrode-Electrolyte [V]" 	"Overpotential_0 [V]" 	"Current Source [A/m^2]" 	"Li+ flux [kmol/m^2/s]" 	"Electrolyte Current [A/m^2]" 	"Electrode Current [A/m^2]" 	
"Capacity discharged [A-s]" 	"Depth of discharge [-]" 	"Capacity remaining [A-s]" 	"Initial capacity [A-s]" 	"Porosity []" 	"Surface Area [m2/m2] (area per area)" 	"Specific current (per particle area) [A/m^2]" 	"Control volume thickness [m]" 	
"Moles LiCoO2 [mol/m^2] (per electrode area)" 	"Moles CoO2 [mol/m^2] (per electrode area)" 	"qHeat_accum [J/m3]" 	"qHeat_step [W/m3]" 	"Joule_Lyte [W/m3]" 	"Joule_Solid [W/m3]" 	"electrodHeat [W/m3]" 	"OverpotHeat [W/m3]" 	"deltaSHeat [W/m3]" 	

ZONE T = "t = 0 [s]" I = 10 SOLUTIONTIME = 0.0000000000000E+00
0.00127 	0 	0.92 	0.04 	0.04 	-0.07 	3.8 	
0 	0 	0 	0 	0 	0.119132 	0 	
0 	0 	0 	0 	0.35 	6.604 	-0.0360787 	3.38667e-05 	
0.000900955 	0.000600637 	0 	0.0 	 0.0 	 0.0 	 0.0 	 0.0 	 0.0 	 
0.00133773 	0 	0.92 	0.04 	0.04 	-0.07 	3.8 	
0 	0 	0 	0 	0 	0 	-0 	
0 	0 	0 	0 	0.35 	13.208 	-0.0360787 	6.77333e-05 	
0.00180191 	0.00120127 	0 	0.0 	 0.0 	 0.0 	 0.0 	 0.0 	 0.0 	 
0.00140547 	0 	0.92 	0.04 	0.04 	-0.07 	3.8 	
0 	0 	0 	0 	0 	0 	-0 	
0 	0 	0 	0 	0.35 	13.208 	-0.0360787 	6.77333e-05 	
0.00180191 	0.00120127 	0 	0.0 	 0.0 	 0.0 	 0.0 	 0.0 	 0.0 	 
0.0014732 	0 	0.92 	0.04 	0.04 	-0.07 	3.8 	
0 	0 	0 	0 	0 	0 	-0 	
0 	0 	0 	0 	0.35 	13.208 	-0.0360787 	6.77333e-05 	
0.00180191 	0.00120127 	0 	0.0 	 0.0 	 0.0 	 0.0 	 0.0 	 0.0 	 
0.00154093 	0 	0.92 	0.04 	0.04 	-0.07 	3.8 	
0 	0 	0 	0 	0 	0 	-0 	
0 	0 	0 	0 	0.35 	13.208 	-0.0360787 	6.77333e-05 	
0.00180191 	0.00120127 	0 	0.0 	 0.0 	 0.0 	 0.0 	 0.0 	 0.0 	 
0.00160867 	0 	0.92 	0.04 	0.04 	-0.07 	3.8 	
0 	0 	0 	0 	0 	0 	-0 	
0 	0 	0 	0 	0.35 	13.208 	-0.0360787 	6.77333e-05 	
0.00180191 	0.00120127 	0 	0.0 	 0.0 	 0.0 	 0.0 	 0.0 	 0.0 	 
0.0016764 	0 	0.92 	0.04 	0.04 	-0.07 	3.8 	
0 	0 	0 	0 	0 	0 	-0 	
0 	0 	0 	0 	0.35 	13.208 	-0.0360787 	6.77333e-05 	
0.00180191 	0.00120127 	0 	0.0 	 0.0 	 0.0 	 0.0 	 0.0 	 0.0 	 
0.00174413 	0 	0.92 	0.04 	0.04 	-0.07 	3.8 	
0 	0 	0 	0 	0 	0 	-0 	
0 	0 	0 	0 	0.35 	13.208 	-0.0360787 	6.77333e-05 	
0.00180191 	0.00120127 	0 	0.0 	 0.0 	 0.0 	 0.0 	 0.0 	 0.0 	 
0.00181187 	0 	0.92 	0.04 	0.04 	-0.07 	3.8 	
0 	0 	0 	0 	0 	0 	-0 	
0 	0 	0 	0 	0.35 	13.208 	-0.0360787 	6.77333e-05 	
0.00180191 	0.00120127 	0 	0.0 	 0.0 	 0.0 	 0.0 	 0.0 	 0.0 	 
0.0018796 	0 	0.92 	0.04 	0.04 	-0.07 	3.8 	
0 	0 	0 	0 	0 	0 	0.119132 	
0 	0 	0 	0 	0.35 	6.604 	-0.0360787 	3.38667e-05 	
0.000900955 	0.000600637 	0 	0.0 	 0.0 	 0.0 	 0.0 	 0.0 	 0.0 	 
ZONE T = "t = 0 [s]" I = 10 SOLUTIONTIME = 0.0000000000000E+00
0.00127 	0 	0.92 	0.04 	0.04 	-0.07 	3.8 	
0 	0 	0 	0 	0 	0.119132 	0 	
0 	0 	0 	0 	0.35 	6.604 	-0.0360787 	3.38667e-05 	
0.000900955 	0.000600637 	0 	0.0 	 0.0 	 0.0 	 0.0 	 0.0 	 0.0 	 
0.00133773 	0 	0.92 	0.04 	0.04 	-0.07 	3.8 	
0 	0 	0 	0 	0 	0 	-0 	
0 	0 	0 	0 	0.35 	13.208 	-0.0360787 	6.77333e-05 	
0.00180191 	0.00120127 	0 	0.0 	 0.0 	 0.0 	 0.0 	 0.0 	 0.0 	 
0.00140547 	0 	0.92 	0.04 	0.04 	-0.07 	3.8 	
0 	0 	0 	0 	0 	0 	-0 	
0 	0 	0 	0 	0.35 	13.208 	-0.0360787 	6.77333e-05 	
0.00180191 	0.00120127 	0 	0.0 	 0.0 	 0.0 	 0.0 	 0.0 	 0.0 	 
0.0014732 	0 	0.92 	0.04 	0.04 	-0.07 	3.8 	
0 	0 	0 	0 	0 	0 	-0 	
0 	0 	0 	0 	0.35 	13.208 	-0.0360787 	6.77333e-05 	
0.00180191 	0.00120127 	0 	0.0 	 0.0 	 0.0 	 0.0 	 0.0 	 0.0 	 
0.00154093 	0 	0.92 	0.04 	0.04 	-0.07 	3.8 	
0 	0 	0 	0 	0 	0 	-0 	
0 	0 	0 	0 	0.35 	13.208 	-0.0360787 	6.77333e-05 	
0.00180191 	0.00120127 	0 	0.0 	 0.0 	 0.0 	 0.0 	 0.0 	 0.0 	 
0.00160867 	0 	0.92 	0.04 	0.04 	-0.07 	3.8 	
0 	0 	0 	0 	0 	0 	-0 	
0 	0 	0 	0 	0.35 	13.208 	-0.0360787 	6.77333e-05 	
0.00180191 	0.00120127 	0 	0.0 	 0.0 	 0.0 	 0.0 	 0.0 	 0.0 	 
0.0016764 	0 	0.92 	0.04 	0.04 	-0.07 	3.8 	
0 	0 	0 	0 	0 	0 	-0 	
0 	0 	0 	0 	0.35 	13.208 	-0.0360787 	6.77333e-05 	
0.00180191 	0.00120127 	0 	0.0 	 0.0 	 0.0 	 0.0 	 0.0 	 0.0 	 
0.00174413 	0 	0.92 	0.04 	0.04 	-0.07 	3.8 	
0 	0 	0 	0 	0 	0 	-0 	
0 	0 	0 	0 	0.35 	13.208 	-0.0360787 	6.77333e-05 	
0.00180191 	0.00120127 	0 	0.0 	 0.0 	 0.0 	 0.0 	 0.0 	 0.0 	 
0.00181187 	0 	0.92 	0.04 	0.04 	-0.07 	3.8 	
0 	0 	0 	0 	0 	0 	-0 	
0 	0 	0 	0 	0.35 	13.208 	-0.0360787 	6.77333e-05 	
0.00180191 	0.00120127 	0 	0.0 	 0.0 	 0.0 	 0.0 	 0.0 	 0.0 	 
0.0018796 	0 	0.92 	0.04 	0.04 	-0.07 	3.8 	
0 	0 	0 	0 	0 	0 	0.119132 	
0 	0 	0 	0 	0.35 	6.604 	-0.0360787 	3.38667e-05 	
0.000900955 	0.000600637 	0 	0.0 	 0.0 	 0.0 	 0.0 	 0.0 	 0.0 	 
ZONE T = "t = 1e-08 [s]" I = 10 SOLUTIONTIME = 1.0000000000000E-08
0.00127 	1.9701e-08 	0.92 	0.04 	0.04 	0.0291657 	3.80017 	
3.87 	3.97141 	-0.101414 	-0.238264 	-0 	29.2102 	0.833608 	
-0 	7244.08 	123.46 	141.616 	0.35 	6.604 	-0.252457 	3.38667e-05 	
0.000900955 	0.000600637 	0.000217135 	21713.5 	0.0867258 	0.0530412 	21713.4 	9865.77 	11847.6 	
0.00133773 	1.73855e-08 	0.92 	0.04 	0.04 	0.0291654 	3.80017 	
3.87 	3.97141 	-0.101414 	-0.476527 	-0 	26.7093 	3.33449 	
-0 	14488.2 	246.919 	283.231 	0.35 	13.208 	-0.252467 	6.77333e-05 	
0.00180191 	0.00120127 	0.000217146 	21714.6 	0.0771333 	0.265218 	21714.3 	9866.25 	11848.1 	
0.00140547 	1.50693e-08 	0.92 	0.04 	0.04 	0.0291653 	3.80017 	
3.87 	3.97141 	-0.101414 	-0.476527 	-0 	23.3745 	6.66926 	
-0 	14488.2 	246.919 	283.231 	0.35 	13.208 	-0.252497 	6.77333e-05 	
0.00180191 	0.00120127 	0.000217182 	21718.2 	0.0591451 	0.901818 	21717.3 	9867.76 	11849.5 	
0.0014732 	1.27534e-08 	0.92 	0.04 	0.04 	0.0291651 	3.80016 	
3.87 	3.97141 	-0.101414 	-0.476527 	-0 	20.0392 	10.0046 	
-0 	14488.2 	246.919 	283.231 	0.35 	13.208 	-0.25255 	6.77333e-05 	
0.00180191 	0.00120127 	0.000217243 	21724.3 	0.0435499 	1.96305 	21722.3 	9870.33 	11852 	
0.00154093 	1.0436e-08 	0.92 	0.04 	0.04 	0.029165 	3.80014 	
3.87 	3.97141 	-0.101414 	-0.476527 	-0 	16.7031 	13.3407 	
-0 	14488.2 	246.919 	283.231 	0.35 	13.208 	-0.252623 	6.77333e-05 	
0.00180191 	0.00120127 	0.000217328 	21732.8 	0.0303481 	3.44927 	21729.3 	9873.94 	11855.4 	
0.00160867 	8.11783e-09 	0.92 	0.04 	0.04 	0.0291649 	3.80012 	
3.87 	3.97141 	-0.101414 	-0.476527 	-0 	13.3658 	16.678 	
-0 	14488.2 	246.919 	283.231 	0.35 	13.208 	-0.252718 	6.77333e-05 	
0.00180191 	0.00120127 	0.000217438 	21743.8 	0.0195406 	5.36097 	21738.5 	9878.6 	11859.9 	
0.0016764 	5.79928e-09 	0.92 	0.04 	0.04 	0.0291648 	3.8001 	
3.87 	3.97141 	-0.101414 	-0.476527 	-0 	10.0271 	20.0166 	
-0 	14488.2 	246.919 	283.231 	0.35 	13.208 	-0.252835 	6.77333e-05 	
0.00180191 	0.00120127 	0.000217573 	21757.3 	0.0111292 	7.69879 	21749.6 	9884.31 	11865.3 	
0.00174413 	3.47874e-09 	0.92 	0.04 	0.04 	0.0291647 	3.80007 	
3.87 	3.97141 	-0.101414 	-0.476527 	-0 	6.68682 	23.3569 	
-0 	14488.2 	246.919 	283.231 	0.35 	13.208 	-0.252972 	6.77333e-05 	
0.00180191 	0.00120127 	0.000217733 	21773.3 	0.0051164 	10.4635 	21762.9 	9891.08 	11871.8 	
0.00181187 	1.15674e-09 	0.92 	0.04 	0.04 	0.0291647 	3.80004 	
3.87 	3.97141 	-0.101414 	-0.476527 	-0 	3.34453 	26.6992 	
-0 	14488.2 	246.919 	283.231 	0.35 	13.208 	-0.253132 	6.77333e-05 	
0.00180191 	0.00120127 	0.000217918 	21791.8 	0.00150573 	13.6561 	21778.2 	9898.9 	11879.3 	
0.0018796 	-5.08491e-12 	0.92 	0.04 	0.04 	0.0291647 	3.8 	
3.87 	3.97141 	-0.101414 	-0.238264 	-0 	0.836432 	29.2073 	
-0 	7244.08 	123.46 	141.616 	0.35 	6.604 	-0.253312 	3.38667e-05 	
0.000900955 	0.000600637 	0.000218109 	21810.9 	0.000301405 	15.3595 	21795.5 	9907.78 	11887.7 	
ZONE T = "t = 2e-08 [s]" I = 10 SOLUTIONTIME = 2.0000000000000E-08
0.00127 	1.97055e-08 	0.92 	0.04 	0.04 	0.0291657 	3.80017 	
3.77101 	3.97141 	-0.200405 	-1.66723 	1.47051e-07 	29.2103 	0.833613 	
4.17857e-11 	7244.08 	123.46 	141.616 	0.35 	6.604 	-0.252457 	3.38667e-05 	
0.000900955 	0.000600637 	0.00043427 	21713.5 	0.0867269 	0.0530419 	21713.4 	9865.78 	11847.6 	
0.00133773 	1.73903e-08 	0.92 	0.04 	0.04 	0.0291654 	3.80017 	
3.77101 	3.97141 	-0.200407 	-3.33458 	1.29771e-07 	26.7094 	3.33452 	
8.35745e-11 	14488.2 	246.919 	283.231 	0.35 	13.208 	-0.252467 	6.77333e-05 	
0.00180191 	0.00120127 	0.000434293 	21714.6 	0.0771343 	0.265222 	21714.3 	9866.25 	11848.1 	
0.00140547 	1.50741e-08 	0.92 	0.04 	0.04 	0.0291653 	3.80017 	
3.771 	3.97141 	-0.200414 	-3.33499 	1.12489e-07 	23.3747 	6.6693 	
8.35848e-11 	14488.2 	246.919 	283.231 	0.35 	13.208 	-0.252497 	6.77333e-05 	
0.00180191 	0.00120127 	0.000434364 	21718.2 	0.0591458 	0.901829 	21717.3 	9867.76 	11849.5 	
0.0014732 	1.27574e-08 	0.92 	0.04 	0.04 	0.0291651 	3.80016 	
3.77099 	3.97141 	-0.200424 	-3.33568 	9.52029e-08 	20.0393 	10.0046 	
8.36021e-11 	14488.2 	246.919 	283.231 	0.35 	13.208 	-0.25255 	6.77333e-05 	
0.00180191 	0.00120127 	0.000434486 	21724.3 	0.0435505 	1.96307 	21722.3 	9870.33 	11852 	
0.00154093 	1.04405e-08 	0.92 	0.04 	0.04 	0.029165 	3.80014 	
3.77098 	3.97141 	-0.200439 	-3.33665 	7.7912e-08 	16.7032 	13.3408 	
8.36264e-11 	14488.2 	246.919 	283.231 	0.35 	13.208 	-0.252623 	6.77333e-05 	
0.00180191 	0.00120127 	0.000434656 	21732.8 	0.0303485 	3.44931 	21729.3 	9873.94 	11855.4 	
0.00160867 	8.1226e-09 	0.92 	0.04 	0.04 	0.0291649 	3.80012 	
3.77096 	3.97141 	-0.200458 	-3.3379 	6.06147e-08 	13.3659 	16.6781 	
8.36578e-11 	14488.2 	246.919 	283.231 	0.35 	13.208 	-0.252718 	6.77333e-05 	
0.00180191 	0.00120127 	0.000434877 	21743.8 	0.0195409 	5.36104 	21738.5 	9878.6 	11859.9 	
0.0016764 	5.80368e-09 	0.92 	0.04 	0.04 	0.0291648 	3.8001 	
3.77093 	3.97141 	-0.200482 	-3.33944 	4.33094e-08 	10.0272 	20.0167 	
8.36963e-11 	14488.2 	246.919 	283.231 	0.35 	13.208 	-0.252835 	6.77333e-05 	
0.00180191 	0.00120127 	0.000435147 	21757.3 	0.0111293 	7.69889 	21749.6 	9884.31 	11865.3 	
0.00174413 	3.48276e-09 	0.92 	0.04 	0.04 	0.0291647 	3.80007 	
3.7709 	3.97141 	-0.20051 	-3.34126 	2.59946e-08 	6.68687 	23.3571 	
8.37419e-11 	14488.2 	246.919 	283.231 	0.35 	13.208 	-0.252972 	6.77333e-05 	
0.00180191 	0.00120127 	0.000435467 	21773.3 	0.00511646 	10.4637 	21762.9 	9891.08 	11871.8 	
0.00181187 	1.16075e-09 	0.92 	0.04 	0.04 	0.0291647 	3.80004 	
3.77087 	3.97141 	-0.200542 	-3.34336 	8.66901e-09 	3.34456 	26.6994 	
8.37947e-11 	14488.2 	246.919 	283.231 	0.35 	13.208 	-0.253132 	6.77333e-05 	
0.00180191 	0.00120127 	0.000435836 	21791.8 	0.00150575 	13.6563 	21778.2 	9898.9 	11879.3 	
0.0018796 	-1.08962e-12 	0.92 	0.04 	0.04 	0.0291647 	3.8 	
3.77084 	3.97141 	-0.200579 	-1.67287 	8.66901e-09 	0.836437 	29.2075 	
4.19273e-11 	7244.08 	123.46 	141.616 	0.35 	6.604 	-0.253312 	3.38667e-05 	
0.000900955 	0.000600637 	0.000436218 	21810.9 	0.000301409 	15.3597 	21795.5 	9907.78 	11887.7 	
ZONE T = "t = 3e-08 [s]" I = 10 SOLUTIONTIME = 3.0000000000000E-08
0.00127 	1.97052e-08 	0.92 	0.04 	0.04 	0.0291657 	3.80017 	
3.77101 	3.97141 	-0.200405 	-1.66723 	1.47052e-07 	29.2103 	0.833613 	
8.35714e-11 	7244.08 	123.46 	141.616 	0.35 	6.604 	-0.252457 	3.38667e-05 	
0.000900955 	0.000600637 	0.000651406 	21713.5 	0.0867269 	0.0530419 	21713.4 	9865.78 	11847.6 	
0.00133773 	1.73892e-08 	0.92 	0.04 	0.04 	0.0291654 	3.80017 	
3.77101 	3.97141 	-0.200407 	-3.33458 	1.29772e-07 	26.7094 	3.33452 	
1.67149e-10 	14488.2 	246.919 	283.231 	0.35 	13.208 	-0.252467 	6.77333e-05 	
0.00180191 	0.00120127 	0.000651439 	21714.6 	0.0771343 	0.265222 	21714.3 	9866.25 	11848.1 	
0.00140547 	1.5073e-08 	0.92 	0.04 	0.04 	0.0291653 	3.80017 	
3.771 	3.97141 	-0.200414 	-3.33499 	1.12489e-07 	23.3747 	6.6693 	
1.6717e-10 	14488.2 	246.919 	283.231 	0.35 	13.208 	-0.252497 	6.77333e-05 	
0.00180191 	0.00120127 	0.000651547 	21718.2 	0.0591458 	0.901829 	21717.3 	9867.76 	11849.5 	
0.0014732 	1.27571e-08 	0.92 	0.04 	0.04 	0.0291651 	3.80016 	
3.77099 	3.97141 	-0.200424 	-3.33568 	9.52035e-08 	20.0393 	10.0046 	
1.67204e-10 	14488.2 	246.919 	283.231 	0.35 	13.208 	-0.25255 	6.77333e-05 	
0.00180191 	0.00120127 	0.000651729 	21724.3 	0.0435505 	1.96307 	21722.3 	9870.33 	11852 	
0.00154093 	1.04397e-08 	0.92 	0.04 	0.04 	0.029165 	3.80014 	
3.77098 	3.97141 	-0.200439 	-3.33665 	7.79125e-08 	16.7032 	13.3408 	
1.67253e-10 	14488.2 	246.919 	283.231 	0.35 	13.208 	-0.252623 	6.77333e-05 	
0.00180191 	0.00120127 	0.000651985 	21732.8 	0.0303485 	3.44931 	21729.3 	9873.94 	11855.4 	
0.00160867 	8.12188e-09 	0.92 	0.04 	0.04 	0.0291649 	3.80012 	
3.77096 	3.97141 	-0.200458 	-3.3379 	6.06151e-08 	13.3659 	16.6781 	
1.67316e-10 	14488.2 	246.919 	283.231 	0.35 	13.208 	-0.252718 	6.77333e-05 	
0.00180191 	0.00120127 	0.000652315 	21743.8 	0.0195409 	5.36104 	21738.5 	9878.6 	11859.9 	
0.0016764 	5.80295e-09 	0.92 	0.04 	0.04 	0.0291648 	3.8001 	
3.77093 	3.97141 	-0.200482 	-3.33944 	4.33097e-08 	10.0272 	20.0167 	
1.67393e-10 	14488.2 	246.919 	283.231 	0.35 	13.208 	-0.252835 	6.77333e-05 	
0.00180191 	0.00120127 	0.00065272 	21757.3 	0.0111293 	7.69889 	21749.6 	9884.31 	11865.3 	
0.00174413 	3.48349e-09 	0.92 	0.04 	0.04 	0.0291647 	3.80007 	
3.7709 	3.97141 	-0.20051 	-3.34126 	2.59948e-08 	6.68687 	23.3571 	
1.67484e-10 	14488.2 	246.919 	283.231 	0.35 	13.208 	-0.252972 	6.77333e-05 	
0.00180191 	0.00120127 	0.0006532 	21773.3 	0.00511646 	10.4637 	21762.9 	9891.08 	11871.8 	
0.00181187 	1.1622e-09 	0.92 	0.04 	0.04 	0.0291647 	3.80004 	
3.77087 	3.97141 	-0.200542 	-3.34336 	8.66906e-09 	3.34456 	26.6994 	
1.67589e-10 	14488.2 	246.919 	283.231 	0.35 	13.208 	-0.253132 	6.77333e-05 	
0.00180191 	0.00120127 	0.000653754 	21791.8 	0.00150575 	13.6563 	21778.2 	9898.9 	11879.3 	
0.0018796 	7.26415e-13 	0.92 	0.04 	0.04 	0.0291647 	3.8 	
3.77084 	3.97141 	-0.200579 	-1.67287 	8.66906e-09 	0.836437 	29.2075 	
8.38545e-11 	7244.08 	123.46 	141.616 	0.35 	6.604 	-0.253312 	3.38667e-05 	
0.000900955 	0.000600637 	0.000654326 	21810.9 	0.000301409 	15.3597 	21795.5 	9907.78 	11887.7 	
ZONE T = "t = 4e-08 [s]" I = 10 SOLUTIONTIME = 4.0000000000000E-08
0.00127 	1.97046e-08 	0.92 	0.04 	0.04 	0.0291657 	3.80017 	
3.77101 	3.97141 	-0.200405 	-1.66723 	1.47052e-07 	29.2103 	0.833613 	
1.25357e-10 	7244.08 	123.46 	141.616 	0.35 	6.604 	-0.252457 	3.38667e-05 	
0.000900955 	0.000600637 	0.000868541 	21713.5 	0.0867269 	0.0530419 	21713.4 	9865.78 	11847.6 	
0.00133773 	1.73894e-08 	0.92 	0.04 	0.04 	0.0291654 	3.80017 	
3.77101 	3.97141 	-0.200407 	-3.33458 	1.29772e-07 	26.7094 	3.33452 	
2.50724e-10 	14488.2 	246.919 	283.231 	0.35 	13.208 	-0.252467 	6.77333e-05 	
0.00180191 	0.00120127 	0.000868586 	21714.6 	0.0771343 	0.265222 	21714.3 	9866.25 	11848.1 	
0.00140547 	1.50739e-08 	0.92 	0.04 	0.04 	0.0291653 	3.80017 	
3.771 	3.97141 	-0.200414 	-3.33499 	1.12489e-07 	23.3747 	6.6693 	
2.50754e-10 	14488.2 	246.919 	283.231 	0.35 	13.208 	-0.252497 	6.77333e-05 	
0.00180191 	0.00120127 	0.000868729 	21718.2 	0.0591458 	0.901829 	21717.3 	9867.76 	11849.5 	
0.0014732 	1.27573e-08 	0.92 	0.04 	0.04 	0.0291651 	3.80016 	
3.77099 	3.97141 	-0.200424 	-3.33568 	9.52035e-08 	20.0393 	10.0046 	
2.50806e-10 	14488.2 	246.919 	283.231 	0.35 	13.208 	-0.25255 	6.77333e-05 	
0.00180191 	0.00120127 	0.000868971 	21724.3 	0.0435505 	1.96307 	21722.3 	9870.33 	11852 	
0.00154093 	1.04406e-08 	0.92 	0.04 	0.04 	0.029165 	3.80014 	
3.77098 	3.97141 	-0.200439 	-3.33665 	7.79125e-08 	16.7032 	13.3408 	
2.50879e-10 	14488.2 	246.919 	283.231 	0.35 	13.208 	-0.252623 	6.77333e-05 	
0.00180191 	0.00120127 	0.000869313 	21732.8 	0.0303485 	3.44931 	21729.3 	9873.94 	11855.4 	
0.00160867 	8.12278e-09 	0.92 	0.04 	0.04 	0.0291649 	3.80012 	
3.77096 	3.97141 	-0.200458 	-3.3379 	6.06151e-08 	13.3659 	16.6781 	
2.50974e-10 	14488.2 	246.919 	283.231 	0.35 	13.208 	-0.252718 	6.77333e-05 	
0.00180191 	0.00120127 	0.000869754 	21743.8 	0.0195409 	5.36104 	21738.5 	9878.6 	11859.9 	
0.0016764 	5.80386e-09 	0.92 	0.04 	0.04 	0.0291648 	3.8001 	
3.77093 	3.97141 	-0.200482 	-3.33944 	4.33097e-08 	10.0272 	20.0167 	
2.51089e-10 	14488.2 	246.919 	283.231 	0.35 	13.208 	-0.252835 	6.77333e-05 	
0.00180191 	0.00120127 	0.000870294 	21757.3 	0.0111293 	7.69889 	21749.6 	9884.31 	11865.3 	
0.00174413 	3.4833e-09 	0.92 	0.04 	0.04 	0.0291647 	3.80007 	
3.7709 	3.97141 	-0.20051 	-3.34126 	2.59948e-08 	6.68687 	23.3571 	
2.51226e-10 	14488.2 	246.919 	283.231 	0.35 	13.208 	-0.252972 	6.77333e-05 	
0.00180191 	0.00120127 	0.000870933 	21773.3 	0.00511646 	10.4637 	21762.9 	9891.08 	11871.8 	
0.00181187 	1.16202e-09 	0.92 	0.04 	0.04 	0.0291647 	3.80004 	
3.77087 	3.97141 	-0.200542 	-3.34336 	8.66906e-09 	3.34456 	26.6994 	
2.51384e-10 	14488.2 	246.919 	283.231 	0.35 	13.208 	-0.253132 	6.77333e-05 	
0.00180191 	0.00120127 	0.000871673 	21791.8 	0.00150575 	13.6563 	21778.2 	9898.9 	11879.3 	
0.0018796 	5.44812e-13 	0.92 	0.04 	0.04 	0.0291647 	3.8 	
3.77084 	3.97141 	-0.200579 	-1.67287 	8.66906e-09 	0.836437 	29.2075 	
1.25782e-10 	7244.08 	123.46 	141.616 	0.35 	6.604 	-0.253312 	3.38667e-05 	
0.000900955 	0.000600637 	0.000872435 	21810.9 	0.000301409 	15.3597 	21795.5 	9907.78 	11887.7 	
ZONE T = "t = 5.5e-08 [s]" I = 10 SOLUTIONTIME = 5.5000000000000E-08
0.00127 	1.97076e-08 	0.92 	0.04 	0.04 	0.0291657 	3.80017 	
3.77101 	3.97141 	-0.200405 	-1.66723 	1.47053e-07 	29.2103 	0.833613 	
1.67143e-10 	7244.08 	123.46 	141.616 	0.35 	6.604 	-0.252457 	3.38667e-05 	
0.000900955 	0.000600637 	0.00119424 	21713.5 	0.0867269 	0.0530419 	21713.4 	9865.78 	11847.6 	
0.00133773 	1.73916e-08 	0.92 	0.04 	0.04 	0.0291654 	3.80017 	
3.77101 	3.97141 	-0.200407 	-3.33458 	1.29772e-07 	26.7094 	3.33452 	
3.34298e-10 	14488.2 	246.919 	283.231 	0.35 	13.208 	-0.252467 	6.77333e-05 	
0.00180191 	0.00120127 	0.00119431 	21714.6 	0.0771343 	0.265222 	21714.3 	9866.25 	11848.1 	
0.00140547 	1.50758e-08 	0.92 	0.04 	0.04 	0.0291653 	3.80017 	
3.771 	3.97141 	-0.200414 	-3.33499 	1.12489e-07 	23.3747 	6.6693 	
3.34339e-10 	14488.2 	246.919 	283.231 	0.35 	13.208 	-0.252497 	6.77333e-05 	
0.00180191 	0.00120127 	0.0011945 	21718.2 	0.0591458 	0.901829 	21717.3 	9867.76 	11849.5 	
0.0014732 	1.27594e-08 	0.92 	0.04 	0.04 	0.0291651 	3.80016 	
3.77099 	3.97141 	-0.200424 	-3.33568 	9.52035e-08 	20.0393 	10.0046 	
3.34408e-10 	14488.2 	246.919 	283.231 	0.35 	13.208 	-0.25255 	6.77333e-05 	
0.00180191 	0.00120127 	0.00119484 	21724.3 	0.0435505 	1.96307 	21722.3 	9870.33 	11852 	
0.00154093 	1.0442e-08 	0.92 	0.04 	0.04 	0.029165 	3.80014 	
3.77098 	3.97141 	-0.200439 	-3.33665 	7.79125e-08 	16.7032 	13.3408 	
3.34506e-10 	14488.2 	246.919 	283.231 	0.35 	13.208 	-0.252623 	6.77333e-05 	
0.00180191 	0.00120127 	0.00119531 	21732.8 	0.0303485 	3.44931 	21729.3 	9873.94 	11855.4 	
0.00160867 	8.12387e-09 	0.92 	0.04 	0.04 	0.0291649 	3.80012 	
3.77096 	3.97141 	-0.200458 	-3.3379 	6.06151e-08 	13.3659 	16.6781 	
3.34631e-10 	14488.2 	246.919 	283.231 	0.35 	13.208 	-0.252718 	6.77333e-05 	
0.00180191 	0.00120127 	0.00119591 	21743.8 	0.0195409 	5.36104 	21738.5 	9878.6 	11859.9 	
0.0016764 	5.80471e-09 	0.92 	0.04 	0.04 	0.0291648 	3.8001 	
3.77093 	3.97141 	-0.200482 	-3.33944 	4.33097e-08 	10.0272 	20.0167 	
3.34785e-10 	14488.2 	246.919 	283.231 	0.35 	13.208 	-0.252835 	6.77333e-05 	
0.00180191 	0.00120127 	0.00119665 	21757.3 	0.0111293 	7.69889 	21749.6 	9884.31 	11865.3 	
0.00174413 	3.48476e-09 	0.92 	0.04 	0.04 	0.0291647 	3.80007 	
3.7709 	3.97141 	-0.20051 	-3.34126 	2.59948e-08 	6.68687 	23.3571 	
3.34968e-10 	14488.2 	246.919 	283.231 	0.35 	13.208 	-0.252972 	6.77333e-05 	
0.00180191 	0.00120127 	0.00119753 	21773.3 	0.00511646 	10.4637 	21762.9 	9891.08 	11871.8 	
0.00181187 	1.16286e-09 	0.92 	0.04 	0.04 	0.0291647 	3.80004 	
3.77087 	3.97141 	-0.200542 	-3.34336 	8.66906e-09 	3.34456 	26.6994 	
3.35179e-10 	14488.2 	246.919 	283.231 	0.35 	13.208 	-0.253132 	6.77333e-05 	
0.00180191 	0.00120127 	0.00119855 	21791.8 	0.00150575 	13.6563 	21778.2 	9898.9 	11879.3 	
0.0018796 	8.47485e-13 	0.92 	0.04 	0.04 	0.0291647 	3.8 	
3.77084 	3.97141 	-0.200579 	-1.67287 	8.66906e-09 	0.836437 	29.2075 	
1.67709e-10 	7244.08 	123.46 	141.616 	0.35 	6.604 	-0.253312 	3.38667e-05 	
0.000900955 	0.000600637 	0.0011996 	21810.9 	0.000301409 	15.3597 	21795.5 	9907.78 	11887.7 	
ZONE T = "t = 7.75e-08 [s]" I = 10 SOLUTIONTIME = 7.7500000000000E-08
0.00127 	1.97033e-08 	0.92 	0.04 	0.04 	0.0291657 	3.80017 	
3.77101 	3.97141 	-0.200405 	-1.66723 	1.47053e-07 	29.2103 	0.833613 	
2.29821e-10 	7244.08 	123.46 	141.616 	0.35 	6.604 	-0.252457 	3.38667e-05 	
0.000900955 	0.000600637 	0.0016828 	21713.5 	0.0867269 	0.0530419 	21713.4 	9865.78 	11847.6 	
0.00133773 	1.7388e-08 	0.92 	0.04 	0.04 	0.0291654 	3.80017 	
3.77101 	3.97141 	-0.200407 	-3.33458 	1.29772e-07 	26.7094 	3.33452 	
4.5966e-10 	14488.2 	246.919 	283.231 	0.35 	13.208 	-0.252467 	6.77333e-05 	
0.00180191 	0.00120127 	0.00168288 	21714.6 	0.0771343 	0.265222 	21714.3 	9866.25 	11848.1 	
0.00140547 	1.50722e-08 	0.92 	0.04 	0.04 	0.0291653 	3.80017 	
3.771 	3.97141 	-0.200414 	-3.33499 	1.12489e-07 	23.3747 	6.6693 	
4.59716e-10 	14488.2 	246.919 	283.231 	0.35 	13.208 	-0.252497 	6.77333e-05 	
0.00180191 	0.00120127 	0.00168316 	21718.2 	0.0591458 	0.901829 	21717.3 	9867.76 	11849.5 	
0.0014732 	1.27561e-08 	0.92 	0.04 	0.04 	0.0291651 	3.80016 	
3.77099 	3.97141 	-0.200424 	-3.33568 	9.52035e-08 	20.0393 	10.0046 	
4.59811e-10 	14488.2 	246.919 	283.231 	0.35 	13.208 	-0.25255 	6.77333e-05 	
0.00180191 	0.00120127 	0.00168363 	21724.3 	0.0435505 	1.96307 	21722.3 	9870.33 	11852 	
0.00154093 	1.04394e-08 	0.92 	0.04 	0.04 	0.029165 	3.80014 	
3.77098 	3.97141 	-0.200439 	-3.33665 	7.79125e-08 	16.7032 	13.3408 	
4.59945e-10 	14488.2 	246.919 	283.231 	0.35 	13.208 	-0.252623 	6.77333e-05 	
0.00180191 	0.00120127 	0.00168429 	21732.8 	0.0303485 	3.44931 	21729.3 	9873.94 	11855.4 	
0.00160867 	8.12169e-09 	0.92 	0.04 	0.04 	0.0291649 	3.80012 	
3.77096 	3.97141 	-0.200458 	-3.3379 	6.06151e-08 	13.3659 	16.6781 	
4.60118e-10 	14488.2 	246.919 	283.231 	0.35 	13.208 	-0.252718 	6.77333e-05 	
0.00180191 	0.00120127 	0.00168515 	21743.8 	0.0195409 	5.36104 	21738.5 	9878.6 	11859.9 	
0.0016764 	5.80277e-09 	0.92 	0.04 	0.04 	0.0291648 	3.8001 	
3.77093 	3.97141 	-0.200482 	-3.33944 	4.33097e-08 	10.0272 	20.0167 	
4.6033e-10 	14488.2 	246.919 	283.231 	0.35 	13.208 	-0.252835 	6.77333e-05 	
0.00180191 	0.00120127 	0.00168619 	21757.3 	0.0111293 	7.69889 	21749.6 	9884.31 	11865.3 	
0.00174413 	3.48242e-09 	0.92 	0.04 	0.04 	0.0291647 	3.80007 	
3.7709 	3.97141 	-0.20051 	-3.34126 	2.59948e-08 	6.68687 	23.3571 	
4.60581e-10 	14488.2 	246.919 	283.231 	0.35 	13.208 	-0.252972 	6.77333e-05 	
0.00180191 	0.00120127 	0.00168743 	21773.3 	0.00511646 	10.4637 	21762.9 	9891.08 	11871.8 	
0.00181187 	1.16077e-09 	0.92 	0.04 	0.04 	0.0291647 	3.80004 	
3.77087 	3.97141 	-0.200542 	-3.34336 	8.66906e-09 	3.34456 	26.6994 	
4.60871e-10 	14488.2 	246.919 	283.231 	0.35 	13.208 	-0.253132 	6.77333e-05 	
0.00180191 	0.00120127 	0.00168887 	21791.8 	0.00150575 	13.6563 	21778.2 	9898.9 	11879.3 	
0.0018796 	-8.87841e-13 	0.92 	0.04 	0.04 	0.0291647 	3.8 	
3.77084 	3.97141 	-0.200579 	-1.67287 	8.66906e-09 	0.836437 	29.2075 	
2.306e-10 	7244.08 	123.46 	141.616 	0.35 	6.604 	-0.253312 	3.38667e-05 	
0.000900955 	0.000600637 	0.00169034 	21810.9 	0.000301409 	15.3597 	21795.5 	9907.78 	11887.7 	
ZONE T = "t = 1.1125e-07 [s]" I = 10 SOLUTIONTIME = 1.1125000000000E-07
0.00127 	1.9705e-08 	0.92 	0.04 	0.04 	0.0291657 	3.80017 	
3.77101 	3.97141 	-0.200405 	-1.66723 	1.47053e-07 	29.2103 	0.833613 	
3.23839e-10 	7244.08 	123.46 	141.616 	0.35 	6.604 	-0.252457 	3.38667e-05 	
0.000900955 	0.000600637 	0.00241563 	21713.5 	0.0867269 	0.0530419 	21713.4 	9865.78 	11847.6 	
0.00133773 	1.73894e-08 	0.92 	0.04 	0.04 	0.0291654 	3.80017 	
3.77101 	3.97141 	-0.200407 	-3.33458 	1.29772e-07 	26.7094 	3.33452 	
6.47703e-10 	14488.2 	246.919 	283.231 	0.35 	13.208 	-0.252467 	6.77333e-05 	
0.00180191 	0.00120127 	0.00241575 	21714.6 	0.0771343 	0.265222 	21714.3 	9866.25 	11848.1 	
0.00140547 	1.50734e-08 	0.92 	0.04 	0.04 	0.0291653 	3.80017 	
3.771 	3.97141 	-0.200414 	-3.33499 	1.12489e-07 	23.3747 	6.6693 	
6.47782e-10 	14488.2 	246.919 	283.231 	0.35 	13.208 	-0.252497 	6.77333e-05 	
0.00180191 	0.00120127 	0.00241615 	21718.2 	0.0591458 	0.901829 	21717.3 	9867.76 	11849.5 	
0.0014732 	1.27571e-08 	0.92 	0.04 	0.04 	0.0291651 	3.80016 	
3.77099 	3.97141 	-0.200424 	-3.33568 	9.52035e-08 	20.0393 	10.0046 	
6.47916e-10 	14488.2 	246.919 	283.231 	0.35 	13.208 	-0.25255 	6.77333e-05 	
0.00180191 	0.00120127 	0.00241683 	21724.3 	0.0435505 	1.96307 	21722.3 	9870.33 	11852 	
0.00154093 	1.04401e-08 	0.92 	0.04 	0.04 	0.029165 	3.80014 	
3.77098 	3.97141 	-0.200439 	-3.33665 	7.79125e-08 	16.7032 	13.3408 	
6.48105e-10 	14488.2 	246.919 	283.231 	0.35 	13.208 	-0.252623 	6.77333e-05 	
0.00180191 	0.00120127 	0.00241778 	21732.8 	0.0303485 	3.44931 	21729.3 	9873.94 	11855.4 	
0.00160867 	8.12226e-09 	0.92 	0.04 	0.04 	0.0291649 	3.80012 	
3.77096 	3.97141 	-0.200458 	-3.3379 	6.06151e-08 	13.3659 	16.6781 	
6.48348e-10 	14488.2 	246.919 	283.231 	0.35 	13.208 	-0.252718 	6.77333e-05 	
0.00180191 	0.00120127 	0.002419 	21743.8 	0.0195409 	5.36104 	21738.5 	9878.6 	11859.9 	
0.0016764 	5.80333e-09 	0.92 	0.04 	0.04 	0.0291648 	3.8001 	
3.77093 	3.97141 	-0.200482 	-3.33944 	4.33097e-08 	10.0272 	20.0167 	
6.48647e-10 	14488.2 	246.919 	283.231 	0.35 	13.208 	-0.252835 	6.77333e-05 	
0.00180191 	0.00120127 	0.0024205 	21757.3 	0.0111293 	7.69889 	21749.6 	9884.31 	11865.3 	
0.00174413 	3.48304e-09 	0.92 	0.04 	0.04 	0.0291647 	3.80007 	
3.7709 	3.97141 	-0.20051 	-3.34126 	2.59948e-08 	6.68687 	23.3571 	
6.49e-10 	14488.2 	246.919 	283.231 	0.35 	13.208 	-0.252972 	6.77333e-05 	
0.00180191 	0.00120127 	0.00242228 	21773.3 	0.00511646 	10.4637 	21762.9 	9891.08 	11871.8 	
0.00181187 	1.16139e-09 	0.92 	0.04 	0.04 	0.0291647 	3.80004 	
3.77087 	3.97141 	-0.200542 	-3.34336 	8.66906e-09 	3.34456 	26.6994 	
6.49409e-10 	14488.2 	246.919 	283.231 	0.35 	13.208 	-0.253132 	6.77333e-05 	
0.00180191 	0.00120127 	0.00242434 	21791.8 	0.00150575 	13.6563 	21778.2 	9898.9 	11879.3 	
0.0018796 	-1.61426e-13 	0.92 	0.04 	0.04 	0.0291647 	3.8 	
3.77084 	3.97141 	-0.200579 	-1.67287 	8.66906e-09 	0.836437 	29.2075 	
3.24936e-10 	7244.08 	123.46 	141.616 	0.35 	6.604 	-0.253312 	3.38667e-05 	
0.000900955 	0.000600637 	0.00242646 	21810.9 	0.000301409 	15.3597 	21795.5 	9907.78 	11887.7 	
ZONE T = "t = 1.61875e-07 [s]" I = 10 SOLUTIONTIME = 1.6187500000000E-07
0.00127 	1.9706e-08 	0.92 	0.04 	0.04 	0.0291657 	3.80017 	
3.77101 	3.97141 	-0.200405 	-1.66723 	1.47053e-07 	29.2103 	0.833613 	
4.64866e-10 	7244.08 	123.46 	141.616 	0.35 	6.604 	-0.252457 	3.38667e-05 	
0.000900955 	0.000600637 	0.00351488 	21713.5 	0.0867269 	0.0530419 	21713.4 	9865.78 	11847.6 	
0.00133773 	1.73905e-08 	0.92 	0.04 	0.04 	0.0291654 	3.80017 	
3.77101 	3.97141 	-0.200407 	-3.33458 	1.29772e-07 	26.7094 	3.33452 	
9.29767e-10 	14488.2 	246.919 	283.231 	0.35 	13.208 	-0.252467 	6.77333e-05 	
0.00180191 	0.00120127 	0.00351506 	21714.6 	0.0771343 	0.265222 	21714.3 	9866.25 	11848.1 	
0.00140547 	1.50748e-08 	0.92 	0.04 	0.04 	0.0291653 	3.80017 	
3.771 	3.97141 	-0.200414 	-3.33499 	1.12489e-07 	23.3747 	6.6693 	
9.29881e-10 	14488.2 	246.919 	283.231 	0.35 	13.208 	-0.252497 	6.77333e-05 	
0.00180191 	0.00120127 	0.00351564 	21718.2 	0.0591458 	0.901829 	21717.3 	9867.76 	11849.5 	
0.0014732 	1.27584e-08 	0.92 	0.04 	0.04 	0.0291651 	3.80016 	
3.77099 	3.97141 	-0.200424 	-3.33568 	9.52035e-08 	20.0393 	10.0046 	
9.30073e-10 	14488.2 	246.919 	283.231 	0.35 	13.208 	-0.25255 	6.77333e-05 	
0.00180191 	0.00120127 	0.00351662 	21724.3 	0.0435505 	1.96307 	21722.3 	9870.33 	11852 	
0.00154093 	1.04413e-08 	0.92 	0.04 	0.04 	0.029165 	3.80014 	
3.77098 	3.97141 	-0.200439 	-3.33665 	7.79125e-08 	16.7032 	13.3408 	
9.30344e-10 	14488.2 	246.919 	283.231 	0.35 	13.208 	-0.252623 	6.77333e-05 	
0.00180191 	0.00120127 	0.003518 	21732.8 	0.0303485 	3.44931 	21729.3 	9873.94 	11855.4 	
0.00160867 	8.12339e-09 	0.92 	0.04 	0.04 	0.0291649 	3.80012 	
3.77096 	3.97141 	-0.200458 	-3.3379 	6.06151e-08 	13.3659 	16.6781 	
9.30693e-10 	14488.2 	246.919 	283.231 	0.35 	13.208 	-0.252718 	6.77333e-05 	
0.00180191 	0.00120127 	0.00351978 	21743.8 	0.0195409 	5.36104 	21738.5 	9878.6 	11859.9 	
0.0016764 	5.80461e-09 	0.92 	0.04 	0.04 	0.0291648 	3.8001 	
3.77093 	3.97141 	-0.200482 	-3.33944 	4.33097e-08 	10.0272 	20.0167 	
9.31122e-10 	14488.2 	246.919 	283.231 	0.35 	13.208 	-0.252835 	6.77333e-05 	
0.00180191 	0.00120127 	0.00352197 	21757.3 	0.0111293 	7.69889 	21749.6 	9884.31 	11865.3 	
0.00174413 	3.48427e-09 	0.92 	0.04 	0.04 	0.0291647 	3.80007 	
3.7709 	3.97141 	-0.20051 	-3.34126 	2.59948e-08 	6.68687 	23.3571 	
9.31629e-10 	14488.2 	246.919 	283.231 	0.35 	13.208 	-0.252972 	6.77333e-05 	
0.00180191 	0.00120127 	0.00352456 	21773.3 	0.00511646 	10.4637 	21762.9 	9891.08 	11871.8 	
0.00181187 	1.16255e-09 	0.92 	0.04 	0.04 	0.0291647 	3.80004 	
3.77087 	3.97141 	-0.200542 	-3.34336 	8.66906e-09 	3.34456 	26.6994 	
9.32216e-10 	14488.2 	246.919 	283.231 	0.35 	13.208 	-0.253132 	6.77333e-05 	
0.00180191 	0.00120127 	0.00352755 	21791.8 	0.00150575 	13.6563 	21778.2 	9898.9 	11879.3 	
0.0018796 	8.60937e-13 	0.92 	0.04 	0.04 	0.0291647 	3.8 	
3.77084 	3.97141 	-0.200579 	-1.67287 	8.66906e-09 	0.836437 	29.2075 	
4.66441e-10 	7244.08 	123.46 	141.616 	0.35 	6.604 	-0.253312 	3.38667e-05 	
0.000900955 	0.000600637 	0.00353064 	21810.9 	0.000301409 	15.3597 	21795.5 	9907.78 	11887.7 	
ZONE T = "t = 2.37813e-07 [s]" I = 10 SOLUTIONTIME = 2.3781250000000E-07
0.00127 	1.97049e-08 	0.92 	0.04 	0.04 	0.0291657 	3.80017 	
3.77101 	3.97141 	-0.200405 	-1.66723 	1.47054e-07 	29.2103 	0.833613 	
6.76406e-10 	7244.08 	123.46 	141.616 	0.35 	6.604 	-0.252457 	3.38667e-05 	
0.000900955 	0.000600637 	0.00516375 	21713.5 	0.0867269 	0.0530419 	21713.4 	9865.78 	11847.6 	