TITLE = "Solution on Domain BulkDomain1D_1"
VARIABLES = "x [m]"  
"Vel_axial" 	"MF_sp(ECDMC)" 	"MF_sp(Li+)" 	"MF_sp(PF6-)" 	"Volt(Electroly)" 	"qHeat_accum [J/m3]" 	"qHeat_step [W/m3]" 	"Joule_Lyte [W/m3]" 	"Joule_Solid [W/m3]" 	
ZONE T = "t = 0 [s]" I = 10 SOLUTIONTIME = 0.0000000000000E+00
0.0007874 	0 	0.92 	0.04 	0.04 	-0.07 	
0 	0.0 	 0.0 	 0.0 	 
0.000841022 	0 	0.92 	0.04 	0.04 	-0.07 	
0 	0.0 	 0.0 	 0.0 	 
0.000894644 	0 	0.92 	0.04 	0.04 	-0.07 	
0 	0.0 	 0.0 	 0.0 	 
0.000948267 	0 	0.92 	0.04 	0.04 	-0.07 	
0 	0.0 	 0.0 	 0.0 	 
0.00100189 	0 	0.92 	0.04 	0.04 	-0.07 	
0 	0.0 	 0.0 	 0.0 	 
0.00105551 	0 	0.92 	0.04 	0.04 	-0.07 	
0 	0.0 	 0.0 	 0.0 	 
0.00110913 	0 	0.92 	0.04 	0.04 	-0.07 	
0 	0.0 	 0.0 	 0.0 	 
0.00116276 	0 	0.92 	0.04 	0.04 	-0.07 	
0 	0.0 	 0.0 	 0.0 	 
0.00121638 	0 	0.92 	0.04 	0.04 	-0.07 	
0 	0.0 	 0.0 	 0.0 	 
0.00127 	0 	0.92 	0.04 	0.04 	-0.07 	
0 	0.0 	 0.0 	 0.0 	 
ZONE T = "t = 0 [s]" I = 10 SOLUTIONTIME = 0.0000000000000E+00
0.0007874 	0 	0.92 	0.04 	0.04 	-0.07 	
0 	0.0 	 0.0 	 0.0 	 
0.000841022 	0 	0.92 	0.04 	0.04 	-0.07 	
0 	0.0 	 0.0 	 0.0 	 
0.000894644 	0 	0.92 	0.04 	0.04 	-0.07 	
0 	0.0 	 0.0 	 0.0 	 
0.000948267 	0 	0.92 	0.04 	0.04 	-0.07 	
0 	0.0 	 0.0 	 0.0 	 
0.00100189 	0 	0.92 	0.04 	0.04 	-0.07 	
0 	0.0 	 0.0 	 0.0 	 
0.00105551 	0 	0.92 	0.04 	0.04 	-0.07 	
0 	0.0 	 0.0 	 0.0 	 
0.00110913 	0 	0.92 	0.04 	0.04 	-0.07 	
0 	0.0 	 0.0 	 0.0 	 
0.00116276 	0 	0.92 	0.04 	0.04 	-0.07 	
0 	0.0 	 0.0 	 0.0 	 
0.00121638 	0 	0.92 	0.04 	0.04 	-0.07 	
0 	0.0 	 0.0 	 0.0 	 
0.00127 	0 	0.92 	0.04 	0.04 	-0.07 	
0 	0.0 	 0.0 	 0.0 	 
ZONE T = "t = 1e-08 [s]" I = 10 SOLUTIONTIME = 1.0000000000000E-08
0.0007874 	2.08588e-08 	0.92 	0.04 	0.04 	0.0291661 	
2.76584e-10 	0.0276584 	0.0276584 	0 	
0.000841022 	2.08588e-08 	0.92 	0.04 	0.04 	0.029166 	
2.76584e-10 	0.0276584 	0.0276584 	0 	
0.000894644 	2.08588e-08 	0.92 	0.04 	0.04 	0.029166 	
2.76584e-10 	0.0276584 	0.0276584 	0 	
0.000948267 	2.08588e-08 	0.92 	0.04 	0.04 	0.0291659 	
2.76584e-10 	0.0276584 	0.0276584 	0 	
0.00100189 	2.08588e-08 	0.92 	0.04 	0.04 	0.0291659 	
2.76584e-10 	0.0276584 	0.0276584 	0 	
0.00105551 	2.08588e-08 	0.92 	0.04 	0.04 	0.0291659 	
2.76584e-10 	0.0276584 	0.0276584 	0 	
0.00110913 	2.08588e-08 	0.92 	0.04 	0.04 	0.0291658 	
2.76584e-10 	0.0276584 	0.0276584 	0 	
0.00116276 	2.08588e-08 	0.92 	0.04 	0.04 	0.0291658 	
2.76584e-10 	0.0276584 	0.0276584 	0 	
0.00121638 	2.08588e-08 	0.92 	0.04 	0.04 	0.0291657 	
2.76584e-10 	0.0276584 	0.0276584 	0 	
0.00127 	1.9701e-08 	0.92 	0.04 	0.04 	0.0291657 	
2.76584e-10 	0.0276584 	0.0276584 	0 	
ZONE T = "t = 2e-08 [s]" I = 10 SOLUTIONTIME = 2.0000000000000E-08
0.0007874 	2.08632e-08 	0.92 	0.04 	0.04 	0.0291661 	
5.53172e-10 	0.0276588 	0.0276588 	0 	
0.000841022 	2.08632e-08 	0.92 	0.04 	0.04 	0.0291661 	
5.53172e-10 	0.0276588 	0.0276588 	0 	
0.000894644 	2.08632e-08 	0.92 	0.04 	0.04 	0.029166 	
5.53172e-10 	0.0276588 	0.0276588 	0 	
0.000948267 	2.08632e-08 	0.92 	0.04 	0.04 	0.029166 	
5.53172e-10 	0.0276588 	0.0276588 	0 	
0.00100189 	2.08632e-08 	0.92 	0.04 	0.04 	0.0291659 	
5.53172e-10 	0.0276588 	0.0276588 	0 	
0.00105551 	2.08632e-08 	0.92 	0.04 	0.04 	0.0291659 	
5.53172e-10 	0.0276588 	0.0276588 	0 	
0.00110913 	2.08632e-08 	0.92 	0.04 	0.04 	0.0291658 	
5.53172e-10 	0.0276588 	0.0276588 	0 	
0.00116276 	2.08632e-08 	0.92 	0.04 	0.04 	0.0291658 	
5.53172e-10 	0.0276588 	0.0276588 	0 	
0.00121638 	2.08632e-08 	0.92 	0.04 	0.04 	0.0291657 	
5.53172e-10 	0.0276588 	0.0276588 	0 	
0.00127 	1.97055e-08 	0.92 	0.04 	0.04 	0.0291657 	
5.53172e-10 	0.0276588 	0.0276588 	0 	
ZONE T = "t = 3e-08 [s]" I = 10 SOLUTIONTIME = 3.0000000000000E-08
0.0007874 	2.08636e-08 	0.92 	0.04 	0.04 	0.0291661 	
8.29759e-10 	0.0276588 	0.0276588 	0 	
0.000841022 	2.08636e-08 	0.92 	0.04 	0.04 	0.0291661 	
8.29759e-10 	0.0276588 	0.0276588 	0 	
0.000894644 	2.08636e-08 	0.92 	0.04 	0.04 	0.029166 	
8.29759e-10 	0.0276588 	0.0276588 	0 	
0.000948267 	2.08636e-08 	0.92 	0.04 	0.04 	0.029166 	
8.29759e-10 	0.0276588 	0.0276588 	0 	
0.00100189 	2.08636e-08 	0.92 	0.04 	0.04 	0.0291659 	
8.29759e-10 	0.0276588 	0.0276588 	0 	
0.00105551 	2.08636e-08 	0.92 	0.04 	0.04 	0.0291659 	
8.29759e-10 	0.0276588 	0.0276588 	0 	
0.00110913 	2.08636e-08 	0.92 	0.04 	0.04 	0.0291658 	
8.29759e-10 	0.0276588 	0.0276588 	0 	
0.00116276 	2.08636e-08 	0.92 	0.04 	0.04 	0.0291658 	
8.29759e-10 	0.0276588 	0.0276588 	0 	
0.00121638 	2.08636e-08 	0.92 	0.04 	0.04 	0.0291657 	
8.29759e-10 	0.0276588 	0.0276588 	0 	
0.00127 	1.97052e-08 	0.92 	0.04 	0.04 	0.0291657 	
8.29759e-10 	0.0276588 	0.0276588 	0 	
ZONE T = "t = 4e-08 [s]" I = 10 SOLUTIONTIME = 4.0000000000000E-08
0.0007874 	2.08611e-08 	0.92 	0.04 	0.04 	0.0291661 	
1.10635e-09 	0.0276588 	0.0276588 	0 	
0.000841022 	2.08611e-08 	0.92 	0.04 	0.04 	0.0291661 	
1.10635e-09 	0.0276588 	0.0276588 	0 	
0.000894644 	2.08611e-08 	0.92 	0.04 	0.04 	0.029166 	
1.10635e-09 	0.0276588 	0.0276588 	0 	
0.000948267 	2.08611e-08 	0.92 	0.04 	0.04 	0.029166 	
1.10635e-09 	0.0276588 	0.0276588 	0 	
0.00100189 	2.08611e-08 	0.92 	0.04 	0.04 	0.0291659 	
1.10635e-09 	0.0276588 	0.0276588 	0 	
0.00105551 	2.08611e-08 	0.92 	0.04 	0.04 	0.0291659 	
1.10635e-09 	0.0276588 	0.0276588 	0 	
0.00110913 	2.08611e-08 	0.92 	0.04 	0.04 	0.0291658 	
1.10635e-09 	0.0276588 	0.0276588 	0 	
0.00116276 	2.08611e-08 	0.92 	0.04 	0.04 	0.0291658 	
1.10635e-09 	0.0276588 	0.0276588 	0 	
0.00121638 	2.08611e-08 	0.92 	0.04 	0.04 	0.0291657 	
1.10635e-09 	0.0276588 	0.0276588 	0 	
0.00127 	1.97046e-08 	0.92 	0.04 	0.04 	0.0291657 	
1.10635e-09 	0.0276588 	0.0276588 	0 	
ZONE T = "t = 5.5e-08 [s]" I = 10 SOLUTIONTIME = 5.5000000000000E-08
0.0007874 	2.08654e-08 	0.92 	0.04 	0.04 	0.0291661 	
1.52123e-09 	0.0276588 	0.0276588 	0 	
0.000841022 	2.08654e-08 	0.92 	0.04 	0.04 	0.0291661 	
1.52123e-09 	0.0276588 	0.0276588 	0 	
0.000894644 	2.08654e-08 	0.92 	0.04 	0.04 	0.029166 	
1.52123e-09 	0.0276588 	0.0276588 	0 	
0.000948267 	2.08654e-08 	0.92 	0.04 	0.04 	0.029166 	
1.52123e-09 	0.0276588 	0.0276588 	0 	
0.00100189 	2.08654e-08 	0.92 	0.04 	0.04 	0.0291659 	
1.52123e-09 	0.0276588 	0.0276588 	0 	
0.00105551 	2.08654e-08 	0.92 	0.04 	0.04 	0.0291659 	
1.52123e-09 	0.0276588 	0.0276588 	0 	
0.00110913 	2.08654e-08 	0.92 	0.04 	0.04 	0.0291658 	
1.52123e-09 	0.0276588 	0.0276588 	0 	
0.00116276 	2.08654e-08 	0.92 	0.04 	0.04 	0.0291658 	
1.52123e-09 	0.0276588 	0.0276588 	0 	
0.00121638 	2.08654e-08 	0.92 	0.04 	0.04 	0.0291657 	
1.52123e-09 	0.0276588 	0.0276588 	0 	
0.00127 	1.97076e-08 	0.92 	0.04 	0.04 	0.0291657 	
1.52123e-09 	0.0276588 	0.0276588 	0 	
ZONE T = "t = 7.75e-08 [s]" I = 10 SOLUTIONTIME = 7.7500000000000E-08
0.0007874 	2.08608e-08 	0.92 	0.04 	0.04 	0.0291661 	
2.14355e-09 	0.0276588 	0.0276588 	0 	
0.000841022 	2.08608e-08 	0.92 	0.04 	0.04 	0.0291661 	
2.14355e-09 	0.0276588 	0.0276588 	0 	
0.000894644 	2.08608e-08 	0.92 	0.04 	0.04 	0.029166 	
2.14355e-09 	0.0276588 	0.0276588 	0 	
0.000948267 	2.08608e-08 	0.92 	0.04 	0.04 	0.029166 	
2.14355e-09 	0.0276588 	0.0276588 	0 	
0.00100189 	2.08608e-08 	0.92 	0.04 	0.04 	0.0291659 	
2.14355e-09 	0.0276588 	0.0276588 	0 	
0.00105551 	2.08608e-08 	0.92 	0.04 	0.04 	0.0291659 	
2.14355e-09 	0.0276588 	0.0276588 	0 	
0.00110913 	2.08608e-08 	0.92 	0.04 	0.04 	0.0291658 	
2.14355e-09 	0.0276588 	0.0276588 	0 	
0.00116276 	2.08608e-08 	0.92 	0.04 	0.04 	0.0291658 	
2.14355e-09 	0.0276588 	0.0276588 	0 	
0.00121638 	2.08608e-08 	0.92 	0.04 	0.04 	0.0291657 	
2.14355e-09 	0.0276588 	0.0276588 	0 	
0.00127 	1.97033e-08 	0.92 	0.04 	0.04 	0.0291657 	
2.14355e-09 	0.0276588 	0.0276588 	0 	
ZONE T = "t = 1.1125e-07 [s]" I = 10 SOLUTIONTIME = 1.1125000000000E-07
0.0007874 	2.08628e-08 	0.92 	0.04 	0.04 	0.0291661 	
3.07703e-09 	0.0276588 	0.0276588 	0 	
0.000841022 	2.08628e-08 	0.92 	0.04 	0.04 	0.0291661 	
3.07703e-09 	0.0276588 	0.0276588 	0 	
0.000894644 	2.08628e-08 	0.92 	0.04 	0.04 	0.029166 	
3.07703e-09 	0.0276588 	0.0276588 	0 	
0.000948267 	2.08628e-08 	0.92 	0.04 	0.04 	0.029166 	
3.07703e-09 	0.0276588 	0.0276588 	0 	
0.00100189 	2.08628e-08 	0.92 	0.04 	0.04 	0.0291659 	
3.07703e-09 	0.0276588 	0.0276588 	0 	
0.00105551 	2.08628e-08 	0.92 	0.04 	0.04 	0.0291659 	
3.07703e-09 	0.0276588 	0.0276588 	0 	
0.00110913 	2.08628e-08 	0.92 	0.04 	0.04 	0.0291658 	
3.07703e-09 	0.0276588 	0.0276588 	0 	
0.00116276 	2.08628e-08 	0.92 	0.04 	0.04 	0.0291658 	
3.07703e-09 	0.0276588 	0.0276588 	0 	
0.00121638 	2.08628e-08 	0.92 	0.04 	0.04 	0.0291657 	
3.07703e-09 	0.0276588 	0.0276588 	0 	
0.00127 	1.9705e-08 	0.92 	0.04 	0.04 	0.0291657 	
3.07703e-09 	0.0276588 	0.0276588 	0 	
ZONE T = "t = 1.61875e-07 [s]" I = 10 SOLUTIONTIME = 1.6187500000000E-07
0.0007874 	2.08639e-08 	0.92 	0.04 	0.04 	0.0291661 	
4.47726e-09 	0.0276588 	0.0276588 	0 	
0.000841022 	2.08639e-08 	0.92 	0.04 	0.04 	0.0291661 	
4.47726e-09 	0.0276588 	0.0276588 	0 	
0.000894644 	2.08639e-08 	0.92 	0.04 	0.04 	0.029166 	
4.47726e-09 	0.0276588 	0.0276588 	0 	
0.000948267 	2.08639e-08 	0.92 	0.04 	0.04 	0.029166 	
4.47726e-09 	0.0276588 	0.0276588 	0 	
0.00100189 	2.08639e-08 	0.92 	0.04 	0.04 	0.0291659 	
4.47726e-09 	0.0276588 	0.0276588 	0 	
0.00105551 	2.08639e-08 	0.92 	0.04 	0.04 	0.0291659 	
4.47726e-09 	0.0276588 	0.0276588 	0 	
0.00110913 	2.08639e-08 	0.92 	0.04 	0.04 	0.0291658 	
4.47726e-09 	0.0276588 	0.0276588 	0 	
0.00116276 	2.08639e-08 	0.92 	0.04 	0.04 	0.0291658 	
4.47726e-09 	0.0276588 	0.0276588 	0 	
0.00121638 	2.08639e-08 	0.92 	0.04 	0.04 	0.0291657 	
4.47726e-09 	0.0276588 	0.0276588 	0 	
0.00127 	1.9706e-08 	0.92 	0.04 	0.04 	0.0291657 	
4.47726e-09 	0.0276588 	0.0276588 	0 	
ZONE T = "t = 2.37813e-07 [s]" I = 10 SOLUTIONTIME = 2.3781250000000E-07
0.0007874 	2.08626e-08 	0.92 	0.04 	0.04 	0.0291661 	
6.5776e-09 	0.0276588 	0.0276588 	0 	
0.000841022 	2.08627e-08 	0.92 	0.04 	0.04 	0.0291661 	
6.5776e-09 	0.0276588 	0.0276588 	0 	
0.000894644 	2.08627e-08 	0.92 	0.04 	0.04 	0.029166 	
6.5776e-09 	0.0276588 	0.0276588 	0 	
0.000948267 	2.08627e-08 	0.92 	0.04 	0.04 	0.029166 	
6.5776e-09 	0.0276588 	0.0276588 	0 	
0.00100189 	2.08627e-08 	0.92 	0.04 	0.04 	0.0291659 	
6.5776e-09 	0.0276588 	0.0276588 	0 	
0.00105551 	2.08627e-08 	0.92 	0.04 	0.04 	0.0291659 	
6.5776e-09 	0.0276588 	0.0276588 	0 	
0.00110913 	2.08627e-08 	0.92 	0.04 	0.04 	0.0291658 	
6.5776e-09 	0.0276588 	0.0276588 	0 	
0.00116276 	2.08627e-08 	0.92 	0.04 	0.04 	0.0291658 	
6.5776e-09 	0.0276588 	0.0276588 	0 	
0.00121638 	2.08626e-08 	0.92 	0.04 	0.04 	0.0291657 	
6.5776e-09 	0.0276588 	0.0276588 	0 	
0.00127 	1.97049e-08 	0.92 	0.04 	0.04 	0.0291657 	
6.5776e-09 	0.0276588 	0.0276588 	0 	
ZONE T = "t = 3.51719e-07 [s]" I = 10 SOLUTIONTIME = 3.5171875000000E-07
0.0007874 	2.08627e-08 	0.92 	0.04 	0.04 	0.0291661 	
9.7281e-09 	0.0276588 	0.0276588 	0 	
0.000841022 	2.08626e-08 	0.92 	0.04 	0.04 	0.0291661 	
9.7281e-09 	0.0276588 	0.0276588 	0 	
0.000894644 	2.08626e-08 	0.92 	0.04 	0.04 	0.029166 	
9.7281e-09 	0.0276588 	0.0276588 	0 	
0.000948267 	2.08626e-08 	0.92 	0.04 	0.04 	0.029166 	
9.7281e-09 	0.0276588 	0.0276588 	0 	
0.00100189 	2.08626e-08 	0.92 	0.04 	0.04 	0.0291659 	
9.7281e-09 	0.0276588 	0.0276588 	0 	
0.00105551 	2.08626e-08 	0.92 	0.04 	0.04 	0.0291659 	
9.7281e-09 	0.0276588 	0.0276588 	0 	
0.00110913 	2.08626e-08 	0.92 	0.04 	0.04 	0.0291658 	
9.7281e-09 	0.0276588 	0.0276588 	0 	
0.00116276 	2.08626e-08 	0.92 	0.04 	0.04 	0.0291658 	
9.7281e-09 	0.0276588 	0.0276588 	0 	
0.00121638 	2.08626e-08 	0.92 	0.04 	0.04 	0.0291657 	
9.7281e-09 	0.0276588 	0.0276588 	0 	
0.00127 	1.97049e-08 	0.92 	0.04 	0.04 	0.0291657 	
9.7281e-09 	0.0276588 	0.0276588 	0 	
ZONE T = "t = 5.22578e-07 [s]" I = 10 SOLUTIONTIME = 5.2257812500000E-07
0.0007874 	2.08628e-08 	0.92 	0.04 	0.04 	0.0291661 	
1.44539e-08 	0.0276588 	0.0276588 	0 	
0.000841022 	2.08628e-08 	0.92 	0.04 	0.04 	0.0291661 	
1.44539e-08 	0.0276588 	0.0276588 	0 	
0.000894644 	2.08628e-08 	0.92 	0.04 	0.04 	0.029166 	
1.44539e-08 	0.0276588 	0.0276588 	0 	
0.000948267 	2.08628e-08 	0.92 	0.04 	0.04 	0.029166 	
1.44539e-08 	0.0276588 	0.0276588 	0 	
0.00100189 	2.08628e-08 	0.92 	0.04 	0.04 	0.0291659 	
1.44539e-08 	0.0276588 	0.0276588 	0 	
0.00105551 	2.08628e-08 	0.92 	0.04 	0.04 	0.0291659 	
1.44539e-08 	0.0276588 	0.0276588 	0 	
0.00110913 	2.08628e-08 	0.92 	0.04 	0.04 	0.0291658 	
1.44539e-08 	0.0276588 	0.0276588 	0 	
0.00116276 	2.08628e-08 	0.92 	0.04 	0.04 	0.0291658 	
1.44539e-08 	0.0276588 	0.0276588 	0 	
0.00121638 	2.08629e-08 	0.92 	0.04 	0.04 	0.0291657 	
1.44539e-08 	0.0276588 	0.0276588 	0 	
0.00127 	1.97052e-08 	0.92 	0.04 	0.04 	0.0291657 	
1.44539e-08 	0.0276588 	0.0276588 	0 	
ZONE T = "t = 7.78867e-07 [s]" I = 10 SOLUTIONTIME = 7.7886718750000E-07
0.0007874 	2.08626e-08 	0.92 	0.04 	0.04 	0.0291661 	
2.15425e-08 	0.0276588 	0.0276588 	0 	
0.000841022 	2.08626e-08 	0.92 	0.04 	0.04 	0.0291661 	
2.15425e-08 	0.0276588 	0.0276588 	0 	
0.000894644 	2.08626e-08 	0.92 	0.04 	0.04 	0.029166 	
2.15425e-08 	0.0276588 	0.0276588 	0 	
0.000948267 	2.08626e-08 	0.92 	0.04 	0.04 	0.029166 	
2.15425e-08 	0.0276588 	0.0276588 	0 	
0.00100189 	2.08626e-08 	0.92 	0.04 	0.04 	0.0291659 	
2.15425e-08 	0.0276588 	0.0276588 	0 	
0.00105551 	2.08626e-08 	0.92 	0.04 	0.04 	0.0291659 	
2.15425e-08 	0.0276588 	0.0276588 	0 	
0.00110913 	2.08626e-08 	0.92 	0.04 	0.04 	0.0291658 	
2.15425e-08 	0.0276588 	0.0276588 	0 	
0.00116276 	2.08626e-08 	0.92 	0.04 	0.04 	0.0291658 	
2.15425e-08 	0.0276588 	0.0276588 	0 	
0.00121638 	2.08626e-08 	0.92 	0.04 	0.04 	0.0291657 	
2.15425e-08 	0.0276588 	0.0276588 	0 	
0.00127 	1.97048e-08 	0.92 	0.04 	0.04 	0.0291657 	
2.15425e-08 	0.0276588 	0.0276588 	0 	
ZONE T = "t = 1.1633e-06 [s]" I = 10 SOLUTIONTIME = 1.1633007812500E-06
0.0007874 	2.08628e-08 	0.92 	0.04 	0.04 	0.0291661 	
3.21755e-08 	0.0276588 	0.0276588 	0 	
0.000841022 	2.08628e-08 	0.92 	0.04 	0.04 	0.0291661 	
3.21755e-08 	0.0276588 	0.0276588 	0 	
0.000894644 	2.08628e-08 	0.92 	0.04 	0.04 	0.029166 	
3.21755e-08 	0.0276588 	0.0276588 	0 	
0.000948267 	2.08628e-08 	0.92 	0.04 	0.04 	0.029166 	
3.21755e-08 	0.0276588 	0.0276588 	0 	
0.00100189 	2.08628e-08 	0.92 	0.04 	0.04 	0.0291659 	
3.21755e-08 	0.0276588 	0.0276588 	0 	
0.00105551 	2.08628e-08 	0.92 	0.04 	0.04 	0.0291659 	
3.21755e-08 	0.0276588 	0.0276588 	0 	
0.00110913 	2.08628e-08 	0.92 	0.04 	0.04 	0.0291658 	
3.21755e-08 	0.0276588 	0.0276588 	0 	
0.00116276 	2.08628e-08 	0.92 	0.04 	0.04 	0.0291658 	
3.21755e-08 	0.0276588 	0.0276588 	0 	
0.00121638 	2.08628e-08 	0.92 	0.04 	0.04 	0.0291657 	
3.21755e-08 	0.0276588 	0.0276588 	0 	
0.00127 	1.97051e-08 	0.92 	0.04 	0.04 	0.0291657 	
3.21755e-08 	0.0276588 	0.0276588 	0 	
ZONE T = "t = 1.73995e-06 [s]" I = 10 SOLUTIONTIME = 1.7399511718750E-06
0.0007874 	2.08627e-08 	0.92 	0.04 	0.04 	0.0291661 	
4.81249e-08 	0.0276588 	0.0276588 	0 	
0.000841022 	2.08627e-08 	0.92 	0.04 	0.04 	0.0291661 	
4.81249e-08 	0.0276588 	0.0276588 	0 	
0.000894644 	2.08627e-08 	0.92 	0.04 	0.04 	0.029166 	
4.81249e-08 	0.0276588 	0.0276588 	0 	
0.000948267 	2.08627e-08 	0.92 	0.04 	0.04 	0.029166 	
4.81249e-08 	0.0276588 	0.0276588 	0 	
0.00100189 	2.08627e-08 	0.92 	0.04 	0.04 	0.0291659 	
4.81249e-08 	0.0276588 	0.0276588 	0 	
0.00105551 	2.08627e-08 	0.92 	0.04 	0.04 	0.0291659 	
4.81249e-08 	0.0276588 	0.0276588 	0 	
0.00110913 	2.08627e-08 	0.92 	0.04 	0.04 	0.0291658 	
4.81249e-08 	0.0276588 	0.0276588 	0 	
0.00116276 	2.08627e-08 	0.92 	0.04 	0.04 	0.0291658 	
4.81249e-08 	0.0276588 	0.0276588 	0 	
0.00121638 	2.08627e-08 	0.92 	0.04 	0.04 	0.0291657 	
4.81249e-08 	0.0276588 	0.0276588 	0 	
0.00127 	1.97049e-08 	0.92 	0.04 	0.04 	0.0291657 	
4.81249e-08 	0.0276588 	0.0276588 	0 	
ZONE T = "t = 2.60493e-06 [s]" I = 10 SOLUTIONTIME = 2.6049267578125E-06
0.0007874 	2.08627e-08 	0.92 	0.04 	0.04 	0.0291661 	
7.2049e-08 	0.0276588 	0.0276588 	0 	
0.000841022 	2.08627e-08 	0.92 	0.04 	0.04 	0.0291661 	
7.2049e-08 	0.0276588 	0.0276588 	0 	
0.000894644 	2.08627e-08 	0.92 	0.04 	0.04 	0.029166 	
7.2049e-08 	0.0276588 	0.0276588 	0 	
0.000948267 	2.08627e-08 	0.92 	0.04 	0.04 	0.029166 	
7.2049e-08 	0.0276588 	0.0276588 	0 	
0.00100189 	2.08627e-08 	0.92 	0.04 	0.04 	0.0291659 	
7.2049e-08 	0.0276588 	0.0276588 	0 	
0.00105551 	2.08627e-08 	0.92 	0.04 	0.04 	0.0291659 	
7.2049e-08 	0.0276588 	0.0276588 	0 	
0.00110913 	2.08627e-08 	0.92 	0.04 	0.04 	0.0291658 	
7.2049e-08 	0.0276588 	0.0276588 	0 	
0.00116276 	2.08627e-08 	0.92 	0.04 	0.04 	0.0291658 	
7.2049e-08 	0.0276588 	0.0276588 	0 	
0.00121638 	2.08627e-08 	0.92 	0.04 	0.04 	0.0291657 	
7.2049e-08 	0.0276588 	0.0276588 	0 	
0.00127 	1.97049e-08 	0.92 	0.04 	0.04 	0.0291657 	
7.2049e-08 	0.0276588 	0.0276588 	0 	
ZONE T = "t = 3.90239e-06 [s]" I = 10 SOLUTIONTIME = 3.9023901367188E-06
0.0007874 	2.08627e-08 	0.92 	0.04 	0.04 	0.0291661 	
1.07935e-07 	0.0276588 	0.0276588 	0 	
0.000841022 	2.08627e-08 	0.92 	0.04 	0.04 	0.0291661 	
1.07935e-07 	0.0276588 	0.0276588 	0 	
0.000894644 	2.08627e-08 	0.92 	0.04 	0.04 	0.029166 	
1.07935e-07 	0.0276588 	0.0276588 	0 	
0.000948267 	2.08627e-08 	0.92 	0.04 	0.04 	0.029166 	
1.07935e-07 	0.0276588 	0.0276588 	0 	
0.00100189 	2.08627e-08 	0.92 	0.04 	0.04 	0.0291659 	
1.07935e-07 	0.0276588 	0.0276588 	0 	
0.00105551 	2.08627e-08 	0.92 	0.04 	0.04 	0.0291659 	
1.07935e-07 	0.0276588 	0.0276588 	0 	
0.00110913 	2.08627e-08 	0.92 	0.04 	0.04 	0.0291658 	
1.07935e-07 	0.0276588 	0.0276588 	0 	
0.00116276 	2.08627e-08 	0.92 	0.04 	0.04 	0.0291658 	
1.07935e-07 	0.0276588 	0.0276588 	0 	
0.00121638 	2.08627e-08 	0.92 	0.04 	0.04 	0.0291657 	
1.07935e-07 	0.0276588 	0.0276588 	0 	
0.00127 	1.9705e-08 	0.92 	0.04 	0.04 	0.0291657 	
1.07935e-07 	0.0276588 	0.0276588 	0 	
ZONE T = "t = 5.84859e-06 [s]" I = 10 SOLUTIONTIME = 5.8485852050781E-06
0.0007874 	2.08627e-08 	0.92 	0.04 	0.04 	0.0291661 	
1.61765e-07 	0.0276588 	0.0276588 	0 	
0.000841022 	2.08627e-08 	0.92 	0.04 	0.04 	0.0291661 	
1.61765e-07 	0.0276588 	0.0276588 	0 	
0.000894644 	2.08627e-08 	0.92 	0.04 	0.04 	0.029166 	
1.61765e-07 	0.0276588 	0.0276588 	0 	
0.000948267 	2.08627e-08 	0.92 	0.04 	0.04 	0.029166 	
1.61765e-07 	0.0276588 	0.0276588 	0 	
0.00100189 	2.08627e-08 	0.92 	0.04 	0.04 	0.0291659 	
1.61765e-07 	0.0276588 	0.0276588 	0 	
0.00105551 	2.08627e-08 	0.92 	0.04 	0.04 	0.0291659 	
1.61765e-07 	0.0276588 	0.0276588 	0 	
0.00110913 	2.08627e-08 	0.92 	0.04 	0.04 	0.0291658 	
1.61765e-07 	0.0276588 	0.0276588 	0 	
0.00116276 	2.08627e-08 	0.92 	0.04 	0.04 	0.0291658 	
1.61765e-07 	0.0276588 	0.0276588 	0 	
0.00121638 	2.08627e-08 	0.92 	0.04 	0.04 	0.0291657 	
1.61765e-07 	0.0276588 	0.0276588 	0 	
0.00127 	1.9705e-08 	0.92 	0.04 	0.04 	0.0291657 	
1.61765e-07 	0.0276588 	0.0276588 	0 	
ZONE T = "t = 8.76788e-06 [s]" I = 10 SOLUTIONTIME = 8.7678778076172E-06
0.0007874 	2.08627e-08 	0.92 	0.04 	0.04 	0.0291661 	
2.42509e-07 	0.0276588 	0.0276588 	0 	
0.000841022 	2.08627e-08 	0.92 	0.04 	0.04 	0.0291661 	
2.42509e-07 	0.0276588 	0.0276588 	0 	
0.000894644 	2.08627e-08 	0.92 	0.04 	0.04 	0.029166 	
2.42509e-07 	0.0276588 	0.0276588 	0 	
0.000948267 	2.08627e-08 	0.92 	0.04 	0.04 	0.029166 	
2.42509e-07 	0.0276588 	0.0276588 	0 	
0.00100189 	2.08627e-08 	0.92 	0.04 	0.04 	0.0291659 	
2.42509e-07 	0.0276588 	0.0276588 	0 	
0.00105551 	2.08627e-08 	0.92 	0.04 	0.04 	0.0291659 	
2.42509e-07 	0.0276588 	0.0276588 	0 	
0.00110913 	2.08627e-08 	0.92 	0.04 	0.04 	0.0291658 	
2.42509e-07 	0.0276588 	0.0276588 	0 	
0.00116276 	2.08627e-08 	0.92 	0.04 	0.04 	0.0291658 	
2.42509e-07 	0.0276588 	0.0276588 	0 	
0.00121638 	2.08627e-08 	0.92 	0.04 	0.04 	0.0291657 	
2.42509e-07 	0.0276588 	0.0276588 	0 	
0.00127 	1.9705e-08 	0.92 	0.04 	0.04 	0.0291657 	
2.42509e-07 	0.0276588 	0.0276588 	0 	
ZONE T = "t = 1e-05 [s]" I = 10 SOLUTIONTIME = 1.0000000000000E-05
0.0007874 	2.08627e-08 	0.92 	0.04 	0.04 	0.0291661 	
2.76588e-07 	0.0276588 	0.0276588 	0 	
0.000841022 	2.08627e-08 	0.92 	0.04 	0.04 	0.0291661 	
2.76588e-07 	0.0276588 	0.0276588 	0 	
0.000894644 	2.08627e-08 	0.92 	0.04 	0.04 	0.029166 	
2.76588e-07 	0.0276588 	0.0276588 	0 	
0.000948267 	2.08627e-08 	0.92 	0.04 	0.04 	0.029166 	
2.76588e-07 	0.0276588 	0.0276588 	0 	
0.00100189 	2.08627e-08 	0.92 	0.04 	0.04 	0.0291659 	
2.76588e-07 	0.0276588 	0.0276588 	0 	
0.00105551 	2.08627e-08 	0.92 	0.04 	0.04 	0.0291659 	
2.76588e-07 	0.0276588 	0.0276588 	0 	
0.00110913 	2.08627e-08 	0.92 	0.04 	0.04 	0.0291658 	
2.76588e-07 	0.0276588 	0.0276588 	0 	
0.00116276 	2.08627e-08 	0.92 	0.04 	0.04 	0.0291658 	
2.76588e-07 	0.0276588 	0.0276588 	0 	
0.00121638 	2.08627e-08 	0.92 	0.04 	0.04 	0.0291657 	
2.76588e-07 	0.0276588 	0.0276588 	0 	
0.00127 	1.9705e-08 	0.92 	0.04 	0.04 	0.0291657 	
2.76588e-07 	0.0276588 	0.0276588 	0 	
ZONE T = "t = 1e-05 [s]" I = 10 SOLUTIONTIME = 1.0000000000000E-05
0.0007874 	2.08627e-08 	0.92 	0.04 	0.04 	0.0291661 	
2.76588e-07 	0.0276588 	0.0276588 	0 	
0.000841022 	2.08627e-08 	0.92 	0.04 	0.04 	0.0291661 	
2.76588e-07 	0.0276588 	0.0276588 	0 	
0.000894644 	2.08627e-08 	0.92 	0.04 	0.04 	0.029166 	
2.76588e-07 	0.0276588 	0.0276588 	0 	
0.000948267 	2.08627e-08 	0.92 	0.04 	0.04 	0.029166 	
2.76588e-07 	0.0276588 	0.0276588 	0 	
0.00100189 	2.08627e-08 	0.92 	0.04 	0.04 	0.0291659 	
2.76588e-07 	0.0276588 	0.0276588 	0 	
0.00105551 	2.08627e-08 	0.92 	0.04 	0.04 	0.0291659 	
2.76588e-07 	0.0276588 	0.0276588 	0 	
0.00110913 	2.08627e-08 	0.92 	0.04 	0.04 	0.0291658 	
2.76588e-07 	0.0276588 	0.0276588 	0 	
0.00116276 	2.08627e-08 	0.92 	0.04 	0.04 	0.0291658 	
2.76588e-07 	0.0276588 	0.0276588 	0 	
0.00121638 	2.08627e-08 	0.92 	0.04 	0.04 	0.0291657 	
2.76588e-07 	0.0276588 	0.0276588 	0 	
0.00127 	1.9705e-08 	0.92 	0.04 	0.04 	0.0291657 	
2.76588e-07 	0.0276588 	0.0276588 	0 	
