TITLE = "Solution on Domain BulkDomain1D_2"
VARIABLES = "x [m]"  
"Vel_axial(0)" 	"MF_sp(ECDMC)" 	"MF_sp(Li+)" 	"MF_sp(PF6-)" 	"Volt(Electroly)" 	"Volt(CathodeVo)" 	
"Potential Drop Electrode-Electrolyte [V]" 	"Surf_0 Equilibrium Potential Drop Electrode-Electrolyte [V]" 	"Overpotential_0 [V]" 	"Current Source [A/m^2]" 	"Li+ flux [kmol/m^2/s]" 	"Electrolyte Current [A/m^2]" 	"Electrode Current [A/m^2]" 	
"Capacity discharged [A-s]" 	"Depth of discharge [-]" 	"Capacity remaining [A-s]" 	"Initial capacity [A-s]" 	"Porosity []" 	"Surface Area [m2/m2] (area per area)" 	"Specific current (per particle area) [A/m^2]" 	"Control volume thickness [m]" 	
"Moles LiCoO2 [mol/m^2] (per electrode area)" 	"Moles CoO2 [mol/m^2] (per electrode area)" 	"qHeat_accum [J/m3]" 	"qHeat_step [W/m3]" 	"Joule_Lyte [W/m3]" 	"Joule_Solid [W/m3]" 	"electrodHeat [W/m3]" 	"OverpotHeat [W/m3]" 	"deltaSHeat [W/m3]" 	

ZONE T = "t = 0 [s]" I = 10 SOLUTIONTIME = 0.0000000000000E+00
0.00127 	0 	0.92 	0.04 	0.04 	-0.07 	3.8 	
0 	0 	0 	0 	0 	0.119132 	0 	
0 	0 	0 	0 	0.35 	6.604 	-0.0360787 	3.38667e-05 	
0.000900955 	0.000600637 	0 	0.0 	 0.0 	 0.0 	 0.0 	 0.0 	 0.0 	 
0.00133773 	0 	0.92 	0.04 	0.04 	-0.07 	3.8 	
0 	0 	0 	0 	0 	0 	-0 	
0 	0 	0 	0 	0.35 	13.208 	-0.0360787 	6.77333e-05 	
0.00180191 	0.00120127 	0 	0.0 	 0.0 	 0.0 	 0.0 	 0.0 	 0.0 	 
0.00140547 	0 	0.92 	0.04 	0.04 	-0.07 	3.8 	
0 	0 	0 	0 	0 	0 	-0 	
0 	0 	0 	0 	0.35 	13.208 	-0.0360787 	6.77333e-05 	
0.00180191 	0.00120127 	0 	0.0 	 0.0 	 0.0 	 0.0 	 0.0 	 0.0 	 
0.0014732 	0 	0.92 	0.04 	0.04 	-0.07 	3.8 	
0 	0 	0 	0 	0 	0 	-0 	
0 	0 	0 	0 	0.35 	13.208 	-0.0360787 	6.77333e-05 	
0.00180191 	0.00120127 	0 	0.0 	 0.0 	 0.0 	 0.0 	 0.0 	 0.0 	 
0.00154093 	0 	0.92 	0.04 	0.04 	-0.07 	3.8 	
0 	0 	0 	0 	0 	0 	-0 	
0 	0 	0 	0 	0.35 	13.208 	-0.0360787 	6.77333e-05 	
0.00180191 	0.00120127 	0 	0.0 	 0.0 	 0.0 	 0.0 	 0.0 	 0.0 	 
0.00160867 	0 	0.92 	0.04 	0.04 	-0.07 	3.8 	
0 	0 	0 	0 	0 	0 	-0 	
0 	0 	0 	0 	0.35 	13.208 	-0.0360787 	6.77333e-05 	
0.00180191 	0.00120127 	0 	0.0 	 0.0 	 0.0 	 0.0 	 0.0 	 0.0 	 
0.0016764 	0 	0.92 	0.04 	0.04 	-0.07 	3.8 	
0 	0 	0 	0 	0 	0 	-0 	
0 	0 	0 	0 	0.35 	13.208 	-0.0360787 	6.77333e-05 	
0.00180191 	0.00120127 	0 	0.0 	 0.0 	 0.0 	 0.0 	 0.0 	 0.0 	 
0.00174413 	0 	0.92 	0.04 	0.04 	-0.07 	3.8 	
0 	0 	0 	0 	0 	0 	-0 	
0 	0 	0 	0 	0.35 	13.208 	-0.0360787 	6.77333e-05 	
0.00180191 	0.00120127 	0 	0.0 	 0.0 	 0.0 	 0.0 	 0.0 	 0.0 	 
0.00181187 	0 	0.92 	0.04 	0.04 	-0.07 	3.8 	
0 	0 	0 	0 	0 	0 	-0 	
0 	0 	0 	0 	0.35 	13.208 	-0.0360787 	6.77333e-05 	
0.00180191 	0.00120127 	0 	0.0 	 0.0 	 0.0 	 0.0 	 0.0 	 0.0 	 
0.0018796 	0 	0.92 	0.04 	0.04 	-0.07 	3.8 	
0 	0 	0 	0 	0 	0 	0.119132 	
0 	0 	0 	0 	0.35 	6.604 	-0.0360787 	3.38667e-05 	
0.000900955 	0.000600637 	0 	0.0 	 0.0 	 0.0 	 0.0 	 0.0 	 0.0 	 
ZONE T = "t = 0 [s]" I = 10 SOLUTIONTIME = 0.0000000000000E+00
0.00127 	0 	0.92 	0.04 	0.04 	-0.07 	3.8 	
0 	0 	0 	0 	0 	0.119132 	0 	
0 	0 	0 	0 	0.35 	6.604 	-0.0360787 	3.38667e-05 	
0.000900955 	0.000600637 	0 	0.0 	 0.0 	 0.0 	 0.0 	 0.0 	 0.0 	 
0.00133773 	0 	0.92 	0.04 	0.04 	-0.07 	3.8 	
0 	0 	0 	0 	0 	0 	-0 	
0 	0 	0 	0 	0.35 	13.208 	-0.0360787 	6.77333e-05 	
0.00180191 	0.00120127 	0 	0.0 	 0.0 	 0.0 	 0.0 	 0.0 	 0.0 	 
0.00140547 	0 	0.92 	0.04 	0.04 	-0.07 	3.8 	
0 	0 	0 	0 	0 	0 	-0 	
0 	0 	0 	0 	0.35 	13.208 	-0.0360787 	6.77333e-05 	
0.00180191 	0.00120127 	0 	0.0 	 0.0 	 0.0 	 0.0 	 0.0 	 0.0 	 
0.0014732 	0 	0.92 	0.04 	0.04 	-0.07 	3.8 	
0 	0 	0 	0 	0 	0 	-0 	
0 	0 	0 	0 	0.35 	13.208 	-0.0360787 	6.77333e-05 	
0.00180191 	0.00120127 	0 	0.0 	 0.0 	 0.0 	 0.0 	 0.0 	 0.0 	 
0.00154093 	0 	0.92 	0.04 	0.04 	-0.07 	3.8 	
0 	0 	0 	0 	0 	0 	-0 	
0 	0 	0 	0 	0.35 	13.208 	-0.0360787 	6.77333e-05 	
0.00180191 	0.00120127 	0 	0.0 	 0.0 	 0.0 	 0.0 	 0.0 	 0.0 	 
0.00160867 	0 	0.92 	0.04 	0.04 	-0.07 	3.8 	
0 	0 	0 	0 	0 	0 	-0 	
0 	0 	0 	0 	0.35 	13.208 	-0.0360787 	6.77333e-05 	
0.00180191 	0.00120127 	0 	0.0 	 0.0 	 0.0 	 0.0 	 0.0 	 0.0 	 
0.0016764 	0 	0.92 	0.04 	0.04 	-0.07 	3.8 	
0 	0 	0 	0 	0 	0 	-0 	
0 	0 	0 	0 	0.35 	13.208 	-0.0360787 	6.77333e-05 	
0.00180191 	0.00120127 	0 	0.0 	 0.0 	 0.0 	 0.0 	 0.0 	 0.0 	 
0.00174413 	0 	0.92 	0.04 	0.04 	-0.07 	3.8 	
0 	0 	0 	0 	0 	0 	-0 	
0 	0 	0 	0 	0.35 	13.208 	-0.0360787 	6.77333e-05 	
0.00180191 	0.00120127 	0 	0.0 	 0.0 	 0.0 	 0.0 	 0.0 	 0.0 	 
0.00181187 	0 	0.92 	0.04 	0.04 	-0.07 	3.8 	
0 	0 	0 	0 	0 	0 	-0 	
0 	0 	0 	0 	0.35 	13.208 	-0.0360787 	6.77333e-05 	
0.00180191 	0.00120127 	0 	0.0 	 0.0 	 0.0 	 0.0 	 0.0 	 0.0 	 
0.0018796 	0 	0.92 	0.04 	0.04 	-0.07 	3.8 	
0 	0 	0 	0 	0 	0 	0.119132 	
0 	0 	0 	0 	0.35 	6.604 	-0.0360787 	3.38667e-05 	
0.000900955 	0.000600637 	0 	0.0 	 0.0 	 0.0 	 0.0 	 0.0 	 0.0 	 
ZONE T = "t = 1e-08 [s]" I = 10 SOLUTIONTIME = 1.0000000000000E-08
0.00127 	2.6221e-08 	0.92 	0.04 	0.04 	0.0113595 	3.8002 	
3.87 	3.97141 	-0.101414 	-0.238264 	-0 	41.2987 	1.17841 	
-0 	7244.08 	123.46 	141.616 	0.35 	6.604 	-0.356876 	3.38667e-05 	
0.000900955 	0.000600637 	0.000139427 	13942.7 	0.173363 	0.0854548 	13942.4 	13942.4 	0 	
0.00133773 	1.9674e-08 	0.92 	0.04 	0.04 	0.0113592 	3.8002 	
3.87 	3.97141 	-0.101414 	-0.476527 	-0 	37.7633 	4.71372 	
-0 	14488.2 	246.919 	283.231 	0.35 	13.208 	-0.356891 	6.77333e-05 	
0.00180191 	0.00120127 	0.000139274 	13927.4 	0.154191 	0.427296 	13926.8 	13926.8 	0 	
0.00140547 	1.31265e-08 	0.92 	0.04 	0.04 	0.011359 	3.80019 	
3.87 	3.97141 	-0.101414 	-0.476527 	-0 	33.0492 	9.42787 	
-0 	14488.2 	246.919 	283.231 	0.35 	13.208 	-0.356941 	6.77333e-05 	
0.00180191 	0.00120127 	0.000141713 	14171.3 	0.118237 	1.45294 	14169.7 	14169.7 	0 	
0.0014732 	6.57706e-09 	0.92 	0.04 	0.04 	0.0113587 	3.80018 	
3.87 	3.97141 	-0.101414 	-0.476527 	-0 	28.3342 	14.1429 	
-0 	14488.2 	246.919 	283.231 	0.35 	13.208 	-0.357025 	6.77333e-05 	
0.00180191 	0.00120127 	0.000139671 	13967.1 	0.0870656 	3.16278 	13963.8 	13963.8 	0 	
0.00154093 	2.54704e-11 	0.92 	0.04 	0.04 	0.0113585 	3.80016 	
3.87 	3.97141 	-0.101414 	-0.476527 	-0 	23.6178 	18.8593 	
-0 	14488.2 	246.919 	283.231 	0.35 	13.208 	-0.357143 	6.77333e-05 	
0.00180191 	0.00120127 	0.000140136 	14013.6 	0.0606761 	5.55746 	14008 	14008 	0 	
0.00160867 	-6.52892e-09 	0.92 	0.04 	0.04 	0.0113584 	3.80014 	
3.87 	3.97141 	-0.101414 	-0.476527 	-0 	18.8996 	23.5774 	
-0 	14488.2 	246.919 	283.231 	0.35 	13.208 	-0.357296 	6.77333e-05 	
0.00180191 	0.00120127 	0.000139049 	13904.9 	0.0390709 	8.63788 	13896.2 	13896.2 	0 	
0.0016764 	-1.30867e-08 	0.92 	0.04 	0.04 	0.0113583 	3.80011 	
3.87 	3.97141 	-0.101414 	-0.476527 	-0 	14.1792 	28.2978 	
-0 	14488.2 	246.919 	283.231 	0.35 	13.208 	-0.357483 	6.77333e-05 	
0.00180191 	0.00120127 	0.000140302 	14030.2 	0.0222541 	12.4052 	14017.8 	14017.8 	0 	
0.00174413 	-1.96486e-08 	0.92 	0.04 	0.04 	0.0113582 	3.80008 	
3.87 	3.97141 	-0.101414 	-0.476527 	-0 	9.45614 	33.0209 	
-0 	14488.2 	246.919 	283.231 	0.35 	13.208 	-0.357705 	6.77333e-05 	
0.00180191 	0.00120127 	0.000140044 	14004.4 	0.0102317 	16.8609 	13987.5 	13987.5 	0 	
0.00181187 	-2.62153e-08 	0.92 	0.04 	0.04 	0.0113581 	3.80004 	
3.87 	3.97141 	-0.101414 	-0.476527 	-0 	4.72988 	37.7472 	
-0 	14488.2 	246.919 	283.231 	0.35 	13.208 	-0.357962 	6.77333e-05 	
0.00180191 	0.00120127 	0.000140784 	14078.4 	0.0030114 	22.0067 	14056.4 	14056.4 	0 	
0.0018796 	0 	0.92 	0.04 	0.04 	0.0113581 	3.8 	
3.87 	3.97141 	-0.101414 	-0.238264 	-0 	1.18295 	41.2941 	
-0 	7244.08 	123.46 	141.616 	0.35 	6.604 	-0.358253 	3.38667e-05 	
0.000900955 	0.000600637 	0.000140065 	14006.5 	0.000602869 	24.7524 	13981.7 	13981.7 	0 	
ZONE T = "t = 2e-08 [s]" I = 10 SOLUTIONTIME = 2.0000000000000E-08
0.00127 	1.85523e-08 	0.92 	0.04 	0.04 	0.0291615 	3.80014 	
3.78884 	3.97141 	-0.182575 	-2.35681 	2.07909e-07 	29.2181 	0.834024 	
5.90688e-11 	7244.08 	123.46 	141.616 	0.35 	6.604 	-0.252603 	3.38667e-05 	
0.000900955 	0.000600637 	0.00023614 	9671.32 	0.0867716 	0.0428059 	9671.19 	9671.19 	0 	
0.00133773 	1.39193e-08 	0.92 	0.04 	0.04 	0.0291613 	3.80014 	
3.78884 	3.97141 	-0.182577 	-4.71382 	1.83481e-07 	26.7159 	3.33614 	
1.18143e-10 	14488.2 	246.919 	283.231 	0.35 	13.208 	-0.25261 	6.77333e-05 	
0.00180191 	0.00120127 	0.000237271 	9799.71 	0.0771721 	0.214037 	9799.41 	9799.41 	0 	
0.00140547 	9.28587e-09 	0.92 	0.04 	0.04 	0.0291611 	3.80013 	
3.78883 	3.97141 	-0.182584 	-4.71448 	1.5905e-07 	23.3796 	6.6725 	
1.18159e-10 	14488.2 	246.919 	283.231 	0.35 	13.208 	-0.252635 	6.77333e-05 	
0.00180191 	0.00120127 	0.000239402 	9768.85 	0.059171 	0.727775 	9768.07 	9768.07 	0 	
0.0014732 	4.6513e-09 	0.92 	0.04 	0.04 	0.0291609 	3.80013 	
3.78882 	3.97141 	-0.182596 	-4.71558 	1.34613e-07 	20.0428 	10.0093 	
1.18187e-10 	14488.2 	246.919 	283.231 	0.35 	13.208 	-0.252677 	6.77333e-05 	
0.00180191 	0.00120127 	0.000239895 	10022.4 	0.0435657 	1.58416 	10020.8 	10020.8 	0 	
0.00154093 	1.63749e-11 	0.92 	0.04 	0.04 	0.0291608 	3.80011 	
3.7888 	3.97141 	-0.182613 	-4.71714 	1.10168e-07 	16.7053 	13.3468 	
1.18226e-10 	14488.2 	246.919 	283.231 	0.35 	13.208 	-0.252736 	6.77333e-05 	
0.00180191 	0.00120127 	0.000239881 	9974.49 	0.0303565 	2.78341 	9971.67 	9971.67 	0 	
0.00160867 	-4.62141e-09 	0.92 	0.04 	0.04 	0.0291607 	3.8001 	
3.78878 	3.97141 	-0.182635 	-4.71916 	8.57128e-08 	13.367 	16.6851 	
1.18276e-10 	14488.2 	246.919 	283.231 	0.35 	13.208 	-0.252813 	6.77333e-05 	
0.00180191 	0.00120127 	0.00023961 	10056.1 	0.0195441 	4.32585 	10051.7 	10051.7 	0 	
0.0016764 	-9.26019e-09 	0.92 	0.04 	0.04 	0.0291606 	3.80008 	
3.78875 	3.97141 	-0.182662 	-4.72164 	6.12447e-08 	10.0275 	20.0246 	
1.18338e-10 	14488.2 	246.919 	283.231 	0.35 	13.208 	-0.252906 	6.77333e-05 	
0.00180191 	0.00120127 	0.000240212 	9990.97 	0.01113 	6.21191 	9984.75 	9984.75 	0 	
0.00174413 	-1.39014e-08 	0.92 	0.04 	0.04 	0.0291605 	3.80006 	
3.78872 	3.97141 	-0.182694 	-4.72457 	3.67613e-08 	6.68664 	23.3654 	
1.18412e-10 	14488.2 	246.919 	283.231 	0.35 	13.208 	-0.253018 	6.77333e-05 	
0.00180191 	0.00120127 	0.000241811 	10176.8 	0.0051162 	8.44209 	10168.3 	10168.3 	0 	
0.00181187 	-1.85445e-08 	0.92 	0.04 	0.04 	0.0291605 	3.80003 	
3.78868 	3.97141 	-0.182731 	-4.72796 	1.22609e-08 	3.34423 	26.7079 	
1.18497e-10 	14488.2 	246.919 	283.231 	0.35 	13.208 	-0.253146 	6.77333e-05 	
0.00180191 	0.00120127 	0.000241687 	10090.2 	0.0015055 	11.017 	10079.2 	10079.2 	0 	
0.0018796 	0 	0.92 	0.04 	0.04 	0.0291605 	3.8 	
3.78864 	3.97141 	-0.182772 	-2.3659 	1.22609e-08 	0.836297 	29.2159 	
5.92966e-11 	7244.08 	123.46 	141.616 	0.35 	6.604 	-0.253292 	3.38667e-05 	
0.000900955 	0.000600637 	0.000239749 	9968.41 	0.000301308 	12.3907 	9956.02 	9956.02 	0 	
ZONE T = "t = 3e-08 [s]" I = 10 SOLUTIONTIME = 3.0000000000000E-08
0.00127 	1.85482e-08 	0.92 	0.04 	0.04 	0.0291616 	3.80014 	
3.77098 	3.97141 	-0.200435 	-1.66819 	1.4709e-07 	29.2181 	0.83402 	
1.00879e-10 	7244.08 	123.46 	141.616 	0.35 	6.604 	-0.252603 	3.38667e-05 	
0.000900955 	0.000600637 	0.000334231 	9809.05 	0.0867711 	0.0428055 	9808.92 	9808.92 	0 	
0.00133773 	1.3916e-08 	0.92 	0.04 	0.04 	0.0291614 	3.80014 	
3.77098 	3.97141 	-0.200436 	-3.33648 	1.29801e-07 	26.7159 	3.33613 	
2.01765e-10 	14488.2 	246.919 	283.231 	0.35 	13.208 	-0.252611 	6.77333e-05 	
0.00180191 	0.00120127 	0.000335306 	9803.49 	0.0771716 	0.214035 	9803.2 	9803.2 	0 	
0.00140547 	9.28259e-09 	0.92 	0.04 	0.04 	0.0291612 	3.80013 	
3.77097 	3.97141 	-0.200441 	-3.3368 	1.12511e-07 	23.3795 	6.67247 	
2.01789e-10 	14488.2 	246.919 	283.231 	0.35 	13.208 	-0.252635 	6.77333e-05 	
0.00180191 	0.00120127 	0.000340016 	10061.4 	0.0591706 	0.727769 	10060.7 	10060.7 	0 	
0.0014732 	4.64804e-09 	0.92 	0.04 	0.04 	0.029161 	3.80013 	
3.77096 	3.97141 	-0.20045 	-3.33736 	9.52179e-08 	20.0427 	10.0093 	
2.01831e-10 	14488.2 	246.919 	283.231 	0.35 	13.208 	-0.252677 	6.77333e-05 	
0.00180191 	0.00120127 	0.000337437 	9754.17 	0.0435655 	1.58414 	9752.54 	9752.54 	0 	
0.00154093 	1.24013e-11 	0.92 	0.04 	0.04 	0.0291609 	3.80011 	
3.77095 	3.97141 	-0.200462 	-3.33814 	7.79206e-08 	16.7053 	13.3467 	
2.0189e-10 	14488.2 	246.919 	283.231 	0.35 	13.208 	-0.252737 	6.77333e-05 	
0.00180191 	0.00120127 	0.000338408 	9852.71 	0.0303564 	2.78338 	9849.89 	9849.89 	0 	
0.00160867 	-4.62464e-09 	0.92 	0.04 	0.04 	0.0291608 	3.8001 	
3.77094 	3.97141 	-0.200478 	-3.33915 	6.06182e-08 	13.3669 	16.6851 	
2.01965e-10 	14488.2 	246.919 	283.231 	0.35 	13.208 	-0.252813 	6.77333e-05 	
0.00180191 	0.00120127 	0.000338786 	9917.56 	0.0195441 	4.32582 	9913.22 	9913.22 	0 	
0.0016764 	-9.26341e-09 	0.92 	0.04 	0.04 	0.0291607 	3.80008 	
3.77092 	3.97141 	-0.200497 	-3.34039 	4.33093e-08 	10.0275 	20.0245 	
2.02059e-10 	14488.2 	246.919 	283.231 	0.35 	13.208 	-0.252907 	6.77333e-05 	
0.00180191 	0.00120127 	0.000338736 	9852.45 	0.01113 	6.21186 	9846.23 	9846.23 	0 	
0.00174413 	-1.39042e-08 	0.92 	0.04 	0.04 	0.0291607 	3.80006 	
3.7709 	3.97141 	-0.200519 	-3.34186 	2.59929e-08 	6.68664 	23.3654 	
2.02169e-10 	14488.2 	246.919 	283.231 	0.35 	13.208 	-0.253018 	6.77333e-05 	
0.00180191 	0.00120127 	0.000340812 	9900.12 	0.00511619 	8.44203 	9891.68 	9891.68 	0 	
0.00181187 	-1.85474e-08 	0.92 	0.04 	0.04 	0.0291606 	3.80003 	
3.77087 	3.97141 	-0.200545 	-3.34355 	8.66838e-09 	3.34422 	26.7078 	
2.02296e-10 	14488.2 	246.919 	283.231 	0.35 	13.208 	-0.253146 	6.77333e-05 	
0.00180191 	0.00120127 	0.000339781 	9809.42 	0.0015055 	11.0169 	9798.4 	9798.4 	0 	
0.0018796 	0 	0.92 	0.04 	0.04 	0.0291606 	3.8 	
3.77084 	3.97141 	-0.200575 	-1.67274 	8.66838e-09 	0.836297 	29.2158 	
1.0122e-10 	7244.08 	123.46 	141.616 	0.35 	6.604 	-0.253292 	3.38667e-05 	
0.000900955 	0.000600637 	0.00033675 	9700.14 	0.000301308 	12.3906 	9687.75 	9687.75 	0 	
ZONE T = "t = 4e-08 [s]" I = 10 SOLUTIONTIME = 4.0000000000000E-08
0.00127 	1.85535e-08 	0.92 	0.04 	0.04 	0.0291615 	3.80014 	
3.77098 	3.97141 	-0.200435 	-1.66819 	1.4709e-07 	29.2206 	0.834095 	
1.42688e-10 	7244.08 	123.46 	141.616 	0.35 	6.604 	-0.252603 	3.38667e-05 	
0.000900955 	0.000600637 	0.00043224 	9800.92 	0.0867865 	0.0428132 	9800.79 	9800.79 	0 	
0.00133773 	1.39198e-08 	0.92 	0.04 	0.04 	0.0291613 	3.80014 	
3.77098 	3.97141 	-0.200437 	-3.33648 	1.29801e-07 	26.7182 	3.33643 	
2.85387e-10 	14488.2 	246.919 	283.231 	0.35 	13.208 	-0.25261 	6.77333e-05 	
0.00180191 	0.00120127 	0.000433302 	9799.55 	0.0771853 	0.214074 	9799.26 	9799.26 	0 	
0.00140547 	9.28559e-09 	0.92 	0.04 	0.04 	0.0291611 	3.80013 	
3.77097 	3.97141 	-0.200442 	-3.33681 	1.12511e-07 	23.3816 	6.67307 	
2.8542e-10 	14488.2 	246.919 	283.231 	0.35 	13.208 	-0.252635 	6.77333e-05 	
0.00180191 	0.00120127 	0.000437871 	9785.44 	0.0591811 	0.727899 	9784.65 	9784.65 	0 	
0.0014732 	4.65135e-09 	0.92 	0.04 	0.04 	0.029161 	3.80013 	
3.77096 	3.97141 	-0.20045 	-3.33736 	9.52176e-08 	20.0445 	10.0102 	
2.85475e-10 	14488.2 	246.919 	283.231 	0.35 	13.208 	-0.252677 	6.77333e-05 	
0.00180191 	0.00120127 	0.000434939 	9750.22 	0.0435732 	1.58443 	9748.59 	9748.59 	0 	
0.00154093 	1.49352e-11 	0.92 	0.04 	0.04 	0.0291609 	3.80011 	
3.77095 	3.97141 	-0.200462 	-3.33815 	7.79205e-08 	16.7068 	13.3479 	
2.85554e-10 	14488.2 	246.919 	283.231 	0.35 	13.208 	-0.252736 	6.77333e-05 	
0.00180191 	0.00120127 	0.00043677 	9836.2 	0.0303618 	2.78388 	9833.38 	9833.38 	0 	
0.00160867 	-4.62252e-09 	0.92 	0.04 	0.04 	0.0291607 	3.8001 	
3.77094 	3.97141 	-0.200478 	-3.33916 	6.06181e-08 	13.3681 	16.6866 	
2.85655e-10 	14488.2 	246.919 	283.231 	0.35 	13.208 	-0.252813 	6.77333e-05 	
0.00180191 	0.00120127 	0.000438005 	9921.98 	0.0195475 	4.32659 	9917.63 	9917.63 	0 	
0.0016764 	-9.26133e-09 	0.92 	0.04 	0.04 	0.0291607 	3.80008 	
3.77092 	3.97141 	-0.200497 	-3.3404 	4.33093e-08 	10.0284 	20.0263 	
2.85779e-10 	14488.2 	246.919 	283.231 	0.35 	13.208 	-0.252907 	6.77333e-05 	
0.00180191 	0.00120127 	0.000437263 	9852.68 	0.0111319 	6.21297 	9846.45 	9846.45 	0 	
0.00174413 	-1.39029e-08 	0.92 	0.04 	0.04 	0.0291606 	3.80006 	
3.7709 	3.97141 	-0.200519 	-3.34186 	2.59928e-08 	6.68723 	23.3675 	
2.85926e-10 	14488.2 	246.919 	283.231 	0.35 	13.208 	-0.253018 	6.77333e-05 	
0.00180191 	0.00120127 	0.0004399 	9908.71 	0.00511709 	8.44353 	9900.26 	9900.26 	0 	
0.00181187 	-1.85465e-08 	0.92 	0.04 	0.04 	0.0291606 	3.80003 	
3.77087 	3.97141 	-0.200545 	-3.34356 	8.6687e-09 	3.34452 	26.7102 	
2.86096e-10 	14488.2 	246.919 	283.231 	0.35 	13.208 	-0.253146 	6.77333e-05 	
0.00180191 	0.00120127 	0.000439133 	9935.19 	0.00150576 	11.0189 	9924.17 	9924.17 	0 	
0.0018796 	0 	0.92 	0.04 	0.04 	0.0291606 	3.8 	
3.77084 	3.97141 	-0.200575 	-1.67274 	8.6687e-09 	0.83637 	29.2183 	
1.43144e-10 	7244.08 	123.46 	141.616 	0.35 	6.604 	-0.253292 	3.38667e-05 	
0.000900955 	0.000600637 	0.000439195 	10244.5 	0.00030136 	12.3928 	10232.1 	10232.1 	0 	
ZONE T = "t = 5.5e-08 [s]" I = 10 SOLUTIONTIME = 5.5000000000000E-08
0.00127 	1.85498e-08 	0.92 	0.04 	0.04 	0.0291615 	3.80014 	
3.77098 	3.97141 	-0.200435 	-1.66819 	1.47103e-07 	29.2206 	0.834095 	
1.84498e-10 	7244.08 	123.46 	141.616 	0.35 	6.604 	-0.252603 	3.38667e-05 	
0.000900955 	0.000600637 	0.000580614 	9891.61 	0.0867865 	0.0428132 	9891.48 	9891.48 	0 	
0.00133773 	1.39159e-08 	0.92 	0.04 	0.04 	0.0291613 	3.80014 	
3.77098 	3.97141 	-0.200436 	-3.33648 	1.29813e-07 	26.7182 	3.33643 	
3.69009e-10 	14488.2 	246.919 	283.231 	0.35 	13.208 	-0.25261 	6.77333e-05 	
0.00180191 	0.00120127 	0.000580295 	9799.55 	0.0771853 	0.214074 	9799.26 	9799.26 	0 	
0.00140547 	9.2819e-09 	0.92 	0.04 	0.04 	0.0291611 	3.80013 	
3.77097 	3.97141 	-0.200442 	-3.33681 	1.12521e-07 	23.3816 	6.67307 	
3.6905e-10 	14488.2 	246.919 	283.231 	0.35 	13.208 	-0.252635 	6.77333e-05 	
0.00180191 	0.00120127 	0.000587268 	9959.84 	0.0591811 	0.727899 	9959.05 	9959.05 	0 	
0.0014732 	4.64669e-09 	0.92 	0.04 	0.04 	0.029161 	3.80013 	
3.77096 	3.97141 	-0.20045 	-3.33736 	9.52261e-08 	20.0445 	10.0102 	
3.69119e-10 	14488.2 	246.919 	283.231 	0.35 	13.208 	-0.252677 	6.77333e-05 	
0.00180191 	0.00120127 	0.000583871 	9928.8 	0.0435732 	1.58443 	9927.18 	9927.18 	0 	
0.00154093 	1.03951e-11 	0.92 	0.04 	0.04 	0.0291609 	3.80011 	
3.77095 	3.97141 	-0.200462 	-3.33814 	7.79274e-08 	16.7068 	13.3479 	
3.69217e-10 	14488.2 	246.919 	283.231 	0.35 	13.208 	-0.252736 	6.77333e-05 	
0.00180191 	0.00120127 	0.000582409 	9709.24 	0.0303618 	2.78388 	9706.42 	9706.42 	0 	
0.00160867 	-4.62706e-09 	0.92 	0.04 	0.04 	0.0291607 	3.8001 	
3.77094 	3.97141 	-0.200478 	-3.33915 	6.06234e-08 	13.3681 	16.6866 	
3.69344e-10 	14488.2 	246.919 	283.231 	0.35 	13.208 	-0.252813 	6.77333e-05 	
0.00180191 	0.00120127 	0.000585517 	9834.08 	0.0195475 	4.32659 	9829.73 	9829.73 	0 	
0.0016764 	-9.26672e-09 	0.92 	0.04 	0.04 	0.0291607 	3.80008 	
3.77092 	3.97141 	-0.200497 	-3.34039 	4.33131e-08 	10.0284 	20.0263 	
3.69499e-10 	14488.2 	246.919 	283.231 	0.35 	13.208 	-0.252907 	6.77333e-05 	
0.00180191 	0.00120127 	0.000583693 	9761.99 	0.0111319 	6.21297 	9755.76 	9755.76 	0 	
0.00174413 	-1.39082e-08 	0.92 	0.04 	0.04 	0.0291606 	3.80006 	
3.7709 	3.97141 	-0.200519 	-3.34186 	2.59951e-08 	6.68723 	23.3675 	
3.69683e-10 	14488.2 	246.919 	283.231 	0.35 	13.208 	-0.253018 	6.77333e-05 	
0.00180191 	0.00120127 	0.00058514 	9682.69 	0.00511709 	8.44353 	9674.24 	9674.24 	0 	
0.00181187 	-1.85517e-08 	0.92 	0.04 	0.04 	0.0291606 	3.80003 	
3.77087 	3.97141 	-0.200545 	-3.34356 	8.66979e-09 	3.34452 	26.7102 	
3.69895e-10 	14488.2 	246.919 	283.231 	0.35 	13.208 	-0.253146 	6.77333e-05 	
0.00180191 	0.00120127 	0.000584331 	9679.87 	0.00150576 	11.0189 	9668.85 	9668.85 	0 	
0.0018796 	0 	0.92 	0.04 	0.04 	0.0291606 	3.8 	
3.77084 	3.97141 	-0.200575 	-1.67274 	8.66979e-09 	0.83637 	29.2183 	
1.85068e-10 	7244.08 	123.46 	141.616 	0.35 	6.604 	-0.253292 	3.38667e-05 	
0.000900955 	0.000600637 	0.000589451 	10017 	0.00030136 	12.3928 	10004.7 	10004.7 	0 	
ZONE T = "t = 7.75e-08 [s]" I = 10 SOLUTIONTIME = 7.7500000000000E-08
0.00127 	1.85545e-08 	0.92 	0.04 	0.04 	0.0291615 	3.80014 	
3.77098 	3.97141 	-0.200435 	-1.66819 	1.47103e-07 	29.2206 	0.834095 	
2.47213e-10 	7244.08 	123.46 	141.616 	0.35 	6.604 	-0.252603 	3.38667e-05 	
0.000900955 	0.000600637 	0.000801982 	9838.59 	0.0867865 	0.0428132 	9838.46 	9838.46 	0 	
0.00133773 	1.39207e-08 	0.92 	0.04 	0.04 	0.0291613 	3.80014 	
3.77098 	3.97141 	-0.200436 	-3.33648 	1.29813e-07 	26.7182 	3.33643 	
4.94442e-10 	14488.2 	246.919 	283.231 	0.35 	13.208 	-0.25261 	6.77333e-05 	
0.00180191 	0.00120127 	0.000804217 	9952.09 	0.0771853 	0.214074 	9951.8 	9951.8 	0 	
0.00140547 	9.2867e-09 	0.92 	0.04 	0.04 	0.0291611 	3.80013 	
3.77097 	3.97141 	-0.200442 	-3.33681 	1.12521e-07 	23.3816 	6.67307 	
4.94496e-10 	14488.2 	246.919 	283.231 	0.35 	13.208 	-0.252635 	6.77333e-05 	
0.00180191 	0.00120127 	0.000809439 	9874.27 	0.0591811 	0.727899 	9873.48 	9873.48 	0 	
0.0014732 	4.6519e-09 	0.92 	0.04 	0.04 	0.029161 	3.80013 	
3.77096 	3.97141 	-0.20045 	-3.33736 	9.52261e-08 	20.0445 	10.0102 	
4.94586e-10 	14488.2 	246.919 	283.231 	0.35 	13.208 	-0.252677 	6.77333e-05 	
0.00180191 	0.00120127 	0.000806683 	9902.76 	0.0435732 	1.58443 	9901.13 	9901.13 	0 	
0.00154093 	1.61661e-11 	0.92 	0.04 	0.04 	0.0291609 	3.80011 	
3.77095 	3.97141 	-0.200462 	-3.33814 	7.79274e-08 	16.7068 	13.3479 	
4.94713e-10 	14488.2 	246.919 	283.231 	0.35 	13.208 	-0.252736 	6.77333e-05 	
0.00180191 	0.00120127 	0.000806914 	9978.04 	0.0303618 	2.78388 	9975.23 	9975.23 	0 	
0.00160867 	-4.62161e-09 	0.92 	0.04 	0.04 	0.0291607 	3.8001 	
3.77094 	3.97141 	-0.200478 	-3.33915 	6.06234e-08 	13.3681 	16.6866 	
4.94878e-10 	14488.2 	246.919 	283.231 	0.35 	13.208 	-0.252813 	6.77333e-05 	
0.00180191 	0.00120127 	0.00080603 	9800.6 	0.0195475 	4.32659 	9796.25 	9796.25 	0 	
0.0016764 	-9.26063e-09 	0.92 	0.04 	0.04 	0.0291607 	3.80008 	
3.77092 	3.97141 	-0.200497 	-3.34039 	4.33131e-08 	10.0284 	20.0263 	
4.95079e-10 	14488.2 	246.919 	283.231 	0.35 	13.208 	-0.252907 	6.77333e-05 	
0.00180191 	0.00120127 	0.000806665 	9909.88 	0.0111319 	6.21297 	9903.65 	9903.65 	0 	
0.00174413 	-1.39017e-08 	0.92 	0.04 	0.04 	0.0291606 	3.80006 	
3.7709 	3.97141 	-0.200519 	-3.34186 	2.59951e-08 	6.68723 	23.3675 	
4.95318e-10 	14488.2 	246.919 	283.231 	0.35 	13.208 	-0.253018 	6.77333e-05 	
0.00180191 	0.00120127 	0.000807646 	9889.18 	0.00511709 	8.44353 	9880.73 	9880.73 	0 	
0.00181187 	-1.85451e-08 	0.92 	0.04 	0.04 	0.0291606 	3.80003 	
3.77087 	3.97141 	-0.200545 	-3.34356 	8.67027e-09 	3.34452 	26.7102 	
4.95595e-10 	14488.2 	246.919 	283.231 	0.35 	13.208 	-0.253146 	6.77333e-05 	
0.00180191 	0.00120127 	0.000804702 	9794.28 	0.00150576 	11.0189 	9783.26 	9783.26 	0 	
0.0018796 	0 	0.92 	0.04 	0.04 	0.0291606 	3.8 	
3.77084 	3.97141 	-0.200575 	-1.67274 	8.67027e-09 	0.83637 	29.2183 	
2.47954e-10 	7244.08 	123.46 	141.616 	0.35 	6.604 	-0.253292 	3.38667e-05 	
0.000900955 	0.000600637 	0.000811465 	9867.3 	0.00030136 	12.3928 	9854.9 	9854.9 	0 	
ZONE T = "t = 1.1125e-07 [s]" I = 10 SOLUTIONTIME = 1.1125000000000E-07
0.00127 	1.85541e-08 	0.92 	0.04 	0.04 	0.0291615 	3.80014 	
3.77098 	3.97141 	-0.200435 	-1.66819 	1.47104e-07 	29.2206 	0.834095 	
3.41285e-10 	7244.08 	123.46 	141.616 	0.35 	6.604 	-0.252603 	3.38667e-05 	
0.000900955 	0.000600637 	0.00113399 	9837.35 	0.0867865 	0.0428132 	9837.22 	9837.22 	0 	
0.00133773 	1.39203e-08 	0.92 	0.04 	0.04 	0.0291613 	3.80014 	
3.77098 	3.97141 	-0.200436 	-3.33648 	1.29813e-07 	26.7182 	3.33643 	
6.82592e-10 	14488.2 	246.919 	283.231 	0.35 	13.208 	-0.25261 	6.77333e-05 	
0.00180191 	0.00120127 	0.00113734 	9870.24 	0.0771853 	0.214074 	9869.95 	9869.95 	0 	
0.00140547 	9.28595e-09 	0.92 	0.04 	0.04 	0.0291611 	3.80013 	
3.77097 	3.97141 	-0.200442 	-3.33681 	1.12521e-07 	23.3816 	6.67307 	
6.82664e-10 	14488.2 	246.919 	283.231 	0.35 	13.208 	-0.252635 	6.77333e-05 	
0.00180191 	0.00120127 	0.0011419 	9850.7 	0.0591811 	0.727899 	9849.91 	9849.91 	0 	
0.0014732 	4.65077e-09 	0.92 	0.04 	0.04 	0.029161 	3.80013 	
3.77096 	3.97141 	-0.20045 	-3.33736 	9.52261e-08 	20.0445 	10.0102 	
6.82785e-10 	14488.2 	246.919 	283.231 	0.35 	13.208 	-0.252677 	6.77333e-05 	
0.00180191 	0.00120127 	0.0011409 	9902.76 	0.0435732 	1.58443 	9901.13 	9901.13 	0 	
0.00154093 	1.48209e-11 	0.92 	0.04 	0.04 	0.0291609 	3.80011 	
3.77095 	3.97141 	-0.200462 	-3.33814 	7.79274e-08 	16.7068 	13.3479 	
6.82957e-10 	14488.2 	246.919 	283.231 	0.35 	13.208 	-0.252736 	6.77333e-05 	
0.00180191 	0.00120127 	0.00114099 	9898.67 	0.0303618 	2.78388 	9895.86 	9895.86 	0 	
0.00160867 	-4.62242e-09 	0.92 	0.04 	0.04 	0.0291607 	3.8001 	
3.77094 	3.97141 	-0.200478 	-3.33915 	6.06234e-08 	13.3681 	16.6866 	
6.83178e-10 	14488.2 	246.919 	283.231 	0.35 	13.208 	-0.252813 	6.77333e-05 	
0.00180191 	0.00120127 	0.0011382 	9842.14 	0.0195475 	4.32659 	9837.79 	9837.79 	0 	
0.0016764 	-9.2616e-09 	0.92 	0.04 	0.04 	0.0291607 	3.80008 	
3.77092 	3.97141 	-0.200497 	-3.34039 	4.33131e-08 	10.0284 	20.0263 	
6.8345e-10 	14488.2 	246.919 	283.231 	0.35 	13.208 	-0.252907 	6.77333e-05 	
0.00180191 	0.00120127 	0.00113926 	9854.69 	0.0111319 	6.21297 	9848.47 	9848.47 	0 	
0.00174413 	-1.39027e-08 	0.92 	0.04 	0.04 	0.0291606 	3.80006 	
3.7709 	3.97141 	-0.200519 	-3.34186 	2.59951e-08 	6.68723 	23.3675 	
6.83772e-10 	14488.2 	246.919 	283.231 	0.35 	13.208 	-0.253018 	6.77333e-05 	
0.00180191 	0.00120127 	0.00114279 	9930.1 	0.00511709 	8.44353 	9921.65 	9921.65 	0 	
0.00181187 	-1.85464e-08 	0.92 	0.04 	0.04 	0.0291606 	3.80003 	
3.77087 	3.97141 	-0.200545 	-3.34356 	8.67099e-09 	3.34452 	26.7102 	
6.84144e-10 	14488.2 	246.919 	283.231 	0.35 	13.208 	-0.253146 	6.77333e-05 	
0.00180191 	0.00120127 	0.0011407 	9955.5 	0.00150576 	11.0189 	9944.48 	9944.48 	0 	
0.0018796 	0 	0.92 	0.04 	0.04 	0.0291606 	3.8 	
3.77084 	3.97141 	-0.200575 	-1.67274 	8.67099e-09 	0.83637 	29.2183 	
3.42283e-10 	7244.08 	123.46 	141.616 	0.35 	6.604 	-0.253292 	3.38667e-05 	
0.000900955 	0.000600637 	0.00114641 	9924.34 	0.00030136 	12.3928 	9911.95 	9911.95 	0 	
ZONE T = "t = 1.61875e-07 [s]" I = 10 SOLUTIONTIME = 1.6187500000000E-07
0.00127 	1.85533e-08 	0.92 	0.04 	0.04 	0.0291615 	3.80014 	
3.77098 	3.97141 	-0.200435 	-1.66819 	1.47104e-07 	29.2206 	0.834095 	
4.82393e-10 	7244.08 	123.46 	141.616 	0.35 	6.604 	-0.252603 	3.38667e-05 	
0.000900955 	0.000600637 	0.00163406 	9877.86 	0.0867865 	0.0428132 	9877.73 	9877.73 	0 	
0.00133773 	1.39196e-08 	0.92 	0.04 	0.04 	0.0291613 	3.80014 	
3.77098 	3.97141 	-0.200436 	-3.33648 	1.29813e-07 	26.7182 	3.33643 	
9.64817e-10 	14488.2 	246.919 	283.231 	0.35 	13.208 	-0.25261 	6.77333e-05 	
0.00180191 	0.00120127 	0.0016344 	9818.57 	0.0771853 	0.214074 	9818.27 	9818.27 	0 	
0.00140547 	9.28545e-09 	0.92 	0.04 	0.04 	0.0291611 	3.80013 	
3.77097 	3.97141 	-0.200442 	-3.33681 	1.12521e-07 	23.3816 	6.67307 	
9.64916e-10 	14488.2 	246.919 	283.231 	0.35 	13.208 	-0.252635 	6.77333e-05 	
0.00180191 	0.00120127 	0.00164072 	9853.18 	0.0591811 	0.727899 	9852.4 	9852.4 	0 	
0.0014732 	4.65048e-09 	0.92 	0.04 	0.04 	0.029161 	3.80013 	
3.77096 	3.97141 	-0.20045 	-3.33736 	9.52261e-08 	20.0445 	10.0102 	
9.65085e-10 	14488.2 	246.919 	283.231 	0.35 	13.208 	-0.252677 	6.77333e-05 	
0.00180191 	0.00120127 	0.00164083 	9875.06 	0.0435732 	1.58443 	9873.44 	9873.44 	0 	
0.00154093 	1.43546e-11 	0.92 	0.04 	0.04 	0.0291609 	3.80011 	
3.77095 	3.97141 	-0.200462 	-3.33814 	7.79274e-08 	16.7068 	13.3479 	
9.65322e-10 	14488.2 	246.919 	283.231 	0.35 	13.208 	-0.252736 	6.77333e-05 	
0.00180191 	0.00120127 	0.00164142 	9885.03 	0.0303618 	2.78388 	9882.22 	9882.22 	0 	
0.00160867 	-4.6231e-09 	0.92 	0.04 	0.04 	0.0291607 	3.8001 	
3.77094 	3.97141 	-0.200478 	-3.33915 	6.06234e-08 	13.3681 	16.6866 	
9.65629e-10 	14488.2 	246.919 	283.231 	0.35 	13.208 	-0.252813 	6.77333e-05 	
0.00180191 	0.00120127 	0.00164113 	9934.33 	0.0195475 	4.32659 	9929.98 	9929.98 	0 	
0.0016764 	-9.26242e-09 	0.92 	0.04 	0.04 	0.0291607 	3.80008 	
3.77092 	3.97141 	-0.200497 	-3.34039 	4.33131e-08 	10.0284 	20.0263 	
9.66006e-10 	14488.2 	246.919 	283.231 	0.35 	13.208 	-0.252907 	6.77333e-05 	
0.00180191 	0.00120127 	0.00163868 	9865.03 	0.0111319 	6.21297 	9858.8 	9858.8 	0 	
0.00174413 	-1.39037e-08 	0.92 	0.04 	0.04 	0.0291606 	3.80006 	
3.7709 	3.97141 	-0.200519 	-3.34186 	2.59951e-08 	6.68723 	23.3675 	
9.66452e-10 	14488.2 	246.919 	283.231 	0.35 	13.208 	-0.253018 	6.77333e-05 	
0.00180191 	0.00120127 	0.00164491 	9918.53 	0.00511709 	8.44353 	9910.08 	9910.08 	0 	
0.00181187 	-1.85473e-08 	0.92 	0.04 	0.04 	0.0291606 	3.80003 	
3.77087 	3.97141 	-0.200545 	-3.34356 	8.67207e-09 	3.34452 	26.7102 	
9.66967e-10 	14488.2 	246.919 	283.231 	0.35 	13.208 	-0.253146 	6.77333e-05 	
0.00180191 	0.00120127 	0.00164472 	9955.91 	0.00150576 	11.0189 	9944.89 	9944.89 	0 	
0.0018796 	0 	0.92 	0.04 	0.04 	0.0291606 	3.8 	
3.77084 	3.97141 	-0.200575 	-1.67274 	8.67207e-09 	0.83637 	29.2183 	
4.83776e-10 	7244.08 	123.46 	141.616 	0.35 	6.604 	-0.253292 	3.38667e-05 	
0.000900955 	0.000600637 	0.00164766 	9901.19 	0.00030136 	12.3928 	9888.8 	9888.8 	0 	
ZONE T = "t = 2.37813e-07 [s]" I = 10 SOLUTIONTIME = 2.3781250000000E-07
0.00127 	1.85526e-08 	0.92 	0.04 	0.04 	0.0291615 	3.80014 	
3.77098 	3.97141 	-0.200435 	-1.66819 	1.47105e-07 	29.2206 	0.834095 	
6.94056e-10 	7244.08 	123.46 	141.616 	0.35 	6.604 	-0.252603 	3.38667e-05 	
0.000900955 	0.000600637 	0.00238477 	9885.85 	0.0867865 	0.0428132 	9885.73 	9885.73 	0 	
0.00133773 	1.39189e-08 	0.92 	0.04 	0.04 	0.0291613 	3.80014 	
3.77098 	3.97141 	-0.200436 	-3.33648 	1.29813e-07 	26.7182 	3.33643 	
1.38815e-09 	14488.2 	246.919 	283.231 	0.35 	13.208 	-0.25261 	6.77333e-05 	
0.00180191 	0.00120127 	0.00238469 	9880.3 	0.0771853 	0.214074 	9880.01 	9880.01 	0 	
0.00140547 	9.28469e-09 	0.92 	0.04 	0.04 	0.0291611 	3.80013 	
3.77097 	3.97141 	-0.200442 	-3.33681 	1.12521e-07 	23.3816 	6.67307 	
1.38829e-09 	14488.2 	246.919 	283.231 	0.35 	13.208 	-0.252635 	6.77333e-05 	