TITLE = "Solution on Domain BulkDomain1D_1"
VARIABLES = "x [m]"  
"Vel_axial(0)" 	"MF_sp(ECDMC)" 	"MF_sp(Li+)" 	"MF_sp(PF6-)" 	"Volt(Electroly)" 	"qHeat_accum [J/m3]" 	"qHeat_step [W/m3]" 	"Joule_Lyte [W/m3]" 	"Joule_Solid [W/m3]" 	
ZONE T = "t = 0 [s]" I = 10 SOLUTIONTIME = 0.0000000000000E+00
0.0007874 	0 	0.92 	0.04 	0.04 	-0.07 	
0 	0.0 	 0.0 	 0.0 	 
0.000841022 	0 	0.92 	0.04 	0.04 	-0.07 	
0 	0.0 	 0.0 	 0.0 	 
0.000894644 	0 	0.92 	0.04 	0.04 	-0.07 	
0 	0.0 	 0.0 	 0.0 	 
0.000948267 	0 	0.92 	0.04 	0.04 	-0.07 	
0 	0.0 	 0.0 	 0.0 	 
0.00100189 	0 	0.92 	0.04 	0.04 	-0.07 	
0 	0.0 	 0.0 	 0.0 	 
0.00105551 	0 	0.92 	0.04 	0.04 	-0.07 	
0 	0.0 	 0.0 	 0.0 	 
0.00110913 	0 	0.92 	0.04 	0.04 	-0.07 	
0 	0.0 	 0.0 	 0.0 	 
0.00116276 	0 	0.92 	0.04 	0.04 	-0.07 	
0 	0.0 	 0.0 	 0.0 	 
0.00121638 	0 	0.92 	0.04 	0.04 	-0.07 	
0 	0.0 	 0.0 	 0.0 	 
0.00127 	0 	0.92 	0.04 	0.04 	-0.07 	
0 	0.0 	 0.0 	 0.0 	 
ZONE T = "t = 0 [s]" I = 10 SOLUTIONTIME = 0.0000000000000E+00
0.0007874 	0 	0.92 	0.04 	0.04 	-0.07 	
0 	0.0 	 0.0 	 0.0 	 
0.000841022 	0 	0.92 	0.04 	0.04 	-0.07 	
0 	0.0 	 0.0 	 0.0 	 
0.000894644 	0 	0.92 	0.04 	0.04 	-0.07 	
0 	0.0 	 0.0 	 0.0 	 
0.000948267 	0 	0.92 	0.04 	0.04 	-0.07 	
0 	0.0 	 0.0 	 0.0 	 
0.00100189 	0 	0.92 	0.04 	0.04 	-0.07 	
0 	0.0 	 0.0 	 0.0 	 
0.00105551 	0 	0.92 	0.04 	0.04 	-0.07 	
0 	0.0 	 0.0 	 0.0 	 
0.00110913 	0 	0.92 	0.04 	0.04 	-0.07 	
0 	0.0 	 0.0 	 0.0 	 
0.00116276 	0 	0.92 	0.04 	0.04 	-0.07 	
0 	0.0 	 0.0 	 0.0 	 
0.00121638 	0 	0.92 	0.04 	0.04 	-0.07 	
0 	0.0 	 0.0 	 0.0 	 
0.00127 	0 	0.92 	0.04 	0.04 	-0.07 	
0 	0.0 	 0.0 	 0.0 	 
ZONE T = "t = 1e-08 [s]" I = 10 SOLUTIONTIME = 1.0000000000000E-08
0.0007874 	2.93957e-08 	0.92 	0.04 	0.04 	0.0113499 	
5.49109e-10 	0.0549109 	0.0549109 	0 	
0.000841022 	2.93957e-08 	0.92 	0.04 	0.04 	0.0113498 	
5.49109e-10 	0.0549109 	0.0549109 	0 	
0.000894644 	2.93957e-08 	0.92 	0.04 	0.04 	0.0113497 	
5.49109e-10 	0.0549109 	0.0549109 	0 	
0.000948267 	2.93957e-08 	0.92 	0.04 	0.04 	0.0113497 	
5.49109e-10 	0.0549109 	0.0549109 	0 	
0.00100189 	2.93957e-08 	0.92 	0.04 	0.04 	0.0113496 	
5.49109e-10 	0.0549109 	0.0549109 	0 	
0.00105551 	2.93957e-08 	0.92 	0.04 	0.04 	0.0113495 	
5.49109e-10 	0.0549109 	0.0549109 	0 	
0.00110913 	2.93957e-08 	0.92 	0.04 	0.04 	0.0113495 	
5.49109e-10 	0.0549109 	0.0549109 	0 	
0.00116276 	2.93957e-08 	0.92 	0.04 	0.04 	0.0113494 	
5.49109e-10 	0.0549109 	0.0549109 	0 	
0.00121638 	2.93957e-08 	0.92 	0.04 	0.04 	0.0113493 	
5.49109e-10 	0.0549109 	0.0549109 	0 	
0.00127 	2.77646e-08 	0.92 	0.04 	0.04 	0.0113493 	
5.49109e-10 	0.0549109 	0.0549109 	0 	
ZONE T = "t = 2e-08 [s]" I = 10 SOLUTIONTIME = 2.0000000000000E-08
0.0007874 	2.08683e-08 	0.92 	0.04 	0.04 	0.0291619 	
8.25846e-10 	0.0276737 	0.0276737 	0 	
0.000841022 	2.08683e-08 	0.92 	0.04 	0.04 	0.0291619 	
8.25846e-10 	0.0276737 	0.0276737 	0 	
0.000894644 	2.08683e-08 	0.92 	0.04 	0.04 	0.0291618 	
8.25846e-10 	0.0276737 	0.0276737 	0 	
0.000948267 	2.08683e-08 	0.92 	0.04 	0.04 	0.0291618 	
8.25846e-10 	0.0276737 	0.0276737 	0 	
0.00100189 	2.08683e-08 	0.92 	0.04 	0.04 	0.0291617 	
8.25846e-10 	0.0276737 	0.0276737 	0 	
0.00105551 	2.08683e-08 	0.92 	0.04 	0.04 	0.0291617 	
8.25846e-10 	0.0276737 	0.0276737 	0 	
0.00110913 	2.08683e-08 	0.92 	0.04 	0.04 	0.0291616 	
8.25846e-10 	0.0276737 	0.0276737 	0 	
0.00116276 	2.08683e-08 	0.92 	0.04 	0.04 	0.0291616 	
8.25846e-10 	0.0276737 	0.0276737 	0 	
0.00121638 	2.08683e-08 	0.92 	0.04 	0.04 	0.0291615 	
8.25846e-10 	0.0276737 	0.0276737 	0 	
0.00127 	1.971e-08 	0.92 	0.04 	0.04 	0.0291615 	
8.25846e-10 	0.0276737 	0.0276737 	0 	
ZONE T = "t = 3e-08 [s]" I = 10 SOLUTIONTIME = 3.0000000000000E-08
0.0007874 	2.08683e-08 	0.92 	0.04 	0.04 	0.029162 	
1.10258e-09 	0.0276736 	0.0276736 	0 	
0.000841022 	2.08683e-08 	0.92 	0.04 	0.04 	0.029162 	
1.10258e-09 	0.0276736 	0.0276736 	0 	
0.000894644 	2.08683e-08 	0.92 	0.04 	0.04 	0.0291619 	
1.10258e-09 	0.0276736 	0.0276736 	0 	
0.000948267 	2.08683e-08 	0.92 	0.04 	0.04 	0.0291619 	
1.10258e-09 	0.0276736 	0.0276736 	0 	
0.00100189 	2.08683e-08 	0.92 	0.04 	0.04 	0.0291618 	
1.10258e-09 	0.0276736 	0.0276736 	0 	
0.00105551 	2.08683e-08 	0.92 	0.04 	0.04 	0.0291618 	
1.10258e-09 	0.0276736 	0.0276736 	0 	
0.00110913 	2.08683e-08 	0.92 	0.04 	0.04 	0.0291617 	
1.10258e-09 	0.0276736 	0.0276736 	0 	
0.00116276 	2.08683e-08 	0.92 	0.04 	0.04 	0.0291617 	
1.10258e-09 	0.0276736 	0.0276736 	0 	
0.00121638 	2.08683e-08 	0.92 	0.04 	0.04 	0.0291616 	
1.10258e-09 	0.0276736 	0.0276736 	0 	
0.00127 	1.971e-08 	0.92 	0.04 	0.04 	0.0291616 	
1.10258e-09 	0.0276736 	0.0276736 	0 	
ZONE T = "t = 4e-08 [s]" I = 10 SOLUTIONTIME = 4.0000000000000E-08
0.0007874 	2.08701e-08 	0.92 	0.04 	0.04 	0.029162 	
1.37937e-09 	0.0276785 	0.0276785 	0 	
0.000841022 	2.08701e-08 	0.92 	0.04 	0.04 	0.0291619 	
1.37937e-09 	0.0276785 	0.0276785 	0 	
0.000894644 	2.08701e-08 	0.92 	0.04 	0.04 	0.0291619 	
1.37937e-09 	0.0276785 	0.0276785 	0 	
0.000948267 	2.08701e-08 	0.92 	0.04 	0.04 	0.0291618 	
1.37937e-09 	0.0276785 	0.0276785 	0 	
0.00100189 	2.08701e-08 	0.92 	0.04 	0.04 	0.0291618 	
1.37937e-09 	0.0276785 	0.0276785 	0 	
0.00105551 	2.08701e-08 	0.92 	0.04 	0.04 	0.0291617 	
1.37937e-09 	0.0276785 	0.0276785 	0 	
0.00110913 	2.08701e-08 	0.92 	0.04 	0.04 	0.0291617 	
1.37937e-09 	0.0276785 	0.0276785 	0 	
0.00116276 	2.08701e-08 	0.92 	0.04 	0.04 	0.0291616 	
1.37937e-09 	0.0276785 	0.0276785 	0 	
0.00121638 	2.08701e-08 	0.92 	0.04 	0.04 	0.0291616 	
1.37937e-09 	0.0276785 	0.0276785 	0 	
0.00127 	1.97117e-08 	0.92 	0.04 	0.04 	0.0291615 	
1.37937e-09 	0.0276785 	0.0276785 	0 	
ZONE T = "t = 5.5e-08 [s]" I = 10 SOLUTIONTIME = 5.5000000000000E-08
0.0007874 	2.08701e-08 	0.92 	0.04 	0.04 	0.029162 	
1.79454e-09 	0.0276785 	0.0276785 	0 	
0.000841022 	2.08701e-08 	0.92 	0.04 	0.04 	0.0291619 	
1.79454e-09 	0.0276785 	0.0276785 	0 	
0.000894644 	2.08701e-08 	0.92 	0.04 	0.04 	0.0291619 	
1.79454e-09 	0.0276785 	0.0276785 	0 	
0.000948267 	2.08701e-08 	0.92 	0.04 	0.04 	0.0291618 	
1.79454e-09 	0.0276785 	0.0276785 	0 	
0.00100189 	2.08701e-08 	0.92 	0.04 	0.04 	0.0291618 	
1.79454e-09 	0.0276785 	0.0276785 	0 	
0.00105551 	2.08701e-08 	0.92 	0.04 	0.04 	0.0291617 	
1.79454e-09 	0.0276785 	0.0276785 	0 	
0.00110913 	2.08701e-08 	0.92 	0.04 	0.04 	0.0291617 	
1.79454e-09 	0.0276785 	0.0276785 	0 	
0.00116276 	2.08701e-08 	0.92 	0.04 	0.04 	0.0291616 	
1.79454e-09 	0.0276785 	0.0276785 	0 	
0.00121638 	2.08701e-08 	0.92 	0.04 	0.04 	0.0291616 	
1.79454e-09 	0.0276785 	0.0276785 	0 	
0.00127 	1.97117e-08 	0.92 	0.04 	0.04 	0.0291615 	
1.79454e-09 	0.0276785 	0.0276785 	0 	
ZONE T = "t = 7.75e-08 [s]" I = 10 SOLUTIONTIME = 7.7500000000000E-08
0.0007874 	2.08701e-08 	0.92 	0.04 	0.04 	0.029162 	
2.41731e-09 	0.0276785 	0.0276785 	0 	
0.000841022 	2.08701e-08 	0.92 	0.04 	0.04 	0.0291619 	
2.41731e-09 	0.0276785 	0.0276785 	0 	
0.000894644 	2.08701e-08 	0.92 	0.04 	0.04 	0.0291619 	
2.41731e-09 	0.0276785 	0.0276785 	0 	
0.000948267 	2.08701e-08 	0.92 	0.04 	0.04 	0.0291618 	
2.41731e-09 	0.0276785 	0.0276785 	0 	
0.00100189 	2.08701e-08 	0.92 	0.04 	0.04 	0.0291618 	
2.41731e-09 	0.0276785 	0.0276785 	0 	
0.00105551 	2.08701e-08 	0.92 	0.04 	0.04 	0.0291617 	
2.41731e-09 	0.0276785 	0.0276785 	0 	
0.00110913 	2.08701e-08 	0.92 	0.04 	0.04 	0.0291617 	
2.41731e-09 	0.0276785 	0.0276785 	0 	
0.00116276 	2.08701e-08 	0.92 	0.04 	0.04 	0.0291616 	
2.41731e-09 	0.0276785 	0.0276785 	0 	
0.00121638 	2.08701e-08 	0.92 	0.04 	0.04 	0.0291616 	
2.41731e-09 	0.0276785 	0.0276785 	0 	
0.00127 	1.97117e-08 	0.92 	0.04 	0.04 	0.0291615 	
2.41731e-09 	0.0276785 	0.0276785 	0 	
ZONE T = "t = 1.1125e-07 [s]" I = 10 SOLUTIONTIME = 1.1125000000000E-07
0.0007874 	2.08701e-08 	0.92 	0.04 	0.04 	0.029162 	
3.35146e-09 	0.0276785 	0.0276785 	0 	
0.000841022 	2.08701e-08 	0.92 	0.04 	0.04 	0.0291619 	
3.35146e-09 	0.0276785 	0.0276785 	0 	
0.000894644 	2.08701e-08 	0.92 	0.04 	0.04 	0.0291619 	
3.35146e-09 	0.0276785 	0.0276785 	0 	
0.000948267 	2.08701e-08 	0.92 	0.04 	0.04 	0.0291618 	
3.35146e-09 	0.0276785 	0.0276785 	0 	
0.00100189 	2.08701e-08 	0.92 	0.04 	0.04 	0.0291618 	
3.35146e-09 	0.0276785 	0.0276785 	0 	
0.00105551 	2.08701e-08 	0.92 	0.04 	0.04 	0.0291617 	
3.35146e-09 	0.0276785 	0.0276785 	0 	
0.00110913 	2.08701e-08 	0.92 	0.04 	0.04 	0.0291617 	
3.35146e-09 	0.0276785 	0.0276785 	0 	
0.00116276 	2.08701e-08 	0.92 	0.04 	0.04 	0.0291616 	
3.35146e-09 	0.0276785 	0.0276785 	0 	
0.00121638 	2.08701e-08 	0.92 	0.04 	0.04 	0.0291616 	
3.35146e-09 	0.0276785 	0.0276785 	0 	
0.00127 	1.97117e-08 	0.92 	0.04 	0.04 	0.0291615 	
3.35146e-09 	0.0276785 	0.0276785 	0 	
ZONE T = "t = 1.61875e-07 [s]" I = 10 SOLUTIONTIME = 1.6187500000000E-07
0.0007874 	2.08701e-08 	0.92 	0.04 	0.04 	0.029162 	
4.75269e-09 	0.0276785 	0.0276785 	0 	
0.000841022 	2.08701e-08 	0.92 	0.04 	0.04 	0.0291619 	
4.75269e-09 	0.0276785 	0.0276785 	0 	
0.000894644 	2.08701e-08 	0.92 	0.04 	0.04 	0.0291619 	
4.75269e-09 	0.0276785 	0.0276785 	0 	
0.000948267 	2.08701e-08 	0.92 	0.04 	0.04 	0.0291618 	
4.75269e-09 	0.0276785 	0.0276785 	0 	
0.00100189 	2.08701e-08 	0.92 	0.04 	0.04 	0.0291618 	
4.75269e-09 	0.0276785 	0.0276785 	0 	
0.00105551 	2.08701e-08 	0.92 	0.04 	0.04 	0.0291617 	
4.75269e-09 	0.0276785 	0.0276785 	0 	
0.00110913 	2.08701e-08 	0.92 	0.04 	0.04 	0.0291617 	
4.75269e-09 	0.0276785 	0.0276785 	0 	
0.00116276 	2.08701e-08 	0.92 	0.04 	0.04 	0.0291616 	
4.75269e-09 	0.0276785 	0.0276785 	0 	
0.00121638 	2.08701e-08 	0.92 	0.04 	0.04 	0.0291616 	
4.75269e-09 	0.0276785 	0.0276785 	0 	
0.00127 	1.97117e-08 	0.92 	0.04 	0.04 	0.0291615 	
4.75269e-09 	0.0276785 	0.0276785 	0 	
ZONE T = "t = 2.37813e-07 [s]" I = 10 SOLUTIONTIME = 2.3781250000000E-07
0.0007874 	2.08701e-08 	0.92 	0.04 	0.04 	0.029162 	
6.85452e-09 	0.0276785 	0.0276785 	0 	
0.000841022 	2.08701e-08 	0.92 	0.04 	0.04 	0.0291619 	
6.85452e-09 	0.0276785 	0.0276785 	0 	
0.000894644 	2.08701e-08 	0.92 	0.04 	0.04 	0.0291619 	
6.85452e-09 	0.0276785 	0.0276785 	0 	
0.000948267 	2.08701e-08 	0.92 	0.04 	0.04 	0.0291618 	
6.85452e-09 	0.0276785 	0.0276785 	0 	
0.00100189 	2.08701e-08 	0.92 	0.04 	0.04 	0.0291618 	
6.85452e-09 	0.0276785 	0.0276785 	0 	
0.00105551 	2.08701e-08 	0.92 	0.04 	0.04 	0.0291617 	
6.85452e-09 	0.0276785 	0.0276785 	0 	
0.00110913 	2.08701e-08 	0.92 	0.04 	0.04 	0.0291617 	
6.85452e-09 	0.0276785 	0.0276785 	0 	
0.00116276 	2.08701e-08 	0.92 	0.04 	0.04 	0.0291616 	
6.85452e-09 	0.0276785 	0.0276785 	0 	
0.00121638 	2.08701e-08 	0.92 	0.04 	0.04 	0.0291616 	
6.85452e-09 	0.0276785 	0.0276785 	0 	
0.00127 	1.97117e-08 	0.92 	0.04 	0.04 	0.0291615 	
6.85452e-09 	0.0276785 	0.0276785 	0 	
ZONE T = "t = 3.51719e-07 [s]" I = 10 SOLUTIONTIME = 3.5171875000000E-07
0.0007874 	2.08701e-08 	0.92 	0.04 	0.04 	0.029162 	
1.00073e-08 	0.0276785 	0.0276785 	0 	
0.000841022 	2.08701e-08 	0.92 	0.04 	0.04 	0.0291619 	
1.00073e-08 	0.0276785 	0.0276785 	0 	
0.000894644 	2.08701e-08 	0.92 	0.04 	0.04 	0.0291619 	
1.00073e-08 	0.0276785 	0.0276785 	0 	
0.000948267 	2.08701e-08 	0.92 	0.04 	0.04 	0.0291618 	
1.00073e-08 	0.0276785 	0.0276785 	0 	
0.00100189 	2.08701e-08 	0.92 	0.04 	0.04 	0.0291618 	
1.00073e-08 	0.0276785 	0.0276785 	0 	
0.00105551 	2.08701e-08 	0.92 	0.04 	0.04 	0.0291617 	
1.00073e-08 	0.0276785 	0.0276785 	0 	
0.00110913 	2.08701e-08 	0.92 	0.04 	0.04 	0.0291617 	
1.00073e-08 	0.0276785 	0.0276785 	0 	
0.00116276 	2.08701e-08 	0.92 	0.04 	0.04 	0.0291616 	
1.00073e-08 	0.0276785 	0.0276785 	0 	
0.00121638 	2.08701e-08 	0.92 	0.04 	0.04 	0.0291616 	
1.00073e-08 	0.0276785 	0.0276785 	0 	
0.00127 	1.97117e-08 	0.92 	0.04 	0.04 	0.0291615 	
1.00073e-08 	0.0276785 	0.0276785 	0 	
ZONE T = "t = 5.22578e-07 [s]" I = 10 SOLUTIONTIME = 5.2257812500000E-07
0.0007874 	2.08701e-08 	0.92 	0.04 	0.04 	0.029162 	
1.47364e-08 	0.0276785 	0.0276785 	0 	
0.000841022 	2.08701e-08 	0.92 	0.04 	0.04 	0.0291619 	
1.47364e-08 	0.0276785 	0.0276785 	0 	
0.000894644 	2.08701e-08 	0.92 	0.04 	0.04 	0.0291619 	
1.47364e-08 	0.0276785 	0.0276785 	0 	
0.000948267 	2.08701e-08 	0.92 	0.04 	0.04 	0.0291618 	
1.47364e-08 	0.0276785 	0.0276785 	0 	
0.00100189 	2.08701e-08 	0.92 	0.04 	0.04 	0.0291618 	
1.47364e-08 	0.0276785 	0.0276785 	0 	
0.00105551 	2.08701e-08 	0.92 	0.04 	0.04 	0.0291617 	
1.47364e-08 	0.0276785 	0.0276785 	0 	
0.00110913 	2.08701e-08 	0.92 	0.04 	0.04 	0.0291617 	
1.47364e-08 	0.0276785 	0.0276785 	0 	
0.00116276 	2.08701e-08 	0.92 	0.04 	0.04 	0.0291616 	
1.47364e-08 	0.0276785 	0.0276785 	0 	
0.00121638 	2.08701e-08 	0.92 	0.04 	0.04 	0.0291616 	
1.47364e-08 	0.0276785 	0.0276785 	0 	
0.00127 	1.97117e-08 	0.92 	0.04 	0.04 	0.0291615 	
1.47364e-08 	0.0276785 	0.0276785 	0 	
ZONE T = "t = 7.78867e-07 [s]" I = 10 SOLUTIONTIME = 7.7886718750000E-07
0.0007874 	2.08701e-08 	0.92 	0.04 	0.04 	0.029162 	
2.18301e-08 	0.0276785 	0.0276785 	0 	
0.000841022 	2.08701e-08 	0.92 	0.04 	0.04 	0.0291619 	
2.18301e-08 	0.0276785 	0.0276785 	0 	
0.000894644 	2.08701e-08 	0.92 	0.04 	0.04 	0.0291619 	
2.18301e-08 	0.0276785 	0.0276785 	0 	
0.000948267 	2.08701e-08 	0.92 	0.04 	0.04 	0.0291618 	
2.18301e-08 	0.0276785 	0.0276785 	0 	
0.00100189 	2.08701e-08 	0.92 	0.04 	0.04 	0.0291618 	
2.18301e-08 	0.0276785 	0.0276785 	0 	
0.00105551 	2.08701e-08 	0.92 	0.04 	0.04 	0.0291617 	
2.18301e-08 	0.0276785 	0.0276785 	0 	
0.00110913 	2.08701e-08 	0.92 	0.04 	0.04 	0.0291617 	
2.18301e-08 	0.0276785 	0.0276785 	0 	
0.00116276 	2.08701e-08 	0.92 	0.04 	0.04 	0.0291616 	
2.18301e-08 	0.0276785 	0.0276785 	0 	
0.00121638 	2.08701e-08 	0.92 	0.04 	0.04 	0.0291616 	
2.18301e-08 	0.0276785 	0.0276785 	0 	
0.00127 	1.97117e-08 	0.92 	0.04 	0.04 	0.0291615 	
2.18301e-08 	0.0276785 	0.0276785 	0 	
ZONE T = "t = 1.1633e-06 [s]" I = 10 SOLUTIONTIME = 1.1633007812500E-06
0.0007874 	2.08701e-08 	0.92 	0.04 	0.04 	0.029162 	
3.24707e-08 	0.0276785 	0.0276785 	0 	
0.000841022 	2.08701e-08 	0.92 	0.04 	0.04 	0.0291619 	
3.24707e-08 	0.0276785 	0.0276785 	0 	
0.000894644 	2.08701e-08 	0.92 	0.04 	0.04 	0.0291619 	
3.24707e-08 	0.0276785 	0.0276785 	0 	
0.000948267 	2.08701e-08 	0.92 	0.04 	0.04 	0.0291618 	
3.24707e-08 	0.0276785 	0.0276785 	0 	
0.00100189 	2.08701e-08 	0.92 	0.04 	0.04 	0.0291618 	
3.24707e-08 	0.0276785 	0.0276785 	0 	
0.00105551 	2.08701e-08 	0.92 	0.04 	0.04 	0.0291617 	
3.24707e-08 	0.0276785 	0.0276785 	0 	
0.00110913 	2.08701e-08 	0.92 	0.04 	0.04 	0.0291617 	
3.24707e-08 	0.0276785 	0.0276785 	0 	
0.00116276 	2.08701e-08 	0.92 	0.04 	0.04 	0.0291616 	
3.24707e-08 	0.0276785 	0.0276785 	0 	
0.00121638 	2.08701e-08 	0.92 	0.04 	0.04 	0.0291616 	
3.24707e-08 	0.0276785 	0.0276785 	0 	
0.00127 	1.97117e-08 	0.92 	0.04 	0.04 	0.0291615 	
3.24707e-08 	0.0276785 	0.0276785 	0 	
ZONE T = "t = 1.73995e-06 [s]" I = 10 SOLUTIONTIME = 1.7399511718750E-06
0.0007874 	2.08701e-08 	0.92 	0.04 	0.04 	0.029162 	
4.84315e-08 	0.0276785 	0.0276785 	0 	
0.000841022 	2.08701e-08 	0.92 	0.04 	0.04 	0.0291619 	
4.84315e-08 	0.0276785 	0.0276785 	0 	
0.000894644 	2.08701e-08 	0.92 	0.04 	0.04 	0.0291619 	
4.84315e-08 	0.0276785 	0.0276785 	0 	
0.000948267 	2.08701e-08 	0.92 	0.04 	0.04 	0.0291618 	
4.84315e-08 	0.0276785 	0.0276785 	0 	
0.00100189 	2.08701e-08 	0.92 	0.04 	0.04 	0.0291618 	
4.84315e-08 	0.0276785 	0.0276785 	0 	
0.00105551 	2.08701e-08 	0.92 	0.04 	0.04 	0.0291617 	
4.84315e-08 	0.0276785 	0.0276785 	0 	
0.00110913 	2.08701e-08 	0.92 	0.04 	0.04 	0.0291617 	
4.84315e-08 	0.0276785 	0.0276785 	0 	
0.00116276 	2.08701e-08 	0.92 	0.04 	0.04 	0.0291616 	
4.84315e-08 	0.0276785 	0.0276785 	0 	
0.00121638 	2.08701e-08 	0.92 	0.04 	0.04 	0.0291616 	
4.84315e-08 	0.0276785 	0.0276785 	0 	
0.00127 	1.97117e-08 	0.92 	0.04 	0.04 	0.0291615 	
4.84315e-08 	0.0276785 	0.0276785 	0 	
ZONE T = "t = 2.60493e-06 [s]" I = 10 SOLUTIONTIME = 2.6049267578125E-06
0.0007874 	2.08701e-08 	0.92 	0.04 	0.04 	0.029162 	
7.23727e-08 	0.0276785 	0.0276785 	0 	
0.000841022 	2.08701e-08 	0.92 	0.04 	0.04 	0.0291619 	
7.23727e-08 	0.0276785 	0.0276785 	0 	
0.000894644 	2.08701e-08 	0.92 	0.04 	0.04 	0.0291619 	
7.23727e-08 	0.0276785 	0.0276785 	0 	
0.000948267 	2.08701e-08 	0.92 	0.04 	0.04 	0.0291618 	
7.23727e-08 	0.0276785 	0.0276785 	0 	
0.00100189 	2.08701e-08 	0.92 	0.04 	0.04 	0.0291618 	
7.23727e-08 	0.0276785 	0.0276785 	0 	
0.00105551 	2.08701e-08 	0.92 	0.04 	0.04 	0.0291617 	
7.23727e-08 	0.0276785 	0.0276785 	0 	
0.00110913 	2.08701e-08 	0.92 	0.04 	0.04 	0.0291617 	
7.23727e-08 	0.0276785 	0.0276785 	0 	
0.00116276 	2.08701e-08 	0.92 	0.04 	0.04 	0.0291616 	
7.23727e-08 	0.0276785 	0.0276785 	0 	
0.00121638 	2.08701e-08 	0.92 	0.04 	0.04 	0.0291616 	
7.23727e-08 	0.0276785 	0.0276785 	0 	
0.00127 	1.97117e-08 	0.92 	0.04 	0.04 	0.0291615 	
7.23727e-08 	0.0276785 	0.0276785 	0 	
ZONE T = "t = 3.90239e-06 [s]" I = 10 SOLUTIONTIME = 3.9023901367188E-06
0.0007874 	2.08701e-08 	0.92 	0.04 	0.04 	0.029162 	
1.08285e-07 	0.0276785 	0.0276785 	0 	
0.000841022 	2.08701e-08 	0.92 	0.04 	0.04 	0.0291619 	
1.08285e-07 	0.0276785 	0.0276785 	0 	
0.000894644 	2.08701e-08 	0.92 	0.04 	0.04 	0.0291619 	
1.08285e-07 	0.0276785 	0.0276785 	0 	
0.000948267 	2.08701e-08 	0.92 	0.04 	0.04 	0.0291618 	
1.08285e-07 	0.0276785 	0.0276785 	0 	
0.00100189 	2.08701e-08 	0.92 	0.04 	0.04 	0.0291618 	
1.08285e-07 	0.0276785 	0.0276785 	0 	
0.00105551 	2.08701e-08 	0.92 	0.04 	0.04 	0.0291617 	
1.08285e-07 	0.0276785 	0.0276785 	0 	
0.00110913 	2.08701e-08 	0.92 	0.04 	0.04 	0.0291617 	
1.08285e-07 	0.0276785 	0.0276785 	0 	
0.00116276 	2.08701e-08 	0.92 	0.04 	0.04 	0.0291616 	
1.08285e-07 	0.0276785 	0.0276785 	0 	
0.00121638 	2.08701e-08 	0.92 	0.04 	0.04 	0.0291616 	
1.08285e-07 	0.0276785 	0.0276785 	0 	
0.00127 	1.97117e-08 	0.92 	0.04 	0.04 	0.0291615 	
1.08285e-07 	0.0276785 	0.0276785 	0 	
ZONE T = "t = 5.84859e-06 [s]" I = 10 SOLUTIONTIME = 5.8485852050781E-06
0.0007874 	2.08701e-08 	0.92 	0.04 	0.04 	0.029162 	
1.62152e-07 	0.0276785 	0.0276785 	0 	
0.000841022 	2.08701e-08 	0.92 	0.04 	0.04 	0.0291619 	
1.62152e-07 	0.0276785 	0.0276785 	0 	
0.000894644 	2.08701e-08 	0.92 	0.04 	0.04 	0.0291619 	
1.62152e-07 	0.0276785 	0.0276785 	0 	
0.000948267 	2.08701e-08 	0.92 	0.04 	0.04 	0.0291618 	
1.62152e-07 	0.0276785 	0.0276785 	0 	
0.00100189 	2.08701e-08 	0.92 	0.04 	0.04 	0.0291618 	
1.62152e-07 	0.0276785 	0.0276785 	0 	
0.00105551 	2.08701e-08 	0.92 	0.04 	0.04 	0.0291617 	
1.62152e-07 	0.0276785 	0.0276785 	0 	
0.00110913 	2.08701e-08 	0.92 	0.04 	0.04 	0.0291617 	
1.62152e-07 	0.0276785 	0.0276785 	0 	
0.00116276 	2.08701e-08 	0.92 	0.04 	0.04 	0.0291616 	
1.62152e-07 	0.0276785 	0.0276785 	0 	
0.00121638 	2.08701e-08 	0.92 	0.04 	0.04 	0.0291616 	
1.62152e-07 	0.0276785 	0.0276785 	0 	
0.00127 	1.97117e-08 	0.92 	0.04 	0.04 	0.0291615 	
1.62152e-07 	0.0276785 	0.0276785 	0 	
ZONE T = "t = 8.76788e-06 [s]" I = 10 SOLUTIONTIME = 8.7678778076172E-06
0.0007874 	2.08701e-08 	0.92 	0.04 	0.04 	0.029162 	
2.42954e-07 	0.0276785 	0.0276785 	0 	
0.000841022 	2.08701e-08 	0.92 	0.04 	0.04 	0.0291619 	
2.42954e-07 	0.0276785 	0.0276785 	0 	
0.000894644 	2.08701e-08 	0.92 	0.04 	0.04 	0.0291619 	
2.42954e-07 	0.0276785 	0.0276785 	0 	
0.000948267 	2.08701e-08 	0.92 	0.04 	0.04 	0.0291618 	
2.42954e-07 	0.0276785 	0.0276785 	0 	
0.00100189 	2.08701e-08 	0.92 	0.04 	0.04 	0.0291618 	
2.42954e-07 	0.0276785 	0.0276785 	0 	
0.00105551 	2.08701e-08 	0.92 	0.04 	0.04 	0.0291617 	
2.42954e-07 	0.0276785 	0.0276785 	0 	
0.00110913 	2.08701e-08 	0.92 	0.04 	0.04 	0.0291617 	
2.42954e-07 	0.0276785 	0.0276785 	0 	
0.00116276 	2.08701e-08 	0.92 	0.04 	0.04 	0.0291616 	
2.42954e-07 	0.0276785 	0.0276785 	0 	
0.00121638 	2.08701e-08 	0.92 	0.04 	0.04 	0.0291616 	
2.42954e-07 	0.0276785 	0.0276785 	0 	
0.00127 	1.97117e-08 	0.92 	0.04 	0.04 	0.0291615 	
2.42954e-07 	0.0276785 	0.0276785 	0 	
ZONE T = "t = 1e-05 [s]" I = 10 SOLUTIONTIME = 1.0000000000000E-05
0.0007874 	2.08701e-08 	0.92 	0.04 	0.04 	0.029162 	
2.77057e-07 	0.0276785 	0.0276785 	0 	
0.000841022 	2.08701e-08 	0.92 	0.04 	0.04 	0.0291619 	
2.77057e-07 	0.0276785 	0.0276785 	0 	
0.000894644 	2.08701e-08 	0.92 	0.04 	0.04 	0.0291619 	
2.77057e-07 	0.0276785 	0.0276785 	0 	
0.000948267 	2.08701e-08 	0.92 	0.04 	0.04 	0.0291618 	
2.77057e-07 	0.0276785 	0.0276785 	0 	
0.00100189 	2.08701e-08 	0.92 	0.04 	0.04 	0.0291618 	
2.77057e-07 	0.0276785 	0.0276785 	0 	
0.00105551 	2.08701e-08 	0.92 	0.04 	0.04 	0.0291617 	
2.77057e-07 	0.0276785 	0.0276785 	0 	
0.00110913 	2.08701e-08 	0.92 	0.04 	0.04 	0.0291617 	
2.77057e-07 	0.0276785 	0.0276785 	0 	
0.00116276 	2.08701e-08 	0.92 	0.04 	0.04 	0.0291616 	
2.77057e-07 	0.0276785 	0.0276785 	0 	
0.00121638 	2.08701e-08 	0.92 	0.04 	0.04 	0.0291616 	
2.77057e-07 	0.0276785 	0.0276785 	0 	
0.00127 	1.97117e-08 	0.92 	0.04 	0.04 	0.0291615 	
2.77057e-07 	0.0276785 	0.0276785 	0 	
ZONE T = "t = 1e-05 [s]" I = 10 SOLUTIONTIME = 1.0000000000000E-05
0.0007874 	2.08701e-08 	0.92 	0.04 	0.04 	0.029162 	
2.77057e-07 	0.0276785 	0.0276785 	0 	
0.000841022 	2.08701e-08 	0.92 	0.04 	0.04 	0.0291619 	
2.77057e-07 	0.0276785 	0.0276785 	0 	
0.000894644 	2.08701e-08 	0.92 	0.04 	0.04 	0.0291619 	
2.77057e-07 	0.0276785 	0.0276785 	0 	
0.000948267 	2.08701e-08 	0.92 	0.04 	0.04 	0.0291618 	
2.77057e-07 	0.0276785 	0.0276785 	0 	
0.00100189 	2.08701e-08 	0.92 	0.04 	0.04 	0.0291618 	
2.77057e-07 	0.0276785 	0.0276785 	0 	
0.00105551 	2.08701e-08 	0.92 	0.04 	0.04 	0.0291617 	
2.77057e-07 	0.0276785 	0.0276785 	0 	
0.00110913 	2.08701e-08 	0.92 	0.04 	0.04 	0.0291617 	
2.77057e-07 	0.0276785 	0.0276785 	0 	
0.00116276 	2.08701e-08 	0.92 	0.04 	0.04 	0.0291616 	
2.77057e-07 	0.0276785 	0.0276785 	0 	
0.00121638 	2.08701e-08 	0.92 	0.04 	0.04 	0.0291616 	
2.77057e-07 	0.0276785 	0.0276785 	0 	
0.00127 	1.97117e-08 	0.92 	0.04 	0.04 	0.0291615 	
2.77057e-07 	0.0276785 	0.0276785 	0 	
