TITLE = "Solution on Domain BulkDomain1D_2"
VARIABLES = "x [m]"  
"Vel_axial" 	"MF_sp(ECDMC)" 	"MF_sp(Li+)" 	"MF_sp(PF6-)" 	"Volt(Electroly)" 	"Volt(CathodeVo)" 	
"Potential Drop Electrode-Electrolyte [V]" 	"Surf_0 Equilibrium Potential Drop Electrode-Electrolyte [V]" 	"Overpotential_0 [V]" 	"Current Source [A/m^2]" 	"Li+ flux [kmol/m^2/s]" 	"Electrolyte Current [A/m^2]" 	"Electrode Current [A/m^2]" 	
"CV Capacity discharged [A-s/m^2]" 	"Depth of discharge in CV [A-s/m^2]" 	"CV Capacity remaining [A-s/m^2]" 	"Initial CV capacity [A-s/m^2]" 	"Porosity []" 	"Surface Area [m2/m2] (area per area)" 	"Specific current (per particle area) [A/m^2]" 	"Control volume thickness [m]" 	
"MoleDens LiCoO2 [kmol/m^3]" 	"MoleDens CoO2 [kmol/m^3]" 	"qHeat_accum [J/m3]" 	"qHeat_step [W/m3]" 	"Joule_Lyte [W/m3]" 	"Joule_Solid [W/m3]" 	"electrodHeat [W/m3]" 	"OverpotHeat [W/m3]" 	"deltaSHeat [W/m3]" 	

ZONE T = "CATH, 0.0000E+00", I = 10, SOLUTIONTIME = 0.000000E+00
ZONETYPE = ORDERED
DATAPACKING = BLOCK
STRANDID = 3
 1.2700000000000E-03  1.3377333333333E-03  1.4054666666667E-03  1.4732000000000E-03  1.5409333333333E-03  1.6086666666667E-03  1.6764000000000E-03  1.7441333333333E-03  1.8118666666667E-03  1.8796000000000E-03 
 0.0000000000000E+00  0.0000000000000E+00  0.0000000000000E+00  0.0000000000000E+00  0.0000000000000E+00  0.0000000000000E+00  0.0000000000000E+00  0.0000000000000E+00  0.0000000000000E+00  0.0000000000000E+00 
 9.2000000000000E-01  9.2000000000000E-01  9.2000000000000E-01  9.2000000000000E-01  9.2000000000000E-01  9.2000000000000E-01  9.2000000000000E-01  9.2000000000000E-01  9.2000000000000E-01  9.2000000000000E-01 
 4.0000000000000E-02  4.0000000000000E-02  4.0000000000000E-02  4.0000000000000E-02  4.0000000000000E-02  4.0000000000000E-02  4.0000000000000E-02  4.0000000000000E-02  4.0000000000000E-02  4.0000000000000E-02 
 4.0000000000000E-02  4.0000000000000E-02  4.0000000000000E-02  4.0000000000000E-02  4.0000000000000E-02  4.0000000000000E-02  4.0000000000000E-02  4.0000000000000E-02  4.0000000000000E-02  4.0000000000000E-02 
-7.0000000000000E-02 -7.0000000000000E-02 -7.0000000000000E-02 -7.0000000000000E-02 -7.0000000000000E-02 -7.0000000000000E-02 -7.0000000000000E-02 -7.0000000000000E-02 -7.0000000000000E-02 -7.0000000000000E-02 
 3.8000000000000E+00  3.8000000000000E+00  3.8000000000000E+00  3.8000000000000E+00  3.8000000000000E+00  3.8000000000000E+00  3.8000000000000E+00  3.8000000000000E+00  3.8000000000000E+00  3.8000000000000E+00 
 3.8700000000000E+00  3.8700000000000E+00  3.8700000000000E+00  3.8700000000000E+00  3.8700000000000E+00  3.8700000000000E+00  3.8700000000000E+00  3.8700000000000E+00  3.8700000000000E+00  3.8700000000000E+00 
 3.9714142713289E+00  3.9714142713289E+00  3.9714142713289E+00  3.9714142713289E+00  3.9714142713289E+00  3.9714142713289E+00  3.9714142713289E+00  3.9714142713289E+00  3.9714142713289E+00  3.9714142713289E+00 
-1.0141427132889E-01 -1.0141427132889E-01 -1.0141427132889E-01 -1.0141427132889E-01 -1.0141427132889E-01 -1.0141427132889E-01 -1.0141427132889E-01 -1.0141427132889E-01 -1.0141427132889E-01 -1.0141427132889E-01 
-2.3826357195711E-01 -4.7652714391422E-01 -4.7652714391423E-01 -4.7652714391422E-01 -4.7652714391423E-01 -4.7652714391423E-01 -4.7652714391422E-01 -4.7652714391423E-01 -4.7652714391422E-01 -2.3826357195711E-01 
-0.0000000000000E+00 -0.0000000000000E+00 -0.0000000000000E+00 -0.0000000000000E+00 -0.0000000000000E+00 -0.0000000000000E+00 -0.0000000000000E+00 -0.0000000000000E+00 -0.0000000000000E+00 -0.0000000000000E+00 
 2.3826357195711E-01  0.0000000000000E+00  0.0000000000000E+00  0.0000000000000E+00  0.0000000000000E+00  0.0000000000000E+00  0.0000000000000E+00  0.0000000000000E+00  0.0000000000000E+00  0.0000000000000E+00 
 0.0000000000000E+00 -0.0000000000000E+00 -0.0000000000000E+00 -0.0000000000000E+00 -0.0000000000000E+00 -0.0000000000000E+00 -0.0000000000000E+00 -0.0000000000000E+00 -0.0000000000000E+00  2.3826357195711E-01 
-0.0000000000000E+00 -0.0000000000000E+00 -0.0000000000000E+00 -0.0000000000000E+00 -0.0000000000000E+00 -0.0000000000000E+00 -0.0000000000000E+00 -0.0000000000000E+00 -0.0000000000000E+00 -0.0000000000000E+00 
 7.2440786946225E+03  1.4488157389245E+04  1.4488157389245E+04  1.4488157389245E+04  1.4488157389245E+04  1.4488157389245E+04  1.4488157389245E+04  1.4488157389245E+04  1.4488157389245E+04  7.2440786946225E+03 
 4.9259735123433E+04  9.8519470246865E+04  9.8519470246866E+04  9.8519470246865E+04  9.8519470246866E+04  9.8519470246866E+04  9.8519470246865E+04  9.8519470246866E+04  9.8519470246865E+04  4.9259735123433E+04 
 5.6503813818055E+04  1.1300762763611E+05  1.1300762763611E+05  1.1300762763611E+05  1.1300762763611E+05  1.1300762763611E+05  1.1300762763611E+05  1.1300762763611E+05  1.1300762763611E+05  5.6503813818055E+04 
 3.5000000000000E-01  3.5000000000000E-01  3.5000000000000E-01  3.5000000000000E-01  3.5000000000000E-01  3.5000000000000E-01  3.5000000000000E-01  3.5000000000000E-01  3.5000000000000E-01  3.5000000000000E-01 
 6.6040000000000E+00  1.3208000000000E+01  1.3208000000000E+01  1.3208000000000E+01  1.3208000000000E+01  1.3208000000000E+01  1.3208000000000E+01  1.3208000000000E+01  1.3208000000000E+01  6.6040000000000E+00 
-3.6078675341780E-02 -3.6078675341780E-02 -3.6078675341780E-02 -3.6078675341780E-02 -3.6078675341780E-02 -3.6078675341780E-02 -3.6078675341780E-02 -3.6078675341780E-02 -3.6078675341780E-02 -3.6078675341780E-02 
 3.3866666666667E-05  6.7733333333333E-05  6.7733333333334E-05  6.7733333333333E-05  6.7733333333334E-05  6.7733333333334E-05  6.7733333333333E-05  6.7733333333334E-05  6.7733333333333E-05  3.3866666666667E-05 
 2.6603001364256E+01  2.6603001364256E+01  2.6603001364256E+01  2.6603001364256E+01  2.6603001364256E+01  2.6603001364256E+01  2.6603001364256E+01  2.6603001364256E+01  2.6603001364256E+01  2.6603001364256E+01 
 1.7735334242838E+01  1.7735334242838E+01  1.7735334242838E+01  1.7735334242838E+01  1.7735334242838E+01  1.7735334242838E+01  1.7735334242838E+01  1.7735334242838E+01  1.7735334242838E+01  1.7735334242838E+01 
 0.0000000000000E+00  0.0000000000000E+00  0.0000000000000E+00  0.0000000000000E+00  0.0000000000000E+00  0.0000000000000E+00  0.0000000000000E+00  0.0000000000000E+00  0.0000000000000E+00  0.0000000000000E+00 
 0.0000000000000E+00  0.0000000000000E+00  0.0000000000000E+00  0.0000000000000E+00  0.0000000000000E+00  0.0000000000000E+00  0.0000000000000E+00  0.0000000000000E+00  0.0000000000000E+00  0.0000000000000E+00 
 0.0000000000000E+00  0.0000000000000E+00  0.0000000000000E+00  0.0000000000000E+00  0.0000000000000E+00  0.0000000000000E+00  0.0000000000000E+00  0.0000000000000E+00  0.0000000000000E+00  0.0000000000000E+00 
 0.0000000000000E+00  0.0000000000000E+00  0.0000000000000E+00  0.0000000000000E+00  0.0000000000000E+00  0.0000000000000E+00  0.0000000000000E+00  0.0000000000000E+00  0.0000000000000E+00  0.0000000000000E+00 
 0.0000000000000E+00  0.0000000000000E+00  0.0000000000000E+00  0.0000000000000E+00  0.0000000000000E+00  0.0000000000000E+00  0.0000000000000E+00  0.0000000000000E+00  0.0000000000000E+00  0.0000000000000E+00 
 0.0000000000000E+00  0.0000000000000E+00  0.0000000000000E+00  0.0000000000000E+00  0.0000000000000E+00  0.0000000000000E+00  0.0000000000000E+00  0.0000000000000E+00  0.0000000000000E+00  0.0000000000000E+00 
 0.0000000000000E+00  0.0000000000000E+00  0.0000000000000E+00  0.0000000000000E+00  0.0000000000000E+00  0.0000000000000E+00  0.0000000000000E+00  0.0000000000000E+00  0.0000000000000E+00  0.0000000000000E+00 
ZONE T = "CATH, 1.0000E-08", I = 10, SOLUTIONTIME = 1.000000E-08
ZONETYPE = ORDERED
DATAPACKING = BLOCK
STRANDID = 3
 1.2700000000000E-03  1.3377333333333E-03  1.4054666666667E-03  1.4732000000000E-03  1.5409333333333E-03  1.6086666666667E-03  1.6764000000000E-03  1.7441333333333E-03  1.8118666666667E-03  1.8796000000000E-03 
 1.9704870968518E-08  1.7388967434094E-08  1.5072780581264E-08  1.2756114836279E-08  1.0438774464409E-08  8.1205635027825E-09  5.8009224870219E-09  3.4800180082248E-09  1.1583794380871E-09 -3.2688694715716E-12 
 9.2000000000032E-01  9.2000000000090E-01  9.2000000000090E-01  9.2000000000090E-01  9.2000000000090E-01  9.2000000000090E-01  9.2000000000090E-01  9.2000000000090E-01  9.2000000000090E-01  9.2000000000090E-01 
 3.9999999999841E-02  3.9999999999551E-02  3.9999999999551E-02  3.9999999999551E-02  3.9999999999550E-02  3.9999999999550E-02  3.9999999999550E-02  3.9999999999550E-02  3.9999999999550E-02  3.9999999999549E-02 
 3.9999999999841E-02  3.9999999999551E-02  3.9999999999551E-02  3.9999999999551E-02  3.9999999999550E-02  3.9999999999550E-02  3.9999999999550E-02  3.9999999999550E-02  3.9999999999550E-02  3.9999999999549E-02 
 2.9165653268698E-02  2.9165446258550E-02  2.9165263574375E-02  2.9165105219159E-02  2.9164971197948E-02  2.9164861517797E-02  2.9164776187888E-02  2.9164715219392E-02  2.9164678625617E-02  2.9164666421880E-02 
 3.8001746420670E+00  3.8001724871785E+00  3.8001660223495E+00  3.8001552470526E+00  3.8001401603965E+00  3.8001207611255E+00  3.8000970476191E+00  3.8000690178917E+00  3.8000366695915E+00  3.8000000000000E+00 
 3.7710089887983E+00  3.7710070409199E+00  3.7710007587751E+00  3.7709901418334E+00  3.7709751891985E+00  3.7709558996077E+00  3.7709322714312E+00  3.7709043026723E+00  3.7708719909658E+00  3.7708353335781E+00 
 3.9714142713287E+00  3.9714142713285E+00  3.9714142713285E+00  3.9714142713285E+00  3.9714142713285E+00  3.9714142713285E+00  3.9714142713285E+00  3.9714142713285E+00  3.9714142713285E+00  3.9714142713285E+00 
-2.0040528253042E-01 -2.0040723040859E-01 -2.0041351255343E-01 -2.0042412949509E-01 -2.0043908212997E-01 -2.0045837172083E-01 -2.0048199989728E-01 -2.0050996865623E-01 -2.0054228036267E-01 -2.0057893775040E-01 
-1.6672260831924E+00 -3.3345786728568E+00 -3.3349867042781E+00 -3.3356763982800E+00 -3.3366479875573E+00 -3.3379018000321E+00 -3.3394382590969E+00 -3.3412578839093E+00 -3.3433612897748E+00 -1.6728745942908E+00 
 1.4705140485518E-07  1.2977112756248E-07  1.1248886197657E-07  9.5203012323210E-08  7.7912150167656E-08  6.0614766010822E-08  4.3309446636822E-08  2.5994673580711E-08  8.6690192016096E-09  8.6690192016096E-09 
 3.0043809049107E+01  2.6709302385836E+01  2.3374536594792E+01  2.0039220361957E+01  1.6703074685926E+01  1.3365816099838E+01  1.0027162603772E+01  6.6868313339092E+00  3.3445380341515E+00  0.0000000000000E+00 
 0.0000000000000E+00  3.3344992517038E+00  6.6692657522277E+00  1.0004581074741E+01  1.3340726977093E+01  1.6677985496811E+01  2.0016639047824E+01  2.3356970514434E+01  2.6699263347690E+01  3.0043810170175E+01 
 1.6672260831924E-08  3.3345786728568E-08  3.3349867042781E-08  3.3356763982800E-08  3.3366479875573E-08  3.3379018000321E-08  3.3394382590969E-08  3.3412578839093E-08  3.3433612897748E-08  1.6728745942908E-08 
 7.2440786946392E+03  1.4488157389278E+04  1.4488157389278E+04  1.4488157389278E+04  1.4488157389278E+04  1.4488157389278E+04  1.4488157389278E+04  1.4488157389278E+04  1.4488157389278E+04  7.2440786946392E+03 
 4.9259735123416E+04  9.8519470246832E+04  9.8519470246832E+04  9.8519470246832E+04  9.8519470246832E+04  9.8519470246832E+04  9.8519470246832E+04  9.8519470246832E+04  9.8519470246832E+04  4.9259735123416E+04 
 5.6503813818055E+04  1.1300762763611E+05  1.1300762763611E+05  1.1300762763611E+05  1.1300762763611E+05  1.1300762763611E+05  1.1300762763611E+05  1.1300762763611E+05  1.1300762763611E+05  5.6503813818055E+04 
 3.5000000000000E-01  3.5000000000000E-01  3.5000000000000E-01  3.5000000000000E-01  3.5000000000000E-01  3.5000000000000E-01  3.5000000000000E-01  3.5000000000000E-01  3.5000000000000E-01  3.5000000000000E-01 
 6.6040000000000E+00  1.3208000000000E+01  1.3208000000000E+01  1.3208000000000E+01  1.3208000000000E+01  1.3208000000000E+01  1.3208000000000E+01  1.3208000000000E+01  1.3208000000000E+01  6.6040000000000E+00 
-2.5245700835741E-01 -2.5246658637619E-01 -2.5249747912463E-01 -2.5254969702302E-01 -2.5262325768907E-01 -2.5271818595034E-01 -2.5283451386257E-01 -2.5297228073207E-01 -2.5313153314467E-01 -2.5331232499861E-01 
 3.3866666666667E-05  6.7733333333333E-05  6.7733333333334E-05  6.7733333333333E-05  6.7733333333334E-05  6.7733333333334E-05  6.7733333333333E-05  6.7733333333334E-05  6.7733333333333E-05  3.3866666666667E-05 
 2.6603001364262E+01  2.6603001364262E+01  2.6603001364262E+01  2.6603001364262E+01  2.6603001364262E+01  2.6603001364262E+01  2.6603001364262E+01  2.6603001364262E+01  2.6603001364262E+01  2.6603001364262E+01 
 1.7735334242833E+01  1.7735334242833E+01  1.7735334242833E+01  1.7735334242833E+01  1.7735334242833E+01  1.7735334242833E+01  1.7735334242833E+01  1.7735334242833E+01  1.7735334242833E+01  1.7735334242833E+01 
 2.1713517294406E-04  2.1714639563800E-04  2.1718224533113E-04  2.1724284279928E-04  2.1732820981881E-04  2.1743837707864E-04  2.1757338420404E-04  2.1773327978574E-04  2.1791812141710E-04  2.1810879452593E-04 
 2.1713517294406E+04  2.1714639563800E+04  2.1718224533113E+04  2.1724284279928E+04  2.1732820981881E+04  2.1743837707864E+04  2.1757338420404E+04  2.1773327978574E+04  2.1791812141710E+04  2.1810879452593E+04 
 8.6725993751289E-02  7.7133526573438E-02  5.9145220708056E-02  4.3550054129768E-02  3.0348208214423E-02  1.9540657867001E-02  1.1129190805084E-02  5.1164128326789E-03  1.5057377072452E-03  3.0140581513454E-04 
 5.3041371700940E-02  2.6521893189969E-01  9.0182054188837E-01  1.9630557563048E+00  3.4492776213472E+00  5.3609829272190E+00  7.6988125645306E+00  1.0463551982911E+01  1.3656131754997E+01  1.5359507140557E+01 
 2.1713377527040E+04  2.1714297211341E+04  2.1717263567350E+04  2.1722277674117E+04  2.1729341356051E+04  2.1738457184279E+04  2.1749628478648E+04  2.1762859310178E+04  2.1778154504217E+04  2.1795519644047E+04 
 9.8657750269019E+03  9.8662452225550E+03  9.8677618069537E+03  9.8703253701310E+03  9.8739369097110E+03  9.8785978316843E+03  9.8843099515482E+03  9.8910754957083E+03  9.8988971032780E+03  9.9077778281390E+03 
 1.1847602500139E+04  1.1848051988786E+04  1.1849501760397E+04  1.1851952303986E+04  1.1855404446340E+04  1.1859859352595E+04  1.1865318527100E+04  1.1871783814470E+04  1.1879257400939E+04  1.1887741815908E+04 
ZONE T = "CATH, 2.0000E-08", I = 10, SOLUTIONTIME = 2.000000E-08
ZONETYPE = ORDERED
DATAPACKING = BLOCK
STRANDID = 3
 1.2700000000000E-03  1.3377333333333E-03  1.4054666666667E-03  1.4732000000000E-03  1.5409333333333E-03  1.6086666666667E-03  1.6764000000000E-03  1.7441333333333E-03  1.8118666666667E-03  1.8796000000000E-03 
 1.9705513572717E-08  1.7390325162967E-08  1.5074126996892E-08  1.2757449900789E-08  1.0440461331643E-08  8.1226021032591E-09  5.8036759431622E-09  3.4827598029015E-09  1.1607462453836E-09 -1.0896231833921E-12 
 9.2000000000063E-01  9.2000000000180E-01  9.2000000000180E-01  9.2000000000180E-01  9.2000000000180E-01  9.2000000000180E-01  9.2000000000180E-01  9.2000000000180E-01  9.2000000000180E-01  9.2000000000180E-01 
 3.9999999999683E-02  3.9999999999101E-02  3.9999999999101E-02  3.9999999999101E-02  3.9999999999101E-02  3.9999999999100E-02  3.9999999999100E-02  3.9999999999100E-02  3.9999999999099E-02  3.9999999999098E-02 
 3.9999999999683E-02  3.9999999999101E-02  3.9999999999101E-02  3.9999999999101E-02  3.9999999999101E-02  3.9999999999100E-02  3.9999999999100E-02  3.9999999999100E-02  3.9999999999099E-02  3.9999999999098E-02 
 2.9165655455746E-02  2.9165448444566E-02  2.9165265759487E-02  2.9165107403486E-02  2.9164973381596E-02  2.9164863700902E-02  2.9164778370554E-02  2.9164717401758E-02  2.9164680807790E-02  2.9164668603994E-02 
 3.8001746429253E+00  3.8001724880262E+00  3.8001660231657E+00  3.8001552478163E+00  3.8001401610865E+00  3.8001207617205E+00  3.8000970480979E+00  3.8000690182326E+00  3.8000366697729E+00  3.8000000000000E+00 
 3.7710089874695E+00  3.7710070395817E+00  3.7710007574062E+00  3.7709901404128E+00  3.7709751877049E+00  3.7709558980196E+00  3.7709322697273E+00  3.7709043008309E+00  3.7708719889651E+00  3.7708353313960E+00 
 3.9714142713285E+00  3.9714142713282E+00  3.9714142713282E+00  3.9714142713282E+00  3.9714142713282E+00  3.9714142713282E+00  3.9714142713282E+00  3.9714142713282E+00  3.9714142713282E+00  3.9714142713282E+00 
-2.0040528385902E-01 -2.0040723174647E-01 -2.0041351392193E-01 -2.0042413091538E-01 -2.0043908362328E-01 -2.0045837330853E-01 -2.0048200160083E-01 -2.0050997049728E-01 -2.0054228236304E-01 -2.0057893993215E-01 
-1.6672261263313E+00 -3.3345787597286E+00 -3.3349867931491E+00 -3.3356764905340E+00 -3.3366480845836E+00 -3.3379019032312E+00 -3.3394383698784E+00 -3.3412580036994E+00 -3.3433614200146E+00 -1.6728746653668E+00 
 1.4705227081799E-07  1.2977176979151E-07  1.1248941937490E-07  9.5203494873624E-08  7.7912535434472E-08  6.0615078541394E-08  4.3309659471441E-08  2.5994810818193E-08  8.6690619691127E-09  8.6690619691127E-09 
 3.0043950616323E+01  2.6709435110357E+01  2.3374652333997E+01  2.0039320691987E+01  1.6703158404502E+01  1.3365883410509E+01  1.0027213273978E+01  6.6868650873342E+00  3.3445553753922E+00  0.0000000000000E+00 
 0.0000000000000E+00  3.3345155061582E+00  6.6692982826107E+00  1.0004629924517E+01  1.3340792212058E+01  1.6678067205954E+01  2.0016737342469E+01  2.3357085529267E+01  2.6699395241104E+01  3.0043950616476E+01 
 3.3344522095237E-08  6.6691574325854E-08  6.6699734974272E-08  6.6713528888140E-08  6.6732960721409E-08  6.6758037032633E-08  6.6788766289752E-08  6.6825158876086E-08  6.6867227097893E-08  3.3457492596576E-08 
 7.2440786946558E+03  1.4488157389312E+04  1.4488157389312E+04  1.4488157389312E+04  1.4488157389312E+04  1.4488157389312E+04  1.4488157389312E+04  1.4488157389312E+04  1.4488157389312E+04  7.2440786946559E+03 
 4.9259735123400E+04  9.8519470246798E+04  9.8519470246799E+04  9.8519470246798E+04  9.8519470246799E+04  9.8519470246799E+04  9.8519470246798E+04  9.8519470246799E+04  9.8519470246798E+04  4.9259735123399E+04 
 5.6503813818055E+04  1.1300762763611E+05  1.1300762763611E+05  1.1300762763611E+05  1.1300762763611E+05  1.1300762763611E+05  1.1300762763611E+05  1.1300762763611E+05  1.1300762763611E+05  5.6503813818055E+04 
 3.5000000000000E-01  3.5000000000000E-01  3.5000000000000E-01  3.5000000000000E-01  3.5000000000000E-01  3.5000000000000E-01  3.5000000000000E-01  3.5000000000000E-01  3.5000000000000E-01  3.5000000000000E-01 
 6.6040000000000E+00  1.3208000000000E+01  1.3208000000000E+01  1.3208000000000E+01  1.3208000000000E+01  1.3208000000000E+01  1.3208000000000E+01  1.3208000000000E+01  1.3208000000000E+01  6.6040000000000E+00 
-2.5245701488966E-01 -2.5246659295341E-01 -2.5249748585320E-01 -2.5254970400772E-01 -2.5262326503510E-01 -2.5271819376372E-01 -2.5283452225003E-01 -2.5297228980159E-01 -2.5313154300534E-01 -2.5331233576117E-01 
 3.3866666666667E-05  6.7733333333333E-05  6.7733333333334E-05  6.7733333333333E-05  6.7733333333334E-05  6.7733333333334E-05  6.7733333333333E-05  6.7733333333334E-05  6.7733333333333E-05  3.3866666666667E-05 
 2.6603001364267E+01  2.6603001364267E+01  2.6603001364267E+01  2.6603001364267E+01  2.6603001364267E+01  2.6603001364267E+01  2.6603001364267E+01  2.6603001364267E+01  2.6603001364267E+01  2.6603001364267E+01 
 1.7735334242827E+01  1.7735334242827E+01  1.7735334242827E+01  1.7735334242827E+01  1.7735334242827E+01  1.7735334242827E+01  1.7735334242827E+01  1.7735334242827E+01  1.7735334242827E+01  1.7735334242827E+01 
 4.3427035217435E-04  4.3429279762532E-04  4.3436449721732E-04  4.3448569250194E-04  4.3465642703251E-04  4.3487676218815E-04  4.3514677722064E-04  4.3546656931335E-04  4.3583625365491E-04  4.3621760091003E-04 
 2.1713517923029E+04  2.1714640198733E+04  2.1718225188619E+04  2.1724284970267E+04  2.1732821721370E+04  2.1743838510951E+04  2.1757339301660E+04  2.1773328952760E+04  2.1791813223782E+04  2.1810880638410E+04 
 8.6726858820645E-02  7.7134293348448E-02  5.9145806400804E-02  4.3550489809158E-02  3.0348512804786E-02  1.9540854184545E-02  1.1129303709164E-02  5.1164640765133E-03  1.5057534831275E-03  3.0140877907997E-04 
 5.3041888673234E-02  2.6522151773823E-01  9.0182934026976E-01  1.9630749284148E+00  3.4493113581990E+00  5.3610354620825E+00  7.6988881849206E+00  1.0463655043660E+01  1.3656266691222E+01  1.5359659134106E+01 
 2.1713378154282E+04  2.1714297842922E+04  2.1717264213472E+04  2.1722278344848E+04  2.1729342061499E+04  2.1738457934635E+04  2.1749629284172E+04  2.1762860181253E+04  2.1778155451337E+04  2.1795520677867E+04 
 9.8657753475816E+03  9.8662455454542E+03  9.8677621372913E+03  9.8703257130574E+03  9.8739372703979E+03  9.8785982153464E+03  9.8843103634367E+03  9.8910759411396E+03  9.8988975876265E+03  9.9077783568629E+03 
 1.1847602806700E+04  1.1848052297468E+04  1.1849502076181E+04  1.1851952631791E+04  1.1855404791101E+04  1.1859859719288E+04  1.1865318920735E+04  1.1871784240113E+04  1.1879257863710E+04  1.1887742321004E+04 
ZONE T = "CATH, 3.0000E-08", I = 10, SOLUTIONTIME = 3.000000E-08
ZONETYPE = ORDERED
DATAPACKING = BLOCK
STRANDID = 3
 1.2700000000000E-03  1.3377333333333E-03  1.4054666666667E-03  1.4732000000000E-03  1.5409333333333E-03  1.6086666666667E-03  1.6764000000000E-03  1.7441333333333E-03  1.8118666666667E-03  1.8796000000000E-03 
 1.9705513572378E-08  1.7389598747213E-08  1.5073400581177E-08  1.2757449900570E-08  1.0440098123735E-08  8.1222388953917E-09  5.8033127353346E-09  3.4838494260249E-09  1.1625622840025E-09  1.0896231833252E-12 
 9.2000000000095E-01  9.2000000000270E-01  9.2000000000270E-01  9.2000000000270E-01  9.2000000000270E-01  9.2000000000270E-01  9.2000000000270E-01  9.2000000000270E-01  9.2000000000270E-01  9.2000000000270E-01 
 3.9999999999524E-02  3.9999999998652E-02  3.9999999998652E-02  3.9999999998652E-02  3.9999999998651E-02  3.9999999998651E-02  3.9999999998650E-02  3.9999999998649E-02  3.9999999998649E-02  3.9999999998648E-02 
 3.9999999999524E-02  3.9999999998652E-02  3.9999999998652E-02  3.9999999998652E-02  3.9999999998651E-02  3.9999999998651E-02  3.9999999998650E-02  3.9999999998649E-02  3.9999999998649E-02  3.9999999998648E-02 
 2.9165655455535E-02  2.9165448444355E-02  2.9165265759276E-02  2.9165107403275E-02  2.9164973381384E-02  2.9164863700691E-02  2.9164778370343E-02  2.9164717401547E-02  2.9164680807579E-02  2.9164668603783E-02 
 3.8001746429253E+00  3.8001724880262E+00  3.8001660231657E+00  3.8001552478163E+00  3.8001401610865E+00  3.8001207617205E+00  3.8000970480979E+00  3.8000690182326E+00  3.8000366697729E+00  3.8000000000000E+00 
 3.7710089874697E+00  3.7710070395819E+00  3.7710007574064E+00  3.7709901404130E+00  3.7709751877051E+00  3.7709558980198E+00  3.7709322697275E+00  3.7709043008311E+00  3.7708719889653E+00  3.7708353313962E+00 
 3.9714142713283E+00  3.9714142713278E+00  3.9714142713278E+00  3.9714142713278E+00  3.9714142713278E+00  3.9714142713278E+00  3.9714142713278E+00  3.9714142713278E+00  3.9714142713278E+00  3.9714142713278E+00 
-2.0040528385863E-01 -2.0040723174590E-01 -2.0041351392135E-01 -2.0042413091480E-01 -2.0043908362271E-01 -2.0045837330795E-01 -2.0048200160025E-01 -2.0050997049670E-01 -2.0054228236246E-01 -2.0057893993157E-01 
-1.6672261263149E+00 -3.3345787596715E+00 -3.3349867930919E+00 -3.3356764904768E+00 -3.3366480845264E+00 -3.3379019031739E+00 -3.3394383698210E+00 -3.3412580036419E+00 -3.3433614199570E+00 -1.6728746653379E+00 
 1.4705240338780E-07  1.2977176981874E-07  1.1248941941556E-07  9.5203494929485E-08  7.7912535509581E-08  6.0615078636199E-08  4.3309659583918E-08  2.5994810949481E-08  8.6690621131327E-09  8.6690621131327E-09 
 3.0043950616091E+01  2.6709435109871E+01  2.3374652333497E+01  2.0039320691524E+01  1.6703158404076E+01  1.3365883410359E+01  1.0027213273865E+01  6.6868650872589E+00  3.3445553753546E+00  0.0000000000000E+00 
 0.0000000000000E+00  3.3345155061582E+00  6.6692982826107E+00  1.0004629924345E+01  1.3340792211714E+01  1.6678067205611E+01  2.0016737342126E+01  2.3357085528923E+01  2.6699395240760E+01  3.0043950616103E+01 
 5.0016783358385E-08  1.0003736192257E-07  1.0004960290519E-07  1.0007029379291E-07  1.0009944156667E-07  1.0013705606437E-07  1.0018314998796E-07  1.0023773891251E-07  1.0030084129746E-07  5.0186239249955E-08 
 7.2440786946725E+03  1.4488157389345E+04  1.4488157389345E+04  1.4488157389345E+04  1.4488157389345E+04  1.4488157389345E+04  1.4488157389345E+04  1.4488157389345E+04  1.4488157389345E+04  7.2440786946727E+03 
 4.9259735123383E+04  9.8519470246765E+04  9.8519470246766E+04  9.8519470246765E+04  9.8519470246766E+04  9.8519470246766E+04  9.8519470246765E+04  9.8519470246766E+04  9.8519470246765E+04  4.9259735123383E+04 
 5.6503813818055E+04  1.1300762763611E+05  1.1300762763611E+05  1.1300762763611E+05  1.1300762763611E+05  1.1300762763611E+05  1.1300762763611E+05  1.1300762763611E+05  1.1300762763611E+05  5.6503813818055E+04 
 3.5000000000000E-01  3.5000000000000E-01  3.5000000000000E-01  3.5000000000000E-01  3.5000000000000E-01  3.5000000000000E-01  3.5000000000000E-01  3.5000000000000E-01  3.5000000000000E-01  3.5000000000000E-01 
 6.6040000000000E+00  1.3208000000000E+01  1.3208000000000E+01  1.3208000000000E+01  1.3208000000000E+01  1.3208000000000E+01  1.3208000000000E+01  1.3208000000000E+01  1.3208000000000E+01  6.6040000000000E+00 
-2.5245701488717E-01 -2.5246659294908E-01 -2.5249748584887E-01 -2.5254970400340E-01 -2.5262326503077E-01 -2.5271819375938E-01 -2.5283452224568E-01 -2.5297228979724E-01 -2.5313154300099E-01 -2.5331233575680E-01 
 3.3866666666667E-05  6.7733333333333E-05  6.7733333333334E-05  6.7733333333333E-05  6.7733333333334E-05  6.7733333333334E-05  6.7733333333333E-05  6.7733333333334E-05  6.7733333333333E-05  3.3866666666667E-05 
 2.6603001364272E+01  2.6603001364272E+01  2.6603001364272E+01  2.6603001364272E+01  2.6603001364272E+01  2.6603001364272E+01  2.6603001364272E+01  2.6603001364272E+01  2.6603001364272E+01  2.6603001364272E+01 
 1.7735334242822E+01  1.7735334242822E+01  1.7735334242822E+01  1.7735334242822E+01  1.7735334242822E+01  1.7735334242822E+01  1.7735334242822E+01  1.7735334242822E+01  1.7735334242822E+01  1.7735334242822E+01 
 6.5140553140240E-04  6.5143919960883E-04  6.5154674909969E-04  6.5172854220078E-04  6.5198464424238E-04  6.5231514729382E-04  6.5272017023340E-04  6.5319985883710E-04  6.5375438588887E-04  6.5432640729027E-04 
 2.1713517922805E+04  2.1714640198350E+04  2.1718225188237E+04  2.1724284969884E+04  2.1732821720987E+04  2.1743838510567E+04  2.1757339301276E+04  2.1773328952375E+04  2.1791813223396E+04  2.1810880638023E+04 
 8.6726858819986E-02  7.7134293346456E-02  5.9145806398857E-02  4.3550489807728E-02  3.0348512803504E-02  1.9540854184325E-02  1.1129303709038E-02  5.1164640764557E-03  1.5057534831105E-03  3.0140877907657E-04 
 5.3041888673234E-02  2.6522151773823E-01  9.0182934026976E-01  1.9630749283382E+00  3.4493113580241E+00  5.3610354618638E+00  7.6988881846581E+00  1.0463655043353E+01  1.3656266690872E+01  1.5359659133734E+01 
 2.1713378154057E+04  2.1714297842539E+04  2.1717264213090E+04  2.1722278344466E+04  2.1729342061117E+04  2.1738457934251E+04  2.1749629283788E+04  2.1762860180868E+04  2.1778155450952E+04  2.1795520677481E+04 
 9.8657753474651E+03  9.8662455452568E+03  9.8677621370938E+03  9.8703257128600E+03  9.8739372702003E+03  9.8785982151485E+03  9.8843103632384E+03  9.8910759409409E+03  9.8988975874277E+03  9.9077783566634E+03 
 1.1847602806592E+04  1.1848052297283E+04  1.1849502075996E+04  1.1851952631606E+04  1.1855404790916E+04  1.1859859719103E+04  1.1865318920549E+04  1.1871784239927E+04  1.1879257863524E+04  1.1887742320817E+04 
ZONE T = "CATH, 4.0000E-08", I = 10, SOLUTIONTIME = 4.000000E-08
ZONETYPE = ORDERED
DATAPACKING = BLOCK
STRANDID = 3
 1.2700000000000E-03  1.3377333333333E-03  1.4054666666667E-03  1.4732000000000E-03  1.5409333333333E-03  1.6086666666667E-03  1.6764000000000E-03  1.7441333333333E-03  1.8118666666667E-03  1.8796000000000E-03 
 1.9702244702490E-08  1.7387056292819E-08  1.5071584542279E-08  1.2754907446256E-08  1.0438282084917E-08  8.1204228566129E-09  5.8014966965957E-09  3.4809437641426E-09  1.1596566221602E-09 -1.8160386388877E-12 
 9.2000000000127E-01  9.2000000000359E-01  9.2000000000359E-01  9.2000000000360E-01  9.2000000000360E-01  9.2000000000360E-01  9.2000000000360E-01  9.2000000000360E-01  9.2000000000360E-01  9.2000000000361E-01 
 3.9999999999365E-02  3.9999999998203E-02  3.9999999998203E-02  3.9999999998202E-02  3.9999999998202E-02  3.9999999998201E-02  3.9999999998200E-02  3.9999999998199E-02  3.9999999998198E-02  3.9999999998197E-02 
 3.9999999999365E-02  3.9999999998203E-02  3.9999999998203E-02  3.9999999998202E-02  3.9999999998202E-02  3.9999999998201E-02  3.9999999998200E-02  3.9999999998199E-02  3.9999999998198E-02  3.9999999998197E-02 
 2.9165655455323E-02  2.9165448444142E-02  2.9165265759064E-02  2.9165107403063E-02  2.9164973381172E-02  2.9164863700479E-02  2.9164778370130E-02  2.9164717401335E-02  2.9164680807366E-02  2.9164668603570E-02 
 3.8001746429252E+00  3.8001724880262E+00  3.8001660231657E+00  3.8001552478163E+00  3.8001401610865E+00  3.8001207617205E+00  3.8000970480979E+00  3.8000690182326E+00  3.8000366697729E+00  3.8000000000000E+00 
 3.7710089874699E+00  3.7710070395821E+00  3.7710007574066E+00  3.7709901404132E+00  3.7709751877053E+00  3.7709558980200E+00  3.7709322697277E+00  3.7709043008313E+00  3.7708719889655E+00  3.7708353313964E+00 
 3.9714142713282E+00  3.9714142713274E+00  3.9714142713274E+00  3.9714142713274E+00  3.9714142713274E+00  3.9714142713274E+00  3.9714142713274E+00  3.9714142713274E+00  3.9714142713274E+00  3.9714142713274E+00 
-2.0040528385824E-01 -2.0040723174532E-01 -2.0041351392078E-01 -2.0042413091422E-01 -2.0043908362213E-01 -2.0045837330737E-01 -2.0048200159967E-01 -2.0050997049612E-01 -2.0054228236188E-01 -2.0057893993099E-01 
-1.6672261262984E+00 -3.3345787596143E+00 -3.3349867930347E+00 -3.3356764904195E+00 -3.3366480844691E+00 -3.3379019031166E+00 -3.3394383697636E+00 -3.3412580035844E+00 -3.3433614198994E+00 -1.6728746653090E+00 