TITLE = "Solution on Domain BulkDomain1D_2"
VARIABLES = "x [m]"  
"Vel_axial(0)" 	"MF_sp(ECDMC)" 	"MF_sp(Li+)" 	"MF_sp(PF6-)" 	"Volt(Electroly)" 	"Volt(CathodeVo)" 	
"Potential Drop Electrode-Electrolyte [V]" 	"Surf_0 Equilibrium Potential Drop Electrode-Electrolyte [V]" 	"Overpotential_0 [V]" 	"Current Source [A/m^2]" 	"Li+ flux [kmol/m^2/s]" 	"Electrolyte Current [A/m^2]" 	"Electrode Current [A/m^2]" 	
"Capacity discharged [A-s]" 	"Depth of discharge [-]" 	"Capacity remaining [A-s]" 	"Initial capacity [A-s]" 	"Porosity []" 	"Surface Area [m2/m2] (area per area)" 	"Specific current (per particle area) [A/m^2]" 	"Control volume thickness [m]" 	
"Moles LiCoO2 [mol/m^2] (per electrode area)" 	"Moles CoO2 [mol/m^2] (per electrode area)" 	"qHeat_accum [J/m3]" 	"qHeat_step [W/m3]" 	"Joule_Lyte [W/m3]" 	"Joule_Solid [W/m3]" 	"electrodHeat [W/m3]" 	"OverpotHeat [W/m3]" 	"deltaSHeat [W/m3]" 	

ZONE T = "t = 0 [s]" I = 10 SOLUTIONTIME = 0.0000000000000E+00
0.00127 	0 	0.92 	0.04 	0.04 	-0.07 	3.8 	
0 	0 	0 	0 	0 	0.119132 	0 	
0 	0 	0 	0 	0.35 	6.604 	-0.0360787 	3.38667e-05 	
0.000900955 	0.000600637 	0 	0.0 	 0.0 	 0.0 	 0.0 	 0.0 	 0.0 	 
0.00133773 	0 	0.92 	0.04 	0.04 	-0.07 	3.8 	
0 	0 	0 	0 	0 	0 	-0 	
0 	0 	0 	0 	0.35 	13.208 	-0.0360787 	6.77333e-05 	
0.00180191 	0.00120127 	0 	0.0 	 0.0 	 0.0 	 0.0 	 0.0 	 0.0 	 
0.00140547 	0 	0.92 	0.04 	0.04 	-0.07 	3.8 	
0 	0 	0 	0 	0 	0 	-0 	
0 	0 	0 	0 	0.35 	13.208 	-0.0360787 	6.77333e-05 	
0.00180191 	0.00120127 	0 	0.0 	 0.0 	 0.0 	 0.0 	 0.0 	 0.0 	 
0.0014732 	0 	0.92 	0.04 	0.04 	-0.07 	3.8 	
0 	0 	0 	0 	0 	0 	-0 	
0 	0 	0 	0 	0.35 	13.208 	-0.0360787 	6.77333e-05 	
0.00180191 	0.00120127 	0 	0.0 	 0.0 	 0.0 	 0.0 	 0.0 	 0.0 	 
0.00154093 	0 	0.92 	0.04 	0.04 	-0.07 	3.8 	
0 	0 	0 	0 	0 	0 	-0 	
0 	0 	0 	0 	0.35 	13.208 	-0.0360787 	6.77333e-05 	
0.00180191 	0.00120127 	0 	0.0 	 0.0 	 0.0 	 0.0 	 0.0 	 0.0 	 
0.00160867 	0 	0.92 	0.04 	0.04 	-0.07 	3.8 	
0 	0 	0 	0 	0 	0 	-0 	
0 	0 	0 	0 	0.35 	13.208 	-0.0360787 	6.77333e-05 	
0.00180191 	0.00120127 	0 	0.0 	 0.0 	 0.0 	 0.0 	 0.0 	 0.0 	 
0.0016764 	0 	0.92 	0.04 	0.04 	-0.07 	3.8 	
0 	0 	0 	0 	0 	0 	-0 	
0 	0 	0 	0 	0.35 	13.208 	-0.0360787 	6.77333e-05 	
0.00180191 	0.00120127 	0 	0.0 	 0.0 	 0.0 	 0.0 	 0.0 	 0.0 	 
0.00174413 	0 	0.92 	0.04 	0.04 	-0.07 	3.8 	
0 	0 	0 	0 	0 	0 	-0 	
0 	0 	0 	0 	0.35 	13.208 	-0.0360787 	6.77333e-05 	
0.00180191 	0.00120127 	0 	0.0 	 0.0 	 0.0 	 0.0 	 0.0 	 0.0 	 
0.00181187 	0 	0.92 	0.04 	0.04 	-0.07 	3.8 	
0 	0 	0 	0 	0 	0 	-0 	
0 	0 	0 	0 	0.35 	13.208 	-0.0360787 	6.77333e-05 	
0.00180191 	0.00120127 	0 	0.0 	 0.0 	 0.0 	 0.0 	 0.0 	 0.0 	 
0.0018796 	0 	0.92 	0.04 	0.04 	-0.07 	3.8 	
0 	0 	0 	0 	0 	0 	0.119132 	
0 	0 	0 	0 	0.35 	6.604 	-0.0360787 	3.38667e-05 	
0.000900955 	0.000600637 	0 	0.0 	 0.0 	 0.0 	 0.0 	 0.0 	 0.0 	 
ZONE T = "t = 0 [s]" I = 10 SOLUTIONTIME = 0.0000000000000E+00
0.00127 	0 	0.92 	0.04 	0.04 	-0.07 	3.8 	
0 	0 	0 	0 	0 	0.119132 	0 	
0 	0 	0 	0 	0.35 	6.604 	-0.0360787 	3.38667e-05 	
0.000900955 	0.000600637 	0 	0.0 	 0.0 	 0.0 	 0.0 	 0.0 	 0.0 	 
0.00133773 	0 	0.92 	0.04 	0.04 	-0.07 	3.8 	
0 	0 	0 	0 	0 	0 	-0 	
0 	0 	0 	0 	0.35 	13.208 	-0.0360787 	6.77333e-05 	
0.00180191 	0.00120127 	0 	0.0 	 0.0 	 0.0 	 0.0 	 0.0 	 0.0 	 
0.00140547 	0 	0.92 	0.04 	0.04 	-0.07 	3.8 	
0 	0 	0 	0 	0 	0 	-0 	
0 	0 	0 	0 	0.35 	13.208 	-0.0360787 	6.77333e-05 	
0.00180191 	0.00120127 	0 	0.0 	 0.0 	 0.0 	 0.0 	 0.0 	 0.0 	 
0.0014732 	0 	0.92 	0.04 	0.04 	-0.07 	3.8 	
0 	0 	0 	0 	0 	0 	-0 	
0 	0 	0 	0 	0.35 	13.208 	-0.0360787 	6.77333e-05 	
0.00180191 	0.00120127 	0 	0.0 	 0.0 	 0.0 	 0.0 	 0.0 	 0.0 	 
0.00154093 	0 	0.92 	0.04 	0.04 	-0.07 	3.8 	
0 	0 	0 	0 	0 	0 	-0 	
0 	0 	0 	0 	0.35 	13.208 	-0.0360787 	6.77333e-05 	
0.00180191 	0.00120127 	0 	0.0 	 0.0 	 0.0 	 0.0 	 0.0 	 0.0 	 
0.00160867 	0 	0.92 	0.04 	0.04 	-0.07 	3.8 	
0 	0 	0 	0 	0 	0 	-0 	
0 	0 	0 	0 	0.35 	13.208 	-0.0360787 	6.77333e-05 	
0.00180191 	0.00120127 	0 	0.0 	 0.0 	 0.0 	 0.0 	 0.0 	 0.0 	 
0.0016764 	0 	0.92 	0.04 	0.04 	-0.07 	3.8 	
0 	0 	0 	0 	0 	0 	-0 	
0 	0 	0 	0 	0.35 	13.208 	-0.0360787 	6.77333e-05 	
0.00180191 	0.00120127 	0 	0.0 	 0.0 	 0.0 	 0.0 	 0.0 	 0.0 	 
0.00174413 	0 	0.92 	0.04 	0.04 	-0.07 	3.8 	
0 	0 	0 	0 	0 	0 	-0 	
0 	0 	0 	0 	0.35 	13.208 	-0.0360787 	6.77333e-05 	
0.00180191 	0.00120127 	0 	0.0 	 0.0 	 0.0 	 0.0 	 0.0 	 0.0 	 
0.00181187 	0 	0.92 	0.04 	0.04 	-0.07 	3.8 	
0 	0 	0 	0 	0 	0 	-0 	
0 	0 	0 	0 	0.35 	13.208 	-0.0360787 	6.77333e-05 	
0.00180191 	0.00120127 	0 	0.0 	 0.0 	 0.0 	 0.0 	 0.0 	 0.0 	 
0.0018796 	0 	0.92 	0.04 	0.04 	-0.07 	3.8 	
0 	0 	0 	0 	0 	0 	0.119132 	
0 	0 	0 	0 	0.35 	6.604 	-0.0360787 	3.38667e-05 	
0.000900955 	0.000600637 	0 	0.0 	 0.0 	 0.0 	 0.0 	 0.0 	 0.0 	 
ZONE T = "t = 1e-08 [s]" I = 10 SOLUTIONTIME = 1.0000000000000E-08
0.00127 	2.77646e-08 	0.92 	0.04 	0.04 	0.0113493 	3.8002 	
3.87 	3.97141 	-0.101414 	-0.238264 	-0 	41.1615 	1.17441 	
-0 	7244.08 	123.46 	141.616 	0.35 	6.604 	-0.35681 	3.38667e-05 	
0.000900955 	0.000600637 	0.000139974 	13997.4 	0.172181 	0.0848763 	13997.1 	13997.1 	0 	
0.00133773 	2.45024e-08 	0.92 	0.04 	0.04 	0.011349 	3.8002 	
3.87 	3.97141 	-0.101414 	-0.476527 	-0 	37.6344 	4.69774 	
-0 	14488.2 	246.919 	283.231 	0.35 	13.208 	-0.356825 	6.77333e-05 	
0.00180191 	0.00120127 	0.000139821 	13982.1 	0.153139 	0.424403 	13981.6 	13981.6 	0 	
0.00140547 	2.12398e-08 	0.92 	0.04 	0.04 	0.0113487 	3.80019 	
3.87 	3.97141 	-0.101414 	-0.476527 	-0 	32.9362 	9.3959 	
-0 	14488.2 	246.919 	283.231 	0.35 	13.208 	-0.356874 	6.77333e-05 	
0.00180191 	0.00120127 	0.000139458 	13945.8 	0.11743 	1.4431 	13944.2 	13944.2 	0 	
0.0014732 	1.79764e-08 	0.92 	0.04 	0.04 	0.0113485 	3.80018 	
3.87 	3.97141 	-0.101414 	-0.476527 	-0 	28.2372 	14.0949 	
-0 	14488.2 	246.919 	283.231 	0.35 	13.208 	-0.356958 	6.77333e-05 	
0.00180191 	0.00120127 	0.00014018 	14018 	0.0864707 	3.14136 	14014.7 	14014.7 	0 	
0.00154093 	1.47119e-08 	0.92 	0.04 	0.04 	0.0113483 	3.80016 	
3.87 	3.97141 	-0.101414 	-0.476527 	-0 	23.5369 	18.7952 	
-0 	14488.2 	246.919 	283.231 	0.35 	13.208 	-0.357075 	6.77333e-05 	
0.00180191 	0.00120127 	0.000140732 	14073.2 	0.060261 	5.51979 	14067.6 	14067.6 	0 	
0.00160867 	1.14461e-08 	0.92 	0.04 	0.04 	0.0113481 	3.80014 	
3.87 	3.97141 	-0.101414 	-0.476527 	-0 	18.8348 	23.4973 	
-0 	14488.2 	246.919 	283.231 	0.35 	13.208 	-0.357228 	6.77333e-05 	
0.00180191 	0.00120127 	0.000139565 	13956.5 	0.0388032 	8.57929 	13947.9 	13947.9 	0 	
0.0016764 	8.17855e-09 	0.92 	0.04 	0.04 	0.011348 	3.80011 	
3.87 	3.97141 	-0.101414 	-0.476527 	-0 	14.1305 	28.2016 	
-0 	14488.2 	246.919 	283.231 	0.35 	13.208 	-0.357414 	6.77333e-05 	
0.00180191 	0.00120127 	0.000139442 	13944.2 	0.0221014 	12.321 	13931.8 	13931.8 	0 	
0.00174413 	4.90904e-09 	0.92 	0.04 	0.04 	0.0113479 	3.80008 	
3.87 	3.97141 	-0.101414 	-0.476527 	-0 	9.42358 	32.9085 	
-0 	14488.2 	246.919 	283.231 	0.35 	13.208 	-0.357635 	6.77333e-05 	
0.00180191 	0.00120127 	0.000140612 	14061.2 	0.0101614 	16.7464 	14044.4 	14044.4 	0 	
0.00181187 	1.63722e-09 	0.92 	0.04 	0.04 	0.0113479 	3.80004 	
3.87 	3.97141 	-0.101414 	-0.476527 	-0 	4.71356 	37.6185 	
-0 	14488.2 	246.919 	283.231 	0.35 	13.208 	-0.357891 	6.77333e-05 	
0.00180191 	0.00120127 	0.000139978 	13997.8 	0.00299067 	21.857 	13975.9 	13975.9 	0 	
0.0018796 	0 	0.92 	0.04 	0.04 	0.0113479 	3.8 	
3.87 	3.97141 	-0.101414 	-0.238264 	-0 	1.17886 	41.1571 	
-0 	7244.08 	123.46 	141.616 	0.35 	6.604 	-0.358181 	3.38667e-05 	
0.000900955 	0.000600637 	0.000140606 	14060.6 	0.000598708 	24.5839 	14036 	14036 	0 	
ZONE T = "t = 2e-08 [s]" I = 10 SOLUTIONTIME = 2.0000000000000E-08
0.00127 	1.971e-08 	0.92 	0.04 	0.04 	0.0291615 	3.80014 	
3.78885 	3.97141 	-0.182565 	-2.35637 	2.07199e-07 	29.2181 	0.834023 	
5.90578e-11 	7244.08 	123.46 	141.616 	0.35 	6.604 	-0.252603 	3.38667e-05 	
0.000900955 	0.000600637 	0.000239366 	9939.2 	0.0867716 	0.0428059 	9939.07 	9939.07 	0 	
0.00133773 	1.73934e-08 	0.92 	0.04 	0.04 	0.0291613 	3.80014 	
3.78885 	3.97141 	-0.182567 	-4.71294 	1.82854e-07 	26.7159 	3.33614 	
1.1812e-10 	14488.2 	246.919 	283.231 	0.35 	13.208 	-0.25261 	6.77333e-05 	
0.00180191 	0.00120127 	0.000235098 	9527.64 	0.077172 	0.214037 	9527.35 	9527.35 	0 	
0.00140547 	1.50765e-08 	0.92 	0.04 	0.04 	0.0291611 	3.80013 	
3.78884 	3.97141 	-0.182574 	-4.71359 	1.58506e-07 	23.3796 	6.6725 	
1.18137e-10 	14488.2 	246.919 	283.231 	0.35 	13.208 	-0.252635 	6.77333e-05 	
0.00180191 	0.00120127 	0.00023995 	10049.3 	0.0591709 	0.727775 	10048.5 	10048.5 	0 	
0.0014732 	1.27592e-08 	0.92 	0.04 	0.04 	0.0291609 	3.80013 	
3.78883 	3.97141 	-0.182586 	-4.7147 	1.34152e-07 	20.0428 	10.0093 	
1.18164e-10 	14488.2 	246.919 	283.231 	0.35 	13.208 	-0.252677 	6.77333e-05 	
0.00180191 	0.00120127 	0.000240404 	10022.4 	0.0435657 	1.58415 	10020.8 	10020.8 	0 	
0.00154093 	1.04414e-08 	0.92 	0.04 	0.04 	0.0291608 	3.80011 	
3.78881 	3.97141 	-0.182603 	-4.71625 	1.0979e-07 	16.7053 	13.3468 	
1.18203e-10 	14488.2 	246.919 	283.231 	0.35 	13.208 	-0.252736 	6.77333e-05 	
0.00180191 	0.00120127 	0.000240393 	9966.12 	0.0303565 	2.78341 	9963.3 	9963.3 	0 	
0.00160867 	8.12283e-09 	0.92 	0.04 	0.04 	0.0291607 	3.8001 	
3.78879 	3.97141 	-0.182625 	-4.71826 	8.54184e-08 	13.367 	16.6851 	
1.18254e-10 	14488.2 	246.919 	283.231 	0.35 	13.208 	-0.252813 	6.77333e-05 	
0.00180191 	0.00120127 	0.000240126 	10056.1 	0.0195441 	4.32585 	10051.7 	10051.7 	0 	
0.0016764 	5.80345e-09 	0.92 	0.04 	0.04 	0.0291606 	3.80008 	
3.78876 	3.97141 	-0.182652 	-4.72073 	6.1034e-08 	10.0275 	20.0246 	
1.18316e-10 	14488.2 	246.919 	283.231 	0.35 	13.208 	-0.252906 	6.77333e-05 	
0.00180191 	0.00120127 	0.000239351 	9990.98 	0.01113 	6.21191 	9984.75 	9984.75 	0 	
0.00174413 	3.48304e-09 	0.92 	0.04 	0.04 	0.0291605 	3.80006 	
3.78873 	3.97141 	-0.182684 	-4.72365 	3.66346e-08 	6.68664 	23.3654 	
1.18389e-10 	14488.2 	246.919 	283.231 	0.35 	13.208 	-0.253018 	6.77333e-05 	
0.00180191 	0.00120127 	0.000239575 	9896.34 	0.0051162 	8.44208 	9887.89 	9887.89 	0 	
0.00181187 	1.16146e-09 	0.92 	0.04 	0.04 	0.0291605 	3.80003 	
3.78869 	3.97141 	-0.18272 	-4.72703 	1.2218e-08 	3.34423 	26.7079 	
1.18473e-10 	14488.2 	246.919 	283.231 	0.35 	13.208 	-0.253146 	6.77333e-05 	
0.00180191 	0.00120127 	0.000240797 	10081.9 	0.0015055 	11.017 	10070.9 	10070.9 	0 	
0.0018796 	0 	0.92 	0.04 	0.04 	0.0291605 	3.8 	
3.78865 	3.97141 	-0.182762 	-2.36543 	1.2218e-08 	0.836297 	29.2159 	
5.92848e-11 	7244.08 	123.46 	141.616 	0.35 	6.604 	-0.253292 	3.38667e-05 	
0.000900955 	0.000600637 	0.00024029 	9968.41 	0.000301308 	12.3907 	9956.02 	9956.02 	0 	
ZONE T = "t = 3e-08 [s]" I = 10 SOLUTIONTIME = 3.0000000000000E-08
0.00127 	1.971e-08 	0.92 	0.04 	0.04 	0.0291616 	3.80014 	
3.77098 	3.97141 	-0.200435 	-1.66819 	1.4709e-07 	29.218 	0.83402 	
1.00868e-10 	7244.08 	123.46 	141.616 	0.35 	6.604 	-0.252603 	3.38667e-05 	
0.000900955 	0.000600637 	0.000337456 	9809.05 	0.0867711 	0.0428055 	9808.92 	9808.92 	0 	
0.00133773 	1.73933e-08 	0.92 	0.04 	0.04 	0.0291614 	3.80014 	
3.77098 	3.97141 	-0.200436 	-3.33648 	1.29801e-07 	26.7159 	3.33613 	
2.01743e-10 	14488.2 	246.919 	283.231 	0.35 	13.208 	-0.252611 	6.77333e-05 	
0.00180191 	0.00120127 	0.00033577 	10067.2 	0.0771716 	0.214035 	10066.9 	10066.9 	0 	
0.00140547 	1.50764e-08 	0.92 	0.04 	0.04 	0.0291612 	3.80013 	
3.77097 	3.97141 	-0.200441 	-3.3368 	1.12511e-07 	23.3795 	6.67247 	
2.01767e-10 	14488.2 	246.919 	283.231 	0.35 	13.208 	-0.252635 	6.77333e-05 	
0.00180191 	0.00120127 	0.000336463 	9651.26 	0.0591706 	0.727768 	9650.47 	9650.47 	0 	
0.0014732 	1.27592e-08 	0.92 	0.04 	0.04 	0.029161 	3.80013 	
3.77096 	3.97141 	-0.20045 	-3.33736 	9.52178e-08 	20.0427 	10.0093 	
2.01809e-10 	14488.2 	246.919 	283.231 	0.35 	13.208 	-0.252677 	6.77333e-05 	
0.00180191 	0.00120127 	0.000337946 	9754.17 	0.0435655 	1.58414 	9752.54 	9752.54 	0 	
0.00154093 	1.04413e-08 	0.92 	0.04 	0.04 	0.0291609 	3.80011 	
3.77095 	3.97141 	-0.200462 	-3.33814 	7.79206e-08 	16.7053 	13.3467 	
2.01867e-10 	14488.2 	246.919 	283.231 	0.35 	13.208 	-0.252737 	6.77333e-05 	
0.00180191 	0.00120127 	0.00033892 	9852.71 	0.0303564 	2.78338 	9849.89 	9849.89 	0 	
0.00160867 	8.12282e-09 	0.92 	0.04 	0.04 	0.0291608 	3.8001 	
3.77094 	3.97141 	-0.200478 	-3.33915 	6.06182e-08 	13.3669 	16.6851 	
2.01943e-10 	14488.2 	246.919 	283.231 	0.35 	13.208 	-0.252813 	6.77333e-05 	
0.00180191 	0.00120127 	0.000339302 	9917.56 	0.0195441 	4.32582 	9913.22 	9913.22 	0 	
0.0016764 	5.80344e-09 	0.92 	0.04 	0.04 	0.0291607 	3.80008 	
3.77092 	3.97141 	-0.200497 	-3.34039 	4.33093e-08 	10.0275 	20.0245 	
2.02036e-10 	14488.2 	246.919 	283.231 	0.35 	13.208 	-0.252907 	6.77333e-05 	
0.00180191 	0.00120127 	0.000337876 	9852.45 	0.01113 	6.21186 	9846.23 	9846.23 	0 	
0.00174413 	3.48304e-09 	0.92 	0.04 	0.04 	0.0291607 	3.80006 	
3.7709 	3.97141 	-0.200519 	-3.34186 	2.59928e-08 	6.68663 	23.3654 	
2.02146e-10 	14488.2 	246.919 	283.231 	0.35 	13.208 	-0.253018 	6.77333e-05 	
0.00180191 	0.00120127 	0.000337321 	9774.56 	0.00511619 	8.44202 	9766.11 	9766.11 	0 	
0.00181187 	1.16146e-09 	0.92 	0.04 	0.04 	0.0291606 	3.80003 	
3.77087 	3.97141 	-0.200545 	-3.34355 	8.66761e-09 	3.34422 	26.7078 	
2.02273e-10 	14488.2 	246.919 	283.231 	0.35 	13.208 	-0.253146 	6.77333e-05 	
0.00180191 	0.00120127 	0.000338975 	9817.79 	0.0015055 	11.0169 	9806.77 	9806.77 	0 	
0.0018796 	0 	0.92 	0.04 	0.04 	0.0291606 	3.8 	
3.77084 	3.97141 	-0.200575 	-1.67274 	8.66761e-09 	0.836297 	29.2158 	
1.01209e-10 	7244.08 	123.46 	141.616 	0.35 	6.604 	-0.253292 	3.38667e-05 	
0.000900955 	0.000600637 	0.000337291 	9700.14 	0.000301307 	12.3906 	9687.75 	9687.75 	0 	
ZONE T = "t = 4e-08 [s]" I = 10 SOLUTIONTIME = 4.0000000000000E-08
0.00127 	1.97117e-08 	0.92 	0.04 	0.04 	0.0291615 	3.80014 	
3.77098 	3.97141 	-0.200435 	-1.66819 	1.4709e-07 	29.2206 	0.834095 	
1.42677e-10 	7244.08 	123.46 	141.616 	0.35 	6.604 	-0.252603 	3.38667e-05 	
0.000900955 	0.000600637 	0.000435466 	9800.92 	0.0867865 	0.0428132 	9800.79 	9800.79 	0 	
0.00133773 	1.73949e-08 	0.92 	0.04 	0.04 	0.0291613 	3.80014 	
3.77098 	3.97141 	-0.200437 	-3.33648 	1.29801e-07 	26.7182 	3.33643 	
2.85365e-10 	14488.2 	246.919 	283.231 	0.35 	13.208 	-0.25261 	6.77333e-05 	
0.00180191 	0.00120127 	0.000432426 	9665.61 	0.0771853 	0.214074 	9665.32 	9665.32 	0 	
0.00140547 	1.50778e-08 	0.92 	0.04 	0.04 	0.0291611 	3.80013 	
3.77097 	3.97141 	-0.200442 	-3.33681 	1.12511e-07 	23.3816 	6.67307 	
2.85398e-10 	14488.2 	246.919 	283.231 	0.35 	13.208 	-0.252635 	6.77333e-05 	
0.00180191 	0.00120127 	0.000434276 	9781.25 	0.0591811 	0.727899 	9780.47 	9780.47 	0 	
0.0014732 	1.27603e-08 	0.92 	0.04 	0.04 	0.029161 	3.80013 	
3.77096 	3.97141 	-0.20045 	-3.33736 	9.52176e-08 	20.0445 	10.0102 	
2.85453e-10 	14488.2 	246.919 	283.231 	0.35 	13.208 	-0.252677 	6.77333e-05 	
0.00180191 	0.00120127 	0.000435448 	9750.22 	0.0435732 	1.58443 	9748.59 	9748.59 	0 	
0.00154093 	1.04423e-08 	0.92 	0.04 	0.04 	0.0291609 	3.80011 	
3.77095 	3.97141 	-0.200462 	-3.33815 	7.79205e-08 	16.7068 	13.3479 	
2.85531e-10 	14488.2 	246.919 	283.231 	0.35 	13.208 	-0.252736 	6.77333e-05 	
0.00180191 	0.00120127 	0.000437282 	9836.2 	0.0303618 	2.78388 	9833.38 	9833.38 	0 	
0.00160867 	8.12354e-09 	0.92 	0.04 	0.04 	0.0291607 	3.8001 	
3.77094 	3.97141 	-0.200478 	-3.33916 	6.06181e-08 	13.3681 	16.6866 	
2.85632e-10 	14488.2 	246.919 	283.231 	0.35 	13.208 	-0.252813 	6.77333e-05 	
0.00180191 	0.00120127 	0.000438521 	9921.98 	0.0195475 	4.32659 	9917.63 	9917.63 	0 	
0.0016764 	5.80395e-09 	0.92 	0.04 	0.04 	0.0291607 	3.80008 	
3.77092 	3.97141 	-0.200497 	-3.3404 	4.33093e-08 	10.0284 	20.0263 	
2.85756e-10 	14488.2 	246.919 	283.231 	0.35 	13.208 	-0.252907 	6.77333e-05 	
0.00180191 	0.00120127 	0.000437742 	9986.61 	0.0111319 	6.21297 	9980.39 	9980.39 	0 	
0.00174413 	3.48335e-09 	0.92 	0.04 	0.04 	0.0291606 	3.80006 	
3.7709 	3.97141 	-0.200519 	-3.34186 	2.59928e-08 	6.68723 	23.3675 	
2.85903e-10 	14488.2 	246.919 	283.231 	0.35 	13.208 	-0.253018 	6.77333e-05 	
0.00180191 	0.00120127 	0.000436408 	9908.71 	0.00511709 	8.44353 	9900.26 	9900.26 	0 	
0.00181187 	1.16156e-09 	0.92 	0.04 	0.04 	0.0291606 	3.80003 	
3.77087 	3.97141 	-0.200545 	-3.34356 	8.6676e-09 	3.34452 	26.7102 	
2.86072e-10 	14488.2 	246.919 	283.231 	0.35 	13.208 	-0.253146 	6.77333e-05 	
0.00180191 	0.00120127 	0.000437113 	9813.81 	0.00150576 	11.0189 	9802.79 	9802.79 	0 	
0.0018796 	0 	0.92 	0.04 	0.04 	0.0291606 	3.8 	
3.77084 	3.97141 	-0.200575 	-1.67274 	8.6676e-09 	0.83637 	29.2183 	
1.43133e-10 	7244.08 	123.46 	141.616 	0.35 	6.604 	-0.253292 	3.38667e-05 	
0.000900955 	0.000600637 	0.000439736 	10244.5 	0.00030136 	12.3928 	10232.1 	10232.1 	0 	
ZONE T = "t = 5.5e-08 [s]" I = 10 SOLUTIONTIME = 5.5000000000000E-08
0.00127 	1.97117e-08 	0.92 	0.04 	0.04 	0.0291615 	3.80014 	
3.77098 	3.97141 	-0.200435 	-1.66819 	1.47103e-07 	29.2206 	0.834095 	
1.84487e-10 	7244.08 	123.46 	141.616 	0.35 	6.604 	-0.252603 	3.38667e-05 	
0.000900955 	0.000600637 	0.000585305 	9989.27 	0.0867865 	0.0428132 	9989.14 	9989.14 	0 	
0.00133773 	1.73949e-08 	0.92 	0.04 	0.04 	0.0291613 	3.80014 	
3.77098 	3.97141 	-0.200436 	-3.33648 	1.29813e-07 	26.7182 	3.33643 	
3.68987e-10 	14488.2 	246.919 	283.231 	0.35 	13.208 	-0.25261 	6.77333e-05 	
0.00180191 	0.00120127 	0.0005808 	9891.63 	0.0771853 	0.214074 	9891.34 	9891.34 	0 	
0.00140547 	1.50778e-08 	0.92 	0.04 	0.04 	0.0291611 	3.80013 	
3.77097 	3.97141 	-0.200442 	-3.33681 	1.12521e-07 	23.3816 	6.67307 	
3.69028e-10 	14488.2 	246.919 	283.231 	0.35 	13.208 	-0.252635 	6.77333e-05 	
0.00180191 	0.00120127 	0.000583715 	9962.63 	0.0591811 	0.727899 	9961.84 	9961.84 	0 	
0.0014732 	1.27603e-08 	0.92 	0.04 	0.04 	0.029161 	3.80013 	
3.77096 	3.97141 	-0.20045 	-3.33736 	9.52261e-08 	20.0445 	10.0102 	
3.69097e-10 	14488.2 	246.919 	283.231 	0.35 	13.208 	-0.252677 	6.77333e-05 	
0.00180191 	0.00120127 	0.00058438 	9928.8 	0.0435732 	1.58443 	9927.18 	9927.18 	0 	
0.00154093 	1.04423e-08 	0.92 	0.04 	0.04 	0.0291609 	3.80011 	
3.77095 	3.97141 	-0.200462 	-3.33814 	7.79274e-08 	16.7068 	13.3479 	
3.69195e-10 	14488.2 	246.919 	283.231 	0.35 	13.208 	-0.252736 	6.77333e-05 	
0.00180191 	0.00120127 	0.000582921 	9709.24 	0.0303618 	2.78388 	9706.42 	9706.42 	0 	
0.00160867 	8.12354e-09 	0.92 	0.04 	0.04 	0.0291607 	3.8001 	
3.77094 	3.97141 	-0.200478 	-3.33915 	6.06234e-08 	13.3681 	16.6866 	
3.69321e-10 	14488.2 	246.919 	283.231 	0.35 	13.208 	-0.252813 	6.77333e-05 	
0.00180191 	0.00120127 	0.000586033 	9834.08 	0.0195475 	4.32659 	9829.73 	9829.73 	0 	
0.0016764 	5.80395e-09 	0.92 	0.04 	0.04 	0.0291607 	3.80008 	
3.77092 	3.97141 	-0.200497 	-3.34039 	4.33131e-08 	10.0284 	20.0263 	
3.69476e-10 	14488.2 	246.919 	283.231 	0.35 	13.208 	-0.252907 	6.77333e-05 	
0.00180191 	0.00120127 	0.00058413 	9759.2 	0.0111319 	6.21297 	9752.97 	9752.97 	0 	
0.00174413 	3.48335e-09 	0.92 	0.04 	0.04 	0.0291606 	3.80006 	
3.7709 	3.97141 	-0.200519 	-3.34186 	2.59951e-08 	6.68723 	23.3675 	
3.6966e-10 	14488.2 	246.919 	283.231 	0.35 	13.208 	-0.253018 	6.77333e-05 	
0.00180191 	0.00120127 	0.000584327 	9861.27 	0.00511709 	8.44353 	9852.82 	9852.82 	0 	
0.00181187 	1.16156e-09 	0.92 	0.04 	0.04 	0.0291606 	3.80003 	
3.77087 	3.97141 	-0.200545 	-3.34356 	8.66837e-09 	3.34452 	26.7102 	
3.69872e-10 	14488.2 	246.919 	283.231 	0.35 	13.208 	-0.253146 	6.77333e-05 	
0.00180191 	0.00120127 	0.000587543 	10028.7 	0.00150576 	11.0189 	10017.6 	10017.6 	0 	
0.0018796 	0 	0.92 	0.04 	0.04 	0.0291606 	3.8 	
3.77084 	3.97141 	-0.200575 	-1.67274 	8.66837e-09 	0.83637 	29.2183 	
1.85056e-10 	7244.08 	123.46 	141.616 	0.35 	6.604 	-0.253292 	3.38667e-05 	
0.000900955 	0.000600637 	0.000589992 	10017 	0.00030136 	12.3928 	10004.7 	10004.7 	0 	
ZONE T = "t = 7.75e-08 [s]" I = 10 SOLUTIONTIME = 7.7500000000000E-08
0.00127 	1.97117e-08 	0.92 	0.04 	0.04 	0.0291615 	3.80014 	
3.77098 	3.97141 	-0.200435 	-1.66819 	1.47103e-07 	29.2206 	0.834095 	
2.47202e-10 	7244.08 	123.46 	141.616 	0.35 	6.604 	-0.252603 	3.38667e-05 	
0.000900955 	0.000600637 	0.00080391 	9715.81 	0.0867865 	0.0428132 	9715.68 	9715.68 	0 	
0.00133773 	1.73949e-08 	0.92 	0.04 	0.04 	0.0291613 	3.80014 	
3.77098 	3.97141 	-0.200436 	-3.33648 	1.29813e-07 	26.7182 	3.33643 	
4.9442e-10 	14488.2 	246.919 	283.231 	0.35 	13.208 	-0.25261 	6.77333e-05 	
0.00180191 	0.00120127 	0.000804722 	9952.09 	0.0771853 	0.214074 	9951.8 	9951.8 	0 	
0.00140547 	1.50778e-08 	0.92 	0.04 	0.04 	0.0291611 	3.80013 	
3.77097 	3.97141 	-0.200442 	-3.33681 	1.12521e-07 	23.3816 	6.67307 	
4.94473e-10 	14488.2 	246.919 	283.231 	0.35 	13.208 	-0.252635 	6.77333e-05 	
0.00180191 	0.00120127 	0.000805886 	9874.27 	0.0591811 	0.727899 	9873.48 	9873.48 	0 	
0.0014732 	1.27603e-08 	0.92 	0.04 	0.04 	0.029161 	3.80013 	
3.77096 	3.97141 	-0.20045 	-3.33736 	9.52261e-08 	20.0445 	10.0102 	
4.94564e-10 	14488.2 	246.919 	283.231 	0.35 	13.208 	-0.252677 	6.77333e-05 	
0.00180191 	0.00120127 	0.000807192 	9902.76 	0.0435732 	1.58443 	9901.13 	9901.13 	0 	
0.00154093 	1.04423e-08 	0.92 	0.04 	0.04 	0.0291609 	3.80011 	
3.77095 	3.97141 	-0.200462 	-3.33814 	7.79274e-08 	16.7068 	13.3479 	
4.94691e-10 	14488.2 	246.919 	283.231 	0.35 	13.208 	-0.252736 	6.77333e-05 	
0.00180191 	0.00120127 	0.000807426 	9978.04 	0.0303618 	2.78388 	9975.23 	9975.23 	0 	
0.00160867 	8.12354e-09 	0.92 	0.04 	0.04 	0.0291607 	3.8001 	
3.77094 	3.97141 	-0.200478 	-3.33915 	6.06234e-08 	13.3681 	16.6866 	
4.94855e-10 	14488.2 	246.919 	283.231 	0.35 	13.208 	-0.252813 	6.77333e-05 	
0.00180191 	0.00120127 	0.000806546 	9800.6 	0.0195475 	4.32659 	9796.25 	9796.25 	0 	
0.0016764 	5.80395e-09 	0.92 	0.04 	0.04 	0.0291607 	3.80008 	
3.77092 	3.97141 	-0.200497 	-3.34039 	4.33131e-08 	10.0284 	20.0263 	
4.95057e-10 	14488.2 	246.919 	283.231 	0.35 	13.208 	-0.252907 	6.77333e-05 	
0.00180191 	0.00120127 	0.00080727 	9917.32 	0.0111319 	6.21297 	9911.1 	9911.1 	0 	
0.00174413 	3.48335e-09 	0.92 	0.04 	0.04 	0.0291606 	3.80006 	
3.7709 	3.97141 	-0.200519 	-3.34186 	2.59951e-08 	6.68723 	23.3675 	
4.95295e-10 	14488.2 	246.919 	283.231 	0.35 	13.208 	-0.253018 	6.77333e-05 	
0.00180191 	0.00120127 	0.000806833 	9889.18 	0.00511709 	8.44353 	9880.73 	9880.73 	0 	
0.00181187 	1.16156e-09 	0.92 	0.04 	0.04 	0.0291606 	3.80003 	
3.77087 	3.97141 	-0.200545 	-3.34356 	8.66837e-09 	3.34452 	26.7102 	
4.95571e-10 	14488.2 	246.919 	283.231 	0.35 	13.208 	-0.253146 	6.77333e-05 	
0.00180191 	0.00120127 	0.000812016 	9976.58 	0.00150576 	11.0189 	9965.56 	9965.56 	0 	
0.0018796 	0 	0.92 	0.04 	0.04 	0.0291606 	3.8 	
3.77084 	3.97141 	-0.200575 	-1.67274 	8.66837e-09 	0.83637 	29.2183 	
2.47942e-10 	7244.08 	123.46 	141.616 	0.35 	6.604 	-0.253292 	3.38667e-05 	
0.000900955 	0.000600637 	0.000812006 	9867.3 	0.00030136 	12.3928 	9854.9 	9854.9 	0 	
ZONE T = "t = 1.1125e-07 [s]" I = 10 SOLUTIONTIME = 1.1125000000000E-07
0.00127 	1.97117e-08 	0.92 	0.04 	0.04 	0.0291615 	3.80014 	
3.77098 	3.97141 	-0.200435 	-1.66819 	1.47104e-07 	29.2206 	0.834095 	
3.41274e-10 	7244.08 	123.46 	141.616 	0.35 	6.604 	-0.252603 	3.38667e-05 	
0.000900955 	0.000600637 	0.00113722 	9875.8 	0.0867865 	0.0428132 	9875.67 	9875.67 	0 	
0.00133773 	1.73949e-08 	0.92 	0.04 	0.04 	0.0291613 	3.80014 	
3.77098 	3.97141 	-0.200436 	-3.33648 	1.29813e-07 	26.7182 	3.33643 	
6.8257e-10 	14488.2 	246.919 	283.231 	0.35 	13.208 	-0.25261 	6.77333e-05 	
0.00180191 	0.00120127 	0.00113784 	9870.24 	0.0771853 	0.214074 	9869.95 	9869.95 	0 	
0.00140547 	1.50778e-08 	0.92 	0.04 	0.04 	0.0291611 	3.80013 	
3.77097 	3.97141 	-0.200442 	-3.33681 	1.12521e-07 	23.3816 	6.67307 	
6.82642e-10 	14488.2 	246.919 	283.231 	0.35 	13.208 	-0.252635 	6.77333e-05 	
0.00180191 	0.00120127 	0.00113843 	9853.18 	0.0591811 	0.727899 	9852.4 	9852.4 	0 	
0.0014732 	1.27603e-08 	0.92 	0.04 	0.04 	0.029161 	3.80013 	
3.77096 	3.97141 	-0.20045 	-3.33736 	9.52261e-08 	20.0445 	10.0102 	
6.82763e-10 	14488.2 	246.919 	283.231 	0.35 	13.208 	-0.252677 	6.77333e-05 	
0.00180191 	0.00120127 	0.00114141 	9902.76 	0.0435732 	1.58443 	9901.13 	9901.13 	0 	
0.00154093 	1.04423e-08 	0.92 	0.04 	0.04 	0.0291609 	3.80011 	
3.77095 	3.97141 	-0.200462 	-3.33814 	7.79274e-08 	16.7068 	13.3479 	
6.82935e-10 	14488.2 	246.919 	283.231 	0.35 	13.208 	-0.252736 	6.77333e-05 	
0.00180191 	0.00120127 	0.00114151 	9898.67 	0.0303618 	2.78388 	9895.86 	9895.86 	0 	
0.00160867 	8.12354e-09 	0.92 	0.04 	0.04 	0.0291607 	3.8001 	
3.77094 	3.97141 	-0.200478 	-3.33915 	6.06234e-08 	13.3681 	16.6866 	
6.83156e-10 	14488.2 	246.919 	283.231 	0.35 	13.208 	-0.252813 	6.77333e-05 	
0.00180191 	0.00120127 	0.00113872 	9842.14 	0.0195475 	4.32659 	9837.79 	9837.79 	0 	
0.0016764 	5.80395e-09 	0.92 	0.04 	0.04 	0.0291607 	3.80008 	
3.77092 	3.97141 	-0.200497 	-3.34039 	4.33131e-08 	10.0284 	20.0263 	
6.83427e-10 	14488.2 	246.919 	283.231 	0.35 	13.208 	-0.252907 	6.77333e-05 	
0.00180191 	0.00120127 	0.00113978 	9852.21 	0.0111319 	6.21297 	9845.99 	9845.99 	0 	
0.00174413 	3.48335e-09 	0.92 	0.04 	0.04 	0.0291606 	3.80006 	
3.7709 	3.97141 	-0.200519 	-3.34186 	2.59951e-08 	6.68723 	23.3675 	
6.83749e-10 	14488.2 	246.919 	283.231 	0.35 	13.208 	-0.253018 	6.77333e-05 	
0.00180191 	0.00120127 	0.00114336 	9971.03 	0.00511709 	8.44353 	9962.58 	9962.58 	0 	
0.00181187 	1.16156e-09 	0.92 	0.04 	0.04 	0.0291606 	3.80003 	
3.77087 	3.97141 	-0.200545 	-3.34356 	8.66837e-09 	3.34452 	26.7102 	
6.8412e-10 	14488.2 	246.919 	283.231 	0.35 	13.208 	-0.253146 	6.77333e-05 	
0.00180191 	0.00120127 	0.00114395 	9835.2 	0.00150576 	11.0189 	9824.18 	9824.18 	0 	
0.0018796 	0 	0.92 	0.04 	0.04 	0.0291606 	3.8 	
3.77084 	3.97141 	-0.200575 	-1.67274 	8.66837e-09 	0.83637 	29.2183 	
3.42271e-10 	7244.08 	123.46 	141.616 	0.35 	6.604 	-0.253292 	3.38667e-05 	
0.000900955 	0.000600637 	0.00114695 	9924.34 	0.00030136 	12.3928 	9911.95 	9911.95 	0 	
ZONE T = "t = 1.61875e-07 [s]" I = 10 SOLUTIONTIME = 1.6187500000000E-07
0.00127 	1.97117e-08 	0.92 	0.04 	0.04 	0.0291615 	3.80014 	
3.77098 	3.97141 	-0.200435 	-1.66819 	1.47104e-07 	29.2206 	0.834095 	
4.82382e-10 	7244.08 	123.46 	141.616 	0.35 	6.604 	-0.252603 	3.38667e-05 	
0.000900955 	0.000600637 	0.00163729 	9877.86 	0.0867865 	0.0428132 	9877.73 	9877.73 	0 	
0.00133773 	1.73949e-08 	0.92 	0.04 	0.04 	0.0291613 	3.80014 	
3.77098 	3.97141 	-0.200436 	-3.33648 	1.29813e-07 	26.7182 	3.33643 	
9.64795e-10 	14488.2 	246.919 	283.231 	0.35 	13.208 	-0.25261 	6.77333e-05 	
0.00180191 	0.00120127 	0.00163491 	9818.57 	0.0771853 	0.214074 	9818.27 	9818.27 	0 	
0.00140547 	1.50778e-08 	0.92 	0.04 	0.04 	0.0291611 	3.80013 	
3.77097 	3.97141 	-0.200442 	-3.33681 	1.12521e-07 	23.3816 	6.67307 	
9.64894e-10 	14488.2 	246.919 	283.231 	0.35 	13.208 	-0.252635 	6.77333e-05 	
0.00180191 	0.00120127 	0.00164122 	9931.73 	0.0591811 	0.727899 	9930.94 	9930.94 	0 	
0.0014732 	1.27603e-08 	0.92 	0.04 	0.04 	0.029161 	3.80013 	
3.77096 	3.97141 	-0.20045 	-3.33736 	9.52261e-08 	20.0445 	10.0102 	
9.65063e-10 	14488.2 	246.919 	283.231 	0.35 	13.208 	-0.252677 	6.77333e-05 	
0.00180191 	0.00120127 	0.00164134 	9875.06 	0.0435732 	1.58443 	9873.44 	9873.44 	0 	
0.00154093 	1.04423e-08 	0.92 	0.04 	0.04 	0.0291609 	3.80011 	
3.77095 	3.97141 	-0.200462 	-3.33814 	7.79274e-08 	16.7068 	13.3479 	
9.653e-10 	14488.2 	246.919 	283.231 	0.35 	13.208 	-0.252736 	6.77333e-05 	
0.00180191 	0.00120127 	0.00164194 	9885.03 	0.0303618 	2.78388 	9882.22 	9882.22 	0 	
0.00160867 	8.12354e-09 	0.92 	0.04 	0.04 	0.0291607 	3.8001 	
3.77094 	3.97141 	-0.200478 	-3.33915 	6.06234e-08 	13.3681 	16.6866 	
9.65607e-10 	14488.2 	246.919 	283.231 	0.35 	13.208 	-0.252813 	6.77333e-05 	
0.00180191 	0.00120127 	0.00164164 	9934.33 	0.0195475 	4.32659 	9929.98 	9929.98 	0 	
0.0016764 	5.80395e-09 	0.92 	0.04 	0.04 	0.0291607 	3.80008 	
3.77092 	3.97141 	-0.200497 	-3.34039 	4.33131e-08 	10.0284 	20.0263 	
9.65983e-10 	14488.2 	246.919 	283.231 	0.35 	13.208 	-0.252907 	6.77333e-05 	
0.00180191 	0.00120127 	0.00164188 	9917.94 	0.0111319 	6.21297 	9911.72 	9911.72 	0 	
0.00174413 	3.48335e-09 	0.92 	0.04 	0.04 	0.0291606 	3.80006 	
3.7709 	3.97141 	-0.200519 	-3.34186 	2.59951e-08 	6.68723 	23.3675 	
9.66429e-10 	14488.2 	246.919 	283.231 	0.35 	13.208 	-0.253018 	6.77333e-05 	
0.00180191 	0.00120127 	0.0016454 	9916.87 	0.00511709 	8.44353 	9908.43 	9908.43 	0 	
0.00181187 	1.16156e-09 	0.92 	0.04 	0.04 	0.0291606 	3.80003 	
3.77087 	3.97141 	-0.200545 	-3.34356 	8.66837e-09 	3.34452 	26.7102 	
9.66944e-10 	14488.2 	246.919 	283.231 	0.35 	13.208 	-0.253146 	6.77333e-05 	
0.00180191 	0.00120127 	0.00164659 	9928.63 	0.00150576 	11.0189 	9917.61 	9917.61 	0 	
0.0018796 	0 	0.92 	0.04 	0.04 	0.0291606 	3.8 	
3.77084 	3.97141 	-0.200575 	-1.67274 	8.66837e-09 	0.83637 	29.2183 	
4.83764e-10 	7244.08 	123.46 	141.616 	0.35 	6.604 	-0.253292 	3.38667e-05 	
0.000900955 	0.000600637 	0.0016482 	9901.19 	0.00030136 	12.3928 	9888.8 	9888.8 	0 	
ZONE T = "t = 2.37813e-07 [s]" I = 10 SOLUTIONTIME = 2.3781250000000E-07
0.00127 	1.97117e-08 	0.92 	0.04 	0.04 	0.0291615 	3.80014 	
3.77098 	3.97141 	-0.200435 	-1.66819 	1.47105e-07 	29.2206 	0.834095 	
6.94045e-10 	7244.08 	123.46 	141.616 	0.35 	6.604 	-0.252603 	3.38667e-05 	
0.000900955 	0.000600637 	0.00238937 	9904.04 	0.0867865 	0.0428132 	9903.91 	9903.91 	0 	
0.00133773 	1.73949e-08 	0.92 	0.04 	0.04 	0.0291613 	3.80014 	
3.77098 	3.97141 	-0.200436 	-3.33648 	1.29813e-07 	26.7182 	3.33643 	
1.38813e-09 	14488.2 	246.919 	283.231 	0.35 	13.208 	-0.25261 	6.77333e-05 	
0.00180191 	0.00120127 	0.00238519 	9880.3 	0.0771853 	0.214074 	9880.01 	9880.01 	0 	
0.00140547 	1.50778e-08 	0.92 	0.04 	0.04 	0.0291611 	3.80013 	
3.77097 	3.97141 	-0.200442 	-3.33681 	1.12521e-07 	23.3816 	6.67307 	
1.38827e-09 	14488.2 	246.919 	283.231 	0.35 	13.208 	-0.252635 	6.77333e-05 	
0.00180191 	0.00120127 	0.00238874 	9843.81 	0.0591811 	0.727899 	9843.02 	9843.02 	0 	