TITLE = "Solution on Domain BulkDomain1D_1"
VARIABLES = "x [m]"  
"Vel_axial" 	"MF_sp(ECDMC)" 	"MF_sp(Li+)" 	"MF_sp(PF6-)" 	"Volt(Electroly)" 	"Porosity []" 	"Control volume thickness [m]" 	"volFrac MgO(S) []" 	"qHeat_accum [J/m3]" 	"qHeat_step [W/m3]" 	"Joule_Lyte [W/m3]" 	"Joule_Solid [W/m3]" 	
ZONE T = "SEP , 0.0000E+00", I = 10, SOLUTIONTIME = 0.000000E+00
ZONETYPE = ORDERED
DATAPACKING = BLOCK
STRANDID = 2
 7.8740000000000E-04  8.4102222222222E-04  8.9464444444444E-04  9.4826666666667E-04  1.0018888888889E-03  1.0555111111111E-03  1.1091333333333E-03  1.1627555555556E-03  1.2163777777778E-03  1.2700000000000E-03 
 0.0000000000000E+00  0.0000000000000E+00  0.0000000000000E+00  0.0000000000000E+00  0.0000000000000E+00  0.0000000000000E+00  0.0000000000000E+00  0.0000000000000E+00  0.0000000000000E+00  0.0000000000000E+00 
 9.2000000000000E-01  9.2000000000000E-01  9.2000000000000E-01  9.2000000000000E-01  9.2000000000000E-01  9.2000000000000E-01  9.2000000000000E-01  9.2000000000000E-01  9.2000000000000E-01  9.2000000000000E-01 
 4.0000000000000E-02  4.0000000000000E-02  4.0000000000000E-02  4.0000000000000E-02  4.0000000000000E-02  4.0000000000000E-02  4.0000000000000E-02  4.0000000000000E-02  4.0000000000000E-02  4.0000000000000E-02 
 4.0000000000000E-02  4.0000000000000E-02  4.0000000000000E-02  4.0000000000000E-02  4.0000000000000E-02  4.0000000000000E-02  4.0000000000000E-02  4.0000000000000E-02  4.0000000000000E-02  4.0000000000000E-02 
-7.0000000000000E-02 -7.0000000000000E-02 -7.0000000000000E-02 -7.0000000000000E-02 -7.0000000000000E-02 -7.0000000000000E-02 -7.0000000000000E-02 -7.0000000000000E-02 -7.0000000000000E-02 -7.0000000000000E-02 
 8.0911139820575E-01  8.0911139820575E-01  8.0911139820575E-01  8.0911139820575E-01  8.0911139820575E-01  8.0911139820575E-01  8.0911139820575E-01  8.0911139820575E-01  8.0911139820575E-01  8.0911139820575E-01 
 2.6811111111111E-05  5.3622222222222E-05  5.3622222222222E-05  5.3622222222222E-05  5.3622222222222E-05  5.3622222222222E-05  5.3622222222222E-05  5.3622222222223E-05  5.3622222222222E-05  2.6811111111111E-05 
 1.9088860179425E-01  1.9088860179425E-01  1.9088860179425E-01  1.9088860179425E-01  1.9088860179425E-01  1.9088860179425E-01  1.9088860179425E-01  1.9088860179425E-01  1.9088860179425E-01  1.9088860179425E-01 
 0.0000000000000E+00  0.0000000000000E+00  0.0000000000000E+00  0.0000000000000E+00  0.0000000000000E+00  0.0000000000000E+00  0.0000000000000E+00  0.0000000000000E+00  0.0000000000000E+00  0.0000000000000E+00 
 0.0000000000000E+00  0.0000000000000E+00  0.0000000000000E+00  0.0000000000000E+00  0.0000000000000E+00  0.0000000000000E+00  0.0000000000000E+00  0.0000000000000E+00  0.0000000000000E+00  0.0000000000000E+00 
 0.0000000000000E+00  0.0000000000000E+00  0.0000000000000E+00  0.0000000000000E+00  0.0000000000000E+00  0.0000000000000E+00  0.0000000000000E+00  0.0000000000000E+00  0.0000000000000E+00  0.0000000000000E+00 
 0.0000000000000E+00  0.0000000000000E+00  0.0000000000000E+00  0.0000000000000E+00  0.0000000000000E+00  0.0000000000000E+00  0.0000000000000E+00  0.0000000000000E+00  0.0000000000000E+00  0.0000000000000E+00 
ZONE T = "SEP , 1.0000E-08", I = 10, SOLUTIONTIME = 1.000000E-08
ZONETYPE = ORDERED
DATAPACKING = BLOCK
STRANDID = 2
 7.8740000000000E-04  8.4102222222222E-04  8.9464444444444E-04  9.4826666666667E-04  1.0018888888889E-03  1.0555111111111E-03  1.1091333333333E-03  1.1627555555556E-03  1.2163777777778E-03  1.2700000000000E-03 
 2.0840085288440E-08  2.0840085288440E-08  2.0840085288440E-08  2.0840085288440E-08  2.0840085288440E-08  2.0840085288440E-08  2.0840085288440E-08  2.0840085288440E-08  2.0840085288440E-08  1.9682875568121E-08 
 9.1999999999971E-01  9.2000000000000E-01  9.2000000000000E-01  9.2000000000000E-01  9.2000000000000E-01  9.2000000000000E-01  9.2000000000000E-01  9.2000000000000E-01  9.2000000000000E-01  9.2000000000032E-01 
 4.0000000000144E-02  4.0000000000000E-02  4.0000000000000E-02  4.0000000000000E-02  4.0000000000000E-02  4.0000000000000E-02  4.0000000000000E-02  4.0000000000000E-02  4.0000000000000E-02  3.9999999999841E-02 
 4.0000000000144E-02  4.0000000000000E-02  4.0000000000000E-02  4.0000000000000E-02  4.0000000000000E-02  4.0000000000000E-02  4.0000000000000E-02  4.0000000000000E-02  4.0000000000000E-02  3.9999999999841E-02 
 2.9180986241354E-02  2.9180936921544E-02  2.9180887601735E-02  2.9180838281925E-02  2.9180788962116E-02  2.9180739642307E-02  2.9180690322497E-02  2.9180641002688E-02  2.9180591682878E-02  2.9180542363069E-02 
 8.0911139820575E-01  8.0911139820575E-01  8.0911139820575E-01  8.0911139820575E-01  8.0911139820575E-01  8.0911139820575E-01  8.0911139820575E-01  8.0911139820575E-01  8.0911139820575E-01  8.0911139820575E-01 
 2.6811111111111E-05  5.3622222222222E-05  5.3622222222222E-05  5.3622222222222E-05  5.3622222222222E-05  5.3622222222222E-05  5.3622222222222E-05  5.3622222222223E-05  5.3622222222222E-05  2.6811111111111E-05 
 1.9088860179425E-01  1.9088860179425E-01  1.9088860179425E-01  1.9088860179425E-01  1.9088860179425E-01  1.9088860179425E-01  1.9088860179425E-01  1.9088860179425E-01  1.9088860179425E-01  1.9088860179425E-01 
 2.7607970778614E-10  2.7607970778589E-10  2.7607970780507E-10  2.7607970780507E-10  2.7607970780507E-10  2.7607970780507E-10  2.7607970780507E-10  2.7607970780507E-10  2.7607970780479E-10  2.7607970782394E-10 
 2.7607970778614E-02  2.7607970778589E-02  2.7607970780507E-02  2.7607970780507E-02  2.7607970780507E-02  2.7607970780507E-02  2.7607970780507E-02  2.7607970780507E-02  2.7607970780479E-02  2.7607970782394E-02 
 2.7607970778614E-02  2.7607970778589E-02  2.7607970780507E-02  2.7607970780507E-02  2.7607970780507E-02  2.7607970780507E-02  2.7607970780507E-02  2.7607970780507E-02  2.7607970780479E-02  2.7607970782394E-02 
 0.0000000000000E+00  0.0000000000000E+00  0.0000000000000E+00  0.0000000000000E+00  0.0000000000000E+00  0.0000000000000E+00  0.0000000000000E+00  0.0000000000000E+00  0.0000000000000E+00  0.0000000000000E+00 
ZONE T = "SEP , 2.0000E-08", I = 10, SOLUTIONTIME = 2.000000E-08
ZONETYPE = ORDERED
DATAPACKING = BLOCK
STRANDID = 2
 7.8740000000000E-04  8.4102222222222E-04  8.9464444444444E-04  9.4826666666667E-04  1.0018888888889E-03  1.0555111111111E-03  1.1091333333333E-03  1.1627555555556E-03  1.2163777777778E-03  1.2700000000000E-03 
 2.0856141784796E-08  2.0856141784796E-08  2.0856141784796E-08  2.0856141784796E-08  2.0856141784796E-08  2.0856141784796E-08  2.0856141784796E-08  2.0856141784796E-08  2.0856141784796E-08  1.9697523129468E-08 
 9.1999999999942E-01  9.2000000000000E-01  9.2000000000000E-01  9.2000000000000E-01  9.2000000000000E-01  9.2000000000000E-01  9.2000000000000E-01  9.2000000000000E-01  9.2000000000000E-01  9.2000000000063E-01 
 4.0000000000288E-02  4.0000000000000E-02  4.0000000000000E-02  4.0000000000000E-02  4.0000000000000E-02  4.0000000000000E-02  4.0000000000000E-02  4.0000000000000E-02  4.0000000000000E-02  3.9999999999683E-02 
 4.0000000000288E-02  4.0000000000000E-02  4.0000000000000E-02  4.0000000000000E-02  4.0000000000000E-02  4.0000000000000E-02  4.0000000000000E-02  4.0000000000000E-02  4.0000000000000E-02  3.9999999999683E-02 
 2.9166397950825E-02  2.9166348586577E-02  2.9166299222329E-02  2.9166249858081E-02  2.9166200493833E-02  2.9166151129586E-02  2.9166101765338E-02  2.9166052401090E-02  2.9166003036842E-02  2.9165953672594E-02 
 8.0911139820575E-01  8.0911139820575E-01  8.0911139820575E-01  8.0911139820575E-01  8.0911139820575E-01  8.0911139820575E-01  8.0911139820575E-01  8.0911139820575E-01  8.0911139820575E-01  8.0911139820575E-01 
 2.6811111111111E-05  5.3622222222222E-05  5.3622222222222E-05  5.3622222222222E-05  5.3622222222222E-05  5.3622222222222E-05  5.3622222222222E-05  5.3622222222223E-05  5.3622222222222E-05  2.6811111111111E-05 
 1.9088860179425E-01  1.9088860179425E-01  1.9088860179425E-01  1.9088860179425E-01  1.9088860179425E-01  1.9088860179425E-01  1.9088860179425E-01  1.9088860179425E-01  1.9088860179425E-01  1.9088860179425E-01 
 5.5265714936362E-10  5.5265714934343E-10  5.5265714936211E-10  5.5265714938155E-10  5.5265714938154E-10  5.5265714938155E-10  5.5265714938155E-10  5.5265714938154E-10  5.5265714938072E-10  5.5265714939932E-10 
 2.7657744157748E-02  2.7657744155754E-02  2.7657744155704E-02  2.7657744157648E-02  2.7657744157648E-02  2.7657744157648E-02  2.7657744157648E-02  2.7657744157648E-02  2.7657744157593E-02  2.7657744157538E-02 
 2.7657744157748E-02  2.7657744155754E-02  2.7657744155704E-02  2.7657744157648E-02  2.7657744157648E-02  2.7657744157648E-02  2.7657744157648E-02  2.7657744157648E-02  2.7657744157593E-02  2.7657744157538E-02 
 0.0000000000000E+00  0.0000000000000E+00  0.0000000000000E+00  0.0000000000000E+00  0.0000000000000E+00  0.0000000000000E+00  0.0000000000000E+00  0.0000000000000E+00  0.0000000000000E+00  0.0000000000000E+00 
ZONE T = "SEP , 3.0000E-08", I = 10, SOLUTIONTIME = 3.000000E-08
ZONETYPE = ORDERED
DATAPACKING = BLOCK
STRANDID = 2
 7.8740000000000E-04  8.4102222222222E-04  8.9464444444444E-04  9.4826666666667E-04  1.0018888888889E-03  1.0555111111111E-03  1.1091333333333E-03  1.1627555555556E-03  1.2163777777778E-03  1.2700000000000E-03 
 2.0868335493228E-08  2.0868335493228E-08  2.0868335493228E-08  2.0868335493228E-08  2.0868335493228E-08  2.0868335493228E-08  2.0868335493228E-08  2.0868335493228E-08  2.0868335493228E-08  1.9711128055049E-08 
 9.1999999999914E-01  9.2000000000000E-01  9.2000000000000E-01  9.2000000000000E-01  9.2000000000000E-01  9.2000000000000E-01  9.2000000000000E-01  9.2000000000000E-01  9.2000000000000E-01  9.2000000000095E-01 
 4.0000000000432E-02  4.0000000000000E-02  4.0000000000000E-02  4.0000000000000E-02  4.0000000000000E-02  4.0000000000000E-02  4.0000000000000E-02  4.0000000000000E-02  4.0000000000000E-02  3.9999999999524E-02 
 4.0000000000432E-02  4.0000000000000E-02  4.0000000000000E-02  4.0000000000000E-02  4.0000000000000E-02  4.0000000000000E-02  4.0000000000000E-02  4.0000000000000E-02  4.0000000000000E-02  3.9999999999524E-02 
 2.9165813991131E-02  2.9165764625102E-02  2.9165715259074E-02  2.9165665893045E-02  2.9165616527016E-02  2.9165567160987E-02  2.9165517794958E-02  2.9165468428929E-02  2.9165419062901E-02  2.9165369696872E-02 
 8.0911139820575E-01  8.0911139820575E-01  8.0911139820575E-01  8.0911139820575E-01  8.0911139820575E-01  8.0911139820575E-01  8.0911139820575E-01  8.0911139820575E-01  8.0911139820575E-01  8.0911139820575E-01 
 2.6811111111111E-05  5.3622222222222E-05  5.3622222222222E-05  5.3622222222222E-05  5.3622222222222E-05  5.3622222222222E-05  5.3622222222222E-05  5.3622222222223E-05  5.3622222222222E-05  2.6811111111111E-05 
 1.9088860179425E-01  1.9088860179425E-01  1.9088860179425E-01  1.9088860179425E-01  1.9088860179425E-01  1.9088860179425E-01  1.9088860179425E-01  1.9088860179425E-01  1.9088860179425E-01  1.9088860179425E-01 
 8.2925454787838E-10  8.2925454783801E-10  8.2925454785594E-10  8.2925454789481E-10  8.2925454789481E-10  8.2925454789482E-10  8.2925454789482E-10  8.2925454787537E-10  8.2925454787373E-10  8.2925454791095E-10 
 2.7659739851476E-02  2.7659739849458E-02  2.7659739849383E-02  2.7659739851327E-02  2.7659739851327E-02  2.7659739851327E-02  2.7659739851327E-02  2.7659739849383E-02  2.7659739849301E-02  2.7659739851162E-02 
 2.7659739851476E-02  2.7659739849458E-02  2.7659739849383E-02  2.7659739851327E-02  2.7659739851327E-02  2.7659739851327E-02  2.7659739851327E-02  2.7659739849383E-02  2.7659739849301E-02  2.7659739851162E-02 
 0.0000000000000E+00  0.0000000000000E+00  0.0000000000000E+00  0.0000000000000E+00  0.0000000000000E+00  0.0000000000000E+00  0.0000000000000E+00  0.0000000000000E+00  0.0000000000000E+00  0.0000000000000E+00 
ZONE T = "SEP , 4.0000E-08", I = 10, SOLUTIONTIME = 4.000000E-08
ZONETYPE = ORDERED
DATAPACKING = BLOCK
STRANDID = 2
 7.8740000000000E-04  8.4102222222222E-04  8.9464444444444E-04  9.4826666666667E-04  1.0018888888889E-03  1.0555111111111E-03  1.1091333333333E-03  1.1627555555556E-03  1.2163777777778E-03  1.2700000000000E-03 
 2.0860543833274E-08  2.0860543833274E-08  2.0860543833274E-08  2.0860543833274E-08  2.0860543833274E-08  2.0860543833274E-08  2.0860543833274E-08  2.0860543833274E-08  2.0860543833274E-08  1.9702810707844E-08 
 9.1999999999885E-01  9.2000000000000E-01  9.2000000000000E-01  9.2000000000000E-01  9.2000000000000E-01  9.2000000000000E-01  9.2000000000000E-01  9.2000000000000E-01  9.2000000000000E-01  9.2000000000127E-01 
 4.0000000000576E-02  4.0000000000000E-02  4.0000000000000E-02  4.0000000000000E-02  4.0000000000000E-02  4.0000000000000E-02  4.0000000000000E-02  4.0000000000000E-02  4.0000000000000E-02  3.9999999999365E-02 
 4.0000000000576E-02  4.0000000000000E-02  4.0000000000000E-02  4.0000000000000E-02  4.0000000000000E-02  4.0000000000000E-02  4.0000000000000E-02  4.0000000000000E-02  4.0000000000000E-02  3.9999999999365E-02 
 2.9166082336258E-02  2.9166032971048E-02  2.9165983605837E-02  2.9165934240627E-02  2.9165884875417E-02  2.9165835510206E-02  2.9165786144996E-02  2.9165736779786E-02  2.9165687414575E-02  2.9165638049365E-02 
 8.0911139820575E-01  8.0911139820575E-01  8.0911139820575E-01  8.0911139820575E-01  8.0911139820575E-01  8.0911139820575E-01  8.0911139820575E-01  8.0911139820575E-01  8.0911139820575E-01  8.0911139820575E-01 
 2.6811111111111E-05  5.3622222222222E-05  5.3622222222222E-05  5.3622222222222E-05  5.3622222222222E-05  5.3622222222222E-05  5.3622222222222E-05  5.3622222222223E-05  5.3622222222222E-05  2.6811111111111E-05 
 1.9088860179425E-01  1.9088860179425E-01  1.9088860179425E-01  1.9088860179425E-01  1.9088860179425E-01  1.9088860179425E-01  1.9088860179425E-01  1.9088860179425E-01  1.9088860179425E-01  1.9088860179425E-01 
 1.1058427747069E-09  1.1058427746655E-09  1.1058427746824E-09  1.1058427747213E-09  1.1058427747213E-09  1.1058427747213E-09  1.1058427747213E-09  1.1058427747213E-09  1.1058427747186E-09  1.1058427747353E-09 
 2.7658822682849E-02  2.7658822682749E-02  2.7658822682650E-02  2.7658822682650E-02  2.7658822682650E-02  2.7658822682650E-02  2.7658822682650E-02  2.7658822684593E-02  2.7658822684484E-02  2.7658822682430E-02 
 2.7658822682849E-02  2.7658822682749E-02  2.7658822682650E-02  2.7658822682650E-02  2.7658822682650E-02  2.7658822682650E-02  2.7658822682650E-02  2.7658822684593E-02  2.7658822684484E-02  2.7658822682430E-02 
 0.0000000000000E+00  0.0000000000000E+00  0.0000000000000E+00  0.0000000000000E+00  0.0000000000000E+00  0.0000000000000E+00  0.0000000000000E+00  0.0000000000000E+00  0.0000000000000E+00  0.0000000000000E+00 
ZONE T = "SEP , 5.5000E-08", I = 10, SOLUTIONTIME = 5.500000E-08
ZONETYPE = ORDERED
DATAPACKING = BLOCK
STRANDID = 2
 7.8740000000000E-04  8.4102222222222E-04  8.9464444444444E-04  9.4826666666667E-04  1.0018888888889E-03  1.0555111111111E-03  1.1091333333333E-03  1.1627555555556E-03  1.2163777777778E-03  1.2700000000000E-03 
 2.0861722156583E-08  2.0861722156583E-08  2.0861722156583E-08  2.0861722156583E-08  2.0861722156583E-08  2.0861722156583E-08  2.0861722156583E-08  2.0861722156583E-08  2.0861722156583E-08  1.9703990820786E-08 
 9.1999999999842E-01  9.2000000000000E-01  9.2000000000000E-01  9.2000000000000E-01  9.2000000000000E-01  9.2000000000000E-01  9.2000000000000E-01  9.2000000000000E-01  9.2000000000000E-01  9.2000000000175E-01 
 4.0000000000792E-02  4.0000000000000E-02  4.0000000000000E-02  4.0000000000000E-02  4.0000000000000E-02  4.0000000000000E-02  4.0000000000000E-02  4.0000000000000E-02  4.0000000000000E-02  3.9999999999127E-02 
 4.0000000000792E-02  4.0000000000000E-02  4.0000000000000E-02  4.0000000000000E-02  4.0000000000000E-02  4.0000000000000E-02  4.0000000000000E-02  4.0000000000000E-02  4.0000000000000E-02  3.9999999999127E-02 
 2.9166107449327E-02  2.9166058084193E-02  2.9166008719059E-02  2.9165959353926E-02  2.9165909988792E-02  2.9165860623658E-02  2.9165811258524E-02  2.9165761893391E-02  2.9165712528257E-02  2.9165663163123E-02 
 8.0911139820575E-01  8.0911139820575E-01  8.0911139820575E-01  8.0911139820575E-01  8.0911139820575E-01  8.0911139820575E-01  8.0911139820575E-01  8.0911139820575E-01  8.0911139820575E-01  8.0911139820575E-01 
 2.6811111111111E-05  5.3622222222222E-05  5.3622222222222E-05  5.3622222222222E-05  5.3622222222222E-05  5.3622222222222E-05  5.3622222222222E-05  5.3622222222223E-05  5.3622222222222E-05  2.6811111111111E-05 
 1.9088860179425E-01  1.9088860179425E-01  1.9088860179425E-01  1.9088860179425E-01  1.9088860179425E-01  1.9088860179425E-01  1.9088860179425E-01  1.9088860179425E-01  1.9088860179425E-01  1.9088860179425E-01 
 1.5207238275485E-09  1.5207238275051E-09  1.5207238275200E-09  1.5207238275588E-09  1.5207238275588E-09  1.5207238275588E-09  1.5207238275588E-09  1.5207238275588E-09  1.5207238275830E-09  1.5207238276266E-09 
 2.7658736856109E-02  2.7658736855972E-02  2.7658736855835E-02  2.7658736855835E-02  2.7658736855835E-02  2.7658736855835E-02  2.7658736855835E-02  2.7658736855835E-02  2.7658736857628E-02  2.7658736859421E-02 
 2.7658736856109E-02  2.7658736855972E-02  2.7658736855835E-02  2.7658736855835E-02  2.7658736855835E-02  2.7658736855835E-02  2.7658736855835E-02  2.7658736855835E-02  2.7658736857628E-02  2.7658736859421E-02 
 0.0000000000000E+00  0.0000000000000E+00  0.0000000000000E+00  0.0000000000000E+00  0.0000000000000E+00  0.0000000000000E+00  0.0000000000000E+00  0.0000000000000E+00  0.0000000000000E+00  0.0000000000000E+00 
ZONE T = "SEP , 7.7500E-08", I = 10, SOLUTIONTIME = 7.750000E-08
ZONETYPE = ORDERED
DATAPACKING = BLOCK
STRANDID = 2
 7.8740000000000E-04  8.4102222222222E-04  8.9464444444444E-04  9.4826666666667E-04  1.0018888888889E-03  1.0555111111111E-03  1.1091333333333E-03  1.1627555555556E-03  1.2163777777778E-03  1.2700000000000E-03 
 2.0862134484193E-08  2.0862134484193E-08  2.0862134484193E-08  2.0862134484193E-08  2.0862134484193E-08  2.0862134484193E-08  2.0862134484193E-08  2.0862134484193E-08  2.0862134484193E-08  1.9704402663865E-08 
 9.1999999999777E-01  9.2000000000000E-01  9.2000000000000E-01  9.2000000000000E-01  9.2000000000000E-01  9.2000000000000E-01  9.2000000000000E-01  9.2000000000000E-01  9.2000000000000E-01  9.2000000000246E-01 
 4.0000000001116E-02  4.0000000000000E-02  4.0000000000000E-02  4.0000000000000E-02  4.0000000000000E-02  4.0000000000000E-02  4.0000000000000E-02  4.0000000000000E-02  4.0000000000000E-02  3.9999999998770E-02 
 4.0000000001116E-02  4.0000000000000E-02  4.0000000000000E-02  4.0000000000000E-02  4.0000000000000E-02  4.0000000000000E-02  4.0000000000000E-02  4.0000000000000E-02  4.0000000000000E-02  3.9999999998770E-02 
 2.9166100649268E-02  2.9166051284113E-02  2.9166001918959E-02  2.9165952553804E-02  2.9165903188650E-02  2.9165853823495E-02  2.9165804458341E-02  2.9165755093186E-02  2.9165705728032E-02  2.9165656362877E-02 
 8.0911139820575E-01  8.0911139820575E-01  8.0911139820575E-01  8.0911139820575E-01  8.0911139820575E-01  8.0911139820575E-01  8.0911139820575E-01  8.0911139820575E-01  8.0911139820575E-01  8.0911139820575E-01 
 2.6811111111111E-05  5.3622222222222E-05  5.3622222222222E-05  5.3622222222222E-05  5.3622222222222E-05  5.3622222222222E-05  5.3622222222222E-05  5.3622222222223E-05  5.3622222222222E-05  2.6811111111111E-05 
 1.9088860179425E-01  1.9088860179425E-01  1.9088860179425E-01  1.9088860179425E-01  1.9088860179425E-01  1.9088860179425E-01  1.9088860179425E-01  1.9088860179425E-01  1.9088860179425E-01  1.9088860179425E-01 
 2.1430459295652E-09  2.1430459295612E-09  2.1430459296154E-09  2.1430459296543E-09  2.1430459296543E-09  2.1430459296106E-09  2.1430459296106E-09  2.1430459296543E-09  2.1430459296737E-09  2.1430459297125E-09 
 2.7658760089631E-02  2.7658760091382E-02  2.7658760093133E-02  2.7658760093133E-02  2.7658760093133E-02  2.7658760091189E-02  2.7658760091189E-02  2.7658760093132E-02  2.7658760092920E-02  2.7658760092707E-02 
 2.7658760089631E-02  2.7658760091382E-02  2.7658760093133E-02  2.7658760093133E-02  2.7658760093133E-02  2.7658760091189E-02  2.7658760091189E-02  2.7658760093132E-02  2.7658760092920E-02  2.7658760092707E-02 
 0.0000000000000E+00  0.0000000000000E+00  0.0000000000000E+00  0.0000000000000E+00  0.0000000000000E+00  0.0000000000000E+00  0.0000000000000E+00  0.0000000000000E+00  0.0000000000000E+00  0.0000000000000E+00 
ZONE T = "SEP , 1.1125E-07", I = 10, SOLUTIONTIME = 1.112500E-07
ZONETYPE = ORDERED
DATAPACKING = BLOCK
STRANDID = 2
 7.8740000000000E-04  8.4102222222222E-04  8.9464444444444E-04  9.4826666666667E-04  1.0018888888889E-03  1.0555111111111E-03  1.1091333333333E-03  1.1627555555556E-03  1.2163777777778E-03  1.2700000000000E-03 
 2.0863185160334E-08  2.0863185160334E-08  2.0863185160334E-08  2.0863185160334E-08  2.0863185160334E-08  2.0863185160334E-08  2.0863185160334E-08  2.0863185160334E-08  2.0863185160334E-08  1.9705291836409E-08 
 9.1999999999679E-01  9.2000000000000E-01  9.2000000000000E-01  9.2000000000000E-01  9.2000000000000E-01  9.2000000000000E-01  9.2000000000000E-01  9.2000000000000E-01  9.2000000000000E-01  9.2000000000353E-01 
 4.0000000001603E-02  4.0000000000000E-02  4.0000000000000E-02  4.0000000000000E-02  4.0000000000000E-02  4.0000000000000E-02  4.0000000000000E-02  4.0000000000000E-02  4.0000000000000E-02  3.9999999998234E-02 
 4.0000000001603E-02  4.0000000000000E-02  4.0000000000000E-02  4.0000000000000E-02  4.0000000000000E-02  4.0000000000000E-02  4.0000000000000E-02  4.0000000000000E-02  4.0000000000000E-02  3.9999999998234E-02 
 2.9166099554481E-02  2.9166050189323E-02  2.9166000824165E-02  2.9165951459008E-02  2.9165902093850E-02  2.9165852728692E-02  2.9165803363534E-02  2.9165753998376E-02  2.9165704633219E-02  2.9165655268061E-02 
 8.0911139820575E-01  8.0911139820575E-01  8.0911139820575E-01  8.0911139820575E-01  8.0911139820575E-01  8.0911139820575E-01  8.0911139820575E-01  8.0911139820575E-01  8.0911139820575E-01  8.0911139820575E-01 
 2.6811111111111E-05  5.3622222222222E-05  5.3622222222222E-05  5.3622222222222E-05  5.3622222222222E-05  5.3622222222222E-05  5.3622222222222E-05  5.3622222222223E-05  5.3622222222222E-05  2.6811111111111E-05 
 1.9088860179425E-01  1.9088860179425E-01  1.9088860179425E-01  1.9088860179425E-01  1.9088860179425E-01  1.9088860179425E-01  1.9088860179425E-01  1.9088860179425E-01  1.9088860179425E-01  1.9088860179425E-01 
 3.0765292088226E-09  3.0765292088093E-09  3.0765292088542E-09  3.0765292088931E-09  3.0765292088931E-09  3.0765292088493E-09  3.0765292088493E-09  3.0765292088930E-09  3.0765292089021E-09  3.0765292089306E-09 
 2.7658763829850E-02  2.7658763829573E-02  2.7658763829296E-02  2.7658763829296E-02  2.7658763829296E-02  2.7658763829296E-02  2.7658763829296E-02  2.7658763829296E-02  2.7658763828991E-02  2.7658763828686E-02 
 2.7658763829850E-02  2.7658763829573E-02  2.7658763829296E-02  2.7658763829296E-02  2.7658763829296E-02  2.7658763829296E-02  2.7658763829296E-02  2.7658763829296E-02  2.7658763828991E-02  2.7658763828686E-02 
 0.0000000000000E+00  0.0000000000000E+00  0.0000000000000E+00  0.0000000000000E+00  0.0000000000000E+00  0.0000000000000E+00  0.0000000000000E+00  0.0000000000000E+00  0.0000000000000E+00  0.0000000000000E+00 
ZONE T = "SEP , 1.6188E-07", I = 10, SOLUTIONTIME = 1.618750E-07
ZONETYPE = ORDERED
DATAPACKING = BLOCK
STRANDID = 2
 7.8740000000000E-04  8.4102222222222E-04  8.9464444444444E-04  9.4826666666667E-04  1.0018888888889E-03  1.0555111111111E-03  1.1091333333333E-03  1.1627555555556E-03  1.2163777777778E-03  1.2700000000000E-03 
 2.0863238775014E-08  2.0863238775014E-08  2.0863238775014E-08  2.0863238775014E-08  2.0863238775014E-08  2.0863238775014E-08  2.0863238775014E-08  2.0863238775014E-08  2.0863238775014E-08  1.9705506887438E-08 
 9.1999999999534E-01  9.2000000000000E-01  9.2000000000000E-01  9.2000000000000E-01  9.2000000000000E-01  9.2000000000000E-01  9.2000000000000E-01  9.2000000000000E-01  9.2000000000000E-01  9.2000000000514E-01 
 4.0000000002332E-02  4.0000000000001E-02  4.0000000000000E-02  4.0000000000000E-02  4.0000000000000E-02  4.0000000000000E-02  4.0000000000000E-02  4.0000000000000E-02  3.9999999999999E-02  3.9999999997431E-02 
 4.0000000002332E-02  4.0000000000001E-02  4.0000000000000E-02  4.0000000000000E-02  4.0000000000000E-02  4.0000000000000E-02  4.0000000000000E-02  4.0000000000000E-02  3.9999999999999E-02  3.9999999997431E-02 
 2.9166099702915E-02  2.9166050337758E-02  2.9166000972600E-02  2.9165951607443E-02  2.9165902242286E-02  2.9165852877128E-02  2.9165803511971E-02  2.9165754146814E-02  2.9165704781656E-02  2.9165655416499E-02 
 8.0911139820575E-01  8.0911139820575E-01  8.0911139820575E-01  8.0911139820575E-01  8.0911139820575E-01  8.0911139820575E-01  8.0911139820575E-01  8.0911139820575E-01  8.0911139820575E-01  8.0911139820575E-01 
 2.6811111111111E-05  5.3622222222222E-05  5.3622222222222E-05  5.3622222222222E-05  5.3622222222222E-05  5.3622222222222E-05  5.3622222222222E-05  5.3622222222223E-05  5.3622222222222E-05  2.6811111111111E-05 
 1.9088860179425E-01  1.9088860179425E-01  1.9088860179425E-01  1.9088860179425E-01  1.9088860179425E-01  1.9088860179425E-01  1.9088860179425E-01  1.9088860179425E-01  1.9088860179425E-01  1.9088860179425E-01 
 4.4767541015446E-09  4.4767541016092E-09  4.4767541017322E-09  4.4767541017710E-09  4.4767541017710E-09  4.4767541016289E-09  4.4767541016289E-09  4.4767541017710E-09  4.4767541017576E-09  4.4767541017636E-09 
 2.7658763313027E-02  2.7658763314567E-02  2.7658763316108E-02  2.7658763316108E-02  2.7658763316108E-02  2.7658763314164E-02  2.7658763314164E-02  2.7658763316108E-02  2.7658763315664E-02  2.7658763315220E-02 
 2.7658763313027E-02  2.7658763314567E-02  2.7658763316108E-02  2.7658763316108E-02  2.7658763316108E-02  2.7658763314164E-02  2.7658763314164E-02  2.7658763316108E-02  2.7658763315664E-02  2.7658763315220E-02 
 0.0000000000000E+00  0.0000000000000E+00  0.0000000000000E+00  0.0000000000000E+00  0.0000000000000E+00  0.0000000000000E+00  0.0000000000000E+00  0.0000000000000E+00  0.0000000000000E+00  0.0000000000000E+00 
ZONE T = "SEP , 2.3781E-07", I = 10, SOLUTIONTIME = 2.378125E-07
ZONETYPE = ORDERED
DATAPACKING = BLOCK
STRANDID = 2
 7.8740000000000E-04  8.4102222222222E-04  8.9464444444444E-04  9.4826666666667E-04  1.0018888888889E-03  1.0555111111111E-03  1.1091333333333E-03  1.1627555555556E-03  1.2163777777778E-03  1.2700000000000E-03 
 2.0862485401320E-08  2.0862581060968E-08  2.0862581060968E-08  2.0862581060968E-08  2.0862581060968E-08  2.0862581060968E-08  2.0862581060968E-08  2.0862581060968E-08  2.0862485401320E-08  1.9704825261424E-08 
 9.1999999999315E-01  9.2000000000000E-01  9.2000000000000E-01  9.2000000000000E-01  9.2000000000000E-01  9.2000000000000E-01  9.2000000000000E-01  9.2000000000000E-01  9.2000000000000E-01  9.2000000000755E-01 
 4.0000000003425E-02  4.0000000000002E-02  4.0000000000000E-02  4.0000000000000E-02  4.0000000000000E-02  4.0000000000000E-02  4.0000000000000E-02  4.0000000000000E-02  3.9999999999998E-02  3.9999999996226E-02 
 4.0000000003425E-02  4.0000000000002E-02  4.0000000000000E-02  4.0000000000000E-02  4.0000000000000E-02  4.0000000000000E-02  4.0000000000000E-02  4.0000000000000E-02  3.9999999999998E-02  3.9999999996226E-02 
 2.9166099741810E-02  2.9166050376652E-02  2.9166001011495E-02  2.9165951646338E-02  2.9165902281181E-02  2.9165852916023E-02  2.9165803550866E-02  2.9165754185709E-02  2.9165704820552E-02  2.9165655455395E-02 
 8.0911139820575E-01  8.0911139820575E-01  8.0911139820575E-01  8.0911139820575E-01  8.0911139820575E-01  8.0911139820575E-01  8.0911139820575E-01  8.0911139820575E-01  8.0911139820575E-01  8.0911139820575E-01 
 2.6811111111111E-05  5.3622222222222E-05  5.3622222222222E-05  5.3622222222222E-05  5.3622222222222E-05  5.3622222222222E-05  5.3622222222222E-05  5.3622222222223E-05  5.3622222222222E-05  2.6811111111111E-05 
 1.9088860179425E-01  1.9088860179425E-01  1.9088860179425E-01  1.9088860179425E-01  1.9088860179425E-01  1.9088860179425E-01  1.9088860179425E-01  1.9088860179425E-01  1.9088860179425E-01  1.9088860179425E-01 
 6.5770914297329E-09  6.5770914299001E-09  6.5770914301257E-09  6.5770914301645E-09  6.5770914301645E-09  6.5770914300224E-09  6.5770914300224E-09  6.5770914301644E-09  6.5770914302491E-09  6.5770914303532E-09 
 2.7658763169557E-02  2.7658763170909E-02  2.7658763172260E-02  2.7658763172260E-02  2.7658763172260E-02  2.7658763172260E-02  2.7658763172260E-02  2.7658763172259E-02  2.7658763173551E-02  2.7658763174843E-02 
 2.7658763169557E-02  2.7658763170909E-02  2.7658763172260E-02  2.7658763172260E-02  2.7658763172260E-02  2.7658763172260E-02  2.7658763172260E-02  2.7658763172259E-02  2.7658763173551E-02  2.7658763174843E-02 
 0.0000000000000E+00  0.0000000000000E+00  0.0000000000000E+00  0.0000000000000E+00  0.0000000000000E+00  0.0000000000000E+00  0.0000000000000E+00  0.0000000000000E+00  0.0000000000000E+00  0.0000000000000E+00 
ZONE T = "SEP , 3.5172E-07", I = 10, SOLUTIONTIME = 3.517188E-07
ZONETYPE = ORDERED
DATAPACKING = BLOCK
STRANDID = 2
 7.8740000000000E-04  8.4102222222222E-04  8.9464444444444E-04  9.4826666666667E-04  1.0018888888889E-03  1.0555111111111E-03  1.1091333333333E-03  1.1627555555556E-03  1.2163777777778E-03  1.2700000000000E-03 
 2.0862668749174E-08  2.0862604976075E-08  2.0862604976075E-08  2.0862604976075E-08  2.0862604976075E-08  2.0862604976075E-08  2.0862604976075E-08  2.0862604976075E-08  2.0862604976075E-08  1.9704873091372E-08 
 9.1999999998987E-01  9.1999999999999E-01  9.2000000000000E-01  9.2000000000000E-01  9.2000000000000E-01  9.2000000000000E-01  9.2000000000000E-01  9.2000000000000E-01  9.2000000000001E-01  9.2000000001116E-01 
 4.0000000005065E-02  4.0000000000003E-02  4.0000000000000E-02  4.0000000000000E-02  4.0000000000000E-02  4.0000000000000E-02  4.0000000000000E-02  4.0000000000000E-02  3.9999999999996E-02  3.9999999994419E-02 