TITLE = "Solution on Domain BulkDomain1D_2"
VARIABLES = "x [m]"  
"Vel_axial(0)" 	"MF_sp(ECDMC)" 	"MF_sp(Li+)" 	"MF_sp(PF6-)" 	"Volt(Electroly)" 	"Volt(CathodeVo)" 	
"Potential Drop Electrode-Electrolyte [V]" 	"Surf_0 Equilibrium Potential Drop Electrode-Electrolyte [V]" 	"Overpotential_0 [V]" 	"Current Source [A/m^2]" 	"Li+ flux [kmol/m^2/s]" 	"Electrolyte Current [A/m^2]" 	"Electrode Current [A/m^2]" 	
"Capacity discharged [A-s]" 	"Depth of discharge [-]" 	"Capacity remaining [A-s]" 	"Initial capacity [A-s]" 	"Porosity []" 	"Surface Area [m2/m2] (area per area)" 	"Specific current (per particle area) [A/m^2]" 	"Control volume thickness [m]" 	
"Moles LiCoO2 [mol/m^2] (per electrode area)" 	"Moles CoO2 [mol/m^2] (per electrode area)" 	"qHeat_accum [J/m3]" 	"qHeat_step [W/m3]" 	"Joule_Lyte [W/m3]" 	"Joule_Solid [W/m3]" 	"electrodHeat [W/m3]" 	"OverpotHeat [W/m3]" 	"deltaSHeat [W/m3]" 	

ZONE T = "t = 4e-08 [s]" I = 10 SOLUTIONTIME = 4.0000000000000E-08
0.00127 	1.97216e-08 	0.92 	0.04 	0.04 	0.0291555 	3.80009 	
0 	0 	0 	0 	0 	29.1512 	0.543203 	
0 	0 	0 	0 	0.3493 	6.61111 	-0.252816 	3.38667e-05 	
0.000901926 	0.000601284 	0 	0.0 	 0.0 	 0.0 	 0.0 	 0.0 	 0.0 	 
0.00133773 	1.74028e-08 	0.92 	0.04 	0.04 	0.0291553 	3.80009 	
0 	0 	0 	0 	0 	26.6509 	2.17283 	
0 	0 	0 	0 	0.3493 	13.2222 	-0.25282 	6.77333e-05 	
0.00180385 	0.00120257 	0 	0.0 	 0.0 	 0.0 	 0.0 	 0.0 	 0.0 	 
0.00140547 	1.50839e-08 	0.92 	0.04 	0.04 	0.0291551 	3.80009 	
0 	0 	0 	0 	0 	23.3216 	4.34575 	
0 	0 	0 	0 	0.3493 	13.2222 	-0.252836 	6.77333e-05 	
0.00180385 	0.00120257 	0 	0.0 	 0.0 	 0.0 	 0.0 	 0.0 	 0.0 	 
0.0014732 	1.27647e-08 	0.92 	0.04 	0.04 	0.029155 	3.80008 	
0 	0 	0 	0 	0 	19.992 	6.51885 	
0 	0 	0 	0 	0.3493 	13.2222 	-0.252863 	6.77333e-05 	
0.00180385 	0.00120257 	0 	0.0 	 0.0 	 0.0 	 0.0 	 0.0 	 0.0 	 
0.00154093 	1.04452e-08 	0.92 	0.04 	0.04 	0.0291549 	3.80007 	
0 	0 	0 	0 	0 	16.6619 	8.69224 	
0 	0 	0 	0 	0.3493 	13.2222 	-0.252901 	6.77333e-05 	
0.00180385 	0.00120257 	0 	0.0 	 0.0 	 0.0 	 0.0 	 0.0 	 0.0 	 
0.00160867 	8.12518e-09 	0.92 	0.04 	0.04 	0.0291547 	3.80006 	
0 	0 	0 	0 	0 	13.3313 	10.866 	
0 	0 	0 	0 	0.3493 	13.2222 	-0.252951 	6.77333e-05 	
0.00180385 	0.00120257 	0 	0.0 	 0.0 	 0.0 	 0.0 	 0.0 	 0.0 	 
0.0016764 	5.80462e-09 	0.92 	0.04 	0.04 	0.0291547 	3.80005 	
0 	0 	0 	0 	0 	9.99992 	13.0402 	
0 	0 	0 	0 	0.3493 	13.2222 	-0.253012 	6.77333e-05 	
0.00180385 	0.00120257 	0 	0.0 	 0.0 	 0.0 	 0.0 	 0.0 	 0.0 	 
0.00174413 	3.48341e-09 	0.92 	0.04 	0.04 	0.0291546 	3.80004 	
0 	0 	0 	0 	0 	6.66769 	15.215 	
0 	0 	0 	0 	0.3493 	13.2222 	-0.253084 	6.77333e-05 	
0.00180385 	0.00120257 	0 	0.0 	 0.0 	 0.0 	 0.0 	 0.0 	 0.0 	 
0.00181187 	1.16143e-09 	0.92 	0.04 	0.04 	0.0291546 	3.80002 	
0 	0 	0 	0 	0 	3.33443 	17.3905 	
0 	0 	0 	0 	0.3493 	13.2222 	-0.253168 	6.77333e-05 	
0.00180385 	0.00120257 	0 	0.0 	 0.0 	 0.0 	 0.0 	 0.0 	 0.0 	 
0.0018796 	0 	0.92 	0.04 	0.04 	0.0291545 	3.8 	
0 	0 	0 	0 	0 	0.833764 	19.3156 	
0 	0 	0 	0 	0.3493 	6.61111 	-0.253262 	3.38667e-05 	
0.000901926 	0.000601284 	0 	0.0 	 0.0 	 0.0 	 0.0 	 0.0 	 0.0 	 
ZONE T = "t = 5.5e-08 [s]" I = 10 SOLUTIONTIME = 5.5000000000000E-08
0.00127 	1.85695e-08 	0.92 	0.04 	0.04 	0.0291514 	3.80014 	
3.77094 	3.97141 	-0.200478 	-1.67139 	1.46735e-07 	29.2463 	0.834829 	
-1.84862e-10 	7337.73 	123.225 	141.616 	0.3493 	6.61111 	-0.252553 	3.38667e-05 	
0.000901926 	0.000601284 	1.95065e-09 	0.130043 	0.0872008 	0.0428424 	0 	0 	0 	
0.00133773 	1.39317e-08 	0.92 	0.04 	0.04 	0.0291512 	3.80014 	
3.77094 	3.97141 	-0.200479 	-3.34285 	1.29482e-07 	26.7417 	3.33936 	
-3.69732e-10 	14675.5 	246.45 	283.231 	0.3493 	13.2222 	-0.252561 	6.77333e-05 	
0.00180385 	0.00120257 	4.3766e-09 	0.291773 	0.0775538 	0.21422 	0 	0 	0 	
0.00140547 	9.29345e-09 	0.92 	0.04 	0.04 	0.029151 	3.80013 	
3.77093 	3.97141 	-0.200482 	-3.34306 	1.12229e-07 	23.4022 	6.67894 	
-3.69758e-10 	14675.5 	246.45 	283.231 	0.3493 	13.2222 	-0.252585 	6.77333e-05 	
0.00180385 	0.00120257 	1.18179e-08 	0.787859 	0.0594637 	0.728396 	0 	0 	0 	
0.0014732 	4.65441e-09 	0.92 	0.04 	0.04 	0.0291508 	3.80013 	
3.77093 	3.97141 	-0.200488 	-3.34341 	9.49733e-08 	20.0622 	10.019 	
-3.69803e-10 	14675.5 	246.45 	283.231 	0.3493 	13.2222 	-0.252627 	6.77333e-05 	
0.00180385 	0.00120257 	2.44393e-08 	1.62929 	0.0437813 	1.58551 	0 	0 	0 	
0.00154093 	1.45209e-11 	0.92 	0.04 	0.04 	0.0291507 	3.80011 	
3.77092 	3.97141 	-0.200496 	-3.34392 	7.77152e-08 	16.7215 	13.3596 	
-3.69866e-10 	14675.5 	246.45 	283.231 	0.3493 	13.2222 	-0.252687 	6.77333e-05 	
0.00180385 	0.00120257 	4.22443e-08 	2.81629 	0.0305067 	2.78578 	0 	0 	0 	
0.00160867 	-4.62677e-09 	0.92 	0.04 	0.04 	0.0291506 	3.8001 	
3.77091 	3.97141 	-0.200506 	-3.34458 	6.04538e-08 	13.3799 	16.7012 	
-3.69948e-10 	14675.5 	246.45 	283.231 	0.3493 	13.2222 	-0.252763 	6.77333e-05 	
0.00180385 	0.00120257 	6.52378e-08 	4.34919 	0.0196408 	4.32954 	0 	0 	0 	
0.0016764 	-9.27003e-09 	0.92 	0.04 	0.04 	0.0291505 	3.80008 	
3.7709 	3.97141 	-0.200518 	-3.34538 	4.31881e-08 	10.0372 	20.0439 	
-3.70049e-10 	14675.5 	246.45 	283.231 	0.3493 	13.2222 	-0.252857 	6.77333e-05 	
0.00180385 	0.00120257 	9.3426e-08 	6.2284 	0.0111851 	6.21721 	0 	0 	0 	
0.00174413 	-1.39158e-08 	0.92 	0.04 	0.04 	0.0291504 	3.80006 	
3.77088 	3.97141 	-0.200533 	-3.34634 	2.59176e-08 	6.69311 	23.388 	
-3.70168e-10 	14675.5 	246.45 	283.231 	0.3493 	13.2222 	-0.252968 	6.77333e-05 	
0.00180385 	0.00120257 	1.26817e-07 	8.45444 	0.00514152 	8.44929 	0 	0 	0 	
0.00181187 	-1.85635e-08 	0.92 	0.04 	0.04 	0.0291504 	3.80003 	
3.77086 	3.97141 	-0.20055 	-3.34744 	8.64136e-09 	3.34746 	26.7337 	
-3.70306e-10 	14675.5 	246.45 	283.231 	0.3493 	13.2222 	-0.253096 	6.77333e-05 	
0.00180385 	0.00120257 	1.65419e-07 	11.0279 	0.00151295 	11.0264 	0 	0 	0 	
0.0018796 	0 	0.92 	0.04 	0.04 	0.0291504 	3.8 	
3.77085 	3.97141 	-0.200569 	-1.67435 	8.64136e-09 	0.837106 	29.244 	
-1.85232e-10 	7337.73 	123.225 	141.616 	0.3493 	6.61111 	-0.253242 	3.38667e-05 	
0.000901926 	0.000601284 	1.86024e-07 	12.4016 	0.000302799 	12.4013 	0 	0 	0 	
ZONE T = "t = 7.75e-08 [s]" I = 10 SOLUTIONTIME = 7.7500000000000E-08
0.00127 	1.85717e-08 	0.92 	0.04 	0.04 	0.0291514 	3.80014 	
3.77099 	3.97141 	-0.200425 	-1.66966 	1.47233e-07 	29.2463 	0.834829 	
-1.22092e-10 	7337.73 	123.225 	141.616 	0.3493 	6.61111 	-0.252553 	3.38667e-05 	
0.000901926 	0.000601284 	4.87662e-09 	0.130043 	0.0872008 	0.0428424 	0 	0 	0 	
0.00133773 	1.39339e-08 	0.92 	0.04 	0.04 	0.0291512 	3.80014 	
3.77099 	3.97141 	-0.200426 	-3.33941 	1.29927e-07 	26.7417 	3.33936 	
-2.44188e-10 	14675.5 	246.45 	283.231 	0.3493 	13.2222 	-0.252561 	6.77333e-05 	
0.00180385 	0.00120257 	1.09415e-08 	0.291773 	0.0775538 	0.21422 	0 	0 	0 	
0.00140547 	9.29559e-09 	0.92 	0.04 	0.04 	0.029151 	3.80013 	
3.77098 	3.97141 	-0.200431 	-3.33974 	1.1262e-07 	23.4022 	6.67894 	
-2.44202e-10 	14675.5 	246.45 	283.231 	0.3493 	13.2222 	-0.252585 	6.77333e-05 	
0.00180385 	0.00120257 	2.95447e-08 	0.787859 	0.0594637 	0.728396 	0 	0 	0 	
0.0014732 	4.65623e-09 	0.92 	0.04 	0.04 	0.0291508 	3.80013 	
3.77097 	3.97141 	-0.20044 	-3.3403 	9.53098e-08 	20.0622 	10.019 	
-2.44226e-10 	14675.5 	246.45 	283.231 	0.3493 	13.2222 	-0.252627 	6.77333e-05 	
0.00180385 	0.00120257 	6.10983e-08 	1.62929 	0.0437813 	1.58551 	0 	0 	0 	
0.00154093 	1.60948e-11 	0.92 	0.04 	0.04 	0.0291507 	3.80011 	
3.77096 	3.97141 	-0.200452 	-3.34108 	7.79959e-08 	16.7215 	13.3596 	
-2.4426e-10 	14675.5 	246.45 	283.231 	0.3493 	13.2222 	-0.252687 	6.77333e-05 	
0.00180385 	0.00120257 	1.05611e-07 	2.81629 	0.0305067 	2.78578 	0 	0 	0 	
0.00160867 	-4.62544e-09 	0.92 	0.04 	0.04 	0.0291506 	3.8001 	
3.77095 	3.97141 	-0.200467 	-3.34209 	6.06768e-08 	13.3799 	16.7012 	
-2.44304e-10 	14675.5 	246.45 	283.231 	0.3493 	13.2222 	-0.252763 	6.77333e-05 	
0.00180385 	0.00120257 	1.63094e-07 	4.34919 	0.0196408 	4.32954 	0 	0 	0 	
0.0016764 	-9.26886e-09 	0.92 	0.04 	0.04 	0.0291505 	3.80008 	
3.77093 	3.97141 	-0.200487 	-3.34333 	4.33512e-08 	10.0372 	20.0439 	
-2.44358e-10 	14675.5 	246.45 	283.231 	0.3493 	13.2222 	-0.252857 	6.77333e-05 	
0.00180385 	0.00120257 	2.33565e-07 	6.2284 	0.0111851 	6.21721 	0 	0 	0 	
0.00174413 	-1.39142e-08 	0.92 	0.04 	0.04 	0.0291504 	3.80006 	
3.77091 	3.97141 	-0.200509 	-3.3448 	2.6018e-08 	6.69311 	23.388 	
-2.44422e-10 	14675.5 	246.45 	283.231 	0.3493 	13.2222 	-0.252968 	6.77333e-05 	
0.00180385 	0.00120257 	3.17041e-07 	8.45444 	0.00514152 	8.44929 	0 	0 	0 	
0.00181187 	-1.85615e-08 	0.92 	0.04 	0.04 	0.0291504 	3.80003 	
3.77088 	3.97141 	-0.200535 	-3.3465 	8.67647e-09 	3.34746 	26.7337 	
-2.44496e-10 	14675.5 	246.45 	283.231 	0.3493 	13.2222 	-0.253096 	6.77333e-05 	
0.00180385 	0.00120257 	4.13547e-07 	11.0279 	0.00151295 	11.0264 	0 	0 	0 	
0.0018796 	0 	0.92 	0.04 	0.04 	0.0291504 	3.8 	
3.77085 	3.97141 	-0.200565 	-1.67421 	8.67647e-09 	0.837106 	29.244 	
-1.2229e-10 	7337.73 	123.225 	141.616 	0.3493 	6.61111 	-0.253242 	3.38667e-05 	
0.000901926 	0.000601284 	4.6506e-07 	12.4016 	0.000302799 	12.4013 	0 	0 	0 	
ZONE T = "t = 1.1125e-07 [s]" I = 10 SOLUTIONTIME = 1.1125000000000E-07
0.00127 	1.85686e-08 	0.92 	0.04 	0.04 	0.0291514 	3.80014 	
3.77099 	3.97141 	-0.200425 	-1.66966 	1.47233e-07 	29.2463 	0.834829 	
-2.79373e-11 	7337.73 	123.225 	141.616 	0.3493 	6.61111 	-0.252553 	3.38667e-05 	
0.000901926 	0.000601284 	9.26558e-09 	0.130043 	0.0872008 	0.0428424 	0 	0 	0 	
0.00133773 	1.39308e-08 	0.92 	0.04 	0.04 	0.0291512 	3.80014 	
3.77099 	3.97141 	-0.200426 	-3.33941 	1.29927e-07 	26.7417 	3.33936 	
-5.58727e-11 	14675.5 	246.45 	283.231 	0.3493 	13.2222 	-0.252561 	6.77333e-05 	
0.00180385 	0.00120257 	2.07889e-08 	0.291773 	0.0775538 	0.21422 	0 	0 	0 	
0.00140547 	9.29255e-09 	0.92 	0.04 	0.04 	0.029151 	3.80013 	
3.77098 	3.97141 	-0.200431 	-3.33974 	1.1262e-07 	23.4022 	6.67894 	
-5.58681e-11 	14675.5 	246.45 	283.231 	0.3493 	13.2222 	-0.252585 	6.77333e-05 	
0.00180385 	0.00120257 	5.6135e-08 	0.787859 	0.0594637 	0.728396 	0 	0 	0 	
0.0014732 	4.65372e-09 	0.92 	0.04 	0.04 	0.0291508 	3.80013 	
3.77097 	3.97141 	-0.20044 	-3.3403 	9.53098e-08 	20.0622 	10.019 	
-5.58607e-11 	14675.5 	246.45 	283.231 	0.3493 	13.2222 	-0.252627 	6.77333e-05 	
0.00180385 	0.00120257 	1.16087e-07 	1.62929 	0.0437813 	1.58551 	0 	0 	0 	
0.00154093 	1.35927e-11 	0.92 	0.04 	0.04 	0.0291507 	3.80011 	
3.77096 	3.97141 	-0.200452 	-3.34108 	7.79959e-08 	16.7215 	13.3596 	
-5.58505e-11 	14675.5 	246.45 	283.231 	0.3493 	13.2222 	-0.252687 	6.77333e-05 	
0.00180385 	0.00120257 	2.00661e-07 	2.81629 	0.0305067 	2.78578 	0 	0 	0 	
0.00160867 	-4.62783e-09 	0.92 	0.04 	0.04 	0.0291506 	3.8001 	
3.77095 	3.97141 	-0.200467 	-3.34209 	6.06768e-08 	13.3799 	16.7012 	
-5.58375e-11 	14675.5 	246.45 	283.231 	0.3493 	13.2222 	-0.252763 	6.77333e-05 	
0.00180385 	0.00120257 	3.09879e-07 	4.34919 	0.0196408 	4.32954 	0 	0 	0 	
0.0016764 	-9.27109e-09 	0.92 	0.04 	0.04 	0.0291505 	3.80008 	
3.77093 	3.97141 	-0.200487 	-3.34333 	4.33512e-08 	10.0372 	20.0439 	
-5.58217e-11 	14675.5 	246.45 	283.231 	0.3493 	13.2222 	-0.252857 	6.77333e-05 	
0.00180385 	0.00120257 	4.43773e-07 	6.2284 	0.0111851 	6.21721 	0 	0 	0 	
0.00174413 	-1.39163e-08 	0.92 	0.04 	0.04 	0.0291504 	3.80006 	
3.77091 	3.97141 	-0.200509 	-3.3448 	2.6018e-08 	6.69311 	23.388 	
-5.58031e-11 	14675.5 	246.45 	283.231 	0.3493 	13.2222 	-0.252968 	6.77333e-05 	
0.00180385 	0.00120257 	6.02379e-07 	8.45444 	0.00514152 	8.44929 	0 	0 	0 	
0.00181187 	-1.85639e-08 	0.92 	0.04 	0.04 	0.0291504 	3.80003 	
3.77088 	3.97141 	-0.200535 	-3.3465 	8.67719e-09 	3.34746 	26.7337 	
-5.57816e-11 	14675.5 	246.45 	283.231 	0.3493 	13.2222 	-0.253096 	6.77333e-05 	
0.00180385 	0.00120257 	7.85739e-07 	11.0279 	0.00151295 	11.0264 	0 	0 	0 	
0.0018796 	0 	0.92 	0.04 	0.04 	0.0291504 	3.8 	
3.77085 	3.97141 	-0.200565 	-1.67421 	8.67719e-09 	0.837106 	29.244 	
-2.78787e-11 	7337.73 	123.225 	141.616 	0.3493 	6.61111 	-0.253242 	3.38667e-05 	
0.000901926 	0.000601284 	8.83613e-07 	12.4016 	0.000302799 	12.4013 	0 	0 	0 	
ZONE T = "t = 1.61875e-07 [s]" I = 10 SOLUTIONTIME = 1.6187500000000E-07
0.00127 	1.85698e-08 	0.92 	0.04 	0.04 	0.0291514 	3.80014 	
3.77099 	3.97141 	-0.200425 	-1.66966 	1.47233e-07 	29.2463 	0.834829 	
1.13295e-10 	7337.73 	123.225 	141.616 	0.3493 	6.61111 	-0.252553 	3.38667e-05 	
0.000901926 	0.000601284 	1.5849e-08 	0.130043 	0.0872008 	0.0428424 	0 	0 	0 	
0.00133773 	1.39319e-08 	0.92 	0.04 	0.04 	0.0291512 	3.80014 	
3.77099 	3.97141 	-0.200426 	-3.33941 	1.29927e-07 	26.7417 	3.33936 	
2.266e-10 	14675.5 	246.45 	283.231 	0.3493 	13.2222 	-0.252561 	6.77333e-05 	
0.00180385 	0.00120257 	3.55599e-08 	0.291773 	0.0775538 	0.21422 	0 	0 	0 	
0.00140547 	9.29379e-09 	0.92 	0.04 	0.04 	0.029151 	3.80013 	
3.77098 	3.97141 	-0.200431 	-3.33974 	1.1262e-07 	23.4022 	6.67894 	
2.26633e-10 	14675.5 	246.45 	283.231 	0.3493 	13.2222 	-0.252585 	6.77333e-05 	
0.00180385 	0.00120257 	9.60204e-08 	0.787859 	0.0594637 	0.728396 	0 	0 	0 	
0.0014732 	4.65475e-09 	0.92 	0.04 	0.04 	0.0291508 	3.80013 	
3.77097 	3.97141 	-0.20044 	-3.3403 	9.53098e-08 	20.0622 	10.019 	
2.26687e-10 	14675.5 	246.45 	283.231 	0.3493 	13.2222 	-0.252627 	6.77333e-05 	
0.00180385 	0.00120257 	1.98569e-07 	1.62929 	0.0437813 	1.58551 	0 	0 	0 	
0.00154093 	1.46151e-11 	0.92 	0.04 	0.04 	0.0291507 	3.80011 	
3.77096 	3.97141 	-0.200452 	-3.34108 	7.79959e-08 	16.7215 	13.3596 	
2.26763e-10 	14675.5 	246.45 	283.231 	0.3493 	13.2222 	-0.252687 	6.77333e-05 	
0.00180385 	0.00120257 	3.43235e-07 	2.81629 	0.0305067 	2.78578 	0 	0 	0 	
0.00160867 	-4.62699e-09 	0.92 	0.04 	0.04 	0.0291506 	3.8001 	
3.77095 	3.97141 	-0.200467 	-3.34209 	6.06768e-08 	13.3799 	16.7012 	
2.26862e-10 	14675.5 	246.45 	283.231 	0.3493 	13.2222 	-0.252763 	6.77333e-05 	
0.00180385 	0.00120257 	5.30057e-07 	4.34919 	0.0196408 	4.32954 	0 	0 	0 	
0.0016764 	-9.27032e-09 	0.92 	0.04 	0.04 	0.0291505 	3.80008 	
3.77093 	3.97141 	-0.200487 	-3.34333 	4.33512e-08 	10.0372 	20.0439 	
2.26983e-10 	14675.5 	246.45 	283.231 	0.3493 	13.2222 	-0.252857 	6.77333e-05 	
0.00180385 	0.00120257 	7.59086e-07 	6.2284 	0.0111851 	6.21721 	0 	0 	0 	
0.00174413 	-1.39156e-08 	0.92 	0.04 	0.04 	0.0291504 	3.80006 	
3.77091 	3.97141 	-0.200509 	-3.3448 	2.6018e-08 	6.69311 	23.388 	
2.27125e-10 	14675.5 	246.45 	283.231 	0.3493 	13.2222 	-0.252968 	6.77333e-05 	
0.00180385 	0.00120257 	1.03038e-06 	8.45444 	0.00514152 	8.44929 	0 	0 	0 	
0.00181187 	-1.85633e-08 	0.92 	0.04 	0.04 	0.0291504 	3.80003 	
3.77088 	3.97141 	-0.200535 	-3.3465 	8.67828e-09 	3.34746 	26.7337 	
2.2729e-10 	14675.5 	246.45 	283.231 	0.3493 	13.2222 	-0.253096 	6.77333e-05 	
0.00180385 	0.00120257 	1.34403e-06 	11.0279 	0.00151295 	11.0264 	0 	0 	0 	
0.0018796 	0 	0.92 	0.04 	0.04 	0.0291504 	3.8 	
3.77085 	3.97141 	-0.200565 	-1.67421 	8.67828e-09 	0.837106 	29.244 	
1.13739e-10 	7337.73 	123.225 	141.616 	0.3493 	6.61111 	-0.253242 	3.38667e-05 	
0.000901926 	0.000601284 	1.51144e-06 	12.4016 	0.000302799 	12.4013 	0 	0 	0 	
ZONE T = "t = 2.37812e-07 [s]" I = 10 SOLUTIONTIME = 2.3781250000000E-07
0.00127 	1.85695e-08 	0.92 	0.04 	0.04 	0.0291514 	3.80014 	
3.77099 	3.97141 	-0.200425 	-1.66966 	1.47234e-07 	29.2463 	0.834829 	
3.25144e-10 	7337.73 	123.225 	141.616 	0.3493 	6.61111 	-0.252553 	3.38667e-05 	
0.000901926 	0.000601284 	2.57242e-08 	0.130043 	0.0872008 	0.0428424 	0 	0 	0 	
0.00133773 	1.39318e-08 	0.92 	0.04 	0.04 	0.0291512 	3.80014 	
3.77099 	3.97141 	-0.200426 	-3.33941 	1.29927e-07 	26.7417 	3.33936 	
6.5031e-10 	14675.5 	246.45 	283.231 	0.3493 	13.2222 	-0.252561 	6.77333e-05 	
0.00180385 	0.00120257 	5.77164e-08 	0.291773 	0.0775538 	0.21422 	0 	0 	0 	
0.00140547 	9.29336e-09 	0.92 	0.04 	0.04 	0.029151 	3.80013 	
3.77098 	3.97141 	-0.200431 	-3.33974 	1.1262e-07 	23.4022 	6.67894 	
6.50384e-10 	14675.5 	246.45 	283.231 	0.3493 	13.2222 	-0.252585 	6.77333e-05 	
0.00180385 	0.00120257 	1.55848e-07 	0.787859 	0.0594637 	0.728396 	0 	0 	0 	
0.0014732 	4.65436e-09 	0.92 	0.04 	0.04 	0.0291508 	3.80013 	
3.77097 	3.97141 	-0.20044 	-3.3403 	9.53098e-08 	20.0622 	10.019 	
6.50509e-10 	14675.5 	246.45 	283.231 	0.3493 	13.2222 	-0.252627 	6.77333e-05 	
0.00180385 	0.00120257 	3.22294e-07 	1.62929 	0.0437813 	1.58551 	0 	0 	0 	
0.00154093 	1.42324e-11 	0.92 	0.04 	0.04 	0.0291507 	3.80011 	
3.77096 	3.97141 	-0.200452 	-3.34108 	7.79959e-08 	16.7215 	13.3596 	
6.50684e-10 	14675.5 	246.45 	283.231 	0.3493 	13.2222 	-0.252687 	6.77333e-05 	
0.00180385 	0.00120257 	5.57097e-07 	2.81629 	0.0305067 	2.78578 	0 	0 	0 	
0.00160867 	-4.6273e-09 	0.92 	0.04 	0.04 	0.0291506 	3.8001 	
3.77095 	3.97141 	-0.200467 	-3.34209 	6.06768e-08 	13.3799 	16.7012 	
6.50911e-10 	14675.5 	246.45 	283.231 	0.3493 	13.2222 	-0.252763 	6.77333e-05 	
0.00180385 	0.00120257 	8.60323e-07 	4.34919 	0.0196408 	4.32954 	0 	0 	0 	
0.0016764 	-9.27051e-09 	0.92 	0.04 	0.04 	0.0291505 	3.80008 	
3.77093 	3.97141 	-0.200487 	-3.34333 	4.33512e-08 	10.0372 	20.0439 	
6.51189e-10 	14675.5 	246.45 	283.231 	0.3493 	13.2222 	-0.252857 	6.77333e-05 	
0.00180385 	0.00120257 	1.23205e-06 	6.2284 	0.0111851 	6.21721 	0 	0 	0 	
0.00174413 	-1.39158e-08 	0.92 	0.04 	0.04 	0.0291504 	3.80006 	
3.77091 	3.97141 	-0.200509 	-3.3448 	2.6018e-08 	6.69311 	23.388 	
6.51518e-10 	14675.5 	246.45 	283.231 	0.3493 	13.2222 	-0.252968 	6.77333e-05 	
0.00180385 	0.00120257 	1.67239e-06 	8.45444 	0.00514152 	8.44929 	0 	0 	0 	
0.00181187 	-1.85635e-08 	0.92 	0.04 	0.04 	0.0291504 	3.80003 	
3.77088 	3.97141 	-0.200535 	-3.3465 	8.6799e-09 	3.34746 	26.7337 	
6.51899e-10 	14675.5 	246.45 	283.231 	0.3493 	13.2222 	-0.253096 	6.77333e-05 	
0.00180385 	0.00120257 	2.18146e-06 	11.0279 	0.00151295 	11.0264 	0 	0 	0 	
0.0018796 	0 	0.92 	0.04 	0.04 	0.0291504 	3.8 	
3.77085 	3.97141 	-0.200565 	-1.67421 	8.6799e-09 	0.837106 	29.244 	
3.26165e-10 	7337.73 	123.225 	141.616 	0.3493 	6.61111 	-0.253242 	3.38667e-05 	
0.000901926 	0.000601284 	2.45319e-06 	12.4016 	0.000302799 	12.4013 	0 	0 	0 	
ZONE T = "t = 3.51719e-07 [s]" I = 10 SOLUTIONTIME = 3.5171875000000E-07
0.00127 	1.85696e-08 	0.92 	0.04 	0.04 	0.0291514 	3.80014 	
3.77099 	3.97141 	-0.200425 	-1.66966 	1.47235e-07 	29.2463 	0.834829 	
6.42916e-10 	7337.73 	123.225 	141.616 	0.3493 	6.61111 	-0.252553 	3.38667e-05 	
0.000901926 	0.000601284 	4.05369e-08 	0.130043 	0.0872008 	0.0428424 	0 	0 	0 	
0.00133773 	1.39318e-08 	0.92 	0.04 	0.04 	0.0291512 	3.80014 	
3.77099 	3.97141 	-0.200426 	-3.33941 	1.29927e-07 	26.7417 	3.33936 	
1.28587e-09 	14675.5 	246.45 	283.231 	0.3493 	13.2222 	-0.252561 	6.77333e-05 	
0.00180385 	0.00120257 	9.09512e-08 	0.291773 	0.0775538 	0.21422 	0 	0 	0 	
0.00140547 	9.29349e-09 	0.92 	0.04 	0.04 	0.029151 	3.80013 	
3.77098 	3.97141 	-0.200431 	-3.33974 	1.1262e-07 	23.4022 	6.67894 	
1.28601e-09 	14675.5 	246.45 	283.231 	0.3493 	13.2222 	-0.252585 	6.77333e-05 	
0.00180385 	0.00120257 	2.45591e-07 	0.787859 	0.0594637 	0.728396 	0 	0 	0 	
0.0014732 	4.65436e-09 	0.92 	0.04 	0.04 	0.0291508 	3.80013 	
3.77097 	3.97141 	-0.20044 	-3.3403 	9.53098e-08 	20.0622 	10.019 	
1.28624e-09 	14675.5 	246.45 	283.231 	0.3493 	13.2222 	-0.252627 	6.77333e-05 	
0.00180385 	0.00120257 	5.0788e-07 	1.62929 	0.0437813 	1.58551 	0 	0 	0 	
0.00154093 	1.42245e-11 	0.92 	0.04 	0.04 	0.0291507 	3.80011 	
3.77096 	3.97141 	-0.200452 	-3.34108 	7.79959e-08 	16.7215 	13.3596 	
1.28657e-09 	14675.5 	246.45 	283.231 	0.3493 	13.2222 	-0.252687 	6.77333e-05 	
0.00180385 	0.00120257 	8.7789e-07 	2.81629 	0.0305067 	2.78578 	0 	0 	0 	
0.00160867 	-4.62734e-09 	0.92 	0.04 	0.04 	0.0291506 	3.8001 	
3.77095 	3.97141 	-0.200467 	-3.34209 	6.06768e-08 	13.3799 	16.7012 	
1.28698e-09 	14675.5 	246.45 	283.231 	0.3493 	13.2222 	-0.252763 	6.77333e-05 	
0.00180385 	0.00120257 	1.35572e-06 	4.34919 	0.0196408 	4.32954 	0 	0 	0 	
0.0016764 	-9.2706e-09 	0.92 	0.04 	0.04 	0.0291505 	3.80008 	
3.77093 	3.97141 	-0.200487 	-3.34333 	4.33512e-08 	10.0372 	20.0439 	
1.2875e-09 	14675.5 	246.45 	283.231 	0.3493 	13.2222 	-0.252857 	6.77333e-05 	
0.00180385 	0.00120257 	1.94151e-06 	6.2284 	0.0111851 	6.21721 	0 	0 	0 	
0.00174413 	-1.39159e-08 	0.92 	0.04 	0.04 	0.0291504 	3.80006 	
3.77091 	3.97141 	-0.200509 	-3.3448 	2.6018e-08 	6.69311 	23.388 	
1.28811e-09 	14675.5 	246.45 	283.231 	0.3493 	13.2222 	-0.252968 	6.77333e-05 	
0.00180385 	0.00120257 	2.63541e-06 	8.45444 	0.00514152 	8.44929 	0 	0 	0 	
0.00181187 	-1.85636e-08 	0.92 	0.04 	0.04 	0.0291504 	3.80003 	
3.77088 	3.97141 	-0.200535 	-3.3465 	8.68234e-09 	3.34746 	26.7337 	
1.28881e-09 	14675.5 	246.45 	283.231 	0.3493 	13.2222 	-0.253096 	6.77333e-05 	
0.00180385 	0.00120257 	3.43761e-06 	11.0279 	0.00151295 	11.0264 	0 	0 	0 	
0.0018796 	0 	0.92 	0.04 	0.04 	0.0291504 	3.8 	
3.77085 	3.97141 	-0.200565 	-1.67421 	8.68234e-09 	0.837106 	29.244 	
6.44805e-10 	7337.73 	123.225 	141.616 	0.3493 	6.61111 	-0.253242 	3.38667e-05 	
0.000901926 	0.000601284 	3.86581e-06 	12.4016 	0.000302799 	12.4013 	0 	0 	0 	
ZONE T = "t = 5.22578e-07 [s]" I = 10 SOLUTIONTIME = 5.2257812500000E-07
0.00127 	1.85695e-08 	0.92 	0.04 	0.04 	0.0291514 	3.80014 	
3.77099 	3.97141 	-0.200425 	-1.66966 	1.47236e-07 	29.2463 	0.834829 	
1.11958e-09 	7337.73 	123.225 	141.616 	0.3493 	6.61111 	-0.252553 	3.38667e-05 	
0.000901926 	0.000601284 	6.2756e-08 	0.130043 	0.0872008 	0.0428424 	0 	0 	0 	
0.00133773 	1.39317e-08 	0.92 	0.04 	0.04 	0.0291512 	3.80014 	
3.77099 	3.97141 	-0.200426 	-3.33941 	1.29927e-07 	26.7417 	3.33936 	
2.23922e-09 	14675.5 	246.45 	283.231 	0.3493 	13.2222 	-0.252561 	6.77333e-05 	
0.00180385 	0.00120257 	1.40803e-07 	0.291773 	0.0775538 	0.21422 	0 	0 	0 	
0.00140547 	9.2934e-09 	0.92 	0.04 	0.04 	0.029151 	3.80013 	
3.77098 	3.97141 	-0.200431 	-3.33974 	1.1262e-07 	23.4022 	6.67894 	
2.23945e-09 	14675.5 	246.45 	283.231 	0.3493 	13.2222 	-0.252585 	6.77333e-05 	
0.00180385 	0.00120257 	3.80204e-07 	0.787859 	0.0594637 	0.728396 	0 	0 	0 	
0.0014732 	4.6544e-09 	0.92 	0.04 	0.04 	0.0291508 	3.80013 	
3.77097 	3.97141 	-0.20044 	-3.3403 	9.53098e-08 	20.0622 	10.019 	
2.23984e-09 	14675.5 	246.45 	283.231 	0.3493 	13.2222 	-0.252627 	6.77333e-05 	
0.00180385 	0.00120257 	7.86259e-07 	1.62929 	0.0437813 	1.58551 	0 	0 	0 	
0.00154093 	1.4251e-11 	0.92 	0.04 	0.04 	0.0291507 	3.80011 	
3.77096 	3.97141 	-0.200452 	-3.34108 	7.79959e-08 	16.7215 	13.3596 	
2.24039e-09 	14675.5 	246.45 	283.231 	0.3493 	13.2222 	-0.252687 	6.77333e-05 	
0.00180385 	0.00120257 	1.35908e-06 	2.81629 	0.0305067 	2.78578 	0 	0 	0 	
0.00160867 	-4.62726e-09 	0.92 	0.04 	0.04 	0.0291506 	3.8001 	
3.77095 	3.97141 	-0.200467 	-3.34209 	6.06768e-08 	13.3799 	16.7012 	
2.2411e-09 	14675.5 	246.45 	283.231 	0.3493 	13.2222 	-0.252763 	6.77333e-05 	
0.00180385 	0.00120257 	2.09882e-06 	4.34919 	0.0196408 	4.32954 	0 	0 	0 	
0.0016764 	-9.27052e-09 	0.92 	0.04 	0.04 	0.0291505 	3.80008 	
3.77093 	3.97141 	-0.200487 	-3.34333 	4.33512e-08 	10.0372 	20.0439 	
2.24196e-09 	14675.5 	246.45 	283.231 	0.3493 	13.2222 	-0.252857 	6.77333e-05 	
0.00180385 	0.00120257 	3.00569e-06 	6.2284 	0.0111851 	6.21721 	0 	0 	0 	
0.00174413 	-1.39158e-08 	0.92 	0.04 	0.04 	0.0291504 	3.80006 	
3.77091 	3.97141 	-0.200509 	-3.3448 	2.6018e-08 	6.69311 	23.388 	
2.24299e-09 	14675.5 	246.45 	283.231 	0.3493 	13.2222 	-0.252968 	6.77333e-05 	
0.00180385 	0.00120257 	4.07993e-06 	8.45444 	0.00514152 	8.44929 	0 	0 	0 	
0.00181187 	-1.85634e-08 	0.92 	0.04 	0.04 	0.0291504 	3.80003 	
3.77088 	3.97141 	-0.200535 	-3.3465 	8.686e-09 	3.34746 	26.7337 	
2.24418e-09 	14675.5 	246.45 	283.231 	0.3493 	13.2222 	-0.253096 	6.77333e-05 	
0.00180385 	0.00120257 	5.32183e-06 	11.0279 	0.00151295 	11.0264 	0 	0 	0 	
0.0018796 	0 	0.92 	0.04 	0.04 	0.0291504 	3.8 	
3.77085 	3.97141 	-0.200565 	-1.67421 	8.686e-09 	0.837106 	29.244 	
1.12276e-09 	7337.73 	123.225 	141.616 	0.3493 	6.61111 	-0.253242 	3.38667e-05 	
0.000901926 	0.000601284 	5.98474e-06 	12.4016 	0.000302799 	12.4013 	0 	0 	0 	
ZONE T = "t = 7.78867e-07 [s]" I = 10 SOLUTIONTIME = 7.7886718750000E-07
0.00127 	1.85698e-08 	0.92 	0.04 	0.04 	0.0291514 	3.80014 	
3.77099 	3.97141 	-0.200425 	-1.66966 	1.47238e-07 	29.2463 	0.834829 	
1.83456e-09 	7337.73 	123.225 	141.616 	0.3493 	6.61111 	-0.252553 	3.38667e-05 	
0.000901926 	0.000601284 	9.60847e-08 	0.130043 	0.0872008 	0.0428424 	0 	0 	0 	
0.00133773 	1.3932e-08 	0.92 	0.04 	0.04 	0.0291512 	3.80014 	
3.77099 	3.97141 	-0.200426 	-3.33941 	1.29927e-07 	26.7417 	3.33936 	
3.66924e-09 	14675.5 	246.45 	283.231 	0.3493 	13.2222 	-0.252561 	6.77333e-05 	
0.00180385 	0.00120257 	2.15582e-07 	0.291773 	0.0775538 	0.21422 	0 	0 	0 	
0.00140547 	9.29375e-09 	0.92 	0.04 	0.04 	0.029151 	3.80013 	
3.77098 	3.97141 	-0.200431 	-3.33974 	1.1262e-07 	23.4022 	6.67894 	
3.66961e-09 	14675.5 	246.45 	283.231 	0.3493 	13.2222 	-0.252585 	6.77333e-05 	
0.00180385 	0.00120257 	5.82123e-07 	0.787859 	0.0594637 	0.728396 	0 	0 	0 	
0.0014732 	4.65471e-09 	0.92 	0.04 	0.04 	0.0291508 	3.80013 	
3.77097 	3.97141 	-0.20044 	-3.3403 	9.53098e-08 	20.0622 	10.019 	
3.67024e-09 	14675.5 	246.45 	283.231 	0.3493 	13.2222 	-0.252627 	6.77333e-05 	
0.00180385 	0.00120257 	1.20383e-06 	1.62929 	0.0437813 	1.58551 	0 	0 	0 	
0.00154093 	1.45912e-11 	0.92 	0.04 	0.04 	0.0291507 	3.80011 	
3.77096 	3.97141 	-0.200452 	-3.34108 	7.79959e-08 	16.7215 	13.3596 	
3.67112e-09 	14675.5 	246.45 	283.231 	0.3493 	13.2222 	-0.252687 	6.77333e-05 	
0.00180385 	0.00120257 	2.08086e-06 	2.81629 	0.0305067 	2.78578 	0 	0 	0 	
0.00160867 	-4.62694e-09 	0.92 	0.04 	0.04 	0.0291506 	3.8001 	
3.77095 	3.97141 	-0.200467 	-3.34209 	6.06768e-08 	13.3799 	16.7012 	
3.67226e-09 	14675.5 	246.45 	283.231 	0.3493 	13.2222 	-0.252763 	6.77333e-05 	
0.00180385 	0.00120257 	3.21347e-06 	4.34919 	0.0196408 	4.32954 	0 	0 	0 	
0.0016764 	-9.27021e-09 	0.92 	0.04 	0.04 	0.0291505 	3.80008 	
3.77093 	3.97141 	-0.200487 	-3.34333 	4.33512e-08 	10.0372 	20.0439 	
3.67366e-09 	14675.5 	246.45 	283.231 	0.3493 	13.2222 	-0.252857 	6.77333e-05 	
0.00180385 	0.00120257 	4.60196e-06 	6.2284 	0.0111851 	6.21721 	0 	0 	0 	
0.00174413 	-1.39155e-08 	0.92 	0.04 	0.04 	0.0291504 	3.80006 	
3.77091 	3.97141 	-0.200509 	-3.3448 	2.6018e-08 	6.69311 	23.388 	
3.67532e-09 	14675.5 	246.45 	283.231 	0.3493 	13.2222 	-0.252968 	6.77333e-05 	
0.00180385 	0.00120257 	6.24671e-06 	8.45444 	0.00514152 	8.44929 	0 	0 	0 	
0.00181187 	-1.85632e-08 	0.92 	0.04 	0.04 	0.0291504 	3.80003 	
3.77088 	3.97141 	-0.200535 	-3.3465 	8.69148e-09 	3.34746 	26.7337 	
3.67723e-09 	14675.5 	246.45 	283.231 	0.3493 	13.2222 	-0.253096 	6.77333e-05 	
0.00180385 	0.00120257 	8.14816e-06 	11.0279 	0.00151295 	11.0264 	0 	0 	0 	
0.0018796 	0 	0.92 	0.04 	0.04 	0.0291504 	3.8 	
3.77085 	3.97141 	-0.200565 	-1.67421 	8.69148e-09 	0.837106 	29.244 	
1.8397e-09 	7337.73 	123.225 	141.616 	0.3493 	6.61111 	-0.253242 	3.38667e-05 	
0.000901926 	0.000601284 	9.16313e-06 	12.4016 	0.000302799 	12.4013 	0 	0 	0 	
ZONE T = "t = 1.1633e-06 [s]" I = 10 SOLUTIONTIME = 1.1633007812500E-06
0.00127 	1.85696e-08 	0.92 	0.04 	0.04 	0.0291514 	3.80014 	
3.77099 	3.97141 	-0.200425 	-1.66966 	1.47242e-07 	29.2463 	0.834829 	
2.90705e-09 	7337.73 	123.225 	141.616 	0.3493 	6.61111 	-0.252553 	3.38667e-05 	
0.000901926 	0.000601284 	1.46078e-07 	0.130043 	0.0872008 	0.0428424 	0 	0 	0 	
0.00133773 	1.39318e-08 	0.92 	0.04 	0.04 	0.0291512 	3.80014 	
3.77099 	3.97141 	-0.200426 	-3.33941 	1.29927e-07 	26.7417 	3.33936 	
5.81427e-09 	14675.5 	246.45 	283.231 	0.3493 	13.2222 	-0.252561 	6.77333e-05 	
0.00180385 	0.00120257 	3.27749e-07 	0.291773 	0.0775538 	0.21422 	0 	0 	0 	
0.00140547 	9.29354e-09 	0.92 	0.04 	0.04 	0.029151 	3.80013 	
3.77098 	3.97141 	-0.200431 	-3.33974 	1.1262e-07 	23.4022 	6.67894 	
5.81485e-09 	14675.5 	246.45 	283.231 	0.3493 	13.2222 	-0.252585 	6.77333e-05 	
0.00180385 	0.00120257 	8.85003e-07 	0.787859 	0.0594637 	0.728396 	0 	0 	0 	
0.0014732 	4.65449e-09 	0.92 	0.04 	0.04 	0.0291508 	3.80013 	
3.77097 	3.97141 	-0.20044 	-3.3403 	9.53098e-08 	20.0622 	10.019 	
5.81583e-09 	14675.5 	246.45 	283.231 	0.3493 	13.2222 	-0.252627 	6.77333e-05 	
0.00180385 	0.00120257 	1.83018e-06 	1.62929 	0.0437813 	1.58551 	0 	0 	0 	
0.00154093 	1.43526e-11 	0.92 	0.04 	0.04 	0.0291507 	3.80011 	
3.77096 	3.97141 	-0.200452 	-3.34108 	7.79959e-08 	16.7215 	13.3596 	
5.81722e-09 	14675.5 	246.45 	283.231 	0.3493 	13.2222 	-0.252687 	6.77333e-05 	
0.00180385 	0.00120257 	3.16354e-06 	2.81629 	0.0305067 	2.78578 	0 	0 	0 	
0.00160867 	-4.62718e-09 	0.92 	0.04 	0.04 	0.0291506 	3.8001 	
3.77095 	3.97141 	-0.200467 	-3.34209 	6.06768e-08 	13.3799 	16.7012 	
5.81901e-09 	14675.5 	246.45 	283.231 	0.3493 	13.2222 	-0.252763 	6.77333e-05 	
0.00180385 	0.00120257 	4.88544e-06 	4.34919 	0.0196408 	4.32954 	0 	0 	0 	
0.0016764 	-9.27043e-09 	0.92 	0.04 	0.04 	0.0291505 	3.80008 	
3.77093 	3.97141 	-0.200487 	-3.34333 	4.33512e-08 	10.0372 	20.0439 	
5.82121e-09 	14675.5 	246.45 	283.231 	0.3493 	13.2222 	-0.252857 	6.77333e-05 	
0.00180385 	0.00120257 	6.99636e-06 	6.2284 	0.0111851 	6.21721 	0 	0 	0 	
0.00174413 	-1.39157e-08 	0.92 	0.04 	0.04 	0.0291504 	3.80006 	
3.77091 	3.97141 	-0.200509 	-3.3448 	2.6018e-08 	6.69311 	23.388 	
5.82381e-09 	14675.5 	246.45 	283.231 	0.3493 	13.2222 	-0.252968 	6.77333e-05 	
0.00180385 	0.00120257 	9.49687e-06 	8.45444 	0.00514152 	8.44929 	0 	0 	0 	
0.00181187 	-1.85634e-08 	0.92 	0.04 	0.04 	0.0291504 	3.80003 	
3.77088 	3.97141 	-0.200535 	-3.3465 	8.6997e-09 	3.34746 	26.7337 	
5.82681e-09 	14675.5 	246.45 	283.231 	0.3493 	13.2222 	-0.253096 	6.77333e-05 	
0.00180385 	0.00120257 	1.23877e-05 	11.0279 	0.00151295 	11.0264 	0 	0 	0 	
0.0018796 	0 	0.92 	0.04 	0.04 	0.0291504 	3.8 	
3.77085 	3.97141 	-0.200565 	-1.67421 	8.6997e-09 	0.837106 	29.244 	
2.91511e-09 	7337.73 	123.225 	141.616 	0.3493 	6.61111 	-0.253242 	3.38667e-05 	
0.000901926 	0.000601284 	1.39307e-05 	12.4016 	0.000302799 	12.4013 	0 	0 	0 	