TITLE = "Solution on Domain BulkDomain1D_2"
VARIABLES = "x [m]"  
"Vel_axial(0)" 	"MF_sp(ECDMC)" 	"MF_sp(Li+)" 	"MF_sp(PF6-)" 	"Volt(Electroly)" 	"Volt(CathodeVo)" 	
"Potential Drop Electrode-Electrolyte [V]" 	"Surf_0 Equilibrium Potential Drop Electrode-Electrolyte [V]" 	"Overpotential_0 [V]" 	"Current Source [A/m^2]" 	"Li+ flux [kmol/m^2/s]" 	"Electrolyte Current [A/m^2]" 	"Electrode Current [A/m^2]" 	
"Capacity discharged [A-s]" 	"Depth of discharge [-]" 	"Capacity remaining [A-s]" 	"Initial capacity [A-s]" 	"Porosity []" 	"Surface Area [m2/m2] (area per area)" 	"Specific current (per particle area) [A/m^2]" 	"Control volume thickness [m]" 	
"Moles LiCoO2 [mol/m^2] (per electrode area)" 	"Moles CoO2 [mol/m^2] (per electrode area)" 	"qHeat_accum [J/m3]" 	"qHeat_step [W/m3]" 	"Joule_Lyte [W/m3]" 	"Joule_Solid [W/m3]" 	"electrodHeat [W/m3]" 	"OverpotHeat [W/m3]" 	"deltaSHeat [W/m3]" 	

ZONE T = "t = 4e-08 [s]" I = 10 SOLUTIONTIME = 4.0000000000000E-08
0.00127 	1.97216e-08 	0.92 	0.04 	0.04 	0.0291555 	3.80009 	
0 	0 	0 	0 	0 	29.1512 	0.43818 	
0 	0 	0 	0 	0.3493 	6.61111 	-0.252816 	3.38667e-05 	
0.000901926 	0.000601284 	0 	0.0 	 0.0 	 0.0 	 0.0 	 0.0 	 0.0 	 
0.00133773 	1.74028e-08 	0.92 	0.04 	0.04 	0.0291553 	3.80009 	
0 	0 	0 	0 	0 	26.6509 	1.75274 	
0 	0 	0 	0 	0.3493 	13.2222 	-0.25282 	6.77333e-05 	
0.00180385 	0.00120257 	0 	0.0 	 0.0 	 0.0 	 0.0 	 0.0 	 0.0 	 
0.00140547 	1.50839e-08 	0.92 	0.04 	0.04 	0.0291551 	3.80009 	
0 	0 	0 	0 	0 	23.3216 	3.50554 	
0 	0 	0 	0 	0.3493 	13.2222 	-0.252836 	6.77333e-05 	
0.00180385 	0.00120257 	0 	0.0 	 0.0 	 0.0 	 0.0 	 0.0 	 0.0 	 
0.0014732 	1.27647e-08 	0.92 	0.04 	0.04 	0.029155 	3.80008 	
0 	0 	0 	0 	0 	19.992 	5.2585 	
0 	0 	0 	0 	0.3493 	13.2222 	-0.252863 	6.77333e-05 	
0.00180385 	0.00120257 	0 	0.0 	 0.0 	 0.0 	 0.0 	 0.0 	 0.0 	 
0.00154093 	1.04452e-08 	0.92 	0.04 	0.04 	0.0291549 	3.80007 	
0 	0 	0 	0 	0 	16.6619 	7.01168 	
0 	0 	0 	0 	0.3493 	13.2222 	-0.252901 	6.77333e-05 	
0.00180385 	0.00120257 	0 	0.0 	 0.0 	 0.0 	 0.0 	 0.0 	 0.0 	 
0.00160867 	8.12518e-09 	0.92 	0.04 	0.04 	0.0291547 	3.80006 	
0 	0 	0 	0 	0 	13.3313 	8.76517 	
0 	0 	0 	0 	0.3493 	13.2222 	-0.252951 	6.77333e-05 	
0.00180385 	0.00120257 	0 	0.0 	 0.0 	 0.0 	 0.0 	 0.0 	 0.0 	 
0.0016764 	5.80462e-09 	0.92 	0.04 	0.04 	0.0291547 	3.80005 	
0 	0 	0 	0 	0 	9.99992 	10.519 	
0 	0 	0 	0 	0.3493 	13.2222 	-0.253012 	6.77333e-05 	
0.00180385 	0.00120257 	0 	0.0 	 0.0 	 0.0 	 0.0 	 0.0 	 0.0 	 
0.00174413 	3.48341e-09 	0.92 	0.04 	0.04 	0.0291546 	3.80004 	
0 	0 	0 	0 	0 	6.66769 	12.2734 	
0 	0 	0 	0 	0.3493 	13.2222 	-0.253084 	6.77333e-05 	
0.00180385 	0.00120257 	0 	0.0 	 0.0 	 0.0 	 0.0 	 0.0 	 0.0 	 
0.00181187 	1.16143e-09 	0.92 	0.04 	0.04 	0.0291546 	3.80002 	
0 	0 	0 	0 	0 	3.33443 	14.0282 	
0 	0 	0 	0 	0.3493 	13.2222 	-0.253168 	6.77333e-05 	
0.00180385 	0.00120257 	0 	0.0 	 0.0 	 0.0 	 0.0 	 0.0 	 0.0 	 
0.0018796 	0 	0.92 	0.04 	0.04 	0.0291545 	3.8 	
0 	0 	0 	0 	0 	0.833764 	15.743 	
0 	0 	0 	0 	0.3493 	6.61111 	-0.253262 	3.38667e-05 	
0.000901926 	0.000601284 	0 	0.0 	 0.0 	 0.0 	 0.0 	 0.0 	 0.0 	 
ZONE T = "t = 5.5e-08 [s]" I = 10 SOLUTIONTIME = 5.5000000000000E-08
0.00127 	1.85641e-08 	0.92 	0.04 	0.04 	0.0291555 	3.80017 	
3.77094 	3.97141 	-0.200478 	-1.67139 	1.46735e-07 	29.2361 	0.834348 	
-1.84862e-10 	7337.73 	123.225 	141.616 	0.3493 	6.61111 	-0.252408 	3.38667e-05 	
0.000901926 	0.000601284 	2.10286e-09 	0.140191 	0.0871411 	0.0530497 	0 	0 	0 	
0.00133773 	1.39289e-08 	0.92 	0.04 	0.04 	0.0291553 	3.80017 	
3.77094 	3.97141 	-0.200479 	-3.34285 	1.29482e-07 	26.733 	3.33746 	
-3.69732e-10 	14675.5 	246.45 	283.231 	0.3493 	13.2222 	-0.252417 	6.77333e-05 	
0.00180385 	0.00120257 	5.14145e-09 	0.342763 	0.0775027 	0.265261 	0 	0 	0 	
0.00140547 	9.29312e-09 	0.92 	0.04 	0.04 	0.0291551 	3.80017 	
3.77093 	3.97141 	-0.200482 	-3.34306 	1.12229e-07 	23.3952 	6.67518 	
-3.69758e-10 	14675.5 	246.45 	283.231 	0.3493 	13.2222 	-0.252448 	6.77333e-05 	
0.00180385 	0.00120257 	1.44209e-08 	0.96139 	0.0594283 	0.901962 	0 	0 	0 	
0.0014732 	4.65641e-09 	0.92 	0.04 	0.04 	0.0291549 	3.80016 	
3.77093 	3.97141 	-0.200488 	-3.34341 	9.49733e-08 	20.057 	10.0134 	
-3.69803e-10 	14675.5 	246.45 	283.231 	0.3493 	13.2222 	-0.2525 	6.77333e-05 	
0.00180385 	0.00120257 	3.01068e-08 	2.00712 	0.0437585 	1.96336 	0 	0 	0 	
0.00154093 	1.85874e-11 	0.92 	0.04 	0.04 	0.0291548 	3.80014 	
3.77092 	3.97141 	-0.200496 	-3.34392 	7.77152e-08 	16.7179 	13.3526 	
-3.69866e-10 	14675.5 	246.45 	283.231 	0.3493 	13.2222 	-0.252574 	6.77333e-05 	
0.00180385 	0.00120257 	5.22047e-08 	3.48031 	0.0304934 	3.44982 	0 	0 	0 	
0.00160867 	-4.62097e-09 	0.92 	0.04 	0.04 	0.0291547 	3.80012 	
3.77091 	3.97141 	-0.200506 	-3.34458 	6.04538e-08 	13.3776 	16.6928 	
-3.69948e-10 	14675.5 	246.45 	283.231 	0.3493 	13.2222 	-0.252669 	6.77333e-05 	
0.00180385 	0.00120257 	8.07219e-08 	5.38146 	0.0196342 	5.36182 	0 	0 	0 	
0.0016764 	-9.26291e-09 	0.92 	0.04 	0.04 	0.0291546 	3.8001 	
3.7709 	3.97141 	-0.200518 	-3.34538 	4.31881e-08 	10.036 	20.0344 	
-3.70049e-10 	14675.5 	246.45 	283.231 	0.3493 	13.2222 	-0.252785 	6.77333e-05 	
0.00180385 	0.00120257 	1.15668e-07 	7.7112 	0.0111824 	7.70002 	0 	0 	0 	
0.00174413 	-1.39081e-08 	0.92 	0.04 	0.04 	0.0291545 	3.80007 	
3.77088 	3.97141 	-0.200533 	-3.34634 	2.59176e-08 	6.69275 	23.3777 	
-3.70168e-10 	14675.5 	246.45 	283.231 	0.3493 	13.2222 	-0.252922 	6.77333e-05 	
0.00180385 	0.00120257 	1.57055e-07 	10.4703 	0.00514089 	10.4652 	0 	0 	0 	
0.00181187 	-1.85555e-08 	0.92 	0.04 	0.04 	0.0291545 	3.80004 	
3.77086 	3.97141 	-0.20055 	-3.34744 	8.64136e-09 	3.3475 	26.7229 	
-3.70306e-10 	14675.5 	246.45 	283.231 	0.3493 	13.2222 	-0.253082 	6.77333e-05 	
0.00180385 	0.00120257 	2.04897e-07 	13.6598 	0.00151294 	13.6583 	0 	0 	0 	
0.0018796 	0 	0.92 	0.04 	0.04 	0.0291545 	3.8 	
3.77085 	3.97141 	-0.200569 	-1.67435 	8.64136e-09 	0.837173 	29.2332 	
-1.85232e-10 	7337.73 	123.225 	141.616 	0.3493 	6.61111 	-0.253262 	3.38667e-05 	
0.000901926 	0.000601284 	2.30433e-07 	15.3622 	0.000302847 	15.3619 	0 	0 	0 	
ZONE T = "t = 7.42658e-08 [s]" I = 10 SOLUTIONTIME = 7.4265793583138E-08
0.00127 	1.85642e-08 	0.92 	0.04 	0.04 	0.0291555 	3.80017 	
3.77102 	3.97141 	-0.200395 	-1.6687 	1.47182e-07 	29.2361 	0.834348 	
-1.22128e-10 	7337.73 	123.225 	141.616 	0.3493 	6.61111 	-0.252408 	3.38667e-05 	
0.000901926 	0.000601284 	4.80375e-09 	0.140191 	0.0871411 	0.0530497 	0 	0 	0 	
0.00133773 	1.39292e-08 	0.92 	0.04 	0.04 	0.0291553 	3.80017 	
3.77102 	3.97141 	-0.200397 	-3.33752 	1.29886e-07 	26.733 	3.33746 	
-2.44259e-10 	14675.5 	246.45 	283.231 	0.3493 	13.2222 	-0.252417 	6.77333e-05 	
0.00180385 	0.00120257 	1.17451e-08 	0.342763 	0.0775027 	0.265261 	0 	0 	0 	
0.00140547 	9.29329e-09 	0.92 	0.04 	0.04 	0.0291551 	3.80017 	
3.77101 	3.97141 	-0.200403 	-3.33793 	1.12588e-07 	23.3952 	6.67518 	
-2.4427e-10 	14675.5 	246.45 	283.231 	0.3493 	13.2222 	-0.252448 	6.77333e-05 	
0.00180385 	0.00120257 	3.29428e-08 	0.96139 	0.0594283 	0.901962 	0 	0 	0 	
0.0014732 	4.65658e-09 	0.92 	0.04 	0.04 	0.0291549 	3.80016 	
3.771 	3.97141 	-0.200414 	-3.33862 	9.52873e-08 	20.057 	10.0134 	
-2.44289e-10 	14675.5 	246.45 	283.231 	0.3493 	13.2222 	-0.2525 	6.77333e-05 	
0.00180385 	0.00120257 	6.87756e-08 	2.00712 	0.0437585 	1.96336 	0 	0 	0 	
0.00154093 	1.85208e-11 	0.92 	0.04 	0.04 	0.0291548 	3.80014 	
3.77099 	3.97141 	-0.200429 	-3.33959 	7.79811e-08 	16.7179 	13.3526 	
-2.44316e-10 	14675.5 	246.45 	283.231 	0.3493 	13.2222 	-0.252574 	6.77333e-05 	
0.00180385 	0.00120257 	1.19256e-07 	3.48031 	0.0304934 	3.44982 	0 	0 	0 	
0.00160867 	-4.62128e-09 	0.92 	0.04 	0.04 	0.0291547 	3.80012 	
3.77097 	3.97141 	-0.200448 	-3.34084 	6.06684e-08 	13.3776 	16.6928 	
-2.44351e-10 	14675.5 	246.45 	283.231 	0.3493 	13.2222 	-0.252669 	6.77333e-05 	
0.00180385 	0.00120257 	1.844e-07 	5.38146 	0.0196342 	5.36182 	0 	0 	0 	
0.0016764 	-9.26322e-09 	0.92 	0.04 	0.04 	0.0291546 	3.8001 	
3.77094 	3.97141 	-0.200472 	-3.34238 	4.33478e-08 	10.036 	20.0344 	
-2.44394e-10 	14675.5 	246.45 	283.231 	0.3493 	13.2222 	-0.252785 	6.77333e-05 	
0.00180385 	0.00120257 	2.6423e-07 	7.7112 	0.0111824 	7.70002 	0 	0 	0 	
0.00174413 	-1.39073e-08 	0.92 	0.04 	0.04 	0.0291545 	3.80007 	
3.77091 	3.97141 	-0.2005 	-3.3442 	2.60177e-08 	6.69275 	23.3777 	
-2.44445e-10 	14675.5 	246.45 	283.231 	0.3493 	13.2222 	-0.252922 	6.77333e-05 	
0.00180385 	0.00120257 	3.58774e-07 	10.4703 	0.00514089 	10.4652 	0 	0 	0 	
0.00181187 	-1.85547e-08 	0.92 	0.04 	0.04 	0.0291545 	3.80004 	
3.77088 	3.97141 	-0.200532 	-3.3463 	8.67716e-09 	3.3475 	26.7229 	
-2.44504e-10 	14675.5 	246.45 	283.231 	0.3493 	13.2222 	-0.253082 	6.77333e-05 	
0.00180385 	0.00120257 	4.68063e-07 	13.6598 	0.00151294 	13.6583 	0 	0 	0 	
0.0018796 	0 	0.92 	0.04 	0.04 	0.0291545 	3.8 	
3.77085 	3.97141 	-0.200569 	-1.67435 	8.67716e-09 	0.837173 	29.2332 	
-1.22285e-10 	7337.73 	123.225 	141.616 	0.3493 	6.61111 	-0.253262 	3.38667e-05 	
0.000901926 	0.000601284 	5.26398e-07 	15.3622 	0.000302847 	15.3619 	0 	0 	0 	
ZONE T = "t = 1.03164e-07 [s]" I = 10 SOLUTIONTIME = 1.0316448395784E-07
0.00127 	1.85636e-08 	0.92 	0.04 	0.04 	0.0291555 	3.80017 	
3.77102 	3.97141 	-0.200395 	-1.6687 	1.47183e-07 	29.2361 	0.834348 	
-4.15539e-11 	7337.73 	123.225 	141.616 	0.3493 	6.61111 	-0.252408 	3.38667e-05 	
0.000901926 	0.000601284 	8.85508e-09 	0.140191 	0.0871411 	0.0530497 	0 	0 	0 	
0.00133773 	1.39283e-08 	0.92 	0.04 	0.04 	0.0291553 	3.80017 	
3.77102 	3.97141 	-0.200397 	-3.33752 	1.29886e-07 	26.733 	3.33746 	
-8.31044e-11 	14675.5 	246.45 	283.231 	0.3493 	13.2222 	-0.252417 	6.77333e-05 	
0.00180385 	0.00120257 	2.16505e-08 	0.342763 	0.0775027 	0.265261 	0 	0 	0 	
0.00140547 	9.29282e-09 	0.92 	0.04 	0.04 	0.0291551 	3.80017 	
3.77101 	3.97141 	-0.200403 	-3.33793 	1.12588e-07 	23.3952 	6.67518 	
-8.30955e-11 	14675.5 	246.45 	283.231 	0.3493 	13.2222 	-0.252448 	6.77333e-05 	
0.00180385 	0.00120257 	6.07257e-08 	0.96139 	0.0594283 	0.901962 	0 	0 	0 	
0.0014732 	4.65611e-09 	0.92 	0.04 	0.04 	0.0291549 	3.80016 	
3.771 	3.97141 	-0.200414 	-3.33862 	9.52873e-08 	20.057 	10.0134 	
-8.3081e-11 	14675.5 	246.45 	283.231 	0.3493 	13.2222 	-0.2525 	6.77333e-05 	
0.00180385 	0.00120257 	1.26779e-07 	2.00712 	0.0437585 	1.96336 	0 	0 	0 	
0.00154093 	1.80495e-11 	0.92 	0.04 	0.04 	0.0291548 	3.80014 	
3.77099 	3.97141 	-0.200429 	-3.33959 	7.79811e-08 	16.7179 	13.3526 	
-8.3061e-11 	14675.5 	246.45 	283.231 	0.3493 	13.2222 	-0.252574 	6.77333e-05 	
0.00180385 	0.00120257 	2.19832e-07 	3.48031 	0.0304934 	3.44982 	0 	0 	0 	
0.00160867 	-4.62175e-09 	0.92 	0.04 	0.04 	0.0291547 	3.80012 	
3.77097 	3.97141 	-0.200448 	-3.34084 	6.06684e-08 	13.3776 	16.6928 	
-8.30353e-11 	14675.5 	246.45 	283.231 	0.3493 	13.2222 	-0.252669 	6.77333e-05 	
0.00180385 	0.00120257 	3.39917e-07 	5.38146 	0.0196342 	5.36182 	0 	0 	0 	
0.0016764 	-9.26394e-09 	0.92 	0.04 	0.04 	0.0291546 	3.8001 	
3.77094 	3.97141 	-0.200472 	-3.34238 	4.33478e-08 	10.036 	20.0344 	
-8.30041e-11 	14675.5 	246.45 	283.231 	0.3493 	13.2222 	-0.252785 	6.77333e-05 	
0.00180385 	0.00120257 	4.87074e-07 	7.7112 	0.0111824 	7.70002 	0 	0 	0 	
0.00174413 	-1.39083e-08 	0.92 	0.04 	0.04 	0.0291545 	3.80007 	
3.77091 	3.97141 	-0.2005 	-3.3442 	2.60177e-08 	6.69275 	23.3777 	
-8.29671e-11 	14675.5 	246.45 	283.231 	0.3493 	13.2222 	-0.252922 	6.77333e-05 	
0.00180385 	0.00120257 	6.61353e-07 	10.4703 	0.00514089 	10.4652 	0 	0 	0 	
0.00181187 	-1.85554e-08 	0.92 	0.04 	0.04 	0.0291545 	3.80004 	
3.77088 	3.97141 	-0.200532 	-3.3463 	8.67778e-09 	3.3475 	26.7229 	
-8.29246e-11 	14675.5 	246.45 	283.231 	0.3493 	13.2222 	-0.253082 	6.77333e-05 	
0.00180385 	0.00120257 	8.62813e-07 	13.6598 	0.00151294 	13.6583 	0 	0 	0 	
0.0018796 	0 	0.92 	0.04 	0.04 	0.0291545 	3.8 	
3.77085 	3.97141 	-0.200569 	-1.67435 	8.67778e-09 	0.837173 	29.2332 	
-4.14381e-11 	7337.73 	123.225 	141.616 	0.3493 	6.61111 	-0.253262 	3.38667e-05 	
0.000901926 	0.000601284 	9.70346e-07 	15.3622 	0.000302847 	15.3619 	0 	0 	0 	
ZONE T = "t = 1.46513e-07 [s]" I = 10 SOLUTIONTIME = 1.4651251951990E-07
0.00127 	1.85637e-08 	0.92 	0.04 	0.04 	0.0291555 	3.80017 	
3.77102 	3.97141 	-0.200395 	-1.6687 	1.47183e-07 	29.2361 	0.834348 	
7.93077e-11 	7337.73 	123.225 	141.616 	0.3493 	6.61111 	-0.252408 	3.38667e-05 	
0.000901926 	0.000601284 	1.49321e-08 	0.140191 	0.0871411 	0.0530497 	0 	0 	0 	
0.00133773 	1.39285e-08 	0.92 	0.04 	0.04 	0.0291553 	3.80017 	
3.77102 	3.97141 	-0.200397 	-3.33752 	1.29886e-07 	26.733 	3.33746 	
1.58628e-10 	14675.5 	246.45 	283.231 	0.3493 	13.2222 	-0.252417 	6.77333e-05 	
0.00180385 	0.00120257 	3.65086e-08 	0.342763 	0.0775027 	0.265261 	0 	0 	0 	
0.00140547 	9.29259e-09 	0.92 	0.04 	0.04 	0.0291551 	3.80017 	
3.77101 	3.97141 	-0.200403 	-3.33793 	1.12588e-07 	23.3952 	6.67518 	
1.58666e-10 	14675.5 	246.45 	283.231 	0.3493 	13.2222 	-0.252448 	6.77333e-05 	
0.00180385 	0.00120257 	1.024e-07 	0.96139 	0.0594283 	0.901962 	0 	0 	0 	
0.0014732 	4.65588e-09 	0.92 	0.04 	0.04 	0.0291549 	3.80016 	
3.771 	3.97141 	-0.200414 	-3.33862 	9.52873e-08 	20.057 	10.0134 	
1.58731e-10 	14675.5 	246.45 	283.231 	0.3493 	13.2222 	-0.2525 	6.77333e-05 	
0.00180385 	0.00120257 	2.13784e-07 	2.00712 	0.0437585 	1.96336 	0 	0 	0 	
0.00154093 	1.78191e-11 	0.92 	0.04 	0.04 	0.0291548 	3.80014 	
3.77099 	3.97141 	-0.200429 	-3.33959 	7.79811e-08 	16.7179 	13.3526 	
1.58821e-10 	14675.5 	246.45 	283.231 	0.3493 	13.2222 	-0.252574 	6.77333e-05 	
0.00180385 	0.00120257 	3.70697e-07 	3.48031 	0.0304934 	3.44982 	0 	0 	0 	
0.00160867 	-4.62207e-09 	0.92 	0.04 	0.04 	0.0291547 	3.80012 	
3.77097 	3.97141 	-0.200448 	-3.34084 	6.06684e-08 	13.3776 	16.6928 	
1.58938e-10 	14675.5 	246.45 	283.231 	0.3493 	13.2222 	-0.252669 	6.77333e-05 	
0.00180385 	0.00120257 	5.73193e-07 	5.38146 	0.0196342 	5.36182 	0 	0 	0 	
0.0016764 	-9.26375e-09 	0.92 	0.04 	0.04 	0.0291546 	3.8001 	
3.77094 	3.97141 	-0.200472 	-3.34238 	4.33478e-08 	10.036 	20.0344 	
1.5908e-10 	14675.5 	246.45 	283.231 	0.3493 	13.2222 	-0.252785 	6.77333e-05 	
0.00180385 	0.00120257 	8.21339e-07 	7.7112 	0.0111824 	7.70002 	0 	0 	0 	
0.00174413 	-1.39083e-08 	0.92 	0.04 	0.04 	0.0291545 	3.80007 	
3.77091 	3.97141 	-0.2005 	-3.3442 	2.60177e-08 	6.69275 	23.3777 	
1.59249e-10 	14675.5 	246.45 	283.231 	0.3493 	13.2222 	-0.252922 	6.77333e-05 	
0.00180385 	0.00120257 	1.11522e-06 	10.4703 	0.00514089 	10.4652 	0 	0 	0 	
0.00181187 	-1.85556e-08 	0.92 	0.04 	0.04 	0.0291545 	3.80004 	
3.77088 	3.97141 	-0.200532 	-3.3463 	8.67871e-09 	3.3475 	26.7229 	
1.59444e-10 	14675.5 	246.45 	283.231 	0.3493 	13.2222 	-0.253082 	6.77333e-05 	
0.00180385 	0.00120257 	1.45494e-06 	13.6598 	0.00151294 	13.6583 	0 	0 	0 	
0.0018796 	0 	0.92 	0.04 	0.04 	0.0291545 	3.8 	
3.77085 	3.97141 	-0.200569 	-1.67435 	8.67871e-09 	0.837173 	29.2332 	
7.98327e-11 	7337.73 	123.225 	141.616 	0.3493 	6.61111 	-0.253262 	3.38667e-05 	
0.000901926 	0.000601284 	1.63627e-06 	15.3622 	0.000302847 	15.3619 	0 	0 	0 	
ZONE T = "t = 2.11535e-07 [s]" I = 10 SOLUTIONTIME = 2.1153457286299E-07
0.00127 	1.85637e-08 	0.92 	0.04 	0.04 	0.0291555 	3.80017 	
3.77102 	3.97141 	-0.200395 	-1.6687 	1.47183e-07 	29.2361 	0.834348 	
2.606e-10 	7337.73 	123.225 	141.616 	0.3493 	6.61111 	-0.252408 	3.38667e-05 	
0.000901926 	0.000601284 	2.40476e-08 	0.140191 	0.0871411 	0.0530497 	0 	0 	0 	
0.00133773 	1.39285e-08 	0.92 	0.04 	0.04 	0.0291553 	3.80017 	
3.77102 	3.97141 	-0.200397 	-3.33752 	1.29886e-07 	26.733 	3.33746 	
5.21227e-10 	14675.5 	246.45 	283.231 	0.3493 	13.2222 	-0.252417 	6.77333e-05 	
0.00180385 	0.00120257 	5.87958e-08 	0.342763 	0.0775027 	0.265261 	0 	0 	0 	
0.00140547 	9.29272e-09 	0.92 	0.04 	0.04 	0.0291551 	3.80017 	
3.77101 	3.97141 	-0.200403 	-3.33793 	1.12588e-07 	23.3952 	6.67518 	
5.21309e-10 	14675.5 	246.45 	283.231 	0.3493 	13.2222 	-0.252448 	6.77333e-05 	
0.00180385 	0.00120257 	1.64912e-07 	0.96139 	0.0594283 	0.901962 	0 	0 	0 	
0.0014732 	4.656e-09 	0.92 	0.04 	0.04 	0.0291549 	3.80016 	
3.771 	3.97141 	-0.200414 	-3.33862 	9.52873e-08 	20.057 	10.0134 	
5.21449e-10 	14675.5 	246.45 	283.231 	0.3493 	13.2222 	-0.2525 	6.77333e-05 	
0.00180385 	0.00120257 	3.44291e-07 	2.00712 	0.0437585 	1.96336 	0 	0 	0 	
0.00154093 	1.79447e-11 	0.92 	0.04 	0.04 	0.0291548 	3.80014 	
3.77099 	3.97141 	-0.200429 	-3.33959 	7.79811e-08 	16.7179 	13.3526 	
5.21645e-10 	14675.5 	246.45 	283.231 	0.3493 	13.2222 	-0.252574 	6.77333e-05 	
0.00180385 	0.00120257 	5.96994e-07 	3.48031 	0.0304934 	3.44982 	0 	0 	0 	
0.00160867 	-4.6218e-09 	0.92 	0.04 	0.04 	0.0291547 	3.80012 	
3.77097 	3.97141 	-0.200448 	-3.34084 	6.06684e-08 	13.3776 	16.6928 	
5.21897e-10 	14675.5 	246.45 	283.231 	0.3493 	13.2222 	-0.252669 	6.77333e-05 	
0.00180385 	0.00120257 	9.23106e-07 	5.38146 	0.0196342 	5.36182 	0 	0 	0 	
0.0016764 	-9.2639e-09 	0.92 	0.04 	0.04 	0.0291546 	3.8001 	
3.77094 	3.97141 	-0.200472 	-3.34238 	4.33478e-08 	10.036 	20.0344 	
5.22207e-10 	14675.5 	246.45 	283.231 	0.3493 	13.2222 	-0.252785 	6.77333e-05 	
0.00180385 	0.00120257 	1.32274e-06 	7.7112 	0.0111824 	7.70002 	0 	0 	0 	
0.00174413 	-1.39084e-08 	0.92 	0.04 	0.04 	0.0291545 	3.80007 	
3.77091 	3.97141 	-0.2005 	-3.3442 	2.60177e-08 	6.69275 	23.3777 	
5.22573e-10 	14675.5 	246.45 	283.231 	0.3493 	13.2222 	-0.252922 	6.77333e-05 	
0.00180385 	0.00120257 	1.79602e-06 	10.4703 	0.00514089 	10.4652 	0 	0 	0 	
0.00181187 	-1.85558e-08 	0.92 	0.04 	0.04 	0.0291545 	3.80004 	
3.77088 	3.97141 	-0.200532 	-3.3463 	8.6801e-09 	3.3475 	26.7229 	
5.22997e-10 	14675.5 	246.45 	283.231 	0.3493 	13.2222 	-0.253082 	6.77333e-05 	
0.00180385 	0.00120257 	2.34312e-06 	13.6598 	0.00151294 	13.6583 	0 	0 	0 	
0.0018796 	0 	0.92 	0.04 	0.04 	0.0291545 	3.8 	
3.77085 	3.97141 	-0.200569 	-1.67435 	8.6801e-09 	0.837173 	29.2332 	
2.61739e-10 	7337.73 	123.225 	141.616 	0.3493 	6.61111 	-0.253262 	3.38667e-05 	
0.000901926 	0.000601284 	2.63515e-06 	15.3622 	0.000302847 	15.3619 	0 	0 	0 	
ZONE T = "t = 3.09068e-07 [s]" I = 10 SOLUTIONTIME = 3.0906765287763E-07
0.00127 	1.85636e-08 	0.92 	0.04 	0.04 	0.0291555 	3.80017 	
3.77102 	3.97141 	-0.200395 	-1.6687 	1.47184e-07 	29.2361 	0.834348 	
5.32539e-10 	7337.73 	123.225 	141.616 	0.3493 	6.61111 	-0.252408 	3.38667e-05 	
0.000901926 	0.000601284 	3.77208e-08 	0.140191 	0.0871411 	0.0530497 	0 	0 	0 	
0.00133773 	1.39285e-08 	0.92 	0.04 	0.04 	0.0291553 	3.80017 	
3.77102 	3.97141 	-0.200397 	-3.33752 	1.29886e-07 	26.733 	3.33746 	
1.06512e-09 	14675.5 	246.45 	283.231 	0.3493 	13.2222 	-0.252417 	6.77333e-05 	
0.00180385 	0.00120257 	9.22265e-08 	0.342763 	0.0775027 	0.265261 	0 	0 	0 	
0.00140547 	9.29271e-09 	0.92 	0.04 	0.04 	0.0291551 	3.80017 	
3.77101 	3.97141 	-0.200403 	-3.33793 	1.12588e-07 	23.3952 	6.67518 	
1.06527e-09 	14675.5 	246.45 	283.231 	0.3493 	13.2222 	-0.252448 	6.77333e-05 	
0.00180385 	0.00120257 	2.58679e-07 	0.96139 	0.0594283 	0.901962 	0 	0 	0 	
0.0014732 	4.656e-09 	0.92 	0.04 	0.04 	0.0291549 	3.80016 	
3.771 	3.97141 	-0.200414 	-3.33862 	9.52873e-08 	20.057 	10.0134 	
1.06553e-09 	14675.5 	246.45 	283.231 	0.3493 	13.2222 	-0.2525 	6.77333e-05 	
0.00180385 	0.00120257 	5.40052e-07 	2.00712 	0.0437585 	1.96336 	0 	0 	0 	
0.00154093 	1.79354e-11 	0.92 	0.04 	0.04 	0.0291548 	3.80014 	
3.77099 	3.97141 	-0.200429 	-3.33959 	7.79811e-08 	16.7179 	13.3526 	
1.06588e-09 	14675.5 	246.45 	283.231 	0.3493 	13.2222 	-0.252574 	6.77333e-05 	
0.00180385 	0.00120257 	9.36439e-07 	3.48031 	0.0304934 	3.44982 	0 	0 	0 	
0.00160867 	-4.62187e-09 	0.92 	0.04 	0.04 	0.0291547 	3.80012 	
3.77097 	3.97141 	-0.200448 	-3.34084 	6.06684e-08 	13.3776 	16.6928 	
1.06634e-09 	14675.5 	246.45 	283.231 	0.3493 	13.2222 	-0.252669 	6.77333e-05 	
0.00180385 	0.00120257 	1.44798e-06 	5.38146 	0.0196342 	5.36182 	0 	0 	0 	
0.0016764 	-9.26376e-09 	0.92 	0.04 	0.04 	0.0291546 	3.8001 	
3.77094 	3.97141 	-0.200472 	-3.34238 	4.33478e-08 	10.036 	20.0344 	
1.0669e-09 	14675.5 	246.45 	283.231 	0.3493 	13.2222 	-0.252785 	6.77333e-05 	
0.00180385 	0.00120257 	2.07483e-06 	7.7112 	0.0111824 	7.70002 	0 	0 	0 	
0.00174413 	-1.39082e-08 	0.92 	0.04 	0.04 	0.0291545 	3.80007 	
3.77091 	3.97141 	-0.2005 	-3.3442 	2.60177e-08 	6.69275 	23.3777 	
1.06756e-09 	14675.5 	246.45 	283.231 	0.3493 	13.2222 	-0.252922 	6.77333e-05 	
0.00180385 	0.00120257 	2.81723e-06 	10.4703 	0.00514089 	10.4652 	0 	0 	0 	
0.00181187 	-1.85556e-08 	0.92 	0.04 	0.04 	0.0291545 	3.80004 	
3.77088 	3.97141 	-0.200532 	-3.3463 	8.68219e-09 	3.3475 	26.7229 	
1.06833e-09 	14675.5 	246.45 	283.231 	0.3493 	13.2222 	-0.253082 	6.77333e-05 	
0.00180385 	0.00120257 	3.6754e-06 	13.6598 	0.00151294 	13.6583 	0 	0 	0 	
0.0018796 	0 	0.92 	0.04 	0.04 	0.0291545 	3.8 	
3.77085 	3.97141 	-0.200569 	-1.67435 	8.68219e-09 	0.837173 	29.2332 	
5.34598e-10 	7337.73 	123.225 	141.616 	0.3493 	6.61111 	-0.253262 	3.38667e-05 	
0.000901926 	0.000601284 	4.13347e-06 	15.3622 	0.000302847 	15.3619 	0 	0 	0 	
ZONE T = "t = 4.55367e-07 [s]" I = 10 SOLUTIONTIME = 4.5536727289958E-07
0.00127 	1.85637e-08 	0.92 	0.04 	0.04 	0.0291555 	3.80017 	
3.77102 	3.97141 	-0.200395 	-1.6687 	1.47185e-07 	29.2361 	0.834348 	
9.40447e-10 	7337.73 	123.225 	141.616 	0.3493 	6.61111 	-0.252408 	3.38667e-05 	
0.000901926 	0.000601284 	5.82307e-08 	0.140191 	0.0871411 	0.0530497 	0 	0 	0 	
0.00133773 	1.39285e-08 	0.92 	0.04 	0.04 	0.0291553 	3.80017 	
3.77102 	3.97141 	-0.200397 	-3.33752 	1.29886e-07 	26.733 	3.33746 	
1.88097e-09 	14675.5 	246.45 	283.231 	0.3493 	13.2222 	-0.252417 	6.77333e-05 	
0.00180385 	0.00120257 	1.42373e-07 	0.342763 	0.0775027 	0.265261 	0 	0 	0 	
0.00140547 	9.29272e-09 	0.92 	0.04 	0.04 	0.0291551 	3.80017 	
3.77101 	3.97141 	-0.200403 	-3.33793 	1.12588e-07 	23.3952 	6.67518 	
1.88122e-09 	14675.5 	246.45 	283.231 	0.3493 	13.2222 	-0.252448 	6.77333e-05 	
0.00180385 	0.00120257 	3.9933e-07 	0.96139 	0.0594283 	0.901962 	0 	0 	0 	
0.0014732 	4.65601e-09 	0.92 	0.04 	0.04 	0.0291549 	3.80016 	
3.771 	3.97141 	-0.200414 	-3.33862 	9.52873e-08 	20.057 	10.0134 	
1.88164e-09 	14675.5 	246.45 	283.231 	0.3493 	13.2222 	-0.2525 	6.77333e-05 	
0.00180385 	0.00120257 	8.33693e-07 	2.00712 	0.0437585 	1.96336 	0 	0 	0 	
0.00154093 	1.79478e-11 	0.92 	0.04 	0.04 	0.0291548 	3.80014 	
3.77099 	3.97141 	-0.200429 	-3.33959 	7.79811e-08 	16.7179 	13.3526 	
1.88223e-09 	14675.5 	246.45 	283.231 	0.3493 	13.2222 	-0.252574 	6.77333e-05 	
0.00180385 	0.00120257 	1.44561e-06 	3.48031 	0.0304934 	3.44982 	0 	0 	0 	
0.00160867 	-4.62188e-09 	0.92 	0.04 	0.04 	0.0291547 	3.80012 	
3.77097 	3.97141 	-0.200448 	-3.34084 	6.06684e-08 	13.3776 	16.6928 	
1.883e-09 	14675.5 	246.45 	283.231 	0.3493 	13.2222 	-0.252669 	6.77333e-05 	
0.00180385 	0.00120257 	2.23528e-06 	5.38146 	0.0196342 	5.36182 	0 	0 	0 	
0.0016764 	-9.26381e-09 	0.92 	0.04 	0.04 	0.0291546 	3.8001 	
3.77094 	3.97141 	-0.200472 	-3.34238 	4.33478e-08 	10.036 	20.0344 	
1.88393e-09 	14675.5 	246.45 	283.231 	0.3493 	13.2222 	-0.252785 	6.77333e-05 	
0.00180385 	0.00120257 	3.20298e-06 	7.7112 	0.0111824 	7.70002 	0 	0 	0 	
0.00174413 	-1.39083e-08 	0.92 	0.04 	0.04 	0.0291545 	3.80007 	
3.77091 	3.97141 	-0.2005 	-3.3442 	2.60177e-08 	6.69275 	23.3777 	
1.88504e-09 	14675.5 	246.45 	283.231 	0.3493 	13.2222 	-0.252922 	6.77333e-05 	
0.00180385 	0.00120257 	4.34903e-06 	10.4703 	0.00514089 	10.4652 	0 	0 	0 	
0.00181187 	-1.85557e-08 	0.92 	0.04 	0.04 	0.0291545 	3.80004 	
3.77088 	3.97141 	-0.200532 	-3.3463 	8.68532e-09 	3.3475 	26.7229 	
1.88632e-09 	14675.5 	246.45 	283.231 	0.3493 	13.2222 	-0.253082 	6.77333e-05 	
0.00180385 	0.00120257 	5.67382e-06 	13.6598 	0.00151294 	13.6583 	0 	0 	0 	
0.0018796 	0 	0.92 	0.04 	0.04 	0.0291545 	3.8 	
3.77085 	3.97141 	-0.200569 	-1.67435 	8.68532e-09 	0.837173 	29.2332 	
9.43887e-10 	7337.73 	123.225 	141.616 	0.3493 	6.61111 	-0.253262 	3.38667e-05 	
0.000901926 	0.000601284 	6.38096e-06 	15.3622 	0.000302847 	15.3619 	0 	0 	0 	
ZONE T = "t = 6.74817e-07 [s]" I = 10 SOLUTIONTIME = 6.7481670293251E-07
0.00127 	1.85633e-08 	0.92 	0.04 	0.04 	0.0291555 	3.80017 	
3.77102 	3.97141 	-0.200395 	-1.6687 	1.47187e-07 	29.2361 	0.834348 	
1.55231e-09 	7337.73 	123.225 	141.616 	0.3493 	6.61111 	-0.252408 	3.38667e-05 	
0.000901926 	0.000601284 	8.89954e-08 	0.140191 	0.0871411 	0.0530497 	0 	0 	0 	
0.00133773 	1.39281e-08 	0.92 	0.04 	0.04 	0.0291553 	3.80017 	
3.77102 	3.97141 	-0.200397 	-3.33752 	1.29886e-07 	26.733 	3.33746 	
3.10474e-09 	14675.5 	246.45 	283.231 	0.3493 	13.2222 	-0.252417 	6.77333e-05 	
0.00180385 	0.00120257 	2.17592e-07 	0.342763 	0.0775027 	0.265261 	0 	0 	0 	
0.00140547 	9.29236e-09 	0.92 	0.04 	0.04 	0.0291551 	3.80017 	
3.77101 	3.97141 	-0.200403 	-3.33793 	1.12588e-07 	23.3952 	6.67518 	
3.10514e-09 	14675.5 	246.45 	283.231 	0.3493 	13.2222 	-0.252448 	6.77333e-05 	
0.00180385 	0.00120257 	6.10307e-07 	0.96139 	0.0594283 	0.901962 	0 	0 	0 	
0.0014732 	4.65565e-09 	0.92 	0.04 	0.04 	0.0291549 	3.80016 	
3.771 	3.97141 	-0.200414 	-3.33862 	9.52873e-08 	20.057 	10.0134 	
3.10581e-09 	14675.5 	246.45 	283.231 	0.3493 	13.2222 	-0.2525 	6.77333e-05 	
0.00180385 	0.00120257 	1.27415e-06 	2.00712 	0.0437585 	1.96336 	0 	0 	0 	
0.00154093 	1.76044e-11 	0.92 	0.04 	0.04 	0.0291548 	3.80014 	
3.77099 	3.97141 	-0.200429 	-3.33959 	7.79811e-08 	16.7179 	13.3526 	
3.10676e-09 	14675.5 	246.45 	283.231 	0.3493 	13.2222 	-0.252574 	6.77333e-05 	
0.00180385 	0.00120257 	2.20936e-06 	3.48031 	0.0304934 	3.44982 	0 	0 	0 	
0.00160867 	-4.62221e-09 	0.92 	0.04 	0.04 	0.0291547 	3.80012 	
3.77097 	3.97141 	-0.200448 	-3.34084 	6.06684e-08 	13.3776 	16.6928 	
3.10799e-09 	14675.5 	246.45 	283.231 	0.3493 	13.2222 	-0.252669 	6.77333e-05 	
0.00180385 	0.00120257 	3.41624e-06 	5.38146 	0.0196342 	5.36182 	0 	0 	0 	
0.0016764 	-9.26415e-09 	0.92 	0.04 	0.04 	0.0291546 	3.8001 	
3.77094 	3.97141 	-0.200472 	-3.34238 	4.33478e-08 	10.036 	20.0344 	
3.10948e-09 	14675.5 	246.45 	283.231 	0.3493 	13.2222 	-0.252785 	6.77333e-05 	
0.00180385 	0.00120257 	4.8952e-06 	7.7112 	0.0111824 	7.70002 	0 	0 	0 	
0.00174413 	-1.39086e-08 	0.92 	0.04 	0.04 	0.0291545 	3.80007 	
3.77091 	3.97141 	-0.2005 	-3.3442 	2.60177e-08 	6.69275 	23.3777 	
3.11126e-09 	14675.5 	246.45 	283.231 	0.3493 	13.2222 	-0.252922 	6.77333e-05 	
0.00180385 	0.00120257 	6.64674e-06 	10.4703 	0.00514089 	10.4652 	0 	0 	0 	
0.00181187 	-1.8556e-08 	0.92 	0.04 	0.04 	0.0291545 	3.80004 	
3.77088 	3.97141 	-0.200532 	-3.3463 	8.69002e-09 	3.3475 	26.7229 	
3.11331e-09 	14675.5 	246.45 	283.231 	0.3493 	13.2222 	-0.253082 	6.77333e-05 	
0.00180385 	0.00120257 	8.67145e-06 	13.6598 	0.00151294 	13.6583 	0 	0 	0 	
0.0018796 	0 	0.92 	0.04 	0.04 	0.0291545 	3.8 	
3.77085 	3.97141 	-0.200569 	-1.67435 	8.69002e-09 	0.837173 	29.2332 	
1.55782e-09 	7337.73 	123.225 	141.616 	0.3493 	6.61111 	-0.253262 	3.38667e-05 	
0.000901926 	0.000601284 	9.75218e-06 	15.3622 	0.000302847 	15.3619 	0 	0 	0 	
ZONE T = "t = 1.00399e-06 [s]" I = 10 SOLUTIONTIME = 1.0039908479819E-06
0.00127 	1.85636e-08 	0.92 	0.04 	0.04 	0.0291555 	3.80017 	
3.77102 	3.97141 	-0.200395 	-1.6687 	1.4719e-07 	29.2361 	0.834348 	
2.4701e-09 	7337.73 	123.225 	141.616 	0.3493 	6.61111 	-0.252408 	3.38667e-05 	
0.000901926 	0.000601284 	1.35143e-07 	0.140191 	0.0871411 	0.0530497 	0 	0 	0 	
0.00133773 	1.39284e-08 	0.92 	0.04 	0.04 	0.0291553 	3.80017 	
3.77102 	3.97141 	-0.200397 	-3.33752 	1.29886e-07 	26.733 	3.33746 	
4.9404e-09 	14675.5 	246.45 	283.231 	0.3493 	13.2222 	-0.252417 	6.77333e-05 	
0.00180385 	0.00120257 	3.30421e-07 	0.342763 	0.0775027 	0.265261 	0 	0 	0 	
0.00140547 	9.2926e-09 	0.92 	0.04 	0.04 	0.0291551 	3.80017 	
3.77101 	3.97141 	-0.200403 	-3.33793 	1.12588e-07 	23.3952 	6.67518 	
4.94102e-09 	14675.5 	246.45 	283.231 	0.3493 	13.2222 	-0.252448 	6.77333e-05 	
0.00180385 	0.00120257 	9.26772e-07 	0.96139 	0.0594283 	0.901962 	0 	0 	0 	
0.0014732 	4.65589e-09 	0.92 	0.04 	0.04 	0.0291549 	3.80016 	
3.771 	3.97141 	-0.200414 	-3.33862 	9.52873e-08 	20.057 	10.0134 	
4.94207e-09 	14675.5 	246.45 	283.231 	0.3493 	13.2222 	-0.2525 	6.77333e-05 	
0.00180385 	0.00120257 	1.93485e-06 	2.00712 	0.0437585 	1.96336 	0 	0 	0 	
0.00154093 	1.78223e-11 	0.92 	0.04 	0.04 	0.0291548 	3.80014 	
3.77099 	3.97141 	-0.200429 	-3.33959 	7.79811e-08 	16.7179 	13.3526 	
4.94356e-09 	14675.5 	246.45 	283.231 	0.3493 	13.2222 	-0.252574 	6.77333e-05 	
0.00180385 	0.00120257 	3.35499e-06 	3.48031 	0.0304934 	3.44982 	0 	0 	0 	
0.00160867 	-4.62196e-09 	0.92 	0.04 	0.04 	0.0291547 	3.80012 	
3.77097 	3.97141 	-0.200448 	-3.34084 	6.06684e-08 	13.3776 	16.6928 	
4.94547e-09 	14675.5 	246.45 	283.231 	0.3493 	13.2222 	-0.252669 	6.77333e-05 	
0.00180385 	0.00120257 	5.18768e-06 	5.38146 	0.0196342 	5.36182 	0 	0 	0 	
0.0016764 	-9.26388e-09 	0.92 	0.04 	0.04 	0.0291546 	3.8001 	
3.77094 	3.97141 	-0.200472 	-3.34238 	4.33478e-08 	10.036 	20.0344 	
4.94781e-09 	14675.5 	246.45 	283.231 	0.3493 	13.2222 	-0.252785 	6.77333e-05 	
0.00180385 	0.00120257 	7.43353e-06 	7.7112 	0.0111824 	7.70002 	0 	0 	0 	
0.00174413 	-1.39083e-08 	0.92 	0.04 	0.04 	0.0291545 	3.80007 	
3.77091 	3.97141 	-0.2005 	-3.3442 	2.60177e-08 	6.69275 	23.3777 	
4.95059e-09 	14675.5 	246.45 	283.231 	0.3493 	13.2222 	-0.252922 	6.77333e-05 	
0.00180385 	0.00120257 	1.00933e-05 	10.4703 	0.00514089 	10.4652 	0 	0 	0 	
0.00181187 	-1.85557e-08 	0.92 	0.04 	0.04 	0.0291545 	3.80004 	
3.77088 	3.97141 	-0.200532 	-3.3463 	8.69705e-09 	3.3475 	26.7229 	
4.9538e-09 	14675.5 	246.45 	283.231 	0.3493 	13.2222 	-0.253082 	6.77333e-05 	
0.00180385 	0.00120257 	1.31679e-05 	13.6598 	0.00151294 	13.6583 	0 	0 	0 	
0.0018796 	0 	0.92 	0.04 	0.04 	0.0291545 	3.8 	
3.77085 	3.97141 	-0.200569 	-1.67435 	8.69705e-09 	0.837173 	29.2332 	
2.47872e-09 	7337.73 	123.225 	141.616 	0.3493 	6.61111 	-0.253262 	3.38667e-05 	
0.000901926 	0.000601284 	1.4809e-05 	15.3622 	0.000302847 	15.3619 	0 	0 	0 	
ZONE T = "t = 1.49775e-06 [s]" I = 10 SOLUTIONTIME = 1.4977520655560E-06