TITLE = "Solution on Domain BulkDomain1D_0"
VARIABLES = "x [m]"  
"Vel_axial" 
"MF_sp(ECDMC)" 
"MF_sp(Li+)" 
"MF_sp(PF6-)" 
"Volt(Electroly)" 
"Volt(AnodeVolt)" 
"Potential Drop Electrode-Electrolyte [V]" 
"Surf_0 Equilibrium Potential Drop Electrode-Electrolyte [V]" 
"Overpotential_0 [V]" 
"Current Source [A/m^2]" 
"Li+ flux [kmol/m^2/s]" 
"Electrolyte Current [A/m^2]" 
"Electrode Current [A/m^2]" 
"CV Capacity discharged [A-s/m^2]" 
"Depth of discharge in CV [A-s/m^2]" 
"CV Capacity remaining [A-s/m^2]" 
"Initial CV capacity [A-s/m^2]" 
"Porosity []" 
"Surface Area [m2/m2] (area per area)" 
"Specific current (per particle area) [A/m^2]" 
"Control volume thickness [m]" 
"MoleDens Li_C6-bulk [kmol/m^3]" 
"MoleDens V_C6-bulk [kmol/m^3]" 
"qHeat_accum [J/m3]" 
"qHeat_step [W/m3]" 
"Joule_Lyte [W/m3]" 
"Joule_Solid [W/m3]" 
"electrodHeat [W/m3]" 
"OverpotHeat [W/m3]" 
"deltaSHeat [W/m3]" 

ZONE T = "ANOD, 4.0000E-08", I = 10, SOLUTIONTIME = 4.000000E-08
ZONETYPE = ORDERED
DATAPACKING = BLOCK
STRANDID = 1
 0.0000000000000E+00  8.7488888888889E-05  1.7497777777778E-04  2.6246666666667E-04  3.4995555555556E-04  4.3744444444444E-04  5.2493333333333E-04  6.1242222222222E-04  6.9991111111111E-04  7.8740000000000E-04 
 1.1600139835346E-09  3.4800446136315E-09  5.8000842898204E-09  8.1201393951919E-09  1.0440216312887E-08  1.2760321426113E-08  1.5080461118170E-08  1.7400641772468E-08  1.9720869772543E-08  2.0881010637349E-08 
 9.1999999999693E-01  9.1999999999693E-01  9.1999999999693E-01  9.1999999999693E-01  9.1999999999693E-01  9.1999999999693E-01  9.1999999999693E-01  9.1999999999693E-01  9.1999999999693E-01  9.1999999999873E-01 
 4.0000000001536E-02  4.0000000001536E-02  4.0000000001536E-02  4.0000000001536E-02  4.0000000001537E-02  4.0000000001537E-02  4.0000000001537E-02  4.0000000001537E-02  4.0000000001537E-02  4.0000000000636E-02 
 4.0000000001536E-02  4.0000000001536E-02  4.0000000001536E-02  4.0000000001536E-02  4.0000000001537E-02  4.0000000001537E-02  4.0000000001537E-02  4.0000000001537E-02  4.0000000001537E-02  4.0000000000636E-02 
 2.9157253693864E-02  2.9157237952885E-02  2.9157190729913E-02  2.9157112024826E-02  2.9157001837412E-02  2.9156860167377E-02  2.9156687014339E-02  2.9156482377827E-02  2.9156246257285E-02  2.9155978652073E-02 
 0.0000000000000E+00 -2.4846674656734E-09 -4.6770320256084E-09 -6.5770925400790E-09 -8.1848470651477E-09 -9.5002928526588E-09 -1.0523426350230E-08 -1.1254243201240E-08 -1.1692738244818E-08 -1.1838905515823E-08 
-2.9157253693864E-02 -2.9157240437553E-02 -2.9157195406945E-02 -2.9157118601918E-02 -2.9157010022259E-02 -2.9156869667670E-02 -2.9156697537765E-02 -2.9156493632070E-02 -2.9156257950024E-02 -2.9155990490978E-02 
-4.0906712751189E-02 -4.0906712751178E-02 -4.0906712751183E-02 -4.0906712751183E-02 -4.0906712751183E-02 -4.0906712751178E-02 -4.0906712751178E-02 -4.0906712751183E-02 -4.0906712751178E-02 -4.0906712751766E-02 
 1.1749459057325E-02  1.1749472313625E-02  1.1749517344237E-02  1.1749594149265E-02  1.1749702728923E-02  1.1749843083508E-02  1.1750015213413E-02  1.1750219119113E-02  1.1750454801154E-02  1.1750722260788E-02 
 1.6705125298131E+00  3.3410288945965E+00  3.3410419216893E+00  3.3410641409413E+00  3.3410955524237E+00  3.3411361562354E+00  3.3411859525066E+00  3.3412449413954E+00  3.3413131230855E+00  1.6706952489640E+00 
 8.6568207727133E-09  2.5970482190873E-08  4.3284211114191E-08  6.0598055181506E-08  7.7912062031164E-08  9.5226279283592E-08  1.1254075459657E-07  1.2985553560944E-07  1.4717098816757E-07  1.4717098816757E-07 
 0.0000000000000E+00  3.3410269771290E+00  6.6820623853785E+00  1.0023115416745E+01  1.3364195263776E+01  1.6705311117915E+01  2.0046472171896E+01  2.3387687619188E+01  2.6728966651625E+01  3.0070318461778E+01 
 1.6553338632603E+01  1.4007398429762E+01  1.2256539670303E+01  1.0505671675478E+01  8.7547896281472E+00  7.0038887111257E+00  5.2529641071695E+00  3.5020109989583E+00  1.7510245690824E+00  0.0000000000000E+00 
 7.3750507089925E-08  1.4750120562838E-07  1.4750185596412E-07  1.4750296518949E-07  1.4750453330858E-07  1.4750656032718E-07  1.4750904625278E-07  1.4751199109456E-07  1.4751539486340E-07  7.3759628786993E-08 
 9.1448444543355E+04  1.8289688908671E+05  1.8289688908671E+05  1.8289688908671E+05  1.8289688908671E+05  1.8289688908671E+05  1.8289688908671E+05  1.8289688908671E+05  1.8289688908671E+05  9.1448444543355E+04 
 3.6579377817305E+05  7.3158755634611E+05  7.3158755634611E+05  7.3158755634611E+05  7.3158755634611E+05  7.3158755634611E+05  7.3158755634611E+05  7.3158755634611E+05  7.3158755634611E+05  3.6579377817305E+05 
 4.5724222271641E+05  9.1448444543282E+05  9.1448444543282E+05  9.1448444543282E+05  9.1448444543282E+05  9.1448444543282E+05  9.1448444543282E+05  9.1448444543282E+05  9.1448444543282E+05  4.5724222271641E+05 
 3.4999999999999E-01  3.4999999999999E-01  3.4999999999999E-01  3.4999999999999E-01  3.4999999999999E-01  3.4999999999999E-01  3.4999999999999E-01  3.4999999999999E-01  3.4999999999999E-01  3.4999999999999E-01 
 8.5301666666667E+00  1.7060333333333E+01  1.7060333333333E+01  1.7060333333333E+01  1.7060333333333E+01  1.7060333333333E+01  1.7060333333333E+01  1.7060333333333E+01  1.7060333333333E+01  8.5301666666667E+00 
 1.9583586055135E-01  1.9583608534006E-01  1.9583684892964E-01  1.9583815132224E-01  1.9583999252205E-01  1.9584237253485E-01  1.9584529136828E-01  1.9584874903160E-01  1.9585274553558E-01  1.9585728090080E-01 
 4.3744444444444E-05  8.7488888888889E-05  8.7488888888889E-05  8.7488888888889E-05  8.7488888888889E-05  8.7488888888889E-05  8.7488888888889E-05  8.7488888888889E-05  8.7488888888889E-05  4.3744444444444E-05 
 8.6666666666650E+01  8.6666666666650E+01  8.6666666666650E+01  8.6666666666650E+01  8.6666666666650E+01  8.6666666666650E+01  8.6666666666650E+01  8.6666666666650E+01  8.6666666666650E+01  8.6666666666650E+01 
 2.1666666666684E+01  2.1666666666684E+01  2.1666666666684E+01  2.1666666666684E+01  2.1666666666684E+01  2.1666666666684E+01  2.1666666666684E+01  2.1666666666684E+01  2.1666666666684E+01  2.1666666666684E+01 
 0.0000000000000E+00  0.0000000000000E+00  0.0000000000000E+00  0.0000000000000E+00  0.0000000000000E+00  0.0000000000000E+00  0.0000000000000E+00  0.0000000000000E+00  0.0000000000000E+00  0.0000000000000E+00 
 0.0000000000000E+00  0.0000000000000E+00  0.0000000000000E+00  0.0000000000000E+00  0.0000000000000E+00  0.0000000000000E+00  0.0000000000000E+00  0.0000000000000E+00  0.0000000000000E+00  0.0000000000000E+00 
 0.0000000000000E+00  0.0000000000000E+00  0.0000000000000E+00  0.0000000000000E+00  0.0000000000000E+00  0.0000000000000E+00  0.0000000000000E+00  0.0000000000000E+00  0.0000000000000E+00  0.0000000000000E+00 
 0.0000000000000E+00  0.0000000000000E+00  0.0000000000000E+00  0.0000000000000E+00  0.0000000000000E+00  0.0000000000000E+00  0.0000000000000E+00  0.0000000000000E+00  0.0000000000000E+00  0.0000000000000E+00 
 0.0000000000000E+00  0.0000000000000E+00  0.0000000000000E+00  0.0000000000000E+00  0.0000000000000E+00  0.0000000000000E+00  0.0000000000000E+00  0.0000000000000E+00  0.0000000000000E+00  0.0000000000000E+00 
 0.0000000000000E+00  0.0000000000000E+00  0.0000000000000E+00  0.0000000000000E+00  0.0000000000000E+00  0.0000000000000E+00  0.0000000000000E+00  0.0000000000000E+00  0.0000000000000E+00  0.0000000000000E+00 
 0.0000000000000E+00  0.0000000000000E+00  0.0000000000000E+00  0.0000000000000E+00  0.0000000000000E+00  0.0000000000000E+00  0.0000000000000E+00  0.0000000000000E+00  0.0000000000000E+00  0.0000000000000E+00 
ZONE T = "ANOD, 5.5000E-08", I = 10, SOLUTIONTIME = 5.500000E-08
ZONETYPE = ORDERED
DATAPACKING = BLOCK
STRANDID = 1
 0.0000000000000E+00  8.7488888888889E-05  1.7497777777778E-04  2.6246666666667E-04  3.4995555555556E-04  4.3744444444444E-04  5.2493333333333E-04  6.1242222222222E-04  6.9991111111111E-04  7.8740000000000E-04 
 1.1600182845813E-09  3.4800570634506E-09  5.8001044884438E-09  8.1201669960062E-09  1.0440251022631E-08  1.2761089420336E-08  1.5080993656376E-08  1.7401180859939E-08  1.9720688913976E-08  2.0881196207981E-08 
 9.1999999999588E-01  9.1999999999588E-01  9.1999999999588E-01  9.1999999999588E-01  9.1999999999588E-01  9.1999999999588E-01  9.1999999999588E-01  9.1999999999588E-01  9.1999999999588E-01  9.1999999999830E-01 
 4.0000000002059E-02  4.0000000002059E-02  4.0000000002059E-02  4.0000000002059E-02  4.0000000002059E-02  4.0000000002059E-02  4.0000000002059E-02  4.0000000002059E-02  4.0000000002059E-02  4.0000000000852E-02 
 4.0000000002059E-02  4.0000000002059E-02  4.0000000002059E-02  4.0000000002059E-02  4.0000000002059E-02  4.0000000002059E-02  4.0000000002059E-02  4.0000000002059E-02  4.0000000002059E-02  4.0000000000852E-02 
 2.9157210872979E-02  2.9157195131942E-02  2.9157147908801E-02  2.9157069203439E-02  2.9156959015651E-02  2.9156817345145E-02  2.9156644191542E-02  2.9156439554375E-02  2.9156203433090E-02  2.9155935827046E-02 
 0.0000000000000E+00 -4.7413232371294E-09 -8.9248643100146E-09 -1.2550621139960E-08 -1.5618590100825E-08 -1.8128766019011E-08 -2.0081142173446E-08 -2.1475710295560E-08 -2.2312460569266E-08 -2.2591381630919E-08 
-2.9157210872979E-02 -2.9157199873265E-02 -2.9157156833665E-02 -2.9157081754060E-02 -2.9156974634241E-02 -2.9156835473911E-02 -2.9156664272684E-02 -2.9156461030085E-02 -2.9156225745551E-02 -2.9155958418428E-02 
-4.0906712750436E-02 -4.0906712750436E-02 -4.0906712750432E-02 -4.0906712750432E-02 -4.0906712750432E-02 -4.0906712750436E-02 -4.0906712750436E-02 -4.0906712750432E-02 -4.0906712750433E-02 -4.0906712751210E-02 
 1.1749501877457E-02  1.1749512877171E-02  1.1749555916767E-02  1.1749630996373E-02  1.1749738116191E-02  1.1749877276525E-02  1.1750048477752E-02  1.1750251720347E-02  1.1750487004883E-02  1.1750754332783E-02 
 1.6705187236878E+00  3.3410406295294E+00  3.3410530806364E+00  3.3410748007373E+00  3.3411057899012E+00  3.3411460482273E+00  3.3411955758442E+00  3.3412543729099E+00  3.3413224396124E+00  1.6706998881497E+00 
 8.6568528694895E-09  2.5970575097383E-08  4.3284361853551E-08  6.0598261154281E-08  7.7912321054015E-08  9.5226589571487E-08  1.1254111475351E-07  1.2985594464482E-07  1.4717155375629E-07  1.4717155375629E-07 
 0.0000000000000E+00  3.3410390383308E+00  6.6820858936323E+00  1.0023149834301E+01  1.3364240129470E+01  1.6705366048641E+01  2.0046536860578E+01  2.3387761834967E+01  2.6729050241278E+01  3.0070411349175E+01 
 3.0070411349234E+01  2.6729372310781E+01  2.3388325455699E+01  2.0047261515012E+01  1.6706171219693E+01  1.3365045300629E+01  1.0023874488594E+01  6.6826495142166E+00  3.3413611079557E+00  0.0000000000000E+00 
 9.8808287945242E-08  1.9761681507132E-07  1.9761765217367E-07  1.9761908720055E-07  1.9762112015710E-07  1.9762375105059E-07  1.9762697989044E-07  1.9763080668821E-07  1.9763523145759E-07  9.8820127109238E-08 
 9.1448444543381E+04  1.8289688908676E+05  1.8289688908676E+05  1.8289688908676E+05  1.8289688908676E+05  1.8289688908676E+05  1.8289688908676E+05  1.8289688908676E+05  1.8289688908676E+05  9.1448444543381E+04 
 3.6579377817303E+05  7.3158755634606E+05  7.3158755634606E+05  7.3158755634606E+05  7.3158755634606E+05  7.3158755634606E+05  7.3158755634606E+05  7.3158755634606E+05  7.3158755634606E+05  3.6579377817303E+05 
 4.5724222271641E+05  9.1448444543282E+05  9.1448444543282E+05  9.1448444543282E+05  9.1448444543282E+05  9.1448444543282E+05  9.1448444543282E+05  9.1448444543282E+05  9.1448444543282E+05  4.5724222271641E+05 
 3.4999999999999E-01  3.4999999999999E-01  3.4999999999999E-01  3.4999999999999E-01  3.4999999999999E-01  3.4999999999999E-01  3.4999999999999E-01  3.4999999999999E-01  3.4999999999999E-01  3.4999999999999E-01 
 8.5301666666667E+00  1.7060333333333E+01  1.7060333333333E+01  1.7060333333333E+01  1.7060333333333E+01  1.7060333333333E+01  1.7060333333333E+01  1.7060333333333E+01  1.7060333333333E+01  8.5301666666667E+00 
 1.9583658666550E-01  1.9583677318904E-01  1.9583750301692E-01  1.9583877615154E-01  1.9584059259693E-01  1.9584295235892E-01  1.9584585544504E-01  1.9584930186455E-01  1.9585329162848E-01  1.9585782475720E-01 
 4.3744444444444E-05  8.7488888888889E-05  8.7488888888889E-05  8.7488888888889E-05  8.7488888888889E-05  8.7488888888889E-05  8.7488888888889E-05  8.7488888888889E-05  8.7488888888889E-05  4.3744444444444E-05 
 8.6666666666644E+01  8.6666666666644E+01  8.6666666666644E+01  8.6666666666644E+01  8.6666666666644E+01  8.6666666666644E+01  8.6666666666644E+01  8.6666666666644E+01  8.6666666666644E+01  8.6666666666644E+01 
 2.1666666666690E+01  2.1666666666690E+01  2.1666666666690E+01  2.1666666666690E+01  2.1666666666690E+01  2.1666666666690E+01  2.1666666666690E+01  2.1666666666690E+01  2.1666666666690E+01  2.1666666666690E+01 
 2.7594721426124E-11  4.3072190407193E-11  9.2380458247726E-11  1.7839576124847E-10  3.0111905393544E-10  4.6055169819154E-10  6.5669546324028E-10  8.8955252573261E-10  1.1591254697196E-09  1.3030912605526E-09 
 1.8396480950749E-03  2.8714793604796E-03  6.1586972165151E-03  1.1893050749898E-02  2.0074603595696E-02  3.0703446546103E-02  4.3779697549352E-02  5.9303501715508E-02  7.7275031314640E-02  8.6872750703504E-02 
 3.0056041722715E-04  1.5028038038250E-03  5.1095457377104E-03  1.1120823106760E-02  1.9536699483441E-02  3.0357265124585E-02  4.3582636970282E-02  5.9212958649652E-02  7.7248400478997E-02  8.6867424388443E-02 
 1.5390876778478E-03  1.3686755566545E-03  1.0491514788047E-03  7.7222764313845E-04  5.3790411225501E-04  3.4618142151796E-04  1.9706057907029E-04  9.0543065855210E-05  2.6630835642435E-05  5.3263150603994E-06 
 0.0000000000000E+00  0.0000000000000E+00  0.0000000000000E+00  0.0000000000000E+00  0.0000000000000E+00  0.0000000000000E+00  0.0000000000000E+00  0.0000000000000E+00  0.0000000000000E+00  0.0000000000000E+00 
 0.0000000000000E+00  0.0000000000000E+00  0.0000000000000E+00  0.0000000000000E+00  0.0000000000000E+00  0.0000000000000E+00  0.0000000000000E+00  0.0000000000000E+00  0.0000000000000E+00  0.0000000000000E+00 
 0.0000000000000E+00  0.0000000000000E+00  0.0000000000000E+00  0.0000000000000E+00  0.0000000000000E+00  0.0000000000000E+00  0.0000000000000E+00  0.0000000000000E+00  0.0000000000000E+00  0.0000000000000E+00 
ZONE T = "ANOD, 6.3635E-08", I = 10, SOLUTIONTIME = 6.363511E-08
ZONETYPE = ORDERED
DATAPACKING = BLOCK
STRANDID = 1
 0.0000000000000E+00  8.7488888888889E-05  1.7497777777778E-04  2.6246666666667E-04  3.4995555555556E-04  4.3744444444444E-04  5.2493333333333E-04  6.1242222222222E-04  6.9991111111111E-04  7.8740000000000E-04 
 1.1600182845529E-09  3.4800570633661E-09  5.8001044883023E-09  8.1210082302855E-09  1.0441512874092E-08  1.2760783621808E-08  1.5081350613516E-08  1.7400696582544E-08  1.9721351669218E-08  2.0880444212385E-08 
 9.1999999999528E-01  9.1999999999528E-01  9.1999999999528E-01  9.1999999999528E-01  9.1999999999528E-01  9.1999999999528E-01  9.1999999999528E-01  9.1999999999528E-01  9.1999999999528E-01  9.1999999999805E-01 
 4.0000000002360E-02  4.0000000002360E-02  4.0000000002360E-02  4.0000000002360E-02  4.0000000002360E-02  4.0000000002360E-02  4.0000000002360E-02  4.0000000002360E-02  4.0000000002360E-02  4.0000000000977E-02 
 4.0000000002360E-02  4.0000000002360E-02  4.0000000002360E-02  4.0000000002360E-02  4.0000000002360E-02  4.0000000002360E-02  4.0000000002360E-02  4.0000000002360E-02  4.0000000002360E-02  4.0000000000977E-02 
 2.9157210872712E-02  2.9157195131675E-02  2.9157147908534E-02  2.9157069203172E-02  2.9156959015384E-02  2.9156817344879E-02  2.9156644191276E-02  2.9156439554109E-02  2.9156203432824E-02  2.9155935826780E-02 
 0.0000000000000E+00 -4.7413232370174E-09 -8.9248643098042E-09 -1.2550621139665E-08 -1.5618590100459E-08 -1.8128766018588E-08 -2.0081142172978E-08 -2.1475710295062E-08 -2.2312460568751E-08 -2.2591381630401E-08 
-2.9157210872712E-02 -2.9157199872998E-02 -2.9157156833399E-02 -2.9157081753793E-02 -2.9156974633974E-02 -2.9156835473645E-02 -2.9156664272418E-02 -2.9156461029819E-02 -2.9156225745284E-02 -2.9155958418161E-02 
-4.0906712749997E-02 -4.0906712750000E-02 -4.0906712749999E-02 -4.0906712749999E-02 -4.0906712749999E-02 -4.0906712750000E-02 -4.0906712750000E-02 -4.0906712749999E-02 -4.0906712750001E-02 -4.0906712750889E-02 
 1.1749501877285E-02  1.1749512877002E-02  1.1749555916600E-02  1.1749630996206E-02  1.1749738116024E-02  1.1749877276355E-02  1.1750048477582E-02  1.1750251720180E-02  1.1750487004717E-02  1.1750754332727E-02 
 1.6705187236468E+00  3.3410406294483E+00  3.3410530805541E+00  3.3410748006551E+00  3.3411057898190E+00  3.3411460481462E+00  3.3411955757631E+00  3.3412543728276E+00  3.3413224395308E+00  1.6706998881311E+00 
 8.6568528672996E-09  2.5970575097579E-08  4.3284361848492E-08  6.0598261154737E-08  7.7912321046275E-08  9.5226589572550E-08  1.1254111474603E-07  1.2985594464198E-07  1.4717161608789E-07  1.4717161608789E-07 
 0.0000000000000E+00  3.3410390383559E+00  6.6820858933143E+00  1.0023149834008E+01  1.3364240129203E+01  1.6705366048214E+01  2.0046536860176E+01  2.3387761834406E+01  2.6729050240711E+01  3.0070411348571E+01 
 3.0070411348522E+01  2.6729372310151E+01  2.3388325455150E+01  2.0047261514545E+01  1.6706171219308E+01  1.3365045300326E+01  1.0023874488371E+01  6.6826495140758E+00  3.3413611078966E+00  0.0000000000000E+00 
 1.1323340545576E-07  2.2646707757062E-07  2.2646802218967E-07  2.2646964477208E-07  2.2647194532355E-07  2.2647492385223E-07  2.2647858036864E-07  2.2648291488569E-07  2.2648792741872E-07  1.1324680899550E-07 
 9.1448444543395E+04  1.8289688908679E+05  1.8289688908679E+05  1.8289688908679E+05  1.8289688908679E+05  1.8289688908679E+05  1.8289688908679E+05  1.8289688908679E+05  1.8289688908679E+05  9.1448444543395E+04 
 3.6579377817301E+05  7.3158755634603E+05  7.3158755634603E+05  7.3158755634603E+05  7.3158755634603E+05  7.3158755634603E+05  7.3158755634603E+05  7.3158755634603E+05  7.3158755634603E+05  3.6579377817301E+05 
 4.5724222271641E+05  9.1448444543282E+05  9.1448444543282E+05  9.1448444543282E+05  9.1448444543282E+05  9.1448444543282E+05  9.1448444543282E+05  9.1448444543282E+05  9.1448444543282E+05  4.5724222271641E+05 
 3.4999999999999E-01  3.4999999999999E-01  3.4999999999999E-01  3.4999999999999E-01  3.4999999999999E-01  3.4999999999999E-01  3.4999999999999E-01  3.4999999999999E-01  3.4999999999999E-01  3.4999999999999E-01 
 8.5301666666667E+00  1.7060333333333E+01  1.7060333333333E+01  1.7060333333333E+01  1.7060333333333E+01  1.7060333333333E+01  1.7060333333333E+01  1.7060333333333E+01  1.7060333333333E+01  8.5301666666667E+00 
 1.9583658666069E-01  1.9583677318428E-01  1.9583750301210E-01  1.9583877614672E-01  1.9584059259211E-01  1.9584295235417E-01  1.9584585544029E-01  1.9584930185973E-01  1.9585329162370E-01  1.9585782475502E-01 
 4.3744444444444E-05  8.7488888888889E-05  8.7488888888889E-05  8.7488888888889E-05  8.7488888888889E-05  8.7488888888889E-05  8.7488888888889E-05  8.7488888888889E-05  8.7488888888889E-05  4.3744444444444E-05 
 8.6666666666640E+01  8.6666666666640E+01  8.6666666666640E+01  8.6666666666640E+01  8.6666666666640E+01  8.6666666666640E+01  8.6666666666640E+01  8.6666666666640E+01  8.6666666666640E+01  8.6666666666640E+01 
 2.1666666666694E+01  2.1666666666694E+01  2.1666666666694E+01  2.1666666666694E+01  2.1666666666694E+01  2.1666666666694E+01  2.1666666666694E+01  2.1666666666694E+01  2.1666666666694E+01  2.1666666666694E+01 
 4.3480290125714E-11  6.7867738410843E-11  1.4556150302901E-10  2.8109359527362E-10  4.7446551915638E-10  7.2567942056389E-10  1.0347380872194E-09  1.4016449488075E-09  1.8264040769627E-09  2.0532472567488E-09 
 1.8396480950045E-03  2.8714793604263E-03  6.1586972158418E-03  1.1893050749283E-02  2.0074603594626E-02  3.0703446544394E-02  4.3779697547220E-02  5.9303501712239E-02  7.7275031310884E-02  8.6872750699461E-02 
 8.2266202666058E-04  4.1133148347794E-03  1.3985305485266E-02  3.0438734945019E-02  5.3473777216649E-02  8.3090679341890E-02  1.1928976139712E-01  1.6207141650779E-01  2.1143611084692E-01  2.3776428065962E-01 
 4.2126271979598E-03  3.7461932534008E-03  2.8716259106000E-03  2.1136594226076E-03  1.4722939607635E-03  9.4753099040803E-04  5.3937327092299E-04  2.4782485578882E-04  7.2891092656250E-05  1.4578623434842E-05 
 0.0000000000000E+00  0.0000000000000E+00  0.0000000000000E+00  0.0000000000000E+00  0.0000000000000E+00  0.0000000000000E+00  0.0000000000000E+00  0.0000000000000E+00  0.0000000000000E+00  0.0000000000000E+00 
 0.0000000000000E+00  0.0000000000000E+00  0.0000000000000E+00  0.0000000000000E+00  0.0000000000000E+00  0.0000000000000E+00  0.0000000000000E+00  0.0000000000000E+00  0.0000000000000E+00  0.0000000000000E+00 
 0.0000000000000E+00  0.0000000000000E+00  0.0000000000000E+00  0.0000000000000E+00  0.0000000000000E+00  0.0000000000000E+00  0.0000000000000E+00  0.0000000000000E+00  0.0000000000000E+00  0.0000000000000E+00 
ZONE T = "ANOD, 7.6588E-08", I = 10, SOLUTIONTIME = 7.658778E-08
ZONETYPE = ORDERED
DATAPACKING = BLOCK
STRANDID = 1
 0.0000000000000E+00  8.7488888888889E-05  1.7497777777778E-04  2.6246666666667E-04  3.4995555555556E-04  4.3744444444444E-04  5.2493333333333E-04  6.1242222222222E-04  6.9991111111111E-04  7.8740000000000E-04 
 1.1600182845349E-09  3.4800570633114E-09  5.8006653111969E-09  8.1207278186662E-09  1.0441372668183E-08  1.2762045473325E-08  1.5081911436265E-08  1.7401818228243E-08  1.9721772286148E-08  2.0883178224119E-08 
 9.1999999999438E-01  9.1999999999438E-01  9.1999999999438E-01  9.1999999999438E-01  9.1999999999438E-01  9.1999999999438E-01  9.1999999999438E-01  9.1999999999438E-01  9.1999999999438E-01  9.1999999999767E-01 
 4.0000000002812E-02  4.0000000002812E-02  4.0000000002812E-02  4.0000000002812E-02  4.0000000002812E-02  4.0000000002812E-02  4.0000000002812E-02  4.0000000002812E-02  4.0000000002812E-02  4.0000000001163E-02 
 4.0000000002812E-02  4.0000000002812E-02  4.0000000002812E-02  4.0000000002812E-02  4.0000000002812E-02  4.0000000002812E-02  4.0000000002812E-02  4.0000000002812E-02  4.0000000002812E-02  4.0000000001163E-02 
 2.9157210872504E-02  2.9157195131467E-02  2.9157147908326E-02  2.9157069202964E-02  2.9156959015176E-02  2.9156817344670E-02  2.9156644191067E-02  2.9156439553900E-02  2.9156203432615E-02  2.9155935826571E-02 
 0.0000000000000E+00 -4.7413232369451E-09 -8.9248643096683E-09 -1.2550621139474E-08 -1.5618590100222E-08 -1.8128766018313E-08 -2.0081142172675E-08 -2.1475710294739E-08 -2.2312460568416E-08 -2.2591381630064E-08 
-2.9157210872504E-02 -2.9157199872790E-02 -2.9157156833190E-02 -2.9157081753585E-02 -2.9156974633766E-02 -2.9156835473436E-02 -2.9156664272209E-02 -2.9156461029610E-02 -2.9156225745076E-02 -2.9155958417953E-02 
-4.0906712749358E-02 -4.0906712749352E-02 -4.0906712749354E-02 -4.0906712749354E-02 -4.0906712749354E-02 -4.0906712749351E-02 -4.0906712749351E-02 -4.0906712749354E-02 -4.0906712749353E-02 -4.0906712750411E-02 
 1.1749501876854E-02  1.1749512876562E-02  1.1749555916164E-02  1.1749630995769E-02  1.1749738115588E-02  1.1749877275915E-02  1.1750048477142E-02  1.1750251719743E-02  1.1750487004278E-02  1.1750754332458E-02 
 1.6705187236209E+00  3.3410406293955E+00  3.3410530805023E+00  3.3410748006031E+00  3.3411057897671E+00  3.3411460480935E+00  3.3411955757103E+00  3.3412543727758E+00  3.3413224394772E+00  1.6706998881171E+00 
 8.6568528658286E-09  2.5970575097872E-08  4.3284361848294E-08  6.0598261151605E-08  7.7912321044900E-08  9.5226589567554E-08  1.1254111474313E-07  1.2985594463997E-07  1.4717170958529E-07  1.4717170958529E-07 
 0.0000000000000E+00  3.3410390383936E+00  6.6820858933898E+00  1.0023149833753E+01  1.3364240128985E+01  1.6705366048035E+01  2.0046536859850E+01  2.3387761833934E+01  2.6729050240046E+01  3.0070411348047E+01 
 3.0070411348063E+01  2.6729372309744E+01  2.3388325454795E+01  2.0047261514243E+01  1.6706171219057E+01  1.3365045300127E+01  1.0023874488225E+01  6.6826495139823E+00  3.3413611078558E+00  0.0000000000000E+00 
 1.3487108172121E-07  2.6974247131889E-07  2.6974357721301E-07  2.6974548112869E-07  2.6974818307255E-07  2.6975168305402E-07  2.6975598108526E-07  2.6976107718124E-07  2.6976697135973E-07  1.3488683182472E-07 
 9.1448444543417E+04  1.8289688908683E+05  1.8289688908683E+05  1.8289688908683E+05  1.8289688908683E+05  1.8289688908683E+05  1.8289688908683E+05  1.8289688908683E+05  1.8289688908683E+05  9.1448444543417E+04 
 3.6579377817299E+05  7.3158755634598E+05  7.3158755634598E+05  7.3158755634598E+05  7.3158755634598E+05  7.3158755634598E+05  7.3158755634598E+05  7.3158755634598E+05  7.3158755634598E+05  3.6579377817299E+05 
 4.5724222271641E+05  9.1448444543282E+05  9.1448444543282E+05  9.1448444543282E+05  9.1448444543282E+05  9.1448444543282E+05  9.1448444543282E+05  9.1448444543282E+05  9.1448444543282E+05  4.5724222271641E+05 
 3.4999999999999E-01  3.4999999999999E-01  3.4999999999999E-01  3.4999999999999E-01  3.4999999999999E-01  3.4999999999999E-01  3.4999999999999E-01  3.4999999999999E-01  3.4999999999999E-01  3.4999999999999E-01 
 8.5301666666667E+00  1.7060333333333E+01  1.7060333333333E+01  1.7060333333333E+01  1.7060333333333E+01  1.7060333333333E+01  1.7060333333333E+01  1.7060333333333E+01  1.7060333333333E+01  8.5301666666667E+00 
 1.9583658665766E-01  1.9583677318119E-01  1.9583750300906E-01  1.9583877614367E-01  1.9584059258907E-01  1.9584295235108E-01  1.9584585543719E-01  1.9584930185669E-01  1.9585329162055E-01  1.9585782475338E-01 
 4.3744444444444E-05  8.7488888888889E-05  8.7488888888889E-05  8.7488888888889E-05  8.7488888888889E-05  8.7488888888889E-05  8.7488888888889E-05  8.7488888888889E-05  8.7488888888889E-05  4.3744444444444E-05 
 8.6666666666635E+01  8.6666666666635E+01  8.6666666666635E+01  8.6666666666635E+01  8.6666666666635E+01  8.6666666666635E+01  8.6666666666635E+01  8.6666666666635E+01  8.6666666666635E+01  8.6666666666635E+01 
 2.1666666666699E+01  2.1666666666699E+01  2.1666666666699E+01  2.1666666666699E+01  2.1666666666699E+01  2.1666666666699E+01  2.1666666666699E+01  2.1666666666699E+01  2.1666666666699E+01  2.1666666666699E+01 
 6.7308643174535E-11  1.0506106041600E-10  2.2533307020126E-10  4.3514034630065E-10  7.3448521697842E-10  1.1233710041078E-09  1.6018020231643E-09  2.1697835833788E-09  2.8273219877690E-09  3.1784812509938E-09 
 1.8396480949609E-03  2.8714793604016E-03  6.1586972158677E-03  1.1893050748458E-02  2.0074603593903E-02  3.0703446543269E-02  4.3779697545387E-02  5.9303501709063E-02  7.7275031306378E-02  8.6872750695649E-02 
 8.4900176833986E-04  4.2450136937063E-03  1.4433082727321E-02  3.1413313068725E-02  5.5185884292788E-02  8.5751051349704E-02  1.2310914456441E-01  1.6726056964841E-01  2.1820580770202E-01  2.4537694482034E-01 
 4.3475058097013E-03  3.8661377254822E-03  2.9635687524570E-03  2.1813339248175E-03  1.5194334193897E-03  9.7786874843062E-04  5.5664275967110E-04  2.5575963637468E-04  7.5224897411564E-05  1.5045397350087E-05 
 0.0000000000000E+00  0.0000000000000E+00  0.0000000000000E+00  0.0000000000000E+00  0.0000000000000E+00  0.0000000000000E+00  0.0000000000000E+00  0.0000000000000E+00  0.0000000000000E+00  0.0000000000000E+00 
 0.0000000000000E+00  0.0000000000000E+00  0.0000000000000E+00  0.0000000000000E+00  0.0000000000000E+00  0.0000000000000E+00  0.0000000000000E+00  0.0000000000000E+00  0.0000000000000E+00  0.0000000000000E+00 
 0.0000000000000E+00  0.0000000000000E+00  0.0000000000000E+00  0.0000000000000E+00  0.0000000000000E+00  0.0000000000000E+00  0.0000000000000E+00  0.0000000000000E+00  0.0000000000000E+00  0.0000000000000E+00 
ZONE T = "ANOD, 9.6017E-08", I = 10, SOLUTIONTIME = 9.601679E-08
ZONETYPE = ORDERED
DATAPACKING = BLOCK
STRANDID = 1
 0.0000000000000E+00  8.7488888888889E-05  1.7497777777778E-04  2.6246666666667E-04  3.4995555555556E-04  4.3744444444444E-04  5.2493333333333E-04  6.1242222222222E-04  6.9991111111111E-04  7.8740000000000E-04 
 1.1602052255011E-09  3.4802440042190E-09  5.8002914290612E-09  8.1207278184627E-09  1.0440437962946E-08  1.2760176063054E-08  1.5080509378423E-08  1.7400883522830E-08  1.9721304933166E-08  2.0881075137415E-08 
 9.1999999999302E-01  9.1999999999302E-01  9.1999999999302E-01  9.1999999999302E-01  9.1999999999302E-01  9.1999999999302E-01  9.1999999999302E-01  9.1999999999302E-01  9.1999999999302E-01  9.1999999999711E-01 
 4.0000000003489E-02  4.0000000003489E-02  4.0000000003489E-02  4.0000000003489E-02  4.0000000003489E-02  4.0000000003489E-02  4.0000000003489E-02  4.0000000003489E-02  4.0000000003489E-02  4.0000000001443E-02 
 4.0000000003489E-02  4.0000000003489E-02  4.0000000003489E-02  4.0000000003489E-02  4.0000000003489E-02  4.0000000003489E-02  4.0000000003489E-02  4.0000000003489E-02  4.0000000003489E-02  4.0000000001443E-02 
 2.9157210872139E-02  2.9157195131102E-02  2.9157147907961E-02  2.9157069202599E-02  2.9156959014811E-02  2.9156817344306E-02  2.9156644190703E-02  2.9156439553536E-02  2.9156203432251E-02  2.9155935826207E-02 
 0.0000000000000E+00 -4.7413232368293E-09 -8.9248643094509E-09 -1.2550621139169E-08 -1.5618590099843E-08 -1.8128766017874E-08 -2.0081142172190E-08 -2.1475710294223E-08 -2.2312460567883E-08 -2.2591381629527E-08 
-2.9157210872139E-02 -2.9157199872425E-02 -2.9157156832826E-02 -2.9157081753220E-02 -2.9156974633402E-02 -2.9156835473072E-02 -2.9156664271845E-02 -2.9156461029246E-02 -2.9156225744712E-02 -2.9155958417588E-02 
-4.0906712748383E-02 -4.0906712748384E-02 -4.0906712748383E-02 -4.0906712748383E-02 -4.0906712748383E-02 -4.0906712748384E-02 -4.0906712748384E-02 -4.0906712748383E-02 -4.0906712748387E-02 -4.0906712749691E-02 
 1.1749501876244E-02  1.1749512875959E-02  1.1749555915558E-02  1.1749630995163E-02  1.1749738114982E-02  1.1749877275312E-02  1.1750048476539E-02  1.1750251719137E-02  1.1750487003675E-02  1.1750754332103E-02 
 1.6705187235794E+00  3.3410406293110E+00  3.3410530804188E+00  3.3410748005196E+00  3.3411057896836E+00  3.3411460480089E+00  3.3411955756257E+00  3.3412543726922E+00  3.3413224393946E+00  1.6706998880941E+00 