TITLE = "Solution on Domain BulkDomain1D_2"
VARIABLES = "x [m]"  
"Vel_axial(0)" 	"MF_sp(ECDMC)" 	"MF_sp(Li+)" 	"MF_sp(PF6-)" 	"Volt(Electroly)" 	"Volt(CathodeVo)" 	
"Potential Drop Electrode-Electrolyte [V]" 	"Surf_0 Equilibrium Potential Drop Electrode-Electrolyte [V]" 	"Overpotential_0 [V]" 	"Current Source [A/m^2]" 	"Li+ flux [kmol/m^2/s]" 	"Electrolyte Current [A/m^2]" 	"Electrode Current [A/m^2]" 	
"Capacity discharged [A-s]" 	"Depth of discharge [-]" 	"Capacity remaining [A-s]" 	"Initial capacity [A-s]" 	"Porosity []" 	"Surface Area [m2/m2] (area per area)" 	"Specific current (per particle area) [A/m^2]" 	"Control volume thickness [m]" 	
"Moles LiCoO2 [mol/m^2] (per electrode area)" 	"Moles CoO2 [mol/m^2] (per electrode area)" 	

ZONE T = "t = 4e-08 [s]" I = 10 SOLUTIONTIME = 4.0000000000000E-08
0.00127 	1.97216e-08 	0.92 	0.04 	0.04 	0.0291555 	3.80009 	
0 	0 	0 	0 	0 	29.2355 	0.834797 	
0 	0 	0 	0 	0.35 	6.604 	-0.252816 	3.38667e-05 	
0.000900955 	0.000600637 	
0.00133773 	1.74028e-08 	0.92 	0.04 	0.04 	0.0291553 	3.80009 	
0 	0 	0 	0 	0 	26.7311 	3.33922 	
0 	0 	0 	0 	0.35 	13.208 	-0.25282 	6.77333e-05 	
0.00180191 	0.00120127 	
0.00140547 	1.50839e-08 	0.92 	0.04 	0.04 	0.0291551 	3.80009 	
0 	0 	0 	0 	0 	23.3917 	6.67857 	
0 	0 	0 	0 	0.35 	13.208 	-0.252836 	6.77333e-05 	
0.00180191 	0.00120127 	
0.0014732 	1.27647e-08 	0.92 	0.04 	0.04 	0.029155 	3.80008 	
0 	0 	0 	0 	0 	20.0521 	10.0182 	
0 	0 	0 	0 	0.35 	13.208 	-0.252863 	6.77333e-05 	
0.00180191 	0.00120127 	
0.00154093 	1.04452e-08 	0.92 	0.04 	0.04 	0.0291549 	3.80007 	
0 	0 	0 	0 	0 	16.712 	13.3583 	
0 	0 	0 	0 	0.35 	13.208 	-0.252901 	6.77333e-05 	
0.00180191 	0.00120127 	
0.00160867 	8.12518e-09 	0.92 	0.04 	0.04 	0.0291547 	3.80006 	
0 	0 	0 	0 	0 	13.3714 	16.6989 	
0 	0 	0 	0 	0.35 	13.208 	-0.252951 	6.77333e-05 	
0.00180191 	0.00120127 	
0.0016764 	5.80462e-09 	0.92 	0.04 	0.04 	0.0291547 	3.80005 	
0 	0 	0 	0 	0 	10.03 	20.0403 	
0 	0 	0 	0 	0.35 	13.208 	-0.253012 	6.77333e-05 	
0.00180191 	0.00120127 	
0.00174413 	3.48341e-09 	0.92 	0.04 	0.04 	0.0291546 	3.80004 	
0 	0 	0 	0 	0 	6.68775 	23.3826 	
0 	0 	0 	0 	0.35 	13.208 	-0.253084 	6.77333e-05 	
0.00180191 	0.00120127 	
0.00181187 	1.16143e-09 	0.92 	0.04 	0.04 	0.0291546 	3.80002 	
0 	0 	0 	0 	0 	3.34446 	26.7259 	
0 	0 	0 	0 	0.35 	13.208 	-0.253168 	6.77333e-05 	
0.00180191 	0.00120127 	
0.0018796 	0 	0.92 	0.04 	0.04 	0.0291545 	3.8 	
0 	0 	0 	0 	0 	0.836272 	29.234 	
0 	0 	0 	0 	0.35 	6.604 	-0.253262 	3.38667e-05 	
0.000900955 	0.000600637 	
ZONE T = "t = 5.5e-08 [s]" I = 10 SOLUTIONTIME = 5.5000000000000E-08
0.00127 	1.97216e-08 	0.92 	0.04 	0.04 	0.0291555 	3.80009 	
3.77094 	3.97141 	-0.200478 	-1.66959 	1.47177e-07 	29.2355 	0.834797 	
-1.84862e-10 	7244.08 	123.593 	141.768 	0.35 	6.604 	-0.252816 	3.38667e-05 	
0.000900955 	0.000600637 	
0.00133773 	1.74028e-08 	0.92 	0.04 	0.04 	0.0291553 	3.80009 	
3.77094 	3.97141 	-0.200479 	-3.33925 	1.29872e-07 	26.7311 	3.33922 	
-3.69732e-10 	14488.2 	247.185 	283.536 	0.35 	13.208 	-0.25282 	6.77333e-05 	
0.00180191 	0.00120127 	
0.00140547 	1.50839e-08 	0.92 	0.04 	0.04 	0.0291551 	3.80009 	
3.77093 	3.97141 	-0.200482 	-3.33946 	1.12566e-07 	23.3917 	6.67857 	
-3.69758e-10 	14488.2 	247.185 	283.536 	0.35 	13.208 	-0.252836 	6.77333e-05 	
0.00180191 	0.00120127 	
0.0014732 	1.27647e-08 	0.92 	0.04 	0.04 	0.029155 	3.80008 	
3.77093 	3.97141 	-0.200488 	-3.33982 	9.5259e-08 	20.0521 	10.0182 	
-3.69803e-10 	14488.2 	247.185 	283.536 	0.35 	13.208 	-0.252863 	6.77333e-05 	
0.00180191 	0.00120127 	
0.00154093 	1.04452e-08 	0.92 	0.04 	0.04 	0.0291549 	3.80007 	
3.77092 	3.97141 	-0.200496 	-3.34032 	7.7949e-08 	16.712 	13.3583 	
-3.69866e-10 	14488.2 	247.185 	283.536 	0.35 	13.208 	-0.252901 	6.77333e-05 	
0.00180191 	0.00120127 	
0.00160867 	8.12518e-09 	0.92 	0.04 	0.04 	0.0291547 	3.80006 	
3.77091 	3.97141 	-0.200506 	-3.34098 	6.06356e-08 	13.3714 	16.6989 	
-3.69948e-10 	14488.2 	247.185 	283.536 	0.35 	13.208 	-0.252951 	6.77333e-05 	
0.00180191 	0.00120127 	
0.0016764 	5.80462e-09 	0.92 	0.04 	0.04 	0.0291547 	3.80005 	
3.7709 	3.97141 	-0.200518 	-3.34178 	4.33181e-08 	10.03 	20.0403 	
-3.70049e-10 	14488.2 	247.185 	283.536 	0.35 	13.208 	-0.253012 	6.77333e-05 	
0.00180191 	0.00120127 	
0.00174413 	3.48341e-09 	0.92 	0.04 	0.04 	0.0291546 	3.80004 	
3.77088 	3.97141 	-0.200533 	-3.34274 	2.59956e-08 	6.68775 	23.3826 	
-3.70168e-10 	14488.2 	247.185 	283.536 	0.35 	13.208 	-0.253084 	6.77333e-05 	
0.00180191 	0.00120127 	
0.00181187 	1.16143e-09 	0.92 	0.04 	0.04 	0.0291546 	3.80002 	
3.77086 	3.97141 	-0.20055 	-3.34384 	8.66735e-09 	3.34446 	26.7259 	
-3.70306e-10 	14488.2 	247.185 	283.536 	0.35 	13.208 	-0.253168 	6.77333e-05 	
0.00180191 	0.00120127 	
0.0018796 	0 	0.92 	0.04 	0.04 	0.0291545 	3.8 	
3.77085 	3.97141 	-0.200569 	-1.67254 	8.66735e-09 	0.836272 	29.234 	
-1.85232e-10 	7244.08 	123.593 	141.768 	0.35 	6.604 	-0.253262 	3.38667e-05 	
0.000900955 	0.000600637 	
ZONE T = "t = 7.75e-08 [s]" I = 10 SOLUTIONTIME = 7.7500000000000E-08
0.00127 	1.97216e-08 	0.92 	0.04 	0.04 	0.0291555 	3.80009 	
3.77094 	3.97141 	-0.200478 	-1.66959 	1.47177e-07 	29.2355 	0.834797 	
-1.22027e-10 	7244.08 	123.593 	141.768 	0.35 	6.604 	-0.252816 	3.38667e-05 	
0.000900955 	0.000600637 	
0.00133773 	1.74028e-08 	0.92 	0.04 	0.04 	0.0291553 	3.80009 	
3.77094 	3.97141 	-0.200479 	-3.33925 	1.29872e-07 	26.7311 	3.33922 	
-2.44059e-10 	14488.2 	247.185 	283.536 	0.35 	13.208 	-0.25282 	6.77333e-05 	
0.00180191 	0.00120127 	
0.00140547 	1.50839e-08 	0.92 	0.04 	0.04 	0.0291551 	3.80009 	
3.77093 	3.97141 	-0.200482 	-3.33946 	1.12566e-07 	23.3917 	6.67857 	
-2.44077e-10 	14488.2 	247.185 	283.536 	0.35 	13.208 	-0.252836 	6.77333e-05 	
0.00180191 	0.00120127 	
0.0014732 	1.27647e-08 	0.92 	0.04 	0.04 	0.029155 	3.80008 	
3.77093 	3.97141 	-0.200488 	-3.33982 	9.5259e-08 	20.0521 	10.0182 	
-2.44109e-10 	14488.2 	247.185 	283.536 	0.35 	13.208 	-0.252863 	6.77333e-05 	
0.00180191 	0.00120127 	
0.00154093 	1.04452e-08 	0.92 	0.04 	0.04 	0.0291549 	3.80007 	
3.77092 	3.97141 	-0.200496 	-3.34032 	7.7949e-08 	16.712 	13.3583 	
-2.44153e-10 	14488.2 	247.185 	283.536 	0.35 	13.208 	-0.252901 	6.77333e-05 	
0.00180191 	0.00120127 	
0.00160867 	8.12518e-09 	0.92 	0.04 	0.04 	0.0291547 	3.80006 	
3.77091 	3.97141 	-0.200506 	-3.34098 	6.06356e-08 	13.3714 	16.6989 	
-2.4421e-10 	14488.2 	247.185 	283.536 	0.35 	13.208 	-0.252951 	6.77333e-05 	
0.00180191 	0.00120127 	
0.0016764 	5.80462e-09 	0.92 	0.04 	0.04 	0.0291547 	3.80005 	
3.7709 	3.97141 	-0.200518 	-3.34178 	4.33181e-08 	10.03 	20.0403 	
-2.44281e-10 	14488.2 	247.185 	283.536 	0.35 	13.208 	-0.253012 	6.77333e-05 	
0.00180191 	0.00120127 	
0.00174413 	3.48341e-09 	0.92 	0.04 	0.04 	0.0291546 	3.80004 	
3.77088 	3.97141 	-0.200533 	-3.34274 	2.59956e-08 	6.68775 	23.3826 	
-2.44364e-10 	14488.2 	247.185 	283.536 	0.35 	13.208 	-0.253084 	6.77333e-05 	
0.00180191 	0.00120127 	
0.00181187 	1.16143e-09 	0.92 	0.04 	0.04 	0.0291546 	3.80002 	
3.77086 	3.97141 	-0.20055 	-3.34384 	8.66735e-09 	3.34446 	26.7259 	
-2.44461e-10 	14488.2 	247.185 	283.536 	0.35 	13.208 	-0.253168 	6.77333e-05 	
0.00180191 	0.00120127 	
0.0018796 	0 	0.92 	0.04 	0.04 	0.0291545 	3.8 	
3.77085 	3.97141 	-0.200569 	-1.67254 	8.66735e-09 	0.836272 	29.234 	
-1.22285e-10 	7244.08 	123.593 	141.768 	0.35 	6.604 	-0.253262 	3.38667e-05 	
0.000900955 	0.000600637 	
ZONE T = "t = 1.1125e-07 [s]" I = 10 SOLUTIONTIME = 1.1125000000000E-07
0.00127 	1.97216e-08 	0.92 	0.04 	0.04 	0.0291555 	3.80009 	
3.77094 	3.97141 	-0.200478 	-1.66959 	1.47177e-07 	29.2355 	0.834797 	
-2.77741e-11 	7244.08 	123.593 	141.768 	0.35 	6.604 	-0.252816 	3.38667e-05 	
0.000900955 	0.000600637 	
0.00133773 	1.74028e-08 	0.92 	0.04 	0.04 	0.0291553 	3.80009 	
3.77094 	3.97141 	-0.200479 	-3.33925 	1.29872e-07 	26.7311 	3.33922 	
-5.555e-11 	14488.2 	247.185 	283.536 	0.35 	13.208 	-0.25282 	6.77333e-05 	
0.00180191 	0.00120127 	
0.00140547 	1.50839e-08 	0.92 	0.04 	0.04 	0.0291551 	3.80009 	
3.77093 	3.97141 	-0.200482 	-3.33946 	1.12566e-07 	23.3917 	6.67857 	
-5.55565e-11 	14488.2 	247.185 	283.536 	0.35 	13.208 	-0.252836 	6.77333e-05 	
0.00180191 	0.00120127 	
0.0014732 	1.27647e-08 	0.92 	0.04 	0.04 	0.029155 	3.80008 	
3.77093 	3.97141 	-0.200488 	-3.33982 	9.5259e-08 	20.0521 	10.0182 	
-5.55677e-11 	14488.2 	247.185 	283.536 	0.35 	13.208 	-0.252863 	6.77333e-05 	
0.00180191 	0.00120127 	
0.00154093 	1.04452e-08 	0.92 	0.04 	0.04 	0.0291549 	3.80007 	
3.77092 	3.97141 	-0.200496 	-3.34032 	7.7949e-08 	16.712 	13.3583 	
-5.55834e-11 	14488.2 	247.185 	283.536 	0.35 	13.208 	-0.252901 	6.77333e-05 	
0.00180191 	0.00120127 	
0.00160867 	8.12518e-09 	0.92 	0.04 	0.04 	0.0291547 	3.80006 	
3.77091 	3.97141 	-0.200506 	-3.34098 	6.06356e-08 	13.3714 	16.6989 	
-5.56038e-11 	14488.2 	247.185 	283.536 	0.35 	13.208 	-0.252951 	6.77333e-05 	
0.00180191 	0.00120127 	
0.0016764 	5.80462e-09 	0.92 	0.04 	0.04 	0.0291547 	3.80005 	
3.7709 	3.97141 	-0.200518 	-3.34178 	4.33181e-08 	10.03 	20.0403 	
-5.56288e-11 	14488.2 	247.185 	283.536 	0.35 	13.208 	-0.253012 	6.77333e-05 	
0.00180191 	0.00120127 	
0.00174413 	3.48341e-09 	0.92 	0.04 	0.04 	0.0291546 	3.80004 	
3.77088 	3.97141 	-0.200533 	-3.34274 	2.59956e-08 	6.68775 	23.3826 	
-5.56585e-11 	14488.2 	247.185 	283.536 	0.35 	13.208 	-0.253084 	6.77333e-05 	
0.00180191 	0.00120127 	
0.00181187 	1.16143e-09 	0.92 	0.04 	0.04 	0.0291546 	3.80002 	
3.77086 	3.97141 	-0.20055 	-3.34384 	8.66735e-09 	3.34446 	26.7259 	
-5.56929e-11 	14488.2 	247.185 	283.536 	0.35 	13.208 	-0.253168 	6.77333e-05 	
0.00180191 	0.00120127 	
0.0018796 	0 	0.92 	0.04 	0.04 	0.0291545 	3.8 	
3.77085 	3.97141 	-0.200569 	-1.67254 	8.66735e-09 	0.836272 	29.234 	
-2.78659e-11 	7244.08 	123.593 	141.768 	0.35 	6.604 	-0.253262 	3.38667e-05 	
0.000900955 	0.000600637 	
ZONE T = "t = 1.61875e-07 [s]" I = 10 SOLUTIONTIME = 1.6187500000000E-07
0.00127 	1.97216e-08 	0.92 	0.04 	0.04 	0.0291555 	3.80009 	
3.77094 	3.97141 	-0.200478 	-1.66959 	1.47178e-07 	29.2355 	0.834797 	
1.13605e-10 	7244.08 	123.593 	141.768 	0.35 	6.604 	-0.252816 	3.38667e-05 	
0.000900955 	0.000600637 	
0.00133773 	1.74028e-08 	0.92 	0.04 	0.04 	0.0291553 	3.80009 	
3.77094 	3.97141 	-0.200479 	-3.33925 	1.29872e-07 	26.7311 	3.33922 	
2.27213e-10 	14488.2 	247.185 	283.536 	0.35 	13.208 	-0.25282 	6.77333e-05 	
0.00180191 	0.00120127 	
0.00140547 	1.50839e-08 	0.92 	0.04 	0.04 	0.0291551 	3.80009 	
3.77093 	3.97141 	-0.200482 	-3.33946 	1.12566e-07 	23.3917 	6.67857 	
2.27225e-10 	14488.2 	247.185 	283.536 	0.35 	13.208 	-0.252836 	6.77333e-05 	
0.00180191 	0.00120127 	
0.0014732 	1.27647e-08 	0.92 	0.04 	0.04 	0.029155 	3.80008 	
3.77093 	3.97141 	-0.200488 	-3.33982 	9.5259e-08 	20.0521 	10.0182 	
2.27244e-10 	14488.2 	247.185 	283.536 	0.35 	13.208 	-0.252863 	6.77333e-05 	
0.00180191 	0.00120127 	
0.00154093 	1.04452e-08 	0.92 	0.04 	0.04 	0.0291549 	3.80007 	
3.77092 	3.97141 	-0.200496 	-3.34032 	7.7949e-08 	16.712 	13.3583 	
2.27271e-10 	14488.2 	247.185 	283.536 	0.35 	13.208 	-0.252901 	6.77333e-05 	
0.00180191 	0.00120127 	
0.00160867 	8.12518e-09 	0.92 	0.04 	0.04 	0.0291547 	3.80006 	
3.77091 	3.97141 	-0.200506 	-3.34098 	6.06356e-08 	13.3714 	16.6989 	
2.27306e-10 	14488.2 	247.185 	283.536 	0.35 	13.208 	-0.252951 	6.77333e-05 	
0.00180191 	0.00120127 	
0.0016764 	5.80462e-09 	0.92 	0.04 	0.04 	0.0291547 	3.80005 	
3.7709 	3.97141 	-0.200518 	-3.34178 	4.33181e-08 	10.03 	20.0403 	
2.27349e-10 	14488.2 	247.185 	283.536 	0.35 	13.208 	-0.253012 	6.77333e-05 	
0.00180191 	0.00120127 	
0.00174413 	3.48341e-09 	0.92 	0.04 	0.04 	0.0291546 	3.80004 	
3.77088 	3.97141 	-0.200533 	-3.34274 	2.59956e-08 	6.68775 	23.3826 	
2.274e-10 	14488.2 	247.185 	283.536 	0.35 	13.208 	-0.253084 	6.77333e-05 	
0.00180191 	0.00120127 	
0.00181187 	1.16143e-09 	0.92 	0.04 	0.04 	0.0291546 	3.80002 	
3.77086 	3.97141 	-0.20055 	-3.34384 	8.66735e-09 	3.34446 	26.7259 	
2.27459e-10 	14488.2 	247.185 	283.536 	0.35 	13.208 	-0.253168 	6.77333e-05 	
0.00180191 	0.00120127 	
0.0018796 	0 	0.92 	0.04 	0.04 	0.0291545 	3.8 	
3.77085 	3.97141 	-0.200569 	-1.67254 	8.66735e-09 	0.836272 	29.234 	
1.13763e-10 	7244.08 	123.593 	141.768 	0.35 	6.604 	-0.253262 	3.38667e-05 	
0.000900955 	0.000600637 	
ZONE T = "t = 2.37812e-07 [s]" I = 10 SOLUTIONTIME = 2.3781250000000E-07
0.00127 	1.97216e-08 	0.92 	0.04 	0.04 	0.0291555 	3.80009 	
3.77094 	3.97141 	-0.200478 	-1.66959 	1.47179e-07 	29.2355 	0.834797 	
3.25674e-10 	7244.08 	123.593 	141.768 	0.35 	6.604 	-0.252816 	3.38667e-05 	
0.000900955 	0.000600637 	
0.00133773 	1.74028e-08 	0.92 	0.04 	0.04 	0.0291553 	3.80009 	
3.77094 	3.97141 	-0.200479 	-3.33925 	1.29872e-07 	26.7311 	3.33922 	
6.51359e-10 	14488.2 	247.185 	283.536 	0.35 	13.208 	-0.25282 	6.77333e-05 	
0.00180191 	0.00120127 	
0.00140547 	1.50839e-08 	0.92 	0.04 	0.04 	0.0291551 	3.80009 	
3.77093 	3.97141 	-0.200482 	-3.33946 	1.12566e-07 	23.3917 	6.67857 	
6.51396e-10 	14488.2 	247.185 	283.536 	0.35 	13.208 	-0.252836 	6.77333e-05 	
0.00180191 	0.00120127 	
0.0014732 	1.27647e-08 	0.92 	0.04 	0.04 	0.029155 	3.80008 	
3.77093 	3.97141 	-0.200488 	-3.33982 	9.5259e-08 	20.0521 	10.0182 	
6.51461e-10 	14488.2 	247.185 	283.536 	0.35 	13.208 	-0.252863 	6.77333e-05 	
0.00180191 	0.00120127 	
0.00154093 	1.04452e-08 	0.92 	0.04 	0.04 	0.0291549 	3.80007 	
3.77092 	3.97141 	-0.200496 	-3.34032 	7.7949e-08 	16.712 	13.3583 	
6.51552e-10 	14488.2 	247.185 	283.536 	0.35 	13.208 	-0.252901 	6.77333e-05 	
0.00180191 	0.00120127 	
0.00160867 	8.12518e-09 	0.92 	0.04 	0.04 	0.0291547 	3.80006 	
3.77091 	3.97141 	-0.200506 	-3.34098 	6.06356e-08 	13.3714 	16.6989 	
6.51671e-10 	14488.2 	247.185 	283.536 	0.35 	13.208 	-0.252951 	6.77333e-05 	
0.00180191 	0.00120127 	
0.0016764 	5.80462e-09 	0.92 	0.04 	0.04 	0.0291547 	3.80005 	
3.7709 	3.97141 	-0.200518 	-3.34178 	4.33181e-08 	10.03 	20.0403 	
6.51816e-10 	14488.2 	247.185 	283.536 	0.35 	13.208 	-0.253012 	6.77333e-05 	
0.00180191 	0.00120127 	
0.00174413 	3.48341e-09 	0.92 	0.04 	0.04 	0.0291546 	3.80004 	
3.77088 	3.97141 	-0.200533 	-3.34274 	2.59956e-08 	6.68775 	23.3826 	
6.51988e-10 	14488.2 	247.185 	283.536 	0.35 	13.208 	-0.253084 	6.77333e-05 	
0.00180191 	0.00120127 	
0.00181187 	1.16143e-09 	0.92 	0.04 	0.04 	0.0291546 	3.80002 	
3.77086 	3.97141 	-0.20055 	-3.34384 	8.66735e-09 	3.34446 	26.7259 	
6.52187e-10 	14488.2 	247.185 	283.536 	0.35 	13.208 	-0.253168 	6.77333e-05 	
0.00180191 	0.00120127 	
0.0018796 	0 	0.92 	0.04 	0.04 	0.0291545 	3.8 	
3.77085 	3.97141 	-0.200569 	-1.67254 	8.66735e-09 	0.836272 	29.234 	
3.26207e-10 	7244.08 	123.593 	141.768 	0.35 	6.604 	-0.253262 	3.38667e-05 	
0.000900955 	0.000600637 	
ZONE T = "t = 3.51719e-07 [s]" I = 10 SOLUTIONTIME = 3.5171875000000E-07
0.00127 	1.97216e-08 	0.92 	0.04 	0.04 	0.0291555 	3.80009 	
3.77094 	3.97141 	-0.200478 	-1.66959 	1.4718e-07 	29.2355 	0.834797 	
6.43777e-10 	7244.08 	123.593 	141.768 	0.35 	6.604 	-0.252816 	3.38667e-05 	
0.000900955 	0.000600637 	
0.00133773 	1.74028e-08 	0.92 	0.04 	0.04 	0.0291553 	3.80009 	
3.77094 	3.97141 	-0.200479 	-3.33925 	1.29872e-07 	26.7311 	3.33922 	
1.28758e-09 	14488.2 	247.185 	283.536 	0.35 	13.208 	-0.25282 	6.77333e-05 	
0.00180191 	0.00120127 	
0.00140547 	1.50839e-08 	0.92 	0.04 	0.04 	0.0291551 	3.80009 	
3.77093 	3.97141 	-0.200482 	-3.33946 	1.12566e-07 	23.3917 	6.67857 	
1.28765e-09 	14488.2 	247.185 	283.536 	0.35 	13.208 	-0.252836 	6.77333e-05 	
0.00180191 	0.00120127 	
0.0014732 	1.27647e-08 	0.92 	0.04 	0.04 	0.029155 	3.80008 	
3.77093 	3.97141 	-0.200488 	-3.33982 	9.5259e-08 	20.0521 	10.0182 	
1.28779e-09 	14488.2 	247.185 	283.536 	0.35 	13.208 	-0.252863 	6.77333e-05 	
0.00180191 	0.00120127 	
0.00154093 	1.04452e-08 	0.92 	0.04 	0.04 	0.0291549 	3.80007 	
3.77092 	3.97141 	-0.200496 	-3.34032 	7.7949e-08 	16.712 	13.3583 	
1.28797e-09 	14488.2 	247.185 	283.536 	0.35 	13.208 	-0.252901 	6.77333e-05 	
0.00180191 	0.00120127 	
0.00160867 	8.12518e-09 	0.92 	0.04 	0.04 	0.0291547 	3.80006 	
3.77091 	3.97141 	-0.200506 	-3.34098 	6.06356e-08 	13.3714 	16.6989 	
1.28822e-09 	14488.2 	247.185 	283.536 	0.35 	13.208 	-0.252951 	6.77333e-05 	
0.00180191 	0.00120127 	
0.0016764 	5.80462e-09 	0.92 	0.04 	0.04 	0.0291547 	3.80005 	
3.7709 	3.97141 	-0.200518 	-3.34178 	4.33181e-08 	10.03 	20.0403 	
1.28852e-09 	14488.2 	247.185 	283.536 	0.35 	13.208 	-0.253012 	6.77333e-05 	
0.00180191 	0.00120127 	
0.00174413 	3.48341e-09 	0.92 	0.04 	0.04 	0.0291546 	3.80004 	
3.77088 	3.97141 	-0.200533 	-3.34274 	2.59956e-08 	6.68775 	23.3826 	
1.28887e-09 	14488.2 	247.185 	283.536 	0.35 	13.208 	-0.253084 	6.77333e-05 	
0.00180191 	0.00120127 	
0.00181187 	1.16143e-09 	0.92 	0.04 	0.04 	0.0291546 	3.80002 	
3.77086 	3.97141 	-0.20055 	-3.34384 	8.66735e-09 	3.34446 	26.7259 	
1.28928e-09 	14488.2 	247.185 	283.536 	0.35 	13.208 	-0.253168 	6.77333e-05 	
0.00180191 	0.00120127 	
0.0018796 	0 	0.92 	0.04 	0.04 	0.0291545 	3.8 	
3.77085 	3.97141 	-0.200569 	-1.67254 	8.66735e-09 	0.836272 	29.234 	
6.44872e-10 	7244.08 	123.593 	141.768 	0.35 	6.604 	-0.253262 	3.38667e-05 	
0.000900955 	0.000600637 	
ZONE T = "t = 5.22578e-07 [s]" I = 10 SOLUTIONTIME = 5.2257812500000E-07
0.00127 	1.97216e-08 	0.92 	0.04 	0.04 	0.0291555 	3.80009 	
3.77094 	3.97141 	-0.200478 	-1.66959 	1.47181e-07 	29.2355 	0.834797 	
1.12093e-09 	7244.08 	123.593 	141.768 	0.35 	6.604 	-0.252816 	3.38667e-05 	
0.000900955 	0.000600637 	
0.00133773 	1.74028e-08 	0.92 	0.04 	0.04 	0.0291553 	3.80009 	
3.77094 	3.97141 	-0.200479 	-3.33925 	1.29872e-07 	26.7311 	3.33922 	
2.2419e-09 	14488.2 	247.185 	283.536 	0.35 	13.208 	-0.25282 	6.77333e-05 	
0.00180191 	0.00120127 	
0.00140547 	1.50839e-08 	0.92 	0.04 	0.04 	0.0291551 	3.80009 	
3.77093 	3.97141 	-0.200482 	-3.33946 	1.12566e-07 	23.3917 	6.67857 	
2.24204e-09 	14488.2 	247.185 	283.536 	0.35 	13.208 	-0.252836 	6.77333e-05 	
0.00180191 	0.00120127 	
0.0014732 	1.27647e-08 	0.92 	0.04 	0.04 	0.029155 	3.80008 	
3.77093 	3.97141 	-0.200488 	-3.33982 	9.5259e-08 	20.0521 	10.0182 	
2.24228e-09 	14488.2 	247.185 	283.536 	0.35 	13.208 	-0.252863 	6.77333e-05 	
0.00180191 	0.00120127 	
0.00154093 	1.04452e-08 	0.92 	0.04 	0.04 	0.0291549 	3.80007 	
3.77092 	3.97141 	-0.200496 	-3.34032 	7.7949e-08 	16.712 	13.3583 	
2.24261e-09 	14488.2 	247.185 	283.536 	0.35 	13.208 	-0.252901 	6.77333e-05 	
0.00180191 	0.00120127 	
0.00160867 	8.12518e-09 	0.92 	0.04 	0.04 	0.0291547 	3.80006 	
3.77091 	3.97141 	-0.200506 	-3.34098 	6.06356e-08 	13.3714 	16.6989 	
2.24304e-09 	14488.2 	247.185 	283.536 	0.35 	13.208 	-0.252951 	6.77333e-05 	
0.00180191 	0.00120127 	
0.0016764 	5.80462e-09 	0.92 	0.04 	0.04 	0.0291547 	3.80005 	
3.7709 	3.97141 	-0.200518 	-3.34178 	4.33181e-08 	10.03 	20.0403 	
2.24357e-09 	14488.2 	247.185 	283.536 	0.35 	13.208 	-0.253012 	6.77333e-05 	
0.00180191 	0.00120127 	
0.00174413 	3.48341e-09 	0.92 	0.04 	0.04 	0.0291546 	3.80004 	
3.77088 	3.97141 	-0.200533 	-3.34274 	2.59956e-08 	6.68775 	23.3826 	
2.24419e-09 	14488.2 	247.185 	283.536 	0.35 	13.208 	-0.253084 	6.77333e-05 	
0.00180191 	0.00120127 	
0.00181187 	1.16143e-09 	0.92 	0.04 	0.04 	0.0291546 	3.80002 	
3.77086 	3.97141 	-0.20055 	-3.34384 	8.66736e-09 	3.34446 	26.7259 	
2.24492e-09 	14488.2 	247.185 	283.536 	0.35 	13.208 	-0.253168 	6.77333e-05 	
0.00180191 	0.00120127 	
0.0018796 	0 	0.92 	0.04 	0.04 	0.0291545 	3.8 	
3.77085 	3.97141 	-0.200569 	-1.67254 	8.66736e-09 	0.836272 	29.234 	
1.12287e-09 	7244.08 	123.593 	141.768 	0.35 	6.604 	-0.253262 	3.38667e-05 	
0.000900955 	0.000600637 	
ZONE T = "t = 7.78867e-07 [s]" I = 10 SOLUTIONTIME = 7.7886718750000E-07
0.00127 	1.97216e-08 	0.92 	0.04 	0.04 	0.0291555 	3.80009 	
3.77094 	3.97141 	-0.200478 	-1.66959 	1.47183e-07 	29.2355 	0.834797 	
1.83666e-09 	7244.08 	123.593 	141.768 	0.35 	6.604 	-0.252816 	3.38667e-05 	
0.000900955 	0.000600637 	
0.00133773 	1.74028e-08 	0.92 	0.04 	0.04 	0.0291553 	3.80009 	
3.77094 	3.97141 	-0.200479 	-3.33925 	1.29872e-07 	26.7311 	3.33922 	
3.67339e-09 	14488.2 	247.185 	283.536 	0.35 	13.208 	-0.25282 	6.77333e-05 	
0.00180191 	0.00120127 	
0.00140547 	1.50839e-08 	0.92 	0.04 	0.04 	0.0291551 	3.80009 	
3.77093 	3.97141 	-0.200482 	-3.33946 	1.12566e-07 	23.3917 	6.67857 	
3.67362e-09 	14488.2 	247.185 	283.536 	0.35 	13.208 	-0.252836 	6.77333e-05 	
0.00180191 	0.00120127 	
0.0014732 	1.27647e-08 	0.92 	0.04 	0.04 	0.029155 	3.80008 	
3.77093 	3.97141 	-0.200488 	-3.33982 	9.5259e-08 	20.0521 	10.0182 	
3.67401e-09 	14488.2 	247.185 	283.536 	0.35 	13.208 	-0.252863 	6.77333e-05 	
0.00180191 	0.00120127 	
0.00154093 	1.04452e-08 	0.92 	0.04 	0.04 	0.0291549 	3.80007 	
3.77092 	3.97141 	-0.200496 	-3.34032 	7.7949e-08 	16.712 	13.3583 	
3.67456e-09 	14488.2 	247.185 	283.536 	0.35 	13.208 	-0.252901 	6.77333e-05 	
0.00180191 	0.00120127 	
0.00160867 	8.12518e-09 	0.92 	0.04 	0.04 	0.0291547 	3.80006 	
3.77091 	3.97141 	-0.200506 	-3.34098 	6.06356e-08 	13.3714 	16.6989 	
3.67527e-09 	14488.2 	247.185 	283.536 	0.35 	13.208 	-0.252951 	6.77333e-05 	
0.00180191 	0.00120127 	
0.0016764 	5.80462e-09 	0.92 	0.04 	0.04 	0.0291547 	3.80005 	
3.7709 	3.97141 	-0.200518 	-3.34178 	4.33181e-08 	10.03 	20.0403 	
3.67614e-09 	14488.2 	247.185 	283.536 	0.35 	13.208 	-0.253012 	6.77333e-05 	
0.00180191 	0.00120127 	
0.00174413 	3.48341e-09 	0.92 	0.04 	0.04 	0.0291546 	3.80004 	
3.77088 	3.97141 	-0.200533 	-3.34274 	2.59956e-08 	6.68775 	23.3826 	
3.67718e-09 	14488.2 	247.185 	283.536 	0.35 	13.208 	-0.253084 	6.77333e-05 	
0.00180191 	0.00120127 	
0.00181187 	1.16143e-09 	0.92 	0.04 	0.04 	0.0291546 	3.80002 	
3.77086 	3.97141 	-0.20055 	-3.34384 	8.66736e-09 	3.34446 	26.7259 	
3.67837e-09 	14488.2 	247.185 	283.536 	0.35 	13.208 	-0.253168 	6.77333e-05 	
0.00180191 	0.00120127 	
0.0018796 	0 	0.92 	0.04 	0.04 	0.0291545 	3.8 	
3.77085 	3.97141 	-0.200569 	-1.67254 	8.66736e-09 	0.836272 	29.234 	
1.83987e-09 	7244.08 	123.593 	141.768 	0.35 	6.604 	-0.253262 	3.38667e-05 	
0.000900955 	0.000600637 	
ZONE T = "t = 1.1633e-06 [s]" I = 10 SOLUTIONTIME = 1.1633007812500E-06
0.00127 	1.97216e-08 	0.92 	0.04 	0.04 	0.0291555 	3.80009 	
3.77094 	3.97141 	-0.200478 	-1.66959 	1.47187e-07 	29.2355 	0.834797 	
2.91026e-09 	7244.08 	123.593 	141.768 	0.35 	6.604 	-0.252816 	3.38667e-05 	
0.000900955 	0.000600637 	
0.00133773 	1.74028e-08 	0.92 	0.04 	0.04 	0.0291553 	3.80009 	
3.77094 	3.97141 	-0.200479 	-3.33925 	1.29872e-07 	26.7311 	3.33922 	
5.82063e-09 	14488.2 	247.185 	283.536 	0.35 	13.208 	-0.25282 	6.77333e-05 	
0.00180191 	0.00120127 	
0.00140547 	1.50839e-08 	0.92 	0.04 	0.04 	0.0291551 	3.80009 	
3.77093 	3.97141 	-0.200482 	-3.33946 	1.12566e-07 	23.3917 	6.67857 	
5.82099e-09 	14488.2 	247.185 	283.536 	0.35 	13.208 	-0.252836 	6.77333e-05 	
0.00180191 	0.00120127 	
0.0014732 	1.27647e-08 	0.92 	0.04 	0.04 	0.029155 	3.80008 	
3.77093 	3.97141 	-0.200488 	-3.33982 	9.5259e-08 	20.0521 	10.0182 	
5.82161e-09 	14488.2 	247.185 	283.536 	0.35 	13.208 	-0.252863 	6.77333e-05 	
0.00180191 	0.00120127 	
0.00154093 	1.04452e-08 	0.92 	0.04 	0.04 	0.0291549 	3.80007 	
3.77092 	3.97141 	-0.200496 	-3.34032 	7.7949e-08 	16.712 	13.3583 	
5.82248e-09 	14488.2 	247.185 	283.536 	0.35 	13.208 	-0.252901 	6.77333e-05 	
0.00180191 	0.00120127 	
0.00160867 	8.12518e-09 	0.92 	0.04 	0.04 	0.0291547 	3.80006 	
3.77091 	3.97141 	-0.200506 	-3.34098 	6.06356e-08 	13.3714 	16.6989 	
5.82362e-09 	14488.2 	247.185 	283.536 	0.35 	13.208 	-0.252951 	6.77333e-05 	
0.00180191 	0.00120127 	
0.0016764 	5.80462e-09 	0.92 	0.04 	0.04 	0.0291547 	3.80005 	
3.7709 	3.97141 	-0.200518 	-3.34178 	4.33181e-08 	10.03 	20.0403 	
5.82501e-09 	14488.2 	247.185 	283.536 	0.35 	13.208 	-0.253012 	6.77333e-05 	
0.00180191 	0.00120127 	
0.00174413 	3.48341e-09 	0.92 	0.04 	0.04 	0.0291546 	3.80004 	
3.77088 	3.97141 	-0.200533 	-3.34274 	2.59956e-08 	6.68775 	23.3826 	
5.82665e-09 	14488.2 	247.185 	283.536 	0.35 	13.208 	-0.253084 	6.77333e-05 	
0.00180191 	0.00120127 	
0.00181187 	1.16143e-09 	0.92 	0.04 	0.04 	0.0291546 	3.80002 	
3.77086 	3.97141 	-0.20055 	-3.34384 	8.66736e-09 	3.34446 	26.7259 	
5.82856e-09 	14488.2 	247.185 	283.536 	0.35 	13.208 	-0.253168 	6.77333e-05 	
0.00180191 	0.00120127 	
0.0018796 	0 	0.92 	0.04 	0.04 	0.0291545 	3.8 	
3.77085 	3.97141 	-0.200569 	-1.67254 	8.66736e-09 	0.836272 	29.234 	
2.91536e-09 	7244.08 	123.593 	141.768 	0.35 	6.604 	-0.253262 	3.38667e-05 	
0.000900955 	0.000600637 	
ZONE T = "t = 1.73995e-06 [s]" I = 10 SOLUTIONTIME = 1.7399511718750E-06
0.00127 	1.97216e-08 	0.92 	0.04 	0.04 	0.0291555 	3.80009 	
3.77094 	3.97141 	-0.200478 	-1.66959 	1.47192e-07 	29.2355 	0.834797 	
4.52066e-09 	7244.08 	123.593 	141.768 	0.35 	6.604 	-0.252816 	3.38667e-05 	
0.000900955 	0.000600637 	
0.00133773 	1.74028e-08 	0.92 	0.04 	0.04 	0.0291553 	3.80009 	
3.77094 	3.97141 	-0.200479 	-3.33925 	1.29872e-07 	26.7311 	3.33922 	
9.04148e-09 	14488.2 	247.185 	283.536 	0.35 	13.208 	-0.25282 	6.77333e-05 	
0.00180191 	0.00120127 	
0.00140547 	1.50839e-08 	0.92 	0.04 	0.04 	0.0291551 	3.80009 	
3.77093 	3.97141 	-0.200482 	-3.33946 	1.12566e-07 	23.3917 	6.67857 	
9.04204e-09 	14488.2 	247.185 	283.536 	0.35 	13.208 	-0.252836 	6.77333e-05 	
0.00180191 	0.00120127 	
0.0014732 	1.27647e-08 	0.92 	0.04 	0.04 	0.029155 	3.80008 	
3.77093 	3.97141 	-0.200488 	-3.33982 	9.5259e-08 	20.0521 	10.0182 	
9.04301e-09 	14488.2 	247.185 	283.536 	0.35 	13.208 	-0.252863 	6.77333e-05 	
0.00180191 	0.00120127 	
0.00154093 	1.04452e-08 	0.92 	0.04 	0.04 	0.0291549 	3.80007 	
3.77092 	3.97141 	-0.200496 	-3.34032 	7.7949e-08 	16.712 	13.3583 	
9.04437e-09 	14488.2 	247.185 	283.536 	0.35 	13.208 	-0.252901 	6.77333e-05 	
0.00180191 	0.00120127 	
0.00160867 	8.12518e-09 	0.92 	0.04 	0.04 	0.0291547 	3.80006 	
3.77091 	3.97141 	-0.200506 	-3.34098 	6.06356e-08 	13.3714 	16.6989 	
9.04613e-09 	14488.2 	247.185 	283.536 	0.35 	13.208 	-0.252951 	6.77333e-05 	
0.00180191 	0.00120127 	
0.0016764 	5.80462e-09 	0.92 	0.04 	0.04 	0.0291547 	3.80005 	
3.7709 	3.97141 	-0.200518 	-3.34178 	4.33181e-08 	10.03 	20.0403 	
9.0483e-09 	14488.2 	247.185 	283.536 	0.35 	13.208 	-0.253012 	6.77333e-05 	
0.00180191 	0.00120127 	
0.00174413 	3.48341e-09 	0.92 	0.04 	0.04 	0.0291546 	3.80004 	
3.77088 	3.97141 	-0.200533 	-3.34274 	2.59956e-08 	6.68775 	23.3826 	
9.05087e-09 	14488.2 	247.185 	283.536 	0.35 	13.208 	-0.253084 	6.77333e-05 	
0.00180191 	0.00120127 	
0.00181187 	1.16143e-09 	0.92 	0.04 	0.04 	0.0291546 	3.80002 	
3.77086 	3.97141 	-0.20055 	-3.34384 	8.66736e-09 	3.34446 	26.7259 	
9.05384e-09 	14488.2 	247.185 	283.536 	0.35 	13.208 	-0.253168 	6.77333e-05 	
0.00180191 	0.00120127 	
0.0018796 	0 	0.92 	0.04 	0.04 	0.0291545 	3.8 	
3.77085 	3.97141 	-0.200569 	-1.67254 	8.66736e-09 	0.836272 	29.234 	
4.5286e-09 	7244.08 	123.593 	141.768 	0.35 	6.604 	-0.253262 	3.38667e-05 	
0.000900955 	0.000600637 	
ZONE T = "t = 2.60493e-06 [s]" I = 10 SOLUTIONTIME = 2.6049267578125E-06
0.00127 	1.97216e-08 	0.92 	0.04 	0.04 	0.0291555 	3.80009 	
3.77094 	3.97141 	-0.200478 	-1.66959 	1.472e-07 	29.2355 	0.834797 	
6.93626e-09 	7244.08 	123.593 	141.768 	0.35 	6.604 	-0.252816 	3.38667e-05 	
0.000900955 	0.000600637 	
0.00133773 	1.74028e-08 	0.92 	0.04 	0.04 	0.0291553 	3.80009 	
3.77094 	3.97141 	-0.200479 	-3.33925 	1.29872e-07 	26.7311 	3.33922 	
1.38728e-08 	14488.2 	247.185 	283.536 	0.35 	13.208 	-0.25282 	6.77333e-05 	
0.00180191 	0.00120127 	
0.00140547 	1.50839e-08 	0.92 	0.04 	0.04 	0.0291551 	3.80009 	
3.77093 	3.97141 	-0.200482 	-3.33946 	1.12566e-07 	23.3917 	6.67857 	
1.38736e-08 	14488.2 	247.185 	283.536 	0.35 	13.208 	-0.252836 	6.77333e-05 	
0.00180191 	0.00120127 	
0.0014732 	1.27647e-08 	0.92 	0.04 	0.04 	0.029155 	3.80008 	
3.77093 	3.97141 	-0.200488 	-3.33982 	9.5259e-08 	20.0521 	10.0182 	
1.38751e-08 	14488.2 	247.185 	283.536 	0.35 	13.208 	-0.252863 	6.77333e-05 	
0.00180191 	0.00120127 	
0.00154093 	1.04452e-08 	0.92 	0.04 	0.04 	0.0291549 	3.80007 	
3.77092 	3.97141 	-0.200496 	-3.34032 	7.7949e-08 	16.712 	13.3583 	
1.38772e-08 	14488.2 	247.185 	283.536 	0.35 	13.208 	-0.252901 	6.77333e-05 	
0.00180191 	0.00120127 	
0.00160867 	8.12518e-09 	0.92 	0.04 	0.04 	0.0291547 	3.80006 	
3.77091 	3.97141 	-0.200506 	-3.34098 	6.06356e-08 	13.3714 	16.6989 	
1.38799e-08 	14488.2 	247.185 	283.536 	0.35 	13.208 	-0.252951 	6.77333e-05 	
0.00180191 	0.00120127 	
0.0016764 	5.80462e-09 	0.92 	0.04 	0.04 	0.0291547 	3.80005 	
3.7709 	3.97141 	-0.200518 	-3.34178 	4.33181e-08 	10.03 	20.0403 	
1.38832e-08 	14488.2 	247.185 	283.536 	0.35 	13.208 	-0.253012 	6.77333e-05 	
0.00180191 	0.00120127 	
0.00174413 	3.48341e-09 	0.92 	0.04 	0.04 	0.0291546 	3.80004 	
3.77088 	3.97141 	-0.200533 	-3.34274 	2.59956e-08 	6.68775 	23.3826 	
1.38872e-08 	14488.2 	247.185 	283.536 	0.35 	13.208 	-0.253084 	6.77333e-05 	
0.00180191 	0.00120127 	
0.00181187 	1.16143e-09 	0.92 	0.04 	0.04 	0.0291546 	3.80002 	
3.77086 	3.97141 	-0.20055 	-3.34384 	8.66737e-09 	3.34446 	26.7259 	
1.38918e-08 	14488.2 	247.185 	283.536 	0.35 	13.208 	-0.253168 	6.77333e-05 	
0.00180191 	0.00120127 	
0.0018796 	0 	0.92 	0.04 	0.04 	0.0291545 	3.8 	
3.77085 	3.97141 	-0.200569 	-1.67254 	8.66737e-09 	0.836272 	29.234 	
6.94847e-09 	7244.08 	123.593 	141.768 	0.35 	6.604 	-0.253262 	3.38667e-05 	
0.000900955 	0.000600637 	
ZONE T = "t = 3.90239e-06 [s]" I = 10 SOLUTIONTIME = 3.9023901367187E-06
0.00127 	1.97216e-08 	0.92 	0.04 	0.04 	0.0291555 	3.80009 	
3.77094 	3.97141 	-0.200478 	-1.66959 	1.47211e-07 	29.2355 	0.834797 	
1.05597e-08 	7244.08 	123.593 	141.768 	0.35 	6.604 	-0.252816 	3.38667e-05 	
0.000900955 	0.000600637 	
0.00133773 	1.74028e-08 	0.92 	0.04 	0.04 	0.0291553 	3.80009 	
3.77094 	3.97141 	-0.200479 	-3.33925 	1.29872e-07 	26.7311 	3.33922 	
2.11197e-08 	14488.2 	247.185 	283.536 	0.35 	13.208 	-0.25282 	6.77333e-05 	
0.00180191 	0.00120127 	
0.00140547 	1.50839e-08 	0.92 	0.04 	0.04 	0.0291551 	3.80009 	