TITLE = "Solution on Domain BulkDomain1D_1"
VARIABLES = "x [m]"  
"Vel_axial(0)" 	"MF_sp(ECDMC)" 	"MF_sp(Li+)" 	"MF_sp(PF6-)" 	"Volt(Electroly)" 	"qHeat_accum [J/m3]" 	"qHeat_step [W/m3]" 	"Joule_Lyte [W/m3]" 	"Joule_Solid [W/m3]" 	
ZONE T = "t = 4e-08 [s]" I = 10 SOLUTIONTIME = 4.0000000000000E-08
0.0007874 	2.0881e-08 	0.92 	0.04 	0.04 	0.029156 	
0 	0.0 	 0.0 	 0.0 	 
0.000841022 	2.0881e-08 	0.92 	0.04 	0.04 	0.0291559 	
0 	0.0 	 0.0 	 0.0 	 
0.000894644 	2.0881e-08 	0.92 	0.04 	0.04 	0.0291559 	
0 	0.0 	 0.0 	 0.0 	 
0.000948267 	2.0881e-08 	0.92 	0.04 	0.04 	0.0291558 	
0 	0.0 	 0.0 	 0.0 	 
0.00100189 	2.0881e-08 	0.92 	0.04 	0.04 	0.0291558 	
0 	0.0 	 0.0 	 0.0 	 
0.00105551 	2.0881e-08 	0.92 	0.04 	0.04 	0.0291557 	
0 	0.0 	 0.0 	 0.0 	 
0.00110913 	2.0881e-08 	0.92 	0.04 	0.04 	0.0291557 	
0 	0.0 	 0.0 	 0.0 	 
0.00116276 	2.0881e-08 	0.92 	0.04 	0.04 	0.0291556 	
0 	0.0 	 0.0 	 0.0 	 
0.00121638 	2.0881e-08 	0.92 	0.04 	0.04 	0.0291556 	
0 	0.0 	 0.0 	 0.0 	 
0.00127 	1.97216e-08 	0.92 	0.04 	0.04 	0.0291555 	
0 	0.0 	 0.0 	 0.0 	 
ZONE T = "t = 5.5e-08 [s]" I = 10 SOLUTIONTIME = 5.5000000000000E-08
0.0007874 	2.08884e-08 	0.92 	0.04 	0.04 	0.0291518 	
4.15908e-10 	0.0277272 	0.0277272 	0 	
0.000841022 	2.08884e-08 	0.92 	0.04 	0.04 	0.0291518 	
4.15908e-10 	0.0277272 	0.0277272 	0 	
0.000894644 	2.08884e-08 	0.92 	0.04 	0.04 	0.0291517 	
4.15908e-10 	0.0277272 	0.0277272 	0 	
0.000948267 	2.08884e-08 	0.92 	0.04 	0.04 	0.0291517 	
4.15908e-10 	0.0277272 	0.0277272 	0 	
0.00100189 	2.08884e-08 	0.92 	0.04 	0.04 	0.0291516 	
4.15908e-10 	0.0277272 	0.0277272 	0 	
0.00105551 	2.08884e-08 	0.92 	0.04 	0.04 	0.0291516 	
4.15908e-10 	0.0277272 	0.0277272 	0 	
0.00110913 	2.08884e-08 	0.92 	0.04 	0.04 	0.0291515 	
4.15908e-10 	0.0277272 	0.0277272 	0 	
0.00116276 	2.08884e-08 	0.92 	0.04 	0.04 	0.0291515 	
4.15908e-10 	0.0277272 	0.0277272 	0 	
0.00121638 	2.08884e-08 	0.92 	0.04 	0.04 	0.0291514 	
4.15908e-10 	0.0277272 	0.0277272 	0 	
0.00127 	1.85695e-08 	0.92 	0.04 	0.04 	0.0291514 	
4.15908e-10 	0.0277272 	0.0277272 	0 	
ZONE T = "t = 7.75e-08 [s]" I = 10 SOLUTIONTIME = 7.7500000000000E-08
0.0007874 	2.08903e-08 	0.92 	0.04 	0.04 	0.0291518 	
1.03977e-09 	0.0277272 	0.0277272 	0 	
0.000841022 	2.08903e-08 	0.92 	0.04 	0.04 	0.0291518 	
1.03977e-09 	0.0277272 	0.0277272 	0 	
0.000894644 	2.08903e-08 	0.92 	0.04 	0.04 	0.0291517 	
1.03977e-09 	0.0277272 	0.0277272 	0 	
0.000948267 	2.08903e-08 	0.92 	0.04 	0.04 	0.0291517 	
1.03977e-09 	0.0277272 	0.0277272 	0 	
0.00100189 	2.08903e-08 	0.92 	0.04 	0.04 	0.0291516 	
1.03977e-09 	0.0277272 	0.0277272 	0 	
0.00105551 	2.08903e-08 	0.92 	0.04 	0.04 	0.0291516 	
1.03977e-09 	0.0277272 	0.0277272 	0 	
0.00110913 	2.08903e-08 	0.92 	0.04 	0.04 	0.0291515 	
1.03977e-09 	0.0277272 	0.0277272 	0 	
0.00116276 	2.08903e-08 	0.92 	0.04 	0.04 	0.0291515 	
1.03977e-09 	0.0277272 	0.0277272 	0 	
0.00121638 	2.08903e-08 	0.92 	0.04 	0.04 	0.0291514 	
1.03977e-09 	0.0277272 	0.0277272 	0 	
0.00127 	1.85717e-08 	0.92 	0.04 	0.04 	0.0291514 	
1.03977e-09 	0.0277272 	0.0277272 	0 	
ZONE T = "t = 1.1125e-07 [s]" I = 10 SOLUTIONTIME = 1.1125000000000E-07
0.0007874 	2.08875e-08 	0.92 	0.04 	0.04 	0.0291518 	
1.97557e-09 	0.0277272 	0.0277272 	0 	
0.000841022 	2.08875e-08 	0.92 	0.04 	0.04 	0.0291518 	
1.97557e-09 	0.0277272 	0.0277272 	0 	
0.000894644 	2.08875e-08 	0.92 	0.04 	0.04 	0.0291517 	
1.97557e-09 	0.0277272 	0.0277272 	0 	
0.000948267 	2.08875e-08 	0.92 	0.04 	0.04 	0.0291517 	
1.97557e-09 	0.0277272 	0.0277272 	0 	
0.00100189 	2.08875e-08 	0.92 	0.04 	0.04 	0.0291516 	
1.97557e-09 	0.0277272 	0.0277272 	0 	
0.00105551 	2.08875e-08 	0.92 	0.04 	0.04 	0.0291516 	
1.97557e-09 	0.0277272 	0.0277272 	0 	
0.00110913 	2.08875e-08 	0.92 	0.04 	0.04 	0.0291515 	
1.97557e-09 	0.0277272 	0.0277272 	0 	
0.00116276 	2.08875e-08 	0.92 	0.04 	0.04 	0.0291515 	
1.97557e-09 	0.0277272 	0.0277272 	0 	
0.00121638 	2.08875e-08 	0.92 	0.04 	0.04 	0.0291514 	
1.97557e-09 	0.0277272 	0.0277272 	0 	
0.00127 	1.85686e-08 	0.92 	0.04 	0.04 	0.0291514 	
1.97557e-09 	0.0277272 	0.0277272 	0 	
ZONE T = "t = 1.61875e-07 [s]" I = 10 SOLUTIONTIME = 1.6187500000000E-07
0.0007874 	2.08886e-08 	0.92 	0.04 	0.04 	0.0291518 	
3.37926e-09 	0.0277272 	0.0277272 	0 	
0.000841022 	2.08886e-08 	0.92 	0.04 	0.04 	0.0291518 	
3.37926e-09 	0.0277272 	0.0277272 	0 	
0.000894644 	2.08886e-08 	0.92 	0.04 	0.04 	0.0291517 	
3.37926e-09 	0.0277272 	0.0277272 	0 	
0.000948267 	2.08886e-08 	0.92 	0.04 	0.04 	0.0291517 	
3.37926e-09 	0.0277272 	0.0277272 	0 	
0.00100189 	2.08886e-08 	0.92 	0.04 	0.04 	0.0291516 	
3.37926e-09 	0.0277272 	0.0277272 	0 	
0.00105551 	2.08886e-08 	0.92 	0.04 	0.04 	0.0291516 	
3.37926e-09 	0.0277272 	0.0277272 	0 	
0.00110913 	2.08886e-08 	0.92 	0.04 	0.04 	0.0291515 	
3.37926e-09 	0.0277272 	0.0277272 	0 	
0.00116276 	2.08886e-08 	0.92 	0.04 	0.04 	0.0291515 	
3.37926e-09 	0.0277272 	0.0277272 	0 	
0.00121638 	2.08886e-08 	0.92 	0.04 	0.04 	0.0291514 	
3.37926e-09 	0.0277272 	0.0277272 	0 	
0.00127 	1.85698e-08 	0.92 	0.04 	0.04 	0.0291514 	
3.37926e-09 	0.0277272 	0.0277272 	0 	
ZONE T = "t = 2.37812e-07 [s]" I = 10 SOLUTIONTIME = 2.3781250000000E-07
0.0007874 	2.08885e-08 	0.92 	0.04 	0.04 	0.0291518 	
5.48479e-09 	0.0277272 	0.0277272 	0 	
0.000841022 	2.08886e-08 	0.92 	0.04 	0.04 	0.0291518 	
5.48479e-09 	0.0277272 	0.0277272 	0 	
0.000894644 	2.08886e-08 	0.92 	0.04 	0.04 	0.0291517 	
5.48479e-09 	0.0277272 	0.0277272 	0 	
0.000948267 	2.08886e-08 	0.92 	0.04 	0.04 	0.0291517 	
5.48479e-09 	0.0277272 	0.0277272 	0 	
0.00100189 	2.08886e-08 	0.92 	0.04 	0.04 	0.0291516 	
5.48479e-09 	0.0277272 	0.0277272 	0 	
0.00105551 	2.08886e-08 	0.92 	0.04 	0.04 	0.0291516 	
5.48479e-09 	0.0277272 	0.0277272 	0 	
0.00110913 	2.08886e-08 	0.92 	0.04 	0.04 	0.0291515 	
5.48479e-09 	0.0277272 	0.0277272 	0 	
0.00116276 	2.08886e-08 	0.92 	0.04 	0.04 	0.0291515 	
5.48479e-09 	0.0277272 	0.0277272 	0 	
0.00121638 	2.08885e-08 	0.92 	0.04 	0.04 	0.0291514 	
5.48479e-09 	0.0277272 	0.0277272 	0 	
0.00127 	1.85695e-08 	0.92 	0.04 	0.04 	0.0291514 	
5.48479e-09 	0.0277272 	0.0277272 	0 	
ZONE T = "t = 3.51719e-07 [s]" I = 10 SOLUTIONTIME = 3.5171875000000E-07
0.0007874 	2.08885e-08 	0.92 	0.04 	0.04 	0.0291518 	
8.6431e-09 	0.0277272 	0.0277272 	0 	
0.000841022 	2.08885e-08 	0.92 	0.04 	0.04 	0.0291518 	
8.6431e-09 	0.0277272 	0.0277272 	0 	
0.000894644 	2.08885e-08 	0.92 	0.04 	0.04 	0.0291517 	
8.6431e-09 	0.0277272 	0.0277272 	0 	
0.000948267 	2.08885e-08 	0.92 	0.04 	0.04 	0.0291517 	
8.6431e-09 	0.0277272 	0.0277272 	0 	
0.00100189 	2.08885e-08 	0.92 	0.04 	0.04 	0.0291516 	
8.6431e-09 	0.0277272 	0.0277272 	0 	
0.00105551 	2.08885e-08 	0.92 	0.04 	0.04 	0.0291516 	
8.6431e-09 	0.0277272 	0.0277272 	0 	
0.00110913 	2.08885e-08 	0.92 	0.04 	0.04 	0.0291515 	
8.6431e-09 	0.0277272 	0.0277272 	0 	
0.00116276 	2.08885e-08 	0.92 	0.04 	0.04 	0.0291515 	
8.6431e-09 	0.0277272 	0.0277272 	0 	
0.00121638 	2.08885e-08 	0.92 	0.04 	0.04 	0.0291514 	
8.6431e-09 	0.0277272 	0.0277272 	0 	
0.00127 	1.85696e-08 	0.92 	0.04 	0.04 	0.0291514 	
8.6431e-09 	0.0277272 	0.0277272 	0 	
ZONE T = "t = 5.22578e-07 [s]" I = 10 SOLUTIONTIME = 5.2257812500000E-07
0.0007874 	2.08883e-08 	0.92 	0.04 	0.04 	0.0291518 	
1.33806e-08 	0.0277272 	0.0277272 	0 	
0.000841022 	2.08883e-08 	0.92 	0.04 	0.04 	0.0291518 	
1.33806e-08 	0.0277272 	0.0277272 	0 	
0.000894644 	2.08883e-08 	0.92 	0.04 	0.04 	0.0291517 	
1.33806e-08 	0.0277272 	0.0277272 	0 	
0.000948267 	2.08883e-08 	0.92 	0.04 	0.04 	0.0291517 	
1.33806e-08 	0.0277272 	0.0277272 	0 	
0.00100189 	2.08883e-08 	0.92 	0.04 	0.04 	0.0291516 	
1.33806e-08 	0.0277272 	0.0277272 	0 	
0.00105551 	2.08883e-08 	0.92 	0.04 	0.04 	0.0291516 	
1.33806e-08 	0.0277272 	0.0277272 	0 	
0.00110913 	2.08883e-08 	0.92 	0.04 	0.04 	0.0291515 	
1.33806e-08 	0.0277272 	0.0277272 	0 	
0.00116276 	2.08883e-08 	0.92 	0.04 	0.04 	0.0291515 	
1.33806e-08 	0.0277272 	0.0277272 	0 	
0.00121638 	2.08883e-08 	0.92 	0.04 	0.04 	0.0291514 	
1.33806e-08 	0.0277272 	0.0277272 	0 	
0.00127 	1.85695e-08 	0.92 	0.04 	0.04 	0.0291514 	
1.33806e-08 	0.0277272 	0.0277272 	0 	
ZONE T = "t = 7.78867e-07 [s]" I = 10 SOLUTIONTIME = 7.7886718750000E-07
0.0007874 	2.08887e-08 	0.92 	0.04 	0.04 	0.0291518 	
2.04867e-08 	0.0277272 	0.0277272 	0 	
0.000841022 	2.08887e-08 	0.92 	0.04 	0.04 	0.0291518 	
2.04867e-08 	0.0277272 	0.0277272 	0 	
0.000894644 	2.08887e-08 	0.92 	0.04 	0.04 	0.0291517 	
2.04867e-08 	0.0277272 	0.0277272 	0 	
0.000948267 	2.08887e-08 	0.92 	0.04 	0.04 	0.0291517 	
2.04867e-08 	0.0277272 	0.0277272 	0 	
0.00100189 	2.08887e-08 	0.92 	0.04 	0.04 	0.0291516 	
2.04867e-08 	0.0277272 	0.0277272 	0 	
0.00105551 	2.08887e-08 	0.92 	0.04 	0.04 	0.0291516 	
2.04867e-08 	0.0277272 	0.0277272 	0 	
0.00110913 	2.08887e-08 	0.92 	0.04 	0.04 	0.0291515 	
2.04867e-08 	0.0277272 	0.0277272 	0 	
0.00116276 	2.08887e-08 	0.92 	0.04 	0.04 	0.0291515 	
2.04867e-08 	0.0277272 	0.0277272 	0 	
0.00121638 	2.08887e-08 	0.92 	0.04 	0.04 	0.0291514 	
2.04867e-08 	0.0277272 	0.0277272 	0 	
0.00127 	1.85698e-08 	0.92 	0.04 	0.04 	0.0291514 	
2.04867e-08 	0.0277272 	0.0277272 	0 	
ZONE T = "t = 1.1633e-06 [s]" I = 10 SOLUTIONTIME = 1.1633007812500E-06
0.0007874 	2.08885e-08 	0.92 	0.04 	0.04 	0.0291518 	
3.1146e-08 	0.0277272 	0.0277272 	0 	
0.000841022 	2.08885e-08 	0.92 	0.04 	0.04 	0.0291518 	
3.1146e-08 	0.0277272 	0.0277272 	0 	
0.000894644 	2.08885e-08 	0.92 	0.04 	0.04 	0.0291517 	
3.1146e-08 	0.0277272 	0.0277272 	0 	
0.000948267 	2.08885e-08 	0.92 	0.04 	0.04 	0.0291517 	
3.1146e-08 	0.0277272 	0.0277272 	0 	
0.00100189 	2.08885e-08 	0.92 	0.04 	0.04 	0.0291516 	
3.1146e-08 	0.0277272 	0.0277272 	0 	
0.00105551 	2.08885e-08 	0.92 	0.04 	0.04 	0.0291516 	
3.1146e-08 	0.0277272 	0.0277272 	0 	
0.00110913 	2.08885e-08 	0.92 	0.04 	0.04 	0.0291515 	
3.1146e-08 	0.0277272 	0.0277272 	0 	
0.00116276 	2.08885e-08 	0.92 	0.04 	0.04 	0.0291515 	
3.1146e-08 	0.0277272 	0.0277272 	0 	
0.00121638 	2.08885e-08 	0.92 	0.04 	0.04 	0.0291514 	
3.1146e-08 	0.0277272 	0.0277272 	0 	
0.00127 	1.85696e-08 	0.92 	0.04 	0.04 	0.0291514 	
3.1146e-08 	0.0277272 	0.0277272 	0 	
ZONE T = "t = 1.73995e-06 [s]" I = 10 SOLUTIONTIME = 1.7399511718750E-06
0.0007874 	2.08885e-08 	0.92 	0.04 	0.04 	0.0291518 	
4.71349e-08 	0.0277272 	0.0277272 	0 	
0.000841022 	2.08885e-08 	0.92 	0.04 	0.04 	0.0291518 	
4.71349e-08 	0.0277272 	0.0277272 	0 	
0.000894644 	2.08885e-08 	0.92 	0.04 	0.04 	0.0291517 	
4.71349e-08 	0.0277272 	0.0277272 	0 	
0.000948267 	2.08885e-08 	0.92 	0.04 	0.04 	0.0291517 	
4.71349e-08 	0.0277272 	0.0277272 	0 	
0.00100189 	2.08885e-08 	0.92 	0.04 	0.04 	0.0291516 	
4.71349e-08 	0.0277272 	0.0277272 	0 	
0.00105551 	2.08885e-08 	0.92 	0.04 	0.04 	0.0291516 	
4.71349e-08 	0.0277272 	0.0277272 	0 	
0.00110913 	2.08885e-08 	0.92 	0.04 	0.04 	0.0291515 	
4.71349e-08 	0.0277272 	0.0277272 	0 	
0.00116276 	2.08885e-08 	0.92 	0.04 	0.04 	0.0291515 	
4.71349e-08 	0.0277272 	0.0277272 	0 	
0.00121638 	2.08885e-08 	0.92 	0.04 	0.04 	0.0291514 	
4.71349e-08 	0.0277272 	0.0277272 	0 	
0.00127 	1.85696e-08 	0.92 	0.04 	0.04 	0.0291514 	
4.71349e-08 	0.0277272 	0.0277272 	0 	
ZONE T = "t = 2.60493e-06 [s]" I = 10 SOLUTIONTIME = 2.6049267578125E-06
0.0007874 	2.08885e-08 	0.92 	0.04 	0.04 	0.0291518 	
7.11183e-08 	0.0277272 	0.0277272 	0 	
0.000841022 	2.08885e-08 	0.92 	0.04 	0.04 	0.0291518 	
7.11183e-08 	0.0277272 	0.0277272 	0 	
0.000894644 	2.08885e-08 	0.92 	0.04 	0.04 	0.0291517 	
7.11183e-08 	0.0277272 	0.0277272 	0 	
0.000948267 	2.08885e-08 	0.92 	0.04 	0.04 	0.0291517 	
7.11183e-08 	0.0277272 	0.0277272 	0 	
0.00100189 	2.08885e-08 	0.92 	0.04 	0.04 	0.0291516 	
7.11183e-08 	0.0277272 	0.0277272 	0 	
0.00105551 	2.08885e-08 	0.92 	0.04 	0.04 	0.0291516 	
7.11183e-08 	0.0277272 	0.0277272 	0 	
0.00110913 	2.08885e-08 	0.92 	0.04 	0.04 	0.0291515 	
7.11183e-08 	0.0277272 	0.0277272 	0 	
0.00116276 	2.08885e-08 	0.92 	0.04 	0.04 	0.0291515 	
7.11183e-08 	0.0277272 	0.0277272 	0 	
0.00121638 	2.08885e-08 	0.92 	0.04 	0.04 	0.0291514 	
7.11183e-08 	0.0277272 	0.0277272 	0 	
0.00127 	1.85697e-08 	0.92 	0.04 	0.04 	0.0291514 	
7.11183e-08 	0.0277272 	0.0277272 	0 	
ZONE T = "t = 3.90239e-06 [s]" I = 10 SOLUTIONTIME = 3.9023901367187E-06
0.0007874 	2.08885e-08 	0.92 	0.04 	0.04 	0.0291518 	
1.07093e-07 	0.0277272 	0.0277272 	0 	
0.000841022 	2.08885e-08 	0.92 	0.04 	0.04 	0.0291518 	
1.07093e-07 	0.0277272 	0.0277272 	0 	
0.000894644 	2.08885e-08 	0.92 	0.04 	0.04 	0.0291517 	
1.07093e-07 	0.0277272 	0.0277272 	0 	
0.000948267 	2.08885e-08 	0.92 	0.04 	0.04 	0.0291517 	
1.07093e-07 	0.0277272 	0.0277272 	0 	
0.00100189 	2.08885e-08 	0.92 	0.04 	0.04 	0.0291516 	
1.07093e-07 	0.0277272 	0.0277272 	0 	
0.00105551 	2.08885e-08 	0.92 	0.04 	0.04 	0.0291516 	
1.07093e-07 	0.0277272 	0.0277272 	0 	
0.00110913 	2.08885e-08 	0.92 	0.04 	0.04 	0.0291515 	
1.07093e-07 	0.0277272 	0.0277272 	0 	
0.00116276 	2.08885e-08 	0.92 	0.04 	0.04 	0.0291515 	
1.07093e-07 	0.0277272 	0.0277272 	0 	
0.00121638 	2.08885e-08 	0.92 	0.04 	0.04 	0.0291514 	
1.07093e-07 	0.0277272 	0.0277272 	0 	
0.00127 	1.85697e-08 	0.92 	0.04 	0.04 	0.0291514 	
1.07093e-07 	0.0277272 	0.0277272 	0 	
ZONE T = "t = 5.84859e-06 [s]" I = 10 SOLUTIONTIME = 5.8485852050781E-06
0.0007874 	2.08885e-08 	0.92 	0.04 	0.04 	0.0291518 	
1.61056e-07 	0.0277272 	0.0277272 	0 	
0.000841022 	2.08885e-08 	0.92 	0.04 	0.04 	0.0291518 	
1.61056e-07 	0.0277272 	0.0277272 	0 	
0.000894644 	2.08885e-08 	0.92 	0.04 	0.04 	0.0291517 	
1.61056e-07 	0.0277272 	0.0277272 	0 	
0.000948267 	2.08885e-08 	0.92 	0.04 	0.04 	0.0291517 	
1.61056e-07 	0.0277272 	0.0277272 	0 	
0.00100189 	2.08885e-08 	0.92 	0.04 	0.04 	0.0291516 	
1.61056e-07 	0.0277272 	0.0277272 	0 	
0.00105551 	2.08885e-08 	0.92 	0.04 	0.04 	0.0291516 	
1.61056e-07 	0.0277272 	0.0277272 	0 	
0.00110913 	2.08885e-08 	0.92 	0.04 	0.04 	0.0291515 	
1.61056e-07 	0.0277272 	0.0277272 	0 	
0.00116276 	2.08885e-08 	0.92 	0.04 	0.04 	0.0291515 	
1.61056e-07 	0.0277272 	0.0277272 	0 	
0.00121638 	2.08885e-08 	0.92 	0.04 	0.04 	0.0291514 	
1.61056e-07 	0.0277272 	0.0277272 	0 	
0.00127 	1.85697e-08 	0.92 	0.04 	0.04 	0.0291514 	
1.61056e-07 	0.0277272 	0.0277272 	0 	
ZONE T = "t = 8.76788e-06 [s]" I = 10 SOLUTIONTIME = 8.7678778076172E-06
0.0007874 	2.08885e-08 	0.92 	0.04 	0.04 	0.0291518 	
2.42e-07 	0.0277272 	0.0277272 	0 	
0.000841022 	2.08885e-08 	0.92 	0.04 	0.04 	0.0291518 	
2.42e-07 	0.0277272 	0.0277272 	0 	
0.000894644 	2.08885e-08 	0.92 	0.04 	0.04 	0.0291517 	
2.42e-07 	0.0277272 	0.0277272 	0 	
0.000948267 	2.08885e-08 	0.92 	0.04 	0.04 	0.0291517 	
2.42e-07 	0.0277272 	0.0277272 	0 	
0.00100189 	2.08885e-08 	0.92 	0.04 	0.04 	0.0291516 	
2.42e-07 	0.0277272 	0.0277272 	0 	
0.00105551 	2.08885e-08 	0.92 	0.04 	0.04 	0.0291516 	
2.42e-07 	0.0277272 	0.0277272 	0 	
0.00110913 	2.08885e-08 	0.92 	0.04 	0.04 	0.0291515 	
2.42e-07 	0.0277272 	0.0277272 	0 	
0.00116276 	2.08885e-08 	0.92 	0.04 	0.04 	0.0291515 	
2.42e-07 	0.0277272 	0.0277272 	0 	
0.00121638 	2.08885e-08 	0.92 	0.04 	0.04 	0.0291514 	
2.42e-07 	0.0277272 	0.0277272 	0 	
0.00127 	1.85697e-08 	0.92 	0.04 	0.04 	0.0291514 	
2.42e-07 	0.0277272 	0.0277272 	0 	
ZONE T = "t = 1.31468e-05 [s]" I = 10 SOLUTIONTIME = 1.3146816711426E-05
0.0007874 	2.08885e-08 	0.92 	0.04 	0.04 	0.0291518 	
3.63416e-07 	0.0277272 	0.0277272 	0 	
0.000841022 	2.08885e-08 	0.92 	0.04 	0.04 	0.0291518 	
3.63416e-07 	0.0277272 	0.0277272 	0 	
0.000894644 	2.08885e-08 	0.92 	0.04 	0.04 	0.0291517 	
3.63416e-07 	0.0277272 	0.0277272 	0 	
0.000948267 	2.08885e-08 	0.92 	0.04 	0.04 	0.0291517 	
3.63416e-07 	0.0277272 	0.0277272 	0 	
0.00100189 	2.08885e-08 	0.92 	0.04 	0.04 	0.0291516 	
3.63416e-07 	0.0277272 	0.0277272 	0 	
0.00105551 	2.08885e-08 	0.92 	0.04 	0.04 	0.0291516 	
3.63416e-07 	0.0277272 	0.0277272 	0 	
0.00110913 	2.08885e-08 	0.92 	0.04 	0.04 	0.0291515 	
3.63416e-07 	0.0277272 	0.0277272 	0 	
0.00116276 	2.08885e-08 	0.92 	0.04 	0.04 	0.0291515 	
3.63416e-07 	0.0277272 	0.0277272 	0 	
0.00121638 	2.08885e-08 	0.92 	0.04 	0.04 	0.0291514 	
3.63416e-07 	0.0277272 	0.0277272 	0 	
0.00127 	1.85697e-08 	0.92 	0.04 	0.04 	0.0291514 	
3.63416e-07 	0.0277272 	0.0277272 	0 	
ZONE T = "t = 1.97152e-05 [s]" I = 10 SOLUTIONTIME = 1.9715225067139E-05
0.0007874 	2.08885e-08 	0.92 	0.04 	0.04 	0.0291518 	
5.45539e-07 	0.0277272 	0.0277272 	0 	
0.000841022 	2.08885e-08 	0.92 	0.04 	0.04 	0.0291518 	
5.45539e-07 	0.0277272 	0.0277272 	0 	
0.000894644 	2.08885e-08 	0.92 	0.04 	0.04 	0.0291517 	
5.45539e-07 	0.0277272 	0.0277272 	0 	
0.000948267 	2.08885e-08 	0.92 	0.04 	0.04 	0.0291517 	
5.45539e-07 	0.0277272 	0.0277272 	0 	
0.00100189 	2.08885e-08 	0.92 	0.04 	0.04 	0.0291516 	
5.45539e-07 	0.0277272 	0.0277272 	0 	
0.00105551 	2.08885e-08 	0.92 	0.04 	0.04 	0.0291516 	
5.45539e-07 	0.0277272 	0.0277272 	0 	
0.00110913 	2.08885e-08 	0.92 	0.04 	0.04 	0.0291515 	
5.45539e-07 	0.0277272 	0.0277272 	0 	
0.00116276 	2.08885e-08 	0.92 	0.04 	0.04 	0.0291515 	
5.45539e-07 	0.0277272 	0.0277272 	0 	
0.00121638 	2.08885e-08 	0.92 	0.04 	0.04 	0.0291514 	
5.45539e-07 	0.0277272 	0.0277272 	0 	
0.00127 	1.85697e-08 	0.92 	0.04 	0.04 	0.0291514 	
5.45539e-07 	0.0277272 	0.0277272 	0 	
ZONE T = "t = 2.95678e-05 [s]" I = 10 SOLUTIONTIME = 2.9567837600708E-05
0.0007874 	2.08885e-08 	0.92 	0.04 	0.04 	0.0291518 	
8.18725e-07 	0.0277272 	0.0277272 	0 	
0.000841022 	2.08885e-08 	0.92 	0.04 	0.04 	0.0291518 	
8.18725e-07 	0.0277272 	0.0277272 	0 	
0.000894644 	2.08885e-08 	0.92 	0.04 	0.04 	0.0291517 	
8.18725e-07 	0.0277272 	0.0277272 	0 	
0.000948267 	2.08885e-08 	0.92 	0.04 	0.04 	0.0291517 	
8.18725e-07 	0.0277272 	0.0277272 	0 	
0.00100189 	2.08885e-08 	0.92 	0.04 	0.04 	0.0291516 	
8.18725e-07 	0.0277272 	0.0277272 	0 	
0.00105551 	2.08885e-08 	0.92 	0.04 	0.04 	0.0291516 	
8.18725e-07 	0.0277272 	0.0277272 	0 	
0.00110913 	2.08885e-08 	0.92 	0.04 	0.04 	0.0291515 	
8.18725e-07 	0.0277272 	0.0277272 	0 	
0.00116276 	2.08885e-08 	0.92 	0.04 	0.04 	0.0291515 	
8.18725e-07 	0.0277272 	0.0277272 	0 	
0.00121638 	2.08885e-08 	0.92 	0.04 	0.04 	0.0291514 	
8.18725e-07 	0.0277272 	0.0277272 	0 	
0.00127 	1.85697e-08 	0.92 	0.04 	0.04 	0.0291514 	
8.18725e-07 	0.0277272 	0.0277272 	0 	
ZONE T = "t = 4.43468e-05 [s]" I = 10 SOLUTIONTIME = 4.4346756401062E-05
0.0007874 	2.08885e-08 	0.92 	0.04 	0.04 	0.0291518 	
1.2285e-06 	0.0277272 	0.0277272 	0 	
0.000841022 	2.08885e-08 	0.92 	0.04 	0.04 	0.0291518 	
1.2285e-06 	0.0277272 	0.0277272 	0 	
0.000894644 	2.08885e-08 	0.92 	0.04 	0.04 	0.0291517 	
1.2285e-06 	0.0277272 	0.0277272 	0 	
0.000948267 	2.08885e-08 	0.92 	0.04 	0.04 	0.0291517 	
1.2285e-06 	0.0277272 	0.0277272 	0 	
0.00100189 	2.08885e-08 	0.92 	0.04 	0.04 	0.0291516 	
1.2285e-06 	0.0277272 	0.0277272 	0 	
0.00105551 	2.08885e-08 	0.92 	0.04 	0.04 	0.0291516 	
1.2285e-06 	0.0277272 	0.0277272 	0 	
0.00110913 	2.08885e-08 	0.92 	0.04 	0.04 	0.0291515 	
1.2285e-06 	0.0277272 	0.0277272 	0 	
0.00116276 	2.08885e-08 	0.92 	0.04 	0.04 	0.0291515 	
1.2285e-06 	0.0277272 	0.0277272 	0 	
0.00121638 	2.08885e-08 	0.92 	0.04 	0.04 	0.0291514 	
1.2285e-06 	0.0277272 	0.0277272 	0 	
0.00127 	1.85697e-08 	0.92 	0.04 	0.04 	0.0291514 	
1.2285e-06 	0.0277272 	0.0277272 	0 	
ZONE T = "t = 6.65151e-05 [s]" I = 10 SOLUTIONTIME = 6.6515134601593E-05
0.0007874 	2.08885e-08 	0.92 	0.04 	0.04 	0.0291518 	
1.84317e-06 	0.0277272 	0.0277272 	0 	
0.000841022 	2.08885e-08 	0.92 	0.04 	0.04 	0.0291518 	
1.84317e-06 	0.0277272 	0.0277272 	0 	
0.000894644 	2.08885e-08 	0.92 	0.04 	0.04 	0.0291517 	
1.84317e-06 	0.0277272 	0.0277272 	0 	
0.000948267 	2.08885e-08 	0.92 	0.04 	0.04 	0.0291517 	
1.84317e-06 	0.0277272 	0.0277272 	0 	
0.00100189 	2.08885e-08 	0.92 	0.04 	0.04 	0.0291516 	
1.84317e-06 	0.0277272 	0.0277272 	0 	
0.00105551 	2.08885e-08 	0.92 	0.04 	0.04 	0.0291516 	
1.84317e-06 	0.0277272 	0.0277272 	0 	
0.00110913 	2.08885e-08 	0.92 	0.04 	0.04 	0.0291515 	
1.84317e-06 	0.0277272 	0.0277272 	0 	
0.00116276 	2.08885e-08 	0.92 	0.04 	0.04 	0.0291515 	
1.84317e-06 	0.0277272 	0.0277272 	0 	
0.00121638 	2.08885e-08 	0.92 	0.04 	0.04 	0.0291514 	
1.84317e-06 	0.0277272 	0.0277272 	0 	
0.00127 	1.85697e-08 	0.92 	0.04 	0.04 	0.0291514 	
1.84317e-06 	0.0277272 	0.0277272 	0 	
ZONE T = "t = 9.97677e-05 [s]" I = 10 SOLUTIONTIME = 9.9767701902390E-05
0.0007874 	2.08885e-08 	0.92 	0.04 	0.04 	0.0291518 	
2.76517e-06 	0.0277272 	0.0277272 	0 	
0.000841022 	2.08885e-08 	0.92 	0.04 	0.04 	0.0291518 	
2.76517e-06 	0.0277272 	0.0277272 	0 	
0.000894644 	2.08885e-08 	0.92 	0.04 	0.04 	0.0291517 	
2.76517e-06 	0.0277272 	0.0277272 	0 	
0.000948267 	2.08885e-08 	0.92 	0.04 	0.04 	0.0291517 	
2.76517e-06 	0.0277272 	0.0277272 	0 	
0.00100189 	2.08885e-08 	0.92 	0.04 	0.04 	0.0291516 	
2.76517e-06 	0.0277272 	0.0277272 	0 	
0.00105551 	2.08885e-08 	0.92 	0.04 	0.04 	0.0291516 	
2.76517e-06 	0.0277272 	0.0277272 	0 	
0.00110913 	2.08885e-08 	0.92 	0.04 	0.04 	0.0291515 	
2.76517e-06 	0.0277272 	0.0277272 	0 	
0.00116276 	2.08885e-08 	0.92 	0.04 	0.04 	0.0291515 	
2.76517e-06 	0.0277272 	0.0277272 	0 	
0.00121638 	2.08885e-08 	0.92 	0.04 	0.04 	0.0291514 	
2.76517e-06 	0.0277272 	0.0277272 	0 	
0.00127 	1.85697e-08 	0.92 	0.04 	0.04 	0.0291514 	
2.76517e-06 	0.0277272 	0.0277272 	0 	
ZONE T = "t = 0.000149647 [s]" I = 10 SOLUTIONTIME = 1.4964655285358E-04
0.0007874 	2.08885e-08 	0.92 	0.04 	0.04 	0.0291518 	
4.14817e-06 	0.0277272 	0.0277272 	0 	
0.000841022 	2.08885e-08 	0.92 	0.04 	0.04 	0.0291518 	
4.14817e-06 	0.0277272 	0.0277272 	0 	
0.000894644 	2.08885e-08 	0.92 	0.04 	0.04 	0.0291517 	
4.14817e-06 	0.0277272 	0.0277272 	0 	
0.000948267 	2.08885e-08 	0.92 	0.04 	0.04 	0.0291517 	
4.14817e-06 	0.0277272 	0.0277272 	0 	
0.00100189 	2.08885e-08 	0.92 	0.04 	0.04 	0.0291516 	
4.14817e-06 	0.0277272 	0.0277272 	0 	
0.00105551 	2.08885e-08 	0.92 	0.04 	0.04 	0.0291516 	
4.14817e-06 	0.0277272 	0.0277272 	0 	
0.00110913 	2.08885e-08 	0.92 	0.04 	0.04 	0.0291515 	
4.14817e-06 	0.0277272 	0.0277272 	0 	
0.00116276 	2.08885e-08 	0.92 	0.04 	0.04 	0.0291515 	
4.14817e-06 	0.0277272 	0.0277272 	0 	
0.00121638 	2.08885e-08 	0.92 	0.04 	0.04 	0.0291514 	
4.14817e-06 	0.0277272 	0.0277272 	0 	
0.00127 	1.85697e-08 	0.92 	0.04 	0.04 	0.0291514 	
4.14817e-06 	0.0277272 	0.0277272 	0 	
ZONE T = "t = 0.000224465 [s]" I = 10 SOLUTIONTIME = 2.2446482928038E-04
0.0007874 	2.08885e-08 	0.92 	0.04 	0.04 	0.0291518 	
6.22268e-06 	0.0277272 	0.0277272 	0 	
0.000841022 	2.08885e-08 	0.92 	0.04 	0.04 	0.0291518 	
6.22268e-06 	0.0277272 	0.0277272 	0 	
0.000894644 	2.08885e-08 	0.92 	0.04 	0.04 	0.0291517 	
6.22268e-06 	0.0277272 	0.0277272 	0 	
0.000948267 	2.08885e-08 	0.92 	0.04 	0.04 	0.0291517 	
6.22268e-06 	0.0277272 	0.0277272 	0 	
0.00100189 	2.08885e-08 	0.92 	0.04 	0.04 	0.0291516 	
6.22268e-06 	0.0277272 	0.0277272 	0 	
0.00105551 	2.08885e-08 	0.92 	0.04 	0.04 	0.0291516 	
6.22268e-06 	0.0277272 	0.0277272 	0 	
0.00110913 	2.08885e-08 	0.92 	0.04 	0.04 	0.0291515 	
6.22268e-06 	0.0277272 	0.0277272 	0 	
0.00116276 	2.08885e-08 	0.92 	0.04 	0.04 	0.0291515 	
6.22268e-06 	0.0277272 	0.0277272 	0 	
0.00121638 	2.08885e-08 	0.92 	0.04 	0.04 	0.0291514 	
6.22268e-06 	0.0277272 	0.0277272 	0 	
0.00127 	1.85697e-08 	0.92 	0.04 	0.04 	0.0291514 	
6.22268e-06 	0.0277272 	0.0277272 	0 	
ZONE T = "t = 0.000336692 [s]" I = 10 SOLUTIONTIME = 3.3669224392056E-04
0.0007874 	2.08885e-08 	0.92 	0.04 	0.04 	0.0291518 	
9.33443e-06 	0.0277272 	0.0277272 	0 	
0.000841022 	2.08885e-08 	0.92 	0.04 	0.04 	0.0291518 	
9.33443e-06 	0.0277272 	0.0277272 	0 	
0.000894644 	2.08885e-08 	0.92 	0.04 	0.04 	0.0291517 	
9.33443e-06 	0.0277272 	0.0277272 	0 	
0.000948267 	2.08885e-08 	0.92 	0.04 	0.04 	0.0291517 	
9.33443e-06 	0.0277272 	0.0277272 	0 	
0.00100189 	2.08885e-08 	0.92 	0.04 	0.04 	0.0291516 	
9.33443e-06 	0.0277272 	0.0277272 	0 	
0.00105551 	2.08885e-08 	0.92 	0.04 	0.04 	0.0291516 	
9.33443e-06 	0.0277272 	0.0277272 	0 	
0.00110913 	2.08885e-08 	0.92 	0.04 	0.04 	0.0291515 	
9.33443e-06 	0.0277272 	0.0277272 	0 	
0.00116276 	2.08885e-08 	0.92 	0.04 	0.04 	0.0291515 	
9.33443e-06 	0.0277272 	0.0277272 	0 	
0.00121638 	2.08885e-08 	0.92 	0.04 	0.04 	0.0291514 	
9.33443e-06 	0.0277272 	0.0277272 	0 	
0.00127 	1.85697e-08 	0.92 	0.04 	0.04 	0.0291514 	
9.33443e-06 	0.0277272 	0.0277272 	0 	
ZONE T = "t = 0.000505033 [s]" I = 10 SOLUTIONTIME = 5.0503336588085E-04
0.0007874 	2.08885e-08 	0.92 	0.04 	0.04 	0.0291518 	
1.40021e-05 	0.0277272 	0.0277272 	0 	
0.000841022 	2.08885e-08 	0.92 	0.04 	0.04 	0.0291518 	
1.40021e-05 	0.0277272 	0.0277272 	0 	
0.000894644 	2.08885e-08 	0.92 	0.04 	0.04 	0.0291517 	
1.40021e-05 	0.0277272 	0.0277272 	0 	
0.000948267 	2.08885e-08 	0.92 	0.04 	0.04 	0.0291517 	
1.40021e-05 	0.0277272 	0.0277272 	0 	
0.00100189 	2.08885e-08 	0.92 	0.04 	0.04 	0.0291516 	
1.40021e-05 	0.0277272 	0.0277272 	0 	
0.00105551 	2.08885e-08 	0.92 	0.04 	0.04 	0.0291516 	
1.40021e-05 	0.0277272 	0.0277272 	0 	
0.00110913 	2.08885e-08 	0.92 	0.04 	0.04 	0.0291515 	
1.40021e-05 	0.0277272 	0.0277272 	0 	
0.00116276 	2.08885e-08 	0.92 	0.04 	0.04 	0.0291515 	
1.40021e-05 	0.0277272 	0.0277272 	0 	
0.00121638 	2.08885e-08 	0.92 	0.04 	0.04 	0.0291514 	
1.40021e-05 	0.0277272 	0.0277272 	0 	
0.00127 	1.85697e-08 	0.92 	0.04 	0.04 	0.0291514 	
1.40021e-05 	0.0277272 	0.0277272 	0 	
ZONE T = "t = 0.000757545 [s]" I = 10 SOLUTIONTIME = 7.5754504882127E-04
0.0007874 	2.08885e-08 	0.92 	0.04 	0.04 	0.0291518 	
2.10035e-05 	0.0277272 	0.0277272 	0 	
0.000841022 	2.08885e-08 	0.92 	0.04 	0.04 	0.0291518 	
2.10035e-05 	0.0277272 	0.0277272 	0 	
0.000894644 	2.08885e-08 	0.92 	0.04 	0.04 	0.0291517 	
2.10035e-05 	0.0277272 	0.0277272 	0 	
0.000948267 	2.08885e-08 	0.92 	0.04 	0.04 	0.0291517 	
2.10035e-05 	0.0277272 	0.0277272 	0 	
0.00100189 	2.08885e-08 	0.92 	0.04 	0.04 	0.0291516 	
2.10035e-05 	0.0277272 	0.0277272 	0 	
0.00105551 	2.08885e-08 	0.92 	0.04 	0.04 	0.0291516 	
2.10035e-05 	0.0277272 	0.0277272 	0 	
0.00110913 	2.08885e-08 	0.92 	0.04 	0.04 	0.0291515 	
2.10035e-05 	0.0277272 	0.0277272 	0 	
0.00116276 	2.08885e-08 	0.92 	0.04 	0.04 	0.0291515 	
2.10035e-05 	0.0277272 	0.0277272 	0 	
0.00121638 	2.08885e-08 	0.92 	0.04 	0.04 	0.0291514 	
2.10035e-05 	0.0277272 	0.0277272 	0 	
0.00127 	1.85697e-08 	0.92 	0.04 	0.04 	0.0291514 	
2.10035e-05 	0.0277272 	0.0277272 	0 	
ZONE T = "t = 0.00113631 [s]" I = 10 SOLUTIONTIME = 1.1363125732319E-03
0.0007874 	2.08885e-08 	0.92 	0.04 	0.04 	0.0291518 	
3.15056e-05 	0.0277272 	0.0277272 	0 	
0.000841022 	2.08885e-08 	0.92 	0.04 	0.04 	0.0291518 	
3.15056e-05 	0.0277272 	0.0277272 	0 	
0.000894644 	2.08885e-08 	0.92 	0.04 	0.04 	0.0291517 	
3.15056e-05 	0.0277272 	0.0277272 	0 	
0.000948267 	2.08885e-08 	0.92 	0.04 	0.04 	0.0291517 	
3.15056e-05 	0.0277272 	0.0277272 	0 	
0.00100189 	2.08885e-08 	0.92 	0.04 	0.04 	0.0291516 	
3.15056e-05 	0.0277272 	0.0277272 	0 	
0.00105551 	2.08885e-08 	0.92 	0.04 	0.04 	0.0291516 	
3.15056e-05 	0.0277272 	0.0277272 	0 	
0.00110913 	2.08885e-08 	0.92 	0.04 	0.04 	0.0291515 	
3.15056e-05 	0.0277272 	0.0277272 	0 	
0.00116276 	2.08885e-08 	0.92 	0.04 	0.04 	0.0291515 	
3.15056e-05 	0.0277272 	0.0277272 	0 	
0.00121638 	2.08885e-08 	0.92 	0.04 	0.04 	0.0291514 	
3.15056e-05 	0.0277272 	0.0277272 	0 	
0.00127 	1.85696e-08 	0.92 	0.04 	0.04 	0.0291514 	
3.15056e-05 	0.0277272 	0.0277272 	0 	
ZONE T = "t = 0.00170446 [s]" I = 10 SOLUTIONTIME = 1.7044638598479E-03
0.0007874 	2.08885e-08 	0.92 	0.04 	0.04 	0.0291518 	
4.72588e-05 	0.0277271 	0.0277271 	0 	
0.000841022 	2.08885e-08 	0.92 	0.04 	0.04 	0.0291518 	
4.72588e-05 	0.0277271 	0.0277271 	0 	
0.000894644 	2.08885e-08 	0.92 	0.04 	0.04 	0.0291517 	
4.72588e-05 	0.0277271 	0.0277271 	0 	
0.000948267 	2.08885e-08 	0.92 	0.04 	0.04 	0.0291517 	
4.72589e-05 	0.0277271 	0.0277271 	0 	
0.00100189 	2.08885e-08 	0.92 	0.04 	0.04 	0.0291516 	
4.72589e-05 	0.0277271 	0.0277271 	0 	
0.00105551 	2.08885e-08 	0.92 	0.04 	0.04 	0.0291516 	
4.72589e-05 	0.0277271 	0.0277271 	0 	
0.00110913 	2.08885e-08 	0.92 	0.04 	0.04 	0.0291515 	
4.72589e-05 	0.0277271 	0.0277271 	0 	
0.00116276 	2.08885e-08 	0.92 	0.04 	0.04 	0.0291515 	
4.72589e-05 	0.0277271 	0.0277271 	0 	
0.00121638 	2.08885e-08 	0.92 	0.04 	0.04 	0.0291514 	
4.72589e-05 	0.0277271 	0.0277271 	0 	
0.00127 	1.85696e-08 	0.92 	0.04 	0.04 	0.0291514 	
4.72589e-05 	0.0277271 	0.0277271 	0 	
ZONE T = "t = 0.00255669 [s]" I = 10 SOLUTIONTIME = 2.5566907897718E-03
0.0007874 	2.08885e-08 	0.92 	0.04 	0.04 	0.0291518 	
7.08886e-05 	0.0277271 	0.0277271 	0 	
0.000841022 	2.08885e-08 	0.92 	0.04 	0.04 	0.0291518 	
7.08886e-05 	0.0277271 	0.0277271 	0 	
0.000894644 	2.08885e-08 	0.92 	0.04 	0.04 	0.0291517 	
7.08886e-05 	0.0277271 	0.0277271 	0 	
0.000948267 	2.08885e-08 	0.92 	0.04 	0.04 	0.0291517 	
7.08886e-05 	0.0277271 	0.0277271 	0 	
0.00100189 	2.08885e-08 	0.92 	0.04 	0.04 	0.0291516 	
7.08886e-05 	0.0277271 	0.0277271 	0 	
0.00105551 	2.08885e-08 	0.92 	0.04 	0.04 	0.0291516 	
7.08886e-05 	0.0277271 	0.0277271 	0 	
0.00110913 	2.08885e-08 	0.92 	0.04 	0.04 	0.0291515 	
7.08886e-05 	0.0277271 	0.0277271 	0 	
0.00116276 	2.08885e-08 	0.92 	0.04 	0.04 	0.0291515 	
7.08886e-05 	0.0277271 	0.0277271 	0 	
0.00121638 	2.08885e-08 	0.92 	0.04 	0.04 	0.0291514 	
7.08886e-05 	0.0277271 	0.0277271 	0 	
0.00127 	1.85696e-08 	0.92 	0.04 	0.04 	0.0291514 	
7.08886e-05 	0.0277271 	0.0277271 	0 	
ZONE T = "t = 0.00383503 [s]" I = 10 SOLUTIONTIME = 3.8350311846577E-03
0.0007874 	2.08884e-08 	0.92 	0.04 	0.04 	0.0291518 	
0.000106333 	0.027727 	0.027727 	0 	
0.000841022 	2.08884e-08 	0.92 	0.04 	0.04 	0.0291518 	
0.000106333 	0.027727 	0.027727 	0 	
0.000894644 	2.08884e-08 	0.92 	0.04 	0.04 	0.0291517 	
0.000106333 	0.027727 	0.027727 	0 	
0.000948267 	2.08884e-08 	0.92 	0.04 	0.04 	0.0291517 	
0.000106333 	0.027727 	0.027727 	0 	
0.00100189 	2.08884e-08 	0.92 	0.04 	0.04 	0.0291516 	
0.000106333 	0.027727 	0.027727 	0 	
0.00105551 	2.08884e-08 	0.92 	0.04 	0.04 	0.0291516 	
0.000106333 	0.027727 	0.027727 	0 	