TITLE = "Solution on Domain BulkDomain1D_0"
VARIABLES = "x [m]"  
"Vel_axial" 	"MF_sp(ECDMC)" 	"MF_sp(Li+)" 	"MF_sp(PF6-)" 	"Volt(Electroly)" 	"Volt(AnodeVolt)" 	
"Potential Drop Electrode-Electrolyte [V]" 	"Surf_0 Equilibrium Potential Drop Electrode-Electrolyte [V]" 	"Overpotential_0 [V]" 	"Current Source [A/m^2]" 	"Li+ flux [kmol/m^2/s]" 	"Electrolyte Current [A/m^2]" 	"Electrode Current [A/m^2]" 	
"Capacity discharged [A-s]" 	"Depth of discharge [-]" 	"Capacity remaining [A-s]" 	"Initial capacity [A-s]" 	"Porosity []" 	"Surface Area [m2/m2] (area per area)" 	"Specific current (per particle area) [A/m^2]" 	"Control volume thickness [m]" 	
"Moles Li_C6-bulk [mol/m^2] (per electrode area)" 	"Moles V_C6-bulk [mol/m^2] (per electrode area)" 	"qHeat_accum [J/m3]" 	"qHeat_step [W/m3]" 	"Joule_Lyte [W/m3]" 	"Joule_Solid [W/m3]" 	"electrodHeat [W/m3]" 	"OverpotHeat [W/m3]" 	"deltaSHeat [W/m3]" 	

ZONE T = "t = 4e-08 [s]" I = 10 SOLUTIONTIME = 4.0000000000000E-08
0 	1.16001e-09 	0.92 	0.04 	0.04 	0.0291573 	0 	
0 	0 	0 	0 	0 	0.835256 	15.7181 	
0 	0 	0 	0 	0.35 	8.53017 	0.195836 	4.37444e-05 	
0.00379119 	0.000947796 	0 	0.0 	 0.0 	 0.0 	 0.0 	 0.0 	 0.0 	 
8.74889e-05 	3.48004e-09 	0.92 	0.04 	0.04 	0.0291572 	-2.48467e-09 	
0 	0 	0 	0 	0 	3.34103 	14.0074 	
0 	0 	0 	0 	0.35 	17.0603 	0.195836 	8.74889e-05 	
0.00758237 	0.00189559 	0 	0.0 	 0.0 	 0.0 	 0.0 	 0.0 	 0.0 	 
0.000174978 	5.80008e-09 	0.92 	0.04 	0.04 	0.0291572 	-4.67703e-09 	
0 	0 	0 	0 	0 	6.68206 	12.2565 	
0 	0 	0 	0 	0.35 	17.0603 	0.195837 	8.74889e-05 	
0.00758237 	0.00189559 	0 	0.0 	 0.0 	 0.0 	 0.0 	 0.0 	 0.0 	 
0.000262467 	8.12014e-09 	0.92 	0.04 	0.04 	0.0291571 	-6.57709e-09 	
0 	0 	0 	0 	0 	10.0231 	10.5057 	
0 	0 	0 	0 	0.35 	17.0603 	0.195838 	8.74889e-05 	
0.00758237 	0.00189559 	0 	0.0 	 0.0 	 0.0 	 0.0 	 0.0 	 0.0 	 
0.000349956 	1.04402e-08 	0.92 	0.04 	0.04 	0.029157 	-8.18485e-09 	
0 	0 	0 	0 	0 	13.3642 	8.75479 	
0 	0 	0 	0 	0.35 	17.0603 	0.19584 	8.74889e-05 	
0.00758237 	0.00189559 	0 	0.0 	 0.0 	 0.0 	 0.0 	 0.0 	 0.0 	 
0.000437444 	1.27603e-08 	0.92 	0.04 	0.04 	0.0291569 	-9.50029e-09 	
0 	0 	0 	0 	0 	16.7053 	7.00389 	
0 	0 	0 	0 	0.35 	17.0603 	0.195842 	8.74889e-05 	
0.00758237 	0.00189559 	0 	0.0 	 0.0 	 0.0 	 0.0 	 0.0 	 0.0 	 
0.000524933 	1.50805e-08 	0.92 	0.04 	0.04 	0.0291567 	-1.05234e-08 	
0 	0 	0 	0 	0 	20.0465 	5.25296 	
0 	0 	0 	0 	0.35 	17.0603 	0.195845 	8.74889e-05 	
0.00758237 	0.00189559 	0 	0.0 	 0.0 	 0.0 	 0.0 	 0.0 	 0.0 	 
0.000612422 	1.74006e-08 	0.92 	0.04 	0.04 	0.0291565 	-1.12542e-08 	
0 	0 	0 	0 	0 	23.3877 	3.50201 	
0 	0 	0 	0 	0.35 	17.0603 	0.195849 	8.74889e-05 	
0.00758237 	0.00189559 	0 	0.0 	 0.0 	 0.0 	 0.0 	 0.0 	 0.0 	 
0.000699911 	1.97209e-08 	0.92 	0.04 	0.04 	0.0291562 	-1.16927e-08 	
0 	0 	0 	0 	0 	26.729 	1.75102 	
0 	0 	0 	0 	0.35 	17.0603 	0.195853 	8.74889e-05 	
0.00758237 	0.00189559 	0 	0.0 	 0.0 	 0.0 	 0.0 	 0.0 	 0.0 	 
0.0007874 	2.0881e-08 	0.92 	0.04 	0.04 	0.029156 	-1.18389e-08 	
0 	0 	0 	0 	0 	29.235 	0.437761 	
0 	0 	0 	0 	0.35 	8.53017 	0.195857 	4.37444e-05 	
0.00379119 	0.000947796 	0 	0.0 	 0.0 	 0.0 	 0.0 	 0.0 	 0.0 	 
ZONE T = "t = 5.5e-08 [s]" I = 10 SOLUTIONTIME = 5.5000000000000E-08
0 	1.16002e-09 	0.92 	0.04 	0.04 	0.0291572 	0 	
-0.0291573 	-0.0409067 	0.0117495 	1.67051 	8.65682e-09 	0.835259 	29.2352 	
1.84841e-10 	91448.4 	916.789 	1145.99 	0.35 	8.53017 	0.195837 	4.37444e-05 	
0.00379119 	0.000947796 	2.75947e-11 	0.00183965 	0.00030056 	0.00153909 	0 	0 	0 	
8.74889e-05 	3.48006e-09 	0.92 	0.04 	0.04 	0.0291572 	-4.74132e-09 	
-0.0291572 	-0.0409067 	0.0117495 	3.34103 	2.59705e-08 	3.34104 	26.7294 	
3.69682e-10 	182897 	1833.58 	2291.97 	0.35 	17.0603 	0.195837 	8.74889e-05 	
0.00758237 	0.00189559 	4.30722e-11 	0.00287148 	0.0015028 	0.00136868 	0 	0 	0 	
0.000174978 	5.8001e-09 	0.92 	0.04 	0.04 	0.0291571 	-8.92486e-09 	
-0.0291572 	-0.0409067 	0.0117495 	3.34104 	4.32842e-08 	6.68209 	23.3883 	
3.69684e-10 	182897 	1833.58 	2291.97 	0.35 	17.0603 	0.195838 	8.74889e-05 	
0.00758237 	0.00189559 	9.23805e-11 	0.0061587 	0.00510955 	0.00104915 	0 	0 	0 	
0.000262467 	8.12017e-09 	0.92 	0.04 	0.04 	0.0291571 	-1.25506e-08 	
-0.0291571 	-0.0409067 	0.0117496 	3.34106 	6.05981e-08 	10.0231 	20.0473 	
3.69687e-10 	182897 	1833.58 	2291.97 	0.35 	17.0603 	0.195839 	8.74889e-05 	
0.00758237 	0.00189559 	1.78396e-10 	0.0118931 	0.0111208 	0.000772228 	0 	0 	0 	
0.000349956 	1.04403e-08 	0.92 	0.04 	0.04 	0.029157 	-1.56186e-08 	
-0.029157 	-0.0409067 	0.0117497 	3.3411 	7.79121e-08 	13.3642 	16.7062 	
3.69691e-10 	182897 	1833.58 	2291.97 	0.35 	17.0603 	0.195841 	8.74889e-05 	
0.00758237 	0.00189559 	3.01119e-10 	0.0200746 	0.0195367 	0.000537904 	0 	0 	0 	
0.000437444 	1.27606e-08 	0.92 	0.04 	0.04 	0.0291568 	-1.81288e-08 	
-0.0291569 	-0.0409067 	0.0117498 	3.34114 	9.52263e-08 	16.7054 	13.365 	
3.69696e-10 	182897 	1833.58 	2291.97 	0.35 	17.0603 	0.195843 	8.74889e-05 	
0.00758237 	0.00189559 	4.60552e-10 	0.0307034 	0.0303573 	0.000346181 	0 	0 	0 	
0.000524933 	1.50808e-08 	0.92 	0.04 	0.04 	0.0291566 	-2.00811e-08 	
-0.0291567 	-0.0409067 	0.01175 	3.34119 	1.12541e-07 	20.0465 	10.0239 	
3.69702e-10 	182897 	1833.58 	2291.97 	0.35 	17.0603 	0.195846 	8.74889e-05 	
0.00758237 	0.00189559 	6.56695e-10 	0.0437797 	0.0435826 	0.000197061 	0 	0 	0 	
0.000612422 	1.74012e-08 	0.92 	0.04 	0.04 	0.0291564 	-2.14757e-08 	
-0.0291565 	-0.0409067 	0.0117502 	3.34124 	1.29856e-07 	23.3878 	6.68265 	
3.69709e-10 	182897 	1833.58 	2291.97 	0.35 	17.0603 	0.195849 	8.74889e-05 	
0.00758237 	0.00189559 	8.89553e-10 	0.0593035 	0.059213 	9.05431e-05 	0 	0 	0 	
0.000699911 	1.97209e-08 	0.92 	0.04 	0.04 	0.0291562 	-2.23125e-08 	
-0.0291563 	-0.0409067 	0.0117505 	3.34131 	1.47171e-07 	26.7291 	3.34136 	
3.69718e-10 	182897 	1833.58 	2291.97 	0.35 	17.0603 	0.195853 	8.74889e-05 	
0.00758237 	0.00189559 	1.15913e-09 	0.077275 	0.0772484 	2.66308e-05 	0 	0 	0 	
0.0007874 	2.08816e-08 	0.92 	0.04 	0.04 	0.0291559 	-2.25914e-08 	
-0.029156 	-0.0409067 	0.0117507 	1.6707 	1.47171e-07 	29.2351 	0.83535 	
1.84864e-10 	91448.4 	916.789 	1145.99 	0.35 	8.53017 	0.195858 	4.37444e-05 	
0.00379119 	0.000947796 	1.30309e-09 	0.0868728 	0.0868674 	5.32632e-06 	0 	0 	0 	
ZONE T = "t = 7.43087e-08 [s]" I = 10 SOLUTIONTIME = 7.4308699072488E-08
0 	1.16021e-09 	0.92 	0.04 	0.04 	0.0291572 	0 	
-0.0291572 	-0.0409067 	0.0117495 	1.67052 	8.65685e-09 	0.835259 	29.2352 	
2.47643e-10 	91448.4 	916.789 	1145.99 	0.35 	8.53017 	0.195837 	4.37444e-05 	
0.00379119 	0.000947796 	6.31159e-11 	0.00183965 	0.000534051 	0.00273473 	0 	0 	0 	
8.74889e-05 	3.48081e-09 	0.92 	0.04 	0.04 	0.0291572 	-4.74132e-09 	
-0.0291572 	-0.0409067 	0.0117495 	3.34104 	2.59706e-08 	3.34104 	26.7294 	
4.95287e-10 	182897 	1833.58 	2291.97 	0.35 	17.0603 	0.195837 	8.74889e-05 	
0.00758237 	0.00189559 	9.85167e-11 	0.00287148 	0.00267026 	0.00243193 	0 	0 	0 	
0.000174978 	5.80123e-09 	0.92 	0.04 	0.04 	0.0291571 	-8.92486e-09 	
-0.0291572 	-0.0409067 	0.0117496 	3.34105 	4.32844e-08 	6.68209 	23.3883 	
4.95289e-10 	182897 	1833.58 	2291.97 	0.35 	17.0603 	0.195838 	8.74889e-05 	
0.00758237 	0.00189559 	2.11297e-10 	0.0061587 	0.00907891 	0.00186419 	0 	0 	0 	
0.000262467 	8.1213e-09 	0.92 	0.04 	0.04 	0.0291571 	-1.25506e-08 	
-0.0291571 	-0.0409067 	0.0117496 	3.34107 	6.05983e-08 	10.0231 	20.0473 	
4.95293e-10 	182897 	1833.58 	2291.97 	0.35 	17.0603 	0.195839 	8.74889e-05 	
0.00758237 	0.00189559 	4.08035e-10 	0.0118931 	0.0197601 	0.00137213 	0 	0 	0 	
0.000349956 	1.04418e-08 	0.92 	0.04 	0.04 	0.029157 	-1.56186e-08 	
-0.029157 	-0.0409067 	0.0117497 	3.34111 	7.79123e-08 	13.3642 	16.7062 	
4.95298e-10 	182897 	1833.58 	2291.97 	0.35 	17.0603 	0.195841 	8.74889e-05 	
0.00758237 	0.00189559 	6.88734e-10 	0.0200746 	0.0347138 	0.000955776 	0 	0 	0 	
0.000437444 	1.27617e-08 	0.92 	0.04 	0.04 	0.0291568 	-1.81288e-08 	
-0.0291568 	-0.0409067 	0.0117499 	3.34115 	9.52266e-08 	16.7054 	13.365 	
4.95304e-10 	182897 	1833.58 	2291.97 	0.35 	17.0603 	0.195843 	8.74889e-05 	
0.00758237 	0.00189559 	1.0534e-09 	0.0307034 	0.0539404 	0.000615113 	0 	0 	0 	
0.000524933 	1.50818e-08 	0.92 	0.04 	0.04 	0.0291566 	-2.00811e-08 	
-0.0291567 	-0.0409067 	0.01175 	3.3412 	1.12541e-07 	20.0465 	10.0239 	
4.95312e-10 	182897 	1833.58 	2291.97 	0.35 	17.0603 	0.195846 	8.74889e-05 	
0.00758237 	0.00189559 	1.50202e-09 	0.0437797 	0.0774399 	0.000350147 	0 	0 	0 	
0.000612422 	1.74018e-08 	0.92 	0.04 	0.04 	0.0291564 	-2.14757e-08 	
-0.0291565 	-0.0409067 	0.0117503 	3.34125 	1.29856e-07 	23.3878 	6.68265 	
4.95322e-10 	182897 	1833.58 	2291.97 	0.35 	17.0603 	0.195849 	8.74889e-05 	
0.00758237 	0.00189559 	2.03463e-09 	0.0593035 	0.105213 	0.000160882 	0 	0 	0 	
0.000699911 	1.97224e-08 	0.92 	0.04 	0.04 	0.0291562 	-2.23125e-08 	
-0.0291562 	-0.0409067 	0.0117505 	3.34132 	1.47172e-07 	26.7291 	3.34136 	
4.95333e-10 	182897 	1833.58 	2291.97 	0.35 	17.0603 	0.195853 	8.74889e-05 	
0.00758237 	0.00189559 	2.65121e-09 	0.077275 	0.137259 	4.73191e-05 	0 	0 	0 	
0.0007874 	2.08826e-08 	0.92 	0.04 	0.04 	0.0291559 	-2.25914e-08 	
-0.029156 	-0.0409067 	0.0117508 	1.6707 	1.47172e-07 	29.2351 	0.83535 	
2.47673e-10 	91448.4 	916.789 	1145.99 	0.35 	8.53017 	0.195858 	4.37444e-05 	
0.00379119 	0.000947796 	2.98049e-09 	0.0868728 	0.154351 	9.46407e-06 	0 	0 	0 	
ZONE T = "t = 1.03272e-07 [s]" I = 10 SOLUTIONTIME = 1.0327174768122E-07
0 	1.15989e-09 	0.92 	0.04 	0.04 	0.0291572 	0 	
-0.0291572 	-0.0409067 	0.0117495 	1.67052 	8.65685e-09 	0.835259 	29.2352 	
3.28485e-10 	91448.4 	916.789 	1145.99 	0.35 	8.53017 	0.195837 	4.37444e-05 	
0.00379119 	0.000947796 	1.16398e-10 	0.00183965 	0.000656595 	0.00336224 	0 	0 	0 	
8.74889e-05 	3.47981e-09 	0.92 	0.04 	0.04 	0.0291572 	-4.74132e-09 	
-0.0291572 	-0.0409067 	0.0117495 	3.34104 	2.59706e-08 	3.34104 	26.7294 	
6.56971e-10 	182897 	1833.58 	2291.97 	0.35 	17.0603 	0.195837 	8.74889e-05 	
0.00758237 	0.00189559 	1.81684e-10 	0.00287148 	0.00328298 	0.00298996 	0 	0 	0 	
0.000174978 	5.7996e-09 	0.92 	0.04 	0.04 	0.0291571 	-8.92486e-09 	
-0.0291572 	-0.0409067 	0.0117496 	3.34105 	4.32844e-08 	6.68209 	23.3883 	
6.56974e-10 	182897 	1833.58 	2291.97 	0.35 	17.0603 	0.195838 	8.74889e-05 	
0.00758237 	0.00189559 	3.89672e-10 	0.0061587 	0.0111621 	0.00229194 	0 	0 	0 	
0.000262467 	8.11967e-09 	0.92 	0.04 	0.04 	0.0291571 	-1.25506e-08 	
-0.0291571 	-0.0409067 	0.0117496 	3.34107 	6.05983e-08 	10.0231 	20.0473 	
6.56979e-10 	182897 	1833.58 	2291.97 	0.35 	17.0603 	0.195839 	8.74889e-05 	
0.00758237 	0.00189559 	7.52494e-10 	0.0118931 	0.0242942 	0.00168698 	0 	0 	0 	
0.000349956 	1.044e-08 	0.92 	0.04 	0.04 	0.029157 	-1.56186e-08 	
-0.029157 	-0.0409067 	0.0117497 	3.34111 	7.79123e-08 	13.3642 	16.7062 	
6.56985e-10 	182897 	1833.58 	2291.97 	0.35 	17.0603 	0.195841 	8.74889e-05 	
0.00758237 	0.00189559 	1.27016e-09 	0.0200746 	0.0426792 	0.00117509 	0 	0 	0 	
0.000437444 	1.27601e-08 	0.92 	0.04 	0.04 	0.0291568 	-1.81288e-08 	
-0.0291568 	-0.0409067 	0.0117499 	3.34115 	9.52266e-08 	16.7054 	13.365 	
6.56994e-10 	182897 	1833.58 	2291.97 	0.35 	17.0603 	0.195843 	8.74889e-05 	
0.00758237 	0.00189559 	1.94266e-09 	0.0307034 	0.0663175 	0.000756257 	0 	0 	0 	
0.000524933 	1.50803e-08 	0.92 	0.04 	0.04 	0.0291566 	-2.00811e-08 	
-0.0291567 	-0.0409067 	0.01175 	3.3412 	1.12541e-07 	20.0465 	10.0239 	
6.57004e-10 	182897 	1833.58 	2291.97 	0.35 	17.0603 	0.195846 	8.74889e-05 	
0.00758237 	0.00189559 	2.77002e-09 	0.0437797 	0.0952092 	0.000430492 	0 	0 	0 	
0.000612422 	1.74002e-08 	0.92 	0.04 	0.04 	0.0291564 	-2.14757e-08 	
-0.0291565 	-0.0409067 	0.0117503 	3.34125 	1.29856e-07 	23.3878 	6.68265 	
6.57017e-10 	182897 	1833.58 	2291.97 	0.35 	17.0603 	0.195849 	8.74889e-05 	
0.00758237 	0.00189559 	3.75224e-09 	0.0593035 	0.129355 	0.000197797 	0 	0 	0 	
0.000699911 	1.97202e-08 	0.92 	0.04 	0.04 	0.0291562 	-2.23125e-08 	
-0.0291562 	-0.0409067 	0.0117505 	3.34132 	1.47172e-07 	26.7291 	3.34136 	
6.57031e-10 	182897 	1833.58 	2291.97 	0.35 	17.0603 	0.195853 	8.74889e-05 	
0.00758237 	0.00189559 	4.88933e-09 	0.077275 	0.168754 	5.81769e-05 	0 	0 	0 	
0.0007874 	2.08803e-08 	0.92 	0.04 	0.04 	0.0291559 	-2.25914e-08 	
-0.029156 	-0.0409067 	0.0117508 	1.6707 	1.47172e-07 	29.2351 	0.83535 	
3.28524e-10 	91448.4 	916.789 	1145.99 	0.35 	8.53017 	0.195858 	4.37444e-05 	
0.00379119 	0.000947796 	5.49659e-09 	0.0868728 	0.189768 	1.16357e-05 	0 	0 	0 	
ZONE T = "t = 1.46716e-07 [s]" I = 10 SOLUTIONTIME = 1.4671632059432E-07
0 	1.16002e-09 	0.92 	0.04 	0.04 	0.0291572 	0 	
-0.0291572 	-0.0409067 	0.0117495 	1.67052 	8.65685e-09 	0.835259 	29.2352 	
4.49748e-10 	91448.4 	916.789 	1145.99 	0.35 	8.53017 	0.195837 	4.37444e-05 	
0.00379119 	0.000947796 	1.9632e-10 	0.00183965 	0.00073829 	0.00378058 	0 	0 	0 	
8.74889e-05 	3.47989e-09 	0.92 	0.04 	0.04 	0.0291572 	-4.74132e-09 	
-0.0291572 	-0.0409067 	0.0117495 	3.34104 	2.59706e-08 	3.34104 	26.7294 	
8.99498e-10 	182897 	1833.58 	2291.97 	0.35 	17.0603 	0.195837 	8.74889e-05 	
0.00758237 	0.00189559 	3.06434e-10 	0.00287148 	0.00369146 	0.00336199 	0 	0 	0 	
0.000174978 	5.79994e-09 	0.92 	0.04 	0.04 	0.0291571 	-8.92486e-09 	
-0.0291572 	-0.0409067 	0.0117496 	3.34105 	4.32844e-08 	6.68209 	23.3883 	
8.99501e-10 	182897 	1833.58 	2291.97 	0.35 	17.0603 	0.195838 	8.74889e-05 	
0.00758237 	0.00189559 	6.57234e-10 	0.0061587 	0.012551 	0.00257711 	0 	0 	0 	
0.000262467 	8.12025e-09 	0.92 	0.04 	0.04 	0.0291571 	-1.25506e-08 	
-0.0291571 	-0.0409067 	0.0117496 	3.34107 	6.05983e-08 	10.0231 	20.0473 	
8.99508e-10 	182897 	1833.58 	2291.97 	0.35 	17.0603 	0.195839 	8.74889e-05 	
0.00758237 	0.00189559 	1.26918e-09 	0.0118931 	0.027317 	0.00189688 	0 	0 	0 	
0.000349956 	1.04402e-08 	0.92 	0.04 	0.04 	0.029157 	-1.56186e-08 	
-0.029157 	-0.0409067 	0.0117497 	3.34111 	7.79123e-08 	13.3642 	16.7062 	
8.99516e-10 	182897 	1833.58 	2291.97 	0.35 	17.0603 	0.195841 	8.74889e-05 	
0.00758237 	0.00189559 	2.14229e-09 	0.0200746 	0.0479895 	0.0013213 	0 	0 	0 	
0.000437444 	1.27603e-08 	0.92 	0.04 	0.04 	0.0291568 	-1.81288e-08 	
-0.0291568 	-0.0409067 	0.0117499 	3.34115 	9.52266e-08 	16.7054 	13.365 	
8.99528e-10 	182897 	1833.58 	2291.97 	0.35 	17.0603 	0.195843 	8.74889e-05 	
0.00758237 	0.00189559 	3.27656e-09 	0.0307034 	0.0745689 	0.000850353 	0 	0 	0 	
0.000524933 	1.50806e-08 	0.92 	0.04 	0.04 	0.0291566 	-2.00811e-08 	
-0.0291567 	-0.0409067 	0.01175 	3.3412 	1.12541e-07 	20.0465 	10.0239 	
8.99542e-10 	182897 	1833.58 	2291.97 	0.35 	17.0603 	0.195846 	8.74889e-05 	
0.00758237 	0.00189559 	4.67201e-09 	0.0437797 	0.107055 	0.000484055 	0 	0 	0 	
0.000612422 	1.74008e-08 	0.92 	0.04 	0.04 	0.0291564 	-2.14757e-08 	
-0.0291565 	-0.0409067 	0.0117503 	3.34125 	1.29856e-07 	23.3878 	6.68265 	
8.99559e-10 	182897 	1833.58 	2291.97 	0.35 	17.0603 	0.195849 	8.74889e-05 	
0.00758237 	0.00189559 	6.32865e-09 	0.0593035 	0.145449 	0.000222408 	0 	0 	0 	
0.000699911 	1.97213e-08 	0.92 	0.04 	0.04 	0.0291562 	-2.23125e-08 	
-0.0291562 	-0.0409067 	0.0117505 	3.34132 	1.47172e-07 	26.7291 	3.34136 	
8.99578e-10 	182897 	1833.58 	2291.97 	0.35 	17.0603 	0.195853 	8.74889e-05 	
0.00758237 	0.00189559 	8.24651e-09 	0.077275 	0.189751 	6.54154e-05 	0 	0 	0 	
0.0007874 	2.08815e-08 	0.92 	0.04 	0.04 	0.0291559 	-2.25914e-08 	
-0.029156 	-0.0409067 	0.0117508 	1.6707 	1.47172e-07 	29.2351 	0.83535 	
4.498e-10 	91448.4 	916.789 	1145.99 	0.35 	8.53017 	0.195858 	4.37444e-05 	
0.00379119 	0.000947796 	9.27074e-09 	0.0868728 	0.213379 	1.30834e-05 	0 	0 	0 	
ZONE T = "t = 2.11883e-07 [s]" I = 10 SOLUTIONTIME = 2.1188317996396E-07
0 	1.15999e-09 	0.92 	0.04 	0.04 	0.0291572 	0 	
-0.0291572 	-0.0409067 	0.0117495 	1.67052 	8.65685e-09 	0.835259 	29.2352 	
6.31643e-10 	91448.4 	916.789 	1145.99 	0.35 	8.53017 	0.195837 	4.37444e-05 	
0.00379119 	0.000947796 	3.16205e-10 	0.00183965 	0.000792754 	0.00405948 	0 	0 	0 	
8.74889e-05 	3.48003e-09 	0.92 	0.04 	0.04 	0.0291572 	-4.74132e-09 	
-0.0291572 	-0.0409067 	0.0117495 	3.34104 	2.59706e-08 	3.34104 	26.7294 	
1.26329e-09 	182897 	1833.58 	2291.97 	0.35 	17.0603 	0.195837 	8.74889e-05 	
0.00758237 	0.00189559 	4.93559e-10 	0.00287148 	0.00396377 	0.00361 	0 	0 	0 	
0.000174978 	5.80008e-09 	0.92 	0.04 	0.04 	0.0291571 	-8.92486e-09 	
-0.0291572 	-0.0409067 	0.0117496 	3.34105 	4.32844e-08 	6.68209 	23.3883 	
1.26329e-09 	182897 	1833.58 	2291.97 	0.35 	17.0603 	0.195838 	8.74889e-05 	
0.00758237 	0.00189559 	1.05858e-09 	0.0061587 	0.0134769 	0.00276723 	0 	0 	0 	
0.000262467 	8.11997e-09 	0.92 	0.04 	0.04 	0.0291571 	-1.25506e-08 	
-0.0291571 	-0.0409067 	0.0117496 	3.34107 	6.05983e-08 	10.0231 	20.0473 	
1.2633e-09 	182897 	1833.58 	2291.97 	0.35 	17.0603 	0.195839 	8.74889e-05 	
0.00758237 	0.00189559 	2.04422e-09 	0.0118931 	0.0293321 	0.00203682 	0 	0 	0 	
0.000349956 	1.04401e-08 	0.92 	0.04 	0.04 	0.029157 	-1.56186e-08 	
-0.029157 	-0.0409067 	0.0117497 	3.34111 	7.79123e-08 	13.3642 	16.7062 	
1.26331e-09 	182897 	1833.58 	2291.97 	0.35 	17.0603 	0.195841 	8.74889e-05 	
0.00758237 	0.00189559 	3.45049e-09 	0.0200746 	0.0515297 	0.00141877 	0 	0 	0 	
0.000437444 	1.27602e-08 	0.92 	0.04 	0.04 	0.0291568 	-1.81288e-08 	
-0.0291568 	-0.0409067 	0.0117499 	3.34115 	9.52266e-08 	16.7054 	13.365 	
1.26333e-09 	182897 	1833.58 	2291.97 	0.35 	17.0603 	0.195843 	8.74889e-05 	
0.00758237 	0.00189559 	5.27741e-09 	0.0307034 	0.0800699 	0.000913083 	0 	0 	0 	
0.000524933 	1.50803e-08 	0.92 	0.04 	0.04 	0.0291566 	-2.00811e-08 	
-0.0291567 	-0.0409067 	0.01175 	3.3412 	1.12541e-07 	20.0465 	10.0239 	
1.26335e-09 	182897 	1833.58 	2291.97 	0.35 	17.0603 	0.195846 	8.74889e-05 	
0.00758237 	0.00189559 	7.52499e-09 	0.0437797 	0.114953 	0.000519764 	0 	0 	0 	
0.000612422 	1.74005e-08 	0.92 	0.04 	0.04 	0.0291564 	-2.14757e-08 	
-0.0291565 	-0.0409067 	0.0117503 	3.34125 	1.29856e-07 	23.3878 	6.68265 	
1.26337e-09 	182897 	1833.58 	2291.97 	0.35 	17.0603 	0.195849 	8.74889e-05 	
0.00758237 	0.00189559 	1.01933e-08 	0.0593035 	0.156179 	0.000238815 	0 	0 	0 	
0.000699911 	1.97206e-08 	0.92 	0.04 	0.04 	0.0291562 	-2.23125e-08 	
-0.0291562 	-0.0409067 	0.0117505 	3.34132 	1.47172e-07 	26.7291 	3.34136 	
1.2634e-09 	182897 	1833.58 	2291.97 	0.35 	17.0603 	0.195853 	8.74889e-05 	
0.00758237 	0.00189559 	1.32823e-08 	0.077275 	0.203749 	7.02411e-05 	0 	0 	0 	
0.0007874 	2.08807e-08 	0.92 	0.04 	0.04 	0.0291559 	-2.25914e-08 	
-0.029156 	-0.0409067 	0.0117508 	1.6707 	1.47172e-07 	29.2351 	0.83535 	
6.31714e-10 	91448.4 	916.789 	1145.99 	0.35 	8.53017 	0.195858 	4.37444e-05 	
0.00379119 	0.000947796 	1.4932e-08 	0.0868728 	0.22912 	1.40486e-05 	0 	0 	0 	
ZONE T = "t = 3.09633e-07 [s]" I = 10 SOLUTIONTIME = 3.0963346901843E-07
0 	1.16004e-09 	0.92 	0.04 	0.04 	0.0291572 	0 	
-0.0291572 	-0.0409067 	0.0117495 	1.67052 	8.65685e-09 	0.835259 	29.2352 	
9.04485e-10 	91448.4 	916.789 	1145.99 	0.35 	8.53017 	0.195837 	4.37444e-05 	
0.00379119 	0.000947796 	4.96031e-10 	0.00183965 	0.000829063 	0.0042454 	0 	0 	0 	
8.74889e-05 	3.48008e-09 	0.92 	0.04 	0.04 	0.0291572 	-4.74132e-09 	
-0.0291572 	-0.0409067 	0.0117495 	3.34104 	2.59706e-08 	3.34104 	26.7294 	
1.80897e-09 	182897 	1833.58 	2291.97 	0.35 	17.0603 	0.195837 	8.74889e-05 	
0.00758237 	0.00189559 	7.74247e-10 	0.00287148 	0.00414532 	0.00377534 	0 	0 	0 	
0.000174978 	5.80012e-09 	0.92 	0.04 	0.04 	0.0291571 	-8.92486e-09 	
-0.0291572 	-0.0409067 	0.0117496 	3.34105 	4.32844e-08 	6.68209 	23.3883 	
1.80898e-09 	182897 	1833.58 	2291.97 	0.35 	17.0603 	0.195838 	8.74889e-05 	
0.00758237 	0.00189559 	1.66059e-09 	0.0061587 	0.0140941 	0.00289397 	0 	0 	0 	
0.000262467 	8.12019e-09 	0.92 	0.04 	0.04 	0.0291571 	-1.25506e-08 	
-0.0291571 	-0.0409067 	0.0117496 	3.34107 	6.05983e-08 	10.0231 	20.0473 	
1.80899e-09 	182897 	1833.58 	2291.97 	0.35 	17.0603 	0.195839 	8.74889e-05 	
0.00758237 	0.00189559 	3.20676e-09 	0.0118931 	0.0306756 	0.00213011 	0 	0 	0 	
0.000349956 	1.04403e-08 	0.92 	0.04 	0.04 	0.029157 	-1.56186e-08 	
-0.029157 	-0.0409067 	0.0117497 	3.34111 	7.79123e-08 	13.3642 	16.7062 	
1.80901e-09 	182897 	1833.58 	2291.97 	0.35 	17.0603 	0.195841 	8.74889e-05 	
0.00758237 	0.00189559 	5.41279e-09 	0.0200746 	0.0538898 	0.00148375 	0 	0 	0 	
0.000437444 	1.27605e-08 	0.92 	0.04 	0.04 	0.0291568 	-1.81288e-08 	
-0.0291568 	-0.0409067 	0.0117499 	3.34115 	9.52266e-08 	16.7054 	13.365 	
1.80903e-09 	182897 	1833.58 	2291.97 	0.35 	17.0603 	0.195843 	8.74889e-05 	
0.00758237 	0.00189559 	8.27868e-09 	0.0307034 	0.0837372 	0.000954904 	0 	0 	0 	
0.000524933 	1.50805e-08 	0.92 	0.04 	0.04 	0.0291566 	-2.00811e-08 	
-0.0291567 	-0.0409067 	0.01175 	3.3412 	1.12541e-07 	20.0465 	10.0239 	
1.80906e-09 	182897 	1833.58 	2291.97 	0.35 	17.0603 	0.195846 	8.74889e-05 	
0.00758237 	0.00189559 	1.18045e-08 	0.0437797 	0.120218 	0.00054357 	0 	0 	0 	
0.000612422 	1.74007e-08 	0.92 	0.04 	0.04 	0.0291564 	-2.14757e-08 	
-0.0291565 	-0.0409067 	0.0117503 	3.34125 	1.29856e-07 	23.3878 	6.68265 	
1.80909e-09 	182897 	1833.58 	2291.97 	0.35 	17.0603 	0.195849 	8.74889e-05 	
0.00758237 	0.00189559 	1.59902e-08 	0.0593035 	0.163332 	0.000249753 	0 	0 	0 	
0.000699911 	1.97209e-08 	0.92 	0.04 	0.04 	0.0291562 	-2.23125e-08 	
-0.0291562 	-0.0409067 	0.0117505 	3.34132 	1.47173e-07 	26.7291 	3.34136 	
1.80913e-09 	182897 	1833.58 	2291.97 	0.35 	17.0603 	0.195853 	8.74889e-05 	
0.00758237 	0.00189559 	2.08359e-08 	0.077275 	0.213081 	7.34582e-05 	0 	0 	0 	
0.0007874 	2.0881e-08 	0.92 	0.04 	0.04 	0.0291559 	-2.25914e-08 	
-0.029156 	-0.0409067 	0.0117508 	1.6707 	1.47173e-07 	29.2351 	0.83535 	
9.04586e-10 	91448.4 	916.789 	1145.99 	0.35 	8.53017 	0.195858 	4.37444e-05 	
0.00379119 	0.000947796 	2.34238e-08 	0.0868728 	0.239614 	1.46921e-05 	0 	0 	0 	
ZONE T = "t = 4.56259e-07 [s]" I = 10 SOLUTIONTIME = 4.5625890260013E-07
0 	1.16002e-09 	0.92 	0.04 	0.04 	0.0291572 	0 	
-0.0291572 	-0.0409067 	0.0117495 	1.67052 	8.65685e-09 	0.835259 	29.2352 	
1.31375e-09 	91448.4 	916.789 	1145.99 	0.35 	8.53017 	0.195837 	4.37444e-05 	
0.00379119 	0.000947796 	7.6577e-10 	0.00183965 	0.000853269 	0.00436936 	0 	0 	0 	
8.74889e-05 	3.48006e-09 	0.92 	0.04 	0.04 	0.0291572 	-4.74132e-09 	
-0.0291572 	-0.0409067 	0.0117495 	3.34104 	2.59706e-08 	3.34104 	26.7294 	
2.6275e-09 	182897 	1833.58 	2291.97 	0.35 	17.0603 	0.195837 	8.74889e-05 	
0.00758237 	0.00189559 	1.19528e-09 	0.00287148 	0.00426635 	0.00388557 	0 	0 	0 	
0.000174978 	5.8001e-09 	0.92 	0.04 	0.04 	0.0291571 	-8.92486e-09 	
-0.0291572 	-0.0409067 	0.0117496 	3.34105 	4.32844e-08 	6.68209 	23.3883 	
2.62751e-09 	182897 	1833.58 	2291.97 	0.35 	17.0603 	0.195838 	8.74889e-05 	
0.00758237 	0.00189559 	2.56361e-09 	0.0061587 	0.0145056 	0.00297846 	0 	0 	0 	
0.000262467 	8.12017e-09 	0.92 	0.04 	0.04 	0.0291571 	-1.25506e-08 	
-0.0291571 	-0.0409067 	0.0117496 	3.34107 	6.05983e-08 	10.0231 	20.0473 	
2.62753e-09 	182897 	1833.58 	2291.97 	0.35 	17.0603 	0.195839 	8.74889e-05 	
0.00758237 	0.00189559 	4.95059e-09 	0.0118931 	0.0315712 	0.0021923 	0 	0 	0 	
0.000349956 	1.04403e-08 	0.92 	0.04 	0.04 	0.029157 	-1.56186e-08 	
-0.029157 	-0.0409067 	0.0117497 	3.34111 	7.79123e-08 	13.3642 	16.7062 	
2.62755e-09 	182897 	1833.58 	2291.97 	0.35 	17.0603 	0.195841 	8.74889e-05 	
0.00758237 	0.00189559 	8.35623e-09 	0.0200746 	0.0554633 	0.00152707 	0 	0 	0 	
0.000437444 	1.27603e-08 	0.92 	0.04 	0.04 	0.0291568 	-1.81288e-08 	
-0.0291568 	-0.0409067 	0.0117499 	3.34115 	9.52266e-08 	16.7054 	13.365 	
2.62758e-09 	182897 	1833.58 	2291.97 	0.35 	17.0603 	0.195843 	8.74889e-05 	
0.00758237 	0.00189559 	1.27806e-08 	0.0307034 	0.0861821 	0.000982784 	0 	0 	0 	
0.000524933 	1.50805e-08 	0.92 	0.04 	0.04 	0.0291566 	-2.00811e-08 	
-0.0291567 	-0.0409067 	0.01175 	3.3412 	1.12541e-07 	20.0465 	10.0239 	
2.62762e-09 	182897 	1833.58 	2291.97 	0.35 	17.0603 	0.195846 	8.74889e-05 	
0.00758237 	0.00189559 	1.82237e-08 	0.0437797 	0.123728 	0.000559441 	0 	0 	0 	
0.000612422 	1.74006e-08 	0.92 	0.04 	0.04 	0.0291564 	-2.14757e-08 	
-0.0291565 	-0.0409067 	0.0117503 	3.34125 	1.29856e-07 	23.3878 	6.68265 	
2.62767e-09 	182897 	1833.58 	2291.97 	0.35 	17.0603 	0.195849 	8.74889e-05 	
0.00758237 	0.00189559 	2.46856e-08 	0.0593035 	0.168101 	0.000257045 	0 	0 	0 	
0.000699911 	1.97209e-08 	0.92 	0.04 	0.04 	0.0291562 	-2.23125e-08 	
-0.0291562 	-0.0409067 	0.0117505 	3.34132 	1.47173e-07 	26.7291 	3.34136 	
2.62772e-09 	182897 	1833.58 	2291.97 	0.35 	17.0603 	0.195853 	8.74889e-05 	
0.00758237 	0.00189559 	3.21664e-08 	0.077275 	0.219303 	7.5603e-05 	0 	0 	0 	
0.0007874 	2.08811e-08 	0.92 	0.04 	0.04 	0.0291559 	-2.25914e-08 	
-0.029156 	-0.0409067 	0.0117508 	1.6707 	1.47173e-07 	29.2351 	0.83535 	
1.31389e-09 	91448.4 	916.789 	1145.99 	0.35 	8.53017 	0.195858 	4.37444e-05 	
0.00379119 	0.000947796 	3.61616e-08 	0.0868728 	0.24661 	1.5121e-05 	0 	0 	0 	
ZONE T = "t = 6.76197e-07 [s]" I = 10 SOLUTIONTIME = 6.7619705297269E-07
0 	1.16002e-09 	0.92 	0.04 	0.04 	0.0291572 	0 	
-0.0291572 	-0.0409067 	0.0117495 	1.67052 	8.65685e-09 	0.835259 	29.2352 	
1.92764e-09 	91448.4 	916.789 	1145.99 	0.35 	8.53017 	0.195837 	4.37444e-05 	
0.00379119 	0.000947796 	1.17038e-09 	0.00183965 	0.000869406 	0.00445199 	0 	0 	0 	
8.74889e-05 	3.48009e-09 	0.92 	0.04 	0.04 	0.0291572 	-4.74132e-09 	
-0.0291572 	-0.0409067 	0.0117495 	3.34104 	2.59706e-08 	3.34104 	26.7294 	
3.85529e-09 	182897 	1833.58 	2291.97 	0.35 	17.0603 	0.195837 	8.74889e-05 	
0.00758237 	0.00189559 	1.82683e-09 	0.00287148 	0.00434704 	0.00395906 	0 	0 	0 	
0.000174978 	5.80014e-09 	0.92 	0.04 	0.04 	0.0291571 	-8.92486e-09 	
-0.0291572 	-0.0409067 	0.0117496 	3.34105 	4.32844e-08 	6.68209 	23.3883 	
3.8553e-09 	182897 	1833.58 	2291.97 	0.35 	17.0603 	0.195838 	8.74889e-05 	
0.00758237 	0.00189559 	3.91815e-09 	0.0061587 	0.01478 	0.00303479 	0 	0 	0 	
0.000262467 	8.1202e-09 	0.92 	0.04 	0.04 	0.0291571 	-1.25506e-08 	
-0.0291571 	-0.0409067 	0.0117496 	3.34107 	6.05983e-08 	10.0231 	20.0473 	
3.85533e-09 	182897 	1833.58 	2291.97 	0.35 	17.0603 	0.195839 	8.74889e-05 	
0.00758237 	0.00189559 	7.56632e-09 	0.0118931 	0.0321683 	0.00223376 	0 	0 	0 	
0.000349956 	1.04403e-08 	0.92 	0.04 	0.04 	0.029157 	-1.56186e-08 	
-0.029157 	-0.0409067 	0.0117497 	3.34111 	7.79123e-08 	13.3642 	16.7062 	
3.85537e-09 	182897 	1833.58 	2291.97 	0.35 	17.0603 	0.195841 	8.74889e-05 	
0.00758237 	0.00189559 	1.27714e-08 	0.0200746 	0.0565122 	0.00155595 	0 	0 	0 	
0.000437444 	1.27604e-08 	0.92 	0.04 	0.04 	0.0291568 	-1.81288e-08 	
-0.0291568 	-0.0409067 	0.0117499 	3.34115 	9.52266e-08 	16.7054 	13.365 	
3.85541e-09 	182897 	1833.58 	2291.97 	0.35 	17.0603 	0.195843 	8.74889e-05 	
0.00758237 	0.00189559 	1.95334e-08 	0.0307034 	0.087812 	0.00100137 	0 	0 	0 	
0.000524933 	1.50806e-08 	0.92 	0.04 	0.04 	0.0291566 	-2.00811e-08 	
-0.0291567 	-0.0409067 	0.01175 	3.3412 	1.12541e-07 	20.0465 	10.0239 	
3.85547e-09 	182897 	1833.58 	2291.97 	0.35 	17.0603 	0.195846 	8.74889e-05 	
0.00758237 	0.00189559 	2.78525e-08 	0.0437797 	0.126068 	0.000570021 	0 	0 	0 	
0.000612422 	1.74008e-08 	0.92 	0.04 	0.04 	0.0291564 	-2.14757e-08 	
-0.0291565 	-0.0409067 	0.0117503 	3.34125 	1.29856e-07 	23.3878 	6.68265 	
3.85554e-09 	182897 	1833.58 	2291.97 	0.35 	17.0603 	0.195849 	8.74889e-05 	
0.00758237 	0.00189559 	3.77287e-08 	0.0593035 	0.17128 	0.000261907 	0 	0 	0 	
0.000699911 	1.97211e-08 	0.92 	0.04 	0.04 	0.0291562 	-2.23125e-08 	
-0.0291562 	-0.0409067 	0.0117505 	3.34132 	1.47174e-07 	26.7291 	3.34136 	
3.85562e-09 	182897 	1833.58 	2291.97 	0.35 	17.0603 	0.195853 	8.74889e-05 	
0.00758237 	0.00189559 	4.91621e-08 	0.077275 	0.22345 	7.70328e-05 	0 	0 	0 	
0.0007874 	2.08812e-08 	0.92 	0.04 	0.04 	0.0291559 	-2.25914e-08 	
-0.029156 	-0.0409067 	0.0117508 	1.6707 	1.47174e-07 	29.2351 	0.83535 	
1.92785e-09 	91448.4 	916.789 	1145.99 	0.35 	8.53017 	0.195858 	4.37444e-05 	
0.00379119 	0.000947796 	5.52682e-08 	0.0868728 	0.251274 	1.5407e-05 	0 	0 	0 	
ZONE T = "t = 1.0061e-06 [s]" I = 10 SOLUTIONTIME = 1.0061042785315E-06
0 	1.16002e-09 	0.92 	0.04 	0.04 	0.0291572 	0 	
-0.0291572 	-0.0409067 	0.0117495 	1.67052 	8.65685e-09 	0.835259 	29.2352 	
2.84848e-09 	91448.4 	916.789 	1145.99 	0.35 	8.53017 	0.195837 	4.37444e-05 	
0.00379119 	0.000947796 	1.77729e-09 	0.00183965 	0.000880165 	0.00450708 	0 	0 	0 	
8.74889e-05 	3.48006e-09 	0.92 	0.04 	0.04 	0.0291572 	-4.74132e-09 	
-0.0291572 	-0.0409067 	0.0117495 	3.34104 	2.59706e-08 	3.34104 	26.7294 	
5.69697e-09 	182897 	1833.58 	2291.97 	0.35 	17.0603 	0.195837 	8.74889e-05 	
0.00758237 	0.00189559 	2.77415e-09 	0.00287148 	0.00440083 	0.00400805 	0 	0 	0 	
0.000174978 	5.8001e-09 	0.92 	0.04 	0.04 	0.0291571 	-8.92486e-09 	
-0.0291572 	-0.0409067 	0.0117496 	3.34105 	4.32844e-08 	6.68209 	23.3883 	
5.697e-09 	182897 	1833.58 	2291.97 	0.35 	17.0603 	0.195838 	8.74889e-05 	
0.00758237 	0.00189559 	5.94994e-09 	0.0061587 	0.0149629 	0.00307235 	0 	0 	0 	
0.000262467 	8.12017e-09 	0.92 	0.04 	0.04 	0.0291571 	-1.25506e-08 	
-0.0291571 	-0.0409067 	0.0117496 	3.34107 	6.05983e-08 	10.0231 	20.0473 	
5.69703e-09 	182897 	1833.58 	2291.97 	0.35 	17.0603 	0.195839 	8.74889e-05 	
0.00758237 	0.00189559 	1.14899e-08 	0.0118931 	0.0325664 	0.0022614 	0 	0 	0 	
0.000349956 	1.04403e-08 	0.92 	0.04 	0.04 	0.029157 	-1.56186e-08 	
-0.029157 	-0.0409067 	0.0117497 	3.34111 	7.79123e-08 	13.3642 	16.7062 	
5.69709e-09 	182897 	1833.58 	2291.97 	0.35 	17.0603 	0.195841 	8.74889e-05 	
0.00758237 	0.00189559 	1.93942e-08 	0.0200746 	0.0572115 	0.0015752 	0 	0 	0 	
0.000437444 	1.27604e-08 	0.92 	0.04 	0.04 	0.0291568 	-1.81288e-08 	
-0.0291568 	-0.0409067 	0.0117499 	3.34115 	9.52266e-08 	16.7054 	13.365 	
5.69716e-09 	182897 	1833.58 	2291.97 	0.35 	17.0603 	0.195843 	8.74889e-05 	
0.00758237 	0.00189559 	2.96627e-08 	0.0307034 	0.0888986 	0.00101376 	0 	0 	0 	
0.000524933 	1.50805e-08 	0.92 	0.04 	0.04 	0.0291566 	-2.00811e-08 	
-0.0291567 	-0.0409067 	0.01175 	3.3412 	1.12541e-07 	20.0465 	10.0239 	