TITLE = "Solution on Domain BulkDomain1D_0"
VARIABLES = "x [m]"  
"Vel_axial" 	"MF_sp(ECDMC)" 	"MF_sp(Li+)" 	"MF_sp(PF6-)" 	"Volt(Electroly)" 	"Volt(AnodeVolt)" 	
"Potential Drop Electrode-Electrolyte [V]" 	"Surf_0 Equilibrium Potential Drop Electrode-Electrolyte [V]" 	"Overpotential_0 [V]" 	"Current Source [A/m^2]" 	"Li+ flux [kmol/m^2/s]" 	"Electrolyte Current [A/m^2]" 	"Electrode Current [A/m^2]" 	
"Capacity discharged [A-s]" 	"Depth of discharge [-]" 	"Capacity remaining [A-s]" 	"Initial capacity [A-s]" 	"Porosity []" 	"Surface Area [m2/m2] (area per area)" 	"Specific current (per particle area) [A/m^2]" 	"Control volume thickness [m]" 	
"Moles Li_C6-bulk [mol/m^2] (per electrode area)" 	"Moles V_C6-bulk [mol/m^2] (per electrode area)" 	"qHeat_accum [J/m3]" 	"qHeat_step [W/m3]" 	"Joule_Lyte [W/m3]" 	"Joule_Solid [W/m3]" 	"electrodHeat [W/m3]" 	"OverpotHeat [W/m3]" 	"deltaSHeat [W/m3]" 	

ZONE T = "t = 4e-08 [s]" I = 10 SOLUTIONTIME = 4.0000000000000E-08
0 	1.16001e-09 	0.92 	0.04 	0.04 	0.0291573 	0 	
0 	0 	0 	0 	0 	0.835256 	15.7181 	
0 	0 	0 	0 	0.35 	8.53017 	0.195836 	4.37444e-05 	
0.00379119 	0.000947796 	0 	0.0 	 0.0 	 0.0 	 0.0 	 0.0 	 0.0 	 
8.74889e-05 	3.48004e-09 	0.92 	0.04 	0.04 	0.0291572 	-2.48467e-09 	
0 	0 	0 	0 	0 	3.34103 	14.0074 	
0 	0 	0 	0 	0.35 	17.0603 	0.195836 	8.74889e-05 	
0.00758237 	0.00189559 	0 	0.0 	 0.0 	 0.0 	 0.0 	 0.0 	 0.0 	 
0.000174978 	5.80008e-09 	0.92 	0.04 	0.04 	0.0291572 	-4.67703e-09 	
0 	0 	0 	0 	0 	6.68206 	12.2565 	
0 	0 	0 	0 	0.35 	17.0603 	0.195837 	8.74889e-05 	
0.00758237 	0.00189559 	0 	0.0 	 0.0 	 0.0 	 0.0 	 0.0 	 0.0 	 
0.000262467 	8.12014e-09 	0.92 	0.04 	0.04 	0.0291571 	-6.57709e-09 	
0 	0 	0 	0 	0 	10.0231 	10.5057 	
0 	0 	0 	0 	0.35 	17.0603 	0.195838 	8.74889e-05 	
0.00758237 	0.00189559 	0 	0.0 	 0.0 	 0.0 	 0.0 	 0.0 	 0.0 	 
0.000349956 	1.04402e-08 	0.92 	0.04 	0.04 	0.029157 	-8.18485e-09 	
0 	0 	0 	0 	0 	13.3642 	8.75479 	
0 	0 	0 	0 	0.35 	17.0603 	0.19584 	8.74889e-05 	
0.00758237 	0.00189559 	0 	0.0 	 0.0 	 0.0 	 0.0 	 0.0 	 0.0 	 
0.000437444 	1.27603e-08 	0.92 	0.04 	0.04 	0.0291569 	-9.50029e-09 	
0 	0 	0 	0 	0 	16.7053 	7.00389 	
0 	0 	0 	0 	0.35 	17.0603 	0.195842 	8.74889e-05 	
0.00758237 	0.00189559 	0 	0.0 	 0.0 	 0.0 	 0.0 	 0.0 	 0.0 	 
0.000524933 	1.50805e-08 	0.92 	0.04 	0.04 	0.0291567 	-1.05234e-08 	
0 	0 	0 	0 	0 	20.0465 	5.25296 	
0 	0 	0 	0 	0.35 	17.0603 	0.195845 	8.74889e-05 	
0.00758237 	0.00189559 	0 	0.0 	 0.0 	 0.0 	 0.0 	 0.0 	 0.0 	 
0.000612422 	1.74006e-08 	0.92 	0.04 	0.04 	0.0291565 	-1.12542e-08 	
0 	0 	0 	0 	0 	23.3877 	3.50201 	
0 	0 	0 	0 	0.35 	17.0603 	0.195849 	8.74889e-05 	
0.00758237 	0.00189559 	0 	0.0 	 0.0 	 0.0 	 0.0 	 0.0 	 0.0 	 
0.000699911 	1.97209e-08 	0.92 	0.04 	0.04 	0.0291562 	-1.16927e-08 	
0 	0 	0 	0 	0 	26.729 	1.75102 	
0 	0 	0 	0 	0.35 	17.0603 	0.195853 	8.74889e-05 	
0.00758237 	0.00189559 	0 	0.0 	 0.0 	 0.0 	 0.0 	 0.0 	 0.0 	 
0.0007874 	2.0881e-08 	0.92 	0.04 	0.04 	0.029156 	-1.18389e-08 	
0 	0 	0 	0 	0 	29.235 	0.437761 	
0 	0 	0 	0 	0.35 	8.53017 	0.195857 	4.37444e-05 	
0.00379119 	0.000947796 	0 	0.0 	 0.0 	 0.0 	 0.0 	 0.0 	 0.0 	 
ZONE T = "t = 5.5e-08 [s]" I = 10 SOLUTIONTIME = 5.5000000000000E-08
0 	1.16002e-09 	0.92 	0.04 	0.04 	0.0291572 	0 	
-0.0291573 	-0.0409067 	0.0117495 	1.67051 	8.65682e-09 	0.835259 	29.2352 	
1.84841e-10 	91448.4 	916.789 	1145.99 	0.35 	8.53017 	0.195837 	4.37444e-05 	
0.00379119 	0.000947796 	2.75947e-11 	0.00183965 	0.00030056 	0.00153909 	0 	0 	0 	
8.74889e-05 	3.48006e-09 	0.92 	0.04 	0.04 	0.0291572 	-4.74132e-09 	
-0.0291572 	-0.0409067 	0.0117495 	3.34103 	2.59705e-08 	3.34104 	26.7294 	
3.69682e-10 	182897 	1833.58 	2291.97 	0.35 	17.0603 	0.195837 	8.74889e-05 	
0.00758237 	0.00189559 	4.30722e-11 	0.00287148 	0.0015028 	0.00136868 	0 	0 	0 	
0.000174978 	5.8001e-09 	0.92 	0.04 	0.04 	0.0291571 	-8.92486e-09 	
-0.0291572 	-0.0409067 	0.0117495 	3.34104 	4.32842e-08 	6.68209 	23.3883 	
3.69684e-10 	182897 	1833.58 	2291.97 	0.35 	17.0603 	0.195838 	8.74889e-05 	
0.00758237 	0.00189559 	9.23805e-11 	0.0061587 	0.00510955 	0.00104915 	0 	0 	0 	
0.000262467 	8.12017e-09 	0.92 	0.04 	0.04 	0.0291571 	-1.25506e-08 	
-0.0291571 	-0.0409067 	0.0117496 	3.34106 	6.05981e-08 	10.0231 	20.0473 	
3.69687e-10 	182897 	1833.58 	2291.97 	0.35 	17.0603 	0.195839 	8.74889e-05 	
0.00758237 	0.00189559 	1.78396e-10 	0.0118931 	0.0111208 	0.000772228 	0 	0 	0 	
0.000349956 	1.04403e-08 	0.92 	0.04 	0.04 	0.029157 	-1.56186e-08 	
-0.029157 	-0.0409067 	0.0117497 	3.3411 	7.79121e-08 	13.3642 	16.7062 	
3.69691e-10 	182897 	1833.58 	2291.97 	0.35 	17.0603 	0.195841 	8.74889e-05 	
0.00758237 	0.00189559 	3.01119e-10 	0.0200746 	0.0195367 	0.000537904 	0 	0 	0 	
0.000437444 	1.27606e-08 	0.92 	0.04 	0.04 	0.0291568 	-1.81288e-08 	
-0.0291569 	-0.0409067 	0.0117498 	3.34114 	9.52263e-08 	16.7054 	13.365 	
3.69696e-10 	182897 	1833.58 	2291.97 	0.35 	17.0603 	0.195843 	8.74889e-05 	
0.00758237 	0.00189559 	4.60552e-10 	0.0307034 	0.0303573 	0.000346181 	0 	0 	0 	
0.000524933 	1.50808e-08 	0.92 	0.04 	0.04 	0.0291566 	-2.00811e-08 	
-0.0291567 	-0.0409067 	0.01175 	3.34119 	1.12541e-07 	20.0465 	10.0239 	
3.69702e-10 	182897 	1833.58 	2291.97 	0.35 	17.0603 	0.195846 	8.74889e-05 	
0.00758237 	0.00189559 	6.56695e-10 	0.0437797 	0.0435826 	0.000197061 	0 	0 	0 	
0.000612422 	1.74012e-08 	0.92 	0.04 	0.04 	0.0291564 	-2.14757e-08 	
-0.0291565 	-0.0409067 	0.0117502 	3.34124 	1.29856e-07 	23.3878 	6.68265 	
3.69709e-10 	182897 	1833.58 	2291.97 	0.35 	17.0603 	0.195849 	8.74889e-05 	
0.00758237 	0.00189559 	8.89553e-10 	0.0593035 	0.059213 	9.05431e-05 	0 	0 	0 	
0.000699911 	1.97209e-08 	0.92 	0.04 	0.04 	0.0291562 	-2.23125e-08 	
-0.0291563 	-0.0409067 	0.0117505 	3.34131 	1.47171e-07 	26.7291 	3.34136 	
3.69718e-10 	182897 	1833.58 	2291.97 	0.35 	17.0603 	0.195853 	8.74889e-05 	
0.00758237 	0.00189559 	1.15913e-09 	0.077275 	0.0772484 	2.66308e-05 	0 	0 	0 	
0.0007874 	2.08816e-08 	0.92 	0.04 	0.04 	0.0291559 	-2.25914e-08 	
-0.029156 	-0.0409067 	0.0117507 	1.6707 	1.47171e-07 	29.2351 	0.83535 	
1.84864e-10 	91448.4 	916.789 	1145.99 	0.35 	8.53017 	0.195858 	4.37444e-05 	
0.00379119 	0.000947796 	1.30309e-09 	0.0868728 	0.0868674 	5.32632e-06 	0 	0 	0 	
ZONE T = "t = 7.42658e-08 [s]" I = 10 SOLUTIONTIME = 7.4265793583138E-08
0 	1.16002e-09 	0.92 	0.04 	0.04 	0.0291572 	0 	
-0.0291572 	-0.0409067 	0.0117495 	1.67052 	8.65685e-09 	0.835259 	29.2352 	
2.47643e-10 	91448.4 	916.789 	1145.99 	0.35 	8.53017 	0.195837 	4.37444e-05 	
0.00379119 	0.000947796 	6.3037e-11 	0.00183965 	0.000534571 	0.00273739 	0 	0 	0 	
8.74889e-05 	3.48006e-09 	0.92 	0.04 	0.04 	0.0291572 	-4.74132e-09 	
-0.0291572 	-0.0409067 	0.0117495 	3.34104 	2.59706e-08 	3.34104 	26.7294 	
4.95287e-10 	182897 	1833.58 	2291.97 	0.35 	17.0603 	0.195837 	8.74889e-05 	
0.00758237 	0.00189559 	9.83935e-11 	0.00287148 	0.00267286 	0.0024343 	0 	0 	0 	
0.000174978 	5.8001e-09 	0.92 	0.04 	0.04 	0.0291571 	-8.92486e-09 	
-0.0291572 	-0.0409067 	0.0117496 	3.34105 	4.32844e-08 	6.68209 	23.3883 	
4.95289e-10 	182897 	1833.58 	2291.97 	0.35 	17.0603 	0.195838 	8.74889e-05 	
0.00758237 	0.00189559 	2.11033e-10 	0.0061587 	0.00908775 	0.001866 	0 	0 	0 	
0.000262467 	8.12017e-09 	0.92 	0.04 	0.04 	0.0291571 	-1.25506e-08 	
-0.0291571 	-0.0409067 	0.0117496 	3.34107 	6.05983e-08 	10.0231 	20.0473 	
4.95293e-10 	182897 	1833.58 	2291.97 	0.35 	17.0603 	0.195839 	8.74889e-05 	
0.00758237 	0.00189559 	4.07525e-10 	0.0118931 	0.0197793 	0.00137347 	0 	0 	0 	
0.000349956 	1.04408e-08 	0.92 	0.04 	0.04 	0.029157 	-1.56186e-08 	
-0.029157 	-0.0409067 	0.0117497 	3.34111 	7.79123e-08 	13.3642 	16.7062 	
4.95298e-10 	182897 	1833.58 	2291.97 	0.35 	17.0603 	0.195841 	8.74889e-05 	
0.00758237 	0.00189559 	6.87872e-10 	0.0200746 	0.0347476 	0.000956707 	0 	0 	0 	
0.000437444 	1.27607e-08 	0.92 	0.04 	0.04 	0.0291568 	-1.81288e-08 	
-0.0291568 	-0.0409067 	0.0117499 	3.34115 	9.52266e-08 	16.7054 	13.365 	
4.95304e-10 	182897 	1833.58 	2291.97 	0.35 	17.0603 	0.195843 	8.74889e-05 	
0.00758237 	0.00189559 	1.05208e-09 	0.0307034 	0.0539929 	0.000615712 	0 	0 	0 	
0.000524933 	1.50809e-08 	0.92 	0.04 	0.04 	0.0291566 	-2.00811e-08 	
-0.0291567 	-0.0409067 	0.01175 	3.3412 	1.12541e-07 	20.0465 	10.0239 	
4.95312e-10 	182897 	1833.58 	2291.97 	0.35 	17.0603 	0.195846 	8.74889e-05 	
0.00758237 	0.00189559 	1.50015e-09 	0.0437797 	0.0775153 	0.000350488 	0 	0 	0 	
0.000612422 	1.74011e-08 	0.92 	0.04 	0.04 	0.0291564 	-2.14757e-08 	
-0.0291565 	-0.0409067 	0.0117503 	3.34125 	1.29856e-07 	23.3878 	6.68265 	
4.95322e-10 	182897 	1833.58 	2291.97 	0.35 	17.0603 	0.195849 	8.74889e-05 	
0.00758237 	0.00189559 	2.03208e-09 	0.0593035 	0.105315 	0.000161038 	0 	0 	0 	
0.000699911 	1.97213e-08 	0.92 	0.04 	0.04 	0.0291562 	-2.23125e-08 	
-0.0291562 	-0.0409067 	0.0117505 	3.34132 	1.47172e-07 	26.7291 	3.34136 	
4.95333e-10 	182897 	1833.58 	2291.97 	0.35 	17.0603 	0.195853 	8.74889e-05 	
0.00758237 	0.00189559 	2.64789e-09 	0.077275 	0.137393 	4.73651e-05 	0 	0 	0 	
0.0007874 	2.08815e-08 	0.92 	0.04 	0.04 	0.0291559 	-2.25914e-08 	
-0.029156 	-0.0409067 	0.0117508 	1.6707 	1.47172e-07 	29.2351 	0.83535 	
2.47673e-10 	91448.4 	916.789 	1145.99 	0.35 	8.53017 	0.195858 	4.37444e-05 	
0.00379119 	0.000947796 	2.97676e-09 	0.0868728 	0.154501 	9.47329e-06 	0 	0 	0 	
ZONE T = "t = 1.03164e-07 [s]" I = 10 SOLUTIONTIME = 1.0316448395784E-07
0 	1.16002e-09 	0.92 	0.04 	0.04 	0.0291572 	0 	
-0.0291572 	-0.0409067 	0.0117495 	1.67052 	8.65685e-09 	0.835259 	29.2352 	
3.28306e-10 	91448.4 	916.789 	1145.99 	0.35 	8.53017 	0.195837 	4.37444e-05 	
0.00379119 	0.000947796 	1.162e-10 	0.00183965 	0.000656941 	0.00336402 	0 	0 	0 	
8.74889e-05 	3.48031e-09 	0.92 	0.04 	0.04 	0.0291572 	-4.74132e-09 	
-0.0291572 	-0.0409067 	0.0117495 	3.34104 	2.59706e-08 	3.34104 	26.7294 	
6.56612e-10 	182897 	1833.58 	2291.97 	0.35 	17.0603 	0.195837 	8.74889e-05 	
0.00758237 	0.00189559 	1.81376e-10 	0.00287148 	0.00328471 	0.00299154 	0 	0 	0 	
0.000174978 	5.80061e-09 	0.92 	0.04 	0.04 	0.0291571 	-8.92486e-09 	
-0.0291572 	-0.0409067 	0.0117496 	3.34105 	4.32844e-08 	6.68209 	23.3883 	
6.56615e-10 	182897 	1833.58 	2291.97 	0.35 	17.0603 	0.195838 	8.74889e-05 	
0.00758237 	0.00189559 	3.89011e-10 	0.0061587 	0.011168 	0.00229315 	0 	0 	0 	
0.000262467 	8.12092e-09 	0.92 	0.04 	0.04 	0.0291571 	-1.25506e-08 	
-0.0291571 	-0.0409067 	0.0117496 	3.34107 	6.05983e-08 	10.0231 	20.0473 	
6.56619e-10 	182897 	1833.58 	2291.97 	0.35 	17.0603 	0.195839 	8.74889e-05 	
0.00758237 	0.00189559 	7.51218e-10 	0.0118931 	0.024307 	0.00168787 	0 	0 	0 	
0.000349956 	1.04409e-08 	0.92 	0.04 	0.04 	0.029157 	-1.56186e-08 	
-0.029157 	-0.0409067 	0.0117497 	3.34111 	7.79123e-08 	13.3642 	16.7062 	
6.56626e-10 	182897 	1833.58 	2291.97 	0.35 	17.0603 	0.195841 	8.74889e-05 	
0.00758237 	0.00189559 	1.268e-09 	0.0200746 	0.0427018 	0.00117571 	0 	0 	0 	
0.000437444 	1.2761e-08 	0.92 	0.04 	0.04 	0.0291568 	-1.81288e-08 	
-0.0291568 	-0.0409067 	0.0117499 	3.34115 	9.52266e-08 	16.7054 	13.365 	
6.56635e-10 	182897 	1833.58 	2291.97 	0.35 	17.0603 	0.195843 	8.74889e-05 	
0.00758237 	0.00189559 	1.93937e-09 	0.0307034 	0.0663525 	0.000756656 	0 	0 	0 	
0.000524933 	1.50811e-08 	0.92 	0.04 	0.04 	0.0291566 	-2.00811e-08 	
-0.0291567 	-0.0409067 	0.01175 	3.3412 	1.12541e-07 	20.0465 	10.0239 	
6.56645e-10 	182897 	1833.58 	2291.97 	0.35 	17.0603 	0.195846 	8.74889e-05 	
0.00758237 	0.00189559 	2.76532e-09 	0.0437797 	0.0952595 	0.00043072 	0 	0 	0 	
0.000612422 	1.74012e-08 	0.92 	0.04 	0.04 	0.0291564 	-2.14757e-08 	
-0.0291565 	-0.0409067 	0.0117503 	3.34125 	1.29856e-07 	23.3878 	6.68265 	
6.56657e-10 	182897 	1833.58 	2291.97 	0.35 	17.0603 	0.195849 	8.74889e-05 	
0.00758237 	0.00189559 	3.74588e-09 	0.0593035 	0.129423 	0.000197902 	0 	0 	0 	
0.000699911 	1.97214e-08 	0.92 	0.04 	0.04 	0.0291562 	-2.23125e-08 	
-0.0291562 	-0.0409067 	0.0117505 	3.34132 	1.47172e-07 	26.7291 	3.34136 	
6.56672e-10 	182897 	1833.58 	2291.97 	0.35 	17.0603 	0.195853 	8.74889e-05 	
0.00758237 	0.00189559 	4.88104e-09 	0.077275 	0.168843 	5.82076e-05 	0 	0 	0 	
0.0007874 	2.08816e-08 	0.92 	0.04 	0.04 	0.0291559 	-2.25914e-08 	
-0.029156 	-0.0409067 	0.0117508 	1.6707 	1.47172e-07 	29.2351 	0.83535 	
3.28344e-10 	91448.4 	916.789 	1145.99 	0.35 	8.53017 	0.195858 	4.37444e-05 	
0.00379119 	0.000947796 	5.48727e-09 	0.0868728 	0.189868 	1.16418e-05 	0 	0 	0 	
ZONE T = "t = 1.46513e-07 [s]" I = 10 SOLUTIONTIME = 1.4651251951990E-07
0 	1.1601e-09 	0.92 	0.04 	0.04 	0.0291572 	0 	
-0.0291572 	-0.0409067 	0.0117495 	1.67052 	8.65685e-09 	0.835259 	29.2352 	
4.49299e-10 	91448.4 	916.789 	1145.99 	0.35 	8.53017 	0.195837 	4.37444e-05 	
0.00379119 	0.000947796 	1.95946e-10 	0.00183965 	0.000738521 	0.00378177 	0 	0 	0 	
8.74889e-05 	3.48022e-09 	0.92 	0.04 	0.04 	0.0291572 	-4.74132e-09 	
-0.0291572 	-0.0409067 	0.0117495 	3.34104 	2.59706e-08 	3.34104 	26.7294 	
8.986e-10 	182897 	1833.58 	2291.97 	0.35 	17.0603 	0.195837 	8.74889e-05 	
0.00758237 	0.00189559 	3.05849e-10 	0.00287148 	0.00369261 	0.00336304 	0 	0 	0 	
0.000174978 	5.8001e-09 	0.92 	0.04 	0.04 	0.0291571 	-8.92486e-09 	
-0.0291572 	-0.0409067 	0.0117496 	3.34105 	4.32844e-08 	6.68209 	23.3883 	
8.98603e-10 	182897 	1833.58 	2291.97 	0.35 	17.0603 	0.195838 	8.74889e-05 	
0.00758237 	0.00189559 	6.55978e-10 	0.0061587 	0.0125549 	0.00257792 	0 	0 	0 	
0.000262467 	8.12017e-09 	0.92 	0.04 	0.04 	0.0291571 	-1.25506e-08 	
-0.0291571 	-0.0409067 	0.0117496 	3.34107 	6.05983e-08 	10.0231 	20.0473 	
8.98609e-10 	182897 	1833.58 	2291.97 	0.35 	17.0603 	0.195839 	8.74889e-05 	
0.00758237 	0.00189559 	1.26676e-09 	0.0118931 	0.0273255 	0.00189748 	0 	0 	0 	
0.000349956 	1.04403e-08 	0.92 	0.04 	0.04 	0.029157 	-1.56186e-08 	
-0.029157 	-0.0409067 	0.0117497 	3.34111 	7.79123e-08 	13.3642 	16.7062 	
8.98618e-10 	182897 	1833.58 	2291.97 	0.35 	17.0603 	0.195841 	8.74889e-05 	
0.00758237 	0.00189559 	2.1382e-09 	0.0200746 	0.0480046 	0.00132171 	0 	0 	0 	
0.000437444 	1.27604e-08 	0.92 	0.04 	0.04 	0.0291568 	-1.81288e-08 	
-0.0291568 	-0.0409067 	0.0117499 	3.34115 	9.52266e-08 	16.7054 	13.365 	
8.9863e-10 	182897 	1833.58 	2291.97 	0.35 	17.0603 	0.195843 	8.74889e-05 	
0.00758237 	0.00189559 	3.2703e-09 	0.0307034 	0.0745923 	0.000850619 	0 	0 	0 	
0.000524933 	1.50805e-08 	0.92 	0.04 	0.04 	0.0291566 	-2.00811e-08 	
-0.0291567 	-0.0409067 	0.01175 	3.3412 	1.12541e-07 	20.0465 	10.0239 	
8.98644e-10 	182897 	1833.58 	2291.97 	0.35 	17.0603 	0.195846 	8.74889e-05 	
0.00758237 	0.00189559 	4.66309e-09 	0.0437797 	0.107089 	0.000484207 	0 	0 	0 	
0.000612422 	1.74007e-08 	0.92 	0.04 	0.04 	0.0291564 	-2.14757e-08 	
-0.0291565 	-0.0409067 	0.0117503 	3.34125 	1.29856e-07 	23.3878 	6.68265 	
8.9866e-10 	182897 	1833.58 	2291.97 	0.35 	17.0603 	0.195849 	8.74889e-05 	
0.00758237 	0.00189559 	6.31657e-09 	0.0593035 	0.145495 	0.000222478 	0 	0 	0 	
0.000699911 	1.97211e-08 	0.92 	0.04 	0.04 	0.0291562 	-2.23125e-08 	
-0.0291562 	-0.0409067 	0.0117505 	3.34132 	1.47172e-07 	26.7291 	3.34136 	
8.9868e-10 	182897 	1833.58 	2291.97 	0.35 	17.0603 	0.195853 	8.74889e-05 	
0.00758237 	0.00189559 	8.23076e-09 	0.077275 	0.189811 	6.54359e-05 	0 	0 	0 	
0.0007874 	2.0881e-08 	0.92 	0.04 	0.04 	0.0291559 	-2.25914e-08 	
-0.029156 	-0.0409067 	0.0117508 	1.6707 	1.47172e-07 	29.2351 	0.83535 	
4.49351e-10 	91448.4 	916.789 	1145.99 	0.35 	8.53017 	0.195858 	4.37444e-05 	
0.00379119 	0.000947796 	9.25304e-09 	0.0868728 	0.213446 	1.30875e-05 	0 	0 	0 	
ZONE T = "t = 2.11535e-07 [s]" I = 10 SOLUTIONTIME = 2.1153457286299E-07
0 	1.16002e-09 	0.92 	0.04 	0.04 	0.0291572 	0 	
-0.0291572 	-0.0409067 	0.0117495 	1.67052 	8.65685e-09 	0.835259 	29.2352 	
6.3079e-10 	91448.4 	916.789 	1145.99 	0.35 	8.53017 	0.195837 	4.37444e-05 	
0.00379119 	0.000947796 	3.15563e-10 	0.00183965 	0.000792908 	0.00406026 	0 	0 	0 	
8.74889e-05 	3.48006e-09 	0.92 	0.04 	0.04 	0.0291572 	-4.74132e-09 	
-0.0291572 	-0.0409067 	0.0117495 	3.34104 	2.59706e-08 	3.34104 	26.7294 	
1.26158e-09 	182897 	1833.58 	2291.97 	0.35 	17.0603 	0.195837 	8.74889e-05 	
0.00758237 	0.00189559 	4.92558e-10 	0.00287148 	0.00396454 	0.0036107 	0 	0 	0 	
0.000174978 	5.8001e-09 	0.92 	0.04 	0.04 	0.0291571 	-8.92486e-09 	
-0.0291572 	-0.0409067 	0.0117496 	3.34105 	4.32844e-08 	6.68209 	23.3883 	
1.26159e-09 	182897 	1833.58 	2291.97 	0.35 	17.0603 	0.195838 	8.74889e-05 	
0.00758237 	0.00189559 	1.05643e-09 	0.0061587 	0.0134795 	0.00276776 	0 	0 	0 	
0.000262467 	8.12006e-09 	0.92 	0.04 	0.04 	0.0291571 	-1.25506e-08 	
-0.0291571 	-0.0409067 	0.0117496 	3.34107 	6.05983e-08 	10.0231 	20.0473 	
1.26159e-09 	182897 	1833.58 	2291.97 	0.35 	17.0603 	0.195839 	8.74889e-05 	
0.00758237 	0.00189559 	2.04007e-09 	0.0118931 	0.0293378 	0.00203721 	0 	0 	0 	
0.000349956 	1.04402e-08 	0.92 	0.04 	0.04 	0.029157 	-1.56186e-08 	
-0.029157 	-0.0409067 	0.0117497 	3.34111 	7.79123e-08 	13.3642 	16.7062 	
1.26161e-09 	182897 	1833.58 	2291.97 	0.35 	17.0603 	0.195841 	8.74889e-05 	
0.00758237 	0.00189559 	3.44349e-09 	0.0200746 	0.0515397 	0.00141904 	0 	0 	0 	
0.000437444 	1.27603e-08 	0.92 	0.04 	0.04 	0.0291568 	-1.81288e-08 	
-0.0291568 	-0.0409067 	0.0117499 	3.34115 	9.52266e-08 	16.7054 	13.365 	
1.26162e-09 	182897 	1833.58 	2291.97 	0.35 	17.0603 	0.195843 	8.74889e-05 	
0.00758237 	0.00189559 	5.2667e-09 	0.0307034 	0.0800855 	0.000913261 	0 	0 	0 	
0.000524933 	1.50805e-08 	0.92 	0.04 	0.04 	0.0291566 	-2.00811e-08 	
-0.0291567 	-0.0409067 	0.01175 	3.3412 	1.12541e-07 	20.0465 	10.0239 	
1.26164e-09 	182897 	1833.58 	2291.97 	0.35 	17.0603 	0.195846 	8.74889e-05 	
0.00758237 	0.00189559 	7.50973e-09 	0.0437797 	0.114975 	0.000519865 	0 	0 	0 	
0.000612422 	1.74006e-08 	0.92 	0.04 	0.04 	0.0291564 	-2.14757e-08 	
-0.0291565 	-0.0409067 	0.0117503 	3.34125 	1.29856e-07 	23.3878 	6.68265 	
1.26166e-09 	182897 	1833.58 	2291.97 	0.35 	17.0603 	0.195849 	8.74889e-05 	
0.00758237 	0.00189559 	1.01726e-08 	0.0593035 	0.15621 	0.000238862 	0 	0 	0 	
0.000699911 	1.97209e-08 	0.92 	0.04 	0.04 	0.0291562 	-2.23125e-08 	
-0.0291562 	-0.0409067 	0.0117505 	3.34132 	1.47172e-07 	26.7291 	3.34136 	
1.26169e-09 	182897 	1833.58 	2291.97 	0.35 	17.0603 	0.195853 	8.74889e-05 	
0.00758237 	0.00189559 	1.32553e-08 	0.077275 	0.203789 	7.02548e-05 	0 	0 	0 	
0.0007874 	2.0881e-08 	0.92 	0.04 	0.04 	0.0291559 	-2.25914e-08 	
-0.029156 	-0.0409067 	0.0117508 	1.6707 	1.47172e-07 	29.2351 	0.83535 	
6.30861e-10 	91448.4 	916.789 	1145.99 	0.35 	8.53017 	0.195858 	4.37444e-05 	
0.00379119 	0.000947796 	1.49017e-08 	0.0868728 	0.229165 	1.40513e-05 	0 	0 	0 	
ZONE T = "t = 3.09068e-07 [s]" I = 10 SOLUTIONTIME = 3.0906765287763E-07
0 	1.16004e-09 	0.92 	0.04 	0.04 	0.0291572 	0 	
-0.0291572 	-0.0409067 	0.0117495 	1.67052 	8.65685e-09 	0.835259 	29.2352 	
9.03025e-10 	91448.4 	916.789 	1145.99 	0.35 	8.53017 	0.195837 	4.37444e-05 	
0.00379119 	0.000947796 	4.9499e-10 	0.00183965 	0.000829166 	0.00424593 	0 	0 	0 	
8.74889e-05 	3.48015e-09 	0.92 	0.04 	0.04 	0.0291572 	-4.74132e-09 	
-0.0291572 	-0.0409067 	0.0117495 	3.34104 	2.59706e-08 	3.34104 	26.7294 	
1.80605e-09 	182897 	1833.58 	2291.97 	0.35 	17.0603 	0.195837 	8.74889e-05 	
0.00758237 	0.00189559 	7.72622e-10 	0.00287148 	0.00414583 	0.00377581 	0 	0 	0 	
0.000174978 	5.8002e-09 	0.92 	0.04 	0.04 	0.0291571 	-8.92486e-09 	
-0.0291572 	-0.0409067 	0.0117496 	3.34105 	4.32844e-08 	6.68209 	23.3883 	
1.80606e-09 	182897 	1833.58 	2291.97 	0.35 	17.0603 	0.195838 	8.74889e-05 	
0.00758237 	0.00189559 	1.65711e-09 	0.0061587 	0.0140959 	0.00289433 	0 	0 	0 	
0.000262467 	8.12026e-09 	0.92 	0.04 	0.04 	0.0291571 	-1.25506e-08 	
-0.0291571 	-0.0409067 	0.0117496 	3.34107 	6.05983e-08 	10.0231 	20.0473 	
1.80607e-09 	182897 	1833.58 	2291.97 	0.35 	17.0603 	0.195839 	8.74889e-05 	
0.00758237 	0.00189559 	3.20004e-09 	0.0118931 	0.0306794 	0.00213037 	0 	0 	0 	
0.000349956 	1.04403e-08 	0.92 	0.04 	0.04 	0.029157 	-1.56186e-08 	
-0.029157 	-0.0409067 	0.0117497 	3.34111 	7.79123e-08 	13.3642 	16.7062 	
1.80609e-09 	182897 	1833.58 	2291.97 	0.35 	17.0603 	0.195841 	8.74889e-05 	
0.00758237 	0.00189559 	5.40143e-09 	0.0200746 	0.0538965 	0.00148393 	0 	0 	0 	
0.000437444 	1.27603e-08 	0.92 	0.04 	0.04 	0.0291568 	-1.81288e-08 	
-0.0291568 	-0.0409067 	0.0117499 	3.34115 	9.52266e-08 	16.7054 	13.365 	
1.80611e-09 	182897 	1833.58 	2291.97 	0.35 	17.0603 	0.195843 	8.74889e-05 	
0.00758237 	0.00189559 	8.2613e-09 	0.0307034 	0.0837476 	0.000955022 	0 	0 	0 	
0.000524933 	1.50805e-08 	0.92 	0.04 	0.04 	0.0291566 	-2.00811e-08 	
-0.0291567 	-0.0409067 	0.01175 	3.3412 	1.12541e-07 	20.0465 	10.0239 	
1.80614e-09 	182897 	1833.58 	2291.97 	0.35 	17.0603 	0.195846 	8.74889e-05 	
0.00758237 	0.00189559 	1.17797e-08 	0.0437797 	0.120233 	0.000543637 	0 	0 	0 	
0.000612422 	1.74007e-08 	0.92 	0.04 	0.04 	0.0291564 	-2.14757e-08 	
-0.0291565 	-0.0409067 	0.0117503 	3.34125 	1.29856e-07 	23.3878 	6.68265 	
1.80617e-09 	182897 	1833.58 	2291.97 	0.35 	17.0603 	0.195849 	8.74889e-05 	
0.00758237 	0.00189559 	1.59567e-08 	0.0593035 	0.163353 	0.000249784 	0 	0 	0 	
0.000699911 	1.97209e-08 	0.92 	0.04 	0.04 	0.0291562 	-2.23125e-08 	
-0.0291562 	-0.0409067 	0.0117505 	3.34132 	1.47173e-07 	26.7291 	3.34136 	
1.80621e-09 	182897 	1833.58 	2291.97 	0.35 	17.0603 	0.195853 	8.74889e-05 	
0.00758237 	0.00189559 	2.07922e-08 	0.077275 	0.213108 	7.34673e-05 	0 	0 	0 	
0.0007874 	2.08811e-08 	0.92 	0.04 	0.04 	0.0291559 	-2.25914e-08 	
-0.029156 	-0.0409067 	0.0117508 	1.6707 	1.47173e-07 	29.2351 	0.83535 	
9.03126e-10 	91448.4 	916.789 	1145.99 	0.35 	8.53017 	0.195858 	4.37444e-05 	
0.00379119 	0.000947796 	2.33746e-08 	0.0868728 	0.239644 	1.46939e-05 	0 	0 	0 	
ZONE T = "t = 4.55367e-07 [s]" I = 10 SOLUTIONTIME = 4.5536727289958E-07
0 	1.15998e-09 	0.92 	0.04 	0.04 	0.0291572 	0 	
-0.0291572 	-0.0409067 	0.0117495 	1.67052 	8.65685e-09 	0.835259 	29.2352 	
1.31138e-09 	91448.4 	916.789 	1145.99 	0.35 	8.53017 	0.195837 	4.37444e-05 	
0.00379119 	0.000947796 	7.6413e-10 	0.00183965 	0.000853338 	0.00436971 	0 	0 	0 	
8.74889e-05 	3.47995e-09 	0.92 	0.04 	0.04 	0.0291572 	-4.74132e-09 	
-0.0291572 	-0.0409067 	0.0117495 	3.34104 	2.59706e-08 	3.34104 	26.7294 	
2.62276e-09 	182897 	1833.58 	2291.97 	0.35 	17.0603 	0.195837 	8.74889e-05 	
0.00758237 	0.00189559 	1.19272e-09 	0.00287148 	0.00426669 	0.00388588 	0 	0 	0 	
0.000174978 	5.79999e-09 	0.92 	0.04 	0.04 	0.0291571 	-8.92486e-09 	
-0.0291572 	-0.0409067 	0.0117496 	3.34105 	4.32844e-08 	6.68209 	23.3883 	
2.62277e-09 	182897 	1833.58 	2291.97 	0.35 	17.0603 	0.195838 	8.74889e-05 	
0.00758237 	0.00189559 	2.55812e-09 	0.0061587 	0.0145068 	0.0029787 	0 	0 	0 	
0.000262467 	8.1201e-09 	0.92 	0.04 	0.04 	0.0291571 	-1.25506e-08 	
-0.0291571 	-0.0409067 	0.0117496 	3.34107 	6.05983e-08 	10.0231 	20.0473 	
2.62279e-09 	182897 	1833.58 	2291.97 	0.35 	17.0603 	0.195839 	8.74889e-05 	
0.00758237 	0.00189559 	4.93998e-09 	0.0118931 	0.0315737 	0.00219247 	0 	0 	0 	
0.000349956 	1.04402e-08 	0.92 	0.04 	0.04 	0.029157 	-1.56186e-08 	
-0.029157 	-0.0409067 	0.0117497 	3.34111 	7.79123e-08 	13.3642 	16.7062 	
2.62281e-09 	182897 	1833.58 	2291.97 	0.35 	17.0603 	0.195841 	8.74889e-05 	
0.00758237 	0.00189559 	8.33833e-09 	0.0200746 	0.0554677 	0.00152719 	0 	0 	0 	
0.000437444 	1.27604e-08 	0.92 	0.04 	0.04 	0.0291568 	-1.81288e-08 	
-0.0291568 	-0.0409067 	0.0117499 	3.34115 	9.52266e-08 	16.7054 	13.365 	
2.62285e-09 	182897 	1833.58 	2291.97 	0.35 	17.0603 	0.195843 	8.74889e-05 	
0.00758237 	0.00189559 	1.27532e-08 	0.0307034 	0.086189 	0.000982863 	0 	0 	0 	
0.000524933 	1.50805e-08 	0.92 	0.04 	0.04 	0.0291566 	-2.00811e-08 	
-0.0291567 	-0.0409067 	0.01175 	3.3412 	1.12541e-07 	20.0465 	10.0239 	
2.62288e-09 	182897 	1833.58 	2291.97 	0.35 	17.0603 	0.195846 	8.74889e-05 	
0.00758237 	0.00189559 	1.81847e-08 	0.0437797 	0.123738 	0.000559485 	0 	0 	0 	
0.000612422 	1.74007e-08 	0.92 	0.04 	0.04 	0.0291564 	-2.14757e-08 	
-0.0291565 	-0.0409067 	0.0117503 	3.34125 	1.29856e-07 	23.3878 	6.68265 	
2.62293e-09 	182897 	1833.58 	2291.97 	0.35 	17.0603 	0.195849 	8.74889e-05 	
0.00758237 	0.00189559 	2.46327e-08 	0.0593035 	0.168115 	0.000257066 	0 	0 	0 	
0.000699911 	1.97209e-08 	0.92 	0.04 	0.04 	0.0291562 	-2.23125e-08 	
-0.0291562 	-0.0409067 	0.0117505 	3.34132 	1.47173e-07 	26.7291 	3.34136 	
2.62299e-09 	182897 	1833.58 	2291.97 	0.35 	17.0603 	0.195853 	8.74889e-05 	
0.00758237 	0.00189559 	3.20975e-08 	0.077275 	0.21932 	7.56091e-05 	0 	0 	0 	
0.0007874 	2.08811e-08 	0.92 	0.04 	0.04 	0.0291559 	-2.25914e-08 	
-0.029156 	-0.0409067 	0.0117508 	1.6707 	1.47173e-07 	29.2351 	0.83535 	
1.31152e-09 	91448.4 	916.789 	1145.99 	0.35 	8.53017 	0.195858 	4.37444e-05 	
0.00379119 	0.000947796 	3.60841e-08 	0.0868728 	0.24663 	1.51222e-05 	0 	0 	0 	
ZONE T = "t = 6.74817e-07 [s]" I = 10 SOLUTIONTIME = 6.7481670293251E-07
0 	1.16002e-09 	0.92 	0.04 	0.04 	0.0291572 	0 	
-0.0291572 	-0.0409067 	0.0117495 	1.67052 	8.65685e-09 	0.835259 	29.2352 	
1.92391e-09 	91448.4 	916.789 	1145.99 	0.35 	8.53017 	0.195837 	4.37444e-05 	
0.00379119 	0.000947796 	1.16784e-09 	0.00183965 	0.000869452 	0.00445223 	0 	0 	0 	
8.74889e-05 	3.48006e-09 	0.92 	0.04 	0.04 	0.0291572 	-4.74132e-09 	
-0.0291572 	-0.0409067 	0.0117495 	3.34104 	2.59706e-08 	3.34104 	26.7294 	
3.84782e-09 	182897 	1833.58 	2291.97 	0.35 	17.0603 	0.195837 	8.74889e-05 	
0.00758237 	0.00189559 	1.82286e-09 	0.00287148 	0.00434727 	0.00395926 	0 	0 	0 	
0.000174978 	5.80009e-09 	0.92 	0.04 	0.04 	0.0291571 	-8.92486e-09 	
-0.0291572 	-0.0409067 	0.0117496 	3.34105 	4.32844e-08 	6.68209 	23.3883 	
3.84784e-09 	182897 	1833.58 	2291.97 	0.35 	17.0603 	0.195838 	8.74889e-05 	
0.00758237 	0.00189559 	3.90964e-09 	0.0061587 	0.0147807 	0.00303495 	0 	0 	0 	
0.000262467 	8.12012e-09 	0.92 	0.04 	0.04 	0.0291571 	-1.25506e-08 	
-0.0291571 	-0.0409067 	0.0117496 	3.34107 	6.05983e-08 	10.0231 	20.0473 	
3.84786e-09 	182897 	1833.58 	2291.97 	0.35 	17.0603 	0.195839 	8.74889e-05 	
0.00758237 	0.00189559 	7.54991e-09 	0.0118931 	0.03217 	0.00223388 	0 	0 	0 	
0.000349956 	1.04402e-08 	0.92 	0.04 	0.04 	0.029157 	-1.56186e-08 	
-0.029157 	-0.0409067 	0.0117497 	3.34111 	7.79123e-08 	13.3642 	16.7062 	
3.8479e-09 	182897 	1833.58 	2291.97 	0.35 	17.0603 	0.195841 	8.74889e-05 	
0.00758237 	0.00189559 	1.27437e-08 	0.0200746 	0.0565152 	0.00155603 	0 	0 	0 	
0.000437444 	1.27603e-08 	0.92 	0.04 	0.04 	0.0291568 	-1.81288e-08 	
-0.0291568 	-0.0409067 	0.0117499 	3.34115 	9.52266e-08 	16.7054 	13.365 	
3.84795e-09 	182897 	1833.58 	2291.97 	0.35 	17.0603 	0.195843 	8.74889e-05 	
0.00758237 	0.00189559 	1.94911e-08 	0.0307034 	0.0878166 	0.00100142 	0 	0 	0 	
0.000524933 	1.50804e-08 	0.92 	0.04 	0.04 	0.0291566 	-2.00811e-08 	
-0.0291567 	-0.0409067 	0.01175 	3.3412 	1.12541e-07 	20.0465 	10.0239 	
3.848e-09 	182897 	1833.58 	2291.97 	0.35 	17.0603 	0.195846 	8.74889e-05 	
0.00758237 	0.00189559 	2.77921e-08 	0.0437797 	0.126075 	0.000570051 	0 	0 	0 	
0.000612422 	1.74006e-08 	0.92 	0.04 	0.04 	0.0291564 	-2.14757e-08 	
-0.0291565 	-0.0409067 	0.0117503 	3.34125 	1.29856e-07 	23.3878 	6.68265 	
3.84807e-09 	182897 	1833.58 	2291.97 	0.35 	17.0603 	0.195849 	8.74889e-05 	
0.00758237 	0.00189559 	3.76469e-08 	0.0593035 	0.171289 	0.00026192 	0 	0 	0 	
0.000699911 	1.97208e-08 	0.92 	0.04 	0.04 	0.0291562 	-2.23125e-08 	
-0.0291562 	-0.0409067 	0.0117505 	3.34132 	1.47174e-07 	26.7291 	3.34136 	
3.84815e-09 	182897 	1833.58 	2291.97 	0.35 	17.0603 	0.195853 	8.74889e-05 	
0.00758237 	0.00189559 	4.90555e-08 	0.077275 	0.223462 	7.70369e-05 	0 	0 	0 	
0.0007874 	2.08809e-08 	0.92 	0.04 	0.04 	0.0291559 	-2.25914e-08 	
-0.029156 	-0.0409067 	0.0117508 	1.6707 	1.47174e-07 	29.2351 	0.83535 	
1.92412e-09 	91448.4 	916.789 	1145.99 	0.35 	8.53017 	0.195858 	4.37444e-05 	
0.00379119 	0.000947796 	5.51483e-08 	0.0868728 	0.251287 	1.54078e-05 	0 	0 	0 	
ZONE T = "t = 1.00399e-06 [s]" I = 10 SOLUTIONTIME = 1.0039908479819E-06
0 	1.16002e-09 	0.92 	0.04 	0.04 	0.0291572 	0 	
-0.0291572 	-0.0409067 	0.0117495 	1.67052 	8.65685e-09 	0.835259 	29.2352 	
2.8427e-09 	91448.4 	916.789 	1145.99 	0.35 	8.53017 	0.195837 	4.37444e-05 	
0.00379119 	0.000947796 	1.7734e-09 	0.00183965 	0.000880195 	0.00450724 	0 	0 	0 	
8.74889e-05 	3.48006e-09 	0.92 	0.04 	0.04 	0.0291572 	-4.74132e-09 	
-0.0291572 	-0.0409067 	0.0117495 	3.34104 	2.59706e-08 	3.34104 	26.7294 	
5.68542e-09 	182897 	1833.58 	2291.97 	0.35 	17.0603 	0.195837 	8.74889e-05 	
0.00758237 	0.00189559 	2.76808e-09 	0.00287148 	0.00440098 	0.00400818 	0 	0 	0 	
0.000174978 	5.80012e-09 	0.92 	0.04 	0.04 	0.0291571 	-8.92486e-09 	
-0.0291572 	-0.0409067 	0.0117496 	3.34105 	4.32844e-08 	6.68209 	23.3883 	
5.68544e-09 	182897 	1833.58 	2291.97 	0.35 	17.0603 	0.195838 	8.74889e-05 	
0.00758237 	0.00189559 	5.93693e-09 	0.0061587 	0.0149634 	0.00307245 	0 	0 	0 	
0.000262467 	8.12017e-09 	0.92 	0.04 	0.04 	0.0291571 	-1.25506e-08 	
-0.0291571 	-0.0409067 	0.0117496 	3.34107 	6.05983e-08 	10.0231 	20.0473 	
5.68547e-09 	182897 	1833.58 	2291.97 	0.35 	17.0603 	0.195839 	8.74889e-05 	
0.00758237 	0.00189559 	1.14648e-08 	0.0118931 	0.0325675 	0.00226148 	0 	0 	0 	
0.000349956 	1.04403e-08 	0.92 	0.04 	0.04 	0.029157 	-1.56186e-08 	
-0.029157 	-0.0409067 	0.0117497 	3.34111 	7.79123e-08 	13.3642 	16.7062 	
5.68553e-09 	182897 	1833.58 	2291.97 	0.35 	17.0603 	0.195841 	8.74889e-05 	
0.00758237 	0.00189559 	1.93517e-08 	0.0200746 	0.0572135 	0.00157526 	0 	0 	0 	
0.000437444 	1.27604e-08 	0.92 	0.04 	0.04 	0.0291568 	-1.81288e-08 	
-0.0291568 	-0.0409067 	0.0117499 	3.34115 	9.52266e-08 	16.7054 	13.365 	
5.6856e-09 	182897 	1833.58 	2291.97 	0.35 	17.0603 	0.195843 	8.74889e-05 	
0.00758237 	0.00189559 	2.95978e-08 	0.0307034 	0.0889017 	0.0010138 	0 	0 	0 	
0.000524933 	1.50805e-08 	0.92 	0.04 	0.04 	0.0291566 	-2.00811e-08 	
-0.0291567 	-0.0409067 	0.01175 	3.3412 	1.12541e-07 	20.0465 	10.0239 	