TITLE = "Solution on Domain BulkDomain1D_2"
VARIABLES = "x [m]"  
"Vel_axial(0)" 	"MF_sp(ECDMC)" 	"MF_sp(Li+)" 	"MF_sp(PF6-)" 	"Volt(Electroly)" 	"Volt(CathodeVo)" 	
"Potential Drop Electrode-Electrolyte [V]" 	"Surf_0 Equilibrium Potential Drop Electrode-Electrolyte [V]" 	"Overpotential_0 [V]" 	"Current Source [A/m^2]" 	"Li+ flux [kmol/m^2/s]" 	"Electrolyte Current [A/m^2]" 	"Electrode Current [A/m^2]" 	
"Capacity discharged [A-s]" 	"Depth of discharge [-]" 	"Capacity remaining [A-s]" 	"Initial capacity [A-s]" 	"Porosity []" 	"Surface Area [m2/m2] (area per area)" 	"Specific current (per particle area) [A/m^2]" 	"Control volume thickness [m]" 	
"Moles LiCoO2 [mol/m^2] (per electrode area)" 	"Moles CoO2 [mol/m^2] (per electrode area)" 	

ZONE T = "t = 4e-08 [s]" I = 10 SOLUTIONTIME = 4.0000000000000E-08
0.00127 	1.97216e-08 	0.92 	0.04 	0.04 	0.0291555 	3.80009 	
0 	0 	0 	0 	0 	29.1512 	0.834797 	
0 	0 	0 	0 	0.3493 	6.61111 	-0.252816 	3.38667e-05 	
0.000901926 	0.000601284 	
0.00133773 	1.74028e-08 	0.92 	0.04 	0.04 	0.0291553 	3.80009 	
0 	0 	0 	0 	0 	26.6509 	3.33922 	
0 	0 	0 	0 	0.3493 	13.2222 	-0.25282 	6.77333e-05 	
0.00180385 	0.00120257 	
0.00140547 	1.50839e-08 	0.92 	0.04 	0.04 	0.0291551 	3.80009 	
0 	0 	0 	0 	0 	23.3216 	6.67857 	
0 	0 	0 	0 	0.3493 	13.2222 	-0.252836 	6.77333e-05 	
0.00180385 	0.00120257 	
0.0014732 	1.27647e-08 	0.92 	0.04 	0.04 	0.029155 	3.80008 	
0 	0 	0 	0 	0 	19.992 	10.0182 	
0 	0 	0 	0 	0.3493 	13.2222 	-0.252863 	6.77333e-05 	
0.00180385 	0.00120257 	
0.00154093 	1.04452e-08 	0.92 	0.04 	0.04 	0.0291549 	3.80007 	
0 	0 	0 	0 	0 	16.6619 	13.3583 	
0 	0 	0 	0 	0.3493 	13.2222 	-0.252901 	6.77333e-05 	
0.00180385 	0.00120257 	
0.00160867 	8.12518e-09 	0.92 	0.04 	0.04 	0.0291547 	3.80006 	
0 	0 	0 	0 	0 	13.3313 	16.6989 	
0 	0 	0 	0 	0.3493 	13.2222 	-0.252951 	6.77333e-05 	
0.00180385 	0.00120257 	
0.0016764 	5.80462e-09 	0.92 	0.04 	0.04 	0.0291547 	3.80005 	
0 	0 	0 	0 	0 	9.99992 	20.0403 	
0 	0 	0 	0 	0.3493 	13.2222 	-0.253012 	6.77333e-05 	
0.00180385 	0.00120257 	
0.00174413 	3.48341e-09 	0.92 	0.04 	0.04 	0.0291546 	3.80004 	
0 	0 	0 	0 	0 	6.66769 	23.3826 	
0 	0 	0 	0 	0.3493 	13.2222 	-0.253084 	6.77333e-05 	
0.00180385 	0.00120257 	
0.00181187 	1.16143e-09 	0.92 	0.04 	0.04 	0.0291546 	3.80002 	
0 	0 	0 	0 	0 	3.33443 	26.7259 	
0 	0 	0 	0 	0.3493 	13.2222 	-0.253168 	6.77333e-05 	
0.00180385 	0.00120257 	
0.0018796 	0 	0.92 	0.04 	0.04 	0.0291545 	3.8 	
0 	0 	0 	0 	0 	0.833764 	29.2349 	
0 	0 	0 	0 	0.3493 	6.61111 	-0.253262 	3.38667e-05 	
0.000901926 	0.000601284 	
ZONE T = "t = 5.5e-08 [s]" I = 10 SOLUTIONTIME = 5.5000000000000E-08
0.00127 	1.9739e-08 	0.92 	0.04 	0.04 	0.0291454 	3.80009 	
3.77094 	3.97141 	-0.200478 	-1.67139 	1.46735e-07 	29.2612 	0.83553 	
-1.84862e-10 	7337.73 	123.616 	142.007 	0.3493 	6.61111 	-0.252765 	3.38667e-05 	
0.000901926 	0.000601284 	
0.00133773 	1.74181e-08 	0.92 	0.04 	0.04 	0.0291452 	3.80009 	
3.77094 	3.97141 	-0.200479 	-3.34285 	1.29482e-07 	26.7546 	3.34215 	
-3.69732e-10 	14675.5 	247.232 	284.013 	0.3493 	13.2222 	-0.25277 	6.77333e-05 	
0.00180385 	0.00120257 	
0.00140547 	1.50972e-08 	0.92 	0.04 	0.04 	0.029145 	3.80009 	
3.77093 	3.97141 	-0.200482 	-3.34306 	1.12229e-07 	23.4123 	6.68444 	
-3.69758e-10 	14675.5 	247.232 	284.013 	0.3493 	13.2222 	-0.252786 	6.77333e-05 	
0.00180385 	0.00120257 	
0.0014732 	1.27759e-08 	0.92 	0.04 	0.04 	0.0291448 	3.80008 	
3.77093 	3.97141 	-0.200488 	-3.34341 	9.49733e-08 	20.0697 	10.027 	
-3.69803e-10 	14675.5 	247.232 	284.013 	0.3493 	13.2222 	-0.252813 	6.77333e-05 	
0.00180385 	0.00120257 	
0.00154093 	1.04543e-08 	0.92 	0.04 	0.04 	0.0291447 	3.80007 	
3.77092 	3.97141 	-0.200496 	-3.34392 	7.77152e-08 	16.7267 	13.37 	
-3.69866e-10 	14675.5 	247.232 	284.013 	0.3493 	13.2222 	-0.252851 	6.77333e-05 	
0.00180385 	0.00120257 	
0.00160867 	8.13232e-09 	0.92 	0.04 	0.04 	0.0291446 	3.80006 	
3.77091 	3.97141 	-0.200506 	-3.34458 	6.04538e-08 	13.3831 	16.7136 	
-3.69948e-10 	14675.5 	247.232 	284.013 	0.3493 	13.2222 	-0.252901 	6.77333e-05 	
0.00180385 	0.00120257 	
0.0016764 	5.80972e-09 	0.92 	0.04 	0.04 	0.0291445 	3.80005 	
3.7709 	3.97141 	-0.200518 	-3.34538 	4.31881e-08 	10.0388 	20.0579 	
-3.70049e-10 	14675.5 	247.232 	284.013 	0.3493 	13.2222 	-0.252962 	6.77333e-05 	
0.00180385 	0.00120257 	
0.00174413 	3.48647e-09 	0.92 	0.04 	0.04 	0.0291444 	3.80004 	
3.77088 	3.97141 	-0.200533 	-3.34634 	2.59176e-08 	6.69363 	23.4031 	
-3.70168e-10 	14675.5 	247.232 	284.013 	0.3493 	13.2222 	-0.253034 	6.77333e-05 	
0.00180385 	0.00120257 	
0.00181187 	1.16245e-09 	0.92 	0.04 	0.04 	0.0291444 	3.80002 	
3.77086 	3.97141 	-0.20055 	-3.34744 	8.64136e-09 	3.3474 	26.7493 	
-3.70306e-10 	14675.5 	247.232 	284.013 	0.3493 	13.2222 	-0.253117 	6.77333e-05 	
0.00180385 	0.00120257 	
0.0018796 	0 	0.92 	0.04 	0.04 	0.0291444 	3.8 	
3.77085 	3.97141 	-0.200569 	-1.67435 	8.64136e-09 	0.837008 	29.2597 	
-1.85232e-10 	7337.73 	123.616 	142.007 	0.3493 	6.61111 	-0.253212 	3.38667e-05 	
0.000901926 	0.000601284 	
ZONE T = "t = 7.75e-08 [s]" I = 10 SOLUTIONTIME = 7.7500000000000E-08
0.00127 	1.9739e-08 	0.92 	0.04 	0.04 	0.0291454 	3.80009 	
3.77095 	3.97141 	-0.200468 	-1.67106 	1.47306e-07 	29.2612 	0.83553 	
-1.22039e-10 	7337.73 	123.616 	142.007 	0.3493 	6.61111 	-0.252765 	3.38667e-05 	
0.000901926 	0.000601284 	
0.00133773 	1.74181e-08 	0.92 	0.04 	0.04 	0.0291452 	3.80009 	
3.77095 	3.97141 	-0.200469 	-3.34218 	1.29986e-07 	26.7546 	3.34215 	
-2.44084e-10 	14675.5 	247.232 	284.013 	0.3493 	13.2222 	-0.25277 	6.77333e-05 	
0.00180385 	0.00120257 	
0.00140547 	1.50972e-08 	0.92 	0.04 	0.04 	0.029145 	3.80009 	
3.77094 	3.97141 	-0.200472 	-3.34239 	1.12665e-07 	23.4123 	6.68444 	
-2.44102e-10 	14675.5 	247.232 	284.013 	0.3493 	13.2222 	-0.252786 	6.77333e-05 	
0.00180385 	0.00120257 	
0.0014732 	1.27759e-08 	0.92 	0.04 	0.04 	0.0291448 	3.80008 	
3.77094 	3.97141 	-0.200478 	-3.34275 	9.53427e-08 	20.0697 	10.027 	
-2.44134e-10 	14675.5 	247.232 	284.013 	0.3493 	13.2222 	-0.252813 	6.77333e-05 	
0.00180385 	0.00120257 	
0.00154093 	1.04543e-08 	0.92 	0.04 	0.04 	0.0291447 	3.80007 	
3.77093 	3.97141 	-0.200485 	-3.34326 	7.80175e-08 	16.7267 	13.37 	
-2.44178e-10 	14675.5 	247.232 	284.013 	0.3493 	13.2222 	-0.252851 	6.77333e-05 	
0.00180385 	0.00120257 	
0.00160867 	8.13232e-09 	0.92 	0.04 	0.04 	0.0291446 	3.80006 	
3.77092 	3.97141 	-0.200495 	-3.34391 	6.06889e-08 	13.3831 	16.7136 	
-2.44235e-10 	14675.5 	247.232 	284.013 	0.3493 	13.2222 	-0.252901 	6.77333e-05 	
0.00180385 	0.00120257 	
0.0016764 	5.80972e-09 	0.92 	0.04 	0.04 	0.0291445 	3.80005 	
3.77091 	3.97141 	-0.200508 	-3.34472 	4.33562e-08 	10.0388 	20.0579 	
-2.44306e-10 	14675.5 	247.232 	284.013 	0.3493 	13.2222 	-0.252962 	6.77333e-05 	
0.00180385 	0.00120257 	
0.00174413 	3.48647e-09 	0.92 	0.04 	0.04 	0.0291444 	3.80004 	
3.77089 	3.97141 	-0.200522 	-3.34567 	2.60184e-08 	6.69363 	23.4031 	
-2.44389e-10 	14675.5 	247.232 	284.013 	0.3493 	13.2222 	-0.253034 	6.77333e-05 	
0.00180385 	0.00120257 	
0.00181187 	1.16245e-09 	0.92 	0.04 	0.04 	0.0291444 	3.80002 	
3.77087 	3.97141 	-0.200539 	-3.34678 	8.67498e-09 	3.3474 	26.7493 	
-2.44486e-10 	14675.5 	247.232 	284.013 	0.3493 	13.2222 	-0.253117 	6.77333e-05 	
0.00180385 	0.00120257 	
0.0018796 	0 	0.92 	0.04 	0.04 	0.0291444 	3.8 	
3.77086 	3.97141 	-0.200559 	-1.67402 	8.67498e-09 	0.837008 	29.2597 	
-1.22298e-10 	7337.73 	123.616 	142.007 	0.3493 	6.61111 	-0.253212 	3.38667e-05 	
0.000901926 	0.000601284 	
ZONE T = "t = 1.1125e-07 [s]" I = 10 SOLUTIONTIME = 1.1125000000000E-07
0.00127 	1.9739e-08 	0.92 	0.04 	0.04 	0.0291454 	3.80009 	
3.77095 	3.97141 	-0.200468 	-1.67106 	1.47307e-07 	29.2612 	0.83553 	
-2.78054e-11 	7337.73 	123.616 	142.007 	0.3493 	6.61111 	-0.252765 	3.38667e-05 	
0.000901926 	0.000601284 	
0.00133773 	1.74181e-08 	0.92 	0.04 	0.04 	0.0291452 	3.80009 	
3.77095 	3.97141 	-0.200469 	-3.34218 	1.29986e-07 	26.7546 	3.34215 	
-5.56126e-11 	14675.5 	247.232 	284.013 	0.3493 	13.2222 	-0.25277 	6.77333e-05 	
0.00180385 	0.00120257 	
0.00140547 	1.50972e-08 	0.92 	0.04 	0.04 	0.029145 	3.80009 	
3.77094 	3.97141 	-0.200472 	-3.34239 	1.12665e-07 	23.4123 	6.68444 	
-5.56191e-11 	14675.5 	247.232 	284.013 	0.3493 	13.2222 	-0.252786 	6.77333e-05 	
0.00180385 	0.00120257 	
0.0014732 	1.27759e-08 	0.92 	0.04 	0.04 	0.0291448 	3.80008 	
3.77094 	3.97141 	-0.200478 	-3.34275 	9.53427e-08 	20.0697 	10.027 	
-5.56302e-11 	14675.5 	247.232 	284.013 	0.3493 	13.2222 	-0.252813 	6.77333e-05 	
0.00180385 	0.00120257 	
0.00154093 	1.04543e-08 	0.92 	0.04 	0.04 	0.0291447 	3.80007 	
3.77093 	3.97141 	-0.200485 	-3.34326 	7.80175e-08 	16.7267 	13.37 	
-5.56459e-11 	14675.5 	247.232 	284.013 	0.3493 	13.2222 	-0.252851 	6.77333e-05 	
0.00180385 	0.00120257 	
0.00160867 	8.13232e-09 	0.92 	0.04 	0.04 	0.0291446 	3.80006 	
3.77092 	3.97141 	-0.200495 	-3.34391 	6.06889e-08 	13.3831 	16.7136 	
-5.56663e-11 	14675.5 	247.232 	284.013 	0.3493 	13.2222 	-0.252901 	6.77333e-05 	
0.00180385 	0.00120257 	
0.0016764 	5.80972e-09 	0.92 	0.04 	0.04 	0.0291445 	3.80005 	
3.77091 	3.97141 	-0.200508 	-3.34472 	4.33562e-08 	10.0388 	20.0579 	
-5.56913e-11 	14675.5 	247.232 	284.013 	0.3493 	13.2222 	-0.252962 	6.77333e-05 	
0.00180385 	0.00120257 	
0.00174413 	3.48647e-09 	0.92 	0.04 	0.04 	0.0291444 	3.80004 	
3.77089 	3.97141 	-0.200522 	-3.34567 	2.60184e-08 	6.69363 	23.4031 	
-5.57209e-11 	14675.5 	247.232 	284.013 	0.3493 	13.2222 	-0.253034 	6.77333e-05 	
0.00180385 	0.00120257 	
0.00181187 	1.16245e-09 	0.92 	0.04 	0.04 	0.0291444 	3.80002 	
3.77087 	3.97141 	-0.200539 	-3.34678 	8.67498e-09 	3.3474 	26.7493 	
-5.57552e-11 	14675.5 	247.232 	284.013 	0.3493 	13.2222 	-0.253117 	6.77333e-05 	
0.00180385 	0.00120257 	
0.0018796 	0 	0.92 	0.04 	0.04 	0.0291444 	3.8 	
3.77086 	3.97141 	-0.200559 	-1.67402 	8.67498e-09 	0.837008 	29.2597 	
-2.7897e-11 	7337.73 	123.616 	142.007 	0.3493 	6.61111 	-0.253212 	3.38667e-05 	
0.000901926 	0.000601284 	
ZONE T = "t = 1.61875e-07 [s]" I = 10 SOLUTIONTIME = 1.6187500000000E-07
0.00127 	1.9739e-08 	0.92 	0.04 	0.04 	0.0291454 	3.80009 	
3.77095 	3.97141 	-0.200468 	-1.67106 	1.47307e-07 	29.2612 	0.83553 	
1.13546e-10 	7337.73 	123.616 	142.007 	0.3493 	6.61111 	-0.252765 	3.38667e-05 	
0.000901926 	0.000601284 	
0.00133773 	1.74181e-08 	0.92 	0.04 	0.04 	0.0291452 	3.80009 	
3.77095 	3.97141 	-0.200469 	-3.34218 	1.29986e-07 	26.7546 	3.34215 	
2.27095e-10 	14675.5 	247.232 	284.013 	0.3493 	13.2222 	-0.25277 	6.77333e-05 	
0.00180385 	0.00120257 	
0.00140547 	1.50972e-08 	0.92 	0.04 	0.04 	0.029145 	3.80009 	
3.77094 	3.97141 	-0.200472 	-3.34239 	1.12665e-07 	23.4123 	6.68444 	
2.27106e-10 	14675.5 	247.232 	284.013 	0.3493 	13.2222 	-0.252786 	6.77333e-05 	
0.00180385 	0.00120257 	
0.0014732 	1.27759e-08 	0.92 	0.04 	0.04 	0.0291448 	3.80008 	
3.77094 	3.97141 	-0.200478 	-3.34275 	9.53427e-08 	20.0697 	10.027 	
2.27125e-10 	14675.5 	247.232 	284.013 	0.3493 	13.2222 	-0.252813 	6.77333e-05 	
0.00180385 	0.00120257 	
0.00154093 	1.04543e-08 	0.92 	0.04 	0.04 	0.0291447 	3.80007 	
3.77093 	3.97141 	-0.200485 	-3.34326 	7.80175e-08 	16.7267 	13.37 	
2.27152e-10 	14675.5 	247.232 	284.013 	0.3493 	13.2222 	-0.252851 	6.77333e-05 	
0.00180385 	0.00120257 	
0.00160867 	8.13232e-09 	0.92 	0.04 	0.04 	0.0291446 	3.80006 	
3.77092 	3.97141 	-0.200495 	-3.34391 	6.06889e-08 	13.3831 	16.7136 	
2.27187e-10 	14675.5 	247.232 	284.013 	0.3493 	13.2222 	-0.252901 	6.77333e-05 	
0.00180385 	0.00120257 	
0.0016764 	5.80972e-09 	0.92 	0.04 	0.04 	0.0291445 	3.80005 	
3.77091 	3.97141 	-0.200508 	-3.34472 	4.33562e-08 	10.0388 	20.0579 	
2.2723e-10 	14675.5 	247.232 	284.013 	0.3493 	13.2222 	-0.252962 	6.77333e-05 	
0.00180385 	0.00120257 	
0.00174413 	3.48647e-09 	0.92 	0.04 	0.04 	0.0291444 	3.80004 	
3.77089 	3.97141 	-0.200522 	-3.34567 	2.60184e-08 	6.69363 	23.4031 	
2.27282e-10 	14675.5 	247.232 	284.013 	0.3493 	13.2222 	-0.253034 	6.77333e-05 	
0.00180385 	0.00120257 	
0.00181187 	1.16245e-09 	0.92 	0.04 	0.04 	0.0291444 	3.80002 	
3.77087 	3.97141 	-0.200539 	-3.34678 	8.67498e-09 	3.3474 	26.7493 	
2.27341e-10 	14675.5 	247.232 	284.013 	0.3493 	13.2222 	-0.253117 	6.77333e-05 	
0.00180385 	0.00120257 	
0.0018796 	0 	0.92 	0.04 	0.04 	0.0291444 	3.8 	
3.77086 	3.97141 	-0.200559 	-1.67402 	8.67498e-09 	0.837008 	29.2597 	
1.13704e-10 	7337.73 	123.616 	142.007 	0.3493 	6.61111 	-0.253212 	3.38667e-05 	
0.000901926 	0.000601284 	
ZONE T = "t = 2.37812e-07 [s]" I = 10 SOLUTIONTIME = 2.3781250000000E-07
0.00127 	1.9739e-08 	0.92 	0.04 	0.04 	0.0291454 	3.80009 	
3.77095 	3.97141 	-0.200468 	-1.67106 	1.47308e-07 	29.2612 	0.83553 	
3.25572e-10 	7337.73 	123.616 	142.007 	0.3493 	6.61111 	-0.252765 	3.38667e-05 	
0.000901926 	0.000601284 	
0.00133773 	1.74181e-08 	0.92 	0.04 	0.04 	0.0291452 	3.80009 	
3.77095 	3.97141 	-0.200469 	-3.34218 	1.29986e-07 	26.7546 	3.34215 	
6.51155e-10 	14675.5 	247.232 	284.013 	0.3493 	13.2222 	-0.25277 	6.77333e-05 	
0.00180385 	0.00120257 	
0.00140547 	1.50972e-08 	0.92 	0.04 	0.04 	0.029145 	3.80009 	
3.77094 	3.97141 	-0.200472 	-3.34239 	1.12665e-07 	23.4123 	6.68444 	
6.51193e-10 	14675.5 	247.232 	284.013 	0.3493 	13.2222 	-0.252786 	6.77333e-05 	
0.00180385 	0.00120257 	
0.0014732 	1.27759e-08 	0.92 	0.04 	0.04 	0.0291448 	3.80008 	
3.77094 	3.97141 	-0.200478 	-3.34275 	9.53427e-08 	20.0697 	10.027 	
6.51258e-10 	14675.5 	247.232 	284.013 	0.3493 	13.2222 	-0.252813 	6.77333e-05 	
0.00180385 	0.00120257 	
0.00154093 	1.04543e-08 	0.92 	0.04 	0.04 	0.0291447 	3.80007 	
3.77093 	3.97141 	-0.200485 	-3.34326 	7.80175e-08 	16.7267 	13.37 	
6.51349e-10 	14675.5 	247.232 	284.013 	0.3493 	13.2222 	-0.252851 	6.77333e-05 	
0.00180385 	0.00120257 	
0.00160867 	8.13232e-09 	0.92 	0.04 	0.04 	0.0291446 	3.80006 	
3.77092 	3.97141 	-0.200495 	-3.34391 	6.06889e-08 	13.3831 	16.7136 	
6.51468e-10 	14675.5 	247.232 	284.013 	0.3493 	13.2222 	-0.252901 	6.77333e-05 	
0.00180385 	0.00120257 	
0.0016764 	5.80972e-09 	0.92 	0.04 	0.04 	0.0291445 	3.80005 	
3.77091 	3.97141 	-0.200508 	-3.34472 	4.33562e-08 	10.0388 	20.0579 	
6.51613e-10 	14675.5 	247.232 	284.013 	0.3493 	13.2222 	-0.252962 	6.77333e-05 	
0.00180385 	0.00120257 	
0.00174413 	3.48647e-09 	0.92 	0.04 	0.04 	0.0291444 	3.80004 	
3.77089 	3.97141 	-0.200522 	-3.34567 	2.60184e-08 	6.69363 	23.4031 	
6.51785e-10 	14675.5 	247.232 	284.013 	0.3493 	13.2222 	-0.253034 	6.77333e-05 	
0.00180385 	0.00120257 	
0.00181187 	1.16245e-09 	0.92 	0.04 	0.04 	0.0291444 	3.80002 	
3.77087 	3.97141 	-0.200539 	-3.34678 	8.67498e-09 	3.3474 	26.7493 	
6.51985e-10 	14675.5 	247.232 	284.013 	0.3493 	13.2222 	-0.253117 	6.77333e-05 	
0.00180385 	0.00120257 	
0.0018796 	0 	0.92 	0.04 	0.04 	0.0291444 	3.8 	
3.77086 	3.97141 	-0.200559 	-1.67402 	8.67498e-09 	0.837008 	29.2597 	
3.26105e-10 	7337.73 	123.616 	142.007 	0.3493 	6.61111 	-0.253212 	3.38667e-05 	
0.000901926 	0.000601284 	
ZONE T = "t = 3.51719e-07 [s]" I = 10 SOLUTIONTIME = 3.5171875000000E-07
0.00127 	1.9739e-08 	0.92 	0.04 	0.04 	0.0291454 	3.80009 	
3.77095 	3.97141 	-0.200468 	-1.67106 	1.47309e-07 	29.2612 	0.83553 	
6.43612e-10 	7337.73 	123.616 	142.007 	0.3493 	6.61111 	-0.252765 	3.38667e-05 	
0.000901926 	0.000601284 	
0.00133773 	1.74181e-08 	0.92 	0.04 	0.04 	0.0291452 	3.80009 	
3.77095 	3.97141 	-0.200469 	-3.34218 	1.29986e-07 	26.7546 	3.34215 	
1.28725e-09 	14675.5 	247.232 	284.013 	0.3493 	13.2222 	-0.25277 	6.77333e-05 	
0.00180385 	0.00120257 	
0.00140547 	1.50972e-08 	0.92 	0.04 	0.04 	0.029145 	3.80009 	
3.77094 	3.97141 	-0.200472 	-3.34239 	1.12665e-07 	23.4123 	6.68444 	
1.28732e-09 	14675.5 	247.232 	284.013 	0.3493 	13.2222 	-0.252786 	6.77333e-05 	
0.00180385 	0.00120257 	
0.0014732 	1.27759e-08 	0.92 	0.04 	0.04 	0.0291448 	3.80008 	
3.77094 	3.97141 	-0.200478 	-3.34275 	9.53427e-08 	20.0697 	10.027 	
1.28746e-09 	14675.5 	247.232 	284.013 	0.3493 	13.2222 	-0.252813 	6.77333e-05 	
0.00180385 	0.00120257 	
0.00154093 	1.04543e-08 	0.92 	0.04 	0.04 	0.0291447 	3.80007 	
3.77093 	3.97141 	-0.200485 	-3.34326 	7.80175e-08 	16.7267 	13.37 	
1.28764e-09 	14675.5 	247.232 	284.013 	0.3493 	13.2222 	-0.252851 	6.77333e-05 	
0.00180385 	0.00120257 	
0.00160867 	8.13232e-09 	0.92 	0.04 	0.04 	0.0291446 	3.80006 	
3.77092 	3.97141 	-0.200495 	-3.34391 	6.06889e-08 	13.3831 	16.7136 	
1.28789e-09 	14675.5 	247.232 	284.013 	0.3493 	13.2222 	-0.252901 	6.77333e-05 	
0.00180385 	0.00120257 	
0.0016764 	5.80972e-09 	0.92 	0.04 	0.04 	0.0291445 	3.80005 	
3.77091 	3.97141 	-0.200508 	-3.34472 	4.33562e-08 	10.0388 	20.0579 	
1.28819e-09 	14675.5 	247.232 	284.013 	0.3493 	13.2222 	-0.252962 	6.77333e-05 	
0.00180385 	0.00120257 	
0.00174413 	3.48647e-09 	0.92 	0.04 	0.04 	0.0291444 	3.80004 	
3.77089 	3.97141 	-0.200522 	-3.34567 	2.60184e-08 	6.69363 	23.4031 	
1.28854e-09 	14675.5 	247.232 	284.013 	0.3493 	13.2222 	-0.253034 	6.77333e-05 	
0.00180385 	0.00120257 	
0.00181187 	1.16245e-09 	0.92 	0.04 	0.04 	0.0291444 	3.80002 	
3.77087 	3.97141 	-0.200539 	-3.34678 	8.67498e-09 	3.3474 	26.7493 	
1.28895e-09 	14675.5 	247.232 	284.013 	0.3493 	13.2222 	-0.253117 	6.77333e-05 	
0.00180385 	0.00120257 	
0.0018796 	0 	0.92 	0.04 	0.04 	0.0291444 	3.8 	
3.77086 	3.97141 	-0.200559 	-1.67402 	8.67498e-09 	0.837008 	29.2597 	
6.44708e-10 	7337.73 	123.616 	142.007 	0.3493 	6.61111 	-0.253212 	3.38667e-05 	
0.000901926 	0.000601284 	
ZONE T = "t = 5.22578e-07 [s]" I = 10 SOLUTIONTIME = 5.2257812500000E-07
0.00127 	1.9739e-08 	0.92 	0.04 	0.04 	0.0291454 	3.80009 	
3.77095 	3.97141 	-0.200468 	-1.67106 	1.4731e-07 	29.2612 	0.83553 	
1.12067e-09 	7337.73 	123.616 	142.007 	0.3493 	6.61111 	-0.252765 	3.38667e-05 	
0.000901926 	0.000601284 	
0.00133773 	1.74181e-08 	0.92 	0.04 	0.04 	0.0291452 	3.80009 	
3.77095 	3.97141 	-0.200469 	-3.34218 	1.29986e-07 	26.7546 	3.34215 	
2.24138e-09 	14675.5 	247.232 	284.013 	0.3493 	13.2222 	-0.25277 	6.77333e-05 	
0.00180385 	0.00120257 	
0.00140547 	1.50972e-08 	0.92 	0.04 	0.04 	0.029145 	3.80009 	
3.77094 	3.97141 	-0.200472 	-3.34239 	1.12665e-07 	23.4123 	6.68444 	
2.24152e-09 	14675.5 	247.232 	284.013 	0.3493 	13.2222 	-0.252786 	6.77333e-05 	
0.00180385 	0.00120257 	
0.0014732 	1.27759e-08 	0.92 	0.04 	0.04 	0.0291448 	3.80008 	
3.77094 	3.97141 	-0.200478 	-3.34275 	9.53427e-08 	20.0697 	10.027 	
2.24176e-09 	14675.5 	247.232 	284.013 	0.3493 	13.2222 	-0.252813 	6.77333e-05 	
0.00180385 	0.00120257 	
0.00154093 	1.04543e-08 	0.92 	0.04 	0.04 	0.0291447 	3.80007 	
3.77093 	3.97141 	-0.200485 	-3.34326 	7.80175e-08 	16.7267 	13.37 	
2.24209e-09 	14675.5 	247.232 	284.013 	0.3493 	13.2222 	-0.252851 	6.77333e-05 	
0.00180385 	0.00120257 	
0.00160867 	8.13232e-09 	0.92 	0.04 	0.04 	0.0291446 	3.80006 	
3.77092 	3.97141 	-0.200495 	-3.34391 	6.06889e-08 	13.3831 	16.7136 	
2.24252e-09 	14675.5 	247.232 	284.013 	0.3493 	13.2222 	-0.252901 	6.77333e-05 	
0.00180385 	0.00120257 	
0.0016764 	5.80972e-09 	0.92 	0.04 	0.04 	0.0291445 	3.80005 	
3.77091 	3.97141 	-0.200508 	-3.34472 	4.33562e-08 	10.0388 	20.0579 	
2.24305e-09 	14675.5 	247.232 	284.013 	0.3493 	13.2222 	-0.252962 	6.77333e-05 	
0.00180385 	0.00120257 	
0.00174413 	3.48647e-09 	0.92 	0.04 	0.04 	0.0291444 	3.80004 	
3.77089 	3.97141 	-0.200522 	-3.34567 	2.60184e-08 	6.69363 	23.4031 	
2.24367e-09 	14675.5 	247.232 	284.013 	0.3493 	13.2222 	-0.253034 	6.77333e-05 	
0.00180385 	0.00120257 	
0.00181187 	1.16245e-09 	0.92 	0.04 	0.04 	0.0291444 	3.80002 	
3.77087 	3.97141 	-0.200539 	-3.34678 	8.67498e-09 	3.3474 	26.7493 	
2.2444e-09 	14675.5 	247.232 	284.013 	0.3493 	13.2222 	-0.253117 	6.77333e-05 	
0.00180385 	0.00120257 	
0.0018796 	0 	0.92 	0.04 	0.04 	0.0291444 	3.8 	
3.77086 	3.97141 	-0.200559 	-1.67402 	8.67498e-09 	0.837008 	29.2597 	
1.12261e-09 	7337.73 	123.616 	142.007 	0.3493 	6.61111 	-0.253212 	3.38667e-05 	
0.000901926 	0.000601284 	
ZONE T = "t = 7.78867e-07 [s]" I = 10 SOLUTIONTIME = 7.7886718750000E-07
0.00127 	1.9739e-08 	0.92 	0.04 	0.04 	0.0291454 	3.80009 	
3.77095 	3.97141 	-0.200468 	-1.67106 	1.47313e-07 	29.2612 	0.83553 	
1.83626e-09 	7337.73 	123.616 	142.007 	0.3493 	6.61111 	-0.252765 	3.38667e-05 	
0.000901926 	0.000601284 	
0.00133773 	1.74181e-08 	0.92 	0.04 	0.04 	0.0291452 	3.80009 	
3.77095 	3.97141 	-0.200469 	-3.34218 	1.29986e-07 	26.7546 	3.34215 	
3.67259e-09 	14675.5 	247.232 	284.013 	0.3493 	13.2222 	-0.25277 	6.77333e-05 	
0.00180385 	0.00120257 	
0.00140547 	1.50972e-08 	0.92 	0.04 	0.04 	0.029145 	3.80009 	
3.77094 	3.97141 	-0.200472 	-3.34239 	1.12665e-07 	23.4123 	6.68444 	
3.67282e-09 	14675.5 	247.232 	284.013 	0.3493 	13.2222 	-0.252786 	6.77333e-05 	
0.00180385 	0.00120257 	
0.0014732 	1.27759e-08 	0.92 	0.04 	0.04 	0.0291448 	3.80008 	
3.77094 	3.97141 	-0.200478 	-3.34275 	9.53427e-08 	20.0697 	10.027 	
3.6732e-09 	14675.5 	247.232 	284.013 	0.3493 	13.2222 	-0.252813 	6.77333e-05 	
0.00180385 	0.00120257 	
0.00154093 	1.04543e-08 	0.92 	0.04 	0.04 	0.0291447 	3.80007 	
3.77093 	3.97141 	-0.200485 	-3.34326 	7.80175e-08 	16.7267 	13.37 	
3.67375e-09 	14675.5 	247.232 	284.013 	0.3493 	13.2222 	-0.252851 	6.77333e-05 	
0.00180385 	0.00120257 	
0.00160867 	8.13232e-09 	0.92 	0.04 	0.04 	0.0291446 	3.80006 	
3.77092 	3.97141 	-0.200495 	-3.34391 	6.06889e-08 	13.3831 	16.7136 	
3.67447e-09 	14675.5 	247.232 	284.013 	0.3493 	13.2222 	-0.252901 	6.77333e-05 	
0.00180385 	0.00120257 	
0.0016764 	5.80972e-09 	0.92 	0.04 	0.04 	0.0291445 	3.80005 	
3.77091 	3.97141 	-0.200508 	-3.34472 	4.33562e-08 	10.0388 	20.0579 	
3.67534e-09 	14675.5 	247.232 	284.013 	0.3493 	13.2222 	-0.252962 	6.77333e-05 	
0.00180385 	0.00120257 	
0.00174413 	3.48647e-09 	0.92 	0.04 	0.04 	0.0291444 	3.80004 	
3.77089 	3.97141 	-0.200522 	-3.34567 	2.60184e-08 	6.69363 	23.4031 	
3.67637e-09 	14675.5 	247.232 	284.013 	0.3493 	13.2222 	-0.253034 	6.77333e-05 	
0.00180385 	0.00120257 	
0.00181187 	1.16245e-09 	0.92 	0.04 	0.04 	0.0291444 	3.80002 	
3.77087 	3.97141 	-0.200539 	-3.34678 	8.67498e-09 	3.3474 	26.7493 	
3.67757e-09 	14675.5 	247.232 	284.013 	0.3493 	13.2222 	-0.253117 	6.77333e-05 	
0.00180385 	0.00120257 	
0.0018796 	0 	0.92 	0.04 	0.04 	0.0291444 	3.8 	
3.77086 	3.97141 	-0.200559 	-1.67402 	8.67498e-09 	0.837008 	29.2597 	
1.83947e-09 	7337.73 	123.616 	142.007 	0.3493 	6.61111 	-0.253212 	3.38667e-05 	
0.000901926 	0.000601284 	
ZONE T = "t = 1.1633e-06 [s]" I = 10 SOLUTIONTIME = 1.1633007812500E-06
0.00127 	1.9739e-08 	0.92 	0.04 	0.04 	0.0291454 	3.80009 	
3.77095 	3.97141 	-0.200468 	-1.67106 	1.47316e-07 	29.2612 	0.83553 	
2.90965e-09 	7337.73 	123.616 	142.007 	0.3493 	6.61111 	-0.252765 	3.38667e-05 	
0.000901926 	0.000601284 	
0.00133773 	1.74181e-08 	0.92 	0.04 	0.04 	0.0291452 	3.80009 	
3.77095 	3.97141 	-0.200469 	-3.34218 	1.29986e-07 	26.7546 	3.34215 	
5.8194e-09 	14675.5 	247.232 	284.013 	0.3493 	13.2222 	-0.25277 	6.77333e-05 	
0.00180385 	0.00120257 	
0.00140547 	1.50972e-08 	0.92 	0.04 	0.04 	0.029145 	3.80009 	
3.77094 	3.97141 	-0.200472 	-3.34239 	1.12665e-07 	23.4123 	6.68444 	
5.81976e-09 	14675.5 	247.232 	284.013 	0.3493 	13.2222 	-0.252786 	6.77333e-05 	
0.00180385 	0.00120257 	
0.0014732 	1.27759e-08 	0.92 	0.04 	0.04 	0.0291448 	3.80008 	
3.77094 	3.97141 	-0.200478 	-3.34275 	9.53427e-08 	20.0697 	10.027 	
5.82038e-09 	14675.5 	247.232 	284.013 	0.3493 	13.2222 	-0.252813 	6.77333e-05 	
0.00180385 	0.00120257 	
0.00154093 	1.04543e-08 	0.92 	0.04 	0.04 	0.0291447 	3.80007 	
3.77093 	3.97141 	-0.200485 	-3.34326 	7.80175e-08 	16.7267 	13.37 	
5.82125e-09 	14675.5 	247.232 	284.013 	0.3493 	13.2222 	-0.252851 	6.77333e-05 	
0.00180385 	0.00120257 	
0.00160867 	8.13232e-09 	0.92 	0.04 	0.04 	0.0291446 	3.80006 	
3.77092 	3.97141 	-0.200495 	-3.34391 	6.06889e-08 	13.3831 	16.7136 	
5.82238e-09 	14675.5 	247.232 	284.013 	0.3493 	13.2222 	-0.252901 	6.77333e-05 	
0.00180385 	0.00120257 	
0.0016764 	5.80972e-09 	0.92 	0.04 	0.04 	0.0291445 	3.80005 	
3.77091 	3.97141 	-0.200508 	-3.34472 	4.33562e-08 	10.0388 	20.0579 	
5.82378e-09 	14675.5 	247.232 	284.013 	0.3493 	13.2222 	-0.252962 	6.77333e-05 	
0.00180385 	0.00120257 	
0.00174413 	3.48647e-09 	0.92 	0.04 	0.04 	0.0291444 	3.80004 	
3.77089 	3.97141 	-0.200522 	-3.34567 	2.60184e-08 	6.69363 	23.4031 	
5.82542e-09 	14675.5 	247.232 	284.013 	0.3493 	13.2222 	-0.253034 	6.77333e-05 	
0.00180385 	0.00120257 	
0.00181187 	1.16245e-09 	0.92 	0.04 	0.04 	0.0291444 	3.80002 	
3.77087 	3.97141 	-0.200539 	-3.34678 	8.67498e-09 	3.3474 	26.7493 	
5.82733e-09 	14675.5 	247.232 	284.013 	0.3493 	13.2222 	-0.253117 	6.77333e-05 	
0.00180385 	0.00120257 	
0.0018796 	0 	0.92 	0.04 	0.04 	0.0291444 	3.8 	
3.77086 	3.97141 	-0.200559 	-1.67402 	8.67498e-09 	0.837008 	29.2597 	
2.91475e-09 	7337.73 	123.616 	142.007 	0.3493 	6.61111 	-0.253212 	3.38667e-05 	
0.000901926 	0.000601284 	
ZONE T = "t = 1.73995e-06 [s]" I = 10 SOLUTIONTIME = 1.7399511718750E-06
0.00127 	1.9739e-08 	0.92 	0.04 	0.04 	0.0291454 	3.80009 	
3.77095 	3.97141 	-0.200468 	-1.67106 	1.47321e-07 	29.2612 	0.83553 	
4.51972e-09 	7337.73 	123.616 	142.007 	0.3493 	6.61111 	-0.252765 	3.38667e-05 	
0.000901926 	0.000601284 	
0.00133773 	1.74181e-08 	0.92 	0.04 	0.04 	0.0291452 	3.80009 	
3.77095 	3.97141 	-0.200469 	-3.34218 	1.29986e-07 	26.7546 	3.34215 	
9.03961e-09 	14675.5 	247.232 	284.013 	0.3493 	13.2222 	-0.25277 	6.77333e-05 	
0.00180385 	0.00120257 	
0.00140547 	1.50972e-08 	0.92 	0.04 	0.04 	0.029145 	3.80009 	
3.77094 	3.97141 	-0.200472 	-3.34239 	1.12665e-07 	23.4123 	6.68444 	
9.04017e-09 	14675.5 	247.232 	284.013 	0.3493 	13.2222 	-0.252786 	6.77333e-05 	
0.00180385 	0.00120257 	
0.0014732 	1.27759e-08 	0.92 	0.04 	0.04 	0.0291448 	3.80008 	
3.77094 	3.97141 	-0.200478 	-3.34275 	9.53427e-08 	20.0697 	10.027 	
9.04113e-09 	14675.5 	247.232 	284.013 	0.3493 	13.2222 	-0.252813 	6.77333e-05 	
0.00180385 	0.00120257 	
0.00154093 	1.04543e-08 	0.92 	0.04 	0.04 	0.0291447 	3.80007 	
3.77093 	3.97141 	-0.200485 	-3.34326 	7.80175e-08 	16.7267 	13.37 	
9.0425e-09 	14675.5 	247.232 	284.013 	0.3493 	13.2222 	-0.252851 	6.77333e-05 	
0.00180385 	0.00120257 	
0.00160867 	8.13232e-09 	0.92 	0.04 	0.04 	0.0291446 	3.80006 	
3.77092 	3.97141 	-0.200495 	-3.34391 	6.06889e-08 	13.3831 	16.7136 	
9.04426e-09 	14675.5 	247.232 	284.013 	0.3493 	13.2222 	-0.252901 	6.77333e-05 	
0.00180385 	0.00120257 	
0.0016764 	5.80972e-09 	0.92 	0.04 	0.04 	0.0291445 	3.80005 	
3.77091 	3.97141 	-0.200508 	-3.34472 	4.33562e-08 	10.0388 	20.0579 	
9.04643e-09 	14675.5 	247.232 	284.013 	0.3493 	13.2222 	-0.252962 	6.77333e-05 	
0.00180385 	0.00120257 	
0.00174413 	3.48647e-09 	0.92 	0.04 	0.04 	0.0291444 	3.80004 	
3.77089 	3.97141 	-0.200522 	-3.34567 	2.60184e-08 	6.69363 	23.4031 	
9.049e-09 	14675.5 	247.232 	284.013 	0.3493 	13.2222 	-0.253034 	6.77333e-05 	
0.00180385 	0.00120257 	
0.00181187 	1.16245e-09 	0.92 	0.04 	0.04 	0.0291444 	3.80002 	
3.77087 	3.97141 	-0.200539 	-3.34678 	8.67498e-09 	3.3474 	26.7493 	
9.05197e-09 	14675.5 	247.232 	284.013 	0.3493 	13.2222 	-0.253117 	6.77333e-05 	
0.00180385 	0.00120257 	
0.0018796 	0 	0.92 	0.04 	0.04 	0.0291444 	3.8 	
3.77086 	3.97141 	-0.200559 	-1.67402 	8.67498e-09 	0.837008 	29.2597 	
4.52767e-09 	7337.73 	123.616 	142.007 	0.3493 	6.61111 	-0.253212 	3.38667e-05 	
0.000901926 	0.000601284 	
ZONE T = "t = 2.60493e-06 [s]" I = 10 SOLUTIONTIME = 2.6049267578125E-06
0.00127 	1.9739e-08 	0.92 	0.04 	0.04 	0.0291454 	3.80009 	
3.77095 	3.97141 	-0.200468 	-1.67106 	1.47329e-07 	29.2612 	0.83553 	
6.93484e-09 	7337.73 	123.616 	142.007 	0.3493 	6.61111 	-0.252765 	3.38667e-05 	
0.000901926 	0.000601284 	
0.00133773 	1.74181e-08 	0.92 	0.04 	0.04 	0.0291452 	3.80009 	
3.77095 	3.97141 	-0.200469 	-3.34218 	1.29986e-07 	26.7546 	3.34215 	
1.38699e-08 	14675.5 	247.232 	284.013 	0.3493 	13.2222 	-0.25277 	6.77333e-05 	
0.00180385 	0.00120257 	
0.00140547 	1.50972e-08 	0.92 	0.04 	0.04 	0.029145 	3.80009 	
3.77094 	3.97141 	-0.200472 	-3.34239 	1.12665e-07 	23.4123 	6.68444 	
1.38708e-08 	14675.5 	247.232 	284.013 	0.3493 	13.2222 	-0.252786 	6.77333e-05 	
0.00180385 	0.00120257 	
0.0014732 	1.27759e-08 	0.92 	0.04 	0.04 	0.0291448 	3.80008 	
3.77094 	3.97141 	-0.200478 	-3.34275 	9.53427e-08 	20.0697 	10.027 	
1.38723e-08 	14675.5 	247.232 	284.013 	0.3493 	13.2222 	-0.252813 	6.77333e-05 	
0.00180385 	0.00120257 	
0.00154093 	1.04543e-08 	0.92 	0.04 	0.04 	0.0291447 	3.80007 	
3.77093 	3.97141 	-0.200485 	-3.34326 	7.80175e-08 	16.7267 	13.37 	
1.38744e-08 	14675.5 	247.232 	284.013 	0.3493 	13.2222 	-0.252851 	6.77333e-05 	
0.00180385 	0.00120257 	
0.00160867 	8.13232e-09 	0.92 	0.04 	0.04 	0.0291446 	3.80006 	
3.77092 	3.97141 	-0.200495 	-3.34391 	6.06889e-08 	13.3831 	16.7136 	
1.38771e-08 	14675.5 	247.232 	284.013 	0.3493 	13.2222 	-0.252901 	6.77333e-05 	
0.00180385 	0.00120257 	
0.0016764 	5.80972e-09 	0.92 	0.04 	0.04 	0.0291445 	3.80005 	
3.77091 	3.97141 	-0.200508 	-3.34472 	4.33562e-08 	10.0388 	20.0579 	
1.38804e-08 	14675.5 	247.232 	284.013 	0.3493 	13.2222 	-0.252962 	6.77333e-05 	
0.00180385 	0.00120257 	
0.00174413 	3.48647e-09 	0.92 	0.04 	0.04 	0.0291444 	3.80004 	
3.77089 	3.97141 	-0.200522 	-3.34567 	2.60184e-08 	6.69363 	23.4031 	
1.38844e-08 	14675.5 	247.232 	284.013 	0.3493 	13.2222 	-0.253034 	6.77333e-05 	
0.00180385 	0.00120257 	
0.00181187 	1.16245e-09 	0.92 	0.04 	0.04 	0.0291444 	3.80002 	
3.77087 	3.97141 	-0.200539 	-3.34678 	8.67499e-09 	3.3474 	26.7493 	
1.38889e-08 	14675.5 	247.232 	284.013 	0.3493 	13.2222 	-0.253117 	6.77333e-05 	
0.00180385 	0.00120257 	
0.0018796 	0 	0.92 	0.04 	0.04 	0.0291444 	3.8 	
3.77086 	3.97141 	-0.200559 	-1.67402 	8.67499e-09 	0.837008 	29.2597 	
6.94706e-09 	7337.73 	123.616 	142.007 	0.3493 	6.61111 	-0.253212 	3.38667e-05 	
0.000901926 	0.000601284 	
ZONE T = "t = 3.90239e-06 [s]" I = 10 SOLUTIONTIME = 3.9023901367187E-06
0.00127 	1.9739e-08 	0.92 	0.04 	0.04 	0.0291454 	3.80009 	
3.77095 	3.97141 	-0.200468 	-1.67106 	1.4734e-07 	29.2612 	0.83553 	