TITLE = "Solution on Domain BulkDomain1D_0"
VARIABLES = "x [m]"  
"Vel_axial(0)" 	"MF_sp(ECDMC)" 	"MF_sp(Li+)" 	"MF_sp(PF6-)" 	"Volt(Electroly)" 	"Volt(AnodeVolt)" 	
"Potential Drop Electrode-Electrolyte [V]" 	"Surf_0 Equilibrium Potential Drop Electrode-Electrolyte [V]" 	"Overpotential_0 [V]" 	"Current Source [A/m^2]" 	"Li+ flux [kmol/m^2/s]" 	"Electrolyte Current [A/m^2]" 	"Electrode Current [A/m^2]" 	
"Capacity discharged [A-s]" 	"Depth of discharge [-]" 	"Capacity remaining [A-s]" 	"Initial capacity [A-s]" 	"Porosity []" 	"Surface Area [m2/m2] (area per area)" 	"Specific current (per particle area) [A/m^2]" 	"Control volume thickness [m]" 	
"Moles Li_C6-bulk [mol/m^2] (per electrode area)" 	"Moles V_C6-bulk [mol/m^2] (per electrode area)" 	

ZONE T = "t = 4e-08 [s]" I = 10 SOLUTIONTIME = 4.0000000000000E-08
0 	1.16001e-09 	0.92 	0.04 	0.04 	0.0291573 	0 	
0 	0 	0 	0 	0 	0.835256 	29.2351 	
0 	0 	0 	0 	0.35 	8.53017 	0.195836 	4.37444e-05 	
0.00379119 	0.000947796 	
8.74889e-05 	3.48004e-09 	0.92 	0.04 	0.04 	0.0291572 	-2.48467e-09 	
0 	0 	0 	0 	0 	3.34103 	26.7293 	
0 	0 	0 	0 	0.35 	17.0603 	0.195836 	8.74889e-05 	
0.00758237 	0.00189559 	
0.000174978 	5.80008e-09 	0.92 	0.04 	0.04 	0.0291572 	-4.67703e-09 	
0 	0 	0 	0 	0 	6.68206 	23.3883 	
0 	0 	0 	0 	0.35 	17.0603 	0.195837 	8.74889e-05 	
0.00758237 	0.00189559 	
0.000262467 	8.12014e-09 	0.92 	0.04 	0.04 	0.0291571 	-6.57709e-09 	
0 	0 	0 	0 	0 	10.0231 	20.0472 	
0 	0 	0 	0 	0.35 	17.0603 	0.195838 	8.74889e-05 	
0.00758237 	0.00189559 	
0.000349956 	1.04402e-08 	0.92 	0.04 	0.04 	0.029157 	-8.18485e-09 	
0 	0 	0 	0 	0 	13.3642 	16.7061 	
0 	0 	0 	0 	0.35 	17.0603 	0.19584 	8.74889e-05 	
0.00758237 	0.00189559 	
0.000437444 	1.27603e-08 	0.92 	0.04 	0.04 	0.0291569 	-9.50029e-09 	
0 	0 	0 	0 	0 	16.7053 	13.365 	
0 	0 	0 	0 	0.35 	17.0603 	0.195842 	8.74889e-05 	
0.00758237 	0.00189559 	
0.000524933 	1.50805e-08 	0.92 	0.04 	0.04 	0.0291567 	-1.05234e-08 	
0 	0 	0 	0 	0 	20.0465 	10.0238 	
0 	0 	0 	0 	0.35 	17.0603 	0.195845 	8.74889e-05 	
0.00758237 	0.00189559 	
0.000612422 	1.74006e-08 	0.92 	0.04 	0.04 	0.0291565 	-1.12542e-08 	
0 	0 	0 	0 	0 	23.3877 	6.68263 	
0 	0 	0 	0 	0.35 	17.0603 	0.195849 	8.74889e-05 	
0.00758237 	0.00189559 	
0.000699911 	1.97209e-08 	0.92 	0.04 	0.04 	0.0291562 	-1.16927e-08 	
0 	0 	0 	0 	0 	26.729 	3.34135 	
0 	0 	0 	0 	0.35 	17.0603 	0.195853 	8.74889e-05 	
0.00758237 	0.00189559 	
0.0007874 	2.0881e-08 	0.92 	0.04 	0.04 	0.029156 	-1.18389e-08 	
0 	0 	0 	0 	0 	29.235 	0.835348 	
0 	0 	0 	0 	0.35 	8.53017 	0.195857 	4.37444e-05 	
0.00379119 	0.000947796 	
ZONE T = "t = 5.5e-08 [s]" I = 10 SOLUTIONTIME = 5.5000000000000E-08
0 	1.16103e-09 	0.92 	0.04 	0.04 	0.0291471 	0 	
-0.0291573 	-0.0409067 	0.0117495 	1.67051 	8.65682e-09 	0.83599 	29.2607 	
1.84841e-10 	91448.4 	916.789 	1145.99 	0.35 	8.53017 	0.196008 	4.37444e-05 	
0.00379119 	0.000947796 	
8.74889e-05 	3.4831e-09 	0.92 	0.04 	0.04 	0.0291471 	-2.48685e-09 	
-0.0291572 	-0.0409067 	0.0117495 	3.34103 	2.59705e-08 	3.34396 	26.7528 	
3.69682e-10 	182897 	1833.58 	2291.97 	0.35 	17.0603 	0.196008 	8.74889e-05 	
0.00758237 	0.00189559 	
0.000174978 	5.80518e-09 	0.92 	0.04 	0.04 	0.029147 	-4.68114e-09 	
-0.0291572 	-0.0409067 	0.0117495 	3.34104 	4.32842e-08 	6.68793 	23.4088 	
3.69684e-10 	182897 	1833.58 	2291.97 	0.35 	17.0603 	0.196009 	8.74889e-05 	
0.00758237 	0.00189559 	
0.000262467 	8.12727e-09 	0.92 	0.04 	0.04 	0.029147 	-6.58287e-09 	
-0.0291571 	-0.0409067 	0.0117496 	3.34106 	6.05981e-08 	10.0319 	20.0648 	
3.69687e-10 	182897 	1833.58 	2291.97 	0.35 	17.0603 	0.19601 	8.74889e-05 	
0.00758237 	0.00189559 	
0.000349956 	1.04494e-08 	0.92 	0.04 	0.04 	0.0291469 	-8.19204e-09 	
-0.029157 	-0.0409067 	0.0117497 	3.3411 	7.79121e-08 	13.3759 	16.7208 	
3.69691e-10 	182897 	1833.58 	2291.97 	0.35 	17.0603 	0.196012 	8.74889e-05 	
0.00758237 	0.00189559 	
0.000437444 	1.27715e-08 	0.92 	0.04 	0.04 	0.0291467 	-9.50864e-09 	
-0.0291569 	-0.0409067 	0.0117498 	3.34114 	9.52263e-08 	16.72 	13.3767 	
3.69696e-10 	182897 	1833.58 	2291.97 	0.35 	17.0603 	0.196014 	8.74889e-05 	
0.00758237 	0.00189559 	
0.000524933 	1.50937e-08 	0.92 	0.04 	0.04 	0.0291465 	-1.05327e-08 	
-0.0291567 	-0.0409067 	0.01175 	3.34119 	1.12541e-07 	20.0641 	10.0327 	
3.69702e-10 	182897 	1833.58 	2291.97 	0.35 	17.0603 	0.196017 	8.74889e-05 	
0.00758237 	0.00189559 	
0.000612422 	1.74159e-08 	0.92 	0.04 	0.04 	0.0291463 	-1.12641e-08 	
-0.0291565 	-0.0409067 	0.0117502 	3.34124 	1.29856e-07 	23.4082 	6.6885 	
3.69709e-10 	182897 	1833.58 	2291.97 	0.35 	17.0603 	0.196021 	8.74889e-05 	
0.00758237 	0.00189559 	
0.000699911 	1.97382e-08 	0.92 	0.04 	0.04 	0.0291461 	-1.1703e-08 	
-0.0291563 	-0.0409067 	0.0117505 	3.34131 	1.47171e-07 	26.7524 	3.34429 	
3.69718e-10 	182897 	1833.58 	2291.97 	0.35 	17.0603 	0.196025 	8.74889e-05 	
0.00758237 	0.00189559 	
0.0007874 	2.08994e-08 	0.92 	0.04 	0.04 	0.0291458 	-1.18493e-08 	
-0.029156 	-0.0409067 	0.0117507 	1.6707 	1.47171e-07 	29.2607 	0.836081 	
1.84864e-10 	91448.4 	916.789 	1145.99 	0.35 	8.53017 	0.196029 	4.37444e-05 	
0.00379119 	0.000947796 	
ZONE T = "t = 7.75e-08 [s]" I = 10 SOLUTIONTIME = 7.7500000000000E-08
0 	1.16103e-09 	0.92 	0.04 	0.04 	0.0291471 	0 	
-0.0291471 	-0.0409067 	0.0117596 	1.67198 	8.66442e-09 	0.83599 	29.2607 	
2.47698e-10 	91448.4 	916.789 	1145.99 	0.35 	8.53017 	0.196008 	4.37444e-05 	
0.00379119 	0.000947796 	
8.74889e-05 	3.4831e-09 	0.92 	0.04 	0.04 	0.0291471 	-2.48685e-09 	
-0.0291471 	-0.0409067 	0.0117596 	3.34396 	2.59933e-08 	3.34396 	26.7528 	
4.95397e-10 	182897 	1833.58 	2291.97 	0.35 	17.0603 	0.196008 	8.74889e-05 	
0.00758237 	0.00189559 	
0.000174978 	5.80518e-09 	0.92 	0.04 	0.04 	0.029147 	-4.68114e-09 	
-0.0291471 	-0.0409067 	0.0117597 	3.34398 	4.33222e-08 	6.68793 	23.4088 	
4.95399e-10 	182897 	1833.58 	2291.97 	0.35 	17.0603 	0.196009 	8.74889e-05 	
0.00758237 	0.00189559 	
0.000262467 	8.12727e-09 	0.92 	0.04 	0.04 	0.029147 	-6.58287e-09 	
-0.029147 	-0.0409067 	0.0117597 	3.344 	6.06513e-08 	10.0319 	20.0648 	
4.95403e-10 	182897 	1833.58 	2291.97 	0.35 	17.0603 	0.19601 	8.74889e-05 	
0.00758237 	0.00189559 	
0.000349956 	1.04494e-08 	0.92 	0.04 	0.04 	0.0291469 	-8.19204e-09 	
-0.0291469 	-0.0409067 	0.0117598 	3.34403 	7.79805e-08 	13.3759 	16.7208 	
4.95408e-10 	182897 	1833.58 	2291.97 	0.35 	17.0603 	0.196012 	8.74889e-05 	
0.00758237 	0.00189559 	
0.000437444 	1.27715e-08 	0.92 	0.04 	0.04 	0.0291467 	-9.50864e-09 	
-0.0291467 	-0.0409067 	0.01176 	3.34407 	9.53099e-08 	16.72 	13.3767 	
4.95414e-10 	182897 	1833.58 	2291.97 	0.35 	17.0603 	0.196014 	8.74889e-05 	
0.00758237 	0.00189559 	
0.000524933 	1.50937e-08 	0.92 	0.04 	0.04 	0.0291465 	-1.05327e-08 	
-0.0291466 	-0.0409067 	0.0117602 	3.34412 	1.1264e-07 	20.0641 	10.0327 	
4.95422e-10 	182897 	1833.58 	2291.97 	0.35 	17.0603 	0.196017 	8.74889e-05 	
0.00758237 	0.00189559 	
0.000612422 	1.74159e-08 	0.92 	0.04 	0.04 	0.0291463 	-1.12641e-08 	
-0.0291463 	-0.0409067 	0.0117604 	3.34418 	1.2997e-07 	23.4082 	6.6885 	
4.95432e-10 	182897 	1833.58 	2291.97 	0.35 	17.0603 	0.196021 	8.74889e-05 	
0.00758237 	0.00189559 	
0.000699911 	1.97382e-08 	0.92 	0.04 	0.04 	0.0291461 	-1.1703e-08 	
-0.0291461 	-0.0409067 	0.0117606 	3.34425 	1.473e-07 	26.7524 	3.34429 	
4.95443e-10 	182897 	1833.58 	2291.97 	0.35 	17.0603 	0.196025 	8.74889e-05 	
0.00758237 	0.00189559 	
0.0007874 	2.08994e-08 	0.92 	0.04 	0.04 	0.0291458 	-1.18493e-08 	
-0.0291458 	-0.0409067 	0.0117609 	1.67216 	1.473e-07 	29.2607 	0.836081 	
2.47728e-10 	91448.4 	916.789 	1145.99 	0.35 	8.53017 	0.196029 	4.37444e-05 	
0.00379119 	0.000947796 	
ZONE T = "t = 1.1125e-07 [s]" I = 10 SOLUTIONTIME = 1.1125000000000E-07
0 	1.16103e-09 	0.92 	0.04 	0.04 	0.0291471 	0 	
-0.0291471 	-0.0409067 	0.0117596 	1.67198 	8.66442e-09 	0.83599 	29.2607 	
3.41984e-10 	91448.4 	916.789 	1145.99 	0.35 	8.53017 	0.196008 	4.37444e-05 	
0.00379119 	0.000947796 	
8.74889e-05 	3.4831e-09 	0.92 	0.04 	0.04 	0.0291471 	-2.48685e-09 	
-0.0291471 	-0.0409067 	0.0117596 	3.34396 	2.59933e-08 	3.34396 	26.7528 	
6.83969e-10 	182897 	1833.58 	2291.97 	0.35 	17.0603 	0.196008 	8.74889e-05 	
0.00758237 	0.00189559 	
0.000174978 	5.80518e-09 	0.92 	0.04 	0.04 	0.029147 	-4.68114e-09 	
-0.0291471 	-0.0409067 	0.0117597 	3.34398 	4.33222e-08 	6.68793 	23.4088 	
6.83972e-10 	182897 	1833.58 	2291.97 	0.35 	17.0603 	0.196009 	8.74889e-05 	
0.00758237 	0.00189559 	
0.000262467 	8.12727e-09 	0.92 	0.04 	0.04 	0.029147 	-6.58287e-09 	
-0.029147 	-0.0409067 	0.0117597 	3.344 	6.06513e-08 	10.0319 	20.0648 	
6.83977e-10 	182897 	1833.58 	2291.97 	0.35 	17.0603 	0.19601 	8.74889e-05 	
0.00758237 	0.00189559 	
0.000349956 	1.04494e-08 	0.92 	0.04 	0.04 	0.0291469 	-8.19204e-09 	
-0.0291469 	-0.0409067 	0.0117598 	3.34403 	7.79805e-08 	13.3759 	16.7208 	
6.83983e-10 	182897 	1833.58 	2291.97 	0.35 	17.0603 	0.196012 	8.74889e-05 	
0.00758237 	0.00189559 	
0.000437444 	1.27715e-08 	0.92 	0.04 	0.04 	0.0291467 	-9.50864e-09 	
-0.0291467 	-0.0409067 	0.01176 	3.34407 	9.53099e-08 	16.72 	13.3767 	
6.83992e-10 	182897 	1833.58 	2291.97 	0.35 	17.0603 	0.196014 	8.74889e-05 	
0.00758237 	0.00189559 	
0.000524933 	1.50937e-08 	0.92 	0.04 	0.04 	0.0291465 	-1.05327e-08 	
-0.0291466 	-0.0409067 	0.0117602 	3.34412 	1.1264e-07 	20.0641 	10.0327 	
6.84003e-10 	182897 	1833.58 	2291.97 	0.35 	17.0603 	0.196017 	8.74889e-05 	
0.00758237 	0.00189559 	
0.000612422 	1.74159e-08 	0.92 	0.04 	0.04 	0.0291463 	-1.12641e-08 	
-0.0291463 	-0.0409067 	0.0117604 	3.34418 	1.2997e-07 	23.4082 	6.6885 	
6.84016e-10 	182897 	1833.58 	2291.97 	0.35 	17.0603 	0.196021 	8.74889e-05 	
0.00758237 	0.00189559 	
0.000699911 	1.97382e-08 	0.92 	0.04 	0.04 	0.0291461 	-1.1703e-08 	
-0.0291461 	-0.0409067 	0.0117606 	3.34425 	1.47301e-07 	26.7524 	3.34429 	
6.84031e-10 	182897 	1833.58 	2291.97 	0.35 	17.0603 	0.196025 	8.74889e-05 	
0.00758237 	0.00189559 	
0.0007874 	2.08994e-08 	0.92 	0.04 	0.04 	0.0291458 	-1.18493e-08 	
-0.0291458 	-0.0409067 	0.0117609 	1.67216 	1.47301e-07 	29.2607 	0.836081 	
3.42024e-10 	91448.4 	916.789 	1145.99 	0.35 	8.53017 	0.196029 	4.37444e-05 	
0.00379119 	0.000947796 	
ZONE T = "t = 1.61875e-07 [s]" I = 10 SOLUTIONTIME = 1.6187500000000E-07
0 	1.16103e-09 	0.92 	0.04 	0.04 	0.0291471 	0 	
-0.0291471 	-0.0409067 	0.0117596 	1.67198 	8.66442e-09 	0.83599 	29.2607 	
4.83413e-10 	91448.4 	916.789 	1145.99 	0.35 	8.53017 	0.196008 	4.37444e-05 	
0.00379119 	0.000947796 	
8.74889e-05 	3.4831e-09 	0.92 	0.04 	0.04 	0.0291471 	-2.48685e-09 	
-0.0291471 	-0.0409067 	0.0117596 	3.34396 	2.59933e-08 	3.34396 	26.7528 	
9.66827e-10 	182897 	1833.58 	2291.97 	0.35 	17.0603 	0.196008 	8.74889e-05 	
0.00758237 	0.00189559 	
0.000174978 	5.80518e-09 	0.92 	0.04 	0.04 	0.029147 	-4.68114e-09 	
-0.0291471 	-0.0409067 	0.0117597 	3.34398 	4.33222e-08 	6.68793 	23.4088 	
9.66831e-10 	182897 	1833.58 	2291.97 	0.35 	17.0603 	0.196009 	8.74889e-05 	
0.00758237 	0.00189559 	
0.000262467 	8.12727e-09 	0.92 	0.04 	0.04 	0.029147 	-6.58287e-09 	
-0.029147 	-0.0409067 	0.0117597 	3.344 	6.06513e-08 	10.0319 	20.0648 	
9.66838e-10 	182897 	1833.58 	2291.97 	0.35 	17.0603 	0.19601 	8.74889e-05 	
0.00758237 	0.00189559 	
0.000349956 	1.04494e-08 	0.92 	0.04 	0.04 	0.0291469 	-8.19204e-09 	
-0.0291469 	-0.0409067 	0.0117598 	3.34403 	7.79805e-08 	13.3759 	16.7208 	
9.66847e-10 	182897 	1833.58 	2291.97 	0.35 	17.0603 	0.196012 	8.74889e-05 	
0.00758237 	0.00189559 	
0.000437444 	1.27715e-08 	0.92 	0.04 	0.04 	0.0291467 	-9.50864e-09 	
-0.0291467 	-0.0409067 	0.01176 	3.34407 	9.53099e-08 	16.72 	13.3767 	
9.66859e-10 	182897 	1833.58 	2291.97 	0.35 	17.0603 	0.196014 	8.74889e-05 	
0.00758237 	0.00189559 	
0.000524933 	1.50937e-08 	0.92 	0.04 	0.04 	0.0291465 	-1.05327e-08 	
-0.0291466 	-0.0409067 	0.0117602 	3.34412 	1.1264e-07 	20.0641 	10.0327 	
9.66875e-10 	182897 	1833.58 	2291.97 	0.35 	17.0603 	0.196017 	8.74889e-05 	
0.00758237 	0.00189559 	
0.000612422 	1.74159e-08 	0.92 	0.04 	0.04 	0.0291463 	-1.12641e-08 	
-0.0291463 	-0.0409067 	0.0117604 	3.34418 	1.2997e-07 	23.4082 	6.6885 	
9.66892e-10 	182897 	1833.58 	2291.97 	0.35 	17.0603 	0.196021 	8.74889e-05 	
0.00758237 	0.00189559 	
0.000699911 	1.97382e-08 	0.92 	0.04 	0.04 	0.0291461 	-1.1703e-08 	
-0.0291461 	-0.0409067 	0.0117606 	3.34425 	1.47301e-07 	26.7524 	3.34429 	
9.66913e-10 	182897 	1833.58 	2291.97 	0.35 	17.0603 	0.196025 	8.74889e-05 	
0.00758237 	0.00189559 	
0.0007874 	2.08994e-08 	0.92 	0.04 	0.04 	0.0291458 	-1.18493e-08 	
-0.0291458 	-0.0409067 	0.0117609 	1.67216 	1.47301e-07 	29.2607 	0.836081 	
4.83468e-10 	91448.4 	916.789 	1145.99 	0.35 	8.53017 	0.196029 	4.37444e-05 	
0.00379119 	0.000947796 	
ZONE T = "t = 2.37812e-07 [s]" I = 10 SOLUTIONTIME = 2.3781250000000E-07
0 	1.16103e-09 	0.92 	0.04 	0.04 	0.0291471 	0 	
-0.0291471 	-0.0409067 	0.0117596 	1.67198 	8.66442e-09 	0.83599 	29.2607 	
6.95556e-10 	91448.4 	916.789 	1145.99 	0.35 	8.53017 	0.196008 	4.37444e-05 	
0.00379119 	0.000947796 	
8.74889e-05 	3.4831e-09 	0.92 	0.04 	0.04 	0.0291471 	-2.48685e-09 	
-0.0291471 	-0.0409067 	0.0117596 	3.34396 	2.59933e-08 	3.34396 	26.7528 	
1.39111e-09 	182897 	1833.58 	2291.97 	0.35 	17.0603 	0.196008 	8.74889e-05 	
0.00758237 	0.00189559 	
0.000174978 	5.80518e-09 	0.92 	0.04 	0.04 	0.029147 	-4.68114e-09 	
-0.0291471 	-0.0409067 	0.0117597 	3.34398 	4.33222e-08 	6.68793 	23.4088 	
1.39112e-09 	182897 	1833.58 	2291.97 	0.35 	17.0603 	0.196009 	8.74889e-05 	
0.00758237 	0.00189559 	
0.000262467 	8.12727e-09 	0.92 	0.04 	0.04 	0.029147 	-6.58287e-09 	
-0.029147 	-0.0409067 	0.0117597 	3.344 	6.06513e-08 	10.0319 	20.0648 	
1.39113e-09 	182897 	1833.58 	2291.97 	0.35 	17.0603 	0.19601 	8.74889e-05 	
0.00758237 	0.00189559 	
0.000349956 	1.04494e-08 	0.92 	0.04 	0.04 	0.0291469 	-8.19204e-09 	
-0.0291469 	-0.0409067 	0.0117598 	3.34403 	7.79805e-08 	13.3759 	16.7208 	
1.39114e-09 	182897 	1833.58 	2291.97 	0.35 	17.0603 	0.196012 	8.74889e-05 	
0.00758237 	0.00189559 	
0.000437444 	1.27715e-08 	0.92 	0.04 	0.04 	0.0291467 	-9.50864e-09 	
-0.0291467 	-0.0409067 	0.01176 	3.34407 	9.53099e-08 	16.72 	13.3767 	
1.39116e-09 	182897 	1833.58 	2291.97 	0.35 	17.0603 	0.196014 	8.74889e-05 	
0.00758237 	0.00189559 	
0.000524933 	1.50937e-08 	0.92 	0.04 	0.04 	0.0291465 	-1.05327e-08 	
-0.0291466 	-0.0409067 	0.0117602 	3.34412 	1.1264e-07 	20.0641 	10.0327 	
1.39118e-09 	182897 	1833.58 	2291.97 	0.35 	17.0603 	0.196017 	8.74889e-05 	
0.00758237 	0.00189559 	
0.000612422 	1.74159e-08 	0.92 	0.04 	0.04 	0.0291463 	-1.12641e-08 	
-0.0291463 	-0.0409067 	0.0117604 	3.34418 	1.2997e-07 	23.4082 	6.6885 	
1.39121e-09 	182897 	1833.58 	2291.97 	0.35 	17.0603 	0.196021 	8.74889e-05 	
0.00758237 	0.00189559 	
0.000699911 	1.97382e-08 	0.92 	0.04 	0.04 	0.0291461 	-1.1703e-08 	
-0.0291461 	-0.0409067 	0.0117606 	3.34425 	1.47301e-07 	26.7524 	3.34429 	
1.39124e-09 	182897 	1833.58 	2291.97 	0.35 	17.0603 	0.196025 	8.74889e-05 	
0.00758237 	0.00189559 	
0.0007874 	2.08994e-08 	0.92 	0.04 	0.04 	0.0291458 	-1.18493e-08 	
-0.0291458 	-0.0409067 	0.0117609 	1.67216 	1.47301e-07 	29.2607 	0.836081 	
6.95635e-10 	91448.4 	916.789 	1145.99 	0.35 	8.53017 	0.196029 	4.37444e-05 	
0.00379119 	0.000947796 	
ZONE T = "t = 3.51719e-07 [s]" I = 10 SOLUTIONTIME = 3.5171875000000E-07
0 	1.16103e-09 	0.92 	0.04 	0.04 	0.0291471 	0 	
-0.0291471 	-0.0409067 	0.0117596 	1.67198 	8.66442e-09 	0.83599 	29.2607 	
1.01377e-09 	91448.4 	916.789 	1145.99 	0.35 	8.53017 	0.196008 	4.37444e-05 	
0.00379119 	0.000947796 	
8.74889e-05 	3.4831e-09 	0.92 	0.04 	0.04 	0.0291471 	-2.48685e-09 	
-0.0291471 	-0.0409067 	0.0117596 	3.34396 	2.59933e-08 	3.34396 	26.7528 	
2.02754e-09 	182897 	1833.58 	2291.97 	0.35 	17.0603 	0.196008 	8.74889e-05 	
0.00758237 	0.00189559 	
0.000174978 	5.80518e-09 	0.92 	0.04 	0.04 	0.029147 	-4.68114e-09 	
-0.0291471 	-0.0409067 	0.0117597 	3.34398 	4.33222e-08 	6.68793 	23.4088 	
2.02755e-09 	182897 	1833.58 	2291.97 	0.35 	17.0603 	0.196009 	8.74889e-05 	
0.00758237 	0.00189559 	
0.000262467 	8.12727e-09 	0.92 	0.04 	0.04 	0.029147 	-6.58287e-09 	
-0.029147 	-0.0409067 	0.0117597 	3.344 	6.06513e-08 	10.0319 	20.0648 	
2.02757e-09 	182897 	1833.58 	2291.97 	0.35 	17.0603 	0.19601 	8.74889e-05 	
0.00758237 	0.00189559 	
0.000349956 	1.04494e-08 	0.92 	0.04 	0.04 	0.0291469 	-8.19204e-09 	
-0.0291469 	-0.0409067 	0.0117598 	3.34403 	7.79805e-08 	13.3759 	16.7208 	
2.02759e-09 	182897 	1833.58 	2291.97 	0.35 	17.0603 	0.196012 	8.74889e-05 	
0.00758237 	0.00189559 	
0.000437444 	1.27715e-08 	0.92 	0.04 	0.04 	0.0291467 	-9.50864e-09 	
-0.0291467 	-0.0409067 	0.01176 	3.34407 	9.53099e-08 	16.72 	13.3767 	
2.02761e-09 	182897 	1833.58 	2291.97 	0.35 	17.0603 	0.196014 	8.74889e-05 	
0.00758237 	0.00189559 	
0.000524933 	1.50937e-08 	0.92 	0.04 	0.04 	0.0291465 	-1.05327e-08 	
-0.0291466 	-0.0409067 	0.0117602 	3.34412 	1.1264e-07 	20.0641 	10.0327 	
2.02764e-09 	182897 	1833.58 	2291.97 	0.35 	17.0603 	0.196017 	8.74889e-05 	
0.00758237 	0.00189559 	
0.000612422 	1.74159e-08 	0.92 	0.04 	0.04 	0.0291463 	-1.12641e-08 	
-0.0291463 	-0.0409067 	0.0117604 	3.34418 	1.2997e-07 	23.4082 	6.6885 	
2.02768e-09 	182897 	1833.58 	2291.97 	0.35 	17.0603 	0.196021 	8.74889e-05 	
0.00758237 	0.00189559 	
0.000699911 	1.97382e-08 	0.92 	0.04 	0.04 	0.0291461 	-1.1703e-08 	
-0.0291461 	-0.0409067 	0.0117606 	3.34425 	1.47302e-07 	26.7524 	3.34429 	
2.02772e-09 	182897 	1833.58 	2291.97 	0.35 	17.0603 	0.196025 	8.74889e-05 	
0.00758237 	0.00189559 	
0.0007874 	2.08994e-08 	0.92 	0.04 	0.04 	0.0291458 	-1.18493e-08 	
-0.0291458 	-0.0409067 	0.0117609 	1.67216 	1.47302e-07 	29.2607 	0.836081 	
1.01388e-09 	91448.4 	916.789 	1145.99 	0.35 	8.53017 	0.196029 	4.37444e-05 	
0.00379119 	0.000947796 	
ZONE T = "t = 5.22578e-07 [s]" I = 10 SOLUTIONTIME = 5.2257812500000E-07
0 	1.16103e-09 	0.92 	0.04 	0.04 	0.0291471 	0 	
-0.0291471 	-0.0409067 	0.0117596 	1.67198 	8.66442e-09 	0.83599 	29.2607 	
1.49109e-09 	91448.4 	916.789 	1145.99 	0.35 	8.53017 	0.196008 	4.37444e-05 	
0.00379119 	0.000947796 	
8.74889e-05 	3.4831e-09 	0.92 	0.04 	0.04 	0.0291471 	-2.48685e-09 	
-0.0291471 	-0.0409067 	0.0117596 	3.34396 	2.59933e-08 	3.34396 	26.7528 	
2.98219e-09 	182897 	1833.58 	2291.97 	0.35 	17.0603 	0.196008 	8.74889e-05 	
0.00758237 	0.00189559 	
0.000174978 	5.80518e-09 	0.92 	0.04 	0.04 	0.029147 	-4.68114e-09 	
-0.0291471 	-0.0409067 	0.0117597 	3.34398 	4.33222e-08 	6.68793 	23.4088 	
2.9822e-09 	182897 	1833.58 	2291.97 	0.35 	17.0603 	0.196009 	8.74889e-05 	
0.00758237 	0.00189559 	
0.000262467 	8.12727e-09 	0.92 	0.04 	0.04 	0.029147 	-6.58287e-09 	
-0.029147 	-0.0409067 	0.0117597 	3.344 	6.06513e-08 	10.0319 	20.0648 	
2.98222e-09 	182897 	1833.58 	2291.97 	0.35 	17.0603 	0.19601 	8.74889e-05 	
0.00758237 	0.00189559 	
0.000349956 	1.04494e-08 	0.92 	0.04 	0.04 	0.0291469 	-8.19204e-09 	
-0.0291469 	-0.0409067 	0.0117598 	3.34403 	7.79805e-08 	13.3759 	16.7208 	
2.98225e-09 	182897 	1833.58 	2291.97 	0.35 	17.0603 	0.196012 	8.74889e-05 	
0.00758237 	0.00189559 	
0.000437444 	1.27715e-08 	0.92 	0.04 	0.04 	0.0291467 	-9.50864e-09 	
-0.0291467 	-0.0409067 	0.01176 	3.34407 	9.53099e-08 	16.72 	13.3767 	
2.98229e-09 	182897 	1833.58 	2291.97 	0.35 	17.0603 	0.196014 	8.74889e-05 	
0.00758237 	0.00189559 	
0.000524933 	1.50937e-08 	0.92 	0.04 	0.04 	0.0291465 	-1.05327e-08 	
-0.0291466 	-0.0409067 	0.0117602 	3.34412 	1.1264e-07 	20.0641 	10.0327 	
2.98233e-09 	182897 	1833.58 	2291.97 	0.35 	17.0603 	0.196017 	8.74889e-05 	
0.00758237 	0.00189559 	
0.000612422 	1.74159e-08 	0.92 	0.04 	0.04 	0.0291463 	-1.12641e-08 	
-0.0291463 	-0.0409067 	0.0117604 	3.34418 	1.2997e-07 	23.4082 	6.6885 	
2.98239e-09 	182897 	1833.58 	2291.97 	0.35 	17.0603 	0.196021 	8.74889e-05 	
0.00758237 	0.00189559 	
0.000699911 	1.97382e-08 	0.92 	0.04 	0.04 	0.0291461 	-1.1703e-08 	
-0.0291461 	-0.0409067 	0.0117606 	3.34425 	1.47303e-07 	26.7524 	3.34429 	
2.98245e-09 	182897 	1833.58 	2291.97 	0.35 	17.0603 	0.196025 	8.74889e-05 	
0.00758237 	0.00189559 	
0.0007874 	2.08994e-08 	0.92 	0.04 	0.04 	0.0291458 	-1.18493e-08 	
-0.0291458 	-0.0409067 	0.0117609 	1.67216 	1.47303e-07 	29.2607 	0.836081 	
1.49126e-09 	91448.4 	916.789 	1145.99 	0.35 	8.53017 	0.196029 	4.37444e-05 	
0.00379119 	0.000947796 	
ZONE T = "t = 7.78867e-07 [s]" I = 10 SOLUTIONTIME = 7.7886718750000E-07
0 	1.16103e-09 	0.92 	0.04 	0.04 	0.0291471 	0 	
-0.0291471 	-0.0409067 	0.0117596 	1.67198 	8.66442e-09 	0.83599 	29.2607 	
2.20708e-09 	91448.4 	916.789 	1145.99 	0.35 	8.53017 	0.196008 	4.37444e-05 	
0.00379119 	0.000947796 	
8.74889e-05 	3.4831e-09 	0.92 	0.04 	0.04 	0.0291471 	-2.48685e-09 	
-0.0291471 	-0.0409067 	0.0117596 	3.34396 	2.59933e-08 	3.34396 	26.7528 	
4.41416e-09 	182897 	1833.58 	2291.97 	0.35 	17.0603 	0.196008 	8.74889e-05 	
0.00758237 	0.00189559 	
0.000174978 	5.80518e-09 	0.92 	0.04 	0.04 	0.029147 	-4.68114e-09 	
-0.0291471 	-0.0409067 	0.0117597 	3.34398 	4.33222e-08 	6.68793 	23.4088 	
4.41418e-09 	182897 	1833.58 	2291.97 	0.35 	17.0603 	0.196009 	8.74889e-05 	
0.00758237 	0.00189559 	
0.000262467 	8.12727e-09 	0.92 	0.04 	0.04 	0.029147 	-6.58287e-09 	
-0.029147 	-0.0409067 	0.0117597 	3.344 	6.06513e-08 	10.0319 	20.0648 	
4.41421e-09 	182897 	1833.58 	2291.97 	0.35 	17.0603 	0.19601 	8.74889e-05 	
0.00758237 	0.00189559 	
0.000349956 	1.04494e-08 	0.92 	0.04 	0.04 	0.0291469 	-8.19204e-09 	
-0.0291469 	-0.0409067 	0.0117598 	3.34403 	7.79805e-08 	13.3759 	16.7208 	
4.41425e-09 	182897 	1833.58 	2291.97 	0.35 	17.0603 	0.196012 	8.74889e-05 	
0.00758237 	0.00189559 	
0.000437444 	1.27715e-08 	0.92 	0.04 	0.04 	0.0291467 	-9.50864e-09 	
-0.0291467 	-0.0409067 	0.01176 	3.34407 	9.53099e-08 	16.72 	13.3767 	
4.4143e-09 	182897 	1833.58 	2291.97 	0.35 	17.0603 	0.196014 	8.74889e-05 	
0.00758237 	0.00189559 	
0.000524933 	1.50937e-08 	0.92 	0.04 	0.04 	0.0291465 	-1.05327e-08 	
-0.0291466 	-0.0409067 	0.0117602 	3.34412 	1.1264e-07 	20.0641 	10.0327 	
4.41437e-09 	182897 	1833.58 	2291.97 	0.35 	17.0603 	0.196017 	8.74889e-05 	
0.00758237 	0.00189559 	
0.000612422 	1.74159e-08 	0.92 	0.04 	0.04 	0.0291463 	-1.12641e-08 	
-0.0291463 	-0.0409067 	0.0117604 	3.34418 	1.2997e-07 	23.4082 	6.6885 	
4.41445e-09 	182897 	1833.58 	2291.97 	0.35 	17.0603 	0.196021 	8.74889e-05 	
0.00758237 	0.00189559 	
0.000699911 	1.97382e-08 	0.92 	0.04 	0.04 	0.0291461 	-1.1703e-08 	
-0.0291461 	-0.0409067 	0.0117606 	3.34425 	1.47304e-07 	26.7524 	3.34429 	
4.41454e-09 	182897 	1833.58 	2291.97 	0.35 	17.0603 	0.196025 	8.74889e-05 	
0.00758237 	0.00189559 	
0.0007874 	2.08994e-08 	0.92 	0.04 	0.04 	0.0291458 	-1.18493e-08 	
-0.0291458 	-0.0409067 	0.0117609 	1.67216 	1.47304e-07 	29.2607 	0.836081 	
2.20732e-09 	91448.4 	916.789 	1145.99 	0.35 	8.53017 	0.196029 	4.37444e-05 	
0.00379119 	0.000947796 	
ZONE T = "t = 1.1633e-06 [s]" I = 10 SOLUTIONTIME = 1.1633007812500E-06
0 	1.16103e-09 	0.92 	0.04 	0.04 	0.0291471 	0 	
-0.0291471 	-0.0409067 	0.0117596 	1.67198 	8.66442e-09 	0.83599 	29.2607 	
3.28105e-09 	91448.4 	916.789 	1145.99 	0.35 	8.53017 	0.196008 	4.37444e-05 	
0.00379119 	0.000947796 	
8.74889e-05 	3.4831e-09 	0.92 	0.04 	0.04 	0.0291471 	-2.48685e-09 	
-0.0291471 	-0.0409067 	0.0117596 	3.34396 	2.59933e-08 	3.34396 	26.7528 	
6.56211e-09 	182897 	1833.58 	2291.97 	0.35 	17.0603 	0.196008 	8.74889e-05 	
0.00758237 	0.00189559 	
0.000174978 	5.80518e-09 	0.92 	0.04 	0.04 	0.029147 	-4.68114e-09 	
-0.0291471 	-0.0409067 	0.0117597 	3.34398 	4.33222e-08 	6.68793 	23.4088 	
6.56214e-09 	182897 	1833.58 	2291.97 	0.35 	17.0603 	0.196009 	8.74889e-05 	
0.00758237 	0.00189559 	
0.000262467 	8.12727e-09 	0.92 	0.04 	0.04 	0.029147 	-6.58287e-09 	
-0.029147 	-0.0409067 	0.0117597 	3.344 	6.06513e-08 	10.0319 	20.0648 	
6.56218e-09 	182897 	1833.58 	2291.97 	0.35 	17.0603 	0.19601 	8.74889e-05 	
0.00758237 	0.00189559 	
0.000349956 	1.04494e-08 	0.92 	0.04 	0.04 	0.0291469 	-8.19204e-09 	
-0.0291469 	-0.0409067 	0.0117598 	3.34403 	7.79805e-08 	13.3759 	16.7208 	
6.56224e-09 	182897 	1833.58 	2291.97 	0.35 	17.0603 	0.196012 	8.74889e-05 	
0.00758237 	0.00189559 	
0.000437444 	1.27715e-08 	0.92 	0.04 	0.04 	0.0291467 	-9.50864e-09 	
-0.0291467 	-0.0409067 	0.01176 	3.34407 	9.53099e-08 	16.72 	13.3767 	
6.56232e-09 	182897 	1833.58 	2291.97 	0.35 	17.0603 	0.196014 	8.74889e-05 	
0.00758237 	0.00189559 	
0.000524933 	1.50937e-08 	0.92 	0.04 	0.04 	0.0291465 	-1.05327e-08 	
-0.0291466 	-0.0409067 	0.0117602 	3.34412 	1.1264e-07 	20.0641 	10.0327 	
6.56242e-09 	182897 	1833.58 	2291.97 	0.35 	17.0603 	0.196017 	8.74889e-05 	
0.00758237 	0.00189559 	
0.000612422 	1.74159e-08 	0.92 	0.04 	0.04 	0.0291463 	-1.12641e-08 	
-0.0291463 	-0.0409067 	0.0117604 	3.34418 	1.2997e-07 	23.4082 	6.6885 	
6.56254e-09 	182897 	1833.58 	2291.97 	0.35 	17.0603 	0.196021 	8.74889e-05 	
0.00758237 	0.00189559 	
0.000699911 	1.97382e-08 	0.92 	0.04 	0.04 	0.0291461 	-1.1703e-08 	
-0.0291461 	-0.0409067 	0.0117606 	3.34425 	1.47306e-07 	26.7524 	3.34429 	
6.56267e-09 	182897 	1833.58 	2291.97 	0.35 	17.0603 	0.196025 	8.74889e-05 	
0.00758237 	0.00189559 	
0.0007874 	2.08994e-08 	0.92 	0.04 	0.04 	0.0291458 	-1.18493e-08 	
-0.0291458 	-0.0409067 	0.0117609 	1.67216 	1.47306e-07 	29.2607 	0.836081 	
3.28141e-09 	91448.4 	916.789 	1145.99 	0.35 	8.53017 	0.196029 	4.37444e-05 	
0.00379119 	0.000947796 	
ZONE T = "t = 1.73995e-06 [s]" I = 10 SOLUTIONTIME = 1.7399511718750E-06
0 	1.16103e-09 	0.92 	0.04 	0.04 	0.0291471 	0 	
-0.0291471 	-0.0409067 	0.0117596 	1.67198 	8.66442e-09 	0.83599 	29.2607 	
4.89201e-09 	91448.4 	916.789 	1145.99 	0.35 	8.53017 	0.196008 	4.37444e-05 	
0.00379119 	0.000947796 	
8.74889e-05 	3.4831e-09 	0.92 	0.04 	0.04 	0.0291471 	-2.48685e-09 	
-0.0291471 	-0.0409067 	0.0117596 	3.34396 	2.59933e-08 	3.34396 	26.7528 	
9.78404e-09 	182897 	1833.58 	2291.97 	0.35 	17.0603 	0.196008 	8.74889e-05 	
0.00758237 	0.00189559 	
0.000174978 	5.80518e-09 	0.92 	0.04 	0.04 	0.029147 	-4.68114e-09 	
-0.0291471 	-0.0409067 	0.0117597 	3.34398 	4.33222e-08 	6.68793 	23.4088 	
9.78408e-09 	182897 	1833.58 	2291.97 	0.35 	17.0603 	0.196009 	8.74889e-05 	
0.00758237 	0.00189559 	
0.000262467 	8.12727e-09 	0.92 	0.04 	0.04 	0.029147 	-6.58287e-09 	
-0.029147 	-0.0409067 	0.0117597 	3.344 	6.06513e-08 	10.0319 	20.0648 	
9.78414e-09 	182897 	1833.58 	2291.97 	0.35 	17.0603 	0.19601 	8.74889e-05 	
0.00758237 	0.00189559 	
0.000349956 	1.04494e-08 	0.92 	0.04 	0.04 	0.0291469 	-8.19204e-09 	
-0.0291469 	-0.0409067 	0.0117598 	3.34403 	7.79805e-08 	13.3759 	16.7208 	
9.78424e-09 	182897 	1833.58 	2291.97 	0.35 	17.0603 	0.196012 	8.74889e-05 	
0.00758237 	0.00189559 	
0.000437444 	1.27715e-08 	0.92 	0.04 	0.04 	0.0291467 	-9.50864e-09 	
-0.0291467 	-0.0409067 	0.01176 	3.34407 	9.53099e-08 	16.72 	13.3767 	
9.78435e-09 	182897 	1833.58 	2291.97 	0.35 	17.0603 	0.196014 	8.74889e-05 	
0.00758237 	0.00189559 	
0.000524933 	1.50937e-08 	0.92 	0.04 	0.04 	0.0291465 	-1.05327e-08 	
-0.0291466 	-0.0409067 	0.0117602 	3.34412 	1.1264e-07 	20.0641 	10.0327 	
9.7845e-09 	182897 	1833.58 	2291.97 	0.35 	17.0603 	0.196017 	8.74889e-05 	
0.00758237 	0.00189559 	
0.000612422 	1.74159e-08 	0.92 	0.04 	0.04 	0.0291463 	-1.12641e-08 	
-0.0291463 	-0.0409067 	0.0117604 	3.34418 	1.2997e-07 	23.4082 	6.6885 	
9.78468e-09 	182897 	1833.58 	2291.97 	0.35 	17.0603 	0.196021 	8.74889e-05 	
0.00758237 	0.00189559 	
0.000699911 	1.97382e-08 	0.92 	0.04 	0.04 	0.0291461 	-1.1703e-08 	
-0.0291461 	-0.0409067 	0.0117606 	3.34425 	1.47308e-07 	26.7524 	3.34429 	
9.78488e-09 	182897 	1833.58 	2291.97 	0.35 	17.0603 	0.196025 	8.74889e-05 	
0.00758237 	0.00189559 	
0.0007874 	2.08994e-08 	0.92 	0.04 	0.04 	0.0291458 	-1.18493e-08 	
-0.0291458 	-0.0409067 	0.0117609 	1.67216 	1.47308e-07 	29.2607 	0.836081 	
4.89255e-09 	91448.4 	916.789 	1145.99 	0.35 	8.53017 	0.196029 	4.37444e-05 	
0.00379119 	0.000947796 	
ZONE T = "t = 2.60493e-06 [s]" I = 10 SOLUTIONTIME = 2.6049267578125E-06
0 	1.16103e-09 	0.92 	0.04 	0.04 	0.0291471 	0 	
-0.0291471 	-0.0409067 	0.0117596 	1.67198 	8.66442e-09 	0.83599 	29.2607 	
7.30846e-09 	91448.4 	916.789 	1145.99 	0.35 	8.53017 	0.196008 	4.37444e-05 	
0.00379119 	0.000947796 	
8.74889e-05 	3.4831e-09 	0.92 	0.04 	0.04 	0.0291471 	-2.48685e-09 	
-0.0291471 	-0.0409067 	0.0117596 	3.34396 	2.59933e-08 	3.34396 	26.7528 	
1.46169e-08 	182897 	1833.58 	2291.97 	0.35 	17.0603 	0.196008 	8.74889e-05 	
0.00758237 	0.00189559 	
0.000174978 	5.80518e-09 	0.92 	0.04 	0.04 	0.029147 	-4.68114e-09 	
-0.0291471 	-0.0409067 	0.0117597 	3.34398 	4.33222e-08 	6.68793 	23.4088 	
1.4617e-08 	182897 	1833.58 	2291.97 	0.35 	17.0603 	0.196009 	8.74889e-05 	
0.00758237 	0.00189559 	
0.000262467 	8.12727e-09 	0.92 	0.04 	0.04 	0.029147 	-6.58287e-09 	
-0.029147 	-0.0409067 	0.0117597 	3.344 	6.06513e-08 	10.0319 	20.0648 	
1.46171e-08 	182897 	1833.58 	2291.97 	0.35 	17.0603 	0.19601 	8.74889e-05 	
0.00758237 	0.00189559 	
0.000349956 	1.04494e-08 	0.92 	0.04 	0.04 	0.0291469 	-8.19204e-09 	
-0.0291469 	-0.0409067 	0.0117598 	3.34403 	7.79805e-08 	13.3759 	16.7208 	
1.46172e-08 	182897 	1833.58 	2291.97 	0.35 	17.0603 	0.196012 	8.74889e-05 	
0.00758237 	0.00189559 	
0.000437444 	1.27715e-08 	0.92 	0.04 	0.04 	0.0291467 	-9.50864e-09 	
-0.0291467 	-0.0409067 	0.01176 	3.34407 	9.53099e-08 	16.72 	13.3767 	
1.46174e-08 	182897 	1833.58 	2291.97 	0.35 	17.0603 	0.196014 	8.74889e-05 	
0.00758237 	0.00189559 	
0.000524933 	1.50937e-08 	0.92 	0.04 	0.04 	0.0291465 	-1.05327e-08 	
-0.0291466 	-0.0409067 	0.0117602 	3.34412 	1.1264e-07 	20.0641 	10.0327 	
1.46176e-08 	182897 	1833.58 	2291.97 	0.35 	17.0603 	0.196017 	8.74889e-05 	
0.00758237 	0.00189559 	
0.000612422 	1.74159e-08 	0.92 	0.04 	0.04 	0.0291463 	-1.12641e-08 	
-0.0291463 	-0.0409067 	0.0117604 	3.34418 	1.2997e-07 	23.4082 	6.6885 	
1.46179e-08 	182897 	1833.58 	2291.97 	0.35 	17.0603 	0.196021 	8.74889e-05 	
0.00758237 	0.00189559 	
0.000699911 	1.97382e-08 	0.92 	0.04 	0.04 	0.0291461 	-1.1703e-08 	