TITLE = "Solution on Domain BulkDomain1D_1"
VARIABLES = "x [m]"  
"Vel_axial" 	"MF_sp(ECDMC)" 	"MF_sp(Li+)" 	"MF_sp(PF6-)" 	"Volt(Electroly)" 	"qHeat_accum [J/m3]" 	"qHeat_step [W/m3]" 	"Joule_Lyte [W/m3]" 	"Joule_Solid [W/m3]" 	
ZONE T = "t = 4e-08 [s]" I = 10 SOLUTIONTIME = 4.0000000000000E-08
0.0007874 	2.0881e-08 	0.92 	0.04 	0.04 	0.029156 	
0 	0.0 	 0.0 	 0.0 	 
0.000841022 	2.0881e-08 	0.92 	0.04 	0.04 	0.0291559 	
0 	0.0 	 0.0 	 0.0 	 
0.000894644 	2.0881e-08 	0.92 	0.04 	0.04 	0.0291559 	
0 	0.0 	 0.0 	 0.0 	 
0.000948267 	2.0881e-08 	0.92 	0.04 	0.04 	0.0291558 	
0 	0.0 	 0.0 	 0.0 	 
0.00100189 	2.0881e-08 	0.92 	0.04 	0.04 	0.0291558 	
0 	0.0 	 0.0 	 0.0 	 
0.00105551 	2.0881e-08 	0.92 	0.04 	0.04 	0.0291557 	
0 	0.0 	 0.0 	 0.0 	 
0.00110913 	2.0881e-08 	0.92 	0.04 	0.04 	0.0291557 	
0 	0.0 	 0.0 	 0.0 	 
0.00116276 	2.0881e-08 	0.92 	0.04 	0.04 	0.0291556 	
0 	0.0 	 0.0 	 0.0 	 
0.00121638 	2.0881e-08 	0.92 	0.04 	0.04 	0.0291556 	
0 	0.0 	 0.0 	 0.0 	 
0.00127 	1.97216e-08 	0.92 	0.04 	0.04 	0.0291555 	
0 	0.0 	 0.0 	 0.0 	 
ZONE T = "t = 5.5e-08 [s]" I = 10 SOLUTIONTIME = 5.5000000000000E-08
0.0007874 	2.08816e-08 	0.92 	0.04 	0.04 	0.0291559 	
4.15613e-10 	0.0277075 	0.0277075 	0 	
0.000841022 	2.08816e-08 	0.92 	0.04 	0.04 	0.0291559 	
4.15613e-10 	0.0277075 	0.0277075 	0 	
0.000894644 	2.08816e-08 	0.92 	0.04 	0.04 	0.0291558 	
4.15613e-10 	0.0277075 	0.0277075 	0 	
0.000948267 	2.08816e-08 	0.92 	0.04 	0.04 	0.0291558 	
4.15613e-10 	0.0277075 	0.0277075 	0 	
0.00100189 	2.08816e-08 	0.92 	0.04 	0.04 	0.0291557 	
4.15613e-10 	0.0277075 	0.0277075 	0 	
0.00105551 	2.08816e-08 	0.92 	0.04 	0.04 	0.0291557 	
4.15613e-10 	0.0277075 	0.0277075 	0 	
0.00110913 	2.08816e-08 	0.92 	0.04 	0.04 	0.0291556 	
4.15613e-10 	0.0277075 	0.0277075 	0 	
0.00116276 	2.08816e-08 	0.92 	0.04 	0.04 	0.0291556 	
4.15613e-10 	0.0277075 	0.0277075 	0 	
0.00121638 	2.08816e-08 	0.92 	0.04 	0.04 	0.0291555 	
4.15613e-10 	0.0277075 	0.0277075 	0 	
0.00127 	1.97232e-08 	0.92 	0.04 	0.04 	0.0291555 	
4.15613e-10 	0.0277075 	0.0277075 	0 	
ZONE T = "t = 7.43087e-08 [s]" I = 10 SOLUTIONTIME = 7.4308699072488E-08
0.0007874 	2.08826e-08 	0.92 	0.04 	0.04 	0.0291559 	
9.50608e-10 	0.0277075 	0.0277075 	0 	
0.000841022 	2.08826e-08 	0.92 	0.04 	0.04 	0.0291559 	
9.50608e-10 	0.0277075 	0.0277075 	0 	
0.000894644 	2.08826e-08 	0.92 	0.04 	0.04 	0.0291558 	
9.50608e-10 	0.0277075 	0.0277075 	0 	
0.000948267 	2.08826e-08 	0.92 	0.04 	0.04 	0.0291558 	
9.50608e-10 	0.0277075 	0.0277075 	0 	
0.00100189 	2.08826e-08 	0.92 	0.04 	0.04 	0.0291557 	
9.50608e-10 	0.0277075 	0.0277075 	0 	
0.00105551 	2.08826e-08 	0.92 	0.04 	0.04 	0.0291557 	
9.50608e-10 	0.0277075 	0.0277075 	0 	
0.00110913 	2.08826e-08 	0.92 	0.04 	0.04 	0.0291556 	
9.50608e-10 	0.0277075 	0.0277075 	0 	
0.00116276 	2.08826e-08 	0.92 	0.04 	0.04 	0.0291556 	
9.50608e-10 	0.0277075 	0.0277075 	0 	
0.00121638 	2.08826e-08 	0.92 	0.04 	0.04 	0.0291555 	
9.50608e-10 	0.0277075 	0.0277075 	0 	
0.00127 	1.97238e-08 	0.92 	0.04 	0.04 	0.0291555 	
9.50608e-10 	0.0277075 	0.0277075 	0 	
ZONE T = "t = 1.03272e-07 [s]" I = 10 SOLUTIONTIME = 1.0327174768122E-07
0.0007874 	2.08803e-08 	0.92 	0.04 	0.04 	0.0291559 	
1.7531e-09 	0.0277075 	0.0277075 	0 	
0.000841022 	2.08803e-08 	0.92 	0.04 	0.04 	0.0291559 	
1.7531e-09 	0.0277075 	0.0277075 	0 	
0.000894644 	2.08803e-08 	0.92 	0.04 	0.04 	0.0291558 	
1.7531e-09 	0.0277075 	0.0277075 	0 	
0.000948267 	2.08803e-08 	0.92 	0.04 	0.04 	0.0291558 	
1.7531e-09 	0.0277075 	0.0277075 	0 	
0.00100189 	2.08803e-08 	0.92 	0.04 	0.04 	0.0291557 	
1.7531e-09 	0.0277075 	0.0277075 	0 	
0.00105551 	2.08803e-08 	0.92 	0.04 	0.04 	0.0291557 	
1.7531e-09 	0.0277075 	0.0277075 	0 	
0.00110913 	2.08803e-08 	0.92 	0.04 	0.04 	0.0291556 	
1.7531e-09 	0.0277075 	0.0277075 	0 	
0.00116276 	2.08803e-08 	0.92 	0.04 	0.04 	0.0291556 	
1.7531e-09 	0.0277075 	0.0277075 	0 	
0.00121638 	2.08801e-08 	0.92 	0.04 	0.04 	0.0291555 	
1.7531e-09 	0.0277075 	0.0277075 	0 	
0.00127 	1.97211e-08 	0.92 	0.04 	0.04 	0.0291555 	
1.7531e-09 	0.0277075 	0.0277075 	0 	
ZONE T = "t = 1.46716e-07 [s]" I = 10 SOLUTIONTIME = 1.4671632059432E-07
0.0007874 	2.08815e-08 	0.92 	0.04 	0.04 	0.0291559 	
2.95684e-09 	0.0277075 	0.0277075 	0 	
0.000841022 	2.08815e-08 	0.92 	0.04 	0.04 	0.0291559 	
2.95684e-09 	0.0277075 	0.0277075 	0 	
0.000894644 	2.08815e-08 	0.92 	0.04 	0.04 	0.0291558 	
2.95684e-09 	0.0277075 	0.0277075 	0 	
0.000948267 	2.08815e-08 	0.92 	0.04 	0.04 	0.0291558 	
2.95684e-09 	0.0277075 	0.0277075 	0 	
0.00100189 	2.08815e-08 	0.92 	0.04 	0.04 	0.0291557 	
2.95684e-09 	0.0277075 	0.0277075 	0 	
0.00105551 	2.08815e-08 	0.92 	0.04 	0.04 	0.0291557 	
2.95684e-09 	0.0277075 	0.0277075 	0 	
0.00110913 	2.08815e-08 	0.92 	0.04 	0.04 	0.0291556 	
2.95684e-09 	0.0277075 	0.0277075 	0 	
0.00116276 	2.08815e-08 	0.92 	0.04 	0.04 	0.0291556 	
2.95684e-09 	0.0277075 	0.0277075 	0 	
0.00121638 	2.08817e-08 	0.92 	0.04 	0.04 	0.0291555 	
2.95684e-09 	0.0277075 	0.0277075 	0 	
0.00127 	1.97229e-08 	0.92 	0.04 	0.04 	0.0291555 	
2.95684e-09 	0.0277075 	0.0277075 	0 	
ZONE T = "t = 2.11883e-07 [s]" I = 10 SOLUTIONTIME = 2.1188317996396E-07
0.0007874 	2.08807e-08 	0.92 	0.04 	0.04 	0.0291559 	
4.76245e-09 	0.0277075 	0.0277075 	0 	
0.000841022 	2.08807e-08 	0.92 	0.04 	0.04 	0.0291559 	
4.76245e-09 	0.0277075 	0.0277075 	0 	
0.000894644 	2.08807e-08 	0.92 	0.04 	0.04 	0.0291558 	
4.76245e-09 	0.0277075 	0.0277075 	0 	
0.000948267 	2.08807e-08 	0.92 	0.04 	0.04 	0.0291558 	
4.76245e-09 	0.0277075 	0.0277075 	0 	
0.00100189 	2.08807e-08 	0.92 	0.04 	0.04 	0.0291557 	
4.76245e-09 	0.0277075 	0.0277075 	0 	
0.00105551 	2.08807e-08 	0.92 	0.04 	0.04 	0.0291557 	
4.76245e-09 	0.0277075 	0.0277075 	0 	
0.00110913 	2.08807e-08 	0.92 	0.04 	0.04 	0.0291556 	
4.76245e-09 	0.0277075 	0.0277075 	0 	
0.00116276 	2.08807e-08 	0.92 	0.04 	0.04 	0.0291556 	
4.76245e-09 	0.0277075 	0.0277075 	0 	
0.00121638 	2.08805e-08 	0.92 	0.04 	0.04 	0.0291555 	
4.76245e-09 	0.0277075 	0.0277075 	0 	
0.00127 	1.97219e-08 	0.92 	0.04 	0.04 	0.0291555 	
4.76245e-09 	0.0277075 	0.0277075 	0 	
ZONE T = "t = 3.09633e-07 [s]" I = 10 SOLUTIONTIME = 3.0963346901843E-07
0.0007874 	2.0881e-08 	0.92 	0.04 	0.04 	0.0291559 	
7.47087e-09 	0.0277075 	0.0277075 	0 	
0.000841022 	2.08812e-08 	0.92 	0.04 	0.04 	0.0291559 	
7.47087e-09 	0.0277075 	0.0277075 	0 	
0.000894644 	2.08812e-08 	0.92 	0.04 	0.04 	0.0291558 	
7.47087e-09 	0.0277075 	0.0277075 	0 	
0.000948267 	2.08812e-08 	0.92 	0.04 	0.04 	0.0291558 	
7.47087e-09 	0.0277075 	0.0277075 	0 	
0.00100189 	2.08812e-08 	0.92 	0.04 	0.04 	0.0291557 	
7.47087e-09 	0.0277075 	0.0277075 	0 	
0.00105551 	2.08812e-08 	0.92 	0.04 	0.04 	0.0291557 	
7.47087e-09 	0.0277075 	0.0277075 	0 	
0.00110913 	2.08812e-08 	0.92 	0.04 	0.04 	0.0291556 	
7.47087e-09 	0.0277075 	0.0277075 	0 	
0.00116276 	2.08812e-08 	0.92 	0.04 	0.04 	0.0291556 	
7.47087e-09 	0.0277075 	0.0277075 	0 	
0.00121638 	2.08812e-08 	0.92 	0.04 	0.04 	0.0291555 	
7.47087e-09 	0.0277075 	0.0277075 	0 	
0.00127 	1.97225e-08 	0.92 	0.04 	0.04 	0.0291555 	
7.47087e-09 	0.0277075 	0.0277075 	0 	
ZONE T = "t = 4.56259e-07 [s]" I = 10 SOLUTIONTIME = 4.5625890260013E-07
0.0007874 	2.08811e-08 	0.92 	0.04 	0.04 	0.0291559 	
1.15335e-08 	0.0277075 	0.0277075 	0 	
0.000841022 	2.0881e-08 	0.92 	0.04 	0.04 	0.0291559 	
1.15335e-08 	0.0277075 	0.0277075 	0 	
0.000894644 	2.0881e-08 	0.92 	0.04 	0.04 	0.0291558 	
1.15335e-08 	0.0277075 	0.0277075 	0 	
0.000948267 	2.0881e-08 	0.92 	0.04 	0.04 	0.0291558 	
1.15335e-08 	0.0277075 	0.0277075 	0 	
0.00100189 	2.0881e-08 	0.92 	0.04 	0.04 	0.0291557 	
1.15335e-08 	0.0277075 	0.0277075 	0 	
0.00105551 	2.0881e-08 	0.92 	0.04 	0.04 	0.0291557 	
1.15335e-08 	0.0277075 	0.0277075 	0 	
0.00110913 	2.0881e-08 	0.92 	0.04 	0.04 	0.0291556 	
1.15335e-08 	0.0277075 	0.0277075 	0 	
0.00116276 	2.0881e-08 	0.92 	0.04 	0.04 	0.0291556 	
1.15335e-08 	0.0277075 	0.0277075 	0 	
0.00121638 	2.0881e-08 	0.92 	0.04 	0.04 	0.0291555 	
1.15335e-08 	0.0277075 	0.0277075 	0 	
0.00127 	1.97222e-08 	0.92 	0.04 	0.04 	0.0291555 	
1.15335e-08 	0.0277075 	0.0277075 	0 	
ZONE T = "t = 6.76197e-07 [s]" I = 10 SOLUTIONTIME = 6.7619705297269E-07
0.0007874 	2.08812e-08 	0.92 	0.04 	0.04 	0.0291559 	
1.76274e-08 	0.0277075 	0.0277075 	0 	
0.000841022 	2.08812e-08 	0.92 	0.04 	0.04 	0.0291559 	
1.76274e-08 	0.0277075 	0.0277075 	0 	
0.000894644 	2.08811e-08 	0.92 	0.04 	0.04 	0.0291558 	
1.76274e-08 	0.0277075 	0.0277075 	0 	
0.000948267 	2.08811e-08 	0.92 	0.04 	0.04 	0.0291558 	
1.76274e-08 	0.0277075 	0.0277075 	0 	
0.00100189 	2.08811e-08 	0.92 	0.04 	0.04 	0.0291557 	
1.76274e-08 	0.0277075 	0.0277075 	0 	
0.00105551 	2.08811e-08 	0.92 	0.04 	0.04 	0.0291557 	
1.76274e-08 	0.0277075 	0.0277075 	0 	
0.00110913 	2.08811e-08 	0.92 	0.04 	0.04 	0.0291556 	
1.76274e-08 	0.0277075 	0.0277075 	0 	
0.00116276 	2.08811e-08 	0.92 	0.04 	0.04 	0.0291556 	
1.76274e-08 	0.0277075 	0.0277075 	0 	
0.00121638 	2.08811e-08 	0.92 	0.04 	0.04 	0.0291555 	
1.76274e-08 	0.0277075 	0.0277075 	0 	
0.00127 	1.97224e-08 	0.92 	0.04 	0.04 	0.0291555 	
1.76274e-08 	0.0277075 	0.0277075 	0 	
ZONE T = "t = 1.0061e-06 [s]" I = 10 SOLUTIONTIME = 1.0061042785315E-06
0.0007874 	2.0881e-08 	0.92 	0.04 	0.04 	0.0291559 	
2.67683e-08 	0.0277075 	0.0277075 	0 	
0.000841022 	2.0881e-08 	0.92 	0.04 	0.04 	0.0291559 	
2.67683e-08 	0.0277075 	0.0277075 	0 	
0.000894644 	2.0881e-08 	0.92 	0.04 	0.04 	0.0291558 	
2.67683e-08 	0.0277075 	0.0277075 	0 	
0.000948267 	2.0881e-08 	0.92 	0.04 	0.04 	0.0291558 	
2.67683e-08 	0.0277075 	0.0277075 	0 	
0.00100189 	2.0881e-08 	0.92 	0.04 	0.04 	0.0291557 	
2.67683e-08 	0.0277075 	0.0277075 	0 	
0.00105551 	2.0881e-08 	0.92 	0.04 	0.04 	0.0291557 	
2.67683e-08 	0.0277075 	0.0277075 	0 	
0.00110913 	2.0881e-08 	0.92 	0.04 	0.04 	0.0291556 	
2.67683e-08 	0.0277075 	0.0277075 	0 	
0.00116276 	2.0881e-08 	0.92 	0.04 	0.04 	0.0291556 	
2.67683e-08 	0.0277075 	0.0277075 	0 	
0.00121638 	2.0881e-08 	0.92 	0.04 	0.04 	0.0291555 	
2.67683e-08 	0.0277075 	0.0277075 	0 	
0.00127 	1.97223e-08 	0.92 	0.04 	0.04 	0.0291555 	
2.67683e-08 	0.0277075 	0.0277075 	0 	
ZONE T = "t = 1.50097e-06 [s]" I = 10 SOLUTIONTIME = 1.5009651168698E-06
0.0007874 	2.08811e-08 	0.92 	0.04 	0.04 	0.0291559 	
4.04797e-08 	0.0277075 	0.0277075 	0 	
0.000841022 	2.08811e-08 	0.92 	0.04 	0.04 	0.0291559 	
4.04797e-08 	0.0277075 	0.0277075 	0 	
0.000894644 	2.08811e-08 	0.92 	0.04 	0.04 	0.0291558 	
4.04797e-08 	0.0277075 	0.0277075 	0 	
0.000948267 	2.08811e-08 	0.92 	0.04 	0.04 	0.0291558 	
4.04797e-08 	0.0277075 	0.0277075 	0 	
0.00100189 	2.08811e-08 	0.92 	0.04 	0.04 	0.0291557 	
4.04797e-08 	0.0277075 	0.0277075 	0 	
0.00105551 	2.08811e-08 	0.92 	0.04 	0.04 	0.0291557 	
4.04797e-08 	0.0277075 	0.0277075 	0 	
0.00110913 	2.08811e-08 	0.92 	0.04 	0.04 	0.0291556 	
4.04797e-08 	0.0277075 	0.0277075 	0 	
0.00116276 	2.08811e-08 	0.92 	0.04 	0.04 	0.0291556 	
4.04797e-08 	0.0277075 	0.0277075 	0 	
0.00121638 	2.08811e-08 	0.92 	0.04 	0.04 	0.0291555 	
4.04797e-08 	0.0277075 	0.0277075 	0 	
0.00127 	1.97223e-08 	0.92 	0.04 	0.04 	0.0291555 	
4.04797e-08 	0.0277075 	0.0277075 	0 	
ZONE T = "t = 2.24326e-06 [s]" I = 10 SOLUTIONTIME = 2.2432563743771E-06
0.0007874 	2.08811e-08 	0.92 	0.04 	0.04 	0.0291559 	
6.10467e-08 	0.0277075 	0.0277075 	0 	
0.000841022 	2.08811e-08 	0.92 	0.04 	0.04 	0.0291559 	
6.10467e-08 	0.0277075 	0.0277075 	0 	
0.000894644 	2.08811e-08 	0.92 	0.04 	0.04 	0.0291558 	
6.10467e-08 	0.0277075 	0.0277075 	0 	
0.000948267 	2.08811e-08 	0.92 	0.04 	0.04 	0.0291558 	
6.10467e-08 	0.0277075 	0.0277075 	0 	
0.00100189 	2.08811e-08 	0.92 	0.04 	0.04 	0.0291557 	
6.10467e-08 	0.0277075 	0.0277075 	0 	
0.00105551 	2.08811e-08 	0.92 	0.04 	0.04 	0.0291557 	
6.10467e-08 	0.0277075 	0.0277075 	0 	
0.00110913 	2.08811e-08 	0.92 	0.04 	0.04 	0.0291556 	
6.10467e-08 	0.0277075 	0.0277075 	0 	
0.00116276 	2.08811e-08 	0.92 	0.04 	0.04 	0.0291556 	
6.10467e-08 	0.0277075 	0.0277075 	0 	
0.00121638 	2.08811e-08 	0.92 	0.04 	0.04 	0.0291555 	
6.10467e-08 	0.0277075 	0.0277075 	0 	
0.00127 	1.97224e-08 	0.92 	0.04 	0.04 	0.0291555 	
6.10467e-08 	0.0277075 	0.0277075 	0 	
ZONE T = "t = 3.35669e-06 [s]" I = 10 SOLUTIONTIME = 3.3566932606382E-06
0.0007874 	2.08811e-08 	0.92 	0.04 	0.04 	0.0291559 	
9.18973e-08 	0.0277075 	0.0277075 	0 	
0.000841022 	2.08811e-08 	0.92 	0.04 	0.04 	0.0291559 	
9.18973e-08 	0.0277075 	0.0277075 	0 	
0.000894644 	2.08811e-08 	0.92 	0.04 	0.04 	0.0291558 	
9.18973e-08 	0.0277075 	0.0277075 	0 	
0.000948267 	2.08811e-08 	0.92 	0.04 	0.04 	0.0291558 	
9.18973e-08 	0.0277075 	0.0277075 	0 	
0.00100189 	2.08811e-08 	0.92 	0.04 	0.04 	0.0291557 	
9.18973e-08 	0.0277075 	0.0277075 	0 	
0.00105551 	2.08811e-08 	0.92 	0.04 	0.04 	0.0291557 	
9.18973e-08 	0.0277075 	0.0277075 	0 	
0.00110913 	2.08811e-08 	0.92 	0.04 	0.04 	0.0291556 	
9.18973e-08 	0.0277075 	0.0277075 	0 	
0.00116276 	2.08811e-08 	0.92 	0.04 	0.04 	0.0291556 	
9.18973e-08 	0.0277075 	0.0277075 	0 	
0.00121638 	2.08811e-08 	0.92 	0.04 	0.04 	0.0291555 	
9.18973e-08 	0.0277075 	0.0277075 	0 	
0.00127 	1.97223e-08 	0.92 	0.04 	0.04 	0.0291555 	
9.18973e-08 	0.0277075 	0.0277075 	0 	
ZONE T = "t = 5.02685e-06 [s]" I = 10 SOLUTIONTIME = 5.0268485900298E-06
0.0007874 	2.08811e-08 	0.92 	0.04 	0.04 	0.0291559 	
1.38173e-07 	0.0277075 	0.0277075 	0 	
0.000841022 	2.08811e-08 	0.92 	0.04 	0.04 	0.0291559 	
1.38173e-07 	0.0277075 	0.0277075 	0 	
0.000894644 	2.08811e-08 	0.92 	0.04 	0.04 	0.0291558 	
1.38173e-07 	0.0277075 	0.0277075 	0 	
0.000948267 	2.08811e-08 	0.92 	0.04 	0.04 	0.0291558 	
1.38173e-07 	0.0277075 	0.0277075 	0 	
0.00100189 	2.08811e-08 	0.92 	0.04 	0.04 	0.0291557 	
1.38173e-07 	0.0277075 	0.0277075 	0 	
0.00105551 	2.08811e-08 	0.92 	0.04 	0.04 	0.0291557 	
1.38173e-07 	0.0277075 	0.0277075 	0 	
0.00110913 	2.08811e-08 	0.92 	0.04 	0.04 	0.0291556 	
1.38173e-07 	0.0277075 	0.0277075 	0 	
0.00116276 	2.08811e-08 	0.92 	0.04 	0.04 	0.0291556 	
1.38173e-07 	0.0277075 	0.0277075 	0 	
0.00121638 	2.08811e-08 	0.92 	0.04 	0.04 	0.0291555 	
1.38173e-07 	0.0277075 	0.0277075 	0 	
0.00127 	1.97224e-08 	0.92 	0.04 	0.04 	0.0291555 	
1.38173e-07 	0.0277075 	0.0277075 	0 	
ZONE T = "t = 7.53208e-06 [s]" I = 10 SOLUTIONTIME = 7.5320815841172E-06
0.0007874 	2.08811e-08 	0.92 	0.04 	0.04 	0.0291559 	
2.07587e-07 	0.0277075 	0.0277075 	0 	
0.000841022 	2.08811e-08 	0.92 	0.04 	0.04 	0.0291559 	
2.07587e-07 	0.0277075 	0.0277075 	0 	
0.000894644 	2.08811e-08 	0.92 	0.04 	0.04 	0.0291558 	
2.07587e-07 	0.0277075 	0.0277075 	0 	
0.000948267 	2.08811e-08 	0.92 	0.04 	0.04 	0.0291558 	
2.07587e-07 	0.0277075 	0.0277075 	0 	
0.00100189 	2.08811e-08 	0.92 	0.04 	0.04 	0.0291557 	
2.07587e-07 	0.0277075 	0.0277075 	0 	
0.00105551 	2.08811e-08 	0.92 	0.04 	0.04 	0.0291557 	
2.07587e-07 	0.0277075 	0.0277075 	0 	
0.00110913 	2.08811e-08 	0.92 	0.04 	0.04 	0.0291556 	
2.07587e-07 	0.0277075 	0.0277075 	0 	
0.00116276 	2.08811e-08 	0.92 	0.04 	0.04 	0.0291556 	
2.07587e-07 	0.0277075 	0.0277075 	0 	
0.00121638 	2.08811e-08 	0.92 	0.04 	0.04 	0.0291555 	
2.07587e-07 	0.0277075 	0.0277075 	0 	
0.00127 	1.97223e-08 	0.92 	0.04 	0.04 	0.0291555 	
2.07587e-07 	0.0277075 	0.0277075 	0 	
ZONE T = "t = 1.12899e-05 [s]" I = 10 SOLUTIONTIME = 1.1289931075248E-05
0.0007874 	2.08811e-08 	0.92 	0.04 	0.04 	0.0291559 	
3.11708e-07 	0.0277075 	0.0277075 	0 	
0.000841022 	2.08811e-08 	0.92 	0.04 	0.04 	0.0291559 	
3.11708e-07 	0.0277075 	0.0277075 	0 	
0.000894644 	2.08811e-08 	0.92 	0.04 	0.04 	0.0291558 	
3.11708e-07 	0.0277075 	0.0277075 	0 	
0.000948267 	2.08811e-08 	0.92 	0.04 	0.04 	0.0291558 	
3.11708e-07 	0.0277075 	0.0277075 	0 	
0.00100189 	2.08811e-08 	0.92 	0.04 	0.04 	0.0291557 	
3.11708e-07 	0.0277075 	0.0277075 	0 	
0.00105551 	2.08811e-08 	0.92 	0.04 	0.04 	0.0291557 	
3.11708e-07 	0.0277075 	0.0277075 	0 	
0.00110913 	2.08811e-08 	0.92 	0.04 	0.04 	0.0291556 	
3.11708e-07 	0.0277075 	0.0277075 	0 	
0.00116276 	2.08811e-08 	0.92 	0.04 	0.04 	0.0291556 	
3.11708e-07 	0.0277075 	0.0277075 	0 	
0.00121638 	2.08811e-08 	0.92 	0.04 	0.04 	0.0291555 	
3.11708e-07 	0.0277075 	0.0277075 	0 	
0.00127 	1.97223e-08 	0.92 	0.04 	0.04 	0.0291555 	
3.11708e-07 	0.0277075 	0.0277075 	0 	
ZONE T = "t = 1.69267e-05 [s]" I = 10 SOLUTIONTIME = 1.6926705311945E-05
0.0007874 	2.08811e-08 	0.92 	0.04 	0.04 	0.0291559 	
4.67888e-07 	0.0277075 	0.0277075 	0 	
0.000841022 	2.08811e-08 	0.92 	0.04 	0.04 	0.0291559 	
4.67888e-07 	0.0277075 	0.0277075 	0 	
0.000894644 	2.08811e-08 	0.92 	0.04 	0.04 	0.0291558 	
4.67888e-07 	0.0277075 	0.0277075 	0 	
0.000948267 	2.08811e-08 	0.92 	0.04 	0.04 	0.0291558 	
4.67888e-07 	0.0277075 	0.0277075 	0 	
0.00100189 	2.08811e-08 	0.92 	0.04 	0.04 	0.0291557 	
4.67888e-07 	0.0277075 	0.0277075 	0 	
0.00105551 	2.08811e-08 	0.92 	0.04 	0.04 	0.0291557 	
4.67888e-07 	0.0277075 	0.0277075 	0 	
0.00110913 	2.08811e-08 	0.92 	0.04 	0.04 	0.0291556 	
4.67888e-07 	0.0277075 	0.0277075 	0 	
0.00116276 	2.08811e-08 	0.92 	0.04 	0.04 	0.0291556 	
4.67888e-07 	0.0277075 	0.0277075 	0 	
0.00121638 	2.08811e-08 	0.92 	0.04 	0.04 	0.0291555 	
4.67888e-07 	0.0277075 	0.0277075 	0 	
0.00127 	1.97223e-08 	0.92 	0.04 	0.04 	0.0291555 	
4.67888e-07 	0.0277075 	0.0277075 	0 	
ZONE T = "t = 2.53819e-05 [s]" I = 10 SOLUTIONTIME = 2.5381866666990E-05
0.0007874 	2.08811e-08 	0.92 	0.04 	0.04 	0.0291559 	
7.0216e-07 	0.0277075 	0.0277075 	0 	
0.000841022 	2.08811e-08 	0.92 	0.04 	0.04 	0.0291559 	
7.0216e-07 	0.0277075 	0.0277075 	0 	
0.000894644 	2.08811e-08 	0.92 	0.04 	0.04 	0.0291558 	
7.0216e-07 	0.0277075 	0.0277075 	0 	
0.000948267 	2.08811e-08 	0.92 	0.04 	0.04 	0.0291558 	
7.0216e-07 	0.0277075 	0.0277075 	0 	
0.00100189 	2.08811e-08 	0.92 	0.04 	0.04 	0.0291557 	
7.0216e-07 	0.0277075 	0.0277075 	0 	
0.00105551 	2.08811e-08 	0.92 	0.04 	0.04 	0.0291557 	
7.0216e-07 	0.0277075 	0.0277075 	0 	
0.00110913 	2.08811e-08 	0.92 	0.04 	0.04 	0.0291556 	
7.0216e-07 	0.0277075 	0.0277075 	0 	
0.00116276 	2.08811e-08 	0.92 	0.04 	0.04 	0.0291556 	
7.0216e-07 	0.0277075 	0.0277075 	0 	
0.00121638 	2.08811e-08 	0.92 	0.04 	0.04 	0.0291555 	
7.0216e-07 	0.0277075 	0.0277075 	0 	
0.00127 	1.97223e-08 	0.92 	0.04 	0.04 	0.0291555 	
7.0216e-07 	0.0277075 	0.0277075 	0 	
ZONE T = "t = 3.80646e-05 [s]" I = 10 SOLUTIONTIME = 3.8064608699557E-05
0.0007874 	2.08811e-08 	0.92 	0.04 	0.04 	0.0291559 	
1.05357e-06 	0.0277075 	0.0277075 	0 	
0.000841022 	2.08811e-08 	0.92 	0.04 	0.04 	0.0291559 	
1.05357e-06 	0.0277075 	0.0277075 	0 	
0.000894644 	2.08811e-08 	0.92 	0.04 	0.04 	0.0291558 	
1.05357e-06 	0.0277075 	0.0277075 	0 	
0.000948267 	2.08811e-08 	0.92 	0.04 	0.04 	0.0291558 	
1.05357e-06 	0.0277075 	0.0277075 	0 	
0.00100189 	2.08811e-08 	0.92 	0.04 	0.04 	0.0291557 	
1.05357e-06 	0.0277075 	0.0277075 	0 	
0.00105551 	2.08811e-08 	0.92 	0.04 	0.04 	0.0291557 	
1.05357e-06 	0.0277075 	0.0277075 	0 	
0.00110913 	2.08811e-08 	0.92 	0.04 	0.04 	0.0291556 	
1.05357e-06 	0.0277075 	0.0277075 	0 	
0.00116276 	2.08811e-08 	0.92 	0.04 	0.04 	0.0291556 	
1.05357e-06 	0.0277075 	0.0277075 	0 	
0.00121638 	2.08811e-08 	0.92 	0.04 	0.04 	0.0291555 	
1.05357e-06 	0.0277075 	0.0277075 	0 	
0.00127 	1.97223e-08 	0.92 	0.04 	0.04 	0.0291555 	
1.05357e-06 	0.0277075 	0.0277075 	0 	
ZONE T = "t = 5.70887e-05 [s]" I = 10 SOLUTIONTIME = 5.7088721748408E-05
0.0007874 	2.08811e-08 	0.92 	0.04 	0.04 	0.0291559 	
1.58068e-06 	0.0277075 	0.0277075 	0 	
0.000841022 	2.08811e-08 	0.92 	0.04 	0.04 	0.0291559 	
1.58068e-06 	0.0277075 	0.0277075 	0 	
0.000894644 	2.08811e-08 	0.92 	0.04 	0.04 	0.0291558 	
1.58068e-06 	0.0277075 	0.0277075 	0 	
0.000948267 	2.08811e-08 	0.92 	0.04 	0.04 	0.0291558 	
1.58068e-06 	0.0277075 	0.0277075 	0 	
0.00100189 	2.08811e-08 	0.92 	0.04 	0.04 	0.0291557 	
1.58068e-06 	0.0277075 	0.0277075 	0 	
0.00105551 	2.08811e-08 	0.92 	0.04 	0.04 	0.0291557 	
1.58068e-06 	0.0277075 	0.0277075 	0 	
0.00110913 	2.08811e-08 	0.92 	0.04 	0.04 	0.0291556 	
1.58068e-06 	0.0277075 	0.0277075 	0 	
0.00116276 	2.08811e-08 	0.92 	0.04 	0.04 	0.0291556 	
1.58068e-06 	0.0277075 	0.0277075 	0 	
0.00121638 	2.08811e-08 	0.92 	0.04 	0.04 	0.0291555 	
1.58068e-06 	0.0277075 	0.0277075 	0 	
0.00127 	1.97223e-08 	0.92 	0.04 	0.04 	0.0291555 	
1.58068e-06 	0.0277075 	0.0277075 	0 	
ZONE T = "t = 8.56249e-05 [s]" I = 10 SOLUTIONTIME = 8.5624891321685E-05
0.0007874 	2.08811e-08 	0.92 	0.04 	0.04 	0.0291559 	
2.37134e-06 	0.0277075 	0.0277075 	0 	
0.000841022 	2.08811e-08 	0.92 	0.04 	0.04 	0.0291559 	
2.37134e-06 	0.0277075 	0.0277075 	0 	
0.000894644 	2.08811e-08 	0.92 	0.04 	0.04 	0.0291558 	
2.37134e-06 	0.0277075 	0.0277075 	0 	
0.000948267 	2.08811e-08 	0.92 	0.04 	0.04 	0.0291558 	
2.37134e-06 	0.0277075 	0.0277075 	0 	
0.00100189 	2.08811e-08 	0.92 	0.04 	0.04 	0.0291557 	
2.37134e-06 	0.0277075 	0.0277075 	0 	
0.00105551 	2.08811e-08 	0.92 	0.04 	0.04 	0.0291557 	
2.37134e-06 	0.0277075 	0.0277075 	0 	
0.00110913 	2.08811e-08 	0.92 	0.04 	0.04 	0.0291556 	
2.37134e-06 	0.0277075 	0.0277075 	0 	
0.00116276 	2.08811e-08 	0.92 	0.04 	0.04 	0.0291556 	
2.37134e-06 	0.0277075 	0.0277075 	0 	
0.00121638 	2.08811e-08 	0.92 	0.04 	0.04 	0.0291555 	
2.37134e-06 	0.0277075 	0.0277075 	0 	
0.00127 	1.97223e-08 	0.92 	0.04 	0.04 	0.0291555 	
2.37134e-06 	0.0277075 	0.0277075 	0 	
ZONE T = "t = 0.000128429 [s]" I = 10 SOLUTIONTIME = 1.2842914568160E-04
0.0007874 	2.08811e-08 	0.92 	0.04 	0.04 	0.0291559 	
3.55734e-06 	0.0277075 	0.0277075 	0 	
0.000841022 	2.08811e-08 	0.92 	0.04 	0.04 	0.0291559 	
3.55734e-06 	0.0277075 	0.0277075 	0 	
0.000894644 	2.08811e-08 	0.92 	0.04 	0.04 	0.0291558 	
3.55734e-06 	0.0277075 	0.0277075 	0 	
0.000948267 	2.08811e-08 	0.92 	0.04 	0.04 	0.0291558 	
3.55734e-06 	0.0277075 	0.0277075 	0 	
0.00100189 	2.08811e-08 	0.92 	0.04 	0.04 	0.0291557 	
3.55734e-06 	0.0277075 	0.0277075 	0 	
0.00105551 	2.08811e-08 	0.92 	0.04 	0.04 	0.0291557 	
3.55734e-06 	0.0277075 	0.0277075 	0 	
0.00110913 	2.08811e-08 	0.92 	0.04 	0.04 	0.0291556 	
3.55734e-06 	0.0277075 	0.0277075 	0 	
0.00116276 	2.08811e-08 	0.92 	0.04 	0.04 	0.0291556 	
3.55734e-06 	0.0277075 	0.0277075 	0 	
0.00121638 	2.08811e-08 	0.92 	0.04 	0.04 	0.0291555 	
3.55734e-06 	0.0277075 	0.0277075 	0 	
0.00127 	1.97223e-08 	0.92 	0.04 	0.04 	0.0291555 	
3.55734e-06 	0.0277075 	0.0277075 	0 	
ZONE T = "t = 0.000192636 [s]" I = 10 SOLUTIONTIME = 1.9263552722147E-04
0.0007874 	2.08811e-08 	0.92 	0.04 	0.04 	0.0291559 	
5.33634e-06 	0.0277075 	0.0277075 	0 	
0.000841022 	2.08811e-08 	0.92 	0.04 	0.04 	0.0291559 	
5.33634e-06 	0.0277075 	0.0277075 	0 	
0.000894644 	2.08811e-08 	0.92 	0.04 	0.04 	0.0291558 	
5.33634e-06 	0.0277075 	0.0277075 	0 	
0.000948267 	2.08811e-08 	0.92 	0.04 	0.04 	0.0291558 	
5.33634e-06 	0.0277075 	0.0277075 	0 	
0.00100189 	2.08811e-08 	0.92 	0.04 	0.04 	0.0291557 	
5.33634e-06 	0.0277075 	0.0277075 	0 	
0.00105551 	2.08811e-08 	0.92 	0.04 	0.04 	0.0291557 	
5.33634e-06 	0.0277075 	0.0277075 	0 	
0.00110913 	2.08811e-08 	0.92 	0.04 	0.04 	0.0291556 	
5.33634e-06 	0.0277075 	0.0277075 	0 	
0.00116276 	2.08811e-08 	0.92 	0.04 	0.04 	0.0291556 	
5.33634e-06 	0.0277075 	0.0277075 	0 	
0.00121638 	2.08811e-08 	0.92 	0.04 	0.04 	0.0291555 	
5.33634e-06 	0.0277075 	0.0277075 	0 	
0.00127 	1.97223e-08 	0.92 	0.04 	0.04 	0.0291555 	
5.33634e-06 	0.0277075 	0.0277075 	0 	
ZONE T = "t = 0.000288945 [s]" I = 10 SOLUTIONTIME = 2.8894509953128E-04
0.0007874 	2.08811e-08 	0.92 	0.04 	0.04 	0.0291559 	
8.00484e-06 	0.0277075 	0.0277075 	0 	
0.000841022 	2.08811e-08 	0.92 	0.04 	0.04 	0.0291559 	
8.00484e-06 	0.0277075 	0.0277075 	0 	
0.000894644 	2.08811e-08 	0.92 	0.04 	0.04 	0.0291558 	
8.00484e-06 	0.0277075 	0.0277075 	0 	
0.000948267 	2.08811e-08 	0.92 	0.04 	0.04 	0.0291558 	
8.00484e-06 	0.0277075 	0.0277075 	0 	
0.00100189 	2.08811e-08 	0.92 	0.04 	0.04 	0.0291557 	
8.00484e-06 	0.0277075 	0.0277075 	0 	
0.00105551 	2.08811e-08 	0.92 	0.04 	0.04 	0.0291557 	
8.00484e-06 	0.0277075 	0.0277075 	0 	
0.00110913 	2.08811e-08 	0.92 	0.04 	0.04 	0.0291556 	
8.00484e-06 	0.0277075 	0.0277075 	0 	
0.00116276 	2.08811e-08 	0.92 	0.04 	0.04 	0.0291556 	
8.00484e-06 	0.0277075 	0.0277075 	0 	
0.00121638 	2.08811e-08 	0.92 	0.04 	0.04 	0.0291555 	
8.00484e-06 	0.0277075 	0.0277075 	0 	
0.00127 	1.97223e-08 	0.92 	0.04 	0.04 	0.0291555 	
8.00484e-06 	0.0277075 	0.0277075 	0 	
ZONE T = "t = 0.000433409 [s]" I = 10 SOLUTIONTIME = 4.3340945799599E-04
0.0007874 	2.08811e-08 	0.92 	0.04 	0.04 	0.0291559 	
1.20076e-05 	0.0277075 	0.0277075 	0 	
0.000841022 	2.08811e-08 	0.92 	0.04 	0.04 	0.0291559 	
1.20076e-05 	0.0277075 	0.0277075 	0 	
0.000894644 	2.08811e-08 	0.92 	0.04 	0.04 	0.0291558 	
1.20076e-05 	0.0277075 	0.0277075 	0 	
0.000948267 	2.08811e-08 	0.92 	0.04 	0.04 	0.0291558 	
1.20076e-05 	0.0277075 	0.0277075 	0 	
0.00100189 	2.08811e-08 	0.92 	0.04 	0.04 	0.0291557 	
1.20076e-05 	0.0277075 	0.0277075 	0 	
0.00105551 	2.08811e-08 	0.92 	0.04 	0.04 	0.0291557 	
1.20076e-05 	0.0277075 	0.0277075 	0 	
0.00110913 	2.08811e-08 	0.92 	0.04 	0.04 	0.0291556 	
1.20076e-05 	0.0277075 	0.0277075 	0 	
0.00116276 	2.08811e-08 	0.92 	0.04 	0.04 	0.0291556 	
1.20076e-05 	0.0277075 	0.0277075 	0 	
0.00121638 	2.08811e-08 	0.92 	0.04 	0.04 	0.0291555 	
1.20076e-05 	0.0277075 	0.0277075 	0 	
0.00127 	1.97223e-08 	0.92 	0.04 	0.04 	0.0291555 	
1.20076e-05 	0.0277075 	0.0277075 	0 	
ZONE T = "t = 0.000650106 [s]" I = 10 SOLUTIONTIME = 6.5010599569306E-04
0.0007874 	2.08811e-08 	0.92 	0.04 	0.04 	0.0291559 	
1.80117e-05 	0.0277075 	0.0277075 	0 	
0.000841022 	2.08811e-08 	0.92 	0.04 	0.04 	0.0291559 	
1.80117e-05 	0.0277075 	0.0277075 	0 	
0.000894644 	2.08811e-08 	0.92 	0.04 	0.04 	0.0291558 	
1.80117e-05 	0.0277075 	0.0277075 	0 	
0.000948267 	2.08811e-08 	0.92 	0.04 	0.04 	0.0291558 	
1.80117e-05 	0.0277075 	0.0277075 	0 	
0.00100189 	2.08811e-08 	0.92 	0.04 	0.04 	0.0291557 	
1.80117e-05 	0.0277075 	0.0277075 	0 	
0.00105551 	2.08811e-08 	0.92 	0.04 	0.04 	0.0291557 	
1.80117e-05 	0.0277075 	0.0277075 	0 	
0.00110913 	2.08811e-08 	0.92 	0.04 	0.04 	0.0291556 	
1.80117e-05 	0.0277075 	0.0277075 	0 	
0.00116276 	2.08811e-08 	0.92 	0.04 	0.04 	0.0291556 	
1.80117e-05 	0.0277075 	0.0277075 	0 	
0.00121638 	2.08811e-08 	0.92 	0.04 	0.04 	0.0291555 	
1.80117e-05 	0.0277075 	0.0277075 	0 	
0.00127 	1.97223e-08 	0.92 	0.04 	0.04 	0.0291555 	
1.80117e-05 	0.0277075 	0.0277075 	0 	
ZONE T = "t = 0.000975151 [s]" I = 10 SOLUTIONTIME = 9.7515080223866E-04
0.0007874 	2.08811e-08 	0.92 	0.04 	0.04 	0.0291559 	
2.70179e-05 	0.0277074 	0.0277074 	0 	
0.000841022 	2.08811e-08 	0.92 	0.04 	0.04 	0.0291559 	
2.70179e-05 	0.0277074 	0.0277074 	0 	
0.000894644 	2.08811e-08 	0.92 	0.04 	0.04 	0.0291558 	
2.70179e-05 	0.0277074 	0.0277074 	0 	
0.000948267 	2.08811e-08 	0.92 	0.04 	0.04 	0.0291558 	
2.70179e-05 	0.0277074 	0.0277074 	0 	
0.00100189 	2.08811e-08 	0.92 	0.04 	0.04 	0.0291557 	
2.70179e-05 	0.0277074 	0.0277074 	0 	
0.00105551 	2.08811e-08 	0.92 	0.04 	0.04 	0.0291557 	
2.70179e-05 	0.0277074 	0.0277074 	0 	
0.00110913 	2.08811e-08 	0.92 	0.04 	0.04 	0.0291556 	
2.70179e-05 	0.0277075 	0.0277075 	0 	
0.00116276 	2.08811e-08 	0.92 	0.04 	0.04 	0.0291556 	
2.70179e-05 	0.0277075 	0.0277075 	0 	
0.00121638 	2.08811e-08 	0.92 	0.04 	0.04 	0.0291555 	
2.70179e-05 	0.0277075 	0.0277075 	0 	
0.00127 	1.97223e-08 	0.92 	0.04 	0.04 	0.0291555 	
2.70179e-05 	0.0277075 	0.0277075 	0 	
ZONE T = "t = 0.00146272 [s]" I = 10 SOLUTIONTIME = 1.4627180120571E-03
0.0007874 	2.0881e-08 	0.92 	0.04 	0.04 	0.0291559 	
4.05271e-05 	0.0277074 	0.0277074 	0 	
0.000841022 	2.0881e-08 	0.92 	0.04 	0.04 	0.0291559 	
4.05271e-05 	0.0277074 	0.0277074 	0 	
0.000894644 	2.0881e-08 	0.92 	0.04 	0.04 	0.0291558 	
4.05271e-05 	0.0277074 	0.0277074 	0 	
0.000948267 	2.0881e-08 	0.92 	0.04 	0.04 	0.0291558 	
4.05271e-05 	0.0277074 	0.0277074 	0 	
0.00100189 	2.0881e-08 	0.92 	0.04 	0.04 	0.0291557 	
4.05271e-05 	0.0277074 	0.0277074 	0 	
0.00105551 	2.0881e-08 	0.92 	0.04 	0.04 	0.0291557 	
4.05271e-05 	0.0277074 	0.0277074 	0 	
0.00110913 	2.0881e-08 	0.92 	0.04 	0.04 	0.0291556 	
4.05271e-05 	0.0277074 	0.0277074 	0 	
0.00116276 	2.0881e-08 	0.92 	0.04 	0.04 	0.0291556 	
4.05271e-05 	0.0277074 	0.0277074 	0 	
0.00121638 	2.0881e-08 	0.92 	0.04 	0.04 	0.0291555 	
4.05271e-05 	0.0277074 	0.0277074 	0 	
0.00127 	1.97223e-08 	0.92 	0.04 	0.04 	0.0291555 	
4.05271e-05 	0.0277074 	0.0277074 	0 	
ZONE T = "t = 0.00219407 [s]" I = 10 SOLUTIONTIME = 2.1940688267847E-03
0.0007874 	2.0881e-08 	0.92 	0.04 	0.04 	0.0291559 	
6.07909e-05 	0.0277074 	0.0277074 	0 	
0.000841022 	2.0881e-08 	0.92 	0.04 	0.04 	0.0291559 	
6.07909e-05 	0.0277074 	0.0277074 	0 	
0.000894644 	2.0881e-08 	0.92 	0.04 	0.04 	0.0291558 	
6.07909e-05 	0.0277074 	0.0277074 	0 	
0.000948267 	2.0881e-08 	0.92 	0.04 	0.04 	0.0291558 	
6.07909e-05 	0.0277074 	0.0277074 	0 	
0.00100189 	2.0881e-08 	0.92 	0.04 	0.04 	0.0291557 	
6.07909e-05 	0.0277074 	0.0277074 	0 	
0.00105551 	2.0881e-08 	0.92 	0.04 	0.04 	0.0291557 	
6.07909e-05 	0.0277074 	0.0277074 	0 	
0.00110913 	2.0881e-08 	0.92 	0.04 	0.04 	0.0291556 	
6.07909e-05 	0.0277074 	0.0277074 	0 	
0.00116276 	2.0881e-08 	0.92 	0.04 	0.04 	0.0291556 	
6.07909e-05 	0.0277074 	0.0277074 	0 	
0.00121638 	2.0881e-08 	0.92 	0.04 	0.04 	0.0291555 	
6.07909e-05 	0.0277074 	0.0277074 	0 	
0.00127 	1.97223e-08 	0.92 	0.04 	0.04 	0.0291555 	
6.07909e-05 	0.0277074 	0.0277074 	0 	
ZONE T = "t = 0.0032911 [s]" I = 10 SOLUTIONTIME = 3.2910950488761E-03
0.0007874 	2.0881e-08 	0.92 	0.04 	0.04 	0.0291559 	
9.11865e-05 	0.0277073 	0.0277073 	0 	
0.000841022 	2.0881e-08 	0.92 	0.04 	0.04 	0.0291559 	
9.11865e-05 	0.0277073 	0.0277073 	0 	
0.000894644 	2.0881e-08 	0.92 	0.04 	0.04 	0.0291558 	
9.11866e-05 	0.0277073 	0.0277073 	0 	
0.000948267 	2.0881e-08 	0.92 	0.04 	0.04 	0.0291558 	
9.11866e-05 	0.0277073 	0.0277073 	0 	
0.00100189 	2.0881e-08 	0.92 	0.04 	0.04 	0.0291557 	
9.11866e-05 	0.0277073 	0.0277073 	0 	
0.00105551 	2.0881e-08 	0.92 	0.04 	0.04 	0.0291557 	
9.11866e-05 	0.0277073 	0.0277073 	0 	