TITLE = "Solution on Domain BulkDomain1D_1"
VARIABLES = "x [m]"  
"Vel_axial(0)" 	"MF_sp(ECDMC)" 	"MF_sp(Li+)" 	"MF_sp(PF6-)" 	"Volt(Electroly)" 	"qHeat_accum [J/m3]" 	"qHeat_step [W/m3]" 	"Joule_Lyte [W/m3]" 	"Joule_Solid [W/m3]" 	
ZONE T = "t = 4e-08 [s]" I = 10 SOLUTIONTIME = 4.0000000000000E-08
0.0007874 	2.0881e-08 	0.92 	0.04 	0.04 	0.029156 	
0 	0.0 	 0.0 	 0.0 	 
0.000841022 	2.0881e-08 	0.92 	0.04 	0.04 	0.0291559 	
0 	0.0 	 0.0 	 0.0 	 
0.000894644 	2.0881e-08 	0.92 	0.04 	0.04 	0.0291559 	
0 	0.0 	 0.0 	 0.0 	 
0.000948267 	2.0881e-08 	0.92 	0.04 	0.04 	0.0291558 	
0 	0.0 	 0.0 	 0.0 	 
0.00100189 	2.0881e-08 	0.92 	0.04 	0.04 	0.0291558 	
0 	0.0 	 0.0 	 0.0 	 
0.00105551 	2.0881e-08 	0.92 	0.04 	0.04 	0.0291557 	
0 	0.0 	 0.0 	 0.0 	 
0.00110913 	2.0881e-08 	0.92 	0.04 	0.04 	0.0291557 	
0 	0.0 	 0.0 	 0.0 	 
0.00116276 	2.0881e-08 	0.92 	0.04 	0.04 	0.0291556 	
0 	0.0 	 0.0 	 0.0 	 
0.00121638 	2.0881e-08 	0.92 	0.04 	0.04 	0.0291556 	
0 	0.0 	 0.0 	 0.0 	 
0.00127 	1.97216e-08 	0.92 	0.04 	0.04 	0.0291555 	
0 	0.0 	 0.0 	 0.0 	 
ZONE T = "t = 5.5e-08 [s]" I = 10 SOLUTIONTIME = 5.5000000000000E-08
0.0007874 	2.08816e-08 	0.92 	0.04 	0.04 	0.0291559 	
4.15613e-10 	0.0277075 	0.0277075 	0 	
0.000841022 	2.08816e-08 	0.92 	0.04 	0.04 	0.0291559 	
4.15613e-10 	0.0277075 	0.0277075 	0 	
0.000894644 	2.08816e-08 	0.92 	0.04 	0.04 	0.0291558 	
4.15613e-10 	0.0277075 	0.0277075 	0 	
0.000948267 	2.08816e-08 	0.92 	0.04 	0.04 	0.0291558 	
4.15613e-10 	0.0277075 	0.0277075 	0 	
0.00100189 	2.08816e-08 	0.92 	0.04 	0.04 	0.0291557 	
4.15613e-10 	0.0277075 	0.0277075 	0 	
0.00105551 	2.08816e-08 	0.92 	0.04 	0.04 	0.0291557 	
4.15613e-10 	0.0277075 	0.0277075 	0 	
0.00110913 	2.08816e-08 	0.92 	0.04 	0.04 	0.0291556 	
4.15613e-10 	0.0277075 	0.0277075 	0 	
0.00116276 	2.08816e-08 	0.92 	0.04 	0.04 	0.0291556 	
4.15613e-10 	0.0277075 	0.0277075 	0 	
0.00121638 	2.08816e-08 	0.92 	0.04 	0.04 	0.0291555 	
4.15613e-10 	0.0277075 	0.0277075 	0 	
0.00127 	1.85641e-08 	0.92 	0.04 	0.04 	0.0291555 	
4.15613e-10 	0.0277075 	0.0277075 	0 	
ZONE T = "t = 7.42658e-08 [s]" I = 10 SOLUTIONTIME = 7.4265793583138E-08
0.0007874 	2.08815e-08 	0.92 	0.04 	0.04 	0.0291559 	
9.4942e-10 	0.0277075 	0.0277075 	0 	
0.000841022 	2.08815e-08 	0.92 	0.04 	0.04 	0.0291559 	
9.4942e-10 	0.0277075 	0.0277075 	0 	
0.000894644 	2.08815e-08 	0.92 	0.04 	0.04 	0.0291558 	
9.4942e-10 	0.0277075 	0.0277075 	0 	
0.000948267 	2.08815e-08 	0.92 	0.04 	0.04 	0.0291558 	
9.4942e-10 	0.0277075 	0.0277075 	0 	
0.00100189 	2.08815e-08 	0.92 	0.04 	0.04 	0.0291557 	
9.4942e-10 	0.0277075 	0.0277075 	0 	
0.00105551 	2.08815e-08 	0.92 	0.04 	0.04 	0.0291557 	
9.4942e-10 	0.0277075 	0.0277075 	0 	
0.00110913 	2.08815e-08 	0.92 	0.04 	0.04 	0.0291556 	
9.4942e-10 	0.0277075 	0.0277075 	0 	
0.00116276 	2.08815e-08 	0.92 	0.04 	0.04 	0.0291556 	
9.4942e-10 	0.0277075 	0.0277075 	0 	
0.00121638 	2.08815e-08 	0.92 	0.04 	0.04 	0.0291555 	
9.4942e-10 	0.0277075 	0.0277075 	0 	
0.00127 	1.85642e-08 	0.92 	0.04 	0.04 	0.0291555 	
9.4942e-10 	0.0277075 	0.0277075 	0 	
ZONE T = "t = 1.03164e-07 [s]" I = 10 SOLUTIONTIME = 1.0316448395784E-07
0.0007874 	2.08816e-08 	0.92 	0.04 	0.04 	0.0291559 	
1.75013e-09 	0.0277075 	0.0277075 	0 	
0.000841022 	2.08816e-08 	0.92 	0.04 	0.04 	0.0291559 	
1.75013e-09 	0.0277075 	0.0277075 	0 	
0.000894644 	2.08816e-08 	0.92 	0.04 	0.04 	0.0291558 	
1.75013e-09 	0.0277075 	0.0277075 	0 	
0.000948267 	2.08816e-08 	0.92 	0.04 	0.04 	0.0291558 	
1.75013e-09 	0.0277075 	0.0277075 	0 	
0.00100189 	2.08816e-08 	0.92 	0.04 	0.04 	0.0291557 	
1.75013e-09 	0.0277075 	0.0277075 	0 	
0.00105551 	2.08816e-08 	0.92 	0.04 	0.04 	0.0291557 	
1.75013e-09 	0.0277075 	0.0277075 	0 	
0.00110913 	2.08816e-08 	0.92 	0.04 	0.04 	0.0291556 	
1.75013e-09 	0.0277075 	0.0277075 	0 	
0.00116276 	2.08816e-08 	0.92 	0.04 	0.04 	0.0291556 	
1.75013e-09 	0.0277075 	0.0277075 	0 	
0.00121638 	2.08813e-08 	0.92 	0.04 	0.04 	0.0291555 	
1.75013e-09 	0.0277075 	0.0277075 	0 	
0.00127 	1.85636e-08 	0.92 	0.04 	0.04 	0.0291555 	
1.75013e-09 	0.0277075 	0.0277075 	0 	
ZONE T = "t = 1.46513e-07 [s]" I = 10 SOLUTIONTIME = 1.4651251951990E-07
0.0007874 	2.0881e-08 	0.92 	0.04 	0.04 	0.0291559 	
2.9512e-09 	0.0277075 	0.0277075 	0 	
0.000841022 	2.0881e-08 	0.92 	0.04 	0.04 	0.0291559 	
2.9512e-09 	0.0277075 	0.0277075 	0 	
0.000894644 	2.0881e-08 	0.92 	0.04 	0.04 	0.0291558 	
2.9512e-09 	0.0277075 	0.0277075 	0 	
0.000948267 	2.0881e-08 	0.92 	0.04 	0.04 	0.0291558 	
2.9512e-09 	0.0277075 	0.0277075 	0 	
0.00100189 	2.0881e-08 	0.92 	0.04 	0.04 	0.0291557 	
2.9512e-09 	0.0277075 	0.0277075 	0 	
0.00105551 	2.0881e-08 	0.92 	0.04 	0.04 	0.0291557 	
2.9512e-09 	0.0277075 	0.0277075 	0 	
0.00110913 	2.0881e-08 	0.92 	0.04 	0.04 	0.0291556 	
2.9512e-09 	0.0277075 	0.0277075 	0 	
0.00116276 	2.0881e-08 	0.92 	0.04 	0.04 	0.0291556 	
2.9512e-09 	0.0277075 	0.0277075 	0 	
0.00121638 	2.08812e-08 	0.92 	0.04 	0.04 	0.0291555 	
2.9512e-09 	0.0277075 	0.0277075 	0 	
0.00127 	1.85637e-08 	0.92 	0.04 	0.04 	0.0291555 	
2.9512e-09 	0.0277075 	0.0277075 	0 	
ZONE T = "t = 2.11535e-07 [s]" I = 10 SOLUTIONTIME = 2.1153457286299E-07
0.0007874 	2.0881e-08 	0.92 	0.04 	0.04 	0.0291559 	
4.75279e-09 	0.0277075 	0.0277075 	0 	
0.000841022 	2.0881e-08 	0.92 	0.04 	0.04 	0.0291559 	
4.75279e-09 	0.0277075 	0.0277075 	0 	
0.000894644 	2.0881e-08 	0.92 	0.04 	0.04 	0.0291558 	
4.75279e-09 	0.0277075 	0.0277075 	0 	
0.000948267 	2.0881e-08 	0.92 	0.04 	0.04 	0.0291558 	
4.75279e-09 	0.0277075 	0.0277075 	0 	
0.00100189 	2.0881e-08 	0.92 	0.04 	0.04 	0.0291557 	
4.75279e-09 	0.0277075 	0.0277075 	0 	
0.00105551 	2.0881e-08 	0.92 	0.04 	0.04 	0.0291557 	
4.75279e-09 	0.0277075 	0.0277075 	0 	
0.00110913 	2.0881e-08 	0.92 	0.04 	0.04 	0.0291556 	
4.75279e-09 	0.0277075 	0.0277075 	0 	
0.00116276 	2.0881e-08 	0.92 	0.04 	0.04 	0.0291556 	
4.75279e-09 	0.0277075 	0.0277075 	0 	
0.00121638 	2.08812e-08 	0.92 	0.04 	0.04 	0.0291555 	
4.75279e-09 	0.0277075 	0.0277075 	0 	
0.00127 	1.85637e-08 	0.92 	0.04 	0.04 	0.0291555 	
4.75279e-09 	0.0277075 	0.0277075 	0 	
ZONE T = "t = 3.09068e-07 [s]" I = 10 SOLUTIONTIME = 3.0906765287763E-07
0.0007874 	2.08811e-08 	0.92 	0.04 	0.04 	0.0291559 	
7.45519e-09 	0.0277075 	0.0277075 	0 	
0.000841022 	2.08812e-08 	0.92 	0.04 	0.04 	0.0291559 	
7.45519e-09 	0.0277075 	0.0277075 	0 	
0.000894644 	2.08812e-08 	0.92 	0.04 	0.04 	0.0291558 	
7.45519e-09 	0.0277075 	0.0277075 	0 	
0.000948267 	2.08812e-08 	0.92 	0.04 	0.04 	0.0291558 	
7.45519e-09 	0.0277075 	0.0277075 	0 	
0.00100189 	2.08812e-08 	0.92 	0.04 	0.04 	0.0291557 	
7.45519e-09 	0.0277075 	0.0277075 	0 	
0.00105551 	2.08812e-08 	0.92 	0.04 	0.04 	0.0291557 	
7.45519e-09 	0.0277075 	0.0277075 	0 	
0.00110913 	2.08812e-08 	0.92 	0.04 	0.04 	0.0291556 	
7.45519e-09 	0.0277075 	0.0277075 	0 	
0.00116276 	2.08812e-08 	0.92 	0.04 	0.04 	0.0291556 	
7.45519e-09 	0.0277075 	0.0277075 	0 	
0.00121638 	2.08811e-08 	0.92 	0.04 	0.04 	0.0291555 	
7.45519e-09 	0.0277075 	0.0277075 	0 	
0.00127 	1.85636e-08 	0.92 	0.04 	0.04 	0.0291555 	
7.45519e-09 	0.0277075 	0.0277075 	0 	
ZONE T = "t = 4.55367e-07 [s]" I = 10 SOLUTIONTIME = 4.5536727289958E-07
0.0007874 	2.08811e-08 	0.92 	0.04 	0.04 	0.0291559 	
1.15088e-08 	0.0277075 	0.0277075 	0 	
0.000841022 	2.08811e-08 	0.92 	0.04 	0.04 	0.0291559 	
1.15088e-08 	0.0277075 	0.0277075 	0 	
0.000894644 	2.08811e-08 	0.92 	0.04 	0.04 	0.0291558 	
1.15088e-08 	0.0277075 	0.0277075 	0 	
0.000948267 	2.08811e-08 	0.92 	0.04 	0.04 	0.0291558 	
1.15088e-08 	0.0277075 	0.0277075 	0 	
0.00100189 	2.08811e-08 	0.92 	0.04 	0.04 	0.0291557 	
1.15088e-08 	0.0277075 	0.0277075 	0 	
0.00105551 	2.08811e-08 	0.92 	0.04 	0.04 	0.0291557 	
1.15088e-08 	0.0277075 	0.0277075 	0 	
0.00110913 	2.08811e-08 	0.92 	0.04 	0.04 	0.0291556 	
1.15088e-08 	0.0277075 	0.0277075 	0 	
0.00116276 	2.08811e-08 	0.92 	0.04 	0.04 	0.0291556 	
1.15088e-08 	0.0277075 	0.0277075 	0 	
0.00121638 	2.08812e-08 	0.92 	0.04 	0.04 	0.0291555 	
1.15088e-08 	0.0277075 	0.0277075 	0 	
0.00127 	1.85637e-08 	0.92 	0.04 	0.04 	0.0291555 	
1.15088e-08 	0.0277075 	0.0277075 	0 	
ZONE T = "t = 6.74817e-07 [s]" I = 10 SOLUTIONTIME = 6.7481670293251E-07
0.0007874 	2.08809e-08 	0.92 	0.04 	0.04 	0.0291559 	
1.75892e-08 	0.0277075 	0.0277075 	0 	
0.000841022 	2.08809e-08 	0.92 	0.04 	0.04 	0.0291559 	
1.75892e-08 	0.0277075 	0.0277075 	0 	
0.000894644 	2.08808e-08 	0.92 	0.04 	0.04 	0.0291558 	
1.75892e-08 	0.0277075 	0.0277075 	0 	
0.000948267 	2.08808e-08 	0.92 	0.04 	0.04 	0.0291558 	
1.75892e-08 	0.0277075 	0.0277075 	0 	
0.00100189 	2.08808e-08 	0.92 	0.04 	0.04 	0.0291557 	
1.75892e-08 	0.0277075 	0.0277075 	0 	
0.00105551 	2.08808e-08 	0.92 	0.04 	0.04 	0.0291557 	
1.75892e-08 	0.0277075 	0.0277075 	0 	
0.00110913 	2.08808e-08 	0.92 	0.04 	0.04 	0.0291556 	
1.75892e-08 	0.0277075 	0.0277075 	0 	
0.00116276 	2.08808e-08 	0.92 	0.04 	0.04 	0.0291556 	
1.75892e-08 	0.0277075 	0.0277075 	0 	
0.00121638 	2.08808e-08 	0.92 	0.04 	0.04 	0.0291555 	
1.75892e-08 	0.0277075 	0.0277075 	0 	
0.00127 	1.85633e-08 	0.92 	0.04 	0.04 	0.0291555 	
1.75892e-08 	0.0277075 	0.0277075 	0 	
ZONE T = "t = 1.00399e-06 [s]" I = 10 SOLUTIONTIME = 1.0039908479819E-06
0.0007874 	2.08811e-08 	0.92 	0.04 	0.04 	0.0291559 	
2.67098e-08 	0.0277075 	0.0277075 	0 	
0.000841022 	2.08811e-08 	0.92 	0.04 	0.04 	0.0291559 	
2.67098e-08 	0.0277075 	0.0277075 	0 	
0.000894644 	2.08811e-08 	0.92 	0.04 	0.04 	0.0291558 	
2.67098e-08 	0.0277075 	0.0277075 	0 	
0.000948267 	2.08811e-08 	0.92 	0.04 	0.04 	0.0291558 	
2.67098e-08 	0.0277075 	0.0277075 	0 	
0.00100189 	2.08811e-08 	0.92 	0.04 	0.04 	0.0291557 	
2.67098e-08 	0.0277075 	0.0277075 	0 	
0.00105551 	2.08811e-08 	0.92 	0.04 	0.04 	0.0291557 	
2.67098e-08 	0.0277075 	0.0277075 	0 	
0.00110913 	2.08811e-08 	0.92 	0.04 	0.04 	0.0291556 	
2.67098e-08 	0.0277075 	0.0277075 	0 	
0.00116276 	2.08811e-08 	0.92 	0.04 	0.04 	0.0291556 	
2.67098e-08 	0.0277075 	0.0277075 	0 	
0.00121638 	2.08811e-08 	0.92 	0.04 	0.04 	0.0291555 	
2.67098e-08 	0.0277075 	0.0277075 	0 	
0.00127 	1.85636e-08 	0.92 	0.04 	0.04 	0.0291555 	
2.67098e-08 	0.0277075 	0.0277075 	0 	
ZONE T = "t = 1.49775e-06 [s]" I = 10 SOLUTIONTIME = 1.4977520655560E-06
0.0007874 	2.08811e-08 	0.92 	0.04 	0.04 	0.0291559 	
4.03907e-08 	0.0277075 	0.0277075 	0 	
0.000841022 	2.08811e-08 	0.92 	0.04 	0.04 	0.0291559 	
4.03907e-08 	0.0277075 	0.0277075 	0 	
0.000894644 	2.08811e-08 	0.92 	0.04 	0.04 	0.0291558 	
4.03907e-08 	0.0277075 	0.0277075 	0 	
0.000948267 	2.08811e-08 	0.92 	0.04 	0.04 	0.0291558 	
4.03907e-08 	0.0277075 	0.0277075 	0 	
0.00100189 	2.08811e-08 	0.92 	0.04 	0.04 	0.0291557 	
4.03907e-08 	0.0277075 	0.0277075 	0 	
0.00105551 	2.08811e-08 	0.92 	0.04 	0.04 	0.0291557 	
4.03907e-08 	0.0277075 	0.0277075 	0 	
0.00110913 	2.08811e-08 	0.92 	0.04 	0.04 	0.0291556 	
4.03907e-08 	0.0277075 	0.0277075 	0 	
0.00116276 	2.08811e-08 	0.92 	0.04 	0.04 	0.0291556 	
4.03907e-08 	0.0277075 	0.0277075 	0 	
0.00121638 	2.08811e-08 	0.92 	0.04 	0.04 	0.0291555 	
4.03907e-08 	0.0277075 	0.0277075 	0 	
0.00127 	1.85636e-08 	0.92 	0.04 	0.04 	0.0291555 	
4.03907e-08 	0.0277075 	0.0277075 	0 	
ZONE T = "t = 2.23839e-06 [s]" I = 10 SOLUTIONTIME = 2.2383938919171E-06
0.0007874 	2.08811e-08 	0.92 	0.04 	0.04 	0.0291559 	
6.0912e-08 	0.0277075 	0.0277075 	0 	
0.000841022 	2.08811e-08 	0.92 	0.04 	0.04 	0.0291559 	
6.0912e-08 	0.0277075 	0.0277075 	0 	
0.000894644 	2.08811e-08 	0.92 	0.04 	0.04 	0.0291558 	
6.0912e-08 	0.0277075 	0.0277075 	0 	
0.000948267 	2.08811e-08 	0.92 	0.04 	0.04 	0.0291558 	
6.0912e-08 	0.0277075 	0.0277075 	0 	
0.00100189 	2.08811e-08 	0.92 	0.04 	0.04 	0.0291557 	
6.0912e-08 	0.0277075 	0.0277075 	0 	
0.00105551 	2.08811e-08 	0.92 	0.04 	0.04 	0.0291557 	
6.0912e-08 	0.0277075 	0.0277075 	0 	
0.00110913 	2.08811e-08 	0.92 	0.04 	0.04 	0.0291556 	
6.0912e-08 	0.0277075 	0.0277075 	0 	
0.00116276 	2.08811e-08 	0.92 	0.04 	0.04 	0.0291556 	
6.0912e-08 	0.0277075 	0.0277075 	0 	
0.00121638 	2.08811e-08 	0.92 	0.04 	0.04 	0.0291555 	
6.0912e-08 	0.0277075 	0.0277075 	0 	
0.00127 	1.85636e-08 	0.92 	0.04 	0.04 	0.0291555 	
6.0912e-08 	0.0277075 	0.0277075 	0 	
ZONE T = "t = 3.34936e-06 [s]" I = 10 SOLUTIONTIME = 3.3493566314588E-06
0.0007874 	2.08811e-08 	0.92 	0.04 	0.04 	0.0291559 	
9.1694e-08 	0.0277075 	0.0277075 	0 	
0.000841022 	2.08811e-08 	0.92 	0.04 	0.04 	0.0291559 	
9.1694e-08 	0.0277075 	0.0277075 	0 	
0.000894644 	2.08811e-08 	0.92 	0.04 	0.04 	0.0291558 	
9.1694e-08 	0.0277075 	0.0277075 	0 	
0.000948267 	2.08811e-08 	0.92 	0.04 	0.04 	0.0291558 	
9.1694e-08 	0.0277075 	0.0277075 	0 	
0.00100189 	2.08811e-08 	0.92 	0.04 	0.04 	0.0291557 	
9.1694e-08 	0.0277075 	0.0277075 	0 	
0.00105551 	2.08811e-08 	0.92 	0.04 	0.04 	0.0291557 	
9.1694e-08 	0.0277075 	0.0277075 	0 	
0.00110913 	2.08811e-08 	0.92 	0.04 	0.04 	0.0291556 	
9.1694e-08 	0.0277075 	0.0277075 	0 	
0.00116276 	2.08811e-08 	0.92 	0.04 	0.04 	0.0291556 	
9.1694e-08 	0.0277075 	0.0277075 	0 	
0.00121638 	2.08811e-08 	0.92 	0.04 	0.04 	0.0291555 	
9.1694e-08 	0.0277075 	0.0277075 	0 	
0.00127 	1.85636e-08 	0.92 	0.04 	0.04 	0.0291555 	
9.1694e-08 	0.0277075 	0.0277075 	0 	
ZONE T = "t = 5.0158e-06 [s]" I = 10 SOLUTIONTIME = 5.0158007407714E-06
0.0007874 	2.08811e-08 	0.92 	0.04 	0.04 	0.0291559 	
1.37867e-07 	0.0277075 	0.0277075 	0 	
0.000841022 	2.08811e-08 	0.92 	0.04 	0.04 	0.0291559 	
1.37867e-07 	0.0277075 	0.0277075 	0 	
0.000894644 	2.08811e-08 	0.92 	0.04 	0.04 	0.0291558 	
1.37867e-07 	0.0277075 	0.0277075 	0 	
0.000948267 	2.08811e-08 	0.92 	0.04 	0.04 	0.0291558 	
1.37867e-07 	0.0277075 	0.0277075 	0 	
0.00100189 	2.08811e-08 	0.92 	0.04 	0.04 	0.0291557 	
1.37867e-07 	0.0277075 	0.0277075 	0 	
0.00105551 	2.08811e-08 	0.92 	0.04 	0.04 	0.0291557 	
1.37867e-07 	0.0277075 	0.0277075 	0 	
0.00110913 	2.08811e-08 	0.92 	0.04 	0.04 	0.0291556 	
1.37867e-07 	0.0277075 	0.0277075 	0 	
0.00116276 	2.08811e-08 	0.92 	0.04 	0.04 	0.0291556 	
1.37867e-07 	0.0277075 	0.0277075 	0 	
0.00121638 	2.08811e-08 	0.92 	0.04 	0.04 	0.0291555 	
1.37867e-07 	0.0277075 	0.0277075 	0 	
0.00127 	1.85636e-08 	0.92 	0.04 	0.04 	0.0291555 	
1.37867e-07 	0.0277075 	0.0277075 	0 	
ZONE T = "t = 7.51547e-06 [s]" I = 10 SOLUTIONTIME = 7.5154669047402E-06
0.0007874 	2.08811e-08 	0.92 	0.04 	0.04 	0.0291559 	
2.07127e-07 	0.0277075 	0.0277075 	0 	
0.000841022 	2.08811e-08 	0.92 	0.04 	0.04 	0.0291559 	
2.07127e-07 	0.0277075 	0.0277075 	0 	
0.000894644 	2.08811e-08 	0.92 	0.04 	0.04 	0.0291558 	
2.07127e-07 	0.0277075 	0.0277075 	0 	
0.000948267 	2.08811e-08 	0.92 	0.04 	0.04 	0.0291558 	
2.07127e-07 	0.0277075 	0.0277075 	0 	
0.00100189 	2.08811e-08 	0.92 	0.04 	0.04 	0.0291557 	
2.07127e-07 	0.0277075 	0.0277075 	0 	
0.00105551 	2.08811e-08 	0.92 	0.04 	0.04 	0.0291557 	
2.07127e-07 	0.0277075 	0.0277075 	0 	
0.00110913 	2.08811e-08 	0.92 	0.04 	0.04 	0.0291556 	
2.07127e-07 	0.0277075 	0.0277075 	0 	
0.00116276 	2.08811e-08 	0.92 	0.04 	0.04 	0.0291556 	
2.07127e-07 	0.0277075 	0.0277075 	0 	
0.00121638 	2.08811e-08 	0.92 	0.04 	0.04 	0.0291555 	
2.07127e-07 	0.0277075 	0.0277075 	0 	
0.00127 	1.85636e-08 	0.92 	0.04 	0.04 	0.0291555 	
2.07127e-07 	0.0277075 	0.0277075 	0 	
ZONE T = "t = 1.1265e-05 [s]" I = 10 SOLUTIONTIME = 1.1264966150693E-05
0.0007874 	2.08811e-08 	0.92 	0.04 	0.04 	0.0291559 	
3.11016e-07 	0.0277075 	0.0277075 	0 	
0.000841022 	2.08811e-08 	0.92 	0.04 	0.04 	0.0291559 	
3.11016e-07 	0.0277075 	0.0277075 	0 	
0.000894644 	2.08811e-08 	0.92 	0.04 	0.04 	0.0291558 	
3.11016e-07 	0.0277075 	0.0277075 	0 	
0.000948267 	2.08811e-08 	0.92 	0.04 	0.04 	0.0291558 	
3.11016e-07 	0.0277075 	0.0277075 	0 	
0.00100189 	2.08811e-08 	0.92 	0.04 	0.04 	0.0291557 	
3.11016e-07 	0.0277075 	0.0277075 	0 	
0.00105551 	2.08811e-08 	0.92 	0.04 	0.04 	0.0291557 	
3.11016e-07 	0.0277075 	0.0277075 	0 	
0.00110913 	2.08811e-08 	0.92 	0.04 	0.04 	0.0291556 	
3.11016e-07 	0.0277075 	0.0277075 	0 	
0.00116276 	2.08811e-08 	0.92 	0.04 	0.04 	0.0291556 	
3.11016e-07 	0.0277075 	0.0277075 	0 	
0.00121638 	2.08811e-08 	0.92 	0.04 	0.04 	0.0291555 	
3.11016e-07 	0.0277075 	0.0277075 	0 	
0.00127 	1.85636e-08 	0.92 	0.04 	0.04 	0.0291555 	
3.11016e-07 	0.0277075 	0.0277075 	0 	
ZONE T = "t = 1.68892e-05 [s]" I = 10 SOLUTIONTIME = 1.6889215019623E-05
0.0007874 	2.08811e-08 	0.92 	0.04 	0.04 	0.0291559 	
4.6685e-07 	0.0277075 	0.0277075 	0 	
0.000841022 	2.08811e-08 	0.92 	0.04 	0.04 	0.0291559 	
4.6685e-07 	0.0277075 	0.0277075 	0 	
0.000894644 	2.08811e-08 	0.92 	0.04 	0.04 	0.0291558 	
4.6685e-07 	0.0277075 	0.0277075 	0 	
0.000948267 	2.08811e-08 	0.92 	0.04 	0.04 	0.0291558 	
4.6685e-07 	0.0277075 	0.0277075 	0 	
0.00100189 	2.08811e-08 	0.92 	0.04 	0.04 	0.0291557 	
4.6685e-07 	0.0277075 	0.0277075 	0 	
0.00105551 	2.08811e-08 	0.92 	0.04 	0.04 	0.0291557 	
4.6685e-07 	0.0277075 	0.0277075 	0 	
0.00110913 	2.08811e-08 	0.92 	0.04 	0.04 	0.0291556 	
4.6685e-07 	0.0277075 	0.0277075 	0 	
0.00116276 	2.08811e-08 	0.92 	0.04 	0.04 	0.0291556 	
4.6685e-07 	0.0277075 	0.0277075 	0 	
0.00121638 	2.08811e-08 	0.92 	0.04 	0.04 	0.0291555 	
4.6685e-07 	0.0277075 	0.0277075 	0 	
0.00127 	1.85636e-08 	0.92 	0.04 	0.04 	0.0291555 	
4.6685e-07 	0.0277075 	0.0277075 	0 	
ZONE T = "t = 2.53256e-05 [s]" I = 10 SOLUTIONTIME = 2.5325588323018E-05
0.0007874 	2.08811e-08 	0.92 	0.04 	0.04 	0.0291559 	
7.00601e-07 	0.0277075 	0.0277075 	0 	
0.000841022 	2.08811e-08 	0.92 	0.04 	0.04 	0.0291559 	
7.00601e-07 	0.0277075 	0.0277075 	0 	
0.000894644 	2.08811e-08 	0.92 	0.04 	0.04 	0.0291558 	
7.00601e-07 	0.0277075 	0.0277075 	0 	
0.000948267 	2.08811e-08 	0.92 	0.04 	0.04 	0.0291558 	
7.00601e-07 	0.0277075 	0.0277075 	0 	
0.00100189 	2.08811e-08 	0.92 	0.04 	0.04 	0.0291557 	
7.00601e-07 	0.0277075 	0.0277075 	0 	
0.00105551 	2.08811e-08 	0.92 	0.04 	0.04 	0.0291557 	
7.00601e-07 	0.0277075 	0.0277075 	0 	
0.00110913 	2.08811e-08 	0.92 	0.04 	0.04 	0.0291556 	
7.00601e-07 	0.0277075 	0.0277075 	0 	
0.00116276 	2.08811e-08 	0.92 	0.04 	0.04 	0.0291556 	
7.00601e-07 	0.0277075 	0.0277075 	0 	
0.00121638 	2.08811e-08 	0.92 	0.04 	0.04 	0.0291555 	
7.00601e-07 	0.0277075 	0.0277075 	0 	
0.00127 	1.85636e-08 	0.92 	0.04 	0.04 	0.0291555 	
7.00601e-07 	0.0277075 	0.0277075 	0 	
ZONE T = "t = 3.79801e-05 [s]" I = 10 SOLUTIONTIME = 3.7980148278110E-05
0.0007874 	2.08811e-08 	0.92 	0.04 	0.04 	0.0291559 	
1.05123e-06 	0.0277075 	0.0277075 	0 	
0.000841022 	2.08811e-08 	0.92 	0.04 	0.04 	0.0291559 	
1.05123e-06 	0.0277075 	0.0277075 	0 	
0.000894644 	2.08811e-08 	0.92 	0.04 	0.04 	0.0291558 	
1.05123e-06 	0.0277075 	0.0277075 	0 	
0.000948267 	2.08811e-08 	0.92 	0.04 	0.04 	0.0291558 	
1.05123e-06 	0.0277075 	0.0277075 	0 	
0.00100189 	2.08811e-08 	0.92 	0.04 	0.04 	0.0291557 	
1.05123e-06 	0.0277075 	0.0277075 	0 	
0.00105551 	2.08811e-08 	0.92 	0.04 	0.04 	0.0291557 	
1.05123e-06 	0.0277075 	0.0277075 	0 	
0.00110913 	2.08811e-08 	0.92 	0.04 	0.04 	0.0291556 	
1.05123e-06 	0.0277075 	0.0277075 	0 	
0.00116276 	2.08811e-08 	0.92 	0.04 	0.04 	0.0291556 	
1.05123e-06 	0.0277075 	0.0277075 	0 	
0.00121638 	2.08811e-08 	0.92 	0.04 	0.04 	0.0291555 	
1.05123e-06 	0.0277075 	0.0277075 	0 	
0.00127 	1.85636e-08 	0.92 	0.04 	0.04 	0.0291555 	
1.05123e-06 	0.0277075 	0.0277075 	0 	
ZONE T = "t = 5.6962e-05 [s]" I = 10 SOLUTIONTIME = 5.6961988210749E-05
0.0007874 	2.08811e-08 	0.92 	0.04 	0.04 	0.0291559 	
1.57717e-06 	0.0277075 	0.0277075 	0 	
0.000841022 	2.08811e-08 	0.92 	0.04 	0.04 	0.0291559 	
1.57717e-06 	0.0277075 	0.0277075 	0 	
0.000894644 	2.08811e-08 	0.92 	0.04 	0.04 	0.0291558 	
1.57717e-06 	0.0277075 	0.0277075 	0 	
0.000948267 	2.08811e-08 	0.92 	0.04 	0.04 	0.0291558 	
1.57717e-06 	0.0277075 	0.0277075 	0 	
0.00100189 	2.08811e-08 	0.92 	0.04 	0.04 	0.0291557 	
1.57717e-06 	0.0277075 	0.0277075 	0 	
0.00105551 	2.08811e-08 	0.92 	0.04 	0.04 	0.0291557 	
1.57717e-06 	0.0277075 	0.0277075 	0 	
0.00110913 	2.08811e-08 	0.92 	0.04 	0.04 	0.0291556 	
1.57717e-06 	0.0277075 	0.0277075 	0 	
0.00116276 	2.08811e-08 	0.92 	0.04 	0.04 	0.0291556 	
1.57717e-06 	0.0277075 	0.0277075 	0 	
0.00121638 	2.08811e-08 	0.92 	0.04 	0.04 	0.0291555 	
1.57717e-06 	0.0277075 	0.0277075 	0 	
0.00127 	1.85636e-08 	0.92 	0.04 	0.04 	0.0291555 	
1.57717e-06 	0.0277075 	0.0277075 	0 	
ZONE T = "t = 8.54347e-05 [s]" I = 10 SOLUTIONTIME = 8.5434748109706E-05
0.0007874 	2.08811e-08 	0.92 	0.04 	0.04 	0.0291559 	
2.36608e-06 	0.0277075 	0.0277075 	0 	
0.000841022 	2.08811e-08 	0.92 	0.04 	0.04 	0.0291559 	
2.36608e-06 	0.0277075 	0.0277075 	0 	
0.000894644 	2.08811e-08 	0.92 	0.04 	0.04 	0.0291558 	
2.36608e-06 	0.0277075 	0.0277075 	0 	
0.000948267 	2.08811e-08 	0.92 	0.04 	0.04 	0.0291558 	
2.36608e-06 	0.0277075 	0.0277075 	0 	
0.00100189 	2.08811e-08 	0.92 	0.04 	0.04 	0.0291557 	
2.36608e-06 	0.0277075 	0.0277075 	0 	
0.00105551 	2.08811e-08 	0.92 	0.04 	0.04 	0.0291557 	
2.36608e-06 	0.0277075 	0.0277075 	0 	
0.00110913 	2.08811e-08 	0.92 	0.04 	0.04 	0.0291556 	
2.36608e-06 	0.0277075 	0.0277075 	0 	
0.00116276 	2.08811e-08 	0.92 	0.04 	0.04 	0.0291556 	
2.36608e-06 	0.0277075 	0.0277075 	0 	
0.00121638 	2.08811e-08 	0.92 	0.04 	0.04 	0.0291555 	
2.36608e-06 	0.0277075 	0.0277075 	0 	
0.00127 	1.85636e-08 	0.92 	0.04 	0.04 	0.0291555 	
2.36608e-06 	0.0277075 	0.0277075 	0 	
ZONE T = "t = 0.000128144 [s]" I = 10 SOLUTIONTIME = 1.2814388795814E-04
0.0007874 	2.08811e-08 	0.92 	0.04 	0.04 	0.0291559 	
3.54944e-06 	0.0277075 	0.0277075 	0 	
0.000841022 	2.08811e-08 	0.92 	0.04 	0.04 	0.0291559 	
3.54944e-06 	0.0277075 	0.0277075 	0 	
0.000894644 	2.08811e-08 	0.92 	0.04 	0.04 	0.0291558 	
3.54944e-06 	0.0277075 	0.0277075 	0 	
0.000948267 	2.08811e-08 	0.92 	0.04 	0.04 	0.0291558 	
3.54944e-06 	0.0277075 	0.0277075 	0 	
0.00100189 	2.08811e-08 	0.92 	0.04 	0.04 	0.0291557 	
3.54944e-06 	0.0277075 	0.0277075 	0 	
0.00105551 	2.08811e-08 	0.92 	0.04 	0.04 	0.0291557 	
3.54944e-06 	0.0277075 	0.0277075 	0 	
0.00110913 	2.08811e-08 	0.92 	0.04 	0.04 	0.0291556 	
3.54944e-06 	0.0277075 	0.0277075 	0 	
0.00116276 	2.08811e-08 	0.92 	0.04 	0.04 	0.0291556 	
3.54944e-06 	0.0277075 	0.0277075 	0 	
0.00121638 	2.08811e-08 	0.92 	0.04 	0.04 	0.0291555 	
3.54944e-06 	0.0277075 	0.0277075 	0 	
0.00127 	1.85636e-08 	0.92 	0.04 	0.04 	0.0291555 	
3.54944e-06 	0.0277075 	0.0277075 	0 	
ZONE T = "t = 0.000192208 [s]" I = 10 SOLUTIONTIME = 1.9220759773080E-04
0.0007874 	2.08811e-08 	0.92 	0.04 	0.04 	0.0291559 	
5.32448e-06 	0.0277075 	0.0277075 	0 	
0.000841022 	2.08811e-08 	0.92 	0.04 	0.04 	0.0291559 	
5.32448e-06 	0.0277075 	0.0277075 	0 	
0.000894644 	2.08811e-08 	0.92 	0.04 	0.04 	0.0291558 	
5.32448e-06 	0.0277075 	0.0277075 	0 	
0.000948267 	2.08811e-08 	0.92 	0.04 	0.04 	0.0291558 	
5.32448e-06 	0.0277075 	0.0277075 	0 	
0.00100189 	2.08811e-08 	0.92 	0.04 	0.04 	0.0291557 	
5.32448e-06 	0.0277075 	0.0277075 	0 	
0.00105551 	2.08811e-08 	0.92 	0.04 	0.04 	0.0291557 	
5.32448e-06 	0.0277075 	0.0277075 	0 	
0.00110913 	2.08811e-08 	0.92 	0.04 	0.04 	0.0291556 	
5.32448e-06 	0.0277075 	0.0277075 	0 	
0.00116276 	2.08811e-08 	0.92 	0.04 	0.04 	0.0291556 	
5.32448e-06 	0.0277075 	0.0277075 	0 	
0.00121638 	2.08811e-08 	0.92 	0.04 	0.04 	0.0291555 	
5.32448e-06 	0.0277075 	0.0277075 	0 	
0.00127 	1.85636e-08 	0.92 	0.04 	0.04 	0.0291555 	
5.32448e-06 	0.0277075 	0.0277075 	0 	
ZONE T = "t = 0.000288303 [s]" I = 10 SOLUTIONTIME = 2.8830316238978E-04
0.0007874 	2.08811e-08 	0.92 	0.04 	0.04 	0.0291559 	
7.98705e-06 	0.0277075 	0.0277075 	0 	
0.000841022 	2.08811e-08 	0.92 	0.04 	0.04 	0.0291559 	
7.98705e-06 	0.0277075 	0.0277075 	0 	
0.000894644 	2.08811e-08 	0.92 	0.04 	0.04 	0.0291558 	
7.98705e-06 	0.0277075 	0.0277075 	0 	
0.000948267 	2.08811e-08 	0.92 	0.04 	0.04 	0.0291558 	
7.98705e-06 	0.0277075 	0.0277075 	0 	
0.00100189 	2.08811e-08 	0.92 	0.04 	0.04 	0.0291557 	
7.98705e-06 	0.0277075 	0.0277075 	0 	
0.00105551 	2.08811e-08 	0.92 	0.04 	0.04 	0.0291557 	
7.98705e-06 	0.0277075 	0.0277075 	0 	
0.00110913 	2.08811e-08 	0.92 	0.04 	0.04 	0.0291556 	
7.98705e-06 	0.0277075 	0.0277075 	0 	
0.00116276 	2.08811e-08 	0.92 	0.04 	0.04 	0.0291556 	
7.98705e-06 	0.0277075 	0.0277075 	0 	
0.00121638 	2.08811e-08 	0.92 	0.04 	0.04 	0.0291555 	
7.98705e-06 	0.0277075 	0.0277075 	0 	
0.00127 	1.85636e-08 	0.92 	0.04 	0.04 	0.0291555 	
7.98705e-06 	0.0277075 	0.0277075 	0 	
ZONE T = "t = 0.000432447 [s]" I = 10 SOLUTIONTIME = 4.3244650937825E-04
0.0007874 	2.08811e-08 	0.92 	0.04 	0.04 	0.0291559 	
1.19809e-05 	0.0277075 	0.0277075 	0 	
0.000841022 	2.08811e-08 	0.92 	0.04 	0.04 	0.0291559 	
1.19809e-05 	0.0277075 	0.0277075 	0 	
0.000894644 	2.08811e-08 	0.92 	0.04 	0.04 	0.0291558 	
1.19809e-05 	0.0277075 	0.0277075 	0 	
0.000948267 	2.08811e-08 	0.92 	0.04 	0.04 	0.0291558 	
1.19809e-05 	0.0277075 	0.0277075 	0 	
0.00100189 	2.08811e-08 	0.92 	0.04 	0.04 	0.0291557 	
1.19809e-05 	0.0277075 	0.0277075 	0 	
0.00105551 	2.08811e-08 	0.92 	0.04 	0.04 	0.0291557 	
1.19809e-05 	0.0277075 	0.0277075 	0 	
0.00110913 	2.08811e-08 	0.92 	0.04 	0.04 	0.0291556 	
1.19809e-05 	0.0277075 	0.0277075 	0 	
0.00116276 	2.08811e-08 	0.92 	0.04 	0.04 	0.0291556 	
1.19809e-05 	0.0277075 	0.0277075 	0 	
0.00121638 	2.08811e-08 	0.92 	0.04 	0.04 	0.0291555 	
1.19809e-05 	0.0277075 	0.0277075 	0 	
0.00127 	1.85636e-08 	0.92 	0.04 	0.04 	0.0291555 	
1.19809e-05 	0.0277075 	0.0277075 	0 	
ZONE T = "t = 0.000648662 [s]" I = 10 SOLUTIONTIME = 6.4866152986096E-04
0.0007874 	2.08811e-08 	0.92 	0.04 	0.04 	0.0291559 	
1.79717e-05 	0.0277075 	0.0277075 	0 	
0.000841022 	2.08811e-08 	0.92 	0.04 	0.04 	0.0291559 	
1.79717e-05 	0.0277075 	0.0277075 	0 	
0.000894644 	2.08811e-08 	0.92 	0.04 	0.04 	0.0291558 	
1.79717e-05 	0.0277075 	0.0277075 	0 	
0.000948267 	2.08811e-08 	0.92 	0.04 	0.04 	0.0291558 	
1.79717e-05 	0.0277075 	0.0277075 	0 	
0.00100189 	2.08811e-08 	0.92 	0.04 	0.04 	0.0291557 	
1.79717e-05 	0.0277075 	0.0277075 	0 	
0.00105551 	2.08811e-08 	0.92 	0.04 	0.04 	0.0291557 	
1.79717e-05 	0.0277075 	0.0277075 	0 	
0.00110913 	2.08811e-08 	0.92 	0.04 	0.04 	0.0291556 	
1.79717e-05 	0.0277075 	0.0277075 	0 	
0.00116276 	2.08811e-08 	0.92 	0.04 	0.04 	0.0291556 	
1.79717e-05 	0.0277075 	0.0277075 	0 	
0.00121638 	2.08811e-08 	0.92 	0.04 	0.04 	0.0291555 	
1.79717e-05 	0.0277075 	0.0277075 	0 	
0.00127 	1.85636e-08 	0.92 	0.04 	0.04 	0.0291555 	
1.79717e-05 	0.0277075 	0.0277075 	0 	
ZONE T = "t = 0.000972984 [s]" I = 10 SOLUTIONTIME = 9.7298406058502E-04
0.0007874 	2.08811e-08 	0.92 	0.04 	0.04 	0.0291559 	
2.69578e-05 	0.0277074 	0.0277074 	0 	
0.000841022 	2.08811e-08 	0.92 	0.04 	0.04 	0.0291559 	
2.69578e-05 	0.0277074 	0.0277074 	0 	
0.000894644 	2.08811e-08 	0.92 	0.04 	0.04 	0.0291558 	
2.69578e-05 	0.0277074 	0.0277074 	0 	
0.000948267 	2.08811e-08 	0.92 	0.04 	0.04 	0.0291558 	
2.69578e-05 	0.0277074 	0.0277074 	0 	
0.00100189 	2.08811e-08 	0.92 	0.04 	0.04 	0.0291557 	
2.69578e-05 	0.0277074 	0.0277074 	0 	
0.00105551 	2.08811e-08 	0.92 	0.04 	0.04 	0.0291557 	
2.69578e-05 	0.0277074 	0.0277074 	0 	
0.00110913 	2.08811e-08 	0.92 	0.04 	0.04 	0.0291556 	
2.69578e-05 	0.0277075 	0.0277075 	0 	
0.00116276 	2.08811e-08 	0.92 	0.04 	0.04 	0.0291556 	
2.69578e-05 	0.0277075 	0.0277075 	0 	
0.00121638 	2.08811e-08 	0.92 	0.04 	0.04 	0.0291555 	
2.69578e-05 	0.0277075 	0.0277075 	0 	
0.00127 	1.85636e-08 	0.92 	0.04 	0.04 	0.0291555 	
2.69578e-05 	0.0277075 	0.0277075 	0 	
ZONE T = "t = 0.00145947 [s]" I = 10 SOLUTIONTIME = 1.4594678566711E-03
0.0007874 	2.0881e-08 	0.92 	0.04 	0.04 	0.0291559 	
4.0437e-05 	0.0277074 	0.0277074 	0 	
0.000841022 	2.0881e-08 	0.92 	0.04 	0.04 	0.0291559 	
4.0437e-05 	0.0277074 	0.0277074 	0 	
0.000894644 	2.0881e-08 	0.92 	0.04 	0.04 	0.0291558 	
4.0437e-05 	0.0277074 	0.0277074 	0 	
0.000948267 	2.0881e-08 	0.92 	0.04 	0.04 	0.0291558 	
4.0437e-05 	0.0277074 	0.0277074 	0 	
0.00100189 	2.0881e-08 	0.92 	0.04 	0.04 	0.0291557 	
4.0437e-05 	0.0277074 	0.0277074 	0 	
0.00105551 	2.0881e-08 	0.92 	0.04 	0.04 	0.0291557 	
4.0437e-05 	0.0277074 	0.0277074 	0 	
0.00110913 	2.0881e-08 	0.92 	0.04 	0.04 	0.0291556 	
4.0437e-05 	0.0277074 	0.0277074 	0 	
0.00116276 	2.0881e-08 	0.92 	0.04 	0.04 	0.0291556 	
4.0437e-05 	0.0277074 	0.0277074 	0 	
0.00121638 	2.0881e-08 	0.92 	0.04 	0.04 	0.0291555 	
4.0437e-05 	0.0277074 	0.0277074 	0 	
0.00127 	1.85635e-08 	0.92 	0.04 	0.04 	0.0291555 	
4.0437e-05 	0.0277074 	0.0277074 	0 	
ZONE T = "t = 0.00218919 [s]" I = 10 SOLUTIONTIME = 2.1891935508003E-03
0.0007874 	2.0881e-08 	0.92 	0.04 	0.04 	0.0291559 	
6.06558e-05 	0.0277074 	0.0277074 	0 	
0.000841022 	2.0881e-08 	0.92 	0.04 	0.04 	0.0291559 	
6.06558e-05 	0.0277074 	0.0277074 	0 	
0.000894644 	2.0881e-08 	0.92 	0.04 	0.04 	0.0291558 	
6.06558e-05 	0.0277074 	0.0277074 	0 	
0.000948267 	2.0881e-08 	0.92 	0.04 	0.04 	0.0291558 	
6.06558e-05 	0.0277074 	0.0277074 	0 	
0.00100189 	2.0881e-08 	0.92 	0.04 	0.04 	0.0291557 	
6.06558e-05 	0.0277074 	0.0277074 	0 	
0.00105551 	2.0881e-08 	0.92 	0.04 	0.04 	0.0291557 	
6.06558e-05 	0.0277074 	0.0277074 	0 	
0.00110913 	2.0881e-08 	0.92 	0.04 	0.04 	0.0291556 	
6.06558e-05 	0.0277074 	0.0277074 	0 	
0.00116276 	2.0881e-08 	0.92 	0.04 	0.04 	0.0291556 	
6.06558e-05 	0.0277074 	0.0277074 	0 	
0.00121638 	2.0881e-08 	0.92 	0.04 	0.04 	0.0291555 	
6.06558e-05 	0.0277074 	0.0277074 	0 	
0.00127 	1.85635e-08 	0.92 	0.04 	0.04 	0.0291555 	
6.06558e-05 	0.0277074 	0.0277074 	0 	
ZONE T = "t = 0.00328378 [s]" I = 10 SOLUTIONTIME = 3.2837820919940E-03
0.0007874 	2.0881e-08 	0.92 	0.04 	0.04 	0.0291559 	
9.09839e-05 	0.0277073 	0.0277073 	0 	
0.000841022 	2.0881e-08 	0.92 	0.04 	0.04 	0.0291559 	
9.09839e-05 	0.0277073 	0.0277073 	0 	
0.000894644 	2.0881e-08 	0.92 	0.04 	0.04 	0.0291558 	
9.09839e-05 	0.0277073 	0.0277073 	0 	
0.000948267 	2.0881e-08 	0.92 	0.04 	0.04 	0.0291558 	
9.09839e-05 	0.0277073 	0.0277073 	0 	
0.00100189 	2.0881e-08 	0.92 	0.04 	0.04 	0.0291557 	
9.09839e-05 	0.0277073 	0.0277073 	0 	
0.00105551 	2.0881e-08 	0.92 	0.04 	0.04 	0.0291557 	
9.0984e-05 	0.0277073 	0.0277073 	0 	
0.00110913 	2.0881e-08 	0.92 	0.04 	0.04 	0.0291556 	