TITLE = "Solution on Domain BulkDomain1D_0"
VARIABLES = "x [m]"  
"Vel_axial(0)" 	"MF_sp(ECDMC)" 	"MF_sp(Li+)" 	"MF_sp(PF6-)" 	"Volt(Electroly)" 	"Volt(AnodeVolt)" 	
"Potential Drop Electrode-Electrolyte [V]" 	"Surf_0 Equilibrium Potential Drop Electrode-Electrolyte [V]" 	"Overpotential_0 [V]" 	"Current Source [A/m^2]" 	"Li+ flux [kmol/m^2/s]" 	"Electrolyte Current [A/m^2]" 	"Electrode Current [A/m^2]" 	
"Capacity discharged [A-s]" 	"Depth of discharge [-]" 	"Capacity remaining [A-s]" 	"Initial capacity [A-s]" 	"Porosity []" 	"Surface Area [m2/m2] (area per area)" 	"Specific current (per particle area) [A/m^2]" 	"Control volume thickness [m]" 	
"Moles Li_C6-bulk [mol/m^2] (per electrode area)" 	"Moles V_C6-bulk [mol/m^2] (per electrode area)" 	"qHeat_accum [J/m3]" 	"qHeat_step [W/m3]" 	"Joule_Lyte [W/m3]" 	"Joule_Solid [W/m3]" 	"electrodHeat [W/m3]" 	"OverpotHeat [W/m3]" 	"deltaSHeat [W/m3]" 	

ZONE T = "t = 4e-08 [s]" I = 10 SOLUTIONTIME = 4.0000000000000E-08
0 	1.16001e-09 	0.92 	0.04 	0.04 	0.0291573 	0 	
0 	0 	0 	0 	0 	0.835256 	19.2951 	
0 	0 	0 	0 	0.35 	8.53017 	0.195836 	4.37444e-05 	
0.00379119 	0.000947796 	0 	0.0 	 0.0 	 0.0 	 0.0 	 0.0 	 0.0 	 
8.74889e-05 	3.48004e-09 	0.92 	0.04 	0.04 	0.0291572 	-2.48467e-09 	
0 	0 	0 	0 	0 	3.34103 	17.374 	
0 	0 	0 	0 	0.35 	17.0603 	0.195836 	8.74889e-05 	
0.00758237 	0.00189559 	0 	0.0 	 0.0 	 0.0 	 0.0 	 0.0 	 0.0 	 
0.000174978 	5.80008e-09 	0.92 	0.04 	0.04 	0.0291572 	-4.67703e-09 	
0 	0 	0 	0 	0 	6.68206 	15.2024 	
0 	0 	0 	0 	0.35 	17.0603 	0.195837 	8.74889e-05 	
0.00758237 	0.00189559 	0 	0.0 	 0.0 	 0.0 	 0.0 	 0.0 	 0.0 	 
0.000262467 	8.12014e-09 	0.92 	0.04 	0.04 	0.0291571 	-6.57709e-09 	
0 	0 	0 	0 	0 	10.0231 	13.0307 	
0 	0 	0 	0 	0.35 	17.0603 	0.195838 	8.74889e-05 	
0.00758237 	0.00189559 	0 	0.0 	 0.0 	 0.0 	 0.0 	 0.0 	 0.0 	 
0.000349956 	1.04402e-08 	0.92 	0.04 	0.04 	0.029157 	-8.18485e-09 	
0 	0 	0 	0 	0 	13.3642 	10.859 	
0 	0 	0 	0 	0.35 	17.0603 	0.19584 	8.74889e-05 	
0.00758237 	0.00189559 	0 	0.0 	 0.0 	 0.0 	 0.0 	 0.0 	 0.0 	 
0.000437444 	1.27603e-08 	0.92 	0.04 	0.04 	0.0291569 	-9.50029e-09 	
0 	0 	0 	0 	0 	16.7053 	8.68725 	
0 	0 	0 	0 	0.35 	17.0603 	0.195842 	8.74889e-05 	
0.00758237 	0.00189559 	0 	0.0 	 0.0 	 0.0 	 0.0 	 0.0 	 0.0 	 
0.000524933 	1.50805e-08 	0.92 	0.04 	0.04 	0.0291567 	-1.05234e-08 	
0 	0 	0 	0 	0 	20.0465 	6.5155 	
0 	0 	0 	0 	0.35 	17.0603 	0.195845 	8.74889e-05 	
0.00758237 	0.00189559 	0 	0.0 	 0.0 	 0.0 	 0.0 	 0.0 	 0.0 	 
0.000612422 	1.74006e-08 	0.92 	0.04 	0.04 	0.0291565 	-1.12542e-08 	
0 	0 	0 	0 	0 	23.3877 	4.34371 	
0 	0 	0 	0 	0.35 	17.0603 	0.195849 	8.74889e-05 	
0.00758237 	0.00189559 	0 	0.0 	 0.0 	 0.0 	 0.0 	 0.0 	 0.0 	 
0.000699911 	1.97209e-08 	0.92 	0.04 	0.04 	0.0291562 	-1.16927e-08 	
0 	0 	0 	0 	0 	26.729 	2.17188 	
0 	0 	0 	0 	0.35 	17.0603 	0.195853 	8.74889e-05 	
0.00758237 	0.00189559 	0 	0.0 	 0.0 	 0.0 	 0.0 	 0.0 	 0.0 	 
0.0007874 	2.0881e-08 	0.92 	0.04 	0.04 	0.029156 	-1.18389e-08 	
0 	0 	0 	0 	0 	29.235 	0.542976 	
0 	0 	0 	0 	0.35 	8.53017 	0.195857 	4.37444e-05 	
0.00379119 	0.000947796 	0 	0.0 	 0.0 	 0.0 	 0.0 	 0.0 	 0.0 	 
ZONE T = "t = 5.5e-08 [s]" I = 10 SOLUTIONTIME = 5.5000000000000E-08
0 	1.16043e-09 	0.92 	0.04 	0.04 	0.0291531 	0 	
-0.0291573 	-0.0409067 	0.0117495 	1.67051 	8.65682e-09 	0.835556 	29.2456 	
1.84841e-10 	91448.4 	916.789 	1145.99 	0.35 	8.53017 	0.195906 	4.37444e-05 	
0.00379119 	0.000947796 	2.31376e-11 	0.00154251 	0.000300774 	0.00124174 	0 	0 	0 	
8.74889e-05 	3.48129e-09 	0.92 	0.04 	0.04 	0.0291531 	-3.82394e-09 	
-0.0291572 	-0.0409067 	0.0117495 	3.34103 	2.59705e-08 	3.34223 	26.7389 	
3.69682e-10 	182897 	1833.58 	2291.97 	0.35 	17.0603 	0.195906 	8.74889e-05 	
0.00758237 	0.00189559 	3.91218e-11 	0.00260812 	0.00150387 	0.00110425 	0 	0 	0 	
0.000174978 	5.80217e-09 	0.92 	0.04 	0.04 	0.029153 	-7.19802e-09 	
-0.0291572 	-0.0409067 	0.0117495 	3.34104 	4.32842e-08 	6.68446 	23.3966 	
3.69684e-10 	182897 	1833.58 	2291.97 	0.35 	17.0603 	0.195907 	8.74889e-05 	
0.00758237 	0.00189559 	8.93945e-11 	0.00595964 	0.00511318 	0.000846455 	0 	0 	0 	
0.000262467 	8.12306e-09 	0.92 	0.04 	0.04 	0.029153 	-1.01222e-08 	
-0.0291571 	-0.0409067 	0.0117496 	3.34106 	6.05981e-08 	10.0267 	20.0544 	
3.69687e-10 	182897 	1833.58 	2291.97 	0.35 	17.0603 	0.195908 	8.74889e-05 	
0.00758237 	0.00189559 	1.76277e-10 	0.0117518 	0.0111287 	0.000623033 	0 	0 	0 	
0.000349956 	1.0444e-08 	0.92 	0.04 	0.04 	0.0291529 	-1.25966e-08 	
-0.029157 	-0.0409067 	0.0117497 	3.3411 	7.79121e-08 	13.369 	16.7121 	
3.69691e-10 	182897 	1833.58 	2291.97 	0.35 	17.0603 	0.19591 	8.74889e-05 	
0.00758237 	0.00189559 	2.99769e-10 	0.0199846 	0.0195506 	0.000433981 	0 	0 	0 	
0.000437444 	1.27649e-08 	0.92 	0.04 	0.04 	0.0291527 	-1.46211e-08 	
-0.0291569 	-0.0409067 	0.0117498 	3.34114 	9.52263e-08 	16.7113 	13.3698 	
3.69696e-10 	182897 	1833.58 	2291.97 	0.35 	17.0603 	0.195913 	8.74889e-05 	
0.00758237 	0.00189559 	4.59873e-10 	0.0306582 	0.0303789 	0.000279299 	0 	0 	0 	
0.000524933 	1.50859e-08 	0.92 	0.04 	0.04 	0.0291525 	-1.61957e-08 	
-0.0291567 	-0.0409067 	0.01175 	3.34119 	1.12541e-07 	20.0537 	10.0274 	
3.69702e-10 	182897 	1833.58 	2291.97 	0.35 	17.0603 	0.195916 	8.74889e-05 	
0.00758237 	0.00189559 	6.5659e-10 	0.0437726 	0.0436137 	0.000158988 	0 	0 	0 	
0.000612422 	1.74064e-08 	0.92 	0.04 	0.04 	0.0291523 	-1.73204e-08 	
-0.0291565 	-0.0409067 	0.0117502 	3.34124 	1.29856e-07 	23.3961 	6.68503 	
3.69709e-10 	182897 	1833.58 	2291.97 	0.35 	17.0603 	0.195919 	8.74889e-05 	
0.00758237 	0.00189559 	8.89922e-10 	0.0593282 	0.0592551 	7.30501e-05 	0 	0 	0 	
0.000699911 	1.9727e-08 	0.92 	0.04 	0.04 	0.0291521 	-1.79953e-08 	
-0.0291563 	-0.0409067 	0.0117505 	3.34131 	1.47171e-07 	26.7386 	3.34255 	
3.69718e-10 	182897 	1833.58 	2291.97 	0.35 	17.0603 	0.195923 	8.74889e-05 	
0.00758237 	0.00189559 	1.15987e-09 	0.0773249 	0.0773034 	2.14858e-05 	0 	0 	0 	
0.0007874 	2.08884e-08 	0.92 	0.04 	0.04 	0.0291518 	-1.82202e-08 	
-0.029156 	-0.0409067 	0.0117507 	1.6707 	1.47171e-07 	29.2455 	0.835647 	
1.84864e-10 	91448.4 	916.789 	1145.99 	0.35 	8.53017 	0.195928 	4.37444e-05 	
0.00379119 	0.000947796 	1.304e-09 	0.0869336 	0.0869293 	4.29727e-06 	0 	0 	0 	
ZONE T = "t = 7.75e-08 [s]" I = 10 SOLUTIONTIME = 7.7500000000000E-08
0 	1.16067e-09 	0.92 	0.04 	0.04 	0.0291531 	0 	
-0.0291531 	-0.0409067 	0.0117536 	1.67111 	8.65993e-09 	0.835556 	29.2456 	
2.47666e-10 	91448.4 	916.789 	1145.99 	0.35 	8.53017 	0.195906 	4.37444e-05 	
0.00379119 	0.000947796 	5.78441e-11 	0.00154251 	0.00050129 	0.00206956 	0 	0 	0 	
8.74889e-05 	3.48234e-09 	0.92 	0.04 	0.04 	0.0291531 	-3.82394e-09 	
-0.0291531 	-0.0409067 	0.0117536 	3.34223 	2.59798e-08 	3.34223 	26.7389 	
4.95332e-10 	182897 	1833.58 	2291.97 	0.35 	17.0603 	0.195906 	8.74889e-05 	
0.00758237 	0.00189559 	9.78045e-11 	0.00260812 	0.00250645 	0.00184041 	0 	0 	0 	
0.000174978 	5.80322e-09 	0.92 	0.04 	0.04 	0.029153 	-7.19802e-09 	
-0.029153 	-0.0409067 	0.0117537 	3.34224 	4.32998e-08 	6.68446 	23.3966 	
4.95334e-10 	182897 	1833.58 	2291.97 	0.35 	17.0603 	0.195907 	8.74889e-05 	
0.00758237 	0.00189559 	2.23486e-10 	0.00595964 	0.00852197 	0.00141076 	0 	0 	0 	
0.000262467 	8.1241e-09 	0.92 	0.04 	0.04 	0.029153 	-1.01222e-08 	
-0.029153 	-0.0409067 	0.0117537 	3.34226 	6.06198e-08 	10.0267 	20.0544 	
4.95337e-10 	182897 	1833.58 	2291.97 	0.35 	17.0603 	0.195908 	8.74889e-05 	
0.00758237 	0.00189559 	4.40691e-10 	0.0117518 	0.0185479 	0.00103839 	0 	0 	0 	
0.000349956 	1.04453e-08 	0.92 	0.04 	0.04 	0.0291529 	-1.25966e-08 	
-0.0291529 	-0.0409067 	0.0117538 	3.34229 	7.794e-08 	13.369 	16.7121 	
4.95343e-10 	182897 	1833.58 	2291.97 	0.35 	17.0603 	0.19591 	8.74889e-05 	
0.00758237 	0.00189559 	7.49422e-10 	0.0199846 	0.0325843 	0.000723302 	0 	0 	0 	
0.000437444 	1.27663e-08 	0.92 	0.04 	0.04 	0.0291527 	-1.46211e-08 	
-0.0291527 	-0.0409067 	0.011754 	3.34234 	9.52605e-08 	16.7113 	13.3698 	
4.95349e-10 	182897 	1833.58 	2291.97 	0.35 	17.0603 	0.195913 	8.74889e-05 	
0.00758237 	0.00189559 	1.14968e-09 	0.0306582 	0.0506315 	0.000465499 	0 	0 	0 	
0.000524933 	1.50872e-08 	0.92 	0.04 	0.04 	0.0291525 	-1.61957e-08 	
-0.0291526 	-0.0409067 	0.0117542 	3.34238 	1.12581e-07 	20.0537 	10.0274 	
4.95357e-10 	182897 	1833.58 	2291.97 	0.35 	17.0603 	0.195916 	8.74889e-05 	
0.00758237 	0.00189559 	1.64147e-09 	0.0437726 	0.0726894 	0.000264981 	0 	0 	0 	
0.000612422 	1.74087e-08 	0.92 	0.04 	0.04 	0.0291523 	-1.73204e-08 	
-0.0291523 	-0.0409067 	0.0117544 	3.34244 	1.29902e-07 	23.3961 	6.68503 	
4.95367e-10 	182897 	1833.58 	2291.97 	0.35 	17.0603 	0.195919 	8.74889e-05 	
0.00758237 	0.00189559 	2.22481e-09 	0.0593282 	0.0987585 	0.00012175 	0 	0 	0 	
0.000699911 	1.97303e-08 	0.92 	0.04 	0.04 	0.0291521 	-1.79953e-08 	
-0.0291521 	-0.0409067 	0.0117546 	3.34251 	1.47224e-07 	26.7386 	3.34255 	
4.95378e-10 	182897 	1833.58 	2291.97 	0.35 	17.0603 	0.195923 	8.74889e-05 	
0.00758237 	0.00189559 	2.89968e-09 	0.0773249 	0.128839 	3.58096e-05 	0 	0 	0 	
0.0007874 	2.08903e-08 	0.92 	0.04 	0.04 	0.0291518 	-1.82202e-08 	
-0.0291518 	-0.0409067 	0.0117549 	1.67129 	1.47224e-07 	29.2455 	0.835647 	
2.47695e-10 	91448.4 	916.789 	1145.99 	0.35 	8.53017 	0.195928 	4.37444e-05 	
0.00379119 	0.000947796 	3.26001e-09 	0.0869336 	0.144882 	7.16212e-06 	0 	0 	0 	
ZONE T = "t = 1.1125e-07 [s]" I = 10 SOLUTIONTIME = 1.1125000000000E-07
0 	1.16027e-09 	0.92 	0.04 	0.04 	0.0291531 	0 	
-0.0291531 	-0.0409067 	0.0117536 	1.67111 	8.65993e-09 	0.835556 	29.2456 	
3.41903e-10 	91448.4 	916.789 	1145.99 	0.35 	8.53017 	0.195906 	4.37444e-05 	
0.00379119 	0.000947796 	1.09904e-10 	0.00154251 	0.000634968 	0.00262144 	0 	0 	0 	
8.74889e-05 	3.4806e-09 	0.92 	0.04 	0.04 	0.0291531 	-3.82394e-09 	
-0.0291531 	-0.0409067 	0.0117536 	3.34223 	2.59798e-08 	3.34223 	26.7389 	
6.83806e-10 	182897 	1833.58 	2291.97 	0.35 	17.0603 	0.195906 	8.74889e-05 	
0.00758237 	0.00189559 	1.85829e-10 	0.00260812 	0.00317484 	0.00233119 	0 	0 	0 	
0.000174978 	5.80115e-09 	0.92 	0.04 	0.04 	0.029153 	-7.19802e-09 	
-0.029153 	-0.0409067 	0.0117537 	3.34224 	4.32998e-08 	6.68446 	23.3966 	
6.83809e-10 	182897 	1833.58 	2291.97 	0.35 	17.0603 	0.195907 	8.74889e-05 	
0.00758237 	0.00189559 	4.24624e-10 	0.00595964 	0.0107945 	0.00178696 	0 	0 	0 	
0.000262467 	8.12203e-09 	0.92 	0.04 	0.04 	0.029153 	-1.01222e-08 	
-0.029153 	-0.0409067 	0.0117537 	3.34226 	6.06198e-08 	10.0267 	20.0544 	
6.83814e-10 	182897 	1833.58 	2291.97 	0.35 	17.0603 	0.195908 	8.74889e-05 	
0.00758237 	0.00189559 	8.37314e-10 	0.0117518 	0.023494 	0.00131529 	0 	0 	0 	
0.000349956 	1.04429e-08 	0.92 	0.04 	0.04 	0.0291529 	-1.25966e-08 	
-0.0291529 	-0.0409067 	0.0117538 	3.34229 	7.794e-08 	13.369 	16.7121 	
6.8382e-10 	182897 	1833.58 	2291.97 	0.35 	17.0603 	0.19591 	8.74889e-05 	
0.00758237 	0.00189559 	1.4239e-09 	0.0199846 	0.0412735 	0.000916182 	0 	0 	0 	
0.000437444 	1.27639e-08 	0.92 	0.04 	0.04 	0.0291527 	-1.46211e-08 	
-0.0291527 	-0.0409067 	0.011754 	3.34234 	9.52605e-08 	16.7113 	13.3698 	
6.83829e-10 	182897 	1833.58 	2291.97 	0.35 	17.0603 	0.195913 	8.74889e-05 	
0.00758237 	0.00189559 	2.18439e-09 	0.0306582 	0.0641332 	0.000589631 	0 	0 	0 	
0.000524933 	1.50849e-08 	0.92 	0.04 	0.04 	0.0291525 	-1.61957e-08 	
-0.0291526 	-0.0409067 	0.0117542 	3.34238 	1.12581e-07 	20.0537 	10.0274 	
6.8384e-10 	182897 	1833.58 	2291.97 	0.35 	17.0603 	0.195916 	8.74889e-05 	
0.00758237 	0.00189559 	3.1188e-09 	0.0437726 	0.0920733 	0.000335642 	0 	0 	0 	
0.000612422 	1.74058e-08 	0.92 	0.04 	0.04 	0.0291523 	-1.73204e-08 	
-0.0291523 	-0.0409067 	0.0117544 	3.34244 	1.29902e-07 	23.3961 	6.68503 	
6.83853e-10 	182897 	1833.58 	2291.97 	0.35 	17.0603 	0.195919 	8.74889e-05 	
0.00758237 	0.00189559 	4.22713e-09 	0.0593282 	0.125094 	0.000154217 	0 	0 	0 	
0.000699911 	1.97267e-08 	0.92 	0.04 	0.04 	0.0291521 	-1.79953e-08 	
-0.0291521 	-0.0409067 	0.0117546 	3.34251 	1.47224e-07 	26.7386 	3.34255 	
6.83868e-10 	182897 	1833.58 	2291.97 	0.35 	17.0603 	0.195923 	8.74889e-05 	
0.00758237 	0.00189559 	5.5094e-09 	0.0773249 	0.163196 	4.53588e-05 	0 	0 	0 	
0.0007874 	2.08875e-08 	0.92 	0.04 	0.04 	0.0291518 	-1.82202e-08 	
-0.0291518 	-0.0409067 	0.0117549 	1.67129 	1.47224e-07 	29.2455 	0.835647 	
3.41942e-10 	91448.4 	916.789 	1145.99 	0.35 	8.53017 	0.195928 	4.37444e-05 	
0.00379119 	0.000947796 	6.19402e-09 	0.0869336 	0.183517 	9.07202e-06 	0 	0 	0 	
ZONE T = "t = 1.61875e-07 [s]" I = 10 SOLUTIONTIME = 1.6187500000000E-07
0 	1.16043e-09 	0.92 	0.04 	0.04 	0.0291531 	0 	
-0.0291531 	-0.0409067 	0.0117536 	1.67111 	8.65993e-09 	0.835556 	29.2456 	
4.83258e-10 	91448.4 	916.789 	1145.99 	0.35 	8.53017 	0.195906 	4.37444e-05 	
0.00379119 	0.000947796 	1.87993e-10 	0.00154251 	0.000724086 	0.00298936 	0 	0 	0 	
8.74889e-05 	3.48129e-09 	0.92 	0.04 	0.04 	0.0291531 	-3.82394e-09 	
-0.0291531 	-0.0409067 	0.0117536 	3.34223 	2.59798e-08 	3.34223 	26.7389 	
9.66517e-10 	182897 	1833.58 	2291.97 	0.35 	17.0603 	0.195906 	8.74889e-05 	
0.00758237 	0.00189559 	3.17865e-10 	0.00260812 	0.00362043 	0.00265837 	0 	0 	0 	
0.000174978 	5.80217e-09 	0.92 	0.04 	0.04 	0.029153 	-7.19802e-09 	
-0.029153 	-0.0409067 	0.0117537 	3.34224 	4.32998e-08 	6.68446 	23.3966 	
9.66521e-10 	182897 	1833.58 	2291.97 	0.35 	17.0603 	0.195907 	8.74889e-05 	
0.00758237 	0.00189559 	7.26331e-10 	0.00595964 	0.0123095 	0.00203776 	0 	0 	0 	
0.000262467 	8.12306e-09 	0.92 	0.04 	0.04 	0.029153 	-1.01222e-08 	
-0.029153 	-0.0409067 	0.0117537 	3.34226 	6.06198e-08 	10.0267 	20.0544 	
9.66528e-10 	182897 	1833.58 	2291.97 	0.35 	17.0603 	0.195908 	8.74889e-05 	
0.00758237 	0.00189559 	1.43225e-09 	0.0117518 	0.0267914 	0.00149989 	0 	0 	0 	
0.000349956 	1.0444e-08 	0.92 	0.04 	0.04 	0.0291529 	-1.25966e-08 	
-0.0291529 	-0.0409067 	0.0117538 	3.34229 	7.794e-08 	13.369 	16.7121 	
9.66537e-10 	182897 	1833.58 	2291.97 	0.35 	17.0603 	0.19591 	8.74889e-05 	
0.00758237 	0.00189559 	2.43562e-09 	0.0199846 	0.0470663 	0.00104477 	0 	0 	0 	
0.000437444 	1.27649e-08 	0.92 	0.04 	0.04 	0.0291527 	-1.46211e-08 	
-0.0291527 	-0.0409067 	0.011754 	3.34234 	9.52605e-08 	16.7113 	13.3698 	
9.66549e-10 	182897 	1833.58 	2291.97 	0.35 	17.0603 	0.195913 	8.74889e-05 	
0.00758237 	0.00189559 	3.73646e-09 	0.0306582 	0.0731343 	0.000672387 	0 	0 	0 	
0.000524933 	1.50859e-08 	0.92 	0.04 	0.04 	0.0291525 	-1.61957e-08 	
-0.0291526 	-0.0409067 	0.0117542 	3.34238 	1.12581e-07 	20.0537 	10.0274 	
9.66565e-10 	182897 	1833.58 	2291.97 	0.35 	17.0603 	0.195916 	8.74889e-05 	
0.00758237 	0.00189559 	5.33479e-09 	0.0437726 	0.104996 	0.00038275 	0 	0 	0 	
0.000612422 	1.74069e-08 	0.92 	0.04 	0.04 	0.0291523 	-1.73204e-08 	
-0.0291523 	-0.0409067 	0.0117544 	3.34244 	1.29902e-07 	23.3961 	6.68503 	
9.66582e-10 	182897 	1833.58 	2291.97 	0.35 	17.0603 	0.195919 	8.74889e-05 	
0.00758237 	0.00189559 	7.23062e-09 	0.0593282 	0.142651 	0.000175861 	0 	0 	0 	
0.000699911 	1.9728e-08 	0.92 	0.04 	0.04 	0.0291521 	-1.79953e-08 	
-0.0291521 	-0.0409067 	0.0117546 	3.34251 	1.47224e-07 	26.7386 	3.34255 	
9.66603e-10 	182897 	1833.58 	2291.97 	0.35 	17.0603 	0.195923 	8.74889e-05 	
0.00758237 	0.00189559 	9.42397e-09 	0.0773249 	0.186101 	5.1725e-05 	0 	0 	0 	
0.0007874 	2.08886e-08 	0.92 	0.04 	0.04 	0.0291518 	-1.82202e-08 	
-0.0291518 	-0.0409067 	0.0117549 	1.67129 	1.47224e-07 	29.2455 	0.835647 	
4.83313e-10 	91448.4 	916.789 	1145.99 	0.35 	8.53017 	0.195928 	4.37444e-05 	
0.00379119 	0.000947796 	1.0595e-08 	0.0869336 	0.209274 	1.03453e-05 	0 	0 	0 	
ZONE T = "t = 2.37812e-07 [s]" I = 10 SOLUTIONTIME = 2.3781250000000E-07
0 	1.16043e-09 	0.92 	0.04 	0.04 	0.0291531 	0 	
-0.0291531 	-0.0409067 	0.0117536 	1.67111 	8.65993e-09 	0.835556 	29.2456 	
6.95291e-10 	91448.4 	916.789 	1145.99 	0.35 	8.53017 	0.195906 	4.37444e-05 	
0.00379119 	0.000947796 	3.05128e-10 	0.00154251 	0.000783498 	0.00323464 	0 	0 	0 	
8.74889e-05 	3.48129e-09 	0.92 	0.04 	0.04 	0.0291531 	-3.82394e-09 	
-0.0291531 	-0.0409067 	0.0117536 	3.34223 	2.59798e-08 	3.34223 	26.7389 	
1.39058e-09 	182897 	1833.58 	2291.97 	0.35 	17.0603 	0.195906 	8.74889e-05 	
0.00758237 	0.00189559 	5.15919e-10 	0.00260812 	0.0039175 	0.0028765 	0 	0 	0 	
0.000174978 	5.80217e-09 	0.92 	0.04 	0.04 	0.029153 	-7.19802e-09 	
-0.029153 	-0.0409067 	0.0117537 	3.34224 	4.32998e-08 	6.68446 	23.3966 	
1.39059e-09 	182897 	1833.58 	2291.97 	0.35 	17.0603 	0.195907 	8.74889e-05 	
0.00758237 	0.00189559 	1.17889e-09 	0.00595964 	0.0133195 	0.00220496 	0 	0 	0 	
0.000262467 	8.12306e-09 	0.92 	0.04 	0.04 	0.029153 	-1.01222e-08 	
-0.029153 	-0.0409067 	0.0117537 	3.34226 	6.06198e-08 	10.0267 	20.0544 	
1.3906e-09 	182897 	1833.58 	2291.97 	0.35 	17.0603 	0.195908 	8.74889e-05 	
0.00758237 	0.00189559 	2.32465e-09 	0.0117518 	0.0289897 	0.00162296 	0 	0 	0 	
0.000349956 	1.0444e-08 	0.92 	0.04 	0.04 	0.0291529 	-1.25966e-08 	
-0.0291529 	-0.0409067 	0.0117538 	3.34229 	7.794e-08 	13.369 	16.7121 	
1.39061e-09 	182897 	1833.58 	2291.97 	0.35 	17.0603 	0.19591 	8.74889e-05 	
0.00758237 	0.00189559 	3.9532e-09 	0.0199846 	0.0509281 	0.00113049 	0 	0 	0 	
0.000437444 	1.2765e-08 	0.92 	0.04 	0.04 	0.0291527 	-1.46211e-08 	
-0.0291527 	-0.0409067 	0.011754 	3.34234 	9.52605e-08 	16.7113 	13.3698 	
1.39063e-09 	182897 	1833.58 	2291.97 	0.35 	17.0603 	0.195913 	8.74889e-05 	
0.00758237 	0.00189559 	6.06457e-09 	0.0306582 	0.0791351 	0.000727557 	0 	0 	0 	
0.000524933 	1.50859e-08 	0.92 	0.04 	0.04 	0.0291525 	-1.61957e-08 	
-0.0291526 	-0.0409067 	0.0117542 	3.34238 	1.12581e-07 	20.0537 	10.0274 	
1.39065e-09 	182897 	1833.58 	2291.97 	0.35 	17.0603 	0.195916 	8.74889e-05 	
0.00758237 	0.00189559 	8.65878e-09 	0.0437726 	0.113611 	0.000414155 	0 	0 	0 	
0.000612422 	1.74069e-08 	0.92 	0.04 	0.04 	0.0291523 	-1.73204e-08 	
-0.0291523 	-0.0409067 	0.0117544 	3.34244 	1.29902e-07 	23.3961 	6.68503 	
1.39068e-09 	182897 	1833.58 	2291.97 	0.35 	17.0603 	0.195919 	8.74889e-05 	
0.00758237 	0.00189559 	1.17359e-08 	0.0593282 	0.154356 	0.000190291 	0 	0 	0 	
0.000699911 	1.97279e-08 	0.92 	0.04 	0.04 	0.0291521 	-1.79953e-08 	
-0.0291521 	-0.0409067 	0.0117546 	3.34251 	1.47225e-07 	26.7386 	3.34255 	
1.39071e-09 	182897 	1833.58 	2291.97 	0.35 	17.0603 	0.195923 	8.74889e-05 	
0.00758237 	0.00189559 	1.52958e-08 	0.0773249 	0.201371 	5.59691e-05 	0 	0 	0 	
0.0007874 	2.08885e-08 	0.92 	0.04 	0.04 	0.0291518 	-1.82202e-08 	
-0.0291518 	-0.0409067 	0.0117549 	1.67129 	1.47225e-07 	29.2455 	0.835647 	
6.9537e-10 	91448.4 	916.789 	1145.99 	0.35 	8.53017 	0.195928 	4.37444e-05 	
0.00379119 	0.000947796 	1.71965e-08 	0.0869336 	0.226445 	1.11941e-05 	0 	0 	0 	
ZONE T = "t = 3.51719e-07 [s]" I = 10 SOLUTIONTIME = 3.5171875000000E-07
0 	1.16043e-09 	0.92 	0.04 	0.04 	0.0291531 	0 	
-0.0291531 	-0.0409067 	0.0117536 	1.67111 	8.65993e-09 	0.835556 	29.2456 	
1.01334e-09 	91448.4 	916.789 	1145.99 	0.35 	8.53017 	0.195906 	4.37444e-05 	
0.00379119 	0.000947796 	4.80829e-10 	0.00154251 	0.000823106 	0.00339817 	0 	0 	0 	
8.74889e-05 	3.48129e-09 	0.92 	0.04 	0.04 	0.0291531 	-3.82394e-09 	
-0.0291531 	-0.0409067 	0.0117536 	3.34223 	2.59798e-08 	3.34223 	26.7389 	
2.02668e-09 	182897 	1833.58 	2291.97 	0.35 	17.0603 	0.195906 	8.74889e-05 	
0.00758237 	0.00189559 	8.13e-10 	0.00260812 	0.00411554 	0.00302191 	0 	0 	0 	
0.000174978 	5.80223e-09 	0.92 	0.04 	0.04 	0.029153 	-7.19802e-09 	
-0.029153 	-0.0409067 	0.0117537 	3.34224 	4.32998e-08 	6.68446 	23.3966 	
2.02669e-09 	182897 	1833.58 	2291.97 	0.35 	17.0603 	0.195907 	8.74889e-05 	
0.00758237 	0.00189559 	1.85773e-09 	0.00595964 	0.0139929 	0.00231643 	0 	0 	0 	
0.000262467 	8.12318e-09 	0.92 	0.04 	0.04 	0.029153 	-1.01222e-08 	
-0.029153 	-0.0409067 	0.0117537 	3.34226 	6.06198e-08 	10.0267 	20.0544 	
2.02671e-09 	182897 	1833.58 	2291.97 	0.35 	17.0603 	0.195908 	8.74889e-05 	
0.00758237 	0.00189559 	3.66325e-09 	0.0117518 	0.0304552 	0.00170501 	0 	0 	0 	
0.000349956 	1.04441e-08 	0.92 	0.04 	0.04 	0.0291529 	-1.25966e-08 	
-0.0291529 	-0.0409067 	0.0117538 	3.34229 	7.794e-08 	13.369 	16.7121 	
2.02673e-09 	182897 	1833.58 	2291.97 	0.35 	17.0603 	0.19591 	8.74889e-05 	
0.00758237 	0.00189559 	6.22957e-09 	0.0199846 	0.0535027 	0.00118764 	0 	0 	0 	
0.000437444 	1.27649e-08 	0.92 	0.04 	0.04 	0.0291527 	-1.46211e-08 	
-0.0291527 	-0.0409067 	0.011754 	3.34234 	9.52605e-08 	16.7113 	13.3698 	
2.02675e-09 	182897 	1833.58 	2291.97 	0.35 	17.0603 	0.195913 	8.74889e-05 	
0.00758237 	0.00189559 	9.55673e-09 	0.0306582 	0.0831356 	0.000764337 	0 	0 	0 	
0.000524933 	1.50859e-08 	0.92 	0.04 	0.04 	0.0291525 	-1.61957e-08 	
-0.0291526 	-0.0409067 	0.0117542 	3.34238 	1.12581e-07 	20.0537 	10.0274 	
2.02678e-09 	182897 	1833.58 	2291.97 	0.35 	17.0603 	0.195916 	8.74889e-05 	
0.00758237 	0.00189559 	1.36448e-08 	0.0437726 	0.119354 	0.000435092 	0 	0 	0 	
0.000612422 	1.74069e-08 	0.92 	0.04 	0.04 	0.0291523 	-1.73204e-08 	
-0.0291523 	-0.0409067 	0.0117544 	3.34244 	1.29902e-07 	23.3961 	6.68503 	
2.02682e-09 	182897 	1833.58 	2291.97 	0.35 	17.0603 	0.195919 	8.74889e-05 	
0.00758237 	0.00189559 	1.84937e-08 	0.0593282 	0.162159 	0.000199911 	0 	0 	0 	
0.000699911 	1.9728e-08 	0.92 	0.04 	0.04 	0.0291521 	-1.79953e-08 	
-0.0291521 	-0.0409067 	0.0117546 	3.34251 	1.47225e-07 	26.7386 	3.34255 	
2.02686e-09 	182897 	1833.58 	2291.97 	0.35 	17.0603 	0.195923 	8.74889e-05 	
0.00758237 	0.00189559 	2.41036e-08 	0.0773249 	0.21155 	5.87985e-05 	0 	0 	0 	
0.0007874 	2.08885e-08 	0.92 	0.04 	0.04 	0.0291518 	-1.82202e-08 	
-0.0291518 	-0.0409067 	0.0117549 	1.67129 	1.47225e-07 	29.2455 	0.835647 	
1.01345e-09 	91448.4 	916.789 	1145.99 	0.35 	8.53017 	0.195928 	4.37444e-05 	
0.00379119 	0.000947796 	2.70988e-08 	0.0869336 	0.237893 	1.176e-05 	0 	0 	0 	
ZONE T = "t = 5.22578e-07 [s]" I = 10 SOLUTIONTIME = 5.2257812500000E-07
0 	1.16043e-09 	0.92 	0.04 	0.04 	0.0291531 	0 	
-0.0291531 	-0.0409067 	0.0117536 	1.67111 	8.65993e-09 	0.835556 	29.2456 	
1.49042e-09 	91448.4 	916.789 	1145.99 	0.35 	8.53017 	0.195906 	4.37444e-05 	
0.00379119 	0.000947796 	7.44381e-10 	0.00154251 	0.000849512 	0.00350718 	0 	0 	0 	
8.74889e-05 	3.48125e-09 	0.92 	0.04 	0.04 	0.0291531 	-3.82394e-09 	
-0.0291531 	-0.0409067 	0.0117536 	3.34223 	2.59798e-08 	3.34223 	26.7389 	
2.98083e-09 	182897 	1833.58 	2291.97 	0.35 	17.0603 	0.195906 	8.74889e-05 	
0.00758237 	0.00189559 	1.25862e-09 	0.00260812 	0.00424756 	0.00311885 	0 	0 	0 	
0.000174978 	5.80206e-09 	0.92 	0.04 	0.04 	0.029153 	-7.19802e-09 	
-0.029153 	-0.0409067 	0.0117537 	3.34224 	4.32998e-08 	6.68446 	23.3966 	
2.98085e-09 	182897 	1833.58 	2291.97 	0.35 	17.0603 	0.195907 	8.74889e-05 	
0.00758237 	0.00189559 	2.87599e-09 	0.00595964 	0.0144418 	0.00239074 	0 	0 	0 	
0.000262467 	8.12291e-09 	0.92 	0.04 	0.04 	0.029153 	-1.01222e-08 	
-0.029153 	-0.0409067 	0.0117537 	3.34226 	6.06198e-08 	10.0267 	20.0544 	
2.98087e-09 	182897 	1833.58 	2291.97 	0.35 	17.0603 	0.195908 	8.74889e-05 	
0.00758237 	0.00189559 	5.67115e-09 	0.0117518 	0.0314322 	0.00175971 	0 	0 	0 	
0.000349956 	1.04438e-08 	0.92 	0.04 	0.04 	0.0291529 	-1.25966e-08 	
-0.0291529 	-0.0409067 	0.0117538 	3.34229 	7.794e-08 	13.369 	16.7121 	
2.98089e-09 	182897 	1833.58 	2291.97 	0.35 	17.0603 	0.19591 	8.74889e-05 	
0.00758237 	0.00189559 	9.64412e-09 	0.0199846 	0.0552191 	0.00122574 	0 	0 	0 	
0.000437444 	1.27648e-08 	0.92 	0.04 	0.04 	0.0291527 	-1.46211e-08 	
-0.0291527 	-0.0409067 	0.011754 	3.34234 	9.52605e-08 	16.7113 	13.3698 	
2.98093e-09 	182897 	1833.58 	2291.97 	0.35 	17.0603 	0.195913 	8.74889e-05 	
0.00758237 	0.00189559 	1.4795e-08 	0.0306582 	0.0858026 	0.000788857 	0 	0 	0 	
0.000524933 	1.50857e-08 	0.92 	0.04 	0.04 	0.0291525 	-1.61957e-08 	
-0.0291526 	-0.0409067 	0.0117542 	3.34238 	1.12581e-07 	20.0537 	10.0274 	
2.98098e-09 	182897 	1833.58 	2291.97 	0.35 	17.0603 	0.195916 	8.74889e-05 	
0.00758237 	0.00189559 	2.11237e-08 	0.0437726 	0.123183 	0.00044905 	0 	0 	0 	
0.000612422 	1.74067e-08 	0.92 	0.04 	0.04 	0.0291523 	-1.73204e-08 	
-0.0291523 	-0.0409067 	0.0117544 	3.34244 	1.29902e-07 	23.3961 	6.68503 	
2.98103e-09 	182897 	1833.58 	2291.97 	0.35 	17.0603 	0.195919 	8.74889e-05 	
0.00758237 	0.00189559 	2.86305e-08 	0.0593282 	0.167361 	0.000206324 	0 	0 	0 	
0.000699911 	1.97278e-08 	0.92 	0.04 	0.04 	0.0291521 	-1.79953e-08 	
-0.0291521 	-0.0409067 	0.0117546 	3.34251 	1.47226e-07 	26.7386 	3.34255 	
2.98109e-09 	182897 	1833.58 	2291.97 	0.35 	17.0603 	0.195923 	8.74889e-05 	
0.00758237 	0.00189559 	3.73153e-08 	0.0773249 	0.218337 	6.06847e-05 	0 	0 	0 	
0.0007874 	2.08883e-08 	0.92 	0.04 	0.04 	0.0291518 	-1.82202e-08 	
-0.0291518 	-0.0409067 	0.0117549 	1.67129 	1.47226e-07 	29.2455 	0.835647 	
1.49058e-09 	91448.4 	916.789 	1145.99 	0.35 	8.53017 	0.195928 	4.37444e-05 	
0.00379119 	0.000947796 	4.19522e-08 	0.0869336 	0.245524 	1.21373e-05 	0 	0 	0 	
ZONE T = "t = 7.78867e-07 [s]" I = 10 SOLUTIONTIME = 7.7886718750000E-07
0 	1.16045e-09 	0.92 	0.04 	0.04 	0.0291531 	0 	
-0.0291531 	-0.0409067 	0.0117536 	1.67111 	8.65993e-09 	0.835556 	29.2456 	
2.20603e-09 	91448.4 	916.789 	1145.99 	0.35 	8.53017 	0.195906 	4.37444e-05 	
0.00379119 	0.000947796 	1.13971e-09 	0.00154251 	0.000867115 	0.00357985 	0 	0 	0 	
8.74889e-05 	3.48139e-09 	0.92 	0.04 	0.04 	0.0291531 	-3.82394e-09 	
-0.0291531 	-0.0409067 	0.0117536 	3.34223 	2.59798e-08 	3.34223 	26.7389 	
4.41206e-09 	182897 	1833.58 	2291.97 	0.35 	17.0603 	0.195906 	8.74889e-05 	
0.00758237 	0.00189559 	1.92705e-09 	0.00260812 	0.00433558 	0.00318348 	0 	0 	0 	
0.000174978 	5.80227e-09 	0.92 	0.04 	0.04 	0.029153 	-7.19802e-09 	
-0.029153 	-0.0409067 	0.0117537 	3.34224 	4.32998e-08 	6.68446 	23.3966 	
4.41208e-09 	182897 	1833.58 	2291.97 	0.35 	17.0603 	0.195907 	8.74889e-05 	
0.00758237 	0.00189559 	4.40338e-09 	0.00595964 	0.014741 	0.00244028 	0 	0 	0 	
0.000262467 	8.12316e-09 	0.92 	0.04 	0.04 	0.029153 	-1.01222e-08 	
-0.029153 	-0.0409067 	0.0117537 	3.34226 	6.06198e-08 	10.0267 	20.0544 	
4.41211e-09 	182897 	1833.58 	2291.97 	0.35 	17.0603 	0.195908 	8.74889e-05 	
0.00758237 	0.00189559 	8.683e-09 	0.0117518 	0.0320835 	0.00179617 	0 	0 	0 	
0.000349956 	1.0444e-08 	0.92 	0.04 	0.04 	0.0291529 	-1.25966e-08 	
-0.0291529 	-0.0409067 	0.0117538 	3.34229 	7.794e-08 	13.369 	16.7121 	
4.41215e-09 	182897 	1833.58 	2291.97 	0.35 	17.0603 	0.19591 	8.74889e-05 	
0.00758237 	0.00189559 	1.4766e-08 	0.0199846 	0.0563633 	0.00125114 	0 	0 	0 	
0.000437444 	1.2765e-08 	0.92 	0.04 	0.04 	0.0291527 	-1.46211e-08 	
-0.0291527 	-0.0409067 	0.011754 	3.34234 	9.52605e-08 	16.7113 	13.3698 	
4.4122e-09 	182897 	1833.58 	2291.97 	0.35 	17.0603 	0.195913 	8.74889e-05 	
0.00758237 	0.00189559 	2.26523e-08 	0.0306582 	0.0875806 	0.000805204 	0 	0 	0 	
0.000524933 	1.5086e-08 	0.92 	0.04 	0.04 	0.0291525 	-1.61957e-08 	
-0.0291526 	-0.0409067 	0.0117542 	3.34238 	1.12581e-07 	20.0537 	10.0274 	
4.41227e-09 	182897 	1833.58 	2291.97 	0.35 	17.0603 	0.195916 	8.74889e-05 	
0.00758237 	0.00189559 	3.23422e-08 	0.0437726 	0.125736 	0.000458355 	0 	0 	0 	
0.000612422 	1.7407e-08 	0.92 	0.04 	0.04 	0.0291523 	-1.73204e-08 	
-0.0291523 	-0.0409067 	0.0117544 	3.34244 	1.29902e-07 	23.3961 	6.68503 	
4.41235e-09 	182897 	1833.58 	2291.97 	0.35 	17.0603 	0.195919 	8.74889e-05 	
0.00758237 	0.00189559 	4.38356e-08 	0.0593282 	0.170829 	0.000210599 	0 	0 	0 	
0.000699911 	1.97281e-08 	0.92 	0.04 	0.04 	0.0291521 	-1.79953e-08 	
-0.0291521 	-0.0409067 	0.0117546 	3.34251 	1.47227e-07 	26.7386 	3.34255 	
4.41244e-09 	182897 	1833.58 	2291.97 	0.35 	17.0603 	0.195923 	8.74889e-05 	
0.00758237 	0.00189559 	5.71328e-08 	0.0773249 	0.222861 	6.19422e-05 	0 	0 	0 	
0.0007874 	2.08887e-08 	0.92 	0.04 	0.04 	0.0291518 	-1.82202e-08 	
-0.0291518 	-0.0409067 	0.0117549 	1.67129 	1.47227e-07 	29.2455 	0.835647 	
2.20627e-09 	91448.4 	916.789 	1145.99 	0.35 	8.53017 	0.195928 	4.37444e-05 	
0.00379119 	0.000947796 	6.42324e-08 	0.0869336 	0.250612 	1.23888e-05 	0 	0 	0 	
ZONE T = "t = 1.1633e-06 [s]" I = 10 SOLUTIONTIME = 1.1633007812500E-06
0 	1.16042e-09 	0.92 	0.04 	0.04 	0.0291531 	0 	
-0.0291531 	-0.0409067 	0.0117536 	1.67111 	8.65993e-09 	0.835556 	29.2456 	
3.27945e-09 	91448.4 	916.789 	1145.99 	0.35 	8.53017 	0.195906 	4.37444e-05 	
0.00379119 	0.000947796 	1.7327e-09 	0.00154251 	0.000878851 	0.00362831 	0 	0 	0 	
8.74889e-05 	3.48125e-09 	0.92 	0.04 	0.04 	0.0291531 	-3.82394e-09 	
-0.0291531 	-0.0409067 	0.0117536 	3.34223 	2.59798e-08 	3.34223 	26.7389 	
6.5589e-09 	182897 	1833.58 	2291.97 	0.35 	17.0603 	0.195906 	8.74889e-05 	
0.00758237 	0.00189559 	2.9297e-09 	0.00260812 	0.00439426 	0.00322657 	0 	0 	0 	
0.000174978 	5.80212e-09 	0.92 	0.04 	0.04 	0.029153 	-7.19802e-09 	
-0.029153 	-0.0409067 	0.0117537 	3.34224 	4.32998e-08 	6.68446 	23.3966 	
6.55892e-09 	182897 	1833.58 	2291.97 	0.35 	17.0603 	0.195907 	8.74889e-05 	
0.00758237 	0.00189559 	6.69446e-09 	0.00595964 	0.0149405 	0.00247331 	0 	0 	0 	
0.000262467 	8.12302e-09 	0.92 	0.04 	0.04 	0.029153 	-1.01222e-08 	
-0.029153 	-0.0409067 	0.0117537 	3.34226 	6.06198e-08 	10.0267 	20.0544 	
6.55897e-09 	182897 	1833.58 	2291.97 	0.35 	17.0603 	0.195908 	8.74889e-05 	
0.00758237 	0.00189559 	1.32008e-08 	0.0117518 	0.0325178 	0.00182048 	0 	0 	0 	
0.000349956 	1.0444e-08 	0.92 	0.04 	0.04 	0.0291529 	-1.25966e-08 	
-0.0291529 	-0.0409067 	0.0117538 	3.34229 	7.794e-08 	13.369 	16.7121 	
6.55903e-09 	182897 	1833.58 	2291.97 	0.35 	17.0603 	0.19591 	8.74889e-05 	
0.00758237 	0.00189559 	2.24487e-08 	0.0199846 	0.0571261 	0.00126808 	0 	0 	0 	
0.000437444 	1.27649e-08 	0.92 	0.04 	0.04 	0.0291527 	-1.46211e-08 	
-0.0291527 	-0.0409067 	0.011754 	3.34234 	9.52605e-08 	16.7113 	13.3698 	
6.55911e-09 	182897 	1833.58 	2291.97 	0.35 	17.0603 	0.195913 	8.74889e-05 	
0.00758237 	0.00189559 	3.44383e-08 	0.0306582 	0.0887659 	0.000816102 	0 	0 	0 	
0.000524933 	1.50859e-08 	0.92 	0.04 	0.04 	0.0291525 	-1.61957e-08 	
-0.0291526 	-0.0409067 	0.0117542 	3.34238 	1.12581e-07 	20.0537 	10.0274 	