TITLE = "Solution on Domain BulkDomain1D_2"
VARIABLES = "x [m]"  
"Vel_axial" 	"MF_sp(ECDMC)" 	"MF_sp(Li+)" 	"MF_sp(PF6-)" 	"Volt(Electroly)" 	"Volt(CathodeVo)" 	
"Potential Drop Electrode-Electrolyte [V]" 	"Surf_0 Equilibrium Potential Drop Electrode-Electrolyte [V]" 	"Overpotential_0 [V]" 	"Current Source [A/m^2]" 	"Li+ flux [kmol/m^2/s]" 	"Electrolyte Current [A/m^2]" 	"Electrode Current [A/m^2]" 	
"Capacity discharged [A-s]" 	"Depth of discharge [-]" 	"Capacity remaining [A-s]" 	"Initial capacity [A-s]" 	"Porosity []" 	"Surface Area [m2/m2] (area per area)" 	"Specific current (per particle area) [A/m^2]" 	"Control volume thickness [m]" 	
"Moles LiCoO2 [mol/m^2] (per electrode area)" 	"Moles CoO2 [mol/m^2] (per electrode area)" 	"qHeat_accum [J/m3]" 	"qHeat_step [W/m3]" 	"Joule_Lyte [W/m3]" 	"Joule_Solid [W/m3]" 	"electrodHeat [W/m3]" 	"OverpotHeat [W/m3]" 	"deltaSHeat [W/m3]" 	

ZONE T = "t = 4e-08 [s]" I = 10 SOLUTIONTIME = 4.0000000000000E-08
0.00127 	1.97216e-08 	0.92 	0.04 	0.04 	0.0291555 	3.80009 	
0 	0 	0 	0 	0 	29.1512 	0.43818 	
0 	0 	0 	0 	0.3493 	6.61111 	-0.252816 	3.38667e-05 	
0.000901926 	0.000601284 	0 	0.0 	 0.0 	 0.0 	 0.0 	 0.0 	 0.0 	 
0.00133773 	1.74028e-08 	0.92 	0.04 	0.04 	0.0291553 	3.80009 	
0 	0 	0 	0 	0 	26.6509 	1.75274 	
0 	0 	0 	0 	0.3493 	13.2222 	-0.25282 	6.77333e-05 	
0.00180385 	0.00120257 	0 	0.0 	 0.0 	 0.0 	 0.0 	 0.0 	 0.0 	 
0.00140547 	1.50839e-08 	0.92 	0.04 	0.04 	0.0291551 	3.80009 	
0 	0 	0 	0 	0 	23.3216 	3.50554 	
0 	0 	0 	0 	0.3493 	13.2222 	-0.252836 	6.77333e-05 	
0.00180385 	0.00120257 	0 	0.0 	 0.0 	 0.0 	 0.0 	 0.0 	 0.0 	 
0.0014732 	1.27647e-08 	0.92 	0.04 	0.04 	0.029155 	3.80008 	
0 	0 	0 	0 	0 	19.992 	5.2585 	
0 	0 	0 	0 	0.3493 	13.2222 	-0.252863 	6.77333e-05 	
0.00180385 	0.00120257 	0 	0.0 	 0.0 	 0.0 	 0.0 	 0.0 	 0.0 	 
0.00154093 	1.04452e-08 	0.92 	0.04 	0.04 	0.0291549 	3.80007 	
0 	0 	0 	0 	0 	16.6619 	7.01168 	
0 	0 	0 	0 	0.3493 	13.2222 	-0.252901 	6.77333e-05 	
0.00180385 	0.00120257 	0 	0.0 	 0.0 	 0.0 	 0.0 	 0.0 	 0.0 	 
0.00160867 	8.12518e-09 	0.92 	0.04 	0.04 	0.0291547 	3.80006 	
0 	0 	0 	0 	0 	13.3313 	8.76517 	
0 	0 	0 	0 	0.3493 	13.2222 	-0.252951 	6.77333e-05 	
0.00180385 	0.00120257 	0 	0.0 	 0.0 	 0.0 	 0.0 	 0.0 	 0.0 	 
0.0016764 	5.80462e-09 	0.92 	0.04 	0.04 	0.0291547 	3.80005 	
0 	0 	0 	0 	0 	9.99992 	10.519 	
0 	0 	0 	0 	0.3493 	13.2222 	-0.253012 	6.77333e-05 	
0.00180385 	0.00120257 	0 	0.0 	 0.0 	 0.0 	 0.0 	 0.0 	 0.0 	 
0.00174413 	3.48341e-09 	0.92 	0.04 	0.04 	0.0291546 	3.80004 	
0 	0 	0 	0 	0 	6.66769 	12.2734 	
0 	0 	0 	0 	0.3493 	13.2222 	-0.253084 	6.77333e-05 	
0.00180385 	0.00120257 	0 	0.0 	 0.0 	 0.0 	 0.0 	 0.0 	 0.0 	 
0.00181187 	1.16143e-09 	0.92 	0.04 	0.04 	0.0291546 	3.80002 	
0 	0 	0 	0 	0 	3.33443 	14.0282 	
0 	0 	0 	0 	0.3493 	13.2222 	-0.253168 	6.77333e-05 	
0.00180385 	0.00120257 	0 	0.0 	 0.0 	 0.0 	 0.0 	 0.0 	 0.0 	 
0.0018796 	0 	0.92 	0.04 	0.04 	0.0291545 	3.8 	
0 	0 	0 	0 	0 	0.833764 	15.743 	
0 	0 	0 	0 	0.3493 	6.61111 	-0.253262 	3.38667e-05 	
0.000901926 	0.000601284 	0 	0.0 	 0.0 	 0.0 	 0.0 	 0.0 	 0.0 	 
ZONE T = "t = 5.5e-08 [s]" I = 10 SOLUTIONTIME = 5.5000000000000E-08
0.00127 	1.97232e-08 	0.92 	0.04 	0.04 	0.0291555 	3.80017 	
3.77094 	3.97141 	-0.200478 	-1.67139 	1.46735e-07 	29.2361 	0.834348 	
-1.84862e-10 	7337.73 	123.225 	141.616 	0.3493 	6.61111 	-0.252408 	3.38667e-05 	
0.000901926 	0.000601284 	2.10286e-09 	0.140191 	0.0871411 	0.0530497 	0 	0 	0 	
0.00133773 	1.74053e-08 	0.92 	0.04 	0.04 	0.0291553 	3.80017 	
3.77094 	3.97141 	-0.200479 	-3.34285 	1.29482e-07 	26.733 	3.33746 	
-3.69732e-10 	14675.5 	246.45 	283.231 	0.3493 	13.2222 	-0.252417 	6.77333e-05 	
0.00180385 	0.00120257 	5.14145e-09 	0.342763 	0.0775027 	0.265261 	0 	0 	0 	
0.00140547 	1.50872e-08 	0.92 	0.04 	0.04 	0.0291551 	3.80017 	
3.77093 	3.97141 	-0.200482 	-3.34306 	1.12229e-07 	23.3952 	6.67518 	
-3.69758e-10 	14675.5 	246.45 	283.231 	0.3493 	13.2222 	-0.252448 	6.77333e-05 	
0.00180385 	0.00120257 	1.44209e-08 	0.96139 	0.0594283 	0.901962 	0 	0 	0 	
0.0014732 	1.27691e-08 	0.92 	0.04 	0.04 	0.0291549 	3.80016 	
3.77093 	3.97141 	-0.200488 	-3.34341 	9.49733e-08 	20.057 	10.0134 	
-3.69803e-10 	14675.5 	246.45 	283.231 	0.3493 	13.2222 	-0.2525 	6.77333e-05 	
0.00180385 	0.00120257 	3.01068e-08 	2.00712 	0.0437585 	1.96336 	0 	0 	0 	
0.00154093 	1.04503e-08 	0.92 	0.04 	0.04 	0.0291548 	3.80014 	
3.77092 	3.97141 	-0.200496 	-3.34392 	7.77152e-08 	16.7179 	13.3526 	
-3.69866e-10 	14675.5 	246.45 	283.231 	0.3493 	13.2222 	-0.252574 	6.77333e-05 	
0.00180385 	0.00120257 	5.22047e-08 	3.48031 	0.0304934 	3.44982 	0 	0 	0 	
0.00160867 	8.13066e-09 	0.92 	0.04 	0.04 	0.0291547 	3.80012 	
3.77091 	3.97141 	-0.200506 	-3.34458 	6.04538e-08 	13.3776 	16.6928 	
-3.69948e-10 	14675.5 	246.45 	283.231 	0.3493 	13.2222 	-0.252669 	6.77333e-05 	
0.00180385 	0.00120257 	8.07219e-08 	5.38146 	0.0196342 	5.36182 	0 	0 	0 	
0.0016764 	5.80993e-09 	0.92 	0.04 	0.04 	0.0291546 	3.8001 	
3.7709 	3.97141 	-0.200518 	-3.34538 	4.31881e-08 	10.036 	20.0344 	
-3.70049e-10 	14675.5 	246.45 	283.231 	0.3493 	13.2222 	-0.252785 	6.77333e-05 	
0.00180385 	0.00120257 	1.15668e-07 	7.7112 	0.0111824 	7.70002 	0 	0 	0 	
0.00174413 	3.48746e-09 	0.92 	0.04 	0.04 	0.0291545 	3.80007 	
3.77088 	3.97141 	-0.200533 	-3.34634 	2.59176e-08 	6.69275 	23.3777 	
-3.70168e-10 	14675.5 	246.45 	283.231 	0.3493 	13.2222 	-0.252922 	6.77333e-05 	
0.00180385 	0.00120257 	1.57055e-07 	10.4703 	0.00514089 	10.4652 	0 	0 	0 	
0.00181187 	1.16352e-09 	0.92 	0.04 	0.04 	0.0291545 	3.80004 	
3.77086 	3.97141 	-0.20055 	-3.34744 	8.64136e-09 	3.3475 	26.7229 	
-3.70306e-10 	14675.5 	246.45 	283.231 	0.3493 	13.2222 	-0.253082 	6.77333e-05 	
0.00180385 	0.00120257 	2.04897e-07 	13.6598 	0.00151294 	13.6583 	0 	0 	0 	
0.0018796 	0 	0.92 	0.04 	0.04 	0.0291545 	3.8 	
3.77085 	3.97141 	-0.200569 	-1.67435 	8.64136e-09 	0.837173 	29.2332 	
-1.85232e-10 	7337.73 	123.225 	141.616 	0.3493 	6.61111 	-0.253262 	3.38667e-05 	
0.000901926 	0.000601284 	2.30433e-07 	15.3622 	0.000302847 	15.3619 	0 	0 	0 	
ZONE T = "t = 7.43087e-08 [s]" I = 10 SOLUTIONTIME = 7.4308699072488E-08
0.00127 	1.97238e-08 	0.92 	0.04 	0.04 	0.0291555 	3.80017 	
3.77102 	3.97141 	-0.200395 	-1.6687 	1.47182e-07 	29.2361 	0.834348 	
-1.22128e-10 	7337.73 	123.225 	141.616 	0.3493 	6.61111 	-0.252408 	3.38667e-05 	
0.000901926 	0.000601284 	4.80976e-09 	0.140191 	0.0871411 	0.0530497 	0 	0 	0 	
0.00133773 	1.7406e-08 	0.92 	0.04 	0.04 	0.0291553 	3.80017 	
3.77102 	3.97141 	-0.200397 	-3.33752 	1.29886e-07 	26.733 	3.33746 	
-2.44259e-10 	14675.5 	246.45 	283.231 	0.3493 	13.2222 	-0.252417 	6.77333e-05 	
0.00180385 	0.00120257 	1.17598e-08 	0.342763 	0.0775027 	0.265261 	0 	0 	0 	
0.00140547 	1.5088e-08 	0.92 	0.04 	0.04 	0.0291551 	3.80017 	
3.77101 	3.97141 	-0.200403 	-3.33793 	1.12588e-07 	23.3952 	6.67518 	
-2.4427e-10 	14675.5 	246.45 	283.231 	0.3493 	13.2222 	-0.252448 	6.77333e-05 	
0.00180385 	0.00120257 	3.29841e-08 	0.96139 	0.0594283 	0.901962 	0 	0 	0 	
0.0014732 	1.27694e-08 	0.92 	0.04 	0.04 	0.0291549 	3.80016 	
3.771 	3.97141 	-0.200414 	-3.33862 	9.52873e-08 	20.057 	10.0134 	
-2.44289e-10 	14675.5 	246.45 	283.231 	0.3493 	13.2222 	-0.2525 	6.77333e-05 	
0.00180385 	0.00120257 	6.88618e-08 	2.00712 	0.0437585 	1.96336 	0 	0 	0 	
0.00154093 	1.04504e-08 	0.92 	0.04 	0.04 	0.0291548 	3.80014 	
3.77099 	3.97141 	-0.200429 	-3.33959 	7.79811e-08 	16.7179 	13.3526 	
-2.44316e-10 	14675.5 	246.45 	283.231 	0.3493 	13.2222 	-0.252574 	6.77333e-05 	
0.00180385 	0.00120257 	1.19405e-07 	3.48031 	0.0304934 	3.44982 	0 	0 	0 	
0.00160867 	8.13032e-09 	0.92 	0.04 	0.04 	0.0291547 	3.80012 	
3.77097 	3.97141 	-0.200448 	-3.34084 	6.06684e-08 	13.3776 	16.6928 	
-2.44351e-10 	14675.5 	246.45 	283.231 	0.3493 	13.2222 	-0.252669 	6.77333e-05 	
0.00180385 	0.00120257 	1.84631e-07 	5.38146 	0.0196342 	5.36182 	0 	0 	0 	
0.0016764 	5.80916e-09 	0.92 	0.04 	0.04 	0.0291546 	3.8001 	
3.77094 	3.97141 	-0.200472 	-3.34238 	4.33478e-08 	10.036 	20.0344 	
-2.44394e-10 	14675.5 	246.45 	283.231 	0.3493 	13.2222 	-0.252785 	6.77333e-05 	
0.00180385 	0.00120257 	2.64561e-07 	7.7112 	0.0111824 	7.70002 	0 	0 	0 	
0.00174413 	3.48693e-09 	0.92 	0.04 	0.04 	0.0291545 	3.80007 	
3.77091 	3.97141 	-0.2005 	-3.3442 	2.60177e-08 	6.69275 	23.3777 	
-2.44445e-10 	14675.5 	246.45 	283.231 	0.3493 	13.2222 	-0.252922 	6.77333e-05 	
0.00180385 	0.00120257 	3.59223e-07 	10.4703 	0.00514089 	10.4652 	0 	0 	0 	
0.00181187 	1.1638e-09 	0.92 	0.04 	0.04 	0.0291545 	3.80004 	
3.77088 	3.97141 	-0.200532 	-3.3463 	8.67668e-09 	3.3475 	26.7229 	
-2.44504e-10 	14675.5 	246.45 	283.231 	0.3493 	13.2222 	-0.253082 	6.77333e-05 	
0.00180385 	0.00120257 	4.68649e-07 	13.6598 	0.00151294 	13.6583 	0 	0 	0 	
0.0018796 	0 	0.92 	0.04 	0.04 	0.0291545 	3.8 	
3.77085 	3.97141 	-0.200569 	-1.67435 	8.67668e-09 	0.837173 	29.2332 	
-1.22285e-10 	7337.73 	123.225 	141.616 	0.3493 	6.61111 	-0.253262 	3.38667e-05 	
0.000901926 	0.000601284 	5.27057e-07 	15.3622 	0.000302847 	15.3619 	0 	0 	0 	
ZONE T = "t = 1.03272e-07 [s]" I = 10 SOLUTIONTIME = 1.0327174768122E-07
0.00127 	1.97211e-08 	0.92 	0.04 	0.04 	0.0291555 	3.80017 	
3.77102 	3.97141 	-0.200395 	-1.6687 	1.47183e-07 	29.2361 	0.834348 	
-4.13744e-11 	7337.73 	123.225 	141.616 	0.3493 	6.61111 	-0.252408 	3.38667e-05 	
0.000901926 	0.000601284 	8.87012e-09 	0.140191 	0.0871411 	0.0530497 	0 	0 	0 	
0.00133773 	1.74038e-08 	0.92 	0.04 	0.04 	0.0291553 	3.80017 	
3.77102 	3.97141 	-0.200397 	-3.33752 	1.29886e-07 	26.733 	3.33746 	
-8.27455e-11 	14675.5 	246.45 	283.231 	0.3493 	13.2222 	-0.252417 	6.77333e-05 	
0.00180385 	0.00120257 	2.16872e-08 	0.342763 	0.0775027 	0.265261 	0 	0 	0 	
0.00140547 	1.50862e-08 	0.92 	0.04 	0.04 	0.0291551 	3.80017 	
3.77101 	3.97141 	-0.200403 	-3.33793 	1.12588e-07 	23.3952 	6.67518 	
-8.27366e-11 	14675.5 	246.45 	283.231 	0.3493 	13.2222 	-0.252448 	6.77333e-05 	
0.00180385 	0.00120257 	6.08289e-08 	0.96139 	0.0594283 	0.901962 	0 	0 	0 	
0.0014732 	1.27678e-08 	0.92 	0.04 	0.04 	0.0291549 	3.80016 	
3.771 	3.97141 	-0.200414 	-3.33862 	9.52873e-08 	20.057 	10.0134 	
-8.2722e-11 	14675.5 	246.45 	283.231 	0.3493 	13.2222 	-0.2525 	6.77333e-05 	
0.00180385 	0.00120257 	1.26994e-07 	2.00712 	0.0437585 	1.96336 	0 	0 	0 	
0.00154093 	1.04488e-08 	0.92 	0.04 	0.04 	0.0291548 	3.80014 	
3.77099 	3.97141 	-0.200429 	-3.33959 	7.79811e-08 	16.7179 	13.3526 	
-8.27019e-11 	14675.5 	246.45 	283.231 	0.3493 	13.2222 	-0.252574 	6.77333e-05 	
0.00180385 	0.00120257 	2.20205e-07 	3.48031 	0.0304934 	3.44982 	0 	0 	0 	
0.00160867 	8.129e-09 	0.92 	0.04 	0.04 	0.0291547 	3.80012 	
3.77097 	3.97141 	-0.200448 	-3.34084 	6.06684e-08 	13.3776 	16.6928 	
-8.26761e-11 	14675.5 	246.45 	283.231 	0.3493 	13.2222 	-0.252669 	6.77333e-05 	
0.00180385 	0.00120257 	3.40494e-07 	5.38146 	0.0196342 	5.36182 	0 	0 	0 	
0.0016764 	5.80791e-09 	0.92 	0.04 	0.04 	0.0291546 	3.8001 	
3.77094 	3.97141 	-0.200472 	-3.34238 	4.33478e-08 	10.036 	20.0344 	
-8.26446e-11 	14675.5 	246.45 	283.231 	0.3493 	13.2222 	-0.252785 	6.77333e-05 	
0.00180385 	0.00120257 	4.87901e-07 	7.7112 	0.0111824 	7.70002 	0 	0 	0 	
0.00174413 	3.48555e-09 	0.92 	0.04 	0.04 	0.0291545 	3.80007 	
3.77091 	3.97141 	-0.2005 	-3.3442 	2.60177e-08 	6.69275 	23.3777 	
-8.26075e-11 	14675.5 	246.45 	283.231 	0.3493 	13.2222 	-0.252922 	6.77333e-05 	
0.00180385 	0.00120257 	6.62476e-07 	10.4703 	0.00514089 	10.4652 	0 	0 	0 	
0.00181187 	1.16199e-09 	0.92 	0.04 	0.04 	0.0291545 	3.80004 	
3.77088 	3.97141 	-0.200532 	-3.3463 	8.67668e-09 	3.3475 	26.7229 	
-8.25647e-11 	14675.5 	246.45 	283.231 	0.3493 	13.2222 	-0.253082 	6.77333e-05 	
0.00180385 	0.00120257 	8.64278e-07 	13.6598 	0.00151294 	13.6583 	0 	0 	0 	
0.0018796 	0 	0.92 	0.04 	0.04 	0.0291545 	3.8 	
3.77085 	3.97141 	-0.200569 	-1.67435 	8.67668e-09 	0.837173 	29.2332 	
-4.12581e-11 	7337.73 	123.225 	141.616 	0.3493 	6.61111 	-0.253262 	3.38667e-05 	
0.000901926 	0.000601284 	9.71993e-07 	15.3622 	0.000302847 	15.3619 	0 	0 	0 	
ZONE T = "t = 1.46716e-07 [s]" I = 10 SOLUTIONTIME = 1.4671632059432E-07
0.00127 	1.97229e-08 	0.92 	0.04 	0.04 	0.0291555 	3.80017 	
3.77102 	3.97141 	-0.200395 	-1.6687 	1.47183e-07 	29.2361 	0.834348 	
7.97563e-11 	7337.73 	123.225 	141.616 	0.3493 	6.61111 	-0.252408 	3.38667e-05 	
0.000901926 	0.000601284 	1.49606e-08 	0.140191 	0.0871411 	0.0530497 	0 	0 	0 	
0.00133773 	1.74053e-08 	0.92 	0.04 	0.04 	0.0291553 	3.80017 	
3.77102 	3.97141 	-0.200397 	-3.33752 	1.29886e-07 	26.733 	3.33746 	
1.59525e-10 	14675.5 	246.45 	283.231 	0.3493 	13.2222 	-0.252417 	6.77333e-05 	
0.00180385 	0.00120257 	3.65784e-08 	0.342763 	0.0775027 	0.265261 	0 	0 	0 	
0.00140547 	1.50874e-08 	0.92 	0.04 	0.04 	0.0291551 	3.80017 	
3.77101 	3.97141 	-0.200403 	-3.33793 	1.12588e-07 	23.3952 	6.67518 	
1.59564e-10 	14675.5 	246.45 	283.231 	0.3493 	13.2222 	-0.252448 	6.77333e-05 	
0.00180385 	0.00120257 	1.02596e-07 	0.96139 	0.0594283 	0.901962 	0 	0 	0 	
0.0014732 	1.27691e-08 	0.92 	0.04 	0.04 	0.0291549 	3.80016 	
3.771 	3.97141 	-0.200414 	-3.33862 	9.52873e-08 	20.057 	10.0134 	
1.59628e-10 	14675.5 	246.45 	283.231 	0.3493 	13.2222 	-0.2525 	6.77333e-05 	
0.00180385 	0.00120257 	2.14193e-07 	2.00712 	0.0437585 	1.96336 	0 	0 	0 	
0.00154093 	1.04501e-08 	0.92 	0.04 	0.04 	0.0291548 	3.80014 	
3.77099 	3.97141 	-0.200429 	-3.33959 	7.79811e-08 	16.7179 	13.3526 	
1.59719e-10 	14675.5 	246.45 	283.231 	0.3493 	13.2222 	-0.252574 	6.77333e-05 	
0.00180385 	0.00120257 	3.71406e-07 	3.48031 	0.0304934 	3.44982 	0 	0 	0 	
0.00160867 	8.13007e-09 	0.92 	0.04 	0.04 	0.0291547 	3.80012 	
3.77097 	3.97141 	-0.200448 	-3.34084 	6.06684e-08 	13.3776 	16.6928 	
1.59836e-10 	14675.5 	246.45 	283.231 	0.3493 	13.2222 	-0.252669 	6.77333e-05 	
0.00180385 	0.00120257 	5.74289e-07 	5.38146 	0.0196342 	5.36182 	0 	0 	0 	
0.0016764 	5.8091e-09 	0.92 	0.04 	0.04 	0.0291546 	3.8001 	
3.77094 	3.97141 	-0.200472 	-3.34238 	4.33478e-08 	10.036 	20.0344 	
1.59979e-10 	14675.5 	246.45 	283.231 	0.3493 	13.2222 	-0.252785 	6.77333e-05 	
0.00180385 	0.00120257 	8.22911e-07 	7.7112 	0.0111824 	7.70002 	0 	0 	0 	
0.00174413 	3.48695e-09 	0.92 	0.04 	0.04 	0.0291545 	3.80007 	
3.77091 	3.97141 	-0.2005 	-3.3442 	2.60177e-08 	6.69275 	23.3777 	
1.60148e-10 	14675.5 	246.45 	283.231 	0.3493 	13.2222 	-0.252922 	6.77333e-05 	
0.00180385 	0.00120257 	1.11735e-06 	10.4703 	0.00514089 	10.4652 	0 	0 	0 	
0.00181187 	1.16301e-09 	0.92 	0.04 	0.04 	0.0291545 	3.80004 	
3.77088 	3.97141 	-0.200532 	-3.3463 	8.67668e-09 	3.3475 	26.7229 	
1.60344e-10 	14675.5 	246.45 	283.231 	0.3493 	13.2222 	-0.253082 	6.77333e-05 	
0.00180385 	0.00120257 	1.45772e-06 	13.6598 	0.00151294 	13.6583 	0 	0 	0 	
0.0018796 	0 	0.92 	0.04 	0.04 	0.0291545 	3.8 	
3.77085 	3.97141 	-0.200569 	-1.67435 	8.67668e-09 	0.837173 	29.2332 	
8.02828e-11 	7337.73 	123.225 	141.616 	0.3493 	6.61111 	-0.253262 	3.38667e-05 	
0.000901926 	0.000601284 	1.6394e-06 	15.3622 	0.000302847 	15.3619 	0 	0 	0 	
ZONE T = "t = 2.11883e-07 [s]" I = 10 SOLUTIONTIME = 2.1188317996396E-07
0.00127 	1.97219e-08 	0.92 	0.04 	0.04 	0.0291555 	3.80017 	
3.77102 	3.97141 	-0.200395 	-1.6687 	1.47184e-07 	29.2361 	0.834348 	
2.61453e-10 	7337.73 	123.225 	141.616 	0.3493 	6.61111 	-0.252408 	3.38667e-05 	
0.000901926 	0.000601284 	2.40964e-08 	0.140191 	0.0871411 	0.0530497 	0 	0 	0 	
0.00133773 	1.74043e-08 	0.92 	0.04 	0.04 	0.0291553 	3.80017 	
3.77102 	3.97141 	-0.200397 	-3.33752 	1.29886e-07 	26.733 	3.33746 	
5.22931e-10 	14675.5 	246.45 	283.231 	0.3493 	13.2222 	-0.252417 	6.77333e-05 	
0.00180385 	0.00120257 	5.89152e-08 	0.342763 	0.0775027 	0.265261 	0 	0 	0 	
0.00140547 	1.50864e-08 	0.92 	0.04 	0.04 	0.0291551 	3.80017 	
3.77101 	3.97141 	-0.200403 	-3.33793 	1.12588e-07 	23.3952 	6.67518 	
5.23014e-10 	14675.5 	246.45 	283.231 	0.3493 	13.2222 	-0.252448 	6.77333e-05 	
0.00180385 	0.00120257 	1.65247e-07 	0.96139 	0.0594283 	0.901962 	0 	0 	0 	
0.0014732 	1.27681e-08 	0.92 	0.04 	0.04 	0.0291549 	3.80016 	
3.771 	3.97141 	-0.200414 	-3.33862 	9.52873e-08 	20.057 	10.0134 	
5.23154e-10 	14675.5 	246.45 	283.231 	0.3493 	13.2222 	-0.2525 	6.77333e-05 	
0.00180385 	0.00120257 	3.44991e-07 	2.00712 	0.0437585 	1.96336 	0 	0 	0 	
0.00154093 	1.0449e-08 	0.92 	0.04 	0.04 	0.0291548 	3.80014 	
3.77099 	3.97141 	-0.200429 	-3.33959 	7.79811e-08 	16.7179 	13.3526 	
5.23351e-10 	14675.5 	246.45 	283.231 	0.3493 	13.2222 	-0.252574 	6.77333e-05 	
0.00180385 	0.00120257 	5.98207e-07 	3.48031 	0.0304934 	3.44982 	0 	0 	0 	
0.00160867 	8.12912e-09 	0.92 	0.04 	0.04 	0.0291547 	3.80012 	
3.77097 	3.97141 	-0.200448 	-3.34084 	6.06684e-08 	13.3776 	16.6928 	
5.23604e-10 	14675.5 	246.45 	283.231 	0.3493 	13.2222 	-0.252669 	6.77333e-05 	
0.00180385 	0.00120257 	9.24982e-07 	5.38146 	0.0196342 	5.36182 	0 	0 	0 	
0.0016764 	5.80815e-09 	0.92 	0.04 	0.04 	0.0291546 	3.8001 	
3.77094 	3.97141 	-0.200472 	-3.34238 	4.33478e-08 	10.036 	20.0344 	
5.23914e-10 	14675.5 	246.45 	283.231 	0.3493 	13.2222 	-0.252785 	6.77333e-05 	
0.00180385 	0.00120257 	1.32543e-06 	7.7112 	0.0111824 	7.70002 	0 	0 	0 	
0.00174413 	3.48592e-09 	0.92 	0.04 	0.04 	0.0291545 	3.80007 	
3.77091 	3.97141 	-0.2005 	-3.3442 	2.60177e-08 	6.69275 	23.3777 	
5.24282e-10 	14675.5 	246.45 	283.231 	0.3493 	13.2222 	-0.252922 	6.77333e-05 	
0.00180385 	0.00120257 	1.79967e-06 	10.4703 	0.00514089 	10.4652 	0 	0 	0 	
0.00181187 	1.16223e-09 	0.92 	0.04 	0.04 	0.0291545 	3.80004 	
3.77088 	3.97141 	-0.200532 	-3.3463 	8.67668e-09 	3.3475 	26.7229 	
5.24706e-10 	14675.5 	246.45 	283.231 	0.3493 	13.2222 	-0.253082 	6.77333e-05 	
0.00180385 	0.00120257 	2.34789e-06 	13.6598 	0.00151294 	13.6583 	0 	0 	0 	
0.0018796 	0 	0.92 	0.04 	0.04 	0.0291545 	3.8 	
3.77085 	3.97141 	-0.200569 	-1.67435 	8.67668e-09 	0.837173 	29.2332 	
2.62594e-10 	7337.73 	123.225 	141.616 	0.3493 	6.61111 	-0.253262 	3.38667e-05 	
0.000901926 	0.000601284 	2.6405e-06 	15.3622 	0.000302847 	15.3619 	0 	0 	0 	
ZONE T = "t = 3.09633e-07 [s]" I = 10 SOLUTIONTIME = 3.0963346901843E-07
0.00127 	1.97225e-08 	0.92 	0.04 	0.04 	0.0291555 	3.80017 	
3.77102 	3.97141 	-0.200395 	-1.6687 	1.47184e-07 	29.2361 	0.834348 	
5.33997e-10 	7337.73 	123.225 	141.616 	0.3493 	6.61111 	-0.252408 	3.38667e-05 	
0.000901926 	0.000601284 	3.78001e-08 	0.140191 	0.0871411 	0.0530497 	0 	0 	0 	
0.00133773 	1.74049e-08 	0.92 	0.04 	0.04 	0.0291553 	3.80017 	
3.77102 	3.97141 	-0.200397 	-3.33752 	1.29886e-07 	26.733 	3.33746 	
1.06804e-09 	14675.5 	246.45 	283.231 	0.3493 	13.2222 	-0.252417 	6.77333e-05 	
0.00180385 	0.00120257 	9.24205e-08 	0.342763 	0.0775027 	0.265261 	0 	0 	0 	
0.00140547 	1.5087e-08 	0.92 	0.04 	0.04 	0.0291551 	3.80017 	
3.77101 	3.97141 	-0.200403 	-3.33793 	1.12588e-07 	23.3952 	6.67518 	
1.06819e-09 	14675.5 	246.45 	283.231 	0.3493 	13.2222 	-0.252448 	6.77333e-05 	
0.00180385 	0.00120257 	2.59223e-07 	0.96139 	0.0594283 	0.901962 	0 	0 	0 	
0.0014732 	1.27686e-08 	0.92 	0.04 	0.04 	0.0291549 	3.80016 	
3.771 	3.97141 	-0.200414 	-3.33862 	9.52873e-08 	20.057 	10.0134 	
1.06844e-09 	14675.5 	246.45 	283.231 	0.3493 	13.2222 	-0.2525 	6.77333e-05 	
0.00180385 	0.00120257 	5.41187e-07 	2.00712 	0.0437585 	1.96336 	0 	0 	0 	
0.00154093 	1.04496e-08 	0.92 	0.04 	0.04 	0.0291548 	3.80014 	
3.77099 	3.97141 	-0.200429 	-3.33959 	7.79811e-08 	16.7179 	13.3526 	
1.0688e-09 	14675.5 	246.45 	283.231 	0.3493 	13.2222 	-0.252574 	6.77333e-05 	
0.00180385 	0.00120257 	9.38409e-07 	3.48031 	0.0304934 	3.44982 	0 	0 	0 	
0.00160867 	8.12966e-09 	0.92 	0.04 	0.04 	0.0291547 	3.80012 	
3.77097 	3.97141 	-0.200448 	-3.34084 	6.06684e-08 	13.3776 	16.6928 	
1.06926e-09 	14675.5 	246.45 	283.231 	0.3493 	13.2222 	-0.252669 	6.77333e-05 	
0.00180385 	0.00120257 	1.45102e-06 	5.38146 	0.0196342 	5.36182 	0 	0 	0 	
0.0016764 	5.80869e-09 	0.92 	0.04 	0.04 	0.0291546 	3.8001 	
3.77094 	3.97141 	-0.200472 	-3.34238 	4.33478e-08 	10.036 	20.0344 	
1.06982e-09 	14675.5 	246.45 	283.231 	0.3493 	13.2222 	-0.252785 	6.77333e-05 	
0.00180385 	0.00120257 	2.0792e-06 	7.7112 	0.0111824 	7.70002 	0 	0 	0 	
0.00174413 	3.48646e-09 	0.92 	0.04 	0.04 	0.0291545 	3.80007 	
3.77091 	3.97141 	-0.2005 	-3.3442 	2.60177e-08 	6.69275 	23.3777 	
1.07048e-09 	14675.5 	246.45 	283.231 	0.3493 	13.2222 	-0.252922 	6.77333e-05 	
0.00180385 	0.00120257 	2.82315e-06 	10.4703 	0.00514089 	10.4652 	0 	0 	0 	
0.00181187 	1.16284e-09 	0.92 	0.04 	0.04 	0.0291545 	3.80004 	
3.77088 	3.97141 	-0.200532 	-3.3463 	8.67669e-09 	3.3475 	26.7229 	
1.07125e-09 	14675.5 	246.45 	283.231 	0.3493 	13.2222 	-0.253082 	6.77333e-05 	
0.00180385 	0.00120257 	3.68313e-06 	13.6598 	0.00151294 	13.6583 	0 	0 	0 	
0.0018796 	0 	0.92 	0.04 	0.04 	0.0291545 	3.8 	
3.77085 	3.97141 	-0.200569 	-1.67435 	8.67669e-09 	0.837173 	29.2332 	
5.36061e-10 	7337.73 	123.225 	141.616 	0.3493 	6.61111 	-0.253262 	3.38667e-05 	
0.000901926 	0.000601284 	4.14216e-06 	15.3622 	0.000302847 	15.3619 	0 	0 	0 	
ZONE T = "t = 4.56259e-07 [s]" I = 10 SOLUTIONTIME = 4.5625890260013E-07
0.00127 	1.97222e-08 	0.92 	0.04 	0.04 	0.0291555 	3.80017 	
3.77102 	3.97141 	-0.200395 	-1.6687 	1.47186e-07 	29.2361 	0.834348 	
9.42813e-10 	7337.73 	123.225 	141.616 	0.3493 	6.61111 	-0.252408 	3.38667e-05 	
0.000901926 	0.000601284 	5.83557e-08 	0.140191 	0.0871411 	0.0530497 	0 	0 	0 	
0.00133773 	1.74046e-08 	0.92 	0.04 	0.04 	0.0291553 	3.80017 	
3.77102 	3.97141 	-0.200397 	-3.33752 	1.29886e-07 	26.733 	3.33746 	
1.8857e-09 	14675.5 	246.45 	283.231 	0.3493 	13.2222 	-0.252417 	6.77333e-05 	
0.00180385 	0.00120257 	1.42678e-07 	0.342763 	0.0775027 	0.265261 	0 	0 	0 	
0.00140547 	1.50867e-08 	0.92 	0.04 	0.04 	0.0291551 	3.80017 	
3.77101 	3.97141 	-0.200403 	-3.33793 	1.12588e-07 	23.3952 	6.67518 	
1.88595e-09 	14675.5 	246.45 	283.231 	0.3493 	13.2222 	-0.252448 	6.77333e-05 	
0.00180385 	0.00120257 	4.00187e-07 	0.96139 	0.0594283 	0.901962 	0 	0 	0 	
0.0014732 	1.27684e-08 	0.92 	0.04 	0.04 	0.0291549 	3.80016 	
3.771 	3.97141 	-0.200414 	-3.33862 	9.52873e-08 	20.057 	10.0134 	
1.88638e-09 	14675.5 	246.45 	283.231 	0.3493 	13.2222 	-0.2525 	6.77333e-05 	
0.00180385 	0.00120257 	8.35483e-07 	2.00712 	0.0437585 	1.96336 	0 	0 	0 	
0.00154093 	1.04494e-08 	0.92 	0.04 	0.04 	0.0291548 	3.80014 	
3.77099 	3.97141 	-0.200429 	-3.33959 	7.79811e-08 	16.7179 	13.3526 	
1.88697e-09 	14675.5 	246.45 	283.231 	0.3493 	13.2222 	-0.252574 	6.77333e-05 	
0.00180385 	0.00120257 	1.44871e-06 	3.48031 	0.0304934 	3.44982 	0 	0 	0 	
0.00160867 	8.12951e-09 	0.92 	0.04 	0.04 	0.0291547 	3.80012 	
3.77097 	3.97141 	-0.200448 	-3.34084 	6.06684e-08 	13.3776 	16.6928 	
1.88773e-09 	14675.5 	246.45 	283.231 	0.3493 	13.2222 	-0.252669 	6.77333e-05 	
0.00180385 	0.00120257 	2.24008e-06 	5.38146 	0.0196342 	5.36182 	0 	0 	0 	
0.0016764 	5.80859e-09 	0.92 	0.04 	0.04 	0.0291546 	3.8001 	
3.77094 	3.97141 	-0.200472 	-3.34238 	4.33478e-08 	10.036 	20.0344 	
1.88867e-09 	14675.5 	246.45 	283.231 	0.3493 	13.2222 	-0.252785 	6.77333e-05 	
0.00180385 	0.00120257 	3.20986e-06 	7.7112 	0.0111824 	7.70002 	0 	0 	0 	
0.00174413 	3.48636e-09 	0.92 	0.04 	0.04 	0.0291545 	3.80007 	
3.77091 	3.97141 	-0.2005 	-3.3442 	2.60177e-08 	6.69275 	23.3777 	
1.88978e-09 	14675.5 	246.45 	283.231 	0.3493 	13.2222 	-0.252922 	6.77333e-05 	
0.00180385 	0.00120257 	4.35837e-06 	10.4703 	0.00514089 	10.4652 	0 	0 	0 	
0.00181187 	1.16261e-09 	0.92 	0.04 	0.04 	0.0291545 	3.80004 	
3.77088 	3.97141 	-0.200532 	-3.3463 	8.67669e-09 	3.3475 	26.7229 	
1.89107e-09 	14675.5 	246.45 	283.231 	0.3493 	13.2222 	-0.253082 	6.77333e-05 	
0.00180385 	0.00120257 	5.686e-06 	13.6598 	0.00151294 	13.6583 	0 	0 	0 	
0.0018796 	0 	0.92 	0.04 	0.04 	0.0291545 	3.8 	
3.77085 	3.97141 	-0.200569 	-1.67435 	8.67669e-09 	0.837173 	29.2332 	
9.46261e-10 	7337.73 	123.225 	141.616 	0.3493 	6.61111 	-0.253262 	3.38667e-05 	
0.000901926 	0.000601284 	6.39465e-06 	15.3622 	0.000302847 	15.3619 	0 	0 	0 	
ZONE T = "t = 6.76197e-07 [s]" I = 10 SOLUTIONTIME = 6.7619705297269E-07
0.00127 	1.97224e-08 	0.92 	0.04 	0.04 	0.0291555 	3.80017 	
3.77102 	3.97141 	-0.200395 	-1.6687 	1.47188e-07 	29.2361 	0.834348 	
1.55604e-09 	7337.73 	123.225 	141.616 	0.3493 	6.61111 	-0.252408 	3.38667e-05 	
0.000901926 	0.000601284 	8.9189e-08 	0.140191 	0.0871411 	0.0530497 	0 	0 	0 	
0.00133773 	1.74048e-08 	0.92 	0.04 	0.04 	0.0291553 	3.80017 	
3.77102 	3.97141 	-0.200397 	-3.33752 	1.29886e-07 	26.733 	3.33746 	
3.1122e-09 	14675.5 	246.45 	283.231 	0.3493 	13.2222 	-0.252417 	6.77333e-05 	
0.00180385 	0.00120257 	2.18065e-07 	0.342763 	0.0775027 	0.265261 	0 	0 	0 	
0.00140547 	1.5087e-08 	0.92 	0.04 	0.04 	0.0291551 	3.80017 	
3.77101 	3.97141 	-0.200403 	-3.33793 	1.12588e-07 	23.3952 	6.67518 	
3.1126e-09 	14675.5 	246.45 	283.231 	0.3493 	13.2222 	-0.252448 	6.77333e-05 	
0.00180385 	0.00120257 	6.11634e-07 	0.96139 	0.0594283 	0.901962 	0 	0 	0 	
0.0014732 	1.27686e-08 	0.92 	0.04 	0.04 	0.0291549 	3.80016 	
3.771 	3.97141 	-0.200414 	-3.33862 	9.52873e-08 	20.057 	10.0134 	
3.11327e-09 	14675.5 	246.45 	283.231 	0.3493 	13.2222 	-0.2525 	6.77333e-05 	
0.00180385 	0.00120257 	1.27693e-06 	2.00712 	0.0437585 	1.96336 	0 	0 	0 	
0.00154093 	1.04496e-08 	0.92 	0.04 	0.04 	0.0291548 	3.80014 	
3.77099 	3.97141 	-0.200429 	-3.33959 	7.79811e-08 	16.7179 	13.3526 	
3.11422e-09 	14675.5 	246.45 	283.231 	0.3493 	13.2222 	-0.252574 	6.77333e-05 	
0.00180385 	0.00120257 	2.21416e-06 	3.48031 	0.0304934 	3.44982 	0 	0 	0 	
0.00160867 	8.12966e-09 	0.92 	0.04 	0.04 	0.0291547 	3.80012 	
3.77097 	3.97141 	-0.200448 	-3.34084 	6.06684e-08 	13.3776 	16.6928 	
3.11545e-09 	14675.5 	246.45 	283.231 	0.3493 	13.2222 	-0.252669 	6.77333e-05 	
0.00180385 	0.00120257 	3.42367e-06 	5.38146 	0.0196342 	5.36182 	0 	0 	0 	
0.0016764 	5.80867e-09 	0.92 	0.04 	0.04 	0.0291546 	3.8001 	
3.77094 	3.97141 	-0.200472 	-3.34238 	4.33478e-08 	10.036 	20.0344 	
3.11695e-09 	14675.5 	246.45 	283.231 	0.3493 	13.2222 	-0.252785 	6.77333e-05 	
0.00180385 	0.00120257 	4.90584e-06 	7.7112 	0.0111824 	7.70002 	0 	0 	0 	
0.00174413 	3.48639e-09 	0.92 	0.04 	0.04 	0.0291545 	3.80007 	
3.77091 	3.97141 	-0.2005 	-3.3442 	2.60177e-08 	6.69275 	23.3777 	
3.11873e-09 	14675.5 	246.45 	283.231 	0.3493 	13.2222 	-0.252922 	6.77333e-05 	
0.00180385 	0.00120257 	6.66119e-06 	10.4703 	0.00514089 	10.4652 	0 	0 	0 	
0.00181187 	1.16273e-09 	0.92 	0.04 	0.04 	0.0291545 	3.80004 	
3.77088 	3.97141 	-0.200532 	-3.3463 	8.67669e-09 	3.3475 	26.7229 	
3.12079e-09 	14675.5 	246.45 	283.231 	0.3493 	13.2222 	-0.253082 	6.77333e-05 	
0.00180385 	0.00120257 	8.69031e-06 	13.6598 	0.00151294 	13.6583 	0 	0 	0 	
0.0018796 	0 	0.92 	0.04 	0.04 	0.0291545 	3.8 	
3.77085 	3.97141 	-0.200569 	-1.67435 	8.67669e-09 	0.837173 	29.2332 	
1.56156e-09 	7337.73 	123.225 	141.616 	0.3493 	6.61111 	-0.253262 	3.38667e-05 	
0.000901926 	0.000601284 	9.77339e-06 	15.3622 	0.000302847 	15.3619 	0 	0 	0 	
ZONE T = "t = 1.0061e-06 [s]" I = 10 SOLUTIONTIME = 1.0061042785315E-06
0.00127 	1.97223e-08 	0.92 	0.04 	0.04 	0.0291555 	3.80017 	
3.77102 	3.97141 	-0.200395 	-1.6687 	1.47191e-07 	29.2361 	0.834348 	
2.47587e-09 	7337.73 	123.225 	141.616 	0.3493 	6.61111 	-0.252408 	3.38667e-05 	
0.000901926 	0.000601284 	1.35439e-07 	0.140191 	0.0871411 	0.0530497 	0 	0 	0 	
0.00133773 	1.74047e-08 	0.92 	0.04 	0.04 	0.0291553 	3.80017 	
3.77102 	3.97141 	-0.200397 	-3.33752 	1.29886e-07 	26.733 	3.33746 	
4.95194e-09 	14675.5 	246.45 	283.231 	0.3493 	13.2222 	-0.252417 	6.77333e-05 	
0.00180385 	0.00120257 	3.31145e-07 	0.342763 	0.0775027 	0.265261 	0 	0 	0 	
0.00140547 	1.50868e-08 	0.92 	0.04 	0.04 	0.0291551 	3.80017 	
3.77101 	3.97141 	-0.200403 	-3.33793 	1.12588e-07 	23.3952 	6.67518 	
4.95257e-09 	14675.5 	246.45 	283.231 	0.3493 	13.2222 	-0.252448 	6.77333e-05 	
0.00180385 	0.00120257 	9.28803e-07 	0.96139 	0.0594283 	0.901962 	0 	0 	0 	
0.0014732 	1.27685e-08 	0.92 	0.04 	0.04 	0.0291549 	3.80016 	
3.771 	3.97141 	-0.200414 	-3.33862 	9.52873e-08 	20.057 	10.0134 	
4.95362e-09 	14675.5 	246.45 	283.231 	0.3493 	13.2222 	-0.2525 	6.77333e-05 	
0.00180385 	0.00120257 	1.93909e-06 	2.00712 	0.0437585 	1.96336 	0 	0 	0 	
0.00154093 	1.04494e-08 	0.92 	0.04 	0.04 	0.0291548 	3.80014 	
3.77099 	3.97141 	-0.200429 	-3.33959 	7.79811e-08 	16.7179 	13.3526 	
4.95511e-09 	14675.5 	246.45 	283.231 	0.3493 	13.2222 	-0.252574 	6.77333e-05 	
0.00180385 	0.00120257 	3.36234e-06 	3.48031 	0.0304934 	3.44982 	0 	0 	0 	
0.00160867 	8.12953e-09 	0.92 	0.04 	0.04 	0.0291547 	3.80012 	
3.77097 	3.97141 	-0.200448 	-3.34084 	6.06684e-08 	13.3776 	16.6928 	
4.95703e-09 	14675.5 	246.45 	283.231 	0.3493 	13.2222 	-0.252669 	6.77333e-05 	
0.00180385 	0.00120257 	5.19905e-06 	5.38146 	0.0196342 	5.36182 	0 	0 	0 	
0.0016764 	5.80857e-09 	0.92 	0.04 	0.04 	0.0291546 	3.8001 	
3.77094 	3.97141 	-0.200472 	-3.34238 	4.33478e-08 	10.036 	20.0344 	
4.95938e-09 	14675.5 	246.45 	283.231 	0.3493 	13.2222 	-0.252785 	6.77333e-05 	
0.00180385 	0.00120257 	7.44982e-06 	7.7112 	0.0111824 	7.70002 	0 	0 	0 	
0.00174413 	3.48637e-09 	0.92 	0.04 	0.04 	0.0291545 	3.80007 	
3.77091 	3.97141 	-0.2005 	-3.3442 	2.60177e-08 	6.69275 	23.3777 	
4.96216e-09 	14675.5 	246.45 	283.231 	0.3493 	13.2222 	-0.252922 	6.77333e-05 	
0.00180385 	0.00120257 	1.01154e-05 	10.4703 	0.00514089 	10.4652 	0 	0 	0 	
0.00181187 	1.16268e-09 	0.92 	0.04 	0.04 	0.0291545 	3.80004 	
3.77088 	3.97141 	-0.200532 	-3.3463 	8.67669e-09 	3.3475 	26.7229 	
4.96537e-09 	14675.5 	246.45 	283.231 	0.3493 	13.2222 	-0.253082 	6.77333e-05 	
0.00180385 	0.00120257 	1.31968e-05 	13.6598 	0.00151294 	13.6583 	0 	0 	0 	
0.0018796 	0 	0.92 	0.04 	0.04 	0.0291545 	3.8 	
3.77085 	3.97141 	-0.200569 	-1.67435 	8.67669e-09 	0.837173 	29.2332 	
2.48451e-09 	7337.73 	123.225 	141.616 	0.3493 	6.61111 	-0.253262 	3.38667e-05 	
0.000901926 	0.000601284 	1.48415e-05 	15.3622 	0.000302847 	15.3619 	0 	0 	0 	
ZONE T = "t = 1.50097e-06 [s]" I = 10 SOLUTIONTIME = 1.5009651168698E-06