TITLE = "Solution on Domain BulkDomain1D_0"
VARIABLES = "x [m]"  
"Vel_axial(0)" 	"MF_sp(ECDMC)" 	"MF_sp(Li+)" 	"MF_sp(PF6-)" 	"Volt(Electroly)" 	"Volt(AnodeVolt)" 	
"Potential Drop Electrode-Electrolyte [V]" 	"Surf_0 Equilibrium Potential Drop Electrode-Electrolyte [V]" 	"Overpotential_0 [V]" 	"Current Source [A/m^2]" 	"Li+ flux [kmol/m^2/s]" 	"Electrolyte Current [A/m^2]" 	"Electrode Current [A/m^2]" 	
"Capacity discharged [A-s]" 	"Depth of discharge [-]" 	"Capacity remaining [A-s]" 	"Initial capacity [A-s]" 	"Porosity []" 	"Surface Area [m2/m2] (area per area)" 	"Specific current (per particle area) [A/m^2]" 	"Control volume thickness [m]" 	
"Moles Li_C6-bulk [mol/m^2] (per electrode area)" 	"Moles V_C6-bulk [mol/m^2] (per electrode area)" 	

ZONE T = "t = 4e-08 [s]" I = 10 SOLUTIONTIME = 4.0000000000000E-08
0 	1.16001e-09 	0.92 	0.04 	0.04 	0.0291573 	0 	
0 	0 	0 	0 	0 	0.835256 	19.2951 	
0 	0 	0 	0 	0.35 	8.53017 	0.195836 	4.37444e-05 	
0.00379119 	0.000947796 	
8.74889e-05 	3.48004e-09 	0.92 	0.04 	0.04 	0.0291572 	-2.48467e-09 	
0 	0 	0 	0 	0 	3.34103 	17.374 	
0 	0 	0 	0 	0.35 	17.0603 	0.195836 	8.74889e-05 	
0.00758237 	0.00189559 	
0.000174978 	5.80008e-09 	0.92 	0.04 	0.04 	0.0291572 	-4.67703e-09 	
0 	0 	0 	0 	0 	6.68206 	15.2024 	
0 	0 	0 	0 	0.35 	17.0603 	0.195837 	8.74889e-05 	
0.00758237 	0.00189559 	
0.000262467 	8.12014e-09 	0.92 	0.04 	0.04 	0.0291571 	-6.57709e-09 	
0 	0 	0 	0 	0 	10.0231 	13.0307 	
0 	0 	0 	0 	0.35 	17.0603 	0.195838 	8.74889e-05 	
0.00758237 	0.00189559 	
0.000349956 	1.04402e-08 	0.92 	0.04 	0.04 	0.029157 	-8.18485e-09 	
0 	0 	0 	0 	0 	13.3642 	10.859 	
0 	0 	0 	0 	0.35 	17.0603 	0.19584 	8.74889e-05 	
0.00758237 	0.00189559 	
0.000437444 	1.27603e-08 	0.92 	0.04 	0.04 	0.0291569 	-9.50029e-09 	
0 	0 	0 	0 	0 	16.7053 	8.68725 	
0 	0 	0 	0 	0.35 	17.0603 	0.195842 	8.74889e-05 	
0.00758237 	0.00189559 	
0.000524933 	1.50805e-08 	0.92 	0.04 	0.04 	0.0291567 	-1.05234e-08 	
0 	0 	0 	0 	0 	20.0465 	6.5155 	
0 	0 	0 	0 	0.35 	17.0603 	0.195845 	8.74889e-05 	
0.00758237 	0.00189559 	
0.000612422 	1.74006e-08 	0.92 	0.04 	0.04 	0.0291565 	-1.12542e-08 	
0 	0 	0 	0 	0 	23.3877 	4.34371 	
0 	0 	0 	0 	0.35 	17.0603 	0.195849 	8.74889e-05 	
0.00758237 	0.00189559 	
0.000699911 	1.97209e-08 	0.92 	0.04 	0.04 	0.0291562 	-1.16927e-08 	
0 	0 	0 	0 	0 	26.729 	2.17188 	
0 	0 	0 	0 	0.35 	17.0603 	0.195853 	8.74889e-05 	
0.00758237 	0.00189559 	
0.0007874 	2.0881e-08 	0.92 	0.04 	0.04 	0.029156 	-1.18389e-08 	
0 	0 	0 	0 	0 	29.235 	0.542976 	
0 	0 	0 	0 	0.35 	8.53017 	0.195857 	4.37444e-05 	
0.00379119 	0.000947796 	
ZONE T = "t = 5.5e-08 [s]" I = 10 SOLUTIONTIME = 5.5000000000000E-08
0 	1.16043e-09 	0.92 	0.04 	0.04 	0.0291531 	0 	
-0.0291573 	-0.0409067 	0.0117495 	1.67051 	8.65682e-09 	0.835556 	29.2456 	
1.84841e-10 	91448.4 	916.789 	1145.99 	0.35 	8.53017 	0.195906 	4.37444e-05 	
0.00379119 	0.000947796 	
8.74889e-05 	3.48129e-09 	0.92 	0.04 	0.04 	0.0291531 	-3.82394e-09 	
-0.0291572 	-0.0409067 	0.0117495 	3.34103 	2.59705e-08 	3.34223 	26.7389 	
3.69682e-10 	182897 	1833.58 	2291.97 	0.35 	17.0603 	0.195906 	8.74889e-05 	
0.00758237 	0.00189559 	
0.000174978 	5.80217e-09 	0.92 	0.04 	0.04 	0.029153 	-7.19802e-09 	
-0.0291572 	-0.0409067 	0.0117495 	3.34104 	4.32842e-08 	6.68446 	23.3966 	
3.69684e-10 	182897 	1833.58 	2291.97 	0.35 	17.0603 	0.195907 	8.74889e-05 	
0.00758237 	0.00189559 	
0.000262467 	8.12306e-09 	0.92 	0.04 	0.04 	0.029153 	-1.01222e-08 	
-0.0291571 	-0.0409067 	0.0117496 	3.34106 	6.05981e-08 	10.0267 	20.0544 	
3.69687e-10 	182897 	1833.58 	2291.97 	0.35 	17.0603 	0.195908 	8.74889e-05 	
0.00758237 	0.00189559 	
0.000349956 	1.0444e-08 	0.92 	0.04 	0.04 	0.0291529 	-1.25966e-08 	
-0.029157 	-0.0409067 	0.0117497 	3.3411 	7.79121e-08 	13.369 	16.7121 	
3.69691e-10 	182897 	1833.58 	2291.97 	0.35 	17.0603 	0.19591 	8.74889e-05 	
0.00758237 	0.00189559 	
0.000437444 	1.27649e-08 	0.92 	0.04 	0.04 	0.0291527 	-1.46211e-08 	
-0.0291569 	-0.0409067 	0.0117498 	3.34114 	9.52263e-08 	16.7113 	13.3698 	
3.69696e-10 	182897 	1833.58 	2291.97 	0.35 	17.0603 	0.195913 	8.74889e-05 	
0.00758237 	0.00189559 	
0.000524933 	1.50859e-08 	0.92 	0.04 	0.04 	0.0291525 	-1.61957e-08 	
-0.0291567 	-0.0409067 	0.01175 	3.34119 	1.12541e-07 	20.0537 	10.0274 	
3.69702e-10 	182897 	1833.58 	2291.97 	0.35 	17.0603 	0.195916 	8.74889e-05 	
0.00758237 	0.00189559 	
0.000612422 	1.74069e-08 	0.92 	0.04 	0.04 	0.0291523 	-1.73204e-08 	
-0.0291565 	-0.0409067 	0.0117502 	3.34124 	1.29856e-07 	23.3961 	6.68503 	
3.69709e-10 	182897 	1833.58 	2291.97 	0.35 	17.0603 	0.195919 	8.74889e-05 	
0.00758237 	0.00189559 	
0.000699911 	1.97279e-08 	0.92 	0.04 	0.04 	0.0291521 	-1.79953e-08 	
-0.0291563 	-0.0409067 	0.0117505 	3.34131 	1.47171e-07 	26.7386 	3.34255 	
3.69718e-10 	182897 	1833.58 	2291.97 	0.35 	17.0603 	0.195923 	8.74889e-05 	
0.00758237 	0.00189559 	
0.0007874 	2.08885e-08 	0.92 	0.04 	0.04 	0.0291518 	-1.82202e-08 	
-0.029156 	-0.0409067 	0.0117507 	1.6707 	1.47171e-07 	29.2455 	0.835647 	
1.84864e-10 	91448.4 	916.789 	1145.99 	0.35 	8.53017 	0.195928 	4.37444e-05 	
0.00379119 	0.000947796 	
ZONE T = "t = 7.75e-08 [s]" I = 10 SOLUTIONTIME = 7.7500000000000E-08
0 	1.16043e-09 	0.92 	0.04 	0.04 	0.0291531 	0 	
-0.0291531 	-0.0409067 	0.0117536 	1.67111 	8.65993e-09 	0.835556 	29.2456 	
2.47666e-10 	91448.4 	916.789 	1145.99 	0.35 	8.53017 	0.195906 	4.37444e-05 	
0.00379119 	0.000947796 	
8.74889e-05 	3.48129e-09 	0.92 	0.04 	0.04 	0.0291531 	-3.82394e-09 	
-0.0291531 	-0.0409067 	0.0117536 	3.34223 	2.59798e-08 	3.34223 	26.7389 	
4.95332e-10 	182897 	1833.58 	2291.97 	0.35 	17.0603 	0.195906 	8.74889e-05 	
0.00758237 	0.00189559 	
0.000174978 	5.80217e-09 	0.92 	0.04 	0.04 	0.029153 	-7.19802e-09 	
-0.029153 	-0.0409067 	0.0117537 	3.34224 	4.32998e-08 	6.68446 	23.3966 	
4.95334e-10 	182897 	1833.58 	2291.97 	0.35 	17.0603 	0.195907 	8.74889e-05 	
0.00758237 	0.00189559 	
0.000262467 	8.12306e-09 	0.92 	0.04 	0.04 	0.029153 	-1.01222e-08 	
-0.029153 	-0.0409067 	0.0117537 	3.34226 	6.06198e-08 	10.0267 	20.0544 	
4.95337e-10 	182897 	1833.58 	2291.97 	0.35 	17.0603 	0.195908 	8.74889e-05 	
0.00758237 	0.00189559 	
0.000349956 	1.0444e-08 	0.92 	0.04 	0.04 	0.0291529 	-1.25966e-08 	
-0.0291529 	-0.0409067 	0.0117538 	3.34229 	7.794e-08 	13.369 	16.7121 	
4.95343e-10 	182897 	1833.58 	2291.97 	0.35 	17.0603 	0.19591 	8.74889e-05 	
0.00758237 	0.00189559 	
0.000437444 	1.27649e-08 	0.92 	0.04 	0.04 	0.0291527 	-1.46211e-08 	
-0.0291527 	-0.0409067 	0.011754 	3.34234 	9.52605e-08 	16.7113 	13.3698 	
4.95349e-10 	182897 	1833.58 	2291.97 	0.35 	17.0603 	0.195913 	8.74889e-05 	
0.00758237 	0.00189559 	
0.000524933 	1.50859e-08 	0.92 	0.04 	0.04 	0.0291525 	-1.61957e-08 	
-0.0291526 	-0.0409067 	0.0117542 	3.34238 	1.12581e-07 	20.0537 	10.0274 	
4.95357e-10 	182897 	1833.58 	2291.97 	0.35 	17.0603 	0.195916 	8.74889e-05 	
0.00758237 	0.00189559 	
0.000612422 	1.74069e-08 	0.92 	0.04 	0.04 	0.0291523 	-1.73204e-08 	
-0.0291523 	-0.0409067 	0.0117544 	3.34244 	1.29902e-07 	23.3961 	6.68503 	
4.95367e-10 	182897 	1833.58 	2291.97 	0.35 	17.0603 	0.195919 	8.74889e-05 	
0.00758237 	0.00189559 	
0.000699911 	1.97279e-08 	0.92 	0.04 	0.04 	0.0291521 	-1.79953e-08 	
-0.0291521 	-0.0409067 	0.0117546 	3.34251 	1.47224e-07 	26.7386 	3.34255 	
4.95378e-10 	182897 	1833.58 	2291.97 	0.35 	17.0603 	0.195923 	8.74889e-05 	
0.00758237 	0.00189559 	
0.0007874 	2.08885e-08 	0.92 	0.04 	0.04 	0.0291518 	-1.82202e-08 	
-0.0291518 	-0.0409067 	0.0117549 	1.67129 	1.47224e-07 	29.2455 	0.835647 	
2.47695e-10 	91448.4 	916.789 	1145.99 	0.35 	8.53017 	0.195928 	4.37444e-05 	
0.00379119 	0.000947796 	
ZONE T = "t = 1.1125e-07 [s]" I = 10 SOLUTIONTIME = 1.1125000000000E-07
0 	1.16043e-09 	0.92 	0.04 	0.04 	0.0291531 	0 	
-0.0291531 	-0.0409067 	0.0117536 	1.67111 	8.65993e-09 	0.835556 	29.2456 	
3.41903e-10 	91448.4 	916.789 	1145.99 	0.35 	8.53017 	0.195906 	4.37444e-05 	
0.00379119 	0.000947796 	
8.74889e-05 	3.48129e-09 	0.92 	0.04 	0.04 	0.0291531 	-3.82394e-09 	
-0.0291531 	-0.0409067 	0.0117536 	3.34223 	2.59798e-08 	3.34223 	26.7389 	
6.83806e-10 	182897 	1833.58 	2291.97 	0.35 	17.0603 	0.195906 	8.74889e-05 	
0.00758237 	0.00189559 	
0.000174978 	5.80217e-09 	0.92 	0.04 	0.04 	0.029153 	-7.19802e-09 	
-0.029153 	-0.0409067 	0.0117537 	3.34224 	4.32998e-08 	6.68446 	23.3966 	
6.83809e-10 	182897 	1833.58 	2291.97 	0.35 	17.0603 	0.195907 	8.74889e-05 	
0.00758237 	0.00189559 	
0.000262467 	8.12306e-09 	0.92 	0.04 	0.04 	0.029153 	-1.01222e-08 	
-0.029153 	-0.0409067 	0.0117537 	3.34226 	6.06198e-08 	10.0267 	20.0544 	
6.83814e-10 	182897 	1833.58 	2291.97 	0.35 	17.0603 	0.195908 	8.74889e-05 	
0.00758237 	0.00189559 	
0.000349956 	1.0444e-08 	0.92 	0.04 	0.04 	0.0291529 	-1.25966e-08 	
-0.0291529 	-0.0409067 	0.0117538 	3.34229 	7.794e-08 	13.369 	16.7121 	
6.8382e-10 	182897 	1833.58 	2291.97 	0.35 	17.0603 	0.19591 	8.74889e-05 	
0.00758237 	0.00189559 	
0.000437444 	1.27649e-08 	0.92 	0.04 	0.04 	0.0291527 	-1.46211e-08 	
-0.0291527 	-0.0409067 	0.011754 	3.34234 	9.52605e-08 	16.7113 	13.3698 	
6.83829e-10 	182897 	1833.58 	2291.97 	0.35 	17.0603 	0.195913 	8.74889e-05 	
0.00758237 	0.00189559 	
0.000524933 	1.50859e-08 	0.92 	0.04 	0.04 	0.0291525 	-1.61957e-08 	
-0.0291526 	-0.0409067 	0.0117542 	3.34238 	1.12581e-07 	20.0537 	10.0274 	
6.8384e-10 	182897 	1833.58 	2291.97 	0.35 	17.0603 	0.195916 	8.74889e-05 	
0.00758237 	0.00189559 	
0.000612422 	1.74069e-08 	0.92 	0.04 	0.04 	0.0291523 	-1.73204e-08 	
-0.0291523 	-0.0409067 	0.0117544 	3.34244 	1.29902e-07 	23.3961 	6.68503 	
6.83853e-10 	182897 	1833.58 	2291.97 	0.35 	17.0603 	0.195919 	8.74889e-05 	
0.00758237 	0.00189559 	
0.000699911 	1.97279e-08 	0.92 	0.04 	0.04 	0.0291521 	-1.79953e-08 	
-0.0291521 	-0.0409067 	0.0117546 	3.34251 	1.47224e-07 	26.7386 	3.34255 	
6.83868e-10 	182897 	1833.58 	2291.97 	0.35 	17.0603 	0.195923 	8.74889e-05 	
0.00758237 	0.00189559 	
0.0007874 	2.08885e-08 	0.92 	0.04 	0.04 	0.0291518 	-1.82202e-08 	
-0.0291518 	-0.0409067 	0.0117549 	1.67129 	1.47224e-07 	29.2455 	0.835647 	
3.41942e-10 	91448.4 	916.789 	1145.99 	0.35 	8.53017 	0.195928 	4.37444e-05 	
0.00379119 	0.000947796 	
ZONE T = "t = 1.61875e-07 [s]" I = 10 SOLUTIONTIME = 1.6187500000000E-07
0 	1.16043e-09 	0.92 	0.04 	0.04 	0.0291531 	0 	
-0.0291531 	-0.0409067 	0.0117536 	1.67111 	8.65993e-09 	0.835556 	29.2456 	
4.83258e-10 	91448.4 	916.789 	1145.99 	0.35 	8.53017 	0.195906 	4.37444e-05 	
0.00379119 	0.000947796 	
8.74889e-05 	3.48129e-09 	0.92 	0.04 	0.04 	0.0291531 	-3.82394e-09 	
-0.0291531 	-0.0409067 	0.0117536 	3.34223 	2.59798e-08 	3.34223 	26.7389 	
9.66517e-10 	182897 	1833.58 	2291.97 	0.35 	17.0603 	0.195906 	8.74889e-05 	
0.00758237 	0.00189559 	
0.000174978 	5.80217e-09 	0.92 	0.04 	0.04 	0.029153 	-7.19802e-09 	
-0.029153 	-0.0409067 	0.0117537 	3.34224 	4.32998e-08 	6.68446 	23.3966 	
9.66521e-10 	182897 	1833.58 	2291.97 	0.35 	17.0603 	0.195907 	8.74889e-05 	
0.00758237 	0.00189559 	
0.000262467 	8.12306e-09 	0.92 	0.04 	0.04 	0.029153 	-1.01222e-08 	
-0.029153 	-0.0409067 	0.0117537 	3.34226 	6.06198e-08 	10.0267 	20.0544 	
9.66528e-10 	182897 	1833.58 	2291.97 	0.35 	17.0603 	0.195908 	8.74889e-05 	
0.00758237 	0.00189559 	
0.000349956 	1.0444e-08 	0.92 	0.04 	0.04 	0.0291529 	-1.25966e-08 	
-0.0291529 	-0.0409067 	0.0117538 	3.34229 	7.794e-08 	13.369 	16.7121 	
9.66537e-10 	182897 	1833.58 	2291.97 	0.35 	17.0603 	0.19591 	8.74889e-05 	
0.00758237 	0.00189559 	
0.000437444 	1.27649e-08 	0.92 	0.04 	0.04 	0.0291527 	-1.46211e-08 	
-0.0291527 	-0.0409067 	0.011754 	3.34234 	9.52605e-08 	16.7113 	13.3698 	
9.66549e-10 	182897 	1833.58 	2291.97 	0.35 	17.0603 	0.195913 	8.74889e-05 	
0.00758237 	0.00189559 	
0.000524933 	1.50859e-08 	0.92 	0.04 	0.04 	0.0291525 	-1.61957e-08 	
-0.0291526 	-0.0409067 	0.0117542 	3.34238 	1.12581e-07 	20.0537 	10.0274 	
9.66565e-10 	182897 	1833.58 	2291.97 	0.35 	17.0603 	0.195916 	8.74889e-05 	
0.00758237 	0.00189559 	
0.000612422 	1.74069e-08 	0.92 	0.04 	0.04 	0.0291523 	-1.73204e-08 	
-0.0291523 	-0.0409067 	0.0117544 	3.34244 	1.29902e-07 	23.3961 	6.68503 	
9.66582e-10 	182897 	1833.58 	2291.97 	0.35 	17.0603 	0.195919 	8.74889e-05 	
0.00758237 	0.00189559 	
0.000699911 	1.97279e-08 	0.92 	0.04 	0.04 	0.0291521 	-1.79953e-08 	
-0.0291521 	-0.0409067 	0.0117546 	3.34251 	1.47224e-07 	26.7386 	3.34255 	
9.66603e-10 	182897 	1833.58 	2291.97 	0.35 	17.0603 	0.195923 	8.74889e-05 	
0.00758237 	0.00189559 	
0.0007874 	2.08885e-08 	0.92 	0.04 	0.04 	0.0291518 	-1.82202e-08 	
-0.0291518 	-0.0409067 	0.0117549 	1.67129 	1.47224e-07 	29.2455 	0.835647 	
4.83313e-10 	91448.4 	916.789 	1145.99 	0.35 	8.53017 	0.195928 	4.37444e-05 	
0.00379119 	0.000947796 	
ZONE T = "t = 2.37812e-07 [s]" I = 10 SOLUTIONTIME = 2.3781250000000E-07
0 	1.16043e-09 	0.92 	0.04 	0.04 	0.0291531 	0 	
-0.0291531 	-0.0409067 	0.0117536 	1.67111 	8.65993e-09 	0.835556 	29.2456 	
6.95291e-10 	91448.4 	916.789 	1145.99 	0.35 	8.53017 	0.195906 	4.37444e-05 	
0.00379119 	0.000947796 	
8.74889e-05 	3.48129e-09 	0.92 	0.04 	0.04 	0.0291531 	-3.82394e-09 	
-0.0291531 	-0.0409067 	0.0117536 	3.34223 	2.59798e-08 	3.34223 	26.7389 	
1.39058e-09 	182897 	1833.58 	2291.97 	0.35 	17.0603 	0.195906 	8.74889e-05 	
0.00758237 	0.00189559 	
0.000174978 	5.80217e-09 	0.92 	0.04 	0.04 	0.029153 	-7.19802e-09 	
-0.029153 	-0.0409067 	0.0117537 	3.34224 	4.32998e-08 	6.68446 	23.3966 	
1.39059e-09 	182897 	1833.58 	2291.97 	0.35 	17.0603 	0.195907 	8.74889e-05 	
0.00758237 	0.00189559 	
0.000262467 	8.12306e-09 	0.92 	0.04 	0.04 	0.029153 	-1.01222e-08 	
-0.029153 	-0.0409067 	0.0117537 	3.34226 	6.06198e-08 	10.0267 	20.0544 	
1.3906e-09 	182897 	1833.58 	2291.97 	0.35 	17.0603 	0.195908 	8.74889e-05 	
0.00758237 	0.00189559 	
0.000349956 	1.0444e-08 	0.92 	0.04 	0.04 	0.0291529 	-1.25966e-08 	
-0.0291529 	-0.0409067 	0.0117538 	3.34229 	7.794e-08 	13.369 	16.7121 	
1.39061e-09 	182897 	1833.58 	2291.97 	0.35 	17.0603 	0.19591 	8.74889e-05 	
0.00758237 	0.00189559 	
0.000437444 	1.27649e-08 	0.92 	0.04 	0.04 	0.0291527 	-1.46211e-08 	
-0.0291527 	-0.0409067 	0.011754 	3.34234 	9.52605e-08 	16.7113 	13.3698 	
1.39063e-09 	182897 	1833.58 	2291.97 	0.35 	17.0603 	0.195913 	8.74889e-05 	
0.00758237 	0.00189559 	
0.000524933 	1.50859e-08 	0.92 	0.04 	0.04 	0.0291525 	-1.61957e-08 	
-0.0291526 	-0.0409067 	0.0117542 	3.34238 	1.12581e-07 	20.0537 	10.0274 	
1.39065e-09 	182897 	1833.58 	2291.97 	0.35 	17.0603 	0.195916 	8.74889e-05 	
0.00758237 	0.00189559 	
0.000612422 	1.74069e-08 	0.92 	0.04 	0.04 	0.0291523 	-1.73204e-08 	
-0.0291523 	-0.0409067 	0.0117544 	3.34244 	1.29902e-07 	23.3961 	6.68503 	
1.39068e-09 	182897 	1833.58 	2291.97 	0.35 	17.0603 	0.195919 	8.74889e-05 	
0.00758237 	0.00189559 	
0.000699911 	1.97279e-08 	0.92 	0.04 	0.04 	0.0291521 	-1.79953e-08 	
-0.0291521 	-0.0409067 	0.0117546 	3.34251 	1.47225e-07 	26.7386 	3.34255 	
1.39071e-09 	182897 	1833.58 	2291.97 	0.35 	17.0603 	0.195923 	8.74889e-05 	
0.00758237 	0.00189559 	
0.0007874 	2.08885e-08 	0.92 	0.04 	0.04 	0.0291518 	-1.82202e-08 	
-0.0291518 	-0.0409067 	0.0117549 	1.67129 	1.47225e-07 	29.2455 	0.835647 	
6.9537e-10 	91448.4 	916.789 	1145.99 	0.35 	8.53017 	0.195928 	4.37444e-05 	
0.00379119 	0.000947796 	
ZONE T = "t = 3.51719e-07 [s]" I = 10 SOLUTIONTIME = 3.5171875000000E-07
0 	1.16043e-09 	0.92 	0.04 	0.04 	0.0291531 	0 	
-0.0291531 	-0.0409067 	0.0117536 	1.67111 	8.65993e-09 	0.835556 	29.2456 	
1.01334e-09 	91448.4 	916.789 	1145.99 	0.35 	8.53017 	0.195906 	4.37444e-05 	
0.00379119 	0.000947796 	
8.74889e-05 	3.48129e-09 	0.92 	0.04 	0.04 	0.0291531 	-3.82394e-09 	
-0.0291531 	-0.0409067 	0.0117536 	3.34223 	2.59798e-08 	3.34223 	26.7389 	
2.02668e-09 	182897 	1833.58 	2291.97 	0.35 	17.0603 	0.195906 	8.74889e-05 	
0.00758237 	0.00189559 	
0.000174978 	5.80217e-09 	0.92 	0.04 	0.04 	0.029153 	-7.19802e-09 	
-0.029153 	-0.0409067 	0.0117537 	3.34224 	4.32998e-08 	6.68446 	23.3966 	
2.02669e-09 	182897 	1833.58 	2291.97 	0.35 	17.0603 	0.195907 	8.74889e-05 	
0.00758237 	0.00189559 	
0.000262467 	8.12306e-09 	0.92 	0.04 	0.04 	0.029153 	-1.01222e-08 	
-0.029153 	-0.0409067 	0.0117537 	3.34226 	6.06198e-08 	10.0267 	20.0544 	
2.02671e-09 	182897 	1833.58 	2291.97 	0.35 	17.0603 	0.195908 	8.74889e-05 	
0.00758237 	0.00189559 	
0.000349956 	1.0444e-08 	0.92 	0.04 	0.04 	0.0291529 	-1.25966e-08 	
-0.0291529 	-0.0409067 	0.0117538 	3.34229 	7.794e-08 	13.369 	16.7121 	
2.02673e-09 	182897 	1833.58 	2291.97 	0.35 	17.0603 	0.19591 	8.74889e-05 	
0.00758237 	0.00189559 	
0.000437444 	1.27649e-08 	0.92 	0.04 	0.04 	0.0291527 	-1.46211e-08 	
-0.0291527 	-0.0409067 	0.011754 	3.34234 	9.52605e-08 	16.7113 	13.3698 	
2.02675e-09 	182897 	1833.58 	2291.97 	0.35 	17.0603 	0.195913 	8.74889e-05 	
0.00758237 	0.00189559 	
0.000524933 	1.50859e-08 	0.92 	0.04 	0.04 	0.0291525 	-1.61957e-08 	
-0.0291526 	-0.0409067 	0.0117542 	3.34238 	1.12581e-07 	20.0537 	10.0274 	
2.02678e-09 	182897 	1833.58 	2291.97 	0.35 	17.0603 	0.195916 	8.74889e-05 	
0.00758237 	0.00189559 	
0.000612422 	1.74069e-08 	0.92 	0.04 	0.04 	0.0291523 	-1.73204e-08 	
-0.0291523 	-0.0409067 	0.0117544 	3.34244 	1.29902e-07 	23.3961 	6.68503 	
2.02682e-09 	182897 	1833.58 	2291.97 	0.35 	17.0603 	0.195919 	8.74889e-05 	
0.00758237 	0.00189559 	
0.000699911 	1.97279e-08 	0.92 	0.04 	0.04 	0.0291521 	-1.79953e-08 	
-0.0291521 	-0.0409067 	0.0117546 	3.34251 	1.47225e-07 	26.7386 	3.34255 	
2.02686e-09 	182897 	1833.58 	2291.97 	0.35 	17.0603 	0.195923 	8.74889e-05 	
0.00758237 	0.00189559 	
0.0007874 	2.08885e-08 	0.92 	0.04 	0.04 	0.0291518 	-1.82202e-08 	
-0.0291518 	-0.0409067 	0.0117549 	1.67129 	1.47225e-07 	29.2455 	0.835647 	
1.01345e-09 	91448.4 	916.789 	1145.99 	0.35 	8.53017 	0.195928 	4.37444e-05 	
0.00379119 	0.000947796 	
ZONE T = "t = 5.22578e-07 [s]" I = 10 SOLUTIONTIME = 5.2257812500000E-07
0 	1.16043e-09 	0.92 	0.04 	0.04 	0.0291531 	0 	
-0.0291531 	-0.0409067 	0.0117536 	1.67111 	8.65993e-09 	0.835556 	29.2456 	
1.49042e-09 	91448.4 	916.789 	1145.99 	0.35 	8.53017 	0.195906 	4.37444e-05 	
0.00379119 	0.000947796 	
8.74889e-05 	3.48129e-09 	0.92 	0.04 	0.04 	0.0291531 	-3.82394e-09 	
-0.0291531 	-0.0409067 	0.0117536 	3.34223 	2.59798e-08 	3.34223 	26.7389 	
2.98083e-09 	182897 	1833.58 	2291.97 	0.35 	17.0603 	0.195906 	8.74889e-05 	
0.00758237 	0.00189559 	
0.000174978 	5.80217e-09 	0.92 	0.04 	0.04 	0.029153 	-7.19802e-09 	
-0.029153 	-0.0409067 	0.0117537 	3.34224 	4.32998e-08 	6.68446 	23.3966 	
2.98085e-09 	182897 	1833.58 	2291.97 	0.35 	17.0603 	0.195907 	8.74889e-05 	
0.00758237 	0.00189559 	
0.000262467 	8.12306e-09 	0.92 	0.04 	0.04 	0.029153 	-1.01222e-08 	
-0.029153 	-0.0409067 	0.0117537 	3.34226 	6.06198e-08 	10.0267 	20.0544 	
2.98087e-09 	182897 	1833.58 	2291.97 	0.35 	17.0603 	0.195908 	8.74889e-05 	
0.00758237 	0.00189559 	
0.000349956 	1.0444e-08 	0.92 	0.04 	0.04 	0.0291529 	-1.25966e-08 	
-0.0291529 	-0.0409067 	0.0117538 	3.34229 	7.794e-08 	13.369 	16.7121 	
2.98089e-09 	182897 	1833.58 	2291.97 	0.35 	17.0603 	0.19591 	8.74889e-05 	
0.00758237 	0.00189559 	
0.000437444 	1.27649e-08 	0.92 	0.04 	0.04 	0.0291527 	-1.46211e-08 	
-0.0291527 	-0.0409067 	0.011754 	3.34234 	9.52605e-08 	16.7113 	13.3698 	
2.98093e-09 	182897 	1833.58 	2291.97 	0.35 	17.0603 	0.195913 	8.74889e-05 	
0.00758237 	0.00189559 	
0.000524933 	1.50859e-08 	0.92 	0.04 	0.04 	0.0291525 	-1.61957e-08 	
-0.0291526 	-0.0409067 	0.0117542 	3.34238 	1.12581e-07 	20.0537 	10.0274 	
2.98098e-09 	182897 	1833.58 	2291.97 	0.35 	17.0603 	0.195916 	8.74889e-05 	
0.00758237 	0.00189559 	
0.000612422 	1.74069e-08 	0.92 	0.04 	0.04 	0.0291523 	-1.73204e-08 	
-0.0291523 	-0.0409067 	0.0117544 	3.34244 	1.29902e-07 	23.3961 	6.68503 	
2.98103e-09 	182897 	1833.58 	2291.97 	0.35 	17.0603 	0.195919 	8.74889e-05 	
0.00758237 	0.00189559 	
0.000699911 	1.97279e-08 	0.92 	0.04 	0.04 	0.0291521 	-1.79953e-08 	
-0.0291521 	-0.0409067 	0.0117546 	3.34251 	1.47226e-07 	26.7386 	3.34255 	
2.98109e-09 	182897 	1833.58 	2291.97 	0.35 	17.0603 	0.195923 	8.74889e-05 	
0.00758237 	0.00189559 	
0.0007874 	2.08885e-08 	0.92 	0.04 	0.04 	0.0291518 	-1.82202e-08 	
-0.0291518 	-0.0409067 	0.0117549 	1.67129 	1.47226e-07 	29.2455 	0.835647 	
1.49058e-09 	91448.4 	916.789 	1145.99 	0.35 	8.53017 	0.195928 	4.37444e-05 	
0.00379119 	0.000947796 	
ZONE T = "t = 7.78867e-07 [s]" I = 10 SOLUTIONTIME = 7.7886718750000E-07
0 	1.16043e-09 	0.92 	0.04 	0.04 	0.0291531 	0 	
-0.0291531 	-0.0409067 	0.0117536 	1.67111 	8.65993e-09 	0.835556 	29.2456 	
2.20603e-09 	91448.4 	916.789 	1145.99 	0.35 	8.53017 	0.195906 	4.37444e-05 	
0.00379119 	0.000947796 	
8.74889e-05 	3.48129e-09 	0.92 	0.04 	0.04 	0.0291531 	-3.82394e-09 	
-0.0291531 	-0.0409067 	0.0117536 	3.34223 	2.59798e-08 	3.34223 	26.7389 	
4.41206e-09 	182897 	1833.58 	2291.97 	0.35 	17.0603 	0.195906 	8.74889e-05 	
0.00758237 	0.00189559 	
0.000174978 	5.80217e-09 	0.92 	0.04 	0.04 	0.029153 	-7.19802e-09 	
-0.029153 	-0.0409067 	0.0117537 	3.34224 	4.32998e-08 	6.68446 	23.3966 	
4.41208e-09 	182897 	1833.58 	2291.97 	0.35 	17.0603 	0.195907 	8.74889e-05 	
0.00758237 	0.00189559 	
0.000262467 	8.12306e-09 	0.92 	0.04 	0.04 	0.029153 	-1.01222e-08 	
-0.029153 	-0.0409067 	0.0117537 	3.34226 	6.06198e-08 	10.0267 	20.0544 	
4.41211e-09 	182897 	1833.58 	2291.97 	0.35 	17.0603 	0.195908 	8.74889e-05 	
0.00758237 	0.00189559 	
0.000349956 	1.0444e-08 	0.92 	0.04 	0.04 	0.0291529 	-1.25966e-08 	
-0.0291529 	-0.0409067 	0.0117538 	3.34229 	7.794e-08 	13.369 	16.7121 	
4.41215e-09 	182897 	1833.58 	2291.97 	0.35 	17.0603 	0.19591 	8.74889e-05 	
0.00758237 	0.00189559 	
0.000437444 	1.27649e-08 	0.92 	0.04 	0.04 	0.0291527 	-1.46211e-08 	
-0.0291527 	-0.0409067 	0.011754 	3.34234 	9.52605e-08 	16.7113 	13.3698 	
4.4122e-09 	182897 	1833.58 	2291.97 	0.35 	17.0603 	0.195913 	8.74889e-05 	
0.00758237 	0.00189559 	
0.000524933 	1.50859e-08 	0.92 	0.04 	0.04 	0.0291525 	-1.61957e-08 	
-0.0291526 	-0.0409067 	0.0117542 	3.34238 	1.12581e-07 	20.0537 	10.0274 	
4.41227e-09 	182897 	1833.58 	2291.97 	0.35 	17.0603 	0.195916 	8.74889e-05 	
0.00758237 	0.00189559 	
0.000612422 	1.74069e-08 	0.92 	0.04 	0.04 	0.0291523 	-1.73204e-08 	
-0.0291523 	-0.0409067 	0.0117544 	3.34244 	1.29902e-07 	23.3961 	6.68503 	
4.41235e-09 	182897 	1833.58 	2291.97 	0.35 	17.0603 	0.195919 	8.74889e-05 	
0.00758237 	0.00189559 	
0.000699911 	1.97279e-08 	0.92 	0.04 	0.04 	0.0291521 	-1.79953e-08 	
-0.0291521 	-0.0409067 	0.0117546 	3.34251 	1.47227e-07 	26.7386 	3.34255 	
4.41244e-09 	182897 	1833.58 	2291.97 	0.35 	17.0603 	0.195923 	8.74889e-05 	
0.00758237 	0.00189559 	
0.0007874 	2.08885e-08 	0.92 	0.04 	0.04 	0.0291518 	-1.82202e-08 	
-0.0291518 	-0.0409067 	0.0117549 	1.67129 	1.47227e-07 	29.2455 	0.835647 	
2.20627e-09 	91448.4 	916.789 	1145.99 	0.35 	8.53017 	0.195928 	4.37444e-05 	
0.00379119 	0.000947796 	
ZONE T = "t = 1.1633e-06 [s]" I = 10 SOLUTIONTIME = 1.1633007812500E-06
0 	1.16043e-09 	0.92 	0.04 	0.04 	0.0291531 	0 	
-0.0291531 	-0.0409067 	0.0117536 	1.67111 	8.65993e-09 	0.835556 	29.2456 	
3.27945e-09 	91448.4 	916.789 	1145.99 	0.35 	8.53017 	0.195906 	4.37444e-05 	
0.00379119 	0.000947796 	
8.74889e-05 	3.48129e-09 	0.92 	0.04 	0.04 	0.0291531 	-3.82394e-09 	
-0.0291531 	-0.0409067 	0.0117536 	3.34223 	2.59798e-08 	3.34223 	26.7389 	
6.5589e-09 	182897 	1833.58 	2291.97 	0.35 	17.0603 	0.195906 	8.74889e-05 	
0.00758237 	0.00189559 	
0.000174978 	5.80217e-09 	0.92 	0.04 	0.04 	0.029153 	-7.19802e-09 	
-0.029153 	-0.0409067 	0.0117537 	3.34224 	4.32998e-08 	6.68446 	23.3966 	
6.55892e-09 	182897 	1833.58 	2291.97 	0.35 	17.0603 	0.195907 	8.74889e-05 	
0.00758237 	0.00189559 	
0.000262467 	8.12306e-09 	0.92 	0.04 	0.04 	0.029153 	-1.01222e-08 	
-0.029153 	-0.0409067 	0.0117537 	3.34226 	6.06198e-08 	10.0267 	20.0544 	
6.55897e-09 	182897 	1833.58 	2291.97 	0.35 	17.0603 	0.195908 	8.74889e-05 	
0.00758237 	0.00189559 	
0.000349956 	1.0444e-08 	0.92 	0.04 	0.04 	0.0291529 	-1.25966e-08 	
-0.0291529 	-0.0409067 	0.0117538 	3.34229 	7.794e-08 	13.369 	16.7121 	
6.55903e-09 	182897 	1833.58 	2291.97 	0.35 	17.0603 	0.19591 	8.74889e-05 	
0.00758237 	0.00189559 	
0.000437444 	1.27649e-08 	0.92 	0.04 	0.04 	0.0291527 	-1.46211e-08 	
-0.0291527 	-0.0409067 	0.011754 	3.34234 	9.52605e-08 	16.7113 	13.3698 	
6.55911e-09 	182897 	1833.58 	2291.97 	0.35 	17.0603 	0.195913 	8.74889e-05 	
0.00758237 	0.00189559 	
0.000524933 	1.50859e-08 	0.92 	0.04 	0.04 	0.0291525 	-1.61957e-08 	
-0.0291526 	-0.0409067 	0.0117542 	3.34238 	1.12581e-07 	20.0537 	10.0274 	
6.55921e-09 	182897 	1833.58 	2291.97 	0.35 	17.0603 	0.195916 	8.74889e-05 	
0.00758237 	0.00189559 	
0.000612422 	1.74069e-08 	0.92 	0.04 	0.04 	0.0291523 	-1.73204e-08 	
-0.0291523 	-0.0409067 	0.0117544 	3.34244 	1.29902e-07 	23.3961 	6.68503 	
6.55932e-09 	182897 	1833.58 	2291.97 	0.35 	17.0603 	0.195919 	8.74889e-05 	
0.00758237 	0.00189559 	
0.000699911 	1.97279e-08 	0.92 	0.04 	0.04 	0.0291521 	-1.79953e-08 	
-0.0291521 	-0.0409067 	0.0117546 	3.34251 	1.47229e-07 	26.7386 	3.34255 	
6.55946e-09 	182897 	1833.58 	2291.97 	0.35 	17.0603 	0.195923 	8.74889e-05 	
0.00758237 	0.00189559 	
0.0007874 	2.08885e-08 	0.92 	0.04 	0.04 	0.0291518 	-1.82202e-08 	
-0.0291518 	-0.0409067 	0.0117549 	1.67129 	1.47229e-07 	29.2455 	0.835647 	
3.27981e-09 	91448.4 	916.789 	1145.99 	0.35 	8.53017 	0.195928 	4.37444e-05 	
0.00379119 	0.000947796 	
ZONE T = "t = 1.73995e-06 [s]" I = 10 SOLUTIONTIME = 1.7399511718750E-06
0 	1.16043e-09 	0.92 	0.04 	0.04 	0.0291531 	0 	
-0.0291531 	-0.0409067 	0.0117536 	1.67111 	8.65993e-09 	0.835556 	29.2456 	
4.88957e-09 	91448.4 	916.789 	1145.99 	0.35 	8.53017 	0.195906 	4.37444e-05 	
0.00379119 	0.000947796 	
8.74889e-05 	3.48129e-09 	0.92 	0.04 	0.04 	0.0291531 	-3.82394e-09 	
-0.0291531 	-0.0409067 	0.0117536 	3.34223 	2.59798e-08 	3.34223 	26.7389 	
9.77916e-09 	182897 	1833.58 	2291.97 	0.35 	17.0603 	0.195906 	8.74889e-05 	
0.00758237 	0.00189559 	
0.000174978 	5.80217e-09 	0.92 	0.04 	0.04 	0.029153 	-7.19802e-09 	
-0.029153 	-0.0409067 	0.0117537 	3.34224 	4.32998e-08 	6.68446 	23.3966 	
9.77919e-09 	182897 	1833.58 	2291.97 	0.35 	17.0603 	0.195907 	8.74889e-05 	
0.00758237 	0.00189559 	
0.000262467 	8.12306e-09 	0.92 	0.04 	0.04 	0.029153 	-1.01222e-08 	
-0.029153 	-0.0409067 	0.0117537 	3.34226 	6.06198e-08 	10.0267 	20.0544 	
9.77926e-09 	182897 	1833.58 	2291.97 	0.35 	17.0603 	0.195908 	8.74889e-05 	
0.00758237 	0.00189559 	
0.000349956 	1.0444e-08 	0.92 	0.04 	0.04 	0.0291529 	-1.25966e-08 	
-0.0291529 	-0.0409067 	0.0117538 	3.34229 	7.794e-08 	13.369 	16.7121 	
9.77935e-09 	182897 	1833.58 	2291.97 	0.35 	17.0603 	0.19591 	8.74889e-05 	
0.00758237 	0.00189559 	
0.000437444 	1.27649e-08 	0.92 	0.04 	0.04 	0.0291527 	-1.46211e-08 	
-0.0291527 	-0.0409067 	0.011754 	3.34234 	9.52605e-08 	16.7113 	13.3698 	
9.77947e-09 	182897 	1833.58 	2291.97 	0.35 	17.0603 	0.195913 	8.74889e-05 	
0.00758237 	0.00189559 	
0.000524933 	1.50859e-08 	0.92 	0.04 	0.04 	0.0291525 	-1.61957e-08 	
-0.0291526 	-0.0409067 	0.0117542 	3.34238 	1.12581e-07 	20.0537 	10.0274 	
9.77961e-09 	182897 	1833.58 	2291.97 	0.35 	17.0603 	0.195916 	8.74889e-05 	
0.00758237 	0.00189559 	
0.000612422 	1.74069e-08 	0.92 	0.04 	0.04 	0.0291523 	-1.73204e-08 	
-0.0291523 	-0.0409067 	0.0117544 	3.34244 	1.29902e-07 	23.3961 	6.68503 	
9.77979e-09 	182897 	1833.58 	2291.97 	0.35 	17.0603 	0.195919 	8.74889e-05 	
0.00758237 	0.00189559 	
0.000699911 	1.97279e-08 	0.92 	0.04 	0.04 	0.0291521 	-1.79953e-08 	
-0.0291521 	-0.0409067 	0.0117546 	3.34251 	1.47232e-07 	26.7386 	3.34255 	
9.77999e-09 	182897 	1833.58 	2291.97 	0.35 	17.0603 	0.195923 	8.74889e-05 	
0.00758237 	0.00189559 	
0.0007874 	2.08885e-08 	0.92 	0.04 	0.04 	0.0291518 	-1.82202e-08 	
-0.0291518 	-0.0409067 	0.0117549 	1.67129 	1.47232e-07 	29.2455 	0.835647 	
4.89011e-09 	91448.4 	916.789 	1145.99 	0.35 	8.53017 	0.195928 	4.37444e-05 	
0.00379119 	0.000947796 	
ZONE T = "t = 2.60493e-06 [s]" I = 10 SOLUTIONTIME = 2.6049267578125E-06
0 	1.16043e-09 	0.92 	0.04 	0.04 	0.0291531 	0 	
-0.0291531 	-0.0409067 	0.0117536 	1.67111 	8.65993e-09 	0.835556 	29.2456 	
7.30476e-09 	91448.4 	916.789 	1145.99 	0.35 	8.53017 	0.195906 	4.37444e-05 	
0.00379119 	0.000947796 	
8.74889e-05 	3.48129e-09 	0.92 	0.04 	0.04 	0.0291531 	-3.82394e-09 	
-0.0291531 	-0.0409067 	0.0117536 	3.34223 	2.59798e-08 	3.34223 	26.7389 	
1.46095e-08 	182897 	1833.58 	2291.97 	0.35 	17.0603 	0.195906 	8.74889e-05 	
0.00758237 	0.00189559 	
0.000174978 	5.80217e-09 	0.92 	0.04 	0.04 	0.029153 	-7.19802e-09 	
-0.029153 	-0.0409067 	0.0117537 	3.34224 	4.32998e-08 	6.68446 	23.3966 	
1.46096e-08 	182897 	1833.58 	2291.97 	0.35 	17.0603 	0.195907 	8.74889e-05 	
0.00758237 	0.00189559 	
0.000262467 	8.12306e-09 	0.92 	0.04 	0.04 	0.029153 	-1.01222e-08 	
-0.029153 	-0.0409067 	0.0117537 	3.34226 	6.06198e-08 	10.0267 	20.0544 	
1.46097e-08 	182897 	1833.58 	2291.97 	0.35 	17.0603 	0.195908 	8.74889e-05 	
0.00758237 	0.00189559 	
0.000349956 	1.0444e-08 	0.92 	0.04 	0.04 	0.0291529 	-1.25966e-08 	
-0.0291529 	-0.0409067 	0.0117538 	3.34229 	7.794e-08 	13.369 	16.7121 	
1.46098e-08 	182897 	1833.58 	2291.97 	0.35 	17.0603 	0.19591 	8.74889e-05 	
0.00758237 	0.00189559 	
0.000437444 	1.27649e-08 	0.92 	0.04 	0.04 	0.0291527 	-1.46211e-08 	
-0.0291527 	-0.0409067 	0.011754 	3.34234 	9.52605e-08 	16.7113 	13.3698 	
1.461e-08 	182897 	1833.58 	2291.97 	0.35 	17.0603 	0.195913 	8.74889e-05 	
0.00758237 	0.00189559 	
0.000524933 	1.50859e-08 	0.92 	0.04 	0.04 	0.0291525 	-1.61957e-08 	
-0.0291526 	-0.0409067 	0.0117542 	3.34238 	1.12581e-07 	20.0537 	10.0274 	
1.46102e-08 	182897 	1833.58 	2291.97 	0.35 	17.0603 	0.195916 	8.74889e-05 	
0.00758237 	0.00189559 	
0.000612422 	1.74069e-08 	0.92 	0.04 	0.04 	0.0291523 	-1.73204e-08 	
-0.0291523 	-0.0409067 	0.0117544 	3.34244 	1.29902e-07 	23.3961 	6.68503 	
1.46105e-08 	182897 	1833.58 	2291.97 	0.35 	17.0603 	0.195919 	8.74889e-05 	
0.00758237 	0.00189559 	