TITLE = "Solution on Domain BulkDomain1D_0"
VARIABLES = "x [m]"  
"Vel_axial" 	"MF_sp(ECDMC)" 	"MF_sp(Li+)" 	"MF_sp(PF6-)" 	"Volt(Electroly)" 	"Volt(AnodeVolt)" 	"Temperature" 	
"Potential Drop Electrode-Electrolyte [V]" 	"Surf_0 Equilibrium Potential Drop Electrode-Electrolyte [V]" 	"Overpotential_0 [V]" 	"Current Source [A/m^2]" 	"Li+ flux [kmol/m^2/s]" 	"Electrolyte Current [A/m^2]" 	"Electrode Current [A/m^2]" 	
"Capacity discharged [A-s]" 	"Depth of discharge [-]" 	"Capacity remaining [A-s]" 	"Initial capacity [A-s]" 	"Porosity []" 	"Surface Area [m2/m2] (area per area)" 	"Specific current (per particle area) [A/m^2]" 	"Control volume thickness [m]" 	
"Moles Li_C6-bulk [mol/m^2] (per electrode area)" 	"Moles V_C6-bulk [mol/m^2] (per electrode area)" 	"qHeat_accum [J/m3]" 	"qHeat_step [W/m3]" 	"Joule_Lyte [W/m3]" 	"Joule_Solid [W/m3]" 	"electrodHeat [W/m3]" 	"OverpotHeat [W/m3]" 	"deltaSHeat [W/m3]" 	

ZONE T = "t = 0 [s]" I = 10 SOLUTIONTIME = 0.0000000000000E+00
0 	0 	0.92 	0.04 	0.04 	-0.07 	0 	302 	
0 	0 	0 	0 	0 	0 	27.9186 	
0 	0 	0 	0 	0.35 	8.53017 	6.54585 	4.37444e-05 	
0.00379119 	0.000947796 	0 	0.0 	 0.0 	 0.0 	 0.0 	 0.0 	 0.0 	 
8.74889e-05 	0 	0.92 	0.04 	0.04 	-0.07 	0 	298.15 	
0 	0 	0 	0 	0 	0 	-0 	
0 	0 	0 	0 	0.35 	17.0603 	3.62598 	8.74889e-05 	
0.00758237 	0.00189559 	0 	0.0 	 0.0 	 0.0 	 0.0 	 0.0 	 0.0 	 
0.000174978 	0 	0.92 	0.04 	0.04 	-0.07 	0 	298.15 	
0 	0 	0 	0 	0 	0 	-0 	
0 	0 	0 	0 	0.35 	17.0603 	3.62598 	8.74889e-05 	
0.00758237 	0.00189559 	0 	0.0 	 0.0 	 0.0 	 0.0 	 0.0 	 0.0 	 
0.000262467 	0 	0.92 	0.04 	0.04 	-0.07 	0 	298.15 	
0 	0 	0 	0 	0 	0 	-0 	
0 	0 	0 	0 	0.35 	17.0603 	3.62598 	8.74889e-05 	
0.00758237 	0.00189559 	0 	0.0 	 0.0 	 0.0 	 0.0 	 0.0 	 0.0 	 
0.000349956 	0 	0.92 	0.04 	0.04 	-0.07 	0 	298.15 	
0 	0 	0 	0 	0 	0 	-0 	
0 	0 	0 	0 	0.35 	17.0603 	3.62598 	8.74889e-05 	
0.00758237 	0.00189559 	0 	0.0 	 0.0 	 0.0 	 0.0 	 0.0 	 0.0 	 
0.000437444 	0 	0.92 	0.04 	0.04 	-0.07 	0 	298.15 	
0 	0 	0 	0 	0 	0 	-0 	
0 	0 	0 	0 	0.35 	17.0603 	3.62598 	8.74889e-05 	
0.00758237 	0.00189559 	0 	0.0 	 0.0 	 0.0 	 0.0 	 0.0 	 0.0 	 
0.000524933 	0 	0.92 	0.04 	0.04 	-0.07 	0 	298.15 	
0 	0 	0 	0 	0 	0 	-0 	
0 	0 	0 	0 	0.35 	17.0603 	3.62598 	8.74889e-05 	
0.00758237 	0.00189559 	0 	0.0 	 0.0 	 0.0 	 0.0 	 0.0 	 0.0 	 
0.000612422 	0 	0.92 	0.04 	0.04 	-0.07 	0 	298.15 	
0 	0 	0 	0 	0 	0 	-0 	
0 	0 	0 	0 	0.35 	17.0603 	3.62598 	8.74889e-05 	
0.00758237 	0.00189559 	0 	0.0 	 0.0 	 0.0 	 0.0 	 0.0 	 0.0 	 
0.000699911 	0 	0.92 	0.04 	0.04 	-0.07 	0 	298.15 	
0 	0 	0 	0 	0 	0 	-0 	
0 	0 	0 	0 	0.35 	17.0603 	3.62598 	8.74889e-05 	
0.00758237 	0.00189559 	0 	0.0 	 0.0 	 0.0 	 0.0 	 0.0 	 0.0 	 
0.0007874 	0 	0.92 	0.04 	0.04 	-0.07 	0 	298.15 	
0 	0 	0 	0 	0 	15.4651 	0 	
0 	0 	0 	0 	0.35 	8.53017 	3.62598 	4.37444e-05 	
0.00379119 	0.000947796 	0 	0.0 	 0.0 	 0.0 	 0.0 	 0.0 	 0.0 	 
ZONE T = "t = 1e-08 [s]" I = 10 SOLUTIONTIME = 1.0000000000000E-08
0 	1.59749e-09 	0.92 	0.04 	0.04 	0.0342628 	0 	302 	
0.07 	-0.0436015 	0.113601 	55.8372 	-0 	1.15025 	33.3242 	
0 	45724.2 	848.03 	962.628 	0.35 	8.53017 	0.269691 	4.37444e-05 	
0.00379119 	0.000947796 	2.1386e-06 	213.86 	0.000577181 	0.00197533 	213.857 	213.857 	0 	
8.74889e-05 	4.66259e-09 	0.92 	0.04 	0.04 	0.0342627 	-5.3714e-09 	301.81 	
0.07 	-0.0409067 	0.110907 	61.8605 	-0 	4.5075 	29.967 	
0 	91448.4 	1696.06 	1925.26 	0.35 	17.0603 	0.258728 	8.74889e-05 	
0.00758237 	0.00189559 	1.64962e+06 	1.64962e+14 	0.00274549 	0.00172292 	1.64962e+14 	1.64962e+14 	0 	
0.000174978 	7.60241e-09 	0.92 	0.04 	0.04 	0.0342627 	-1.00059e-08 	301.62 	
0.07 	-0.0409067 	0.110907 	61.8605 	-0 	8.83129 	25.6432 	
0 	91448.4 	1696.06 	1925.26 	0.35 	17.0603 	0.248153 	8.74889e-05 	
0.00758237 	0.00189559 	1.56393e+06 	1.56393e+14 	0.00898465 	0.00126335 	1.56393e+14 	1.56393e+14 	0 	
0.000262467 	1.04214e-08 	0.92 	0.04 	0.04 	0.0342626 	-1.39336e-08 	301.43 	
0.07 	-0.0409067 	0.110907 	61.8605 	-0 	12.9779 	21.4966 	
0 	91448.4 	1696.06 	1925.26 	0.35 	17.0603 	0.237953 	8.74889e-05 	
0.00758237 	0.00189559 	1.47824e+06 	1.47824e+14 	0.0187863 	0.000889661 	1.47824e+14 	1.47824e+14 	0 	
0.000349956 	1.31238e-08 	0.92 	0.04 	0.04 	0.0342624 	-1.71835e-08 	301.24 	
0.07 	-0.0409067 	0.110907 	61.8605 	-0 	16.9535 	17.521 	
0 	91448.4 	1696.06 	1925.26 	0.35 	17.0603 	0.228116 	8.74889e-05 	
0.00758237 	0.00189559 	1.39255e+06 	1.39255e+14 	0.0316868 	0.00059302 	1.39255e+14 	1.39255e+14 	0 	
0.000437444 	1.57139e-08 	0.92 	0.04 	0.04 	0.0342623 	-1.97838e-08 	301.049 	
0.07 	-0.0409067 	0.110907 	61.8605 	-0 	20.7643 	13.7101 	
0 	91448.4 	1696.06 	1925.26 	0.35 	17.0603 	0.218631 	8.74889e-05 	
0.00758237 	0.00189559 	1.30687e+06 	1.30687e+14 	0.0472643 	0.000365322 	1.30687e+14 	1.30687e+14 	0 	
0.000524933 	1.81956e-08 	0.92 	0.04 	0.04 	0.034262 	-2.17613e-08 	300.859 	
0.07 	-0.0409067 	0.110907 	61.8605 	-0 	24.4162 	10.0582 	
0 	91448.4 	1696.06 	1925.26 	0.35 	17.0603 	0.209485 	8.74889e-05 	
0.00758237 	0.00189559 	1.22118e+06 	1.22118e+14 	0.0651351 	0.000199145 	1.22118e+14 	1.22118e+14 	0 	
0.000612422 	2.05736e-08 	0.92 	0.04 	0.04 	0.0342618 	-2.31422e-08 	300.669 	
0.07 	-0.0409067 	0.110907 	61.8605 	-0 	27.9149 	6.55956 	
0 	91448.4 	1696.06 	1925.26 	0.35 	17.0603 	0.200668 	8.74889e-05 	
0.00758237 	0.00189559 	1.13549e+06 	1.13549e+14 	0.084951 	8.76981e-05 	1.13549e+14 	1.13549e+14 	0 	
0.000699911 	2.28502e-08 	0.92 	0.04 	0.04 	0.0342615 	-2.39515e-08 	300.479 	
0.07 	-0.0409067 	0.110907 	61.8605 	-0 	31.2659 	3.2086 	
0 	91448.4 	1696.06 	1925.26 	0.35 	17.0603 	0.192169 	8.74889e-05 	
0.00758237 	0.00189559 	1.0498e+06 	1.0498e+14 	0.106396 	2.4773e-05 	1.0498e+14 	1.0498e+14 	0 	
0.0007874 	2.394e-08 	0.92 	0.04 	0.04 	0.0342612 	-2.42135e-08 	300.289 	
0.07 	-0.0409067 	0.110907 	30.9302 	-0 	33.6898 	0.784682 	
0 	45724.2 	848.03 	962.628 	0.35 	8.53017 	0.183978 	4.37444e-05 	
0.00379119 	0.000947796 	964116 	9.64116e+13 	0.117489 	4.69978e-06 	9.64116e+13 	9.64116e+13 	0 	
ZONE T = "t = 2e-08 [s]" I = 10 SOLUTIONTIME = 2.0000000000000E-08
0 	1.59749e-09 	0.92 	0.04 	0.04 	0.0342628 	0 	302 	
-0.0342628 	-0.0436015 	0.00933872 	2.30051 	1.19215e-08 	1.15025 	33.3242 	
5.76576e-11 	45724.2 	848.03 	962.628 	0.35 	8.53017 	0.269691 	4.37444e-05 	
0.00379119 	0.000947796 	9.55912e-06 	742.052 	0.00115436 	0.00395065 	742.05 	742.05 	0 	
8.74889e-05 	4.66259e-09 	0.92 	0.04 	0.04 	0.0342627 	-5.3714e-09 	301.81 	
-0.0342628 	-0.0434681 	0.00920538 	4.41399 	3.47954e-08 	4.5075 	29.967 	
1.10628e-10 	91448.4 	1696.06 	1925.26 	0.35 	17.0603 	0.258728 	8.74889e-05 	
0.00758237 	0.00189559 	1.64962e+06 	-34508.9 	0.00549099 	0.00344584 	-34508.9 	-34508.9 	0 	
0.000174978 	7.60314e-09 	0.92 	0.04 	0.04 	0.0342627 	-1.00059e-08 	301.62 	
-0.0342627 	-0.0433348 	0.0090721 	4.23358 	5.67344e-08 	8.83129 	25.6432 	
1.06106e-10 	91448.4 	1696.06 	1925.26 	0.35 	17.0603 	0.248153 	8.74889e-05 	
0.00758237 	0.00189559 	1.56393e+06 	-71126 	0.0179693 	0.0025267 	-71126 	-71126 	0 	
0.000262467 	1.04228e-08 	0.92 	0.04 	0.04 	0.0342626 	-1.39336e-08 	301.43 	
-0.0342626 	-0.0432015 	0.0089389 	4.05956 	7.77716e-08 	12.9779 	21.4966 	
1.01745e-10 	91448.4 	1696.06 	1925.26 	0.35 	17.0603 	0.237953 	8.74889e-05 	
0.00758237 	0.00189559 	1.47824e+06 	-105172 	0.0375725 	0.00177932 	-105172 	-105172 	0 	
0.000349956 	1.31253e-08 	0.92 	0.04 	0.04 	0.0342624 	-1.71835e-08 	301.24 	
-0.0342625 	-0.0430682 	0.00880577 	3.89174 	9.79391e-08 	16.9535 	17.521 	
9.75387e-11 	91448.4 	1696.06 	1925.26 	0.35 	17.0603 	0.228116 	8.74889e-05 	
0.00758237 	0.00189559 	1.39255e+06 	-141000 	0.0633736 	0.00118604 	-141000 	-141000 	0 	
0.000437444 	1.57154e-08 	0.92 	0.04 	0.04 	0.0342623 	-1.97838e-08 	301.049 	
-0.0342623 	-0.042935 	0.00867271 	3.72991 	1.17268e-07 	20.7643 	13.7101 	
9.34827e-11 	91448.4 	1696.06 	1925.26 	0.35 	17.0603 	0.218631 	8.74889e-05 	
0.00758237 	0.00189559 	1.30687e+06 	-177103 	0.0945286 	0.000730644 	-177104 	-177104 	0 	
0.000524933 	1.81971e-08 	0.92 	0.04 	0.04 	0.034262 	-2.17613e-08 	300.859 	
-0.0342621 	-0.0428018 	0.00853972 	3.57388 	1.35788e-07 	24.4162 	10.0582 	
8.95721e-11 	91448.4 	1696.06 	1925.26 	0.35 	17.0603 	0.209485 	8.74889e-05 	
0.00758237 	0.00189559 	1.22118e+06 	-211972 	0.13027 	0.00039829 	-211972 	-211972 	0 	
0.000612422 	2.05736e-08 	0.92 	0.04 	0.04 	0.0342618 	-2.31422e-08 	300.669 	
-0.0342618 	-0.0426686 	0.00840679 	3.42346 	1.53529e-07 	27.9149 	6.55956 	
8.58022e-11 	91448.4 	1696.06 	1925.26 	0.35 	17.0603 	0.200668 	8.74889e-05 	
0.00758237 	0.00189559 	1.13549e+06 	-247181 	0.169902 	0.000175396 	-247181 	-247181 	0 	
0.000699911 	2.28502e-08 	0.92 	0.04 	0.04 	0.0342615 	-2.39515e-08 	300.479 	
-0.0342615 	-0.0425355 	0.00827392 	3.27847 	1.70519e-07 	31.2659 	3.2086 	
8.21683e-11 	91448.4 	1696.06 	1925.26 	0.35 	17.0603 	0.192169 	8.74889e-05 	
0.00758237 	0.00189559 	1.0498e+06 	-282809 	0.212793 	4.9546e-05 	-282809 	-282809 	0 	
0.0007874 	2.39395e-08 	0.92 	0.04 	0.04 	0.0342612 	-2.42135e-08 	300.289 	
-0.0342612 	-0.0424023 	0.00814112 	1.56936 	1.70519e-07 	33.6898 	0.784682 	
3.9333e-11 	45724.2 	848.03 	962.628 	0.35 	8.53017 	0.183978 	4.37444e-05 	
0.00379119 	0.000947796 	964116 	-317913 	0.234978 	9.39956e-06 	-317913 	-317913 	0 	
ZONE T = "t = 3e-08 [s]" I = 10 SOLUTIONTIME = 3.0000000000000E-08
0 	1.59749e-09 	0.92 	0.04 	0.04 	0.0342628 	0 	302 	
-0.0342628 	-0.0436015 	0.00933872 	2.30051 	1.19216e-08 	1.15025 	33.3242 	
1.15315e-10 	45724.2 	848.03 	962.628 	0.35 	8.53017 	0.269691 	4.37444e-05 	
0.00379119 	0.000947796 	1.22486e-05 	268.948 	0.00173154 	0.00592598 	268.945 	268.945 	0 	
8.74889e-05 	4.66332e-09 	0.92 	0.04 	0.04 	0.0342627 	-5.3714e-09 	301.81 	
-0.0342628 	-0.0434681 	0.00920538 	4.41399 	3.47955e-08 	4.5075 	29.967 	
2.21256e-10 	91448.4 	1696.06 	1925.26 	0.35 	17.0603 	0.258728 	8.74889e-05 	
0.00758237 	0.00189559 	1.64962e+06 	-35105.1 	0.00823648 	0.00516875 	-35105.2 	-35105.2 	0 	
0.000174978 	7.60241e-09 	0.92 	0.04 	0.04 	0.0342627 	-1.00059e-08 	301.62 	
-0.0342627 	-0.0433348 	0.0090721 	4.23358 	5.67344e-08 	8.83129 	25.6432 	
2.12212e-10 	91448.4 	1696.06 	1925.26 	0.35 	17.0603 	0.248153 	8.74889e-05 	
0.00758237 	0.00189559 	1.56393e+06 	-70066.3 	0.0269539 	0.00379004 	-70066.4 	-70066.4 	0 	
0.000262467 	1.04207e-08 	0.92 	0.04 	0.04 	0.0342626 	-1.39336e-08 	301.43 	
-0.0342626 	-0.0432015 	0.0089389 	4.05956 	7.77716e-08 	12.9779 	21.4966 	
2.0349e-10 	91448.4 	1696.06 	1925.26 	0.35 	17.0603 	0.237953 	8.74889e-05 	
0.00758237 	0.00189559 	1.47824e+06 	-106051 	0.0563588 	0.00266898 	-106051 	-106051 	0 	
0.000349956 	1.31231e-08 	0.92 	0.04 	0.04 	0.0342624 	-1.71835e-08 	301.24 	
-0.0342625 	-0.0430682 	0.00880577 	3.89174 	9.79391e-08 	16.9535 	17.521 	
1.95077e-10 	91448.4 	1696.06 	1925.26 	0.35 	17.0603 	0.228116 	8.74889e-05 	
0.00758237 	0.00189559 	1.39255e+06 	-141162 	0.0950604 	0.00177906 	-141162 	-141162 	0 	
0.000437444 	1.57132e-08 	0.92 	0.04 	0.04 	0.0342623 	-1.97838e-08 	301.049 	
-0.0342623 	-0.042935 	0.00867271 	3.72991 	1.17268e-07 	20.7643 	13.7101 	
1.86965e-10 	91448.4 	1696.06 	1925.26 	0.35 	17.0603 	0.218631 	8.74889e-05 	
0.00758237 	0.00189559 	1.30687e+06 	-176284 	0.141793 	0.00109597 	-176284 	-176284 	0 	
0.000524933 	1.81949e-08 	0.92 	0.04 	0.04 	0.034262 	-2.17613e-08 	300.859 	
-0.0342621 	-0.0428018 	0.00853972 	3.57388 	1.35788e-07 	24.4162 	10.0582 	
1.79144e-10 	91448.4 	1696.06 	1925.26 	0.35 	17.0603 	0.209485 	8.74889e-05 	
0.00758237 	0.00189559 	1.22118e+06 	-211645 	0.195405 	0.000597435 	-211645 	-211645 	0 	
0.000612422 	2.05722e-08 	0.92 	0.04 	0.04 	0.0342618 	-2.31422e-08 	300.669 	
-0.0342618 	-0.0426686 	0.00840679 	3.42346 	1.53529e-07 	27.9149 	6.55956 	
1.71604e-10 	91448.4 	1696.06 	1925.26 	0.35 	17.0603 	0.200668 	8.74889e-05 	
0.00758237 	0.00189559 	1.13549e+06 	-247816 	0.254853 	0.000263094 	-247816 	-247816 	0 	
0.000699911 	2.28488e-08 	0.92 	0.04 	0.04 	0.0342615 	-2.39515e-08 	300.479 	
-0.0342615 	-0.0425355 	0.00827392 	3.27847 	1.70519e-07 	31.2659 	3.2086 	
1.64337e-10 	91448.4 	1696.06 	1925.26 	0.35 	17.0603 	0.192169 	8.74889e-05 	
0.00758237 	0.00189559 	1.0498e+06 	-282832 	0.319189 	7.43189e-05 	-282832 	-282832 	0 	
0.0007874 	2.39391e-08 	0.92 	0.04 	0.04 	0.0342612 	-2.42135e-08 	300.289 	
-0.0342612 	-0.0424023 	0.00814112 	1.56936 	1.70519e-07 	33.6898 	0.784682 	
7.8666e-11 	45724.2 	848.03 	962.628 	0.35 	8.53017 	0.183978 	4.37444e-05 	
0.00379119 	0.000947796 	964116 	-317887 	0.352467 	1.40993e-05 	-317887 	-317887 	0 	
ZONE T = "t = 4e-08 [s]" I = 10 SOLUTIONTIME = 4.0000000000000E-08
0 	1.59749e-09 	0.92 	0.04 	0.04 	0.0342628 	0 	302 	
-0.0342628 	-0.0436015 	0.00933872 	2.30051 	1.19216e-08 	1.15025 	33.3242 	
1.72973e-10 	45724.2 	848.03 	962.628 	0.35 	8.53017 	0.269691 	4.37444e-05 	
0.00379119 	0.000947796 	2.21967e-05 	994.807 	0.00230872 	0.00790131 	994.804 	994.804 	0 	
8.74889e-05 	4.66259e-09 	0.92 	0.04 	0.04 	0.0342627 	-5.3714e-09 	301.81 	
-0.0342628 	-0.0434681 	0.00920538 	4.41399 	3.47955e-08 	4.5075 	29.967 	
3.31884e-10 	91448.4 	1696.06 	1925.26 	0.35 	17.0603 	0.258728 	8.74889e-05 	
0.00758237 	0.00189559 	1.64962e+06 	-35095.4 	0.010982 	0.00689167 	-35095.4 	-35095.4 	0 	
0.000174978 	7.60241e-09 	0.92 	0.04 	0.04 	0.0342627 	-1.00059e-08 	301.62 	
-0.0342627 	-0.0433348 	0.0090721 	4.23358 	5.67344e-08 	8.83129 	25.6432 	
3.18318e-10 	91448.4 	1696.06 	1925.26 	0.35 	17.0603 	0.248153 	8.74889e-05 	
0.00758237 	0.00189559 	1.56393e+06 	-70406.6 	0.0359386 	0.00505339 	-70406.6 	-70406.6 	0 	
0.000262467 	1.04214e-08 	0.92 	0.04 	0.04 	0.0342626 	-1.39336e-08 	301.43 	
-0.0342626 	-0.0432015 	0.0089389 	4.05956 	7.77716e-08 	12.9779 	21.4966 	
3.05234e-10 	91448.4 	1696.06 	1925.26 	0.35 	17.0603 	0.237953 	8.74889e-05 	
0.00758237 	0.00189559 	1.47824e+06 	-105995 	0.0751451 	0.00355864 	-105995 	-105995 	0 	
0.000349956 	1.31246e-08 	0.92 	0.04 	0.04 	0.0342624 	-1.71835e-08 	301.24 	
-0.0342625 	-0.0430682 	0.00880577 	3.89174 	9.79392e-08 	16.9535 	17.521 	
2.92616e-10 	91448.4 	1696.06 	1925.26 	0.35 	17.0603 	0.228116 	8.74889e-05 	
0.00758237 	0.00189559 	1.39255e+06 	-141357 	0.126747 	0.00237208 	-141357 	-141357 	0 	
0.000437444 	1.57139e-08 	0.92 	0.04 	0.04 	0.0342623 	-1.97838e-08 	301.049 	
-0.0342623 	-0.042935 	0.00867271 	3.72991 	1.17268e-07 	20.7643 	13.7101 	
2.80448e-10 	91448.4 	1696.06 	1925.26 	0.35 	17.0603 	0.218631 	8.74889e-05 	
0.00758237 	0.00189559 	1.30687e+06 	-176472 	0.189057 	0.00146129 	-176472 	-176472 	0 	
0.000524933 	1.81967e-08 	0.92 	0.04 	0.04 	0.034262 	-2.17613e-08 	300.859 	
-0.0342621 	-0.0428018 	0.00853972 	3.57388 	1.35788e-07 	24.4162 	10.0582 	
2.68716e-10 	91448.4 	1696.06 	1925.26 	0.35 	17.0603 	0.209485 	8.74889e-05 	
0.00758237 	0.00189559 	1.22118e+06 	-211739 	0.26054 	0.000796579 	-211739 	-211739 	0 	
0.000612422 	2.0574e-08 	0.92 	0.04 	0.04 	0.0342618 	-2.31422e-08 	300.669 	
-0.0342618 	-0.0426686 	0.00840679 	3.42346 	1.53529e-07 	27.9149 	6.55956 	
2.57407e-10 	91448.4 	1696.06 	1925.26 	0.35 	17.0603 	0.200668 	8.74889e-05 	
0.00758237 	0.00189559 	1.13549e+06 	-247337 	0.339804 	0.000350792 	-247337 	-247337 	0 	
0.000699911 	2.28517e-08 	0.92 	0.04 	0.04 	0.0342615 	-2.39515e-08 	300.479 	
-0.0342615 	-0.0425355 	0.00827392 	3.27847 	1.70519e-07 	31.2659 	3.2086 	
2.46505e-10 	91448.4 	1696.06 	1925.26 	0.35 	17.0603 	0.192169 	8.74889e-05 	
0.00758237 	0.00189559 	1.0498e+06 	-282851 	0.425586 	9.90919e-05 	-282851 	-282851 	0 	
0.0007874 	2.39415e-08 	0.92 	0.04 	0.04 	0.0342612 	-2.42135e-08 	300.289 	
-0.0342612 	-0.0424023 	0.00814112 	1.56936 	1.70519e-07 	33.6898 	0.784682 	
1.17999e-10 	45724.2 	848.03 	962.628 	0.35 	8.53017 	0.183978 	4.37444e-05 	
0.00379119 	0.000947796 	964116 	-317929 	0.469956 	1.87991e-05 	-317929 	-317929 	0 	
ZONE T = "t = 5.5e-08 [s]" I = 10 SOLUTIONTIME = 5.5000000000000E-08
0 	1.59749e-09 	0.92 	0.04 	0.04 	0.0342628 	0 	302 	
-0.0342628 	-0.0436015 	0.00933872 	2.30051 	1.19216e-08 	1.15025 	33.3242 	
2.30631e-10 	45724.2 	848.03 	962.628 	0.35 	8.53017 	0.269691 	4.37444e-05 	
0.00379119 	0.000947796 	2.21155e-05 	-5.40986 	0.00211633 	0.00724286 	-5.41242 	-5.41242 	0 	
8.74889e-05 	4.66259e-09 	0.92 	0.04 	0.04 	0.0342627 	-5.3714e-09 	301.81 	
-0.0342628 	-0.0434681 	0.00920538 	4.41399 	3.47955e-08 	4.5075 	29.967 	
4.42511e-10 	91448.4 	1696.06 	1925.26 	0.35 	17.0603 	0.258728 	8.74889e-05 	
0.00758237 	0.00189559 	1.64962e+06 	-35092.2 	0.0100668 	0.00631737 	-35092.2 	-35092.2 	0 	
0.000174978 	7.60241e-09 	0.92 	0.04 	0.04 	0.0342627 	-1.00059e-08 	301.62 	
-0.0342627 	-0.0433348 	0.0090721 	4.23358 	5.67344e-08 	8.83129 	25.6432 	
4.24425e-10 	91448.4 	1696.06 	1925.26 	0.35 	17.0603 	0.248153 	8.74889e-05 	
0.00758237 	0.00189559 	1.56393e+06 	-70191.6 	0.0329437 	0.00463227 	-70191.6 	-70191.6 	0 	
0.000262467 	1.04221e-08 	0.92 	0.04 	0.04 	0.0342626 	-1.39336e-08 	301.43 	
-0.0342626 	-0.0432015 	0.0089389 	4.05956 	7.77716e-08 	12.9779 	21.4966 	
4.06979e-10 	91448.4 	1696.06 	1925.26 	0.35 	17.0603 	0.237953 	8.74889e-05 	
0.00758237 	0.00189559 	1.47824e+06 	-105496 	0.068883 	0.00326209 	-105496 	-105496 	0 	
0.000349956 	1.31248e-08 	0.92 	0.04 	0.04 	0.0342624 	-1.71835e-08 	301.24 	
-0.0342625 	-0.0430682 	0.00880577 	3.89174 	9.79392e-08 	16.9535 	17.521 	
3.90155e-10 	91448.4 	1696.06 	1925.26 	0.35 	17.0603 	0.228116 	8.74889e-05 	
0.00758237 	0.00189559 	1.39255e+06 	-141260 	0.116185 	0.00217441 	-141260 	-141260 	0 	
0.000437444 	1.57154e-08 	0.92 	0.04 	0.04 	0.0342623 	-1.97838e-08 	301.049 	
-0.0342623 	-0.042935 	0.00867271 	3.72991 	1.17268e-07 	20.7643 	13.7101 	
3.73931e-10 	91448.4 	1696.06 	1925.26 	0.35 	17.0603 	0.218631 	8.74889e-05 	
0.00758237 	0.00189559 	1.30687e+06 	-176563 	0.173302 	0.00133951 	-176563 	-176563 	0 	
0.000524933 	1.81964e-08 	0.92 	0.04 	0.04 	0.034262 	-2.17613e-08 	300.859 	
-0.0342621 	-0.0428018 	0.00853972 	3.57388 	1.35788e-07 	24.4162 	10.0582 	
3.58289e-10 	91448.4 	1696.06 	1925.26 	0.35 	17.0603 	0.209485 	8.74889e-05 	
0.00758237 	0.00189559 	1.22118e+06 	-212078 	0.238829 	0.000730198 	-212078 	-212078 	0 	
0.000612422 	2.05736e-08 	0.92 	0.04 	0.04 	0.0342618 	-2.31422e-08 	300.669 	
-0.0342618 	-0.0426686 	0.00840679 	3.42346 	1.53529e-07 	27.9149 	6.55956 	
3.43209e-10 	91448.4 	1696.06 	1925.26 	0.35 	17.0603 	0.200668 	8.74889e-05 	
0.00758237 	0.00189559 	1.13549e+06 	-247373 	0.311487 	0.00032156 	-247374 	-247374 	0 	
0.000699911 	2.28495e-08 	0.92 	0.04 	0.04 	0.0342615 	-2.39515e-08 	300.479 	
-0.0342615 	-0.0425355 	0.00827392 	3.27847 	1.70519e-07 	31.2659 	3.2086 	
3.28673e-10 	91448.4 	1696.06 	1925.26 	0.35 	17.0603 	0.192169 	8.74889e-05 	
0.00758237 	0.00189559 	1.0498e+06 	-282924 	0.39012 	9.08342e-05 	-282924 	-282924 	0 	
0.0007874 	2.39399e-08 	0.92 	0.04 	0.04 	0.0342612 	-2.42135e-08 	300.289 	
-0.0342612 	-0.0424023 	0.00814112 	1.56936 	1.70519e-07 	33.6898 	0.784682 	
1.57332e-10 	45724.2 	848.03 	962.628 	0.35 	8.53017 	0.183978 	4.37444e-05 	
0.00379119 	0.000947796 	964116 	-317817 	0.430793 	1.72325e-05 	-317817 	-317817 	0 	
ZONE T = "t = 7.75e-08 [s]" I = 10 SOLUTIONTIME = 7.7500000000000E-08
0 	1.59741e-09 	0.92 	0.04 	0.04 	0.0342628 	0 	302 	
-0.0342628 	-0.0436015 	0.00933872 	2.30051 	1.19216e-08 	1.15025 	33.3242 	
3.17117e-10 	45724.2 	848.03 	962.628 	0.35 	8.53017 	0.269691 	4.37444e-05 	
0.00379119 	0.000947796 	3.07754e-05 	384.883 	0.00198807 	0.0068039 	384.881 	384.881 	0 	
8.74889e-05 	4.66251e-09 	0.92 	0.04 	0.04 	0.0342627 	-5.3714e-09 	301.81 	
-0.0342628 	-0.0434681 	0.00920538 	4.41399 	3.47955e-08 	4.5075 	29.967 	
6.08453e-10 	91448.4 	1696.06 	1925.26 	0.35 	17.0603 	0.258728 	8.74889e-05 	
0.00758237 	0.00189559 	1.64962e+06 	-34673.1 	0.0094567 	0.0059345 	-34673.1 	-34673.1 	0 	
0.000174978 	7.60233e-09 	0.92 	0.04 	0.04 	0.0342627 	-1.00059e-08 	301.62 	
-0.0342627 	-0.0433348 	0.0090721 	4.23358 	5.67344e-08 	8.83129 	25.6432 	
5.83584e-10 	91448.4 	1696.06 	1925.26 	0.35 	17.0603 	0.248153 	8.74889e-05 	
0.00758237 	0.00189559 	1.56393e+06 	-70287.4 	0.0309471 	0.00435153 	-70287.4 	-70287.4 	0 	
0.000262467 	1.04208e-08 	0.92 	0.04 	0.04 	0.0342626 	-1.39336e-08 	301.43 	
-0.0342626 	-0.0432015 	0.0089389 	4.05956 	7.77716e-08 	12.9779 	21.4966 	
5.59597e-10 	91448.4 	1696.06 	1925.26 	0.35 	17.0603 	0.237953 	8.74889e-05 	
0.00758237 	0.00189559 	1.47824e+06 	-105744 	0.0647082 	0.00306439 	-105744 	-105744 	0 	
0.000349956 	1.31228e-08 	0.92 	0.04 	0.04 	0.0342624 	-1.71835e-08 	301.24 	
-0.0342625 	-0.0430682 	0.00880577 	3.89174 	9.79392e-08 	16.9535 	17.521 	
5.36463e-10 	91448.4 	1696.06 	1925.26 	0.35 	17.0603 	0.228116 	8.74889e-05 	
0.00758237 	0.00189559 	1.39255e+06 	-140969 	0.109143 	0.00204262 	-140969 	-140969 	0 	
0.000437444 	1.57129e-08 	0.92 	0.04 	0.04 	0.0342623 	-1.97838e-08 	301.049 	
-0.0342623 	-0.042935 	0.00867271 	3.72991 	1.17268e-07 	20.7643 	13.7101 	
5.14155e-10 	91448.4 	1696.06 	1925.26 	0.35 	17.0603 	0.218631 	8.74889e-05 	
0.00758237 	0.00189559 	1.30687e+06 	-176571 	0.162799 	0.00125833 	-176571 	-176571 	0 	
0.000524933 	1.81946e-08 	0.92 	0.04 	0.04 	0.034262 	-2.17613e-08 	300.859 	
-0.0342621 	-0.0428018 	0.00853972 	3.57388 	1.35788e-07 	24.4162 	10.0582 	
4.92647e-10 	91448.4 	1696.06 	1925.26 	0.35 	17.0603 	0.209485 	8.74889e-05 	
0.00758237 	0.00189559 	1.22118e+06 	-211725 	0.224354 	0.000685943 	-211725 	-211725 	0 	
0.000612422 	2.05719e-08 	0.92 	0.04 	0.04 	0.0342618 	-2.31422e-08 	300.669 	
-0.0342618 	-0.0426686 	0.00840679 	3.42346 	1.53529e-07 	27.9149 	6.55956 	
4.71912e-10 	91448.4 	1696.06 	1925.26 	0.35 	17.0603 	0.200668 	8.74889e-05 	
0.00758237 	0.00189559 	1.13549e+06 	-247057 	0.292609 	0.000302071 	-247057 	-247057 	0 	
0.000699911 	2.28485e-08 	0.92 	0.04 	0.04 	0.0342615 	-2.39515e-08 	300.479 	
-0.0342615 	-0.0425355 	0.00827392 	3.27847 	1.70519e-07 	31.2659 	3.2086 	
4.51925e-10 	91448.4 	1696.06 	1925.26 	0.35 	17.0603 	0.192169 	8.74889e-05 	
0.00758237 	0.00189559 	1.0498e+06 	-282468 	0.366477 	8.53291e-05 	-282469 	-282469 	0 	
0.0007874 	2.39378e-08 	0.92 	0.04 	0.04 	0.0342612 	-2.42135e-08 	300.289 	
-0.0342612 	-0.0424023 	0.00814112 	1.56936 	1.70519e-07 	33.6898 	0.784682 	
2.16331e-10 	45724.2 	848.03 	962.628 	0.35 	8.53017 	0.183978 	4.37444e-05 	
0.00379119 	0.000947796 	964116 	-318626 	0.404685 	1.61881e-05 	-318626 	-318626 	0 	
ZONE T = "t = 1.1125e-07 [s]" I = 10 SOLUTIONTIME = 1.1125000000000E-07
0 	1.59754e-09 	0.92 	0.04 	0.04 	0.0342628 	0 	302 	
-0.0342628 	-0.0436015 	0.00933872 	2.30051 	1.19216e-08 	1.15025 	33.3242 	
4.46847e-10 	45724.2 	848.03 	962.628 	0.35 	8.53017 	0.269691 	4.37444e-05 	
0.00379119 	0.000947796 	5.39888e-05 	687.805 	0.00190256 	0.00651126 	687.802 	687.802 	0 	
8.74889e-05 	4.66264e-09 	0.92 	0.04 	0.04 	0.0342627 	-5.3714e-09 	301.81 	
-0.0342628 	-0.0434681 	0.00920538 	4.41399 	3.47955e-08 	4.5075 	29.967 	
8.57366e-10 	91448.4 	1696.06 	1925.26 	0.35 	17.0603 	0.258728 	8.74889e-05 	
0.00758237 	0.00189559 	1.64962e+06 	-35001.9 	0.00904996 	0.00567925 	-35001.9 	-35001.9 	0 	
0.000174978 	7.60246e-09 	0.92 	0.04 	0.04 	0.0342627 	-1.00059e-08 	301.62 	
-0.0342627 	-0.0433348 	0.0090721 	4.23358 	5.67345e-08 	8.83129 	25.6432 	
8.22323e-10 	91448.4 	1696.06 	1925.26 	0.35 	17.0603 	0.248153 	8.74889e-05 	
0.00758237 	0.00189559 	1.56393e+06 	-70276.4 	0.0296161 	0.00416437 	-70276.4 	-70276.4 	0 	
0.000262467 	1.04214e-08 	0.92 	0.04 	0.04 	0.0342626 	-1.39336e-08 	301.43 	
-0.0342626 	-0.0432015 	0.0089389 	4.05956 	7.77717e-08 	12.9779 	21.4966 	
7.88522e-10 	91448.4 	1696.06 	1925.26 	0.35 	17.0603 	0.237953 	8.74889e-05 	
0.00758237 	0.00189559 	1.47824e+06 	-105718 	0.0619251 	0.00293259 	-105718 	-105718 	0 	
0.000349956 	1.31241e-08 	0.92 	0.04 	0.04 	0.0342624 	-1.71835e-08 	301.24 	
-0.0342625 	-0.0430682 	0.00880577 	3.89174 	9.79392e-08 	16.9535 	17.521 	
7.55925e-10 	91448.4 	1696.06 	1925.26 	0.35 	17.0603 	0.228116 	8.74889e-05 	
0.00758237 	0.00189559 	1.39255e+06 	-141233 	0.104449 	0.00195477 	-141233 	-141233 	0 	
0.000437444 	1.57145e-08 	0.92 	0.04 	0.04 	0.0342623 	-1.97838e-08 	301.049 	
-0.0342623 	-0.042935 	0.00867271 	3.72991 	1.17268e-07 	20.7643 	13.7101 	
7.24491e-10 	91448.4 	1696.06 	1925.26 	0.35 	17.0603 	0.218631 	8.74889e-05 	
0.00758237 	0.00189559 	1.30687e+06 	-176461 	0.155797 	0.00120421 	-176461 	-176461 	0 	
0.000524933 	1.81963e-08 	0.92 	0.04 	0.04 	0.034262 	-2.17613e-08 	300.859 	
-0.0342621 	-0.0428018 	0.00853972 	3.57388 	1.35788e-07 	24.4162 	10.0582 	
6.94184e-10 	91448.4 	1696.06 	1925.26 	0.35 	17.0603 	0.209485 	8.74889e-05 	
0.00758237 	0.00189559 	1.22118e+06 	-212095 	0.214705 	0.00065644 	-212095 	-212095 	0 	
0.000612422 	2.05738e-08 	0.92 	0.04 	0.04 	0.0342618 	-2.31422e-08 	300.669 	
-0.0342618 	-0.0426686 	0.00840679 	3.42346 	1.53529e-07 	27.9149 	6.55956 	
6.64967e-10 	91448.4 	1696.06 	1925.26 	0.35 	17.0603 	0.200668 	8.74889e-05 	
0.00758237 	0.00189559 	1.13549e+06 	-247258 	0.280024 	0.000289079 	-247258 	-247258 	0 	
0.000699911 	2.28504e-08 	0.92 	0.04 	0.04 	0.0342615 	-2.39515e-08 	300.479 	
-0.0342615 	-0.0425355 	0.00827392 	3.27847 	1.70519e-07 	31.2659 	3.2086 	
6.36804e-10 	91448.4 	1696.06 	1925.26 	0.35 	17.0603 	0.192169 	8.74889e-05 	
0.00758237 	0.00189559 	1.0498e+06 	-282809 	0.350714 	8.16591e-05 	-282809 	-282809 	0 	
0.0007874 	2.39402e-08 	0.92 	0.04 	0.04 	0.0342612 	-2.42135e-08 	300.289 	
-0.0342612 	-0.0424023 	0.00814112 	1.56936 	1.70519e-07 	33.6898 	0.784682 	
3.04831e-10 	45724.2 	848.03 	962.628 	0.35 	8.53017 	0.183978 	4.37444e-05 	
0.00379119 	0.000947796 	964116 	-318063 	0.387279 	1.54919e-05 	-318063 	-318063 	0 	
ZONE T = "t = 1.61875e-07 [s]" I = 10 SOLUTIONTIME = 1.6187500000000E-07
0 	1.59749e-09 	0.92 	0.04 	0.04 	0.0342628 	0 	302 	
-0.0342628 	-0.0436015 	0.00933872 	2.30051 	1.19216e-08 	1.15025 	33.3242 	
6.41441e-10 	45724.2 	848.03 	962.628 	0.35 	8.53017 	0.269691 	4.37444e-05 	
0.00379119 	0.000947796 	8.02217e-05 	518.182 	0.00184555 	0.00631617 	518.179 	518.179 	0 	
8.74889e-05 	4.66259e-09 	0.92 	0.04 	0.04 	0.0342627 	-5.3714e-09 	301.81 	
-0.0342628 	-0.0434681 	0.00920538 	4.41399 	3.47955e-08 	4.5075 	29.967 	
1.23074e-09 	91448.4 	1696.06 	1925.26 	0.35 	17.0603 	0.258728 	8.74889e-05 	
0.00758237 	0.00189559 	1.64962e+06 	-34787.8 	0.0087788 	0.00550908 	-34787.8 	-34787.8 	0 	
0.000174978 	7.60263e-09 	0.92 	0.04 	0.04 	0.0342627 	-1.00059e-08 	301.62 	
-0.0342627 	-0.0433348 	0.0090721 	4.23358 	5.67345e-08 	8.83129 	25.6432 	
1.18043e-09 	91448.4 	1696.06 	1925.26 	0.35 	17.0603 	0.248153 	8.74889e-05 	
0.00758237 	0.00189559 	1.56393e+06 	-70337.5 	0.0287287 	0.00403959 	-70337.5 	-70337.5 	0 	
0.000262467 	1.04218e-08 	0.92 	0.04 	0.04 	0.0342626 	-1.39336e-08 	301.43 	
-0.0342626 	-0.0432015 	0.0089389 	4.05956 	7.77717e-08 	12.9779 	21.4966 	
1.13191e-09 	91448.4 	1696.06 	1925.26 	0.35 	17.0603 	0.237953 	8.74889e-05 	
0.00758237 	0.00189559 	1.47824e+06 	-105716 	0.0600697 	0.00284472 	-105716 	-105716 	0 	
0.000349956 	1.31241e-08 	0.92 	0.04 	0.04 	0.0342624 	-1.71835e-08 	301.24 	
-0.0342625 	-0.0430682 	0.00880577 	3.89174 	9.79392e-08 	16.9535 	17.521 	
1.08512e-09 	91448.4 	1696.06 	1925.26 	0.35 	17.0603 	0.228116 	8.74889e-05 	
0.00758237 	0.00189559 	1.39255e+06 	-141006 	0.10132 	0.0018962 	-141006 	-141006 	0 	
0.000437444 	1.57141e-08 	0.92 	0.04 	0.04 	0.0342623 	-1.97838e-08 	301.049 	
-0.0342623 	-0.042935 	0.00867271 	3.72991 	1.17268e-07 	20.7643 	13.7101 	
1.04e-09 	91448.4 	1696.06 	1925.26 	0.35 	17.0603 	0.218631 	8.74889e-05 	
0.00758237 	0.00189559 	1.30687e+06 	-176396 	0.151129 	0.00116813 	-176396 	-176396 	0 	
0.000524933 	1.81957e-08 	0.92 	0.04 	0.04 	0.034262 	-2.17613e-08 	300.859 	
-0.0342621 	-0.0428018 	0.00853972 	3.57388 	1.35788e-07 	24.4162 	10.0582 	
9.9649e-10 	91448.4 	1696.06 	1925.26 	0.35 	17.0603 	0.209485 	8.74889e-05 	
0.00758237 	0.00189559 	1.22118e+06 	-211874 	0.208271 	0.000636772 	-211874 	-211874 	0 	
0.000612422 	2.05728e-08 	0.92 	0.04 	0.04 	0.0342618 	-2.31422e-08 	300.669 	
-0.0342618 	-0.0426686 	0.00840679 	3.42346 	1.53529e-07 	27.9149 	6.55956 	
9.54549e-10 	91448.4 	1696.06 	1925.26 	0.35 	17.0603 	0.200668 	8.74889e-05 	
0.00758237 	0.00189559 	1.13549e+06 	-247431 	0.271634 	0.000280417 	-247432 	-247432 	0 	
0.000699911 	2.28494e-08 	0.92 	0.04 	0.04 	0.0342615 	-2.39515e-08 	300.479 	
-0.0342615 	-0.0425355 	0.00827392 	3.27847 	1.70519e-07 	31.2659 	3.2086 	
9.14122e-10 	91448.4 	1696.06 	1925.26 	0.35 	17.0603 	0.192169 	8.74889e-05 	
0.00758237 	0.00189559 	1.0498e+06 	-282768 	0.340206 	7.92124e-05 	-282768 	-282768 	0 	
0.0007874 	2.39392e-08 	0.92 	0.04 	0.04 	0.0342612 	-2.42135e-08 	300.289 	
-0.0342612 	-0.0424023 	0.00814112 	1.56936 	1.70519e-07 	33.6898 	0.784682 	
4.37579e-10 	45724.2 	848.03 	962.628 	0.35 	8.53017 	0.183978 	4.37444e-05 	
0.00379119 	0.000947796 	964116 	-317939 	0.375675 	1.50277e-05 	-317939 	-317939 	0 	
ZONE T = "t = 2.37813e-07 [s]" I = 10 SOLUTIONTIME = 2.3781250000000E-07
0 	1.59756e-09 	0.92 	0.04 	0.04 	0.0342628 	0 	302 	
-0.0342628 	-0.0436015 	0.00933872 	2.30051 	1.19217e-08 	1.15025 	33.3242 	
9.33333e-10 	45724.2 	848.03 	962.628 	0.35 	8.53017 	0.269691 	4.37444e-05 	
0.00379119 	0.000947796 	0.000109234 	382.056 	0.00180755 	0.0061861 	382.054 	382.054 	0 	
8.74889e-05 	4.66266e-09 	0.92 	0.04 	0.04 	0.0342627 	-5.3714e-09 	301.81 	
-0.0342628 	-0.0434681 	0.00920538 	4.41399 	3.47955e-08 	4.5075 	29.967 	
1.79079e-09 	91448.4 	1696.06 	1925.26 	0.35 	17.0603 	0.258728 	8.74889e-05 	
0.00758237 	0.00189559 	1.64962e+06 	-35018.3 	0.00859803 	0.00539564 	-35018.3 	-35018.3 	0 	
0.000174978 	7.60234e-09 	0.92 	0.04 	0.04 	0.0342627 	-1.00059e-08 	301.62 	
-0.0342627 	-0.0433348 	0.0090721 	4.23358 	5.67345e-08 	8.83129 	25.6432 	
1.71759e-09 	91448.4 	1696.06 	1925.26 	0.35 	17.0603 	0.248153 	8.74889e-05 	