TITLE = "Solution on Domain BulkDomain1D_2"
VARIABLES = "x [m]"  
"Vel_axial" 	"MF_sp(ECDMC)" 	"MF_sp(Li+)" 	"MF_sp(PF6-)" 	"Volt(Electroly)" 	"Volt(CathodeVo)" 	
"Potential Drop Electrode-Electrolyte [V]" 	"Surf_0 Equilibrium Potential Drop Electrode-Electrolyte [V]" 	"Overpotential_0 [V]" 	"Current Source [A/m^2]" 	"Li+ flux [kmol/m^2/s]" 	"Electrolyte Current [A/m^2]" 	"Electrode Current [A/m^2]" 	
"CV Capacity discharged [A-s/m^2]" 	"Depth of discharge in CV [A-s/m^2]" 	"CV Capacity remaining [A-s/m^2]" 	"Initial CV capacity [A-s/m^2]" 	"Porosity []" 	"Surface Area [m2/m2] (area per area)" 	"Specific current (per particle area) [A/m^2]" 	"Control volume thickness [m]" 	
"MoleDens LiCoO2 [kmol/m^3]" 	"MoleDens CoO2 [kmol/m^3]" 	"qHeat_accum [J/m3]" 	"qHeat_step [W/m3]" 	"Joule_Lyte [W/m3]" 	"Joule_Solid [W/m3]" 	"electrodHeat [W/m3]" 	"OverpotHeat [W/m3]" 	"deltaSHeat [W/m3]" 	

ZONE T = "CATH, 0.0000E+00", I = 10, SOLUTIONTIME = 0.000000E+00
ZONETYPE = ORDERED
DATAPACKING = BLOCK
STRANDID = 3
 1.2700000000000E-03  1.3377333333333E-03  1.4054666666667E-03  1.4732000000000E-03  1.5409333333333E-03  1.6086666666667E-03  1.6764000000000E-03  1.7441333333333E-03  1.8118666666667E-03  1.8796000000000E-03 
 0.0000000000000E+00  0.0000000000000E+00  0.0000000000000E+00  0.0000000000000E+00  0.0000000000000E+00  0.0000000000000E+00  0.0000000000000E+00  0.0000000000000E+00  0.0000000000000E+00  0.0000000000000E+00 
 9.2000000000000E-01  9.2000000000000E-01  9.2000000000000E-01  9.2000000000000E-01  9.2000000000000E-01  9.2000000000000E-01  9.2000000000000E-01  9.2000000000000E-01  9.2000000000000E-01  9.2000000000000E-01 
 4.0000000000000E-02  4.0000000000000E-02  4.0000000000000E-02  4.0000000000000E-02  4.0000000000000E-02  4.0000000000000E-02  4.0000000000000E-02  4.0000000000000E-02  4.0000000000000E-02  4.0000000000000E-02 
 4.0000000000000E-02  4.0000000000000E-02  4.0000000000000E-02  4.0000000000000E-02  4.0000000000000E-02  4.0000000000000E-02  4.0000000000000E-02  4.0000000000000E-02  4.0000000000000E-02  4.0000000000000E-02 
-7.0000000000000E-02 -7.0000000000000E-02 -7.0000000000000E-02 -7.0000000000000E-02 -7.0000000000000E-02 -7.0000000000000E-02 -7.0000000000000E-02 -7.0000000000000E-02 -7.0000000000000E-02 -7.0000000000000E-02 
 3.8000000000000E+00  3.8000000000000E+00  3.8000000000000E+00  3.8000000000000E+00  3.8000000000000E+00  3.8000000000000E+00  3.8000000000000E+00  3.8000000000000E+00  3.8000000000000E+00  3.8000000000000E+00 
 3.8700000000000E+00  3.8700000000000E+00  3.8700000000000E+00  3.8700000000000E+00  3.8700000000000E+00  3.8700000000000E+00  3.8700000000000E+00  3.8700000000000E+00  3.8700000000000E+00  3.8700000000000E+00 
 3.9779642109147E+00  3.9779642109147E+00  3.9779642109147E+00  3.9779642109147E+00  3.9779642109147E+00  3.9779642109147E+00  3.9779642109147E+00  3.9779642109147E+00  3.9779642109147E+00  3.9779642109147E+00 
-1.0796421091472E-01 -1.0796421091472E-01 -1.0796421091472E-01 -1.0796421091472E-01 -1.0796421091472E-01 -1.0796421091472E-01 -1.0796421091472E-01 -1.0796421091472E-01 -1.0796421091472E-01 -1.0796421091472E-01 
-1.1663619695838E-01 -2.3327239391676E-01 -2.3327239391676E-01 -2.3327239391676E-01 -2.3327239391676E-01 -2.3327239391676E-01 -2.3327239391676E-01 -2.3327239391676E-01 -2.3327239391676E-01 -1.1663619695838E-01 
-0.0000000000000E+00 -0.0000000000000E+00 -0.0000000000000E+00 -0.0000000000000E+00 -0.0000000000000E+00 -0.0000000000000E+00 -0.0000000000000E+00 -0.0000000000000E+00 -0.0000000000000E+00 -0.0000000000000E+00 
 1.1663619695838E-01  0.0000000000000E+00  0.0000000000000E+00  0.0000000000000E+00  0.0000000000000E+00  0.0000000000000E+00  0.0000000000000E+00  0.0000000000000E+00  0.0000000000000E+00  0.0000000000000E+00 
 0.0000000000000E+00 -0.0000000000000E+00 -0.0000000000000E+00 -0.0000000000000E+00 -0.0000000000000E+00 -0.0000000000000E+00 -0.0000000000000E+00 -0.0000000000000E+00 -0.0000000000000E+00  1.1663619695838E-01 
-0.0000000000000E+00 -0.0000000000000E+00 -0.0000000000000E+00 -0.0000000000000E+00 -0.0000000000000E+00 -0.0000000000000E+00 -0.0000000000000E+00 -0.0000000000000E+00 -0.0000000000000E+00 -0.0000000000000E+00 
 7.2440786946225E+03  1.4488157389245E+04  1.4488157389245E+04  1.4488157389245E+04  1.4488157389245E+04  1.4488157389245E+04  1.4488157389245E+04  1.4488157389245E+04  1.4488157389245E+04  7.2440786946225E+03 
 4.9259735123433E+04  9.8519470246865E+04  9.8519470246866E+04  9.8519470246865E+04  9.8519470246866E+04  9.8519470246866E+04  9.8519470246865E+04  9.8519470246866E+04  9.8519470246865E+04  4.9259735123433E+04 
 5.6503813818055E+04  1.1300762763611E+05  1.1300762763611E+05  1.1300762763611E+05  1.1300762763611E+05  1.1300762763611E+05  1.1300762763611E+05  1.1300762763611E+05  1.1300762763611E+05  5.6503813818055E+04 
 3.5000000000000E-01  3.5000000000000E-01  3.5000000000000E-01  3.5000000000000E-01  3.5000000000000E-01  3.5000000000000E-01  3.5000000000000E-01  3.5000000000000E-01  3.5000000000000E-01  3.5000000000000E-01 
 6.6040000000000E+00  1.3208000000000E+01  1.3208000000000E+01  1.3208000000000E+01  1.3208000000000E+01  1.3208000000000E+01  1.3208000000000E+01  1.3208000000000E+01  1.3208000000000E+01  6.6040000000000E+00 
-1.7661447146938E-02 -1.7661447146938E-02 -1.7661447146938E-02 -1.7661447146938E-02 -1.7661447146938E-02 -1.7661447146938E-02 -1.7661447146938E-02 -1.7661447146938E-02 -1.7661447146938E-02 -1.7661447146938E-02 
 3.3866666666667E-05  6.7733333333333E-05  6.7733333333334E-05  6.7733333333333E-05  6.7733333333334E-05  6.7733333333334E-05  6.7733333333333E-05  6.7733333333334E-05  6.7733333333333E-05  3.3866666666667E-05 
 2.6603001364256E+01  2.6603001364256E+01  2.6603001364256E+01  2.6603001364256E+01  2.6603001364256E+01  2.6603001364256E+01  2.6603001364256E+01  2.6603001364256E+01  2.6603001364256E+01  2.6603001364256E+01 
 1.7735334242838E+01  1.7735334242838E+01  1.7735334242838E+01  1.7735334242838E+01  1.7735334242838E+01  1.7735334242838E+01  1.7735334242838E+01  1.7735334242838E+01  1.7735334242838E+01  1.7735334242838E+01 
 0.0000000000000E+00  0.0000000000000E+00  0.0000000000000E+00  0.0000000000000E+00  0.0000000000000E+00  0.0000000000000E+00  0.0000000000000E+00  0.0000000000000E+00  0.0000000000000E+00  0.0000000000000E+00 
 0.0000000000000E+00  0.0000000000000E+00  0.0000000000000E+00  0.0000000000000E+00  0.0000000000000E+00  0.0000000000000E+00  0.0000000000000E+00  0.0000000000000E+00  0.0000000000000E+00  0.0000000000000E+00 
 0.0000000000000E+00  0.0000000000000E+00  0.0000000000000E+00  0.0000000000000E+00  0.0000000000000E+00  0.0000000000000E+00  0.0000000000000E+00  0.0000000000000E+00  0.0000000000000E+00  0.0000000000000E+00 
 0.0000000000000E+00  0.0000000000000E+00  0.0000000000000E+00  0.0000000000000E+00  0.0000000000000E+00  0.0000000000000E+00  0.0000000000000E+00  0.0000000000000E+00  0.0000000000000E+00  0.0000000000000E+00 
 0.0000000000000E+00  0.0000000000000E+00  0.0000000000000E+00  0.0000000000000E+00  0.0000000000000E+00  0.0000000000000E+00  0.0000000000000E+00  0.0000000000000E+00  0.0000000000000E+00  0.0000000000000E+00 
 0.0000000000000E+00  0.0000000000000E+00  0.0000000000000E+00  0.0000000000000E+00  0.0000000000000E+00  0.0000000000000E+00  0.0000000000000E+00  0.0000000000000E+00  0.0000000000000E+00  0.0000000000000E+00 
 0.0000000000000E+00  0.0000000000000E+00  0.0000000000000E+00  0.0000000000000E+00  0.0000000000000E+00  0.0000000000000E+00  0.0000000000000E+00  0.0000000000000E+00  0.0000000000000E+00  0.0000000000000E+00 
ZONE T = "CATH, 1.0000E-08", I = 10, SOLUTIONTIME = 1.000000E-08
ZONETYPE = ORDERED
DATAPACKING = BLOCK
STRANDID = 3
 1.2700000000000E-03  1.3377333333333E-03  1.4054666666667E-03  1.4732000000000E-03  1.5409333333333E-03  1.6086666666667E-03  1.6764000000000E-03  1.7441333333333E-03  1.8118666666667E-03  1.8796000000000E-03 
 8.2245838447930E-09  7.2570164352911E-09  6.2901247015846E-09  5.3224208242431E-09  4.3545962177790E-09  3.3866158637514E-09  2.4191711365958E-09  1.4507741367143E-09  4.8211617811774E-10 -2.3608501944376E-12 
 9.2000000000013E-01  9.2000000000038E-01  9.2000000000038E-01  9.2000000000038E-01  9.2000000000038E-01  9.2000000000038E-01  9.2000000000038E-01  9.2000000000038E-01  9.2000000000038E-01  9.2000000000038E-01 
 3.9999999999934E-02  3.9999999999812E-02  3.9999999999812E-02  3.9999999999812E-02  3.9999999999812E-02  3.9999999999812E-02  3.9999999999812E-02  3.9999999999812E-02  3.9999999999812E-02  3.9999999999812E-02 
 3.9999999999934E-02  3.9999999999812E-02  3.9999999999812E-02  3.9999999999812E-02  3.9999999999812E-02  3.9999999999812E-02  3.9999999999812E-02  3.9999999999812E-02  3.9999999999812E-02  3.9999999999812E-02 
 1.8804719365907E-02  1.8804635316718E-02  1.8804561150771E-02  1.8804496868585E-02  1.8804442471034E-02  1.8804397959353E-02  1.8804363335133E-02  1.8804338600323E-02  1.8804323757233E-02  1.8804318808527E-02 
 3.8000729268544E+00  3.8000720267352E+00  3.8000693263482E+00  3.8000648255991E+00  3.8000585243282E+00  3.8000504223108E+00  3.8000405192570E+00  3.8000288148118E+00  3.8000153085547E+00  3.8000000000000E+00 
 3.7812682074885E+00  3.7812673914185E+00  3.7812647651975E+00  3.7812603287305E+00  3.7812540818571E+00  3.7812460243514E+00  3.7812361559219E+00  3.7812244762115E+00  3.7812109847975E+00  3.7811956811915E+00 
 3.9779642109146E+00  3.9779642109146E+00  3.9779642109146E+00  3.9779642109146E+00  3.9779642109146E+00  3.9779642109146E+00  3.9779642109146E+00  3.9779642109146E+00  3.9779642109146E+00  3.9779642109146E+00 
-1.9669600342615E-01 -1.9669681949610E-01 -1.9669944571711E-01 -1.9670388218407E-01 -1.9671012905743E-01 -1.9671818656313E-01 -1.9672805499266E-01 -1.9673973470308E-01 -1.9675322611709E-01 -1.9676852972310E-01 
-6.9742214508160E-01 -1.3948670824232E+00 -1.3949404334473E+00 -1.3950643538523E+00 -1.3952388615760E+00 -1.3954639818836E+00 -1.3957397473750E+00 -1.3960661979950E+00 -1.3964433810456E+00 -6.9843567560028E-01 
 6.1382967765822E-08  5.4164970592915E-08  4.6946650133782E-08  3.9727689915115E-08  3.2507828733559E-08  2.5286805260844E-08  1.8064357983733E-08  1.0840225215286E-08  3.6141449822578E-09  3.6141449822578E-09 
 1.2542524054629E+01  1.1148676365996E+01  9.7557887444680E+00  8.3628028606237E+00  6.9696683189860E+00  5.5763347033062E+00  4.1827515679987E+00  2.7888684310509E+00  1.3946347669336E+00  0.0000000000000E+00 
 0.0000000000000E+00  1.3928397401847E+00  2.7857273620861E+00  4.1787132459916E+00  5.5718477873066E+00  6.9651814029109E+00  8.3587645382018E+00  9.7526476753406E+00  1.1146881339437E+01  1.2542527797320E+01 
 6.9742214508160E-09  1.3948670824232E-08  1.3949404334473E-08  1.3950643538523E-08  1.3952388615760E-08  1.3954639818836E-08  1.3957397473750E-08  1.3960661979950E-08  1.3964433810456E-08  6.9843567560028E-09 
 7.2440786946295E+03  1.4488157389259E+04  1.4488157389259E+04  1.4488157389259E+04  1.4488157389259E+04  1.4488157389259E+04  1.4488157389259E+04  1.4488157389259E+04  1.4488157389259E+04  7.2440786946295E+03 
 4.9259735123426E+04  9.8519470246851E+04  9.8519470246852E+04  9.8519470246851E+04  9.8519470246852E+04  9.8519470246852E+04  9.8519470246851E+04  9.8519470246852E+04  9.8519470246851E+04  4.9259735123426E+04 
 5.6503813818055E+04  1.1300762763611E+05  1.1300762763611E+05  1.1300762763611E+05  1.1300762763611E+05  1.1300762763611E+05  1.1300762763611E+05  1.1300762763611E+05  1.1300762763611E+05  5.6503813818055E+04 
 3.5000000000000E-01  3.5000000000000E-01  3.5000000000000E-01  3.5000000000000E-01  3.5000000000000E-01  3.5000000000000E-01  3.5000000000000E-01  3.5000000000000E-01  3.5000000000000E-01  3.5000000000000E-01 
 6.6040000000000E+00  1.3208000000000E+01  1.3208000000000E+01  1.3208000000000E+01  1.3208000000000E+01  1.3208000000000E+01  1.3208000000000E+01  1.3208000000000E+01  1.3208000000000E+01  6.6040000000000E+00 
-1.0560601833458E-01 -1.0560774397510E-01 -1.0561329750510E-01 -1.0562267972837E-01 -1.0563589200303E-01 -1.0565293624194E-01 -1.0567381491331E-01 -1.0569853104142E-01 -1.0572708820757E-01 -1.0575949055122E-01 
 3.3866666666667E-05  6.7733333333333E-05  6.7733333333334E-05  6.7733333333333E-05  6.7733333333334E-05  6.7733333333334E-05  6.7733333333333E-05  6.7733333333334E-05  6.7733333333333E-05  3.3866666666667E-05 
 2.6603001364259E+01  2.6603001364259E+01  2.6603001364259E+01  2.6603001364259E+01  2.6603001364259E+01  2.6603001364259E+01  2.6603001364259E+01  2.6603001364259E+01  2.6603001364259E+01  2.6603001364259E+01 
 1.7735334242836E+01  1.7735334242836E+01  1.7735334242836E+01  1.7735334242836E+01  1.7735334242836E+01  1.7735334242836E+01  1.7735334242836E+01  1.7735334242836E+01  1.7735334242836E+01  1.7735334242836E+01 
 8.8290520978502E-05  8.8292485663080E-05  8.8298749621186E-05  8.8309332117787E-05  8.8324234784133E-05  8.8343459917832E-05  8.8367010483570E-05  8.8394890114080E-05  8.8427103111312E-05  8.8460316289877E-05 
 8.8290520978502E+03  8.8292485663080E+03  8.8298749621186E+03  8.8309332117787E+03  8.8324234784133E+03  8.8343459917832E+03  8.8367010483570E+03  8.8394890114080E+03  8.8427103111311E+03  8.8460316289877E+03 
 1.4698393733671E-02  1.3071645777227E-02  1.0021316990870E-02  7.3773139780170E-03  5.1396491848391E-03  3.3083938846647E-03  1.8836782193434E-03  8.6569126124168E-04  2.5468109380889E-04  5.0954909093332E-05 
 9.2547607581808E-03  4.6274708561335E-02  1.5733970881459E-01  3.4246543231998E-01  6.0167826750085E-01  9.3501532843461E-01  1.3425244662228E+00  1.8242642839246E+00  2.3803041542408E+00  2.6769084478350E+00 
 8.8290281446957E+03  8.8291892199537E+03  8.8297076010928E+03  8.8305833690324E+03  8.8318166604966E+03  8.8334076680609E+03  8.8353566402125E+03  8.8376638814329E+03  8.8403297522958E+03  8.8433546695850E+03 
 4.0505949401124E+03  4.0506779340443E+03  4.0509450305261E+03  4.0513962741071E+03  4.0520317400597E+03  4.0528515344065E+03  4.0538557939545E+03  4.0550446863431E+03  4.0564184100997E+03  4.0579771947079E+03 
 4.7784332045833E+03  4.7785112859094E+03  4.7787625705667E+03  4.7791870949254E+03  4.7797849204369E+03  4.7805561336545E+03  4.7815008462580E+03  4.7826191950897E+03  4.7839113421960E+03  4.7853774748771E+03 
ZONE T = "CATH, 2.0000E-08", I = 10, SOLUTIONTIME = 2.000000E-08
ZONETYPE = ORDERED
DATAPACKING = BLOCK
STRANDID = 3
 1.2700000000000E-03  1.3377333333333E-03  1.4054666666667E-03  1.4732000000000E-03  1.5409333333333E-03  1.6086666666667E-03  1.6764000000000E-03  1.7441333333333E-03  1.8118666666667E-03  1.8796000000000E-03 
 8.2400912415583E-09  7.2718552413385E-09  6.3035682735731E-09  5.3344687847640E-09  4.3659744552958E-09  3.3973237016043E-09  2.4284813328937E-09  1.4594121305700E-09  4.8899121993780E-10  4.1768888705035E-12 
 9.2000000000027E-01  9.2000000000075E-01  9.2000000000075E-01  9.2000000000075E-01  9.2000000000075E-01  9.2000000000075E-01  9.2000000000075E-01  9.2000000000075E-01  9.2000000000075E-01  9.2000000000075E-01 
 3.9999999999867E-02  3.9999999999624E-02  3.9999999999624E-02  3.9999999999624E-02  3.9999999999624E-02  3.9999999999624E-02  3.9999999999624E-02  3.9999999999624E-02  3.9999999999624E-02  3.9999999999624E-02 
 3.9999999999867E-02  3.9999999999624E-02  3.9999999999624E-02  3.9999999999624E-02  3.9999999999624E-02  3.9999999999624E-02  3.9999999999624E-02  3.9999999999624E-02  3.9999999999624E-02  3.9999999999624E-02 
 1.8787420495518E-02  1.8787336356531E-02  1.8787262111327E-02  1.8787197760430E-02  1.8787143304718E-02  1.8787098745431E-02  1.8787064084166E-02  1.8787039322883E-02  1.8787024463898E-02  1.8787019509890E-02 
 3.8000730047046E+00  3.8000721036252E+00  3.8000694003576E+00  3.8000648948069E+00  3.8000585868127E+00  3.8000504761495E+00  3.8000405625261E+00  3.8000288455858E+00  3.8000153249063E+00  3.8000000000000E+00 
 3.7812855842091E+00  3.7812847672687E+00  3.7812821382463E+00  3.7812776970464E+00  3.7812714435080E+00  3.7812633774041E+00  3.7812534984419E+00  3.7812418062629E+00  3.7812283004424E+00  3.7812129804901E+00 
 3.9779642109146E+00  3.9779642109144E+00  3.9779642109144E+00  3.9779642109144E+00  3.9779642109144E+00  3.9779642109144E+00  3.9779642109144E+00  3.9779642109144E+00  3.9779642109144E+00  3.9779642109144E+00 
-1.9667862670547E-01 -1.9667944364572E-01 -1.9668207266815E-01 -1.9668651386800E-01 -1.9669276740641E-01 -1.9670083351033E-01 -1.9671071247250E-01 -1.9672240465154E-01 -1.9673591047198E-01 -1.9675123042431E-01 
-6.9717952943062E-01 -1.3943818675010E+00 -1.3944552712676E+00 -1.3945792807986E+00 -1.3947539140741E+00 -1.3949791964187E+00 -1.3952551605084E+00 -1.3955818463814E+00 -1.3959593014503E+00 -6.9819379025817E-01 
 6.1448605693740E-08  5.4222853096225E-08  4.6996830953252E-08  3.9770166237076E-08  3.2542596617684E-08  2.5313859657119E-08  1.8083692734362E-08  1.0851833021124E-08  3.6180174486595E-09  3.6180174486595E-09 
 1.2554936936810E+01  1.1160588927633E+01  9.7662152696823E+00  8.3717429140129E+00  6.9771212497559E+00  5.5822996443020E+00  4.1872274366824E+00  2.7918539295015E+00  1.3961283816025E+00  0.0000000000000E+00 
 0.0000000000000E+00  1.3943255558101E+00  2.7886992134049E+00  4.1831715693604E+00  5.5777932338245E+00  6.9726148391063E+00  8.3676870465483E+00  9.7630605537414E+00  1.1158786101912E+01  1.2554937022010E+01 
 1.3946016745122E-08  2.7892489499242E-08  2.7893957047149E-08  2.7896436346508E-08  2.7899927756501E-08  2.7904431783023E-08  2.7909949078834E-08  2.7916480443765E-08  2.7924026824959E-08  1.3966294658584E-08 
 7.2440786946364E+03  1.4488157389273E+04  1.4488157389273E+04  1.4488157389273E+04  1.4488157389273E+04  1.4488157389273E+04  1.4488157389273E+04  1.4488157389273E+04  1.4488157389273E+04  7.2440786946364E+03 
 4.9259735123419E+04  9.8519470246837E+04  9.8519470246838E+04  9.8519470246837E+04  9.8519470246838E+04  9.8519470246838E+04  9.8519470246837E+04  9.8519470246838E+04  9.8519470246837E+04  4.9259735123419E+04 
 5.6503813818055E+04  1.1300762763611E+05  1.1300762763611E+05  1.1300762763611E+05  1.1300762763611E+05  1.1300762763611E+05  1.1300762763611E+05  1.1300762763611E+05  1.1300762763611E+05  5.6503813818055E+04 
 3.5000000000000E-01  3.5000000000000E-01  3.5000000000000E-01  3.5000000000000E-01  3.5000000000000E-01  3.5000000000000E-01  3.5000000000000E-01  3.5000000000000E-01  3.5000000000000E-01  3.5000000000000E-01 
 6.6040000000000E+00  1.3208000000000E+01  1.3208000000000E+01  1.3208000000000E+01  1.3208000000000E+01  1.3208000000000E+01  1.3208000000000E+01  1.3208000000000E+01  1.3208000000000E+01  6.6040000000000E+00 
-1.0556928065273E-01 -1.0557100753339E-01 -1.0557656505660E-01 -1.0558595402775E-01 -1.0559917580816E-01 -1.0561623231516E-01 -1.0563712602274E-01 -1.0566185996225E-01 -1.0569043772337E-01 -1.0572286345520E-01 
 3.3866666666667E-05  6.7733333333333E-05  6.7733333333334E-05  6.7733333333333E-05  6.7733333333334E-05  6.7733333333334E-05  6.7733333333333E-05  6.7733333333334E-05  6.7733333333333E-05  3.3866666666667E-05 
 2.6603001364261E+01  2.6603001364261E+01  2.6603001364261E+01  2.6603001364261E+01  2.6603001364261E+01  2.6603001364261E+01  2.6603001364261E+01  2.6603001364261E+01  2.6603001364261E+01  2.6603001364261E+01 
 1.7735334242833E+01  1.7735334242833E+01  1.7735334242833E+01  1.7735334242833E+01  1.7735334242833E+01  1.7735334242833E+01  1.7735334242833E+01  1.7735334242833E+01  1.7735334242833E+01  1.7735334242833E+01 
 1.7654675132359E-04  1.7655068254726E-04  1.7656321630814E-04  1.7658439117774E-04  1.7661421042310E-04  1.7665267864581E-04  1.7669980178348E-04  1.7675558711163E-04  1.7682004324606E-04  1.7688649668300E-04 
 8.8256230345090E+03  8.8258196884175E+03  8.8264466686958E+03  8.8275059059954E+03  8.8289975638964E+03  8.8309218727978E+03  8.8332791299907E+03  8.8360696997548E+03  8.8392940134753E+03  8.8426180393122E+03 
 1.4729818513753E-02  1.3099595103488E-02  1.0042748874123E-02  7.3930953095859E-03  5.1506469360507E-03  3.3154754202706E-03  1.8877116141150E-03  8.6754561538137E-04  2.5522684791672E-04  5.1064160712531E-05 
 9.2745157910165E-03  4.6373489147288E-02  1.5767559489605E-01  3.4319659020855E-01  6.0296300702137E-01  9.3701216036565E-01  1.3453921597517E+00  1.8281619240325E+00  2.3853911994528E+00  2.6826301105267E+00 
 8.8255990301747E+03  8.8257602153332E+03  8.8262789503521E+03  8.8271553163099E+03  8.8283894502424E+03  8.8299815451620E+03  8.8319318501194E+03  8.8342406702851E+03  8.8369083670490E+03  8.8399353581375E+03 
 4.0488281225082E+03  4.0489111702255E+03  4.0491784399030E+03  4.0496299761757E+03  4.0502658544833E+03  4.0510861810820E+03  4.0520910930813E+03  4.0532807584896E+03  4.0546553762719E+03  4.0562151764170E+03 
 4.7767709076664E+03  4.7768490451077E+03  4.7771005104491E+03  4.7775253401341E+03  4.7781235957592E+03  4.7788953640800E+03  4.7798407570381E+03  4.7809599117955E+03  4.7822529907771E+03  4.7837201817205E+03 
ZONE T = "CATH, 3.0000E-08", I = 10, SOLUTIONTIME = 3.000000E-08
ZONETYPE = ORDERED
DATAPACKING = BLOCK
STRANDID = 3
 1.2700000000000E-03  1.3377333333333E-03  1.4054666666667E-03  1.4732000000000E-03  1.5409333333333E-03  1.6086666666667E-03  1.6764000000000E-03  1.7441333333333E-03  1.8118666666667E-03  1.8796000000000E-03 
 8.2266810288846E-09  7.2583990437789E-09  6.2904292884755E-09  5.3216469949399E-09  4.3534698367434E-09  3.3851362235007E-09  2.4169741653132E-09  1.4478588135615E-09  4.7848132533300E-10 -6.3561352359834E-12 
 9.2000000000040E-01  9.2000000000113E-01  9.2000000000113E-01  9.2000000000113E-01  9.2000000000113E-01  9.2000000000113E-01  9.2000000000113E-01  9.2000000000113E-01  9.2000000000113E-01  9.2000000000113E-01 
 3.9999999999801E-02  3.9999999999437E-02  3.9999999999437E-02  3.9999999999436E-02  3.9999999999436E-02  3.9999999999436E-02  3.9999999999436E-02  3.9999999999436E-02  3.9999999999436E-02  3.9999999999436E-02 
 3.9999999999801E-02  3.9999999999437E-02  3.9999999999437E-02  3.9999999999436E-02  3.9999999999436E-02  3.9999999999436E-02  3.9999999999436E-02  3.9999999999436E-02  3.9999999999436E-02  3.9999999999436E-02 
 1.8786653231799E-02  1.8786569088809E-02  1.8786494840073E-02  1.8786430486113E-02  1.8786376027809E-02  1.8786331466400E-02  1.8786296803484E-02  1.8786272041021E-02  1.8786257181328E-02  1.8786252227084E-02 
 3.8000730081743E+00  3.8000721070521E+00  3.8000694036561E+00  3.8000648978914E+00  3.8000585895976E+00  3.8000504785491E+00  3.8000405644545E+00  3.8000288469573E+00  3.8000153256351E+00  3.8000000000000E+00 
 3.7812863549425E+00  3.7812855379633E+00  3.7812829088160E+00  3.7812784674052E+00  3.7812722135698E+00  3.7812641470827E+00  3.7812542676511E+00  3.7812425749163E+00  3.7812290684538E+00  3.7812137477729E+00 
 3.9779642109145E+00  3.9779642109143E+00  3.9779642109143E+00  3.9779642109143E+00  3.9779642109143E+00  3.9779642109143E+00  3.9779642109143E+00  3.9779642109143E+00  3.9779642109143E+00  3.9779642109143E+00 
-1.9667785597201E-01 -1.9667867295097E-01 -1.9668130209825E-01 -1.9668574350903E-01 -1.9669199734449E-01 -1.9670006383162E-01 -1.9670994326321E-01 -1.9672163599796E-01 -1.9673514246048E-01 -1.9675046314135E-01 
-6.9716877031807E-01 -1.3943603500032E+00 -1.3944337561248E+00 -1.3945577696353E+00 -1.3947324085169E+00 -1.3949576980966E+00 -1.3952336710541E+00 -1.3955603674316E+00 -1.3959378346467E+00 -6.9818306375329E-01 
 6.1451584125857E-08  5.4225432921358E-08  4.6999067536471E-08  3.9772059440795E-08  3.2544146274923E-08  2.5315065529449E-08  1.8084554544329E-08  1.0852350432113E-08  3.6181900797100E-09  3.6181900797100E-09 
 1.2555490229335E+01  1.1161119868467E+01  9.7666799813385E+00  8.3721413762087E+00  6.9774534329100E+00  5.5825655092981E+00  4.1874269341365E+00  2.7919870002505E+00  1.3961949562153E+00  0.0000000000000E+00 
 0.0000000000000E+00  1.3943917751543E+00  2.7888316622291E+00  4.1833702672491E+00  5.5780582104980E+00  6.9729461342491E+00  8.3680847094653E+00  9.7635246433578E+00  1.1159316687289E+01  1.2555490147573E+01 
 2.0917704448303E-08  4.1836092999274E-08  4.1838294608397E-08  4.1842014042861E-08  4.1847251841670E-08  4.1854008763989E-08  4.1862285789374E-08  4.1872084118081E-08  4.1883405171426E-08  2.0948125296117E-08 
 7.2440786946434E+03  1.4488157389287E+04  1.4488157389287E+04  1.4488157389287E+04  1.4488157389287E+04  1.4488157389287E+04  1.4488157389287E+04  1.4488157389287E+04  1.4488157389287E+04  7.2440786946434E+03 
 4.9259735123412E+04  9.8519470246823E+04  9.8519470246824E+04  9.8519470246823E+04  9.8519470246824E+04  9.8519470246824E+04  9.8519470246823E+04  9.8519470246824E+04  9.8519470246823E+04  4.9259735123412E+04 
 5.6503813818055E+04  1.1300762763611E+05  1.1300762763611E+05  1.1300762763611E+05  1.1300762763611E+05  1.1300762763611E+05  1.1300762763611E+05  1.1300762763611E+05  1.1300762763611E+05  5.6503813818055E+04 
 3.5000000000000E-01  3.5000000000000E-01  3.5000000000000E-01  3.5000000000000E-01  3.5000000000000E-01  3.5000000000000E-01  3.5000000000000E-01  3.5000000000000E-01  3.5000000000000E-01  3.5000000000000E-01 
 6.6040000000000E+00  1.3208000000000E+01  1.3208000000000E+01  1.3208000000000E+01  1.3208000000000E+01  1.3208000000000E+01  1.3208000000000E+01  1.3208000000000E+01  1.3208000000000E+01  6.6040000000000E+00 
-1.0556765147154E-01 -1.0556937840727E-01 -1.0557493610878E-01 -1.0558432538123E-01 -1.0559754758608E-01 -1.0561460464087E-01 -1.0563549901984E-01 -1.0566023375466E-01 -1.0568881243540E-01 -1.0572123921158E-01 
 3.3866666666667E-05  6.7733333333333E-05  6.7733333333334E-05  6.7733333333333E-05  6.7733333333334E-05  6.7733333333334E-05  6.7733333333333E-05  6.7733333333334E-05  6.7733333333333E-05  3.3866666666667E-05 
 2.6603001364263E+01  2.6603001364263E+01  2.6603001364263E+01  2.6603001364263E+01  2.6603001364263E+01  2.6603001364263E+01  2.6603001364263E+01  2.6603001364263E+01  2.6603001364263E+01  2.6603001364263E+01 
 1.7735334242831E+01  1.7735334242831E+01  1.7735334242831E+01  1.7735334242831E+01  1.7735334242831E+01  1.7735334242831E+01  1.7735334242831E+01  1.7735334242831E+01  1.7735334242831E+01  1.7735334242831E+01 
 2.6480146103412E-04  2.6480735887939E-04  2.6482616270395E-04  2.6485793038739E-04  2.6490266683277E-04  2.6496037894597E-04  2.6503107563786E-04  2.6511476782723E-04  2.6521146844427E-04  2.6531116334870E-04 
 8.8254709710533E+03  8.8256676332137E+03  8.8262946395805E+03  8.8273539209647E+03  8.8288456409671E+03  8.8307700300157E+03  8.8331273854385E+03  8.8359180715604E+03  8.8391425198209E+03  8.8424666665702E+03 
 1.4731219887700E-02  1.3100841494784E-02  1.0043704628799E-02  7.3937990829731E-03  5.1511373881188E-03  3.3157912293484E-03  1.8878914899645E-03  8.6762831439162E-04  2.5525118731058E-04  5.1069033092096E-05 
 9.2753967182142E-03  4.6377894018489E-02  1.5769057293807E-01  3.4322919449143E-01  6.0302029721069E-01  9.3710120524287E-01  1.3455200398414E+00  1.8283357340765E+00  2.3856180513024E+00  2.6828852636449E+00 
 8.8254469644367E+03  8.8256081544782E+03  8.8261269053030E+03  8.8270032979711E+03  8.8282374695325E+03  8.8298296130192E+03  8.8317799775072E+03  8.8340888681980E+03  8.8367566465184E+03  8.8397837302375E+03 
 4.0487497735284E+03  4.0488328236355E+03  4.0491001010513E+03  4.0495516504013E+03  4.0501875471326E+03  4.0510078975124E+03  4.0520128386634E+03  4.0532025386106E+03  4.0545771963390E+03  4.0561370418600E+03 
 4.7766971909083E+03  4.7767753308427E+03  4.7770268042517E+03  4.7774516475699E+03  4.7780499223999E+03  4.7788217155068E+03  4.7797671388438E+03  4.7808863295874E+03  4.7821794501795E+03  4.7836466883775E+03 
ZONE T = "CATH, 4.0000E-08", I = 10, SOLUTIONTIME = 4.000000E-08
ZONETYPE = ORDERED
DATAPACKING = BLOCK
STRANDID = 3
 1.2700000000000E-03  1.3377333333333E-03  1.4054666666667E-03  1.4732000000000E-03  1.5409333333333E-03  1.6086666666667E-03  1.6764000000000E-03  1.7441333333333E-03  1.8118666666667E-03  1.8796000000000E-03 
 8.2368541652085E-09  7.2685931113101E-09  6.2999178764858E-09  5.3318829421687E-09  4.3633635309388E-09  3.3946876787006E-09  2.4258201909387E-09  1.4567258453331E-09  4.8736938663806E-10  2.3608502305665E-12 
 9.2000000000053E-01  9.2000000000150E-01  9.2000000000150E-01  9.2000000000150E-01  9.2000000000150E-01  9.2000000000150E-01  9.2000000000150E-01  9.2000000000150E-01  9.2000000000150E-01  9.2000000000150E-01 
 3.9999999999735E-02  3.9999999999249E-02  3.9999999999249E-02  3.9999999999249E-02  3.9999999999248E-02  3.9999999999248E-02  3.9999999999248E-02  3.9999999999248E-02  3.9999999999248E-02  3.9999999999248E-02 
 3.9999999999735E-02  3.9999999999249E-02  3.9999999999249E-02  3.9999999999249E-02  3.9999999999248E-02  3.9999999999248E-02  3.9999999999248E-02  3.9999999999248E-02  3.9999999999248E-02  3.9999999999248E-02 
 1.8787002432207E-02  1.8786918291039E-02  1.8786844043911E-02  1.8786779691345E-02  1.8786725234221E-02  1.8786680673778E-02  1.8786646011614E-02  1.8786621249687E-02  1.8786606390317E-02  1.8786601436180E-02 
 3.8000730065950E+00  3.8000721054923E+00  3.8000694021547E+00  3.8000648964874E+00  3.8000585883300E+00  3.8000504774568E+00  3.8000405635768E+00  3.8000288463330E+00  3.8000153253034E+00  3.8000000000000E+00 
 3.7812860041628E+00  3.7812851872012E+00  3.7812825581108E+00  3.7812781167960E+00  3.7812718630958E+00  3.7812637967831E+00  3.7812539175651E+00  3.7812422250833E+00  3.7812287189131E+00  3.7812133985638E+00 
 3.9779642109144E+00  3.9779642109141E+00  3.9779642109141E+00  3.9779642109141E+00  3.9779642109141E+00  3.9779642109141E+00  3.9779642109141E+00  3.9779642109141E+00  3.9779642109141E+00  3.9779642109141E+00 
-1.9667820675166E-01 -1.9667902371288E-01 -1.9668165280333E-01 -1.9668609411810E-01 -1.9669234781836E-01 -1.9670041413106E-01 -1.9671029334898E-01 -1.9672198583079E-01 -1.9673549200104E-01 -1.9675081235030E-01 
-6.9717366703176E-01 -1.3943701430934E+00 -1.3944435481430E+00 -1.3945675598419E+00 -1.3947421961717E+00 -1.3949674824580E+00 -1.3952434513789E+00 -1.3955701429749E+00 -1.3959476046610E+00 -6.9818794562099E-01 