TITLE = "Solution on Domain BulkDomain1D_0"
VARIABLES = "x [m]"  
"Vel_axial" 
"MF_sp(ECDMC)" 
"MF_sp(Li+)" 
"MF_sp(PF6-)" 
"Volt(Electroly)" 
"Volt(AnodeVolt)" 
"Potential Drop Electrode-Electrolyte [V]" 
"Surf_0 Equilibrium Potential Drop Electrode-Electrolyte [V]" 
"Overpotential_0 [V]" 
"Current Source [A/m^2]" 
"Li+ flux [kmol/m^2/s]" 
"Electrolyte Current [A/m^2]" 
"Electrode Current [A/m^2]" 
"CV Capacity discharged [A-s/m^2]" 
"Depth of discharge in CV [A-s/m^2]" 
"CV Capacity remaining [A-s/m^2]" 
"Initial CV capacity [A-s/m^2]" 
"Porosity []" 
"Surface Area [m2/m2] (area per area)" 
"Specific current (per particle area) [A/m^2]" 
"Control volume thickness [m]" 
"MoleDens Li_C6-bulk [kmol/m^3]" 
"MoleDens V_C6-bulk [kmol/m^3]" 
"qHeat_accum [J/m3]" 
"qHeat_step [W/m3]" 
"Joule_Lyte [W/m3]" 
"Joule_Solid [W/m3]" 
"electrodHeat [W/m3]" 
"OverpotHeat [W/m3]" 
"deltaSHeat [W/m3]" 

ZONE T = "ANOD, 0.0000E+00", I = 10, SOLUTIONTIME = 0.000000E+00
ZONETYPE = ORDERED
DATAPACKING = BLOCK
STRANDID = 1
 0.0000000000000E+00  8.7488888888889E-05  1.7497777777778E-04  2.6246666666667E-04  3.4995555555556E-04  4.3744444444444E-04  5.2493333333333E-04  6.1242222222222E-04  6.9991111111111E-04  7.8740000000000E-04 
 0.0000000000000E+00  0.0000000000000E+00  0.0000000000000E+00  0.0000000000000E+00  0.0000000000000E+00  0.0000000000000E+00  0.0000000000000E+00  0.0000000000000E+00  0.0000000000000E+00  0.0000000000000E+00 
 9.2000000000000E-01  9.2000000000000E-01  9.2000000000000E-01  9.2000000000000E-01  9.2000000000000E-01  9.2000000000000E-01  9.2000000000000E-01  9.2000000000000E-01  9.2000000000000E-01  9.2000000000000E-01 
 4.0000000000000E-02  4.0000000000000E-02  4.0000000000000E-02  4.0000000000000E-02  4.0000000000000E-02  4.0000000000000E-02  4.0000000000000E-02  4.0000000000000E-02  4.0000000000000E-02  4.0000000000000E-02 
 4.0000000000000E-02  4.0000000000000E-02  4.0000000000000E-02  4.0000000000000E-02  4.0000000000000E-02  4.0000000000000E-02  4.0000000000000E-02  4.0000000000000E-02  4.0000000000000E-02  4.0000000000000E-02 
-7.0000000000000E-02 -7.0000000000000E-02 -7.0000000000000E-02 -7.0000000000000E-02 -7.0000000000000E-02 -7.0000000000000E-02 -7.0000000000000E-02 -7.0000000000000E-02 -7.0000000000000E-02 -7.0000000000000E-02 
 0.0000000000000E+00  0.0000000000000E+00  0.0000000000000E+00  0.0000000000000E+00  0.0000000000000E+00  0.0000000000000E+00  0.0000000000000E+00  0.0000000000000E+00  0.0000000000000E+00  0.0000000000000E+00 
 7.0000000000000E-02  7.0000000000000E-02  7.0000000000000E-02  7.0000000000000E-02  7.0000000000000E-02  7.0000000000000E-02  7.0000000000000E-02  7.0000000000000E-02  7.0000000000000E-02  7.0000000000000E-02 
-3.5244196601921E-02 -3.5244196601921E-02 -3.5244196601921E-02 -3.5244196601921E-02 -3.5244196601921E-02 -3.5244196601921E-02 -3.5244196601921E-02 -3.5244196601921E-02 -3.5244196601921E-02 -3.5244196601921E-02 
 1.0524419660192E-01  1.0524419660192E-01  1.0524419660192E-01  1.0524419660192E-01  1.0524419660192E-01  1.0524419660192E-01  1.0524419660192E-01  1.0524419660192E-01  1.0524419660192E-01  1.0524419660192E-01 
 8.4172715094840E+00  1.6834543018968E+01  1.6834543018968E+01  1.6834543018968E+01  1.6834543018968E+01  1.6834543018968E+01  1.6834543018968E+01  1.6834543018968E+01  1.6834543018968E+01  8.4172715094840E+00 
-0.0000000000000E+00 -0.0000000000000E+00 -0.0000000000000E+00 -0.0000000000000E+00 -0.0000000000000E+00 -0.0000000000000E+00 -0.0000000000000E+00 -0.0000000000000E+00 -0.0000000000000E+00 -0.0000000000000E+00 
 0.0000000000000E+00  0.0000000000000E+00  0.0000000000000E+00  0.0000000000000E+00  0.0000000000000E+00  0.0000000000000E+00  0.0000000000000E+00  0.0000000000000E+00  0.0000000000000E+00  8.4172715094840E+00 
 8.4172715094840E+00 -0.0000000000000E+00 -0.0000000000000E+00 -0.0000000000000E+00 -0.0000000000000E+00 -0.0000000000000E+00 -0.0000000000000E+00 -0.0000000000000E+00 -0.0000000000000E+00  0.0000000000000E+00 
 0.0000000000000E+00  0.0000000000000E+00  0.0000000000000E+00  0.0000000000000E+00  0.0000000000000E+00  0.0000000000000E+00  0.0000000000000E+00  0.0000000000000E+00  0.0000000000000E+00  0.0000000000000E+00 
 9.1448444543281E+04  1.8289688908656E+05  1.8289688908656E+05  1.8289688908656E+05  1.8289688908656E+05  1.8289688908656E+05  1.8289688908656E+05  1.8289688908656E+05  1.8289688908656E+05  9.1448444543281E+04 
 3.6579377817312E+05  7.3158755634625E+05  7.3158755634625E+05  7.3158755634625E+05  7.3158755634625E+05  7.3158755634625E+05  7.3158755634625E+05  7.3158755634625E+05  7.3158755634625E+05  3.6579377817312E+05 
 4.5724222271640E+05  9.1448444543281E+05  9.1448444543281E+05  9.1448444543281E+05  9.1448444543281E+05  9.1448444543281E+05  9.1448444543281E+05  9.1448444543281E+05  9.1448444543281E+05  4.5724222271640E+05 
 3.5000000000000E-01  3.5000000000000E-01  3.5000000000000E-01  3.5000000000000E-01  3.5000000000000E-01  3.5000000000000E-01  3.5000000000000E-01  3.5000000000000E-01  3.5000000000000E-01  3.5000000000000E-01 
 8.5301666666666E+00  1.7060333333333E+01  1.7060333333333E+01  1.7060333333333E+01  1.7060333333333E+01  1.7060333333333E+01  1.7060333333333E+01  1.7060333333333E+01  1.7060333333333E+01  8.5301666666666E+00 
 9.8676518741143E-01  9.8676518741143E-01  9.8676518741143E-01  9.8676518741143E-01  9.8676518741143E-01  9.8676518741143E-01  9.8676518741143E-01  9.8676518741143E-01  9.8676518741143E-01  9.8676518741143E-01 
 4.3744444444444E-05  8.7488888888889E-05  8.7488888888889E-05  8.7488888888889E-05  8.7488888888889E-05  8.7488888888889E-05  8.7488888888889E-05  8.7488888888889E-05  8.7488888888889E-05  4.3744444444444E-05 
 8.6666666666666E+01  8.6666666666666E+01  8.6666666666666E+01  8.6666666666666E+01  8.6666666666666E+01  8.6666666666666E+01  8.6666666666666E+01  8.6666666666666E+01  8.6666666666666E+01  8.6666666666666E+01 
 2.1666666666667E+01  2.1666666666667E+01  2.1666666666667E+01  2.1666666666667E+01  2.1666666666667E+01  2.1666666666667E+01  2.1666666666667E+01  2.1666666666667E+01  2.1666666666667E+01  2.1666666666667E+01 
 0.0000000000000E+00  0.0000000000000E+00  0.0000000000000E+00  0.0000000000000E+00  0.0000000000000E+00  0.0000000000000E+00  0.0000000000000E+00  0.0000000000000E+00  0.0000000000000E+00  0.0000000000000E+00 
 0.0000000000000E+00  0.0000000000000E+00  0.0000000000000E+00  0.0000000000000E+00  0.0000000000000E+00  0.0000000000000E+00  0.0000000000000E+00  0.0000000000000E+00  0.0000000000000E+00  0.0000000000000E+00 
 0.0000000000000E+00  0.0000000000000E+00  0.0000000000000E+00  0.0000000000000E+00  0.0000000000000E+00  0.0000000000000E+00  0.0000000000000E+00  0.0000000000000E+00  0.0000000000000E+00  0.0000000000000E+00 
 0.0000000000000E+00  0.0000000000000E+00  0.0000000000000E+00  0.0000000000000E+00  0.0000000000000E+00  0.0000000000000E+00  0.0000000000000E+00  0.0000000000000E+00  0.0000000000000E+00  0.0000000000000E+00 
 0.0000000000000E+00  0.0000000000000E+00  0.0000000000000E+00  0.0000000000000E+00  0.0000000000000E+00  0.0000000000000E+00  0.0000000000000E+00  0.0000000000000E+00  0.0000000000000E+00  0.0000000000000E+00 
 0.0000000000000E+00  0.0000000000000E+00  0.0000000000000E+00  0.0000000000000E+00  0.0000000000000E+00  0.0000000000000E+00  0.0000000000000E+00  0.0000000000000E+00  0.0000000000000E+00  0.0000000000000E+00 
 0.0000000000000E+00  0.0000000000000E+00  0.0000000000000E+00  0.0000000000000E+00  0.0000000000000E+00  0.0000000000000E+00  0.0000000000000E+00  0.0000000000000E+00  0.0000000000000E+00  0.0000000000000E+00 
ZONE T = "ANOD, 1.0000E-08", I = 10, SOLUTIONTIME = 1.000000E-08
ZONETYPE = ORDERED
DATAPACKING = BLOCK
STRANDID = 1
 0.0000000000000E+00  8.7488888888889E-05  1.7497777777778E-04  2.6246666666667E-04  3.4995555555556E-04  4.3744444444444E-04  5.2493333333333E-04  6.1242222222222E-04  6.9991111111111E-04  7.8740000000000E-04 
 4.8451369749387E-10  1.4535413615440E-09  2.4225700886714E-09  3.3916006726419E-09  4.3606339072109E-09  5.3300337943659E-09  6.2994379199179E-09  7.2684838699190E-09  8.2375356461325E-09  8.7211568249491E-09 
 9.1999999999971E-01  9.1999999999971E-01  9.1999999999971E-01  9.1999999999971E-01  9.1999999999971E-01  9.1999999999971E-01  9.1999999999971E-01  9.1999999999971E-01  9.1999999999971E-01  9.1999999999988E-01 
 4.0000000000146E-02  4.0000000000146E-02  4.0000000000146E-02  4.0000000000146E-02  4.0000000000146E-02  4.0000000000146E-02  4.0000000000146E-02  4.0000000000146E-02  4.0000000000146E-02  4.0000000000060E-02 
 4.0000000000146E-02  4.0000000000146E-02  4.0000000000146E-02  4.0000000000146E-02  4.0000000000146E-02  4.0000000000146E-02  4.0000000000146E-02  4.0000000000146E-02  4.0000000000146E-02  4.0000000000060E-02 
 1.8787708786660E-02  1.8787702394097E-02  1.8787683216406E-02  1.8787651253565E-02  1.8787606505562E-02  1.8787548972404E-02  1.8787478653938E-02  1.8787395550221E-02  1.8787299661080E-02  1.8787190986535E-02 
 0.0000000000000E+00 -1.9795496288093E-09 -3.7262135999243E-09 -5.2399916577639E-09 -6.5208833559068E-09 -7.5688880570947E-09 -8.3840049331176E-09 -8.9662329649826E-09 -9.3155709428579E-09 -9.4320174660088E-09 
-1.8787708786660E-02 -1.8787704373647E-02 -1.8787686942620E-02 -1.8787656493556E-02 -1.8787613026446E-02 -1.8787556541292E-02 -1.8787487037943E-02 -1.8787404516454E-02 -1.8787308976651E-02 -1.8787200418553E-02 
-3.5244196601720E-02 -3.5244196601718E-02 -3.5244196601720E-02 -3.5244196601720E-02 -3.5244196601720E-02 -3.5244196601715E-02 -3.5244196601715E-02 -3.5244196601720E-02 -3.5244196601720E-02 -3.5244196601773E-02 
 1.6456487815060E-02  1.6456492228071E-02  1.6456509659100E-02  1.6456540108163E-02  1.6456583575274E-02  1.6456640060424E-02  1.6456709563772E-02  1.6456792085265E-02  1.6456887625069E-02  1.6456996183220E-02 
 6.9750564209405E-01  1.3950116716996E+00  1.3950132023372E+00  1.3950158761032E+00  1.3950196929993E+00  1.3950246530259E+00  1.3950307561979E+00  1.3950380025118E+00  1.3950463919847E+00  6.9752796230847E-01 
 3.6144193681190E-09  1.0843258898829E-08  1.8072111435347E-08  2.5300969682256E-08  3.2529825333890E-08  3.9758766300084E-08  4.6987675532502E-08  5.4216683048016E-08  6.1445708276697E-08  6.1445708276697E-08 
 0.0000000000000E+00  1.3949539520107E+00  2.7899092355460E+00  4.1848663249201E+00  5.5798237148572E+00  6.9747890859923E+00  8.3697596268874E+00  9.7647365888161E+00  1.1159721835149E+01  1.2554741821388E+01 
 1.2554743399029E+01  1.1159760771949E+01  9.7648060365304E+00  8.3698491986611E+00  6.9748891152440E+00  5.5799246428472E+00  4.1849546382010E+00  2.7899779583738E+00  1.3949934600740E+00  0.0000000000000E+00 
 6.9750564209405E-09  1.3950116716996E-08  1.3950132023372E-08  1.3950158761032E-08  1.3950196929993E-08  1.3950246530259E-08  1.3950307561979E-08  1.3950380025118E-08  1.3950463919847E-08  6.9752796230847E-09 
 9.1448444543288E+04  1.8289688908658E+05  1.8289688908658E+05  1.8289688908658E+05  1.8289688908658E+05  1.8289688908658E+05  1.8289688908658E+05  1.8289688908658E+05  1.8289688908658E+05  9.1448444543288E+04 
 3.6579377817312E+05  7.3158755634623E+05  7.3158755634623E+05  7.3158755634623E+05  7.3158755634623E+05  7.3158755634623E+05  7.3158755634623E+05  7.3158755634623E+05  7.3158755634623E+05  3.6579377817312E+05 
 4.5724222271640E+05  9.1448444543281E+05  9.1448444543281E+05  9.1448444543281E+05  9.1448444543281E+05  9.1448444543281E+05  9.1448444543281E+05  9.1448444543281E+05  9.1448444543281E+05  4.5724222271640E+05 
 3.5000000000000E-01  3.5000000000000E-01  3.5000000000000E-01  3.5000000000000E-01  3.5000000000000E-01  3.5000000000000E-01  3.5000000000000E-01  3.5000000000000E-01  3.5000000000000E-01  3.5000000000000E-01 
 8.5301666666666E+00  1.7060333333333E+01  1.7060333333333E+01  1.7060333333333E+01  1.7060333333333E+01  1.7060333333333E+01  1.7060333333333E+01  1.7060333333333E+01  1.7060333333333E+01  8.5301666666666E+00 
 8.1769286504061E-02  8.1769309218243E-02  8.1769398937332E-02  8.1769555661470E-02  8.1769779390749E-02  8.1770070125198E-02  8.1770427865684E-02  8.1770852612013E-02  8.1771344365177E-02  8.1771903125199E-02 
 4.3744444444444E-05  8.7488888888889E-05  8.7488888888889E-05  8.7488888888889E-05  8.7488888888889E-05  8.7488888888889E-05  8.7488888888889E-05  8.7488888888889E-05  8.7488888888889E-05  4.3744444444444E-05 
 8.6666666666665E+01  8.6666666666665E+01  8.6666666666665E+01  8.6666666666665E+01  8.6666666666665E+01  8.6666666666665E+01  8.6666666666665E+01  8.6666666666665E+01  8.6666666666665E+01  8.6666666666665E+01 
 2.1666666666668E+01  2.1666666666668E+01  2.1666666666668E+01  2.1666666666668E+01  2.1666666666668E+01  2.1666666666668E+01  2.1666666666668E+01  2.1666666666668E+01  2.1666666666668E+01  2.1666666666668E+01 
-2.9339797773491E-05 -2.9339803478510E-05 -2.9339827332873E-05 -2.9339869002407E-05 -2.9339928487122E-05 -2.9340005786867E-05 -2.9340100901891E-05 -2.9340213831972E-05 -2.9340344577307E-05 -2.9340511485118E-05 
-2.9339797773491E+03 -2.9339803478510E+03 -2.9339827332873E+03 -2.9339869002407E+03 -2.9339928487122E+03 -2.9340005786867E+03 -2.9340100901891E+03 -2.9340213831972E+03 -2.9340344577307E+03 -2.9340511485118E+03 
 5.0962647093573E-05  2.5481326907361E-04  8.6636606311342E-04  1.8856223375427E-03  3.3125819017081E-03  5.1472575998435E-03  7.3896486098768E-03  1.0039765508326E-02  1.3097614887983E-02  1.4728468142885E-02 
 2.6828538913385E-04  2.3857935148618E-04  1.8288046148141E-04  1.3460793754726E-04  9.3761782834198E-05  6.0342024829115E-05  3.4348715369105E-05  1.5781930643304E-05  4.6417711786956E-06  9.2836184896535E-07 
-2.9339800965971E+03 -2.9339808412436E+03 -2.9339837825338E+03 -2.9339889204710E+03 -2.9339962550559E+03 -2.9340057862863E+03 -2.9340175141864E+03 -2.9340314387446E+03 -2.9340475599873E+03 -2.9340658779083E+03 
 2.6239887706652E+02  2.6239902032225E+02  2.6239958617053E+02  2.6240057461357E+02  2.6240198565423E+02  2.6240381929590E+02  2.6240607554827E+02  2.6240875441529E+02  2.6241185590935E+02  2.6241538003771E+02 
-3.1963789736636E+03 -3.1963798615659E+03 -3.1963833687043E+03 -3.1963894950845E+03 -3.1963982407101E+03 -3.1964096055822E+03 -3.1964235897347E+03 -3.1964401931599E+03 -3.1964594158967E+03 -3.1964812579460E+03 
ZONE T = "ANOD, 2.0000E-08", I = 10, SOLUTIONTIME = 2.000000E-08
ZONETYPE = ORDERED
DATAPACKING = BLOCK
STRANDID = 1
 0.0000000000000E+00  8.7488888888889E-05  1.7497777777778E-04  2.6246666666667E-04  3.4995555555556E-04  4.3744444444444E-04  5.2493333333333E-04  6.1242222222222E-04  6.9991111111111E-04  7.8740000000000E-04 
 4.8453320199299E-10  1.4539630828078E-09  2.4230308188215E-09  3.3921004115882E-09  4.3615358626644E-09  5.3306115504260E-09  6.2996914764357E-09  7.2691396422612E-09  8.2385936340195E-09  8.7229607320639E-09 
 9.1999999999942E-01  9.1999999999942E-01  9.1999999999942E-01  9.1999999999942E-01  9.1999999999942E-01  9.1999999999942E-01  9.1999999999942E-01  9.1999999999942E-01  9.1999999999942E-01  9.1999999999976E-01 
 4.0000000000291E-02  4.0000000000291E-02  4.0000000000291E-02  4.0000000000291E-02  4.0000000000291E-02  4.0000000000291E-02  4.0000000000291E-02  4.0000000000291E-02  4.0000000000291E-02  4.0000000000120E-02 
 4.0000000000291E-02  4.0000000000291E-02  4.0000000000291E-02  4.0000000000291E-02  4.0000000000291E-02  4.0000000000291E-02  4.0000000000291E-02  4.0000000000291E-02  4.0000000000291E-02  4.0000000000120E-02 
 1.8787726161008E-02  1.8787719768189E-02  1.8787700589727E-02  1.8787668625610E-02  1.8787623875812E-02  1.8787566340299E-02  1.8787496019024E-02  1.8787412911933E-02  1.8787317018958E-02  1.8787208340023E-02 
 0.0000000000000E+00 -1.9796293449977E-09 -3.7263636537830E-09 -5.2402026708078E-09 -6.5211459496728E-09 -7.5691928531269E-09 -8.3843425530666E-09 -8.9665940305351E-09 -9.3159460757212E-09 -9.4323972879581E-09 
-1.8787726161008E-02 -1.8787721747818E-02 -1.8787704316091E-02 -1.8787673865813E-02 -1.8787630396958E-02 -1.8787573909491E-02 -1.8787504403367E-02 -1.8787421878527E-02 -1.8787326334904E-02 -1.8787217772420E-02 
-3.5244196601512E-02 -3.5244196601512E-02 -3.5244196601512E-02 -3.5244196601512E-02 -3.5244196601511E-02 -3.5244196601512E-02 -3.5244196601512E-02 -3.5244196601511E-02 -3.5244196601511E-02 -3.5244196601618E-02 
 1.6456470440504E-02  1.6456474853694E-02  1.6456492285421E-02  1.6456522735699E-02  1.6456566204553E-02  1.6456622692020E-02  1.6456692198145E-02  1.6456774722985E-02  1.6456870266607E-02  1.6456978829198E-02 
 6.9750487925697E-01  1.3950101460409E+00  1.3950116767398E+00  1.3950143506122E+00  1.3950181676609E+00  1.3950231278902E+00  1.3950292313052E+00  1.3950364779125E+00  1.3950448677199E+00  6.9752720036968E-01 
 3.6145641683681E-09  1.0843694500901E-08  1.8072832775114E-08  2.5301984898061E-08  3.2531156813077E-08  3.9760354421037E-08  4.6989583658805E-08  5.4218850457066E-08  6.1448220996868E-08  6.1448220996868E-08 
 0.0000000000000E+00  1.3950099523239E+00  2.7900208636861E+00  4.1850338772862E+00  5.5800501365130E+00  6.9750707843765E+00  8.3700969636978E+00  9.7651298184335E+00  1.1160170491392E+01  1.2555220125551E+01 
 1.2555220125508E+01  1.1160210173231E+01  9.7651992618404E+00  8.3701862481644E+00  6.9751699890279E+00  5.5801493412523E+00  4.1851231616547E+00  2.7900903070458E+00  1.3950496342296E+00  0.0000000000000E+00 
 1.3950105213510E-08  2.7900218177405E-08  2.7900248790770E-08  2.7900302267154E-08  2.7900378606602E-08  2.7900477809161E-08  2.7900599875031E-08  2.7900744804243E-08  2.7900912597046E-08  1.3950551626781E-08 
 9.1448444543295E+04  1.8289688908659E+05  1.8289688908659E+05  1.8289688908659E+05  1.8289688908659E+05  1.8289688908659E+05  1.8289688908659E+05  1.8289688908659E+05  1.8289688908659E+05  9.1448444543295E+04 
 3.6579377817311E+05  7.3158755634622E+05  7.3158755634622E+05  7.3158755634622E+05  7.3158755634622E+05  7.3158755634622E+05  7.3158755634622E+05  7.3158755634622E+05  7.3158755634622E+05  3.6579377817311E+05 
 4.5724222271640E+05  9.1448444543281E+05  9.1448444543281E+05  9.1448444543281E+05  9.1448444543281E+05  9.1448444543281E+05  9.1448444543281E+05  9.1448444543281E+05  9.1448444543281E+05  4.5724222271640E+05 
 3.5000000000000E-01  3.5000000000000E-01  3.5000000000000E-01  3.5000000000000E-01  3.5000000000000E-01  3.5000000000000E-01  3.5000000000000E-01  3.5000000000000E-01  3.5000000000000E-01  3.5000000000000E-01 
 8.5301666666666E+00  1.7060333333333E+01  1.7060333333333E+01  1.7060333333333E+01  1.7060333333333E+01  1.7060333333333E+01  1.7060333333333E+01  1.7060333333333E+01  1.7060333333333E+01  8.5301666666666E+00 
 8.1769197075904E-02  8.1769219790992E-02  8.1769309513674E-02  8.1769466244047E-02  8.1769689982273E-02  8.1769980728601E-02  8.1770338483336E-02  8.1770763246860E-02  8.1771255019628E-02  8.1771813802350E-02 
 4.3744444444444E-05  8.7488888888889E-05  8.7488888888889E-05  8.7488888888889E-05  8.7488888888889E-05  8.7488888888889E-05  8.7488888888889E-05  8.7488888888889E-05  8.7488888888889E-05  4.3744444444444E-05 
 8.6666666666663E+01  8.6666666666663E+01  8.6666666666663E+01  8.6666666666663E+01  8.6666666666663E+01  8.6666666666663E+01  8.6666666666663E+01  8.6666666666663E+01  8.6666666666663E+01  8.6666666666663E+01 
 2.1666666666670E+01  2.1666666666670E+01  2.1666666666670E+01  2.1666666666670E+01  2.1666666666670E+01  2.1666666666670E+01  2.1666666666670E+01  2.1666666666670E+01  2.1666666666670E+01  2.1666666666670E+01 
-5.8679566229184E-05 -5.8679577639382E-05 -5.8679625348847E-05 -5.8679708689192E-05 -5.8679827660421E-05 -5.8679982262389E-05 -5.8680172495344E-05 -5.8680398359064E-05 -5.8680659853749E-05 -5.8680993675490E-05 
-2.9339768455694E+03 -2.9339774160872E+03 -2.9339798015975E+03 -2.9339839686785E+03 -2.9339899173299E+03 -2.9339976475522E+03 -2.9340071593453E+03 -2.9340184527093E+03 -2.9340315276442E+03 -2.9340482190373E+03 
 1.0192937751882E-04  5.0964700600589E-04  1.7328014072623E-03  3.7713957327818E-03  6.6254329722000E-03  1.0294930485815E-02  1.4779893304098E-02  2.0080339194281E-02  2.6196283274621E-02  2.9458126456111E-02 
 5.3659238633344E-04  4.7717791844459E-04  3.6577565232532E-04  2.6922671649901E-04  1.8753111726208E-04  1.2068890959252E-04  6.8700197163904E-05  3.1565132347553E-05  9.2839161987866E-06  1.8567984662645E-06 
-2.9339771648431E+03 -2.9339779095195E+03 -2.9339808509280E+03 -2.9339859890706E+03 -2.9339933239503E+03 -2.9340028555720E+03 -2.9340145839415E+03 -2.9340285090662E+03 -2.9340446309548E+03 -2.9340629496240E+03 
 2.6239831305301E+02  2.6239845631429E+02  2.6239902218466E+02  2.6240001066603E+02  2.6240142176167E+02  2.6240325547639E+02  2.6240551181633E+02  2.6240819078907E+02  2.6241129240361E+02  2.6241481667182E+02 
-3.1963754778961E+03 -3.1963763658338E+03 -3.1963798731127E+03 -3.1963859997367E+03 -3.1963947457120E+03 -3.1964061110484E+03 -3.1964200957578E+03 -3.1964366998552E+03 -3.1964559233584E+03 -3.1964777662958E+03 
ZONE T = "ANOD, 3.0000E-08", I = 10, SOLUTIONTIME = 3.000000E-08
ZONETYPE = ORDERED
DATAPACKING = BLOCK
STRANDID = 1
 0.0000000000000E+00  8.7488888888889E-05  1.7497777777778E-04  2.6246666666667E-04  3.4995555555556E-04  4.3744444444444E-04  5.2493333333333E-04  6.1242222222222E-04  6.9991111111111E-04  7.8740000000000E-04 
 4.8435159812596E-10  1.4530550634789E-09  2.4217595917585E-09  3.3904659767911E-09  4.3591750124055E-09  5.3278874924329E-09  6.2966042107085E-09  7.2653259610721E-09  8.2340535373686E-09  8.7171494083639E-09 
 9.1999999999913E-01  9.1999999999913E-01  9.1999999999913E-01  9.1999999999913E-01  9.1999999999913E-01  9.1999999999913E-01  9.1999999999913E-01  9.1999999999913E-01  9.1999999999913E-01  9.1999999999964E-01 
 4.0000000000437E-02  4.0000000000437E-02  4.0000000000437E-02  4.0000000000437E-02  4.0000000000437E-02  4.0000000000437E-02  4.0000000000437E-02  4.0000000000437E-02  4.0000000000437E-02  4.0000000000181E-02 
 4.0000000000437E-02  4.0000000000437E-02  4.0000000000437E-02  4.0000000000437E-02  4.0000000000437E-02  4.0000000000437E-02  4.0000000000437E-02  4.0000000000437E-02  4.0000000000437E-02  4.0000000000181E-02 
 1.8787726160954E-02  1.8787719768134E-02  1.8787700589673E-02  1.8787668625556E-02  1.8787623875758E-02  1.8787566340244E-02  1.8787496018970E-02  1.8787412911878E-02  1.8787317018904E-02  1.8787208339969E-02 
 0.0000000000000E+00 -1.9796293449851E-09 -3.7263636537593E-09 -5.2402026707746E-09 -6.5211459496315E-09 -7.5691928530790E-09 -8.3843425530137E-09 -8.9665940304787E-09 -9.3159460756628E-09 -9.4323972878992E-09 
-1.8787726160954E-02 -1.8787721747764E-02 -1.8787704316037E-02 -1.8787673865758E-02 -1.8787630396904E-02 -1.8787573909437E-02 -1.8787504403312E-02 -1.8787421878473E-02 -1.8787326334850E-02 -1.8787217772366E-02 
-3.5244196601302E-02 -3.5244196601303E-02 -3.5244196601302E-02 -3.5244196601302E-02 -3.5244196601303E-02 -3.5244196601304E-02 -3.5244196601304E-02 -3.5244196601303E-02 -3.5244196601303E-02 -3.5244196601463E-02 
 1.6456470440349E-02  1.6456474853539E-02  1.6456492285266E-02  1.6456522735544E-02  1.6456566204399E-02  1.6456622691867E-02  1.6456692197991E-02  1.6456774722831E-02  1.6456870266453E-02  1.6456978829097E-02 
 6.9750487925242E-01  1.3950101460318E+00  1.3950116767307E+00  1.3950143506031E+00  1.3950181676519E+00  1.3950231278809E+00  1.3950292312960E+00  1.3950364779035E+00  1.3950448677109E+00  6.9752720036678E-01 
 3.6145641683812E-09  1.0843694500940E-08  1.8072832775180E-08  2.5301984898153E-08  3.2531156811233E-08  3.9760354421181E-08  4.6989583658976E-08  5.4218850457264E-08  6.1448251133352E-08  6.1448251133352E-08 
 0.0000000000000E+00  1.3950099523290E+00  2.7900208636963E+00  4.1850338773015E+00  5.5800501363440E+00  6.9750707842126E+00  8.3700969637283E+00  9.7651298184690E+00  1.1160170491237E+01  1.2555220125200E+01 
 1.2555220125428E+01  1.1160210173160E+01  9.7651992617785E+00  8.3701862481116E+00  6.9751699889841E+00  5.5801493412176E+00  4.1851231616292E+00  2.7900903070294E+00  1.3950496342222E+00  0.0000000000000E+00 
 2.0925154006034E-08  4.1850319637724E-08  4.1850365558076E-08  4.1850445773185E-08  4.1850560283121E-08  4.1850709087970E-08  4.1850892187990E-08  4.1851109583279E-08  4.1851361274154E-08  2.0925823630449E-08 
 9.1448444543302E+04  1.8289688908660E+05  1.8289688908660E+05  1.8289688908660E+05  1.8289688908660E+05  1.8289688908660E+05  1.8289688908660E+05  1.8289688908660E+05  1.8289688908660E+05  9.1448444543302E+04 
 3.6579377817310E+05  7.3158755634620E+05  7.3158755634620E+05  7.3158755634620E+05  7.3158755634620E+05  7.3158755634621E+05  7.3158755634621E+05  7.3158755634620E+05  7.3158755634620E+05  3.6579377817310E+05 
 4.5724222271640E+05  9.1448444543281E+05  9.1448444543281E+05  9.1448444543281E+05  9.1448444543281E+05  9.1448444543281E+05  9.1448444543281E+05  9.1448444543281E+05  9.1448444543281E+05  4.5724222271640E+05 
 3.5000000000000E-01  3.5000000000000E-01  3.5000000000000E-01  3.5000000000000E-01  3.5000000000000E-01  3.5000000000000E-01  3.5000000000000E-01  3.5000000000000E-01  3.5000000000000E-01  3.5000000000000E-01 
 8.5301666666666E+00  1.7060333333333E+01  1.7060333333333E+01  1.7060333333333E+01  1.7060333333333E+01  1.7060333333333E+01  1.7060333333333E+01  1.7060333333333E+01  1.7060333333333E+01  8.5301666666666E+00 
 8.1769197075371E-02  8.1769219790459E-02  8.1769309513141E-02  8.1769466243515E-02  8.1769689981746E-02  8.1769980728060E-02  8.1770338482796E-02  8.1770763246334E-02  8.1771255019102E-02  8.1771813802010E-02 
 4.3744444444444E-05  8.7488888888889E-05  8.7488888888889E-05  8.7488888888889E-05  8.7488888888889E-05  8.7488888888889E-05  8.7488888888889E-05  8.7488888888889E-05  8.7488888888889E-05  4.3744444444444E-05 
 8.6666666666661E+01  8.6666666666661E+01  8.6666666666661E+01  8.6666666666661E+01  8.6666666666661E+01  8.6666666666661E+01  8.6666666666661E+01  8.6666666666661E+01  8.6666666666661E+01  8.6666666666661E+01 
 2.1666666666672E+01  2.1666666666672E+01  2.1666666666672E+01  2.1666666666672E+01  2.1666666666672E+01  2.1666666666672E+01  2.1666666666672E+01  2.1666666666672E+01  2.1666666666672E+01  2.1666666666672E+01 
-8.8019334684695E-05 -8.8019351800071E-05 -8.8019423364640E-05 -8.8019548375794E-05 -8.8019726833540E-05 -8.8019958737726E-05 -8.8020244088612E-05 -8.8020582885977E-05 -8.8020975130011E-05 -8.8021475865749E-05 
-2.9339768455511E+03 -2.9339774160689E+03 -2.9339798015792E+03 -2.9339839686602E+03 -2.9339899173118E+03 -2.9339976475337E+03 -2.9340071593268E+03 -2.9340184526912E+03 -2.9340315276262E+03 -2.9340482190259E+03 
 1.5289610794425E-04  7.6448074293909E-04  2.5992367514144E-03  5.6571691280279E-03  9.9382840424550E-03  1.5442603371557E-02  2.2170137998345E-02  3.0120912880273E-02  3.9294951660828E-02  4.4187784768436E-02 
 8.0489938352960E-04  7.1577648539997E-04  5.4867084316691E-04  4.0384549544906E-04  2.8130045168879E-04  1.8103579435518E-04  1.0305167895828E-04  4.7348334051616E-05  1.3926061218826E-05  2.7852350835559E-06 
-2.9339771648249E+03 -2.9339779095012E+03 -2.9339808509098E+03 -2.9339859890524E+03 -2.9339933239322E+03 -2.9340028555535E+03 -2.9340145839230E+03 -2.9340285090481E+03 -2.9340446309367E+03 -2.9340629496127E+03 
 2.6239831304883E+02  2.6239845631012E+02  2.6239902218049E+02  2.6240001066185E+02  2.6240142175752E+02  2.6240325547216E+02  2.6240551181210E+02  2.6240819078492E+02  2.6241129239946E+02  2.6241481666913E+02 
-3.1963754778737E+03 -3.1963763658114E+03 -3.1963798730903E+03 -3.1963859997142E+03 -3.1963947456898E+03 -3.1964061110256E+03 -3.1964200957351E+03 -3.1964366998330E+03 -3.1964559233362E+03 -3.1964777662818E+03 
ZONE T = "ANOD, 4.0000E-08", I = 10, SOLUTIONTIME = 4.000000E-08
ZONETYPE = ORDERED
DATAPACKING = BLOCK
STRANDID = 1
 0.0000000000000E+00  8.7488888888889E-05  1.7497777777778E-04  2.6246666666667E-04  3.4995555555556E-04  4.3744444444444E-04  5.2493333333333E-04  6.1242222222222E-04  6.9991111111111E-04  7.8740000000000E-04 
 4.8453320198668E-10  1.4535998750612E-09  2.4226676110622E-09  3.3917372038163E-09  4.3608094471522E-09  5.3302483426288E-09  6.2996914763537E-09  7.2687764344389E-09  8.2378672184569E-09  8.7222343164974E-09 
 9.1999999999884E-01  9.1999999999884E-01  9.1999999999884E-01  9.1999999999884E-01  9.1999999999884E-01  9.1999999999884E-01  9.1999999999884E-01  9.1999999999884E-01  9.1999999999884E-01  9.1999999999952E-01 
 4.0000000000582E-02  4.0000000000582E-02  4.0000000000582E-02  4.0000000000582E-02  4.0000000000582E-02  4.0000000000582E-02  4.0000000000582E-02  4.0000000000582E-02  4.0000000000582E-02  4.0000000000241E-02 
 4.0000000000582E-02  4.0000000000582E-02  4.0000000000582E-02  4.0000000000582E-02  4.0000000000582E-02  4.0000000000582E-02  4.0000000000582E-02  4.0000000000582E-02  4.0000000000582E-02  4.0000000000241E-02 
 1.8787726160901E-02  1.8787719768081E-02  1.8787700589620E-02  1.8787668625503E-02  1.8787623875705E-02  1.8787566340191E-02  1.8787496018917E-02  1.8787412911825E-02  1.8787317018851E-02  1.8787208339916E-02 
 0.0000000000000E+00 -1.9796293449726E-09 -3.7263636537357E-09 -5.2402026707414E-09 -6.5211459495903E-09 -7.5691928530313E-09 -8.3843425529610E-09 -8.9665940304225E-09 -9.3159460756047E-09 -9.4323972878406E-09 
-1.8787726160901E-02 -1.8787721747711E-02 -1.8787704315984E-02 -1.8787673865705E-02 -1.8787630396851E-02 -1.8787573909384E-02 -1.8787504403259E-02 -1.8787421878419E-02 -1.8787326334797E-02 -1.8787217772313E-02 
-3.5244196601097E-02 -3.5244196601097E-02 -3.5244196601097E-02 -3.5244196601097E-02 -3.5244196601097E-02 -3.5244196601097E-02 -3.5244196601097E-02 -3.5244196601097E-02 -3.5244196601097E-02 -3.5244196601310E-02 
 1.6456470440197E-02  1.6456474853387E-02  1.6456492285114E-02  1.6456522735392E-02  1.6456566204247E-02  1.6456622691713E-02  1.6456692197838E-02  1.6456774722678E-02  1.6456870266301E-02  1.6456978828998E-02 
 6.9750487924786E-01  1.3950101460228E+00  1.3950116767216E+00  1.3950143505940E+00  1.3950181676429E+00  1.3950231278719E+00  1.3950292312869E+00  1.3950364778946E+00  1.3950448677019E+00  6.9752720036390E-01 