TITLE = "Solution on Domain BulkDomain1D_0"
VARIABLES = "x [m]"  
"Vel_axial" 
"MF_sp(ECDMC)" 
"MF_sp(Li+)" 
"MF_sp(PF6-)" 
"Volt(Electroly)" 
"Volt(AnodeVolt)" 
"Potential Drop Electrode-Electrolyte [V]" 
"Surf_0 Equilibrium Potential Drop Electrode-Electrolyte [V]" 
"Overpotential_0 [V]" 
"Current Source [A/m^2]" 
"Li+ flux [kmol/m^2/s]" 
"Electrolyte Current [A/m^2]" 
"Electrode Current [A/m^2]" 
"CV Capacity discharged [A-s/m^2]" 
"Depth of discharge in CV [A-s/m^2]" 
"CV Capacity remaining [A-s/m^2]" 
"Initial CV capacity [A-s/m^2]" 
"Porosity []" 
"Surface Area [m2/m2] (area per area)" 
"Specific current (per particle area) [A/m^2]" 
"Control volume thickness [m]" 
"MoleDens Li_C6-bulk [kmol/m^3]" 
"MoleDens V_C6-bulk [kmol/m^3]" 
"qHeat_accum [J/m3]" 
"qHeat_step [W/m3]" 
"Joule_Lyte [W/m3]" 
"Joule_Solid [W/m3]" 
"electrodHeat [W/m3]" 
"OverpotHeat [W/m3]" 
"deltaSHeat [W/m3]" 

ZONE T = "ANOD, 0.0000E+00", I = 10, SOLUTIONTIME = 0.000000E+00
ZONETYPE = ORDERED
DATAPACKING = BLOCK
STRANDID = 1
 0.0000000000000E+00  8.7488888888889E-05  1.7497777777778E-04  2.6246666666667E-04  3.4995555555556E-04  4.3744444444444E-04  5.2493333333333E-04  6.1242222222222E-04  6.9991111111111E-04  7.8740000000000E-04 
 0.0000000000000E+00  0.0000000000000E+00  0.0000000000000E+00  0.0000000000000E+00  0.0000000000000E+00  0.0000000000000E+00  0.0000000000000E+00  0.0000000000000E+00  0.0000000000000E+00  0.0000000000000E+00 
 9.2000000000000E-01  9.2000000000000E-01  9.2000000000000E-01  9.2000000000000E-01  9.2000000000000E-01  9.2000000000000E-01  9.2000000000000E-01  9.2000000000000E-01  9.2000000000000E-01  9.2000000000000E-01 
 4.0000000000000E-02  4.0000000000000E-02  4.0000000000000E-02  4.0000000000000E-02  4.0000000000000E-02  4.0000000000000E-02  4.0000000000000E-02  4.0000000000000E-02  4.0000000000000E-02  4.0000000000000E-02 
 4.0000000000000E-02  4.0000000000000E-02  4.0000000000000E-02  4.0000000000000E-02  4.0000000000000E-02  4.0000000000000E-02  4.0000000000000E-02  4.0000000000000E-02  4.0000000000000E-02  4.0000000000000E-02 
-7.0000000000000E-02 -7.0000000000000E-02 -7.0000000000000E-02 -7.0000000000000E-02 -7.0000000000000E-02 -7.0000000000000E-02 -7.0000000000000E-02 -7.0000000000000E-02 -7.0000000000000E-02 -7.0000000000000E-02 
 0.0000000000000E+00  0.0000000000000E+00  0.0000000000000E+00  0.0000000000000E+00  0.0000000000000E+00  0.0000000000000E+00  0.0000000000000E+00  0.0000000000000E+00  0.0000000000000E+00  0.0000000000000E+00 
 7.0000000000000E-02  7.0000000000000E-02  7.0000000000000E-02  7.0000000000000E-02  7.0000000000000E-02  7.0000000000000E-02  7.0000000000000E-02  7.0000000000000E-02  7.0000000000000E-02  7.0000000000000E-02 
-3.5244196601921E-02 -3.5244196601921E-02 -3.5244196601921E-02 -3.5244196601921E-02 -3.5244196601921E-02 -3.5244196601921E-02 -3.5244196601921E-02 -3.5244196601921E-02 -3.5244196601921E-02 -3.5244196601921E-02 
 1.0524419660192E-01  1.0524419660192E-01  1.0524419660192E-01  1.0524419660192E-01  1.0524419660192E-01  1.0524419660192E-01  1.0524419660192E-01  1.0524419660192E-01  1.0524419660192E-01  1.0524419660192E-01 
 8.4172715094840E+00  1.6834543018968E+01  1.6834543018968E+01  1.6834543018968E+01  1.6834543018968E+01  1.6834543018968E+01  1.6834543018968E+01  1.6834543018968E+01  1.6834543018968E+01  8.4172715094840E+00 
-0.0000000000000E+00 -0.0000000000000E+00 -0.0000000000000E+00 -0.0000000000000E+00 -0.0000000000000E+00 -0.0000000000000E+00 -0.0000000000000E+00 -0.0000000000000E+00 -0.0000000000000E+00 -0.0000000000000E+00 
 0.0000000000000E+00  0.0000000000000E+00  0.0000000000000E+00  0.0000000000000E+00  0.0000000000000E+00  0.0000000000000E+00  0.0000000000000E+00  0.0000000000000E+00  0.0000000000000E+00  8.4172715094840E+00 
 8.4172715094840E+00 -0.0000000000000E+00 -0.0000000000000E+00 -0.0000000000000E+00 -0.0000000000000E+00 -0.0000000000000E+00 -0.0000000000000E+00 -0.0000000000000E+00 -0.0000000000000E+00  0.0000000000000E+00 
 0.0000000000000E+00  0.0000000000000E+00  0.0000000000000E+00  0.0000000000000E+00  0.0000000000000E+00  0.0000000000000E+00  0.0000000000000E+00  0.0000000000000E+00  0.0000000000000E+00  0.0000000000000E+00 
 9.1448444543281E+04  1.8289688908656E+05  1.8289688908656E+05  1.8289688908656E+05  1.8289688908656E+05  1.8289688908656E+05  1.8289688908656E+05  1.8289688908656E+05  1.8289688908656E+05  9.1448444543281E+04 
 3.6579377817312E+05  7.3158755634625E+05  7.3158755634625E+05  7.3158755634625E+05  7.3158755634625E+05  7.3158755634625E+05  7.3158755634625E+05  7.3158755634625E+05  7.3158755634625E+05  3.6579377817312E+05 
 4.5724222271640E+05  9.1448444543281E+05  9.1448444543281E+05  9.1448444543281E+05  9.1448444543281E+05  9.1448444543281E+05  9.1448444543281E+05  9.1448444543281E+05  9.1448444543281E+05  4.5724222271640E+05 
 3.5000000000000E-01  3.5000000000000E-01  3.5000000000000E-01  3.5000000000000E-01  3.5000000000000E-01  3.5000000000000E-01  3.5000000000000E-01  3.5000000000000E-01  3.5000000000000E-01  3.5000000000000E-01 
 8.5301666666666E+00  1.7060333333333E+01  1.7060333333333E+01  1.7060333333333E+01  1.7060333333333E+01  1.7060333333333E+01  1.7060333333333E+01  1.7060333333333E+01  1.7060333333333E+01  8.5301666666666E+00 
 9.8676518741143E-01  9.8676518741143E-01  9.8676518741143E-01  9.8676518741143E-01  9.8676518741143E-01  9.8676518741143E-01  9.8676518741143E-01  9.8676518741143E-01  9.8676518741143E-01  9.8676518741143E-01 
 4.3744444444444E-05  8.7488888888889E-05  8.7488888888889E-05  8.7488888888889E-05  8.7488888888889E-05  8.7488888888889E-05  8.7488888888889E-05  8.7488888888889E-05  8.7488888888889E-05  4.3744444444444E-05 
 8.6666666666666E+01  8.6666666666666E+01  8.6666666666666E+01  8.6666666666666E+01  8.6666666666666E+01  8.6666666666666E+01  8.6666666666666E+01  8.6666666666666E+01  8.6666666666666E+01  8.6666666666666E+01 
 2.1666666666667E+01  2.1666666666667E+01  2.1666666666667E+01  2.1666666666667E+01  2.1666666666667E+01  2.1666666666667E+01  2.1666666666667E+01  2.1666666666667E+01  2.1666666666667E+01  2.1666666666667E+01 
 0.0000000000000E+00  0.0000000000000E+00  0.0000000000000E+00  0.0000000000000E+00  0.0000000000000E+00  0.0000000000000E+00  0.0000000000000E+00  0.0000000000000E+00  0.0000000000000E+00  0.0000000000000E+00 
 0.0000000000000E+00  0.0000000000000E+00  0.0000000000000E+00  0.0000000000000E+00  0.0000000000000E+00  0.0000000000000E+00  0.0000000000000E+00  0.0000000000000E+00  0.0000000000000E+00  0.0000000000000E+00 
 0.0000000000000E+00  0.0000000000000E+00  0.0000000000000E+00  0.0000000000000E+00  0.0000000000000E+00  0.0000000000000E+00  0.0000000000000E+00  0.0000000000000E+00  0.0000000000000E+00  0.0000000000000E+00 
 0.0000000000000E+00  0.0000000000000E+00  0.0000000000000E+00  0.0000000000000E+00  0.0000000000000E+00  0.0000000000000E+00  0.0000000000000E+00  0.0000000000000E+00  0.0000000000000E+00  0.0000000000000E+00 
 0.0000000000000E+00  0.0000000000000E+00  0.0000000000000E+00  0.0000000000000E+00  0.0000000000000E+00  0.0000000000000E+00  0.0000000000000E+00  0.0000000000000E+00  0.0000000000000E+00  0.0000000000000E+00 
 0.0000000000000E+00  0.0000000000000E+00  0.0000000000000E+00  0.0000000000000E+00  0.0000000000000E+00  0.0000000000000E+00  0.0000000000000E+00  0.0000000000000E+00  0.0000000000000E+00  0.0000000000000E+00 
 0.0000000000000E+00  0.0000000000000E+00  0.0000000000000E+00  0.0000000000000E+00  0.0000000000000E+00  0.0000000000000E+00  0.0000000000000E+00  0.0000000000000E+00  0.0000000000000E+00  0.0000000000000E+00 
ZONE T = "ANOD, 1.0000E-08", I = 10, SOLUTIONTIME = 1.000000E-08
ZONETYPE = ORDERED
DATAPACKING = BLOCK
STRANDID = 1
 0.0000000000000E+00  8.7488888888889E-05  1.7497777777778E-04  2.6246666666667E-04  3.4995555555556E-04  4.3744444444444E-04  5.2493333333333E-04  6.1242222222222E-04  6.9991111111111E-04  7.8740000000000E-04 
 4.8435128946270E-10  1.4530541374984E-09  2.4217580484473E-09  3.3904638161976E-09  4.3591722345105E-09  5.3278840972378E-09  6.2966001982761E-09  7.2653213313147E-09  8.2340482903894E-09  8.7176886643593E-09 
 9.1999999999971E-01  9.1999999999971E-01  9.1999999999971E-01  9.1999999999971E-01  9.1999999999971E-01  9.1999999999971E-01  9.1999999999971E-01  9.1999999999971E-01  9.1999999999971E-01  9.1999999999988E-01 
 4.0000000000146E-02  4.0000000000146E-02  4.0000000000146E-02  4.0000000000146E-02  4.0000000000146E-02  4.0000000000146E-02  4.0000000000146E-02  4.0000000000146E-02  4.0000000000146E-02  4.0000000000060E-02 
 4.0000000000146E-02  4.0000000000146E-02  4.0000000000146E-02  4.0000000000146E-02  4.0000000000146E-02  4.0000000000146E-02  4.0000000000146E-02  4.0000000000146E-02  4.0000000000146E-02  4.0000000000060E-02 
 1.8787725973732E-02  1.8787719580917E-02  1.8787700402467E-02  1.8787668438371E-02  1.8787623688601E-02  1.8787566153124E-02  1.8787495831895E-02  1.8787412724856E-02  1.8787316831942E-02  1.8787208153077E-02 
 0.0000000000000E+00 -1.9796280835202E-09 -3.7263612792444E-09 -5.2401993316279E-09 -6.5211417942597E-09 -7.5691880298934E-09 -8.3843372104251E-09 -8.9665883168830E-09 -9.3159401394768E-09 -9.4323912775156E-09 
-1.8787725973732E-02 -1.8787721560545E-02 -1.8787704128829E-02 -1.8787673678570E-02 -1.8787630209743E-02 -1.8787573722312E-02 -1.8787504216232E-02 -1.8787421691445E-02 -1.8787326147883E-02 -1.8787217585468E-02 
-3.5244196601720E-02 -3.5244196601718E-02 -3.5244196601720E-02 -3.5244196601720E-02 -3.5244196601720E-02 -3.5244196601715E-02 -3.5244196601715E-02 -3.5244196601720E-02 -3.5244196601720E-02 -3.5244196601773E-02 
 1.6456470627988E-02  1.6456475041173E-02  1.6456492472891E-02  1.6456522923150E-02  1.6456566391977E-02  1.6456622879403E-02  1.6456692385483E-02  1.6456774910275E-02  1.6456870453837E-02  1.6456979016305E-02 
 6.9750488748636E-01  1.3950101624994E+00  1.3950116931974E+00  1.3950143670680E+00  1.3950181841144E+00  1.3950231443404E+00  1.3950292477516E+00  1.3950364943544E+00  1.3950448841564E+00  6.9752720858332E-01 
 3.6145618611492E-09  1.0843687594149E-08  1.8072821258141E-08  2.5301968777339E-08  3.2531136077917E-08  3.9760329084090E-08  4.6989553718109E-08  5.4218815906149E-08  6.1448151705155E-08  6.1448151705155E-08 
 0.0000000000000E+00  1.3950090633109E+00  2.7900190858494E+00  4.1850312104365E+00  5.5800465804609E+00  6.9750663393114E+00  8.3700916299983E+00  9.7651235957209E+00  1.1160163379483E+01  1.2555212577261E+01 
 1.2555212577656E+01  1.1160203061646E+01  9.7651930392605E+00  8.3701809145642E+00  6.9751655443864E+00  5.5801457855829E+00  4.1851204949106E+00  2.7900885292447E+00  1.3950487453621E+00  0.0000000000000E+00 
 6.9750488748636E-09  1.3950101624994E-08  1.3950116931974E-08  1.3950143670680E-08  1.3950181841144E-08  1.3950231443404E-08  1.3950292477516E-08  1.3950364943544E-08  1.3950448841564E-08  6.9752720858332E-09 
 9.1448444543288E+04  1.8289688908658E+05  1.8289688908658E+05  1.8289688908658E+05  1.8289688908658E+05  1.8289688908658E+05  1.8289688908658E+05  1.8289688908658E+05  1.8289688908658E+05  9.1448444543288E+04 
 3.6579377817312E+05  7.3158755634623E+05  7.3158755634623E+05  7.3158755634623E+05  7.3158755634623E+05  7.3158755634623E+05  7.3158755634623E+05  7.3158755634623E+05  7.3158755634623E+05  3.6579377817312E+05 
 4.5724222271640E+05  9.1448444543281E+05  9.1448444543281E+05  9.1448444543281E+05  9.1448444543281E+05  9.1448444543281E+05  9.1448444543281E+05  9.1448444543281E+05  9.1448444543281E+05  4.5724222271640E+05 
 3.5000000000000E-01  3.5000000000000E-01  3.5000000000000E-01  3.5000000000000E-01  3.5000000000000E-01  3.5000000000000E-01  3.5000000000000E-01  3.5000000000000E-01  3.5000000000000E-01  3.5000000000000E-01 
 8.5301666666666E+00  1.7060333333333E+01  1.7060333333333E+01  1.7060333333333E+01  1.7060333333333E+01  1.7060333333333E+01  1.7060333333333E+01  1.7060333333333E+01  1.7060333333333E+01  8.5301666666666E+00 
 8.1769198040643E-02  8.1769220755717E-02  8.1769310478343E-02  8.1769467208616E-02  8.1769690946705E-02  8.1769981692839E-02  8.1770339447348E-02  8.1770764210610E-02  8.1771255983064E-02  8.1771814765244E-02 
 4.3744444444444E-05  8.7488888888889E-05  8.7488888888889E-05  8.7488888888889E-05  8.7488888888889E-05  8.7488888888889E-05  8.7488888888889E-05  8.7488888888889E-05  8.7488888888889E-05  4.3744444444444E-05 
 8.6666666666665E+01  8.6666666666665E+01  8.6666666666665E+01  8.6666666666665E+01  8.6666666666665E+01  8.6666666666665E+01  8.6666666666665E+01  8.6666666666665E+01  8.6666666666665E+01  8.6666666666665E+01 
 2.1666666666668E+01  2.1666666666668E+01  2.1666666666668E+01  2.1666666666668E+01  2.1666666666668E+01  2.1666666666668E+01  2.1666666666668E+01  2.1666666666668E+01  2.1666666666668E+01  2.1666666666668E+01 
-2.9339768771980E-05 -2.9339774477155E-05 -2.9339798332247E-05 -2.9339840003036E-05 -2.9339899489523E-05 -2.9339976791706E-05 -2.9340071909590E-05 -2.9340184843177E-05 -2.9340315592462E-05 -2.9340482506230E-05 
-2.9339768771980E+03 -2.9339774477155E+03 -2.9339798332247E+03 -2.9339840003036E+03 -2.9339899489523E+03 -2.9339976791706E+03 -2.9340071909590E+03 -2.9340184843177E+03 -2.9340315592462E+03 -2.9340482506230E+03 
 5.0966665423720E-05  2.5483341217353E-04  8.6643423992451E-04  1.8857709918948E-03  3.3128468480393E-03  5.1476663250286E-03  7.3902352756492E-03  1.0040560889507E-02  1.3098651692206E-02  1.4729639539853E-02 
 2.6830665525362E-04  2.3859826287566E-04  1.8289495775493E-04  1.3461860738982E-04  9.3769214926514E-05  6.0346807857318E-05  3.4351438017590E-05  1.5783181590498E-05  4.6421391045346E-06  9.2843543417283E-07 
-2.9339771964713E+03 -2.9339779411472E+03 -2.9339808825539E+03 -2.9339860206932E+03 -2.9339933555684E+03 -2.9340028871837E+03 -2.9340146155458E+03 -2.9340285406618E+03 -2.9340446625401E+03 -2.9340629811909E+03 
 2.6239831913833E+02  2.6239846239953E+02  2.6239902826955E+02  2.6240001675029E+02  2.6240142784508E+02  2.6240326155860E+02  2.6240551789713E+02  2.6240819686825E+02  2.6241129848085E+02  2.6241482274541E+02 
-3.1963755156096E+03 -3.1963764035467E+03 -3.1963799108235E+03 -3.1963860374435E+03 -3.1963947834134E+03 -3.1964061487423E+03 -3.1964201334429E+03 -3.1964367375300E+03 -3.1964559610209E+03 -3.1964778039364E+03 
ZONE T = "ANOD, 2.0000E-08", I = 10, SOLUTIONTIME = 2.000000E-08
ZONETYPE = ORDERED
DATAPACKING = BLOCK
STRANDID = 1
 0.0000000000000E+00  8.7488888888889E-05  1.7497777777778E-04  2.6246666666667E-04  3.4995555555556E-04  4.3744444444444E-04  5.2493333333333E-04  6.1242222222222E-04  6.9991111111111E-04  7.8740000000000E-04 
 4.8453320199301E-10  1.4539630828079E-09  2.4230308188215E-09  3.3921004115883E-09  4.3615358626645E-09  5.3306115504261E-09  6.2996914764359E-09  7.2691396422613E-09  8.2385936340197E-09  8.7229607320640E-09 
 9.1999999999942E-01  9.1999999999942E-01  9.1999999999942E-01  9.1999999999942E-01  9.1999999999942E-01  9.1999999999942E-01  9.1999999999942E-01  9.1999999999942E-01  9.1999999999942E-01  9.1999999999976E-01 
 4.0000000000291E-02  4.0000000000291E-02  4.0000000000291E-02  4.0000000000291E-02  4.0000000000291E-02  4.0000000000291E-02  4.0000000000291E-02  4.0000000000291E-02  4.0000000000291E-02  4.0000000000120E-02 
 4.0000000000291E-02  4.0000000000291E-02  4.0000000000291E-02  4.0000000000291E-02  4.0000000000291E-02  4.0000000000291E-02  4.0000000000291E-02  4.0000000000291E-02  4.0000000000291E-02  4.0000000000120E-02 
 1.8787726161008E-02  1.8787719768189E-02  1.8787700589727E-02  1.8787668625610E-02  1.8787623875812E-02  1.8787566340299E-02  1.8787496019024E-02  1.8787412911933E-02  1.8787317018958E-02  1.8787208340023E-02 
 0.0000000000000E+00 -1.9796293449977E-09 -3.7263636537830E-09 -5.2402026708078E-09 -6.5211459496728E-09 -7.5691928531269E-09 -8.3843425530666E-09 -8.9665940305351E-09 -9.3159460757212E-09 -9.4323972879581E-09 
-1.8787726161008E-02 -1.8787721747818E-02 -1.8787704316091E-02 -1.8787673865813E-02 -1.8787630396958E-02 -1.8787573909491E-02 -1.8787504403367E-02 -1.8787421878527E-02 -1.8787326334904E-02 -1.8787217772420E-02 
-3.5244196601512E-02 -3.5244196601512E-02 -3.5244196601512E-02 -3.5244196601512E-02 -3.5244196601511E-02 -3.5244196601512E-02 -3.5244196601512E-02 -3.5244196601511E-02 -3.5244196601511E-02 -3.5244196601618E-02 
 1.6456470440504E-02  1.6456474853694E-02  1.6456492285421E-02  1.6456522735699E-02  1.6456566204553E-02  1.6456622692020E-02  1.6456692198145E-02  1.6456774722985E-02  1.6456870266608E-02  1.6456978829198E-02 
 6.9750487925697E-01  1.3950101460409E+00  1.3950116767398E+00  1.3950143506122E+00  1.3950181676609E+00  1.3950231278902E+00  1.3950292313052E+00  1.3950364779125E+00  1.3950448677199E+00  6.9752720036969E-01 
 3.6145641664064E-09  1.0843694502862E-08  1.8072832773152E-08  2.5301984900022E-08  3.2531156811115E-08  3.9760354421037E-08  4.6989583660767E-08  5.4218850455105E-08  6.1448220999123E-08  6.1448220999123E-08 
 0.0000000000000E+00  1.3950099523239E+00  2.7900208636861E+00  4.1850338772862E+00  5.5800501365130E+00  6.9750707841873E+00  8.3700969638871E+00  9.7651298184335E+00  1.1160170491203E+01  1.2555220125551E+01 
 1.2555220125508E+01  1.1160210173231E+01  9.7651992618404E+00  8.3701862481644E+00  6.9751699890279E+00  5.5801493412523E+00  4.1851231616547E+00  2.7900903070458E+00  1.3950496342296E+00  0.0000000000000E+00 
 1.3950097667433E-08  2.7900203085404E-08  2.7900233699371E-08  2.7900287176802E-08  2.7900363517753E-08  2.7900462722306E-08  2.7900584790568E-08  2.7900729722669E-08  2.7900897518763E-08  1.3950544089530E-08 
 9.1448444543295E+04  1.8289688908659E+05  1.8289688908659E+05  1.8289688908659E+05  1.8289688908659E+05  1.8289688908659E+05  1.8289688908659E+05  1.8289688908659E+05  1.8289688908659E+05  9.1448444543295E+04 
 3.6579377817311E+05  7.3158755634622E+05  7.3158755634622E+05  7.3158755634622E+05  7.3158755634622E+05  7.3158755634622E+05  7.3158755634622E+05  7.3158755634622E+05  7.3158755634622E+05  3.6579377817311E+05 
 4.5724222271640E+05  9.1448444543281E+05  9.1448444543281E+05  9.1448444543281E+05  9.1448444543281E+05  9.1448444543281E+05  9.1448444543281E+05  9.1448444543281E+05  9.1448444543281E+05  4.5724222271640E+05 
 3.5000000000000E-01  3.5000000000000E-01  3.5000000000000E-01  3.5000000000000E-01  3.5000000000000E-01  3.5000000000000E-01  3.5000000000000E-01  3.5000000000000E-01  3.5000000000000E-01  3.5000000000000E-01 
 8.5301666666666E+00  1.7060333333333E+01  1.7060333333333E+01  1.7060333333333E+01  1.7060333333333E+01  1.7060333333333E+01  1.7060333333333E+01  1.7060333333333E+01  1.7060333333333E+01  8.5301666666666E+00 
 8.1769197075904E-02  8.1769219790992E-02  8.1769309513674E-02  8.1769466244047E-02  8.1769689982273E-02  8.1769980728601E-02  8.1770338483336E-02  8.1770763246860E-02  8.1771255019628E-02  8.1771813802351E-02 
 4.3744444444444E-05  8.7488888888889E-05  8.7488888888889E-05  8.7488888888889E-05  8.7488888888889E-05  8.7488888888889E-05  8.7488888888889E-05  8.7488888888889E-05  8.7488888888889E-05  4.3744444444444E-05 
 8.6666666666663E+01  8.6666666666663E+01  8.6666666666663E+01  8.6666666666663E+01  8.6666666666663E+01  8.6666666666663E+01  8.6666666666663E+01  8.6666666666663E+01  8.6666666666663E+01  8.6666666666663E+01 
 2.1666666666670E+01  2.1666666666670E+01  2.1666666666670E+01  2.1666666666670E+01  2.1666666666670E+01  2.1666666666670E+01  2.1666666666670E+01  2.1666666666670E+01  2.1666666666670E+01  2.1666666666670E+01 
-5.8679537227673E-05 -5.8679548638027E-05 -5.8679596348222E-05 -5.8679679689820E-05 -5.8679798662822E-05 -5.8679953267228E-05 -5.8680143503044E-05 -5.8680369370270E-05 -5.8680630868905E-05 -5.8680964696603E-05 
-2.9339768455694E+03 -2.9339774160872E+03 -2.9339798015975E+03 -2.9339839686785E+03 -2.9339899173299E+03 -2.9339976475522E+03 -2.9340071593453E+03 -2.9340184527093E+03 -2.9340315276442E+03 -2.9340482190373E+03 
 1.0193339579365E-04  5.0966714916112E-04  1.7328695840181E-03  3.7715443871893E-03  6.6256979184759E-03  1.0295339210752E-02  1.4780479970229E-02  2.0081134575407E-02  2.6197320078429E-02  2.9459297853079E-02 
 5.3661365245320E-04  4.7719682983408E-04  3.6579014859884E-04  2.6923738634157E-04  1.8753854935440E-04  1.2069369262073E-04  6.8702919812389E-05  3.1566383294747E-05  9.2842841246258E-06  1.8568720514720E-06 
-2.9339771648431E+03 -2.9339779095195E+03 -2.9339808509280E+03 -2.9339859890706E+03 -2.9339933239503E+03 -2.9340028555720E+03 -2.9340145839415E+03 -2.9340285090662E+03 -2.9340446309548E+03 -2.9340629496241E+03 
 2.6239831305301E+02  2.6239845631429E+02  2.6239902218467E+02  2.6240001066603E+02  2.6240142176167E+02  2.6240325547639E+02  2.6240551181633E+02  2.6240819078907E+02  2.6241129240361E+02  2.6241481667183E+02 
-3.1963754778961E+03 -3.1963763658338E+03 -3.1963798731127E+03 -3.1963859997367E+03 -3.1963947457120E+03 -3.1964061110484E+03 -3.1964200957578E+03 -3.1964366998552E+03 -3.1964559233584E+03 -3.1964777662959E+03 
ZONE T = "ANOD, 3.0000E-08", I = 10, SOLUTIONTIME = 3.000000E-08
ZONETYPE = ORDERED
DATAPACKING = BLOCK
STRANDID = 1
 0.0000000000000E+00  8.7488888888889E-05  1.7497777777778E-04  2.6246666666667E-04  3.4995555555556E-04  4.3744444444444E-04  5.2493333333333E-04  6.1242222222222E-04  6.9991111111111E-04  7.8740000000000E-04 
 4.8435159812594E-10  1.4530550634789E-09  2.4217595917584E-09  3.3904659767910E-09  4.3591750124054E-09  5.3278874924327E-09  6.2966042107083E-09  7.2653259610719E-09  8.2340535373684E-09  8.7171494083636E-09 
 9.1999999999913E-01  9.1999999999913E-01  9.1999999999913E-01  9.1999999999913E-01  9.1999999999913E-01  9.1999999999913E-01  9.1999999999913E-01  9.1999999999913E-01  9.1999999999913E-01  9.1999999999964E-01 
 4.0000000000437E-02  4.0000000000437E-02  4.0000000000437E-02  4.0000000000437E-02  4.0000000000437E-02  4.0000000000437E-02  4.0000000000437E-02  4.0000000000437E-02  4.0000000000437E-02  4.0000000000181E-02 
 4.0000000000437E-02  4.0000000000437E-02  4.0000000000437E-02  4.0000000000437E-02  4.0000000000437E-02  4.0000000000437E-02  4.0000000000437E-02  4.0000000000437E-02  4.0000000000437E-02  4.0000000000181E-02 
 1.8787726160954E-02  1.8787719768134E-02  1.8787700589673E-02  1.8787668625556E-02  1.8787623875758E-02  1.8787566340244E-02  1.8787496018970E-02  1.8787412911879E-02  1.8787317018904E-02  1.8787208339969E-02 
 0.0000000000000E+00 -1.9796293449851E-09 -3.7263636537593E-09 -5.2402026707746E-09 -6.5211459496315E-09 -7.5691928530790E-09 -8.3843425530137E-09 -8.9665940304787E-09 -9.3159460756628E-09 -9.4323972878992E-09 
-1.8787726160954E-02 -1.8787721747764E-02 -1.8787704316037E-02 -1.8787673865758E-02 -1.8787630396904E-02 -1.8787573909437E-02 -1.8787504403313E-02 -1.8787421878473E-02 -1.8787326334850E-02 -1.8787217772366E-02 
-3.5244196601302E-02 -3.5244196601303E-02 -3.5244196601302E-02 -3.5244196601302E-02 -3.5244196601303E-02 -3.5244196601304E-02 -3.5244196601304E-02 -3.5244196601303E-02 -3.5244196601303E-02 -3.5244196601463E-02 
 1.6456470440349E-02  1.6456474853539E-02  1.6456492285266E-02  1.6456522735544E-02  1.6456566204399E-02  1.6456622691867E-02  1.6456692197991E-02  1.6456774722831E-02  1.6456870266453E-02  1.6456978829097E-02 
 6.9750487925242E-01  1.3950101460318E+00  1.3950116767307E+00  1.3950143506031E+00  1.3950181676519E+00  1.3950231278809E+00  1.3950292312960E+00  1.3950364779035E+00  1.3950448677109E+00  6.9752720036678E-01 
 3.6145641683812E-09  1.0843694500940E-08  1.8072832775180E-08  2.5301984898153E-08  3.2531156811233E-08  3.9760354421181E-08  4.6989583658976E-08  5.4218850457264E-08  6.1448251135607E-08  6.1448251135607E-08 
 0.0000000000000E+00  1.3950099523290E+00  2.7900208636963E+00  4.1850338773015E+00  5.5800501363440E+00  6.9750707842126E+00  8.3700969637283E+00  9.7651298184690E+00  1.1160170491237E+01  1.2555220125200E+01 
 1.2555220125428E+01  1.1160210173160E+01  9.7651992617785E+00  8.3701862481116E+00  6.9751699889841E+00  5.5801493412177E+00  4.1851231616292E+00  2.7900903070294E+00  1.3950496342222E+00  0.0000000000000E+00 
 2.0925146459958E-08  4.1850304545722E-08  4.1850350466678E-08  4.1850430682833E-08  4.1850545194272E-08  4.1850694001115E-08  4.1850877103528E-08  4.1851094501704E-08  4.1851346195871E-08  2.0925816093198E-08 
 9.1448444543302E+04  1.8289688908660E+05  1.8289688908660E+05  1.8289688908660E+05  1.8289688908660E+05  1.8289688908660E+05  1.8289688908660E+05  1.8289688908660E+05  1.8289688908660E+05  9.1448444543302E+04 
 3.6579377817310E+05  7.3158755634620E+05  7.3158755634620E+05  7.3158755634620E+05  7.3158755634620E+05  7.3158755634621E+05  7.3158755634621E+05  7.3158755634620E+05  7.3158755634620E+05  3.6579377817310E+05 
 4.5724222271640E+05  9.1448444543281E+05  9.1448444543281E+05  9.1448444543281E+05  9.1448444543281E+05  9.1448444543281E+05  9.1448444543281E+05  9.1448444543281E+05  9.1448444543281E+05  4.5724222271640E+05 
 3.5000000000000E-01  3.5000000000000E-01  3.5000000000000E-01  3.5000000000000E-01  3.5000000000000E-01  3.5000000000000E-01  3.5000000000000E-01  3.5000000000000E-01  3.5000000000000E-01  3.5000000000000E-01 
 8.5301666666666E+00  1.7060333333333E+01  1.7060333333333E+01  1.7060333333333E+01  1.7060333333333E+01  1.7060333333333E+01  1.7060333333333E+01  1.7060333333333E+01  1.7060333333333E+01  8.5301666666666E+00 
 8.1769197075371E-02  8.1769219790459E-02  8.1769309513141E-02  8.1769466243515E-02  8.1769689981746E-02  8.1769980728060E-02  8.1770338482796E-02  8.1770763246334E-02  8.1771255019101E-02  8.1771813802010E-02 
 4.3744444444444E-05  8.7488888888889E-05  8.7488888888889E-05  8.7488888888889E-05  8.7488888888889E-05  8.7488888888889E-05  8.7488888888889E-05  8.7488888888889E-05  8.7488888888889E-05  4.3744444444444E-05 
 8.6666666666661E+01  8.6666666666661E+01  8.6666666666661E+01  8.6666666666661E+01  8.6666666666661E+01  8.6666666666661E+01  8.6666666666661E+01  8.6666666666661E+01  8.6666666666661E+01  8.6666666666661E+01 
 2.1666666666672E+01  2.1666666666672E+01  2.1666666666672E+01  2.1666666666672E+01  2.1666666666672E+01  2.1666666666672E+01  2.1666666666672E+01  2.1666666666672E+01  2.1666666666672E+01  2.1666666666672E+01 
-8.8019305683185E-05 -8.8019322798716E-05 -8.8019394364014E-05 -8.8019519376423E-05 -8.8019697835940E-05 -8.8019929742565E-05 -8.8020215096312E-05 -8.8020553897182E-05 -8.8020946145166E-05 -8.8021446886862E-05 
-2.9339768455511E+03 -2.9339774160689E+03 -2.9339798015792E+03 -2.9339839686602E+03 -2.9339899173118E+03 -2.9339976475337E+03 -2.9340071593268E+03 -2.9340184526912E+03 -2.9340315276262E+03 -2.9340482190259E+03 
 1.5290012621908E-04  7.6450088609433E-04  2.5993049281702E-03  5.6573177824353E-03  9.9385489887309E-03  1.5443012096493E-02  2.2170724664477E-02  3.0121708261399E-02  3.9295988464636E-02  4.4188956165404E-02 
 8.0492064964936E-04  7.1579539678946E-04  5.4868533944043E-04  4.0385616529162E-04  2.8130788378111E-04  1.8104057738339E-04  1.0305440160677E-04  4.7349584998809E-05  1.3926429144666E-05  2.7853086687634E-06 
-2.9339771648249E+03 -2.9339779095012E+03 -2.9339808509098E+03 -2.9339859890524E+03 -2.9339933239322E+03 -2.9340028555535E+03 -2.9340145839230E+03 -2.9340285090481E+03 -2.9340446309367E+03 -2.9340629496127E+03 
 2.6239831304883E+02  2.6239845631012E+02  2.6239902218049E+02  2.6240001066185E+02  2.6240142175752E+02  2.6240325547216E+02  2.6240551181210E+02  2.6240819078492E+02  2.6241129239946E+02  2.6241481666913E+02 
-3.1963754778737E+03 -3.1963763658114E+03 -3.1963798730903E+03 -3.1963859997142E+03 -3.1963947456898E+03 -3.1964061110256E+03 -3.1964200957351E+03 -3.1964366998330E+03 -3.1964559233362E+03 -3.1964777662818E+03 
ZONE T = "ANOD, 4.0000E-08", I = 10, SOLUTIONTIME = 4.000000E-08
ZONETYPE = ORDERED
DATAPACKING = BLOCK
STRANDID = 1
 0.0000000000000E+00  8.7488888888889E-05  1.7497777777778E-04  2.6246666666667E-04  3.4995555555556E-04  4.3744444444444E-04  5.2493333333333E-04  6.1242222222222E-04  6.9991111111111E-04  7.8740000000000E-04 
 4.8453320198668E-10  1.4535998750612E-09  2.4226676110621E-09  3.3917372038162E-09  4.3597198239689E-09  5.3291587194457E-09  6.2986018531707E-09  7.2665971880726E-09  8.2345983489073E-09  8.7189654469478E-09 
 9.1999999999884E-01  9.1999999999884E-01  9.1999999999884E-01  9.1999999999884E-01  9.1999999999884E-01  9.1999999999884E-01  9.1999999999884E-01  9.1999999999884E-01  9.1999999999884E-01  9.1999999999952E-01 
 4.0000000000582E-02  4.0000000000582E-02  4.0000000000582E-02  4.0000000000582E-02  4.0000000000582E-02  4.0000000000582E-02  4.0000000000582E-02  4.0000000000582E-02  4.0000000000582E-02  4.0000000000241E-02 
 4.0000000000582E-02  4.0000000000582E-02  4.0000000000582E-02  4.0000000000582E-02  4.0000000000582E-02  4.0000000000582E-02  4.0000000000582E-02  4.0000000000582E-02  4.0000000000582E-02  4.0000000000241E-02 
 1.8787726160901E-02  1.8787719768081E-02  1.8787700589620E-02  1.8787668625503E-02  1.8787623875705E-02  1.8787566340191E-02  1.8787496018917E-02  1.8787412911825E-02  1.8787317018851E-02  1.8787208339916E-02 
 0.0000000000000E+00 -1.9796293449726E-09 -3.7263636537357E-09 -5.2402026707414E-09 -6.5211459495903E-09 -7.5691928530313E-09 -8.3843425529610E-09 -8.9665940304225E-09 -9.3159460756047E-09 -9.4323972878406E-09 
-1.8787726160901E-02 -1.8787721747711E-02 -1.8787704315984E-02 -1.8787673865705E-02 -1.8787630396851E-02 -1.8787573909384E-02 -1.8787504403259E-02 -1.8787421878419E-02 -1.8787326334797E-02 -1.8787217772313E-02 
-3.5244196601097E-02 -3.5244196601097E-02 -3.5244196601097E-02 -3.5244196601097E-02 -3.5244196601097E-02 -3.5244196601097E-02 -3.5244196601097E-02 -3.5244196601097E-02 -3.5244196601097E-02 -3.5244196601310E-02 
 1.6456470440197E-02  1.6456474853387E-02  1.6456492285114E-02  1.6456522735392E-02  1.6456566204247E-02  1.6456622691713E-02  1.6456692197838E-02  1.6456774722678E-02  1.6456870266301E-02  1.6456978828998E-02 
 6.9750487924786E-01  1.3950101460228E+00  1.3950116767216E+00  1.3950143505940E+00  1.3950181676429E+00  1.3950231278719E+00  1.3950292312869E+00  1.3950364778946E+00  1.3950448677019E+00  6.9752720036390E-01 