TITLE = "Solution on Domain BulkDomain1D_2"
VARIABLES = "x [m]"  
"Vel_axial" 	"MF_sp(ECDMC)" 	"MF_sp(Li+)" 	"MF_sp(PF6-)" 	"Volt(Electroly)" 	"Volt(CathodeVo)" 	
"Potential Drop Electrode-Electrolyte [V]" 	"Surf_0 Equilibrium Potential Drop Electrode-Electrolyte [V]" 	"Overpotential_0 [V]" 	"Current Source [A/m^2]" 	"Li+ flux [kmol/m^2/s]" 	"Electrolyte Current [A/m^2]" 	"Electrode Current [A/m^2]" 	
"Capacity discharged [A-s]" 	"Depth of discharge [-]" 	"Capacity remaining [A-s]" 	"Initial capacity [A-s]" 	"Porosity []" 	"Surface Area [m2/m2] (area per area)" 	"Specific current (per particle area) [A/m^2]" 	"Control volume thickness [m]" 	
"Moles LiCoO2 [mol/m^2] (per electrode area)" 	"Moles CoO2 [mol/m^2] (per electrode area)" 	"qHeat_accum [J/m3]" 	"qHeat_step [W/m3]" 	"Joule_Lyte [W/m3]" 	"Joule_Solid [W/m3]" 	"electrodHeat [W/m3]" 	"OverpotHeat [W/m3]" 	"deltaSHeat [W/m3]" 	

ZONE T = "t = 0 [s]" I = 10 SOLUTIONTIME = 0.0000000000000E+00
0.00127 	0 	0.92 	0.04 	0.04 	-0.07 	3.8 	
0 	0 	0 	0 	0 	0.0583181 	0 	
0 	0 	0 	0 	0.35 	6.604 	-0.0176614 	3.38667e-05 	
0.000900955 	0.000600637 	0 	0.0 	 0.0 	 0.0 	 0.0 	 0.0 	 0.0 	 
0.00133773 	0 	0.92 	0.04 	0.04 	-0.07 	3.8 	
0 	0 	0 	0 	0 	0 	-0 	
0 	0 	0 	0 	0.35 	13.208 	-0.0176614 	6.77333e-05 	
0.00180191 	0.00120127 	0 	0.0 	 0.0 	 0.0 	 0.0 	 0.0 	 0.0 	 
0.00140547 	0 	0.92 	0.04 	0.04 	-0.07 	3.8 	
0 	0 	0 	0 	0 	0 	-0 	
0 	0 	0 	0 	0.35 	13.208 	-0.0176614 	6.77333e-05 	
0.00180191 	0.00120127 	0 	0.0 	 0.0 	 0.0 	 0.0 	 0.0 	 0.0 	 
0.0014732 	0 	0.92 	0.04 	0.04 	-0.07 	3.8 	
0 	0 	0 	0 	0 	0 	-0 	
0 	0 	0 	0 	0.35 	13.208 	-0.0176614 	6.77333e-05 	
0.00180191 	0.00120127 	0 	0.0 	 0.0 	 0.0 	 0.0 	 0.0 	 0.0 	 
0.00154093 	0 	0.92 	0.04 	0.04 	-0.07 	3.8 	
0 	0 	0 	0 	0 	0 	-0 	
0 	0 	0 	0 	0.35 	13.208 	-0.0176614 	6.77333e-05 	
0.00180191 	0.00120127 	0 	0.0 	 0.0 	 0.0 	 0.0 	 0.0 	 0.0 	 
0.00160867 	0 	0.92 	0.04 	0.04 	-0.07 	3.8 	
0 	0 	0 	0 	0 	0 	-0 	
0 	0 	0 	0 	0.35 	13.208 	-0.0176614 	6.77333e-05 	
0.00180191 	0.00120127 	0 	0.0 	 0.0 	 0.0 	 0.0 	 0.0 	 0.0 	 
0.0016764 	0 	0.92 	0.04 	0.04 	-0.07 	3.8 	
0 	0 	0 	0 	0 	0 	-0 	
0 	0 	0 	0 	0.35 	13.208 	-0.0176614 	6.77333e-05 	
0.00180191 	0.00120127 	0 	0.0 	 0.0 	 0.0 	 0.0 	 0.0 	 0.0 	 
0.00174413 	0 	0.92 	0.04 	0.04 	-0.07 	3.8 	
0 	0 	0 	0 	0 	0 	-0 	
0 	0 	0 	0 	0.35 	13.208 	-0.0176614 	6.77333e-05 	
0.00180191 	0.00120127 	0 	0.0 	 0.0 	 0.0 	 0.0 	 0.0 	 0.0 	 
0.00181187 	0 	0.92 	0.04 	0.04 	-0.07 	3.8 	
0 	0 	0 	0 	0 	0 	-0 	
0 	0 	0 	0 	0.35 	13.208 	-0.0176614 	6.77333e-05 	
0.00180191 	0.00120127 	0 	0.0 	 0.0 	 0.0 	 0.0 	 0.0 	 0.0 	 
0.0018796 	0 	0.92 	0.04 	0.04 	-0.07 	3.8 	
0 	0 	0 	0 	0 	0 	0.0583181 	
0 	0 	0 	0 	0.35 	6.604 	-0.0176614 	3.38667e-05 	
0.000900955 	0.000600637 	0 	0.0 	 0.0 	 0.0 	 0.0 	 0.0 	 0.0 	 
ZONE T = "t = 0 [s]" I = 10 SOLUTIONTIME = 0.0000000000000E+00
0.00127 	0 	0.92 	0.04 	0.04 	-0.07 	3.8 	
0 	0 	0 	0 	0 	0.0583181 	0 	
0 	0 	0 	0 	0.35 	6.604 	-0.0176614 	3.38667e-05 	
0.000900955 	0.000600637 	0 	0.0 	 0.0 	 0.0 	 0.0 	 0.0 	 0.0 	 
0.00133773 	0 	0.92 	0.04 	0.04 	-0.07 	3.8 	
0 	0 	0 	0 	0 	0 	-0 	
0 	0 	0 	0 	0.35 	13.208 	-0.0176614 	6.77333e-05 	
0.00180191 	0.00120127 	0 	0.0 	 0.0 	 0.0 	 0.0 	 0.0 	 0.0 	 
0.00140547 	0 	0.92 	0.04 	0.04 	-0.07 	3.8 	
0 	0 	0 	0 	0 	0 	-0 	
0 	0 	0 	0 	0.35 	13.208 	-0.0176614 	6.77333e-05 	
0.00180191 	0.00120127 	0 	0.0 	 0.0 	 0.0 	 0.0 	 0.0 	 0.0 	 
0.0014732 	0 	0.92 	0.04 	0.04 	-0.07 	3.8 	
0 	0 	0 	0 	0 	0 	-0 	
0 	0 	0 	0 	0.35 	13.208 	-0.0176614 	6.77333e-05 	
0.00180191 	0.00120127 	0 	0.0 	 0.0 	 0.0 	 0.0 	 0.0 	 0.0 	 
0.00154093 	0 	0.92 	0.04 	0.04 	-0.07 	3.8 	
0 	0 	0 	0 	0 	0 	-0 	
0 	0 	0 	0 	0.35 	13.208 	-0.0176614 	6.77333e-05 	
0.00180191 	0.00120127 	0 	0.0 	 0.0 	 0.0 	 0.0 	 0.0 	 0.0 	 
0.00160867 	0 	0.92 	0.04 	0.04 	-0.07 	3.8 	
0 	0 	0 	0 	0 	0 	-0 	
0 	0 	0 	0 	0.35 	13.208 	-0.0176614 	6.77333e-05 	
0.00180191 	0.00120127 	0 	0.0 	 0.0 	 0.0 	 0.0 	 0.0 	 0.0 	 
0.0016764 	0 	0.92 	0.04 	0.04 	-0.07 	3.8 	
0 	0 	0 	0 	0 	0 	-0 	
0 	0 	0 	0 	0.35 	13.208 	-0.0176614 	6.77333e-05 	
0.00180191 	0.00120127 	0 	0.0 	 0.0 	 0.0 	 0.0 	 0.0 	 0.0 	 
0.00174413 	0 	0.92 	0.04 	0.04 	-0.07 	3.8 	
0 	0 	0 	0 	0 	0 	-0 	
0 	0 	0 	0 	0.35 	13.208 	-0.0176614 	6.77333e-05 	
0.00180191 	0.00120127 	0 	0.0 	 0.0 	 0.0 	 0.0 	 0.0 	 0.0 	 
0.00181187 	0 	0.92 	0.04 	0.04 	-0.07 	3.8 	
0 	0 	0 	0 	0 	0 	-0 	
0 	0 	0 	0 	0.35 	13.208 	-0.0176614 	6.77333e-05 	
0.00180191 	0.00120127 	0 	0.0 	 0.0 	 0.0 	 0.0 	 0.0 	 0.0 	 
0.0018796 	0 	0.92 	0.04 	0.04 	-0.07 	3.8 	
0 	0 	0 	0 	0 	0 	0.0583181 	
0 	0 	0 	0 	0.35 	6.604 	-0.0176614 	3.38667e-05 	
0.000900955 	0.000600637 	0 	0.0 	 0.0 	 0.0 	 0.0 	 0.0 	 0.0 	 
ZONE T = "t = 1e-08 [s]" I = 10 SOLUTIONTIME = 1.0000000000000E-08
0.00127 	8.23357e-09 	0.92 	0.04 	0.04 	0.018787 	3.80007 	
3.87 	3.97796 	-0.107964 	-0.116636 	-0 	12.2066 	0.348587 	
-0 	7244.08 	123.46 	141.616 	0.35 	6.604 	-0.105568 	3.38667e-05 	
0.000900955 	0.000600637 	8.82555e-05 	8825.55 	0.0147305 	0.00927495 	8825.52 	4048.79 	4776.73 	
0.00133773 	7.26567e-09 	0.92 	0.04 	0.04 	0.0187869 	3.80007 	
3.87 	3.97796 	-0.107964 	-0.233272 	-0 	11.1609 	1.39436 	
-0 	14488.2 	246.919 	283.231 	0.35 	13.208 	-0.10557 	6.77333e-05 	
0.00180191 	0.00120127 	8.82574e-05 	8825.74 	0.0131002 	0.0463757 	8825.68 	4048.87 	4776.81 	
0.00140547 	6.297e-09 	0.92 	0.04 	0.04 	0.0187869 	3.80007 	
3.87 	3.97796 	-0.107964 	-0.233272 	-0 	9.76645 	2.78877 	
-0 	14488.2 	246.919 	283.231 	0.35 	13.208 	-0.105576 	6.77333e-05 	
0.00180191 	0.00120127 	8.82637e-05 	8826.37 	0.0100432 	0.157683 	8826.2 	4049.14 	4777.06 	
0.0014732 	5.32824e-09 	0.92 	0.04 	0.04 	0.0187868 	3.80006 	
3.87 	3.97796 	-0.107964 	-0.233272 	-0 	8.37194 	4.18327 	
-0 	14488.2 	246.919 	283.231 	0.35 	13.208 	-0.105585 	6.77333e-05 	
0.00180191 	0.00120127 	8.82743e-05 	8827.43 	0.00739345 	0.343213 	8827.08 	4049.59 	4777.49 	
0.00154093 	4.35936e-09 	0.92 	0.04 	0.04 	0.0187868 	3.80006 	
3.87 	3.97796 	-0.107964 	-0.233272 	-0 	6.97729 	5.57793 	
-0 	14488.2 	246.919 	283.231 	0.35 	13.208 	-0.105598 	6.77333e-05 	
0.00180191 	0.00120127 	8.82892e-05 	8828.92 	0.00515089 	0.602992 	8828.31 	4050.23 	4778.09 	
0.00160867 	3.39032e-09 	0.92 	0.04 	0.04 	0.0187867 	3.80005 	
3.87 	3.97796 	-0.107964 	-0.233272 	-0 	5.58243 	6.97278 	
-0 	14488.2 	246.919 	283.231 	0.35 	13.208 	-0.105615 	6.77333e-05 	
0.00180191 	0.00120127 	8.83084e-05 	8830.84 	0.00331563 	0.937057 	8829.9 	4051.05 	4778.86 	
0.0016764 	2.42109e-09 	0.92 	0.04 	0.04 	0.0187867 	3.80004 	
3.87 	3.97796 	-0.107964 	-0.233272 	-0 	4.18733 	8.36789 	
-0 	14488.2 	246.919 	283.231 	0.35 	13.208 	-0.105636 	6.77333e-05 	
0.00180191 	0.00120127 	8.8332e-05 	8833.2 	0.0018878 	1.34546 	8831.85 	4052.05 	4779.8 	
0.00174413 	1.45164e-09 	0.92 	0.04 	0.04 	0.0187866 	3.80003 	
3.87 	3.97796 	-0.107964 	-0.233272 	-0 	2.79192 	9.76329 	
-0 	14488.2 	246.919 	283.231 	0.35 	13.208 	-0.105661 	6.77333e-05 	
0.00180191 	0.00120127 	8.83599e-05 	8835.99 	0.000867587 	1.82825 	8834.16 	4053.24 	4780.92 	
0.00181187 	4.8192e-10 	0.92 	0.04 	0.04 	0.0187866 	3.80002 	
3.87 	3.97796 	-0.107964 	-0.233272 	-0 	1.39616 	11.1591 	
-0 	14488.2 	246.919 	283.231 	0.35 	13.208 	-0.10569 	6.77333e-05 	
0.00180191 	0.00120127 	8.83922e-05 	8839.22 	0.000255239 	2.3855 	8836.83 	4054.62 	4782.22 	
0.0018796 	-3.08727e-12 	0.92 	0.04 	0.04 	0.0187866 	3.8 	
3.87 	3.97796 	-0.107964 	-0.116636 	-0 	0.349094 	12.2061 	
-0 	7244.08 	123.46 	141.616 	0.35 	6.604 	-0.105722 	3.38667e-05 	
0.000900955 	0.000600637 	8.84254e-05 	8842.54 	5.10666e-05 	2.68276 	8839.86 	4056.18 	4783.68 	
ZONE T = "t = 2e-08 [s]" I = 10 SOLUTIONTIME = 2.0000000000000E-08
0.00127 	8.23811e-09 	0.92 	0.04 	0.04 	0.018787 	3.80007 	
3.78129 	3.97796 	-0.196678 	-0.697174 	6.145e-08 	12.2066 	0.348587 	
1.74733e-11 	7244.08 	123.46 	141.616 	0.35 	6.604 	-0.105568 	3.38667e-05 	
0.000900955 	0.000600637 	0.000176511 	8825.55 	0.0147305 	0.00927497 	8825.52 	4048.79 	4776.73 	
0.00133773 	7.26985e-09 	0.92 	0.04 	0.04 	0.0187869 	3.80007 	
3.78129 	3.97796 	-0.196679 	-1.39437 	5.42241e-08 	11.1609 	1.39436 	
3.49471e-11 	14488.2 	246.919 	283.231 	0.35 	13.208 	-0.10557 	6.77333e-05 	
0.00180191 	0.00120127 	0.000176515 	8825.74 	0.0131002 	0.0463757 	8825.68 	4048.87 	4776.81 	
0.00140547 	6.30045e-09 	0.92 	0.04 	0.04 	0.0187869 	3.80007 	
3.78128 	3.97796 	-0.196682 	-1.39444 	4.69979e-08 	9.76645 	2.78877 	
3.4949e-11 	14488.2 	246.919 	283.231 	0.35 	13.208 	-0.105576 	6.77333e-05 	
0.00180191 	0.00120127 	0.000176527 	8826.37 	0.0100432 	0.157683 	8826.2 	4049.14 	4777.06 	
0.0014732 	5.33206e-09 	0.92 	0.04 	0.04 	0.0187868 	3.80006 	
3.78128 	3.97796 	-0.196686 	-1.39457 	3.97711e-08 	8.37195 	4.18327 	
3.49521e-11 	14488.2 	246.919 	283.231 	0.35 	13.208 	-0.105585 	6.77333e-05 	
0.00180191 	0.00120127 	0.000176549 	8827.43 	0.00739346 	0.343213 	8827.08 	4049.59 	4777.49 	
0.00154093 	4.36354e-09 	0.92 	0.04 	0.04 	0.0187868 	3.80006 	
3.78127 	3.97796 	-0.196692 	-1.39474 	3.25434e-08 	6.97729 	5.57793 	
3.49564e-11 	14488.2 	246.919 	283.231 	0.35 	13.208 	-0.105598 	6.77333e-05 	
0.00180191 	0.00120127 	0.000176578 	8828.92 	0.0051509 	0.602992 	8828.31 	4050.23 	4778.09 	
0.00160867 	3.3945e-09 	0.92 	0.04 	0.04 	0.0187867 	3.80005 	
3.78126 	3.97796 	-0.1967 	-1.39497 	2.53145e-08 	5.58244 	6.97278 	
3.49621e-11 	14488.2 	246.919 	283.231 	0.35 	13.208 	-0.105615 	6.77333e-05 	
0.00180191 	0.00120127 	0.000176617 	8830.84 	0.00331564 	0.937058 	8829.9 	4051.05 	4778.86 	
0.0016764 	2.42527e-09 	0.92 	0.04 	0.04 	0.0187867 	3.80004 	
3.78125 	3.97796 	-0.19671 	-1.39524 	1.80841e-08 	4.18733 	8.36789 	
3.4969e-11 	14488.2 	246.919 	283.231 	0.35 	13.208 	-0.105636 	6.77333e-05 	
0.00180191 	0.00120127 	0.000176664 	8833.2 	0.0018878 	1.34546 	8831.85 	4052.05 	4779.8 	
0.00174413 	1.45618e-09 	0.92 	0.04 	0.04 	0.0187866 	3.80003 	
3.78124 	3.97796 	-0.196722 	-1.39557 	1.08521e-08 	2.79192 	9.7633 	
3.49772e-11 	14488.2 	246.919 	283.231 	0.35 	13.208 	-0.105661 	6.77333e-05 	
0.00180191 	0.00120127 	0.00017672 	8835.99 	0.000867588 	1.82825 	8834.16 	4053.24 	4780.92 	
0.00181187 	4.86824e-10 	0.92 	0.04 	0.04 	0.0187866 	3.80002 	
3.78123 	3.97796 	-0.196736 	-1.39595 	3.6181e-09 	1.39616 	11.1591 	
3.49867e-11 	14488.2 	246.919 	283.231 	0.35 	13.208 	-0.10569 	6.77333e-05 	
0.00180191 	0.00120127 	0.000176784 	8839.22 	0.000255239 	2.38551 	8836.83 	4054.62 	4782.22 	
0.0018796 	1.63443e-12 	0.92 	0.04 	0.04 	0.0187866 	3.8 	
3.78121 	3.97796 	-0.196751 	-0.698188 	3.6181e-09 	0.349094 	12.2061 	
1.74987e-11 	7244.08 	123.46 	141.616 	0.35 	6.604 	-0.105722 	3.38667e-05 	
0.000900955 	0.000600637 	0.000176851 	8842.54 	5.10667e-05 	2.68276 	8839.86 	4056.18 	4783.68 	
ZONE T = "t = 3e-08 [s]" I = 10 SOLUTIONTIME = 3.0000000000000E-08
0.00127 	8.23375e-09 	0.92 	0.04 	0.04 	0.018787 	3.80007 	
3.78129 	3.97796 	-0.196678 	-0.697174 	6.14501e-08 	12.2066 	0.348587 	
3.49465e-11 	7244.08 	123.46 	141.616 	0.35 	6.604 	-0.105568 	3.38667e-05 	
0.000900955 	0.000600637 	0.000264766 	8825.55 	0.0147305 	0.00927497 	8825.52 	4048.79 	4776.73 	
0.00133773 	7.26586e-09 	0.92 	0.04 	0.04 	0.0187869 	3.80007 	
3.78129 	3.97796 	-0.196679 	-1.39437 	5.42242e-08 	11.1609 	1.39436 	
6.98942e-11 	14488.2 	246.919 	283.231 	0.35 	13.208 	-0.10557 	6.77333e-05 	
0.00180191 	0.00120127 	0.000264772 	8825.74 	0.0131002 	0.0463757 	8825.68 	4048.87 	4776.81 	
0.00140547 	6.29827e-09 	0.92 	0.04 	0.04 	0.0187869 	3.80007 	
3.78128 	3.97796 	-0.196682 	-1.39444 	4.6998e-08 	9.76645 	2.78877 	
6.98979e-11 	14488.2 	246.919 	283.231 	0.35 	13.208 	-0.105576 	6.77333e-05 	
0.00180191 	0.00120127 	0.000264791 	8826.37 	0.0100432 	0.157683 	8826.2 	4049.14 	4777.06 	
0.0014732 	5.33024e-09 	0.92 	0.04 	0.04 	0.0187868 	3.80006 	
3.78128 	3.97796 	-0.196686 	-1.39457 	3.97711e-08 	8.37195 	4.18327 	
6.99041e-11 	14488.2 	246.919 	283.231 	0.35 	13.208 	-0.105585 	6.77333e-05 	
0.00180191 	0.00120127 	0.000264823 	8827.43 	0.00739346 	0.343213 	8827.08 	4049.59 	4777.49 	
0.00154093 	4.36172e-09 	0.92 	0.04 	0.04 	0.0187868 	3.80006 	
3.78127 	3.97796 	-0.196692 	-1.39474 	3.25434e-08 	6.97729 	5.57793 	
6.99129e-11 	14488.2 	246.919 	283.231 	0.35 	13.208 	-0.105598 	6.77333e-05 	
0.00180191 	0.00120127 	0.000264868 	8828.92 	0.0051509 	0.602992 	8828.31 	4050.23 	4778.09 	
0.00160867 	3.39305e-09 	0.92 	0.04 	0.04 	0.0187867 	3.80005 	
3.78126 	3.97796 	-0.1967 	-1.39497 	2.53145e-08 	5.58244 	6.97278 	
6.99242e-11 	14488.2 	246.919 	283.231 	0.35 	13.208 	-0.105615 	6.77333e-05 	
0.00180191 	0.00120127 	0.000264925 	8830.84 	0.00331564 	0.937058 	8829.9 	4051.05 	4778.86 	
0.0016764 	2.42418e-09 	0.92 	0.04 	0.04 	0.0187867 	3.80004 	
3.78125 	3.97796 	-0.19671 	-1.39524 	1.80841e-08 	4.18733 	8.36789 	
6.9938e-11 	14488.2 	246.919 	283.231 	0.35 	13.208 	-0.105636 	6.77333e-05 	
0.00180191 	0.00120127 	0.000264996 	8833.2 	0.0018878 	1.34546 	8831.85 	4052.05 	4779.8 	
0.00174413 	1.454e-09 	0.92 	0.04 	0.04 	0.0187866 	3.80003 	
3.78124 	3.97796 	-0.196722 	-1.39557 	1.08521e-08 	2.79192 	9.7633 	
6.99544e-11 	14488.2 	246.919 	283.231 	0.35 	13.208 	-0.105661 	6.77333e-05 	
0.00180191 	0.00120127 	0.00026508 	8835.99 	0.000867588 	1.82825 	8834.16 	4053.24 	4780.92 	
0.00181187 	4.84645e-10 	0.92 	0.04 	0.04 	0.0187866 	3.80002 	
3.78123 	3.97796 	-0.196736 	-1.39595 	3.61811e-09 	1.39616 	11.1591 	
6.99733e-11 	14488.2 	246.919 	283.231 	0.35 	13.208 	-0.10569 	6.77333e-05 	
0.00180191 	0.00120127 	0.000265176 	8839.22 	0.000255239 	2.38551 	8836.83 	4054.62 	4782.22 	
0.0018796 	-1.09746e-22 	0.92 	0.04 	0.04 	0.0187866 	3.8 	
3.78121 	3.97796 	-0.196751 	-0.698188 	3.61811e-09 	0.349094 	12.2061 	
3.49974e-11 	7244.08 	123.46 	141.616 	0.35 	6.604 	-0.105722 	3.38667e-05 	
0.000900955 	0.000600637 	0.000265276 	8842.54 	5.10667e-05 	2.68276 	8839.86 	4056.18 	4783.68 	
ZONE T = "t = 4e-08 [s]" I = 10 SOLUTIONTIME = 4.0000000000000E-08
0.00127 	8.2343e-09 	0.92 	0.04 	0.04 	0.018787 	3.80007 	
3.78129 	3.97796 	-0.196678 	-0.697174 	6.14502e-08 	12.2066 	0.348587 	
5.24198e-11 	7244.08 	123.46 	141.616 	0.35 	6.604 	-0.105568 	3.38667e-05 	
0.000900955 	0.000600637 	0.000353022 	8825.55 	0.0147305 	0.00927497 	8825.52 	4048.79 	4776.73 	
0.00133773 	7.26568e-09 	0.92 	0.04 	0.04 	0.0187869 	3.80007 	
3.78129 	3.97796 	-0.196679 	-1.39437 	5.42242e-08 	11.1609 	1.39436 	
1.04841e-10 	14488.2 	246.919 	283.231 	0.35 	13.208 	-0.10557 	6.77333e-05 	
0.00180191 	0.00120127 	0.00035303 	8825.74 	0.0131002 	0.0463757 	8825.68 	4048.87 	4776.81 	
0.00140547 	6.29737e-09 	0.92 	0.04 	0.04 	0.0187869 	3.80007 	
3.78128 	3.97796 	-0.196682 	-1.39444 	4.6998e-08 	9.76645 	2.78877 	
1.04847e-10 	14488.2 	246.919 	283.231 	0.35 	13.208 	-0.105576 	6.77333e-05 	
0.00180191 	0.00120127 	0.000353055 	8826.37 	0.0100432 	0.157683 	8826.2 	4049.14 	4777.06 	
0.0014732 	5.32861e-09 	0.92 	0.04 	0.04 	0.0187868 	3.80006 	
3.78128 	3.97796 	-0.196686 	-1.39457 	3.97711e-08 	8.37195 	4.18327 	
1.04856e-10 	14488.2 	246.919 	283.231 	0.35 	13.208 	-0.105585 	6.77333e-05 	
0.00180191 	0.00120127 	0.000353097 	8827.43 	0.00739346 	0.343213 	8827.08 	4049.59 	4777.49 	
0.00154093 	4.36009e-09 	0.92 	0.04 	0.04 	0.0187868 	3.80006 	
3.78127 	3.97796 	-0.196692 	-1.39474 	3.25434e-08 	6.97729 	5.57793 	
1.04869e-10 	14488.2 	246.919 	283.231 	0.35 	13.208 	-0.105598 	6.77333e-05 	
0.00180191 	0.00120127 	0.000353157 	8828.92 	0.0051509 	0.602992 	8828.31 	4050.23 	4778.09 	
0.00160867 	3.39141e-09 	0.92 	0.04 	0.04 	0.0187867 	3.80005 	
3.78126 	3.97796 	-0.1967 	-1.39497 	2.53145e-08 	5.58244 	6.97278 	
1.04886e-10 	14488.2 	246.919 	283.231 	0.35 	13.208 	-0.105615 	6.77333e-05 	
0.00180191 	0.00120127 	0.000353234 	8830.84 	0.00331564 	0.937058 	8829.9 	4051.05 	4778.86 	
0.0016764 	2.42218e-09 	0.92 	0.04 	0.04 	0.0187867 	3.80004 	
3.78125 	3.97796 	-0.19671 	-1.39524 	1.80841e-08 	4.18733 	8.36789 	
1.04907e-10 	14488.2 	246.919 	283.231 	0.35 	13.208 	-0.105636 	6.77333e-05 	
0.00180191 	0.00120127 	0.000353328 	8833.2 	0.0018878 	1.34546 	8831.85 	4052.05 	4779.8 	
0.00174413 	1.45418e-09 	0.92 	0.04 	0.04 	0.0187866 	3.80003 	
3.78124 	3.97796 	-0.196722 	-1.39557 	1.08521e-08 	2.79192 	9.7633 	
1.04932e-10 	14488.2 	246.919 	283.231 	0.35 	13.208 	-0.105661 	6.77333e-05 	
0.00180191 	0.00120127 	0.00035344 	8835.99 	0.000867588 	1.82825 	8834.16 	4053.24 	4780.92 	
0.00181187 	4.84463e-10 	0.92 	0.04 	0.04 	0.0187866 	3.80002 	
3.78123 	3.97796 	-0.196736 	-1.39595 	3.61811e-09 	1.39616 	11.1591 	
1.0496e-10 	14488.2 	246.919 	283.231 	0.35 	13.208 	-0.10569 	6.77333e-05 	
0.00180191 	0.00120127 	0.000353569 	8839.22 	0.000255239 	2.38551 	8836.83 	4054.62 	4782.22 	
0.0018796 	-5.44812e-13 	0.92 	0.04 	0.04 	0.0187866 	3.8 	
3.78121 	3.97796 	-0.196751 	-0.698188 	3.61811e-09 	0.349094 	12.2061 	
5.24961e-11 	7244.08 	123.46 	141.616 	0.35 	6.604 	-0.105722 	3.38667e-05 	
0.000900955 	0.000600637 	0.000353702 	8842.54 	5.10667e-05 	2.68276 	8839.86 	4056.18 	4783.68 	
ZONE T = "t = 5.5e-08 [s]" I = 10 SOLUTIONTIME = 5.5000000000000E-08
0.00127 	8.23151e-09 	0.92 	0.04 	0.04 	0.018787 	3.80007 	
3.78129 	3.97796 	-0.196678 	-0.697174 	6.14502e-08 	12.2066 	0.348587 	
6.98931e-11 	7244.08 	123.46 	141.616 	0.35 	6.604 	-0.105568 	3.38667e-05 	
0.000900955 	0.000600637 	0.000485405 	8825.55 	0.0147305 	0.00927497 	8825.52 	4048.79 	4776.73 	
0.00133773 	7.26301e-09 	0.92 	0.04 	0.04 	0.0187869 	3.80007 	
3.78129 	3.97796 	-0.196679 	-1.39437 	5.42242e-08 	11.1609 	1.39436 	
1.39788e-10 	14488.2 	246.919 	283.231 	0.35 	13.208 	-0.10557 	6.77333e-05 	
0.00180191 	0.00120127 	0.000485416 	8825.74 	0.0131002 	0.0463757 	8825.68 	4048.87 	4776.81 	
0.00140547 	6.29446e-09 	0.92 	0.04 	0.04 	0.0187869 	3.80007 	
3.78128 	3.97796 	-0.196682 	-1.39444 	4.6998e-08 	9.76645 	2.78877 	
1.39796e-10 	14488.2 	246.919 	283.231 	0.35 	13.208 	-0.105576 	6.77333e-05 	
0.00180191 	0.00120127 	0.00048545 	8826.37 	0.0100432 	0.157683 	8826.2 	4049.14 	4777.06 	
0.0014732 	5.32558e-09 	0.92 	0.04 	0.04 	0.0187868 	3.80006 	
3.78128 	3.97796 	-0.196686 	-1.39457 	3.97711e-08 	8.37195 	4.18327 	
1.39808e-10 	14488.2 	246.919 	283.231 	0.35 	13.208 	-0.105585 	6.77333e-05 	
0.00180191 	0.00120127 	0.000485509 	8827.43 	0.00739346 	0.343213 	8827.08 	4049.59 	4777.49 	
0.00154093 	4.35682e-09 	0.92 	0.04 	0.04 	0.0187868 	3.80006 	
3.78127 	3.97796 	-0.196692 	-1.39474 	3.25434e-08 	6.97729 	5.57793 	
1.39826e-10 	14488.2 	246.919 	283.231 	0.35 	13.208 	-0.105598 	6.77333e-05 	
0.00180191 	0.00120127 	0.000485591 	8828.92 	0.0051509 	0.602992 	8828.31 	4050.23 	4778.09 	
0.00160867 	3.3879e-09 	0.92 	0.04 	0.04 	0.0187867 	3.80005 	
3.78126 	3.97796 	-0.1967 	-1.39497 	2.53145e-08 	5.58244 	6.97278 	
1.39848e-10 	14488.2 	246.919 	283.231 	0.35 	13.208 	-0.105615 	6.77333e-05 	
0.00180191 	0.00120127 	0.000485696 	8830.84 	0.00331564 	0.937058 	8829.9 	4051.05 	4778.86 	
0.0016764 	2.41904e-09 	0.92 	0.04 	0.04 	0.0187867 	3.80004 	
3.78125 	3.97796 	-0.19671 	-1.39524 	1.80841e-08 	4.18733 	8.36789 	
1.39876e-10 	14488.2 	246.919 	283.231 	0.35 	13.208 	-0.105636 	6.77333e-05 	
0.00180191 	0.00120127 	0.000485826 	8833.2 	0.0018878 	1.34546 	8831.85 	4052.05 	4779.8 	
0.00174413 	1.4497e-09 	0.92 	0.04 	0.04 	0.0187866 	3.80003 	
3.78124 	3.97796 	-0.196722 	-1.39557 	1.08521e-08 	2.79192 	9.7633 	
1.39909e-10 	14488.2 	246.919 	283.231 	0.35 	13.208 	-0.105661 	6.77333e-05 	
0.00180191 	0.00120127 	0.00048598 	8835.99 	0.000867588 	1.82825 	8834.16 	4053.24 	4780.92 	
0.00181187 	4.80347e-10 	0.92 	0.04 	0.04 	0.0187866 	3.80002 	
3.78123 	3.97796 	-0.196736 	-1.39595 	3.61811e-09 	1.39616 	11.1591 	
1.39947e-10 	14488.2 	246.919 	283.231 	0.35 	13.208 	-0.10569 	6.77333e-05 	
0.00180191 	0.00120127 	0.000486157 	8839.22 	0.000255239 	2.38551 	8836.83 	4054.62 	4782.22 	
0.0018796 	-4.60063e-12 	0.92 	0.04 	0.04 	0.0187866 	3.8 	
3.78121 	3.97796 	-0.196751 	-0.698188 	3.61811e-09 	0.349094 	12.2061 	
6.99948e-11 	7244.08 	123.46 	141.616 	0.35 	6.604 	-0.105722 	3.38667e-05 	
0.000900955 	0.000600637 	0.00048634 	8842.54 	5.10667e-05 	2.68276 	8839.86 	4056.18 	4783.68 	
ZONE T = "t = 7.75e-08 [s]" I = 10 SOLUTIONTIME = 7.7500000000000E-08
0.00127 	8.23672e-09 	0.92 	0.04 	0.04 	0.018787 	3.80007 	
3.78129 	3.97796 	-0.196678 	-0.697174 	6.14503e-08 	12.2066 	0.348587 	
9.6103e-11 	7244.08 	123.46 	141.616 	0.35 	6.604 	-0.105568 	3.38667e-05 	
0.000900955 	0.000600637 	0.00068398 	8825.55 	0.0147305 	0.00927497 	8825.52 	4048.79 	4776.73 	
0.00133773 	7.26862e-09 	0.92 	0.04 	0.04 	0.0187869 	3.80007 	
3.78129 	3.97796 	-0.196679 	-1.39437 	5.42242e-08 	11.1609 	1.39436 	
1.92209e-10 	14488.2 	246.919 	283.231 	0.35 	13.208 	-0.10557 	6.77333e-05 	
0.00180191 	0.00120127 	0.000683995 	8825.74 	0.0131002 	0.0463757 	8825.68 	4048.87 	4776.81 	
0.00140547 	6.30063e-09 	0.92 	0.04 	0.04 	0.0187869 	3.80007 	
3.78128 	3.97796 	-0.196682 	-1.39444 	4.6998e-08 	9.76645 	2.78877 	
1.92219e-10 	14488.2 	246.919 	283.231 	0.35 	13.208 	-0.105576 	6.77333e-05 	
0.00180191 	0.00120127 	0.000684044 	8826.37 	0.0100432 	0.157683 	8826.2 	4049.14 	4777.06 	
0.0014732 	5.33256e-09 	0.92 	0.04 	0.04 	0.0187868 	3.80006 	
3.78128 	3.97796 	-0.196686 	-1.39457 	3.97711e-08 	8.37195 	4.18327 	
1.92236e-10 	14488.2 	246.919 	283.231 	0.35 	13.208 	-0.105585 	6.77333e-05 	
0.00180191 	0.00120127 	0.000684126 	8827.43 	0.00739346 	0.343213 	8827.08 	4049.59 	4777.49 	
0.00154093 	4.3642e-09 	0.92 	0.04 	0.04 	0.0187868 	3.80006 	
3.78127 	3.97796 	-0.196692 	-1.39474 	3.25434e-08 	6.97729 	5.57793 	
1.9226e-10 	14488.2 	246.919 	283.231 	0.35 	13.208 	-0.105598 	6.77333e-05 	
0.00180191 	0.00120127 	0.000684241 	8828.92 	0.0051509 	0.602992 	8828.31 	4050.23 	4778.09 	
0.00160867 	3.39569e-09 	0.92 	0.04 	0.04 	0.0187867 	3.80005 	
3.78126 	3.97796 	-0.1967 	-1.39497 	2.53145e-08 	5.58244 	6.97278 	
1.92291e-10 	14488.2 	246.919 	283.231 	0.35 	13.208 	-0.105615 	6.77333e-05 	
0.00180191 	0.00120127 	0.00068439 	8830.84 	0.00331564 	0.937058 	8829.9 	4051.05 	4778.86 	
0.0016764 	2.42699e-09 	0.92 	0.04 	0.04 	0.0187867 	3.80004 	
3.78125 	3.97796 	-0.19671 	-1.39524 	1.80841e-08 	4.18733 	8.36789 	
1.9233e-10 	14488.2 	246.919 	283.231 	0.35 	13.208 	-0.105636 	6.77333e-05 	
0.00180191 	0.00120127 	0.000684573 	8833.2 	0.0018878 	1.34546 	8831.85 	4052.05 	4779.8 	
0.00174413 	1.45806e-09 	0.92 	0.04 	0.04 	0.0187866 	3.80003 	
3.78124 	3.97796 	-0.196722 	-1.39557 	1.08521e-08 	2.79192 	9.7633 	
1.92375e-10 	14488.2 	246.919 	283.231 	0.35 	13.208 	-0.105661 	6.77333e-05 	
0.00180191 	0.00120127 	0.000684789 	8835.99 	0.000867588 	1.82825 	8834.16 	4053.24 	4780.92 	
0.00181187 	4.88862e-10 	0.92 	0.04 	0.04 	0.0187866 	3.80002 	
3.78123 	3.97796 	-0.196736 	-1.39595 	3.61811e-09 	1.39616 	11.1591 	
1.92427e-10 	14488.2 	246.919 	283.231 	0.35 	13.208 	-0.10569 	6.77333e-05 	
0.00180191 	0.00120127 	0.000685039 	8839.22 	0.000255239 	2.38551 	8836.83 	4054.62 	4782.22 	
0.0018796 	4.19707e-12 	0.92 	0.04 	0.04 	0.0187866 	3.8 	
3.78121 	3.97796 	-0.196751 	-0.698188 	3.61811e-09 	0.349094 	12.2061 	
9.62428e-11 	7244.08 	123.46 	141.616 	0.35 	6.604 	-0.105722 	3.38667e-05 	
0.000900955 	0.000600637 	0.000685297 	8842.54 	5.10667e-05 	2.68276 	8839.86 	4056.18 	4783.68 	
ZONE T = "t = 1.1125e-07 [s]" I = 10 SOLUTIONTIME = 1.1125000000000E-07
0.00127 	8.23392e-09 	0.92 	0.04 	0.04 	0.018787 	3.80007 	
3.78129 	3.97796 	-0.196678 	-0.697174 	6.14504e-08 	12.2066 	0.348587 	
1.35418e-10 	7244.08 	123.46 	141.616 	0.35 	6.604 	-0.105568 	3.38667e-05 	
0.000900955 	0.000600637 	0.000981842 	8825.55 	0.0147305 	0.00927497 	8825.52 	4048.79 	4776.73 	
0.00133773 	7.26555e-09 	0.92 	0.04 	0.04 	0.0187869 	3.80007 	
3.78129 	3.97796 	-0.196679 	-1.39437 	5.42242e-08 	11.1609 	1.39436 	
2.7084e-10 	14488.2 	246.919 	283.231 	0.35 	13.208 	-0.10557 	6.77333e-05 	
0.00180191 	0.00120127 	0.000981864 	8825.74 	0.0131002 	0.0463757 	8825.68 	4048.87 	4776.81 	
0.00140547 	6.29703e-09 	0.92 	0.04 	0.04 	0.0187869 	3.80007 	
3.78128 	3.97796 	-0.196682 	-1.39444 	4.6998e-08 	9.76645 	2.78877 	
2.70854e-10 	14488.2 	246.919 	283.231 	0.35 	13.208 	-0.105576 	6.77333e-05 	
0.00180191 	0.00120127 	0.000981934 	8826.37 	0.0100432 	0.157683 	8826.2 	4049.14 	4777.06 	
0.0014732 	5.32852e-09 	0.92 	0.04 	0.04 	0.0187868 	3.80006 	
3.78128 	3.97796 	-0.196686 	-1.39457 	3.97711e-08 	8.37195 	4.18327 	
2.70879e-10 	14488.2 	246.919 	283.231 	0.35 	13.208 	-0.105585 	6.77333e-05 	
0.00180191 	0.00120127 	0.000982051 	8827.43 	0.00739346 	0.343213 	8827.08 	4049.59 	4777.49 	
0.00154093 	4.3599e-09 	0.92 	0.04 	0.04 	0.0187868 	3.80006 	
3.78127 	3.97796 	-0.196692 	-1.39474 	3.25434e-08 	6.97729 	5.57793 	
2.70912e-10 	14488.2 	246.919 	283.231 	0.35 	13.208 	-0.105598 	6.77333e-05 	
0.00180191 	0.00120127 	0.000982217 	8828.92 	0.0051509 	0.602992 	8828.31 	4050.23 	4778.09 	
0.00160867 	3.39112e-09 	0.92 	0.04 	0.04 	0.0187867 	3.80005 	
3.78126 	3.97796 	-0.1967 	-1.39497 	2.53145e-08 	5.58244 	6.97278 	
2.70956e-10 	14488.2 	246.919 	283.231 	0.35 	13.208 	-0.105615 	6.77333e-05 	
0.00180191 	0.00120127 	0.000982431 	8830.84 	0.00331564 	0.937058 	8829.9 	4051.05 	4778.86 	
0.0016764 	2.42214e-09 	0.92 	0.04 	0.04 	0.0187867 	3.80004 	
3.78125 	3.97796 	-0.19671 	-1.39524 	1.80841e-08 	4.18733 	8.36789 	
2.7101e-10 	14488.2 	246.919 	283.231 	0.35 	13.208 	-0.105636 	6.77333e-05 	
0.00180191 	0.00120127 	0.000982694 	8833.2 	0.0018878 	1.34546 	8831.85 	4052.05 	4779.8 	
0.00174413 	1.45305e-09 	0.92 	0.04 	0.04 	0.0187866 	3.80003 	
3.78124 	3.97796 	-0.196722 	-1.39557 	1.08521e-08 	2.79192 	9.7633 	
2.71073e-10 	14488.2 	246.919 	283.231 	0.35 	13.208 	-0.105661 	6.77333e-05 	
0.00180191 	0.00120127 	0.000983004 	8835.99 	0.000867588 	1.82825 	8834.16 	4053.24 	4780.92 	
0.00181187 	4.83696e-10 	0.92 	0.04 	0.04 	0.0187866 	3.80002 	
3.78123 	3.97796 	-0.196736 	-1.39595 	3.61811e-09 	1.39616 	11.1591 	
2.71147e-10 	14488.2 	246.919 	283.231 	0.35 	13.208 	-0.10569 	6.77333e-05 	
0.00180191 	0.00120127 	0.000983363 	8839.22 	0.000255239 	2.38551 	8836.83 	4054.62 	4782.22 	
0.0018796 	-1.07617e-12 	0.92 	0.04 	0.04 	0.0187866 	3.8 	
3.78121 	3.97796 	-0.196751 	-0.698188 	3.61811e-09 	0.349094 	12.2061 	
1.35615e-10 	7244.08 	123.46 	141.616 	0.35 	6.604 	-0.105722 	3.38667e-05 	
0.000900955 	0.000600637 	0.000983733 	8842.54 	5.10667e-05 	2.68276 	8839.86 	4056.18 	4783.68 	
ZONE T = "t = 1.61875e-07 [s]" I = 10 SOLUTIONTIME = 1.6187500000000E-07
0.00127 	8.23355e-09 	0.92 	0.04 	0.04 	0.018787 	3.80007 	
3.78129 	3.97796 	-0.196678 	-0.697174 	6.14506e-08 	12.2066 	0.348587 	
1.9439e-10 	7244.08 	123.46 	141.616 	0.35 	6.604 	-0.105568 	3.38667e-05 	
0.000900955 	0.000600637 	0.00142864 	8825.55 	0.0147305 	0.00927497 	8825.52 	4048.79 	4776.73 	
0.00133773 	7.26529e-09 	0.92 	0.04 	0.04 	0.0187869 	3.80007 	
3.78129 	3.97796 	-0.196679 	-1.39437 	5.42242e-08 	11.1609 	1.39436 	
3.88787e-10 	14488.2 	246.919 	283.231 	0.35 	13.208 	-0.10557 	6.77333e-05 	
0.00180191 	0.00120127 	0.00142867 	8825.74 	0.0131002 	0.0463757 	8825.68 	4048.87 	4776.81 	
0.00140547 	6.29698e-09 	0.92 	0.04 	0.04 	0.0187869 	3.80007 	
3.78128 	3.97796 	-0.196682 	-1.39444 	4.6998e-08 	9.76645 	2.78877 	
3.88807e-10 	14488.2 	246.919 	283.231 	0.35 	13.208 	-0.105576 	6.77333e-05 	
0.00180191 	0.00120127 	0.00142877 	8826.37 	0.0100432 	0.157683 	8826.2 	4049.14 	4777.06 	
0.0014732 	5.32858e-09 	0.92 	0.04 	0.04 	0.0187868 	3.80006 	
3.78128 	3.97796 	-0.196686 	-1.39457 	3.97711e-08 	8.37195 	4.18327 	
3.88842e-10 	14488.2 	246.919 	283.231 	0.35 	13.208 	-0.105585 	6.77333e-05 	
0.00180191 	0.00120127 	0.00142894 	8827.43 	0.00739346 	0.343213 	8827.08 	4049.59 	4777.49 	
0.00154093 	4.36006e-09 	0.92 	0.04 	0.04 	0.0187868 	3.80006 	
3.78127 	3.97796 	-0.196692 	-1.39474 	3.25434e-08 	6.97729 	5.57793 	
3.8889e-10 	14488.2 	246.919 	283.231 	0.35 	13.208 	-0.105598 	6.77333e-05 	
0.00180191 	0.00120127 	0.00142918 	8828.92 	0.0051509 	0.602992 	8828.31 	4050.23 	4778.09 	
0.00160867 	3.39139e-09 	0.92 	0.04 	0.04 	0.0187867 	3.80005 	
3.78126 	3.97796 	-0.1967 	-1.39497 	2.53145e-08 	5.58244 	6.97278 	
3.88953e-10 	14488.2 	246.919 	283.231 	0.35 	13.208 	-0.105615 	6.77333e-05 	
0.00180191 	0.00120127 	0.00142949 	8830.84 	0.00331564 	0.937058 	8829.9 	4051.05 	4778.86 	
0.0016764 	2.42252e-09 	0.92 	0.04 	0.04 	0.0187867 	3.80004 	
3.78125 	3.97796 	-0.19671 	-1.39524 	1.80841e-08 	4.18733 	8.36789 	
3.8903e-10 	14488.2 	246.919 	283.231 	0.35 	13.208 	-0.105636 	6.77333e-05 	
0.00180191 	0.00120127 	0.00142987 	8833.2 	0.0018878 	1.34546 	8831.85 	4052.05 	4779.8 	
0.00174413 	1.45343e-09 	0.92 	0.04 	0.04 	0.0187866 	3.80003 	
3.78124 	3.97796 	-0.196722 	-1.39557 	1.08521e-08 	2.79192 	9.7633 	
3.89121e-10 	14488.2 	246.919 	283.231 	0.35 	13.208 	-0.105661 	6.77333e-05 	
0.00180191 	0.00120127 	0.00143033 	8835.99 	0.000867588 	1.82825 	8834.16 	4053.24 	4780.92 	
0.00181187 	4.84073e-10 	0.92 	0.04 	0.04 	0.0187866 	3.80002 	
3.78123 	3.97796 	-0.196736 	-1.39595 	3.61811e-09 	1.39616 	11.1591 	
3.89227e-10 	14488.2 	246.919 	283.231 	0.35 	13.208 	-0.10569 	6.77333e-05 	
0.00180191 	0.00120127 	0.00143085 	8839.22 	0.000255239 	2.38551 	8836.83 	4054.62 	4782.22 	
0.0018796 	-7.89192e-13 	0.92 	0.04 	0.04 	0.0187866 	3.8 	
3.78121 	3.97796 	-0.196751 	-0.698188 	3.61811e-09 	0.349094 	12.2061 	
1.94673e-10 	7244.08 	123.46 	141.616 	0.35 	6.604 	-0.105722 	3.38667e-05 	
0.000900955 	0.000600637 	0.00143139 	8842.54 	5.10667e-05 	2.68276 	8839.86 	4056.18 	4783.68 	
ZONE T = "t = 2.37813e-07 [s]" I = 10 SOLUTIONTIME = 2.3781250000000E-07
0.00127 	8.23471e-09 	0.92 	0.04 	0.04 	0.018787 	3.80007 	
3.78129 	3.97796 	-0.196678 	-0.697174 	6.14509e-08 	12.2066 	0.348587 	
2.82849e-10 	7244.08 	123.46 	141.616 	0.35 	6.604 	-0.105568 	3.38667e-05 	