TITLE = "Solution on Domain BulkDomain1D_2"
VARIABLES = "x [m]"  
"Vel_axial" 	"MF_sp(ECDMC)" 	"MF_sp(Li+)" 	"MF_sp(PF6-)" 	"Volt(Electroly)" 	"Volt(CathodeVo)" 	
"Potential Drop Electrode-Electrolyte [V]" 	"Surf_0 Equilibrium Potential Drop Electrode-Electrolyte [V]" 	"Overpotential_0 [V]" 	"Current Source [A/m^2]" 	"Li+ flux [kmol/m^2/s]" 	"Electrolyte Current [A/m^2]" 	"Electrode Current [A/m^2]" 	
"CV Capacity discharged [A-s/m^2]" 	"Depth of discharge in CV [A-s/m^2]" 	"CV Capacity remaining [A-s/m^2]" 	"Initial CV capacity [A-s/m^2]" 	"Porosity []" 	"Surface Area [m2/m2] (area per area)" 	"Specific current (per particle area) [A/m^2]" 	"Control volume thickness [m]" 	
"MoleDens LiCoO2 [kmol/m^3]" 	"MoleDens CoO2 [kmol/m^3]" 	"qHeat_accum [J/m3]" 	"qHeat_step [W/m3]" 	"Joule_Lyte [W/m3]" 	"Joule_Solid [W/m3]" 	"electrodHeat [W/m3]" 	"OverpotHeat [W/m3]" 	"deltaSHeat [W/m3]" 	

ZONE T = "CATH, 0.0000E+00", I = 10, SOLUTIONTIME = 0.000000E+00
ZONETYPE = ORDERED
DATAPACKING = BLOCK
STRANDID = 3
 1.2700000000000E-03  1.3377333333333E-03  1.4054666666667E-03  1.4732000000000E-03  1.5409333333333E-03  1.6086666666667E-03  1.6764000000000E-03  1.7441333333333E-03  1.8118666666667E-03  1.8796000000000E-03 
 0.0000000000000E+00  0.0000000000000E+00  0.0000000000000E+00  0.0000000000000E+00  0.0000000000000E+00  0.0000000000000E+00  0.0000000000000E+00  0.0000000000000E+00  0.0000000000000E+00  0.0000000000000E+00 
 9.2000000000000E-01  9.2000000000000E-01  9.2000000000000E-01  9.2000000000000E-01  9.2000000000000E-01  9.2000000000000E-01  9.2000000000000E-01  9.2000000000000E-01  9.2000000000000E-01  9.2000000000000E-01 
 4.0000000000000E-02  4.0000000000000E-02  4.0000000000000E-02  4.0000000000000E-02  4.0000000000000E-02  4.0000000000000E-02  4.0000000000000E-02  4.0000000000000E-02  4.0000000000000E-02  4.0000000000000E-02 
 4.0000000000000E-02  4.0000000000000E-02  4.0000000000000E-02  4.0000000000000E-02  4.0000000000000E-02  4.0000000000000E-02  4.0000000000000E-02  4.0000000000000E-02  4.0000000000000E-02  4.0000000000000E-02 
-7.0000000000000E-02 -7.0000000000000E-02 -7.0000000000000E-02 -7.0000000000000E-02 -7.0000000000000E-02 -7.0000000000000E-02 -7.0000000000000E-02 -7.0000000000000E-02 -7.0000000000000E-02 -7.0000000000000E-02 
 3.8000000000000E+00  3.8000000000000E+00  3.8000000000000E+00  3.8000000000000E+00  3.8000000000000E+00  3.8000000000000E+00  3.8000000000000E+00  3.8000000000000E+00  3.8000000000000E+00  3.8000000000000E+00 
 3.8700000000000E+00  3.8700000000000E+00  3.8700000000000E+00  3.8700000000000E+00  3.8700000000000E+00  3.8700000000000E+00  3.8700000000000E+00  3.8700000000000E+00  3.8700000000000E+00  3.8700000000000E+00 
 3.9779642109147E+00  3.9779642109147E+00  3.9779642109147E+00  3.9779642109147E+00  3.9779642109147E+00  3.9779642109147E+00  3.9779642109147E+00  3.9779642109147E+00  3.9779642109147E+00  3.9779642109147E+00 
-1.0796421091472E-01 -1.0796421091472E-01 -1.0796421091472E-01 -1.0796421091472E-01 -1.0796421091472E-01 -1.0796421091472E-01 -1.0796421091472E-01 -1.0796421091472E-01 -1.0796421091472E-01 -1.0796421091472E-01 
-1.1663619695838E-01 -2.3327239391676E-01 -2.3327239391676E-01 -2.3327239391676E-01 -2.3327239391676E-01 -2.3327239391676E-01 -2.3327239391676E-01 -2.3327239391676E-01 -2.3327239391676E-01 -1.1663619695838E-01 
-0.0000000000000E+00 -0.0000000000000E+00 -0.0000000000000E+00 -0.0000000000000E+00 -0.0000000000000E+00 -0.0000000000000E+00 -0.0000000000000E+00 -0.0000000000000E+00 -0.0000000000000E+00 -0.0000000000000E+00 
 1.1663619695838E-01  0.0000000000000E+00  0.0000000000000E+00  0.0000000000000E+00  0.0000000000000E+00  0.0000000000000E+00  0.0000000000000E+00  0.0000000000000E+00  0.0000000000000E+00  0.0000000000000E+00 
 0.0000000000000E+00 -0.0000000000000E+00 -0.0000000000000E+00 -0.0000000000000E+00 -0.0000000000000E+00 -0.0000000000000E+00 -0.0000000000000E+00 -0.0000000000000E+00 -0.0000000000000E+00  1.1663619695838E-01 
-0.0000000000000E+00 -0.0000000000000E+00 -0.0000000000000E+00 -0.0000000000000E+00 -0.0000000000000E+00 -0.0000000000000E+00 -0.0000000000000E+00 -0.0000000000000E+00 -0.0000000000000E+00 -0.0000000000000E+00 
 7.2440786946225E+03  1.4488157389245E+04  1.4488157389245E+04  1.4488157389245E+04  1.4488157389245E+04  1.4488157389245E+04  1.4488157389245E+04  1.4488157389245E+04  1.4488157389245E+04  7.2440786946225E+03 
 4.9259735123433E+04  9.8519470246865E+04  9.8519470246866E+04  9.8519470246865E+04  9.8519470246866E+04  9.8519470246866E+04  9.8519470246865E+04  9.8519470246866E+04  9.8519470246865E+04  4.9259735123433E+04 
 5.6503813818055E+04  1.1300762763611E+05  1.1300762763611E+05  1.1300762763611E+05  1.1300762763611E+05  1.1300762763611E+05  1.1300762763611E+05  1.1300762763611E+05  1.1300762763611E+05  5.6503813818055E+04 
 3.5000000000000E-01  3.5000000000000E-01  3.5000000000000E-01  3.5000000000000E-01  3.5000000000000E-01  3.5000000000000E-01  3.5000000000000E-01  3.5000000000000E-01  3.5000000000000E-01  3.5000000000000E-01 
 6.6040000000000E+00  1.3208000000000E+01  1.3208000000000E+01  1.3208000000000E+01  1.3208000000000E+01  1.3208000000000E+01  1.3208000000000E+01  1.3208000000000E+01  1.3208000000000E+01  6.6040000000000E+00 
-1.7661447146938E-02 -1.7661447146938E-02 -1.7661447146938E-02 -1.7661447146938E-02 -1.7661447146938E-02 -1.7661447146938E-02 -1.7661447146938E-02 -1.7661447146938E-02 -1.7661447146938E-02 -1.7661447146938E-02 
 3.3866666666667E-05  6.7733333333333E-05  6.7733333333334E-05  6.7733333333333E-05  6.7733333333334E-05  6.7733333333334E-05  6.7733333333333E-05  6.7733333333334E-05  6.7733333333333E-05  3.3866666666667E-05 
 2.6603001364256E+01  2.6603001364256E+01  2.6603001364256E+01  2.6603001364256E+01  2.6603001364256E+01  2.6603001364256E+01  2.6603001364256E+01  2.6603001364256E+01  2.6603001364256E+01  2.6603001364256E+01 
 1.7735334242838E+01  1.7735334242838E+01  1.7735334242838E+01  1.7735334242838E+01  1.7735334242838E+01  1.7735334242838E+01  1.7735334242838E+01  1.7735334242838E+01  1.7735334242838E+01  1.7735334242838E+01 
 0.0000000000000E+00  0.0000000000000E+00  0.0000000000000E+00  0.0000000000000E+00  0.0000000000000E+00  0.0000000000000E+00  0.0000000000000E+00  0.0000000000000E+00  0.0000000000000E+00  0.0000000000000E+00 
 0.0000000000000E+00  0.0000000000000E+00  0.0000000000000E+00  0.0000000000000E+00  0.0000000000000E+00  0.0000000000000E+00  0.0000000000000E+00  0.0000000000000E+00  0.0000000000000E+00  0.0000000000000E+00 
 0.0000000000000E+00  0.0000000000000E+00  0.0000000000000E+00  0.0000000000000E+00  0.0000000000000E+00  0.0000000000000E+00  0.0000000000000E+00  0.0000000000000E+00  0.0000000000000E+00  0.0000000000000E+00 
 0.0000000000000E+00  0.0000000000000E+00  0.0000000000000E+00  0.0000000000000E+00  0.0000000000000E+00  0.0000000000000E+00  0.0000000000000E+00  0.0000000000000E+00  0.0000000000000E+00  0.0000000000000E+00 
 0.0000000000000E+00  0.0000000000000E+00  0.0000000000000E+00  0.0000000000000E+00  0.0000000000000E+00  0.0000000000000E+00  0.0000000000000E+00  0.0000000000000E+00  0.0000000000000E+00  0.0000000000000E+00 
 0.0000000000000E+00  0.0000000000000E+00  0.0000000000000E+00  0.0000000000000E+00  0.0000000000000E+00  0.0000000000000E+00  0.0000000000000E+00  0.0000000000000E+00  0.0000000000000E+00  0.0000000000000E+00 
 0.0000000000000E+00  0.0000000000000E+00  0.0000000000000E+00  0.0000000000000E+00  0.0000000000000E+00  0.0000000000000E+00  0.0000000000000E+00  0.0000000000000E+00  0.0000000000000E+00  0.0000000000000E+00 
ZONE T = "CATH, 1.0000E-08", I = 10, SOLUTIONTIME = 1.000000E-08
ZONETYPE = ORDERED
DATAPACKING = BLOCK
STRANDID = 3
 1.2700000000000E-03  1.3377333333333E-03  1.4054666666667E-03  1.4732000000000E-03  1.5409333333333E-03  1.6086666666667E-03  1.6764000000000E-03  1.7441333333333E-03  1.8118666666667E-03  1.8796000000000E-03 
 8.2335671207435E-09  7.2656714027398E-09  6.2969982972068E-09  5.3282390785104E-09  4.3593585931638E-09  3.3903216700292E-09  2.4210931153564E-09  1.4516377075786E-09  4.8192019216637E-10 -3.0872656660195E-12 
 9.2000000000013E-01  9.2000000000038E-01  9.2000000000038E-01  9.2000000000038E-01  9.2000000000038E-01  9.2000000000038E-01  9.2000000000038E-01  9.2000000000038E-01  9.2000000000038E-01  9.2000000000038E-01 
 3.9999999999934E-02  3.9999999999812E-02  3.9999999999812E-02  3.9999999999812E-02  3.9999999999812E-02  3.9999999999812E-02  3.9999999999812E-02  3.9999999999812E-02  3.9999999999812E-02  3.9999999999812E-02 
 3.9999999999934E-02  3.9999999999812E-02  3.9999999999812E-02  3.9999999999812E-02  3.9999999999812E-02  3.9999999999812E-02  3.9999999999812E-02  3.9999999999812E-02  3.9999999999812E-02  3.9999999999812E-02 
 1.8787027563270E-02  1.8786943422287E-02  1.8786869175323E-02  1.8786804822900E-02  1.8786750365896E-02  1.8786705805551E-02  1.8786671143464E-02  1.8786646381592E-02  1.8786631522255E-02  1.8786626568129E-02 
 3.8000730064342E+00  3.8000721053335E+00  3.8000694020019E+00  3.8000648963444E+00  3.8000585882009E+00  3.8000504773456E+00  3.8000405634873E+00  3.8000288462694E+00  3.8000153252696E+00  3.8000000000000E+00 
 3.7812859788709E+00  3.7812851619112E+00  3.7812825328265E+00  3.7812780915215E+00  3.7812718378350E+00  3.7812637715401E+00  3.7812538923439E+00  3.7812421998878E+00  3.7812286937473E+00  3.7812133734319E+00 
 3.9779642109146E+00  3.9779642109146E+00  3.9779642109146E+00  3.9779642109146E+00  3.9779642109146E+00  3.9779642109146E+00  3.9779642109146E+00  3.9779642109146E+00  3.9779642109146E+00  3.9779642109146E+00 
-1.9667823204370E-01 -1.9667904900336E-01 -1.9668167808804E-01 -1.9668611939304E-01 -1.9669237307955E-01 -1.9670043937450E-01 -1.9671031857069E-01 -1.9672201102674E-01 -1.9673551716723E-01 -1.9675083748270E-01 
-6.9717402009986E-01 -1.3943708492037E+00 -1.3944442541291E+00 -1.3945682656182E+00 -1.3947429016522E+00 -1.3949681875567E+00 -1.3952441560094E+00 -1.3955708470505E+00 -1.3959483080948E+00 -6.9818829697327E-01 
 6.1450007198174E-08  5.4224138888628E-08  4.6997945624317E-08  3.9771109726498E-08  3.2543368848434E-08  2.5314460528481E-08  1.8084122124962E-08  1.0852090780710E-08  3.6181034132922E-09  3.6181034132922E-09 
 1.2555212562730E+01  1.1160853555653E+01  9.7664468800508E+00  8.3719414979206E+00  6.9772867937567E+00  5.5824321315271E+00  4.1873268456179E+00  2.7919202337439E+00  1.3961615508370E+00  0.0000000000000E+00 
 0.0000000000000E+00  1.3943585691058E+00  2.7887652446347E+00  4.1832706271140E+00  5.5779253311583E+00  6.9727799933715E+00  8.3678852793909E+00  9.7632918911022E+00  1.1159050574027E+01  1.2555212576377E+01 
 6.9717402009986E-09  1.3943708492037E-08  1.3944442541291E-08  1.3945682656182E-08  1.3947429016522E-08  1.3949681875567E-08  1.3952441560094E-08  1.3955708470505E-08  1.3959483080948E-08  6.9818829697327E-09 
 7.2440786946295E+03  1.4488157389259E+04  1.4488157389259E+04  1.4488157389259E+04  1.4488157389259E+04  1.4488157389259E+04  1.4488157389259E+04  1.4488157389259E+04  1.4488157389259E+04  7.2440786946295E+03 
 4.9259735123426E+04  9.8519470246851E+04  9.8519470246852E+04  9.8519470246851E+04  9.8519470246852E+04  9.8519470246852E+04  9.8519470246851E+04  9.8519470246852E+04  9.8519470246851E+04  4.9259735123426E+04 
 5.6503813818055E+04  1.1300762763611E+05  1.1300762763611E+05  1.1300762763611E+05  1.1300762763611E+05  1.1300762763611E+05  1.1300762763611E+05  1.1300762763611E+05  1.1300762763611E+05  5.6503813818055E+04 
 3.5000000000000E-01  3.5000000000000E-01  3.5000000000000E-01  3.5000000000000E-01  3.5000000000000E-01  3.5000000000000E-01  3.5000000000000E-01  3.5000000000000E-01  3.5000000000000E-01  3.5000000000000E-01 
 6.6040000000000E+00  1.3208000000000E+01  1.3208000000000E+01  1.3208000000000E+01  1.3208000000000E+01  1.3208000000000E+01  1.3208000000000E+01  1.3208000000000E+01  1.3208000000000E+01  6.6040000000000E+00 
-1.0556844641124E-01 -1.0557017331948E-01 -1.0557573093043E-01 -1.0558512004983E-01 -1.0559834203908E-01 -1.0561539881562E-01 -1.0563629285352E-01 -1.0566102718432E-01 -1.0568960539785E-01 -1.0572203164344E-01 
 3.3866666666667E-05  6.7733333333333E-05  6.7733333333334E-05  6.7733333333333E-05  6.7733333333334E-05  6.7733333333334E-05  6.7733333333333E-05  6.7733333333334E-05  6.7733333333333E-05  3.3866666666667E-05 
 2.6603001364259E+01  2.6603001364259E+01  2.6603001364259E+01  2.6603001364259E+01  2.6603001364259E+01  2.6603001364259E+01  2.6603001364259E+01  2.6603001364259E+01  2.6603001364259E+01  2.6603001364259E+01 
 1.7735334242836E+01  1.7735334242836E+01  1.7735334242836E+01  1.7735334242836E+01  1.7735334242836E+01  1.7735334242836E+01  1.7735334242836E+01  1.7735334242836E+01  1.7735334242836E+01  1.7735334242836E+01 
 8.8255451685536E-05  8.8257418265793E-05  8.8263688197448E-05  8.8274280788204E-05  8.8289197673963E-05  8.8308441158848E-05  8.8332014215939E-05  8.8359920488247E-05  8.8392164289871E-05  8.8425405143883E-05 
 8.8255451685536E+03  8.8257418265793E+03  8.8263688197448E+03  8.8274280788204E+03  8.8289197673963E+03  8.8308441158848E+03  8.8332014215939E+03  8.8359920488247E+03  8.8392164289871E+03  8.8425405143883E+03 
 1.4730516979727E-02  1.3100216314745E-02  1.0043225213185E-02  7.3934460495876E-03  5.1508913513222E-03  3.3156327944779E-03  1.8878012450593E-03  8.6758682109013E-04  2.5523897449153E-04  5.1066588040235E-05 
 9.2749549649424E-03  4.6375685148172E-02  1.5768306197142E-01  3.4321284435498E-01  6.0299156719529E-01  9.3705654962148E-01  1.3454559064403E+00  1.8282485629456E+00  2.3855042730235E+00  2.6827572880854E+00 
 8.8255211630816E+03  8.8256823506778E+03  8.8262010934576E+03  8.8270774725299E+03  8.8283116249377E+03  8.8299037437024E+03  8.8318540778862E+03  8.8341629326749E+03  8.8368306694751E+03  8.8398577060337E+03 
 4.0487880029549E+03  4.0488710518636E+03  4.0491383253321E+03  4.0495898680113E+03  4.0502257553443E+03  4.0510460935927E+03  4.0520510198718E+03  4.0532407021983E+03  4.0546153395462E+03  4.0561751619151E+03 
 4.7767331601268E+03  4.7768112988142E+03  4.7770627681254E+03  4.7774876045186E+03  4.7780858695934E+03  4.7788576501097E+03  4.7798030580144E+03  4.7809222304766E+03  4.7822153299290E+03  4.7836825441186E+03 
ZONE T = "CATH, 2.0000E-08", I = 10, SOLUTIONTIME = 2.000000E-08
ZONETYPE = ORDERED
DATAPACKING = BLOCK
STRANDID = 3
 1.2700000000000E-03  1.3377333333333E-03  1.4054666666667E-03  1.4732000000000E-03  1.5409333333333E-03  1.6086666666667E-03  1.6764000000000E-03  1.7441333333333E-03  1.8118666666667E-03  1.8796000000000E-03 
 8.2381124677139E-09  7.2698529312073E-09  6.3004527986619E-09  5.3320561749186E-09  4.3635382827823E-09  3.3945007429271E-09  2.4252715687907E-09  1.4561787460067E-09  4.8682381182788E-10  1.6344347753011E-12 
 9.2000000000027E-01  9.2000000000075E-01  9.2000000000075E-01  9.2000000000075E-01  9.2000000000075E-01  9.2000000000075E-01  9.2000000000075E-01  9.2000000000075E-01  9.2000000000075E-01  9.2000000000075E-01 
 3.9999999999867E-02  3.9999999999624E-02  3.9999999999624E-02  3.9999999999624E-02  3.9999999999624E-02  3.9999999999624E-02  3.9999999999624E-02  3.9999999999624E-02  3.9999999999624E-02  3.9999999999624E-02 
 3.9999999999867E-02  3.9999999999624E-02  3.9999999999624E-02  3.9999999999624E-02  3.9999999999624E-02  3.9999999999624E-02  3.9999999999624E-02  3.9999999999624E-02  3.9999999999624E-02  3.9999999999624E-02 
 1.8787027750101E-02  1.8786943609064E-02  1.8786869362053E-02  1.8786805009588E-02  1.8786750552550E-02  1.8786705992176E-02  1.8786671330067E-02  1.8786646568179E-02  1.8786631708832E-02  1.8786626754703E-02 
 3.8000730064805E+00  3.8000721053792E+00  3.8000694020459E+00  3.8000648963856E+00  3.8000585882381E+00  3.8000504773777E+00  3.8000405635131E+00  3.8000288462878E+00  3.8000153252793E+00  3.8000000000000E+00 
 3.7812859787304E+00  3.7812851617701E+00  3.7812825326838E+00  3.7812780913760E+00  3.7812718376855E+00  3.7812637713855E+00  3.7812538921831E+00  3.7812421997196E+00  3.7812286935705E+00  3.7812133732453E+00 
 3.9779642109146E+00  3.9779642109144E+00  3.9779642109144E+00  3.9779642109144E+00  3.9779642109144E+00  3.9779642109144E+00  3.9779642109144E+00  3.9779642109144E+00  3.9779642109144E+00  3.9779642109144E+00 
-1.9667823218419E-01 -1.9667904914429E-01 -1.9668167823062E-01 -1.9668611953843E-01 -1.9669237322888E-01 -1.9670043952893E-01 -1.9671031873137E-01 -1.9672201119484E-01 -1.9673551734390E-01 -1.9675083766912E-01 
-6.9717402206028E-01 -1.3943708531347E+00 -1.3944442581066E+00 -1.3945682696743E+00 -1.3947429058191E+00 -1.3949681918666E+00 -1.3952441604949E+00 -1.3955708517443E+00 -1.3959483130296E+00 -6.9818829957773E-01 
 6.1450101815995E-08  5.4224173521260E-08  4.6997975688522E-08  3.9771135227593E-08  3.2543389763873E-08  2.5314476842424E-08  1.8084133823093E-08  1.0852097829840E-08  3.6181057899801E-09  3.6181057899801E-09 
 1.2555220125305E+01  1.1160860676939E+01  9.7664531212227E+00  8.3719468572755E+00  6.9772912698278E+00  5.5824357208917E+00  4.1873295446089E+00  2.7919220384498E+00  1.3961624558792E+00  0.0000000000000E+00 
 0.0000000000000E+00  1.3943594486907E+00  2.7887670041481E+00  4.1832732681021E+00  5.5779288560261E+00  6.9727844046960E+00  8.3678905807797E+00  9.7632980870221E+00  1.1159057669460E+01  1.2555220125545E+01 
 1.3943480421601E-08  2.7887417023384E-08  2.7888885122357E-08  2.7891365352925E-08  2.7894858074713E-08  2.7899363794233E-08  2.7904883165043E-08  2.7911416987948E-08  2.7918966211245E-08  1.3963765965510E-08 
 7.2440786946364E+03  1.4488157389273E+04  1.4488157389273E+04  1.4488157389273E+04  1.4488157389273E+04  1.4488157389273E+04  1.4488157389273E+04  1.4488157389273E+04  1.4488157389273E+04  7.2440786946364E+03 
 4.9259735123419E+04  9.8519470246837E+04  9.8519470246838E+04  9.8519470246837E+04  9.8519470246838E+04  9.8519470246838E+04  9.8519470246837E+04  9.8519470246838E+04  9.8519470246837E+04  4.9259735123419E+04 
 5.6503813818055E+04  1.1300762763611E+05  1.1300762763611E+05  1.1300762763611E+05  1.1300762763611E+05  1.1300762763611E+05  1.1300762763611E+05  1.1300762763611E+05  1.1300762763611E+05  5.6503813818055E+04 
 3.5000000000000E-01  3.5000000000000E-01  3.5000000000000E-01  3.5000000000000E-01  3.5000000000000E-01  3.5000000000000E-01  3.5000000000000E-01  3.5000000000000E-01  3.5000000000000E-01  3.5000000000000E-01 
 6.6040000000000E+00  1.3208000000000E+01  1.3208000000000E+01  1.3208000000000E+01  1.3208000000000E+01  1.3208000000000E+01  1.3208000000000E+01  1.3208000000000E+01  1.3208000000000E+01  6.6040000000000E+00 
-1.0556844670810E-01 -1.0557017361711E-01 -1.0557573123157E-01 -1.0558512035693E-01 -1.0559834235456E-01 -1.0561539914193E-01 -1.0563629319313E-01 -1.0566102753969E-01 -1.0568960577147E-01 -1.0572203203781E-01 
 3.3866666666667E-05  6.7733333333333E-05  6.7733333333334E-05  6.7733333333333E-05  6.7733333333334E-05  6.7733333333334E-05  6.7733333333333E-05  6.7733333333334E-05  6.7733333333333E-05  3.3866666666667E-05 
 2.6603001364261E+01  2.6603001364261E+01  2.6603001364261E+01  2.6603001364261E+01  2.6603001364261E+01  2.6603001364261E+01  2.6603001364261E+01  2.6603001364261E+01  2.6603001364261E+01  2.6603001364261E+01 
 1.7735334242833E+01  1.7735334242833E+01  1.7735334242833E+01  1.7735334242833E+01  1.7735334242833E+01  1.7735334242833E+01  1.7735334242833E+01  1.7735334242833E+01  1.7735334242833E+01  1.7735334242833E+01 
 1.7651090364848E-04  1.7651483681019E-04  1.7652737667815E-04  1.7654856186753E-04  1.7657839565015E-04  1.7661688263425E-04  1.7666402876602E-04  1.7671984133150E-04  1.7678432895892E-04  1.7685081069013E-04 
 8.8255451962945E+03  8.8257418544401E+03  8.8263688480707E+03  8.8274281079330E+03  8.8289197976183E+03  8.8308441475398E+03  8.8332014550078E+03  8.8359920843251E+03  8.8392164669044E+03  8.8425405546251E+03 
 1.4730535763960E-02  1.3100233031425E-02  1.0043238048629E-02  7.3934555147742E-03  5.1508979594025E-03  3.3156370576470E-03  1.8878036781315E-03  8.6758794232354E-04  2.5523930523439E-04  5.1066654415555E-05 
 9.2749666666380E-03  4.6375743657224E-02  1.5768326095152E-01  3.4321327774035E-01  6.0299232934375E-01  9.3705773534885E-01  1.3454576113519E+00  1.8282508835579E+00  2.3855073068443E+00  2.6827607030409E+00 
 8.8255211907920E+03  8.8256823784634E+03  8.8262011215717E+03  8.8270775011998E+03  8.8283116543910E+03  8.8299037741674E+03  8.8318541095927E+03  8.8341629658535E+03  8.8368307043582E+03  8.8398577428554E+03 
 4.0487880172318E+03  4.0488710661793E+03  4.0491383398172E+03  4.0495898827828E+03  4.0502257705196E+03  4.0510461092896E+03  4.0520510362087E+03  4.0532407192941E+03  4.0546153575207E+03  4.0561751808892E+03 
 4.7767331735602E+03  4.7768113122841E+03  4.7770627817545E+03  4.7774876184170E+03  4.7780858838713E+03  4.7788576648778E+03  4.7798030733840E+03  4.7809222465595E+03  4.7822153468376E+03  4.7836825619663E+03 
ZONE T = "CATH, 3.0000E-08", I = 10, SOLUTIONTIME = 3.000000E-08
ZONETYPE = ORDERED
DATAPACKING = BLOCK
STRANDID = 3
 1.2700000000000E-03  1.3377333333333E-03  1.4054666666667E-03  1.4732000000000E-03  1.5409333333333E-03  1.6086666666667E-03  1.6764000000000E-03  1.7441333333333E-03  1.8118666666667E-03  1.8796000000000E-03 
 8.2337539749263E-09  7.2658576461538E-09  6.2982735522536E-09  5.3302401362445E-09  4.3617222441145E-09  3.3930479119935E-09  2.4241819455912E-09  1.4539994996301E-09  4.8464456545767E-10 -1.0976662494772E-22 
 9.2000000000040E-01  9.2000000000113E-01  9.2000000000113E-01  9.2000000000113E-01  9.2000000000113E-01  9.2000000000113E-01  9.2000000000113E-01  9.2000000000113E-01  9.2000000000113E-01  9.2000000000113E-01 
 3.9999999999801E-02  3.9999999999436E-02  3.9999999999436E-02  3.9999999999436E-02  3.9999999999436E-02  3.9999999999436E-02  3.9999999999436E-02  3.9999999999436E-02  3.9999999999436E-02  3.9999999999436E-02 
 3.9999999999801E-02  3.9999999999436E-02  3.9999999999436E-02  3.9999999999436E-02  3.9999999999436E-02  3.9999999999436E-02  3.9999999999436E-02  3.9999999999436E-02  3.9999999999436E-02  3.9999999999436E-02 
 1.8787027750047E-02  1.8786943609010E-02  1.8786869361999E-02  1.8786805009534E-02  1.8786750552496E-02  1.8786705992122E-02  1.8786671330013E-02  1.8786646568125E-02  1.8786631708778E-02  1.8786626754649E-02 
 3.8000730064805E+00  3.8000721053792E+00  3.8000694020459E+00  3.8000648963856E+00  3.8000585882381E+00  3.8000504773777E+00  3.8000405635131E+00  3.8000288462878E+00  3.8000153252793E+00  3.8000000000000E+00 
 3.7812859787304E+00  3.7812851617702E+00  3.7812825326839E+00  3.7812780913760E+00  3.7812718376856E+00  3.7812637713855E+00  3.7812538921831E+00  3.7812421997196E+00  3.7812286935706E+00  3.7812133732454E+00 
 3.9779642109145E+00  3.9779642109143E+00  3.9779642109143E+00  3.9779642109143E+00  3.9779642109143E+00  3.9779642109143E+00  3.9779642109143E+00  3.9779642109143E+00  3.9779642109143E+00  3.9779642109143E+00 
-1.9667823218406E-01 -1.9667904914408E-01 -1.9668167823041E-01 -1.9668611953822E-01 -1.9669237322868E-01 -1.9670043952873E-01 -1.9671031873117E-01 -1.9672201119463E-01 -1.9673551734370E-01 -1.9675083766892E-01 
-6.9717402205783E-01 -1.3943708531256E+00 -1.3944442580975E+00 -1.3945682696652E+00 -1.3947429058100E+00 -1.3949681918575E+00 -1.3952441604858E+00 -1.3955708517351E+00 -1.3959483130205E+00 -6.9818829957314E-01 
 6.1450157254004E-08  5.4224173526323E-08  4.6997975696660E-08  3.9771135236523E-08  3.2543389777397E-08  2.5314476856869E-08  1.8084133842511E-08  1.0852097857144E-08  3.6181058207378E-09  3.6181058207378E-09 
 1.2555220125754E+01  1.1160860676896E+01  9.7664531211768E+00  8.3719468572362E+00  6.9772912695506E+00  5.5824357208655E+00  4.1873295445892E+00  2.7919220384366E+00  1.3961624561171E+00  0.0000000000000E+00 
 0.0000000000000E+00  1.3943594486907E+00  2.7887670041481E+00  4.1832732681021E+00  5.5779288558543E+00  6.9727844046960E+00  8.3678905809515E+00  9.7632980868503E+00  1.1159057669288E+01  1.2555220125540E+01 
 2.0915220642180E-08  4.1831125554640E-08  4.1833327703332E-08  4.1837048049577E-08  4.1842287132813E-08  4.1849045712808E-08  4.1857324769901E-08  4.1867125505299E-08  4.1878449341449E-08  2.0945648961241E-08 
 7.2440786946434E+03  1.4488157389287E+04  1.4488157389287E+04  1.4488157389287E+04  1.4488157389287E+04  1.4488157389287E+04  1.4488157389287E+04  1.4488157389287E+04  1.4488157389287E+04  7.2440786946434E+03 
 4.9259735123412E+04  9.8519470246823E+04  9.8519470246824E+04  9.8519470246823E+04  9.8519470246824E+04  9.8519470246824E+04  9.8519470246823E+04  9.8519470246824E+04  9.8519470246823E+04  4.9259735123412E+04 
 5.6503813818055E+04  1.1300762763611E+05  1.1300762763611E+05  1.1300762763611E+05  1.1300762763611E+05  1.1300762763611E+05  1.1300762763611E+05  1.1300762763611E+05  1.1300762763611E+05  5.6503813818055E+04 
 3.5000000000000E-01  3.5000000000000E-01  3.5000000000000E-01  3.5000000000000E-01  3.5000000000000E-01  3.5000000000000E-01  3.5000000000000E-01  3.5000000000000E-01  3.5000000000000E-01  3.5000000000000E-01 
 6.6040000000000E+00  1.3208000000000E+01  1.3208000000000E+01  1.3208000000000E+01  1.3208000000000E+01  1.3208000000000E+01  1.3208000000000E+01  1.3208000000000E+01  1.3208000000000E+01  6.6040000000000E+00 
-1.0556844670773E-01 -1.0557017361641E-01 -1.0557573123088E-01 -1.0558512035624E-01 -1.0559834235387E-01 -1.0561539914124E-01 -1.0563629319244E-01 -1.0566102753900E-01 -1.0568960577078E-01 -1.0572203203712E-01 
 3.3866666666667E-05  6.7733333333333E-05  6.7733333333334E-05  6.7733333333333E-05  6.7733333333334E-05  6.7733333333334E-05  6.7733333333333E-05  6.7733333333334E-05  6.7733333333333E-05  3.3866666666667E-05 
 2.6603001364263E+01  2.6603001364263E+01  2.6603001364263E+01  2.6603001364263E+01  2.6603001364263E+01  2.6603001364263E+01  2.6603001364263E+01  2.6603001364263E+01  2.6603001364263E+01  2.6603001364263E+01 
 1.7735334242831E+01  1.7735334242831E+01  1.7735334242831E+01  1.7735334242831E+01  1.7735334242831E+01  1.7735334242831E+01  1.7735334242831E+01  1.7735334242831E+01  1.7735334242831E+01  1.7735334242831E+01 
 2.6476635561110E-04  2.6477225535401E-04  2.6479106515827E-04  2.6482284294628E-04  2.6486759362574E-04  2.6492532410905E-04  2.6499604331551E-04  2.6507976217416E-04  2.6517649362737E-04  2.6527621623579E-04 
 8.8255451962624E+03  8.8257418543812E+03  8.8263688480119E+03  8.8274281078743E+03  8.8289197975593E+03  8.8308441474808E+03  8.8332014549489E+03  8.8359920842659E+03  8.8392164668453E+03  8.8425405545659E+03 
 1.4730535765128E-02  1.3100233031446E-02  1.0043238048511E-02  7.3934555148109E-03  5.1508979589852E-03  3.3156370576315E-03  1.8878036781226E-03  8.6758794231946E-04  2.5523930526896E-04  5.1066654486841E-05 
 9.2749666666380E-03  4.6375743657224E-02  1.5768326095152E-01  3.4321327774035E-01  6.0299232930261E-01  9.3705773535799E-01  1.3454576114022E+00  1.8282508834893E+00  2.3855073067757E+00  2.6827607030409E+00 
 8.8255211907599E+03  8.8256823784045E+03  8.8262011215129E+03  8.8270775011410E+03  8.8283116543321E+03  8.8299037741084E+03  8.8318541095338E+03  8.8341629657945E+03  8.8368307042992E+03  8.8398577427963E+03 
 4.0487880172150E+03  4.0488710661486E+03  4.0491383397865E+03  4.0495898827522E+03  4.0502257704890E+03  4.0510461092588E+03  4.0520510361780E+03  4.0532407192633E+03  4.0546153574899E+03  4.0561751808583E+03 
 4.7767331735450E+03  4.7768113122559E+03  4.7770627817264E+03  4.7774876183889E+03  4.7780858838431E+03  4.7788576648496E+03  4.7798030733559E+03  4.7809222465312E+03  4.7822153468093E+03  4.7836825619379E+03 
ZONE T = "CATH, 4.0000E-08", I = 10, SOLUTIONTIME = 4.000000E-08
ZONETYPE = ORDERED
DATAPACKING = BLOCK
STRANDID = 3
 1.2700000000000E-03  1.3377333333333E-03  1.4054666666667E-03  1.4732000000000E-03  1.5409333333333E-03  1.6086666666667E-03  1.6764000000000E-03  1.7441333333333E-03  1.8118666666667E-03  1.8796000000000E-03 
 8.2342987864648E-09  7.2656760422431E-09  6.2973655328936E-09  5.3286057014352E-09  4.3600878093116E-09  3.3914134771968E-09  2.4221843030730E-09  1.4541811034851E-09  4.8446296159115E-10 -5.4481159118857E-13 
 9.2000000000053E-01  9.2000000000150E-01  9.2000000000150E-01  9.2000000000150E-01  9.2000000000150E-01  9.2000000000150E-01  9.2000000000150E-01  9.2000000000150E-01  9.2000000000150E-01  9.2000000000151E-01 
 3.9999999999734E-02  3.9999999999248E-02  3.9999999999248E-02  3.9999999999248E-02  3.9999999999248E-02  3.9999999999248E-02  3.9999999999248E-02  3.9999999999248E-02  3.9999999999248E-02  3.9999999999247E-02 
 3.9999999999734E-02  3.9999999999248E-02  3.9999999999248E-02  3.9999999999248E-02  3.9999999999248E-02  3.9999999999248E-02  3.9999999999248E-02  3.9999999999248E-02  3.9999999999248E-02  3.9999999999247E-02 
 1.8787027749994E-02  1.8786943608957E-02  1.8786869361946E-02  1.8786805009481E-02  1.8786750552442E-02  1.8786705992069E-02  1.8786671329960E-02  1.8786646568072E-02  1.8786631708725E-02  1.8786626754596E-02 
 3.8000730064805E+00  3.8000721053792E+00  3.8000694020459E+00  3.8000648963856E+00  3.8000585882381E+00  3.8000504773777E+00  3.8000405635131E+00  3.8000288462878E+00  3.8000153252793E+00  3.8000000000000E+00 
 3.7812859787305E+00  3.7812851617702E+00  3.7812825326839E+00  3.7812780913761E+00  3.7812718376856E+00  3.7812637713856E+00  3.7812538921832E+00  3.7812421997197E+00  3.7812286935706E+00  3.7812133732454E+00 
 3.9779642109144E+00  3.9779642109141E+00  3.9779642109141E+00  3.9779642109141E+00  3.9779642109141E+00  3.9779642109141E+00  3.9779642109141E+00  3.9779642109141E+00  3.9779642109141E+00  3.9779642109141E+00 
-1.9667823218393E-01 -1.9667904914388E-01 -1.9668167823021E-01 -1.9668611953802E-01 -1.9669237322847E-01 -1.9670043952853E-01 -1.9671031873096E-01 -1.9672201119443E-01 -1.9673551734350E-01 -1.9675083766872E-01 
-6.9717402205541E-01 -1.3943708531165E+00 -1.3944442580884E+00 -1.3945682696561E+00 -1.3947429058009E+00 -1.3949681918484E+00 -1.3952441604767E+00 -1.3955708517260E+00 -1.3959483130114E+00 -6.9818829956858E-01 