TITLE = "Solution on Domain BulkDomain1D_1"
VARIABLES = "x [m]"  
"Vel_axial" 	"MF_sp(ECDMC)" 	"MF_sp(Li+)" 	"MF_sp(PF6-)" 	"Volt(Electroly)" 	"Porosity []" 	"Control volume thickness [m]" 	"volFrac MgO(S) []" 	"qHeat_accum [J/m3]" 	"qHeat_step [W/m3]" 	"Joule_Lyte [W/m3]" 	"Joule_Solid [W/m3]" 	
ZONE T = "SEP , 0.0000E+00", I = 10, SOLUTIONTIME = 0.000000E+00
ZONETYPE = ORDERED
DATAPACKING = BLOCK
STRANDID = 2
 7.8740000000000E-04  8.4102222222222E-04  8.9464444444444E-04  9.4826666666667E-04  1.0018888888889E-03  1.0555111111111E-03  1.1091333333333E-03  1.1627555555556E-03  1.2163777777778E-03  1.2700000000000E-03 
 0.0000000000000E+00  0.0000000000000E+00  0.0000000000000E+00  0.0000000000000E+00  0.0000000000000E+00  0.0000000000000E+00  0.0000000000000E+00  0.0000000000000E+00  0.0000000000000E+00  0.0000000000000E+00 
 9.2000000000000E-01  9.2000000000000E-01  9.2000000000000E-01  9.2000000000000E-01  9.2000000000000E-01  9.2000000000000E-01  9.2000000000000E-01  9.2000000000000E-01  9.2000000000000E-01  9.2000000000000E-01 
 4.0000000000000E-02  4.0000000000000E-02  4.0000000000000E-02  4.0000000000000E-02  4.0000000000000E-02  4.0000000000000E-02  4.0000000000000E-02  4.0000000000000E-02  4.0000000000000E-02  4.0000000000000E-02 
 4.0000000000000E-02  4.0000000000000E-02  4.0000000000000E-02  4.0000000000000E-02  4.0000000000000E-02  4.0000000000000E-02  4.0000000000000E-02  4.0000000000000E-02  4.0000000000000E-02  4.0000000000000E-02 
-7.0000000000000E-02 -7.0000000000000E-02 -7.0000000000000E-02 -7.0000000000000E-02 -7.0000000000000E-02 -7.0000000000000E-02 -7.0000000000000E-02 -7.0000000000000E-02 -7.0000000000000E-02 -7.0000000000000E-02 
 8.0911139820575E-01  8.0911139820575E-01  8.0911139820575E-01  8.0911139820575E-01  8.0911139820575E-01  8.0911139820575E-01  8.0911139820575E-01  8.0911139820575E-01  8.0911139820575E-01  8.0911139820575E-01 
 2.6811111111111E-05  5.3622222222222E-05  5.3622222222222E-05  5.3622222222222E-05  5.3622222222222E-05  5.3622222222222E-05  5.3622222222222E-05  5.3622222222223E-05  5.3622222222222E-05  2.6811111111111E-05 
 1.9088860179425E-01  1.9088860179425E-01  1.9088860179425E-01  1.9088860179425E-01  1.9088860179425E-01  1.9088860179425E-01  1.9088860179425E-01  1.9088860179425E-01  1.9088860179425E-01  1.9088860179425E-01 
 0.0000000000000E+00  0.0000000000000E+00  0.0000000000000E+00  0.0000000000000E+00  0.0000000000000E+00  0.0000000000000E+00  0.0000000000000E+00  0.0000000000000E+00  0.0000000000000E+00  0.0000000000000E+00 
 0.0000000000000E+00  0.0000000000000E+00  0.0000000000000E+00  0.0000000000000E+00  0.0000000000000E+00  0.0000000000000E+00  0.0000000000000E+00  0.0000000000000E+00  0.0000000000000E+00  0.0000000000000E+00 
 0.0000000000000E+00  0.0000000000000E+00  0.0000000000000E+00  0.0000000000000E+00  0.0000000000000E+00  0.0000000000000E+00  0.0000000000000E+00  0.0000000000000E+00  0.0000000000000E+00  0.0000000000000E+00 
 0.0000000000000E+00  0.0000000000000E+00  0.0000000000000E+00  0.0000000000000E+00  0.0000000000000E+00  0.0000000000000E+00  0.0000000000000E+00  0.0000000000000E+00  0.0000000000000E+00  0.0000000000000E+00 
ZONE T = "SEP , 1.0000E-08", I = 10, SOLUTIONTIME = 1.000000E-08
ZONETYPE = ORDERED
DATAPACKING = BLOCK
STRANDID = 2
 7.8740000000000E-04  8.4102222222222E-04  8.9464444444444E-04  9.4826666666667E-04  1.0018888888889E-03  1.0555111111111E-03  1.1091333333333E-03  1.1627555555556E-03  1.2163777777778E-03  1.2700000000000E-03 
 8.7081780664324E-09  8.7081780664324E-09  8.7081780664324E-09  8.7081780664324E-09  8.7081780664324E-09  8.7081780664324E-09  8.7081780664324E-09  8.7081780664324E-09  8.7081780664324E-09  8.2245838447930E-09 
 9.1999999999988E-01  9.2000000000000E-01  9.2000000000000E-01  9.2000000000000E-01  9.2000000000000E-01  9.2000000000000E-01  9.2000000000000E-01  9.2000000000000E-01  9.2000000000000E-01  9.2000000000013E-01 
 4.0000000000060E-02  4.0000000000000E-02  4.0000000000000E-02  4.0000000000000E-02  4.0000000000000E-02  4.0000000000000E-02  4.0000000000000E-02  4.0000000000000E-02  4.0000000000000E-02  3.9999999999934E-02 
 4.0000000000060E-02  4.0000000000000E-02  4.0000000000000E-02  4.0000000000000E-02  4.0000000000000E-02  4.0000000000000E-02  4.0000000000000E-02  4.0000000000000E-02  4.0000000000000E-02  3.9999999999934E-02 
 1.8804899758715E-02  1.8804879715069E-02  1.8804859671424E-02  1.8804839627779E-02  1.8804819584133E-02  1.8804799540488E-02  1.8804779496843E-02  1.8804759453197E-02  1.8804739409552E-02  1.8804719365907E-02 
 8.0911139820575E-01  8.0911139820575E-01  8.0911139820575E-01  8.0911139820575E-01  8.0911139820575E-01  8.0911139820575E-01  8.0911139820575E-01  8.0911139820575E-01  8.0911139820575E-01  8.0911139820575E-01 
 2.6811111111111E-05  5.3622222222222E-05  5.3622222222222E-05  5.3622222222222E-05  5.3622222222222E-05  5.3622222222222E-05  5.3622222222222E-05  5.3622222222223E-05  5.3622222222222E-05  2.6811111111111E-05 
 1.9088860179425E-01  1.9088860179425E-01  1.9088860179425E-01  1.9088860179425E-01  1.9088860179425E-01  1.9088860179425E-01  1.9088860179425E-01  1.9088860179425E-01  1.9088860179425E-01  1.9088860179425E-01 
 4.6879388914427E-11  4.6879388914409E-11  4.6879388914391E-11  4.6879388914391E-11  4.6879388914391E-11  4.6879388914391E-11  4.6879388914391E-11  4.6879388914391E-11  4.6879388914372E-11  4.6879388914353E-11 
 4.6879388914427E-03  4.6879388914409E-03  4.6879388914391E-03  4.6879388914391E-03  4.6879388914391E-03  4.6879388914391E-03  4.6879388914391E-03  4.6879388914391E-03  4.6879388914372E-03  4.6879388914353E-03 
 4.6879388914427E-03  4.6879388914409E-03  4.6879388914391E-03  4.6879388914391E-03  4.6879388914391E-03  4.6879388914391E-03  4.6879388914391E-03  4.6879388914391E-03  4.6879388914372E-03  4.6879388914353E-03 
 0.0000000000000E+00  0.0000000000000E+00  0.0000000000000E+00  0.0000000000000E+00  0.0000000000000E+00  0.0000000000000E+00  0.0000000000000E+00  0.0000000000000E+00  0.0000000000000E+00  0.0000000000000E+00 
ZONE T = "SEP , 2.0000E-08", I = 10, SOLUTIONTIME = 2.000000E-08
ZONETYPE = ORDERED
DATAPACKING = BLOCK
STRANDID = 2
 7.8740000000000E-04  8.4102222222222E-04  8.9464444444444E-04  9.4826666666667E-04  1.0018888888889E-03  1.0555111111111E-03  1.1091333333333E-03  1.1627555555556E-03  1.2163777777778E-03  1.2700000000000E-03 
 8.7252909464074E-09  8.7252909464074E-09  8.7252909464074E-09  8.7252909464074E-09  8.7252909464074E-09  8.7252909464074E-09  8.7252909464074E-09  8.7252909464074E-09  8.7252909464074E-09  8.2400912415583E-09 
 9.1999999999976E-01  9.2000000000000E-01  9.2000000000000E-01  9.2000000000000E-01  9.2000000000000E-01  9.2000000000000E-01  9.2000000000000E-01  9.2000000000000E-01  9.2000000000000E-01  9.2000000000027E-01 
 4.0000000000120E-02  4.0000000000000E-02  4.0000000000000E-02  4.0000000000000E-02  4.0000000000000E-02  4.0000000000000E-02  4.0000000000000E-02  4.0000000000000E-02  4.0000000000000E-02  3.9999999999867E-02 
 4.0000000000120E-02  4.0000000000000E-02  4.0000000000000E-02  4.0000000000000E-02  4.0000000000000E-02  4.0000000000000E-02  4.0000000000000E-02  4.0000000000000E-02  4.0000000000000E-02  3.9999999999867E-02 
 1.8787601081044E-02  1.8787581015986E-02  1.8787560950927E-02  1.8787540885869E-02  1.8787520820811E-02  1.8787500755752E-02  1.8787480690694E-02  1.8787460625635E-02  1.8787440560577E-02  1.8787420495518E-02 
 8.0911139820575E-01  8.0911139820575E-01  8.0911139820575E-01  8.0911139820575E-01  8.0911139820575E-01  8.0911139820575E-01  8.0911139820575E-01  8.0911139820575E-01  8.0911139820575E-01  8.0911139820575E-01 
 2.6811111111111E-05  5.3622222222222E-05  5.3622222222222E-05  5.3622222222222E-05  5.3622222222222E-05  5.3622222222222E-05  5.3622222222222E-05  5.3622222222223E-05  5.3622222222222E-05  2.6811111111111E-05 
 1.9088860179425E-01  1.9088860179425E-01  1.9088860179425E-01  1.9088860179425E-01  1.9088860179425E-01  1.9088860179425E-01  1.9088860179425E-01  1.9088860179425E-01  1.9088860179425E-01  1.9088860179425E-01 
 9.3858995890805E-11  9.3858995890751E-11  9.3858995890699E-11  9.3858995890699E-11  9.3858995898822E-11  9.3858995898822E-11  9.3858995890699E-11  9.3858995890698E-11  9.3858995890640E-11  9.3858995890582E-11 
 4.6979606976378E-03  4.6979606976343E-03  4.6979606976307E-03  4.6979606976307E-03  4.6979606984431E-03  4.6979606984431E-03  4.6979606976308E-03  4.6979606976307E-03  4.6979606976269E-03  4.6979606976230E-03 
 4.6979606976378E-03  4.6979606976343E-03  4.6979606976307E-03  4.6979606976307E-03  4.6979606984431E-03  4.6979606984431E-03  4.6979606976308E-03  4.6979606976307E-03  4.6979606976269E-03  4.6979606976230E-03 
 0.0000000000000E+00  0.0000000000000E+00  0.0000000000000E+00  0.0000000000000E+00  0.0000000000000E+00  0.0000000000000E+00  0.0000000000000E+00  0.0000000000000E+00  0.0000000000000E+00  0.0000000000000E+00 
ZONE T = "SEP , 3.0000E-08", I = 10, SOLUTIONTIME = 3.000000E-08
ZONETYPE = ORDERED
DATAPACKING = BLOCK
STRANDID = 2
 7.8740000000000E-04  8.4102222222222E-04  8.9464444444444E-04  9.4826666666667E-04  1.0018888888889E-03  1.0555111111111E-03  1.1091333333333E-03  1.1627555555556E-03  1.2163777777778E-03  1.2700000000000E-03 
 8.7102692896155E-09  8.7102692896155E-09  8.7102692896155E-09  8.7102692896155E-09  8.7102692896155E-09  8.7102692896155E-09  8.7102692896155E-09  8.7102692896155E-09  8.7102692896155E-09  8.2266810288846E-09 
 9.1999999999964E-01  9.2000000000000E-01  9.2000000000000E-01  9.2000000000000E-01  9.2000000000000E-01  9.2000000000000E-01  9.2000000000000E-01  9.2000000000000E-01  9.2000000000000E-01  9.2000000000040E-01 
 4.0000000000181E-02  4.0000000000000E-02  4.0000000000000E-02  4.0000000000000E-02  4.0000000000000E-02  4.0000000000000E-02  4.0000000000000E-02  4.0000000000000E-02  4.0000000000000E-02  3.9999999999801E-02 
 4.0000000000181E-02  4.0000000000000E-02  4.0000000000000E-02  4.0000000000000E-02  4.0000000000000E-02  4.0000000000000E-02  4.0000000000000E-02  4.0000000000000E-02  4.0000000000000E-02  3.9999999999801E-02 
 1.8786833825914E-02  1.8786813759901E-02  1.8786793693888E-02  1.8786773627876E-02  1.8786753561863E-02  1.8786733495850E-02  1.8786713429837E-02  1.8786693363825E-02  1.8786673297812E-02  1.8786653231799E-02 
 8.0911139820575E-01  8.0911139820575E-01  8.0911139820575E-01  8.0911139820575E-01  8.0911139820575E-01  8.0911139820575E-01  8.0911139820575E-01  8.0911139820575E-01  8.0911139820575E-01  8.0911139820575E-01 
 2.6811111111111E-05  5.3622222222222E-05  5.3622222222222E-05  5.3622222222222E-05  5.3622222222222E-05  5.3622222222222E-05  5.3622222222222E-05  5.3622222222223E-05  5.3622222222222E-05  2.6811111111111E-05 
 1.9088860179425E-01  1.9088860179425E-01  1.9088860179425E-01  1.9088860179425E-01  1.9088860179425E-01  1.9088860179425E-01  1.9088860179425E-01  1.9088860179425E-01  1.9088860179425E-01  1.9088860179425E-01 
 1.4084307203813E-10  1.4084307204614E-10  1.4084307204604E-10  1.4084307203791E-10  1.4084307204604E-10  1.4084307204604E-10  1.4084307203791E-10  1.4084307203791E-10  1.4084307203780E-10  1.4084307203768E-10 
 4.6984076147321E-03  4.6984076155392E-03  4.6984076155339E-03  4.6984076147215E-03  4.6984076147215E-03  4.6984076147215E-03  4.6984076147215E-03  4.6984076147215E-03  4.6984076147157E-03  4.6984076147098E-03 
 4.6984076147321E-03  4.6984076155392E-03  4.6984076155339E-03  4.6984076147215E-03  4.6984076147215E-03  4.6984076147215E-03  4.6984076147215E-03  4.6984076147215E-03  4.6984076147157E-03  4.6984076147098E-03 
 0.0000000000000E+00  0.0000000000000E+00  0.0000000000000E+00  0.0000000000000E+00  0.0000000000000E+00  0.0000000000000E+00  0.0000000000000E+00  0.0000000000000E+00  0.0000000000000E+00  0.0000000000000E+00 
ZONE T = "SEP , 4.0000E-08", I = 10, SOLUTIONTIME = 4.000000E-08
ZONETYPE = ORDERED
DATAPACKING = BLOCK
STRANDID = 2
 7.8740000000000E-04  8.4102222222222E-04  8.9464444444444E-04  9.4826666666667E-04  1.0018888888889E-03  1.0555111111111E-03  1.1091333333333E-03  1.1627555555556E-03  1.2163777777778E-03  1.2700000000000E-03 
 8.7209767727431E-09  8.7209767727431E-09  8.7209767727431E-09  8.7209767727431E-09  8.7209767727431E-09  8.7209767727431E-09  8.7209767727431E-09  8.7209767727431E-09  8.7209767727431E-09  8.2368541652085E-09 
 9.1999999999952E-01  9.2000000000000E-01  9.2000000000000E-01  9.2000000000000E-01  9.2000000000000E-01  9.2000000000000E-01  9.2000000000000E-01  9.2000000000000E-01  9.2000000000000E-01  9.2000000000053E-01 
 4.0000000000241E-02  4.0000000000000E-02  4.0000000000000E-02  4.0000000000000E-02  4.0000000000000E-02  4.0000000000000E-02  4.0000000000000E-02  4.0000000000000E-02  4.0000000000000E-02  3.9999999999735E-02 
 4.0000000000241E-02  4.0000000000000E-02  4.0000000000000E-02  4.0000000000000E-02  4.0000000000000E-02  4.0000000000000E-02  4.0000000000000E-02  4.0000000000000E-02  4.0000000000000E-02  3.9999999999735E-02 
 1.8787183022413E-02  1.8787162956835E-02  1.8787142891256E-02  1.8787122825678E-02  1.8787102760099E-02  1.8787082694521E-02  1.8787062628943E-02  1.8787042563364E-02  1.8787022497786E-02  1.8787002432207E-02 
 8.0911139820575E-01  8.0911139820575E-01  8.0911139820575E-01  8.0911139820575E-01  8.0911139820575E-01  8.0911139820575E-01  8.0911139820575E-01  8.0911139820575E-01  8.0911139820575E-01  8.0911139820575E-01 
 2.6811111111111E-05  5.3622222222222E-05  5.3622222222222E-05  5.3622222222222E-05  5.3622222222222E-05  5.3622222222222E-05  5.3622222222222E-05  5.3622222222223E-05  5.3622222222222E-05  2.6811111111111E-05 
 1.9088860179425E-01  1.9088860179425E-01  1.9088860179425E-01  1.9088860179425E-01  1.9088860179425E-01  1.9088860179425E-01  1.9088860179425E-01  1.9088860179425E-01  1.9088860179425E-01  1.9088860179425E-01 
 1.8782511388937E-10  1.8782511390544E-10  1.8782511391339E-10  1.8782511389714E-10  1.8782511390526E-10  1.8782511391339E-10  1.8782511389714E-10  1.8782511389714E-10  1.8782511390507E-10  1.8782511390488E-10 
 4.6982041851246E-03  4.6982041859299E-03  4.6982041867352E-03  4.6982041859228E-03  4.6982041859228E-03  4.6982041867352E-03  4.6982041859229E-03  4.6982041859228E-03  4.6982041867274E-03  4.6982041867196E-03 
 4.6982041851246E-03  4.6982041859299E-03  4.6982041867352E-03  4.6982041859228E-03  4.6982041859228E-03  4.6982041867352E-03  4.6982041859229E-03  4.6982041859228E-03  4.6982041867274E-03  4.6982041867196E-03 
 0.0000000000000E+00  0.0000000000000E+00  0.0000000000000E+00  0.0000000000000E+00  0.0000000000000E+00  0.0000000000000E+00  0.0000000000000E+00  0.0000000000000E+00  0.0000000000000E+00  0.0000000000000E+00 
ZONE T = "SEP , 5.5000E-08", I = 10, SOLUTIONTIME = 5.500000E-08
ZONETYPE = ORDERED
DATAPACKING = BLOCK
STRANDID = 2
 7.8740000000000E-04  8.4102222222222E-04  8.9464444444444E-04  9.4826666666667E-04  1.0018888888889E-03  1.0555111111111E-03  1.1091333333333E-03  1.1627555555556E-03  1.2163777777778E-03  1.2700000000000E-03 
 8.7128454757046E-09  8.7128454757046E-09  8.7128454757046E-09  8.7128454757046E-09  8.7128454757046E-09  8.7128454757046E-09  8.7128454757046E-09  8.7128454757046E-09  8.7128454757046E-09  8.2287239580558E-09 
 9.1999999999934E-01  9.2000000000000E-01  9.2000000000000E-01  9.2000000000000E-01  9.2000000000000E-01  9.2000000000000E-01  9.2000000000000E-01  9.2000000000000E-01  9.2000000000000E-01  9.2000000000073E-01 
 4.0000000000331E-02  4.0000000000000E-02  4.0000000000000E-02  4.0000000000000E-02  4.0000000000000E-02  4.0000000000000E-02  4.0000000000000E-02  4.0000000000000E-02  4.0000000000000E-02  3.9999999999635E-02 
 4.0000000000331E-02  4.0000000000000E-02  4.0000000000000E-02  4.0000000000000E-02  4.0000000000000E-02  4.0000000000000E-02  4.0000000000000E-02  4.0000000000000E-02  4.0000000000000E-02  3.9999999999635E-02 
 1.8787219394156E-02  1.8787199328623E-02  1.8787179263089E-02  1.8787159197556E-02  1.8787139132023E-02  1.8787119066490E-02  1.8787099000957E-02  1.8787078935424E-02  1.8787058869891E-02  1.8787038804357E-02 
 8.0911139820575E-01  8.0911139820575E-01  8.0911139820575E-01  8.0911139820575E-01  8.0911139820575E-01  8.0911139820575E-01  8.0911139820575E-01  8.0911139820575E-01  8.0911139820575E-01  8.0911139820575E-01 
 2.6811111111111E-05  5.3622222222222E-05  5.3622222222222E-05  5.3622222222222E-05  5.3622222222222E-05  5.3622222222222E-05  5.3622222222222E-05  5.3622222222223E-05  5.3622222222222E-05  2.6811111111111E-05 
 1.9088860179425E-01  1.9088860179425E-01  1.9088860179425E-01  1.9088860179425E-01  1.9088860179425E-01  1.9088860179425E-01  1.9088860179425E-01  1.9088860179425E-01  1.9088860179425E-01  1.9088860179425E-01 
 2.5829785887736E-10  2.5829785890547E-10  2.5829785891327E-10  2.5829785889702E-10  2.5829785890514E-10  2.5829785890108E-10  2.5829785889702E-10  2.5829785889702E-10  2.5829785890479E-10  2.5829785891662E-10 
 4.6981829991989E-03  4.6981830000015E-03  4.6981829999918E-03  4.6981829999918E-03  4.6981829999918E-03  4.6981829991795E-03  4.6981829999918E-03  4.6981829999918E-03  4.6981829999811E-03  4.6981830007827E-03 
 4.6981829991989E-03  4.6981830000015E-03  4.6981829999918E-03  4.6981829999918E-03  4.6981829999918E-03  4.6981829991795E-03  4.6981829999918E-03  4.6981829999918E-03  4.6981829999811E-03  4.6981830007827E-03 
 0.0000000000000E+00  0.0000000000000E+00  0.0000000000000E+00  0.0000000000000E+00  0.0000000000000E+00  0.0000000000000E+00  0.0000000000000E+00  0.0000000000000E+00  0.0000000000000E+00  0.0000000000000E+00 
ZONE T = "SEP , 7.7500E-08", I = 10, SOLUTIONTIME = 7.750000E-08
ZONETYPE = ORDERED
DATAPACKING = BLOCK
STRANDID = 2
 7.8740000000000E-04  8.4102222222222E-04  8.9464444444444E-04  9.4826666666667E-04  1.0018888888889E-03  1.0555111111111E-03  1.1091333333333E-03  1.1627555555556E-03  1.2163777777778E-03  1.2700000000000E-03 
 8.7206798080338E-09  8.7206798080338E-09  8.7206798080338E-09  8.7206798080338E-09  8.7206798080338E-09  8.7206798080338E-09  8.7206798080338E-09  8.7206798080338E-09  8.7206798080338E-09  8.2365580027459E-09 
 9.1999999999907E-01  9.2000000000000E-01  9.2000000000000E-01  9.2000000000000E-01  9.2000000000000E-01  9.2000000000000E-01  9.2000000000000E-01  9.2000000000000E-01  9.2000000000000E-01  9.2000000000103E-01 
 4.0000000000467E-02  4.0000000000000E-02  4.0000000000000E-02  4.0000000000000E-02  4.0000000000000E-02  4.0000000000000E-02  4.0000000000000E-02  4.0000000000000E-02  4.0000000000000E-02  3.9999999999486E-02 
 4.0000000000467E-02  4.0000000000000E-02  4.0000000000000E-02  4.0000000000000E-02  4.0000000000000E-02  4.0000000000000E-02  4.0000000000000E-02  4.0000000000000E-02  4.0000000000000E-02  3.9999999999486E-02 
 1.8787209794723E-02  1.8787189729178E-02  1.8787169663633E-02  1.8787149598088E-02  1.8787129532543E-02  1.8787109466998E-02  1.8787089401453E-02  1.8787069335907E-02  1.8787049270362E-02  1.8787029204817E-02 
 8.0911139820575E-01  8.0911139820575E-01  8.0911139820575E-01  8.0911139820575E-01  8.0911139820575E-01  8.0911139820575E-01  8.0911139820575E-01  8.0911139820575E-01  8.0911139820575E-01  8.0911139820575E-01 
 2.6811111111111E-05  5.3622222222222E-05  5.3622222222222E-05  5.3622222222222E-05  5.3622222222222E-05  5.3622222222222E-05  5.3622222222222E-05  5.3622222222223E-05  5.3622222222222E-05  2.6811111111111E-05 
 1.9088860179425E-01  1.9088860179425E-01  1.9088860179425E-01  1.9088860179425E-01  1.9088860179425E-01  1.9088860179425E-01  1.9088860179425E-01  1.9088860179425E-01  1.9088860179425E-01  1.9088860179425E-01 
 3.6400710218337E-10  3.6400710221117E-10  3.6400710221866E-10  3.6400710218413E-10  3.6400710219226E-10  3.6400710220647E-10  3.6400710220241E-10  3.6400710220241E-10  3.6400710220984E-10  3.6400710222133E-10 
 4.6981885913782E-03  4.6981885913645E-03  4.6981885913508E-03  4.6981885905385E-03  4.6981885905384E-03  4.6981885913508E-03  4.6981885913508E-03  4.6981885913508E-03  4.6981885913357E-03  4.6981885913206E-03 
 4.6981885913782E-03  4.6981885913645E-03  4.6981885913508E-03  4.6981885905385E-03  4.6981885905384E-03  4.6981885913508E-03  4.6981885913508E-03  4.6981885913508E-03  4.6981885913357E-03  4.6981885913206E-03 
 0.0000000000000E+00  0.0000000000000E+00  0.0000000000000E+00  0.0000000000000E+00  0.0000000000000E+00  0.0000000000000E+00  0.0000000000000E+00  0.0000000000000E+00  0.0000000000000E+00  0.0000000000000E+00 
ZONE T = "SEP , 1.1125E-07", I = 10, SOLUTIONTIME = 1.112500E-07
ZONETYPE = ORDERED
DATAPACKING = BLOCK
STRANDID = 2
 7.8740000000000E-04  8.4102222222222E-04  8.9464444444444E-04  9.4826666666667E-04  1.0018888888889E-03  1.0555111111111E-03  1.1091333333333E-03  1.1627555555556E-03  1.2163777777778E-03  1.2700000000000E-03 
 8.7180441303334E-09  8.7180441303334E-09  8.7180441303334E-09  8.7180441303334E-09  8.7180441303334E-09  8.7180441303334E-09  8.7180441303334E-09  8.7180441303334E-09  8.7180441303334E-09  8.2340836985072E-09 
 9.1999999999866E-01  9.2000000000000E-01  9.2000000000000E-01  9.2000000000000E-01  9.2000000000000E-01  9.2000000000000E-01  9.2000000000000E-01  9.2000000000000E-01  9.2000000000000E-01  9.2000000000148E-01 
 4.0000000000670E-02  4.0000000000000E-02  4.0000000000000E-02  4.0000000000000E-02  4.0000000000000E-02  4.0000000000000E-02  4.0000000000000E-02  4.0000000000000E-02  4.0000000000000E-02  3.9999999999262E-02 
 4.0000000000670E-02  4.0000000000000E-02  4.0000000000000E-02  4.0000000000000E-02  4.0000000000000E-02  4.0000000000000E-02  4.0000000000000E-02  4.0000000000000E-02  4.0000000000000E-02  3.9999999999262E-02 
 1.8787208052530E-02  1.8787187986983E-02  1.8787167921436E-02  1.8787147855889E-02  1.8787127790341E-02  1.8787107724794E-02  1.8787087659247E-02  1.8787067593700E-02  1.8787047528152E-02  1.8787027462605E-02 
 8.0911139820575E-01  8.0911139820575E-01  8.0911139820575E-01  8.0911139820575E-01  8.0911139820575E-01  8.0911139820575E-01  8.0911139820575E-01  8.0911139820575E-01  8.0911139820575E-01  8.0911139820575E-01 
 2.6811111111111E-05  5.3622222222222E-05  5.3622222222222E-05  5.3622222222222E-05  5.3622222222222E-05  5.3622222222222E-05  5.3622222222222E-05  5.3622222222223E-05  5.3622222222222E-05  2.6811111111111E-05 
 1.9088860179425E-01  1.9088860179425E-01  1.9088860179425E-01  1.9088860179425E-01  1.9088860179425E-01  1.9088860179425E-01  1.9088860179425E-01  1.9088860179425E-01  1.9088860179425E-01  1.9088860179425E-01 
 5.2257100135870E-10  5.2257100141325E-10  5.2257100142008E-10  5.2257100135814E-10  5.2257100139368E-10  5.2257100140789E-10  5.2257100140383E-10  5.2257100140383E-10  5.2257100138311E-10  5.2257100139387E-10 
 4.6981896051950E-03  4.6981896059876E-03  4.6981896059679E-03  4.6981896051556E-03  4.6981896059679E-03  4.6981896059680E-03  4.6981896059680E-03  4.6981896059679E-03  4.6981896051339E-03  4.6981896051123E-03 
 4.6981896051950E-03  4.6981896059876E-03  4.6981896059679E-03  4.6981896051556E-03  4.6981896059679E-03  4.6981896059680E-03  4.6981896059680E-03  4.6981896059679E-03  4.6981896051339E-03  4.6981896051123E-03 
 0.0000000000000E+00  0.0000000000000E+00  0.0000000000000E+00  0.0000000000000E+00  0.0000000000000E+00  0.0000000000000E+00  0.0000000000000E+00  0.0000000000000E+00  0.0000000000000E+00  0.0000000000000E+00 
ZONE T = "SEP , 1.6188E-07", I = 10, SOLUTIONTIME = 1.618750E-07
ZONETYPE = ORDERED
DATAPACKING = BLOCK
STRANDID = 2
 7.8740000000000E-04  8.4102222222222E-04  8.9464444444444E-04  9.4826666666667E-04  1.0018888888889E-03  1.0555111111111E-03  1.1091333333333E-03  1.1627555555556E-03  1.2163777777778E-03  1.2700000000000E-03 
 8.7175238604083E-09  8.7175238604083E-09  8.7175238604083E-09  8.7175238604083E-09  8.7175238604083E-09  8.7175238604083E-09  8.7175238604083E-09  8.7175238604083E-09  8.7175238604083E-09  8.2331509030291E-09 
 9.1999999999805E-01  9.2000000000000E-01  9.2000000000000E-01  9.2000000000000E-01  9.2000000000000E-01  9.2000000000000E-01  9.2000000000000E-01  9.2000000000000E-01  9.2000000000000E-01  9.2000000000215E-01 
 4.0000000000974E-02  4.0000000000000E-02  4.0000000000000E-02  4.0000000000000E-02  4.0000000000000E-02  4.0000000000000E-02  4.0000000000000E-02  4.0000000000000E-02  4.0000000000000E-02  3.9999999998926E-02 
 4.0000000000974E-02  4.0000000000000E-02  4.0000000000000E-02  4.0000000000000E-02  4.0000000000000E-02  4.0000000000000E-02  4.0000000000000E-02  4.0000000000000E-02  4.0000000000000E-02  3.9999999998926E-02 
 1.8787208275000E-02  1.8787188209453E-02  1.8787168143906E-02  1.8787148078359E-02  1.8787128012812E-02  1.8787107947265E-02  1.8787087881718E-02  1.8787067816171E-02  1.8787047750624E-02  1.8787027685077E-02 
 8.0911139820575E-01  8.0911139820575E-01  8.0911139820575E-01  8.0911139820575E-01  8.0911139820575E-01  8.0911139820575E-01  8.0911139820575E-01  8.0911139820575E-01  8.0911139820575E-01  8.0911139820575E-01 
 2.6811111111111E-05  5.3622222222222E-05  5.3622222222222E-05  5.3622222222222E-05  5.3622222222222E-05  5.3622222222222E-05  5.3622222222222E-05  5.3622222222223E-05  5.3622222222222E-05  2.6811111111111E-05 
 1.9088860179425E-01  1.9088860179425E-01  1.9088860179425E-01  1.9088860179425E-01  1.9088860179425E-01  1.9088860179425E-01  1.9088860179425E-01  1.9088860179425E-01  1.9088860179425E-01  1.9088860179425E-01 
 7.6041684354261E-10  7.6041684363684E-10  7.6041684364222E-10  7.6041684353916E-10  7.6041684361582E-10  7.6041684363004E-10  7.6041684362598E-10  7.6041684362597E-10  7.6041684356253E-10  7.6041684357170E-10 
 4.6981894752379E-03  4.6981894760216E-03  4.6981894759930E-03  4.6981894751806E-03  4.6981894759930E-03  4.6981894759930E-03  4.6981894759930E-03  4.6981894759929E-03  4.6981894751491E-03  4.6981894751175E-03 
 4.6981894752379E-03  4.6981894760216E-03  4.6981894759930E-03  4.6981894751806E-03  4.6981894759930E-03  4.6981894759930E-03  4.6981894759930E-03  4.6981894759929E-03  4.6981894751491E-03  4.6981894751175E-03 
 0.0000000000000E+00  0.0000000000000E+00  0.0000000000000E+00  0.0000000000000E+00  0.0000000000000E+00  0.0000000000000E+00  0.0000000000000E+00  0.0000000000000E+00  0.0000000000000E+00  0.0000000000000E+00 
ZONE T = "SEP , 2.3781E-07", I = 10, SOLUTIONTIME = 2.378125E-07
ZONETYPE = ORDERED
DATAPACKING = BLOCK
STRANDID = 2
 7.8740000000000E-04  8.4102222222222E-04  8.9464444444444E-04  9.4826666666667E-04  1.0018888888889E-03  1.0555111111111E-03  1.1091333333333E-03  1.1627555555556E-03  1.2163777777778E-03  1.2700000000000E-03 
 8.7189228444622E-09  8.7189228444622E-09  8.7189228444622E-09  8.7189228444622E-09  8.7189228444622E-09  8.7189228444622E-09  8.7189228444622E-09  8.7189228444622E-09  8.7189228444622E-09  8.2348966554254E-09 
 9.1999999999714E-01  9.2000000000000E-01  9.2000000000000E-01  9.2000000000000E-01  9.2000000000000E-01  9.2000000000000E-01  9.2000000000000E-01  9.2000000000000E-01  9.2000000000000E-01  9.2000000000316E-01 
 4.0000000001431E-02  4.0000000000001E-02  4.0000000000000E-02  4.0000000000000E-02  4.0000000000000E-02  4.0000000000000E-02  4.0000000000000E-02  4.0000000000000E-02  3.9999999999999E-02  3.9999999998422E-02 
 4.0000000001431E-02  4.0000000000001E-02  4.0000000000000E-02  4.0000000000000E-02  4.0000000000000E-02  4.0000000000000E-02  4.0000000000000E-02  4.0000000000000E-02  3.9999999999999E-02  3.9999999998422E-02 
 1.8787208344907E-02  1.8787188279360E-02  1.8787168213813E-02  1.8787148148267E-02  1.8787128082720E-02  1.8787108017173E-02  1.8787087951626E-02  1.8787067886079E-02  1.8787047820532E-02  1.8787027754985E-02 
 8.0911139820575E-01  8.0911139820575E-01  8.0911139820575E-01  8.0911139820575E-01  8.0911139820575E-01  8.0911139820575E-01  8.0911139820575E-01  8.0911139820575E-01  8.0911139820575E-01  8.0911139820575E-01 
 2.6811111111111E-05  5.3622222222222E-05  5.3622222222222E-05  5.3622222222222E-05  5.3622222222222E-05  5.3622222222222E-05  5.3622222222222E-05  5.3622222222223E-05  5.3622222222222E-05  2.6811111111111E-05 
 1.9088860179425E-01  1.9088860179425E-01  1.9088860179425E-01  1.9088860179425E-01  1.9088860179425E-01  1.9088860179425E-01  1.9088860179425E-01  1.9088860179425E-01  1.9088860179425E-01  1.9088860179425E-01 
 1.1171856037362E-09  1.1171856038272E-09  1.1171856038294E-09  1.1171856037263E-09  1.1171856038030E-09  1.1171856037555E-09  1.1171856037515E-09  1.1171856038131E-09  1.1171856037462E-09  1.1171856037518E-09 
 4.6981894346475E-03  4.6981894346055E-03  4.6981894345635E-03  4.6981894345634E-03  4.6981894345634E-03  4.6981894337511E-03  4.6981894337511E-03  4.6981894345634E-03  4.6981894345171E-03  4.6981894344707E-03 
 4.6981894346475E-03  4.6981894346055E-03  4.6981894345635E-03  4.6981894345634E-03  4.6981894345634E-03  4.6981894337511E-03  4.6981894337511E-03  4.6981894345634E-03  4.6981894345171E-03  4.6981894344707E-03 
 0.0000000000000E+00  0.0000000000000E+00  0.0000000000000E+00  0.0000000000000E+00  0.0000000000000E+00  0.0000000000000E+00  0.0000000000000E+00  0.0000000000000E+00  0.0000000000000E+00  0.0000000000000E+00 
ZONE T = "SEP , 3.5172E-07", I = 10, SOLUTIONTIME = 3.517188E-07
ZONETYPE = ORDERED
DATAPACKING = BLOCK
STRANDID = 2
 7.8740000000000E-04  8.4102222222222E-04  8.9464444444444E-04  9.4826666666667E-04  1.0018888888889E-03  1.0555111111111E-03  1.1091333333333E-03  1.1627555555556E-03  1.2163777777778E-03  1.2700000000000E-03 
 8.7183409163605E-09  8.7183409163605E-09  8.7183409163605E-09  8.7183409163605E-09  8.7183409163605E-09  8.7183409163605E-09  8.7183409163605E-09  8.7183409163605E-09  8.7182771432615E-09  8.2341074646624E-09 
 9.1999999999577E-01  9.2000000000000E-01  9.2000000000000E-01  9.2000000000000E-01  9.2000000000000E-01  9.2000000000000E-01  9.2000000000000E-01  9.2000000000000E-01  9.2000000000000E-01  9.2000000000467E-01 
 4.0000000002116E-02  4.0000000000001E-02  4.0000000000000E-02  4.0000000000000E-02  4.0000000000000E-02  4.0000000000000E-02  4.0000000000000E-02  4.0000000000000E-02  3.9999999999998E-02  3.9999999997666E-02 