TITLE = "Solution on Domain BulkDomain1D_0"
VARIABLES = "x [m]"  
"Vel_axial" 	"MF_sp(ECDMC)" 	"MF_sp(Li+)" 	"MF_sp(PF6-)" 	"Volt(Electroly)" 	"Volt(AnodeVolt)" 	
"Potential Drop Electrode-Electrolyte [V]" 	"Surf_0 Equilibrium Potential Drop Electrode-Electrolyte [V]" 	"Overpotential_0 [V]" 	"Current Source [A/m^2]" 	"Li+ flux [kmol/m^2/s]" 	"Electrolyte Current [A/m^2]" 	"Electrode Current [A/m^2]" 	
"Capacity discharged [A-s]" 	"Depth of discharge [-]" 	"Capacity remaining [A-s]" 	"Initial capacity [A-s]" 	"Porosity []" 	"Surface Area [m2/m2] (area per area)" 	"Specific current (per particle area) [A/m^2]" 	"Control volume thickness [m]" 	
"Moles Li_C6-bulk [mol/m^2] (per electrode area)" 	"Moles V_C6-bulk [mol/m^2] (per electrode area)" 	"qHeat_accum [J/m3]" 	"qHeat_step [W/m3]" 	"Joule_Lyte [W/m3]" 	"Joule_Solid [W/m3]" 	"electrodHeat [W/m3]" 	"OverpotHeat [W/m3]" 	"deltaSHeat [W/m3]" 	

ZONE T = "t = 0 [s]" I = 10 SOLUTIONTIME = 0.0000000000000E+00
0 	0 	0.92 	0.04 	0.04 	-0.07 	0 	
0 	0 	0 	0 	0 	0 	4.20864 	
0 	0 	0 	0 	0.35 	8.53017 	0.986765 	4.37444e-05 	
0.00379119 	0.000947796 	0 	0.0 	 0.0 	 0.0 	 0.0 	 0.0 	 0.0 	 
8.74889e-05 	0 	0.92 	0.04 	0.04 	-0.07 	0 	
0 	0 	0 	0 	0 	0 	-0 	
0 	0 	0 	0 	0.35 	17.0603 	0.986765 	8.74889e-05 	
0.00758237 	0.00189559 	0 	0.0 	 0.0 	 0.0 	 0.0 	 0.0 	 0.0 	 
0.000174978 	0 	0.92 	0.04 	0.04 	-0.07 	0 	
0 	0 	0 	0 	0 	0 	-0 	
0 	0 	0 	0 	0.35 	17.0603 	0.986765 	8.74889e-05 	
0.00758237 	0.00189559 	0 	0.0 	 0.0 	 0.0 	 0.0 	 0.0 	 0.0 	 
0.000262467 	0 	0.92 	0.04 	0.04 	-0.07 	0 	
0 	0 	0 	0 	0 	0 	-0 	
0 	0 	0 	0 	0.35 	17.0603 	0.986765 	8.74889e-05 	
0.00758237 	0.00189559 	0 	0.0 	 0.0 	 0.0 	 0.0 	 0.0 	 0.0 	 
0.000349956 	0 	0.92 	0.04 	0.04 	-0.07 	0 	
0 	0 	0 	0 	0 	0 	-0 	
0 	0 	0 	0 	0.35 	17.0603 	0.986765 	8.74889e-05 	
0.00758237 	0.00189559 	0 	0.0 	 0.0 	 0.0 	 0.0 	 0.0 	 0.0 	 
0.000437444 	0 	0.92 	0.04 	0.04 	-0.07 	0 	
0 	0 	0 	0 	0 	0 	-0 	
0 	0 	0 	0 	0.35 	17.0603 	0.986765 	8.74889e-05 	
0.00758237 	0.00189559 	0 	0.0 	 0.0 	 0.0 	 0.0 	 0.0 	 0.0 	 
0.000524933 	0 	0.92 	0.04 	0.04 	-0.07 	0 	
0 	0 	0 	0 	0 	0 	-0 	
0 	0 	0 	0 	0.35 	17.0603 	0.986765 	8.74889e-05 	
0.00758237 	0.00189559 	0 	0.0 	 0.0 	 0.0 	 0.0 	 0.0 	 0.0 	 
0.000612422 	0 	0.92 	0.04 	0.04 	-0.07 	0 	
0 	0 	0 	0 	0 	0 	-0 	
0 	0 	0 	0 	0.35 	17.0603 	0.986765 	8.74889e-05 	
0.00758237 	0.00189559 	0 	0.0 	 0.0 	 0.0 	 0.0 	 0.0 	 0.0 	 
0.000699911 	0 	0.92 	0.04 	0.04 	-0.07 	0 	
0 	0 	0 	0 	0 	0 	-0 	
0 	0 	0 	0 	0.35 	17.0603 	0.986765 	8.74889e-05 	
0.00758237 	0.00189559 	0 	0.0 	 0.0 	 0.0 	 0.0 	 0.0 	 0.0 	 
0.0007874 	0 	0.92 	0.04 	0.04 	-0.07 	0 	
0 	0 	0 	0 	0 	4.20864 	0 	
0 	0 	0 	0 	0.35 	8.53017 	0.986765 	4.37444e-05 	
0.00379119 	0.000947796 	0 	0.0 	 0.0 	 0.0 	 0.0 	 0.0 	 0.0 	 
ZONE T = "t = 0 [s]" I = 10 SOLUTIONTIME = 0.0000000000000E+00
0 	0 	0.92 	0.04 	0.04 	-0.07 	0 	
0 	0 	0 	0 	0 	0 	4.20864 	
0 	0 	0 	0 	0.35 	8.53017 	0.986765 	4.37444e-05 	
0.00379119 	0.000947796 	0 	0.0 	 0.0 	 0.0 	 0.0 	 0.0 	 0.0 	 
8.74889e-05 	0 	0.92 	0.04 	0.04 	-0.07 	0 	
0 	0 	0 	0 	0 	0 	-0 	
0 	0 	0 	0 	0.35 	17.0603 	0.986765 	8.74889e-05 	
0.00758237 	0.00189559 	0 	0.0 	 0.0 	 0.0 	 0.0 	 0.0 	 0.0 	 
0.000174978 	0 	0.92 	0.04 	0.04 	-0.07 	0 	
0 	0 	0 	0 	0 	0 	-0 	
0 	0 	0 	0 	0.35 	17.0603 	0.986765 	8.74889e-05 	
0.00758237 	0.00189559 	0 	0.0 	 0.0 	 0.0 	 0.0 	 0.0 	 0.0 	 
0.000262467 	0 	0.92 	0.04 	0.04 	-0.07 	0 	
0 	0 	0 	0 	0 	0 	-0 	
0 	0 	0 	0 	0.35 	17.0603 	0.986765 	8.74889e-05 	
0.00758237 	0.00189559 	0 	0.0 	 0.0 	 0.0 	 0.0 	 0.0 	 0.0 	 
0.000349956 	0 	0.92 	0.04 	0.04 	-0.07 	0 	
0 	0 	0 	0 	0 	0 	-0 	
0 	0 	0 	0 	0.35 	17.0603 	0.986765 	8.74889e-05 	
0.00758237 	0.00189559 	0 	0.0 	 0.0 	 0.0 	 0.0 	 0.0 	 0.0 	 
0.000437444 	0 	0.92 	0.04 	0.04 	-0.07 	0 	
0 	0 	0 	0 	0 	0 	-0 	
0 	0 	0 	0 	0.35 	17.0603 	0.986765 	8.74889e-05 	
0.00758237 	0.00189559 	0 	0.0 	 0.0 	 0.0 	 0.0 	 0.0 	 0.0 	 
0.000524933 	0 	0.92 	0.04 	0.04 	-0.07 	0 	
0 	0 	0 	0 	0 	0 	-0 	
0 	0 	0 	0 	0.35 	17.0603 	0.986765 	8.74889e-05 	
0.00758237 	0.00189559 	0 	0.0 	 0.0 	 0.0 	 0.0 	 0.0 	 0.0 	 
0.000612422 	0 	0.92 	0.04 	0.04 	-0.07 	0 	
0 	0 	0 	0 	0 	0 	-0 	
0 	0 	0 	0 	0.35 	17.0603 	0.986765 	8.74889e-05 	
0.00758237 	0.00189559 	0 	0.0 	 0.0 	 0.0 	 0.0 	 0.0 	 0.0 	 
0.000699911 	0 	0.92 	0.04 	0.04 	-0.07 	0 	
0 	0 	0 	0 	0 	0 	-0 	
0 	0 	0 	0 	0.35 	17.0603 	0.986765 	8.74889e-05 	
0.00758237 	0.00189559 	0 	0.0 	 0.0 	 0.0 	 0.0 	 0.0 	 0.0 	 
0.0007874 	0 	0.92 	0.04 	0.04 	-0.07 	0 	
0 	0 	0 	0 	0 	4.20864 	0 	
0 	0 	0 	0 	0.35 	8.53017 	0.986765 	4.37444e-05 	
0.00379119 	0.000947796 	0 	0.0 	 0.0 	 0.0 	 0.0 	 0.0 	 0.0 	 
ZONE T = "t = 1e-08 [s]" I = 10 SOLUTIONTIME = 1.0000000000000E-08
0 	4.84351e-10 	0.92 	0.04 	0.04 	0.0187877 	0 	
0.07 	-0.0352442 	0.105244 	8.41727 	-0 	0.348752 	12.2065 	
0 	91448.4 	916.789 	1145.99 	0.35 	8.53017 	0.0817692 	4.37444e-05 	
0.00379119 	0.000947796 	-1.34338e-07 	-13.4338 	5.09667e-05 	0.000268307 	-13.4341 	-13.4341 	0 	
8.74889e-05 	1.45305e-09 	0.92 	0.04 	0.04 	0.0187877 	-1.97963e-09 	
0.07 	-0.0352442 	0.105244 	16.8345 	-0 	1.39501 	11.1602 	
0 	182897 	1833.58 	2291.97 	0.35 	17.0603 	0.0817692 	8.74889e-05 	
0.00758237 	0.00189559 	-2.19201e-06 	-219.201 	0.000254833 	0.000238598 	-219.201 	-219.201 	0 	
0.000174978 	2.42176e-09 	0.92 	0.04 	0.04 	0.0187877 	-3.72636e-09 	
0.07 	-0.0352442 	0.105244 	16.8345 	-0 	2.79002 	9.76519 	
0 	182897 	1833.58 	2291.97 	0.35 	17.0603 	0.0817693 	8.74889e-05 	
0.00758237 	0.00189559 	-1.34294e-07 	-13.4294 	0.000866434 	0.000182895 	-13.4305 	-13.4305 	0 	
0.000262467 	3.39046e-09 	0.92 	0.04 	0.04 	0.0187877 	-5.2402e-09 	
0.07 	-0.0352442 	0.105244 	16.8345 	-0 	4.18503 	8.37018 	
0 	182897 	1833.58 	2291.97 	0.35 	17.0603 	0.0817695 	8.74889e-05 	
0.00758237 	0.00189559 	-1.34234e-07 	-13.4234 	0.00188577 	0.000134619 	-13.4254 	-13.4254 	0 	
0.000349956 	4.35917e-09 	0.92 	0.04 	0.04 	0.0187876 	-6.52114e-09 	
0.07 	-0.0352442 	0.105244 	16.8345 	-0 	5.58005 	6.97517 	
0 	182897 	1833.58 	2291.97 	0.35 	17.0603 	0.0817697 	8.74889e-05 	
0.00758237 	0.00189559 	-5.31374e-08 	-5.31374 	0.00331285 	9.37692e-05 	-5.31714 	-5.31714 	0 	
0.000437444 	5.32788e-09 	0.92 	0.04 	0.04 	0.0187876 	-7.56919e-09 	
0.07 	-0.0352442 	0.105244 	16.8345 	-0 	6.97507 	5.58015 	
0 	182897 	1833.58 	2291.97 	0.35 	17.0603 	0.08177 	8.74889e-05 	
0.00758237 	0.00189559 	-4.01373e-07 	-40.1373 	0.00514767 	6.03468e-05 	-40.1425 	-40.1425 	0 	
0.000524933 	6.2966e-09 	0.92 	0.04 	0.04 	0.0187875 	-8.38434e-09 	
0.07 	-0.0352442 	0.105244 	16.8345 	-0 	8.37009 	4.18512 	
0 	182897 	1833.58 	2291.97 	0.35 	17.0603 	0.0817703 	8.74889e-05 	
0.00758237 	0.00189559 	-4.01236e-07 	-40.1236 	0.00739024 	3.43514e-05 	-40.131 	-40.131 	0 	
0.000612422 	7.26532e-09 	0.92 	0.04 	0.04 	0.0187874 	-8.96659e-09 	
0.07 	-0.0352442 	0.105244 	16.8345 	-0 	9.76512 	2.79009 	
0 	182897 	1833.58 	2291.97 	0.35 	17.0603 	0.0817708 	8.74889e-05 	
0.00758237 	0.00189559 	-5.27256e-08 	-5.27256 	0.0100406 	1.57832e-05 	-5.28262 	-5.28262 	0 	
0.000699911 	8.23405e-09 	0.92 	0.04 	0.04 	0.0187873 	-9.31594e-09 	
0.07 	-0.0352442 	0.105244 	16.8345 	-0 	11.1602 	1.39505 	
0 	182897 	1833.58 	2291.97 	0.35 	17.0603 	0.0817713 	8.74889e-05 	
0.00758237 	0.00189559 	-5.25369e-08 	-5.25369 	0.0130987 	4.64214e-06 	-5.26679 	-5.26679 	0 	
0.0007874 	8.71769e-09 	0.92 	0.04 	0.04 	0.0187872 	-9.43239e-09 	
0.07 	-0.0352442 	0.105244 	8.41727 	-0 	12.2064 	0.348763 	
0 	91448.4 	916.789 	1145.99 	0.35 	8.53017 	0.0817718 	4.37444e-05 	
0.00379119 	0.000947796 	-5.23409e-08 	-5.23409 	0.0147296 	9.28435e-07 	-5.24882 	-5.24882 	0 	
ZONE T = "t = 2e-08 [s]" I = 10 SOLUTIONTIME = 2.0000000000000E-08
0 	4.84533e-10 	0.92 	0.04 	0.04 	0.0187877 	0 	
-0.0187877 	-0.0352442 	0.0164565 	0.697505 	3.61456e-09 	0.348752 	12.2065 	
1.74816e-11 	91448.4 	916.789 	1145.99 	0.35 	8.53017 	0.0817692 	4.37444e-05 	
0.00379119 	0.000947796 	2.05027e-06 	218.46 	0.000101933 	0.000536614 	218.46 	218.46 	0 	
8.74889e-05 	1.45396e-09 	0.92 	0.04 	0.04 	0.0187877 	-1.97963e-09 	
-0.0187877 	-0.0352442 	0.0164565 	1.39501 	1.08437e-08 	1.39501 	11.1602 	
3.49631e-11 	182897 	1833.58 	2291.97 	0.35 	17.0603 	0.0817692 	8.74889e-05 	
0.00758237 	0.00189559 	-6.71688e-07 	152.032 	0.000509667 	0.000477197 	152.032 	152.032 	0 	
0.000174978 	2.42303e-09 	0.92 	0.04 	0.04 	0.0187877 	-3.72636e-09 	
-0.0187877 	-0.0352442 	0.0164565 	1.39501 	1.80728e-08 	2.79002 	9.7652 	
3.49632e-11 	182897 	1833.58 	2291.97 	0.35 	17.0603 	0.0817693 	8.74889e-05 	
0.00758237 	0.00189559 	2.05035e-06 	218.465 	0.00173287 	0.00036579 	218.464 	218.464 	0 	
0.000262467 	3.3921e-09 	0.92 	0.04 	0.04 	0.0187877 	-5.2402e-09 	
-0.0187877 	-0.0352442 	0.0164565 	1.39501 	2.5302e-08 	4.18503 	8.37019 	
3.49632e-11 	182897 	1833.58 	2291.97 	0.35 	17.0603 	0.0817695 	8.74889e-05 	
0.00758237 	0.00189559 	2.05047e-06 	218.471 	0.00377154 	0.000269237 	218.469 	218.469 	0 	
0.000349956 	4.36154e-09 	0.92 	0.04 	0.04 	0.0187876 	-6.52115e-09 	
-0.0187876 	-0.0352442 	0.0164566 	1.39502 	3.25311e-08 	5.58005 	6.97517 	
3.49633e-11 	182897 	1833.58 	2291.97 	0.35 	17.0603 	0.0817697 	8.74889e-05 	
0.00758237 	0.00189559 	3.61416e-06 	366.729 	0.0066257 	0.000187539 	366.726 	366.726 	0 	
0.000437444 	5.33061e-09 	0.92 	0.04 	0.04 	0.0187876 	-7.56919e-09 	
-0.0187876 	-0.0352442 	0.0164566 	1.39502 	3.97603e-08 	6.97507 	5.58015 	
3.49635e-11 	182897 	1833.58 	2291.97 	0.35 	17.0603 	0.08177 	8.74889e-05 	
0.00758237 	0.00189559 	3.06351e-06 	346.488 	0.0102953 	0.000120694 	346.483 	346.483 	0 	
0.000524933 	6.29969e-09 	0.92 	0.04 	0.04 	0.0187875 	-8.38434e-09 	
-0.0187875 	-0.0352442 	0.0164567 	1.39503 	4.69896e-08 	8.3701 	4.18512 	
3.49636e-11 	182897 	1833.58 	2291.97 	0.35 	17.0603 	0.0817703 	8.74889e-05 	
0.00758237 	0.00189559 	3.06378e-06 	346.502 	0.0147805 	6.87029e-05 	346.494 	346.494 	0 	
0.000612422 	7.26914e-09 	0.92 	0.04 	0.04 	0.0187874 	-8.96659e-09 	
-0.0187874 	-0.0352442 	0.0164568 	1.39504 	5.42188e-08 	9.76513 	2.79009 	
3.49638e-11 	182897 	1833.58 	2291.97 	0.35 	17.0603 	0.0817708 	8.74889e-05 	
0.00758237 	0.00189559 	3.61498e-06 	366.771 	0.0200811 	3.15664e-05 	366.761 	366.761 	0 	
0.000699911 	8.23859e-09 	0.92 	0.04 	0.04 	0.0187873 	-9.31595e-09 	
-0.0187873 	-0.0352442 	0.0164569 	1.39504 	6.14482e-08 	11.1602 	1.39505 	
3.4964e-11 	182897 	1833.58 	2291.97 	0.35 	17.0603 	0.0817713 	8.74889e-05 	
0.00758237 	0.00189559 	3.61536e-06 	366.79 	0.0261973 	9.28428e-06 	366.776 	366.776 	0 	
0.0007874 	8.72296e-09 	0.92 	0.04 	0.04 	0.0187872 	-9.4324e-09 	
-0.0187872 	-0.0352442 	0.016457 	0.697527 	6.14482e-08 	12.2065 	0.348764 	
1.74821e-11 	91448.4 	916.789 	1145.99 	0.35 	8.53017 	0.0817718 	4.37444e-05 	
0.00379119 	0.000947796 	3.61575e-06 	366.809 	0.0294593 	1.85687e-06 	366.794 	366.794 	0 	
ZONE T = "t = 3e-08 [s]" I = 10 SOLUTIONTIME = 3.0000000000000E-08
0 	4.84352e-10 	0.92 	0.04 	0.04 	0.0187877 	0 	
-0.0187877 	-0.0352442 	0.0164565 	0.697505 	3.61456e-09 	0.348752 	12.2065 	
3.49631e-11 	91448.4 	916.789 	1145.99 	0.35 	8.53017 	0.0817692 	4.37444e-05 	
0.00379119 	0.000947796 	5.1665e-06 	311.623 	0.0001529 	0.000804921 	311.623 	311.623 	0 	
8.74889e-05 	1.45306e-09 	0.92 	0.04 	0.04 	0.0187877 	-1.97963e-09 	
-0.0187877 	-0.0352442 	0.0164565 	1.39501 	1.08437e-08 	1.39501 	11.1602 	
6.99263e-11 	182897 	1833.58 	2291.97 	0.35 	17.0603 	0.0817692 	8.74889e-05 	
0.00758237 	0.00189559 	2.44455e-06 	311.624 	0.000764501 	0.000715795 	311.623 	311.623 	0 	
0.000174978 	2.42176e-09 	0.92 	0.04 	0.04 	0.0187877 	-3.72636e-09 	
-0.0187877 	-0.0352442 	0.0164565 	1.39501 	1.80728e-08 	2.79002 	9.7652 	
6.99264e-11 	182897 	1833.58 	2291.97 	0.35 	17.0603 	0.0817693 	8.74889e-05 	
0.00758237 	0.00189559 	5.16663e-06 	311.627 	0.0025993 	0.000548685 	311.626 	311.626 	0 	
0.000262467 	3.39047e-09 	0.92 	0.04 	0.04 	0.0187877 	-5.2402e-09 	
-0.0187877 	-0.0352442 	0.0164565 	1.39501 	2.5302e-08 	4.18503 	8.37019 	
6.99265e-11 	182897 	1833.58 	2291.97 	0.35 	17.0603 	0.0817695 	8.74889e-05 	
0.00758237 	0.00189559 	5.16681e-06 	311.633 	0.00565732 	0.000403856 	311.631 	311.631 	0 	
0.000349956 	4.35918e-09 	0.92 	0.04 	0.04 	0.0187876 	-6.52115e-09 	
-0.0187876 	-0.0352442 	0.0164566 	1.39502 	3.25312e-08 	5.58005 	6.97517 	
6.99267e-11 	182897 	1833.58 	2291.97 	0.35 	17.0603 	0.0817697 	8.74889e-05 	
0.00758237 	0.00189559 	5.30478e-06 	169.063 	0.00993855 	0.000281308 	169.059 	169.059 	0 	
0.000437444 	5.32789e-09 	0.92 	0.04 	0.04 	0.0187876 	-7.56919e-09 	
-0.0187876 	-0.0352442 	0.0164566 	1.39502 	3.97604e-08 	6.97507 	5.58015 	
6.99269e-11 	182897 	1833.58 	2291.97 	0.35 	17.0603 	0.08177 	8.74889e-05 	
0.00758237 	0.00189559 	5.78308e-06 	271.958 	0.015443 	0.000181041 	271.952 	271.952 	0 	
0.000524933 	6.2966e-09 	0.92 	0.04 	0.04 	0.0187875 	-8.38434e-09 	
-0.0187875 	-0.0352442 	0.0164567 	1.39503 	4.69896e-08 	8.3701 	4.18512 	
6.99272e-11 	182897 	1833.58 	2291.97 	0.35 	17.0603 	0.0817703 	8.74889e-05 	
0.00758237 	0.00189559 	5.78349e-06 	271.971 	0.0221707 	0.000103054 	271.964 	271.964 	0 	
0.000612422 	7.26533e-09 	0.92 	0.04 	0.04 	0.0187874 	-8.96659e-09 	
-0.0187874 	-0.0352442 	0.0164568 	1.39504 	5.42189e-08 	9.76513 	2.79009 	
6.99276e-11 	182897 	1833.58 	2291.97 	0.35 	17.0603 	0.0817708 	8.74889e-05 	
0.00758237 	0.00189559 	5.30602e-06 	169.104 	0.0301217 	4.73496e-05 	169.094 	169.094 	0 	
0.000699911 	8.23405e-09 	0.92 	0.04 	0.04 	0.0187873 	-9.31595e-09 	
-0.0187873 	-0.0352442 	0.0164569 	1.39504 	6.14482e-08 	11.1602 	1.39505 	
6.9928e-11 	182897 	1833.58 	2291.97 	0.35 	17.0603 	0.0817713 	8.74889e-05 	
0.00758237 	0.00189559 	5.30658e-06 	169.123 	0.039296 	1.39264e-05 	169.109 	169.109 	0 	
0.0007874 	8.71715e-09 	0.92 	0.04 	0.04 	0.0187872 	-9.4324e-09 	
-0.0187872 	-0.0352442 	0.016457 	0.697527 	6.14482e-08 	12.2065 	0.348764 	
3.49642e-11 	91448.4 	916.789 	1145.99 	0.35 	8.53017 	0.0817718 	4.37444e-05 	
0.00379119 	0.000947796 	5.30717e-06 	169.142 	0.044189 	2.78531e-06 	169.127 	169.127 	0 	
ZONE T = "t = 4e-08 [s]" I = 10 SOLUTIONTIME = 4.0000000000000E-08
0 	4.84533e-10 	0.92 	0.04 	0.04 	0.0187877 	0 	
-0.0187877 	-0.0352442 	0.0164565 	0.697505 	3.61456e-09 	0.348752 	12.2065 	
5.24447e-11 	91448.4 	916.789 	1145.99 	0.35 	8.53017 	0.0817692 	4.37444e-05 	
0.00379119 	0.000947796 	6.21694e-06 	105.045 	0.000203867 	0.00107323 	105.045 	105.045 	0 	
8.74889e-05 	1.4536e-09 	0.92 	0.04 	0.04 	0.0187877 	-1.97963e-09 	
-0.0187877 	-0.0352442 	0.0164565 	1.39501 	1.08437e-08 	1.39501 	11.1602 	
1.04889e-10 	182897 	1833.58 	2291.97 	0.35 	17.0603 	0.0817692 	8.74889e-05 	
0.00758237 	0.00189559 	4.73448e-06 	228.993 	0.00101933 	0.000954394 	228.992 	228.992 	0 	
0.000174978 	2.42267e-09 	0.92 	0.04 	0.04 	0.0187877 	-3.72636e-09 	
-0.0187877 	-0.0352442 	0.0164565 	1.39501 	1.80728e-08 	2.79002 	9.7652 	
1.0489e-10 	182897 	1833.58 	2291.97 	0.35 	17.0603 	0.0817693 	8.74889e-05 	
0.00758237 	0.00189559 	6.21712e-06 	105.049 	0.00346574 	0.000731581 	105.048 	105.048 	0 	
0.000262467 	3.39174e-09 	0.92 	0.04 	0.04 	0.0187877 	-5.2402e-09 	
-0.0187877 	-0.0352442 	0.0164565 	1.39501 	2.5302e-08 	4.18503 	8.37019 	
1.0489e-10 	182897 	1833.58 	2291.97 	0.35 	17.0603 	0.0817695 	8.74889e-05 	
0.00758237 	0.00189559 	6.21736e-06 	105.055 	0.00754309 	0.000538475 	105.053 	105.053 	0 	
0.000349956 	4.35972e-09 	0.92 	0.04 	0.04 	0.0187876 	-6.52115e-09 	
-0.0187876 	-0.0352442 	0.0164566 	1.39502 	3.25312e-08 	5.58005 	6.97517 	
1.0489e-10 	182897 	1833.58 	2291.97 	0.35 	17.0603 	0.0817697 	8.74889e-05 	
0.00758237 	0.00189559 	7.53818e-06 	223.34 	0.0132514 	0.000375077 	223.337 	223.337 	0 	
0.000437444 	5.32916e-09 	0.92 	0.04 	0.04 	0.0187876 	-7.56919e-09 	
-0.0187876 	-0.0352442 	0.0164566 	1.39502 	3.97604e-08 	6.97507 	5.58015 	
1.0489e-10 	182897 	1833.58 	2291.97 	0.35 	17.0603 	0.08177 	8.74889e-05 	
0.00758237 	0.00189559 	6.54219e-06 	75.911 	0.0205907 	0.000241387 	75.9058 	75.9058 	0 	
0.000524933 	6.2986e-09 	0.92 	0.04 	0.04 	0.0187875 	-8.38434e-09 	
-0.0187875 	-0.0352442 	0.0164567 	1.39503 	4.69896e-08 	8.3701 	4.18512 	
1.04891e-10 	182897 	1833.58 	2291.97 	0.35 	17.0603 	0.0817703 	8.74889e-05 	
0.00758237 	0.00189559 	6.54274e-06 	75.9247 	0.029561 	0.000137406 	75.9173 	75.9173 	0 	
0.000612422 	7.2666e-09 	0.92 	0.04 	0.04 	0.0187874 	-8.96659e-09 	
-0.0187874 	-0.0352442 	0.0164568 	1.39504 	5.42189e-08 	9.76513 	2.79009 	
1.04891e-10 	182897 	1833.58 	2291.97 	0.35 	17.0603 	0.0817708 	8.74889e-05 	
0.00758237 	0.00189559 	7.53983e-06 	223.381 	0.0401623 	6.31328e-05 	223.371 	223.371 	0 	
0.000699911 	8.2346e-09 	0.92 	0.04 	0.04 	0.0187873 	-9.31595e-09 	
-0.0187873 	-0.0352442 	0.0164569 	1.39504 	6.14483e-08 	11.1602 	1.39505 	
1.04892e-10 	182897 	1833.58 	2291.97 	0.35 	17.0603 	0.0817713 	8.74889e-05 	
0.00758237 	0.00189559 	7.54058e-06 	223.4 	0.0523947 	1.85686e-05 	223.387 	223.387 	0 	
0.0007874 	8.71897e-09 	0.92 	0.04 	0.04 	0.0187872 	-9.4324e-09 	
-0.0187872 	-0.0352442 	0.016457 	0.697527 	6.14483e-08 	12.2065 	0.348764 	
5.24464e-11 	91448.4 	916.789 	1145.99 	0.35 	8.53017 	0.0817718 	4.37444e-05 	
0.00379119 	0.000947796 	7.54137e-06 	223.42 	0.0589186 	3.71375e-06 	223.405 	223.405 	0 	
ZONE T = "t = 5.5e-08 [s]" I = 10 SOLUTIONTIME = 5.5000000000000E-08
0 	4.84109e-10 	0.92 	0.04 	0.04 	0.0187877 	0 	
-0.0187877 	-0.0352442 	0.0164565 	0.697505 	3.61456e-09 	0.348752 	12.2065 	
6.99263e-11 	91448.4 	916.789 	1145.99 	0.35 	8.53017 	0.0817692 	4.37444e-05 	
0.00379119 	0.000947796 	1.01055e-05 	259.236 	0.000186878 	0.000983792 	259.236 	259.236 	0 	
8.74889e-05 	1.45209e-09 	0.92 	0.04 	0.04 	0.0187877 	-1.97963e-09 	
-0.0187877 	-0.0352442 	0.0164565 	1.39501 	1.08437e-08 	1.39501 	11.1602 	
1.39853e-10 	182897 	1833.58 	2291.97 	0.35 	17.0603 	0.0817692 	8.74889e-05 	
0.00758237 	0.00189559 	7.52128e-06 	185.787 	0.00093439 	0.000874861 	185.786 	185.786 	0 	
0.000174978 	2.42031e-09 	0.92 	0.04 	0.04 	0.0187877 	-3.72636e-09 	
-0.0187877 	-0.0352442 	0.0164565 	1.39501 	1.80728e-08 	2.79002 	9.7652 	
1.39853e-10 	182897 	1833.58 	2291.97 	0.35 	17.0603 	0.0817693 	8.74889e-05 	
0.00758237 	0.00189559 	1.01057e-05 	259.24 	0.00317693 	0.000670616 	259.239 	259.239 	0 	
0.000262467 	3.38853e-09 	0.92 	0.04 	0.04 	0.0187877 	-5.2402e-09 	
-0.0187877 	-0.0352442 	0.0164565 	1.39501 	2.5302e-08 	4.18503 	8.37019 	
1.39853e-10 	182897 	1833.58 	2291.97 	0.35 	17.0603 	0.0817695 	8.74889e-05 	
0.00758237 	0.00189559 	1.01061e-05 	259.246 	0.0069145 	0.000493602 	259.244 	259.244 	0 	
0.000349956 	4.35724e-09 	0.92 	0.04 	0.04 	0.0187876 	-6.52115e-09 	
-0.0187876 	-0.0352442 	0.0164566 	1.39502 	3.25312e-08 	5.58005 	6.97517 	
1.39853e-10 	182897 	1833.58 	2291.97 	0.35 	17.0603 	0.0817697 	8.74889e-05 	
0.00758237 	0.00189559 	1.19698e-05 	295.44 	0.0121471 	0.000343821 	295.436 	295.436 	0 	
0.000437444 	5.32522e-09 	0.92 	0.04 	0.04 	0.0187876 	-7.56919e-09 	
-0.0187876 	-0.0352442 	0.0164566 	1.39502 	3.97604e-08 	6.97507 	5.58015 	
1.39854e-10 	182897 	1833.58 	2291.97 	0.35 	17.0603 	0.08177 	8.74889e-05 	
0.00758237 	0.00189559 	1.26185e-05 	405.086 	0.0188748 	0.000221272 	405.081 	405.081 	0 	
0.000524933 	6.29321e-09 	0.92 	0.04 	0.04 	0.0187875 	-8.38434e-09 	
-0.0187875 	-0.0352442 	0.0164567 	1.39503 	4.69896e-08 	8.3701 	4.18512 	
1.39854e-10 	182897 	1833.58 	2291.97 	0.35 	17.0603 	0.0817703 	8.74889e-05 	
0.00758237 	0.00189559 	1.26192e-05 	405.1 	0.0270976 	0.000125955 	405.092 	405.092 	0 	
0.000612422 	7.26194e-09 	0.92 	0.04 	0.04 	0.0187874 	-8.96659e-09 	
-0.0187874 	-0.0352442 	0.0164568 	1.39504 	5.42189e-08 	9.76513 	2.79009 	
1.39855e-10 	182897 	1833.58 	2291.97 	0.35 	17.0603 	0.0817708 	8.74889e-05 	
0.00758237 	0.00189559 	1.1972e-05 	295.481 	0.0368154 	5.78717e-05 	295.471 	295.471 	0 	
0.000699911 	8.23066e-09 	0.92 	0.04 	0.04 	0.0187873 	-9.31595e-09 	
-0.0187873 	-0.0352442 	0.0164569 	1.39504 	6.14483e-08 	11.1602 	1.39505 	
1.39856e-10 	182897 	1833.58 	2291.97 	0.35 	17.0603 	0.0817713 	8.74889e-05 	
0.00758237 	0.00189559 	1.19731e-05 	295.5 	0.0480284 	1.70212e-05 	295.487 	295.487 	0 	
0.0007874 	8.71503e-09 	0.92 	0.04 	0.04 	0.0187872 	-9.4324e-09 	
-0.0187872 	-0.0352442 	0.016457 	0.697527 	6.14483e-08 	12.2065 	0.348764 	
6.99285e-11 	91448.4 	916.789 	1145.99 	0.35 	8.53017 	0.0817718 	4.37444e-05 	
0.00379119 	0.000947796 	1.19742e-05 	295.519 	0.0540087 	3.40427e-06 	295.505 	295.505 	0 	
ZONE T = "t = 7.75e-08 [s]" I = 10 SOLUTIONTIME = 7.7500000000000E-08
0 	4.84432e-10 	0.92 	0.04 	0.04 	0.0187877 	0 	
-0.0187877 	-0.0352442 	0.0164565 	0.697505 	3.61456e-09 	0.348752 	12.2065 	
9.61486e-11 	91448.4 	916.789 	1145.99 	0.35 	8.53017 	0.0817692 	4.37444e-05 	
0.00379119 	0.000947796 	1.72345e-05 	316.844 	0.000175552 	0.000924168 	316.843 	316.843 	0 	
8.74889e-05 	1.45346e-09 	0.92 	0.04 	0.04 	0.0187877 	-1.97963e-09 	
-0.0187877 	-0.0352442 	0.0164565 	1.39501 	1.08437e-08 	1.39501 	11.1602 	
1.92297e-10 	182897 	1833.58 	2291.97 	0.35 	17.0603 	0.0817692 	8.74889e-05 	
0.00758237 	0.00189559 	1.36133e-05 	270.758 	0.000877761 	0.000821839 	270.758 	270.758 	0 	
0.000174978 	2.42232e-09 	0.92 	0.04 	0.04 	0.0187877 	-3.72636e-09 	
-0.0187877 	-0.0352442 	0.0164565 	1.39501 	1.80728e-08 	2.79002 	9.7652 	
1.92297e-10 	182897 	1833.58 	2291.97 	0.35 	17.0603 	0.0817693 	8.74889e-05 	
0.00758237 	0.00189559 	1.72348e-05 	316.848 	0.00298439 	0.000629972 	316.847 	316.847 	0 	
0.000262467 	3.39119e-09 	0.92 	0.04 	0.04 	0.0187877 	-5.2402e-09 	
-0.0187877 	-0.0352442 	0.0164565 	1.39501 	2.5302e-08 	4.18503 	8.37019 	
1.92298e-10 	182897 	1833.58 	2291.97 	0.35 	17.0603 	0.0817695 	8.74889e-05 	
0.00758237 	0.00189559 	1.72353e-05 	316.854 	0.00649544 	0.000463687 	316.852 	316.852 	0 	
0.000349956 	4.36022e-09 	0.92 	0.04 	0.04 	0.0187876 	-6.52115e-09 	
-0.0187876 	-0.0352442 	0.0164566 	1.39502 	3.25312e-08 	5.58005 	6.97517 	
1.92298e-10 	182897 	1833.58 	2291.97 	0.35 	17.0603 	0.0817697 	8.74889e-05 	
0.00758237 	0.00189559 	1.87427e-05 	301.021 	0.0114109 	0.000322983 	301.017 	301.017 	0 	
0.000437444 	5.3291e-09 	0.92 	0.04 	0.04 	0.0187876 	-7.56919e-09 	
-0.0187876 	-0.0352442 	0.0164566 	1.39502 	3.97604e-08 	6.97507 	5.58015 	
1.92299e-10 	182897 	1833.58 	2291.97 	0.35 	17.0603 	0.08177 	8.74889e-05 	
0.00758237 	0.00189559 	1.67912e-05 	185.456 	0.0177309 	0.000207861 	185.451 	185.451 	0 	
0.000524933 	6.29798e-09 	0.92 	0.04 	0.04 	0.0187875 	-8.38434e-09 	
-0.0187875 	-0.0352442 	0.0164567 	1.39503 	4.69896e-08 	8.3701 	4.18512 	
1.923e-10 	182897 	1833.58 	2291.97 	0.35 	17.0603 	0.0817703 	8.74889e-05 	
0.00758237 	0.00189559 	1.67923e-05 	185.47 	0.0254553 	0.000118322 	185.462 	185.462 	0 	
0.000612422 	7.26702e-09 	0.92 	0.04 	0.04 	0.0187874 	-8.96659e-09 	
-0.0187874 	-0.0352442 	0.0164568 	1.39504 	5.42189e-08 	9.76513 	2.79009 	
1.92301e-10 	182897 	1833.58 	2291.97 	0.35 	17.0603 	0.0817708 	8.74889e-05 	
0.00758237 	0.00189559 	1.87459e-05 	301.062 	0.0345842 	5.43644e-05 	301.052 	301.052 	0 	
0.000699911 	8.23607e-09 	0.92 	0.04 	0.04 	0.0187873 	-9.31595e-09 	
-0.0187873 	-0.0352442 	0.0164569 	1.39504 	6.14483e-08 	11.1602 	1.39505 	
1.92302e-10 	182897 	1833.58 	2291.97 	0.35 	17.0603 	0.0817713 	8.74889e-05 	
0.00758237 	0.00189559 	1.87474e-05 	301.081 	0.0451176 	1.59896e-05 	301.067 	301.067 	0 	
0.0007874 	8.721e-09 	0.92 	0.04 	0.04 	0.0187872 	-9.4324e-09 	
-0.0187872 	-0.0352442 	0.016457 	0.697527 	6.14483e-08 	12.2065 	0.348764 	
9.61517e-11 	91448.4 	916.789 	1145.99 	0.35 	8.53017 	0.0817718 	4.37444e-05 	
0.00379119 	0.000947796 	1.87489e-05 	301.1 	0.0507355 	3.19795e-06 	301.085 	301.085 	0 	
ZONE T = "t = 1.1125e-07 [s]" I = 10 SOLUTIONTIME = 1.1125000000000E-07
0 	4.84352e-10 	0.92 	0.04 	0.04 	0.0187877 	0 	
-0.0187877 	-0.0352442 	0.0164565 	0.697505 	3.61456e-09 	0.348752 	12.2065 	
1.35482e-10 	91448.4 	916.789 	1145.99 	0.35 	8.53017 	0.0817692 	4.37444e-05 	
0.00379119 	0.000947796 	2.85639e-05 	335.686 	0.000168001 	0.000884419 	335.686 	335.686 	0 	
8.74889e-05 	1.45306e-09 	0.92 	0.04 	0.04 	0.0187877 	-1.97963e-09 	
-0.0187877 	-0.0352442 	0.0164565 	1.39501 	1.08437e-08 	1.39501 	11.1602 	
2.70964e-10 	182897 	1833.58 	2291.97 	0.35 	17.0603 	0.0817692 	8.74889e-05 	
0.00758237 	0.00189559 	2.46106e-05 	325.846 	0.000840007 	0.000786491 	325.845 	325.845 	0 	
0.000174978 	2.42176e-09 	0.92 	0.04 	0.04 	0.0187877 	-3.72636e-09 	
-0.0187877 	-0.0352442 	0.0164565 	1.39501 	1.80728e-08 	2.79002 	9.7652 	
2.70965e-10 	182897 	1833.58 	2291.97 	0.35 	17.0603 	0.0817693 	8.74889e-05 	
0.00758237 	0.00189559 	2.85644e-05 	335.691 	0.00285603 	0.000602877 	335.69 	335.69 	0 	
0.000262467 	3.39047e-09 	0.92 	0.04 	0.04 	0.0187877 	-5.2402e-09 	
-0.0187877 	-0.0352442 	0.0164565 	1.39501 	2.5302e-08 	4.18503 	8.37019 	
2.70965e-10 	182897 	1833.58 	2291.97 	0.35 	17.0603 	0.0817695 	8.74889e-05 	
0.00758237 	0.00189559 	2.8565e-05 	335.697 	0.00621607 	0.000443743 	335.695 	335.695 	0 	
0.000349956 	4.35918e-09 	0.92 	0.04 	0.04 	0.0187876 	-6.52115e-09 	
-0.0187876 	-0.0352442 	0.0164566 	1.39502 	3.25312e-08 	5.58005 	6.97517 	
2.70966e-10 	182897 	1833.58 	2291.97 	0.35 	17.0603 	0.0817697 	8.74889e-05 	
0.00758237 	0.00189559 	2.67756e-05 	238.012 	0.0109201 	0.000309091 	238.009 	238.009 	0 	
0.000437444 	5.32789e-09 	0.92 	0.04 	0.04 	0.0187876 	-7.56919e-09 	
-0.0187876 	-0.0352442 	0.0164566 	1.39502 	3.97604e-08 	6.97507 	5.58015 	
2.70967e-10 	182897 	1833.58 	2291.97 	0.35 	17.0603 	0.08177 	8.74889e-05 	
0.00758237 	0.00189559 	2.80974e-05 	334.996 	0.0169683 	0.000198921 	334.991 	334.991 	0 	
0.000524933 	6.2966e-09 	0.92 	0.04 	0.04 	0.0187875 	-8.38434e-09 	
-0.0187875 	-0.0352442 	0.0164567 	1.39503 	4.69896e-08 	8.3701 	4.18512 	
2.70968e-10 	182897 	1833.58 	2291.97 	0.35 	17.0603 	0.0817703 	8.74889e-05 	
0.00758237 	0.00189559 	2.80989e-05 	335.01 	0.0243604 	0.000113233 	335.003 	335.003 	0 	
0.000612422 	7.26533e-09 	0.92 	0.04 	0.04 	0.0187874 	-8.96659e-09 	
-0.0187874 	-0.0352442 	0.0164568 	1.39504 	5.42189e-08 	9.76513 	2.79009 	
2.70969e-10 	182897 	1833.58 	2291.97 	0.35 	17.0603 	0.0817708 	8.74889e-05 	
0.00758237 	0.00189559 	2.67802e-05 	238.053 	0.0330967 	5.20261e-05 	238.043 	238.043 	0 	
0.000699911 	8.23405e-09 	0.92 	0.04 	0.04 	0.0187873 	-9.31595e-09 	
-0.0187873 	-0.0352442 	0.0164569 	1.39504 	6.14484e-08 	11.1602 	1.39505 	
2.70971e-10 	182897 	1833.58 	2291.97 	0.35 	17.0603 	0.0817713 	8.74889e-05 	
0.00758237 	0.00189559 	2.67823e-05 	238.072 	0.0431771 	1.53019e-05 	238.059 	238.059 	0 	
0.0007874 	8.71804e-09 	0.92 	0.04 	0.04 	0.0187872 	-9.4324e-09 	
-0.0187872 	-0.0352442 	0.016457 	0.697527 	6.14484e-08 	12.2065 	0.348764 	
1.35486e-10 	91448.4 	916.789 	1145.99 	0.35 	8.53017 	0.0817718 	4.37444e-05 	
0.00379119 	0.000947796 	2.67845e-05 	238.092 	0.0485533 	3.0604e-06 	238.077 	238.077 	0 	
ZONE T = "t = 1.61875e-07 [s]" I = 10 SOLUTIONTIME = 1.6187500000000E-07
0 	4.84316e-10 	0.92 	0.04 	0.04 	0.0187877 	0 	
-0.0187877 	-0.0352442 	0.0164565 	0.697505 	3.61456e-09 	0.348752 	12.2065 	
1.94482e-10 	91448.4 	916.789 	1145.99 	0.35 	8.53017 	0.0817692 	4.37444e-05 	
0.00379119 	0.000947796 	4.34922e-05 	294.881 	0.000162968 	0.00085792 	294.88 	294.88 	0 	
8.74889e-05 	1.45288e-09 	0.92 	0.04 	0.04 	0.0187877 	-1.97963e-09 	
-0.0187877 	-0.0352442 	0.0164565 	1.39501 	1.08437e-08 	1.39501 	11.1602 	
3.88965e-10 	182897 	1833.58 	2291.97 	0.35 	17.0603 	0.0817692 	8.74889e-05 	
0.00758237 	0.00189559 	3.63634e-05 	232.153 	0.000814839 	0.000762926 	232.153 	232.153 	0 	
0.000174978 	2.42151e-09 	0.92 	0.04 	0.04 	0.0187877 	-3.72636e-09 	
-0.0187877 	-0.0352442 	0.0164565 	1.39501 	1.80728e-08 	2.79002 	9.7652 	
3.88965e-10 	182897 	1833.58 	2291.97 	0.35 	17.0603 	0.0817693 	8.74889e-05 	
0.00758237 	0.00189559 	4.34929e-05 	294.885 	0.00277045 	0.000584813 	294.884 	294.884 	0 	
0.000262467 	3.39014e-09 	0.92 	0.04 	0.04 	0.0187877 	-5.2402e-09 	
-0.0187877 	-0.0352442 	0.0164565 	1.39501 	2.5302e-08 	4.18503 	8.37019 	
3.88966e-10 	182897 	1833.58 	2291.97 	0.35 	17.0603 	0.0817695 	8.74889e-05 	
0.00758237 	0.00189559 	4.34939e-05 	294.891 	0.00602982 	0.000430448 	294.889 	294.889 	0 	
0.000349956 	4.35871e-09 	0.92 	0.04 	0.04 	0.0187876 	-6.52115e-09 	
-0.0187876 	-0.0352442 	0.0164566 	1.39502 	3.25312e-08 	5.58005 	6.97517 	
3.88967e-10 	182897 	1833.58 	2291.97 	0.35 	17.0603 	0.0817697 	8.74889e-05 	
0.00758237 	0.00189559 	4.00928e-05 	263.055 	0.0105929 	0.00029983 	263.052 	263.052 	0 	
0.000437444 	5.32735e-09 	0.92 	0.04 	0.04 	0.0187876 	-7.56919e-09 	
-0.0187876 	-0.0352442 	0.0164566 	1.39502 	3.97604e-08 	6.97507 	5.58015 	
3.88969e-10 	182897 	1833.58 	2291.97 	0.35 	17.0603 	0.08177 	8.74889e-05 	
0.00758237 	0.00189559 	4.09857e-05 	254.585 	0.0164598 	0.000192961 	254.58 	254.58 	0 	
0.000524933 	6.29599e-09 	0.92 	0.04 	0.04 	0.0187875 	-8.38434e-09 	
-0.0187875 	-0.0352442 	0.0164567 	1.39503 	4.69896e-08 	8.3701 	4.18512 	
3.8897e-10 	182897 	1833.58 	2291.97 	0.35 	17.0603 	0.0817703 	8.74889e-05 	
0.00758237 	0.00189559 	4.0988e-05 	254.599 	0.0236305 	0.00010984 	254.592 	254.592 	0 	
0.000612422 	7.26457e-09 	0.92 	0.04 	0.04 	0.0187874 	-8.96659e-09 	
-0.0187874 	-0.0352442 	0.0164568 	1.39504 	5.42189e-08 	9.76513 	2.79009 	
3.88972e-10 	182897 	1833.58 	2291.97 	0.35 	17.0603 	0.0817708 	8.74889e-05 	
0.00758237 	0.00189559 	4.00995e-05 	263.097 	0.032105 	5.04673e-05 	263.086 	263.086 	0 	
0.000699911 	8.23316e-09 	0.92 	0.04 	0.04 	0.0187873 	-9.31595e-09 	
-0.0187873 	-0.0352442 	0.0164569 	1.39504 	6.14485e-08 	11.1602 	1.39505 	
3.88975e-10 	182897 	1833.58 	2291.97 	0.35 	17.0603 	0.0817713 	8.74889e-05 	
0.00758237 	0.00189559 	4.01025e-05 	263.115 	0.0418834 	1.48434e-05 	263.102 	263.102 	0 	
0.0007874 	8.71767e-09 	0.92 	0.04 	0.04 	0.0187872 	-9.4324e-09 	