TITLE = "Solution on Domain BulkDomain1D_0"
VARIABLES = "x [m]"  
"Vel_axial" 
"MF_sp(ECDMC)" 
"MF_sp(Li+)" 
"MF_sp(PF6-)" 
"Volt(Electroly)" 
"Volt(AnodeVolt)" 
"Potential Drop Electrode-Electrolyte [V]" 
"Surf_0 Equilibrium Potential Drop Electrode-Electrolyte [V]" 
"Overpotential_0 [V]" 
"Current Source [A/m^2]" 
"Li+ flux [kmol/m^2/s]" 
"Electrolyte Current [A/m^2]" 
"Electrode Current [A/m^2]" 
"CV Capacity discharged [A-s/m^2]" 
"Depth of discharge in CV [A-s/m^2]" 
"CV Capacity remaining [A-s/m^2]" 
"Initial CV capacity [A-s/m^2]" 
"Porosity []" 
"Surface Area [m2/m2] (area per area)" 
"Specific current (per particle area) [A/m^2]" 
"Control volume thickness [m]" 
"MoleDens Li_C6-bulk [kmol/m^3]" 
"MoleDens V_C6-bulk [kmol/m^3]" 
"qHeat_accum [J/m3]" 
"qHeat_step [W/m3]" 
"Joule_Lyte [W/m3]" 
"Joule_Solid [W/m3]" 
"electrodHeat [W/m3]" 
"OverpotHeat [W/m3]" 
"deltaSHeat [W/m3]" 

ZONE T = "ANOD, 0.0000E+00", I = 10, SOLUTIONTIME = 0.000000E+00
ZONETYPE = ORDERED
DATAPACKING = BLOCK
STRANDID = 1
 0.0000000000000E+00  8.7488888888889E-05  1.7497777777778E-04  2.6246666666667E-04  3.4995555555556E-04  4.3744444444444E-04  5.2493333333333E-04  6.1242222222222E-04  6.9991111111111E-04  7.8740000000000E-04 
 0.0000000000000E+00  0.0000000000000E+00  0.0000000000000E+00  0.0000000000000E+00  0.0000000000000E+00  0.0000000000000E+00  0.0000000000000E+00  0.0000000000000E+00  0.0000000000000E+00  0.0000000000000E+00 
 9.2000000000000E-01  9.2000000000000E-01  9.2000000000000E-01  9.2000000000000E-01  9.2000000000000E-01  9.2000000000000E-01  9.2000000000000E-01  9.2000000000000E-01  9.2000000000000E-01  9.2000000000000E-01 
 4.0000000000000E-02  4.0000000000000E-02  4.0000000000000E-02  4.0000000000000E-02  4.0000000000000E-02  4.0000000000000E-02  4.0000000000000E-02  4.0000000000000E-02  4.0000000000000E-02  4.0000000000000E-02 
 4.0000000000000E-02  4.0000000000000E-02  4.0000000000000E-02  4.0000000000000E-02  4.0000000000000E-02  4.0000000000000E-02  4.0000000000000E-02  4.0000000000000E-02  4.0000000000000E-02  4.0000000000000E-02 
-7.0000000000000E-02 -7.0000000000000E-02 -7.0000000000000E-02 -7.0000000000000E-02 -7.0000000000000E-02 -7.0000000000000E-02 -7.0000000000000E-02 -7.0000000000000E-02 -7.0000000000000E-02 -7.0000000000000E-02 
 0.0000000000000E+00  0.0000000000000E+00  0.0000000000000E+00  0.0000000000000E+00  0.0000000000000E+00  0.0000000000000E+00  0.0000000000000E+00  0.0000000000000E+00  0.0000000000000E+00  0.0000000000000E+00 
 7.0000000000000E-02  7.0000000000000E-02  7.0000000000000E-02  7.0000000000000E-02  7.0000000000000E-02  7.0000000000000E-02  7.0000000000000E-02  7.0000000000000E-02  7.0000000000000E-02  7.0000000000000E-02 
-3.5244196601921E-02 -3.5244196601921E-02 -3.5244196601921E-02 -3.5244196601921E-02 -3.5244196601921E-02 -3.5244196601921E-02 -3.5244196601921E-02 -3.5244196601921E-02 -3.5244196601921E-02 -3.5244196601921E-02 
 1.0524419660192E-01  1.0524419660192E-01  1.0524419660192E-01  1.0524419660192E-01  1.0524419660192E-01  1.0524419660192E-01  1.0524419660192E-01  1.0524419660192E-01  1.0524419660192E-01  1.0524419660192E-01 
 8.4172715094840E+00  1.6834543018968E+01  1.6834543018968E+01  1.6834543018968E+01  1.6834543018968E+01  1.6834543018968E+01  1.6834543018968E+01  1.6834543018968E+01  1.6834543018968E+01  8.4172715094840E+00 
-0.0000000000000E+00 -0.0000000000000E+00 -0.0000000000000E+00 -0.0000000000000E+00 -0.0000000000000E+00 -0.0000000000000E+00 -0.0000000000000E+00 -0.0000000000000E+00 -0.0000000000000E+00 -0.0000000000000E+00 
 0.0000000000000E+00  0.0000000000000E+00  0.0000000000000E+00  0.0000000000000E+00  0.0000000000000E+00  0.0000000000000E+00  0.0000000000000E+00  0.0000000000000E+00  0.0000000000000E+00  8.4172715094840E+00 
 8.4172715094840E+00 -0.0000000000000E+00 -0.0000000000000E+00 -0.0000000000000E+00 -0.0000000000000E+00 -0.0000000000000E+00 -0.0000000000000E+00 -0.0000000000000E+00 -0.0000000000000E+00  0.0000000000000E+00 
 0.0000000000000E+00  0.0000000000000E+00  0.0000000000000E+00  0.0000000000000E+00  0.0000000000000E+00  0.0000000000000E+00  0.0000000000000E+00  0.0000000000000E+00  0.0000000000000E+00  0.0000000000000E+00 
 9.1448444543281E+04  1.8289688908656E+05  1.8289688908656E+05  1.8289688908656E+05  1.8289688908656E+05  1.8289688908656E+05  1.8289688908656E+05  1.8289688908656E+05  1.8289688908656E+05  9.1448444543281E+04 
 3.6579377817312E+05  7.3158755634625E+05  7.3158755634625E+05  7.3158755634625E+05  7.3158755634625E+05  7.3158755634625E+05  7.3158755634625E+05  7.3158755634625E+05  7.3158755634625E+05  3.6579377817312E+05 
 4.5724222271640E+05  9.1448444543281E+05  9.1448444543281E+05  9.1448444543281E+05  9.1448444543281E+05  9.1448444543281E+05  9.1448444543281E+05  9.1448444543281E+05  9.1448444543281E+05  4.5724222271640E+05 
 3.5000000000000E-01  3.5000000000000E-01  3.5000000000000E-01  3.5000000000000E-01  3.5000000000000E-01  3.5000000000000E-01  3.5000000000000E-01  3.5000000000000E-01  3.5000000000000E-01  3.5000000000000E-01 
 8.5301666666666E+00  1.7060333333333E+01  1.7060333333333E+01  1.7060333333333E+01  1.7060333333333E+01  1.7060333333333E+01  1.7060333333333E+01  1.7060333333333E+01  1.7060333333333E+01  8.5301666666666E+00 
 9.8676518741143E-01  9.8676518741143E-01  9.8676518741143E-01  9.8676518741143E-01  9.8676518741143E-01  9.8676518741143E-01  9.8676518741143E-01  9.8676518741143E-01  9.8676518741143E-01  9.8676518741143E-01 
 4.3744444444444E-05  8.7488888888889E-05  8.7488888888889E-05  8.7488888888889E-05  8.7488888888889E-05  8.7488888888889E-05  8.7488888888889E-05  8.7488888888889E-05  8.7488888888889E-05  4.3744444444444E-05 
 8.6666666666666E+01  8.6666666666666E+01  8.6666666666666E+01  8.6666666666666E+01  8.6666666666666E+01  8.6666666666666E+01  8.6666666666666E+01  8.6666666666666E+01  8.6666666666666E+01  8.6666666666666E+01 
 2.1666666666667E+01  2.1666666666667E+01  2.1666666666667E+01  2.1666666666667E+01  2.1666666666667E+01  2.1666666666667E+01  2.1666666666667E+01  2.1666666666667E+01  2.1666666666667E+01  2.1666666666667E+01 
 0.0000000000000E+00  0.0000000000000E+00  0.0000000000000E+00  0.0000000000000E+00  0.0000000000000E+00  0.0000000000000E+00  0.0000000000000E+00  0.0000000000000E+00  0.0000000000000E+00  0.0000000000000E+00 
 0.0000000000000E+00  0.0000000000000E+00  0.0000000000000E+00  0.0000000000000E+00  0.0000000000000E+00  0.0000000000000E+00  0.0000000000000E+00  0.0000000000000E+00  0.0000000000000E+00  0.0000000000000E+00 
 0.0000000000000E+00  0.0000000000000E+00  0.0000000000000E+00  0.0000000000000E+00  0.0000000000000E+00  0.0000000000000E+00  0.0000000000000E+00  0.0000000000000E+00  0.0000000000000E+00  0.0000000000000E+00 
 0.0000000000000E+00  0.0000000000000E+00  0.0000000000000E+00  0.0000000000000E+00  0.0000000000000E+00  0.0000000000000E+00  0.0000000000000E+00  0.0000000000000E+00  0.0000000000000E+00  0.0000000000000E+00 
 0.0000000000000E+00  0.0000000000000E+00  0.0000000000000E+00  0.0000000000000E+00  0.0000000000000E+00  0.0000000000000E+00  0.0000000000000E+00  0.0000000000000E+00  0.0000000000000E+00  0.0000000000000E+00 
 0.0000000000000E+00  0.0000000000000E+00  0.0000000000000E+00  0.0000000000000E+00  0.0000000000000E+00  0.0000000000000E+00  0.0000000000000E+00  0.0000000000000E+00  0.0000000000000E+00  0.0000000000000E+00 
 0.0000000000000E+00  0.0000000000000E+00  0.0000000000000E+00  0.0000000000000E+00  0.0000000000000E+00  0.0000000000000E+00  0.0000000000000E+00  0.0000000000000E+00  0.0000000000000E+00  0.0000000000000E+00 
ZONE T = "ANOD, 1.0000E-08", I = 10, SOLUTIONTIME = 1.000000E-08
ZONETYPE = ORDERED
DATAPACKING = BLOCK
STRANDID = 1
 0.0000000000000E+00  8.7488888888889E-05  1.7497777777778E-04  2.6246666666667E-04  3.4995555555556E-04  4.3744444444444E-04  5.2493333333333E-04  6.1242222222222E-04  6.9991111111111E-04  7.8740000000000E-04 
 4.8382293434363E-10  1.4514690713021E-09  2.4191162686728E-09  3.3867653185978E-09  4.3544170132206E-09  5.3220721446884E-09  6.2897315051513E-09  7.2573958867643E-09  8.2250660816876E-09  8.7081780664324E-09 
 9.1999999999971E-01  9.1999999999971E-01  9.1999999999971E-01  9.1999999999971E-01  9.1999999999971E-01  9.1999999999971E-01  9.1999999999971E-01  9.1999999999971E-01  9.1999999999971E-01  9.1999999999988E-01 
 4.0000000000145E-02  4.0000000000145E-02  4.0000000000145E-02  4.0000000000145E-02  4.0000000000145E-02  4.0000000000145E-02  4.0000000000145E-02  4.0000000000145E-02  4.0000000000145E-02  4.0000000000060E-02 
 4.0000000000145E-02  4.0000000000145E-02  4.0000000000145E-02  4.0000000000145E-02  4.0000000000145E-02  4.0000000000145E-02  4.0000000000145E-02  4.0000000000145E-02  4.0000000000145E-02  4.0000000000060E-02 
 1.8805417014501E-02  1.8805410628660E-02  1.8805391471132E-02  1.8805359541903E-02  1.8805314840949E-02  1.8805257368235E-02  1.8805187123716E-02  1.8805104107335E-02  1.8805008319027E-02  1.8804899758715E-02 
 0.0000000000000E+00 -1.9774685787413E-09 -3.7222963234537E-09 -5.2344829791937E-09 -6.5140281005715E-09 -7.5609310517505E-09 -8.3751910064468E-09 -8.9568069479282E-09 -9.3057776690132E-09 -9.4221017720697E-09 
-1.8805417014501E-02 -1.8805412606128E-02 -1.8805395193428E-02 -1.8805364776386E-02 -1.8805321354977E-02 -1.8805264929166E-02 -1.8805195498907E-02 -1.8805113064142E-02 -1.8805017624805E-02 -1.8804909180817E-02 
-3.5244196601715E-02 -3.5244196601720E-02 -3.5244196601715E-02 -3.5244196601715E-02 -3.5244196601720E-02 -3.5244196601715E-02 -3.5244196601715E-02 -3.5244196601720E-02 -3.5244196601720E-02 -3.5244196601773E-02 
 1.6438779587213E-02  1.6438783995592E-02  1.6438801408287E-02  1.6438831825329E-02  1.6438875246743E-02  1.6438931672549E-02  1.6439001102808E-02  1.6439083537578E-02  1.6439178976915E-02  1.6439287420956E-02 
 6.9672819647867E-01  1.3934567800178E+00  1.3934583088740E+00  1.3934609795276E+00  1.3934647919815E+00  1.3934697462395E+00  1.3934758423071E+00  1.3934830801910E+00  1.3934914598985E+00  6.9675049071936E-01 
 3.6106189102623E-09  1.0831858742662E-08  1.8053106483595E-08  2.5274368048641E-08  3.2495649351911E-08  3.9716956301632E-08  4.6938294815051E-08  5.4159670795885E-08  6.1381120264703E-08  6.1381120264703E-08 
 0.0000000000000E+00  1.3934873156522E+00  2.7869755882608E+00  4.1804659581862E+00  5.5739595661674E+00  6.9674575533218E+00  8.3609610601991E+00  9.7544712273491E+00  1.1147989195883E+01  1.2541500763924E+01 
 1.2541500741589E+01  1.1148028790645E+01  9.7545405181769E+00  8.3610501482568E+00  6.9675565401360E+00  5.5740585530622E+00  4.1805550462783E+00  2.7870448790213E+00  1.3935269105213E+00  0.0000000000000E+00 
 6.9672819647867E-09  1.3934567800178E-08  1.3934583088740E-08  1.3934609795276E-08  1.3934647919815E-08  1.3934697462395E-08  1.3934758423071E-08  1.3934830801910E-08  1.3934914598985E-08  6.9675049071936E-09 
 9.1448444543288E+04  1.8289688908658E+05  1.8289688908658E+05  1.8289688908658E+05  1.8289688908658E+05  1.8289688908658E+05  1.8289688908658E+05  1.8289688908658E+05  1.8289688908658E+05  9.1448444543288E+04 
 3.6579377817312E+05  7.3158755634623E+05  7.3158755634623E+05  7.3158755634623E+05  7.3158755634623E+05  7.3158755634623E+05  7.3158755634623E+05  7.3158755634623E+05  7.3158755634623E+05  3.6579377817312E+05 
 4.5724222271640E+05  9.1448444543281E+05  9.1448444543281E+05  9.1448444543281E+05  9.1448444543281E+05  9.1448444543281E+05  9.1448444543281E+05  9.1448444543281E+05  9.1448444543281E+05  4.5724222271640E+05 
 3.5000000000000E-01  3.5000000000000E-01  3.5000000000000E-01  3.5000000000000E-01  3.5000000000000E-01  3.5000000000000E-01  3.5000000000000E-01  3.5000000000000E-01  3.5000000000000E-01  3.5000000000000E-01 
 8.5301666666666E+00  1.7060333333333E+01  1.7060333333333E+01  1.7060333333333E+01  1.7060333333333E+01  1.7060333333333E+01  1.7060333333333E+01  1.7060333333333E+01  1.7060333333333E+01  8.5301666666666E+00 
 8.1678145774253E-02  8.1678168461996E-02  8.1678258076670E-02  8.1678414618369E-02  8.1678638087269E-02  8.1678928483586E-02  8.1679285807650E-02  8.1679710059845E-02  8.1680201240606E-02  8.1680759350465E-02 
 4.3744444444444E-05  8.7488888888889E-05  8.7488888888889E-05  8.7488888888889E-05  8.7488888888889E-05  8.7488888888889E-05  8.7488888888889E-05  8.7488888888889E-05  8.7488888888889E-05  4.3744444444444E-05 
 8.6666666666665E+01  8.6666666666665E+01  8.6666666666665E+01  8.6666666666665E+01  8.6666666666665E+01  8.6666666666665E+01  8.6666666666665E+01  8.6666666666665E+01  8.6666666666665E+01  8.6666666666665E+01 
 2.1666666666668E+01  2.1666666666668E+01  2.1666666666668E+01  2.1666666666668E+01  2.1666666666668E+01  2.1666666666668E+01  2.1666666666668E+01  2.1666666666668E+01  2.1666666666668E+01  2.1666666666668E+01 
-2.9309915824619E-05 -2.9309921526119E-05 -2.9309945363813E-05 -2.9309987004210E-05 -2.9310046447315E-05 -2.9310123693121E-05 -2.9310218741635E-05 -2.9310331592858E-05 -2.9310462246787E-05 -2.9310629012194E-05 
-2.9309915824619E+03 -2.9309921526119E+03 -2.9309945363813E+03 -2.9309987004210E+03 -2.9310046447315E+03 -2.9310123693121E+03 -2.9310218741635E+03 -2.9310331592858E+03 -2.9310462246787E+03 -2.9310629012194E+03 
 5.0855531989969E-05  2.5427774458043E-04  8.6454496799679E-04  1.8816590391638E-03  3.3056231274391E-03  5.1364417347297E-03  7.3741206947002E-03  1.0018667173033E-02  1.3070089668845E-02  1.4697521066938E-02 
 2.6772160245444E-04  2.3807799000753E-04  1.8249614749056E-04  1.3432506522551E-04  9.3564746342283E-05  6.0215218237752E-05  3.4276532575985E-05  1.5748765288585E-05  4.6320165751068E-06  9.2641090355303E-07 
-2.9309919010391E+03 -2.9309926449676E+03 -2.9309955834224E+03 -2.9310007164051E+03 -2.9310080439194E+03 -2.9310175659691E+03 -2.9310292825607E+03 -2.9310431937017E+03 -2.9310592994004E+03 -2.9310775996669E+03 
 2.6182436191913E+02  2.6182450485933E+02  2.6182506946141E+02  2.6182605572728E+02  2.6182746366030E+02  2.6182929326506E+02  2.6183154454783E+02  2.6183421751620E+02  2.6183731217904E+02  2.6184082854680E+02 
-3.1928162629582E+03 -3.1928171498269E+03 -3.1928206528838E+03 -3.1928267721324E+03 -3.1928355075797E+03 -3.1928468592342E+03 -3.1928608271086E+03 -3.1928774112179E+03 -3.1928966115794E+03 -3.1929184282137E+03 
ZONE T = "ANOD, 2.0000E-08", I = 10, SOLUTIONTIME = 2.000000E-08
ZONETYPE = ORDERED
DATAPACKING = BLOCK
STRANDID = 1
 0.0000000000000E+00  8.7488888888889E-05  1.7497777777778E-04  2.6246666666667E-04  3.4995555555556E-04  4.3744444444444E-04  5.2493333333333E-04  6.1242222222222E-04  6.9991111111111E-04  7.8740000000000E-04 
 4.8452141115173E-10  1.4542909179929E-09  2.4233350722487E-09  3.3927442908911E-09  4.3625193677110E-09  5.3322978887746E-09  6.3020806478791E-09  7.2718684388261E-09  8.2416620554232E-09  8.7252909464074E-09 
 9.1999999999942E-01  9.1999999999942E-01  9.1999999999942E-01  9.1999999999942E-01  9.1999999999942E-01  9.1999999999942E-01  9.1999999999942E-01  9.1999999999942E-01  9.1999999999942E-01  9.1999999999976E-01 
 4.0000000000291E-02  4.0000000000291E-02  4.0000000000291E-02  4.0000000000291E-02  4.0000000000291E-02  4.0000000000291E-02  4.0000000000291E-02  4.0000000000291E-02  4.0000000000291E-02  4.0000000000120E-02 
 4.0000000000291E-02  4.0000000000291E-02  4.0000000000291E-02  4.0000000000291E-02  4.0000000000291E-02  4.0000000000291E-02  4.0000000000291E-02  4.0000000000291E-02  4.0000000000291E-02  4.0000000000120E-02 
 1.8788118889424E-02  1.8788112496760E-02  1.8788093318766E-02  1.8788061355426E-02  1.8788016606718E-02  1.8787959072605E-02  1.8787888753042E-02  1.8787805647974E-02  1.8787709757334E-02  1.8787601081044E-02 
 0.0000000000000E+00 -1.9795811532055E-09 -3.7262729396955E-09 -5.2400751039353E-09 -6.5209871995483E-09 -7.5690085893152E-09 -8.3841384451732E-09 -8.9663757482154E-09 -9.3157192886895E-09 -9.4321676659967E-09 
-1.8788118889424E-02 -1.8788114476341E-02 -1.8788097045038E-02 -1.8788066595501E-02 -1.8788023127705E-02 -1.8787966641614E-02 -1.8787897137181E-02 -1.8787814614350E-02 -1.8787719073053E-02 -1.8787610513212E-02 
-3.5244196601509E-02 -3.5244196601512E-02 -3.5244196601509E-02 -3.5244196601509E-02 -3.5244196601509E-02 -3.5244196601510E-02 -3.5244196601510E-02 -3.5244196601509E-02 -3.5244196601509E-02 -3.5244196601616E-02 
 1.6456077712086E-02  1.6456082125170E-02  1.6456099556471E-02  1.6456130006008E-02  1.6456173473804E-02  1.6456229959897E-02  1.6456299464329E-02  1.6456381987160E-02  1.6456477528457E-02  1.6456586088404E-02 
 6.9748763632554E-01  1.3949756601675E+00  1.3949771908254E+00  1.3949798646261E+00  1.3949836815723E+00  1.3949886416687E+00  1.3949947449199E+00  1.3950019913324E+00  1.3950103809146E+00  6.9750995683910E-01 
 3.6144761693762E-09  1.0843430532947E-08  1.8072392817903E-08  2.5301368958358E-08  3.2530364882742E-08  3.9759386506248E-08  4.6988439762111E-08  5.4217530565817E-08  6.1446725084396E-08  6.1446725084396E-08 
 0.0000000000000E+00  1.3949759926747E+00  2.7899529445771E+00  4.1849319987173E+00  5.5799142979163E+00  6.9749009855629E+00  8.3698932048565E+00  9.7648920988073E+00  1.1159898810602E+01  1.2554914220744E+01 
 1.2554914220181E+01  1.1159938490599E+01  9.7649615387780E+00  8.3699824847795E+00  6.9750001854832E+00  5.5800134977650E+00  4.1850212784960E+00  2.7900223845418E+00  1.3950156727604E+00  0.0000000000000E+00 
 1.3942158328042E-08  2.7884324401853E-08  2.7884354996994E-08  2.7884408441536E-08  2.7884484735538E-08  2.7884583879081E-08  2.7884705872270E-08  2.7884850715234E-08  2.7885018408131E-08  1.3942604475585E-08 
 9.1448444543295E+04  1.8289688908659E+05  1.8289688908659E+05  1.8289688908659E+05  1.8289688908659E+05  1.8289688908659E+05  1.8289688908659E+05  1.8289688908659E+05  1.8289688908659E+05  9.1448444543295E+04 
 3.6579377817311E+05  7.3158755634622E+05  7.3158755634622E+05  7.3158755634622E+05  7.3158755634622E+05  7.3158755634622E+05  7.3158755634622E+05  7.3158755634622E+05  7.3158755634622E+05  3.6579377817311E+05 
 4.5724222271640E+05  9.1448444543281E+05  9.1448444543281E+05  9.1448444543281E+05  9.1448444543281E+05  9.1448444543281E+05  9.1448444543281E+05  9.1448444543281E+05  9.1448444543281E+05  4.5724222271640E+05 
 3.5000000000000E-01  3.5000000000000E-01  3.5000000000000E-01  3.5000000000000E-01  3.5000000000000E-01  3.5000000000000E-01  3.5000000000000E-01  3.5000000000000E-01  3.5000000000000E-01  3.5000000000000E-01 
 8.5301666666666E+00  1.7060333333333E+01  1.7060333333333E+01  1.7060333333333E+01  1.7060333333333E+01  1.7060333333333E+01  1.7060333333333E+01  1.7060333333333E+01  1.7060333333333E+01  8.5301666666666E+00 
 8.1767175669745E-02  8.1767198384216E-02  8.1767288104498E-02  8.1767444830664E-02  8.1767668562882E-02  8.1767959301421E-02  8.1768317046554E-02  8.1768741798663E-02  8.1769233558230E-02  8.1769792325954E-02 
 4.3744444444444E-05  8.7488888888889E-05  8.7488888888889E-05  8.7488888888889E-05  8.7488888888889E-05  8.7488888888889E-05  8.7488888888889E-05  8.7488888888889E-05  8.7488888888889E-05  4.3744444444444E-05 
 8.6666666666663E+01  8.6666666666663E+01  8.6666666666663E+01  8.6666666666663E+01  8.6666666666663E+01  8.6666666666663E+01  8.6666666666663E+01  8.6666666666663E+01  8.6666666666663E+01  8.6666666666663E+01 
 2.1666666666670E+01  2.1666666666670E+01  2.1666666666670E+01  2.1666666666670E+01  2.1666666666670E+01  2.1666666666670E+01  2.1666666666670E+01  2.1666666666670E+01  2.1666666666670E+01  2.1666666666670E+01 
-5.8649021594592E-05 -5.8649033001185E-05 -5.8649080693596E-05 -5.8649164004125E-05 -5.8649282932776E-05 -5.8649437479551E-05 -5.8649627644448E-05 -5.8649853427466E-05 -5.8650114828616E-05 -5.8650448504642E-05 
-2.9339105769973E+03 -2.9339111475066E+03 -2.9339135329784E+03 -2.9339176999915E+03 -2.9339236485460E+03 -2.9339313786430E+03 -2.9339408902813E+03 -2.9339521834608E+03 -2.9339652581829E+03 -2.9339819492447E+03 
 1.0181978099765E-04  5.0909907450577E-04  1.7309381283840E-03  3.7673406227040E-03  6.6183129062878E-03  1.0283863997274E-02  1.4764005582003E-02  2.0058752014957E-02  2.6168120320893E-02  2.9426462237252E-02 
 5.3601553656452E-04  4.7666494028608E-04  3.6538243367788E-04  2.6893728995227E-04  1.8732951538473E-04  1.2055916486109E-04  6.8626341878035E-05  3.1531198543770E-05  9.2739355788098E-06  1.8548023170206E-06 
-2.9339108962555E+03 -2.9339116409149E+03 -2.9339145822578E+03 -2.9339197202853E+03 -2.9339270550006E+03 -2.9339365864092E+03 -2.9339483145160E+03 -2.9339622393281E+03 -2.9339783608555E+03 -2.9339966791143E+03 
 2.6238556443967E+02  2.6238570769376E+02  2.6238627353595E+02  2.6238726196798E+02  2.6238867299319E+02  2.6239050661652E+02  2.6239276284387E+02  2.6239544168283E+02  2.6239854314260E+02  2.6240206723495E+02 
-3.1962964606952E+03 -3.1962973486087E+03 -3.1963008557938E+03 -3.1963069822533E+03 -3.1963157279938E+03 -3.1963270930257E+03 -3.1963410773598E+03 -3.1963576810110E+03 -3.1963769039981E+03 -3.1963987463493E+03 
ZONE T = "ANOD, 3.0000E-08", I = 10, SOLUTIONTIME = 3.000000E-08
ZONETYPE = ORDERED
DATAPACKING = BLOCK
STRANDID = 1
 0.0000000000000E+00  8.7488888888889E-05  1.7497777777778E-04  2.6246666666667E-04  3.4995555555556E-04  4.3744444444444E-04  5.2493333333333E-04  6.1242222222222E-04  6.9991111111111E-04  7.8740000000000E-04 
 4.8399963637296E-10  1.4516359705101E-09  2.4196365753555E-09  3.3876390370440E-09  4.3552809417122E-09  5.3229262909557E-09  6.2905758786453E-09  7.2582304986563E-09  8.2258909448699E-09  8.7102692896155E-09 
 9.1999999999913E-01  9.1999999999913E-01  9.1999999999913E-01  9.1999999999913E-01  9.1999999999913E-01  9.1999999999913E-01  9.1999999999913E-01  9.1999999999913E-01  9.1999999999913E-01  9.1999999999964E-01 
 4.0000000000436E-02  4.0000000000436E-02  4.0000000000436E-02  4.0000000000436E-02  4.0000000000436E-02  4.0000000000436E-02  4.0000000000436E-02  4.0000000000436E-02  4.0000000000436E-02  4.0000000000181E-02 
 4.0000000000436E-02  4.0000000000436E-02  4.0000000000436E-02  4.0000000000436E-02  4.0000000000436E-02  4.0000000000436E-02  4.0000000000436E-02  4.0000000000436E-02  4.0000000000436E-02  4.0000000000181E-02 
 1.8787351658922E-02  1.8787345265955E-02  1.8787326087048E-02  1.8787294122188E-02  1.8787249371352E-02  1.8787191834502E-02  1.8787121511595E-02  1.8787038402574E-02  1.8786942507373E-02  1.8786833825914E-02 
 0.0000000000000E+00 -1.9796753097872E-09 -3.7264501758599E-09 -5.2403243426568E-09 -6.5212973637572E-09 -7.5693686018795E-09 -8.3845372288815E-09 -8.9668022257587E-09 -9.3161623826437E-09 -9.4326162988050E-09 
-1.8787351658922E-02 -1.8787347245630E-02 -1.8787329813498E-02 -1.8787299362513E-02 -1.8787255892649E-02 -1.8787199403871E-02 -1.8787129896132E-02 -1.8787047369376E-02 -1.8786951823535E-02 -1.8786843258530E-02 
-3.5244196601305E-02 -3.5244196601304E-02 -3.5244196601305E-02 -3.5244196601305E-02 -3.5244196601300E-02 -3.5244196601301E-02 -3.5244196601301E-02 -3.5244196601300E-02 -3.5244196601300E-02 -3.5244196601460E-02 
 1.6456844942382E-02  1.6456849355674E-02  1.6456866787807E-02  1.6456897238792E-02  1.6456940708652E-02  1.6456997197430E-02  1.6457066705169E-02  1.6457149231924E-02  1.6457244777766E-02  1.6457353342930E-02 
 6.9752132198566E-01  1.3950430315082E+00  1.3950445622463E+00  1.3950472361871E+00  1.3950510533337E+00  1.3950560136903E+00  1.3950621172616E+00  1.3950693640540E+00  1.3950777540762E+00  6.9754364367145E-01 
 3.6146480853598E-09  1.0843946284821E-08  1.8073252399783E-08  2.5302572378090E-08  3.2531912140326E-08  3.9761277601685E-08  4.6990674700992E-08  5.4220109350690E-08  6.1449677859762E-08  6.1449677859762E-08 
 0.0000000000000E+00  1.3950423425394E+00  2.7900856441171E+00  4.1851310481219E+00  5.5801796979427E+00  6.9752327362110E+00  8.3702913068834E+00  9.7653565527809E+00  1.1160429617084E+01  1.2555511890687E+01 
 1.2555511891184E+01  1.1160469301070E+01  9.7654259994253E+00  8.3703805953913E+00  6.9753319457413E+00  5.5802789072450E+00  4.1852203366673E+00  2.7901550907678E+00  1.3950820262986E+00  0.0000000000000E+00 
 2.0917371547899E-08  4.1834754716935E-08  4.1834800619457E-08  4.1834880803408E-08  4.1834995268875E-08  4.1835144015984E-08  4.1835327044886E-08  4.1835544355774E-08  4.1835795948892E-08  2.0918040912299E-08 
 9.1448444543302E+04  1.8289688908660E+05  1.8289688908660E+05  1.8289688908660E+05  1.8289688908660E+05  1.8289688908660E+05  1.8289688908660E+05  1.8289688908660E+05  1.8289688908660E+05  9.1448444543302E+04 
 3.6579377817310E+05  7.3158755634620E+05  7.3158755634620E+05  7.3158755634620E+05  7.3158755634620E+05  7.3158755634620E+05  7.3158755634620E+05  7.3158755634620E+05  7.3158755634620E+05  3.6579377817310E+05 
 4.5724222271640E+05  9.1448444543281E+05  9.1448444543281E+05  9.1448444543281E+05  9.1448444543281E+05  9.1448444543281E+05  9.1448444543281E+05  9.1448444543281E+05  9.1448444543281E+05  4.5724222271640E+05 
 3.5000000000000E-01  3.5000000000000E-01  3.5000000000000E-01  3.5000000000000E-01  3.5000000000000E-01  3.5000000000000E-01  3.5000000000000E-01  3.5000000000000E-01  3.5000000000000E-01  3.5000000000000E-01 
 8.5301666666666E+00  1.7060333333333E+01  1.7060333333333E+01  1.7060333333333E+01  1.7060333333333E+01  1.7060333333333E+01  1.7060333333333E+01  1.7060333333333E+01  1.7060333333333E+01  8.5301666666666E+00 
 8.1771124673492E-02  8.1771147389162E-02  8.1771237114141E-02  8.1771393848526E-02  8.1771617592485E-02  8.1771908346278E-02  8.1772266110173E-02  8.1772690884549E-02  8.1773182669907E-02  8.1773741467121E-02 
 4.3744444444444E-05  8.7488888888889E-05  8.7488888888889E-05  8.7488888888889E-05  8.7488888888889E-05  8.7488888888889E-05  8.7488888888889E-05  8.7488888888889E-05  8.7488888888889E-05  4.3744444444444E-05 
 8.6666666666661E+01  8.6666666666661E+01  8.6666666666661E+01  8.6666666666661E+01  8.6666666666661E+01  8.6666666666661E+01  8.6666666666661E+01  8.6666666666661E+01  8.6666666666661E+01  8.6666666666661E+01 
 2.1666666666672E+01  2.1666666666672E+01  2.1666666666672E+01  2.1666666666672E+01  2.1666666666672E+01  2.1666666666672E+01  2.1666666666672E+01  2.1666666666672E+01  2.1666666666672E+01  2.1666666666672E+01 
-8.7989421979619E-05 -8.7989439091469E-05 -8.7989510639354E-05 -8.7989635621339E-05 -8.7989814037429E-05 -8.7990045887636E-05 -8.7990331171940E-05 -8.7990669890345E-05 -8.7991062042874E-05 -8.7991562636057E-05 
-2.9340400385027E+03 -2.9340406090284E+03 -2.9340429945757E+03 -2.9340471617214E+03 -2.9340531104654E+03 -2.9340608408084E+03 -2.9340703527493E+03 -2.9340816462879E+03 -2.9340947214259E+03 -2.9341114131415E+03 
 1.5278887816401E-04  7.6394464539454E-04  2.5974137078173E-03  5.6532015892361E-03  9.9313178186147E-03  1.5431775930206E-02  2.2154593464742E-02  3.0099791965875E-02  3.9267396985176E-02  4.4156804569442E-02 
 8.0433499348830E-04  7.1527458736665E-04  5.4828611788513E-04  4.0356232039883E-04  2.8110320432952E-04  1.8090885205615E-04  1.0297941891557E-04  4.7315133203541E-05  1.3916296175925E-05  2.7832820502556E-06 
-2.9340403577913E+03 -2.9340411024836E+03 -2.9340440439550E+03 -2.9340491822074E+03 -2.9340565172440E+03 -2.9340660490700E+03 -2.9340777776902E+03 -2.9340917031118E+03 -2.9341078253449E+03 -2.9341261444123E+03 
 2.6241047030704E+02  2.6241061357515E+02  2.6241117947245E+02  2.6241216800085E+02  2.6241357916368E+02  2.6241541296581E+02  2.6241766941313E+02  2.6242034851321E+02  2.6242345027536E+02  2.6242697471274E+02 
-3.1964508280983E+03 -3.1964517160587E+03 -3.1964552234274E+03 -3.1964613502082E+03 -3.1964700964077E+03 -3.1964814620359E+03 -3.1964954471033E+03 -3.1965120516250E+03 -3.1965312756202E+03 -3.1965531191251E+03 
ZONE T = "ANOD, 4.0000E-08", I = 10, SOLUTIONTIME = 4.000000E-08
ZONETYPE = ORDERED
DATAPACKING = BLOCK
STRANDID = 1
 0.0000000000000E+00  8.7488888888889E-05  1.7497777777778E-04  2.6246666666667E-04  3.4995555555556E-04  4.3744444444444E-04  5.2493333333333E-04  6.1242222222222E-04  6.9991111111111E-04  7.8740000000000E-04 
 4.8435235828929E-10  1.4534205516976E-09  2.4221266003087E-09  3.3908345056789E-09  4.3595450616391E-09  5.3282590620238E-09  6.2977037161258E-09  7.2667901946031E-09  8.2358824990315E-09  8.7209767727431E-09 
 9.1999999999884E-01  9.1999999999884E-01  9.1999999999884E-01  9.1999999999884E-01  9.1999999999884E-01  9.1999999999884E-01  9.1999999999884E-01  9.1999999999884E-01  9.1999999999884E-01  9.1999999999952E-01 
 4.0000000000582E-02  4.0000000000582E-02  4.0000000000582E-02  4.0000000000582E-02  4.0000000000582E-02  4.0000000000582E-02  4.0000000000582E-02  4.0000000000582E-02  4.0000000000582E-02  4.0000000000241E-02 
 4.0000000000582E-02  4.0000000000582E-02  4.0000000000582E-02  4.0000000000582E-02  4.0000000000582E-02  4.0000000000582E-02  4.0000000000582E-02  4.0000000000582E-02  4.0000000000582E-02  4.0000000000241E-02 
 1.8787700844211E-02  1.8787694451381E-02  1.8787675272890E-02  1.8787643308722E-02  1.8787598558854E-02  1.8787541023251E-02  1.8787470701866E-02  1.8787387594644E-02  1.8787291701519E-02  1.8787183022413E-02 
 0.0000000000000E+00 -1.9796324519419E-09 -3.7263695021568E-09 -5.2402108950957E-09 -6.5211561843576E-09 -7.5692047326897E-09 -8.3843557119856E-09 -8.9666081032854E-09 -9.3159606967741E-09 -9.4324120917805E-09 
-1.8787700844211E-02 -1.8787696431014E-02 -1.8787678999259E-02 -1.8787648548933E-02 -1.8787605080010E-02 -1.8787548592455E-02 -1.8787479086221E-02 -1.8787396561252E-02 -1.8787301017479E-02 -1.8787192454825E-02 
-3.5244196601099E-02 -3.5244196601097E-02 -3.5244196601099E-02 -3.5244196601099E-02 -3.5244196601093E-02 -3.5244196601096E-02 -3.5244196601096E-02 -3.5244196601093E-02 -3.5244196601093E-02 -3.5244196601306E-02 
 1.6456495756888E-02  1.6456500170084E-02  1.6456517601840E-02  1.6456548052166E-02  1.6456591521083E-02  1.6456648008641E-02  1.6456717514875E-02  1.6456800039841E-02  1.6456895583614E-02  1.6457004146481E-02 
 6.9750599079102E-01  1.3950123691092E+00  1.3950138998112E+00  1.3950165736882E+00  1.3950203907432E+00  1.3950253509818E+00  1.3950314544074E+00  1.3950387010265E+00  1.3950470908484E+00  6.9752831194538E-01 