TITLE = "Solution on Domain BulkDomain1D_2"
VARIABLES = "x [m]"  
"Vel_axial" 	"MF_sp(ECDMC)" 	"MF_sp(Li+)" 	"MF_sp(PF6-)" 	"Volt(Electroly)" 	"Volt(CathodeVo)" 	
"Potential Drop Electrode-Electrolyte [V]" 	"Surf_0 Equilibrium Potential Drop Electrode-Electrolyte [V]" 	"Overpotential_0 [V]" 	"Current Source [A/m^2]" 	"Li+ flux [kmol/m^2/s]" 	"Electrolyte Current [A/m^2]" 	"Electrode Current [A/m^2]" 	
"Capacity discharged [A-s]" 	"Depth of discharge [-]" 	"Capacity remaining [A-s]" 	"Initial capacity [A-s]" 	"Porosity []" 	"Surface Area [m2/m2] (area per area)" 	"Specific current (per particle area) [A/m^2]" 	"Control volume thickness [m]" 	
"Moles LiCoO2 [mol/m^2] (per electrode area)" 	"Moles CoO2 [mol/m^2] (per electrode area)" 	"qHeat_accum [J/m3]" 	"qHeat_step [W/m3]" 	"Joule_Lyte [W/m3]" 	"Joule_Solid [W/m3]" 	"electrodHeat [W/m3]" 	"OverpotHeat [W/m3]" 	"deltaSHeat [W/m3]" 	

ZONE T = "t = 0 [s]" I = 10 SOLUTIONTIME = 0.0000000000000E+00
0.00127 	0 	0.92 	0.04 	0.04 	-0.07 	3.8 	
0 	0 	0 	0 	0 	0.0583181 	0 	
0 	0 	0 	0 	0.35 	6.604 	-0.0176614 	3.38667e-05 	
0.000900955 	0.000600637 	0 	0.0 	 0.0 	 0.0 	 0.0 	 0.0 	 0.0 	 
0.00133773 	0 	0.92 	0.04 	0.04 	-0.07 	3.8 	
0 	0 	0 	0 	0 	0 	-0 	
0 	0 	0 	0 	0.35 	13.208 	-0.0176614 	6.77333e-05 	
0.00180191 	0.00120127 	0 	0.0 	 0.0 	 0.0 	 0.0 	 0.0 	 0.0 	 
0.00140547 	0 	0.92 	0.04 	0.04 	-0.07 	3.8 	
0 	0 	0 	0 	0 	0 	-0 	
0 	0 	0 	0 	0.35 	13.208 	-0.0176614 	6.77333e-05 	
0.00180191 	0.00120127 	0 	0.0 	 0.0 	 0.0 	 0.0 	 0.0 	 0.0 	 
0.0014732 	0 	0.92 	0.04 	0.04 	-0.07 	3.8 	
0 	0 	0 	0 	0 	0 	-0 	
0 	0 	0 	0 	0.35 	13.208 	-0.0176614 	6.77333e-05 	
0.00180191 	0.00120127 	0 	0.0 	 0.0 	 0.0 	 0.0 	 0.0 	 0.0 	 
0.00154093 	0 	0.92 	0.04 	0.04 	-0.07 	3.8 	
0 	0 	0 	0 	0 	0 	-0 	
0 	0 	0 	0 	0.35 	13.208 	-0.0176614 	6.77333e-05 	
0.00180191 	0.00120127 	0 	0.0 	 0.0 	 0.0 	 0.0 	 0.0 	 0.0 	 
0.00160867 	0 	0.92 	0.04 	0.04 	-0.07 	3.8 	
0 	0 	0 	0 	0 	0 	-0 	
0 	0 	0 	0 	0.35 	13.208 	-0.0176614 	6.77333e-05 	
0.00180191 	0.00120127 	0 	0.0 	 0.0 	 0.0 	 0.0 	 0.0 	 0.0 	 
0.0016764 	0 	0.92 	0.04 	0.04 	-0.07 	3.8 	
0 	0 	0 	0 	0 	0 	-0 	
0 	0 	0 	0 	0.35 	13.208 	-0.0176614 	6.77333e-05 	
0.00180191 	0.00120127 	0 	0.0 	 0.0 	 0.0 	 0.0 	 0.0 	 0.0 	 
0.00174413 	0 	0.92 	0.04 	0.04 	-0.07 	3.8 	
0 	0 	0 	0 	0 	0 	-0 	
0 	0 	0 	0 	0.35 	13.208 	-0.0176614 	6.77333e-05 	
0.00180191 	0.00120127 	0 	0.0 	 0.0 	 0.0 	 0.0 	 0.0 	 0.0 	 
0.00181187 	0 	0.92 	0.04 	0.04 	-0.07 	3.8 	
0 	0 	0 	0 	0 	0 	-0 	
0 	0 	0 	0 	0.35 	13.208 	-0.0176614 	6.77333e-05 	
0.00180191 	0.00120127 	0 	0.0 	 0.0 	 0.0 	 0.0 	 0.0 	 0.0 	 
0.0018796 	0 	0.92 	0.04 	0.04 	-0.07 	3.8 	
0 	0 	0 	0 	0 	0 	0.0583181 	
0 	0 	0 	0 	0.35 	6.604 	-0.0176614 	3.38667e-05 	
0.000900955 	0.000600637 	0 	0.0 	 0.0 	 0.0 	 0.0 	 0.0 	 0.0 	 
ZONE T = "t = 0 [s]" I = 10 SOLUTIONTIME = 0.0000000000000E+00
0.00127 	0 	0.92 	0.04 	0.04 	-0.07 	3.8 	
0 	0 	0 	0 	0 	0.0583181 	0 	
0 	0 	0 	0 	0.35 	6.604 	-0.0176614 	3.38667e-05 	
0.000900955 	0.000600637 	0 	0.0 	 0.0 	 0.0 	 0.0 	 0.0 	 0.0 	 
0.00133773 	0 	0.92 	0.04 	0.04 	-0.07 	3.8 	
0 	0 	0 	0 	0 	0 	-0 	
0 	0 	0 	0 	0.35 	13.208 	-0.0176614 	6.77333e-05 	
0.00180191 	0.00120127 	0 	0.0 	 0.0 	 0.0 	 0.0 	 0.0 	 0.0 	 
0.00140547 	0 	0.92 	0.04 	0.04 	-0.07 	3.8 	
0 	0 	0 	0 	0 	0 	-0 	
0 	0 	0 	0 	0.35 	13.208 	-0.0176614 	6.77333e-05 	
0.00180191 	0.00120127 	0 	0.0 	 0.0 	 0.0 	 0.0 	 0.0 	 0.0 	 
0.0014732 	0 	0.92 	0.04 	0.04 	-0.07 	3.8 	
0 	0 	0 	0 	0 	0 	-0 	
0 	0 	0 	0 	0.35 	13.208 	-0.0176614 	6.77333e-05 	
0.00180191 	0.00120127 	0 	0.0 	 0.0 	 0.0 	 0.0 	 0.0 	 0.0 	 
0.00154093 	0 	0.92 	0.04 	0.04 	-0.07 	3.8 	
0 	0 	0 	0 	0 	0 	-0 	
0 	0 	0 	0 	0.35 	13.208 	-0.0176614 	6.77333e-05 	
0.00180191 	0.00120127 	0 	0.0 	 0.0 	 0.0 	 0.0 	 0.0 	 0.0 	 
0.00160867 	0 	0.92 	0.04 	0.04 	-0.07 	3.8 	
0 	0 	0 	0 	0 	0 	-0 	
0 	0 	0 	0 	0.35 	13.208 	-0.0176614 	6.77333e-05 	
0.00180191 	0.00120127 	0 	0.0 	 0.0 	 0.0 	 0.0 	 0.0 	 0.0 	 
0.0016764 	0 	0.92 	0.04 	0.04 	-0.07 	3.8 	
0 	0 	0 	0 	0 	0 	-0 	
0 	0 	0 	0 	0.35 	13.208 	-0.0176614 	6.77333e-05 	
0.00180191 	0.00120127 	0 	0.0 	 0.0 	 0.0 	 0.0 	 0.0 	 0.0 	 
0.00174413 	0 	0.92 	0.04 	0.04 	-0.07 	3.8 	
0 	0 	0 	0 	0 	0 	-0 	
0 	0 	0 	0 	0.35 	13.208 	-0.0176614 	6.77333e-05 	
0.00180191 	0.00120127 	0 	0.0 	 0.0 	 0.0 	 0.0 	 0.0 	 0.0 	 
0.00181187 	0 	0.92 	0.04 	0.04 	-0.07 	3.8 	
0 	0 	0 	0 	0 	0 	-0 	
0 	0 	0 	0 	0.35 	13.208 	-0.0176614 	6.77333e-05 	
0.00180191 	0.00120127 	0 	0.0 	 0.0 	 0.0 	 0.0 	 0.0 	 0.0 	 
0.0018796 	0 	0.92 	0.04 	0.04 	-0.07 	3.8 	
0 	0 	0 	0 	0 	0 	0.0583181 	
0 	0 	0 	0 	0.35 	6.604 	-0.0176614 	3.38667e-05 	
0.000900955 	0.000600637 	0 	0.0 	 0.0 	 0.0 	 0.0 	 0.0 	 0.0 	 
ZONE T = "t = 1e-08 [s]" I = 10 SOLUTIONTIME = 1.0000000000000E-08
0.00127 	8.23357e-09 	0.92 	0.04 	0.04 	0.018787 	3.80007 	
3.87 	3.97796 	-0.107964 	-0.116636 	-0 	12.2066 	0.348587 	
-0 	7244.08 	123.46 	141.616 	0.35 	6.604 	-0.105568 	3.38667e-05 	
0.000900955 	0.000600637 	4.35227e-05 	4352.27 	0.0147305 	0.00927495 	4352.24 	4352.24 	0 	
0.00133773 	7.26567e-09 	0.92 	0.04 	0.04 	0.0187869 	3.80007 	
3.87 	3.97796 	-0.107964 	-0.233272 	-0 	11.1609 	1.39436 	
-0 	14488.2 	246.919 	283.231 	0.35 	13.208 	-0.10557 	6.77333e-05 	
0.00180191 	0.00120127 	3.94499e-05 	3944.99 	0.0131002 	0.0463757 	3944.93 	3944.93 	0 	
0.00140547 	6.297e-09 	0.92 	0.04 	0.04 	0.0187869 	3.80007 	
3.87 	3.97796 	-0.107964 	-0.233272 	-0 	9.76645 	2.78877 	
-0 	14488.2 	246.919 	283.231 	0.35 	13.208 	-0.105576 	6.77333e-05 	
0.00180191 	0.00120127 	4.34687e-05 	4346.87 	0.0100432 	0.157683 	4346.7 	4346.7 	0 	
0.0014732 	5.32824e-09 	0.92 	0.04 	0.04 	0.0187868 	3.80006 	
3.87 	3.97796 	-0.107964 	-0.233272 	-0 	8.37194 	4.18327 	
-0 	14488.2 	246.919 	283.231 	0.35 	13.208 	-0.105585 	6.77333e-05 	
0.00180191 	0.00120127 	3.93392e-05 	3933.92 	0.00739345 	0.343213 	3933.57 	3933.57 	0 	
0.00154093 	4.35936e-09 	0.92 	0.04 	0.04 	0.0187868 	3.80006 	
3.87 	3.97796 	-0.107964 	-0.233272 	-0 	6.97729 	5.57793 	
-0 	14488.2 	246.919 	283.231 	0.35 	13.208 	-0.105598 	6.77333e-05 	
0.00180191 	0.00120127 	4.33012e-05 	4330.12 	0.00515089 	0.602992 	4329.51 	4329.51 	0 	
0.00160867 	3.39032e-09 	0.92 	0.04 	0.04 	0.0187867 	3.80005 	
3.87 	3.97796 	-0.107964 	-0.233272 	-0 	5.58243 	6.97278 	
-0 	14488.2 	246.919 	283.231 	0.35 	13.208 	-0.105615 	6.77333e-05 	
0.00180191 	0.00120127 	4.04961e-05 	4049.61 	0.00331563 	0.937057 	4048.67 	4048.67 	0 	
0.0016764 	2.42109e-09 	0.92 	0.04 	0.04 	0.0187867 	3.80004 	
3.87 	3.97796 	-0.107964 	-0.233272 	-0 	4.18733 	8.36789 	
-0 	14488.2 	246.919 	283.231 	0.35 	13.208 	-0.105636 	6.77333e-05 	
0.00180191 	0.00120127 	4.03413e-05 	4034.13 	0.0018878 	1.34546 	4032.78 	4032.78 	0 	
0.00174413 	1.45164e-09 	0.92 	0.04 	0.04 	0.0187866 	3.80003 	
3.87 	3.97796 	-0.107964 	-0.233272 	-0 	2.79192 	9.76329 	
-0 	14488.2 	246.919 	283.231 	0.35 	13.208 	-0.105661 	6.77333e-05 	
0.00180191 	0.00120127 	4.0158e-05 	4015.8 	0.000867587 	1.82825 	4013.97 	4013.97 	0 	
0.00181187 	4.8192e-10 	0.92 	0.04 	0.04 	0.0187866 	3.80002 	
3.87 	3.97796 	-0.107964 	-0.233272 	-0 	1.39616 	11.1591 	
-0 	14488.2 	246.919 	283.231 	0.35 	13.208 	-0.10569 	6.77333e-05 	
0.00180191 	0.00120127 	3.99463e-05 	3994.63 	0.000255239 	2.3855 	3992.24 	3992.24 	0 	
0.0018796 	-3.08727e-12 	0.92 	0.04 	0.04 	0.0187866 	3.8 	
3.87 	3.97796 	-0.107964 	-0.116636 	-0 	0.349094 	12.2061 	
-0 	7244.08 	123.46 	141.616 	0.35 	6.604 	-0.105722 	3.38667e-05 	
0.000900955 	0.000600637 	3.97027e-05 	3970.27 	5.10666e-05 	2.68276 	3967.59 	3967.59 	0 	
ZONE T = "t = 2e-08 [s]" I = 10 SOLUTIONTIME = 2.0000000000000E-08
0.00127 	8.23811e-09 	0.92 	0.04 	0.04 	0.018787 	3.80007 	
3.78129 	3.97796 	-0.196678 	-0.697174 	6.145e-08 	12.2066 	0.348587 	
1.74733e-11 	7244.08 	123.46 	141.616 	0.35 	6.604 	-0.105568 	3.38667e-05 	
0.000900955 	0.000600637 	8.44503e-05 	4092.76 	0.0147305 	0.00927497 	4092.74 	4092.74 	0 	
0.00133773 	7.26985e-09 	0.92 	0.04 	0.04 	0.0187869 	3.80007 	
3.78129 	3.97796 	-0.196679 	-1.39437 	5.42241e-08 	11.1609 	1.39436 	
3.49471e-11 	14488.2 	246.919 	283.231 	0.35 	13.208 	-0.10557 	6.77333e-05 	
0.00180191 	0.00120127 	8.03647e-05 	4091.48 	0.0131002 	0.0463757 	4091.42 	4091.42 	0 	
0.00140547 	6.30045e-09 	0.92 	0.04 	0.04 	0.0187869 	3.80007 	
3.78128 	3.97796 	-0.196682 	-1.39444 	4.69979e-08 	9.76645 	2.78877 	
3.4949e-11 	14488.2 	246.919 	283.231 	0.35 	13.208 	-0.105576 	6.77333e-05 	
0.00180191 	0.00120127 	8.43424e-05 	4087.37 	0.0100432 	0.157683 	4087.2 	4087.2 	0 	
0.0014732 	5.33206e-09 	0.92 	0.04 	0.04 	0.0187868 	3.80006 	
3.78128 	3.97796 	-0.196686 	-1.39457 	3.97711e-08 	8.37195 	4.18327 	
3.49521e-11 	14488.2 	246.919 	283.231 	0.35 	13.208 	-0.105585 	6.77333e-05 	
0.00180191 	0.00120127 	8.01433e-05 	4080.41 	0.00739346 	0.343213 	4080.06 	4080.06 	0 	
0.00154093 	4.36354e-09 	0.92 	0.04 	0.04 	0.0187868 	3.80006 	
3.78127 	3.97796 	-0.196692 	-1.39474 	3.25434e-08 	6.97729 	5.57793 	
3.49564e-11 	14488.2 	246.919 	283.231 	0.35 	13.208 	-0.105598 	6.77333e-05 	
0.00180191 	0.00120127 	8.40074e-05 	4070.61 	0.0051509 	0.602992 	4070.01 	4070.01 	0 	
0.00160867 	3.3945e-09 	0.92 	0.04 	0.04 	0.0187867 	3.80005 	
3.78126 	3.97796 	-0.1967 	-1.39497 	2.53145e-08 	5.58244 	6.97278 	
3.49621e-11 	14488.2 	246.919 	283.231 	0.35 	13.208 	-0.105615 	6.77333e-05 	
0.00180191 	0.00120127 	8.37128e-05 	4321.67 	0.00331564 	0.937058 	4320.73 	4320.73 	0 	
0.0016764 	2.42527e-09 	0.92 	0.04 	0.04 	0.0187867 	3.80004 	
3.78125 	3.97796 	-0.19671 	-1.39524 	1.80841e-08 	4.18733 	8.36789 	
3.4969e-11 	14488.2 	246.919 	283.231 	0.35 	13.208 	-0.105636 	6.77333e-05 	
0.00180191 	0.00120127 	8.07663e-05 	4042.5 	0.0018878 	1.34546 	4041.15 	4041.15 	0 	
0.00174413 	1.45618e-09 	0.92 	0.04 	0.04 	0.0187866 	3.80003 	
3.78124 	3.97796 	-0.196722 	-1.39557 	1.08521e-08 	2.79192 	9.7633 	
3.49772e-11 	14488.2 	246.919 	283.231 	0.35 	13.208 	-0.105661 	6.77333e-05 	
0.00180191 	0.00120127 	8.30367e-05 	4287.86 	0.000867588 	1.82825 	4286.04 	4286.04 	0 	
0.00181187 	4.86824e-10 	0.92 	0.04 	0.04 	0.0187866 	3.80002 	
3.78123 	3.97796 	-0.196736 	-1.39595 	3.6181e-09 	1.39616 	11.1591 	
3.49867e-11 	14488.2 	246.919 	283.231 	0.35 	13.208 	-0.10569 	6.77333e-05 	
0.00180191 	0.00120127 	7.99763e-05 	4003 	0.000255239 	2.38551 	4000.62 	4000.62 	0 	
0.0018796 	1.63443e-12 	0.92 	0.04 	0.04 	0.0187866 	3.8 	
3.78121 	3.97796 	-0.196751 	-0.698188 	3.6181e-09 	0.349094 	12.2061 	
1.74987e-11 	7244.08 	123.46 	141.616 	0.35 	6.604 	-0.105722 	3.38667e-05 	
0.000900955 	0.000600637 	8.21261e-05 	4242.33 	5.10667e-05 	2.68276 	4239.65 	4239.65 	0 	
ZONE T = "t = 3e-08 [s]" I = 10 SOLUTIONTIME = 3.0000000000000E-08
0.00127 	8.23375e-09 	0.92 	0.04 	0.04 	0.018787 	3.80007 	
3.78129 	3.97796 	-0.196678 	-0.697174 	6.14501e-08 	12.2066 	0.348587 	
3.49465e-11 	7244.08 	123.46 	141.616 	0.35 	6.604 	-0.105568 	3.38667e-05 	
0.000900955 	0.000600637 	0.000123955 	3950.45 	0.0147305 	0.00927497 	3950.43 	3950.43 	0 	
0.00133773 	7.26586e-09 	0.92 	0.04 	0.04 	0.0187869 	3.80007 	
3.78129 	3.97796 	-0.196679 	-1.39437 	5.42242e-08 	11.1609 	1.39436 	
6.98942e-11 	14488.2 	246.919 	283.231 	0.35 	13.208 	-0.10557 	6.77333e-05 	
0.00180191 	0.00120127 	0.000118433 	3806.87 	0.0131002 	0.0463757 	3806.81 	3806.81 	0 	
0.00140547 	6.29827e-09 	0.92 	0.04 	0.04 	0.0187869 	3.80007 	
3.78128 	3.97796 	-0.196682 	-1.39444 	4.6998e-08 	9.76645 	2.78877 	
6.98979e-11 	14488.2 	246.919 	283.231 	0.35 	13.208 	-0.105576 	6.77333e-05 	
0.00180191 	0.00120127 	0.000123793 	3945.06 	0.0100432 	0.157683 	3944.89 	3944.89 	0 	
0.0014732 	5.33024e-09 	0.92 	0.04 	0.04 	0.0187868 	3.80006 	
3.78128 	3.97796 	-0.196686 	-1.39457 	3.97711e-08 	8.37195 	4.18327 	
6.99041e-11 	14488.2 	246.919 	283.231 	0.35 	13.208 	-0.105585 	6.77333e-05 	
0.00180191 	0.00120127 	0.000118101 	3795.79 	0.00739346 	0.343213 	3795.44 	3795.44 	0 	
0.00154093 	4.36172e-09 	0.92 	0.04 	0.04 	0.0187868 	3.80006 	
3.78127 	3.97796 	-0.196692 	-1.39474 	3.25434e-08 	6.97729 	5.57793 	
6.99129e-11 	14488.2 	246.919 	283.231 	0.35 	13.208 	-0.105598 	6.77333e-05 	
0.00180191 	0.00120127 	0.00012329 	3928.31 	0.0051509 	0.602992 	3927.7 	3927.7 	0 	
0.00160867 	3.39305e-09 	0.92 	0.04 	0.04 	0.0187867 	3.80005 	
3.78126 	3.97796 	-0.1967 	-1.39497 	2.53145e-08 	5.58244 	6.97278 	
6.99242e-11 	14488.2 	246.919 	283.231 	0.35 	13.208 	-0.105615 	6.77333e-05 	
0.00180191 	0.00120127 	0.000125632 	4191.92 	0.00331564 	0.937058 	4190.98 	4190.98 	0 	
0.0016764 	2.42418e-09 	0.92 	0.04 	0.04 	0.0187867 	3.80004 	
3.78125 	3.97796 	-0.19671 	-1.39524 	1.80841e-08 	4.18733 	8.36789 	
6.9938e-11 	14488.2 	246.919 	283.231 	0.35 	13.208 	-0.105636 	6.77333e-05 	
0.00180191 	0.00120127 	0.000122447 	4168.07 	0.0018878 	1.34546 	4166.72 	4166.72 	0 	
0.00174413 	1.454e-09 	0.92 	0.04 	0.04 	0.0187866 	3.80003 	
3.78124 	3.97796 	-0.196722 	-1.39557 	1.08521e-08 	2.79192 	9.7633 	
6.99544e-11 	14488.2 	246.919 	283.231 	0.35 	13.208 	-0.105661 	6.77333e-05 	
0.00180191 	0.00120127 	0.000124618 	4158.11 	0.000867588 	1.82825 	4156.28 	4156.28 	0 	
0.00181187 	4.84645e-10 	0.92 	0.04 	0.04 	0.0187866 	3.80002 	
3.78123 	3.97796 	-0.196736 	-1.39595 	3.61811e-09 	1.39616 	11.1591 	
6.99733e-11 	14488.2 	246.919 	283.231 	0.35 	13.208 	-0.10569 	6.77333e-05 	
0.00180191 	0.00120127 	0.000121262 	4128.57 	0.000255239 	2.38551 	4126.18 	4126.18 	0 	
0.0018796 	-1.09746e-22 	0.92 	0.04 	0.04 	0.0187866 	3.8 	
3.78121 	3.97796 	-0.196751 	-0.698188 	3.61811e-09 	0.349094 	12.2061 	
3.49974e-11 	7244.08 	123.46 	141.616 	0.35 	6.604 	-0.105722 	3.38667e-05 	
0.000900955 	0.000600637 	0.000123252 	4112.58 	5.10667e-05 	2.68276 	4109.9 	4109.9 	0 	
ZONE T = "t = 4e-08 [s]" I = 10 SOLUTIONTIME = 4.0000000000000E-08
0.00127 	8.2343e-09 	0.92 	0.04 	0.04 	0.018787 	3.80007 	
3.78129 	3.97796 	-0.196678 	-0.697174 	6.14502e-08 	12.2066 	0.348587 	
5.24198e-11 	7244.08 	123.46 	141.616 	0.35 	6.604 	-0.105568 	3.38667e-05 	
0.000900955 	0.000600637 	0.000164841 	4088.58 	0.0147305 	0.00927497 	4088.55 	4088.55 	0 	
0.00133773 	7.26568e-09 	0.92 	0.04 	0.04 	0.0187869 	3.80007 	
3.78129 	3.97796 	-0.196679 	-1.39437 	5.42242e-08 	11.1609 	1.39436 	
1.04841e-10 	14488.2 	246.919 	283.231 	0.35 	13.208 	-0.10557 	6.77333e-05 	
0.00180191 	0.00120127 	0.000156628 	3819.42 	0.0131002 	0.0463757 	3819.36 	3819.36 	0 	
0.00140547 	6.29737e-09 	0.92 	0.04 	0.04 	0.0187869 	3.80007 	
3.78128 	3.97796 	-0.196682 	-1.39444 	4.6998e-08 	9.76645 	2.78877 	
1.04847e-10 	14488.2 	246.919 	283.231 	0.35 	13.208 	-0.105576 	6.77333e-05 	
0.00180191 	0.00120127 	0.000164625 	4083.18 	0.0100432 	0.157683 	4083.01 	4083.01 	0 	
0.0014732 	5.32861e-09 	0.92 	0.04 	0.04 	0.0187868 	3.80006 	
3.78128 	3.97796 	-0.196686 	-1.39457 	3.97711e-08 	8.37195 	4.18327 	
1.04856e-10 	14488.2 	246.919 	283.231 	0.35 	13.208 	-0.105585 	6.77333e-05 	
0.00180191 	0.00120127 	0.000156185 	3808.35 	0.00739346 	0.343213 	3808 	3808 	0 	
0.00154093 	4.36009e-09 	0.92 	0.04 	0.04 	0.0187868 	3.80006 	
3.78127 	3.97796 	-0.196692 	-1.39474 	3.25434e-08 	6.97729 	5.57793 	
1.04869e-10 	14488.2 	246.919 	283.231 	0.35 	13.208 	-0.105598 	6.77333e-05 	
0.00180191 	0.00120127 	0.000163955 	4066.43 	0.0051509 	0.602992 	4065.82 	4065.82 	0 	
0.00160867 	3.39141e-09 	0.92 	0.04 	0.04 	0.0187867 	3.80005 	
3.78126 	3.97796 	-0.1967 	-1.39497 	2.53145e-08 	5.58244 	6.97278 	
1.04886e-10 	14488.2 	246.919 	283.231 	0.35 	13.208 	-0.105615 	6.77333e-05 	
0.00180191 	0.00120127 	0.000163449 	3781.73 	0.00331564 	0.937058 	3780.79 	3780.79 	0 	
0.0016764 	2.42218e-09 	0.92 	0.04 	0.04 	0.0187867 	3.80004 	
3.78125 	3.97796 	-0.19671 	-1.39524 	1.80841e-08 	4.18733 	8.36789 	
1.04907e-10 	14488.2 	246.919 	283.231 	0.35 	13.208 	-0.105636 	6.77333e-05 	
0.00180191 	0.00120127 	0.000162788 	4034.13 	0.0018878 	1.34546 	4032.78 	4032.78 	0 	
0.00174413 	1.45418e-09 	0.92 	0.04 	0.04 	0.0187866 	3.80003 	
3.78124 	3.97796 	-0.196722 	-1.39557 	1.08521e-08 	2.79192 	9.7633 	
1.04932e-10 	14488.2 	246.919 	283.231 	0.35 	13.208 	-0.105661 	6.77333e-05 	
0.00180191 	0.00120127 	0.000162097 	3747.93 	0.000867588 	1.82825 	3746.1 	3746.1 	0 	
0.00181187 	4.84463e-10 	0.92 	0.04 	0.04 	0.0187866 	3.80002 	
3.78123 	3.97796 	-0.196736 	-1.39595 	3.61811e-09 	1.39616 	11.1591 	
1.0496e-10 	14488.2 	246.919 	283.231 	0.35 	13.208 	-0.10569 	6.77333e-05 	
0.00180191 	0.00120127 	0.000161208 	3994.63 	0.000255239 	2.38551 	3992.24 	3992.24 	0 	
0.0018796 	-5.44812e-13 	0.92 	0.04 	0.04 	0.0187866 	3.8 	
3.78121 	3.97796 	-0.196751 	-0.698188 	3.61811e-09 	0.349094 	12.2061 	
5.24961e-11 	7244.08 	123.46 	141.616 	0.35 	6.604 	-0.105722 	3.38667e-05 	
0.000900955 	0.000600637 	0.000160276 	3702.4 	5.10667e-05 	2.68276 	3699.71 	3699.71 	0 	
ZONE T = "t = 5.5e-08 [s]" I = 10 SOLUTIONTIME = 5.5000000000000E-08
0.00127 	8.23151e-09 	0.92 	0.04 	0.04 	0.018787 	3.80007 	
3.78129 	3.97796 	-0.196678 	-0.697174 	6.14502e-08 	12.2066 	0.348587 	
6.98931e-11 	7244.08 	123.46 	141.616 	0.35 	6.604 	-0.105568 	3.38667e-05 	
0.000900955 	0.000600637 	0.00022483 	3999.28 	0.0147305 	0.00927497 	3999.26 	3999.26 	0 	
0.00133773 	7.26301e-09 	0.92 	0.04 	0.04 	0.0187869 	3.80007 	
3.78129 	3.97796 	-0.196679 	-1.39437 	5.42242e-08 	11.1609 	1.39436 	
1.39788e-10 	14488.2 	246.919 	283.231 	0.35 	13.208 	-0.10557 	6.77333e-05 	
0.00180191 	0.00120127 	0.00021936 	4182.17 	0.0131002 	0.0463757 	4182.11 	4182.11 	0 	
0.00140547 	6.29446e-09 	0.92 	0.04 	0.04 	0.0187869 	3.80007 	
3.78128 	3.97796 	-0.196682 	-1.39444 	4.6998e-08 	9.76645 	2.78877 	
1.39796e-10 	14488.2 	246.919 	283.231 	0.35 	13.208 	-0.105576 	6.77333e-05 	
0.00180191 	0.00120127 	0.000224533 	3993.89 	0.0100432 	0.157683 	3993.72 	3993.72 	0 	
0.0014732 	5.32558e-09 	0.92 	0.04 	0.04 	0.0187868 	3.80006 	
3.78128 	3.97796 	-0.196686 	-1.39457 	3.97711e-08 	8.37195 	4.18327 	
1.39808e-10 	14488.2 	246.919 	283.231 	0.35 	13.208 	-0.105585 	6.77333e-05 	
0.00180191 	0.00120127 	0.000218751 	4171.1 	0.00739346 	0.343213 	4170.75 	4170.75 	0 	
0.00154093 	4.35682e-09 	0.92 	0.04 	0.04 	0.0187868 	3.80006 	
3.78127 	3.97796 	-0.196692 	-1.39474 	3.25434e-08 	6.97729 	5.57793 	
1.39826e-10 	14488.2 	246.919 	283.231 	0.35 	13.208 	-0.105598 	6.77333e-05 	
0.00180191 	0.00120127 	0.000223612 	3977.14 	0.0051509 	0.602992 	3976.53 	3976.53 	0 	
0.00160867 	3.3879e-09 	0.92 	0.04 	0.04 	0.0187867 	3.80005 	
3.78126 	3.97796 	-0.1967 	-1.39497 	2.53145e-08 	5.58244 	6.97278 	
1.39848e-10 	14488.2 	246.919 	283.231 	0.35 	13.208 	-0.105615 	6.77333e-05 	
0.00180191 	0.00120127 	0.000226977 	4235.17 	0.00331564 	0.937058 	4234.23 	4234.23 	0 	
0.0016764 	2.41904e-09 	0.92 	0.04 	0.04 	0.0187867 	3.80004 	
3.78125 	3.97796 	-0.19671 	-1.39524 	1.80841e-08 	4.18733 	8.36789 	
1.39876e-10 	14488.2 	246.919 	283.231 	0.35 	13.208 	-0.105636 	6.77333e-05 	
0.00180191 	0.00120127 	0.000226083 	4219.69 	0.0018878 	1.34546 	4218.34 	4218.34 	0 	
0.00174413 	1.4497e-09 	0.92 	0.04 	0.04 	0.0187866 	3.80003 	
3.78124 	3.97796 	-0.196722 	-1.39557 	1.08521e-08 	2.79192 	9.7633 	
1.39909e-10 	14488.2 	246.919 	283.231 	0.35 	13.208 	-0.105661 	6.77333e-05 	
0.00180191 	0.00120127 	0.000225117 	4201.36 	0.000867588 	1.82825 	4199.53 	4199.53 	0 	
0.00181187 	4.80347e-10 	0.92 	0.04 	0.04 	0.0187866 	3.80002 	
3.78123 	3.97796 	-0.196736 	-1.39595 	3.61811e-09 	1.39616 	11.1591 	
1.39947e-10 	14488.2 	246.919 	283.231 	0.35 	13.208 	-0.10569 	6.77333e-05 	
0.00180191 	0.00120127 	0.000223911 	4180.19 	0.000255239 	2.38551 	4177.8 	4177.8 	0 	
0.0018796 	-4.60063e-12 	0.92 	0.04 	0.04 	0.0187866 	3.8 	
3.78121 	3.97796 	-0.196751 	-0.698188 	3.61811e-09 	0.349094 	12.2061 	
6.99948e-11 	7244.08 	123.46 	141.616 	0.35 	6.604 	-0.105722 	3.38667e-05 	
0.000900955 	0.000600637 	0.000222613 	4155.83 	5.10667e-05 	2.68276 	4153.15 	4153.15 	0 	
ZONE T = "t = 7.75e-08 [s]" I = 10 SOLUTIONTIME = 7.7500000000000E-08
0.00127 	8.23672e-09 	0.92 	0.04 	0.04 	0.018787 	3.80007 	
3.78129 	3.97796 	-0.196678 	-0.697174 	6.14503e-08 	12.2066 	0.348587 	
9.6103e-11 	7244.08 	123.46 	141.616 	0.35 	6.604 	-0.105568 	3.38667e-05 	
0.000900955 	0.000600637 	0.000315483 	4029.05 	0.0147305 	0.00927497 	4029.02 	4029.02 	0 	
0.00133773 	7.26862e-09 	0.92 	0.04 	0.04 	0.0187869 	3.80007 	
3.78129 	3.97796 	-0.196679 	-1.39437 	5.42242e-08 	11.1609 	1.39436 	
1.92209e-10 	14488.2 	246.919 	283.231 	0.35 	13.208 	-0.10557 	6.77333e-05 	
0.00180191 	0.00120127 	0.000308562 	3964.52 	0.0131002 	0.0463757 	3964.46 	3964.46 	0 	
0.00140547 	6.30063e-09 	0.92 	0.04 	0.04 	0.0187869 	3.80007 	
3.78128 	3.97796 	-0.196682 	-1.39444 	4.6998e-08 	9.76645 	2.78877 	
1.92219e-10 	14488.2 	246.919 	283.231 	0.35 	13.208 	-0.105576 	6.77333e-05 	
0.00180191 	0.00120127 	0.000315065 	4023.65 	0.0100432 	0.157683 	4023.49 	4023.49 	0 	
0.0014732 	5.33256e-09 	0.92 	0.04 	0.04 	0.0187868 	3.80006 	
3.78128 	3.97796 	-0.196686 	-1.39457 	3.97711e-08 	8.37195 	4.18327 	
1.92236e-10 	14488.2 	246.919 	283.231 	0.35 	13.208 	-0.105585 	6.77333e-05 	
0.00180191 	0.00120127 	0.000307662 	3951.59 	0.00739346 	0.343213 	3951.24 	3951.24 	0 	
0.00154093 	4.3642e-09 	0.92 	0.04 	0.04 	0.0187868 	3.80006 	
3.78127 	3.97796 	-0.196692 	-1.39474 	3.25434e-08 	6.97729 	5.57793 	
1.9226e-10 	14488.2 	246.919 	283.231 	0.35 	13.208 	-0.105598 	6.77333e-05 	
0.00180191 	0.00120127 	0.000317827 	4187.35 	0.0051509 	0.602992 	4186.74 	4186.74 	0 	
0.00160867 	3.39569e-09 	0.92 	0.04 	0.04 	0.0187867 	3.80005 	
3.78126 	3.97796 	-0.1967 	-1.39497 	2.53145e-08 	5.58244 	6.97278 	
1.92291e-10 	14488.2 	246.919 	283.231 	0.35 	13.208 	-0.105615 	6.77333e-05 	
0.00180191 	0.00120127 	0.000319526 	4113.32 	0.00331564 	0.937058 	4112.38 	4112.38 	0 	
0.0016764 	2.42699e-09 	0.92 	0.04 	0.04 	0.0187867 	3.80004 	
3.78125 	3.97796 	-0.19671 	-1.39524 	1.80841e-08 	4.18733 	8.36789 	
1.9233e-10 	14488.2 	246.919 	283.231 	0.35 	13.208 	-0.105636 	6.77333e-05 	
0.00180191 	0.00120127 	0.000315648 	3980.64 	0.0018878 	1.34546 	3979.3 	3979.3 	0 	
0.00174413 	1.45806e-09 	0.92 	0.04 	0.04 	0.0187866 	3.80003 	
3.78124 	3.97796 	-0.196722 	-1.39557 	1.08521e-08 	2.79192 	9.7633 	
1.92375e-10 	14488.2 	246.919 	283.231 	0.35 	13.208 	-0.105661 	6.77333e-05 	
0.00180191 	0.00120127 	0.000316907 	4079.52 	0.000867588 	1.82825 	4077.69 	4077.69 	0 	
0.00181187 	4.88862e-10 	0.92 	0.04 	0.04 	0.0187866 	3.80002 	
3.78123 	3.97796 	-0.196736 	-1.39595 	3.61811e-09 	1.39616 	11.1591 	
1.92427e-10 	14488.2 	246.919 	283.231 	0.35 	13.208 	-0.10569 	6.77333e-05 	
0.00180191 	0.00120127 	0.000312587 	3941.15 	0.000255239 	2.38551 	3938.76 	3938.76 	0 	
0.0018796 	4.19707e-12 	0.92 	0.04 	0.04 	0.0187866 	3.8 	
3.78121 	3.97796 	-0.196751 	-0.698188 	3.61811e-09 	0.349094 	12.2061 	
9.62428e-11 	7244.08 	123.46 	141.616 	0.35 	6.604 	-0.105722 	3.38667e-05 	
0.000900955 	0.000600637 	0.000314717 	4093.51 	5.10667e-05 	2.68276 	4090.83 	4090.83 	0 	
ZONE T = "t = 1.1125e-07 [s]" I = 10 SOLUTIONTIME = 1.1125000000000E-07
0.00127 	8.23392e-09 	0.92 	0.04 	0.04 	0.018787 	3.80007 	
3.78129 	3.97796 	-0.196678 	-0.697174 	6.14504e-08 	12.2066 	0.348587 	
1.35418e-10 	7244.08 	123.46 	141.616 	0.35 	6.604 	-0.105568 	3.38667e-05 	
0.000900955 	0.000600637 	0.00045205 	4046.41 	0.0147305 	0.00927497 	4046.39 	4046.39 	0 	
0.00133773 	7.26555e-09 	0.92 	0.04 	0.04 	0.0187869 	3.80007 	
3.78129 	3.97796 	-0.196679 	-1.39437 	5.42242e-08 	11.1609 	1.39436 	
2.7084e-10 	14488.2 	246.919 	283.231 	0.35 	13.208 	-0.10557 	6.77333e-05 	
0.00180191 	0.00120127 	0.000447889 	4128.22 	0.0131002 	0.0463757 	4128.16 	4128.16 	0 	
0.00140547 	6.29703e-09 	0.92 	0.04 	0.04 	0.0187869 	3.80007 	
3.78128 	3.97796 	-0.196682 	-1.39444 	4.6998e-08 	9.76645 	2.78877 	
2.70854e-10 	14488.2 	246.919 	283.231 	0.35 	13.208 	-0.105576 	6.77333e-05 	
0.00180191 	0.00120127 	0.00045145 	4041.02 	0.0100432 	0.157683 	4040.85 	4040.85 	0 	
0.0014732 	5.32852e-09 	0.92 	0.04 	0.04 	0.0187868 	3.80006 	
3.78128 	3.97796 	-0.196686 	-1.39457 	3.97711e-08 	8.37195 	4.18327 	
2.70879e-10 	14488.2 	246.919 	283.231 	0.35 	13.208 	-0.105585 	6.77333e-05 	
0.00180191 	0.00120127 	0.000443937 	4037.78 	0.00739346 	0.343213 	4037.43 	4037.43 	0 	
0.00154093 	4.3599e-09 	0.92 	0.04 	0.04 	0.0187868 	3.80006 	
3.78127 	3.97796 	-0.196692 	-1.39474 	3.25434e-08 	6.97729 	5.57793 	
2.70912e-10 	14488.2 	246.919 	283.231 	0.35 	13.208 	-0.105598 	6.77333e-05 	
0.00180191 	0.00120127 	0.000453688 	4025.5 	0.0051509 	0.602992 	4024.9 	4024.9 	0 	
0.00160867 	3.39112e-09 	0.92 	0.04 	0.04 	0.0187867 	3.80005 	
3.78126 	3.97796 	-0.1967 	-1.39497 	2.53145e-08 	5.58244 	6.97278 	
2.70956e-10 	14488.2 	246.919 	283.231 	0.35 	13.208 	-0.105615 	6.77333e-05 	
0.00180191 	0.00120127 	0.000456342 	4053.79 	0.00331564 	0.937058 	4052.85 	4052.85 	0 	
0.0016764 	2.42214e-09 	0.92 	0.04 	0.04 	0.0187867 	3.80004 	
3.78125 	3.97796 	-0.19671 	-1.39524 	1.80841e-08 	4.18733 	8.36789 	
2.7101e-10 	14488.2 	246.919 	283.231 	0.35 	13.208 	-0.105636 	6.77333e-05 	
0.00180191 	0.00120127 	0.000451857 	4035.83 	0.0018878 	1.34546 	4034.48 	4034.48 	0 	
0.00174413 	1.45305e-09 	0.92 	0.04 	0.04 	0.0187866 	3.80003 	
3.78124 	3.97796 	-0.196722 	-1.39557 	1.08521e-08 	2.79192 	9.7633 	
2.71073e-10 	14488.2 	246.919 	283.231 	0.35 	13.208 	-0.105661 	6.77333e-05 	
0.00180191 	0.00120127 	0.000452581 	4019.99 	0.000867588 	1.82825 	4018.16 	4018.16 	0 	
0.00181187 	4.83696e-10 	0.92 	0.04 	0.04 	0.0187866 	3.80002 	
3.78123 	3.97796 	-0.196736 	-1.39595 	3.61811e-09 	1.39616 	11.1591 	
2.71147e-10 	14488.2 	246.919 	283.231 	0.35 	13.208 	-0.10569 	6.77333e-05 	
0.00180191 	0.00120127 	0.000450184 	4076.95 	0.000255239 	2.38551 	4074.56 	4074.56 	0 	
0.0018796 	-1.07617e-12 	0.92 	0.04 	0.04 	0.0187866 	3.8 	
3.78121 	3.97796 	-0.196751 	-0.698188 	3.61811e-09 	0.349094 	12.2061 	
1.35615e-10 	7244.08 	123.46 	141.616 	0.35 	6.604 	-0.105722 	3.38667e-05 	
0.000900955 	0.000600637 	0.000454213 	4133.2 	5.10667e-05 	2.68276 	4130.52 	4130.52 	0 	
ZONE T = "t = 1.61875e-07 [s]" I = 10 SOLUTIONTIME = 1.6187500000000E-07
0.00127 	8.23355e-09 	0.92 	0.04 	0.04 	0.018787 	3.80007 	
3.78129 	3.97796 	-0.196678 	-0.697174 	6.14506e-08 	12.2066 	0.348587 	
1.9439e-10 	7244.08 	123.46 	141.616 	0.35 	6.604 	-0.105568 	3.38667e-05 	
0.000900955 	0.000600637 	0.000657025 	4048.89 	0.0147305 	0.00927497 	4048.87 	4048.87 	0 	
0.00133773 	7.26529e-09 	0.92 	0.04 	0.04 	0.0187869 	3.80007 	
3.78129 	3.97796 	-0.196679 	-1.39437 	5.42242e-08 	11.1609 	1.39436 	
3.88787e-10 	14488.2 	246.919 	283.231 	0.35 	13.208 	-0.10557 	6.77333e-05 	
0.00180191 	0.00120127 	0.000654097 	4073.24 	0.0131002 	0.0463757 	4073.18 	4073.18 	0 	
0.00140547 	6.29698e-09 	0.92 	0.04 	0.04 	0.0187869 	3.80007 	
3.78128 	3.97796 	-0.196682 	-1.39444 	4.6998e-08 	9.76645 	2.78877 	
3.88807e-10 	14488.2 	246.919 	283.231 	0.35 	13.208 	-0.105576 	6.77333e-05 	
0.00180191 	0.00120127 	0.000656152 	4043.5 	0.0100432 	0.157683 	4043.33 	4043.33 	0 	
0.0014732 	5.32858e-09 	0.92 	0.04 	0.04 	0.0187868 	3.80006 	
3.78128 	3.97796 	-0.196686 	-1.39457 	3.97711e-08 	8.37195 	4.18327 	
3.88842e-10 	14488.2 	246.919 	283.231 	0.35 	13.208 	-0.105585 	6.77333e-05 	
0.00180191 	0.00120127 	0.000650924 	4088.63 	0.00739346 	0.343213 	4088.28 	4088.28 	0 	
0.00154093 	4.36006e-09 	0.92 	0.04 	0.04 	0.0187868 	3.80006 	
3.78127 	3.97796 	-0.196692 	-1.39474 	3.25434e-08 	6.97729 	5.57793 	
3.8889e-10 	14488.2 	246.919 	283.231 	0.35 	13.208 	-0.105598 	6.77333e-05 	
0.00180191 	0.00120127 	0.000660137 	4078 	0.0051509 	0.602992 	4077.4 	4077.4 	0 	
0.00160867 	3.39139e-09 	0.92 	0.04 	0.04 	0.0187867 	3.80005 	
3.78126 	3.97796 	-0.1967 	-1.39497 	2.53145e-08 	5.58244 	6.97278 	
3.88953e-10 	14488.2 	246.919 	283.231 	0.35 	13.208 	-0.105615 	6.77333e-05 	
0.00180191 	0.00120127 	0.000662151 	4065.37 	0.00331564 	0.937058 	4064.43 	4064.43 	0 	
0.0016764 	2.42252e-09 	0.92 	0.04 	0.04 	0.0187867 	3.80004 	
3.78125 	3.97796 	-0.19671 	-1.39524 	1.80841e-08 	4.18733 	8.36789 	
3.8903e-10 	14488.2 	246.919 	283.231 	0.35 	13.208 	-0.105636 	6.77333e-05 	
0.00180191 	0.00120127 	0.000655669 	4025.91 	0.0018878 	1.34546 	4024.56 	4024.56 	0 	
0.00174413 	1.45343e-09 	0.92 	0.04 	0.04 	0.0187866 	3.80003 	
3.78124 	3.97796 	-0.196722 	-1.39557 	1.08521e-08 	2.79192 	9.7633 	
3.89121e-10 	14488.2 	246.919 	283.231 	0.35 	13.208 	-0.105661 	6.77333e-05 	
0.00180191 	0.00120127 	0.00065806 	4058.85 	0.000867588 	1.82825 	4057.02 	4057.02 	0 	
0.00181187 	4.84073e-10 	0.92 	0.04 	0.04 	0.0187866 	3.80002 	
3.78123 	3.97796 	-0.196736 	-1.39595 	3.61811e-09 	1.39616 	11.1591 	
3.89227e-10 	14488.2 	246.919 	283.231 	0.35 	13.208 	-0.10569 	6.77333e-05 	
0.00180191 	0.00120127 	0.000654633 	4038.5 	0.000255239 	2.38551 	4036.11 	4036.11 	0 	
0.0018796 	-7.89192e-13 	0.92 	0.04 	0.04 	0.0187866 	3.8 	
3.78121 	3.97796 	-0.196751 	-0.698188 	3.61811e-09 	0.349094 	12.2061 	
1.94673e-10 	7244.08 	123.46 	141.616 	0.35 	6.604 	-0.105722 	3.38667e-05 	
0.000900955 	0.000600637 	0.00065881 	4041.43 	5.10667e-05 	2.68276 	4038.74 	4038.74 	0 	
ZONE T = "t = 2.37813e-07 [s]" I = 10 SOLUTIONTIME = 2.3781250000000E-07
0.00127 	8.23471e-09 	0.92 	0.04 	0.04 	0.018787 	3.80007 	
3.78129 	3.97796 	-0.196678 	-0.697174 	6.14509e-08 	12.2066 	0.348587 	
2.82849e-10 	7244.08 	123.46 	141.616 	0.35 	6.604 	-0.105568 	3.38667e-05 	
0.000900955 	0.000600637 	0.000967103 	4083.34 	0.0147305 	0.00927497 	4083.32 	4083.32 	0 	
0.00133773 	7.26649e-09 	0.92 	0.04 	0.04 	0.0187869 	3.80007 	
3.78129 	3.97796 	-0.196679 	-1.39437 	5.42242e-08 	11.1609 	1.39436 	
5.65706e-10 	14488.2 	246.919 	283.231 	0.35 	13.208 	-0.10557 	6.77333e-05 	
0.00180191 	0.00120127 	0.000964037 	4081.51 	0.0131002 	0.0463757 	4081.45 	4081.45 	0 	
0.00140547 	6.29823e-09 	0.92 	0.04 	0.04 	0.0187869 	3.80007 	