TITLE = "Solution on Domain BulkDomain1D_1"
VARIABLES = "x [m]"  
"Vel_axial" 	"MF_sp(ECDMC)" 	"MF_sp(Li+)" 	"MF_sp(PF6-)" 	"Volt(Electroly)" 	"Porosity []" 	"Control volume thickness [m]" 	"volFrac MgO(S) []" 	"qHeat_accum [J/m3]" 	"qHeat_step [W/m3]" 	"Joule_Lyte [W/m3]" 	"Joule_Solid [W/m3]" 	
ZONE T = "SEP , 0.0000E+00", I = 10, SOLUTIONTIME = 0.000000E+00
ZONETYPE = ORDERED
DATAPACKING = BLOCK
STRANDID = 2
 7.8740000000000E-04  8.4102222222222E-04  8.9464444444444E-04  9.4826666666667E-04  1.0018888888889E-03  1.0555111111111E-03  1.1091333333333E-03  1.1627555555556E-03  1.2163777777778E-03  1.2700000000000E-03 
 0.0000000000000E+00  0.0000000000000E+00  0.0000000000000E+00  0.0000000000000E+00  0.0000000000000E+00  0.0000000000000E+00  0.0000000000000E+00  0.0000000000000E+00  0.0000000000000E+00  0.0000000000000E+00 
 9.2000000000000E-01  9.2000000000000E-01  9.2000000000000E-01  9.2000000000000E-01  9.2000000000000E-01  9.2000000000000E-01  9.2000000000000E-01  9.2000000000000E-01  9.2000000000000E-01  9.2000000000000E-01 
 4.0000000000000E-02  4.0000000000000E-02  4.0000000000000E-02  4.0000000000000E-02  4.0000000000000E-02  4.0000000000000E-02  4.0000000000000E-02  4.0000000000000E-02  4.0000000000000E-02  4.0000000000000E-02 
 4.0000000000000E-02  4.0000000000000E-02  4.0000000000000E-02  4.0000000000000E-02  4.0000000000000E-02  4.0000000000000E-02  4.0000000000000E-02  4.0000000000000E-02  4.0000000000000E-02  4.0000000000000E-02 
-7.0000000000000E-02 -7.0000000000000E-02 -7.0000000000000E-02 -7.0000000000000E-02 -7.0000000000000E-02 -7.0000000000000E-02 -7.0000000000000E-02 -7.0000000000000E-02 -7.0000000000000E-02 -7.0000000000000E-02 
 8.0911499769706E-01  8.0911499769706E-01  8.0911499769706E-01  8.0911499769706E-01  8.0911499769706E-01  8.0911499769706E-01  8.0911499769706E-01  8.0911499769706E-01  8.0911499769706E-01  8.0911499769706E-01 
 2.6811111111111E-05  5.3622222222222E-05  5.3622222222222E-05  5.3622222222222E-05  5.3622222222222E-05  5.3622222222222E-05  5.3622222222222E-05  5.3622222222223E-05  5.3622222222222E-05  2.6811111111111E-05 
 1.9088500230294E-01  1.9088500230294E-01  1.9088500230294E-01  1.9088500230294E-01  1.9088500230294E-01  1.9088500230294E-01  1.9088500230294E-01  1.9088500230294E-01  1.9088500230294E-01  1.9088500230294E-01 
 0.0000000000000E+00  0.0000000000000E+00  0.0000000000000E+00  0.0000000000000E+00  0.0000000000000E+00  0.0000000000000E+00  0.0000000000000E+00  0.0000000000000E+00  0.0000000000000E+00  0.0000000000000E+00 
 0.0000000000000E+00  0.0000000000000E+00  0.0000000000000E+00  0.0000000000000E+00  0.0000000000000E+00  0.0000000000000E+00  0.0000000000000E+00  0.0000000000000E+00  0.0000000000000E+00  0.0000000000000E+00 
 0.0000000000000E+00  0.0000000000000E+00  0.0000000000000E+00  0.0000000000000E+00  0.0000000000000E+00  0.0000000000000E+00  0.0000000000000E+00  0.0000000000000E+00  0.0000000000000E+00  0.0000000000000E+00 
 0.0000000000000E+00  0.0000000000000E+00  0.0000000000000E+00  0.0000000000000E+00  0.0000000000000E+00  0.0000000000000E+00  0.0000000000000E+00  0.0000000000000E+00  0.0000000000000E+00  0.0000000000000E+00 
ZONE T = "SEP , 1.0000E-08", I = 10, SOLUTIONTIME = 1.000000E-08
ZONETYPE = ORDERED
DATAPACKING = BLOCK
STRANDID = 2
 7.8740000000000E-04  8.4102222222222E-04  8.9464444444444E-04  9.4826666666667E-04  1.0018888888889E-03  1.0555111111111E-03  1.1091333333333E-03  1.1627555555556E-03  1.2163777777778E-03  1.2700000000000E-03 
 8.7207936174468E-09  8.7207936174468E-09  8.7207936174468E-09  8.7207936174468E-09  8.7207936174468E-09  8.7207936174468E-09  8.7207936174468E-09  8.7207936174468E-09  8.7207936174468E-09  8.2361463497556E-09 
 9.1999999999988E-01  9.2000000000000E-01  9.2000000000000E-01  9.2000000000000E-01  9.2000000000000E-01  9.2000000000000E-01  9.2000000000000E-01  9.2000000000000E-01  9.2000000000000E-01  9.2000000000013E-01 
 4.0000000000060E-02  4.0000000000000E-02  4.0000000000000E-02  4.0000000000000E-02  4.0000000000000E-02  4.0000000000000E-02  4.0000000000000E-02  4.0000000000000E-02  4.0000000000000E-02  3.9999999999934E-02 
 4.0000000000060E-02  4.0000000000000E-02  4.0000000000000E-02  4.0000000000000E-02  4.0000000000000E-02  4.0000000000000E-02  4.0000000000000E-02  4.0000000000000E-02  4.0000000000000E-02  3.9999999999934E-02 
 1.8787190986754E-02  1.8787170922123E-02  1.8787150857551E-02  1.8787130792923E-02  1.8787110728299E-02  1.8787090663727E-02  1.8787070599096E-02  1.8787050534524E-02  1.8787030469896E-02  1.8787010405271E-02 
 8.0911499769706E-01  8.0911499769706E-01  8.0911499769706E-01  8.0911499769706E-01  8.0911499769706E-01  8.0911499769706E-01  8.0911499769706E-01  8.0911499769706E-01  8.0911499769706E-01  8.0911499769706E-01 
 2.6811111111111E-05  5.3622222222222E-05  5.3622222222222E-05  5.3622222222222E-05  5.3622222222222E-05  5.3622222222222E-05  5.3622222222222E-05  5.3622222222223E-05  5.3622222222222E-05  2.6811111111111E-05 
 1.9088500230294E-01  1.9088500230294E-01  1.9088500230294E-01  1.9088500230294E-01  1.9088500230294E-01  1.9088500230294E-01  1.9088500230294E-01  1.9088500230294E-01  1.9088500230294E-01  1.9088500230294E-01 
 4.6977918948233E-11  4.6977780960984E-11  4.6977773308989E-11  4.6977896333435E-11  4.6977766006306E-11  4.6977780969090E-11  4.6977780969090E-11  4.6977773317111E-11  4.6977896333416E-11  4.6977889022590E-11 
 4.6977918948233E-03  4.6977780960984E-03  4.6977773308989E-03  4.6977896333435E-03  4.6977766006306E-03  4.6977780969090E-03  4.6977780969090E-03  4.6977773317111E-03  4.6977896333416E-03  4.6977889022590E-03 
 4.6977918948233E-03  4.6977780960984E-03  4.6977773308989E-03  4.6977896333435E-03  4.6977766006306E-03  4.6977780969090E-03  4.6977780969090E-03  4.6977773317111E-03  4.6977896333416E-03  4.6977889022590E-03 
 0.0000000000000E+00  0.0000000000000E+00  0.0000000000000E+00  0.0000000000000E+00  0.0000000000000E+00  0.0000000000000E+00  0.0000000000000E+00  0.0000000000000E+00  0.0000000000000E+00  0.0000000000000E+00 
ZONE T = "SEP , 2.0000E-08", I = 10, SOLUTIONTIME = 2.000000E-08
ZONETYPE = ORDERED
DATAPACKING = BLOCK
STRANDID = 2
 7.8740000000000E-04  8.4102222222222E-04  8.9464444444444E-04  9.4826666666667E-04  1.0018888888889E-03  1.0555111111111E-03  1.1091333333333E-03  1.1627555555556E-03  1.2163777777778E-03  1.2700000000000E-03 
 8.7229607322234E-09  8.7229607322234E-09  8.7229607322234E-09  8.7229607322234E-09  8.7229607322234E-09  8.7229607322234E-09  8.7229607322234E-09  8.7229607322234E-09  8.7229607322234E-09  8.2377492601364E-09 
 9.1999999999976E-01  9.2000000000000E-01  9.2000000000000E-01  9.2000000000000E-01  9.2000000000000E-01  9.2000000000000E-01  9.2000000000000E-01  9.2000000000000E-01  9.2000000000000E-01  9.2000000000027E-01 
 4.0000000000120E-02  4.0000000000000E-02  4.0000000000000E-02  4.0000000000000E-02  4.0000000000000E-02  4.0000000000000E-02  4.0000000000000E-02  4.0000000000000E-02  4.0000000000000E-02  3.9999999999867E-02 
 4.0000000000120E-02  4.0000000000000E-02  4.0000000000000E-02  4.0000000000000E-02  4.0000000000000E-02  4.0000000000000E-02  4.0000000000000E-02  4.0000000000000E-02  4.0000000000000E-02  3.9999999999867E-02 
 1.8787208339732E-02  1.8787188274319E-02  1.8787168208906E-02  1.8787148143493E-02  1.8787128078080E-02  1.8787108012667E-02  1.8787087947254E-02  1.8787067881841E-02  1.8787047816428E-02  1.8787027751015E-02 
 8.0911499769706E-01  8.0911499769706E-01  8.0911499769706E-01  8.0911499769706E-01  8.0911499769706E-01  8.0911499769706E-01  8.0911499769706E-01  8.0911499769706E-01  8.0911499769706E-01  8.0911499769706E-01 
 2.6811111111111E-05  5.3622222222222E-05  5.3622222222222E-05  5.3622222222222E-05  5.3622222222222E-05  5.3622222222222E-05  5.3622222222222E-05  5.3622222222223E-05  5.3622222222222E-05  2.6811111111111E-05 
 1.9088500230294E-01  1.9088500230294E-01  1.9088500230294E-01  1.9088500230294E-01  1.9088500230294E-01  1.9088500230294E-01  1.9088500230294E-01  1.9088500230294E-01  1.9088500230294E-01  1.9088500230294E-01 
 9.3959499837694E-11  9.3959361842287E-11  9.3959354190256E-11  9.3959477214702E-11  9.3959346887573E-11  9.3959361850357E-11  9.3959361850357E-11  9.3959354198378E-11  9.3959477214644E-11  9.3959469911903E-11 
 4.6981580889461E-03  4.6981580881302E-03  4.6981580881267E-03  4.6981580881267E-03  4.6981580881267E-03  4.6981580881267E-03  4.6981580881267E-03  4.6981580881266E-03  4.6981580881228E-03  4.6981580889312E-03 
 4.6981580889461E-03  4.6981580881302E-03  4.6981580881267E-03  4.6981580881267E-03  4.6981580881267E-03  4.6981580881267E-03  4.6981580881267E-03  4.6981580881266E-03  4.6981580881228E-03  4.6981580889312E-03 
 0.0000000000000E+00  0.0000000000000E+00  0.0000000000000E+00  0.0000000000000E+00  0.0000000000000E+00  0.0000000000000E+00  0.0000000000000E+00  0.0000000000000E+00  0.0000000000000E+00  0.0000000000000E+00 
ZONE T = "SEP , 3.0000E-08", I = 10, SOLUTIONTIME = 3.000000E-08
ZONETYPE = ORDERED
DATAPACKING = BLOCK
STRANDID = 2
 7.8740000000000E-04  8.4102222222222E-04  8.9464444444444E-04  9.4826666666667E-04  1.0018888888889E-03  1.0555111111111E-03  1.1091333333333E-03  1.1627555555556E-03  1.2163777777778E-03  1.2700000000000E-03 
 8.7171494085233E-09  8.7156965776122E-09  8.7156965776122E-09  8.7156965776122E-09  8.7156965776121E-09  8.7156965776121E-09  8.7156965776121E-09  8.7156965776121E-09  8.7156965776121E-09  8.2326643518936E-09 
 9.1999999999964E-01  9.2000000000000E-01  9.2000000000000E-01  9.2000000000000E-01  9.2000000000000E-01  9.2000000000000E-01  9.2000000000000E-01  9.2000000000000E-01  9.2000000000000E-01  9.2000000000040E-01 
 4.0000000000181E-02  4.0000000000000E-02  4.0000000000000E-02  4.0000000000000E-02  4.0000000000000E-02  4.0000000000000E-02  4.0000000000000E-02  4.0000000000000E-02  4.0000000000000E-02  3.9999999999801E-02 
 4.0000000000181E-02  4.0000000000000E-02  4.0000000000000E-02  4.0000000000000E-02  4.0000000000000E-02  4.0000000000000E-02  4.0000000000000E-02  4.0000000000000E-02  4.0000000000000E-02  3.9999999999801E-02 
 1.8787208339678E-02  1.8787188274265E-02  1.8787168208852E-02  1.8787148143439E-02  1.8787128078026E-02  1.8787108012613E-02  1.8787087947200E-02  1.8787067881787E-02  1.8787047816374E-02  1.8787027750961E-02 
 8.0911499769706E-01  8.0911499769706E-01  8.0911499769706E-01  8.0911499769706E-01  8.0911499769706E-01  8.0911499769706E-01  8.0911499769706E-01  8.0911499769706E-01  8.0911499769706E-01  8.0911499769706E-01 
 2.6811111111111E-05  5.3622222222222E-05  5.3622222222222E-05  5.3622222222222E-05  5.3622222222222E-05  5.3622222222222E-05  5.3622222222222E-05  5.3622222222223E-05  5.3622222222222E-05  2.6811111111111E-05 
 1.9088500230294E-01  1.9088500230294E-01  1.9088500230294E-01  1.9088500230294E-01  1.9088500230294E-01  1.9088500230294E-01  1.9088500230294E-01  1.9088500230294E-01  1.9088500230294E-01  1.9088500230294E-01 
 1.4094108072719E-10  1.4094094272361E-10  1.4094093506340E-10  1.4094105809597E-10  1.4094092776884E-10  1.4094094273162E-10  1.4094094273162E-10  1.4094093507964E-10  1.4094105809585E-10  1.4094105078493E-10 
 4.6981580889496E-03  4.6981580881320E-03  4.6981580873143E-03  4.6981580881267E-03  4.6981580881267E-03  4.6981580881267E-03  4.6981580881267E-03  4.6981580881266E-03  4.6981580881208E-03  4.6981580873027E-03 
 4.6981580889496E-03  4.6981580881320E-03  4.6981580873143E-03  4.6981580881267E-03  4.6981580881267E-03  4.6981580881267E-03  4.6981580881267E-03  4.6981580881266E-03  4.6981580881208E-03  4.6981580873027E-03 
 0.0000000000000E+00  0.0000000000000E+00  0.0000000000000E+00  0.0000000000000E+00  0.0000000000000E+00  0.0000000000000E+00  0.0000000000000E+00  0.0000000000000E+00  0.0000000000000E+00  0.0000000000000E+00 
ZONE T = "SEP , 4.0000E-08", I = 10, SOLUTIONTIME = 4.000000E-08
ZONETYPE = ORDERED
DATAPACKING = BLOCK
STRANDID = 2
 7.8740000000000E-04  8.4102222222222E-04  8.9464444444444E-04  9.4826666666667E-04  1.0018888888889E-03  1.0555111111111E-03  1.1091333333333E-03  1.1627555555556E-03  1.2163777777778E-03  1.2700000000000E-03 
 8.7222343166569E-09  8.7236871475680E-09  8.7236871475680E-09  8.7236871475680E-09  8.7236871475680E-09  8.7236871475680E-09  8.7236871475679E-09  8.7236871475679E-09  8.7236871475679E-09  8.2390204870760E-09 
 9.1999999999952E-01  9.2000000000000E-01  9.2000000000000E-01  9.2000000000000E-01  9.2000000000000E-01  9.2000000000000E-01  9.2000000000000E-01  9.2000000000000E-01  9.2000000000000E-01  9.2000000000053E-01 
 4.0000000000241E-02  4.0000000000000E-02  4.0000000000000E-02  4.0000000000000E-02  4.0000000000000E-02  4.0000000000000E-02  4.0000000000000E-02  4.0000000000000E-02  4.0000000000000E-02  3.9999999999734E-02 
 4.0000000000241E-02  4.0000000000000E-02  4.0000000000000E-02  4.0000000000000E-02  4.0000000000000E-02  4.0000000000000E-02  4.0000000000000E-02  4.0000000000000E-02  4.0000000000000E-02  3.9999999999734E-02 
 1.8787208339625E-02  1.8787188274212E-02  1.8787168208799E-02  1.8787148143386E-02  1.8787128077973E-02  1.8787108012560E-02  1.8787087947147E-02  1.8787067881734E-02  1.8787047816321E-02  1.8787027750908E-02 
 8.0911499769706E-01  8.0911499769706E-01  8.0911499769706E-01  8.0911499769706E-01  8.0911499769706E-01  8.0911499769706E-01  8.0911499769706E-01  8.0911499769706E-01  8.0911499769706E-01  8.0911499769706E-01 
 2.6811111111111E-05  5.3622222222222E-05  5.3622222222222E-05  5.3622222222222E-05  5.3622222222222E-05  5.3622222222222E-05  5.3622222222222E-05  5.3622222222223E-05  5.3622222222222E-05  2.6811111111111E-05 
 1.9088500230294E-01  1.9088500230294E-01  1.9088500230294E-01  1.9088500230294E-01  1.9088500230294E-01  1.9088500230294E-01  1.9088500230294E-01  1.9088500230294E-01  1.9088500230294E-01  1.9088500230294E-01 
 1.8792266161672E-10  1.8792252360494E-10  1.8792251594467E-10  1.8792263897724E-10  1.8792250864198E-10  1.8792252361289E-10  1.8792252361289E-10  1.8792251596091E-10  1.8792263897704E-10  1.8792263165792E-10 
 4.6981580889532E-03  4.6981580881337E-03  4.6981580881267E-03  4.6981580881267E-03  4.6981580873143E-03  4.6981580881267E-03  4.6981580881267E-03  4.6981580881266E-03  4.6981580881189E-03  4.6981580872988E-03 
 4.6981580889532E-03  4.6981580881337E-03  4.6981580881267E-03  4.6981580881267E-03  4.6981580873143E-03  4.6981580881267E-03  4.6981580881267E-03  4.6981580881266E-03  4.6981580881189E-03  4.6981580872988E-03 
 0.0000000000000E+00  0.0000000000000E+00  0.0000000000000E+00  0.0000000000000E+00  0.0000000000000E+00  0.0000000000000E+00  0.0000000000000E+00  0.0000000000000E+00  0.0000000000000E+00  0.0000000000000E+00 
ZONE T = "SEP , 5.5000E-08", I = 10, SOLUTIONTIME = 5.500000E-08
ZONETYPE = ORDERED
DATAPACKING = BLOCK
STRANDID = 2
 7.8740000000000E-04  8.4102222222222E-04  8.9464444444444E-04  9.4826666666667E-04  1.0018888888889E-03  1.0555111111111E-03  1.1091333333333E-03  1.1627555555556E-03  1.2163777777778E-03  1.2700000000000E-03 
 8.7128514502980E-09  8.7128514502980E-09  8.7128514502980E-09  8.7128514502980E-09  8.7128514502979E-09  8.7128514502979E-09  8.7128514502979E-09  8.7128514502979E-09  8.7128514502979E-09  8.2293349476125E-09 
 9.1999999999934E-01  9.2000000000000E-01  9.2000000000000E-01  9.2000000000000E-01  9.2000000000000E-01  9.2000000000000E-01  9.2000000000000E-01  9.2000000000000E-01  9.2000000000000E-01  9.2000000000073E-01 
 4.0000000000331E-02  4.0000000000000E-02  4.0000000000000E-02  4.0000000000000E-02  4.0000000000000E-02  4.0000000000000E-02  4.0000000000000E-02  4.0000000000000E-02  4.0000000000000E-02  3.9999999999635E-02 
 4.0000000000331E-02  4.0000000000000E-02  4.0000000000000E-02  4.0000000000000E-02  4.0000000000000E-02  4.0000000000000E-02  4.0000000000000E-02  4.0000000000000E-02  4.0000000000000E-02  3.9999999999635E-02 
 1.8787208339565E-02  1.8787188274152E-02  1.8787168208739E-02  1.8787148143326E-02  1.8787128077913E-02  1.8787108012500E-02  1.8787087947087E-02  1.8787067881674E-02  1.8787047816261E-02  1.8787027750848E-02 
 8.0911499769706E-01  8.0911499769706E-01  8.0911499769706E-01  8.0911499769706E-01  8.0911499769706E-01  8.0911499769706E-01  8.0911499769706E-01  8.0911499769706E-01  8.0911499769706E-01  8.0911499769706E-01 
 2.6811111111111E-05  5.3622222222222E-05  5.3622222222222E-05  5.3622222222222E-05  5.3622222222222E-05  5.3622222222222E-05  5.3622222222222E-05  5.3622222222223E-05  5.3622222222222E-05  2.6811111111111E-05 
 1.9088500230294E-01  1.9088500230294E-01  1.9088500230294E-01  1.9088500230294E-01  1.9088500230294E-01  1.9088500230294E-01  1.9088500230294E-01  1.9088500230294E-01  1.9088500230294E-01  1.9088500230294E-01 
 2.5839503292673E-10  2.5839489492699E-10  2.5839488726657E-10  2.5839501029914E-10  2.5839487996388E-10  2.5839489492261E-10  2.5839489493479E-10  2.5839488728281E-10  2.5839501028660E-10  2.5839500296731E-10 
 4.6981580873338E-03  4.6981580881364E-03  4.6981580881267E-03  4.6981580881267E-03  4.6981580881267E-03  4.6981580873144E-03  4.6981580881267E-03  4.6981580881266E-03  4.6981580873036E-03  4.6981580872929E-03 
 4.6981580873338E-03  4.6981580881364E-03  4.6981580881267E-03  4.6981580881267E-03  4.6981580881267E-03  4.6981580873144E-03  4.6981580881267E-03  4.6981580881266E-03  4.6981580873036E-03  4.6981580872929E-03 
 0.0000000000000E+00  0.0000000000000E+00  0.0000000000000E+00  0.0000000000000E+00  0.0000000000000E+00  0.0000000000000E+00  0.0000000000000E+00  0.0000000000000E+00  0.0000000000000E+00  0.0000000000000E+00 
ZONE T = "SEP , 7.7500E-08", I = 10, SOLUTIONTIME = 7.750000E-08
ZONETYPE = ORDERED
DATAPACKING = BLOCK
STRANDID = 2
 7.8740000000000E-04  8.4102222222222E-04  8.9464444444444E-04  9.4826666666667E-04  1.0018888888889E-03  1.0555111111111E-03  1.1091333333333E-03  1.1627555555556E-03  1.2163777777778E-03  1.2700000000000E-03 
 8.7211648715297E-09  8.7211648715297E-09  8.7211648715297E-09  8.7211648715297E-09  8.7211648715297E-09  8.7211648715297E-09  8.7211648715297E-09  8.7211648715297E-09  8.7211648715297E-09  8.2368815969776E-09 
 9.1999999999907E-01  9.2000000000000E-01  9.2000000000000E-01  9.2000000000000E-01  9.2000000000000E-01  9.2000000000000E-01  9.2000000000000E-01  9.2000000000000E-01  9.2000000000000E-01  9.2000000000103E-01 
 4.0000000000467E-02  4.0000000000000E-02  4.0000000000000E-02  4.0000000000000E-02  4.0000000000000E-02  4.0000000000000E-02  4.0000000000000E-02  4.0000000000000E-02  4.0000000000000E-02  3.9999999999486E-02 
 4.0000000000467E-02  4.0000000000000E-02  4.0000000000000E-02  4.0000000000000E-02  4.0000000000000E-02  4.0000000000000E-02  4.0000000000000E-02  4.0000000000000E-02  4.0000000000000E-02  3.9999999999486E-02 
 1.8787208339451E-02  1.8787188274038E-02  1.8787168208625E-02  1.8787148143212E-02  1.8787128077799E-02  1.8787108012386E-02  1.8787087946973E-02  1.8787067881560E-02  1.8787047816147E-02  1.8787027750734E-02 
 8.0911499769706E-01  8.0911499769706E-01  8.0911499769706E-01  8.0911499769706E-01  8.0911499769706E-01  8.0911499769706E-01  8.0911499769706E-01  8.0911499769706E-01  8.0911499769706E-01  8.0911499769706E-01 
 2.6811111111111E-05  5.3622222222222E-05  5.3622222222222E-05  5.3622222222222E-05  5.3622222222222E-05  5.3622222222222E-05  5.3622222222222E-05  5.3622222222223E-05  5.3622222222222E-05  2.6811111111111E-05 
 1.9088500230294E-01  1.9088500230294E-01  1.9088500230294E-01  1.9088500230294E-01  1.9088500230294E-01  1.9088500230294E-01  1.9088500230294E-01  1.9088500230294E-01  1.9088500230294E-01  1.9088500230294E-01 
 3.6410358989192E-10  3.6410345191015E-10  3.6410344424942E-10  3.6410356726371E-10  3.6410343694673E-10  3.6410345190546E-10  3.6410345189936E-10  3.6410344426566E-10  3.6410356726911E-10  3.6410355993120E-10 
 4.6981580873418E-03  4.6981580881404E-03  4.6981580881267E-03  4.6981580873143E-03  4.6981580881267E-03  4.6981580881267E-03  4.6981580873143E-03  4.6981580881266E-03  4.6981580881116E-03  4.6981580872841E-03 
 4.6981580873418E-03  4.6981580881404E-03  4.6981580881267E-03  4.6981580873143E-03  4.6981580881267E-03  4.6981580881267E-03  4.6981580873143E-03  4.6981580881266E-03  4.6981580881116E-03  4.6981580872841E-03 
 0.0000000000000E+00  0.0000000000000E+00  0.0000000000000E+00  0.0000000000000E+00  0.0000000000000E+00  0.0000000000000E+00  0.0000000000000E+00  0.0000000000000E+00  0.0000000000000E+00  0.0000000000000E+00 
ZONE T = "SEP , 1.1125E-07", I = 10, SOLUTIONTIME = 1.112500E-07
ZONETYPE = ORDERED
DATAPACKING = BLOCK
STRANDID = 2
 7.8740000000000E-04  8.4102222222222E-04  8.9464444444444E-04  9.4826666666667E-04  1.0018888888889E-03  1.0555111111111E-03  1.1091333333333E-03  1.1627555555556E-03  1.2163777777778E-03  1.2700000000000E-03 
 8.7179363582542E-09  8.7179363582542E-09  8.7179363582542E-09  8.7179363582542E-09  8.7179363582542E-09  8.7179363582542E-09  8.7179363582542E-09  8.7179363582542E-09  8.7179363582542E-09  8.2338145093635E-09 
 9.1999999999866E-01  9.2000000000000E-01  9.2000000000000E-01  9.2000000000000E-01  9.2000000000000E-01  9.2000000000000E-01  9.2000000000000E-01  9.2000000000000E-01  9.2000000000000E-01  9.2000000000148E-01 
 4.0000000000670E-02  4.0000000000000E-02  4.0000000000000E-02  4.0000000000000E-02  4.0000000000000E-02  4.0000000000000E-02  4.0000000000000E-02  4.0000000000000E-02  4.0000000000000E-02  3.9999999999262E-02 
 4.0000000000670E-02  4.0000000000000E-02  4.0000000000000E-02  4.0000000000000E-02  4.0000000000000E-02  4.0000000000000E-02  4.0000000000000E-02  4.0000000000000E-02  4.0000000000000E-02  3.9999999999262E-02 
 1.8787208339279E-02  1.8787188273866E-02  1.8787168208453E-02  1.8787148143040E-02  1.8787128077627E-02  1.8787108012214E-02  1.8787087946801E-02  1.8787067881388E-02  1.8787047815975E-02  1.8787027750562E-02 
 8.0911499769706E-01  8.0911499769706E-01  8.0911499769706E-01  8.0911499769706E-01  8.0911499769706E-01  8.0911499769706E-01  8.0911499769706E-01  8.0911499769706E-01  8.0911499769706E-01  8.0911499769706E-01 
 2.6811111111111E-05  5.3622222222222E-05  5.3622222222222E-05  5.3622222222222E-05  5.3622222222222E-05  5.3622222222222E-05  5.3622222222222E-05  5.3622222222223E-05  5.3622222222222E-05  2.6811111111111E-05 
 1.9088500230294E-01  1.9088500230294E-01  1.9088500230294E-01  1.9088500230294E-01  1.9088500230294E-01  1.9088500230294E-01  1.9088500230294E-01  1.9088500230294E-01  1.9088500230294E-01  1.9088500230294E-01 
 5.2266642534011E-10  5.2266628735767E-10  5.2266627972369E-10  5.2266640273798E-10  5.2266627239359E-10  5.2266628735232E-10  5.2266628734622E-10  5.2266627973993E-10  5.2266640274265E-10  5.2266639537660E-10 
 4.6981580873537E-03  4.6981580873340E-03  4.6981580881267E-03  4.6981580881267E-03  4.6981580873143E-03  4.6981580873143E-03  4.6981580873143E-03  4.6981580881266E-03  4.6981580881050E-03  4.6981580872710E-03 
 4.6981580873537E-03  4.6981580873340E-03  4.6981580881267E-03  4.6981580881267E-03  4.6981580873143E-03  4.6981580873143E-03  4.6981580873143E-03  4.6981580881266E-03  4.6981580881050E-03  4.6981580872710E-03 
 0.0000000000000E+00  0.0000000000000E+00  0.0000000000000E+00  0.0000000000000E+00  0.0000000000000E+00  0.0000000000000E+00  0.0000000000000E+00  0.0000000000000E+00  0.0000000000000E+00  0.0000000000000E+00 
ZONE T = "SEP , 1.6188E-07", I = 10, SOLUTIONTIME = 1.618750E-07
ZONETYPE = ORDERED
DATAPACKING = BLOCK
STRANDID = 2
 7.8740000000000E-04  8.4102222222222E-04  8.9464444444444E-04  9.4826666666667E-04  1.0018888888889E-03  1.0555111111111E-03  1.1091333333333E-03  1.1627555555556E-03  1.2163777777778E-03  1.2700000000000E-03 
 8.7176673152832E-09  8.7176673152832E-09  8.7176673152832E-09  8.7176673152832E-09  8.7176673152832E-09  8.7176673152832E-09  8.7176673152832E-09  8.7176673152832E-09  8.7176673152832E-09  8.2335454663994E-09 
 9.1999999999805E-01  9.2000000000000E-01  9.2000000000000E-01  9.2000000000000E-01  9.2000000000000E-01  9.2000000000000E-01  9.2000000000000E-01  9.2000000000000E-01  9.2000000000000E-01  9.2000000000215E-01 
 4.0000000000974E-02  4.0000000000000E-02  4.0000000000000E-02  4.0000000000000E-02  4.0000000000000E-02  4.0000000000000E-02  4.0000000000000E-02  4.0000000000000E-02  4.0000000000000E-02  3.9999999998926E-02 
 4.0000000000974E-02  4.0000000000000E-02  4.0000000000000E-02  4.0000000000000E-02  4.0000000000000E-02  4.0000000000000E-02  4.0000000000000E-02  4.0000000000000E-02  4.0000000000000E-02  3.9999999998926E-02 
 1.8787208339021E-02  1.8787188273608E-02  1.8787168208195E-02  1.8787148142782E-02  1.8787128077369E-02  1.8787108011956E-02  1.8787087946543E-02  1.8787067881130E-02  1.8787047815717E-02  1.8787027750304E-02 
 8.0911499769706E-01  8.0911499769706E-01  8.0911499769706E-01  8.0911499769706E-01  8.0911499769706E-01  8.0911499769706E-01  8.0911499769706E-01  8.0911499769706E-01  8.0911499769706E-01  8.0911499769706E-01 
 2.6811111111111E-05  5.3622222222222E-05  5.3622222222222E-05  5.3622222222222E-05  5.3622222222222E-05  5.3622222222222E-05  5.3622222222222E-05  5.3622222222223E-05  5.3622222222222E-05  2.6811111111111E-05 
 1.9088500230294E-01  1.9088500230294E-01  1.9088500230294E-01  1.9088500230294E-01  1.9088500230294E-01  1.9088500230294E-01  1.9088500230294E-01  1.9088500230294E-01  1.9088500230294E-01  1.9088500230294E-01 
 7.6051067851329E-10  7.6051054052941E-10  7.6051053289398E-10  7.6051065590827E-10  7.6051052556388E-10  7.6051054052261E-10  7.6051054051651E-10  7.6051053291022E-10  7.6051065595247E-10  7.6051064862594E-10 
 4.6981580873716E-03  4.6981580873430E-03  4.6981580873143E-03  4.6981580873143E-03  4.6981580873143E-03  4.6981580873143E-03  4.6981580873143E-03  4.6981580873143E-03  4.6981580880951E-03  4.6981580888759E-03 
 4.6981580873716E-03  4.6981580873430E-03  4.6981580873143E-03  4.6981580873143E-03  4.6981580873143E-03  4.6981580873143E-03  4.6981580873143E-03  4.6981580873143E-03  4.6981580880951E-03  4.6981580888759E-03 
 0.0000000000000E+00  0.0000000000000E+00  0.0000000000000E+00  0.0000000000000E+00  0.0000000000000E+00  0.0000000000000E+00  0.0000000000000E+00  0.0000000000000E+00  0.0000000000000E+00  0.0000000000000E+00 
ZONE T = "SEP , 2.3781E-07", I = 10, SOLUTIONTIME = 2.378125E-07
ZONETYPE = ORDERED
DATAPACKING = BLOCK
STRANDID = 2
 7.8740000000000E-04  8.4102222222222E-04  8.9464444444444E-04  9.4826666666667E-04  1.0018888888889E-03  1.0555111111111E-03  1.1091333333333E-03  1.1627555555556E-03  1.2163777777778E-03  1.2700000000000E-03 
 8.7189228478550E-09  8.7189228478550E-09  8.7189228478550E-09  8.7189228478550E-09  8.7189228478550E-09  8.7189228478550E-09  8.7189228478550E-09  8.7189228478550E-09  8.7190185075035E-09  8.2348966586301E-09 
 9.1999999999714E-01  9.2000000000000E-01  9.2000000000000E-01  9.2000000000000E-01  9.2000000000000E-01  9.2000000000000E-01  9.2000000000000E-01  9.2000000000000E-01  9.2000000000000E-01  9.2000000000316E-01 
 4.0000000001431E-02  4.0000000000001E-02  4.0000000000000E-02  4.0000000000000E-02  4.0000000000000E-02  4.0000000000000E-02  4.0000000000000E-02  4.0000000000000E-02  3.9999999999999E-02  3.9999999998422E-02 
 4.0000000001431E-02  4.0000000000001E-02  4.0000000000000E-02  4.0000000000000E-02  4.0000000000000E-02  4.0000000000000E-02  4.0000000000000E-02  4.0000000000000E-02  3.9999999999999E-02  3.9999999998422E-02 
 1.8787208338634E-02  1.8787188273221E-02  1.8787168207808E-02  1.8787148142395E-02  1.8787128076982E-02  1.8787108011569E-02  1.8787087946156E-02  1.8787067880743E-02  1.8787047815330E-02  1.8787027749917E-02 
 8.0911499769706E-01  8.0911499769706E-01  8.0911499769706E-01  8.0911499769706E-01  8.0911499769706E-01  8.0911499769706E-01  8.0911499769706E-01  8.0911499769706E-01  8.0911499769706E-01  8.0911499769706E-01 
 2.6811111111111E-05  5.3622222222222E-05  5.3622222222222E-05  5.3622222222222E-05  5.3622222222222E-05  5.3622222222222E-05  5.3622222222222E-05  5.3622222222223E-05  5.3622222222222E-05  2.6811111111111E-05 
 1.9088500230294E-01  1.9088500230294E-01  1.9088500230294E-01  1.9088500230294E-01  1.9088500230294E-01  1.9088500230294E-01  1.9088500230294E-01  1.9088500230294E-01  1.9088500230294E-01  1.9088500230294E-01 
 1.1172770581517E-09  1.1172769202263E-09  1.1172769126494E-09  1.1172770356637E-09  1.1172769053193E-09  1.1172769202780E-09  1.1172769202719E-09  1.1172769126656E-09  1.1172770357044E-09  1.1172770283743E-09 
 4.6981580857738E-03  4.6981580865441E-03  4.6981580873144E-03  4.6981580873143E-03  4.6981580873143E-03  4.6981580873143E-03  4.6981580873143E-03  4.6981580873143E-03  4.6981580872680E-03  4.6981580872216E-03 
 4.6981580857738E-03  4.6981580865441E-03  4.6981580873144E-03  4.6981580873143E-03  4.6981580873143E-03  4.6981580873143E-03  4.6981580873143E-03  4.6981580873143E-03  4.6981580872680E-03  4.6981580872216E-03 
 0.0000000000000E+00  0.0000000000000E+00  0.0000000000000E+00  0.0000000000000E+00  0.0000000000000E+00  0.0000000000000E+00  0.0000000000000E+00  0.0000000000000E+00  0.0000000000000E+00  0.0000000000000E+00 
ZONE T = "SEP , 3.5172E-07", I = 10, SOLUTIONTIME = 3.517188E-07
ZONETYPE = ORDERED
DATAPACKING = BLOCK
STRANDID = 2
 7.8740000000000E-04  8.4102222222222E-04  8.9464444444444E-04  9.4826666666667E-04  1.0018888888889E-03  1.0555111111111E-03  1.1091333333333E-03  1.1627555555556E-03  1.2163777777778E-03  1.2700000000000E-03 
 8.7183568611302E-09  8.7183568611302E-09  8.7183568611302E-09  8.7183568611302E-09  8.7183568611302E-09  8.7183568611302E-09  8.7183568611302E-09  8.7183568611302E-09  8.7182293149323E-09  8.2340596362503E-09 
 9.1999999999577E-01  9.2000000000000E-01  9.2000000000000E-01  9.2000000000000E-01  9.2000000000000E-01  9.2000000000000E-01  9.2000000000000E-01  9.2000000000000E-01  9.2000000000000E-01  9.2000000000467E-01 
 4.0000000002117E-02  4.0000000000001E-02  4.0000000000000E-02  4.0000000000000E-02  4.0000000000000E-02  4.0000000000000E-02  4.0000000000000E-02  4.0000000000000E-02  3.9999999999998E-02  3.9999999997666E-02 