TITLE = "Solution on Domain BulkDomain1D_1"
VARIABLES = "x [m]"  
"Vel_axial" 	"MF_sp(ECDMC)" 	"MF_sp(Li+)" 	"MF_sp(PF6-)" 	"Volt(Electroly)" 	"Porosity []" 	"Control volume thickness [m]" 	"volFrac MgO(S) []" 	"qHeat_accum [J/m3]" 	"qHeat_step [W/m3]" 	"Joule_Lyte [W/m3]" 	"Joule_Solid [W/m3]" 	
ZONE T = "SEP , 0.0000E+00", I = 10, SOLUTIONTIME = 0.000000E+00
ZONETYPE = ORDERED
DATAPACKING = BLOCK
STRANDID = 2
 7.8740000000000E-04  8.4102222222222E-04  8.9464444444444E-04  9.4826666666667E-04  1.0018888888889E-03  1.0555111111111E-03  1.1091333333333E-03  1.1627555555556E-03  1.2163777777778E-03  1.2700000000000E-03 
 0.0000000000000E+00  0.0000000000000E+00  0.0000000000000E+00  0.0000000000000E+00  0.0000000000000E+00  0.0000000000000E+00  0.0000000000000E+00  0.0000000000000E+00  0.0000000000000E+00  0.0000000000000E+00 
 9.2000000000000E-01  9.2000000000000E-01  9.2000000000000E-01  9.2000000000000E-01  9.2000000000000E-01  9.2000000000000E-01  9.2000000000000E-01  9.2000000000000E-01  9.2000000000000E-01  9.2000000000000E-01 
 4.0000000000000E-02  4.0000000000000E-02  4.0000000000000E-02  4.0000000000000E-02  4.0000000000000E-02  4.0000000000000E-02  4.0000000000000E-02  4.0000000000000E-02  4.0000000000000E-02  4.0000000000000E-02 
 4.0000000000000E-02  4.0000000000000E-02  4.0000000000000E-02  4.0000000000000E-02  4.0000000000000E-02  4.0000000000000E-02  4.0000000000000E-02  4.0000000000000E-02  4.0000000000000E-02  4.0000000000000E-02 
-7.0000000000000E-02 -7.0000000000000E-02 -7.0000000000000E-02 -7.0000000000000E-02 -7.0000000000000E-02 -7.0000000000000E-02 -7.0000000000000E-02 -7.0000000000000E-02 -7.0000000000000E-02 -7.0000000000000E-02 
 8.0911499769706E-01  8.0911499769706E-01  8.0911499769706E-01  8.0911499769706E-01  8.0911499769706E-01  8.0911499769706E-01  8.0911499769706E-01  8.0911499769706E-01  8.0911499769706E-01  8.0911499769706E-01 
 2.6811111111111E-05  5.3622222222222E-05  5.3622222222222E-05  5.3622222222222E-05  5.3622222222222E-05  5.3622222222222E-05  5.3622222222222E-05  5.3622222222223E-05  5.3622222222222E-05  2.6811111111111E-05 
 1.9088500230294E-01  1.9088500230294E-01  1.9088500230294E-01  1.9088500230294E-01  1.9088500230294E-01  1.9088500230294E-01  1.9088500230294E-01  1.9088500230294E-01  1.9088500230294E-01  1.9088500230294E-01 
 0.0000000000000E+00  0.0000000000000E+00  0.0000000000000E+00  0.0000000000000E+00  0.0000000000000E+00  0.0000000000000E+00  0.0000000000000E+00  0.0000000000000E+00  0.0000000000000E+00  0.0000000000000E+00 
 0.0000000000000E+00  0.0000000000000E+00  0.0000000000000E+00  0.0000000000000E+00  0.0000000000000E+00  0.0000000000000E+00  0.0000000000000E+00  0.0000000000000E+00  0.0000000000000E+00  0.0000000000000E+00 
 0.0000000000000E+00  0.0000000000000E+00  0.0000000000000E+00  0.0000000000000E+00  0.0000000000000E+00  0.0000000000000E+00  0.0000000000000E+00  0.0000000000000E+00  0.0000000000000E+00  0.0000000000000E+00 
 0.0000000000000E+00  0.0000000000000E+00  0.0000000000000E+00  0.0000000000000E+00  0.0000000000000E+00  0.0000000000000E+00  0.0000000000000E+00  0.0000000000000E+00  0.0000000000000E+00  0.0000000000000E+00 
ZONE T = "SEP , 1.0000E-08", I = 10, SOLUTIONTIME = 1.000000E-08
ZONETYPE = ORDERED
DATAPACKING = BLOCK
STRANDID = 2
 7.8740000000000E-04  8.4102222222222E-04  8.9464444444444E-04  9.4826666666667E-04  1.0018888888889E-03  1.0555111111111E-03  1.1091333333333E-03  1.1627555555556E-03  1.2163777777778E-03  1.2700000000000E-03 
 8.7180699758405E-09  8.7180699758405E-09  8.7180699758405E-09  8.7180699758405E-09  8.7180699758405E-09  8.7180699758405E-09  8.7180699758405E-09  8.7180699758405E-09  8.7180699758405E-09  8.2334226852301E-09 
 9.1999999999988E-01  9.2000000000000E-01  9.2000000000000E-01  9.2000000000000E-01  9.2000000000000E-01  9.2000000000000E-01  9.2000000000000E-01  9.2000000000000E-01  9.2000000000000E-01  9.2000000000013E-01 
 4.0000000000060E-02  4.0000000000000E-02  4.0000000000000E-02  4.0000000000000E-02  4.0000000000000E-02  4.0000000000000E-02  4.0000000000000E-02  4.0000000000000E-02  4.0000000000000E-02  3.9999999999934E-02 
 4.0000000000060E-02  4.0000000000000E-02  4.0000000000000E-02  4.0000000000000E-02  4.0000000000000E-02  4.0000000000000E-02  4.0000000000000E-02  4.0000000000000E-02  4.0000000000000E-02  3.9999999999934E-02 
 1.8779657553813E-02  1.8779637489231E-02  1.8779617424599E-02  1.8779597360022E-02  1.8779577295383E-02  1.8779557230806E-02  1.8779537166175E-02  1.8779517101595E-02  1.8779497036961E-02  1.8779476972377E-02 
 8.0911499769706E-01  8.0911499769706E-01  8.0911499769706E-01  8.0911499769706E-01  8.0911499769706E-01  8.0911499769706E-01  8.0911499769706E-01  8.0911499769706E-01  8.0911499769706E-01  8.0911499769706E-01 
 2.6811111111111E-05  5.3622222222222E-05  5.3622222222222E-05  5.3622222222222E-05  5.3622222222222E-05  5.3622222222222E-05  5.3622222222222E-05  5.3622222222223E-05  5.3622222222222E-05  2.6811111111111E-05 
 1.9088500230294E-01  1.9088500230294E-01  1.9088500230294E-01  1.9088500230294E-01  1.9088500230294E-01  1.9088500230294E-01  1.9088500230294E-01  1.9088500230294E-01  1.9088500230294E-01  1.9088500230294E-01 
 4.6977692297222E-11  4.6977807279826E-11  4.6977793210601E-11  4.6977810650943E-11  4.6977810992113E-11  4.6977793551772E-11  4.6977800862560E-11  4.6977804802273E-11  4.6977814590589E-11  4.6977699039321E-11 
 4.6977692297222E-03  4.6977807279826E-03  4.6977793210601E-03  4.6977810650943E-03  4.6977810992113E-03  4.6977793551772E-03  4.6977800862560E-03  4.6977804802273E-03  4.6977814590589E-03  4.6977699039321E-03 
 4.6977692297222E-03  4.6977807279826E-03  4.6977793210601E-03  4.6977810650943E-03  4.6977810992113E-03  4.6977793551772E-03  4.6977800862560E-03  4.6977804802273E-03  4.6977814590589E-03  4.6977699039321E-03 
 0.0000000000000E+00  0.0000000000000E+00  0.0000000000000E+00  0.0000000000000E+00  0.0000000000000E+00  0.0000000000000E+00  0.0000000000000E+00  0.0000000000000E+00  0.0000000000000E+00  0.0000000000000E+00 
ZONE T = "SEP , 2.0000E-08", I = 10, SOLUTIONTIME = 2.000000E-08
ZONETYPE = ORDERED
DATAPACKING = BLOCK
STRANDID = 2
 7.8740000000000E-04  8.4102222222222E-04  8.9464444444444E-04  9.4826666666667E-04  1.0018888888889E-03  1.0555111111111E-03  1.1091333333333E-03  1.1627555555556E-03  1.2163777777778E-03  1.2700000000000E-03 
 8.7213262974483E-09  8.7213262974483E-09  8.7213262974483E-09  8.7213262974483E-09  8.7213262974483E-09  8.7213262974483E-09  8.7213262974483E-09  8.7213262974483E-09  8.7213262974483E-09  8.2361148253613E-09 
 9.1999999999976E-01  9.2000000000000E-01  9.2000000000000E-01  9.2000000000000E-01  9.2000000000000E-01  9.2000000000000E-01  9.2000000000000E-01  9.2000000000000E-01  9.2000000000000E-01  9.2000000000027E-01 
 4.0000000000120E-02  4.0000000000000E-02  4.0000000000000E-02  4.0000000000000E-02  4.0000000000000E-02  4.0000000000000E-02  4.0000000000000E-02  4.0000000000000E-02  4.0000000000000E-02  3.9999999999867E-02 
 4.0000000000120E-02  4.0000000000000E-02  4.0000000000000E-02  4.0000000000000E-02  4.0000000000000E-02  4.0000000000000E-02  4.0000000000000E-02  4.0000000000000E-02  4.0000000000000E-02  3.9999999999867E-02 
 1.8779674880181E-02  1.8779654814768E-02  1.8779634749355E-02  1.8779614683942E-02  1.8779594618529E-02  1.8779574553116E-02  1.8779554487703E-02  1.8779534422290E-02  1.8779514356877E-02  1.8779494291464E-02 
 8.0911499769706E-01  8.0911499769706E-01  8.0911499769706E-01  8.0911499769706E-01  8.0911499769706E-01  8.0911499769706E-01  8.0911499769706E-01  8.0911499769706E-01  8.0911499769706E-01  8.0911499769706E-01 
 2.6811111111111E-05  5.3622222222222E-05  5.3622222222222E-05  5.3622222222222E-05  5.3622222222222E-05  5.3622222222222E-05  5.3622222222222E-05  5.3622222222223E-05  5.3622222222222E-05  2.6811111111111E-05 
 1.9088500230294E-01  1.9088500230294E-01  1.9088500230294E-01  1.9088500230294E-01  1.9088500230294E-01  1.9088500230294E-01  1.9088500230294E-01  1.9088500230294E-01  1.9088500230294E-01  1.9088500230294E-01 
 9.3959273170437E-11  9.3959388153005E-11  9.3959374091868E-11  9.3959391532210E-11  9.3959391873380E-11  9.3959374433038E-11  9.3959381743827E-11  9.3959385683539E-11  9.3959395471817E-11  9.3959279928634E-11 
 4.6981580873214E-03  4.6981580873179E-03  4.6981580881267E-03  4.6981580881267E-03  4.6981580881267E-03  4.6981580881267E-03  4.6981580881267E-03  4.6981580881266E-03  4.6981580881228E-03  4.6981580889312E-03 
 4.6981580873214E-03  4.6981580873179E-03  4.6981580881267E-03  4.6981580881267E-03  4.6981580881267E-03  4.6981580881267E-03  4.6981580881267E-03  4.6981580881266E-03  4.6981580881228E-03  4.6981580889312E-03 
 0.0000000000000E+00  0.0000000000000E+00  0.0000000000000E+00  0.0000000000000E+00  0.0000000000000E+00  0.0000000000000E+00  0.0000000000000E+00  0.0000000000000E+00  0.0000000000000E+00  0.0000000000000E+00 
ZONE T = "SEP , 3.0000E-08", I = 10, SOLUTIONTIME = 3.000000E-08
ZONETYPE = ORDERED
DATAPACKING = BLOCK
STRANDID = 2
 7.8740000000000E-04  8.4102222222222E-04  8.9464444444444E-04  9.4826666666667E-04  1.0018888888889E-03  1.0555111111111E-03  1.1091333333333E-03  1.1627555555556E-03  1.2163777777778E-03  1.2700000000000E-03 
 8.7175126162513E-09  8.7160597853402E-09  8.7160597853402E-09  8.7160597853402E-09  8.7160597853402E-09  8.7160597853401E-09  8.7160597853401E-09  8.7160597853401E-09  8.7160597853401E-09  8.2330275596216E-09 
 9.1999999999964E-01  9.2000000000000E-01  9.2000000000000E-01  9.2000000000000E-01  9.2000000000000E-01  9.2000000000000E-01  9.2000000000000E-01  9.2000000000000E-01  9.2000000000000E-01  9.2000000000040E-01 
 4.0000000000181E-02  4.0000000000000E-02  4.0000000000000E-02  4.0000000000000E-02  4.0000000000000E-02  4.0000000000000E-02  4.0000000000000E-02  4.0000000000000E-02  4.0000000000000E-02  3.9999999999801E-02 
 4.0000000000181E-02  4.0000000000000E-02  4.0000000000000E-02  4.0000000000000E-02  4.0000000000000E-02  4.0000000000000E-02  4.0000000000000E-02  4.0000000000000E-02  4.0000000000000E-02  3.9999999999801E-02 
 1.8779674880129E-02  1.8779654814716E-02  1.8779634749303E-02  1.8779614683890E-02  1.8779594618477E-02  1.8779574553064E-02  1.8779554487651E-02  1.8779534422238E-02  1.8779514356825E-02  1.8779494291412E-02 
 8.0911499769706E-01  8.0911499769706E-01  8.0911499769706E-01  8.0911499769706E-01  8.0911499769706E-01  8.0911499769706E-01  8.0911499769706E-01  8.0911499769706E-01  8.0911499769706E-01  8.0911499769706E-01 
 2.6811111111111E-05  5.3622222222222E-05  5.3622222222222E-05  5.3622222222222E-05  5.3622222222222E-05  5.3622222222222E-05  5.3622222222222E-05  5.3622222222223E-05  5.3622222222222E-05  2.6811111111111E-05 
 1.9088500230294E-01  1.9088500230294E-01  1.9088500230294E-01  1.9088500230294E-01  1.9088500230294E-01  1.9088500230294E-01  1.9088500230294E-01  1.9088500230294E-01  1.9088500230294E-01  1.9088500230294E-01 
 1.4094085405993E-10  1.4094096903432E-10  1.4094095497313E-10  1.4094097241348E-10  1.4094097275465E-10  1.4094095531431E-10  1.4094096262509E-10  1.4094096656481E-10  1.4094097635303E-10  1.4094086081791E-10 
 4.6981580889496E-03  4.6981580881320E-03  4.6981580881267E-03  4.6981580881267E-03  4.6981580881267E-03  4.6981580881267E-03  4.6981580881267E-03  4.6981580881266E-03  4.6981580881208E-03  4.6981580889273E-03 
 4.6981580889496E-03  4.6981580881320E-03  4.6981580881267E-03  4.6981580881267E-03  4.6981580881267E-03  4.6981580881267E-03  4.6981580881267E-03  4.6981580881266E-03  4.6981580881208E-03  4.6981580889273E-03 
 0.0000000000000E+00  0.0000000000000E+00  0.0000000000000E+00  0.0000000000000E+00  0.0000000000000E+00  0.0000000000000E+00  0.0000000000000E+00  0.0000000000000E+00  0.0000000000000E+00  0.0000000000000E+00 
ZONE T = "SEP , 4.0000E-08", I = 10, SOLUTIONTIME = 4.000000E-08
ZONETYPE = ORDERED
DATAPACKING = BLOCK
STRANDID = 2
 7.8740000000000E-04  8.4102222222222E-04  8.9464444444444E-04  9.4826666666667E-04  1.0018888888889E-03  1.0555111111111E-03  1.1091333333333E-03  1.1627555555556E-03  1.2163777777778E-03  1.2700000000000E-03 
 8.7247767707515E-09  8.7262296016627E-09  8.7262296016627E-09  8.7262296016626E-09  8.7262296016626E-09  8.7262296016626E-09  8.7262296016626E-09  8.7262296016626E-09  8.7262296016626E-09  8.2415629411707E-09 
 9.1999999999952E-01  9.2000000000000E-01  9.2000000000000E-01  9.2000000000000E-01  9.2000000000000E-01  9.2000000000000E-01  9.2000000000000E-01  9.2000000000000E-01  9.2000000000000E-01  9.2000000000053E-01 
 4.0000000000241E-02  4.0000000000000E-02  4.0000000000000E-02  4.0000000000000E-02  4.0000000000000E-02  4.0000000000000E-02  4.0000000000000E-02  4.0000000000000E-02  4.0000000000000E-02  3.9999999999734E-02 
 4.0000000000241E-02  4.0000000000000E-02  4.0000000000000E-02  4.0000000000000E-02  4.0000000000000E-02  4.0000000000000E-02  4.0000000000000E-02  4.0000000000000E-02  4.0000000000000E-02  3.9999999999734E-02 
 1.8779674880076E-02  1.8779654814663E-02  1.8779634749250E-02  1.8779614683837E-02  1.8779594618424E-02  1.8779574553011E-02  1.8779554487598E-02  1.8779534422185E-02  1.8779514356772E-02  1.8779494291359E-02 
 8.0911499769706E-01  8.0911499769706E-01  8.0911499769706E-01  8.0911499769706E-01  8.0911499769706E-01  8.0911499769706E-01  8.0911499769706E-01  8.0911499769706E-01  8.0911499769706E-01  8.0911499769706E-01 
 2.6811111111111E-05  5.3622222222222E-05  5.3622222222222E-05  5.3622222222222E-05  5.3622222222222E-05  5.3622222222222E-05  5.3622222222222E-05  5.3622222222223E-05  5.3622222222222E-05  2.6811111111111E-05 
 1.9088500230294E-01  1.9088500230294E-01  1.9088500230294E-01  1.9088500230294E-01  1.9088500230294E-01  1.9088500230294E-01  1.9088500230294E-01  1.9088500230294E-01  1.9088500230294E-01  1.9088500230294E-01 
 1.8792243493322E-10  1.8792254991566E-10  1.8792253585440E-10  1.8792255328662E-10  1.8792255363591E-10  1.8792253619557E-10  1.8792254350636E-10  1.8792254744607E-10  1.8792255723421E-10  1.8792244170714E-10 
 4.6981580873285E-03  4.6981580881337E-03  4.6981580881267E-03  4.6981580873143E-03  4.6981580881267E-03  4.6981580881267E-03  4.6981580881267E-03  4.6981580881266E-03  4.6981580881189E-03  4.6981580889235E-03 
 4.6981580873285E-03  4.6981580881337E-03  4.6981580881267E-03  4.6981580873143E-03  4.6981580881267E-03  4.6981580881267E-03  4.6981580881267E-03  4.6981580881266E-03  4.6981580881189E-03  4.6981580889235E-03 
 0.0000000000000E+00  0.0000000000000E+00  0.0000000000000E+00  0.0000000000000E+00  0.0000000000000E+00  0.0000000000000E+00  0.0000000000000E+00  0.0000000000000E+00  0.0000000000000E+00  0.0000000000000E+00 
ZONE T = "SEP , 5.5000E-08", I = 10, SOLUTIONTIME = 5.500000E-08
ZONETYPE = ORDERED
DATAPACKING = BLOCK
STRANDID = 2
 7.8740000000000E-04  8.4102222222222E-04  8.9464444444444E-04  9.4826666666667E-04  1.0018888888889E-03  1.0555111111111E-03  1.1091333333333E-03  1.1627555555556E-03  1.2163777777778E-03  1.2700000000000E-03 
 8.7122461040850E-09  8.7122461040850E-09  8.7122461040850E-09  8.7122461040850E-09  8.7122461040850E-09  8.7122461040850E-09  8.7122461040850E-09  8.7122461040850E-09  8.7122461040850E-09  8.2287296013996E-09 
 9.1999999999934E-01  9.2000000000000E-01  9.2000000000000E-01  9.2000000000000E-01  9.2000000000000E-01  9.2000000000000E-01  9.2000000000000E-01  9.2000000000000E-01  9.2000000000000E-01  9.2000000000073E-01 
 4.0000000000331E-02  4.0000000000000E-02  4.0000000000000E-02  4.0000000000000E-02  4.0000000000000E-02  4.0000000000000E-02  4.0000000000000E-02  4.0000000000000E-02  4.0000000000000E-02  3.9999999999635E-02 
 4.0000000000331E-02  4.0000000000000E-02  4.0000000000000E-02  4.0000000000000E-02  4.0000000000000E-02  4.0000000000000E-02  4.0000000000000E-02  4.0000000000000E-02  4.0000000000000E-02  3.9999999999635E-02 
 1.8779674880015E-02  1.8779654814602E-02  1.8779634749189E-02  1.8779614683776E-02  1.8779594618363E-02  1.8779574552950E-02  1.8779554487537E-02  1.8779534422124E-02  1.8779514356711E-02  1.8779494291298E-02 
 8.0911499769706E-01  8.0911499769706E-01  8.0911499769706E-01  8.0911499769706E-01  8.0911499769706E-01  8.0911499769706E-01  8.0911499769706E-01  8.0911499769706E-01  8.0911499769706E-01  8.0911499769706E-01 
 2.6811111111111E-05  5.3622222222222E-05  5.3622222222222E-05  5.3622222222222E-05  5.3622222222222E-05  5.3622222222222E-05  5.3622222222222E-05  5.3622222222223E-05  5.3622222222222E-05  2.6811111111111E-05 
 1.9088500230294E-01  1.9088500230294E-01  1.9088500230294E-01  1.9088500230294E-01  1.9088500230294E-01  1.9088500230294E-01  1.9088500230294E-01  1.9088500230294E-01  1.9088500230294E-01  1.9088500230294E-01 
 2.5839480624322E-10  2.5839492123771E-10  2.5839490717630E-10  2.5839492460852E-10  2.5839492495781E-10  2.5839490750529E-10  2.5839491482826E-10  2.5839491876797E-10  2.5839492854377E-10  2.5839481301654E-10 
 4.6981580873338E-03  4.6981580881364E-03  4.6981580881267E-03  4.6981580881267E-03  4.6981580881267E-03  4.6981580873144E-03  4.6981580881267E-03  4.6981580881266E-03  4.6981580873036E-03  4.6981580872929E-03 
 4.6981580873338E-03  4.6981580881364E-03  4.6981580881267E-03  4.6981580881267E-03  4.6981580881267E-03  4.6981580873144E-03  4.6981580881267E-03  4.6981580881266E-03  4.6981580873036E-03  4.6981580872929E-03 
 0.0000000000000E+00  0.0000000000000E+00  0.0000000000000E+00  0.0000000000000E+00  0.0000000000000E+00  0.0000000000000E+00  0.0000000000000E+00  0.0000000000000E+00  0.0000000000000E+00  0.0000000000000E+00 
ZONE T = "SEP , 7.7500E-08", I = 10, SOLUTIONTIME = 7.750000E-08
ZONETYPE = ORDERED
DATAPACKING = BLOCK
STRANDID = 2
 7.8740000000000E-04  8.4102222222222E-04  8.9464444444444E-04  9.4826666666667E-04  1.0018888888889E-03  1.0555111111111E-03  1.1091333333333E-03  1.1627555555556E-03  1.2163777777778E-03  1.2700000000000E-03 
 8.7204384560739E-09  8.7204384560739E-09  8.7204384560739E-09  8.7204384560739E-09  8.7204384560739E-09  8.7204384560739E-09  8.7204384560739E-09  8.7204384560739E-09  8.7204384560739E-09  8.2361551815218E-09 
 9.1999999999907E-01  9.2000000000000E-01  9.2000000000000E-01  9.2000000000000E-01  9.2000000000000E-01  9.2000000000000E-01  9.2000000000000E-01  9.2000000000000E-01  9.2000000000000E-01  9.2000000000103E-01 
 4.0000000000467E-02  4.0000000000000E-02  4.0000000000000E-02  4.0000000000000E-02  4.0000000000000E-02  4.0000000000000E-02  4.0000000000000E-02  4.0000000000000E-02  4.0000000000000E-02  3.9999999999486E-02 
 4.0000000000467E-02  4.0000000000000E-02  4.0000000000000E-02  4.0000000000000E-02  4.0000000000000E-02  4.0000000000000E-02  4.0000000000000E-02  4.0000000000000E-02  4.0000000000000E-02  3.9999999999486E-02 
 1.8779674879899E-02  1.8779654814486E-02  1.8779634749073E-02  1.8779614683660E-02  1.8779594618247E-02  1.8779574552834E-02  1.8779554487421E-02  1.8779534422008E-02  1.8779514356595E-02  1.8779494291182E-02 
 8.0911499769706E-01  8.0911499769706E-01  8.0911499769706E-01  8.0911499769706E-01  8.0911499769706E-01  8.0911499769706E-01  8.0911499769706E-01  8.0911499769706E-01  8.0911499769706E-01  8.0911499769706E-01 
 2.6811111111111E-05  5.3622222222222E-05  5.3622222222222E-05  5.3622222222222E-05  5.3622222222222E-05  5.3622222222222E-05  5.3622222222222E-05  5.3622222222223E-05  5.3622222222222E-05  2.6811111111111E-05 
 1.9088500230294E-01  1.9088500230294E-01  1.9088500230294E-01  1.9088500230294E-01  1.9088500230294E-01  1.9088500230294E-01  1.9088500230294E-01  1.9088500230294E-01  1.9088500230294E-01  1.9088500230294E-01 
 3.6410336324497E-10  3.6410347822087E-10  3.6410346414087E-10  3.6410348159137E-10  3.6410348194066E-10  3.6410346446986E-10  3.6410347181111E-10  3.6410347575082E-10  3.6410348550800E-10  3.6410336998043E-10 
 4.6981580889664E-03  4.6981580881404E-03  4.6981580873143E-03  4.6981580881267E-03  4.6981580881267E-03  4.6981580873143E-03  4.6981580881267E-03  4.6981580881266E-03  4.6981580872992E-03  4.6981580872841E-03 
 4.6981580889664E-03  4.6981580881404E-03  4.6981580873143E-03  4.6981580881267E-03  4.6981580881267E-03  4.6981580873143E-03  4.6981580881267E-03  4.6981580881266E-03  4.6981580872992E-03  4.6981580872841E-03 
 0.0000000000000E+00  0.0000000000000E+00  0.0000000000000E+00  0.0000000000000E+00  0.0000000000000E+00  0.0000000000000E+00  0.0000000000000E+00  0.0000000000000E+00  0.0000000000000E+00  0.0000000000000E+00 
ZONE T = "SEP , 1.1125E-07", I = 10, SOLUTIONTIME = 1.112500E-07
ZONETYPE = ORDERED
DATAPACKING = BLOCK
STRANDID = 2
 7.8740000000000E-04  8.4102222222222E-04  8.9464444444444E-04  9.4826666666667E-04  1.0018888888889E-03  1.0555111111111E-03  1.1091333333333E-03  1.1627555555556E-03  1.2163777777778E-03  1.2700000000000E-03 
 8.7179363582540E-09  8.7179363582540E-09  8.7179363582540E-09  8.7179363582540E-09  8.7179363582540E-09  8.7179363582540E-09  8.7179363582540E-09  8.7179363582540E-09  8.7179363582540E-09  8.2338145093633E-09 
 9.1999999999866E-01  9.2000000000000E-01  9.2000000000000E-01  9.2000000000000E-01  9.2000000000000E-01  9.2000000000000E-01  9.2000000000000E-01  9.2000000000000E-01  9.2000000000000E-01  9.2000000000148E-01 
 4.0000000000670E-02  4.0000000000000E-02  4.0000000000000E-02  4.0000000000000E-02  4.0000000000000E-02  4.0000000000000E-02  4.0000000000000E-02  4.0000000000000E-02  4.0000000000000E-02  3.9999999999262E-02 
 4.0000000000670E-02  4.0000000000000E-02  4.0000000000000E-02  4.0000000000000E-02  4.0000000000000E-02  4.0000000000000E-02  4.0000000000000E-02  4.0000000000000E-02  4.0000000000000E-02  3.9999999999262E-02 
 1.8779674879728E-02  1.8779654814315E-02  1.8779634748902E-02  1.8779614683489E-02  1.8779594618076E-02  1.8779574552663E-02  1.8779554487250E-02  1.8779534421837E-02  1.8779514356424E-02  1.8779494291011E-02 
 8.0911499769706E-01  8.0911499769706E-01  8.0911499769706E-01  8.0911499769706E-01  8.0911499769706E-01  8.0911499769706E-01  8.0911499769706E-01  8.0911499769706E-01  8.0911499769706E-01  8.0911499769706E-01 
 2.6811111111111E-05  5.3622222222222E-05  5.3622222222222E-05  5.3622222222222E-05  5.3622222222222E-05  5.3622222222222E-05  5.3622222222222E-05  5.3622222222223E-05  5.3622222222222E-05  2.6811111111111E-05 
 1.9088500230294E-01  1.9088500230294E-01  1.9088500230294E-01  1.9088500230294E-01  1.9088500230294E-01  1.9088500230294E-01  1.9088500230294E-01  1.9088500230294E-01  1.9088500230294E-01  1.9088500230294E-01 
 5.2266619869316E-10  5.2266631366839E-10  5.2266629961515E-10  5.2266631706565E-10  5.2266631738752E-10  5.2266629991672E-10  5.2266630728539E-10  5.2266631122510E-10  5.2266632095413E-10  5.2266620542582E-10 
 4.6981580873537E-03  4.6981580873340E-03  4.6981580881267E-03  4.6981580881267E-03  4.6981580873143E-03  4.6981580873143E-03  4.6981580881267E-03  4.6981580881266E-03  4.6981580872927E-03  4.6981580872710E-03 
 4.6981580873537E-03  4.6981580873340E-03  4.6981580881267E-03  4.6981580881267E-03  4.6981580873143E-03  4.6981580873143E-03  4.6981580881267E-03  4.6981580881266E-03  4.6981580872927E-03  4.6981580872710E-03 
 0.0000000000000E+00  0.0000000000000E+00  0.0000000000000E+00  0.0000000000000E+00  0.0000000000000E+00  0.0000000000000E+00  0.0000000000000E+00  0.0000000000000E+00  0.0000000000000E+00  0.0000000000000E+00 
ZONE T = "SEP , 1.6188E-07", I = 10, SOLUTIONTIME = 1.618750E-07
ZONETYPE = ORDERED
DATAPACKING = BLOCK
STRANDID = 2
 7.8740000000000E-04  8.4102222222222E-04  8.9464444444444E-04  9.4826666666667E-04  1.0018888888889E-03  1.0555111111111E-03  1.1091333333333E-03  1.1627555555556E-03  1.2163777777778E-03  1.2700000000000E-03 
 8.7170216126559E-09  8.7170216126559E-09  8.7170216126559E-09  8.7170216126559E-09  8.7170216126559E-09  8.7170216126559E-09  8.7170216126559E-09  8.7170216126559E-09  8.7170216126559E-09  8.2328997637722E-09 
 9.1999999999805E-01  9.2000000000000E-01  9.2000000000000E-01  9.2000000000000E-01  9.2000000000000E-01  9.2000000000000E-01  9.2000000000000E-01  9.2000000000000E-01  9.2000000000000E-01  9.2000000000215E-01 
 4.0000000000974E-02  4.0000000000000E-02  4.0000000000000E-02  4.0000000000000E-02  4.0000000000000E-02  4.0000000000000E-02  4.0000000000000E-02  4.0000000000000E-02  4.0000000000000E-02  3.9999999998926E-02 
 4.0000000000974E-02  4.0000000000000E-02  4.0000000000000E-02  4.0000000000000E-02  4.0000000000000E-02  4.0000000000000E-02  4.0000000000000E-02  4.0000000000000E-02  4.0000000000000E-02  3.9999999998926E-02 
 1.8779674879470E-02  1.8779654814057E-02  1.8779634748644E-02  1.8779614683231E-02  1.8779594617818E-02  1.8779574552405E-02  1.8779554486992E-02  1.8779534421579E-02  1.8779514356166E-02  1.8779494290753E-02 
 8.0911499769706E-01  8.0911499769706E-01  8.0911499769706E-01  8.0911499769706E-01  8.0911499769706E-01  8.0911499769706E-01  8.0911499769706E-01  8.0911499769706E-01  8.0911499769706E-01  8.0911499769706E-01 
 2.6811111111111E-05  5.3622222222222E-05  5.3622222222222E-05  5.3622222222222E-05  5.3622222222222E-05  5.3622222222222E-05  5.3622222222222E-05  5.3622222222223E-05  5.3622222222222E-05  2.6811111111111E-05 
 1.9088500230294E-01  1.9088500230294E-01  1.9088500230294E-01  1.9088500230294E-01  1.9088500230294E-01  1.9088500230294E-01  1.9088500230294E-01  1.9088500230294E-01  1.9088500230294E-01  1.9088500230294E-01 
 7.6051045186634E-10  7.6051056688125E-10  7.6051055282656E-10  7.6051057023593E-10  7.6051057055781E-10  7.6051055308701E-10  7.6051056045568E-10  7.6051056439538E-10  7.6051057412282E-10  7.6051045859292E-10 
 4.6981580873716E-03  4.6981580881553E-03  4.6981580881267E-03  4.6981580873143E-03  4.6981580873143E-03  4.6981580873143E-03  4.6981580873143E-03  4.6981580873143E-03  4.6981580872828E-03  4.6981580872512E-03 
 4.6981580873716E-03  4.6981580881553E-03  4.6981580881267E-03  4.6981580873143E-03  4.6981580873143E-03  4.6981580873143E-03  4.6981580873143E-03  4.6981580873143E-03  4.6981580872828E-03  4.6981580872512E-03 
 0.0000000000000E+00  0.0000000000000E+00  0.0000000000000E+00  0.0000000000000E+00  0.0000000000000E+00  0.0000000000000E+00  0.0000000000000E+00  0.0000000000000E+00  0.0000000000000E+00  0.0000000000000E+00 
ZONE T = "SEP , 2.3781E-07", I = 10, SOLUTIONTIME = 2.378125E-07
ZONETYPE = ORDERED
DATAPACKING = BLOCK
STRANDID = 2
 7.8740000000000E-04  8.4102222222222E-04  8.9464444444444E-04  9.4826666666667E-04  1.0018888888889E-03  1.0555111111111E-03  1.1091333333333E-03  1.1627555555556E-03  1.2163777777778E-03  1.2700000000000E-03 
 8.7193533162732E-09  8.7193533162732E-09  8.7193533162732E-09  8.7193533162732E-09  8.7193533162732E-09  8.7193533162732E-09  8.7193533162732E-09  8.7193533162732E-09  8.7194489759217E-09  8.2353271270483E-09 
 9.1999999999714E-01  9.2000000000000E-01  9.2000000000000E-01  9.2000000000000E-01  9.2000000000000E-01  9.2000000000000E-01  9.2000000000000E-01  9.2000000000000E-01  9.2000000000000E-01  9.2000000000316E-01 
 4.0000000001431E-02  4.0000000000001E-02  4.0000000000000E-02  4.0000000000000E-02  4.0000000000000E-02  4.0000000000000E-02  4.0000000000000E-02  4.0000000000000E-02  3.9999999999999E-02  3.9999999998422E-02 
 4.0000000001431E-02  4.0000000000001E-02  4.0000000000000E-02  4.0000000000000E-02  4.0000000000000E-02  4.0000000000000E-02  4.0000000000000E-02  4.0000000000000E-02  3.9999999999999E-02  3.9999999998422E-02 
 1.8779674879085E-02  1.8779654813672E-02  1.8779634748259E-02  1.8779614682846E-02  1.8779594617433E-02  1.8779574552020E-02  1.8779554486607E-02  1.8779534421194E-02  1.8779514355781E-02  1.8779494290368E-02 
 8.0911499769706E-01  8.0911499769706E-01  8.0911499769706E-01  8.0911499769706E-01  8.0911499769706E-01  8.0911499769706E-01  8.0911499769706E-01  8.0911499769706E-01  8.0911499769706E-01  8.0911499769706E-01 
 2.6811111111111E-05  5.3622222222222E-05  5.3622222222222E-05  5.3622222222222E-05  5.3622222222222E-05  5.3622222222222E-05  5.3622222222222E-05  5.3622222222223E-05  5.3622222222222E-05  2.6811111111111E-05 
 1.9088500230294E-01  1.9088500230294E-01  1.9088500230294E-01  1.9088500230294E-01  1.9088500230294E-01  1.9088500230294E-01  1.9088500230294E-01  1.9088500230294E-01  1.9088500230294E-01  1.9088500230294E-01 
 1.1172768316282E-09  1.1172769466399E-09  1.1172769325820E-09  1.1172769499914E-09  1.1172769502516E-09  1.1172769327808E-09  1.1172769402111E-09  1.1172769441508E-09  1.1172769538747E-09  1.1172768383413E-09 
 4.6981580873984E-03  4.6981580873564E-03  4.6981580873144E-03  4.6981580873143E-03  4.6981580865020E-03  4.6981580865020E-03  4.6981580873143E-03  4.6981580873143E-03  4.6981580872680E-03  4.6981580872216E-03 
 4.6981580873984E-03  4.6981580873564E-03  4.6981580873144E-03  4.6981580873143E-03  4.6981580865020E-03  4.6981580865020E-03  4.6981580873143E-03  4.6981580873143E-03  4.6981580872680E-03  4.6981580872216E-03 
 0.0000000000000E+00  0.0000000000000E+00  0.0000000000000E+00  0.0000000000000E+00  0.0000000000000E+00  0.0000000000000E+00  0.0000000000000E+00  0.0000000000000E+00  0.0000000000000E+00  0.0000000000000E+00 
ZONE T = "SEP , 3.5172E-07", I = 10, SOLUTIONTIME = 3.517188E-07
ZONETYPE = ORDERED
DATAPACKING = BLOCK
STRANDID = 2
 7.8740000000000E-04  8.4102222222222E-04  8.9464444444444E-04  9.4826666666667E-04  1.0018888888889E-03  1.0555111111111E-03  1.1091333333333E-03  1.1627555555556E-03  1.2163777777778E-03  1.2700000000000E-03 
 8.7184206342293E-09  8.7184206342293E-09  8.7184206342293E-09  8.7184206342293E-09  8.7184206342293E-09  8.7184206342293E-09  8.7184206342293E-09  8.7184206342293E-09  8.7182930880313E-09  8.2341234093493E-09 
 9.1999999999577E-01  9.2000000000000E-01  9.2000000000000E-01  9.2000000000000E-01  9.2000000000000E-01  9.2000000000000E-01  9.2000000000000E-01  9.2000000000000E-01  9.2000000000000E-01  9.2000000000467E-01 
 4.0000000002117E-02  4.0000000000001E-02  4.0000000000000E-02  4.0000000000000E-02  4.0000000000000E-02  4.0000000000000E-02  4.0000000000000E-02  4.0000000000000E-02  3.9999999999998E-02  3.9999999997666E-02 