TITLE = "Solution on Domain BulkDomain1D_2"
VARIABLES = "x [m]"  
"Vel_axial" 	"MF_sp(ECDMC)" 	"MF_sp(Li+)" 	"MF_sp(PF6-)" 	"Volt(Electroly)" 	"Volt(CathodeVo)" 	
"Potential Drop Electrode-Electrolyte [V]" 	"Surf_0 Equilibrium Potential Drop Electrode-Electrolyte [V]" 	"Overpotential_0 [V]" 	"Current Source [A/m^2]" 	"Li+ flux [kmol/m^2/s]" 	"Electrolyte Current [A/m^2]" 	"Electrode Current [A/m^2]" 	
"CV Capacity discharged [A-s/m^2]" 	"Depth of discharge in CV [A-s/m^2]" 	"CV Capacity remaining [A-s/m^2]" 	"Initial CV capacity [A-s/m^2]" 	"Porosity []" 	"Surface Area [m2/m2] (area per area)" 	"Specific current (per particle area) [A/m^2]" 	"Control volume thickness [m]" 	
"MoleDens LiCoO2 [kmol/m^3]" 	"MoleDens CoO2 [kmol/m^3]" 	"qHeat_accum [J/m3]" 	"qHeat_step [W/m3]" 	"Joule_Lyte [W/m3]" 	"Joule_Solid [W/m3]" 	"electrodHeat [W/m3]" 	"OverpotHeat [W/m3]" 	"deltaSHeat [W/m3]" 	

ZONE T = "CATH, 0.0000E+00", I = 10, SOLUTIONTIME = 0.000000E+00
ZONETYPE = ORDERED
DATAPACKING = BLOCK
STRANDID = 3
 1.2700000000000E-03  1.3377333333333E-03  1.4054666666667E-03  1.4732000000000E-03  1.5409333333333E-03  1.6086666666667E-03  1.6764000000000E-03  1.7441333333333E-03  1.8118666666667E-03  1.8796000000000E-03 
 0.0000000000000E+00  0.0000000000000E+00  0.0000000000000E+00  0.0000000000000E+00  0.0000000000000E+00  0.0000000000000E+00  0.0000000000000E+00  0.0000000000000E+00  0.0000000000000E+00  0.0000000000000E+00 
 9.2000000000000E-01  9.2000000000000E-01  9.2000000000000E-01  9.2000000000000E-01  9.2000000000000E-01  9.2000000000000E-01  9.2000000000000E-01  9.2000000000000E-01  9.2000000000000E-01  9.2000000000000E-01 
 4.0000000000000E-02  4.0000000000000E-02  4.0000000000000E-02  4.0000000000000E-02  4.0000000000000E-02  4.0000000000000E-02  4.0000000000000E-02  4.0000000000000E-02  4.0000000000000E-02  4.0000000000000E-02 
 4.0000000000000E-02  4.0000000000000E-02  4.0000000000000E-02  4.0000000000000E-02  4.0000000000000E-02  4.0000000000000E-02  4.0000000000000E-02  4.0000000000000E-02  4.0000000000000E-02  4.0000000000000E-02 
-7.0000000000000E-02 -7.0000000000000E-02 -7.0000000000000E-02 -7.0000000000000E-02 -7.0000000000000E-02 -7.0000000000000E-02 -7.0000000000000E-02 -7.0000000000000E-02 -7.0000000000000E-02 -7.0000000000000E-02 
 3.8000000000000E+00  3.8000000000000E+00  3.8000000000000E+00  3.8000000000000E+00  3.8000000000000E+00  3.8000000000000E+00  3.8000000000000E+00  3.8000000000000E+00  3.8000000000000E+00  3.8000000000000E+00 
 3.8700000000000E+00  3.8700000000000E+00  3.8700000000000E+00  3.8700000000000E+00  3.8700000000000E+00  3.8700000000000E+00  3.8700000000000E+00  3.8700000000000E+00  3.8700000000000E+00  3.8700000000000E+00 
 3.9779642109147E+00  3.9779642109147E+00  3.9779642109147E+00  3.9779642109147E+00  3.9779642109147E+00  3.9779642109147E+00  3.9779642109147E+00  3.9779642109147E+00  3.9779642109147E+00  3.9779642109147E+00 
-1.0796421091472E-01 -1.0796421091472E-01 -1.0796421091472E-01 -1.0796421091472E-01 -1.0796421091472E-01 -1.0796421091472E-01 -1.0796421091472E-01 -1.0796421091472E-01 -1.0796421091472E-01 -1.0796421091472E-01 
-1.1663619695838E-01 -2.3327239391676E-01 -2.3327239391676E-01 -2.3327239391676E-01 -2.3327239391676E-01 -2.3327239391676E-01 -2.3327239391676E-01 -2.3327239391676E-01 -2.3327239391676E-01 -1.1663619695838E-01 
-0.0000000000000E+00 -0.0000000000000E+00 -0.0000000000000E+00 -0.0000000000000E+00 -0.0000000000000E+00 -0.0000000000000E+00 -0.0000000000000E+00 -0.0000000000000E+00 -0.0000000000000E+00 -0.0000000000000E+00 
 1.1663619695838E-01  0.0000000000000E+00  0.0000000000000E+00  0.0000000000000E+00  0.0000000000000E+00  0.0000000000000E+00  0.0000000000000E+00  0.0000000000000E+00  0.0000000000000E+00  0.0000000000000E+00 
 0.0000000000000E+00 -0.0000000000000E+00 -0.0000000000000E+00 -0.0000000000000E+00 -0.0000000000000E+00 -0.0000000000000E+00 -0.0000000000000E+00 -0.0000000000000E+00 -0.0000000000000E+00  1.1663619695838E-01 
-0.0000000000000E+00 -0.0000000000000E+00 -0.0000000000000E+00 -0.0000000000000E+00 -0.0000000000000E+00 -0.0000000000000E+00 -0.0000000000000E+00 -0.0000000000000E+00 -0.0000000000000E+00 -0.0000000000000E+00 
 7.2440786946225E+03  1.4488157389245E+04  1.4488157389245E+04  1.4488157389245E+04  1.4488157389245E+04  1.4488157389245E+04  1.4488157389245E+04  1.4488157389245E+04  1.4488157389245E+04  7.2440786946225E+03 
 4.9259735123433E+04  9.8519470246865E+04  9.8519470246866E+04  9.8519470246865E+04  9.8519470246866E+04  9.8519470246866E+04  9.8519470246865E+04  9.8519470246866E+04  9.8519470246865E+04  4.9259735123433E+04 
 5.6503813818055E+04  1.1300762763611E+05  1.1300762763611E+05  1.1300762763611E+05  1.1300762763611E+05  1.1300762763611E+05  1.1300762763611E+05  1.1300762763611E+05  1.1300762763611E+05  5.6503813818055E+04 
 3.5000000000000E-01  3.5000000000000E-01  3.5000000000000E-01  3.5000000000000E-01  3.5000000000000E-01  3.5000000000000E-01  3.5000000000000E-01  3.5000000000000E-01  3.5000000000000E-01  3.5000000000000E-01 
 6.6040000000000E+00  1.3208000000000E+01  1.3208000000000E+01  1.3208000000000E+01  1.3208000000000E+01  1.3208000000000E+01  1.3208000000000E+01  1.3208000000000E+01  1.3208000000000E+01  6.6040000000000E+00 
-1.7661447146938E-02 -1.7661447146938E-02 -1.7661447146938E-02 -1.7661447146938E-02 -1.7661447146938E-02 -1.7661447146938E-02 -1.7661447146938E-02 -1.7661447146938E-02 -1.7661447146938E-02 -1.7661447146938E-02 
 3.3866666666667E-05  6.7733333333333E-05  6.7733333333334E-05  6.7733333333333E-05  6.7733333333334E-05  6.7733333333334E-05  6.7733333333333E-05  6.7733333333334E-05  6.7733333333333E-05  3.3866666666667E-05 
 2.6603001364256E+01  2.6603001364256E+01  2.6603001364256E+01  2.6603001364256E+01  2.6603001364256E+01  2.6603001364256E+01  2.6603001364256E+01  2.6603001364256E+01  2.6603001364256E+01  2.6603001364256E+01 
 1.7735334242838E+01  1.7735334242838E+01  1.7735334242838E+01  1.7735334242838E+01  1.7735334242838E+01  1.7735334242838E+01  1.7735334242838E+01  1.7735334242838E+01  1.7735334242838E+01  1.7735334242838E+01 
 0.0000000000000E+00  0.0000000000000E+00  0.0000000000000E+00  0.0000000000000E+00  0.0000000000000E+00  0.0000000000000E+00  0.0000000000000E+00  0.0000000000000E+00  0.0000000000000E+00  0.0000000000000E+00 
 0.0000000000000E+00  0.0000000000000E+00  0.0000000000000E+00  0.0000000000000E+00  0.0000000000000E+00  0.0000000000000E+00  0.0000000000000E+00  0.0000000000000E+00  0.0000000000000E+00  0.0000000000000E+00 
 0.0000000000000E+00  0.0000000000000E+00  0.0000000000000E+00  0.0000000000000E+00  0.0000000000000E+00  0.0000000000000E+00  0.0000000000000E+00  0.0000000000000E+00  0.0000000000000E+00  0.0000000000000E+00 
 0.0000000000000E+00  0.0000000000000E+00  0.0000000000000E+00  0.0000000000000E+00  0.0000000000000E+00  0.0000000000000E+00  0.0000000000000E+00  0.0000000000000E+00  0.0000000000000E+00  0.0000000000000E+00 
 0.0000000000000E+00  0.0000000000000E+00  0.0000000000000E+00  0.0000000000000E+00  0.0000000000000E+00  0.0000000000000E+00  0.0000000000000E+00  0.0000000000000E+00  0.0000000000000E+00  0.0000000000000E+00 
 0.0000000000000E+00  0.0000000000000E+00  0.0000000000000E+00  0.0000000000000E+00  0.0000000000000E+00  0.0000000000000E+00  0.0000000000000E+00  0.0000000000000E+00  0.0000000000000E+00  0.0000000000000E+00 
 0.0000000000000E+00  0.0000000000000E+00  0.0000000000000E+00  0.0000000000000E+00  0.0000000000000E+00  0.0000000000000E+00  0.0000000000000E+00  0.0000000000000E+00  0.0000000000000E+00  0.0000000000000E+00 
ZONE T = "CATH, 1.0000E-08", I = 10, SOLUTIONTIME = 1.000000E-08
ZONETYPE = ORDERED
DATAPACKING = BLOCK
STRANDID = 3
 1.2700000000000E-03  1.3377333333333E-03  1.4054666666667E-03  1.4732000000000E-03  1.5409333333333E-03  1.6086666666667E-03  1.6764000000000E-03  1.7441333333333E-03  1.8118666666667E-03  1.8796000000000E-03 
 8.2342823116847E-09  7.2663879129714E-09  6.2977161267695E-09  5.3289582276668E-09  4.3600790622115E-09  3.3910434594290E-09  2.4218162256401E-09  1.4523621393171E-09  4.8264594603957E-10 -2.3608502682362E-12 
 9.2000000000016E-01  9.2000000000038E-01  9.2000000000038E-01  9.2000000000038E-01  9.2000000000038E-01  9.2000000000038E-01  9.2000000000038E-01  9.2000000000038E-01  9.2000000000038E-01  9.2000000000038E-01 
 3.9999999999922E-02  3.9999999999812E-02  3.9999999999812E-02  3.9999999999812E-02  3.9999999999812E-02  3.9999999999812E-02  3.9999999999812E-02  3.9999999999812E-02  3.9999999999812E-02  3.9999999999812E-02 
 3.9999999999922E-02  3.9999999999812E-02  3.9999999999812E-02  3.9999999999812E-02  3.9999999999812E-02  3.9999999999812E-02  3.9999999999812E-02  3.9999999999812E-02  3.9999999999812E-02  3.9999999999812E-02 
 1.8786959419865E-02  1.8786875278997E-02  1.8786801032135E-02  1.8786736679799E-02  1.8786682222869E-02  1.8786637662585E-02  1.8786603000545E-02  1.8786578238708E-02  1.8786563379390E-02  1.8786558425272E-02 
 3.8000730063347E+00  3.8000721052352E+00  3.8000694019073E+00  3.8000648962560E+00  3.8000585881211E+00  3.8000504772768E+00  3.8000405634321E+00  3.8000288462301E+00  3.8000153252487E+00  3.8000000000000E+00 
 3.7812860469149E+00  3.7812852299562E+00  3.7812826008751E+00  3.7812781595762E+00  3.7812719058982E+00  3.7812638396142E+00  3.7812539604315E+00  3.7812422679914E+00  3.7812287618693E+00  3.7812134415747E+00 
 3.9779642109146E+00  3.9779642109146E+00  3.9779642109146E+00  3.9779642109146E+00  3.9779642109146E+00  3.9779642109146E+00  3.9779642109146E+00  3.9779642109146E+00  3.9779642109146E+00  3.9779642109146E+00 
-1.9667816399978E-01 -1.9667898095834E-01 -1.9668161003943E-01 -1.9668605133839E-01 -1.9669230501637E-01 -1.9670037130033E-01 -1.9671025048305E-01 -1.9672194292317E-01 -1.9673544904525E-01 -1.9675076933984E-01 
-6.9717307023654E-01 -1.3943689494150E+00 -1.3944423541405E+00 -1.3945663652919E+00 -1.3947410008503E+00 -1.3949662861412E+00 -1.3952422538423E+00 -1.3955689439934E+00 -1.3959464040093E+00 -6.9818734434695E-01 
 6.1449917976571E-08  5.4224064969760E-08  4.6997881551838E-08  3.9771055497496E-08  3.2543324476715E-08  2.5314426005306E-08  1.8084097455399E-08  1.0852075981099E-08  3.6180984748946E-09  3.6180984748946E-09 
 1.2555195448627E+01  1.1160838341446E+01  9.7664335659092E+00  8.3719300838434E+00  6.9772772802330E+00  5.5824245190456E+00  4.1873211346677E+00  2.7919164255474E+00  1.3961596461276E+00  0.0000000000000E+00 
 0.0000000000000E+00  1.3943566694085E+00  2.7887614448966E+00  4.1832649271633E+00  5.5779177306513E+00  6.9727704919646E+00  8.3678738762253E+00  9.7632785853189E+00  1.1159035364767E+01  1.2555195462408E+01 
 6.9717307023654E-09  1.3943689494150E-08  1.3944423541405E-08  1.3945663652919E-08  1.3947410008503E-08  1.3949662861412E-08  1.3952422538423E-08  1.3955689439934E-08  1.3959464040093E-08  6.9818734434695E-09 
 7.2440786946295E+03  1.4488157389259E+04  1.4488157389259E+04  1.4488157389259E+04  1.4488157389259E+04  1.4488157389259E+04  1.4488157389259E+04  1.4488157389259E+04  1.4488157389259E+04  7.2440786946295E+03 
 4.9259735123426E+04  9.8519470246851E+04  9.8519470246852E+04  9.8519470246851E+04  9.8519470246852E+04  9.8519470246852E+04  9.8519470246851E+04  9.8519470246852E+04  9.8519470246851E+04  4.9259735123426E+04 
 5.6503813818055E+04  1.1300762763611E+05  1.1300762763611E+05  1.1300762763611E+05  1.1300762763611E+05  1.1300762763611E+05  1.1300762763611E+05  1.1300762763611E+05  1.1300762763611E+05  5.6503813818055E+04 
 3.5000000000000E-01  3.5000000000000E-01  3.5000000000000E-01  3.5000000000000E-01  3.5000000000000E-01  3.5000000000000E-01  3.5000000000000E-01  3.5000000000000E-01  3.5000000000000E-01  3.5000000000000E-01 
 6.6040000000000E+00  1.3208000000000E+01  1.3208000000000E+01  1.3208000000000E+01  1.3208000000000E+01  1.3208000000000E+01  1.3208000000000E+01  1.3208000000000E+01  1.3208000000000E+01  6.6040000000000E+00 
-1.0556830257973E-01 -1.0557002948327E-01 -1.0557558707908E-01 -1.0558497617292E-01 -1.0559819812616E-01 -1.0561525485624E-01 -1.0563614883724E-01 -1.0566088310065E-01 -1.0568946123632E-01 -1.0572188739354E-01 
 3.3866666666667E-05  6.7733333333333E-05  6.7733333333334E-05  6.7733333333333E-05  6.7733333333334E-05  6.7733333333334E-05  6.7733333333333E-05  6.7733333333334E-05  6.7733333333333E-05  3.3866666666667E-05 
 2.6603001364259E+01  2.6603001364259E+01  2.6603001364259E+01  2.6603001364259E+01  2.6603001364259E+01  2.6603001364259E+01  2.6603001364259E+01  2.6603001364259E+01  2.6603001364259E+01  2.6603001364259E+01 
 1.7735334242836E+01  1.7735334242836E+01  1.7735334242836E+01  1.7735334242836E+01  1.7735334242836E+01  1.7735334242836E+01  1.7735334242836E+01  1.7735334242836E+01  1.7735334242836E+01  1.7735334242836E+01 
 8.8255317434352E-05  8.8257284009024E-05  8.8263553922865E-05  8.8274146483525E-05  8.8289063326900E-05  8.8308306757103E-05  8.8331879747201E-05  8.8359785940187E-05  8.8392029650146E-05  8.8425270409251E-05 
 8.8255317434352E+03  8.8257284009024E+03  8.8263553922865E+03  8.8274146483525E+03  8.8289063326900E+03  8.8308306757103E+03  8.8331879747201E+03  8.8359785940187E+03  8.8392029650146E+03  8.8425270409251E+03 
 1.4730476820061E-02  1.3100180599023E-02  1.0043197830349E-02  7.3934258896466E-03  5.1508773049113E-03  3.3156237518492E-03  1.8877960957152E-03  8.6758445430990E-04  2.5523827814192E-04  5.1066448637394E-05 
 9.2749296966186E-03  4.6375558777887E-02  1.5768263227904E-01  3.4321190905777E-01  6.0298992391491E-01  9.3705399587388E-01  1.3454522394427E+00  1.8282435797251E+00  2.3854977703474E+00  2.6827499747954E+00 
 8.8255077380287E+03  8.8256689251631E+03  8.8261876664564E+03  8.8270640430176E+03  8.8282981918888E+03  8.8298903060907E+03  8.8318406346845E+03  8.8341494828545E+03  8.8368172120059E+03  8.8398442398838E+03 
 4.0487810859522E+03  4.0488641346119E+03  4.0491314072788E+03  4.0495829486036E+03  4.0502188340293E+03  4.0510391698168E+03  4.0520440930809E+03  4.0532337718375E+03  4.0546084050598E+03  4.0561682227465E+03 
 4.7767266520764E+03  4.7768047905511E+03  4.7770562591776E+03  4.7774810944139E+03  4.7780793578595E+03  4.7788511362739E+03  4.7797965416036E+03  4.7809157110170E+03  4.7822088069461E+03  4.7836760171373E+03 
ZONE T = "CATH, 2.0000E-08", I = 10, SOLUTIONTIME = 2.000000E-08
ZONETYPE = ORDERED
DATAPACKING = BLOCK
STRANDID = 3
 1.2700000000000E-03  1.3377333333333E-03  1.4054666666667E-03  1.4732000000000E-03  1.5409333333333E-03  1.6086666666667E-03  1.6764000000000E-03  1.7441333333333E-03  1.8118666666667E-03  1.8796000000000E-03 
 8.2390092625662E-09  7.2707510452737E-09  6.3013522320812E-09  5.3329569279253E-09  4.3644403557067E-09  3.3954041361951E-09  2.4261762829244E-09  1.4570847816241E-09  4.8773116964315E-10  2.5424540947115E-12 
 9.2000000000031E-01  9.2000000000075E-01  9.2000000000075E-01  9.2000000000075E-01  9.2000000000075E-01  9.2000000000075E-01  9.2000000000075E-01  9.2000000000075E-01  9.2000000000075E-01  9.2000000000075E-01 
 3.9999999999843E-02  3.9999999999624E-02  3.9999999999624E-02  3.9999999999624E-02  3.9999999999624E-02  3.9999999999624E-02  3.9999999999624E-02  3.9999999999624E-02  3.9999999999624E-02  3.9999999999624E-02 
 3.9999999999843E-02  3.9999999999624E-02  3.9999999999624E-02  3.9999999999624E-02  3.9999999999624E-02  3.9999999999624E-02  3.9999999999624E-02  3.9999999999624E-02  3.9999999999624E-02  3.9999999999624E-02 
 1.8786959607245E-02  1.8786875466324E-02  1.8786801219414E-02  1.8786736867037E-02  1.8786682410072E-02  1.8786637849759E-02  1.8786603187697E-02  1.8786578425844E-02  1.8786563566517E-02  1.8786558612395E-02 
 3.8000730063810E+00  3.8000721052809E+00  3.8000694019513E+00  3.8000648962971E+00  3.8000585881582E+00  3.8000504773089E+00  3.8000405634578E+00  3.8000288462484E+00  3.8000153252585E+00  3.8000000000000E+00 
 3.7812860467737E+00  3.7812852298146E+00  3.7812826007319E+00  3.7812781594301E+00  3.7812719057482E+00  3.7812638394591E+00  3.7812539602701E+00  3.7812422678226E+00  3.7812287616919E+00  3.7812134413876E+00 
 3.9779642109146E+00  3.9779642109144E+00  3.9779642109144E+00  3.9779642109144E+00  3.9779642109144E+00  3.9779642109144E+00  3.9779642109144E+00  3.9779642109144E+00  3.9779642109144E+00  3.9779642109144E+00 
-1.9667816414081E-01 -1.9667898109981E-01 -1.9668161018256E-01 -1.9668605148432E-01 -1.9669230516625E-01 -1.9670037145531E-01 -1.9671025064428E-01 -1.9672194309182E-01 -1.9673544922248E-01 -1.9675076952681E-01 
-6.9717307220441E-01 -1.3943689533613E+00 -1.3944423581333E+00 -1.3945663693633E+00 -1.3947410050326E+00 -1.3949662904666E+00 -1.3952422583432E+00 -1.3955689487025E+00 -1.3959464089594E+00 -6.9818734695906E-01 
 6.1450007142606E-08  5.4224099599858E-08  4.6997911616043E-08  3.9771080994031E-08  3.2543345391646E-08  2.5314442319249E-08  1.8084109151125E-08  1.0852083035168E-08  3.6181008541162E-09  3.6181008541162E-09 
 1.2555203011697E+01  1.1160845462731E+01  9.7664398068366E+00  8.3719354429539E+00  6.9772817558151E+00  5.5824281081658E+00  4.1873238339032E+00  2.7919182304977E+00  1.3961605514142E+00  0.0000000000000E+00 
 0.0000000000000E+00  1.3943575489935E+00  2.7887632047536E+00  4.1832675683231E+00  5.5779212555191E+00  6.9727749032891E+00  8.3678791777859E+00  9.7632847812387E+00  1.1159042460028E+01  1.2555203011584E+01 
 1.3943461424410E-08  2.7887379027763E-08  2.7888847122738E-08  2.7891327346552E-08  2.7894820058829E-08  2.7899325766078E-08  2.7904845121854E-08  2.7911378926960E-08  2.7918928129688E-08  1.3963746913060E-08 
 7.2440786946364E+03  1.4488157389273E+04  1.4488157389273E+04  1.4488157389273E+04  1.4488157389273E+04  1.4488157389273E+04  1.4488157389273E+04  1.4488157389273E+04  1.4488157389273E+04  7.2440786946364E+03 
 4.9259735123419E+04  9.8519470246837E+04  9.8519470246838E+04  9.8519470246837E+04  9.8519470246838E+04  9.8519470246838E+04  9.8519470246837E+04  9.8519470246838E+04  9.8519470246837E+04  4.9259735123419E+04 
 5.6503813818055E+04  1.1300762763611E+05  1.1300762763611E+05  1.1300762763611E+05  1.1300762763611E+05  1.1300762763611E+05  1.1300762763611E+05  1.1300762763611E+05  1.1300762763611E+05  5.6503813818055E+04 
 3.5000000000000E-01  3.5000000000000E-01  3.5000000000000E-01  3.5000000000000E-01  3.5000000000000E-01  3.5000000000000E-01  3.5000000000000E-01  3.5000000000000E-01  3.5000000000000E-01  3.5000000000000E-01 
 6.6040000000000E+00  1.3208000000000E+01  1.3208000000000E+01  1.3208000000000E+01  1.3208000000000E+01  1.3208000000000E+01  1.3208000000000E+01  1.3208000000000E+01  1.3208000000000E+01  6.6040000000000E+00 
-1.0556830287771E-01 -1.0557002978205E-01 -1.0557558738138E-01 -1.0558497648117E-01 -1.0559819844281E-01 -1.0561525518372E-01 -1.0563614917801E-01 -1.0566088345719E-01 -1.0568946161110E-01 -1.0572188778908E-01 
 3.3866666666667E-05  6.7733333333333E-05  6.7733333333334E-05  6.7733333333333E-05  6.7733333333334E-05  6.7733333333334E-05  6.7733333333333E-05  6.7733333333334E-05  6.7733333333333E-05  3.3866666666667E-05 
 2.6603001364261E+01  2.6603001364261E+01  2.6603001364261E+01  2.6603001364261E+01  2.6603001364261E+01  2.6603001364261E+01  2.6603001364261E+01  2.6603001364261E+01  2.6603001364261E+01  2.6603001364261E+01 
 1.7735334242833E+01  1.7735334242833E+01  1.7735334242833E+01  1.7735334242833E+01  1.7735334242833E+01  1.7735334242833E+01  1.7735334242833E+01  1.7735334242833E+01  1.7735334242833E+01  1.7735334242833E+01 
 1.7651063514717E-04  1.7651456829774E-04  1.7652710813007E-04  1.7654829325926E-04  1.7657812695711E-04  1.7661661383184E-04  1.7666375982962E-04  1.7671957223646E-04  1.7678405968055E-04  1.7685054122195E-04 
 8.8255317712817E+03  8.8257284288714E+03  8.8263554207209E+03  8.8274146775737E+03  8.8289063630205E+03  8.8308307074737E+03  8.8331880082423E+03  8.8359786296273E+03  8.8392030030401E+03  8.8425270812702E+03 
 1.4730495605481E-02  1.3100197315751E-02  1.0043210665240E-02  7.3934353544271E-03  5.1508839122678E-03  3.3156280146909E-03  1.8877985289629E-03  8.6758557572053E-04  2.5523860892010E-04  5.1066515084149E-05 
 9.2749413891564E-03  4.6375617296001E-02  1.5768283129544E-01  3.4321234246540E-01  6.0299068606233E-01  9.3705518159963E-01  1.3454539444114E+00  1.8282459003251E+00  2.3855008040955E+00  2.6827533897463E+00 
 8.8255077658447E+03  8.8256689530568E+03  8.8261876946790E+03  8.8270640717959E+03  8.8282982214505E+03  8.8298903366641E+03  8.8318406664994E+03  8.8341495161414E+03  8.8368172469973E+03  8.8398442768139E+03 
 4.0487811002836E+03  4.0488641489833E+03  4.0491314218197E+03  4.0495829634309E+03  4.0502188492605E+03  4.0510391855694E+03  4.0520441094736E+03  4.0532337889891E+03  4.0546084230901E+03  4.0561682417764E+03 
 4.7767266655611E+03  4.7768048040735E+03  4.7770562728593E+03  4.7774811083649E+03  4.7780793721901E+03  4.7788511510946E+03  4.7797965570258E+03  4.7809157271524E+03  4.7822088239072E+03  4.7836760350375E+03 
ZONE T = "CATH, 3.0000E-08", I = 10, SOLUTIONTIME = 3.000000E-08
ZONETYPE = ORDERED
DATAPACKING = BLOCK
STRANDID = 3
 1.2700000000000E-03  1.3377333333333E-03  1.4054666666667E-03  1.4732000000000E-03  1.5409333333333E-03  1.6086666666667E-03  1.6764000000000E-03  1.7441333333333E-03  1.8118666666667E-03  1.8796000000000E-03 
 8.2322899195481E-09  7.2643949099897E-09  6.2968121354424E-09  5.3287800390207E-09  4.3602634668084E-09  3.3915904550310E-09  2.4227258094945E-09  1.4525446850173E-09  4.8319107304269E-10 -1.4528309109366E-12 
 9.2000000000047E-01  9.2000000000113E-01  9.2000000000113E-01  9.2000000000113E-01  9.2000000000113E-01  9.2000000000113E-01  9.2000000000113E-01  9.2000000000113E-01  9.2000000000113E-01  9.2000000000113E-01 
 3.9999999999765E-02  3.9999999999436E-02  3.9999999999436E-02  3.9999999999436E-02  3.9999999999436E-02  3.9999999999436E-02  3.9999999999436E-02  3.9999999999436E-02  3.9999999999436E-02  3.9999999999436E-02 
 3.9999999999765E-02  3.9999999999436E-02  3.9999999999436E-02  3.9999999999436E-02  3.9999999999436E-02  3.9999999999436E-02  3.9999999999436E-02  3.9999999999436E-02  3.9999999999436E-02  3.9999999999436E-02 
 1.8786959607191E-02  1.8786875466269E-02  1.8786801219360E-02  1.8786736866982E-02  1.8786682410018E-02  1.8786637849705E-02  1.8786603187643E-02  1.8786578425789E-02  1.8786563566462E-02  1.8786558612340E-02 
 3.8000730063810E+00  3.8000721052809E+00  3.8000694019513E+00  3.8000648962971E+00  3.8000585881582E+00  3.8000504773089E+00  3.8000405634578E+00  3.8000288462484E+00  3.8000153252585E+00  3.8000000000000E+00 
 3.7812860467738E+00  3.7812852298147E+00  3.7812826007319E+00  3.7812781594302E+00  3.7812719057482E+00  3.7812638394592E+00  3.7812539602702E+00  3.7812422678227E+00  3.7812287616920E+00  3.7812134413877E+00 
 3.9779642109145E+00  3.9779642109143E+00  3.9779642109143E+00  3.9779642109143E+00  3.9779642109143E+00  3.9779642109143E+00  3.9779642109143E+00  3.9779642109143E+00  3.9779642109143E+00  3.9779642109143E+00 
-1.9667816414067E-01 -1.9667898109961E-01 -1.9668161018235E-01 -1.9668605148411E-01 -1.9669230516604E-01 -1.9670037145511E-01 -1.9671025064408E-01 -1.9672194309161E-01 -1.9673544922227E-01 -1.9675076952661E-01 
-6.9717307220176E-01 -1.3943689533522E+00 -1.3944423581242E+00 -1.3945663693542E+00 -1.3947410050234E+00 -1.3949662904574E+00 -1.3952422583340E+00 -1.3955689486934E+00 -1.3959464089503E+00 -6.9818734695449E-01 
 6.1450057123761E-08  5.4224099607455E-08  4.6997911621648E-08  3.9771081010055E-08  3.2543345403144E-08  2.5314442333694E-08  1.8084109172948E-08  1.0852083057532E-08  3.6181008823402E-09  3.6181008823402E-09 
 1.2555203011654E+01  1.1160845462687E+01  9.7664398067908E+00  8.3719354431590E+00  6.9772817560268E+00  5.5824281081396E+00  4.1873238336390E+00  2.7919182302401E+00  1.3961605514076E+00  0.0000000000000E+00 
 0.0000000000000E+00  1.3943575488217E+00  2.7887632047536E+00  4.1832675684949E+00  5.5779212555191E+00  6.9727749032891E+00  8.3678791776141E+00  9.7632847810669E+00  1.1159042460028E+01  1.2555203011580E+01 
 2.0915192146427E-08  4.1831068561284E-08  4.1833270703980E-08  4.1836991040095E-08  4.1842230109063E-08  4.1848988670652E-08  4.1857267705194E-08  4.1867068413893E-08  4.1878392219191E-08  2.0945620382605E-08 
 7.2440786946434E+03  1.4488157389287E+04  1.4488157389287E+04  1.4488157389287E+04  1.4488157389287E+04  1.4488157389287E+04  1.4488157389287E+04  1.4488157389287E+04  1.4488157389287E+04  7.2440786946434E+03 
 4.9259735123412E+04  9.8519470246823E+04  9.8519470246824E+04  9.8519470246823E+04  9.8519470246824E+04  9.8519470246824E+04  9.8519470246823E+04  9.8519470246824E+04  9.8519470246823E+04  4.9259735123412E+04 
 5.6503813818055E+04  1.1300762763611E+05  1.1300762763611E+05  1.1300762763611E+05  1.1300762763611E+05  1.1300762763611E+05  1.1300762763611E+05  1.1300762763611E+05  1.1300762763611E+05  5.6503813818055E+04 
 3.5000000000000E-01  3.5000000000000E-01  3.5000000000000E-01  3.5000000000000E-01  3.5000000000000E-01  3.5000000000000E-01  3.5000000000000E-01  3.5000000000000E-01  3.5000000000000E-01  3.5000000000000E-01 
 6.6040000000000E+00  1.3208000000000E+01  1.3208000000000E+01  1.3208000000000E+01  1.3208000000000E+01  1.3208000000000E+01  1.3208000000000E+01  1.3208000000000E+01  1.3208000000000E+01  6.6040000000000E+00 
-1.0556830287731E-01 -1.0557002978136E-01 -1.0557558738069E-01 -1.0558497648048E-01 -1.0559819844211E-01 -1.0561525518303E-01 -1.0563614917732E-01 -1.0566088345649E-01 -1.0568946161041E-01 -1.0572188778838E-01 
 3.3866666666667E-05  6.7733333333333E-05  6.7733333333334E-05  6.7733333333333E-05  6.7733333333334E-05  6.7733333333334E-05  6.7733333333333E-05  6.7733333333334E-05  6.7733333333333E-05  3.3866666666667E-05 
 2.6603001364263E+01  2.6603001364263E+01  2.6603001364263E+01  2.6603001364263E+01  2.6603001364263E+01  2.6603001364263E+01  2.6603001364263E+01  2.6603001364263E+01  2.6603001364263E+01  2.6603001364263E+01 
 1.7735334242831E+01  1.7735334242831E+01  1.7735334242831E+01  1.7735334242831E+01  1.7735334242831E+01  1.7735334242831E+01  1.7735334242831E+01  1.7735334242831E+01  1.7735334242831E+01  1.7735334242831E+01 
 2.6476595285964E-04  2.6477185258586E-04  2.6479066233669E-04  2.6482244003441E-04  2.6486719058672E-04  2.6492492090599E-04  2.6499563991146E-04  2.6507935853214E-04  2.6517608971036E-04  2.6527581203406E-04 
 8.8255317712470E+03  8.8257284288124E+03  8.8263554206619E+03  8.8274146775150E+03  8.8289063629614E+03  8.8308307074147E+03  8.8331880081831E+03  8.8359786295682E+03  8.8392030029810E+03  8.8425270812112E+03 
 1.4730495605432E-02  1.3100197315699E-02  1.0043210665193E-02  7.3934353547855E-03  5.1508839126367E-03  3.3156280146753E-03  1.8877985287753E-03  8.6758557553771E-04  2.5523860891890E-04  5.1066515083909E-05 
 9.2749413891564E-03  4.6375617282288E-02  1.5768283130459E-01  3.4321234248825E-01  6.0299068606233E-01  9.3705518159963E-01  1.3454539443520E+00  1.8282459002656E+00  2.3855008040955E+00  2.6827533897463E+00 
 8.8255077658100E+03  8.8256689529978E+03  8.8261876946199E+03  8.8270640717371E+03  8.8282982213914E+03  8.8298903366050E+03  8.8318406664403E+03  8.8341495160824E+03  8.8368172469383E+03  8.8398442767549E+03 
 4.0487811002654E+03  4.0488641489526E+03  4.0491314217889E+03  4.0495829634003E+03  4.0502188492297E+03  4.0510391855387E+03  4.0520441094428E+03  4.0532337889583E+03  4.0546084230594E+03  4.0561682417457E+03 
 4.7767266655446E+03  4.7768048040453E+03  4.7770562728310E+03  4.7774811083368E+03  4.7780793721618E+03  4.7788511510664E+03  4.7797965569975E+03  4.7809157271241E+03  4.7822088238789E+03  4.7836760350093E+03 
ZONE T = "CATH, 4.0000E-08", I = 10, SOLUTIONTIME = 4.000000E-08
ZONETYPE = ORDERED
DATAPACKING = BLOCK
STRANDID = 3
 1.2700000000000E-03  1.3377333333333E-03  1.4054666666667E-03  1.4732000000000E-03  1.5409333333333E-03  1.6086666666667E-03  1.6764000000000E-03  1.7441333333333E-03  1.8118666666667E-03  1.8796000000000E-03 
 8.2366484122282E-09  7.2680269872206E-09  6.2997177972241E-09  5.3309592853531E-09  4.3624427131471E-09  3.3937697013760E-09  2.4245418481179E-09  1.4565399700137E-09  4.8682315031758E-10  1.8160386393851E-12 
 9.2000000000063E-01  9.2000000000150E-01  9.2000000000150E-01  9.2000000000150E-01  9.2000000000150E-01  9.2000000000150E-01  9.2000000000150E-01  9.2000000000150E-01  9.2000000000150E-01  9.2000000000151E-01 
 3.9999999999687E-02  3.9999999999248E-02  3.9999999999248E-02  3.9999999999248E-02  3.9999999999248E-02  3.9999999999248E-02  3.9999999999248E-02  3.9999999999248E-02  3.9999999999248E-02  3.9999999999247E-02 
 3.9999999999687E-02  3.9999999999248E-02  3.9999999999248E-02  3.9999999999248E-02  3.9999999999248E-02  3.9999999999248E-02  3.9999999999248E-02  3.9999999999248E-02  3.9999999999248E-02  3.9999999999247E-02 
 1.8786959607138E-02  1.8786875466216E-02  1.8786801219307E-02  1.8786736866929E-02  1.8786682409965E-02  1.8786637849652E-02  1.8786603187590E-02  1.8786578425736E-02  1.8786563566409E-02  1.8786558612287E-02 
 3.8000730063810E+00  3.8000721052809E+00  3.8000694019513E+00  3.8000648962971E+00  3.8000585881582E+00  3.8000504773089E+00  3.8000405634578E+00  3.8000288462484E+00  3.8000153252585E+00  3.8000000000000E+00 
 3.7812860467739E+00  3.7812852298147E+00  3.7812826007320E+00  3.7812781594302E+00  3.7812719057483E+00  3.7812638394592E+00  3.7812539602702E+00  3.7812422678227E+00  3.7812287616920E+00  3.7812134413877E+00 
 3.9779642109144E+00  3.9779642109141E+00  3.9779642109141E+00  3.9779642109141E+00  3.9779642109141E+00  3.9779642109141E+00  3.9779642109141E+00  3.9779642109141E+00  3.9779642109141E+00  3.9779642109141E+00 
-1.9667816414054E-01 -1.9667898109940E-01 -1.9668161018215E-01 -1.9668605148391E-01 -1.9669230516584E-01 -1.9670037145490E-01 -1.9671025064388E-01 -1.9672194309141E-01 -1.9673544922207E-01 -1.9675076952641E-01 
-6.9717307219913E-01 -1.3943689533431E+00 -1.3944423581151E+00 -1.3945663693451E+00 -1.3947410050143E+00 -1.3949662904483E+00 -1.3952422583249E+00 -1.3955689486843E+00 -1.3959464089412E+00 -6.9818734694993E-01 