TITLE = "Solution on Domain BulkDomain1D_0"
VARIABLES = "x [m]"  
"Vel_axial" 
"MF_sp(ECDMC)" 
"MF_sp(Li+)" 
"MF_sp(PF6-)" 
"Volt(Electroly)" 
"Volt(AnodeVolt)" 
"Potential Drop Electrode-Electrolyte [V]" 
"Surf_0 Equilibrium Potential Drop Electrode-Electrolyte [V]" 
"Overpotential_0 [V]" 
"Current Source [A/m^2]" 
"Li+ flux [kmol/m^2/s]" 
"Electrolyte Current [A/m^2]" 
"Electrode Current [A/m^2]" 
"CV Capacity discharged [A-s/m^2]" 
"Depth of discharge in CV [A-s/m^2]" 
"CV Capacity remaining [A-s/m^2]" 
"Initial CV capacity [A-s/m^2]" 
"Porosity []" 
"Surface Area [m2/m2] (area per area)" 
"Specific current (per particle area) [A/m^2]" 
"Control volume thickness [m]" 
"MoleDens Li_C6-bulk [kmol/m^3]" 
"MoleDens V_C6-bulk [kmol/m^3]" 
"qHeat_accum [J/m3]" 
"qHeat_step [W/m3]" 
"Joule_Lyte [W/m3]" 
"Joule_Solid [W/m3]" 
"electrodHeat [W/m3]" 
"OverpotHeat [W/m3]" 
"deltaSHeat [W/m3]" 

ZONE T = "ANOD, 0.0000E+00", I = 10, SOLUTIONTIME = 0.000000E+00
ZONETYPE = ORDERED
DATAPACKING = BLOCK
STRANDID = 1
 0.0000000000000E+00  8.7488888888889E-05  1.7497777777778E-04  2.6246666666667E-04  3.4995555555556E-04  4.3744444444444E-04  5.2493333333333E-04  6.1242222222222E-04  6.9991111111111E-04  7.8740000000000E-04 
 0.0000000000000E+00  0.0000000000000E+00  0.0000000000000E+00  0.0000000000000E+00  0.0000000000000E+00  0.0000000000000E+00  0.0000000000000E+00  0.0000000000000E+00  0.0000000000000E+00  0.0000000000000E+00 
 9.2000000000000E-01  9.2000000000000E-01  9.2000000000000E-01  9.2000000000000E-01  9.2000000000000E-01  9.2000000000000E-01  9.2000000000000E-01  9.2000000000000E-01  9.2000000000000E-01  9.2000000000000E-01 
 4.0000000000000E-02  4.0000000000000E-02  4.0000000000000E-02  4.0000000000000E-02  4.0000000000000E-02  4.0000000000000E-02  4.0000000000000E-02  4.0000000000000E-02  4.0000000000000E-02  4.0000000000000E-02 
 4.0000000000000E-02  4.0000000000000E-02  4.0000000000000E-02  4.0000000000000E-02  4.0000000000000E-02  4.0000000000000E-02  4.0000000000000E-02  4.0000000000000E-02  4.0000000000000E-02  4.0000000000000E-02 
-7.0000000000000E-02 -7.0000000000000E-02 -7.0000000000000E-02 -7.0000000000000E-02 -7.0000000000000E-02 -7.0000000000000E-02 -7.0000000000000E-02 -7.0000000000000E-02 -7.0000000000000E-02 -7.0000000000000E-02 
 0.0000000000000E+00  0.0000000000000E+00  0.0000000000000E+00  0.0000000000000E+00  0.0000000000000E+00  0.0000000000000E+00  0.0000000000000E+00  0.0000000000000E+00  0.0000000000000E+00  0.0000000000000E+00 
 7.0000000000000E-02  7.0000000000000E-02  7.0000000000000E-02  7.0000000000000E-02  7.0000000000000E-02  7.0000000000000E-02  7.0000000000000E-02  7.0000000000000E-02  7.0000000000000E-02  7.0000000000000E-02 
-3.5244196601921E-02 -3.5244196601921E-02 -3.5244196601921E-02 -3.5244196601921E-02 -3.5244196601921E-02 -3.5244196601921E-02 -3.5244196601921E-02 -3.5244196601921E-02 -3.5244196601921E-02 -3.5244196601921E-02 
 1.0524419660192E-01  1.0524419660192E-01  1.0524419660192E-01  1.0524419660192E-01  1.0524419660192E-01  1.0524419660192E-01  1.0524419660192E-01  1.0524419660192E-01  1.0524419660192E-01  1.0524419660192E-01 
 8.4172715094840E+00  1.6834543018968E+01  1.6834543018968E+01  1.6834543018968E+01  1.6834543018968E+01  1.6834543018968E+01  1.6834543018968E+01  1.6834543018968E+01  1.6834543018968E+01  8.4172715094840E+00 
-0.0000000000000E+00 -0.0000000000000E+00 -0.0000000000000E+00 -0.0000000000000E+00 -0.0000000000000E+00 -0.0000000000000E+00 -0.0000000000000E+00 -0.0000000000000E+00 -0.0000000000000E+00 -0.0000000000000E+00 
 0.0000000000000E+00  0.0000000000000E+00  0.0000000000000E+00  0.0000000000000E+00  0.0000000000000E+00  0.0000000000000E+00  0.0000000000000E+00  0.0000000000000E+00  0.0000000000000E+00  8.4172715094840E+00 
 8.4172715094840E+00 -0.0000000000000E+00 -0.0000000000000E+00 -0.0000000000000E+00 -0.0000000000000E+00 -0.0000000000000E+00 -0.0000000000000E+00 -0.0000000000000E+00 -0.0000000000000E+00  0.0000000000000E+00 
 0.0000000000000E+00  0.0000000000000E+00  0.0000000000000E+00  0.0000000000000E+00  0.0000000000000E+00  0.0000000000000E+00  0.0000000000000E+00  0.0000000000000E+00  0.0000000000000E+00  0.0000000000000E+00 
 9.1448444543281E+04  1.8289688908656E+05  1.8289688908656E+05  1.8289688908656E+05  1.8289688908656E+05  1.8289688908656E+05  1.8289688908656E+05  1.8289688908656E+05  1.8289688908656E+05  9.1448444543281E+04 
 3.6579377817312E+05  7.3158755634625E+05  7.3158755634625E+05  7.3158755634625E+05  7.3158755634625E+05  7.3158755634625E+05  7.3158755634625E+05  7.3158755634625E+05  7.3158755634625E+05  3.6579377817312E+05 
 4.5724222271640E+05  9.1448444543281E+05  9.1448444543281E+05  9.1448444543281E+05  9.1448444543281E+05  9.1448444543281E+05  9.1448444543281E+05  9.1448444543281E+05  9.1448444543281E+05  4.5724222271640E+05 
 3.5000000000000E-01  3.5000000000000E-01  3.5000000000000E-01  3.5000000000000E-01  3.5000000000000E-01  3.5000000000000E-01  3.5000000000000E-01  3.5000000000000E-01  3.5000000000000E-01  3.5000000000000E-01 
 8.5301666666666E+00  1.7060333333333E+01  1.7060333333333E+01  1.7060333333333E+01  1.7060333333333E+01  1.7060333333333E+01  1.7060333333333E+01  1.7060333333333E+01  1.7060333333333E+01  8.5301666666666E+00 
 9.8676518741143E-01  9.8676518741143E-01  9.8676518741143E-01  9.8676518741143E-01  9.8676518741143E-01  9.8676518741143E-01  9.8676518741143E-01  9.8676518741143E-01  9.8676518741143E-01  9.8676518741143E-01 
 4.3744444444444E-05  8.7488888888889E-05  8.7488888888889E-05  8.7488888888889E-05  8.7488888888889E-05  8.7488888888889E-05  8.7488888888889E-05  8.7488888888889E-05  8.7488888888889E-05  4.3744444444444E-05 
 8.6666666666666E+01  8.6666666666666E+01  8.6666666666666E+01  8.6666666666666E+01  8.6666666666666E+01  8.6666666666666E+01  8.6666666666666E+01  8.6666666666666E+01  8.6666666666666E+01  8.6666666666666E+01 
 2.1666666666667E+01  2.1666666666667E+01  2.1666666666667E+01  2.1666666666667E+01  2.1666666666667E+01  2.1666666666667E+01  2.1666666666667E+01  2.1666666666667E+01  2.1666666666667E+01  2.1666666666667E+01 
 0.0000000000000E+00  0.0000000000000E+00  0.0000000000000E+00  0.0000000000000E+00  0.0000000000000E+00  0.0000000000000E+00  0.0000000000000E+00  0.0000000000000E+00  0.0000000000000E+00  0.0000000000000E+00 
 0.0000000000000E+00  0.0000000000000E+00  0.0000000000000E+00  0.0000000000000E+00  0.0000000000000E+00  0.0000000000000E+00  0.0000000000000E+00  0.0000000000000E+00  0.0000000000000E+00  0.0000000000000E+00 
 0.0000000000000E+00  0.0000000000000E+00  0.0000000000000E+00  0.0000000000000E+00  0.0000000000000E+00  0.0000000000000E+00  0.0000000000000E+00  0.0000000000000E+00  0.0000000000000E+00  0.0000000000000E+00 
 0.0000000000000E+00  0.0000000000000E+00  0.0000000000000E+00  0.0000000000000E+00  0.0000000000000E+00  0.0000000000000E+00  0.0000000000000E+00  0.0000000000000E+00  0.0000000000000E+00  0.0000000000000E+00 
 0.0000000000000E+00  0.0000000000000E+00  0.0000000000000E+00  0.0000000000000E+00  0.0000000000000E+00  0.0000000000000E+00  0.0000000000000E+00  0.0000000000000E+00  0.0000000000000E+00  0.0000000000000E+00 
 0.0000000000000E+00  0.0000000000000E+00  0.0000000000000E+00  0.0000000000000E+00  0.0000000000000E+00  0.0000000000000E+00  0.0000000000000E+00  0.0000000000000E+00  0.0000000000000E+00  0.0000000000000E+00 
 0.0000000000000E+00  0.0000000000000E+00  0.0000000000000E+00  0.0000000000000E+00  0.0000000000000E+00  0.0000000000000E+00  0.0000000000000E+00  0.0000000000000E+00  0.0000000000000E+00  0.0000000000000E+00 
ZONE T = "ANOD, 1.0000E-08", I = 10, SOLUTIONTIME = 1.000000E-08
ZONETYPE = ORDERED
DATAPACKING = BLOCK
STRANDID = 1
 0.0000000000000E+00  8.7488888888889E-05  1.7497777777778E-04  2.6246666666667E-04  3.4995555555556E-04  4.3744444444444E-04  5.2493333333333E-04  6.1242222222222E-04  6.9991111111111E-04  7.8740000000000E-04 
 4.8451369749432E-10  1.4535413617691E-09  2.4225700888992E-09  3.3916006728652E-09  4.3606339074299E-09  5.3300337945823E-09  6.2994379201317E-09  7.2684838701335E-09  8.2375356463480E-09  8.7207936174468E-09 
 9.1999999999971E-01  9.1999999999971E-01  9.1999999999971E-01  9.1999999999971E-01  9.1999999999971E-01  9.1999999999971E-01  9.1999999999971E-01  9.1999999999971E-01  9.1999999999971E-01  9.1999999999988E-01 
 4.0000000000146E-02  4.0000000000146E-02  4.0000000000146E-02  4.0000000000146E-02  4.0000000000146E-02  4.0000000000146E-02  4.0000000000146E-02  4.0000000000146E-02  4.0000000000146E-02  4.0000000000060E-02 
 4.0000000000146E-02  4.0000000000146E-02  4.0000000000146E-02  4.0000000000146E-02  4.0000000000146E-02  4.0000000000146E-02  4.0000000000146E-02  4.0000000000146E-02  4.0000000000146E-02  4.0000000000060E-02 
 1.8787708786881E-02  1.8787702394313E-02  1.8787683216618E-02  1.8787651253786E-02  1.8787606505777E-02  1.8787548972617E-02  1.8787478654159E-02  1.8787395550387E-02  1.8787299661296E-02  1.8787190986754E-02 
 0.0000000000000E+00 -1.9795496288621E-09 -3.7262135999765E-09 -5.2399916578149E-09 -6.5208833559574E-09 -7.5688880571453E-09 -8.3840049331686E-09 -8.9662329650344E-09 -9.3155709429100E-09 -9.4320174660604E-09 
-1.8787708786881E-02 -1.8787704373863E-02 -1.8787686942832E-02 -1.8787656493777E-02 -1.8787613026661E-02 -1.8787556541505E-02 -1.8787487038164E-02 -1.8787404516620E-02 -1.8787308976867E-02 -1.8787200418771E-02 
-3.5244196601720E-02 -3.5244196601718E-02 -3.5244196601720E-02 -3.5244196601720E-02 -3.5244196601720E-02 -3.5244196601715E-02 -3.5244196601715E-02 -3.5244196601720E-02 -3.5244196601720E-02 -3.5244196601773E-02 
 1.6456487814839E-02  1.6456492227855E-02  1.6456509658888E-02  1.6456540107942E-02  1.6456583575059E-02  1.6456640060210E-02  1.6456709563551E-02  1.6456792085100E-02  1.6456887624853E-02  1.6456996183001E-02 
 6.9750564208435E-01  1.3950116716807E+00  1.3950132023186E+00  1.3950158760838E+00  1.3950196929804E+00  1.3950246530071E+00  1.3950307561785E+00  1.3950380024972E+00  1.3950463919657E+00  6.9752796229888E-01 
 3.6144220281302E-09  1.0843261348943E-08  1.8072106325222E-08  2.5300972942535E-08  3.2529826234292E-08  3.9758762147249E-08  4.6987706711128E-08  5.4216654621599E-08  6.1445706946691E-08  6.1445706946691E-08 
 0.0000000000000E+00  1.3949544450628E+00  2.7899089788939E+00  4.1848661464371E+00  5.5798241163019E+00  6.9747887721802E+00  8.3697622344800E+00  9.7647368543639E+00  1.1159718964091E+01  1.2554741564726E+01 
 1.2554743399335E+01  1.1159760772106E+01  9.7648060365251E+00  8.3698491986562E+00  6.9748891152431E+00  5.5799246428485E+00  4.1849546382045E+00  2.7899779583771E+00  1.3949934600736E+00  0.0000000000000E+00 
 6.9750564208435E-09  1.3950116716807E-08  1.3950132023186E-08  1.3950158760838E-08  1.3950196929804E-08  1.3950246530071E-08  1.3950307561785E-08  1.3950380024972E-08  1.3950463919657E-08  6.9752796229888E-09 
 9.1448444543288E+04  1.8289688908658E+05  1.8289688908658E+05  1.8289688908658E+05  1.8289688908658E+05  1.8289688908658E+05  1.8289688908658E+05  1.8289688908658E+05  1.8289688908658E+05  9.1448444543288E+04 
 3.6579377817312E+05  7.3158755634623E+05  7.3158755634623E+05  7.3158755634623E+05  7.3158755634623E+05  7.3158755634623E+05  7.3158755634623E+05  7.3158755634623E+05  7.3158755634623E+05  3.6579377817312E+05 
 4.5724222271640E+05  9.1448444543281E+05  9.1448444543281E+05  9.1448444543281E+05  9.1448444543281E+05  9.1448444543281E+05  9.1448444543281E+05  9.1448444543281E+05  9.1448444543281E+05  4.5724222271640E+05 
 3.5000000000000E-01  3.5000000000000E-01  3.5000000000000E-01  3.5000000000000E-01  3.5000000000000E-01  3.5000000000000E-01  3.5000000000000E-01  3.5000000000000E-01  3.5000000000000E-01  3.5000000000000E-01 
 8.5301666666666E+00  1.7060333333333E+01  1.7060333333333E+01  1.7060333333333E+01  1.7060333333333E+01  1.7060333333333E+01  1.7060333333333E+01  1.7060333333333E+01  1.7060333333333E+01  8.5301666666666E+00 
 8.1769286502923E-02  8.1769309217131E-02  8.1769398936242E-02  8.1769555660331E-02  8.1769779389641E-02  8.1770070124098E-02  8.1770427864547E-02  8.1770852611160E-02  8.1771344364065E-02  8.1771903124075E-02 
 4.3744444444444E-05  8.7488888888889E-05  8.7488888888889E-05  8.7488888888889E-05  8.7488888888889E-05  8.7488888888889E-05  8.7488888888889E-05  8.7488888888889E-05  8.7488888888889E-05  4.3744444444444E-05 
 8.6666666666665E+01  8.6666666666665E+01  8.6666666666665E+01  8.6666666666665E+01  8.6666666666665E+01  8.6666666666665E+01  8.6666666666665E+01  8.6666666666665E+01  8.6666666666665E+01  8.6666666666665E+01 
 2.1666666666668E+01  2.1666666666668E+01  2.1666666666668E+01  2.1666666666668E+01  2.1666666666668E+01  2.1666666666668E+01  2.1666666666668E+01  2.1666666666668E+01  2.1666666666668E+01  2.1666666666668E+01 
-2.9339797773117E-05 -2.9339803478144E-05 -2.9339827332518E-05 -2.9339869002034E-05 -2.9339928486755E-05 -2.9340005786511E-05 -2.9340100901467E-05 -2.9340213831695E-05 -2.9340344577005E-05 -2.9340511484755E-05 
-2.9339797773117E+03 -2.9339803478144E+03 -2.9339827332518E+03 -2.9339869002034E+03 -2.9339928486755E+03 -2.9340005786511E+03 -2.9340100901467E+03 -2.9340213831695E+03 -2.9340344577005E+03 -2.9340511484755E+03 
 5.0962722104934E-05  2.5481341021775E-04  8.6636580649257E-04  1.8856222990692E-03  3.3125823377536E-03  5.1472570700045E-03  7.3896536807747E-03  1.0039765211172E-02  1.3097608557031E-02  1.4728467505283E-02 
 2.6828538914815E-04  2.3857935149327E-04  1.8288046148122E-04  1.3460793754710E-04  9.3761782834170E-05  6.0342024829139E-05  3.4348715369158E-05  1.5781930643343E-05  4.6417711786996E-06  9.2836184895770E-07 
-2.9339800965598E+03 -2.9339808412072E+03 -2.9339837824981E+03 -2.9339889204336E+03 -2.9339962550196E+03 -2.9340057862502E+03 -2.9340175141491E+03 -2.9340314387166E+03 -2.9340475599509E+03 -2.9340658778714E+03 
 2.6239887705935E+02  2.6239902031523E+02  2.6239958616365E+02  2.6240057460640E+02  2.6240198564724E+02  2.6240381928896E+02  2.6240607554110E+02  2.6240875440991E+02  2.6241185590234E+02  2.6241538003062E+02 
-3.1963789736192E+03 -3.1963798615224E+03 -3.1963833686617E+03 -3.1963894950400E+03 -3.1963982406668E+03 -3.1964096055392E+03 -3.1964235896902E+03 -3.1964401931265E+03 -3.1964594158532E+03 -3.1964812579020E+03 
ZONE T = "ANOD, 2.0000E-08", I = 10, SOLUTIONTIME = 2.000000E-08
ZONETYPE = ORDERED
DATAPACKING = BLOCK
STRANDID = 1
 0.0000000000000E+00  8.7488888888889E-05  1.7497777777778E-04  2.6246666666667E-04  3.4995555555556E-04  4.3744444444444E-04  5.2493333333333E-04  6.1242222222222E-04  6.9991111111111E-04  7.8740000000000E-04 
 4.8453320200186E-10  1.4539630828344E-09  2.4230308188657E-09  3.3921004116502E-09  4.3615358627441E-09  5.3306115505234E-09  6.2996914765509E-09  7.2691396423941E-09  8.2385936341701E-09  8.7229607322234E-09 
 9.1999999999942E-01  9.1999999999942E-01  9.1999999999942E-01  9.1999999999942E-01  9.1999999999942E-01  9.1999999999942E-01  9.1999999999942E-01  9.1999999999942E-01  9.1999999999942E-01  9.1999999999976E-01 
 4.0000000000291E-02  4.0000000000291E-02  4.0000000000291E-02  4.0000000000291E-02  4.0000000000291E-02  4.0000000000291E-02  4.0000000000291E-02  4.0000000000291E-02  4.0000000000291E-02  4.0000000000120E-02 
 4.0000000000291E-02  4.0000000000291E-02  4.0000000000291E-02  4.0000000000291E-02  4.0000000000291E-02  4.0000000000291E-02  4.0000000000291E-02  4.0000000000291E-02  4.0000000000291E-02  4.0000000000120E-02 
 1.8787726160717E-02  1.8787719767898E-02  1.8787700589437E-02  1.8787668625319E-02  1.8787623875521E-02  1.8787566340008E-02  1.8787496018733E-02  1.8787412911642E-02  1.8787317018667E-02  1.8787208339732E-02 
 0.0000000000000E+00 -1.9796293450339E-09 -3.7263636538512E-09 -5.2402026709037E-09 -6.5211459497921E-09 -7.5691928532654E-09 -8.3843425532200E-09 -8.9665940306991E-09 -9.3159460758917E-09 -9.4323972881307E-09 
-1.8787726160717E-02 -1.8787721747527E-02 -1.8787704315800E-02 -1.8787673865522E-02 -1.8787630396667E-02 -1.8787573909201E-02 -1.8787504403076E-02 -1.8787421878236E-02 -1.8787326334613E-02 -1.8787217772129E-02 
-3.5244196601512E-02 -3.5244196601512E-02 -3.5244196601512E-02 -3.5244196601512E-02 -3.5244196601511E-02 -3.5244196601512E-02 -3.5244196601512E-02 -3.5244196601511E-02 -3.5244196601511E-02 -3.5244196601618E-02 
 1.6456470440795E-02  1.6456474853985E-02  1.6456492285712E-02  1.6456522735990E-02  1.6456566204844E-02  1.6456622692311E-02  1.6456692198436E-02  1.6456774723275E-02  1.6456870266898E-02  1.6456978829489E-02 
 6.9750487926973E-01  1.3950101460664E+00  1.3950116767653E+00  1.3950143506377E+00  1.3950181676864E+00  1.3950231279157E+00  1.3950292313307E+00  1.3950364779380E+00  1.3950448677454E+00  6.9752720038244E-01 
 3.6145641683681E-09  1.0843694500901E-08  1.8072832775114E-08  2.5301984900022E-08  3.2531156811115E-08  3.9760354422998E-08  4.6989583660767E-08  5.4218850457066E-08  6.1448220999123E-08  6.1448220999123E-08 
 0.0000000000000E+00  1.3950099523239E+00  2.7900208636861E+00  4.1850338774755E+00  5.5800501365130E+00  6.9750707843765E+00  8.3700969640764E+00  9.7651298186228E+00  1.1160170491392E+01  1.2555220125564E+01 
 1.2555220125738E+01  1.1160210173435E+01  9.7651992620191E+00  8.3701862483176E+00  6.9751699891555E+00  5.5801493413545E+00  4.1851231617312E+00  2.7900903070969E+00  1.3950496342551E+00  0.0000000000000E+00 
 1.3950105213541E-08  2.7900218177471E-08  2.7900248790839E-08  2.7900302267215E-08  2.7900378606668E-08  2.7900477809228E-08  2.7900599875092E-08  2.7900744804353E-08  2.7900912597111E-08  1.3950551626813E-08 
 9.1448444543295E+04  1.8289688908659E+05  1.8289688908659E+05  1.8289688908659E+05  1.8289688908659E+05  1.8289688908659E+05  1.8289688908659E+05  1.8289688908659E+05  1.8289688908659E+05  9.1448444543295E+04 
 3.6579377817311E+05  7.3158755634622E+05  7.3158755634622E+05  7.3158755634622E+05  7.3158755634622E+05  7.3158755634622E+05  7.3158755634622E+05  7.3158755634622E+05  7.3158755634622E+05  3.6579377817311E+05 
 4.5724222271640E+05  9.1448444543281E+05  9.1448444543281E+05  9.1448444543281E+05  9.1448444543281E+05  9.1448444543281E+05  9.1448444543281E+05  9.1448444543281E+05  9.1448444543281E+05  4.5724222271640E+05 
 3.5000000000000E-01  3.5000000000000E-01  3.5000000000000E-01  3.5000000000000E-01  3.5000000000000E-01  3.5000000000000E-01  3.5000000000000E-01  3.5000000000000E-01  3.5000000000000E-01  3.5000000000000E-01 
 8.5301666666666E+00  1.7060333333333E+01  1.7060333333333E+01  1.7060333333333E+01  1.7060333333333E+01  1.7060333333333E+01  1.7060333333333E+01  1.7060333333333E+01  1.7060333333333E+01  8.5301666666666E+00 
 8.1769197077399E-02  8.1769219792487E-02  8.1769309515170E-02  8.1769466245543E-02  8.1769689983770E-02  8.1769980730097E-02  8.1770338484833E-02  8.1770763248356E-02  8.1771255021125E-02  8.1771813803847E-02 
 4.3744444444444E-05  8.7488888888889E-05  8.7488888888889E-05  8.7488888888889E-05  8.7488888888889E-05  8.7488888888889E-05  8.7488888888889E-05  8.7488888888889E-05  8.7488888888889E-05  4.3744444444444E-05 
 8.6666666666663E+01  8.6666666666663E+01  8.6666666666663E+01  8.6666666666663E+01  8.6666666666663E+01  8.6666666666663E+01  8.6666666666663E+01  8.6666666666663E+01  8.6666666666663E+01  8.6666666666663E+01 
 2.1666666666670E+01  2.1666666666670E+01  2.1666666666670E+01  2.1666666666670E+01  2.1666666666670E+01  2.1666666666670E+01  2.1666666666670E+01  2.1666666666670E+01  2.1666666666670E+01  2.1666666666670E+01 
-5.8679566229301E-05 -5.8679577639506E-05 -5.8679625348983E-05 -5.8679708689309E-05 -5.8679827660544E-05 -5.8679982262524E-05 -5.8680172495411E-05 -5.8680398359278E-05 -5.8680659853938E-05 -5.8680993675619E-05 
-2.9339768456184E+03 -2.9339774161362E+03 -2.9339798016466E+03 -2.9339839687275E+03 -2.9339899173790E+03 -2.9339976476013E+03 -2.9340071593944E+03 -2.9340184527583E+03 -2.9340315276933E+03 -2.9340482190863E+03 
 1.0192945253018E-04  5.0964714715003E-04  1.7328011506415E-03  3.7713956945020E-03  6.6254334081902E-03  1.0294929956032E-02  1.4779898375659E-02  2.0080338897487E-02  2.6196276943669E-02  2.9458125818509E-02 
 5.3659238635755E-04  4.7717791846041E-04  3.6577565233182E-04  2.6922671650377E-04  1.8753111726549E-04  1.2068890959476E-04  6.8700197165214E-05  3.1565132348169E-05  9.2839161989606E-06  1.8567984662908E-06 
-2.9339771648921E+03 -2.9339779095685E+03 -2.9339808509771E+03 -2.9339859891197E+03 -2.9339933239994E+03 -2.9340028556211E+03 -2.9340145839906E+03 -2.9340285091152E+03 -2.9340446310038E+03 -2.9340629496731E+03 
 2.6239831306244E+02  2.6239845632373E+02  2.6239902219410E+02  2.6240001067546E+02  2.6240142177111E+02  2.6240325548583E+02  2.6240551182577E+02  2.6240819079850E+02  2.6241129241305E+02  2.6241481668126E+02 
-3.1963754779546E+03 -3.1963763658922E+03 -3.1963798731712E+03 -3.1963859997951E+03 -3.1963947457705E+03 -3.1964061111069E+03 -3.1964200958163E+03 -3.1964366999137E+03 -3.1964559234169E+03 -3.1964777663543E+03 
ZONE T = "ANOD, 3.0000E-08", I = 10, SOLUTIONTIME = 3.000000E-08
ZONETYPE = ORDERED
DATAPACKING = BLOCK
STRANDID = 1
 0.0000000000000E+00  8.7488888888889E-05  1.7497777777778E-04  2.6246666666667E-04  3.4995555555556E-04  4.3744444444444E-04  5.2493333333333E-04  6.1242222222222E-04  6.9991111111111E-04  7.8740000000000E-04 
 4.8435159813481E-10  1.4530550635055E-09  2.4217595918028E-09  3.3904659768531E-09  4.3591750124852E-09  5.3278874925303E-09  6.2966042108237E-09  7.2653259612050E-09  8.2340535375192E-09  8.7171494085233E-09 
 9.1999999999913E-01  9.1999999999913E-01  9.1999999999913E-01  9.1999999999913E-01  9.1999999999913E-01  9.1999999999913E-01  9.1999999999913E-01  9.1999999999913E-01  9.1999999999913E-01  9.1999999999964E-01 
 4.0000000000437E-02  4.0000000000437E-02  4.0000000000437E-02  4.0000000000437E-02  4.0000000000437E-02  4.0000000000437E-02  4.0000000000437E-02  4.0000000000437E-02  4.0000000000437E-02  4.0000000000181E-02 
 4.0000000000437E-02  4.0000000000437E-02  4.0000000000437E-02  4.0000000000437E-02  4.0000000000437E-02  4.0000000000437E-02  4.0000000000437E-02  4.0000000000437E-02  4.0000000000437E-02  4.0000000000181E-02 
 1.8787726160663E-02  1.8787719767844E-02  1.8787700589382E-02  1.8787668625265E-02  1.8787623875467E-02  1.8787566339954E-02  1.8787496018679E-02  1.8787412911588E-02  1.8787317018613E-02  1.8787208339678E-02 
 0.0000000000000E+00 -1.9796293450213E-09 -3.7263636538275E-09 -5.2402026708704E-09 -6.5211459497508E-09 -7.5691928532174E-09 -8.3843425531670E-09 -8.9665940306427E-09 -9.3159460758332E-09 -9.4323972880718E-09 
-1.8787726160663E-02 -1.8787721747473E-02 -1.8787704315746E-02 -1.8787673865468E-02 -1.8787630396613E-02 -1.8787573909147E-02 -1.8787504403022E-02 -1.8787421878182E-02 -1.8787326334559E-02 -1.8787217772075E-02 
-3.5244196601302E-02 -3.5244196601303E-02 -3.5244196601302E-02 -3.5244196601302E-02 -3.5244196601303E-02 -3.5244196601304E-02 -3.5244196601304E-02 -3.5244196601303E-02 -3.5244196601303E-02 -3.5244196601463E-02 
 1.6456470440639E-02  1.6456474853830E-02  1.6456492285556E-02  1.6456522735835E-02  1.6456566204690E-02  1.6456622692157E-02  1.6456692198282E-02  1.6456774723121E-02  1.6456870266744E-02  1.6456978829388E-02 
 6.9750487926519E-01  1.3950101460573E+00  1.3950116767562E+00  1.3950143506286E+00  1.3950181676774E+00  1.3950231279065E+00  1.3950292313215E+00  1.3950364779291E+00  1.3950448677364E+00  6.9752720037955E-01 
 3.6145641683812E-09  1.0843694500940E-08  1.8072832775180E-08  2.5301984900114E-08  3.2531156811233E-08  3.9760354421181E-08  4.6989583660938E-08  5.4218850457264E-08  6.1448251137569E-08  6.1448251137569E-08 
 0.0000000000000E+00  1.3950099523290E+00  2.7900208636963E+00  4.1850338774907E+00  5.5800501365333E+00  6.9750707842126E+00  8.3700969639176E+00  9.7651298186583E+00  1.1160170491426E+01  1.2555220125591E+01 
 1.2555220125658E+01  1.1160210173364E+01  9.7651992619571E+00  8.3701862482647E+00  6.9751699891117E+00  5.5801493413197E+00  4.1851231617057E+00  2.7900903070804E+00  1.3950496342477E+00  0.0000000000000E+00 
 2.0925154006193E-08  4.1850319638044E-08  4.1850365558401E-08  4.1850445773501E-08  4.1850560283443E-08  4.1850709088293E-08  4.1850892188307E-08  4.1851109583643E-08  4.1851361274475E-08  2.0925823630609E-08 
 9.1448444543302E+04  1.8289688908660E+05  1.8289688908660E+05  1.8289688908660E+05  1.8289688908660E+05  1.8289688908660E+05  1.8289688908660E+05  1.8289688908660E+05  1.8289688908660E+05  9.1448444543302E+04 
 3.6579377817310E+05  7.3158755634620E+05  7.3158755634620E+05  7.3158755634620E+05  7.3158755634620E+05  7.3158755634621E+05  7.3158755634621E+05  7.3158755634620E+05  7.3158755634620E+05  3.6579377817310E+05 
 4.5724222271640E+05  9.1448444543281E+05  9.1448444543281E+05  9.1448444543281E+05  9.1448444543281E+05  9.1448444543281E+05  9.1448444543281E+05  9.1448444543281E+05  9.1448444543281E+05  4.5724222271640E+05 
 3.5000000000000E-01  3.5000000000000E-01  3.5000000000000E-01  3.5000000000000E-01  3.5000000000000E-01  3.5000000000000E-01  3.5000000000000E-01  3.5000000000000E-01  3.5000000000000E-01  3.5000000000000E-01 
 8.5301666666666E+00  1.7060333333333E+01  1.7060333333333E+01  1.7060333333333E+01  1.7060333333333E+01  1.7060333333333E+01  1.7060333333333E+01  1.7060333333333E+01  1.7060333333333E+01  8.5301666666666E+00 
 8.1769197076868E-02  8.1769219791955E-02  8.1769309514638E-02  8.1769466245011E-02  8.1769689983242E-02  8.1769980729557E-02  8.1770338484292E-02  8.1770763247830E-02  8.1771255020597E-02  8.1771813803507E-02 
 4.3744444444444E-05  8.7488888888889E-05  8.7488888888889E-05  8.7488888888889E-05  8.7488888888889E-05  8.7488888888889E-05  8.7488888888889E-05  8.7488888888889E-05  8.7488888888889E-05  4.3744444444444E-05 
 8.6666666666661E+01  8.6666666666661E+01  8.6666666666661E+01  8.6666666666661E+01  8.6666666666661E+01  8.6666666666661E+01  8.6666666666661E+01  8.6666666666661E+01  8.6666666666661E+01  8.6666666666661E+01 
 2.1666666666672E+01  2.1666666666672E+01  2.1666666666672E+01  2.1666666666672E+01  2.1666666666672E+01  2.1666666666672E+01  2.1666666666672E+01  2.1666666666672E+01  2.1666666666672E+01  2.1666666666672E+01 
-8.8019334685303E-05 -8.8019351800686E-05 -8.8019423365267E-05 -8.8019548376402E-05 -8.8019726834153E-05 -8.8019958738352E-05 -8.8020244089170E-05 -8.8020582886681E-05 -8.8020975130690E-05 -8.8021475866369E-05 
-2.9339768456002E+03 -2.9339774161180E+03 -2.9339798016283E+03 -2.9339839687093E+03 -2.9339899173609E+03 -2.9339976475828E+03 -2.9340071593759E+03 -2.9340184527403E+03 -2.9340315276752E+03 -2.9340482190750E+03 
 1.5289618295561E-04  7.6448088408324E-04  2.5992364947936E-03  5.6571690899416E-03  9.9382844786388E-03  1.5442602841774E-02  2.2170143070267E-02  3.0120912583838E-02  3.9294945330347E-02  4.4187784131774E-02 
 8.0489938356353E-04  7.1577648542452E-04  5.4867084318010E-04  4.0384549545875E-04  2.8130045169563E-04  1.8103579435962E-04  1.0305167896085E-04  4.7348334052809E-05  1.3926061219170E-05  2.7852350836162E-06 
-2.9339771648739E+03 -2.9339779095503E+03 -2.9339808509588E+03 -2.9339859891015E+03 -2.9339933239813E+03 -2.9340028556026E+03 -2.9340145839721E+03 -2.9340285090972E+03 -2.9340446309857E+03 -2.9340629496617E+03 
 2.6239831305827E+02  2.6239845631955E+02  2.6239902218993E+02  2.6240001067129E+02  2.6240142176696E+02  2.6240325548159E+02  2.6240551182153E+02  2.6240819079436E+02  2.6241129240889E+02  2.6241481667856E+02 
-3.1963754779322E+03 -3.1963763658698E+03 -3.1963798731488E+03 -3.1963859997727E+03 -3.1963947457482E+03 -3.1964061110842E+03 -3.1964200957936E+03 -3.1964366998915E+03 -3.1964559233946E+03 -3.1964777663403E+03 
ZONE T = "ANOD, 4.0000E-08", I = 10, SOLUTIONTIME = 4.000000E-08
ZONETYPE = ORDERED
DATAPACKING = BLOCK
STRANDID = 1
 0.0000000000000E+00  8.7488888888889E-05  1.7497777777778E-04  2.6246666666667E-04  3.4995555555556E-04  4.3744444444444E-04  5.2493333333333E-04  6.1242222222222E-04  6.9991111111111E-04  7.8740000000000E-04 
 4.8453320199553E-10  1.4535998750878E-09  2.4226676111065E-09  3.3917372038783E-09  4.3608094472319E-09  5.3302483427263E-09  6.2996914764689E-09  7.2687764345717E-09  8.2378672186075E-09  8.7222343166569E-09 
 9.1999999999884E-01  9.1999999999884E-01  9.1999999999884E-01  9.1999999999884E-01  9.1999999999884E-01  9.1999999999884E-01  9.1999999999884E-01  9.1999999999884E-01  9.1999999999884E-01  9.1999999999952E-01 
 4.0000000000582E-02  4.0000000000582E-02  4.0000000000582E-02  4.0000000000582E-02  4.0000000000582E-02  4.0000000000582E-02  4.0000000000582E-02  4.0000000000582E-02  4.0000000000582E-02  4.0000000000241E-02 
 4.0000000000582E-02  4.0000000000582E-02  4.0000000000582E-02  4.0000000000582E-02  4.0000000000582E-02  4.0000000000582E-02  4.0000000000582E-02  4.0000000000582E-02  4.0000000000582E-02  4.0000000000241E-02 
 1.8787726160610E-02  1.8787719767791E-02  1.8787700589329E-02  1.8787668625212E-02  1.8787623875414E-02  1.8787566339901E-02  1.8787496018626E-02  1.8787412911535E-02  1.8787317018560E-02  1.8787208339625E-02 
 0.0000000000000E+00 -1.9796293450088E-09 -3.7263636538039E-09 -5.2402026708373E-09 -6.5211459497096E-09 -7.5691928531698E-09 -8.3843425531143E-09 -8.9665940305865E-09 -9.3159460757751E-09 -9.4323972880131E-09 
-1.8787726160610E-02 -1.8787721747420E-02 -1.8787704315693E-02 -1.8787673865415E-02 -1.8787630396560E-02 -1.8787573909094E-02 -1.8787504402969E-02 -1.8787421878129E-02 -1.8787326334506E-02 -1.8787217772022E-02 
-3.5244196601097E-02 -3.5244196601097E-02 -3.5244196601097E-02 -3.5244196601097E-02 -3.5244196601097E-02 -3.5244196601097E-02 -3.5244196601097E-02 -3.5244196601097E-02 -3.5244196601097E-02 -3.5244196601311E-02 
 1.6456470440487E-02  1.6456474853677E-02  1.6456492285404E-02  1.6456522735683E-02  1.6456566204537E-02  1.6456622692004E-02  1.6456692198129E-02  1.6456774722968E-02  1.6456870266591E-02  1.6456978829288E-02 
 6.9750487926062E-01  1.3950101460484E+00  1.3950116767471E+00  1.3950143506195E+00  1.3950181676685E+00  1.3950231278974E+00  1.3950292313124E+00  1.3950364779201E+00  1.3950448677274E+00  6.9752720037665E-01 