TITLE = "Solution on Domain BulkDomain1D_2"
VARIABLES = "x [m]"  
"Vel_axial" 	"MF_sp(ECDMC)" 	"MF_sp(Li+)" 	"MF_sp(PF6-)" 	"Volt(Electroly)" 	"Volt(CathodeVo)" 	
"Potential Drop Electrode-Electrolyte [V]" 	"Surf_0 Equilibrium Potential Drop Electrode-Electrolyte [V]" 	"Overpotential_0 [V]" 	"Current Source [A/m^2]" 	"Li+ flux [kmol/m^2/s]" 	"Electrolyte Current [A/m^2]" 	"Electrode Current [A/m^2]" 	
"CV Capacity discharged [A-s/m^2]" 	"Depth of discharge in CV [A-s/m^2]" 	"CV Capacity remaining [A-s/m^2]" 	"Initial CV capacity [A-s/m^2]" 	"Porosity []" 	"Surface Area [m2/m2] (area per area)" 	"Specific current (per particle area) [A/m^2]" 	"Control volume thickness [m]" 	
"MoleDens LiCoO2 [kmol/m^3]" 	"MoleDens CoO2 [kmol/m^3]" 	"qHeat_accum [J/m3]" 	"qHeat_step [W/m3]" 	"Joule_Lyte [W/m3]" 	"Joule_Solid [W/m3]" 	"electrodHeat [W/m3]" 	"OverpotHeat [W/m3]" 	"deltaSHeat [W/m3]" 	

ZONE T = "CATH, 0.0000E+00", I = 10, SOLUTIONTIME = 0.000000E+00
ZONETYPE = ORDERED
DATAPACKING = BLOCK
STRANDID = 3
 1.2700000000000E-03  1.3377333333333E-03  1.4054666666667E-03  1.4732000000000E-03  1.5409333333333E-03  1.6086666666667E-03  1.6764000000000E-03  1.7441333333333E-03  1.8118666666667E-03  1.8796000000000E-03 
 0.0000000000000E+00  0.0000000000000E+00  0.0000000000000E+00  0.0000000000000E+00  0.0000000000000E+00  0.0000000000000E+00  0.0000000000000E+00  0.0000000000000E+00  0.0000000000000E+00  0.0000000000000E+00 
 9.2000000000000E-01  9.2000000000000E-01  9.2000000000000E-01  9.2000000000000E-01  9.2000000000000E-01  9.2000000000000E-01  9.2000000000000E-01  9.2000000000000E-01  9.2000000000000E-01  9.2000000000000E-01 
 4.0000000000000E-02  4.0000000000000E-02  4.0000000000000E-02  4.0000000000000E-02  4.0000000000000E-02  4.0000000000000E-02  4.0000000000000E-02  4.0000000000000E-02  4.0000000000000E-02  4.0000000000000E-02 
 4.0000000000000E-02  4.0000000000000E-02  4.0000000000000E-02  4.0000000000000E-02  4.0000000000000E-02  4.0000000000000E-02  4.0000000000000E-02  4.0000000000000E-02  4.0000000000000E-02  4.0000000000000E-02 
-7.0000000000000E-02 -7.0000000000000E-02 -7.0000000000000E-02 -7.0000000000000E-02 -7.0000000000000E-02 -7.0000000000000E-02 -7.0000000000000E-02 -7.0000000000000E-02 -7.0000000000000E-02 -7.0000000000000E-02 
 3.8000000000000E+00  3.8000000000000E+00  3.8000000000000E+00  3.8000000000000E+00  3.8000000000000E+00  3.8000000000000E+00  3.8000000000000E+00  3.8000000000000E+00  3.8000000000000E+00  3.8000000000000E+00 
 3.8700000000000E+00  3.8700000000000E+00  3.8700000000000E+00  3.8700000000000E+00  3.8700000000000E+00  3.8700000000000E+00  3.8700000000000E+00  3.8700000000000E+00  3.8700000000000E+00  3.8700000000000E+00 
 3.9779642109147E+00  3.9779642109147E+00  3.9779642109147E+00  3.9779642109147E+00  3.9779642109147E+00  3.9779642109147E+00  3.9779642109147E+00  3.9779642109147E+00  3.9779642109147E+00  3.9779642109147E+00 
-1.0796421091472E-01 -1.0796421091472E-01 -1.0796421091472E-01 -1.0796421091472E-01 -1.0796421091472E-01 -1.0796421091472E-01 -1.0796421091472E-01 -1.0796421091472E-01 -1.0796421091472E-01 -1.0796421091472E-01 
-1.1663619695838E-01 -2.3327239391676E-01 -2.3327239391676E-01 -2.3327239391676E-01 -2.3327239391676E-01 -2.3327239391676E-01 -2.3327239391676E-01 -2.3327239391676E-01 -2.3327239391676E-01 -1.1663619695838E-01 
-0.0000000000000E+00 -0.0000000000000E+00 -0.0000000000000E+00 -0.0000000000000E+00 -0.0000000000000E+00 -0.0000000000000E+00 -0.0000000000000E+00 -0.0000000000000E+00 -0.0000000000000E+00 -0.0000000000000E+00 
 1.1663619695838E-01  0.0000000000000E+00  0.0000000000000E+00  0.0000000000000E+00  0.0000000000000E+00  0.0000000000000E+00  0.0000000000000E+00  0.0000000000000E+00  0.0000000000000E+00  0.0000000000000E+00 
 0.0000000000000E+00 -0.0000000000000E+00 -0.0000000000000E+00 -0.0000000000000E+00 -0.0000000000000E+00 -0.0000000000000E+00 -0.0000000000000E+00 -0.0000000000000E+00 -0.0000000000000E+00  1.1663619695838E-01 
-0.0000000000000E+00 -0.0000000000000E+00 -0.0000000000000E+00 -0.0000000000000E+00 -0.0000000000000E+00 -0.0000000000000E+00 -0.0000000000000E+00 -0.0000000000000E+00 -0.0000000000000E+00 -0.0000000000000E+00 
 7.2440786946225E+03  1.4488157389245E+04  1.4488157389245E+04  1.4488157389245E+04  1.4488157389245E+04  1.4488157389245E+04  1.4488157389245E+04  1.4488157389245E+04  1.4488157389245E+04  7.2440786946225E+03 
 4.9259735123433E+04  9.8519470246865E+04  9.8519470246866E+04  9.8519470246865E+04  9.8519470246866E+04  9.8519470246866E+04  9.8519470246865E+04  9.8519470246866E+04  9.8519470246865E+04  4.9259735123433E+04 
 5.6503813818055E+04  1.1300762763611E+05  1.1300762763611E+05  1.1300762763611E+05  1.1300762763611E+05  1.1300762763611E+05  1.1300762763611E+05  1.1300762763611E+05  1.1300762763611E+05  5.6503813818055E+04 
 3.5000000000000E-01  3.5000000000000E-01  3.5000000000000E-01  3.5000000000000E-01  3.5000000000000E-01  3.5000000000000E-01  3.5000000000000E-01  3.5000000000000E-01  3.5000000000000E-01  3.5000000000000E-01 
 6.6040000000000E+00  1.3208000000000E+01  1.3208000000000E+01  1.3208000000000E+01  1.3208000000000E+01  1.3208000000000E+01  1.3208000000000E+01  1.3208000000000E+01  1.3208000000000E+01  6.6040000000000E+00 
-1.7661447146938E-02 -1.7661447146938E-02 -1.7661447146938E-02 -1.7661447146938E-02 -1.7661447146938E-02 -1.7661447146938E-02 -1.7661447146938E-02 -1.7661447146938E-02 -1.7661447146938E-02 -1.7661447146938E-02 
 3.3866666666667E-05  6.7733333333333E-05  6.7733333333334E-05  6.7733333333333E-05  6.7733333333334E-05  6.7733333333334E-05  6.7733333333333E-05  6.7733333333334E-05  6.7733333333333E-05  3.3866666666667E-05 
 2.6603001364256E+01  2.6603001364256E+01  2.6603001364256E+01  2.6603001364256E+01  2.6603001364256E+01  2.6603001364256E+01  2.6603001364256E+01  2.6603001364256E+01  2.6603001364256E+01  2.6603001364256E+01 
 1.7735334242838E+01  1.7735334242838E+01  1.7735334242838E+01  1.7735334242838E+01  1.7735334242838E+01  1.7735334242838E+01  1.7735334242838E+01  1.7735334242838E+01  1.7735334242838E+01  1.7735334242838E+01 
 0.0000000000000E+00  0.0000000000000E+00  0.0000000000000E+00  0.0000000000000E+00  0.0000000000000E+00  0.0000000000000E+00  0.0000000000000E+00  0.0000000000000E+00  0.0000000000000E+00  0.0000000000000E+00 
 0.0000000000000E+00  0.0000000000000E+00  0.0000000000000E+00  0.0000000000000E+00  0.0000000000000E+00  0.0000000000000E+00  0.0000000000000E+00  0.0000000000000E+00  0.0000000000000E+00  0.0000000000000E+00 
 0.0000000000000E+00  0.0000000000000E+00  0.0000000000000E+00  0.0000000000000E+00  0.0000000000000E+00  0.0000000000000E+00  0.0000000000000E+00  0.0000000000000E+00  0.0000000000000E+00  0.0000000000000E+00 
 0.0000000000000E+00  0.0000000000000E+00  0.0000000000000E+00  0.0000000000000E+00  0.0000000000000E+00  0.0000000000000E+00  0.0000000000000E+00  0.0000000000000E+00  0.0000000000000E+00  0.0000000000000E+00 
 0.0000000000000E+00  0.0000000000000E+00  0.0000000000000E+00  0.0000000000000E+00  0.0000000000000E+00  0.0000000000000E+00  0.0000000000000E+00  0.0000000000000E+00  0.0000000000000E+00  0.0000000000000E+00 
 0.0000000000000E+00  0.0000000000000E+00  0.0000000000000E+00  0.0000000000000E+00  0.0000000000000E+00  0.0000000000000E+00  0.0000000000000E+00  0.0000000000000E+00  0.0000000000000E+00  0.0000000000000E+00 
 0.0000000000000E+00  0.0000000000000E+00  0.0000000000000E+00  0.0000000000000E+00  0.0000000000000E+00  0.0000000000000E+00  0.0000000000000E+00  0.0000000000000E+00  0.0000000000000E+00  0.0000000000000E+00 
ZONE T = "CATH, 1.0000E-08", I = 10, SOLUTIONTIME = 1.000000E-08
ZONETYPE = ORDERED
DATAPACKING = BLOCK
STRANDID = 3
 1.2700000000000E-03  1.3377333333333E-03  1.4054666666667E-03  1.4732000000000E-03  1.5409333333333E-03  1.6086666666667E-03  1.6764000000000E-03  1.7441333333333E-03  1.8118666666667E-03  1.8796000000000E-03 
 8.2361463497556E-09  7.2679256061905E-09  6.2996539140644E-09  5.3312961482665E-09  4.3628171715187E-09  3.3941818290117E-09  2.4253549432436E-09  1.4563013088798E-09  4.8734889561758E-10  2.5424538190260E-12 
 9.2000000000013E-01  9.2000000000038E-01  9.2000000000038E-01  9.2000000000038E-01  9.2000000000038E-01  9.2000000000038E-01  9.2000000000038E-01  9.2000000000038E-01  9.2000000000038E-01  9.2000000000038E-01 
 3.9999999999934E-02  3.9999999999812E-02  3.9999999999812E-02  3.9999999999812E-02  3.9999999999812E-02  3.9999999999812E-02  3.9999999999812E-02  3.9999999999812E-02  3.9999999999812E-02  3.9999999999812E-02 
 3.9999999999934E-02  3.9999999999812E-02  3.9999999999812E-02  3.9999999999812E-02  3.9999999999812E-02  3.9999999999812E-02  3.9999999999812E-02  3.9999999999812E-02  3.9999999999812E-02  3.9999999999812E-02 
 1.8787010405271E-02  1.8786926267662E-02  1.8786852023610E-02  1.8786787673754E-02  1.8786733218925E-02  1.8786688660322E-02  1.8786653999625E-02  1.8786629238755E-02  1.8786614380011E-02  1.8786609426110E-02 
 3.8000730035485E+00  3.8000721024833E+00  3.8000693992583E+00  3.8000648937786E+00  3.8000585858840E+00  3.8000504753488E+00  3.8000405618822E+00  3.8000288451275E+00  3.8000153246626E+00  3.8000000000000E+00 
 3.7812859931432E+00  3.7812851762157E+00  3.7812825472347E+00  3.7812781061048E+00  3.7812718526650E+00  3.7812637866885E+00  3.7812539078826E+00  3.7812422158887E+00  3.7812287102826E+00  3.7812133905739E+00 
 3.9779642109146E+00  3.9779642109146E+00  3.9779642109146E+00  3.9779642109146E+00  3.9779642109146E+00  3.9779642109146E+00  3.9779642109146E+00  3.9779642109146E+00  3.9779642109146E+00  3.9779642109146E+00 
-1.9667821777140E-01 -1.9667903469890E-01 -1.9668166367989E-01 -1.9668610480976E-01 -1.9669235824954E-01 -1.9670042422605E-01 -1.9671030303201E-01 -1.9672199502587E-01 -1.9673550063197E-01 -1.9675082034068E-01 
-6.9717382086457E-01 -1.3943704498288E+00 -1.3944438518383E+00 -1.3945678584010E+00 -1.3947424874940E+00 -1.3949677644370E+00 -1.3952437219046E+00 -1.3955703999288E+00 -1.3959478459157E+00 -6.9818805733044E-01 
 6.1447543705117E-08  5.4222011893273E-08  4.6996070956755E-08  3.9769521102635E-08  3.2542097119443E-08  2.5313445108282E-08  1.8083390580786E-08  1.0851657405278E-08  3.6179391970012E-09  3.6179391970012E-09 
 1.2554736982144E+01  1.1160410641396E+01  9.7660607782578E+00  8.3716073410822E+00  6.9770108118448E+00  5.5822114548870E+00  4.1871582889769E+00  2.7918078360836E+00  1.3961038919986E+00  0.0000000000000E+00 
 0.0000000000000E+00  1.3943035890358E+00  2.7886552623333E+00  4.1831055967123E+00  5.5777051846258E+00  6.9725046387984E+00  8.3675546011600E+00  9.7629057505759E+00  1.1158608808688E+01  1.2554742715353E+01 
 6.9717382086457E-09  1.3943704498288E-08  1.3944438518383E-08  1.3945678584010E-08  1.3947424874940E-08  1.3949677644370E-08  1.3952437219046E-08  1.3955703999288E-08  1.3959478459157E-08  6.9818805733044E-09 
 7.2440786946295E+03  1.4488157389259E+04  1.4488157389259E+04  1.4488157389259E+04  1.4488157389259E+04  1.4488157389259E+04  1.4488157389259E+04  1.4488157389259E+04  1.4488157389259E+04  7.2440786946295E+03 
 4.9259735123426E+04  9.8519470246851E+04  9.8519470246852E+04  9.8519470246851E+04  9.8519470246852E+04  9.8519470246852E+04  9.8519470246851E+04  9.8519470246852E+04  9.8519470246851E+04  4.9259735123426E+04 
 5.6503813818055E+04  1.1300762763611E+05  1.1300762763611E+05  1.1300762763611E+05  1.1300762763611E+05  1.1300762763611E+05  1.1300762763611E+05  1.1300762763611E+05  1.1300762763611E+05  5.6503813818055E+04 
 3.5000000000000E-01  3.5000000000000E-01  3.5000000000000E-01  3.5000000000000E-01  3.5000000000000E-01  3.5000000000000E-01  3.5000000000000E-01  3.5000000000000E-01  3.5000000000000E-01  3.5000000000000E-01 
 6.6040000000000E+00  1.3208000000000E+01  1.3208000000000E+01  1.3208000000000E+01  1.3208000000000E+01  1.3208000000000E+01  1.3208000000000E+01  1.3208000000000E+01  1.3208000000000E+01  6.6040000000000E+00 
-1.0556841624236E-01 -1.0557014308213E-01 -1.0557570047231E-01 -1.0558508921873E-01 -1.0559831068246E-01 -1.0561536678051E-01 -1.0563625998672E-01 -1.0566099333198E-01 -1.0568957040549E-01 -1.0572199535591E-01 
 3.3866666666667E-05  6.7733333333333E-05  6.7733333333334E-05  6.7733333333333E-05  6.7733333333334E-05  6.7733333333334E-05  6.7733333333333E-05  6.7733333333334E-05  6.7733333333333E-05  3.3866666666667E-05 
 2.6603001364259E+01  2.6603001364259E+01  2.6603001364259E+01  2.6603001364259E+01  2.6603001364259E+01  2.6603001364259E+01  2.6603001364259E+01  2.6603001364259E+01  2.6603001364259E+01  2.6603001364259E+01 
 1.7735334242836E+01  1.7735334242836E+01  1.7735334242836E+01  1.7735334242836E+01  1.7735334242836E+01  1.7735334242836E+01  1.7735334242836E+01  1.7735334242836E+01  1.7735334242836E+01  1.7735334242836E+01 
 8.8255423507155E-05  8.8257389995607E-05  8.8263659635706E-05  8.8274251733666E-05  8.8289167925165E-05  8.8308410513581E-05  8.8331982471500E-05  8.8359887441134E-05  8.8392129735542E-05  8.8425369143289E-05 
 8.8255423507155E+03  8.8257389995607E+03  8.8263659635706E+03  8.8274251733666E+03  8.8289167925165E+03  8.8308410513581E+03  8.8331982471500E+03  8.8359887441134E+03  8.8392129735542E+03  8.8425369143289E+03 
 1.4729335928970E-02  1.3099175880048E-02  1.0042431611370E-02  7.3928558926816E-03  5.1504834422107E-03  3.3153710773504E-03  1.8876493661685E-03  8.6751686851917E-04  2.5521831065736E-04  5.1061952586532E-05 
 9.2742236053317E-03  4.6372027943989E-02  1.5767062457442E-01  3.4318576452730E-01  6.0294396959709E-01  9.3698254018936E-01  1.3453495669954E+00  1.8281039459114E+00  2.3853153957318E+00  2.6825447802584E+00 
 8.8255183471559E+03  8.8256795283568E+03  8.8261982505144E+03  8.8270745947461E+03  8.8283086980635E+03  8.8299007534468E+03  8.8318510099336E+03  8.8341597726506E+03  8.8368274029402E+03  8.8398543184867E+03 
 4.0487865521027E+03  4.0488695977141E+03  4.0491368605499E+03  4.0495883852650E+03  4.0502242472861E+03  4.0510445528531E+03  4.0520494390678E+03  4.0532390739156E+03  4.0546136563364E+03  4.0561734162965E+03 
 4.7767317950532E+03  4.7768099306427E+03  4.7770613899645E+03  4.7774862094812E+03  4.7780844507774E+03  4.7788562005937E+03  4.7798015708658E+03  4.7809206987350E+03  4.7822137466038E+03  4.7836809021901E+03 
ZONE T = "CATH, 2.0000E-08", I = 10, SOLUTIONTIME = 2.000000E-08
ZONETYPE = ORDERED
DATAPACKING = BLOCK
STRANDID = 3
 1.2700000000000E-03  1.3377333333333E-03  1.4054666666667E-03  1.4732000000000E-03  1.5409333333333E-03  1.6086666666667E-03  1.6764000000000E-03  1.7441333333333E-03  1.8118666666667E-03  1.8796000000000E-03 
 8.2377492601364E-09  7.2694897236121E-09  6.3004527987767E-09  5.3320561750158E-09  4.3635382828618E-09  3.3948639507166E-09  2.4256347765625E-09  1.4565419537608E-09  4.8718701956423E-10  1.9976425027603E-12 
 9.2000000000027E-01  9.2000000000075E-01  9.2000000000075E-01  9.2000000000075E-01  9.2000000000075E-01  9.2000000000075E-01  9.2000000000075E-01  9.2000000000075E-01  9.2000000000075E-01  9.2000000000075E-01 
 3.9999999999867E-02  3.9999999999624E-02  3.9999999999624E-02  3.9999999999624E-02  3.9999999999624E-02  3.9999999999624E-02  3.9999999999624E-02  3.9999999999624E-02  3.9999999999624E-02  3.9999999999624E-02 
 3.9999999999867E-02  3.9999999999624E-02  3.9999999999624E-02  3.9999999999624E-02  3.9999999999624E-02  3.9999999999624E-02  3.9999999999624E-02  3.9999999999624E-02  3.9999999999624E-02  3.9999999999624E-02 
 1.8787027751015E-02  1.8786943609979E-02  1.8786869362968E-02  1.8786805010503E-02  1.8786750553464E-02  1.8786705993091E-02  1.8786671330981E-02  1.8786646569094E-02  1.8786631709746E-02  1.8786626755618E-02 
 3.8000730064805E+00  3.8000721053792E+00  3.8000694020459E+00  3.8000648963856E+00  3.8000585882381E+00  3.8000504773777E+00  3.8000405635131E+00  3.8000288462878E+00  3.8000153252793E+00  3.8000000000000E+00 
 3.7812859787295E+00  3.7812851617692E+00  3.7812825326829E+00  3.7812780913751E+00  3.7812718376846E+00  3.7812637713846E+00  3.7812538921821E+00  3.7812421997187E+00  3.7812286935696E+00  3.7812133732444E+00 
 3.9779642109146E+00  3.9779642109144E+00  3.9779642109144E+00  3.9779642109144E+00  3.9779642109144E+00  3.9779642109144E+00  3.9779642109144E+00  3.9779642109144E+00  3.9779642109144E+00  3.9779642109144E+00 
-1.9667823218510E-01 -1.9667904914520E-01 -1.9668167823153E-01 -1.9668611953934E-01 -1.9669237322979E-01 -1.9670043952985E-01 -1.9671031873228E-01 -1.9672201119575E-01 -1.9673551734482E-01 -1.9675083767004E-01 
-6.9717402207302E-01 -1.3943708531602E+00 -1.3944442581321E+00 -1.3945682696998E+00 -1.3947429058446E+00 -1.3949681918922E+00 -1.3952441605205E+00 -1.3955708517698E+00 -1.3959483130552E+00 -6.9818829959050E-01 
 6.1450101813590E-08  5.4224173517840E-08  4.6997975694476E-08  3.9771135222146E-08  3.2543389768812E-08  2.5314476842424E-08  1.8084133818154E-08  1.0852097837313E-08  3.6181057899801E-09  3.6181057899801E-09 
 1.2555220125807E+01  1.1160860676939E+01  9.7664531214671E+00  8.3719468575200E+00  6.9772912695834E+00  5.5824357208917E+00  4.1873295446089E+00  2.7919220386942E+00  1.3961624561237E+00  0.0000000000000E+00 
 0.0000000000000E+00  1.3943594486907E+00  2.7887670043199E+00  4.1832732681021E+00  5.5779288558543E+00  6.9727844048677E+00  8.3678905811233E+00  9.7632980871939E+00  1.1159057669632E+01  1.2555220125901E+01 
 1.3943478429376E-08  2.7887413029890E-08  2.7888881099704E-08  2.7891361281009E-08  2.7894853933386E-08  2.7899359563292E-08  2.7904878824250E-08  2.7911412516986E-08  2.7918961589709E-08  1.3963763569209E-08 
 7.2440786946364E+03  1.4488157389273E+04  1.4488157389273E+04  1.4488157389273E+04  1.4488157389273E+04  1.4488157389273E+04  1.4488157389273E+04  1.4488157389273E+04  1.4488157389273E+04  7.2440786946364E+03 
 4.9259735123419E+04  9.8519470246837E+04  9.8519470246838E+04  9.8519470246837E+04  9.8519470246838E+04  9.8519470246838E+04  9.8519470246837E+04  9.8519470246838E+04  9.8519470246837E+04  4.9259735123419E+04 
 5.6503813818055E+04  1.1300762763611E+05  1.1300762763611E+05  1.1300762763611E+05  1.1300762763611E+05  1.1300762763611E+05  1.1300762763611E+05  1.1300762763611E+05  1.1300762763611E+05  5.6503813818055E+04 
 3.5000000000000E-01  3.5000000000000E-01  3.5000000000000E-01  3.5000000000000E-01  3.5000000000000E-01  3.5000000000000E-01  3.5000000000000E-01  3.5000000000000E-01  3.5000000000000E-01  3.5000000000000E-01 
 6.6040000000000E+00  1.3208000000000E+01  1.3208000000000E+01  1.3208000000000E+01  1.3208000000000E+01  1.3208000000000E+01  1.3208000000000E+01  1.3208000000000E+01  1.3208000000000E+01  6.6040000000000E+00 
-1.0556844671003E-01 -1.0557017361903E-01 -1.0557573123350E-01 -1.0558512035886E-01 -1.0559834235650E-01 -1.0561539914386E-01 -1.0563629319507E-01 -1.0566102754162E-01 -1.0568960577341E-01 -1.0572203203975E-01 
 3.3866666666667E-05  6.7733333333333E-05  6.7733333333334E-05  6.7733333333333E-05  6.7733333333334E-05  6.7733333333334E-05  6.7733333333333E-05  6.7733333333334E-05  6.7733333333333E-05  3.3866666666667E-05 
 2.6603001364261E+01  2.6603001364261E+01  2.6603001364261E+01  2.6603001364261E+01  2.6603001364261E+01  2.6603001364261E+01  2.6603001364261E+01  2.6603001364261E+01  2.6603001364261E+01  2.6603001364261E+01 
 1.7735334242833E+01  1.7735334242833E+01  1.7735334242833E+01  1.7735334242833E+01  1.7735334242833E+01  1.7735334242833E+01  1.7735334242833E+01  1.7735334242833E+01  1.7735334242833E+01  1.7735334242833E+01 
 1.7651087547190E-04  1.7651480854181E-04  1.7652734811822E-04  1.7654853281480E-04  1.7657836590315E-04  1.7661685199078E-04  1.7666399702338E-04  1.7671980828619E-04  1.7678429440639E-04  1.7685077469135E-04 
 8.8255451964746E+03  8.8257418546202E+03  8.8263688482510E+03  8.8274281081133E+03  8.8289197977985E+03  8.8308441477201E+03  8.8332014551883E+03  8.8359920845055E+03  8.8392164670850E+03  8.8425405548059E+03 
 1.4730535765175E-02  1.3100233031497E-02  1.0043238049022E-02  7.3934555153101E-03  5.1508979590094E-03  3.3156370576470E-03  1.8878036781315E-03  8.6758794243081E-04  2.5523930534166E-04  5.1066654415555E-05 
 9.2749666666380E-03  4.6375743657224E-02  1.5768326097438E-01  3.4321327773120E-01  6.0299232931175E-01  9.3705773539914E-01  1.3454576114617E+00  1.8282508836173E+00  2.3855073069220E+00  2.6827607031964E+00 
 8.8255211909721E+03  8.8256823786435E+03  8.8262011217520E+03  8.8270775013801E+03  8.8283116545712E+03  8.8299037743476E+03  8.8318541097732E+03  8.8341629660339E+03  8.8368307045388E+03  8.8398577430360E+03 
 4.0487880173246E+03  4.0488710662721E+03  4.0491383399100E+03  4.0495898828757E+03  4.0502257706125E+03  4.0510461093824E+03  4.0520510363016E+03  4.0532407193870E+03  4.0546153576137E+03  4.0561751809822E+03 
 4.7767331736475E+03  4.7768113123714E+03  4.7770627818419E+03  4.7774876185044E+03  4.7780858839587E+03  4.7788576649652E+03  4.7798030734715E+03  4.7809222466469E+03  4.7822153469251E+03  4.7836825620538E+03 
ZONE T = "CATH, 3.0000E-08", I = 10, SOLUTIONTIME = 3.000000E-08
ZONETYPE = ORDERED
DATAPACKING = BLOCK
STRANDID = 3
 1.2700000000000E-03  1.3377333333333E-03  1.4054666666667E-03  1.4732000000000E-03  1.5409333333333E-03  1.6086666666667E-03  1.6764000000000E-03  1.7441333333333E-03  1.8118666666667E-03  1.8796000000000E-03 
 8.2326643518936E-09  7.2647680231034E-09  6.2971839291854E-09  5.3298769286142E-09  4.3613590364665E-09  3.3926847043277E-09  2.4238187379077E-09  1.4536362919290E-09  4.8428135773882E-10 -3.6320772778606E-13 
 9.2000000000040E-01  9.2000000000113E-01  9.2000000000113E-01  9.2000000000113E-01  9.2000000000113E-01  9.2000000000113E-01  9.2000000000113E-01  9.2000000000113E-01  9.2000000000113E-01  9.2000000000113E-01 
 3.9999999999801E-02  3.9999999999436E-02  3.9999999999436E-02  3.9999999999436E-02  3.9999999999436E-02  3.9999999999436E-02  3.9999999999436E-02  3.9999999999436E-02  3.9999999999436E-02  3.9999999999436E-02 
 3.9999999999801E-02  3.9999999999436E-02  3.9999999999436E-02  3.9999999999436E-02  3.9999999999436E-02  3.9999999999436E-02  3.9999999999436E-02  3.9999999999436E-02  3.9999999999436E-02  3.9999999999436E-02 
 1.8787027750961E-02  1.8786943609925E-02  1.8786869362914E-02  1.8786805010449E-02  1.8786750553410E-02  1.8786705993037E-02  1.8786671330927E-02  1.8786646569040E-02  1.8786631709692E-02  1.8786626755564E-02 
 3.8000730064805E+00  3.8000721053792E+00  3.8000694020459E+00  3.8000648963856E+00  3.8000585882381E+00  3.8000504773777E+00  3.8000405635131E+00  3.8000288462878E+00  3.8000153252793E+00  3.8000000000000E+00 
 3.7812859787295E+00  3.7812851617693E+00  3.7812825326829E+00  3.7812780913751E+00  3.7812718376847E+00  3.7812637713846E+00  3.7812538921822E+00  3.7812421997187E+00  3.7812286935697E+00  3.7812133732444E+00 
 3.9779642109145E+00  3.9779642109143E+00  3.9779642109143E+00  3.9779642109143E+00  3.9779642109143E+00  3.9779642109143E+00  3.9779642109143E+00  3.9779642109143E+00  3.9779642109143E+00  3.9779642109143E+00 
-1.9667823218497E-01 -1.9667904914500E-01 -1.9668167823133E-01 -1.9668611953914E-01 -1.9669237322959E-01 -1.9670043952964E-01 -1.9671031873208E-01 -1.9672201119555E-01 -1.9673551734462E-01 -1.9675083766983E-01 
-6.9717402207058E-01 -1.3943708531511E+00 -1.3944442581230E+00 -1.3945682696907E+00 -1.3947429058355E+00 -1.3949681918830E+00 -1.3952441605113E+00 -1.3955708517606E+00 -1.3959483130460E+00 -6.9818829958593E-01 
 6.1450157248178E-08  5.4224173528857E-08  4.6997975697547E-08  3.9771135238171E-08  3.2543389775750E-08  2.5314476861429E-08  1.8084133842511E-08  1.0852097857144E-08  3.6181058178251E-09  3.6181058178251E-09 
 1.2555220125767E+01  1.1160860677140E+01  9.7664531214213E+00  8.3719468574807E+00  6.9772912695506E+00  5.5824357208655E+00  4.1873295448337E+00  2.7919220384366E+00  1.3961624561171E+00  0.0000000000000E+00 
 0.0000000000000E+00  1.3943594486907E+00  2.7887670043199E+00  4.1832732681021E+00  5.5779288558543E+00  6.9727844048677E+00  8.3678905809515E+00  9.7632980871939E+00  1.1159057669632E+01  1.2555220125553E+01 
 2.0915218650082E-08  4.1831121561401E-08  4.1833323680934E-08  4.1837043977916E-08  4.1842282991741E-08  4.1849041482122E-08  4.1857320429363E-08  4.1867121034592E-08  4.1878444720169E-08  2.0945646565069E-08 
 7.2440786946434E+03  1.4488157389287E+04  1.4488157389287E+04  1.4488157389287E+04  1.4488157389287E+04  1.4488157389287E+04  1.4488157389287E+04  1.4488157389287E+04  1.4488157389287E+04  7.2440786946434E+03 
 4.9259735123412E+04  9.8519470246823E+04  9.8519470246824E+04  9.8519470246823E+04  9.8519470246824E+04  9.8519470246824E+04  9.8519470246823E+04  9.8519470246824E+04  9.8519470246823E+04  4.9259735123412E+04 
 5.6503813818055E+04  1.1300762763611E+05  1.1300762763611E+05  1.1300762763611E+05  1.1300762763611E+05  1.1300762763611E+05  1.1300762763611E+05  1.1300762763611E+05  1.1300762763611E+05  5.6503813818055E+04 
 3.5000000000000E-01  3.5000000000000E-01  3.5000000000000E-01  3.5000000000000E-01  3.5000000000000E-01  3.5000000000000E-01  3.5000000000000E-01  3.5000000000000E-01  3.5000000000000E-01  3.5000000000000E-01 
 6.6040000000000E+00  1.3208000000000E+01  1.3208000000000E+01  1.3208000000000E+01  1.3208000000000E+01  1.3208000000000E+01  1.3208000000000E+01  1.3208000000000E+01  1.3208000000000E+01  6.6040000000000E+00 
-1.0556844670966E-01 -1.0557017361834E-01 -1.0557573123281E-01 -1.0558512035817E-01 -1.0559834235581E-01 -1.0561539914317E-01 -1.0563629319438E-01 -1.0566102754093E-01 -1.0568960577272E-01 -1.0572203203906E-01 
 3.3866666666667E-05  6.7733333333333E-05  6.7733333333334E-05  6.7733333333333E-05  6.7733333333334E-05  6.7733333333334E-05  6.7733333333333E-05  6.7733333333334E-05  6.7733333333333E-05  3.3866666666667E-05 
 2.6603001364263E+01  2.6603001364263E+01  2.6603001364263E+01  2.6603001364263E+01  2.6603001364263E+01  2.6603001364263E+01  2.6603001364263E+01  2.6603001364263E+01  2.6603001364263E+01  2.6603001364263E+01 
 1.7735334242831E+01  1.7735334242831E+01  1.7735334242831E+01  1.7735334242831E+01  1.7735334242831E+01  1.7735334242831E+01  1.7735334242831E+01  1.7735334242831E+01  1.7735334242831E+01  1.7735334242831E+01 
 2.6476632743633E-04  2.6477222708742E-04  2.6479103660014E-04  2.6482281389535E-04  2.6486756388055E-04  2.6492529346739E-04  2.6499601157468E-04  2.6507972913065E-04  2.6517645907665E-04  2.6527618023881E-04 
 8.8255451964426E+03  8.8257418545613E+03  8.8263688481922E+03  8.8274281080546E+03  8.8289197977396E+03  8.8308441476612E+03  8.8332014551292E+03  8.8359920844465E+03  8.8392164670260E+03  8.8425405547466E+03 
 1.4730535765128E-02  1.3100233031982E-02  1.0043238049047E-02  7.3934555152040E-03  5.1508979590566E-03  3.3156370575600E-03  1.8878036783728E-03  8.6758794231946E-04  2.5523930526896E-04  5.1066654486841E-05 
 9.2749666666380E-03  4.6375743657224E-02  1.5768326097438E-01  3.4321327773120E-01  6.0299232931175E-01  9.3705773539914E-01  1.3454576114022E+00  1.8282508836265E+00  2.3855073069129E+00  2.6827607030409E+00 
 8.8255211909401E+03  8.8256823785846E+03  8.8262011216931E+03  8.8270775013214E+03  8.8283116545124E+03  8.8299037742888E+03  8.8318541097142E+03  8.8341629659749E+03  8.8368307044798E+03  8.8398577429769E+03 
 4.0487880173078E+03  4.0488710662414E+03  4.0491383398794E+03  4.0495898828451E+03  4.0502257705818E+03  4.0510461093518E+03  4.0520510362709E+03  4.0532407193563E+03  4.0546153575830E+03  4.0561751809514E+03 
 4.7767331736323E+03  4.7768113123432E+03  4.7770627818138E+03  4.7774876184763E+03  4.7780858839305E+03  4.7788576649370E+03  4.7798030734433E+03  4.7809222466187E+03  4.7822153468968E+03  4.7836825620255E+03 
ZONE T = "CATH, 4.0000E-08", I = 10, SOLUTIONTIME = 4.000000E-08
ZONETYPE = ORDERED
DATAPACKING = BLOCK
STRANDID = 3
 1.2700000000000E-03  1.3377333333333E-03  1.4054666666667E-03  1.4732000000000E-03  1.5409333333333E-03  1.6086666666667E-03  1.6764000000000E-03  1.7441333333333E-03  1.8118666666667E-03  1.8796000000000E-03 
 8.2390204870760E-09  7.2703977428366E-09  6.3020872334694E-09  5.3333274019933E-09  4.3648095098520E-09  3.3961351777195E-09  2.4272692113058E-09  1.4592660117001E-09  4.8954786978849E-10  4.5400965972675E-12 
 9.2000000000053E-01  9.2000000000150E-01  9.2000000000150E-01  9.2000000000150E-01  9.2000000000150E-01  9.2000000000150E-01  9.2000000000150E-01  9.2000000000150E-01  9.2000000000150E-01  9.2000000000151E-01 
 3.9999999999734E-02  3.9999999999249E-02  3.9999999999248E-02  3.9999999999248E-02  3.9999999999248E-02  3.9999999999248E-02  3.9999999999248E-02  3.9999999999248E-02  3.9999999999248E-02  3.9999999999247E-02 
 3.9999999999734E-02  3.9999999999249E-02  3.9999999999248E-02  3.9999999999248E-02  3.9999999999248E-02  3.9999999999248E-02  3.9999999999248E-02  3.9999999999248E-02  3.9999999999248E-02  3.9999999999247E-02 
 1.8787027750908E-02  1.8786943609872E-02  1.8786869362861E-02  1.8786805010396E-02  1.8786750553357E-02  1.8786705992984E-02  1.8786671330874E-02  1.8786646568987E-02  1.8786631709639E-02  1.8786626755511E-02 
 3.8000730064805E+00  3.8000721053792E+00  3.8000694020459E+00  3.8000648963856E+00  3.8000585882381E+00  3.8000504773777E+00  3.8000405635131E+00  3.8000288462878E+00  3.8000153252793E+00  3.8000000000000E+00 
 3.7812859787296E+00  3.7812851617693E+00  3.7812825326830E+00  3.7812780913752E+00  3.7812718376847E+00  3.7812637713847E+00  3.7812538921822E+00  3.7812421997188E+00  3.7812286935697E+00  3.7812133732445E+00 
 3.9779642109144E+00  3.9779642109141E+00  3.9779642109141E+00  3.9779642109141E+00  3.9779642109141E+00  3.9779642109141E+00  3.9779642109141E+00  3.9779642109141E+00  3.9779642109141E+00  3.9779642109141E+00 
-1.9667823218485E-01 -1.9667904914479E-01 -1.9668167823113E-01 -1.9668611953893E-01 -1.9669237322939E-01 -1.9670043952944E-01 -1.9671031873188E-01 -1.9672201119534E-01 -1.9673551734441E-01 -1.9675083766963E-01 
-6.9717402206816E-01 -1.3943708531420E+00 -1.3944442581139E+00 -1.3945682696816E+00 -1.3947429058264E+00 -1.3949681918739E+00 -1.3952441605022E+00 -1.3955708517515E+00 -1.3959483130369E+00 -6.9818829958137E-01 