TITLE = "Solution on Domain BulkDomain1D_1"
VARIABLES = "x [m]"  
"Vel_axial" 	"MF_sp(ECDMC)" 	"MF_sp(Li+)" 	"MF_sp(PF6-)" 	"Volt(Electroly)" 	"qHeat_accum [J/m3]" 	"qHeat_step [W/m3]" 	"Joule_Lyte [W/m3]" 	"Joule_Solid [W/m3]" 	
ZONE T = "t = 0 [s]" I = 10 SOLUTIONTIME = 0.0000000000000E+00
0.0007874 	0 	0.92 	0.04 	0.04 	-0.07 	
0 	0.0 	 0.0 	 0.0 	 
0.000841022 	0 	0.92 	0.04 	0.04 	-0.07 	
0 	0.0 	 0.0 	 0.0 	 
0.000894644 	0 	0.92 	0.04 	0.04 	-0.07 	
0 	0.0 	 0.0 	 0.0 	 
0.000948267 	0 	0.92 	0.04 	0.04 	-0.07 	
0 	0.0 	 0.0 	 0.0 	 
0.00100189 	0 	0.92 	0.04 	0.04 	-0.07 	
0 	0.0 	 0.0 	 0.0 	 
0.00105551 	0 	0.92 	0.04 	0.04 	-0.07 	
0 	0.0 	 0.0 	 0.0 	 
0.00110913 	0 	0.92 	0.04 	0.04 	-0.07 	
0 	0.0 	 0.0 	 0.0 	 
0.00116276 	0 	0.92 	0.04 	0.04 	-0.07 	
0 	0.0 	 0.0 	 0.0 	 
0.00121638 	0 	0.92 	0.04 	0.04 	-0.07 	
0 	0.0 	 0.0 	 0.0 	 
0.00127 	0 	0.92 	0.04 	0.04 	-0.07 	
0 	0.0 	 0.0 	 0.0 	 
ZONE T = "t = 0 [s]" I = 10 SOLUTIONTIME = 0.0000000000000E+00
0.0007874 	0 	0.92 	0.04 	0.04 	-0.07 	
0 	0.0 	 0.0 	 0.0 	 
0.000841022 	0 	0.92 	0.04 	0.04 	-0.07 	
0 	0.0 	 0.0 	 0.0 	 
0.000894644 	0 	0.92 	0.04 	0.04 	-0.07 	
0 	0.0 	 0.0 	 0.0 	 
0.000948267 	0 	0.92 	0.04 	0.04 	-0.07 	
0 	0.0 	 0.0 	 0.0 	 
0.00100189 	0 	0.92 	0.04 	0.04 	-0.07 	
0 	0.0 	 0.0 	 0.0 	 
0.00105551 	0 	0.92 	0.04 	0.04 	-0.07 	
0 	0.0 	 0.0 	 0.0 	 
0.00110913 	0 	0.92 	0.04 	0.04 	-0.07 	
0 	0.0 	 0.0 	 0.0 	 
0.00116276 	0 	0.92 	0.04 	0.04 	-0.07 	
0 	0.0 	 0.0 	 0.0 	 
0.00121638 	0 	0.92 	0.04 	0.04 	-0.07 	
0 	0.0 	 0.0 	 0.0 	 
0.00127 	0 	0.92 	0.04 	0.04 	-0.07 	
0 	0.0 	 0.0 	 0.0 	 
ZONE T = "t = 1e-08 [s]" I = 10 SOLUTIONTIME = 1.0000000000000E-08
0.0007874 	8.71769e-09 	0.92 	0.04 	0.04 	0.0187872 	
4.69818e-11 	0.00469818 	0.00469818 	0 	
0.000841022 	8.71769e-09 	0.92 	0.04 	0.04 	0.0187872 	
4.69818e-11 	0.00469818 	0.00469818 	0 	
0.000894644 	8.71769e-09 	0.92 	0.04 	0.04 	0.0187872 	
4.69818e-11 	0.00469818 	0.00469818 	0 	
0.000948267 	8.71769e-09 	0.92 	0.04 	0.04 	0.0187871 	
4.69818e-11 	0.00469818 	0.00469818 	0 	
0.00100189 	8.71769e-09 	0.92 	0.04 	0.04 	0.0187871 	
4.69818e-11 	0.00469818 	0.00469818 	0 	
0.00105551 	8.71769e-09 	0.92 	0.04 	0.04 	0.0187871 	
4.69818e-11 	0.00469818 	0.00469818 	0 	
0.00110913 	8.71769e-09 	0.92 	0.04 	0.04 	0.0187871 	
4.69818e-11 	0.00469818 	0.00469818 	0 	
0.00116276 	8.71769e-09 	0.92 	0.04 	0.04 	0.0187871 	
4.69818e-11 	0.00469818 	0.00469818 	0 	
0.00121638 	8.71769e-09 	0.92 	0.04 	0.04 	0.018787 	
4.69818e-11 	0.00469818 	0.00469818 	0 	
0.00127 	8.23357e-09 	0.92 	0.04 	0.04 	0.018787 	
4.69818e-11 	0.00469818 	0.00469818 	0 	
ZONE T = "t = 2e-08 [s]" I = 10 SOLUTIONTIME = 2.0000000000000E-08
0.0007874 	8.72296e-09 	0.92 	0.04 	0.04 	0.0187872 	
9.39637e-11 	0.00469819 	0.00469819 	0 	
0.000841022 	8.72296e-09 	0.92 	0.04 	0.04 	0.0187872 	
9.39637e-11 	0.00469819 	0.00469819 	0 	
0.000894644 	8.72296e-09 	0.92 	0.04 	0.04 	0.0187872 	
9.39637e-11 	0.00469819 	0.00469819 	0 	
0.000948267 	8.72296e-09 	0.92 	0.04 	0.04 	0.0187871 	
9.39637e-11 	0.00469819 	0.00469819 	0 	
0.00100189 	8.72296e-09 	0.92 	0.04 	0.04 	0.0187871 	
9.39637e-11 	0.00469819 	0.00469819 	0 	
0.00105551 	8.72296e-09 	0.92 	0.04 	0.04 	0.0187871 	
9.39637e-11 	0.00469819 	0.00469819 	0 	
0.00110913 	8.72296e-09 	0.92 	0.04 	0.04 	0.0187871 	
9.39637e-11 	0.00469819 	0.00469819 	0 	
0.00116276 	8.72296e-09 	0.92 	0.04 	0.04 	0.0187871 	
9.39637e-11 	0.00469819 	0.00469819 	0 	
0.00121638 	8.72296e-09 	0.92 	0.04 	0.04 	0.018787 	
9.39637e-11 	0.00469819 	0.00469819 	0 	
0.00127 	8.23811e-09 	0.92 	0.04 	0.04 	0.018787 	
9.39637e-11 	0.00469819 	0.00469819 	0 	
ZONE T = "t = 3e-08 [s]" I = 10 SOLUTIONTIME = 3.0000000000000E-08
0.0007874 	8.71715e-09 	0.92 	0.04 	0.04 	0.0187872 	
1.40946e-10 	0.00469819 	0.00469819 	0 	
0.000841022 	8.71715e-09 	0.92 	0.04 	0.04 	0.0187872 	
1.40946e-10 	0.00469819 	0.00469819 	0 	
0.000894644 	8.71715e-09 	0.92 	0.04 	0.04 	0.0187872 	
1.40946e-10 	0.00469819 	0.00469819 	0 	
0.000948267 	8.71715e-09 	0.92 	0.04 	0.04 	0.0187871 	
1.40946e-10 	0.00469819 	0.00469819 	0 	
0.00100189 	8.71715e-09 	0.92 	0.04 	0.04 	0.0187871 	
1.40946e-10 	0.00469819 	0.00469819 	0 	
0.00105551 	8.71715e-09 	0.92 	0.04 	0.04 	0.0187871 	
1.40946e-10 	0.00469819 	0.00469819 	0 	
0.00110913 	8.71715e-09 	0.92 	0.04 	0.04 	0.0187871 	
1.40946e-10 	0.00469819 	0.00469819 	0 	
0.00116276 	8.71715e-09 	0.92 	0.04 	0.04 	0.0187871 	
1.40946e-10 	0.00469819 	0.00469819 	0 	
0.00121638 	8.71715e-09 	0.92 	0.04 	0.04 	0.018787 	
1.40946e-10 	0.00469819 	0.00469819 	0 	
0.00127 	8.23375e-09 	0.92 	0.04 	0.04 	0.018787 	
1.40946e-10 	0.00469819 	0.00469819 	0 	
ZONE T = "t = 4e-08 [s]" I = 10 SOLUTIONTIME = 4.0000000000000E-08
0.0007874 	8.71897e-09 	0.92 	0.04 	0.04 	0.0187872 	
1.87928e-10 	0.00469819 	0.00469819 	0 	
0.000841022 	8.71897e-09 	0.92 	0.04 	0.04 	0.0187872 	
1.87928e-10 	0.00469819 	0.00469819 	0 	
0.000894644 	8.71897e-09 	0.92 	0.04 	0.04 	0.0187872 	
1.87928e-10 	0.00469819 	0.00469819 	0 	
0.000948267 	8.71897e-09 	0.92 	0.04 	0.04 	0.0187871 	
1.87928e-10 	0.00469819 	0.00469819 	0 	
0.00100189 	8.71897e-09 	0.92 	0.04 	0.04 	0.0187871 	
1.87928e-10 	0.00469819 	0.00469819 	0 	
0.00105551 	8.71897e-09 	0.92 	0.04 	0.04 	0.0187871 	
1.87928e-10 	0.00469819 	0.00469819 	0 	
0.00110913 	8.71897e-09 	0.92 	0.04 	0.04 	0.0187871 	
1.87928e-10 	0.00469819 	0.00469819 	0 	
0.00116276 	8.71897e-09 	0.92 	0.04 	0.04 	0.0187871 	
1.87928e-10 	0.00469819 	0.00469819 	0 	
0.00121638 	8.71897e-09 	0.92 	0.04 	0.04 	0.018787 	
1.87928e-10 	0.00469819 	0.00469819 	0 	
0.00127 	8.2343e-09 	0.92 	0.04 	0.04 	0.018787 	
1.87928e-10 	0.00469819 	0.00469819 	0 	
ZONE T = "t = 5.5e-08 [s]" I = 10 SOLUTIONTIME = 5.5000000000000E-08
0.0007874 	8.71503e-09 	0.92 	0.04 	0.04 	0.0187872 	
2.584e-10 	0.00469819 	0.00469819 	0 	
0.000841022 	8.71503e-09 	0.92 	0.04 	0.04 	0.0187872 	
2.584e-10 	0.00469819 	0.00469819 	0 	
0.000894644 	8.71503e-09 	0.92 	0.04 	0.04 	0.0187872 	
2.584e-10 	0.00469819 	0.00469819 	0 	
0.000948267 	8.71503e-09 	0.92 	0.04 	0.04 	0.0187871 	
2.584e-10 	0.00469819 	0.00469819 	0 	
0.00100189 	8.71503e-09 	0.92 	0.04 	0.04 	0.0187871 	
2.584e-10 	0.00469819 	0.00469819 	0 	
0.00105551 	8.71503e-09 	0.92 	0.04 	0.04 	0.0187871 	
2.584e-10 	0.00469819 	0.00469819 	0 	
0.00110913 	8.71503e-09 	0.92 	0.04 	0.04 	0.0187871 	
2.584e-10 	0.00469819 	0.00469819 	0 	
0.00116276 	8.71503e-09 	0.92 	0.04 	0.04 	0.0187871 	
2.584e-10 	0.00469819 	0.00469819 	0 	
0.00121638 	8.71503e-09 	0.92 	0.04 	0.04 	0.018787 	
2.584e-10 	0.00469819 	0.00469819 	0 	
0.00127 	8.23151e-09 	0.92 	0.04 	0.04 	0.018787 	
2.584e-10 	0.00469819 	0.00469819 	0 	
ZONE T = "t = 7.75e-08 [s]" I = 10 SOLUTIONTIME = 7.7500000000000E-08
0.0007874 	8.721e-09 	0.92 	0.04 	0.04 	0.0187872 	
3.6411e-10 	0.00469819 	0.00469819 	0 	
0.000841022 	8.721e-09 	0.92 	0.04 	0.04 	0.0187872 	
3.6411e-10 	0.00469819 	0.00469819 	0 	
0.000894644 	8.721e-09 	0.92 	0.04 	0.04 	0.0187872 	
3.6411e-10 	0.00469819 	0.00469819 	0 	
0.000948267 	8.721e-09 	0.92 	0.04 	0.04 	0.0187871 	
3.6411e-10 	0.00469819 	0.00469819 	0 	
0.00100189 	8.721e-09 	0.92 	0.04 	0.04 	0.0187871 	
3.6411e-10 	0.00469819 	0.00469819 	0 	
0.00105551 	8.721e-09 	0.92 	0.04 	0.04 	0.0187871 	
3.6411e-10 	0.00469819 	0.00469819 	0 	
0.00110913 	8.721e-09 	0.92 	0.04 	0.04 	0.0187871 	
3.6411e-10 	0.00469819 	0.00469819 	0 	
0.00116276 	8.721e-09 	0.92 	0.04 	0.04 	0.0187871 	
3.6411e-10 	0.00469819 	0.00469819 	0 	
0.00121638 	8.721e-09 	0.92 	0.04 	0.04 	0.018787 	
3.6411e-10 	0.00469819 	0.00469819 	0 	
0.00127 	8.23672e-09 	0.92 	0.04 	0.04 	0.018787 	
3.6411e-10 	0.00469819 	0.00469819 	0 	
ZONE T = "t = 1.1125e-07 [s]" I = 10 SOLUTIONTIME = 1.1125000000000E-07
0.0007874 	8.71804e-09 	0.92 	0.04 	0.04 	0.0187872 	
5.22674e-10 	0.00469819 	0.00469819 	0 	
0.000841022 	8.71804e-09 	0.92 	0.04 	0.04 	0.0187872 	
5.22674e-10 	0.00469819 	0.00469819 	0 	
0.000894644 	8.71804e-09 	0.92 	0.04 	0.04 	0.0187872 	
5.22674e-10 	0.00469819 	0.00469819 	0 	
0.000948267 	8.71804e-09 	0.92 	0.04 	0.04 	0.0187871 	
5.22674e-10 	0.00469819 	0.00469819 	0 	
0.00100189 	8.71804e-09 	0.92 	0.04 	0.04 	0.0187871 	
5.22674e-10 	0.00469819 	0.00469819 	0 	
0.00105551 	8.71804e-09 	0.92 	0.04 	0.04 	0.0187871 	
5.22674e-10 	0.00469819 	0.00469819 	0 	
0.00110913 	8.71804e-09 	0.92 	0.04 	0.04 	0.0187871 	
5.22674e-10 	0.00469819 	0.00469819 	0 	
0.00116276 	8.71804e-09 	0.92 	0.04 	0.04 	0.0187871 	
5.22674e-10 	0.00469819 	0.00469819 	0 	
0.00121638 	8.71804e-09 	0.92 	0.04 	0.04 	0.018787 	
5.22674e-10 	0.00469819 	0.00469819 	0 	
0.00127 	8.23392e-09 	0.92 	0.04 	0.04 	0.018787 	
5.22674e-10 	0.00469819 	0.00469819 	0 	
ZONE T = "t = 1.61875e-07 [s]" I = 10 SOLUTIONTIME = 1.6187500000000E-07
0.0007874 	8.71767e-09 	0.92 	0.04 	0.04 	0.0187872 	
7.60519e-10 	0.00469819 	0.00469819 	0 	
0.000841022 	8.71767e-09 	0.92 	0.04 	0.04 	0.0187872 	
7.60519e-10 	0.00469819 	0.00469819 	0 	
0.000894644 	8.71767e-09 	0.92 	0.04 	0.04 	0.0187872 	
7.60519e-10 	0.00469819 	0.00469819 	0 	
0.000948267 	8.71767e-09 	0.92 	0.04 	0.04 	0.0187871 	
7.60519e-10 	0.00469819 	0.00469819 	0 	
0.00100189 	8.71767e-09 	0.92 	0.04 	0.04 	0.0187871 	
7.60519e-10 	0.00469819 	0.00469819 	0 	
0.00105551 	8.71767e-09 	0.92 	0.04 	0.04 	0.0187871 	
7.60519e-10 	0.00469819 	0.00469819 	0 	
0.00110913 	8.71767e-09 	0.92 	0.04 	0.04 	0.0187871 	
7.60519e-10 	0.00469819 	0.00469819 	0 	
0.00116276 	8.71767e-09 	0.92 	0.04 	0.04 	0.0187871 	
7.60519e-10 	0.00469819 	0.00469819 	0 	
0.00121638 	8.71767e-09 	0.92 	0.04 	0.04 	0.018787 	
7.60519e-10 	0.00469819 	0.00469819 	0 	
0.00127 	8.23355e-09 	0.92 	0.04 	0.04 	0.018787 	
7.60519e-10 	0.00469819 	0.00469819 	0 	
ZONE T = "t = 2.37813e-07 [s]" I = 10 SOLUTIONTIME = 2.3781250000000E-07
0.0007874 	8.71883e-09 	0.92 	0.04 	0.04 	0.0187872 	
1.11729e-09 	0.00469819 	0.00469819 	0 	
0.000841022 	8.71883e-09 	0.92 	0.04 	0.04 	0.0187872 	
1.11729e-09 	0.00469819 	0.00469819 	0 	
0.000894644 	8.71883e-09 	0.92 	0.04 	0.04 	0.0187872 	
1.11729e-09 	0.00469819 	0.00469819 	0 	
0.000948267 	8.71883e-09 	0.92 	0.04 	0.04 	0.0187871 	
1.11729e-09 	0.00469819 	0.00469819 	0 	
0.00100189 	8.71883e-09 	0.92 	0.04 	0.04 	0.0187871 	
1.11729e-09 	0.00469819 	0.00469819 	0 	
0.00105551 	8.71883e-09 	0.92 	0.04 	0.04 	0.0187871 	
1.11729e-09 	0.00469819 	0.00469819 	0 	
0.00110913 	8.71883e-09 	0.92 	0.04 	0.04 	0.0187871 	
1.11729e-09 	0.00469819 	0.00469819 	0 	
0.00116276 	8.71883e-09 	0.92 	0.04 	0.04 	0.0187871 	
1.11729e-09 	0.00469819 	0.00469819 	0 	
0.00121638 	8.71883e-09 	0.92 	0.04 	0.04 	0.018787 	
1.11729e-09 	0.00469819 	0.00469819 	0 	
0.00127 	8.23471e-09 	0.92 	0.04 	0.04 	0.018787 	
1.11729e-09 	0.00469819 	0.00469819 	0 	
ZONE T = "t = 3.51719e-07 [s]" I = 10 SOLUTIONTIME = 3.5171875000000E-07
0.0007874 	8.71842e-09 	0.92 	0.04 	0.04 	0.0187872 	
1.65244e-09 	0.00469819 	0.00469819 	0 	
0.000841022 	8.71842e-09 	0.92 	0.04 	0.04 	0.0187872 	
1.65244e-09 	0.00469819 	0.00469819 	0 	
0.000894644 	8.71842e-09 	0.92 	0.04 	0.04 	0.0187872 	
1.65244e-09 	0.00469819 	0.00469819 	0 	
0.000948267 	8.71842e-09 	0.92 	0.04 	0.04 	0.0187871 	
1.65244e-09 	0.00469819 	0.00469819 	0 	
0.00100189 	8.71842e-09 	0.92 	0.04 	0.04 	0.0187871 	
1.65244e-09 	0.00469819 	0.00469819 	0 	
0.00105551 	8.71842e-09 	0.92 	0.04 	0.04 	0.0187871 	
1.65244e-09 	0.00469819 	0.00469819 	0 	
0.00110913 	8.71842e-09 	0.92 	0.04 	0.04 	0.0187871 	
1.65244e-09 	0.00469819 	0.00469819 	0 	
0.00116276 	8.71842e-09 	0.92 	0.04 	0.04 	0.0187871 	
1.65244e-09 	0.00469819 	0.00469819 	0 	
0.00121638 	8.71836e-09 	0.92 	0.04 	0.04 	0.018787 	
1.65244e-09 	0.00469819 	0.00469819 	0 	
0.00127 	8.23419e-09 	0.92 	0.04 	0.04 	0.018787 	
1.65244e-09 	0.00469819 	0.00469819 	0 	
ZONE T = "t = 5.22578e-07 [s]" I = 10 SOLUTIONTIME = 5.2257812500000E-07
0.0007874 	8.71855e-09 	0.92 	0.04 	0.04 	0.0187872 	
2.45517e-09 	0.00469819 	0.00469819 	0 	
0.000841022 	8.71855e-09 	0.92 	0.04 	0.04 	0.0187872 	
2.45517e-09 	0.00469819 	0.00469819 	0 	
0.000894644 	8.71855e-09 	0.92 	0.04 	0.04 	0.0187872 	
2.45517e-09 	0.00469819 	0.00469819 	0 	
0.000948267 	8.71855e-09 	0.92 	0.04 	0.04 	0.0187871 	
2.45517e-09 	0.00469819 	0.00469819 	0 	
0.00100189 	8.71855e-09 	0.92 	0.04 	0.04 	0.0187871 	
2.45517e-09 	0.00469819 	0.00469819 	0 	
0.00105551 	8.71855e-09 	0.92 	0.04 	0.04 	0.0187871 	
2.45517e-09 	0.00469819 	0.00469819 	0 	
0.00110913 	8.71855e-09 	0.92 	0.04 	0.04 	0.0187871 	
2.45517e-09 	0.00469819 	0.00469819 	0 	
0.00116276 	8.71855e-09 	0.92 	0.04 	0.04 	0.0187871 	
2.45517e-09 	0.00469819 	0.00469819 	0 	
0.00121638 	8.71855e-09 	0.92 	0.04 	0.04 	0.018787 	
2.45517e-09 	0.00469819 	0.00469819 	0 	
0.00127 	8.23446e-09 	0.92 	0.04 	0.04 	0.018787 	
2.45517e-09 	0.00469819 	0.00469819 	0 	
ZONE T = "t = 7.78867e-07 [s]" I = 10 SOLUTIONTIME = 7.7886718750000E-07
0.0007874 	8.71839e-09 	0.92 	0.04 	0.04 	0.0187872 	
3.65927e-09 	0.00469819 	0.00469819 	0 	
0.000841022 	8.71839e-09 	0.92 	0.04 	0.04 	0.0187872 	
3.65927e-09 	0.00469819 	0.00469819 	0 	
0.000894644 	8.71839e-09 	0.92 	0.04 	0.04 	0.0187872 	
3.65927e-09 	0.00469819 	0.00469819 	0 	
0.000948267 	8.71839e-09 	0.92 	0.04 	0.04 	0.0187871 	
3.65927e-09 	0.00469819 	0.00469819 	0 	
0.00100189 	8.71839e-09 	0.92 	0.04 	0.04 	0.0187871 	
3.65927e-09 	0.00469819 	0.00469819 	0 	
0.00105551 	8.71839e-09 	0.92 	0.04 	0.04 	0.0187871 	
3.65927e-09 	0.00469819 	0.00469819 	0 	
0.00110913 	8.71839e-09 	0.92 	0.04 	0.04 	0.0187871 	
3.65927e-09 	0.00469819 	0.00469819 	0 	
0.00116276 	8.71839e-09 	0.92 	0.04 	0.04 	0.0187871 	
3.65927e-09 	0.00469819 	0.00469819 	0 	
0.00121638 	8.71842e-09 	0.92 	0.04 	0.04 	0.018787 	
3.65927e-09 	0.00469819 	0.00469819 	0 	
0.00127 	8.23428e-09 	0.92 	0.04 	0.04 	0.018787 	
3.65927e-09 	0.00469819 	0.00469819 	0 	
ZONE T = "t = 1.1633e-06 [s]" I = 10 SOLUTIONTIME = 1.1633007812500E-06
0.0007874 	8.71843e-09 	0.92 	0.04 	0.04 	0.0187872 	
5.46541e-09 	0.00469819 	0.00469819 	0 	
0.000841022 	8.71843e-09 	0.92 	0.04 	0.04 	0.0187872 	
5.46541e-09 	0.00469819 	0.00469819 	0 	
0.000894644 	8.71845e-09 	0.92 	0.04 	0.04 	0.0187872 	
5.46541e-09 	0.00469819 	0.00469819 	0 	
0.000948267 	8.71845e-09 	0.92 	0.04 	0.04 	0.0187871 	
5.46541e-09 	0.00469819 	0.00469819 	0 	
0.00100189 	8.71845e-09 	0.92 	0.04 	0.04 	0.0187871 	
5.46541e-09 	0.00469819 	0.00469819 	0 	
0.00105551 	8.71845e-09 	0.92 	0.04 	0.04 	0.0187871 	
5.46541e-09 	0.00469819 	0.00469819 	0 	
0.00110913 	8.71845e-09 	0.92 	0.04 	0.04 	0.0187871 	
5.46541e-09 	0.00469819 	0.00469819 	0 	
0.00116276 	8.71845e-09 	0.92 	0.04 	0.04 	0.0187871 	
5.46541e-09 	0.00469819 	0.00469819 	0 	
0.00121638 	8.71843e-09 	0.92 	0.04 	0.04 	0.018787 	
5.46541e-09 	0.00469819 	0.00469819 	0 	
0.00127 	8.23433e-09 	0.92 	0.04 	0.04 	0.018787 	
5.46541e-09 	0.00469819 	0.00469819 	0 	
ZONE T = "t = 1.73995e-06 [s]" I = 10 SOLUTIONTIME = 1.7399511718750E-06
0.0007874 	8.71837e-09 	0.92 	0.04 	0.04 	0.0187872 	
8.17462e-09 	0.00469819 	0.00469819 	0 	
0.000841022 	8.71837e-09 	0.92 	0.04 	0.04 	0.0187872 	
8.17462e-09 	0.00469819 	0.00469819 	0 	
0.000894644 	8.71837e-09 	0.92 	0.04 	0.04 	0.0187872 	
8.17462e-09 	0.00469819 	0.00469819 	0 	
0.000948267 	8.71837e-09 	0.92 	0.04 	0.04 	0.0187871 	
8.17462e-09 	0.00469819 	0.00469819 	0 	
0.00100189 	8.71837e-09 	0.92 	0.04 	0.04 	0.0187871 	
8.17462e-09 	0.00469819 	0.00469819 	0 	
0.00105551 	8.71837e-09 	0.92 	0.04 	0.04 	0.0187871 	
8.17462e-09 	0.00469819 	0.00469819 	0 	
0.00110913 	8.71837e-09 	0.92 	0.04 	0.04 	0.0187871 	
8.17462e-09 	0.00469819 	0.00469819 	0 	
0.00116276 	8.71837e-09 	0.92 	0.04 	0.04 	0.0187871 	
8.17462e-09 	0.00469819 	0.00469819 	0 	
0.00121638 	8.71837e-09 	0.92 	0.04 	0.04 	0.018787 	
8.17462e-09 	0.00469819 	0.00469819 	0 	
0.00127 	8.23426e-09 	0.92 	0.04 	0.04 	0.018787 	
8.17462e-09 	0.00469819 	0.00469819 	0 	
ZONE T = "t = 2.60493e-06 [s]" I = 10 SOLUTIONTIME = 2.6049267578125E-06
0.0007874 	8.71841e-09 	0.92 	0.04 	0.04 	0.0187872 	
1.22384e-08 	0.00469819 	0.00469819 	0 	
0.000841022 	8.71843e-09 	0.92 	0.04 	0.04 	0.0187872 	
1.22384e-08 	0.00469819 	0.00469819 	0 	
0.000894644 	8.71843e-09 	0.92 	0.04 	0.04 	0.0187872 	
1.22384e-08 	0.00469819 	0.00469819 	0 	
0.000948267 	8.71843e-09 	0.92 	0.04 	0.04 	0.0187871 	
1.22384e-08 	0.00469819 	0.00469819 	0 	
0.00100189 	8.71843e-09 	0.92 	0.04 	0.04 	0.0187871 	
1.22384e-08 	0.00469819 	0.00469819 	0 	
0.00105551 	8.71843e-09 	0.92 	0.04 	0.04 	0.0187871 	
1.22384e-08 	0.00469819 	0.00469819 	0 	
0.00110913 	8.71843e-09 	0.92 	0.04 	0.04 	0.0187871 	
1.22384e-08 	0.00469819 	0.00469819 	0 	
0.00116276 	8.71842e-09 	0.92 	0.04 	0.04 	0.0187871 	
1.22384e-08 	0.00469819 	0.00469819 	0 	
0.00121638 	8.71843e-09 	0.92 	0.04 	0.04 	0.018787 	
1.22384e-08 	0.00469819 	0.00469819 	0 	
0.00127 	8.23431e-09 	0.92 	0.04 	0.04 	0.018787 	
1.22384e-08 	0.00469819 	0.00469819 	0 	
ZONE T = "t = 3.90239e-06 [s]" I = 10 SOLUTIONTIME = 3.9023901367188E-06
0.0007874 	8.71842e-09 	0.92 	0.04 	0.04 	0.0187872 	
1.83342e-08 	0.00469819 	0.00469819 	0 	
0.000841022 	8.71841e-09 	0.92 	0.04 	0.04 	0.0187872 	
1.83342e-08 	0.00469819 	0.00469819 	0 	
0.000894644 	8.71841e-09 	0.92 	0.04 	0.04 	0.0187872 	
1.83342e-08 	0.00469819 	0.00469819 	0 	
0.000948267 	8.71841e-09 	0.92 	0.04 	0.04 	0.0187871 	
1.83342e-08 	0.00469819 	0.00469819 	0 	
0.00100189 	8.71841e-09 	0.92 	0.04 	0.04 	0.0187871 	
1.83342e-08 	0.00469819 	0.00469819 	0 	
0.00105551 	8.71841e-09 	0.92 	0.04 	0.04 	0.0187871 	
1.83342e-08 	0.00469819 	0.00469819 	0 	
0.00110913 	8.71841e-09 	0.92 	0.04 	0.04 	0.0187871 	
1.83342e-08 	0.00469819 	0.00469819 	0 	
0.00116276 	8.71841e-09 	0.92 	0.04 	0.04 	0.0187871 	
1.83342e-08 	0.00469819 	0.00469819 	0 	
0.00121638 	8.7184e-09 	0.92 	0.04 	0.04 	0.018787 	
1.83342e-08 	0.00469819 	0.00469819 	0 	
0.00127 	8.23427e-09 	0.92 	0.04 	0.04 	0.018787 	
1.83342e-08 	0.00469819 	0.00469819 	0 	
ZONE T = "t = 5.84859e-06 [s]" I = 10 SOLUTIONTIME = 5.8485852050781E-06
0.0007874 	8.71843e-09 	0.92 	0.04 	0.04 	0.0187872 	
2.74778e-08 	0.00469819 	0.00469819 	0 	
0.000841022 	8.71843e-09 	0.92 	0.04 	0.04 	0.0187872 	
2.74778e-08 	0.00469819 	0.00469819 	0 	
0.000894644 	8.71843e-09 	0.92 	0.04 	0.04 	0.0187872 	
2.74778e-08 	0.00469819 	0.00469819 	0 	
0.000948267 	8.71843e-09 	0.92 	0.04 	0.04 	0.0187871 	
2.74778e-08 	0.00469819 	0.00469819 	0 	
0.00100189 	8.71843e-09 	0.92 	0.04 	0.04 	0.0187871 	
2.74778e-08 	0.00469819 	0.00469819 	0 	
0.00105551 	8.71843e-09 	0.92 	0.04 	0.04 	0.0187871 	
2.74778e-08 	0.00469819 	0.00469819 	0 	
0.00110913 	8.71843e-09 	0.92 	0.04 	0.04 	0.0187871 	
2.74778e-08 	0.00469819 	0.00469819 	0 	
0.00116276 	8.71843e-09 	0.92 	0.04 	0.04 	0.0187871 	
2.74778e-08 	0.00469819 	0.00469819 	0 	
0.00121638 	8.71844e-09 	0.92 	0.04 	0.04 	0.018787 	
2.74778e-08 	0.00469819 	0.00469819 	0 	
0.00127 	8.23432e-09 	0.92 	0.04 	0.04 	0.018787 	
2.74778e-08 	0.00469819 	0.00469819 	0 	
ZONE T = "t = 8.76788e-06 [s]" I = 10 SOLUTIONTIME = 8.7678778076172E-06
0.0007874 	8.71842e-09 	0.92 	0.04 	0.04 	0.0187872 	
4.11932e-08 	0.00469819 	0.00469819 	0 	
0.000841022 	8.71842e-09 	0.92 	0.04 	0.04 	0.0187872 	
4.11932e-08 	0.00469819 	0.00469819 	0 	
0.000894644 	8.71842e-09 	0.92 	0.04 	0.04 	0.0187872 	
4.11932e-08 	0.00469819 	0.00469819 	0 	
0.000948267 	8.71842e-09 	0.92 	0.04 	0.04 	0.0187871 	
4.11932e-08 	0.00469819 	0.00469819 	0 	
0.00100189 	8.71842e-09 	0.92 	0.04 	0.04 	0.0187871 	
4.11932e-08 	0.00469819 	0.00469819 	0 	
0.00105551 	8.71842e-09 	0.92 	0.04 	0.04 	0.0187871 	
4.11932e-08 	0.00469819 	0.00469819 	0 	
0.00110913 	8.71842e-09 	0.92 	0.04 	0.04 	0.0187871 	
4.11932e-08 	0.00469819 	0.00469819 	0 	
0.00116276 	8.71842e-09 	0.92 	0.04 	0.04 	0.0187871 	
4.11932e-08 	0.00469819 	0.00469819 	0 	
0.00121638 	8.71841e-09 	0.92 	0.04 	0.04 	0.018787 	
4.11932e-08 	0.00469819 	0.00469819 	0 	
0.00127 	8.23429e-09 	0.92 	0.04 	0.04 	0.018787 	
4.11932e-08 	0.00469819 	0.00469819 	0 	
ZONE T = "t = 1e-05 [s]" I = 10 SOLUTIONTIME = 1.0000000000000E-05
0.0007874 	8.71843e-09 	0.92 	0.04 	0.04 	0.0187872 	
4.69819e-08 	0.00469819 	0.00469819 	0 	
0.000841022 	8.71843e-09 	0.92 	0.04 	0.04 	0.0187872 	
4.69819e-08 	0.00469819 	0.00469819 	0 	
0.000894644 	8.71843e-09 	0.92 	0.04 	0.04 	0.0187872 	
4.69819e-08 	0.00469819 	0.00469819 	0 	
0.000948267 	8.71843e-09 	0.92 	0.04 	0.04 	0.0187871 	
4.69819e-08 	0.00469819 	0.00469819 	0 	
0.00100189 	8.71843e-09 	0.92 	0.04 	0.04 	0.0187871 	
4.69819e-08 	0.00469819 	0.00469819 	0 	
0.00105551 	8.71843e-09 	0.92 	0.04 	0.04 	0.0187871 	
4.69819e-08 	0.00469819 	0.00469819 	0 	
0.00110913 	8.71843e-09 	0.92 	0.04 	0.04 	0.0187871 	
4.69819e-08 	0.00469819 	0.00469819 	0 	
0.00116276 	8.71843e-09 	0.92 	0.04 	0.04 	0.0187871 	
4.69819e-08 	0.00469819 	0.00469819 	0 	
0.00121638 	8.71843e-09 	0.92 	0.04 	0.04 	0.018787 	
4.69819e-08 	0.00469819 	0.00469819 	0 	
0.00127 	8.23431e-09 	0.92 	0.04 	0.04 	0.018787 	
4.69819e-08 	0.00469819 	0.00469819 	0 	
ZONE T = "t = 1e-05 [s]" I = 10 SOLUTIONTIME = 1.0000000000000E-05
0.0007874 	8.71843e-09 	0.92 	0.04 	0.04 	0.0187872 	
4.69819e-08 	0.00469819 	0.00469819 	0 	
0.000841022 	8.71843e-09 	0.92 	0.04 	0.04 	0.0187872 	
4.69819e-08 	0.00469819 	0.00469819 	0 	
0.000894644 	8.71843e-09 	0.92 	0.04 	0.04 	0.0187872 	
4.69819e-08 	0.00469819 	0.00469819 	0 	
0.000948267 	8.71843e-09 	0.92 	0.04 	0.04 	0.0187871 	
4.69819e-08 	0.00469819 	0.00469819 	0 	
0.00100189 	8.71843e-09 	0.92 	0.04 	0.04 	0.0187871 	
4.69819e-08 	0.00469819 	0.00469819 	0 	
0.00105551 	8.71843e-09 	0.92 	0.04 	0.04 	0.0187871 	
4.69819e-08 	0.00469819 	0.00469819 	0 	
0.00110913 	8.71843e-09 	0.92 	0.04 	0.04 	0.0187871 	
4.69819e-08 	0.00469819 	0.00469819 	0 	
0.00116276 	8.71843e-09 	0.92 	0.04 	0.04 	0.0187871 	
4.69819e-08 	0.00469819 	0.00469819 	0 	
0.00121638 	8.71843e-09 	0.92 	0.04 	0.04 	0.018787 	
4.69819e-08 	0.00469819 	0.00469819 	0 	
0.00127 	8.23431e-09 	0.92 	0.04 	0.04 	0.018787 	
4.69819e-08 	0.00469819 	0.00469819 	0 	
