TITLE = "Solution on Domain BulkDomain1D_0"
VARIABLES = "x [m]"  
"Vel_axial" 
"MF_sp(ECDMC)" 
"MF_sp(Li+)" 
"MF_sp(PF6-)" 
"Volt(Electroly)" 
"Volt(AnodeVolt)" 
"Potential Drop Electrode-Electrolyte [V]" 
"Surf_0 Equilibrium Potential Drop Electrode-Electrolyte [V]" 
"Overpotential_0 [V]" 
"Current Source [A/m^2]" 
"Li+ flux [kmol/m^2/s]" 
"Electrolyte Current [A/m^2]" 
"Electrode Current [A/m^2]" 
"CV Capacity discharged [A-s/m^2]" 
"Depth of discharge in CV [A-s/m^2]" 
"CV Capacity remaining [A-s/m^2]" 
"Initial CV capacity [A-s/m^2]" 
"Porosity []" 
"Surface Area [m2/m2] (area per area)" 
"Specific current (per particle area) [A/m^2]" 
"Control volume thickness [m]" 
"MoleDens Li_C6-bulk [kmol/m^3]" 
"MoleDens V_C6-bulk [kmol/m^3]" 
"qHeat_accum [J/m3]" 
"qHeat_step [W/m3]" 
"Joule_Lyte [W/m3]" 
"Joule_Solid [W/m3]" 
"electrodHeat [W/m3]" 
"OverpotHeat [W/m3]" 
"deltaSHeat [W/m3]" 

ZONE T = "ANOD, 0.0000E+00", I = 10, SOLUTIONTIME = 0.000000E+00
ZONETYPE = ORDERED
DATAPACKING = BLOCK
STRANDID = 1
 0.0000000000000E+00  8.7488888888889E-05  1.7497777777778E-04  2.6246666666667E-04  3.4995555555556E-04  4.3744444444444E-04  5.2493333333333E-04  6.1242222222222E-04  6.9991111111111E-04  7.8740000000000E-04 
 0.0000000000000E+00  0.0000000000000E+00  0.0000000000000E+00  0.0000000000000E+00  0.0000000000000E+00  0.0000000000000E+00  0.0000000000000E+00  0.0000000000000E+00  0.0000000000000E+00  0.0000000000000E+00 
 9.2000000000000E-01  9.2000000000000E-01  9.2000000000000E-01  9.2000000000000E-01  9.2000000000000E-01  9.2000000000000E-01  9.2000000000000E-01  9.2000000000000E-01  9.2000000000000E-01  9.2000000000000E-01 
 4.0000000000000E-02  4.0000000000000E-02  4.0000000000000E-02  4.0000000000000E-02  4.0000000000000E-02  4.0000000000000E-02  4.0000000000000E-02  4.0000000000000E-02  4.0000000000000E-02  4.0000000000000E-02 
 4.0000000000000E-02  4.0000000000000E-02  4.0000000000000E-02  4.0000000000000E-02  4.0000000000000E-02  4.0000000000000E-02  4.0000000000000E-02  4.0000000000000E-02  4.0000000000000E-02  4.0000000000000E-02 
-7.0000000000000E-02 -7.0000000000000E-02 -7.0000000000000E-02 -7.0000000000000E-02 -7.0000000000000E-02 -7.0000000000000E-02 -7.0000000000000E-02 -7.0000000000000E-02 -7.0000000000000E-02 -7.0000000000000E-02 
 0.0000000000000E+00  0.0000000000000E+00  0.0000000000000E+00  0.0000000000000E+00  0.0000000000000E+00  0.0000000000000E+00  0.0000000000000E+00  0.0000000000000E+00  0.0000000000000E+00  0.0000000000000E+00 
 7.0000000000000E-02  7.0000000000000E-02  7.0000000000000E-02  7.0000000000000E-02  7.0000000000000E-02  7.0000000000000E-02  7.0000000000000E-02  7.0000000000000E-02  7.0000000000000E-02  7.0000000000000E-02 
-3.5244196601921E-02 -3.5244196601921E-02 -3.5244196601921E-02 -3.5244196601921E-02 -3.5244196601921E-02 -3.5244196601921E-02 -3.5244196601921E-02 -3.5244196601921E-02 -3.5244196601921E-02 -3.5244196601921E-02 
 1.0524419660192E-01  1.0524419660192E-01  1.0524419660192E-01  1.0524419660192E-01  1.0524419660192E-01  1.0524419660192E-01  1.0524419660192E-01  1.0524419660192E-01  1.0524419660192E-01  1.0524419660192E-01 
 8.4172715094840E+00  1.6834543018968E+01  1.6834543018968E+01  1.6834543018968E+01  1.6834543018968E+01  1.6834543018968E+01  1.6834543018968E+01  1.6834543018968E+01  1.6834543018968E+01  8.4172715094840E+00 
-0.0000000000000E+00 -0.0000000000000E+00 -0.0000000000000E+00 -0.0000000000000E+00 -0.0000000000000E+00 -0.0000000000000E+00 -0.0000000000000E+00 -0.0000000000000E+00 -0.0000000000000E+00 -0.0000000000000E+00 
 0.0000000000000E+00  0.0000000000000E+00  0.0000000000000E+00  0.0000000000000E+00  0.0000000000000E+00  0.0000000000000E+00  0.0000000000000E+00  0.0000000000000E+00  0.0000000000000E+00  8.4172715094840E+00 
 8.4172715094840E+00 -0.0000000000000E+00 -0.0000000000000E+00 -0.0000000000000E+00 -0.0000000000000E+00 -0.0000000000000E+00 -0.0000000000000E+00 -0.0000000000000E+00 -0.0000000000000E+00  0.0000000000000E+00 
 0.0000000000000E+00  0.0000000000000E+00  0.0000000000000E+00  0.0000000000000E+00  0.0000000000000E+00  0.0000000000000E+00  0.0000000000000E+00  0.0000000000000E+00  0.0000000000000E+00  0.0000000000000E+00 
 9.1448444543281E+04  1.8289688908656E+05  1.8289688908656E+05  1.8289688908656E+05  1.8289688908656E+05  1.8289688908656E+05  1.8289688908656E+05  1.8289688908656E+05  1.8289688908656E+05  9.1448444543281E+04 
 3.6579377817312E+05  7.3158755634625E+05  7.3158755634625E+05  7.3158755634625E+05  7.3158755634625E+05  7.3158755634625E+05  7.3158755634625E+05  7.3158755634625E+05  7.3158755634625E+05  3.6579377817312E+05 
 4.5724222271640E+05  9.1448444543281E+05  9.1448444543281E+05  9.1448444543281E+05  9.1448444543281E+05  9.1448444543281E+05  9.1448444543281E+05  9.1448444543281E+05  9.1448444543281E+05  4.5724222271640E+05 
 3.5000000000000E-01  3.5000000000000E-01  3.5000000000000E-01  3.5000000000000E-01  3.5000000000000E-01  3.5000000000000E-01  3.5000000000000E-01  3.5000000000000E-01  3.5000000000000E-01  3.5000000000000E-01 
 8.5301666666666E+00  1.7060333333333E+01  1.7060333333333E+01  1.7060333333333E+01  1.7060333333333E+01  1.7060333333333E+01  1.7060333333333E+01  1.7060333333333E+01  1.7060333333333E+01  8.5301666666666E+00 
 9.8676518741143E-01  9.8676518741143E-01  9.8676518741143E-01  9.8676518741143E-01  9.8676518741143E-01  9.8676518741143E-01  9.8676518741143E-01  9.8676518741143E-01  9.8676518741143E-01  9.8676518741143E-01 
 4.3744444444444E-05  8.7488888888889E-05  8.7488888888889E-05  8.7488888888889E-05  8.7488888888889E-05  8.7488888888889E-05  8.7488888888889E-05  8.7488888888889E-05  8.7488888888889E-05  4.3744444444444E-05 
 8.6666666666666E+01  8.6666666666666E+01  8.6666666666666E+01  8.6666666666666E+01  8.6666666666666E+01  8.6666666666666E+01  8.6666666666666E+01  8.6666666666666E+01  8.6666666666666E+01  8.6666666666666E+01 
 2.1666666666667E+01  2.1666666666667E+01  2.1666666666667E+01  2.1666666666667E+01  2.1666666666667E+01  2.1666666666667E+01  2.1666666666667E+01  2.1666666666667E+01  2.1666666666667E+01  2.1666666666667E+01 
 0.0000000000000E+00  0.0000000000000E+00  0.0000000000000E+00  0.0000000000000E+00  0.0000000000000E+00  0.0000000000000E+00  0.0000000000000E+00  0.0000000000000E+00  0.0000000000000E+00  0.0000000000000E+00 
 0.0000000000000E+00  0.0000000000000E+00  0.0000000000000E+00  0.0000000000000E+00  0.0000000000000E+00  0.0000000000000E+00  0.0000000000000E+00  0.0000000000000E+00  0.0000000000000E+00  0.0000000000000E+00 
 0.0000000000000E+00  0.0000000000000E+00  0.0000000000000E+00  0.0000000000000E+00  0.0000000000000E+00  0.0000000000000E+00  0.0000000000000E+00  0.0000000000000E+00  0.0000000000000E+00  0.0000000000000E+00 
 0.0000000000000E+00  0.0000000000000E+00  0.0000000000000E+00  0.0000000000000E+00  0.0000000000000E+00  0.0000000000000E+00  0.0000000000000E+00  0.0000000000000E+00  0.0000000000000E+00  0.0000000000000E+00 
 0.0000000000000E+00  0.0000000000000E+00  0.0000000000000E+00  0.0000000000000E+00  0.0000000000000E+00  0.0000000000000E+00  0.0000000000000E+00  0.0000000000000E+00  0.0000000000000E+00  0.0000000000000E+00 
 0.0000000000000E+00  0.0000000000000E+00  0.0000000000000E+00  0.0000000000000E+00  0.0000000000000E+00  0.0000000000000E+00  0.0000000000000E+00  0.0000000000000E+00  0.0000000000000E+00  0.0000000000000E+00 
 0.0000000000000E+00  0.0000000000000E+00  0.0000000000000E+00  0.0000000000000E+00  0.0000000000000E+00  0.0000000000000E+00  0.0000000000000E+00  0.0000000000000E+00  0.0000000000000E+00  0.0000000000000E+00 
ZONE T = "ANOD, 1.0000E-08", I = 10, SOLUTIONTIME = 1.000000E-08
ZONETYPE = ORDERED
DATAPACKING = BLOCK
STRANDID = 1
 0.0000000000000E+00  8.7488888888889E-05  1.7497777777778E-04  2.6246666666667E-04  3.4995555555556E-04  4.3744444444444E-04  5.2493333333333E-04  6.1242222222222E-04  6.9991111111111E-04  7.8740000000000E-04 
 4.8416999426836E-10  1.4521470441784E-09  2.4204883647427E-09  3.3888315420602E-09  4.3568141622316E-09  5.3251634345439E-09  6.2935169451044E-09  7.2615122800250E-09  8.2295134408785E-09  8.7144253505168E-09 
 9.1999999999971E-01  9.1999999999971E-01  9.1999999999971E-01  9.1999999999971E-01  9.1999999999971E-01  9.1999999999971E-01  9.1999999999971E-01  9.1999999999971E-01  9.1999999999971E-01  9.1999999999988E-01 
 4.0000000000146E-02  4.0000000000146E-02  4.0000000000146E-02  4.0000000000146E-02  4.0000000000146E-02  4.0000000000146E-02  4.0000000000146E-02  4.0000000000146E-02  4.0000000000146E-02  4.0000000000060E-02 
 4.0000000000146E-02  4.0000000000146E-02  4.0000000000146E-02  4.0000000000146E-02  4.0000000000146E-02  4.0000000000146E-02  4.0000000000146E-02  4.0000000000146E-02  4.0000000000146E-02  4.0000000000060E-02 
 1.8787726161063E-02  1.8787719768243E-02  1.8787700589782E-02  1.8787668625665E-02  1.8787623875867E-02  1.8787566340353E-02  1.8787496019079E-02  1.8787412911987E-02  1.8787317019013E-02  1.8787208340078E-02 
 0.0000000000000E+00 -1.9796293450104E-09 -3.7263636538068E-09 -5.2402026708412E-09 -6.5211459497143E-09 -7.5691928531749E-09 -8.3843425531197E-09 -8.9665940305917E-09 -9.3159460757799E-09 -9.4323972880173E-09 
-1.8787726161063E-02 -1.8787721747873E-02 -1.8787704316146E-02 -1.8787673865867E-02 -1.8787630397013E-02 -1.8787573909546E-02 -1.8787504403421E-02 -1.8787421878581E-02 -1.8787326334959E-02 -1.8787217772475E-02 
-3.5244196601720E-02 -3.5244196601718E-02 -3.5244196601720E-02 -3.5244196601720E-02 -3.5244196601720E-02 -3.5244196601715E-02 -3.5244196601715E-02 -3.5244196601720E-02 -3.5244196601720E-02 -3.5244196601773E-02 
 1.6456470440657E-02  1.6456474853845E-02  1.6456492285574E-02  1.6456522735852E-02  1.6456566204707E-02  1.6456622692169E-02  1.6456692198294E-02  1.6456774723138E-02  1.6456870266761E-02  1.6456978829298E-02 
 6.9750487926150E-01  1.3950101460500E+00  1.3950116767488E+00  1.3950143506212E+00  1.3950181676701E+00  1.3950231278992E+00  1.3950292313142E+00  1.3950364779217E+00  1.3950448677290E+00  6.9752720037266E-01 
 3.6145641638449E-09  1.0843694505371E-08  1.8072832775048E-08  2.5301984902185E-08  3.2531156808741E-08  3.9760354420599E-08  4.6989583663144E-08  5.4218850456869E-08  6.1448190861559E-08  6.1448190861559E-08 
 0.0000000000000E+00  1.3950099523188E+00  2.7900208636760E+00  4.1850338774603E+00  5.5800501364927E+00  6.9750707843512E+00  8.3700969638567E+00  9.7651298183980E+00  1.1160170491358E+01  1.2555220125524E+01 
 1.2555220125588E+01  1.1160210173302E+01  9.7651992619025E+00  8.3701862482175E+00  6.9751699890718E+00  5.5801493412872E+00  4.1851231616805E+00  2.7900903070625E+00  1.3950496342372E+00  0.0000000000000E+00 
 6.9750487926150E-09  1.3950101460500E-08  1.3950116767488E-08  1.3950143506212E-08  1.3950181676701E-08  1.3950231278992E-08  1.3950292313142E-08  1.3950364779217E-08  1.3950448677290E-08  6.9752720037266E-09 
 9.1448444543288E+04  1.8289688908658E+05  1.8289688908658E+05  1.8289688908658E+05  1.8289688908658E+05  1.8289688908658E+05  1.8289688908658E+05  1.8289688908658E+05  1.8289688908658E+05  9.1448444543288E+04 
 3.6579377817312E+05  7.3158755634623E+05  7.3158755634623E+05  7.3158755634623E+05  7.3158755634623E+05  7.3158755634623E+05  7.3158755634623E+05  7.3158755634623E+05  7.3158755634623E+05  3.6579377817312E+05 
 4.5724222271640E+05  9.1448444543281E+05  9.1448444543281E+05  9.1448444543281E+05  9.1448444543281E+05  9.1448444543281E+05  9.1448444543281E+05  9.1448444543281E+05  9.1448444543281E+05  4.5724222271640E+05 
 3.5000000000000E-01  3.5000000000000E-01  3.5000000000000E-01  3.5000000000000E-01  3.5000000000000E-01  3.5000000000000E-01  3.5000000000000E-01  3.5000000000000E-01  3.5000000000000E-01  3.5000000000000E-01 
 8.5301666666666E+00  1.7060333333333E+01  1.7060333333333E+01  1.7060333333333E+01  1.7060333333333E+01  1.7060333333333E+01  1.7060333333333E+01  1.7060333333333E+01  1.7060333333333E+01  8.5301666666666E+00 
 8.1769197076434E-02  8.1769219791524E-02  8.1769309514205E-02  8.1769466244578E-02  8.1769689982810E-02  8.1769980729130E-02  8.1770338483865E-02  8.1770763247397E-02  8.1771255020165E-02  8.1771813802699E-02 
 4.3744444444444E-05  8.7488888888889E-05  8.7488888888889E-05  8.7488888888889E-05  8.7488888888889E-05  8.7488888888889E-05  8.7488888888889E-05  8.7488888888889E-05  8.7488888888889E-05  4.3744444444444E-05 
 8.6666666666665E+01  8.6666666666665E+01  8.6666666666665E+01  8.6666666666665E+01  8.6666666666665E+01  8.6666666666665E+01  8.6666666666665E+01  8.6666666666665E+01  8.6666666666665E+01  8.6666666666665E+01 
 2.1666666666668E+01  2.1666666666668E+01  2.1666666666668E+01  2.1666666666668E+01  2.1666666666668E+01  2.1666666666668E+01  2.1666666666668E+01  2.1666666666668E+01  2.1666666666668E+01  2.1666666666668E+01 
-2.9339768455876E-05 -2.9339774161054E-05 -2.9339798016157E-05 -2.9339839686967E-05 -2.9339899173483E-05 -2.9339976475704E-05 -2.9340071593635E-05 -2.9340184527277E-05 -2.9340315276626E-05 -2.9340482190489E-05 
-2.9339768455876E+03 -2.9339774161054E+03 -2.9339798016157E+03 -2.9339839686967E+03 -2.9339899173483E+03 -2.9339976475704E+03 -2.9340071593635E+03 -2.9340184527277E+03 -2.9340315276626E+03 -2.9340482190489E+03 
 5.0966730425062E-05  2.5483373693135E-04  8.6643534414577E-04  1.8857733954259E-03  3.3128510704245E-03  5.1476728860085E-03  7.3902446944981E-03  1.0040573685919E-02  1.3098668386598E-02  1.4729658313189E-02 
 2.6830699720301E-04  2.3859856696146E-04  1.8289519084623E-04  1.3461877895345E-04  9.3769334429067E-05  6.0346884764163E-05  3.4351481795223E-05  1.5783201704439E-05  4.6421450201434E-06  9.2843661730709E-07 
-2.9339771648613E+03 -2.9339779095377E+03 -2.9339808509463E+03 -2.9339859890888E+03 -2.9339933239687E+03 -2.9340028555901E+03 -2.9340145839597E+03 -2.9340285090846E+03 -2.9340446309732E+03 -2.9340629496357E+03 
 2.6239831305719E+02  2.6239845631848E+02  2.6239902218885E+02  2.6240001067021E+02  2.6240142176588E+02  2.6240325548055E+02  2.6240551182049E+02  2.6240819079328E+02  2.6241129240782E+02  2.6241481667458E+02 
-3.1963754779185E+03 -3.1963763658562E+03 -3.1963798731351E+03 -3.1963859997590E+03 -3.1963947457346E+03 -3.1964061110707E+03 -3.1964200957801E+03 -3.1964366998778E+03 -3.1964559233810E+03 -3.1964777663103E+03 
ZONE T = "ANOD, 2.0000E-08", I = 10, SOLUTIONTIME = 2.000000E-08
ZONETYPE = ORDERED
DATAPACKING = BLOCK
STRANDID = 1
 0.0000000000000E+00  8.7488888888889E-05  1.7497777777778E-04  2.6246666666667E-04  3.4995555555556E-04  4.3744444444444E-04  5.2493333333333E-04  6.1242222222222E-04  6.9991111111111E-04  7.8740000000000E-04 
 4.8453320199300E-10  1.4539630828079E-09  2.4230308188215E-09  3.3921004115882E-09  4.3615358626644E-09  5.3306115504259E-09  6.2996914764357E-09  7.2691396422612E-09  8.2385936340195E-09  8.7229607320639E-09 
 9.1999999999942E-01  9.1999999999942E-01  9.1999999999942E-01  9.1999999999942E-01  9.1999999999942E-01  9.1999999999942E-01  9.1999999999942E-01  9.1999999999942E-01  9.1999999999942E-01  9.1999999999976E-01 
 4.0000000000291E-02  4.0000000000291E-02  4.0000000000291E-02  4.0000000000291E-02  4.0000000000291E-02  4.0000000000291E-02  4.0000000000291E-02  4.0000000000291E-02  4.0000000000291E-02  4.0000000000120E-02 
 4.0000000000291E-02  4.0000000000291E-02  4.0000000000291E-02  4.0000000000291E-02  4.0000000000291E-02  4.0000000000291E-02  4.0000000000291E-02  4.0000000000291E-02  4.0000000000291E-02  4.0000000000120E-02 
 1.8787726161008E-02  1.8787719768189E-02  1.8787700589727E-02  1.8787668625610E-02  1.8787623875812E-02  1.8787566340299E-02  1.8787496019024E-02  1.8787412911933E-02  1.8787317018958E-02  1.8787208340023E-02 
 0.0000000000000E+00 -1.9796293449977E-09 -3.7263636537830E-09 -5.2402026708078E-09 -6.5211459496728E-09 -7.5691928531269E-09 -8.3843425530666E-09 -8.9665940305351E-09 -9.3159460757212E-09 -9.4323972879581E-09 
-1.8787726161008E-02 -1.8787721747818E-02 -1.8787704316091E-02 -1.8787673865813E-02 -1.8787630396958E-02 -1.8787573909491E-02 -1.8787504403367E-02 -1.8787421878527E-02 -1.8787326334904E-02 -1.8787217772420E-02 
-3.5244196601512E-02 -3.5244196601512E-02 -3.5244196601512E-02 -3.5244196601512E-02 -3.5244196601511E-02 -3.5244196601512E-02 -3.5244196601512E-02 -3.5244196601511E-02 -3.5244196601511E-02 -3.5244196601618E-02 
 1.6456470440504E-02  1.6456474853694E-02  1.6456492285421E-02  1.6456522735699E-02  1.6456566204554E-02  1.6456622692020E-02  1.6456692198145E-02  1.6456774722985E-02  1.6456870266608E-02  1.6456978829198E-02 
 6.9750487925697E-01  1.3950101460409E+00  1.3950116767398E+00  1.3950143506122E+00  1.3950181676609E+00  1.3950231278902E+00  1.3950292313052E+00  1.3950364779125E+00  1.3950448677199E+00  6.9752720036969E-01 
 3.6145641661130E-09  1.0843694503156E-08  1.8072832775114E-08  2.5301984898061E-08  3.2531156811115E-08  3.9760354420743E-08  4.6989583661060E-08  5.4218850457066E-08  6.1448220996868E-08  6.1448220996868E-08 
 0.0000000000000E+00  1.3950099523239E+00  2.7900208636861E+00  4.1850338772862E+00  5.5800501363237E+00  6.9750707843765E+00  8.3700969638871E+00  9.7651298184335E+00  1.1160170491392E+01  1.2555220125551E+01 
 1.2555220125508E+01  1.1160210173231E+01  9.7651992618404E+00  8.3701862481644E+00  6.9751699890279E+00  5.5801493412523E+00  4.1851231616547E+00  2.7900903070458E+00  1.3950496342296E+00  0.0000000000000E+00 
 1.3950097585185E-08  2.7900202920909E-08  2.7900233534886E-08  2.7900287012334E-08  2.7900363353310E-08  2.7900462557894E-08  2.7900584626194E-08  2.7900729558342E-08  2.7900897354489E-08  1.3950544007423E-08 
 9.1448444543295E+04  1.8289688908659E+05  1.8289688908659E+05  1.8289688908659E+05  1.8289688908659E+05  1.8289688908659E+05  1.8289688908659E+05  1.8289688908659E+05  1.8289688908659E+05  9.1448444543295E+04 
 3.6579377817311E+05  7.3158755634622E+05  7.3158755634622E+05  7.3158755634622E+05  7.3158755634622E+05  7.3158755634622E+05  7.3158755634622E+05  7.3158755634622E+05  7.3158755634622E+05  3.6579377817311E+05 
 4.5724222271640E+05  9.1448444543281E+05  9.1448444543281E+05  9.1448444543281E+05  9.1448444543281E+05  9.1448444543281E+05  9.1448444543281E+05  9.1448444543281E+05  9.1448444543281E+05  4.5724222271640E+05 
 3.5000000000000E-01  3.5000000000000E-01  3.5000000000000E-01  3.5000000000000E-01  3.5000000000000E-01  3.5000000000000E-01  3.5000000000000E-01  3.5000000000000E-01  3.5000000000000E-01  3.5000000000000E-01 
 8.5301666666666E+00  1.7060333333333E+01  1.7060333333333E+01  1.7060333333333E+01  1.7060333333333E+01  1.7060333333333E+01  1.7060333333333E+01  1.7060333333333E+01  1.7060333333333E+01  8.5301666666666E+00 
 8.1769197075904E-02  8.1769219790992E-02  8.1769309513674E-02  8.1769466244048E-02  8.1769689982273E-02  8.1769980728601E-02  8.1770338483336E-02  8.1770763246861E-02  8.1771255019628E-02  8.1771813802351E-02 
 4.3744444444444E-05  8.7488888888889E-05  8.7488888888889E-05  8.7488888888889E-05  8.7488888888889E-05  8.7488888888889E-05  8.7488888888889E-05  8.7488888888889E-05  8.7488888888889E-05  4.3744444444444E-05 
 8.6666666666663E+01  8.6666666666663E+01  8.6666666666663E+01  8.6666666666663E+01  8.6666666666663E+01  8.6666666666663E+01  8.6666666666663E+01  8.6666666666663E+01  8.6666666666663E+01  8.6666666666663E+01 
 2.1666666666670E+01  2.1666666666670E+01  2.1666666666670E+01  2.1666666666670E+01  2.1666666666670E+01  2.1666666666670E+01  2.1666666666670E+01  2.1666666666670E+01  2.1666666666670E+01  2.1666666666670E+01 
-5.8679536911570E-05 -5.8679548321926E-05 -5.8679596032132E-05 -5.8679679373751E-05 -5.8679798346782E-05 -5.8679952951226E-05 -5.8680143187088E-05 -5.8680369054370E-05 -5.8680630553068E-05 -5.8680964380862E-05 
-2.9339768455694E+03 -2.9339774160872E+03 -2.9339798015975E+03 -2.9339839686785E+03 -2.9339899173299E+03 -2.9339976475522E+03 -2.9340071593453E+03 -2.9340184527093E+03 -2.9340315276442E+03 -2.9340482190373E+03 
 1.0193346085031E-04  5.0966747386363E-04  1.7328706882947E-03  3.7715467906651E-03  6.6257021406675E-03  1.0295345772036E-02  1.4780489389023E-02  2.0081147371874E-02  2.6197336773236E-02  2.9459316626416E-02 
 5.3661399440259E-04  4.7719713391988E-04  3.6579038169014E-04  2.6923755790520E-04  1.8753866885695E-04  1.2069376952757E-04  6.8702963590021E-05  3.1566403408688E-05  9.2842900402345E-06  1.8568732346063E-06 
-2.9339771648431E+03 -2.9339779095195E+03 -2.9339808509280E+03 -2.9339859890706E+03 -2.9339933239503E+03 -2.9340028555720E+03 -2.9340145839415E+03 -2.9340285090662E+03 -2.9340446309548E+03 -2.9340629496241E+03 
 2.6239831305301E+02  2.6239845631430E+02  2.6239902218467E+02  2.6240001066603E+02  2.6240142176167E+02  2.6240325547639E+02  2.6240551181633E+02  2.6240819078907E+02  2.6241129240361E+02  2.6241481667183E+02 
-3.1963754778961E+03 -3.1963763658338E+03 -3.1963798731127E+03 -3.1963859997367E+03 -3.1963947457120E+03 -3.1964061110484E+03 -3.1964200957578E+03 -3.1964366998552E+03 -3.1964559233584E+03 -3.1964777662959E+03 
ZONE T = "ANOD, 3.0000E-08", I = 10, SOLUTIONTIME = 3.000000E-08
ZONETYPE = ORDERED
DATAPACKING = BLOCK
STRANDID = 1
 0.0000000000000E+00  8.7488888888889E-05  1.7497777777778E-04  2.6246666666667E-04  3.4995555555556E-04  4.3744444444444E-04  5.2493333333333E-04  6.1242222222222E-04  6.9991111111111E-04  7.8740000000000E-04 
 4.8435159812595E-10  1.4530550634789E-09  2.4217595917584E-09  3.3904659767911E-09  4.3591750124055E-09  5.3278874924328E-09  6.2966042107085E-09  7.2653259610721E-09  8.2340535373686E-09  8.7171494083638E-09 
 9.1999999999913E-01  9.1999999999913E-01  9.1999999999913E-01  9.1999999999913E-01  9.1999999999913E-01  9.1999999999913E-01  9.1999999999913E-01  9.1999999999913E-01  9.1999999999913E-01  9.1999999999964E-01 
 4.0000000000437E-02  4.0000000000437E-02  4.0000000000437E-02  4.0000000000437E-02  4.0000000000437E-02  4.0000000000437E-02  4.0000000000437E-02  4.0000000000437E-02  4.0000000000437E-02  4.0000000000181E-02 
 4.0000000000437E-02  4.0000000000437E-02  4.0000000000437E-02  4.0000000000437E-02  4.0000000000437E-02  4.0000000000437E-02  4.0000000000437E-02  4.0000000000437E-02  4.0000000000437E-02  4.0000000000181E-02 
 1.8787726160954E-02  1.8787719768134E-02  1.8787700589673E-02  1.8787668625556E-02  1.8787623875758E-02  1.8787566340244E-02  1.8787496018970E-02  1.8787412911878E-02  1.8787317018904E-02  1.8787208339969E-02 
 0.0000000000000E+00 -1.9796293449851E-09 -3.7263636537593E-09 -5.2402026707746E-09 -6.5211459496315E-09 -7.5691928530790E-09 -8.3843425530136E-09 -8.9665940304787E-09 -9.3159460756628E-09 -9.4323972878992E-09 
-1.8787726160954E-02 -1.8787721747764E-02 -1.8787704316037E-02 -1.8787673865758E-02 -1.8787630396904E-02 -1.8787573909437E-02 -1.8787504403312E-02 -1.8787421878473E-02 -1.8787326334850E-02 -1.8787217772366E-02 
-3.5244196601302E-02 -3.5244196601303E-02 -3.5244196601302E-02 -3.5244196601302E-02 -3.5244196601303E-02 -3.5244196601304E-02 -3.5244196601304E-02 -3.5244196601303E-02 -3.5244196601303E-02 -3.5244196601463E-02 
 1.6456470440349E-02  1.6456474853539E-02  1.6456492285266E-02  1.6456522735544E-02  1.6456566204399E-02  1.6456622691867E-02  1.6456692197991E-02  1.6456774722831E-02  1.6456870266453E-02  1.6456978829097E-02 
 6.9750487925242E-01  1.3950101460318E+00  1.3950116767307E+00  1.3950143506031E+00  1.3950181676519E+00  1.3950231278809E+00  1.3950292312960E+00  1.3950364779035E+00  1.3950448677109E+00  6.9752720036678E-01 
 3.6145641641645E-09  1.0843694505157E-08  1.8072832773218E-08  2.5301984900114E-08  3.2531156811233E-08  3.9760354418926E-08  4.6989583661231E-08  5.4218850455302E-08  6.1448251135314E-08  6.1448251135314E-08 
 0.0000000000000E+00  1.3950099523290E+00  2.7900208636963E+00  4.1850338773015E+00  5.5800501365333E+00  6.9750707842126E+00  8.3700969637283E+00  9.7651298182798E+00  1.1160170491237E+01  1.2555220125579E+01 
 1.2555220125428E+01  1.1160210173160E+01  9.7651992617785E+00  8.3701862481116E+00  6.9751699889841E+00  5.5801493412176E+00  4.1851231616292E+00  2.7900903070294E+00  1.3950496342222E+00  0.0000000000000E+00 
 2.0925146377709E-08  4.1850304381227E-08  4.1850350302193E-08  4.1850430518365E-08  4.1850545029829E-08  4.1850693836703E-08  4.1850876939154E-08  4.1851094337377E-08  4.1851346031597E-08  2.0925816011091E-08 
 9.1448444543302E+04  1.8289688908660E+05  1.8289688908660E+05  1.8289688908660E+05  1.8289688908660E+05  1.8289688908660E+05  1.8289688908660E+05  1.8289688908660E+05  1.8289688908660E+05  9.1448444543302E+04 
 3.6579377817310E+05  7.3158755634620E+05  7.3158755634620E+05  7.3158755634620E+05  7.3158755634620E+05  7.3158755634621E+05  7.3158755634621E+05  7.3158755634620E+05  7.3158755634620E+05  3.6579377817310E+05 
 4.5724222271640E+05  9.1448444543281E+05  9.1448444543281E+05  9.1448444543281E+05  9.1448444543281E+05  9.1448444543281E+05  9.1448444543281E+05  9.1448444543281E+05  9.1448444543281E+05  4.5724222271640E+05 
 3.5000000000000E-01  3.5000000000000E-01  3.5000000000000E-01  3.5000000000000E-01  3.5000000000000E-01  3.5000000000000E-01  3.5000000000000E-01  3.5000000000000E-01  3.5000000000000E-01  3.5000000000000E-01 
 8.5301666666666E+00  1.7060333333333E+01  1.7060333333333E+01  1.7060333333333E+01  1.7060333333333E+01  1.7060333333333E+01  1.7060333333333E+01  1.7060333333333E+01  1.7060333333333E+01  8.5301666666666E+00 
 8.1769197075371E-02  8.1769219790459E-02  8.1769309513141E-02  8.1769466243515E-02  8.1769689981746E-02  8.1769980728060E-02  8.1770338482796E-02  8.1770763246334E-02  8.1771255019102E-02  8.1771813802010E-02 
 4.3744444444444E-05  8.7488888888889E-05  8.7488888888889E-05  8.7488888888889E-05  8.7488888888889E-05  8.7488888888889E-05  8.7488888888889E-05  8.7488888888889E-05  8.7488888888889E-05  4.3744444444444E-05 
 8.6666666666661E+01  8.6666666666661E+01  8.6666666666661E+01  8.6666666666661E+01  8.6666666666661E+01  8.6666666666661E+01  8.6666666666661E+01  8.6666666666661E+01  8.6666666666661E+01  8.6666666666661E+01 
 2.1666666666672E+01  2.1666666666672E+01  2.1666666666672E+01  2.1666666666672E+01  2.1666666666672E+01  2.1666666666672E+01  2.1666666666672E+01  2.1666666666672E+01  2.1666666666672E+01  2.1666666666672E+01 
-8.8019305367081E-05 -8.8019322482615E-05 -8.8019394047925E-05 -8.8019519060353E-05 -8.8019697519900E-05 -8.8019929426563E-05 -8.8020214780356E-05 -8.8020553581282E-05 -8.8020945829330E-05 -8.8021446571122E-05 
-2.9339768455511E+03 -2.9339774160689E+03 -2.9339798015792E+03 -2.9339839686602E+03 -2.9339899173118E+03 -2.9339976475337E+03 -2.9340071593268E+03 -2.9340184526912E+03 -2.9340315276262E+03 -2.9340482190259E+03 
 1.5290019122042E-04  7.6450121085215E-04  2.5993060323915E-03  5.6573201859665E-03  9.9385532111161E-03  1.5443018657778E-02  2.2170734083271E-02  3.0121721057451E-02  3.9296005159499E-02  4.4188974939680E-02 
 8.0492099159876E-04  7.1579570087526E-04  5.4868557253173E-04  4.0385633685525E-04  2.8130800328366E-04  1.8104065429023E-04  1.0305444538440E-04  4.7349605112750E-05  1.3926435060274E-05  2.7853098518977E-06 
-2.9339771648249E+03 -2.9339779095012E+03 -2.9339808509098E+03 -2.9339859890524E+03 -2.9339933239322E+03 -2.9340028555535E+03 -2.9340145839230E+03 -2.9340285090481E+03 -2.9340446309367E+03 -2.9340629496127E+03 
 2.6239831304883E+02  2.6239845631012E+02  2.6239902218049E+02  2.6240001066185E+02  2.6240142175752E+02  2.6240325547216E+02  2.6240551181210E+02  2.6240819078492E+02  2.6241129239946E+02  2.6241481666913E+02 
-3.1963754778737E+03 -3.1963763658114E+03 -3.1963798730903E+03 -3.1963859997142E+03 -3.1963947456898E+03 -3.1964061110256E+03 -3.1964200957351E+03 -3.1964366998330E+03 -3.1964559233362E+03 -3.1964777662818E+03 
ZONE T = "ANOD, 4.0000E-08", I = 10, SOLUTIONTIME = 4.000000E-08
ZONETYPE = ORDERED
DATAPACKING = BLOCK
STRANDID = 1
 0.0000000000000E+00  8.7488888888889E-05  1.7497777777778E-04  2.6246666666667E-04  3.4995555555556E-04  4.3744444444444E-04  5.2493333333333E-04  6.1242222222222E-04  6.9991111111111E-04  7.8740000000000E-04 
 4.8453320198668E-10  1.4535998750612E-09  2.4226676110622E-09  3.3917372038163E-09  4.3608094471522E-09  5.3302483426288E-09  6.2996914763537E-09  7.2687764344389E-09  8.2378672184569E-09  8.7222343164974E-09 
 9.1999999999884E-01  9.1999999999884E-01  9.1999999999884E-01  9.1999999999884E-01  9.1999999999884E-01  9.1999999999884E-01  9.1999999999884E-01  9.1999999999884E-01  9.1999999999884E-01  9.1999999999952E-01 
 4.0000000000582E-02  4.0000000000582E-02  4.0000000000582E-02  4.0000000000582E-02  4.0000000000582E-02  4.0000000000582E-02  4.0000000000582E-02  4.0000000000582E-02  4.0000000000582E-02  4.0000000000241E-02 
 4.0000000000582E-02  4.0000000000582E-02  4.0000000000582E-02  4.0000000000582E-02  4.0000000000582E-02  4.0000000000582E-02  4.0000000000582E-02  4.0000000000582E-02  4.0000000000582E-02  4.0000000000241E-02 
 1.8787726160901E-02  1.8787719768081E-02  1.8787700589620E-02  1.8787668625503E-02  1.8787623875705E-02  1.8787566340191E-02  1.8787496018917E-02  1.8787412911825E-02  1.8787317018851E-02  1.8787208339916E-02 
 0.0000000000000E+00 -1.9796293449726E-09 -3.7263636537357E-09 -5.2402026707414E-09 -6.5211459495903E-09 -7.5691928530313E-09 -8.3843425529610E-09 -8.9665940304225E-09 -9.3159460756047E-09 -9.4323972878406E-09 
-1.8787726160901E-02 -1.8787721747711E-02 -1.8787704315984E-02 -1.8787673865705E-02 -1.8787630396851E-02 -1.8787573909384E-02 -1.8787504403259E-02 -1.8787421878419E-02 -1.8787326334797E-02 -1.8787217772313E-02 
-3.5244196601097E-02 -3.5244196601097E-02 -3.5244196601097E-02 -3.5244196601097E-02 -3.5244196601097E-02 -3.5244196601097E-02 -3.5244196601097E-02 -3.5244196601097E-02 -3.5244196601097E-02 -3.5244196601310E-02 
 1.6456470440197E-02  1.6456474853387E-02  1.6456492285114E-02  1.6456522735392E-02  1.6456566204247E-02  1.6456622691713E-02  1.6456692197838E-02  1.6456774722678E-02  1.6456870266301E-02  1.6456978828998E-02 
 6.9750487924786E-01  1.3950101460228E+00  1.3950116767216E+00  1.3950143505940E+00  1.3950181676429E+00  1.3950231278719E+00  1.3950292312869E+00  1.3950364778946E+00  1.3950448677019E+00  6.9752720036390E-01 