TITLE = "Solution on Domain BulkDomain1D_2"
VARIABLES = "x [m]"  
"Vel_axial" 	"MF_sp(ECDMC)" 	"MF_sp(Li+)" 	"MF_sp(PF6-)" 	"Volt(Electroly)" 	"Volt(CathodeVo)" 	
"Potential Drop Electrode-Electrolyte [V]" 	"Surf_0 Equilibrium Potential Drop Electrode-Electrolyte [V]" 	"Overpotential_0 [V]" 	"Current Source [A/m^2]" 	"Li+ flux [kmol/m^2/s]" 	"Electrolyte Current [A/m^2]" 	"Electrode Current [A/m^2]" 	
"CV Capacity discharged [A-s/m^2]" 	"Depth of discharge in CV [A-s/m^2]" 	"CV Capacity remaining [A-s/m^2]" 	"Initial CV capacity [A-s/m^2]" 	"Porosity []" 	"Surface Area [m2/m2] (area per area)" 	"Specific current (per particle area) [A/m^2]" 	"Control volume thickness [m]" 	
"MoleDens LiCoO2 [kmol/m^3]" 	"MoleDens CoO2 [kmol/m^3]" 	"qHeat_accum [J/m3]" 	"qHeat_step [W/m3]" 	"Joule_Lyte [W/m3]" 	"Joule_Solid [W/m3]" 	"electrodHeat [W/m3]" 	"OverpotHeat [W/m3]" 	"deltaSHeat [W/m3]" 	

ZONE T = "CATH, 0.0000E+00", I = 10, SOLUTIONTIME = 0.000000E+00
ZONETYPE = ORDERED
DATAPACKING = BLOCK
STRANDID = 3
 1.2700000000000E-03  1.3377333333333E-03  1.4054666666667E-03  1.4732000000000E-03  1.5409333333333E-03  1.6086666666667E-03  1.6764000000000E-03  1.7441333333333E-03  1.8118666666667E-03  1.8796000000000E-03 
 0.0000000000000E+00  0.0000000000000E+00  0.0000000000000E+00  0.0000000000000E+00  0.0000000000000E+00  0.0000000000000E+00  0.0000000000000E+00  0.0000000000000E+00  0.0000000000000E+00  0.0000000000000E+00 
 9.2000000000000E-01  9.2000000000000E-01  9.2000000000000E-01  9.2000000000000E-01  9.2000000000000E-01  9.2000000000000E-01  9.2000000000000E-01  9.2000000000000E-01  9.2000000000000E-01  9.2000000000000E-01 
 4.0000000000000E-02  4.0000000000000E-02  4.0000000000000E-02  4.0000000000000E-02  4.0000000000000E-02  4.0000000000000E-02  4.0000000000000E-02  4.0000000000000E-02  4.0000000000000E-02  4.0000000000000E-02 
 4.0000000000000E-02  4.0000000000000E-02  4.0000000000000E-02  4.0000000000000E-02  4.0000000000000E-02  4.0000000000000E-02  4.0000000000000E-02  4.0000000000000E-02  4.0000000000000E-02  4.0000000000000E-02 
-7.0000000000000E-02 -7.0000000000000E-02 -7.0000000000000E-02 -7.0000000000000E-02 -7.0000000000000E-02 -7.0000000000000E-02 -7.0000000000000E-02 -7.0000000000000E-02 -7.0000000000000E-02 -7.0000000000000E-02 
 3.8000000000000E+00  3.8000000000000E+00  3.8000000000000E+00  3.8000000000000E+00  3.8000000000000E+00  3.8000000000000E+00  3.8000000000000E+00  3.8000000000000E+00  3.8000000000000E+00  3.8000000000000E+00 
 3.8700000000000E+00  3.8700000000000E+00  3.8700000000000E+00  3.8700000000000E+00  3.8700000000000E+00  3.8700000000000E+00  3.8700000000000E+00  3.8700000000000E+00  3.8700000000000E+00  3.8700000000000E+00 
 3.9779642109147E+00  3.9779642109147E+00  3.9779642109147E+00  3.9779642109147E+00  3.9779642109147E+00  3.9779642109147E+00  3.9779642109147E+00  3.9779642109147E+00  3.9779642109147E+00  3.9779642109147E+00 
-1.0796421091472E-01 -1.0796421091472E-01 -1.0796421091472E-01 -1.0796421091472E-01 -1.0796421091472E-01 -1.0796421091472E-01 -1.0796421091472E-01 -1.0796421091472E-01 -1.0796421091472E-01 -1.0796421091472E-01 
-1.1663619695838E-01 -2.3327239391676E-01 -2.3327239391676E-01 -2.3327239391676E-01 -2.3327239391676E-01 -2.3327239391676E-01 -2.3327239391676E-01 -2.3327239391676E-01 -2.3327239391676E-01 -1.1663619695838E-01 
-0.0000000000000E+00 -0.0000000000000E+00 -0.0000000000000E+00 -0.0000000000000E+00 -0.0000000000000E+00 -0.0000000000000E+00 -0.0000000000000E+00 -0.0000000000000E+00 -0.0000000000000E+00 -0.0000000000000E+00 
 1.1663619695838E-01  0.0000000000000E+00  0.0000000000000E+00  0.0000000000000E+00  0.0000000000000E+00  0.0000000000000E+00  0.0000000000000E+00  0.0000000000000E+00  0.0000000000000E+00  0.0000000000000E+00 
 0.0000000000000E+00 -0.0000000000000E+00 -0.0000000000000E+00 -0.0000000000000E+00 -0.0000000000000E+00 -0.0000000000000E+00 -0.0000000000000E+00 -0.0000000000000E+00 -0.0000000000000E+00  1.1663619695838E-01 
-0.0000000000000E+00 -0.0000000000000E+00 -0.0000000000000E+00 -0.0000000000000E+00 -0.0000000000000E+00 -0.0000000000000E+00 -0.0000000000000E+00 -0.0000000000000E+00 -0.0000000000000E+00 -0.0000000000000E+00 
 7.2440786946225E+03  1.4488157389245E+04  1.4488157389245E+04  1.4488157389245E+04  1.4488157389245E+04  1.4488157389245E+04  1.4488157389245E+04  1.4488157389245E+04  1.4488157389245E+04  7.2440786946225E+03 
 4.9259735123433E+04  9.8519470246865E+04  9.8519470246866E+04  9.8519470246865E+04  9.8519470246866E+04  9.8519470246866E+04  9.8519470246865E+04  9.8519470246866E+04  9.8519470246865E+04  4.9259735123433E+04 
 5.6503813818055E+04  1.1300762763611E+05  1.1300762763611E+05  1.1300762763611E+05  1.1300762763611E+05  1.1300762763611E+05  1.1300762763611E+05  1.1300762763611E+05  1.1300762763611E+05  5.6503813818055E+04 
 3.5000000000000E-01  3.5000000000000E-01  3.5000000000000E-01  3.5000000000000E-01  3.5000000000000E-01  3.5000000000000E-01  3.5000000000000E-01  3.5000000000000E-01  3.5000000000000E-01  3.5000000000000E-01 
 6.6040000000000E+00  1.3208000000000E+01  1.3208000000000E+01  1.3208000000000E+01  1.3208000000000E+01  1.3208000000000E+01  1.3208000000000E+01  1.3208000000000E+01  1.3208000000000E+01  6.6040000000000E+00 
-1.7661447146938E-02 -1.7661447146938E-02 -1.7661447146938E-02 -1.7661447146938E-02 -1.7661447146938E-02 -1.7661447146938E-02 -1.7661447146938E-02 -1.7661447146938E-02 -1.7661447146938E-02 -1.7661447146938E-02 
 3.3866666666667E-05  6.7733333333333E-05  6.7733333333334E-05  6.7733333333333E-05  6.7733333333334E-05  6.7733333333334E-05  6.7733333333333E-05  6.7733333333334E-05  6.7733333333333E-05  3.3866666666667E-05 
 2.6603001364256E+01  2.6603001364256E+01  2.6603001364256E+01  2.6603001364256E+01  2.6603001364256E+01  2.6603001364256E+01  2.6603001364256E+01  2.6603001364256E+01  2.6603001364256E+01  2.6603001364256E+01 
 1.7735334242838E+01  1.7735334242838E+01  1.7735334242838E+01  1.7735334242838E+01  1.7735334242838E+01  1.7735334242838E+01  1.7735334242838E+01  1.7735334242838E+01  1.7735334242838E+01  1.7735334242838E+01 
 0.0000000000000E+00  0.0000000000000E+00  0.0000000000000E+00  0.0000000000000E+00  0.0000000000000E+00  0.0000000000000E+00  0.0000000000000E+00  0.0000000000000E+00  0.0000000000000E+00  0.0000000000000E+00 
 0.0000000000000E+00  0.0000000000000E+00  0.0000000000000E+00  0.0000000000000E+00  0.0000000000000E+00  0.0000000000000E+00  0.0000000000000E+00  0.0000000000000E+00  0.0000000000000E+00  0.0000000000000E+00 
 0.0000000000000E+00  0.0000000000000E+00  0.0000000000000E+00  0.0000000000000E+00  0.0000000000000E+00  0.0000000000000E+00  0.0000000000000E+00  0.0000000000000E+00  0.0000000000000E+00  0.0000000000000E+00 
 0.0000000000000E+00  0.0000000000000E+00  0.0000000000000E+00  0.0000000000000E+00  0.0000000000000E+00  0.0000000000000E+00  0.0000000000000E+00  0.0000000000000E+00  0.0000000000000E+00  0.0000000000000E+00 
 0.0000000000000E+00  0.0000000000000E+00  0.0000000000000E+00  0.0000000000000E+00  0.0000000000000E+00  0.0000000000000E+00  0.0000000000000E+00  0.0000000000000E+00  0.0000000000000E+00  0.0000000000000E+00 
 0.0000000000000E+00  0.0000000000000E+00  0.0000000000000E+00  0.0000000000000E+00  0.0000000000000E+00  0.0000000000000E+00  0.0000000000000E+00  0.0000000000000E+00  0.0000000000000E+00  0.0000000000000E+00 
 0.0000000000000E+00  0.0000000000000E+00  0.0000000000000E+00  0.0000000000000E+00  0.0000000000000E+00  0.0000000000000E+00  0.0000000000000E+00  0.0000000000000E+00  0.0000000000000E+00  0.0000000000000E+00 
ZONE T = "CATH, 1.0000E-08", I = 10, SOLUTIONTIME = 1.000000E-08
ZONETYPE = ORDERED
DATAPACKING = BLOCK
STRANDID = 3
 1.2700000000000E-03  1.3377333333333E-03  1.4054666666667E-03  1.4732000000000E-03  1.5409333333333E-03  1.6086666666667E-03  1.6764000000000E-03  1.7441333333333E-03  1.8118666666667E-03  1.8796000000000E-03 
 8.2303035016203E-09  7.2620439651073E-09  6.2940966634666E-09  5.3257000397170E-09  4.3571821475744E-09  3.3888710231684E-09  2.4203682644812E-09  1.4512754416908E-09  4.8192050750567E-10 -2.7240579584252E-12 
 9.2000000000013E-01  9.2000000000038E-01  9.2000000000038E-01  9.2000000000038E-01  9.2000000000038E-01  9.2000000000038E-01  9.2000000000038E-01  9.2000000000038E-01  9.2000000000038E-01  9.2000000000038E-01 
 3.9999999999934E-02  3.9999999999812E-02  3.9999999999812E-02  3.9999999999812E-02  3.9999999999812E-02  3.9999999999812E-02  3.9999999999812E-02  3.9999999999812E-02  3.9999999999812E-02  3.9999999999812E-02 
 3.9999999999934E-02  3.9999999999812E-02  3.9999999999812E-02  3.9999999999812E-02  3.9999999999812E-02  3.9999999999812E-02  3.9999999999812E-02  3.9999999999812E-02  3.9999999999812E-02  3.9999999999812E-02 
 1.8787027750156E-02  1.8786943609119E-02  1.8786869362108E-02  1.8786805009643E-02  1.8786750552604E-02  1.8786705992231E-02  1.8786671330122E-02  1.8786646568234E-02  1.8786631708887E-02  1.8786626754758E-02 
 3.8000730064805E+00  3.8000721053792E+00  3.8000694020459E+00  3.8000648963856E+00  3.8000585882381E+00  3.8000504773777E+00  3.8000405635131E+00  3.8000288462878E+00  3.8000153252793E+00  3.8000000000000E+00 
 3.7812859787303E+00  3.7812851617701E+00  3.7812825326837E+00  3.7812780913759E+00  3.7812718376855E+00  3.7812637713854E+00  3.7812538921830E+00  3.7812421997195E+00  3.7812286935705E+00  3.7812133732452E+00 
 3.9779642109146E+00  3.9779642109146E+00  3.9779642109146E+00  3.9779642109146E+00  3.9779642109146E+00  3.9779642109146E+00  3.9779642109146E+00  3.9779642109146E+00  3.9779642109146E+00  3.9779642109146E+00 
-1.9667823218432E-01 -1.9667904914449E-01 -1.9668167823082E-01 -1.9668611953863E-01 -1.9669237322908E-01 -1.9670043952914E-01 -1.9671031873157E-01 -1.9672201119504E-01 -1.9673551734411E-01 -1.9675083766933E-01 
-6.9717402206274E-01 -1.3943708531439E+00 -1.3944442581158E+00 -1.3945682696835E+00 -1.3947429058282E+00 -1.3949681918758E+00 -1.3952441605041E+00 -1.3955708517534E+00 -1.3959483130388E+00 -6.9818829958231E-01 
 6.1450046383940E-08  5.4224173513155E-08  4.6997975688364E-08  3.9771135211190E-08  3.2543389749841E-08  2.5314476825953E-08  1.8084133797850E-08  1.0852097812415E-08  3.6181057672026E-09  3.6181057672026E-09 
 1.2555220125834E+01  1.1160860676983E+01  9.7664531212685E+00  8.3719468575593E+00  6.9772912696162E+00  5.5824357206735E+00  4.1873295446286E+00  2.7919220384629E+00  1.3961624561302E+00  0.0000000000000E+00 
 0.0000000000000E+00  1.3943594486907E+00  2.7887670041481E+00  4.1832732681021E+00  5.5779288560261E+00  6.9727844046960E+00  8.3678905809515E+00  9.7632980871939E+00  1.1159057669460E+01  1.2555220125549E+01 
 6.9717402206274E-09  1.3943708531439E-08  1.3944442581158E-08  1.3945682696835E-08  1.3947429058282E-08  1.3949681918758E-08  1.3952441605041E-08  1.3955708517534E-08  1.3959483130388E-08  6.9818829958231E-09 
 7.2440786946295E+03  1.4488157389259E+04  1.4488157389259E+04  1.4488157389259E+04  1.4488157389259E+04  1.4488157389259E+04  1.4488157389259E+04  1.4488157389259E+04  1.4488157389259E+04  7.2440786946295E+03 
 4.9259735123426E+04  9.8519470246851E+04  9.8519470246852E+04  9.8519470246851E+04  9.8519470246852E+04  9.8519470246852E+04  9.8519470246851E+04  9.8519470246852E+04  9.8519470246851E+04  4.9259735123426E+04 
 5.6503813818055E+04  1.1300762763611E+05  1.1300762763611E+05  1.1300762763611E+05  1.1300762763611E+05  1.1300762763611E+05  1.1300762763611E+05  1.1300762763611E+05  1.1300762763611E+05  5.6503813818055E+04 
 3.5000000000000E-01  3.5000000000000E-01  3.5000000000000E-01  3.5000000000000E-01  3.5000000000000E-01  3.5000000000000E-01  3.5000000000000E-01  3.5000000000000E-01  3.5000000000000E-01  3.5000000000000E-01 
 6.6040000000000E+00  1.3208000000000E+01  1.3208000000000E+01  1.3208000000000E+01  1.3208000000000E+01  1.3208000000000E+01  1.3208000000000E+01  1.3208000000000E+01  1.3208000000000E+01  6.6040000000000E+00 
-1.0556844670847E-01 -1.0557017361780E-01 -1.0557573123226E-01 -1.0558512035762E-01 -1.0559834235526E-01 -1.0561539914263E-01 -1.0563629319383E-01 -1.0566102754038E-01 -1.0568960577217E-01 -1.0572203203851E-01 
 3.3866666666667E-05  6.7733333333333E-05  6.7733333333334E-05  6.7733333333333E-05  6.7733333333334E-05  6.7733333333334E-05  6.7733333333333E-05  6.7733333333334E-05  6.7733333333333E-05  3.3866666666667E-05 
 2.6603001364259E+01  2.6603001364259E+01  2.6603001364259E+01  2.6603001364259E+01  2.6603001364259E+01  2.6603001364259E+01  2.6603001364259E+01  2.6603001364259E+01  2.6603001364259E+01  2.6603001364259E+01 
 1.7735334242836E+01  1.7735334242836E+01  1.7735334242836E+01  1.7735334242836E+01  1.7735334242836E+01  1.7735334242836E+01  1.7735334242836E+01  1.7735334242836E+01  1.7735334242836E+01  1.7735334242836E+01 
 8.8255451963267E-05  8.8257418544990E-05  8.8263688481298E-05  8.8274281079922E-05  8.8289197976773E-05  8.8308441475989E-05  8.8332014550669E-05  8.8359920843841E-05  8.8392164669636E-05  8.8425405546842E-05 
 8.8255451963267E+03  8.8257418544990E+03  8.8263688481298E+03  8.8274281079922E+03  8.8289197976773E+03  8.8308441475989E+03  8.8332014550669E+03  8.8359920843841E+03  8.8392164669636E+03  8.8425405546842E+03 
 1.4730535765222E-02  1.3100233031547E-02  1.0043238048605E-02  7.3934555152734E-03  5.1508979591050E-03  3.3156370573409E-03  1.8878036781404E-03  8.6758794232762E-04  2.5523930527136E-04  5.1066654487321E-05 
 9.2749666666380E-03  4.6375743657224E-02  1.5768326095152E-01  3.4321327774035E-01  6.0299232934375E-01  9.3705773534885E-01  1.3454576114114E+00  1.8282508836173E+00  2.3855073068443E+00  2.6827607030409E+00 
 8.8255211908243E+03  8.8256823785223E+03  8.8262011216308E+03  8.8270775012589E+03  8.8283116544500E+03  8.8299037742265E+03  8.8318541096518E+03  8.8341629659126E+03  8.8368307044175E+03  8.8398577429145E+03 
 4.0487880172487E+03  4.0488710662100E+03  4.0491383398480E+03  4.0495898828136E+03  4.0502257705504E+03  4.0510461093204E+03  4.0520510362395E+03  4.0532407193248E+03  4.0546153575515E+03  4.0561751809200E+03 
 4.7767331735755E+03  4.7768113123123E+03  4.7770627817828E+03  4.7774876184453E+03  4.7780858838996E+03  4.7788576649061E+03  4.7798030734124E+03  4.7809222465877E+03  4.7822153468659E+03  4.7836825619945E+03 
ZONE T = "CATH, 2.0000E-08", I = 10, SOLUTIONTIME = 2.000000E-08
ZONETYPE = ORDERED
DATAPACKING = BLOCK
STRANDID = 3
 1.2700000000000E-03  1.3377333333333E-03  1.4054666666667E-03  1.4732000000000E-03  1.5409333333333E-03  1.6086666666667E-03  1.6764000000000E-03  1.7441333333333E-03  1.8118666666667E-03  1.8796000000000E-03 
 8.2381124677136E-09  7.2698529312070E-09  6.3004527986615E-09  5.3320561749183E-09  4.3635382827820E-09  3.3945007429268E-09  2.4252715687904E-09  1.4561787460064E-09  4.8682381182758E-10  1.6344347749893E-12 
 9.2000000000027E-01  9.2000000000075E-01  9.2000000000075E-01  9.2000000000075E-01  9.2000000000075E-01  9.2000000000075E-01  9.2000000000075E-01  9.2000000000075E-01  9.2000000000075E-01  9.2000000000075E-01 
 3.9999999999867E-02  3.9999999999624E-02  3.9999999999624E-02  3.9999999999624E-02  3.9999999999624E-02  3.9999999999624E-02  3.9999999999624E-02  3.9999999999624E-02  3.9999999999624E-02  3.9999999999624E-02 
 3.9999999999867E-02  3.9999999999624E-02  3.9999999999624E-02  3.9999999999624E-02  3.9999999999624E-02  3.9999999999624E-02  3.9999999999624E-02  3.9999999999624E-02  3.9999999999624E-02  3.9999999999624E-02 
 1.8787027750101E-02  1.8786943609064E-02  1.8786869362053E-02  1.8786805009588E-02  1.8786750552550E-02  1.8786705992176E-02  1.8786671330067E-02  1.8786646568179E-02  1.8786631708832E-02  1.8786626754703E-02 
 3.8000730064805E+00  3.8000721053792E+00  3.8000694020459E+00  3.8000648963856E+00  3.8000585882381E+00  3.8000504773777E+00  3.8000405635131E+00  3.8000288462878E+00  3.8000153252793E+00  3.8000000000000E+00 
 3.7812859787304E+00  3.7812851617701E+00  3.7812825326838E+00  3.7812780913760E+00  3.7812718376855E+00  3.7812637713855E+00  3.7812538921831E+00  3.7812421997196E+00  3.7812286935705E+00  3.7812133732453E+00 
 3.9779642109146E+00  3.9779642109144E+00  3.9779642109144E+00  3.9779642109144E+00  3.9779642109144E+00  3.9779642109144E+00  3.9779642109144E+00  3.9779642109144E+00  3.9779642109144E+00  3.9779642109144E+00 
-1.9667823218419E-01 -1.9667904914429E-01 -1.9668167823062E-01 -1.9668611953843E-01 -1.9669237322888E-01 -1.9670043952893E-01 -1.9671031873137E-01 -1.9672201119484E-01 -1.9673551734390E-01 -1.9675083766912E-01 
-6.9717402206028E-01 -1.3943708531347E+00 -1.3944442581066E+00 -1.3945682696743E+00 -1.3947429058191E+00 -1.3949681918666E+00 -1.3952441604949E+00 -1.3955708517443E+00 -1.3959483130296E+00 -6.9818829957773E-01 
 6.1450101818529E-08  5.4224173518726E-08  4.6997975693968E-08  3.9771135222146E-08  3.2543389763873E-08  2.5314476842424E-08  1.8084133815242E-08  1.0852097837692E-08  3.6181057925139E-09  3.6181057925139E-09 
 1.2555220125794E+01  1.1160860676939E+01  9.7664531212227E+00  8.3719468572755E+00  6.9772912695834E+00  5.5824357208917E+00  4.1873295446089E+00  2.7919220384498E+00  1.3961624561237E+00  0.0000000000000E+00 
 0.0000000000000E+00  1.3943594486907E+00  2.7887670041481E+00  4.1832732681021E+00  5.5779288560261E+00  6.9727844046960E+00  8.3678905807797E+00  9.7632980870221E+00  1.1159057669460E+01  1.2555220125545E+01 
 1.3943480441230E-08  2.7887417062786E-08  2.7888885162224E-08  2.7891365393578E-08  2.7894858116473E-08  2.7899363837425E-08  2.7904883209990E-08  2.7911417034977E-08  2.7918966260684E-08  1.3963765991600E-08 
 7.2440786946364E+03  1.4488157389273E+04  1.4488157389273E+04  1.4488157389273E+04  1.4488157389273E+04  1.4488157389273E+04  1.4488157389273E+04  1.4488157389273E+04  1.4488157389273E+04  7.2440786946364E+03 
 4.9259735123419E+04  9.8519470246837E+04  9.8519470246838E+04  9.8519470246837E+04  9.8519470246838E+04  9.8519470246838E+04  9.8519470246837E+04  9.8519470246838E+04  9.8519470246837E+04  4.9259735123419E+04 
 5.6503813818055E+04  1.1300762763611E+05  1.1300762763611E+05  1.1300762763611E+05  1.1300762763611E+05  1.1300762763611E+05  1.1300762763611E+05  1.1300762763611E+05  1.1300762763611E+05  5.6503813818055E+04 
 3.5000000000000E-01  3.5000000000000E-01  3.5000000000000E-01  3.5000000000000E-01  3.5000000000000E-01  3.5000000000000E-01  3.5000000000000E-01  3.5000000000000E-01  3.5000000000000E-01  3.5000000000000E-01 
 6.6040000000000E+00  1.3208000000000E+01  1.3208000000000E+01  1.3208000000000E+01  1.3208000000000E+01  1.3208000000000E+01  1.3208000000000E+01  1.3208000000000E+01  1.3208000000000E+01  6.6040000000000E+00 
-1.0556844670810E-01 -1.0557017361711E-01 -1.0557573123157E-01 -1.0558512035693E-01 -1.0559834235456E-01 -1.0561539914193E-01 -1.0563629319313E-01 -1.0566102753969E-01 -1.0568960577147E-01 -1.0572203203781E-01 
 3.3866666666667E-05  6.7733333333333E-05  6.7733333333334E-05  6.7733333333333E-05  6.7733333333334E-05  6.7733333333334E-05  6.7733333333333E-05  6.7733333333334E-05  6.7733333333333E-05  3.3866666666667E-05 
 2.6603001364261E+01  2.6603001364261E+01  2.6603001364261E+01  2.6603001364261E+01  2.6603001364261E+01  2.6603001364261E+01  2.6603001364261E+01  2.6603001364261E+01  2.6603001364261E+01  2.6603001364261E+01 
 1.7735334242833E+01  1.7735334242833E+01  1.7735334242833E+01  1.7735334242833E+01  1.7735334242833E+01  1.7735334242833E+01  1.7735334242833E+01  1.7735334242833E+01  1.7735334242833E+01  1.7735334242833E+01 
 1.7651090392621E-04  1.7651483708939E-04  1.7652737696201E-04  1.7654856215925E-04  1.7657839595296E-04  1.7661688295139E-04  1.7666402910075E-04  1.7671984168709E-04  1.7678432933868E-04  1.7685081109309E-04 
 8.8255451962945E+03  8.8257418544401E+03  8.8263688480707E+03  8.8274281079330E+03  8.8289197976183E+03  8.8308441475398E+03  8.8332014550078E+03  8.8359920843251E+03  8.8392164669044E+03  8.8425405546251E+03 
 1.4730535765175E-02  1.3100233031497E-02  1.0043238048558E-02  7.3934555148456E-03  5.1508979590094E-03  3.3156370576470E-03  1.8878036781315E-03  8.6758794232354E-04  2.5523930527016E-04  5.1066654487081E-05 
 9.2749666666380E-03  4.6375743657224E-02  1.5768326095152E-01  3.4321327774035E-01  6.0299232934375E-01  9.3705773534885E-01  1.3454576113519E+00  1.8282508835579E+00  2.3855073068443E+00  2.6827607030409E+00 
 8.8255211907920E+03  8.8256823784634E+03  8.8262011215717E+03  8.8270775011998E+03  8.8283116543910E+03  8.8299037741674E+03  8.8318541095927E+03  8.8341629658535E+03  8.8368307043582E+03  8.8398577428554E+03 
 4.0487880172318E+03  4.0488710661793E+03  4.0491383398172E+03  4.0495898827828E+03  4.0502257705196E+03  4.0510461092896E+03  4.0520510362087E+03  4.0532407192941E+03  4.0546153575206E+03  4.0561751808892E+03 
 4.7767331735602E+03  4.7768113122841E+03  4.7770627817545E+03  4.7774876184170E+03  4.7780858838713E+03  4.7788576648778E+03  4.7798030733840E+03  4.7809222465595E+03  4.7822153468375E+03  4.7836825619663E+03 
ZONE T = "CATH, 3.0000E-08", I = 10, SOLUTIONTIME = 3.000000E-08
ZONETYPE = ORDERED
DATAPACKING = BLOCK
STRANDID = 3
 1.2700000000000E-03  1.3377333333333E-03  1.4054666666667E-03  1.4732000000000E-03  1.5409333333333E-03  1.6086666666667E-03  1.6764000000000E-03  1.7441333333333E-03  1.8118666666667E-03  1.8796000000000E-03 
 8.2337539749263E-09  7.2658576461538E-09  6.2982735522536E-09  5.3302401362444E-09  4.3617222441145E-09  3.3930479119934E-09  2.4241819455912E-09  1.4539994996302E-09  4.8464456545775E-10  1.6146985609690E-23 
 9.2000000000040E-01  9.2000000000113E-01  9.2000000000113E-01  9.2000000000113E-01  9.2000000000113E-01  9.2000000000113E-01  9.2000000000113E-01  9.2000000000113E-01  9.2000000000113E-01  9.2000000000113E-01 
 3.9999999999801E-02  3.9999999999436E-02  3.9999999999436E-02  3.9999999999436E-02  3.9999999999436E-02  3.9999999999436E-02  3.9999999999436E-02  3.9999999999436E-02  3.9999999999436E-02  3.9999999999436E-02 
 3.9999999999801E-02  3.9999999999436E-02  3.9999999999436E-02  3.9999999999436E-02  3.9999999999436E-02  3.9999999999436E-02  3.9999999999436E-02  3.9999999999436E-02  3.9999999999436E-02  3.9999999999436E-02 
 1.8787027750047E-02  1.8786943609010E-02  1.8786869361999E-02  1.8786805009534E-02  1.8786750552496E-02  1.8786705992122E-02  1.8786671330013E-02  1.8786646568125E-02  1.8786631708778E-02  1.8786626754649E-02 
 3.8000730064805E+00  3.8000721053792E+00  3.8000694020459E+00  3.8000648963856E+00  3.8000585882381E+00  3.8000504773777E+00  3.8000405635131E+00  3.8000288462878E+00  3.8000153252793E+00  3.8000000000000E+00 
 3.7812859787304E+00  3.7812851617702E+00  3.7812825326839E+00  3.7812780913760E+00  3.7812718376856E+00  3.7812637713855E+00  3.7812538921831E+00  3.7812421997196E+00  3.7812286935706E+00  3.7812133732454E+00 
 3.9779642109145E+00  3.9779642109143E+00  3.9779642109143E+00  3.9779642109143E+00  3.9779642109143E+00  3.9779642109143E+00  3.9779642109143E+00  3.9779642109143E+00  3.9779642109143E+00  3.9779642109143E+00 
-1.9667823218406E-01 -1.9667904914408E-01 -1.9668167823041E-01 -1.9668611953822E-01 -1.9669237322868E-01 -1.9670043952873E-01 -1.9671031873117E-01 -1.9672201119463E-01 -1.9673551734370E-01 -1.9675083766892E-01 
-6.9717402205783E-01 -1.3943708531256E+00 -1.3944442580975E+00 -1.3945682696652E+00 -1.3947429058100E+00 -1.3949681918575E+00 -1.3952441604858E+00 -1.3955708517351E+00 -1.3959483130205E+00 -6.9818829957314E-01 
 6.1450157251470E-08  5.4224173528857E-08  4.6997975697039E-08  3.9771135236144E-08  3.2543389777397E-08  2.5314476856869E-08  1.8084133839598E-08  1.0852097860056E-08  3.6181058182040E-09  3.6181058182040E-09 
 1.2555220125265E+01  1.1160860676896E+01  9.7664531211768E+00  8.3719468572362E+00  6.9772912697951E+00  5.5824357208655E+00  4.1873295445892E+00  2.7919220384366E+00  1.3961624558726E+00  0.0000000000000E+00 
 0.0000000000000E+00  1.3943594486907E+00  2.7887670041481E+00  4.1832732681021E+00  5.5779288558543E+00  6.9727844046960E+00  8.3678905809515E+00  9.7632980868503E+00  1.1159057669288E+01  1.2555220125540E+01 
 2.0915220661809E-08  4.1831125594042E-08  4.1833327743198E-08  4.1837048090229E-08  4.1842287174573E-08  4.1849045756000E-08  4.1857324814848E-08  4.1867125552328E-08  4.1878449390889E-08  2.0945648987332E-08 
 7.2440786946434E+03  1.4488157389287E+04  1.4488157389287E+04  1.4488157389287E+04  1.4488157389287E+04  1.4488157389287E+04  1.4488157389287E+04  1.4488157389287E+04  1.4488157389287E+04  7.2440786946434E+03 
 4.9259735123412E+04  9.8519470246823E+04  9.8519470246824E+04  9.8519470246823E+04  9.8519470246824E+04  9.8519470246824E+04  9.8519470246823E+04  9.8519470246824E+04  9.8519470246823E+04  4.9259735123412E+04 
 5.6503813818055E+04  1.1300762763611E+05  1.1300762763611E+05  1.1300762763611E+05  1.1300762763611E+05  1.1300762763611E+05  1.1300762763611E+05  1.1300762763611E+05  1.1300762763611E+05  5.6503813818055E+04 
 3.5000000000000E-01  3.5000000000000E-01  3.5000000000000E-01  3.5000000000000E-01  3.5000000000000E-01  3.5000000000000E-01  3.5000000000000E-01  3.5000000000000E-01  3.5000000000000E-01  3.5000000000000E-01 
 6.6040000000000E+00  1.3208000000000E+01  1.3208000000000E+01  1.3208000000000E+01  1.3208000000000E+01  1.3208000000000E+01  1.3208000000000E+01  1.3208000000000E+01  1.3208000000000E+01  6.6040000000000E+00 
-1.0556844670773E-01 -1.0557017361641E-01 -1.0557573123088E-01 -1.0558512035624E-01 -1.0559834235387E-01 -1.0561539914124E-01 -1.0563629319244E-01 -1.0566102753900E-01 -1.0568960577078E-01 -1.0572203203712E-01 
 3.3866666666667E-05  6.7733333333333E-05  6.7733333333334E-05  6.7733333333333E-05  6.7733333333334E-05  6.7733333333334E-05  6.7733333333333E-05  6.7733333333334E-05  6.7733333333333E-05  3.3866666666667E-05 
 2.6603001364263E+01  2.6603001364263E+01  2.6603001364263E+01  2.6603001364263E+01  2.6603001364263E+01  2.6603001364263E+01  2.6603001364263E+01  2.6603001364263E+01  2.6603001364263E+01  2.6603001364263E+01 
 1.7735334242831E+01  1.7735334242831E+01  1.7735334242831E+01  1.7735334242831E+01  1.7735334242831E+01  1.7735334242831E+01  1.7735334242831E+01  1.7735334242831E+01  1.7735334242831E+01  1.7735334242831E+01 
 2.6476635588884E-04  2.6477225563320E-04  2.6479106544212E-04  2.6482284323799E-04  2.6486759392855E-04  2.6492532442619E-04  2.6499604365024E-04  2.6507976252975E-04  2.6517649400713E-04  2.6527621663875E-04 
 8.8255451962624E+03  8.8257418543812E+03  8.8263688480119E+03  8.8274281078742E+03  8.8289197975593E+03  8.8308441474808E+03  8.8332014549489E+03  8.8359920842660E+03  8.8392164668453E+03  8.8425405545659E+03 
 1.4730535763913E-02  1.3100233031375E-02  1.0043238048582E-02  7.3934555147394E-03  5.1508979593783E-03  3.3156370576315E-03  1.8878036781226E-03  8.6758794231946E-04  2.5523930523319E-04  5.1066654415315E-05 
 9.2749666666380E-03  4.6375743657224E-02  1.5768326095152E-01  3.4321327774035E-01  6.0299232930261E-01  9.3705773535799E-01  1.3454576114022E+00  1.8282508834893E+00  2.3855073067757E+00  2.6827607030409E+00 
 8.8255211907599E+03  8.8256823784045E+03  8.8262011215129E+03  8.8270775011409E+03  8.8283116543321E+03  8.8299037741084E+03  8.8318541095338E+03  8.8341629657945E+03  8.8368307042992E+03  8.8398577427963E+03 
 4.0487880172150E+03  4.0488710661486E+03  4.0491383397865E+03  4.0495898827521E+03  4.0502257704890E+03  4.0510461092588E+03  4.0520510361780E+03  4.0532407192633E+03  4.0546153574899E+03  4.0561751808583E+03 
 4.7767331735450E+03  4.7768113122559E+03  4.7770627817264E+03  4.7774876183888E+03  4.7780858838431E+03  4.7788576648496E+03  4.7798030733559E+03  4.7809222465312E+03  4.7822153468093E+03  4.7836825619379E+03 
ZONE T = "CATH, 4.0000E-08", I = 10, SOLUTIONTIME = 4.000000E-08
ZONETYPE = ORDERED
DATAPACKING = BLOCK
STRANDID = 3
 1.2700000000000E-03  1.3377333333333E-03  1.4054666666667E-03  1.4732000000000E-03  1.5409333333333E-03  1.6086666666667E-03  1.6764000000000E-03  1.7441333333333E-03  1.8118666666667E-03  1.8796000000000E-03 
 8.2375676560143E-09  7.2689449117926E-09  6.3006344024431E-09  5.3318745709847E-09  4.3633566788611E-09  3.3946823467463E-09  2.4254531726226E-09  1.4574499730346E-09  4.8773183114070E-10  2.7240579583553E-12 
 9.2000000000053E-01  9.2000000000150E-01  9.2000000000150E-01  9.2000000000150E-01  9.2000000000150E-01  9.2000000000150E-01  9.2000000000150E-01  9.2000000000150E-01  9.2000000000150E-01  9.2000000000151E-01 
 3.9999999999734E-02  3.9999999999248E-02  3.9999999999248E-02  3.9999999999248E-02  3.9999999999248E-02  3.9999999999248E-02  3.9999999999248E-02  3.9999999999248E-02  3.9999999999248E-02  3.9999999999247E-02 
 3.9999999999734E-02  3.9999999999248E-02  3.9999999999248E-02  3.9999999999248E-02  3.9999999999248E-02  3.9999999999248E-02  3.9999999999248E-02  3.9999999999248E-02  3.9999999999248E-02  3.9999999999247E-02 
 1.8787027749994E-02  1.8786943608957E-02  1.8786869361946E-02  1.8786805009481E-02  1.8786750552442E-02  1.8786705992069E-02  1.8786671329960E-02  1.8786646568072E-02  1.8786631708725E-02  1.8786626754596E-02 
 3.8000730064805E+00  3.8000721053792E+00  3.8000694020459E+00  3.8000648963856E+00  3.8000585882381E+00  3.8000504773777E+00  3.8000405635131E+00  3.8000288462878E+00  3.8000153252793E+00  3.8000000000000E+00 
 3.7812859787305E+00  3.7812851617702E+00  3.7812825326839E+00  3.7812780913761E+00  3.7812718376856E+00  3.7812637713856E+00  3.7812538921832E+00  3.7812421997197E+00  3.7812286935706E+00  3.7812133732454E+00 
 3.9779642109144E+00  3.9779642109141E+00  3.9779642109141E+00  3.9779642109141E+00  3.9779642109141E+00  3.9779642109141E+00  3.9779642109141E+00  3.9779642109141E+00  3.9779642109141E+00  3.9779642109141E+00 
-1.9667823218393E-01 -1.9667904914388E-01 -1.9668167823021E-01 -1.9668611953802E-01 -1.9669237322847E-01 -1.9670043952853E-01 -1.9671031873096E-01 -1.9672201119443E-01 -1.9673551734350E-01 -1.9675083766872E-01 
-6.9717402205541E-01 -1.3943708531165E+00 -1.3944442580884E+00 -1.3945682696561E+00 -1.3947429058009E+00 -1.3949681918484E+00 -1.3952441604767E+00 -1.3955708517260E+00 -1.3959483130114E+00 -6.9818829956858E-01 