TITLE = "Solution on Domain BulkDomain1D_1"
VARIABLES = "x [m]"  
"Vel_axial" 	"MF_sp(ECDMC)" 	"MF_sp(Li+)" 	"MF_sp(PF6-)" 	"Volt(Electroly)" 	"Porosity []" 	"Control volume thickness [m]" 	"volFrac MgO(S) []" 	"qHeat_accum [J/m3]" 	"qHeat_step [W/m3]" 	"Joule_Lyte [W/m3]" 	"Joule_Solid [W/m3]" 	
ZONE T = "SEP , 0.0000E+00", I = 10, SOLUTIONTIME = 0.000000E+00
ZONETYPE = ORDERED
DATAPACKING = BLOCK
STRANDID = 2
 7.8740000000000E-04  8.4102222222222E-04  8.9464444444444E-04  9.4826666666667E-04  1.0018888888889E-03  1.0555111111111E-03  1.1091333333333E-03  1.1627555555556E-03  1.2163777777778E-03  1.2700000000000E-03 
 0.0000000000000E+00  0.0000000000000E+00  0.0000000000000E+00  0.0000000000000E+00  0.0000000000000E+00  0.0000000000000E+00  0.0000000000000E+00  0.0000000000000E+00  0.0000000000000E+00  0.0000000000000E+00 
 9.2000000000000E-01  9.2000000000000E-01  9.2000000000000E-01  9.2000000000000E-01  9.2000000000000E-01  9.2000000000000E-01  9.2000000000000E-01  9.2000000000000E-01  9.2000000000000E-01  9.2000000000000E-01 
 4.0000000000000E-02  4.0000000000000E-02  4.0000000000000E-02  4.0000000000000E-02  4.0000000000000E-02  4.0000000000000E-02  4.0000000000000E-02  4.0000000000000E-02  4.0000000000000E-02  4.0000000000000E-02 
 4.0000000000000E-02  4.0000000000000E-02  4.0000000000000E-02  4.0000000000000E-02  4.0000000000000E-02  4.0000000000000E-02  4.0000000000000E-02  4.0000000000000E-02  4.0000000000000E-02  4.0000000000000E-02 
-7.0000000000000E-02 -7.0000000000000E-02 -7.0000000000000E-02 -7.0000000000000E-02 -7.0000000000000E-02 -7.0000000000000E-02 -7.0000000000000E-02 -7.0000000000000E-02 -7.0000000000000E-02 -7.0000000000000E-02 
 8.0911139820575E-01  8.0911139820575E-01  8.0911139820575E-01  8.0911139820575E-01  8.0911139820575E-01  8.0911139820575E-01  8.0911139820575E-01  8.0911139820575E-01  8.0911139820575E-01  8.0911139820575E-01 
 2.6811111111111E-05  5.3622222222222E-05  5.3622222222222E-05  5.3622222222222E-05  5.3622222222222E-05  5.3622222222222E-05  5.3622222222222E-05  5.3622222222223E-05  5.3622222222222E-05  2.6811111111111E-05 
 1.9088860179425E-01  1.9088860179425E-01  1.9088860179425E-01  1.9088860179425E-01  1.9088860179425E-01  1.9088860179425E-01  1.9088860179425E-01  1.9088860179425E-01  1.9088860179425E-01  1.9088860179425E-01 
 0.0000000000000E+00  0.0000000000000E+00  0.0000000000000E+00  0.0000000000000E+00  0.0000000000000E+00  0.0000000000000E+00  0.0000000000000E+00  0.0000000000000E+00  0.0000000000000E+00  0.0000000000000E+00 
 0.0000000000000E+00  0.0000000000000E+00  0.0000000000000E+00  0.0000000000000E+00  0.0000000000000E+00  0.0000000000000E+00  0.0000000000000E+00  0.0000000000000E+00  0.0000000000000E+00  0.0000000000000E+00 
 0.0000000000000E+00  0.0000000000000E+00  0.0000000000000E+00  0.0000000000000E+00  0.0000000000000E+00  0.0000000000000E+00  0.0000000000000E+00  0.0000000000000E+00  0.0000000000000E+00  0.0000000000000E+00 
 0.0000000000000E+00  0.0000000000000E+00  0.0000000000000E+00  0.0000000000000E+00  0.0000000000000E+00  0.0000000000000E+00  0.0000000000000E+00  0.0000000000000E+00  0.0000000000000E+00  0.0000000000000E+00 
ZONE T = "SEP , 1.0000E-08", I = 10, SOLUTIONTIME = 1.000000E-08
ZONETYPE = ORDERED
DATAPACKING = BLOCK
STRANDID = 2
 7.8740000000000E-04  8.4102222222222E-04  8.9464444444444E-04  9.4826666666667E-04  1.0018888888889E-03  1.0555111111111E-03  1.1091333333333E-03  1.1627555555556E-03  1.2163777777778E-03  1.2700000000000E-03 
 8.7211568249491E-09  8.7211568249491E-09  8.7211568249491E-09  8.7211568249491E-09  8.7211568249490E-09  8.7211568249490E-09  8.7211568249490E-09  8.7211568249490E-09  8.7211568249490E-09  8.2365095572770E-09 
 9.1999999999988E-01  9.2000000000000E-01  9.2000000000000E-01  9.2000000000000E-01  9.2000000000000E-01  9.2000000000000E-01  9.2000000000000E-01  9.2000000000000E-01  9.2000000000000E-01  9.2000000000013E-01 
 4.0000000000060E-02  4.0000000000000E-02  4.0000000000000E-02  4.0000000000000E-02  4.0000000000000E-02  4.0000000000000E-02  4.0000000000000E-02  4.0000000000000E-02  4.0000000000000E-02  3.9999999999934E-02 
 4.0000000000060E-02  4.0000000000000E-02  4.0000000000000E-02  4.0000000000000E-02  4.0000000000000E-02  4.0000000000000E-02  4.0000000000000E-02  4.0000000000000E-02  4.0000000000000E-02  3.9999999999934E-02 
 1.8787190986535E-02  1.8787170921770E-02  1.8787150857064E-02  1.8787130792301E-02  1.8787110727593E-02  1.8787090662823E-02  1.8787070598120E-02  1.8787050533357E-02  1.8787030468594E-02  1.8787010403880E-02 
 8.0911139820575E-01  8.0911139820575E-01  8.0911139820575E-01  8.0911139820575E-01  8.0911139820575E-01  8.0911139820575E-01  8.0911139820575E-01  8.0911139820575E-01  8.0911139820575E-01  8.0911139820575E-01 
 2.6811111111111E-05  5.3622222222222E-05  5.3622222222222E-05  5.3622222222222E-05  5.3622222222222E-05  5.3622222222222E-05  5.3622222222222E-05  5.3622222222223E-05  5.3622222222222E-05  2.6811111111111E-05 
 1.9088860179425E-01  1.9088860179425E-01  1.9088860179425E-01  1.9088860179425E-01  1.9088860179425E-01  1.9088860179425E-01  1.9088860179425E-01  1.9088860179425E-01  1.9088860179425E-01  1.9088860179425E-01 
 4.6978234678952E-11  4.6978096139330E-11  4.6978090639961E-11  4.6978094011045E-11  4.6978111451385E-11  4.6978100428344E-11  4.6978082411264E-11  4.6978223103471E-11  4.6978108080231E-11  4.6977992480249E-11 
 4.6978234678952E-03  4.6978096139330E-03  4.6978090639961E-03  4.6978094011045E-03  4.6978111451385E-03  4.6978100428344E-03  4.6978082411264E-03  4.6978223103471E-03  4.6978108080231E-03  4.6977992480249E-03 
 4.6978234678952E-03  4.6978096139330E-03  4.6978090639961E-03  4.6978094011045E-03  4.6978111451385E-03  4.6978100428344E-03  4.6978082411264E-03  4.6978223103471E-03  4.6978108080231E-03  4.6977992480249E-03 
 0.0000000000000E+00  0.0000000000000E+00  0.0000000000000E+00  0.0000000000000E+00  0.0000000000000E+00  0.0000000000000E+00  0.0000000000000E+00  0.0000000000000E+00  0.0000000000000E+00  0.0000000000000E+00 
ZONE T = "SEP , 2.0000E-08", I = 10, SOLUTIONTIME = 2.000000E-08
ZONETYPE = ORDERED
DATAPACKING = BLOCK
STRANDID = 2
 7.8740000000000E-04  8.4102222222222E-04  8.9464444444444E-04  9.4826666666667E-04  1.0018888888889E-03  1.0555111111111E-03  1.1091333333333E-03  1.1627555555556E-03  1.2163777777778E-03  1.2700000000000E-03 
 8.7229607320639E-09  8.7229607320639E-09  8.7229607320639E-09  8.7229607320639E-09  8.7229607320639E-09  8.7229607320639E-09  8.7229607320639E-09  8.7229607320639E-09  8.7229607320639E-09  8.2381124677136E-09 
 9.1999999999976E-01  9.2000000000000E-01  9.2000000000000E-01  9.2000000000000E-01  9.2000000000000E-01  9.2000000000000E-01  9.2000000000000E-01  9.2000000000000E-01  9.2000000000000E-01  9.2000000000027E-01 
 4.0000000000120E-02  4.0000000000000E-02  4.0000000000000E-02  4.0000000000000E-02  4.0000000000000E-02  4.0000000000000E-02  4.0000000000000E-02  4.0000000000000E-02  4.0000000000000E-02  3.9999999999867E-02 
 4.0000000000120E-02  4.0000000000000E-02  4.0000000000000E-02  4.0000000000000E-02  4.0000000000000E-02  4.0000000000000E-02  4.0000000000000E-02  4.0000000000000E-02  4.0000000000000E-02  3.9999999999867E-02 
 1.8787208340023E-02  1.8787188274476E-02  1.8787168208929E-02  1.8787148143382E-02  1.8787128077835E-02  1.8787108012288E-02  1.8787087946741E-02  1.8787067881195E-02  1.8787047815648E-02  1.8787027750101E-02 
 8.0911139820575E-01  8.0911139820575E-01  8.0911139820575E-01  8.0911139820575E-01  8.0911139820575E-01  8.0911139820575E-01  8.0911139820575E-01  8.0911139820575E-01  8.0911139820575E-01  8.0911139820575E-01 
 2.6811111111111E-05  5.3622222222222E-05  5.3622222222222E-05  5.3622222222222E-05  5.3622222222222E-05  5.3622222222222E-05  5.3622222222222E-05  5.3622222222223E-05  5.3622222222222E-05  2.6811111111111E-05 
 1.9088860179425E-01  1.9088860179425E-01  1.9088860179425E-01  1.9088860179425E-01  1.9088860179425E-01  1.9088860179425E-01  1.9088860179425E-01  1.9088860179425E-01  1.9088860179425E-01  1.9088860179425E-01 
 9.3960129073398E-11  9.3959990525617E-11  9.3959985026212E-11  9.3959988405420E-11  9.3960005845760E-11  9.3959994814596E-11  9.3959976797515E-11  9.3960117497846E-11  9.3960002466444E-11  9.3959886858300E-11 
 4.6981894394446E-03  4.6981894386287E-03  4.6981894386252E-03  4.6981894394375E-03  4.6981894394375E-03  4.6981894386252E-03  4.6981894386252E-03  4.6981894394375E-03  4.6981894386213E-03  4.6981894378050E-03 
 4.6981894394446E-03  4.6981894386287E-03  4.6981894386252E-03  4.6981894394375E-03  4.6981894394375E-03  4.6981894386252E-03  4.6981894386252E-03  4.6981894394375E-03  4.6981894386213E-03  4.6981894378050E-03 
 0.0000000000000E+00  0.0000000000000E+00  0.0000000000000E+00  0.0000000000000E+00  0.0000000000000E+00  0.0000000000000E+00  0.0000000000000E+00  0.0000000000000E+00  0.0000000000000E+00  0.0000000000000E+00 
ZONE T = "SEP , 3.0000E-08", I = 10, SOLUTIONTIME = 3.000000E-08
ZONETYPE = ORDERED
DATAPACKING = BLOCK
STRANDID = 2
 7.8740000000000E-04  8.4102222222222E-04  8.9464444444444E-04  9.4826666666667E-04  1.0018888888889E-03  1.0555111111111E-03  1.1091333333333E-03  1.1627555555556E-03  1.2163777777778E-03  1.2700000000000E-03 
 8.7171494083639E-09  8.7171494083638E-09  8.7171494083638E-09  8.7171494083638E-09  8.7171494083638E-09  8.7171494083638E-09  8.7171494083638E-09  8.7171494083638E-09  8.7171494083638E-09  8.2337539749263E-09 
 9.1999999999964E-01  9.2000000000000E-01  9.2000000000000E-01  9.2000000000000E-01  9.2000000000000E-01  9.2000000000000E-01  9.2000000000000E-01  9.2000000000000E-01  9.2000000000000E-01  9.2000000000040E-01 
 4.0000000000181E-02  4.0000000000000E-02  4.0000000000000E-02  4.0000000000000E-02  4.0000000000000E-02  4.0000000000000E-02  4.0000000000000E-02  4.0000000000000E-02  4.0000000000000E-02  3.9999999999801E-02 
 4.0000000000181E-02  4.0000000000000E-02  4.0000000000000E-02  4.0000000000000E-02  4.0000000000000E-02  4.0000000000000E-02  4.0000000000000E-02  4.0000000000000E-02  4.0000000000000E-02  3.9999999999801E-02 
 1.8787208339969E-02  1.8787188274422E-02  1.8787168208875E-02  1.8787148143328E-02  1.8787128077781E-02  1.8787108012234E-02  1.8787087946687E-02  1.8787067881140E-02  1.8787047815594E-02  1.8787027750047E-02 
 8.0911139820575E-01  8.0911139820575E-01  8.0911139820575E-01  8.0911139820575E-01  8.0911139820575E-01  8.0911139820575E-01  8.0911139820575E-01  8.0911139820575E-01  8.0911139820575E-01  8.0911139820575E-01 
 2.6811111111111E-05  5.3622222222222E-05  5.3622222222222E-05  5.3622222222222E-05  5.3622222222222E-05  5.3622222222222E-05  5.3622222222222E-05  5.3622222222223E-05  5.3622222222222E-05  2.6811111111111E-05 
 1.9088860179425E-01  1.9088860179425E-01  1.9088860179425E-01  1.9088860179425E-01  1.9088860179425E-01  1.9088860179425E-01  1.9088860179425E-01  1.9088860179425E-01  1.9088860179425E-01  1.9088860179425E-01 
 1.4094202346788E-10  1.4094188492004E-10  1.4094187941246E-10  1.4094188279167E-10  1.4094190024013E-10  1.4094188920085E-10  1.4094187118377E-10  1.4094201189222E-10  1.4094189685264E-10  1.4094178123631E-10 
 4.6981894394481E-03  4.6981894394428E-03  4.6981894386252E-03  4.6981894386252E-03  4.6981894394375E-03  4.6981894386252E-03  4.6981894386252E-03  4.6981894394375E-03  4.6981894386193E-03  4.6981894378011E-03 
 4.6981894394481E-03  4.6981894394428E-03  4.6981894386252E-03  4.6981894386252E-03  4.6981894394375E-03  4.6981894386252E-03  4.6981894386252E-03  4.6981894394375E-03  4.6981894386193E-03  4.6981894378011E-03 
 0.0000000000000E+00  0.0000000000000E+00  0.0000000000000E+00  0.0000000000000E+00  0.0000000000000E+00  0.0000000000000E+00  0.0000000000000E+00  0.0000000000000E+00  0.0000000000000E+00  0.0000000000000E+00 
ZONE T = "SEP , 4.0000E-08", I = 10, SOLUTIONTIME = 4.000000E-08
ZONETYPE = ORDERED
DATAPACKING = BLOCK
STRANDID = 2
 7.8740000000000E-04  8.4102222222222E-04  8.9464444444444E-04  9.4826666666667E-04  1.0018888888889E-03  1.0555111111111E-03  1.1091333333333E-03  1.1627555555556E-03  1.2163777777778E-03  1.2700000000000E-03 
 8.7222343164974E-09  8.7222343164974E-09  8.7222343164974E-09  8.7222343164974E-09  8.7222343164974E-09  8.7222343164974E-09  8.7222343164974E-09  8.7222343164974E-09  8.7222343164974E-09  8.2375676560143E-09 
 9.1999999999952E-01  9.2000000000000E-01  9.2000000000000E-01  9.2000000000000E-01  9.2000000000000E-01  9.2000000000000E-01  9.2000000000000E-01  9.2000000000000E-01  9.2000000000000E-01  9.2000000000053E-01 
 4.0000000000241E-02  4.0000000000000E-02  4.0000000000000E-02  4.0000000000000E-02  4.0000000000000E-02  4.0000000000000E-02  4.0000000000000E-02  4.0000000000000E-02  4.0000000000000E-02  3.9999999999734E-02 
 4.0000000000241E-02  4.0000000000000E-02  4.0000000000000E-02  4.0000000000000E-02  4.0000000000000E-02  4.0000000000000E-02  4.0000000000000E-02  4.0000000000000E-02  4.0000000000000E-02  3.9999999999734E-02 
 1.8787208339916E-02  1.8787188274369E-02  1.8787168208822E-02  1.8787148143275E-02  1.8787128077728E-02  1.8787108012181E-02  1.8787087946634E-02  1.8787067881087E-02  1.8787047815540E-02  1.8787027749994E-02 
 8.0911139820575E-01  8.0911139820575E-01  8.0911139820575E-01  8.0911139820575E-01  8.0911139820575E-01  8.0911139820575E-01  8.0911139820575E-01  8.0911139820575E-01  8.0911139820575E-01  8.0911139820575E-01 
 2.6811111111111E-05  5.3622222222222E-05  5.3622222222222E-05  5.3622222222222E-05  5.3622222222222E-05  5.3622222222222E-05  5.3622222222222E-05  5.3622222222223E-05  5.3622222222222E-05  2.6811111111111E-05 
 1.9088860179425E-01  1.9088860179425E-01  1.9088860179425E-01  1.9088860179425E-01  1.9088860179425E-01  1.9088860179425E-01  1.9088860179425E-01  1.9088860179425E-01  1.9088860179425E-01  1.9088860179425E-01 
 1.8792391786240E-10  1.8792377930637E-10  1.8792377379872E-10  1.8792377718605E-10  1.8792379462639E-10  1.8792378358710E-10  1.8792376557814E-10  1.8792390627847E-10  1.8792379123881E-10  1.8792367563053E-10 
 4.6981894394517E-03  4.6981894386322E-03  4.6981894386252E-03  4.6981894394375E-03  4.6981894386252E-03  4.6981894386252E-03  4.6981894394375E-03  4.6981894386251E-03  4.6981894386174E-03  4.6981894394219E-03 
 4.6981894394517E-03  4.6981894386322E-03  4.6981894386252E-03  4.6981894394375E-03  4.6981894386252E-03  4.6981894386252E-03  4.6981894394375E-03  4.6981894386251E-03  4.6981894386174E-03  4.6981894394219E-03 
 0.0000000000000E+00  0.0000000000000E+00  0.0000000000000E+00  0.0000000000000E+00  0.0000000000000E+00  0.0000000000000E+00  0.0000000000000E+00  0.0000000000000E+00  0.0000000000000E+00  0.0000000000000E+00 
ZONE T = "SEP , 5.5000E-08", I = 10, SOLUTIONTIME = 5.500000E-08
ZONETYPE = ORDERED
DATAPACKING = BLOCK
STRANDID = 2
 7.8740000000000E-04  8.4102222222222E-04  8.9464444444444E-04  9.4826666666667E-04  1.0018888888889E-03  1.0555111111111E-03  1.1091333333333E-03  1.1627555555556E-03  1.2163777777778E-03  1.2700000000000E-03 
 8.7128514501385E-09  8.7128514501385E-09  8.7128514501385E-09  8.7128514501385E-09  8.7128514501385E-09  8.7128514501385E-09  8.7128514501385E-09  8.7128514501385E-09  8.7128514501385E-09  8.2293349474619E-09 
 9.1999999999934E-01  9.2000000000000E-01  9.2000000000000E-01  9.2000000000000E-01  9.2000000000000E-01  9.2000000000000E-01  9.2000000000000E-01  9.2000000000000E-01  9.2000000000000E-01  9.2000000000073E-01 
 4.0000000000331E-02  4.0000000000000E-02  4.0000000000000E-02  4.0000000000000E-02  4.0000000000000E-02  4.0000000000000E-02  4.0000000000000E-02  4.0000000000000E-02  4.0000000000000E-02  3.9999999999635E-02 
 4.0000000000331E-02  4.0000000000000E-02  4.0000000000000E-02  4.0000000000000E-02  4.0000000000000E-02  4.0000000000000E-02  4.0000000000000E-02  4.0000000000000E-02  4.0000000000000E-02  3.9999999999635E-02 
 1.8787208339855E-02  1.8787188274308E-02  1.8787168208762E-02  1.8787148143215E-02  1.8787128077668E-02  1.8787108012121E-02  1.8787087946574E-02  1.8787067881027E-02  1.8787047815480E-02  1.8787027749933E-02 
 8.0911139820575E-01  8.0911139820575E-01  8.0911139820575E-01  8.0911139820575E-01  8.0911139820575E-01  8.0911139820575E-01  8.0911139820575E-01  8.0911139820575E-01  8.0911139820575E-01  8.0911139820575E-01 
 2.6811111111111E-05  5.3622222222222E-05  5.3622222222222E-05  5.3622222222222E-05  5.3622222222222E-05  5.3622222222222E-05  5.3622222222222E-05  5.3622222222223E-05  5.3622222222222E-05  2.6811111111111E-05 
 1.9088860179425E-01  1.9088860179425E-01  1.9088860179425E-01  1.9088860179425E-01  1.9088860179425E-01  1.9088860179425E-01  1.9088860179425E-01  1.9088860179425E-01  1.9088860179425E-01  1.9088860179425E-01 
 2.5839675942988E-10  2.5839662088589E-10  2.5839661539028E-10  2.5839661876542E-10  2.5839663620576E-10  2.5839662517866E-10  2.5839660715752E-10  2.5839674785785E-10  2.5839663281803E-10  2.5839651719740E-10 
 4.6981894378323E-03  4.6981894386349E-03  4.6981894394375E-03  4.6981894386252E-03  4.6981894386252E-03  4.6981894394375E-03  4.6981894386252E-03  4.6981894386251E-03  4.6981894386144E-03  4.6981894377914E-03 
 4.6981894378323E-03  4.6981894386349E-03  4.6981894394375E-03  4.6981894386252E-03  4.6981894386252E-03  4.6981894394375E-03  4.6981894386252E-03  4.6981894386251E-03  4.6981894386144E-03  4.6981894377914E-03 
 0.0000000000000E+00  0.0000000000000E+00  0.0000000000000E+00  0.0000000000000E+00  0.0000000000000E+00  0.0000000000000E+00  0.0000000000000E+00  0.0000000000000E+00  0.0000000000000E+00  0.0000000000000E+00 
ZONE T = "SEP , 7.7500E-08", I = 10, SOLUTIONTIME = 7.750000E-08
ZONETYPE = ORDERED
DATAPACKING = BLOCK
STRANDID = 2
 7.8740000000000E-04  8.4102222222222E-04  8.9464444444444E-04  9.4826666666667E-04  1.0018888888889E-03  1.0555111111111E-03  1.1091333333333E-03  1.1627555555556E-03  1.2163777777778E-03  1.2700000000000E-03 
 8.7210034457134E-09  8.7210034457134E-09  8.7210034457134E-09  8.7210034457134E-09  8.7210034457134E-09  8.7210034457134E-09  8.7210034457134E-09  8.7210034457134E-09  8.7210034457134E-09  8.2367201711701E-09 
 9.1999999999907E-01  9.2000000000000E-01  9.2000000000000E-01  9.2000000000000E-01  9.2000000000000E-01  9.2000000000000E-01  9.2000000000000E-01  9.2000000000000E-01  9.2000000000000E-01  9.2000000000103E-01 
 4.0000000000467E-02  4.0000000000000E-02  4.0000000000000E-02  4.0000000000000E-02  4.0000000000000E-02  4.0000000000000E-02  4.0000000000000E-02  4.0000000000000E-02  4.0000000000000E-02  3.9999999999486E-02 
 4.0000000000467E-02  4.0000000000000E-02  4.0000000000000E-02  4.0000000000000E-02  4.0000000000000E-02  4.0000000000000E-02  4.0000000000000E-02  4.0000000000000E-02  4.0000000000000E-02  3.9999999999486E-02 
 1.8787208339741E-02  1.8787188274194E-02  1.8787168208648E-02  1.8787148143101E-02  1.8787128077554E-02  1.8787108012007E-02  1.8787087946460E-02  1.8787067880913E-02  1.8787047815366E-02  1.8787027749819E-02 
 8.0911139820575E-01  8.0911139820575E-01  8.0911139820575E-01  8.0911139820575E-01  8.0911139820575E-01  8.0911139820575E-01  8.0911139820575E-01  8.0911139820575E-01  8.0911139820575E-01  8.0911139820575E-01 
 2.6811111111111E-05  5.3622222222222E-05  5.3622222222222E-05  5.3622222222222E-05  5.3622222222222E-05  5.3622222222222E-05  5.3622222222222E-05  5.3622222222223E-05  5.3622222222222E-05  2.6811111111111E-05 
 1.9088860179425E-01  1.9088860179425E-01  1.9088860179425E-01  1.9088860179425E-01  1.9088860179425E-01  1.9088860179425E-01  1.9088860179425E-01  1.9088860179425E-01  1.9088860179425E-01  1.9088860179425E-01 
 3.6410602181784E-10  3.6410588325526E-10  3.6410587775934E-10  3.6410588113449E-10  3.6410589857483E-10  3.6410588756601E-10  3.6410586952659E-10  3.6410601022691E-10  3.6410589518675E-10  3.6410577954751E-10 
 4.6981894394649E-03  4.6981894386389E-03  4.6981894386252E-03  4.6981894386252E-03  4.6981894386252E-03  4.6981894394375E-03  4.6981894386252E-03  4.6981894386251E-03  4.6981894386101E-03  4.6981894377826E-03 
 4.6981894394649E-03  4.6981894386389E-03  4.6981894386252E-03  4.6981894386252E-03  4.6981894386252E-03  4.6981894394375E-03  4.6981894386252E-03  4.6981894386251E-03  4.6981894386101E-03  4.6981894377826E-03 
 0.0000000000000E+00  0.0000000000000E+00  0.0000000000000E+00  0.0000000000000E+00  0.0000000000000E+00  0.0000000000000E+00  0.0000000000000E+00  0.0000000000000E+00  0.0000000000000E+00  0.0000000000000E+00 
ZONE T = "SEP , 1.1125E-07", I = 10, SOLUTIONTIME = 1.112500E-07
ZONETYPE = ORDERED
DATAPACKING = BLOCK
STRANDID = 2
 7.8740000000000E-04  8.4102222222222E-04  8.9464444444444E-04  9.4826666666667E-04  1.0018888888889E-03  1.0555111111111E-03  1.1091333333333E-03  1.1627555555556E-03  1.2163777777778E-03  1.2700000000000E-03 
 8.7180439751992E-09  8.7180439751992E-09  8.7180439751992E-09  8.7180439751992E-09  8.7180439751992E-09  8.7180439751992E-09  8.7180439751992E-09  8.7180439751992E-09  8.7180439751992E-09  8.2339221263174E-09 
 9.1999999999866E-01  9.2000000000000E-01  9.2000000000000E-01  9.2000000000000E-01  9.2000000000000E-01  9.2000000000000E-01  9.2000000000000E-01  9.2000000000000E-01  9.2000000000000E-01  9.2000000000148E-01 
 4.0000000000670E-02  4.0000000000000E-02  4.0000000000000E-02  4.0000000000000E-02  4.0000000000000E-02  4.0000000000000E-02  4.0000000000000E-02  4.0000000000000E-02  4.0000000000000E-02  3.9999999999262E-02 
 4.0000000000670E-02  4.0000000000000E-02  4.0000000000000E-02  4.0000000000000E-02  4.0000000000000E-02  4.0000000000000E-02  4.0000000000000E-02  4.0000000000000E-02  4.0000000000000E-02  3.9999999999262E-02 
 1.8787208339570E-02  1.8787188274023E-02  1.8787168208476E-02  1.8787148142929E-02  1.8787128077382E-02  1.8787108011835E-02  1.8787087946288E-02  1.8787067880742E-02  1.8787047815195E-02  1.8787027749648E-02 
 8.0911139820575E-01  8.0911139820575E-01  8.0911139820575E-01  8.0911139820575E-01  8.0911139820575E-01  8.0911139820575E-01  8.0911139820575E-01  8.0911139820575E-01  8.0911139820575E-01  8.0911139820575E-01 
 2.6811111111111E-05  5.3622222222222E-05  5.3622222222222E-05  5.3622222222222E-05  5.3622222222222E-05  5.3622222222222E-05  5.3622222222222E-05  5.3622222222223E-05  5.3622222222222E-05  2.6811111111111E-05 
 1.9088860179425E-01  1.9088860179425E-01  1.9088860179425E-01  1.9088860179425E-01  1.9088860179425E-01  1.9088860179425E-01  1.9088860179425E-01  1.9088860179425E-01  1.9088860179425E-01  1.9088860179425E-01 
 5.2266991534535E-10  5.2266977678211E-10  5.2266977131294E-10  5.2266977468809E-10  5.2266979212843E-10  5.2266978111961E-10  5.2266976308019E-10  5.2266990378051E-10  5.2266978873962E-10  5.2266967312706E-10 
 4.6981894378522E-03  4.6981894378325E-03  4.6981894386252E-03  4.6981894386252E-03  4.6981894386252E-03  4.6981894386252E-03  4.6981894386252E-03  4.6981894386251E-03  4.6981894386035E-03  4.6981894393942E-03 
 4.6981894378522E-03  4.6981894378325E-03  4.6981894386252E-03  4.6981894386252E-03  4.6981894386252E-03  4.6981894386252E-03  4.6981894386252E-03  4.6981894386251E-03  4.6981894386035E-03  4.6981894393942E-03 
 0.0000000000000E+00  0.0000000000000E+00  0.0000000000000E+00  0.0000000000000E+00  0.0000000000000E+00  0.0000000000000E+00  0.0000000000000E+00  0.0000000000000E+00  0.0000000000000E+00  0.0000000000000E+00 
ZONE T = "SEP , 1.6188E-07", I = 10, SOLUTIONTIME = 1.618750E-07
ZONETYPE = ORDERED
DATAPACKING = BLOCK
STRANDID = 2
 7.8740000000000E-04  8.4102222222222E-04  8.9464444444444E-04  9.4826666666667E-04  1.0018888888889E-03  1.0555111111111E-03  1.1091333333333E-03  1.1627555555556E-03  1.2163777777778E-03  1.2700000000000E-03 
 8.7176673151237E-09  8.7176673151237E-09  8.7176673151237E-09  8.7176673151237E-09  8.7176673151237E-09  8.7176673151237E-09  8.7176673151237E-09  8.7176673151237E-09  8.7176673151237E-09  8.2335454662488E-09 
 9.1999999999805E-01  9.2000000000000E-01  9.2000000000000E-01  9.2000000000000E-01  9.2000000000000E-01  9.2000000000000E-01  9.2000000000000E-01  9.2000000000000E-01  9.2000000000000E-01  9.2000000000215E-01 
 4.0000000000974E-02  4.0000000000000E-02  4.0000000000000E-02  4.0000000000000E-02  4.0000000000000E-02  4.0000000000000E-02  4.0000000000000E-02  4.0000000000000E-02  4.0000000000000E-02  3.9999999998926E-02 
 4.0000000000974E-02  4.0000000000000E-02  4.0000000000000E-02  4.0000000000000E-02  4.0000000000000E-02  4.0000000000000E-02  4.0000000000000E-02  4.0000000000000E-02  4.0000000000000E-02  3.9999999998926E-02 
 1.8787208339311E-02  1.8787188273764E-02  1.8787168208217E-02  1.8787148142671E-02  1.8787128077124E-02  1.8787108011577E-02  1.8787087946030E-02  1.8787067880483E-02  1.8787047814936E-02  1.8787027749389E-02 
 8.0911139820575E-01  8.0911139820575E-01  8.0911139820575E-01  8.0911139820575E-01  8.0911139820575E-01  8.0911139820575E-01  8.0911139820575E-01  8.0911139820575E-01  8.0911139820575E-01  8.0911139820575E-01 
 2.6811111111111E-05  5.3622222222222E-05  5.3622222222222E-05  5.3622222222222E-05  5.3622222222222E-05  5.3622222222222E-05  5.3622222222222E-05  5.3622222222223E-05  5.3622222222222E-05  2.6811111111111E-05 
 1.9088860179425E-01  1.9088860179425E-01  1.9088860179425E-01  1.9088860179425E-01  1.9088860179425E-01  1.9088860179425E-01  1.9088860179425E-01  1.9088860179425E-01  1.9088860179425E-01  1.9088860179425E-01 
 7.6051575563752E-10  7.6051561711396E-10  7.6051561164334E-10  7.6051561497736E-10  7.6051563245883E-10  7.6051562145001E-10  7.6051560336946E-10  7.6051574411091E-10  7.6051562906842E-10  7.6051551341314E-10 
 4.6981894378701E-03  4.6981894386538E-03  4.6981894386252E-03  4.6981894378128E-03  4.6981894386252E-03  4.6981894386252E-03  4.6981894378128E-03  4.6981894386251E-03  4.6981894385936E-03  4.6981894377497E-03 
 4.6981894378701E-03  4.6981894386538E-03  4.6981894386252E-03  4.6981894378128E-03  4.6981894386252E-03  4.6981894386252E-03  4.6981894378128E-03  4.6981894386251E-03  4.6981894385936E-03  4.6981894377497E-03 
 0.0000000000000E+00  0.0000000000000E+00  0.0000000000000E+00  0.0000000000000E+00  0.0000000000000E+00  0.0000000000000E+00  0.0000000000000E+00  0.0000000000000E+00  0.0000000000000E+00  0.0000000000000E+00 
ZONE T = "SEP , 2.3781E-07", I = 10, SOLUTIONTIME = 2.378125E-07
ZONETYPE = ORDERED
DATAPACKING = BLOCK
STRANDID = 2
 7.8740000000000E-04  8.4102222222222E-04  8.9464444444444E-04  9.4826666666667E-04  1.0018888888889E-03  1.0555111111111E-03  1.1091333333333E-03  1.1627555555556E-03  1.2163777777778E-03  1.2700000000000E-03 
 8.7189228476955E-09  8.7189228476955E-09  8.7189228476955E-09  8.7189228476955E-09  8.7189228476955E-09  8.7189228476955E-09  8.7189228476955E-09  8.7189228476955E-09  8.7189228476955E-09  8.2348009988310E-09 
 9.1999999999714E-01  9.2000000000000E-01  9.2000000000000E-01  9.2000000000000E-01  9.2000000000000E-01  9.2000000000000E-01  9.2000000000000E-01  9.2000000000000E-01  9.2000000000000E-01  9.2000000000316E-01 
 4.0000000001431E-02  4.0000000000001E-02  4.0000000000000E-02  4.0000000000000E-02  4.0000000000000E-02  4.0000000000000E-02  4.0000000000000E-02  4.0000000000000E-02  3.9999999999999E-02  3.9999999998422E-02 
 4.0000000001431E-02  4.0000000000001E-02  4.0000000000000E-02  4.0000000000000E-02  4.0000000000000E-02  4.0000000000000E-02  4.0000000000000E-02  4.0000000000000E-02  3.9999999999999E-02  3.9999999998422E-02 
 1.8787208338925E-02  1.8787188273378E-02  1.8787168207831E-02  1.8787148142284E-02  1.8787128076737E-02  1.8787108011190E-02  1.8787087945643E-02  1.8787067880097E-02  1.8787047814550E-02  1.8787027749003E-02 
 8.0911139820575E-01  8.0911139820575E-01  8.0911139820575E-01  8.0911139820575E-01  8.0911139820575E-01  8.0911139820575E-01  8.0911139820575E-01  8.0911139820575E-01  8.0911139820575E-01  8.0911139820575E-01 
 2.6811111111111E-05  5.3622222222222E-05  5.3622222222222E-05  5.3622222222222E-05  5.3622222222222E-05  5.3622222222222E-05  5.3622222222222E-05  5.3622222222223E-05  5.3622222222222E-05  2.6811111111111E-05 
 1.9088860179425E-01  1.9088860179425E-01  1.9088860179425E-01  1.9088860179425E-01  1.9088860179425E-01  1.9088860179425E-01  1.9088860179425E-01  1.9088860179425E-01  1.9088860179425E-01  1.9088860179425E-01 
 1.1172845160778E-09  1.1172843775511E-09  1.1172843720773E-09  1.1172843754730E-09  1.1172843929544E-09  1.1172843818839E-09  1.1172843638034E-09  1.1172845045448E-09  1.1172843894988E-09  1.1172842738400E-09 
 4.6981894378969E-03  4.6981894378549E-03  4.6981894378128E-03  4.6981894386252E-03  4.6981894386252E-03  4.6981894378128E-03  4.6981894378128E-03  4.6981894378128E-03  4.6981894377664E-03  4.6981894377201E-03 
 4.6981894378969E-03  4.6981894378549E-03  4.6981894378128E-03  4.6981894386252E-03  4.6981894386252E-03  4.6981894378128E-03  4.6981894378128E-03  4.6981894378128E-03  4.6981894377664E-03  4.6981894377201E-03 
 0.0000000000000E+00  0.0000000000000E+00  0.0000000000000E+00  0.0000000000000E+00  0.0000000000000E+00  0.0000000000000E+00  0.0000000000000E+00  0.0000000000000E+00  0.0000000000000E+00  0.0000000000000E+00 
ZONE T = "SEP , 3.5172E-07", I = 10, SOLUTIONTIME = 3.517188E-07
ZONETYPE = ORDERED
DATAPACKING = BLOCK
STRANDID = 2
 7.8740000000000E-04  8.4102222222222E-04  8.9464444444444E-04  9.4826666666667E-04  1.0018888888889E-03  1.0555111111111E-03  1.1091333333333E-03  1.1627555555556E-03  1.2163777777778E-03  1.2700000000000E-03 
 8.7183568609708E-09  8.7183568609708E-09  8.7183568609708E-09  8.7183568609708E-09  8.7183568609708E-09  8.7183568609708E-09  8.7183568609708E-09  8.7183568609708E-09  8.7182930878718E-09  8.2341234091986E-09 
 9.1999999999577E-01  9.2000000000000E-01  9.2000000000000E-01  9.2000000000000E-01  9.2000000000000E-01  9.2000000000000E-01  9.2000000000000E-01  9.2000000000000E-01  9.2000000000000E-01  9.2000000000467E-01 
 4.0000000002117E-02  4.0000000000001E-02  4.0000000000000E-02  4.0000000000000E-02  4.0000000000000E-02  4.0000000000000E-02  4.0000000000000E-02  4.0000000000000E-02  3.9999999999998E-02  3.9999999997666E-02 