TITLE = "Solution on Domain BulkDomain1D_0"
VARIABLES = "x [m]"  
"Vel_axial" 
"MF_sp(ECDMC)" 
"MF_sp(Li+)" 
"MF_sp(PF6-)" 
"Volt(Electroly)" 
"Volt(AnodeVolt)" 
"Potential Drop Electrode-Electrolyte [V]" 
"Surf_0 Equilibrium Potential Drop Electrode-Electrolyte [V]" 
"Overpotential_0 [V]" 
"Current Source [A/m^2]" 
"Li+ flux [kmol/m^2/s]" 
"Electrolyte Current [A/m^2]" 
"Electrode Current [A/m^2]" 
"CV Capacity discharged [A-s/m^2]" 
"Depth of discharge in CV [A-s/m^2]" 
"CV Capacity remaining [A-s/m^2]" 
"Initial CV capacity [A-s/m^2]" 
"Porosity []" 
"Surface Area [m2/m2] (area per area)" 
"Specific current (per particle area) [A/m^2]" 
"Control volume thickness [m]" 
"MoleDens Li_C6-bulk [kmol/m^3]" 
"MoleDens V_C6-bulk [kmol/m^3]" 
"qHeat_accum [J/m3]" 
"qHeat_step [W/m3]" 
"Joule_Lyte [W/m3]" 
"Joule_Solid [W/m3]" 
"electrodHeat [W/m3]" 
"OverpotHeat [W/m3]" 
"deltaSHeat [W/m3]" 

ZONE T = "ANOD, 0.0000E+00", I = 10, SOLUTIONTIME = 0.000000E+00
ZONETYPE = ORDERED
DATAPACKING = BLOCK
STRANDID = 1
 0.0000000000000E+00  8.7488888888889E-05  1.7497777777778E-04  2.6246666666667E-04  3.4995555555556E-04  4.3744444444444E-04  5.2493333333333E-04  6.1242222222222E-04  6.9991111111111E-04  7.8740000000000E-04 
 0.0000000000000E+00  0.0000000000000E+00  0.0000000000000E+00  0.0000000000000E+00  0.0000000000000E+00  0.0000000000000E+00  0.0000000000000E+00  0.0000000000000E+00  0.0000000000000E+00  0.0000000000000E+00 
 9.2000000000000E-01  9.2000000000000E-01  9.2000000000000E-01  9.2000000000000E-01  9.2000000000000E-01  9.2000000000000E-01  9.2000000000000E-01  9.2000000000000E-01  9.2000000000000E-01  9.2000000000000E-01 
 4.0000000000000E-02  4.0000000000000E-02  4.0000000000000E-02  4.0000000000000E-02  4.0000000000000E-02  4.0000000000000E-02  4.0000000000000E-02  4.0000000000000E-02  4.0000000000000E-02  4.0000000000000E-02 
 4.0000000000000E-02  4.0000000000000E-02  4.0000000000000E-02  4.0000000000000E-02  4.0000000000000E-02  4.0000000000000E-02  4.0000000000000E-02  4.0000000000000E-02  4.0000000000000E-02  4.0000000000000E-02 
-7.0000000000000E-02 -7.0000000000000E-02 -7.0000000000000E-02 -7.0000000000000E-02 -7.0000000000000E-02 -7.0000000000000E-02 -7.0000000000000E-02 -7.0000000000000E-02 -7.0000000000000E-02 -7.0000000000000E-02 
 0.0000000000000E+00  0.0000000000000E+00  0.0000000000000E+00  0.0000000000000E+00  0.0000000000000E+00  0.0000000000000E+00  0.0000000000000E+00  0.0000000000000E+00  0.0000000000000E+00  0.0000000000000E+00 
 7.0000000000000E-02  7.0000000000000E-02  7.0000000000000E-02  7.0000000000000E-02  7.0000000000000E-02  7.0000000000000E-02  7.0000000000000E-02  7.0000000000000E-02  7.0000000000000E-02  7.0000000000000E-02 
-3.5236663142371E-02 -3.5236663142371E-02 -3.5236663142371E-02 -3.5236663142371E-02 -3.5236663142371E-02 -3.5236663142371E-02 -3.5236663142371E-02 -3.5236663142371E-02 -3.5236663142371E-02 -3.5236663142371E-02 
 1.0523666314237E-01  1.0523666314237E-01  1.0523666314237E-01  1.0523666314237E-01  1.0523666314237E-01  1.0523666314237E-01  1.0523666314237E-01  1.0523666314237E-01  1.0523666314237E-01  1.0523666314237E-01 
 8.4159647027042E+00  1.6831929405408E+01  1.6831929405408E+01  1.6831929405408E+01  1.6831929405408E+01  1.6831929405408E+01  1.6831929405408E+01  1.6831929405408E+01  1.6831929405408E+01  8.4159647027042E+00 
-0.0000000000000E+00 -0.0000000000000E+00 -0.0000000000000E+00 -0.0000000000000E+00 -0.0000000000000E+00 -0.0000000000000E+00 -0.0000000000000E+00 -0.0000000000000E+00 -0.0000000000000E+00 -0.0000000000000E+00 
 0.0000000000000E+00  0.0000000000000E+00  0.0000000000000E+00  0.0000000000000E+00  0.0000000000000E+00  0.0000000000000E+00  0.0000000000000E+00  0.0000000000000E+00  0.0000000000000E+00  8.4159647027042E+00 
 8.4159647027042E+00 -0.0000000000000E+00 -0.0000000000000E+00 -0.0000000000000E+00 -0.0000000000000E+00 -0.0000000000000E+00 -0.0000000000000E+00 -0.0000000000000E+00 -0.0000000000000E+00  0.0000000000000E+00 
 0.0000000000000E+00  0.0000000000000E+00  0.0000000000000E+00  0.0000000000000E+00  0.0000000000000E+00  0.0000000000000E+00  0.0000000000000E+00  0.0000000000000E+00  0.0000000000000E+00  0.0000000000000E+00 
 9.1448444543281E+04  1.8289688908656E+05  1.8289688908656E+05  1.8289688908656E+05  1.8289688908656E+05  1.8289688908656E+05  1.8289688908656E+05  1.8289688908656E+05  1.8289688908656E+05  9.1448444543281E+04 
 3.6579377817312E+05  7.3158755634625E+05  7.3158755634625E+05  7.3158755634625E+05  7.3158755634625E+05  7.3158755634625E+05  7.3158755634625E+05  7.3158755634625E+05  7.3158755634625E+05  3.6579377817312E+05 
 4.5724222271640E+05  9.1448444543281E+05  9.1448444543281E+05  9.1448444543281E+05  9.1448444543281E+05  9.1448444543281E+05  9.1448444543281E+05  9.1448444543281E+05  9.1448444543281E+05  4.5724222271640E+05 
 3.5000000000000E-01  3.5000000000000E-01  3.5000000000000E-01  3.5000000000000E-01  3.5000000000000E-01  3.5000000000000E-01  3.5000000000000E-01  3.5000000000000E-01  3.5000000000000E-01  3.5000000000000E-01 
 8.5301666666666E+00  1.7060333333333E+01  1.7060333333333E+01  1.7060333333333E+01  1.7060333333333E+01  1.7060333333333E+01  1.7060333333333E+01  1.7060333333333E+01  1.7060333333333E+01  8.5301666666666E+00 
 9.8661198914100E-01  9.8661198914100E-01  9.8661198914100E-01  9.8661198914100E-01  9.8661198914100E-01  9.8661198914100E-01  9.8661198914100E-01  9.8661198914100E-01  9.8661198914100E-01  9.8661198914100E-01 
 4.3744444444444E-05  8.7488888888889E-05  8.7488888888889E-05  8.7488888888889E-05  8.7488888888889E-05  8.7488888888889E-05  8.7488888888889E-05  8.7488888888889E-05  8.7488888888889E-05  4.3744444444444E-05 
 8.6666666666666E+01  8.6666666666666E+01  8.6666666666666E+01  8.6666666666666E+01  8.6666666666666E+01  8.6666666666666E+01  8.6666666666666E+01  8.6666666666666E+01  8.6666666666666E+01  8.6666666666666E+01 
 2.1666666666667E+01  2.1666666666667E+01  2.1666666666667E+01  2.1666666666667E+01  2.1666666666667E+01  2.1666666666667E+01  2.1666666666667E+01  2.1666666666667E+01  2.1666666666667E+01  2.1666666666667E+01 
 0.0000000000000E+00  0.0000000000000E+00  0.0000000000000E+00  0.0000000000000E+00  0.0000000000000E+00  0.0000000000000E+00  0.0000000000000E+00  0.0000000000000E+00  0.0000000000000E+00  0.0000000000000E+00 
 0.0000000000000E+00  0.0000000000000E+00  0.0000000000000E+00  0.0000000000000E+00  0.0000000000000E+00  0.0000000000000E+00  0.0000000000000E+00  0.0000000000000E+00  0.0000000000000E+00  0.0000000000000E+00 
 0.0000000000000E+00  0.0000000000000E+00  0.0000000000000E+00  0.0000000000000E+00  0.0000000000000E+00  0.0000000000000E+00  0.0000000000000E+00  0.0000000000000E+00  0.0000000000000E+00  0.0000000000000E+00 
 0.0000000000000E+00  0.0000000000000E+00  0.0000000000000E+00  0.0000000000000E+00  0.0000000000000E+00  0.0000000000000E+00  0.0000000000000E+00  0.0000000000000E+00  0.0000000000000E+00  0.0000000000000E+00 
 0.0000000000000E+00  0.0000000000000E+00  0.0000000000000E+00  0.0000000000000E+00  0.0000000000000E+00  0.0000000000000E+00  0.0000000000000E+00  0.0000000000000E+00  0.0000000000000E+00  0.0000000000000E+00 
 0.0000000000000E+00  0.0000000000000E+00  0.0000000000000E+00  0.0000000000000E+00  0.0000000000000E+00  0.0000000000000E+00  0.0000000000000E+00  0.0000000000000E+00  0.0000000000000E+00  0.0000000000000E+00 
 0.0000000000000E+00  0.0000000000000E+00  0.0000000000000E+00  0.0000000000000E+00  0.0000000000000E+00  0.0000000000000E+00  0.0000000000000E+00  0.0000000000000E+00  0.0000000000000E+00  0.0000000000000E+00 
ZONE T = "ANOD, 1.0000E-08", I = 10, SOLUTIONTIME = 1.000000E-08
ZONETYPE = ORDERED
DATAPACKING = BLOCK
STRANDID = 1
 0.0000000000000E+00  8.7488888888889E-05  1.7497777777778E-04  2.6246666666667E-04  3.4995555555556E-04  4.3744444444444E-04  5.2493333333333E-04  6.1242222222222E-04  6.9991111111111E-04  7.8740000000000E-04 
 4.8433211674733E-10  1.4529966193211E-09  2.4216621849545E-09  3.3903296074277E-09  4.3593628884789E-09  5.3280364061918E-09  6.2967141625366E-09  7.2657601587974E-09  8.2348119814870E-09  8.7180699758405E-09 
 9.1999999999971E-01  9.1999999999971E-01  9.1999999999971E-01  9.1999999999971E-01  9.1999999999971E-01  9.1999999999971E-01  9.1999999999971E-01  9.1999999999971E-01  9.1999999999971E-01  9.1999999999988E-01 
 4.0000000000146E-02  4.0000000000146E-02  4.0000000000146E-02  4.0000000000146E-02  4.0000000000146E-02  4.0000000000146E-02  4.0000000000146E-02  4.0000000000146E-02  4.0000000000146E-02  4.0000000000060E-02 
 4.0000000000146E-02  4.0000000000146E-02  4.0000000000146E-02  4.0000000000146E-02  4.0000000000146E-02  4.0000000000146E-02  4.0000000000146E-02  4.0000000000146E-02  4.0000000000146E-02  4.0000000000060E-02 
 1.8780175353997E-02  1.8780168961431E-02  1.8780149783728E-02  1.8780117820880E-02  1.8780073072912E-02  1.8780015539686E-02  1.8779945221255E-02  1.8779862117508E-02  1.8779766228391E-02  1.8779657553813E-02 
 0.0000000000000E+00 -1.9795497233649E-09 -3.7262137779210E-09 -5.2399919080851E-09 -6.5208836674379E-09 -7.5688884186660E-09 -8.3840053336722E-09 -8.9662333934069E-09 -9.3155713880355E-09 -9.4320179167710E-09 
-1.8780175353997E-02 -1.8780170940981E-02 -1.8780153509942E-02 -1.8780123060872E-02 -1.8780079593796E-02 -1.8780023108574E-02 -1.8779953605260E-02 -1.8779871083741E-02 -1.8779775543962E-02 -1.8779666985831E-02 
-3.5236663142168E-02 -3.5236663142170E-02 -3.5236663142168E-02 -3.5236663142168E-02 -3.5236663142164E-02 -3.5236663142168E-02 -3.5236663142168E-02 -3.5236663142164E-02 -3.5236663142164E-02 -3.5236663142217E-02 
 1.6456487788171E-02  1.6456492201189E-02  1.6456509632227E-02  1.6456540081296E-02  1.6456583548368E-02  1.6456640033594E-02  1.6456709536908E-02  1.6456792058423E-02  1.6456887598202E-02  1.6456996156386E-02 
 6.9750564091343E-01  1.3950116693386E+00  1.3950131999773E+00  1.3950158737439E+00  1.3950196906367E+00  1.3950246506695E+00  1.3950307538385E+00  1.3950380001548E+00  1.3950463896255E+00  6.9752796113033E-01 
 3.6144208472108E-09  1.0843266033387E-08  1.8072115089919E-08  2.5300949912646E-08  3.2529863676792E-08  3.9758746779310E-08  4.6987692761763E-08  5.4216669237929E-08  6.1445727028206E-08  6.1445727028206E-08 
 0.0000000000000E+00  1.3949547831016E+00  2.7899102765389E+00  4.1848647700552E+00  5.5798255066899E+00  6.9747909020517E+00  8.3697594060077E+00  9.7647369187162E+00  1.1159722311924E+01  1.2554745438701E+01 
 1.2554743964223E+01  1.1159761305038E+01  9.7648065030380E+00  8.3698495985879E+00  6.9748894484308E+00  5.5799249094666E+00  4.1849548384211E+00  2.7899780920166E+00  1.3949935269747E+00  0.0000000000000E+00 
 6.9750564091343E-09  1.3950116693386E-08  1.3950131999773E-08  1.3950158737439E-08  1.3950196906367E-08  1.3950246506695E-08  1.3950307538385E-08  1.3950380001548E-08  1.3950463896255E-08  6.9752796113033E-09 
 9.1448444543288E+04  1.8289688908658E+05  1.8289688908658E+05  1.8289688908658E+05  1.8289688908658E+05  1.8289688908658E+05  1.8289688908658E+05  1.8289688908658E+05  1.8289688908658E+05  9.1448444543288E+04 
 3.6579377817312E+05  7.3158755634623E+05  7.3158755634623E+05  7.3158755634623E+05  7.3158755634623E+05  7.3158755634623E+05  7.3158755634623E+05  7.3158755634623E+05  7.3158755634623E+05  3.6579377817312E+05 
 4.5724222271640E+05  9.1448444543281E+05  9.1448444543281E+05  9.1448444543281E+05  9.1448444543281E+05  9.1448444543281E+05  9.1448444543281E+05  9.1448444543281E+05  9.1448444543281E+05  4.5724222271640E+05 
 3.5000000000000E-01  3.5000000000000E-01  3.5000000000000E-01  3.5000000000000E-01  3.5000000000000E-01  3.5000000000000E-01  3.5000000000000E-01  3.5000000000000E-01  3.5000000000000E-01  3.5000000000000E-01 
 8.5301666666666E+00  1.7060333333333E+01  1.7060333333333E+01  1.7060333333333E+01  1.7060333333333E+01  1.7060333333333E+01  1.7060333333333E+01  1.7060333333333E+01  1.7060333333333E+01  8.5301666666666E+00 
 8.1769286365655E-02  8.1769309079849E-02  8.1769398799004E-02  8.1769555523175E-02  8.1769779252264E-02  8.1770069987078E-02  8.1770427727387E-02  8.1770852473857E-02  8.1771344226894E-02  8.1771902987085E-02 
 4.3744444444444E-05  8.7488888888889E-05  8.7488888888889E-05  8.7488888888889E-05  8.7488888888889E-05  8.7488888888889E-05  8.7488888888889E-05  8.7488888888889E-05  8.7488888888889E-05  4.3744444444444E-05 
 8.6666666666665E+01  8.6666666666665E+01  8.6666666666665E+01  8.6666666666665E+01  8.6666666666665E+01  8.6666666666665E+01  8.6666666666665E+01  8.6666666666665E+01  8.6666666666665E+01  8.6666666666665E+01 
 2.1666666666668E+01  2.1666666666668E+01  2.1666666666668E+01  2.1666666666668E+01  2.1666666666668E+01  2.1666666666668E+01  2.1666666666668E+01  2.1666666666668E+01  2.1666666666668E+01  2.1666666666668E+01 
-2.9339797728115E-05 -2.9339803433136E-05 -2.9339827287518E-05 -2.9339868957086E-05 -2.9339928441693E-05 -2.9340005741567E-05 -2.9340100856550E-05 -2.9340213786677E-05 -2.9340344531957E-05 -2.9340511439750E-05 
-2.9339797728115E+03 -2.9339803433136E+03 -2.9339827287518E+03 -2.9339868957086E+03 -2.9339928441693E+03 -2.9340005741567E+03 -2.9340100856550E+03 -2.9340213786677E+03 -2.9340344531957E+03 -2.9340511439750E+03 
 5.0962688803423E-05  2.5481359171651E-04  8.6636662254565E-04  1.8856206439500E-03  3.3125848158462E-03  5.1472594379250E-03  7.3896487406811E-03  1.0039765745607E-02  1.3097616461885E-02  1.4728477132322E-02 
 2.6828541476380E-04  2.3857937427938E-04  1.8288047895534E-04  1.3460795041079E-04  9.3761791792460E-05  6.0342030595063E-05  3.4348718655558E-05  1.5781932154931E-05  4.6417716239109E-06  9.2836193801178E-07 
-2.9339800920596E+03 -2.9339808367066E+03 -2.9339837779989E+03 -2.9339889159372E+03 -2.9339962505159E+03 -2.9340057817582E+03 -2.9340175096525E+03 -2.9340314342154E+03 -2.9340475554540E+03 -2.9340658733805E+03 
 2.6239887619360E+02  2.6239901944939E+02  2.6239958529810E+02  2.6240057374135E+02  2.6240198478079E+02  2.6240381842477E+02  2.6240607467602E+02  2.6240875354391E+02  2.6241185503717E+02  2.6241537916660E+02 
-3.1963789682532E+03 -3.1963798561560E+03 -3.1963833632970E+03 -3.1963894896785E+03 -3.1963982352967E+03 -3.1964096001830E+03 -3.1964235843285E+03 -3.1964401877593E+03 -3.1964594104912E+03 -3.1964812525471E+03 
ZONE T = "ANOD, 2.0000E-08", I = 10, SOLUTIONTIME = 2.000000E-08
ZONETYPE = ORDERED
DATAPACKING = BLOCK
STRANDID = 1
 0.0000000000000E+00  8.7488888888889E-05  1.7497777777778E-04  2.6246666666667E-04  3.4995555555556E-04  4.3744444444444E-04  5.2493333333333E-04  6.1242222222222E-04  6.9991111111111E-04  7.8740000000000E-04 
 4.8471480586581E-10  1.4537814789704E-09  2.4232124227296E-09  3.3926452232420E-09  4.3613542588802E-09  5.3304299466596E-09  6.2995098726872E-09  7.2682316230747E-09  8.2369591993950E-09  8.7213262974483E-09 
 9.1999999999942E-01  9.1999999999942E-01  9.1999999999942E-01  9.1999999999942E-01  9.1999999999942E-01  9.1999999999942E-01  9.1999999999942E-01  9.1999999999942E-01  9.1999999999942E-01  9.1999999999976E-01 
 4.0000000000291E-02  4.0000000000291E-02  4.0000000000291E-02  4.0000000000291E-02  4.0000000000291E-02  4.0000000000291E-02  4.0000000000291E-02  4.0000000000291E-02  4.0000000000291E-02  4.0000000000120E-02 
 4.0000000000291E-02  4.0000000000291E-02  4.0000000000291E-02  4.0000000000291E-02  4.0000000000291E-02  4.0000000000291E-02  4.0000000000291E-02  4.0000000000291E-02  4.0000000000291E-02  4.0000000000120E-02 
 1.8780192701166E-02  1.8780186308347E-02  1.8780167129886E-02  1.8780135165768E-02  1.8780090415970E-02  1.8780032880457E-02  1.8779962559182E-02  1.8779879452091E-02  1.8779783559116E-02  1.8779674880181E-02 
 0.0000000000000E+00 -1.9796293450339E-09 -3.7263636538512E-09 -5.2402026709037E-09 -6.5211459497920E-09 -7.5691928532653E-09 -8.3843425532198E-09 -8.9665940306989E-09 -9.3159460758914E-09 -9.4323972881304E-09 
-1.8780192701166E-02 -1.8780188287976E-02 -1.8780170856249E-02 -1.8780140405971E-02 -1.8780096937116E-02 -1.8780040449650E-02 -1.8779970943525E-02 -1.8779888418685E-02 -1.8779792875062E-02 -1.8779684312578E-02 
-3.5236663141962E-02 -3.5236663141957E-02 -3.5236663141962E-02 -3.5236663141962E-02 -3.5236663141964E-02 -3.5236663141963E-02 -3.5236663141963E-02 -3.5236663141964E-02 -3.5236663141964E-02 -3.5236663142070E-02 
 1.6456470440796E-02  1.6456474853981E-02  1.6456492285713E-02  1.6456522735991E-02  1.6456566204847E-02  1.6456622692313E-02  1.6456692198438E-02  1.6456774723278E-02  1.6456870266901E-02  1.6456978829492E-02 
 6.9750487926980E-01  1.3950101460661E+00  1.3950116767654E+00  1.3950143506378E+00  1.3950181676862E+00  1.3950231279159E+00  1.3950292313309E+00  1.3950364779379E+00  1.3950448677452E+00  6.9752720038234E-01 
 3.6145641683681E-09  1.0843694500901E-08  1.8072832772859E-08  2.5301984904532E-08  3.2531156811115E-08  3.9760354420743E-08  4.6989583663022E-08  5.4218850457066E-08  6.1448220998830E-08  6.1448220998830E-08 
 0.0000000000000E+00  1.3950099523239E+00  2.7900208636861E+00  4.1850338774755E+00  5.5800501365130E+00  6.9750707843765E+00  8.3700969640764E+00  9.7651298186228E+00  1.1160170491581E+01  1.2555220125942E+01 
 1.2555220125738E+01  1.1160210173435E+01  9.7651992620190E+00  8.3701862483174E+00  6.9751699891553E+00  5.5801493413543E+00  4.1851231617309E+00  2.7900903070965E+00  1.3950496342550E+00  0.0000000000000E+00 
 1.3950105201832E-08  2.7900218154047E-08  2.7900248767427E-08  2.7900302243817E-08  2.7900378583229E-08  2.7900477785854E-08  2.7900599851694E-08  2.7900744780927E-08  2.7900912573707E-08  1.3950551615127E-08 
 9.1448444543295E+04  1.8289688908659E+05  1.8289688908659E+05  1.8289688908659E+05  1.8289688908659E+05  1.8289688908659E+05  1.8289688908659E+05  1.8289688908659E+05  1.8289688908659E+05  9.1448444543295E+04 
 3.6579377817311E+05  7.3158755634622E+05  7.3158755634622E+05  7.3158755634622E+05  7.3158755634622E+05  7.3158755634622E+05  7.3158755634622E+05  7.3158755634622E+05  7.3158755634622E+05  3.6579377817311E+05 
 4.5724222271640E+05  9.1448444543281E+05  9.1448444543281E+05  9.1448444543281E+05  9.1448444543281E+05  9.1448444543281E+05  9.1448444543281E+05  9.1448444543281E+05  9.1448444543281E+05  4.5724222271640E+05 
 3.5000000000000E-01  3.5000000000000E-01  3.5000000000000E-01  3.5000000000000E-01  3.5000000000000E-01  3.5000000000000E-01  3.5000000000000E-01  3.5000000000000E-01  3.5000000000000E-01  3.5000000000000E-01 
 8.5301666666666E+00  1.7060333333333E+01  1.7060333333333E+01  1.7060333333333E+01  1.7060333333333E+01  1.7060333333333E+01  1.7060333333333E+01  1.7060333333333E+01  1.7060333333333E+01  8.5301666666666E+00 
 8.1769197077408E-02  8.1769219792471E-02  8.1769309515177E-02  8.1769466245551E-02  8.1769689983757E-02  8.1769980730108E-02  8.1770338484843E-02  8.1770763248346E-02  8.1771255021113E-02  8.1771813803835E-02 
 4.3744444444444E-05  8.7488888888889E-05  8.7488888888889E-05  8.7488888888889E-05  8.7488888888889E-05  8.7488888888889E-05  8.7488888888889E-05  8.7488888888889E-05  8.7488888888889E-05  4.3744444444444E-05 
 8.6666666666663E+01  8.6666666666663E+01  8.6666666666663E+01  8.6666666666663E+01  8.6666666666663E+01  8.6666666666663E+01  8.6666666666663E+01  8.6666666666663E+01  8.6666666666663E+01  8.6666666666663E+01 
 2.1666666666670E+01  2.1666666666670E+01  2.1666666666670E+01  2.1666666666670E+01  2.1666666666670E+01  2.1666666666670E+01  2.1666666666670E+01  2.1666666666670E+01  2.1666666666670E+01  2.1666666666670E+01 
-5.8679566184302E-05 -5.8679577594492E-05 -5.8679625303985E-05 -5.8679708644363E-05 -5.8679827615478E-05 -5.8679982217584E-05 -5.8680172450498E-05 -5.8680398314256E-05 -5.8680659808886E-05 -5.8680993630608E-05 
-2.9339768456186E+03 -2.9339774161356E+03 -2.9339798016467E+03 -2.9339839687277E+03 -2.9339899173785E+03 -2.9339976476016E+03 -2.9340071593947E+03 -2.9340184527579E+03 -2.9340315276928E+03 -2.9340482190859E+03 
 1.0192941922867E-04  5.0964732864879E-04  1.7328019666946E-03  3.7713940393828E-03  6.6254358862828E-03  1.0294932323952E-02  1.4779893435566E-02  2.0080339431923E-02  2.6196284848994E-02  2.9458135446490E-02 
 5.3659241197319E-04  4.7717794124652E-04  3.6577566980594E-04  2.6922672936746E-04  1.8753112622377E-04  1.2068891536068E-04  6.8700200451608E-05  3.1565133859754E-05  9.2839166441706E-06  1.8567985553447E-06 
-2.9339771648924E+03 -2.9339779095679E+03 -2.9339808509773E+03 -2.9339859891199E+03 -2.9339933239989E+03 -2.9340028556214E+03 -2.9340145839909E+03 -2.9340285091148E+03 -2.9340446310034E+03 -2.9340629496726E+03 
 2.6239831306250E+02  2.6239845632361E+02  2.6239902219415E+02  2.6240001067552E+02  2.6240142177101E+02  2.6240325548590E+02  2.6240551182584E+02  2.6240819079841E+02  2.6241129241296E+02  2.6241481668117E+02 
-3.1963754779548E+03 -3.1963763658915E+03 -3.1963798731714E+03 -3.1963859997954E+03 -3.1963947457699E+03 -3.1964061111073E+03 -3.1964200958167E+03 -3.1964366999132E+03 -3.1964559234163E+03 -3.1964777663538E+03 
ZONE T = "ANOD, 3.0000E-08", I = 10, SOLUTIONTIME = 3.000000E-08
ZONETYPE = ORDERED
DATAPACKING = BLOCK
STRANDID = 1
 0.0000000000000E+00  8.7488888888889E-05  1.7497777777778E-04  2.6246666666667E-04  3.4995555555556E-04  4.3744444444444E-04  5.2493333333333E-04  6.1242222222222E-04  6.9991111111111E-04  7.8740000000000E-04 
 4.8435159813478E-10  1.4530550635056E-09  2.4217595918028E-09  3.3904659768531E-09  4.3591750124853E-09  5.3278874925304E-09  6.2966042108237E-09  7.2653259612051E-09  8.2340535375194E-09  8.7175126162513E-09 
 9.1999999999913E-01  9.1999999999913E-01  9.1999999999913E-01  9.1999999999913E-01  9.1999999999913E-01  9.1999999999913E-01  9.1999999999913E-01  9.1999999999913E-01  9.1999999999913E-01  9.1999999999964E-01 
 4.0000000000437E-02  4.0000000000437E-02  4.0000000000437E-02  4.0000000000437E-02  4.0000000000437E-02  4.0000000000437E-02  4.0000000000437E-02  4.0000000000437E-02  4.0000000000437E-02  4.0000000000181E-02 
 4.0000000000437E-02  4.0000000000437E-02  4.0000000000437E-02  4.0000000000437E-02  4.0000000000437E-02  4.0000000000437E-02  4.0000000000437E-02  4.0000000000437E-02  4.0000000000437E-02  4.0000000000181E-02 
 1.8780192701114E-02  1.8780186308294E-02  1.8780167129833E-02  1.8780135165716E-02  1.8780090415918E-02  1.8780032880404E-02  1.8779962559130E-02  1.8779879452038E-02  1.8779783559064E-02  1.8779674880129E-02 
 0.0000000000000E+00 -1.9796293450214E-09 -3.7263636538276E-09 -5.2402026708705E-09 -6.5211459497509E-09 -7.5691928532177E-09 -8.3843425531673E-09 -8.9665940306430E-09 -9.3159460758335E-09 -9.4323972880721E-09 
-1.8780192701114E-02 -1.8780188287924E-02 -1.8780170856197E-02 -1.8780140405918E-02 -1.8780096937064E-02 -1.8780040449597E-02 -1.8779970943472E-02 -1.8779888418633E-02 -1.8779792875010E-02 -1.8779684312526E-02 
-3.5236663141753E-02 -3.5236663141757E-02 -3.5236663141753E-02 -3.5236663141753E-02 -3.5236663141756E-02 -3.5236663141752E-02 -3.5236663141752E-02 -3.5236663141756E-02 -3.5236663141756E-02 -3.5236663141916E-02 
 1.6456470440639E-02  1.6456474853833E-02  1.6456492285556E-02  1.6456522735834E-02  1.6456566204692E-02  1.6456622692154E-02  1.6456692198279E-02  1.6456774723123E-02  1.6456870266746E-02  1.6456978829390E-02 
 6.9750487926512E-01  1.3950101460576E+00  1.3950116767561E+00  1.3950143506285E+00  1.3950181676775E+00  1.3950231279065E+00  1.3950292313215E+00  1.3950364779291E+00  1.3950448677365E+00  6.9752720037958E-01 
 3.6145641641645E-09  1.0843694505157E-08  1.8072832770963E-08  2.5301984904624E-08  3.2531156811233E-08  3.9760354420888E-08  4.6989583663193E-08  5.4218850455302E-08  6.1448251135314E-08  6.1448251135314E-08 
 0.0000000000000E+00  1.3950099523290E+00  2.7900208636963E+00  4.1850338773015E+00  5.5800501365333E+00  6.9750707844019E+00  8.3700969641068E+00  9.7651298184690E+00  1.1160170491237E+01  1.2555220125592E+01 
 1.2555220125658E+01  1.1160210173364E+01  9.7651992619573E+00  8.3701862482650E+00  6.9751699891120E+00  5.5801493413200E+00  4.1851231617060E+00  2.7900903070806E+00  1.3950496342478E+00  0.0000000000000E+00 
 2.0925153994483E-08  4.1850319614623E-08  4.1850365534988E-08  4.1850445750102E-08  4.1850560260004E-08  4.1850709064919E-08  4.1850892164909E-08  4.1851109560218E-08  4.1851361251072E-08  2.0925823618923E-08 
 9.1448444543302E+04  1.8289688908660E+05  1.8289688908660E+05  1.8289688908660E+05  1.8289688908660E+05  1.8289688908660E+05  1.8289688908660E+05  1.8289688908660E+05  1.8289688908660E+05  9.1448444543302E+04 
 3.6579377817310E+05  7.3158755634620E+05  7.3158755634620E+05  7.3158755634620E+05  7.3158755634620E+05  7.3158755634620E+05  7.3158755634620E+05  7.3158755634620E+05  7.3158755634620E+05  3.6579377817310E+05 
 4.5724222271640E+05  9.1448444543281E+05  9.1448444543281E+05  9.1448444543281E+05  9.1448444543281E+05  9.1448444543281E+05  9.1448444543281E+05  9.1448444543281E+05  9.1448444543281E+05  4.5724222271640E+05 
 3.5000000000000E-01  3.5000000000000E-01  3.5000000000000E-01  3.5000000000000E-01  3.5000000000000E-01  3.5000000000000E-01  3.5000000000000E-01  3.5000000000000E-01  3.5000000000000E-01  3.5000000000000E-01 
 8.5301666666666E+00  1.7060333333333E+01  1.7060333333333E+01  1.7060333333333E+01  1.7060333333333E+01  1.7060333333333E+01  1.7060333333333E+01  1.7060333333333E+01  1.7060333333333E+01  8.5301666666666E+00 
 8.1769197076860E-02  8.1769219791969E-02  8.1769309514630E-02  8.1769466245003E-02  8.1769689983246E-02  8.1769980729558E-02  8.1770338484293E-02  8.1770763247835E-02  8.1771255020601E-02  8.1771813803511E-02 
 4.3744444444444E-05  8.7488888888889E-05  8.7488888888889E-05  8.7488888888889E-05  8.7488888888889E-05  8.7488888888889E-05  8.7488888888889E-05  8.7488888888889E-05  8.7488888888889E-05  4.3744444444444E-05 
 8.6666666666661E+01  8.6666666666661E+01  8.6666666666661E+01  8.6666666666661E+01  8.6666666666661E+01  8.6666666666661E+01  8.6666666666661E+01  8.6666666666661E+01  8.6666666666661E+01  8.6666666666661E+01 
 2.1666666666672E+01  2.1666666666672E+01  2.1666666666672E+01  2.1666666666672E+01  2.1666666666672E+01  2.1666666666672E+01  2.1666666666672E+01  2.1666666666672E+01  2.1666666666672E+01  2.1666666666672E+01 
-8.8019334640301E-05 -8.8019351755677E-05 -8.8019423320266E-05 -8.8019548331453E-05 -8.8019726789088E-05 -8.8019958693412E-05 -8.8020244044257E-05 -8.8020582841661E-05 -8.8020975085639E-05 -8.8021475821360E-05 
-2.9339768456000E+03 -2.9339774161184E+03 -2.9339798016281E+03 -2.9339839687091E+03 -2.9339899173610E+03 -2.9339976475828E+03 -2.9340071593759E+03 -2.9340184527404E+03 -2.9340315276753E+03 -2.9340482190751E+03 
 1.5289614959878E-04  7.6448106563731E-04  2.5992373107913E-03  5.6571674346841E-03  9.9382869567314E-03  1.5442605209998E-02  2.2170138130477E-02  3.0120913117859E-02  3.9294953235257E-02  4.4187793759754E-02 
 8.0489940917919E-04  7.1577650821064E-04  5.4867086065422E-04  4.0384550832244E-04  2.8130046065392E-04  1.8103580012555E-04  1.0305168224725E-04  4.7348335564395E-05  1.3926061664381E-05  2.7852351726702E-06 
-2.9339771648737E+03 -2.9339779095508E+03 -2.9339808509586E+03 -2.9339859891012E+03 -2.9339933239814E+03 -2.9340028556026E+03 -2.9340145839721E+03 -2.9340285090973E+03 -2.9340446309859E+03 -2.9340629496619E+03 
 2.6239831305822E+02  2.6239845631965E+02  2.6239902218988E+02  2.6240001067124E+02  2.6240142176700E+02  2.6240325548161E+02  2.6240551182155E+02  2.6240819079440E+02  2.6241129240894E+02  2.6241481667861E+02 
-3.1963754779319E+03 -3.1963763658704E+03 -3.1963798731485E+03 -3.1963859997725E+03 -3.1963947457484E+03 -3.1964061110842E+03 -3.1964200957936E+03 -3.1964366998917E+03 -3.1964559233948E+03 -3.1964777663405E+03 
ZONE T = "ANOD, 4.0000E-08", I = 10, SOLUTIONTIME = 4.000000E-08
ZONETYPE = ORDERED
DATAPACKING = BLOCK
STRANDID = 1
 0.0000000000000E+00  8.7488888888889E-05  1.7497777777778E-04  2.6246666666667E-04  3.4995555555556E-04  4.3744444444444E-04  5.2493333333333E-04  6.1242222222222E-04  6.9991111111111E-04  7.8740000000000E-04 
 4.8453320199560E-10  1.4539630828154E-09  2.4230308188342E-09  3.3921004116062E-09  4.3618990704154E-09  5.3313379659098E-09  6.3007810996525E-09  7.2705924732109E-09  8.2404096727022E-09  8.7247767707515E-09 
 9.1999999999884E-01  9.1999999999884E-01  9.1999999999884E-01  9.1999999999884E-01  9.1999999999884E-01  9.1999999999884E-01  9.1999999999884E-01  9.1999999999884E-01  9.1999999999884E-01  9.1999999999952E-01 
 4.0000000000582E-02  4.0000000000582E-02  4.0000000000582E-02  4.0000000000582E-02  4.0000000000582E-02  4.0000000000582E-02  4.0000000000582E-02  4.0000000000582E-02  4.0000000000582E-02  4.0000000000241E-02 
 4.0000000000582E-02  4.0000000000582E-02  4.0000000000582E-02  4.0000000000582E-02  4.0000000000582E-02  4.0000000000582E-02  4.0000000000582E-02  4.0000000000582E-02  4.0000000000582E-02  4.0000000000241E-02 
 1.8780192701061E-02  1.8780186308242E-02  1.8780167129780E-02  1.8780135165663E-02  1.8780090415865E-02  1.8780032880352E-02  1.8779962559077E-02  1.8779879451986E-02  1.8779783559011E-02  1.8779674880076E-02 
 0.0000000000000E+00 -1.9796293450088E-09 -3.7263636538040E-09 -5.2402026708374E-09 -6.5211459497098E-09 -7.5691928531700E-09 -8.3843425531145E-09 -8.9665940305867E-09 -9.3159460757753E-09 -9.4323972880133E-09 
-1.8780192701061E-02 -1.8780188287871E-02 -1.8780170856144E-02 -1.8780140405866E-02 -1.8780096937011E-02 -1.8780040449545E-02 -1.8779970943420E-02 -1.8779888418580E-02 -1.8779792874957E-02 -1.8779684312473E-02 
-3.5236663141549E-02 -3.5236663141545E-02 -3.5236663141549E-02 -3.5236663141549E-02 -3.5236663141548E-02 -3.5236663141546E-02 -3.5236663141546E-02 -3.5236663141548E-02 -3.5236663141548E-02 -3.5236663141762E-02 
 1.6456470440488E-02  1.6456474853674E-02  1.6456492285405E-02  1.6456522735683E-02  1.6456566204537E-02  1.6456622692001E-02  1.6456692198126E-02  1.6456774722969E-02  1.6456870266591E-02  1.6456978829288E-02 
 6.9750487926072E-01  1.3950101460481E+00  1.3950116767473E+00  1.3950143506197E+00  1.3950181676684E+00  1.3950231278975E+00  1.3950292313125E+00  1.3950364779200E+00  1.3950448677274E+00  6.9752720037664E-01 