TITLE = "Solution on Domain BulkDomain1D_1"
VARIABLES = "x [m]"  
"Vel_axial" 	"MF_sp(ECDMC)" 	"MF_sp(Li+)" 	"MF_sp(PF6-)" 	"Volt(Electroly)" 	"Porosity []" 	"Control volume thickness [m]" 	"volFrac MgO(S) []" 	"qHeat_accum [J/m3]" 	"qHeat_step [W/m3]" 	"Joule_Lyte [W/m3]" 	"Joule_Solid [W/m3]" 	
ZONE T = "SEP , 0.0000E+00", I = 10, SOLUTIONTIME = 0.000000E+00
ZONETYPE = ORDERED
DATAPACKING = BLOCK
STRANDID = 2
 7.8740000000000E-04  8.4102222222222E-04  8.9464444444444E-04  9.4826666666667E-04  1.0018888888889E-03  1.0555111111111E-03  1.1091333333333E-03  1.1627555555556E-03  1.2163777777778E-03  1.2700000000000E-03 
 0.0000000000000E+00  0.0000000000000E+00  0.0000000000000E+00  0.0000000000000E+00  0.0000000000000E+00  0.0000000000000E+00  0.0000000000000E+00  0.0000000000000E+00  0.0000000000000E+00  0.0000000000000E+00 
 9.2000000000000E-01  9.2000000000000E-01  9.2000000000000E-01  9.2000000000000E-01  9.2000000000000E-01  9.2000000000000E-01  9.2000000000000E-01  9.2000000000000E-01  9.2000000000000E-01  9.2000000000000E-01 
 4.0000000000000E-02  4.0000000000000E-02  4.0000000000000E-02  4.0000000000000E-02  4.0000000000000E-02  4.0000000000000E-02  4.0000000000000E-02  4.0000000000000E-02  4.0000000000000E-02  4.0000000000000E-02 
 4.0000000000000E-02  4.0000000000000E-02  4.0000000000000E-02  4.0000000000000E-02  4.0000000000000E-02  4.0000000000000E-02  4.0000000000000E-02  4.0000000000000E-02  4.0000000000000E-02  4.0000000000000E-02 
-7.0000000000000E-02 -7.0000000000000E-02 -7.0000000000000E-02 -7.0000000000000E-02 -7.0000000000000E-02 -7.0000000000000E-02 -7.0000000000000E-02 -7.0000000000000E-02 -7.0000000000000E-02 -7.0000000000000E-02 
 8.0911139820575E-01  8.0911139820575E-01  8.0911139820575E-01  8.0911139820575E-01  8.0911139820575E-01  8.0911139820575E-01  8.0911139820575E-01  8.0911139820575E-01  8.0911139820575E-01  8.0911139820575E-01 
 2.6811111111111E-05  5.3622222222222E-05  5.3622222222222E-05  5.3622222222222E-05  5.3622222222222E-05  5.3622222222222E-05  5.3622222222222E-05  5.3622222222223E-05  5.3622222222222E-05  2.6811111111111E-05 
 1.9088860179425E-01  1.9088860179425E-01  1.9088860179425E-01  1.9088860179425E-01  1.9088860179425E-01  1.9088860179425E-01  1.9088860179425E-01  1.9088860179425E-01  1.9088860179425E-01  1.9088860179425E-01 
 0.0000000000000E+00  0.0000000000000E+00  0.0000000000000E+00  0.0000000000000E+00  0.0000000000000E+00  0.0000000000000E+00  0.0000000000000E+00  0.0000000000000E+00  0.0000000000000E+00  0.0000000000000E+00 
 0.0000000000000E+00  0.0000000000000E+00  0.0000000000000E+00  0.0000000000000E+00  0.0000000000000E+00  0.0000000000000E+00  0.0000000000000E+00  0.0000000000000E+00  0.0000000000000E+00  0.0000000000000E+00 
 0.0000000000000E+00  0.0000000000000E+00  0.0000000000000E+00  0.0000000000000E+00  0.0000000000000E+00  0.0000000000000E+00  0.0000000000000E+00  0.0000000000000E+00  0.0000000000000E+00  0.0000000000000E+00 
 0.0000000000000E+00  0.0000000000000E+00  0.0000000000000E+00  0.0000000000000E+00  0.0000000000000E+00  0.0000000000000E+00  0.0000000000000E+00  0.0000000000000E+00  0.0000000000000E+00  0.0000000000000E+00 
ZONE T = "SEP , 1.0000E-08", I = 10, SOLUTIONTIME = 1.000000E-08
ZONETYPE = ORDERED
DATAPACKING = BLOCK
STRANDID = 2
 7.8740000000000E-04  8.4102222222222E-04  8.9464444444444E-04  9.4826666666667E-04  1.0018888888889E-03  1.0555111111111E-03  1.1091333333333E-03  1.1627555555556E-03  1.2163777777778E-03  1.2700000000000E-03 
 8.7144253505168E-09  8.7144253505168E-09  8.7144253505168E-09  8.7144253505168E-09  8.7144253505168E-09  8.7144253505168E-09  8.7144253505168E-09  8.7144253505167E-09  8.7144253505167E-09  8.2303035016203E-09 
 9.1999999999988E-01  9.2000000000000E-01  9.2000000000000E-01  9.2000000000000E-01  9.2000000000000E-01  9.2000000000000E-01  9.2000000000000E-01  9.2000000000000E-01  9.2000000000000E-01  9.2000000000013E-01 
 4.0000000000060E-02  4.0000000000000E-02  4.0000000000000E-02  4.0000000000000E-02  4.0000000000000E-02  4.0000000000000E-02  4.0000000000000E-02  4.0000000000000E-02  4.0000000000000E-02  3.9999999999934E-02 
 4.0000000000060E-02  4.0000000000000E-02  4.0000000000000E-02  4.0000000000000E-02  4.0000000000000E-02  4.0000000000000E-02  4.0000000000000E-02  4.0000000000000E-02  4.0000000000000E-02  3.9999999999934E-02 
 1.8787208340078E-02  1.8787188274531E-02  1.8787168208984E-02  1.8787148143437E-02  1.8787128077890E-02  1.8787108012343E-02  1.8787087946796E-02  1.8787067881249E-02  1.8787047815702E-02  1.8787027750156E-02 
 8.0911139820575E-01  8.0911139820575E-01  8.0911139820575E-01  8.0911139820575E-01  8.0911139820575E-01  8.0911139820575E-01  8.0911139820575E-01  8.0911139820575E-01  8.0911139820575E-01  8.0911139820575E-01 
 2.6811111111111E-05  5.3622222222222E-05  5.3622222222222E-05  5.3622222222222E-05  5.3622222222222E-05  5.3622222222222E-05  5.3622222222222E-05  5.3622222222223E-05  5.3622222222222E-05  2.6811111111111E-05 
 1.9088860179425E-01  1.9088860179425E-01  1.9088860179425E-01  1.9088860179425E-01  1.9088860179425E-01  1.9088860179425E-01  1.9088860179425E-01  1.9088860179425E-01  1.9088860179425E-01  1.9088860179425E-01 
 4.6981894394411E-11  4.6981894394393E-11  4.6981894394375E-11  4.6981894386252E-11  4.6981894386252E-11  4.6981894394375E-11  4.6981894394375E-11  4.6981894386251E-11  4.6981894386232E-11  4.6981894394336E-11 
 4.6981894394411E-03  4.6981894394393E-03  4.6981894394375E-03  4.6981894386252E-03  4.6981894386252E-03  4.6981894394375E-03  4.6981894394375E-03  4.6981894386251E-03  4.6981894386232E-03  4.6981894394336E-03 
 4.6981894394411E-03  4.6981894394393E-03  4.6981894394375E-03  4.6981894386252E-03  4.6981894386252E-03  4.6981894394375E-03  4.6981894394375E-03  4.6981894386251E-03  4.6981894386232E-03  4.6981894394336E-03 
 0.0000000000000E+00  0.0000000000000E+00  0.0000000000000E+00  0.0000000000000E+00  0.0000000000000E+00  0.0000000000000E+00  0.0000000000000E+00  0.0000000000000E+00  0.0000000000000E+00  0.0000000000000E+00 
ZONE T = "SEP , 2.0000E-08", I = 10, SOLUTIONTIME = 2.000000E-08
ZONETYPE = ORDERED
DATAPACKING = BLOCK
STRANDID = 2
 7.8740000000000E-04  8.4102222222222E-04  8.9464444444444E-04  9.4826666666667E-04  1.0018888888889E-03  1.0555111111111E-03  1.1091333333333E-03  1.1627555555556E-03  1.2163777777778E-03  1.2700000000000E-03 
 8.7229607320639E-09  8.7229607320639E-09  8.7229607320639E-09  8.7229607320639E-09  8.7229607320639E-09  8.7229607320639E-09  8.7229607320639E-09  8.7229607320639E-09  8.7229607320639E-09  8.2381124677136E-09 
 9.1999999999976E-01  9.2000000000000E-01  9.2000000000000E-01  9.2000000000000E-01  9.2000000000000E-01  9.2000000000000E-01  9.2000000000000E-01  9.2000000000000E-01  9.2000000000000E-01  9.2000000000027E-01 
 4.0000000000120E-02  4.0000000000000E-02  4.0000000000000E-02  4.0000000000000E-02  4.0000000000000E-02  4.0000000000000E-02  4.0000000000000E-02  4.0000000000000E-02  4.0000000000000E-02  3.9999999999867E-02 
 4.0000000000120E-02  4.0000000000000E-02  4.0000000000000E-02  4.0000000000000E-02  4.0000000000000E-02  4.0000000000000E-02  4.0000000000000E-02  4.0000000000000E-02  4.0000000000000E-02  3.9999999999867E-02 
 1.8787208340023E-02  1.8787188274476E-02  1.8787168208929E-02  1.8787148143382E-02  1.8787128077835E-02  1.8787108012288E-02  1.8787087946741E-02  1.8787067881195E-02  1.8787047815648E-02  1.8787027750101E-02 
 8.0911139820575E-01  8.0911139820575E-01  8.0911139820575E-01  8.0911139820575E-01  8.0911139820575E-01  8.0911139820575E-01  8.0911139820575E-01  8.0911139820575E-01  8.0911139820575E-01  8.0911139820575E-01 
 2.6811111111111E-05  5.3622222222222E-05  5.3622222222222E-05  5.3622222222222E-05  5.3622222222222E-05  5.3622222222222E-05  5.3622222222222E-05  5.3622222222223E-05  5.3622222222222E-05  2.6811111111111E-05 
 1.9088860179425E-01  1.9088860179425E-01  1.9088860179425E-01  1.9088860179425E-01  1.9088860179425E-01  1.9088860179425E-01  1.9088860179425E-01  1.9088860179425E-01  1.9088860179425E-01  1.9088860179425E-01 
 9.3963788772610E-11  9.3963788780680E-11  9.3963788788750E-11  9.3963788780627E-11  9.3963788772503E-11  9.3963788780627E-11  9.3963788788750E-11  9.3963788772502E-11  9.3963788772445E-11  9.3963788788634E-11 
 4.6981894378199E-03  4.6981894386287E-03  4.6981894394375E-03  4.6981894394375E-03  4.6981894386252E-03  4.6981894386252E-03  4.6981894394375E-03  4.6981894386251E-03  4.6981894386213E-03  4.6981894394297E-03 
 4.6981894378199E-03  4.6981894386287E-03  4.6981894394375E-03  4.6981894394375E-03  4.6981894386252E-03  4.6981894386252E-03  4.6981894394375E-03  4.6981894386251E-03  4.6981894386213E-03  4.6981894394297E-03 
 0.0000000000000E+00  0.0000000000000E+00  0.0000000000000E+00  0.0000000000000E+00  0.0000000000000E+00  0.0000000000000E+00  0.0000000000000E+00  0.0000000000000E+00  0.0000000000000E+00  0.0000000000000E+00 
ZONE T = "SEP , 3.0000E-08", I = 10, SOLUTIONTIME = 3.000000E-08
ZONETYPE = ORDERED
DATAPACKING = BLOCK
STRANDID = 2
 7.8740000000000E-04  8.4102222222222E-04  8.9464444444444E-04  9.4826666666667E-04  1.0018888888889E-03  1.0555111111111E-03  1.1091333333333E-03  1.1627555555556E-03  1.2163777777778E-03  1.2700000000000E-03 
 8.7171494083638E-09  8.7171494083638E-09  8.7171494083638E-09  8.7171494083638E-09  8.7171494083638E-09  8.7171494083638E-09  8.7171494083638E-09  8.7171494083638E-09  8.7171494083638E-09  8.2337539749263E-09 
 9.1999999999964E-01  9.2000000000000E-01  9.2000000000000E-01  9.2000000000000E-01  9.2000000000000E-01  9.2000000000000E-01  9.2000000000000E-01  9.2000000000000E-01  9.2000000000000E-01  9.2000000000040E-01 
 4.0000000000181E-02  4.0000000000000E-02  4.0000000000000E-02  4.0000000000000E-02  4.0000000000000E-02  4.0000000000000E-02  4.0000000000000E-02  4.0000000000000E-02  4.0000000000000E-02  3.9999999999801E-02 
 4.0000000000181E-02  4.0000000000000E-02  4.0000000000000E-02  4.0000000000000E-02  4.0000000000000E-02  4.0000000000000E-02  4.0000000000000E-02  4.0000000000000E-02  4.0000000000000E-02  3.9999999999801E-02 
 1.8787208339969E-02  1.8787188274422E-02  1.8787168208875E-02  1.8787148143328E-02  1.8787128077781E-02  1.8787108012234E-02  1.8787087946687E-02  1.8787067881140E-02  1.8787047815593E-02  1.8787027750047E-02 
 8.0911139820575E-01  8.0911139820575E-01  8.0911139820575E-01  8.0911139820575E-01  8.0911139820575E-01  8.0911139820575E-01  8.0911139820575E-01  8.0911139820575E-01  8.0911139820575E-01  8.0911139820575E-01 
 2.6811111111111E-05  5.3622222222222E-05  5.3622222222222E-05  5.3622222222222E-05  5.3622222222222E-05  5.3622222222222E-05  5.3622222222222E-05  5.3622222222223E-05  5.3622222222222E-05  2.6811111111111E-05 
 1.9088860179425E-01  1.9088860179425E-01  1.9088860179425E-01  1.9088860179425E-01  1.9088860179425E-01  1.9088860179425E-01  1.9088860179425E-01  1.9088860179425E-01  1.9088860179425E-01  1.9088860179425E-01 
 1.4094568316709E-10  1.4094568316698E-10  1.4094568317500E-10  1.4094568317500E-10  1.4094568315875E-10  1.4094568316688E-10  1.4094568318313E-10  1.4094568315875E-10  1.4094568315864E-10  1.4094568318289E-10 
 4.6981894394481E-03  4.6981894386305E-03  4.6981894386252E-03  4.6981894394375E-03  4.6981894386252E-03  4.6981894386252E-03  4.6981894394375E-03  4.6981894386251E-03  4.6981894386193E-03  4.6981894394258E-03 
 4.6981894394481E-03  4.6981894386305E-03  4.6981894386252E-03  4.6981894394375E-03  4.6981894386252E-03  4.6981894386252E-03  4.6981894394375E-03  4.6981894386251E-03  4.6981894386193E-03  4.6981894394258E-03 
 0.0000000000000E+00  0.0000000000000E+00  0.0000000000000E+00  0.0000000000000E+00  0.0000000000000E+00  0.0000000000000E+00  0.0000000000000E+00  0.0000000000000E+00  0.0000000000000E+00  0.0000000000000E+00 
ZONE T = "SEP , 4.0000E-08", I = 10, SOLUTIONTIME = 4.000000E-08
ZONETYPE = ORDERED
DATAPACKING = BLOCK
STRANDID = 2
 7.8740000000000E-04  8.4102222222222E-04  8.9464444444444E-04  9.4826666666667E-04  1.0018888888889E-03  1.0555111111111E-03  1.1091333333333E-03  1.1627555555556E-03  1.2163777777778E-03  1.2700000000000E-03 
 8.7222343164974E-09  8.7222343164974E-09  8.7222343164974E-09  8.7222343164974E-09  8.7222343164974E-09  8.7222343164974E-09  8.7222343164974E-09  8.7222343164974E-09  8.7222343164974E-09  8.2375676560143E-09 
 9.1999999999952E-01  9.2000000000000E-01  9.2000000000000E-01  9.2000000000000E-01  9.2000000000000E-01  9.2000000000000E-01  9.2000000000000E-01  9.2000000000000E-01  9.2000000000000E-01  9.2000000000053E-01 
 4.0000000000241E-02  4.0000000000000E-02  4.0000000000000E-02  4.0000000000000E-02  4.0000000000000E-02  4.0000000000000E-02  4.0000000000000E-02  4.0000000000000E-02  4.0000000000000E-02  3.9999999999734E-02 
 4.0000000000241E-02  4.0000000000000E-02  4.0000000000000E-02  4.0000000000000E-02  4.0000000000000E-02  4.0000000000000E-02  4.0000000000000E-02  4.0000000000000E-02  4.0000000000000E-02  3.9999999999734E-02 
 1.8787208339916E-02  1.8787188274369E-02  1.8787168208822E-02  1.8787148143275E-02  1.8787128077728E-02  1.8787108012181E-02  1.8787087946634E-02  1.8787067881087E-02  1.8787047815540E-02  1.8787027749994E-02 
 8.0911139820575E-01  8.0911139820575E-01  8.0911139820575E-01  8.0911139820575E-01  8.0911139820575E-01  8.0911139820575E-01  8.0911139820575E-01  8.0911139820575E-01  8.0911139820575E-01  8.0911139820575E-01 
 2.6811111111111E-05  5.3622222222222E-05  5.3622222222222E-05  5.3622222222222E-05  5.3622222222222E-05  5.3622222222222E-05  5.3622222222222E-05  5.3622222222223E-05  5.3622222222222E-05  2.6811111111111E-05 
 1.9088860179425E-01  1.9088860179425E-01  1.9088860179425E-01  1.9088860179425E-01  1.9088860179425E-01  1.9088860179425E-01  1.9088860179425E-01  1.9088860179425E-01  1.9088860179425E-01  1.9088860179425E-01 
 1.8792757754536E-10  1.8792757755331E-10  1.8792757756125E-10  1.8792757756125E-10  1.8792757755313E-10  1.8792757755313E-10  1.8792757756938E-10  1.8792757755313E-10  1.8792757754481E-10  1.8792757756086E-10 
 4.6981894378270E-03  4.6981894386322E-03  4.6981894386252E-03  4.6981894386252E-03  4.6981894394375E-03  4.6981894386252E-03  4.6981894386252E-03  4.6981894394375E-03  4.6981894386174E-03  4.6981894377972E-03 
 4.6981894378270E-03  4.6981894386322E-03  4.6981894386252E-03  4.6981894386252E-03  4.6981894394375E-03  4.6981894386252E-03  4.6981894386252E-03  4.6981894394375E-03  4.6981894386174E-03  4.6981894377972E-03 
 0.0000000000000E+00  0.0000000000000E+00  0.0000000000000E+00  0.0000000000000E+00  0.0000000000000E+00  0.0000000000000E+00  0.0000000000000E+00  0.0000000000000E+00  0.0000000000000E+00  0.0000000000000E+00 
ZONE T = "SEP , 5.5000E-08", I = 10, SOLUTIONTIME = 5.500000E-08
ZONETYPE = ORDERED
DATAPACKING = BLOCK
STRANDID = 2
 7.8740000000000E-04  8.4102222222222E-04  8.9464444444444E-04  9.4826666666667E-04  1.0018888888889E-03  1.0555111111111E-03  1.1091333333333E-03  1.1627555555556E-03  1.2163777777778E-03  1.2700000000000E-03 
 8.7128514501385E-09  8.7128514501385E-09  8.7128514501385E-09  8.7128514501385E-09  8.7128514501385E-09  8.7128514501385E-09  8.7128514501385E-09  8.7128514501385E-09  8.7128514501385E-09  8.2293349474619E-09 
 9.1999999999934E-01  9.2000000000000E-01  9.2000000000000E-01  9.2000000000000E-01  9.2000000000000E-01  9.2000000000000E-01  9.2000000000000E-01  9.2000000000000E-01  9.2000000000000E-01  9.2000000000073E-01 
 4.0000000000331E-02  4.0000000000000E-02  4.0000000000000E-02  4.0000000000000E-02  4.0000000000000E-02  4.0000000000000E-02  4.0000000000000E-02  4.0000000000000E-02  4.0000000000000E-02  3.9999999999635E-02 
 4.0000000000331E-02  4.0000000000000E-02  4.0000000000000E-02  4.0000000000000E-02  4.0000000000000E-02  4.0000000000000E-02  4.0000000000000E-02  4.0000000000000E-02  4.0000000000000E-02  3.9999999999635E-02 
 1.8787208339855E-02  1.8787188274308E-02  1.8787168208762E-02  1.8787148143215E-02  1.8787128077668E-02  1.8787108012121E-02  1.8787087946574E-02  1.8787067881027E-02  1.8787047815480E-02  1.8787027749933E-02 
 8.0911139820575E-01  8.0911139820575E-01  8.0911139820575E-01  8.0911139820575E-01  8.0911139820575E-01  8.0911139820575E-01  8.0911139820575E-01  8.0911139820575E-01  8.0911139820575E-01  8.0911139820575E-01 
 2.6811111111111E-05  5.3622222222222E-05  5.3622222222222E-05  5.3622222222222E-05  5.3622222222222E-05  5.3622222222222E-05  5.3622222222222E-05  5.3622222222223E-05  5.3622222222222E-05  2.6811111111111E-05 
 1.9088860179425E-01  1.9088860179425E-01  1.9088860179425E-01  1.9088860179425E-01  1.9088860179425E-01  1.9088860179425E-01  1.9088860179425E-01  1.9088860179425E-01  1.9088860179425E-01  1.9088860179425E-01 
 2.5840041911284E-10  2.5840041913283E-10  2.5840041915282E-10  2.5840041914063E-10  2.5840041913251E-10  2.5840041913251E-10  2.5840041914875E-10  2.5840041914469E-10  2.5840041912403E-10  2.5840041912774E-10 
 4.6981894378323E-03  4.6981894386349E-03  4.6981894394375E-03  4.6981894386252E-03  4.6981894386252E-03  4.6981894386252E-03  4.6981894386252E-03  4.6981894394375E-03  4.6981894386144E-03  4.6981894377914E-03 
 4.6981894378323E-03  4.6981894386349E-03  4.6981894394375E-03  4.6981894386252E-03  4.6981894386252E-03  4.6981894386252E-03  4.6981894386252E-03  4.6981894394375E-03  4.6981894386144E-03  4.6981894377914E-03 
 0.0000000000000E+00  0.0000000000000E+00  0.0000000000000E+00  0.0000000000000E+00  0.0000000000000E+00  0.0000000000000E+00  0.0000000000000E+00  0.0000000000000E+00  0.0000000000000E+00  0.0000000000000E+00 
ZONE T = "SEP , 7.7500E-08", I = 10, SOLUTIONTIME = 7.750000E-08
ZONETYPE = ORDERED
DATAPACKING = BLOCK
STRANDID = 2
 7.8740000000000E-04  8.4102222222222E-04  8.9464444444444E-04  9.4826666666667E-04  1.0018888888889E-03  1.0555111111111E-03  1.1091333333333E-03  1.1627555555556E-03  1.2163777777778E-03  1.2700000000000E-03 
 8.7210034457134E-09  8.7210034457134E-09  8.7210034457134E-09  8.7210034457134E-09  8.7210034457134E-09  8.7210034457134E-09  8.7210034457134E-09  8.7210034457134E-09  8.7210034457134E-09  8.2367201711701E-09 
 9.1999999999907E-01  9.2000000000000E-01  9.2000000000000E-01  9.2000000000000E-01  9.2000000000000E-01  9.2000000000000E-01  9.2000000000000E-01  9.2000000000000E-01  9.2000000000000E-01  9.2000000000103E-01 
 4.0000000000467E-02  4.0000000000000E-02  4.0000000000000E-02  4.0000000000000E-02  4.0000000000000E-02  4.0000000000000E-02  4.0000000000000E-02  4.0000000000000E-02  4.0000000000000E-02  3.9999999999486E-02 
 4.0000000000467E-02  4.0000000000000E-02  4.0000000000000E-02  4.0000000000000E-02  4.0000000000000E-02  4.0000000000000E-02  4.0000000000000E-02  4.0000000000000E-02  4.0000000000000E-02  3.9999999999486E-02 
 1.8787208339741E-02  1.8787188274194E-02  1.8787168208648E-02  1.8787148143101E-02  1.8787128077554E-02  1.8787108012007E-02  1.8787087946460E-02  1.8787067880913E-02  1.8787047815366E-02  1.8787027749819E-02 
 8.0911139820575E-01  8.0911139820575E-01  8.0911139820575E-01  8.0911139820575E-01  8.0911139820575E-01  8.0911139820575E-01  8.0911139820575E-01  8.0911139820575E-01  8.0911139820575E-01  8.0911139820575E-01 
 2.6811111111111E-05  5.3622222222222E-05  5.3622222222222E-05  5.3622222222222E-05  5.3622222222222E-05  5.3622222222222E-05  5.3622222222222E-05  5.3622222222223E-05  5.3622222222222E-05  2.6811111111111E-05 
 1.9088860179425E-01  1.9088860179425E-01  1.9088860179425E-01  1.9088860179425E-01  1.9088860179425E-01  1.9088860179425E-01  1.9088860179425E-01  1.9088860179425E-01  1.9088860179425E-01  1.9088860179425E-01 
 3.6410968150081E-10  3.6410968150220E-10  3.6410968152188E-10  3.6410968150970E-10  3.6410968150157E-10  3.6410968150157E-10  3.6410968151782E-10  3.6410968153203E-10  3.6410968149276E-10  3.6410968147784E-10 
 4.6981894394649E-03  4.6981894386389E-03  4.6981894386252E-03  4.6981894386252E-03  4.6981894386252E-03  4.6981894386252E-03  4.6981894386252E-03  4.6981894394375E-03  4.6981894386101E-03  4.6981894377826E-03 
 4.6981894394649E-03  4.6981894386389E-03  4.6981894386252E-03  4.6981894386252E-03  4.6981894386252E-03  4.6981894386252E-03  4.6981894386252E-03  4.6981894394375E-03  4.6981894386101E-03  4.6981894377826E-03 
 0.0000000000000E+00  0.0000000000000E+00  0.0000000000000E+00  0.0000000000000E+00  0.0000000000000E+00  0.0000000000000E+00  0.0000000000000E+00  0.0000000000000E+00  0.0000000000000E+00  0.0000000000000E+00 
ZONE T = "SEP , 1.1125E-07", I = 10, SOLUTIONTIME = 1.112500E-07
ZONETYPE = ORDERED
DATAPACKING = BLOCK
STRANDID = 2
 7.8740000000000E-04  8.4102222222222E-04  8.9464444444444E-04  9.4826666666667E-04  1.0018888888889E-03  1.0555111111111E-03  1.1091333333333E-03  1.1627555555556E-03  1.2163777777778E-03  1.2700000000000E-03 
 8.7180439751992E-09  8.7180439751992E-09  8.7180439751992E-09  8.7180439751992E-09  8.7180439751992E-09  8.7180439751992E-09  8.7180439751992E-09  8.7180439751992E-09  8.7180439751992E-09  8.2339221263174E-09 
 9.1999999999866E-01  9.2000000000000E-01  9.2000000000000E-01  9.2000000000000E-01  9.2000000000000E-01  9.2000000000000E-01  9.2000000000000E-01  9.2000000000000E-01  9.2000000000000E-01  9.2000000000148E-01 
 4.0000000000670E-02  4.0000000000000E-02  4.0000000000000E-02  4.0000000000000E-02  4.0000000000000E-02  4.0000000000000E-02  4.0000000000000E-02  4.0000000000000E-02  4.0000000000000E-02  3.9999999999262E-02 
 4.0000000000670E-02  4.0000000000000E-02  4.0000000000000E-02  4.0000000000000E-02  4.0000000000000E-02  4.0000000000000E-02  4.0000000000000E-02  4.0000000000000E-02  4.0000000000000E-02  3.9999999999262E-02 
 1.8787208339570E-02  1.8787188274023E-02  1.8787168208476E-02  1.8787148142929E-02  1.8787128077382E-02  1.8787108011835E-02  1.8787087946288E-02  1.8787067880742E-02  1.8787047815195E-02  1.8787027749648E-02 
 8.0911139820575E-01  8.0911139820575E-01  8.0911139820575E-01  8.0911139820575E-01  8.0911139820575E-01  8.0911139820575E-01  8.0911139820575E-01  8.0911139820575E-01  8.0911139820575E-01  8.0911139820575E-01 
 2.6811111111111E-05  5.3622222222222E-05  5.3622222222222E-05  5.3622222222222E-05  5.3622222222222E-05  5.3622222222222E-05  5.3622222222222E-05  5.3622222222223E-05  5.3622222222222E-05  2.6811111111111E-05 
 1.9088860179425E-01  1.9088860179425E-01  1.9088860179425E-01  1.9088860179425E-01  1.9088860179425E-01  1.9088860179425E-01  1.9088860179425E-01  1.9088860179425E-01  1.9088860179425E-01  1.9088860179425E-01 
 5.2267357508315E-10  5.2267357505647E-10  5.2267357507548E-10  5.2267357506330E-10  5.2267357505517E-10  5.2267357505517E-10  5.2267357507142E-10  5.2267357508563E-10  5.2267357504562E-10  5.2267357505740E-10 
 4.6981894394769E-03  4.6981894386448E-03  4.6981894386252E-03  4.6981894386252E-03  4.6981894386252E-03  4.6981894386252E-03  4.6981894386252E-03  4.6981894386251E-03  4.6981894386035E-03  4.6981894393942E-03 
 4.6981894394769E-03  4.6981894386448E-03  4.6981894386252E-03  4.6981894386252E-03  4.6981894386252E-03  4.6981894386252E-03  4.6981894386252E-03  4.6981894386251E-03  4.6981894386035E-03  4.6981894393942E-03 
 0.0000000000000E+00  0.0000000000000E+00  0.0000000000000E+00  0.0000000000000E+00  0.0000000000000E+00  0.0000000000000E+00  0.0000000000000E+00  0.0000000000000E+00  0.0000000000000E+00  0.0000000000000E+00 
ZONE T = "SEP , 1.6188E-07", I = 10, SOLUTIONTIME = 1.618750E-07
ZONETYPE = ORDERED
DATAPACKING = BLOCK
STRANDID = 2
 7.8740000000000E-04  8.4102222222222E-04  8.9464444444444E-04  9.4826666666667E-04  1.0018888888889E-03  1.0555111111111E-03  1.1091333333333E-03  1.1627555555556E-03  1.2163777777778E-03  1.2700000000000E-03 
 8.7176673151237E-09  8.7176673151237E-09  8.7176673151237E-09  8.7176673151237E-09  8.7176673151237E-09  8.7176673151237E-09  8.7176673151237E-09  8.7176673151237E-09  8.7176673151237E-09  8.2335454662488E-09 
 9.1999999999805E-01  9.2000000000000E-01  9.2000000000000E-01  9.2000000000000E-01  9.2000000000000E-01  9.2000000000000E-01  9.2000000000000E-01  9.2000000000000E-01  9.2000000000000E-01  9.2000000000215E-01 
 4.0000000000974E-02  4.0000000000000E-02  4.0000000000000E-02  4.0000000000000E-02  4.0000000000000E-02  4.0000000000000E-02  4.0000000000000E-02  4.0000000000000E-02  4.0000000000000E-02  3.9999999998926E-02 
 4.0000000000974E-02  4.0000000000000E-02  4.0000000000000E-02  4.0000000000000E-02  4.0000000000000E-02  4.0000000000000E-02  4.0000000000000E-02  4.0000000000000E-02  4.0000000000000E-02  3.9999999998926E-02 
 1.8787208339311E-02  1.8787188273764E-02  1.8787168208217E-02  1.8787148142671E-02  1.8787128077124E-02  1.8787108011577E-02  1.8787087946030E-02  1.8787067880483E-02  1.8787047814936E-02  1.8787027749389E-02 
 8.0911139820575E-01  8.0911139820575E-01  8.0911139820575E-01  8.0911139820575E-01  8.0911139820575E-01  8.0911139820575E-01  8.0911139820575E-01  8.0911139820575E-01  8.0911139820575E-01  8.0911139820575E-01 
 2.6811111111111E-05  5.3622222222222E-05  5.3622222222222E-05  5.3622222222222E-05  5.3622222222222E-05  5.3622222222222E-05  5.3622222222222E-05  5.3622222222223E-05  5.3622222222222E-05  2.6811111111111E-05 
 1.9088860179425E-01  1.9088860179425E-01  1.9088860179425E-01  1.9088860179425E-01  1.9088860179425E-01  1.9088860179425E-01  1.9088860179425E-01  1.9088860179425E-01  1.9088860179425E-01  1.9088860179425E-01 
 7.6051941537532E-10  7.6051941538831E-10  7.6051941540588E-10  7.6051941535257E-10  7.6051941538557E-10  7.6051941538557E-10  7.6051941536070E-10  7.6051941541603E-10  7.6051941537442E-10  7.6051941534348E-10 
 4.6981894378701E-03  4.6981894386538E-03  4.6981894386252E-03  4.6981894378128E-03  4.6981894386252E-03  4.6981894386252E-03  4.6981894378128E-03  4.6981894386251E-03  4.6981894385936E-03  4.6981894377497E-03 
 4.6981894378701E-03  4.6981894386538E-03  4.6981894386252E-03  4.6981894378128E-03  4.6981894386252E-03  4.6981894386252E-03  4.6981894378128E-03  4.6981894386251E-03  4.6981894385936E-03  4.6981894377497E-03 
 0.0000000000000E+00  0.0000000000000E+00  0.0000000000000E+00  0.0000000000000E+00  0.0000000000000E+00  0.0000000000000E+00  0.0000000000000E+00  0.0000000000000E+00  0.0000000000000E+00  0.0000000000000E+00 
ZONE T = "SEP , 2.3781E-07", I = 10, SOLUTIONTIME = 2.378125E-07
ZONETYPE = ORDERED
DATAPACKING = BLOCK
STRANDID = 2
 7.8740000000000E-04  8.4102222222222E-04  8.9464444444444E-04  9.4826666666667E-04  1.0018888888889E-03  1.0555111111111E-03  1.1091333333333E-03  1.1627555555556E-03  1.2163777777778E-03  1.2700000000000E-03 
 8.7189228476955E-09  8.7189228476955E-09  8.7189228476955E-09  8.7189228476955E-09  8.7189228476955E-09  8.7189228476955E-09  8.7189228476955E-09  8.7189228476955E-09  8.7189228476955E-09  8.2348009988310E-09 
 9.1999999999714E-01  9.2000000000000E-01  9.2000000000000E-01  9.2000000000000E-01  9.2000000000000E-01  9.2000000000000E-01  9.2000000000000E-01  9.2000000000000E-01  9.2000000000000E-01  9.2000000000316E-01 
 4.0000000001431E-02  4.0000000000001E-02  4.0000000000000E-02  4.0000000000000E-02  4.0000000000000E-02  4.0000000000000E-02  4.0000000000000E-02  4.0000000000000E-02  3.9999999999999E-02  3.9999999998422E-02 
 4.0000000001431E-02  4.0000000000001E-02  4.0000000000000E-02  4.0000000000000E-02  4.0000000000000E-02  4.0000000000000E-02  4.0000000000000E-02  4.0000000000000E-02  3.9999999999999E-02  3.9999999998422E-02 
 1.8787208338925E-02  1.8787188273378E-02  1.8787168207831E-02  1.8787148142284E-02  1.8787128076737E-02  1.8787108011190E-02  1.8787087945643E-02  1.8787067880097E-02  1.8787047814550E-02  1.8787027749003E-02 
 8.0911139820575E-01  8.0911139820575E-01  8.0911139820575E-01  8.0911139820575E-01  8.0911139820575E-01  8.0911139820575E-01  8.0911139820575E-01  8.0911139820575E-01  8.0911139820575E-01  8.0911139820575E-01 
 2.6811111111111E-05  5.3622222222222E-05  5.3622222222222E-05  5.3622222222222E-05  5.3622222222222E-05  5.3622222222222E-05  5.3622222222222E-05  5.3622222222223E-05  5.3622222222222E-05  2.6811111111111E-05 
 1.9088860179425E-01  1.9088860179425E-01  1.9088860179425E-01  1.9088860179425E-01  1.9088860179425E-01  1.9088860179425E-01  1.9088860179425E-01  1.9088860179425E-01  1.9088860179425E-01  1.9088860179425E-01 
 1.1172881758156E-09  1.1172881758254E-09  1.1172881758398E-09  1.1172881757865E-09  1.1172881758195E-09  1.1172881758195E-09  1.1172881757946E-09  1.1172881758499E-09  1.1172881758665E-09  1.1172881758937E-09 
 4.6981894378969E-03  4.6981894378549E-03  4.6981894378128E-03  4.6981894378128E-03  4.6981894378128E-03  4.6981894378128E-03  4.6981894378128E-03  4.6981894378128E-03  4.6981894385788E-03  4.6981894393448E-03 
 4.6981894378969E-03  4.6981894378549E-03  4.6981894378128E-03  4.6981894378128E-03  4.6981894378128E-03  4.6981894378128E-03  4.6981894378128E-03  4.6981894378128E-03  4.6981894385788E-03  4.6981894393448E-03 
 0.0000000000000E+00  0.0000000000000E+00  0.0000000000000E+00  0.0000000000000E+00  0.0000000000000E+00  0.0000000000000E+00  0.0000000000000E+00  0.0000000000000E+00  0.0000000000000E+00  0.0000000000000E+00 
ZONE T = "SEP , 3.5172E-07", I = 10, SOLUTIONTIME = 3.517188E-07
ZONETYPE = ORDERED
DATAPACKING = BLOCK
STRANDID = 2
 7.8740000000000E-04  8.4102222222222E-04  8.9464444444444E-04  9.4826666666667E-04  1.0018888888889E-03  1.0555111111111E-03  1.1091333333333E-03  1.1627555555556E-03  1.2163777777778E-03  1.2700000000000E-03 
 8.7183568609708E-09  8.7183568609708E-09  8.7183568609708E-09  8.7183568609708E-09  8.7183568609708E-09  8.7183568609708E-09  8.7183568609708E-09  8.7183568609708E-09  8.7182930878718E-09  8.2341234091986E-09 
 9.1999999999577E-01  9.2000000000000E-01  9.2000000000000E-01  9.2000000000000E-01  9.2000000000000E-01  9.2000000000000E-01  9.2000000000000E-01  9.2000000000000E-01  9.2000000000000E-01  9.2000000000467E-01 
 4.0000000002117E-02  4.0000000000001E-02  4.0000000000000E-02  4.0000000000000E-02  4.0000000000000E-02  4.0000000000000E-02  4.0000000000000E-02  4.0000000000000E-02  3.9999999999998E-02  3.9999999997666E-02 