TITLE = "Solution on Domain BulkDomain1D_2"
VARIABLES = "x [m]"  
"Vel_axial" 	"MF_sp(ECDMC)" 	"MF_sp(Li+)" 	"MF_sp(PF6-)" 	"Volt(Electroly)" 	"Volt(CathodeVo)" 	
"Potential Drop Electrode-Electrolyte [V]" 	"Surf_0 Equilibrium Potential Drop Electrode-Electrolyte [V]" 	"Overpotential_0 [V]" 	"Current Source [A/m^2]" 	"Li+ flux [kmol/m^2/s]" 	"Electrolyte Current [A/m^2]" 	"Electrode Current [A/m^2]" 	
"CV Capacity discharged [A-s/m^2]" 	"Depth of discharge in CV [A-s/m^2]" 	"CV Capacity remaining [A-s/m^2]" 	"Initial CV capacity [A-s/m^2]" 	"Porosity []" 	"Surface Area [m2/m2] (area per area)" 	"Specific current (per particle area) [A/m^2]" 	"Control volume thickness [m]" 	
"MoleDens LiCoO2 [kmol/m^3]" 	"MoleDens CoO2 [kmol/m^3]" 	"qHeat_accum [J/m3]" 	"qHeat_step [W/m3]" 	"Joule_Lyte [W/m3]" 	"Joule_Solid [W/m3]" 	"electrodHeat [W/m3]" 	"OverpotHeat [W/m3]" 	"deltaSHeat [W/m3]" 	

ZONE T = "CATH, 0.0000E+00", I = 10, SOLUTIONTIME = 0.000000E+00
ZONETYPE = ORDERED
DATAPACKING = BLOCK
STRANDID = 3
 1.2700000000000E-03  1.3377333333333E-03  1.4054666666667E-03  1.4732000000000E-03  1.5409333333333E-03  1.6086666666667E-03  1.6764000000000E-03  1.7441333333333E-03  1.8118666666667E-03  1.8796000000000E-03 
 0.0000000000000E+00  0.0000000000000E+00  0.0000000000000E+00  0.0000000000000E+00  0.0000000000000E+00  0.0000000000000E+00  0.0000000000000E+00  0.0000000000000E+00  0.0000000000000E+00  0.0000000000000E+00 
 9.2000000000000E-01  9.2000000000000E-01  9.2000000000000E-01  9.2000000000000E-01  9.2000000000000E-01  9.2000000000000E-01  9.2000000000000E-01  9.2000000000000E-01  9.2000000000000E-01  9.2000000000000E-01 
 4.0000000000000E-02  4.0000000000000E-02  4.0000000000000E-02  4.0000000000000E-02  4.0000000000000E-02  4.0000000000000E-02  4.0000000000000E-02  4.0000000000000E-02  4.0000000000000E-02  4.0000000000000E-02 
 4.0000000000000E-02  4.0000000000000E-02  4.0000000000000E-02  4.0000000000000E-02  4.0000000000000E-02  4.0000000000000E-02  4.0000000000000E-02  4.0000000000000E-02  4.0000000000000E-02  4.0000000000000E-02 
-7.0000000000000E-02 -7.0000000000000E-02 -7.0000000000000E-02 -7.0000000000000E-02 -7.0000000000000E-02 -7.0000000000000E-02 -7.0000000000000E-02 -7.0000000000000E-02 -7.0000000000000E-02 -7.0000000000000E-02 
 3.8000000000000E+00  3.8000000000000E+00  3.8000000000000E+00  3.8000000000000E+00  3.8000000000000E+00  3.8000000000000E+00  3.8000000000000E+00  3.8000000000000E+00  3.8000000000000E+00  3.8000000000000E+00 
 3.8700000000000E+00  3.8700000000000E+00  3.8700000000000E+00  3.8700000000000E+00  3.8700000000000E+00  3.8700000000000E+00  3.8700000000000E+00  3.8700000000000E+00  3.8700000000000E+00  3.8700000000000E+00 
 3.9779717443743E+00  3.9779717443743E+00  3.9779717443743E+00  3.9779717443743E+00  3.9779717443743E+00  3.9779717443743E+00  3.9779717443743E+00  3.9779717443743E+00  3.9779717443743E+00  3.9779717443743E+00 
-1.0797174437427E-01 -1.0797174437427E-01 -1.0797174437427E-01 -1.0797174437427E-01 -1.0797174437427E-01 -1.0797174437427E-01 -1.0797174437427E-01 -1.0797174437427E-01 -1.0797174437427E-01 -1.0797174437427E-01 
-1.1665425242685E-01 -2.3330850485369E-01 -2.3330850485370E-01 -2.3330850485369E-01 -2.3330850485370E-01 -2.3330850485370E-01 -2.3330850485369E-01 -2.3330850485370E-01 -2.3330850485369E-01 -1.1665425242685E-01 
-0.0000000000000E+00 -0.0000000000000E+00 -0.0000000000000E+00 -0.0000000000000E+00 -0.0000000000000E+00 -0.0000000000000E+00 -0.0000000000000E+00 -0.0000000000000E+00 -0.0000000000000E+00 -0.0000000000000E+00 
 1.1665425242685E-01  0.0000000000000E+00  0.0000000000000E+00  0.0000000000000E+00  0.0000000000000E+00  0.0000000000000E+00  0.0000000000000E+00  0.0000000000000E+00  0.0000000000000E+00  0.0000000000000E+00 
 0.0000000000000E+00 -0.0000000000000E+00 -0.0000000000000E+00 -0.0000000000000E+00 -0.0000000000000E+00 -0.0000000000000E+00 -0.0000000000000E+00 -0.0000000000000E+00 -0.0000000000000E+00  1.1665425242685E-01 
-0.0000000000000E+00 -0.0000000000000E+00 -0.0000000000000E+00 -0.0000000000000E+00 -0.0000000000000E+00 -0.0000000000000E+00 -0.0000000000000E+00 -0.0000000000000E+00 -0.0000000000000E+00 -0.0000000000000E+00 
 7.2440786946225E+03  1.4488157389245E+04  1.4488157389245E+04  1.4488157389245E+04  1.4488157389245E+04  1.4488157389245E+04  1.4488157389245E+04  1.4488157389245E+04  1.4488157389245E+04  7.2440786946225E+03 
 4.9259735123433E+04  9.8519470246865E+04  9.8519470246866E+04  9.8519470246865E+04  9.8519470246866E+04  9.8519470246866E+04  9.8519470246865E+04  9.8519470246866E+04  9.8519470246865E+04  4.9259735123433E+04 
 5.6503813818055E+04  1.1300762763611E+05  1.1300762763611E+05  1.1300762763611E+05  1.1300762763611E+05  1.1300762763611E+05  1.1300762763611E+05  1.1300762763611E+05  1.1300762763611E+05  5.6503813818055E+04 
 3.5000000000000E-01  3.5000000000000E-01  3.5000000000000E-01  3.5000000000000E-01  3.5000000000000E-01  3.5000000000000E-01  3.5000000000000E-01  3.5000000000000E-01  3.5000000000000E-01  3.5000000000000E-01 
 6.6040000000000E+00  1.3208000000000E+01  1.3208000000000E+01  1.3208000000000E+01  1.3208000000000E+01  1.3208000000000E+01  1.3208000000000E+01  1.3208000000000E+01  1.3208000000000E+01  6.6040000000000E+00 
-1.7664181166997E-02 -1.7664181166997E-02 -1.7664181166997E-02 -1.7664181166997E-02 -1.7664181166997E-02 -1.7664181166997E-02 -1.7664181166997E-02 -1.7664181166997E-02 -1.7664181166997E-02 -1.7664181166997E-02 
 3.3866666666667E-05  6.7733333333333E-05  6.7733333333334E-05  6.7733333333333E-05  6.7733333333334E-05  6.7733333333334E-05  6.7733333333333E-05  6.7733333333334E-05  6.7733333333333E-05  3.3866666666667E-05 
 2.6603001364256E+01  2.6603001364256E+01  2.6603001364256E+01  2.6603001364256E+01  2.6603001364256E+01  2.6603001364256E+01  2.6603001364256E+01  2.6603001364256E+01  2.6603001364256E+01  2.6603001364256E+01 
 1.7735334242838E+01  1.7735334242838E+01  1.7735334242838E+01  1.7735334242838E+01  1.7735334242838E+01  1.7735334242838E+01  1.7735334242838E+01  1.7735334242838E+01  1.7735334242838E+01  1.7735334242838E+01 
 0.0000000000000E+00  0.0000000000000E+00  0.0000000000000E+00  0.0000000000000E+00  0.0000000000000E+00  0.0000000000000E+00  0.0000000000000E+00  0.0000000000000E+00  0.0000000000000E+00  0.0000000000000E+00 
 0.0000000000000E+00  0.0000000000000E+00  0.0000000000000E+00  0.0000000000000E+00  0.0000000000000E+00  0.0000000000000E+00  0.0000000000000E+00  0.0000000000000E+00  0.0000000000000E+00  0.0000000000000E+00 
 0.0000000000000E+00  0.0000000000000E+00  0.0000000000000E+00  0.0000000000000E+00  0.0000000000000E+00  0.0000000000000E+00  0.0000000000000E+00  0.0000000000000E+00  0.0000000000000E+00  0.0000000000000E+00 
 0.0000000000000E+00  0.0000000000000E+00  0.0000000000000E+00  0.0000000000000E+00  0.0000000000000E+00  0.0000000000000E+00  0.0000000000000E+00  0.0000000000000E+00  0.0000000000000E+00  0.0000000000000E+00 
 0.0000000000000E+00  0.0000000000000E+00  0.0000000000000E+00  0.0000000000000E+00  0.0000000000000E+00  0.0000000000000E+00  0.0000000000000E+00  0.0000000000000E+00  0.0000000000000E+00  0.0000000000000E+00 
 0.0000000000000E+00  0.0000000000000E+00  0.0000000000000E+00  0.0000000000000E+00  0.0000000000000E+00  0.0000000000000E+00  0.0000000000000E+00  0.0000000000000E+00  0.0000000000000E+00  0.0000000000000E+00 
 0.0000000000000E+00  0.0000000000000E+00  0.0000000000000E+00  0.0000000000000E+00  0.0000000000000E+00  0.0000000000000E+00  0.0000000000000E+00  0.0000000000000E+00  0.0000000000000E+00  0.0000000000000E+00 
ZONE T = "CATH, 1.0000E-08", I = 10, SOLUTIONTIME = 1.000000E-08
ZONETYPE = ORDERED
DATAPACKING = BLOCK
STRANDID = 3
 1.2700000000000E-03  1.3377333333333E-03  1.4054666666667E-03  1.4732000000000E-03  1.5409333333333E-03  1.6086666666667E-03  1.6764000000000E-03  1.7441333333333E-03  1.8118666666667E-03  1.8796000000000E-03 
 8.2334226852301E-09  7.2652018959821E-09  6.2969301577714E-09  5.3285723462207E-09  4.3600933230671E-09  3.3914579342640E-09  2.4226310021162E-09  1.4535773212832E-09  4.8462486124144E-10 -1.8160392386009E-13 
 9.2000000000013E-01  9.2000000000038E-01  9.2000000000038E-01  9.2000000000038E-01  9.2000000000038E-01  9.2000000000038E-01  9.2000000000038E-01  9.2000000000038E-01  9.2000000000038E-01  9.2000000000038E-01 
 3.9999999999934E-02  3.9999999999812E-02  3.9999999999812E-02  3.9999999999812E-02  3.9999999999812E-02  3.9999999999812E-02  3.9999999999812E-02  3.9999999999812E-02  3.9999999999812E-02  3.9999999999812E-02 
 3.9999999999934E-02  3.9999999999812E-02  3.9999999999812E-02  3.9999999999812E-02  3.9999999999812E-02  3.9999999999812E-02  3.9999999999812E-02  3.9999999999812E-02  3.9999999999812E-02  3.9999999999812E-02 
 1.8779476972377E-02  1.8779392834692E-02  1.8779318590673E-02  1.8779254240798E-02  1.8779199785948E-02  1.8779155227387E-02  1.8779120566674E-02  1.8779095805798E-02  1.8779080947050E-02  1.8779075993144E-02 
 3.8000730035520E+00  3.8000721024868E+00  3.8000693992616E+00  3.8000648937817E+00  3.8000585858867E+00  3.8000504753512E+00  3.8000405618841E+00  3.8000288451288E+00  3.8000153246633E+00  3.8000000000000E+00 
 3.7812935265796E+00  3.7812927096521E+00  3.7812900806709E+00  3.7812856395409E+00  3.7812793861008E+00  3.7812713201239E+00  3.7812614413174E+00  3.7812497493230E+00  3.7812362437163E+00  3.7812209240069E+00 
 3.9779717443742E+00  3.9779717443741E+00  3.9779717443741E+00  3.9779717443741E+00  3.9779717443741E+00  3.9779717443741E+00  3.9779717443741E+00  3.9779717443741E+00  3.9779717443741E+00  3.9779717443741E+00 
-1.9667821779458E-01 -1.9667903472205E-01 -1.9668166370320E-01 -1.9668610483326E-01 -1.9669235827332E-01 -1.9670042425026E-01 -1.9671030305668E-01 -1.9672199505109E-01 -1.9673550065783E-01 -1.9675082036726E-01 
-6.9717382118823E-01 -1.3943704504752E+00 -1.3944438524892E+00 -1.3945678590575E+00 -1.3947424881582E+00 -1.3949677651133E+00 -1.3952437225937E+00 -1.3955704006335E+00 -1.3959478466385E+00 -6.9818805770209E-01 
 6.1447599324802E-08  5.4221988225323E-08  4.6996084187937E-08  3.9769536422056E-08  3.2542066067590E-08  2.5313457627842E-08  1.8083394713432E-08  1.0851660519332E-08  3.6179424174750E-09  3.6179424174750E-09 
 1.2554747715435E+01  1.1160413723989E+01  9.7660597712627E+00  8.3716100960778E+00  6.9770092938958E+00  5.5822096667924E+00  4.1871598956706E+00  2.7918085352839E+00  1.3961045031876E+00  0.0000000000000E+00 
 0.0000000000000E+00  1.3943036548329E+00  2.7886553942711E+00  4.1831057949625E+00  5.5777054490166E+00  6.9725049698453E+00  8.3675549992066E+00  9.7629062154502E+00  1.1158609340562E+01  1.2554743281270E+01 
 6.9717382118823E-09  1.3943704504752E-08  1.3944438524892E-08  1.3945678590575E-08  1.3947424881582E-08  1.3949677651133E-08  1.3952437225937E-08  1.3955704006335E-08  1.3959478466385E-08  6.9818805770209E-09 
 7.2440786946295E+03  1.4488157389259E+04  1.4488157389259E+04  1.4488157389259E+04  1.4488157389259E+04  1.4488157389259E+04  1.4488157389259E+04  1.4488157389259E+04  1.4488157389259E+04  7.2440786946295E+03 
 4.9259735123426E+04  9.8519470246851E+04  9.8519470246852E+04  9.8519470246851E+04  9.8519470246852E+04  9.8519470246852E+04  9.8519470246851E+04  9.8519470246852E+04  9.8519470246851E+04  4.9259735123426E+04 
 5.6503813818055E+04  1.1300762763611E+05  1.1300762763611E+05  1.1300762763611E+05  1.1300762763611E+05  1.1300762763611E+05  1.1300762763611E+05  1.1300762763611E+05  1.1300762763611E+05  5.6503813818055E+04 
 3.5000000000000E-01  3.5000000000000E-01  3.5000000000000E-01  3.5000000000000E-01  3.5000000000000E-01  3.5000000000000E-01  3.5000000000000E-01  3.5000000000000E-01  3.5000000000000E-01  3.5000000000000E-01 
 6.6040000000000E+00  1.3208000000000E+01  1.3208000000000E+01  1.3208000000000E+01  1.3208000000000E+01  1.3208000000000E+01  1.3208000000000E+01  1.3208000000000E+01  1.3208000000000E+01  6.6040000000000E+00 
-1.0556841629137E-01 -1.0557014313107E-01 -1.0557570052159E-01 -1.0558508926844E-01 -1.0559831073276E-01 -1.0561536683172E-01 -1.0563626003889E-01 -1.0566099338533E-01 -1.0568957046021E-01 -1.0572199541219E-01 
 3.3866666666667E-05  6.7733333333333E-05  6.7733333333334E-05  6.7733333333333E-05  6.7733333333334E-05  6.7733333333334E-05  6.7733333333333E-05  6.7733333333334E-05  6.7733333333333E-05  3.3866666666667E-05 
 2.6603001364259E+01  2.6603001364259E+01  2.6603001364259E+01  2.6603001364259E+01  2.6603001364259E+01  2.6603001364259E+01  2.6603001364259E+01  2.6603001364259E+01  2.6603001364259E+01  2.6603001364259E+01 
 1.7735334242836E+01  1.7735334242836E+01  1.7735334242836E+01  1.7735334242836E+01  1.7735334242836E+01  1.7735334242836E+01  1.7735334242836E+01  1.7735334242836E+01  1.7735334242836E+01  1.7735334242836E+01 
 8.8255423553175E-05  8.8257390041414E-05  8.8263659681828E-05  8.8274251780430E-05  8.8289167972665E-05  8.8308410562239E-05  8.8331982521496E-05  8.8359887492681E-05  8.8392129788901E-05  8.8425369198385E-05 
 8.8255423553175E+03  8.8257390041414E+03  8.8263659681828E+03  8.8274251780430E+03  8.8289167972665E+03  8.8308410562239E+03  8.8331982521496E+03  8.8359887492681E+03  8.8392129788901E+03  8.8425369198385E+03 
 1.4729362593735E-02  1.3099184205581E-02  1.0042429030744E-02  7.3928606955683E-03  5.1504818769546E-03  3.3153683717065E-03  1.8876508939740E-03  8.6751729187379E-04  2.5521848793449E-04  5.1062043491185E-05 
 9.2742244829241E-03  4.6372032318281E-02  1.5767063950305E-01  3.4318579705493E-01  6.0294402676052E-01  9.3698262917344E-01  1.3453496950009E+00  1.8281041200096E+00  2.3853156231342E+00  2.6825450361677E+00 
 8.8255183517304E+03  8.8256795329248E+03  8.8261982551143E+03  8.8270745993852E+03  8.8283087027579E+03  8.8299007582264E+03  8.8318510148037E+03  8.8341597776308E+03  8.8368274080485E+03  8.8398543237402E+03 
 4.0487865544597E+03  4.0488696000677E+03  4.0491368629199E+03  4.0495883876552E+03  4.0502242497049E+03  4.0510445553158E+03  4.0520494415772E+03  4.0532390764818E+03  4.0546136589686E+03  4.0561734190037E+03 
 4.7767317972708E+03  4.7768099328571E+03  4.7770613921944E+03  4.7774862117300E+03  4.7780844530530E+03  4.7788562029106E+03  4.7798015732265E+03  4.7809207011490E+03  4.7822137490798E+03  4.7836809047365E+03 
ZONE T = "CATH, 2.0000E-08", I = 10, SOLUTIONTIME = 2.000000E-08
ZONETYPE = ORDERED
DATAPACKING = BLOCK
STRANDID = 3
 1.2700000000000E-03  1.3377333333333E-03  1.4054666666667E-03  1.4732000000000E-03  1.5409333333333E-03  1.6086666666667E-03  1.6764000000000E-03  1.7441333333333E-03  1.8118666666667E-03  1.8796000000000E-03 
 8.2361148253613E-09  7.2678552888370E-09  6.2984551562738E-09  5.3300585325129E-09  4.3615406403589E-09  3.3928663082138E-09  2.4236371340597E-09  1.4545443112579E-09  4.8518937706143E-10 -3.1902975105172E-23 
 9.2000000000027E-01  9.2000000000075E-01  9.2000000000075E-01  9.2000000000075E-01  9.2000000000075E-01  9.2000000000075E-01  9.2000000000075E-01  9.2000000000075E-01  9.2000000000075E-01  9.2000000000075E-01 
 3.9999999999867E-02  3.9999999999624E-02  3.9999999999624E-02  3.9999999999624E-02  3.9999999999624E-02  3.9999999999624E-02  3.9999999999624E-02  3.9999999999624E-02  3.9999999999624E-02  3.9999999999624E-02 
 3.9999999999867E-02  3.9999999999624E-02  3.9999999999624E-02  3.9999999999624E-02  3.9999999999624E-02  3.9999999999624E-02  3.9999999999624E-02  3.9999999999624E-02  3.9999999999624E-02  3.9999999999624E-02 
 1.8779494291464E-02  1.8779410150428E-02  1.8779335903417E-02  1.8779271550952E-02  1.8779217093913E-02  1.8779172533540E-02  1.8779137871430E-02  1.8779113109543E-02  1.8779098250195E-02  1.8779093296067E-02 
 3.8000730064805E+00  3.8000721053792E+00  3.8000694020459E+00  3.8000648963856E+00  3.8000585882381E+00  3.8000504773777E+00  3.8000405635131E+00  3.8000288462878E+00  3.8000153252793E+00  3.8000000000000E+00 
 3.7812935121890E+00  3.7812926952288E+00  3.7812900661424E+00  3.7812856248346E+00  3.7812793711442E+00  3.7812713048441E+00  3.7812614256417E+00  3.7812497331782E+00  3.7812362270292E+00  3.7812209067039E+00 
 3.9779717443741E+00  3.9779717443740E+00  3.9779717443740E+00  3.9779717443740E+00  3.9779717443740E+00  3.9779717443740E+00  3.9779717443740E+00  3.9779717443740E+00  3.9779717443740E+00  3.9779717443740E+00 
-1.9667823218510E-01 -1.9667904914520E-01 -1.9668167823153E-01 -1.9668611953934E-01 -1.9669237322979E-01 -1.9670043952985E-01 -1.9671031873228E-01 -1.9672201119575E-01 -1.9673551734482E-01 -1.9675083767004E-01 
-6.9717402207301E-01 -1.3943708531602E+00 -1.3944442581321E+00 -1.3945682696998E+00 -1.3947429058446E+00 -1.3949681918921E+00 -1.3952441605204E+00 -1.3955708517698E+00 -1.3959483130551E+00 -6.9818829959050E-01 
 6.1450101813590E-08  5.4224173523286E-08  4.6997975689029E-08  3.9771135224680E-08  3.2543389766278E-08  2.5314476842424E-08  1.8084133820688E-08  1.0852097834779E-08  3.6181057925139E-09  3.6181057925139E-09 
 1.2555220125807E+01  1.1160860677184E+01  9.7664531214671E+00  8.3719468575200E+00  6.9772912695834E+00  5.5824357206472E+00  4.1873295448534E+00  2.7919220386942E+00  1.3961624561237E+00  0.0000000000000E+00 
 0.0000000000000E+00  1.3943594486907E+00  2.7887670043199E+00  4.1832732681021E+00  5.5779288558543E+00  6.9727844048677E+00  8.3678905811233E+00  9.7632980871939E+00  1.1159057669632E+01  1.2555220125901E+01 
 1.3943478432612E-08  2.7887413036354E-08  2.7888881106213E-08  2.7891361287573E-08  2.7894853940028E-08  2.7899359570055E-08  2.7904878831141E-08  2.7911412524033E-08  2.7918961596936E-08  1.3963763572926E-08 
 7.2440786946364E+03  1.4488157389273E+04  1.4488157389273E+04  1.4488157389273E+04  1.4488157389273E+04  1.4488157389273E+04  1.4488157389273E+04  1.4488157389273E+04  1.4488157389273E+04  7.2440786946364E+03 
 4.9259735123419E+04  9.8519470246837E+04  9.8519470246838E+04  9.8519470246837E+04  9.8519470246838E+04  9.8519470246838E+04  9.8519470246837E+04  9.8519470246838E+04  9.8519470246837E+04  4.9259735123419E+04 
 5.6503813818055E+04  1.1300762763611E+05  1.1300762763611E+05  1.1300762763611E+05  1.1300762763611E+05  1.1300762763611E+05  1.1300762763611E+05  1.1300762763611E+05  1.1300762763611E+05  5.6503813818055E+04 
 3.5000000000000E-01  3.5000000000000E-01  3.5000000000000E-01  3.5000000000000E-01  3.5000000000000E-01  3.5000000000000E-01  3.5000000000000E-01  3.5000000000000E-01  3.5000000000000E-01  3.5000000000000E-01 
 6.6040000000000E+00  1.3208000000000E+01  1.3208000000000E+01  1.3208000000000E+01  1.3208000000000E+01  1.3208000000000E+01  1.3208000000000E+01  1.3208000000000E+01  1.3208000000000E+01  6.6040000000000E+00 
-1.0556844671003E-01 -1.0557017361903E-01 -1.0557573123350E-01 -1.0558512035886E-01 -1.0559834235649E-01 -1.0561539914386E-01 -1.0563629319507E-01 -1.0566102754162E-01 -1.0568960577341E-01 -1.0572203203975E-01 
 3.3866666666667E-05  6.7733333333333E-05  6.7733333333334E-05  6.7733333333333E-05  6.7733333333334E-05  6.7733333333334E-05  6.7733333333333E-05  6.7733333333334E-05  6.7733333333333E-05  3.3866666666667E-05 
 2.6603001364261E+01  2.6603001364261E+01  2.6603001364261E+01  2.6603001364261E+01  2.6603001364261E+01  2.6603001364261E+01  2.6603001364261E+01  2.6603001364261E+01  2.6603001364261E+01  2.6603001364261E+01 
 1.7735334242833E+01  1.7735334242833E+01  1.7735334242833E+01  1.7735334242833E+01  1.7735334242833E+01  1.7735334242833E+01  1.7735334242833E+01  1.7735334242833E+01  1.7735334242833E+01  1.7735334242833E+01 
 1.7651087551792E-04  1.7651480858761E-04  1.7652734816434E-04  1.7654853286156E-04  1.7657836595065E-04  1.7661685203944E-04  1.7666399707338E-04  1.7671980833773E-04  1.7678429445975E-04  1.7685077474644E-04 
 8.8255451964744E+03  8.8257418546200E+03  8.8263688482509E+03  8.8274281081131E+03  8.8289197977984E+03  8.8308441477200E+03  8.8332014551881E+03  8.8359920845054E+03  8.8392164670848E+03  8.8425405548058E+03 
 1.4730535765175E-02  1.3100233032033E-02  1.0043238049094E-02  7.3934555152387E-03  5.1508979590808E-03  3.3156370573254E-03  1.8878036783102E-03  8.6758794250229E-04  2.5523930527016E-04  5.1066654487081E-05 
 9.2749666666380E-03  4.6375743657224E-02  1.5768326097438E-01  3.4321327773120E-01  6.0299232931175E-01  9.3705773539914E-01  1.3454576114617E+00  1.8282508836173E+00  2.3855073069220E+00  2.6827607031964E+00 
 8.8255211909720E+03  8.8256823786433E+03  8.8262011217519E+03  8.8270775013799E+03  8.8283116545711E+03  8.8299037743476E+03  8.8318541097729E+03  8.8341629660338E+03  8.8368307045385E+03  8.8398577430359E+03 
 4.0487880173245E+03  4.0488710662719E+03  4.0491383399100E+03  4.0495898828756E+03  4.0502257706124E+03  4.0510461093824E+03  4.0520510363015E+03  4.0532407193870E+03  4.0546153576136E+03  4.0561751809822E+03 
 4.7767331736475E+03  4.7768113123713E+03  4.7770627818419E+03  4.7774876185043E+03  4.7780858839586E+03  4.7788576649652E+03  4.7798030734714E+03  4.7809222466469E+03  4.7822153469249E+03  4.7836825620537E+03 
ZONE T = "CATH, 3.0000E-08", I = 10, SOLUTIONTIME = 3.000000E-08
ZONETYPE = ORDERED
DATAPACKING = BLOCK
STRANDID = 3
 1.2700000000000E-03  1.3377333333333E-03  1.4054666666667E-03  1.4732000000000E-03  1.5409333333333E-03  1.6086666666667E-03  1.6764000000000E-03  1.7441333333333E-03  1.8118666666667E-03  1.8796000000000E-03 
 8.2330275596216E-09  7.2651312308314E-09  6.2975471369134E-09  5.3302401363421E-09  4.3617222441944E-09  3.3930479120556E-09  2.4241819456356E-09  1.4539994996568E-09  4.8464456546664E-10  1.5697448489684E-23 
 9.2000000000040E-01  9.2000000000113E-01  9.2000000000113E-01  9.2000000000113E-01  9.2000000000113E-01  9.2000000000113E-01  9.2000000000113E-01  9.2000000000113E-01  9.2000000000113E-01  9.2000000000113E-01 
 3.9999999999801E-02  3.9999999999436E-02  3.9999999999436E-02  3.9999999999436E-02  3.9999999999436E-02  3.9999999999436E-02  3.9999999999436E-02  3.9999999999436E-02  3.9999999999436E-02  3.9999999999436E-02 
 3.9999999999801E-02  3.9999999999436E-02  3.9999999999436E-02  3.9999999999436E-02  3.9999999999436E-02  3.9999999999436E-02  3.9999999999436E-02  3.9999999999436E-02  3.9999999999436E-02  3.9999999999436E-02 
 1.8779494291412E-02  1.8779410150375E-02  1.8779335903364E-02  1.8779271550899E-02  1.8779217093861E-02  1.8779172533487E-02  1.8779137871378E-02  1.8779113109490E-02  1.8779098250143E-02  1.8779093296014E-02 
 3.8000730064805E+00  3.8000721053792E+00  3.8000694020459E+00  3.8000648963856E+00  3.8000585882381E+00  3.8000504773777E+00  3.8000405635131E+00  3.8000288462878E+00  3.8000153252793E+00  3.8000000000000E+00 
 3.7812935121891E+00  3.7812926952288E+00  3.7812900661425E+00  3.7812856248347E+00  3.7812793711442E+00  3.7812713048442E+00  3.7812614256417E+00  3.7812497331783E+00  3.7812362270292E+00  3.7812209067040E+00 
 3.9779717443740E+00  3.9779717443738E+00  3.9779717443738E+00  3.9779717443738E+00  3.9779717443738E+00  3.9779717443738E+00  3.9779717443738E+00  3.9779717443738E+00  3.9779717443738E+00  3.9779717443738E+00 
-1.9667823218497E-01 -1.9667904914500E-01 -1.9668167823133E-01 -1.9668611953914E-01 -1.9669237322959E-01 -1.9670043952964E-01 -1.9671031873208E-01 -1.9672201119555E-01 -1.9673551734462E-01 -1.9675083766983E-01 
-6.9717402207060E-01 -1.3943708531511E+00 -1.3944442581230E+00 -1.3945682696907E+00 -1.3947429058355E+00 -1.3949681918831E+00 -1.3952441605113E+00 -1.3955708517607E+00 -1.3959483130460E+00 -6.9818829958594E-01 
 6.1450157245644E-08  5.4224173531770E-08  4.6997975694634E-08  3.9771135238171E-08  3.2543389778284E-08  2.5314476858895E-08  1.8084133842511E-08  1.0852097857144E-08  3.6181058178251E-09  3.6181058178251E-09 
 1.2555220125278E+01  1.1160860676896E+01  9.7664531214213E+00  8.3719468574807E+00  6.9772912697951E+00  5.5824357208655E+00  4.1873295445892E+00  2.7919220384366E+00  1.3961624561171E+00  0.0000000000000E+00 
 0.0000000000000E+00  1.3943594486907E+00  2.7887670043199E+00  4.1832732681021E+00  5.5779288558543E+00  6.9727844048677E+00  8.3678905809515E+00  9.7632980871939E+00  1.1159057669632E+01  1.2555220125553E+01 
 2.0915218653318E-08  4.1831121567865E-08  4.1833323687443E-08  4.1837043984480E-08  4.1842282998383E-08  4.1849041488885E-08  4.1857320436254E-08  4.1867121041639E-08  4.1878444727397E-08  2.0945646568785E-08 
 7.2440786946434E+03  1.4488157389287E+04  1.4488157389287E+04  1.4488157389287E+04  1.4488157389287E+04  1.4488157389287E+04  1.4488157389287E+04  1.4488157389287E+04  1.4488157389287E+04  7.2440786946434E+03 
 4.9259735123412E+04  9.8519470246823E+04  9.8519470246824E+04  9.8519470246823E+04  9.8519470246824E+04  9.8519470246824E+04  9.8519470246823E+04  9.8519470246824E+04  9.8519470246823E+04  4.9259735123412E+04 
 5.6503813818055E+04  1.1300762763611E+05  1.1300762763611E+05  1.1300762763611E+05  1.1300762763611E+05  1.1300762763611E+05  1.1300762763611E+05  1.1300762763611E+05  1.1300762763611E+05  5.6503813818055E+04 
 3.5000000000000E-01  3.5000000000000E-01  3.5000000000000E-01  3.5000000000000E-01  3.5000000000000E-01  3.5000000000000E-01  3.5000000000000E-01  3.5000000000000E-01  3.5000000000000E-01  3.5000000000000E-01 
 6.6040000000000E+00  1.3208000000000E+01  1.3208000000000E+01  1.3208000000000E+01  1.3208000000000E+01  1.3208000000000E+01  1.3208000000000E+01  1.3208000000000E+01  1.3208000000000E+01  6.6040000000000E+00 
-1.0556844670966E-01 -1.0557017361835E-01 -1.0557573123281E-01 -1.0558512035817E-01 -1.0559834235581E-01 -1.0561539914317E-01 -1.0563629319438E-01 -1.0566102754093E-01 -1.0568960577272E-01 -1.0572203203906E-01 
 3.3866666666667E-05  6.7733333333333E-05  6.7733333333334E-05  6.7733333333333E-05  6.7733333333334E-05  6.7733333333334E-05  6.7733333333333E-05  6.7733333333334E-05  6.7733333333333E-05  3.3866666666667E-05 
 2.6603001364263E+01  2.6603001364263E+01  2.6603001364263E+01  2.6603001364263E+01  2.6603001364263E+01  2.6603001364263E+01  2.6603001364263E+01  2.6603001364263E+01  2.6603001364263E+01  2.6603001364263E+01 
 1.7735334242831E+01  1.7735334242831E+01  1.7735334242831E+01  1.7735334242831E+01  1.7735334242831E+01  1.7735334242831E+01  1.7735334242831E+01  1.7735334242831E+01  1.7735334242831E+01  1.7735334242831E+01 
 2.6476632748235E-04  2.6477222713323E-04  2.6479103664626E-04  2.6482281394211E-04  2.6486756392805E-04  2.6492529351605E-04  2.6499601162467E-04  2.6507972918220E-04  2.6517645913001E-04  2.6527618029391E-04 
 8.8255451964428E+03  8.8257418545615E+03  8.8263688481924E+03  8.8274281080546E+03  8.8289197977398E+03  8.8308441476614E+03  8.8332014551293E+03  8.8359920844467E+03  8.8392164670261E+03  8.8425405547468E+03 
 1.4730535763913E-02  1.3100233031375E-02  1.0043238049047E-02  7.3934555152040E-03  5.1508979593783E-03  3.3156370576315E-03  1.8878036781226E-03  8.6758794231946E-04  2.5523930526896E-04  5.1066654486841E-05 
 9.2749666666380E-03  4.6375743657224E-02  1.5768326097438E-01  3.4321327773120E-01  6.0299232931175E-01  9.3705773539914E-01  1.3454576114022E+00  1.8282508836265E+00  2.3855073069129E+00  2.6827607030409E+00 
 8.8255211909403E+03  8.8256823785848E+03  8.8262011216933E+03  8.8270775013214E+03  8.8283116545126E+03  8.8299037742890E+03  8.8318541097143E+03  8.8341629659751E+03  8.8368307044799E+03  8.8398577429771E+03 
 4.0487880173079E+03  4.0488710662415E+03  4.0491383398795E+03  4.0495898828451E+03  4.0502257705819E+03  4.0510461093519E+03  4.0520510362710E+03  4.0532407193564E+03  4.0546153575830E+03  4.0561751809515E+03 
 4.7767331736324E+03  4.7768113123433E+03  4.7770627818138E+03  4.7774876184763E+03  4.7780858839306E+03  4.7788576649371E+03  4.7798030734433E+03  4.7809222466187E+03  4.7822153468969E+03  4.7836825620256E+03 
ZONE T = "CATH, 4.0000E-08", I = 10, SOLUTIONTIME = 4.000000E-08
ZONETYPE = ORDERED
DATAPACKING = BLOCK
STRANDID = 3
 1.2700000000000E-03  1.3377333333333E-03  1.4054666666667E-03  1.4732000000000E-03  1.5409333333333E-03  1.6086666666667E-03  1.6764000000000E-03  1.7441333333333E-03  1.8118666666667E-03  1.8796000000000E-03 
 8.2415629411707E-09  7.2729401969313E-09  6.3046296875640E-09  5.3358698560879E-09  4.3673519639466E-09  3.3986776318140E-09  2.4312644963115E-09  1.4632612967058E-09  4.9354315479411E-10  8.5353816028721E-12 
 9.2000000000053E-01  9.2000000000150E-01  9.2000000000150E-01  9.2000000000150E-01  9.2000000000150E-01  9.2000000000150E-01  9.2000000000150E-01  9.2000000000150E-01  9.2000000000150E-01  9.2000000000151E-01 
 3.9999999999734E-02  3.9999999999249E-02  3.9999999999248E-02  3.9999999999248E-02  3.9999999999248E-02  3.9999999999248E-02  3.9999999999248E-02  3.9999999999248E-02  3.9999999999248E-02  3.9999999999247E-02 
 3.9999999999734E-02  3.9999999999249E-02  3.9999999999248E-02  3.9999999999248E-02  3.9999999999248E-02  3.9999999999248E-02  3.9999999999248E-02  3.9999999999248E-02  3.9999999999248E-02  3.9999999999247E-02 
 1.8779494291359E-02  1.8779410150323E-02  1.8779335903311E-02  1.8779271550847E-02  1.8779217093808E-02  1.8779172533435E-02  1.8779137871325E-02  1.8779113109438E-02  1.8779098250090E-02  1.8779093295962E-02 
 3.8000730064805E+00  3.8000721053792E+00  3.8000694020459E+00  3.8000648963856E+00  3.8000585882381E+00  3.8000504773777E+00  3.8000405635131E+00  3.8000288462878E+00  3.8000153252793E+00  3.8000000000000E+00 
 3.7812935121891E+00  3.7812926952289E+00  3.7812900661425E+00  3.7812856248347E+00  3.7812793711443E+00  3.7812713048442E+00  3.7812614256418E+00  3.7812497331783E+00  3.7812362270293E+00  3.7812209067040E+00 
 3.9779717443740E+00  3.9779717443737E+00  3.9779717443737E+00  3.9779717443737E+00  3.9779717443737E+00  3.9779717443737E+00  3.9779717443737E+00  3.9779717443737E+00  3.9779717443737E+00  3.9779717443737E+00 
-1.9667823218485E-01 -1.9667904914480E-01 -1.9668167823113E-01 -1.9668611953894E-01 -1.9669237322939E-01 -1.9670043952944E-01 -1.9671031873188E-01 -1.9672201119535E-01 -1.9673551734441E-01 -1.9675083766963E-01 
-6.9717402206818E-01 -1.3943708531421E+00 -1.3944442581139E+00 -1.3945682696816E+00 -1.3947429058264E+00 -1.3949681918740E+00 -1.3952441605022E+00 -1.3955708517516E+00 -1.3959483130369E+00 -6.9818829958139E-01 