VARIABLES = "Temp [K]" "(H-H298) [kJ/mol]" "(G-H298) [kJ/mol]" "Cp [J/mol/K]" "S [J/mol/K]" "G_abs [kJ/mol]"
ZONE T = "EC_C3H4O3(L)" 
#        Heat of formation (298.15K) = -573.5069  kJ/gmol 
     298.00      -0.0199        -25.6785       132.8490      86.1026        -599.1854   
     298.15      -0.0000        -25.6914       132.8686      86.1694        -599.1983   
     300.00       0.2460        -25.8516       133.1111      86.9921        -599.3585   
     350.00       7.0654        -30.7358       139.6638     108.0033        -604.2427   
     400.00      14.2124        -36.6198       146.2165     127.0806        -610.1267   
     450.00      21.6871        -43.4193       152.7692     144.6807        -616.9262   
     500.00      29.4893        -51.0685       159.3219     161.1157        -624.5755   
     550.00      37.6192        -59.5152       165.8746     176.6080        -633.0221   
     600.00      46.0768        -68.7164       172.4273     191.3220        -642.2233   
     650.00      54.8620        -78.6365       178.9800     205.3823        -652.1434   

ZONE T = "EC_C3H4O3(Cr)" 
#        Heat of formation (298.15K) = -584.7819  kJ/gmol 
     298.00      -0.0176        -14.9178       117.0491      50.0008        -599.6997   
     298.15       0.0000        -14.9253       117.1403      50.0597        -599.7072   
     300.00       0.2178        -15.0186       118.2771      50.7878        -599.8005   
     350.00       6.5658        -18.0567       130.0219      70.3500        -602.8386   
     400.00      13.2307        -22.0252       136.5746      88.1398        -606.8071   
     450.00      20.2232        -26.8487       143.1273     104.6043        -611.6305   
     500.00      27.5434        -32.4683       149.6800     120.0234        -617.2501   
     550.00      35.1912        -38.8370       156.2327     134.5967        -623.6188   
     600.00      43.1667        -45.9163       162.7854     148.4717        -630.6982   
     650.00      51.4698        -53.6744       169.3381     161.7602        -638.4562   

ZONE T = "EC_C3H4O3(g)" 
#        Heat of formation (298.15K) = -510.6878  kJ/gmol 
     298.00      -0.0122        -89.0122        81.4813     298.6577        -599.7000   
     298.15       0.0000        -89.0570        81.5192     298.6987        -599.7448   
     300.00       0.1512        -89.6101        81.9860     299.2044        -600.2979   
     350.00       4.5566       -104.9102        94.0556     312.7624        -615.5980   
     400.00       9.5399       -120.8819       105.1103     326.0544        -631.5697   
     450.00      15.0517       -137.5103       115.2098     339.0268        -648.1981   
     500.00      21.0459       -154.7787       124.4137     351.6493        -665.4665   
     550.00      27.4792       -172.6691       132.7819     363.9061        -683.3569   
     600.00      34.3112       -191.1631       140.3741     375.7905        -701.8509   
     650.00      41.5047       -210.2420       147.2499     387.3025        -720.9298   

ZONE T = "DMC_C3H6O3(L)" 
#        Heat of formation (298.15K) = -608.6751  kJ/gmol 
     298.00      -0.0249        -65.7908       165.8225     220.6909        -674.4659   
     298.15       0.0000        -65.8239       165.8493     220.7744        -674.4990   
     300.00       0.3071        -66.2333       166.1802     221.8013        -674.9084   
     350.00       8.8397        -77.9917       175.1227     248.0896        -686.6668   
     400.00      17.8194        -91.0037       184.0652     272.0578        -699.6788   
     450.00      27.2462       -105.1680       193.0077     294.2538        -713.8431   
     500.00      37.1202       -120.4059       201.9501     315.0520        -729.0810   
     550.00      47.4412       -136.6544       210.8926     334.7193        -745.3295   
     600.00      58.2094       -153.8623       219.8351     353.4528        -762.5373   
     650.00      69.4247       -171.9866       228.7776     371.4021        -780.6617   

#ZONE T = "DMC_C3H6O3(g)" 
##        Heat of formation (298.15K) = -553.8838  kJ/gmol 
#     298.00      -0.0161        -75.1161       107.6023     252.0134        -628.9999   
#     298.15       0.0000        -75.1539       107.6482     252.0676        -629.0377   
#     300.00       0.1997        -75.6209       108.2133     252.7352        -629.5047   
#     350.00       5.9819        -88.7046       122.8835     270.5328        -642.5884   
#     400.00      12.4693       -102.6660       136.4303     287.8381        -656.5498   
#     450.00      19.6072       -117.4800       148.9118     304.6381        -671.3638   
#     500.00      27.3437       -133.1213       160.3858     320.9300        -687.0051   
#     550.00      35.6299       -149.5646       170.9101     336.7172        -703.4484   
#     600.00      44.4198       -166.7847       180.5427     352.0076        -720.6685   
#     650.00      53.6703       -184.7572       189.3413     366.8115        -738.6410   

ZONE T = "DMC_C3H6O3(g)"
#        Heat of formation (298.15K) = -569.2087  kJ/gmol 
     298.00      -0.0163       -104.7822       108.7001     351.5634        -673.9909   
     298.15       0.0000       -104.8349       108.7327     351.6181        -674.0436   
     300.00       0.2015       -105.4860       109.1354     352.2919        -674.6947   
     350.00       5.9254       -123.5458       119.7252     369.9177        -692.7545   
     400.00      12.1647       -142.4616       129.7552     386.5657        -711.6702   
     450.00      18.8917       -162.1889       139.2342     402.4013        -731.3975   
     500.00      26.0791       -182.6901       148.1722     417.5384        -751.8987   
     550.00      33.7001       -203.9324       156.5801     432.0592        -773.1411   
     600.00      41.7285       -225.8868       164.4696     446.0254        -795.0954   
     650.00      50.1387       -248.5265       171.8536     459.4849        -817.7352   


ZONE T =  "PC_C4H6O3(L)" 
#        Heat of formation (298.15K) = -614.0766  kJ/gmol 
     298.00      -0.0230        -14.9236       153.5342      50.0020        -629.0002   
     298.15       0.0000        -14.9311       153.5632      50.0792        -629.0077   
     300.00       0.2844        -15.0246       153.9190      51.0302        -629.1012   
     350.00       8.1891        -18.1958       161.4933      75.3852        -632.2723   
     400.00      16.3236        -22.5196       162.4583      97.1079        -636.5962   
     450.00      24.2591        -27.8564       152.8754     115.8122        -641.9330   
     500.00      31.3697        -34.0392       128.8063     130.8179        -648.1158   
     550.00      36.8326        -40.8622        86.3125     141.2634        -654.9388   
     600.00      39.6282        -48.0733        21.4554     146.1692        -662.1499   
     650.00      38.5398        -55.3692       -69.7033     144.4754        -669.4458   


ZONE T =  "PC_C4H6O3(g)" 
#        Heat of formation (298.15K) = -553.8838  kJ/gmol 
     298.00      -0.0161        -75.1161       107.6023     252.0134        -628.9999   
     298.15       0.0000        -75.1539       107.6482     252.0676        -629.0377   
     300.00       0.1997        -75.6209       108.2133     252.7352        -629.5047   
     350.00       5.9819        -88.7046       122.8835     270.5328        -642.5884   
     400.00      12.4693       -102.6660       136.4303     287.8381        -656.5498   
     450.00      19.6072       -117.4800       148.9118     304.6381        -671.3638   
     500.00      27.3437       -133.1213       160.3858     320.9300        -687.0051   
     550.00      35.6299       -149.5646       170.9101     336.7172        -703.4484   
     600.00      44.4198       -166.7847       180.5427     352.0076        -720.6685   
     650.00      53.6703       -184.7572       189.3413     366.8115        -738.6410   
