TITLE = "Solution on Domain BulkDomain1D_1"
VARIABLES = "x [m]"  
"Vel_axial" 	"MF_sp(ECDMC)" 	"MF_sp(Li+)" 	"MF_sp(PF6-)" 	"Volt(Electroly)" 	"Porosity []" 	"Control volume thickness [m]" 	"volFrac MgO(S) []" 	"qHeat_accum [J/m3]" 	"qHeat_step [W/m3]" 	"Joule_Lyte [W/m3]" 	"Joule_Solid [W/m3]" 	
ZONE T = "SEP , 0.0000E+00", I = 10, SOLUTIONTIME = 0.000000E+00
ZONETYPE = ORDERED
DATAPACKING = BLOCK
STRANDID = 2
 7.8740000000000E-04  8.4102222222222E-04  8.9464444444444E-04  9.4826666666667E-04  1.0018888888889E-03  1.0555111111111E-03  1.1091333333333E-03  1.1627555555556E-03  1.2163777777778E-03  1.2700000000000E-03 
 0.0000000000000E+00  0.0000000000000E+00  0.0000000000000E+00  0.0000000000000E+00  0.0000000000000E+00  0.0000000000000E+00  0.0000000000000E+00  0.0000000000000E+00  0.0000000000000E+00  0.0000000000000E+00 
 9.2000000000000E-01  9.2000000000000E-01  9.2000000000000E-01  9.2000000000000E-01  9.2000000000000E-01  9.2000000000000E-01  9.2000000000000E-01  9.2000000000000E-01  9.2000000000000E-01  9.2000000000000E-01 
 4.0000000000000E-02  4.0000000000000E-02  4.0000000000000E-02  4.0000000000000E-02  4.0000000000000E-02  4.0000000000000E-02  4.0000000000000E-02  4.0000000000000E-02  4.0000000000000E-02  4.0000000000000E-02 
 4.0000000000000E-02  4.0000000000000E-02  4.0000000000000E-02  4.0000000000000E-02  4.0000000000000E-02  4.0000000000000E-02  4.0000000000000E-02  4.0000000000000E-02  4.0000000000000E-02  4.0000000000000E-02 
-7.0000000000000E-02 -7.0000000000000E-02 -7.0000000000000E-02 -7.0000000000000E-02 -7.0000000000000E-02 -7.0000000000000E-02 -7.0000000000000E-02 -7.0000000000000E-02 -7.0000000000000E-02 -7.0000000000000E-02 
 8.0911499769706E-01  8.0911499769706E-01  8.0911499769706E-01  8.0911499769706E-01  8.0911499769706E-01  8.0911499769706E-01  8.0911499769706E-01  8.0911499769706E-01  8.0911499769706E-01  8.0911499769706E-01 
 2.6811111111111E-05  5.3622222222222E-05  5.3622222222222E-05  5.3622222222222E-05  5.3622222222222E-05  5.3622222222222E-05  5.3622222222222E-05  5.3622222222223E-05  5.3622222222222E-05  2.6811111111111E-05 
 1.9088500230294E-01  1.9088500230294E-01  1.9088500230294E-01  1.9088500230294E-01  1.9088500230294E-01  1.9088500230294E-01  1.9088500230294E-01  1.9088500230294E-01  1.9088500230294E-01  1.9088500230294E-01 
 0.0000000000000E+00  0.0000000000000E+00  0.0000000000000E+00  0.0000000000000E+00  0.0000000000000E+00  0.0000000000000E+00  0.0000000000000E+00  0.0000000000000E+00  0.0000000000000E+00  0.0000000000000E+00 
 0.0000000000000E+00  0.0000000000000E+00  0.0000000000000E+00  0.0000000000000E+00  0.0000000000000E+00  0.0000000000000E+00  0.0000000000000E+00  0.0000000000000E+00  0.0000000000000E+00  0.0000000000000E+00 
 0.0000000000000E+00  0.0000000000000E+00  0.0000000000000E+00  0.0000000000000E+00  0.0000000000000E+00  0.0000000000000E+00  0.0000000000000E+00  0.0000000000000E+00  0.0000000000000E+00  0.0000000000000E+00 
 0.0000000000000E+00  0.0000000000000E+00  0.0000000000000E+00  0.0000000000000E+00  0.0000000000000E+00  0.0000000000000E+00  0.0000000000000E+00  0.0000000000000E+00  0.0000000000000E+00  0.0000000000000E+00 
ZONE T = "SEP , 1.0000E-08", I = 10, SOLUTIONTIME = 1.000000E-08
ZONETYPE = ORDERED
DATAPACKING = BLOCK
STRANDID = 2
 7.8740000000000E-04  8.4102222222222E-04  8.9464444444444E-04  9.4826666666667E-04  1.0018888888889E-03  1.0555111111111E-03  1.1091333333333E-03  1.1627555555556E-03  1.2163777777778E-03  1.2700000000000E-03 
 2.0863142023659E-08  2.0863142023659E-08  2.0863142023659E-08  2.0863142023659E-08  2.0863142023659E-08  2.0863142023659E-08  2.0863142023659E-08  2.0863142023659E-08  2.0863142023659E-08  1.9704870968796E-08 
 9.1999999999971E-01  9.2000000000000E-01  9.2000000000000E-01  9.2000000000000E-01  9.2000000000000E-01  9.2000000000000E-01  9.2000000000000E-01  9.2000000000000E-01  9.2000000000000E-01  9.2000000000032E-01 
 4.0000000000144E-02  4.0000000000000E-02  4.0000000000000E-02  4.0000000000000E-02  4.0000000000000E-02  4.0000000000000E-02  4.0000000000000E-02  4.0000000000000E-02  4.0000000000000E-02  3.9999999999841E-02 
 4.0000000000144E-02  4.0000000000000E-02  4.0000000000000E-02  4.0000000000000E-02  4.0000000000000E-02  4.0000000000000E-02  4.0000000000000E-02  4.0000000000000E-02  4.0000000000000E-02  3.9999999999841E-02 
 2.9166097552564E-02  2.9166048187974E-02  2.9165998823395E-02  2.9165949458815E-02  2.9165900094236E-02  2.9165850729642E-02  2.9165801365062E-02  2.9165752000482E-02  2.9165702635903E-02  2.9165653271323E-02 
 8.0911499769706E-01  8.0911499769706E-01  8.0911499769706E-01  8.0911499769706E-01  8.0911499769706E-01  8.0911499769706E-01  8.0911499769706E-01  8.0911499769706E-01  8.0911499769706E-01  8.0911499769706E-01 
 2.6811111111111E-05  5.3622222222222E-05  5.3622222222222E-05  5.3622222222222E-05  5.3622222222222E-05  5.3622222222222E-05  5.3622222222222E-05  5.3622222222223E-05  5.3622222222222E-05  2.6811111111111E-05 
 1.9088500230294E-01  1.9088500230294E-01  1.9088500230294E-01  1.9088500230294E-01  1.9088500230294E-01  1.9088500230294E-01  1.9088500230294E-01  1.9088500230294E-01  1.9088500230294E-01  1.9088500230294E-01 
 2.7658311344343E-10  2.7658306031683E-10  2.7658300423553E-10  2.7658300108644E-10  2.7658308618968E-10  2.7658308970811E-10  2.7658300709304E-10  2.7658300423553E-10  2.7658300380760E-10  2.7658300540131E-10 
 2.7658311344343E-02  2.7658306031683E-02  2.7658300423553E-02  2.7658300108644E-02  2.7658308618968E-02  2.7658308970811E-02  2.7658300709304E-02  2.7658300423553E-02  2.7658300380760E-02  2.7658300540131E-02 
 2.7658311344343E-02  2.7658306031683E-02  2.7658300423553E-02  2.7658300108644E-02  2.7658308618968E-02  2.7658308970811E-02  2.7658300709304E-02  2.7658300423553E-02  2.7658300380760E-02  2.7658300540131E-02 
 0.0000000000000E+00  0.0000000000000E+00  0.0000000000000E+00  0.0000000000000E+00  0.0000000000000E+00  0.0000000000000E+00  0.0000000000000E+00  0.0000000000000E+00  0.0000000000000E+00  0.0000000000000E+00 
ZONE T = "SEP , 2.0000E-08", I = 10, SOLUTIONTIME = 2.000000E-08
ZONETYPE = ORDERED
DATAPACKING = BLOCK
STRANDID = 2
 7.8740000000000E-04  8.4102222222222E-04  8.9464444444444E-04  9.4826666666667E-04  1.0018888888889E-03  1.0555111111111E-03  1.1091333333333E-03  1.1627555555556E-03  1.2163777777778E-03  1.2700000000000E-03 
 2.0863245458802E-08  2.0861792627891E-08  2.0861792627891E-08  2.0861792627891E-08  2.0861792627891E-08  2.0861792627891E-08  2.0861792627891E-08  2.0861792627891E-08  2.0861792627891E-08  1.9704060742733E-08 
 9.1999999999942E-01  9.2000000000000E-01  9.2000000000000E-01  9.2000000000000E-01  9.2000000000000E-01  9.2000000000000E-01  9.2000000000000E-01  9.2000000000000E-01  9.2000000000000E-01  9.2000000000063E-01 
 4.0000000000288E-02  4.0000000000000E-02  4.0000000000000E-02  4.0000000000000E-02  4.0000000000000E-02  4.0000000000000E-02  4.0000000000000E-02  4.0000000000000E-02  4.0000000000000E-02  3.9999999999683E-02 
 4.0000000000288E-02  4.0000000000000E-02  4.0000000000000E-02  4.0000000000000E-02  4.0000000000000E-02  4.0000000000000E-02  4.0000000000000E-02  4.0000000000000E-02  4.0000000000000E-02  3.9999999999683E-02 
 2.9166099741619E-02  2.9166050376791E-02  2.9166001011963E-02  2.9165951647136E-02  2.9165902282308E-02  2.9165852917480E-02  2.9165803552652E-02  2.9165754187824E-02  2.9165704822996E-02  2.9165655458168E-02 
 8.0911499769706E-01  8.0911499769706E-01  8.0911499769706E-01  8.0911499769706E-01  8.0911499769706E-01  8.0911499769706E-01  8.0911499769706E-01  8.0911499769706E-01  8.0911499769706E-01  8.0911499769706E-01 
 2.6811111111111E-05  5.3622222222222E-05  5.3622222222222E-05  5.3622222222222E-05  5.3622222222222E-05  5.3622222222222E-05  5.3622222222222E-05  5.3622222222223E-05  5.3622222222222E-05  2.6811111111111E-05 
 1.9088500230294E-01  1.9088500230294E-01  1.9088500230294E-01  1.9088500230294E-01  1.9088500230294E-01  1.9088500230294E-01  1.9088500230294E-01  1.9088500230294E-01  1.9088500230294E-01  1.9088500230294E-01 
 5.5316889981231E-10  5.5316884668521E-10  5.5316879060341E-10  5.5316878743488E-10  5.5316887253813E-10  5.5316887607600E-10  5.5316879346092E-10  5.5316879060341E-10  5.5316879017494E-10  5.5316879176810E-10 
 2.7658578636888E-02  2.7658578636838E-02  2.7658578636789E-02  2.7658578634845E-02  2.7658578634845E-02  2.7658578636789E-02  2.7658578636789E-02  2.7658578636788E-02  2.7658578636734E-02  2.7658578636679E-02 
 2.7658578636888E-02  2.7658578636838E-02  2.7658578636789E-02  2.7658578634845E-02  2.7658578634845E-02  2.7658578636789E-02  2.7658578636789E-02  2.7658578636788E-02  2.7658578636734E-02  2.7658578636679E-02 
 0.0000000000000E+00  0.0000000000000E+00  0.0000000000000E+00  0.0000000000000E+00  0.0000000000000E+00  0.0000000000000E+00  0.0000000000000E+00  0.0000000000000E+00  0.0000000000000E+00  0.0000000000000E+00 
ZONE T = "SEP , 3.0000E-08", I = 10, SOLUTIONTIME = 3.000000E-08
ZONETYPE = ORDERED
DATAPACKING = BLOCK
STRANDID = 2
 7.8740000000000E-04  8.4102222222222E-04  8.9464444444444E-04  9.4826666666667E-04  1.0018888888889E-03  1.0555111111111E-03  1.1091333333333E-03  1.1627555555556E-03  1.2163777777778E-03  1.2700000000000E-03 
 2.0862155835269E-08  2.0863608666180E-08  2.0863608666180E-08  2.0863608666180E-08  2.0863608666180E-08  2.0863608666180E-08  2.0863608666180E-08  2.0863608666180E-08  2.0863608666180E-08  1.9705150365578E-08 
 9.1999999999914E-01  9.2000000000000E-01  9.2000000000000E-01  9.2000000000000E-01  9.2000000000000E-01  9.2000000000000E-01  9.2000000000000E-01  9.2000000000000E-01  9.2000000000000E-01  9.2000000000095E-01 
 4.0000000000432E-02  4.0000000000000E-02  4.0000000000000E-02  4.0000000000000E-02  4.0000000000000E-02  4.0000000000000E-02  4.0000000000000E-02  4.0000000000000E-02  4.0000000000000E-02  3.9999999999524E-02 
 4.0000000000432E-02  4.0000000000000E-02  4.0000000000000E-02  4.0000000000000E-02  4.0000000000000E-02  4.0000000000000E-02  4.0000000000000E-02  4.0000000000000E-02  4.0000000000000E-02  3.9999999999524E-02 
 2.9166099741407E-02  2.9166050376579E-02  2.9166001011751E-02  2.9165951646923E-02  2.9165902282095E-02  2.9165852917267E-02  2.9165803552440E-02  2.9165754187612E-02  2.9165704822784E-02  2.9165655457956E-02 
 8.0911499769706E-01  8.0911499769706E-01  8.0911499769706E-01  8.0911499769706E-01  8.0911499769706E-01  8.0911499769706E-01  8.0911499769706E-01  8.0911499769706E-01  8.0911499769706E-01  8.0911499769706E-01 
 2.6811111111111E-05  5.3622222222222E-05  5.3622222222222E-05  5.3622222222222E-05  5.3622222222222E-05  5.3622222222222E-05  5.3622222222222E-05  5.3622222222223E-05  5.3622222222222E-05  2.6811111111111E-05 
 1.9088500230294E-01  1.9088500230294E-01  1.9088500230294E-01  1.9088500230294E-01  1.9088500230294E-01  1.9088500230294E-01  1.9088500230294E-01  1.9088500230294E-01  1.9088500230294E-01  1.9088500230294E-01 
 8.2975468618169E-10  8.2975463305385E-10  8.2975457695186E-10  8.2975457378333E-10  8.2975465888657E-10  8.2975466242445E-10  8.2975457980937E-10  8.2975457695185E-10  8.2975457654200E-10  8.2975457813434E-10 
 2.7658578636938E-02  2.7658578636863E-02  2.7658578634845E-02  2.7658578634845E-02  2.7658578634845E-02  2.7658578634845E-02  2.7658578634845E-02  2.7658578634844E-02  2.7658578636706E-02  2.7658578636624E-02 
 2.7658578636938E-02  2.7658578636863E-02  2.7658578634845E-02  2.7658578634845E-02  2.7658578634845E-02  2.7658578634845E-02  2.7658578634845E-02  2.7658578634844E-02  2.7658578636706E-02  2.7658578636624E-02 
 0.0000000000000E+00  0.0000000000000E+00  0.0000000000000E+00  0.0000000000000E+00  0.0000000000000E+00  0.0000000000000E+00  0.0000000000000E+00  0.0000000000000E+00  0.0000000000000E+00  0.0000000000000E+00 
ZONE T = "SEP , 4.0000E-08", I = 10, SOLUTIONTIME = 4.000000E-08
ZONETYPE = ORDERED
DATAPACKING = BLOCK
STRANDID = 2
 7.8740000000000E-04  8.4102222222222E-04  8.9464444444444E-04  9.4826666666667E-04  1.0018888888889E-03  1.0555111111111E-03  1.1091333333333E-03  1.1627555555556E-03  1.2163777777778E-03  1.2700000000000E-03 
 2.0863427061967E-08  2.0863427061967E-08  2.0863427061967E-08  2.0863427061967E-08  2.0863427061967E-08  2.0863427061967E-08  2.0863427061967E-08  2.0863427061967E-08  2.0863427061967E-08  1.9706966403879E-08 
 9.1999999999885E-01  9.2000000000000E-01  9.2000000000000E-01  9.2000000000000E-01  9.2000000000000E-01  9.2000000000000E-01  9.2000000000000E-01  9.2000000000000E-01  9.2000000000000E-01  9.2000000000127E-01 
 4.0000000000576E-02  4.0000000000000E-02  4.0000000000000E-02  4.0000000000000E-02  4.0000000000000E-02  4.0000000000000E-02  4.0000000000000E-02  4.0000000000000E-02  4.0000000000000E-02  3.9999999999365E-02 
 4.0000000000576E-02  4.0000000000000E-02  4.0000000000000E-02  4.0000000000000E-02  4.0000000000000E-02  4.0000000000000E-02  4.0000000000000E-02  4.0000000000000E-02  4.0000000000000E-02  3.9999999999365E-02 
 2.9166099741196E-02  2.9166050376368E-02  2.9166001011540E-02  2.9165951646712E-02  2.9165902281885E-02  2.9165852917057E-02  2.9165803552229E-02  2.9165754187401E-02  2.9165704822573E-02  2.9165655457745E-02 
 8.0911499769706E-01  8.0911499769706E-01  8.0911499769706E-01  8.0911499769706E-01  8.0911499769706E-01  8.0911499769706E-01  8.0911499769706E-01  8.0911499769706E-01  8.0911499769706E-01  8.0911499769706E-01 
 2.6811111111111E-05  5.3622222222222E-05  5.3622222222222E-05  5.3622222222222E-05  5.3622222222222E-05  5.3622222222222E-05  5.3622222222222E-05  5.3622222222223E-05  5.3622222222222E-05  2.6811111111111E-05 
 1.9088500230294E-01  1.9088500230294E-01  1.9088500230294E-01  1.9088500230294E-01  1.9088500230294E-01  1.9088500230294E-01  1.9088500230294E-01  1.9088500230294E-01  1.9088500230294E-01  1.9088500230294E-01 
 1.1063404725516E-09  1.1063404194033E-09  1.1063403632809E-09  1.1063403601318E-09  1.1063404452350E-09  1.1063404487535E-09  1.1063403661578E-09  1.1063403633003E-09  1.1063403628699E-09  1.1063403644612E-09 
 2.7658578636988E-02  2.7658578634944E-02  2.7658578632901E-02  2.7658578634845E-02  2.7658578634845E-02  2.7658578632901E-02  2.7658578634845E-02  2.7658578634844E-02  2.7658578632791E-02  2.7658578632681E-02 
 2.7658578636988E-02  2.7658578634944E-02  2.7658578632901E-02  2.7658578634845E-02  2.7658578634845E-02  2.7658578632901E-02  2.7658578634845E-02  2.7658578634844E-02  2.7658578632791E-02  2.7658578632681E-02 
 0.0000000000000E+00  0.0000000000000E+00  0.0000000000000E+00  0.0000000000000E+00  0.0000000000000E+00  0.0000000000000E+00  0.0000000000000E+00  0.0000000000000E+00  0.0000000000000E+00  0.0000000000000E+00 
ZONE T = "SEP , 5.5000E-08", I = 10, SOLUTIONTIME = 5.500000E-08
ZONETYPE = ORDERED
DATAPACKING = BLOCK
STRANDID = 2
 7.8740000000000E-04  8.4102222222222E-04  8.9464444444444E-04  9.4826666666667E-04  1.0018888888889E-03  1.0555111111111E-03  1.1091333333333E-03  1.1627555555556E-03  1.2163777777778E-03  1.2700000000000E-03 
 2.0864274546295E-08  2.0864274546295E-08  2.0864274546295E-08  2.0864274546295E-08  2.0864274546295E-08  2.0864274546295E-08  2.0864274546295E-08  2.0864274546295E-08  2.0864274546295E-08  1.9705816245717E-08 
 9.1999999999842E-01  9.2000000000000E-01  9.2000000000000E-01  9.2000000000000E-01  9.2000000000000E-01  9.2000000000000E-01  9.2000000000000E-01  9.2000000000000E-01  9.2000000000000E-01  9.2000000000175E-01 
 4.0000000000792E-02  4.0000000000000E-02  4.0000000000000E-02  4.0000000000000E-02  4.0000000000000E-02  4.0000000000000E-02  4.0000000000000E-02  4.0000000000000E-02  4.0000000000000E-02  3.9999999999127E-02 
 4.0000000000792E-02  4.0000000000000E-02  4.0000000000000E-02  4.0000000000000E-02  4.0000000000000E-02  4.0000000000000E-02  4.0000000000000E-02  4.0000000000000E-02  4.0000000000000E-02  3.9999999999127E-02 
 2.9166099740951E-02  2.9166050376124E-02  2.9166001011296E-02  2.9165951646468E-02  2.9165902281640E-02  2.9165852916812E-02  2.9165803551984E-02  2.9165754187157E-02  2.9165704822329E-02  2.9165655457501E-02 
 8.0911499769706E-01  8.0911499769706E-01  8.0911499769706E-01  8.0911499769706E-01  8.0911499769706E-01  8.0911499769706E-01  8.0911499769706E-01  8.0911499769706E-01  8.0911499769706E-01  8.0911499769706E-01 
 2.6811111111111E-05  5.3622222222222E-05  5.3622222222222E-05  5.3622222222222E-05  5.3622222222222E-05  5.3622222222222E-05  5.3622222222222E-05  5.3622222222223E-05  5.3622222222222E-05  2.6811111111111E-05 
 1.9088500230294E-01  1.9088500230294E-01  1.9088500230294E-01  1.9088500230294E-01  1.9088500230294E-01  1.9088500230294E-01  1.9088500230294E-01  1.9088500230294E-01  1.9088500230294E-01  1.9088500230294E-01 
 1.5212191520492E-09  1.5212190988989E-09  1.5212190427744E-09  1.5212190396253E-09  1.5212191247285E-09  1.5212191282470E-09  1.5212190456805E-09  1.5212190428230E-09  1.5212190423612E-09  1.5212190439501E-09 
 2.7658578633175E-02  2.7658578633038E-02  2.7658578632901E-02  2.7658578632901E-02  2.7658578632901E-02  2.7658578632901E-02  2.7658578634845E-02  2.7658578634844E-02  2.7658578632750E-02  2.7658578632599E-02 
 2.7658578633175E-02  2.7658578633038E-02  2.7658578632901E-02  2.7658578632901E-02  2.7658578632901E-02  2.7658578632901E-02  2.7658578634845E-02  2.7658578634844E-02  2.7658578632750E-02  2.7658578632599E-02 
 0.0000000000000E+00  0.0000000000000E+00  0.0000000000000E+00  0.0000000000000E+00  0.0000000000000E+00  0.0000000000000E+00  0.0000000000000E+00  0.0000000000000E+00  0.0000000000000E+00  0.0000000000000E+00 
ZONE T = "SEP , 7.7500E-08", I = 10, SOLUTIONTIME = 7.750000E-08
ZONETYPE = ORDERED
DATAPACKING = BLOCK
STRANDID = 2
 7.8740000000000E-04  8.4102222222222E-04  8.9464444444444E-04  9.4826666666667E-04  1.0018888888889E-03  1.0555111111111E-03  1.1091333333333E-03  1.1627555555556E-03  1.2163777777778E-03  1.2700000000000E-03 
 2.0862054942924E-08  2.0862054942924E-08  2.0862054942924E-08  2.0862054942924E-08  2.0862054942924E-08  2.0862054942924E-08  2.0862054942924E-08  2.0862054942924E-08  2.0862054942924E-08  1.9704968760449E-08 
 9.1999999999777E-01  9.2000000000000E-01  9.2000000000000E-01  9.2000000000000E-01  9.2000000000000E-01  9.2000000000000E-01  9.2000000000000E-01  9.2000000000000E-01  9.2000000000000E-01  9.2000000000246E-01 
 4.0000000001117E-02  4.0000000000000E-02  4.0000000000000E-02  4.0000000000000E-02  4.0000000000000E-02  4.0000000000000E-02  4.0000000000000E-02  4.0000000000000E-02  4.0000000000000E-02  3.9999999998770E-02 
 4.0000000001117E-02  4.0000000000000E-02  4.0000000000000E-02  4.0000000000000E-02  4.0000000000000E-02  4.0000000000000E-02  4.0000000000000E-02  4.0000000000000E-02  4.0000000000000E-02  3.9999999998770E-02 
 2.9166099740528E-02  2.9166050375700E-02  2.9166001010872E-02  2.9165951646044E-02  2.9165902281217E-02  2.9165852916389E-02  2.9165803551561E-02  2.9165754186733E-02  2.9165704821905E-02  2.9165655457077E-02 
 8.0911499769706E-01  8.0911499769706E-01  8.0911499769706E-01  8.0911499769706E-01  8.0911499769706E-01  8.0911499769706E-01  8.0911499769706E-01  8.0911499769706E-01  8.0911499769706E-01  8.0911499769706E-01 
 2.6811111111111E-05  5.3622222222222E-05  5.3622222222222E-05  5.3622222222222E-05  5.3622222222222E-05  5.3622222222222E-05  5.3622222222222E-05  5.3622222222223E-05  5.3622222222222E-05  2.6811111111111E-05 
 1.9088500230294E-01  1.9088500230294E-01  1.9088500230294E-01  1.9088500230294E-01  1.9088500230294E-01  1.9088500230294E-01  1.9088500230294E-01  1.9088500230294E-01  1.9088500230294E-01  1.9088500230294E-01 
 2.1435371712982E-09  2.1435371181435E-09  2.1435370619709E-09  2.1435370588218E-09  2.1435371439688E-09  2.1435371474435E-09  2.1435370648770E-09  2.1435370620632E-09  2.1435370615966E-09  2.1435370631808E-09 
 2.7658578633287E-02  2.7658578633094E-02  2.7658578630957E-02  2.7658578630957E-02  2.7658578632901E-02  2.7658578630957E-02  2.7658578630957E-02  2.7658578632901E-02  2.7658578632688E-02  2.7658578632476E-02 
 2.7658578633287E-02  2.7658578633094E-02  2.7658578630957E-02  2.7658578630957E-02  2.7658578632901E-02  2.7658578630957E-02  2.7658578630957E-02  2.7658578632901E-02  2.7658578632688E-02  2.7658578632476E-02 
 0.0000000000000E+00  0.0000000000000E+00  0.0000000000000E+00  0.0000000000000E+00  0.0000000000000E+00  0.0000000000000E+00  0.0000000000000E+00  0.0000000000000E+00  0.0000000000000E+00  0.0000000000000E+00 
ZONE T = "SEP , 1.1125E-07", I = 10, SOLUTIONTIME = 1.112500E-07
ZONETYPE = ORDERED
DATAPACKING = BLOCK
STRANDID = 2
 7.8740000000000E-04  8.4102222222222E-04  8.9464444444444E-04  9.4826666666667E-04  1.0018888888889E-03  1.0555111111111E-03  1.1091333333333E-03  1.1627555555556E-03  1.2163777777778E-03  1.2700000000000E-03 
 2.0862216367695E-08  2.0862216367695E-08  2.0862216367695E-08  2.0862216367695E-08  2.0862216367695E-08  2.0862216367695E-08  2.0862216367695E-08  2.0862216367695E-08  2.0862216367695E-08  1.9704484482624E-08 
 9.1999999999679E-01  9.2000000000000E-01  9.2000000000000E-01  9.2000000000000E-01  9.2000000000000E-01  9.2000000000000E-01  9.2000000000000E-01  9.2000000000000E-01  9.2000000000000E-01  9.2000000000353E-01 
 4.0000000001603E-02  4.0000000000000E-02  4.0000000000000E-02  4.0000000000000E-02  4.0000000000000E-02  4.0000000000000E-02  4.0000000000000E-02  4.0000000000000E-02  4.0000000000000E-02  3.9999999998234E-02 
 4.0000000001603E-02  4.0000000000000E-02  4.0000000000000E-02  4.0000000000000E-02  4.0000000000000E-02  4.0000000000000E-02  4.0000000000000E-02  4.0000000000000E-02  4.0000000000000E-02  3.9999999998234E-02 
 2.9166099739892E-02  2.9166050375064E-02  2.9166001010237E-02  2.9165951645409E-02  2.9165902280581E-02  2.9165852915753E-02  2.9165803550925E-02  2.9165754186097E-02  2.9165704821270E-02  2.9165655456442E-02 
 8.0911499769706E-01  8.0911499769706E-01  8.0911499769706E-01  8.0911499769706E-01  8.0911499769706E-01  8.0911499769706E-01  8.0911499769706E-01  8.0911499769706E-01  8.0911499769706E-01  8.0911499769706E-01 
 2.6811111111111E-05  5.3622222222222E-05  5.3622222222222E-05  5.3622222222222E-05  5.3622222222222E-05  5.3622222222222E-05  5.3622222222222E-05  5.3622222222223E-05  5.3622222222222E-05  2.6811111111111E-05 
 1.9088500230294E-01  1.9088500230294E-01  1.9088500230294E-01  1.9088500230294E-01  1.9088500230294E-01  1.9088500230294E-01  1.9088500230294E-01  1.9088500230294E-01  1.9088500230294E-01  1.9088500230294E-01 
 3.0770142000460E-09  3.0770141468820E-09  3.0770140907001E-09  3.0770140875510E-09  3.0770141726980E-09  3.0770141761727E-09  3.0770140936062E-09  3.0770140907924E-09  3.0770140903155E-09  3.0770140918894E-09 
 2.7658578629567E-02  2.7658578629290E-02  2.7658578629013E-02  2.7658578629013E-02  2.7658578629013E-02  2.7658578629013E-02  2.7658578629013E-02  2.7658578629013E-02  2.7658578628708E-02  2.7658578628402E-02 
 2.7658578629567E-02  2.7658578629290E-02  2.7658578629013E-02  2.7658578629013E-02  2.7658578629013E-02  2.7658578629013E-02  2.7658578629013E-02  2.7658578629013E-02  2.7658578628708E-02  2.7658578628402E-02 
 0.0000000000000E+00  0.0000000000000E+00  0.0000000000000E+00  0.0000000000000E+00  0.0000000000000E+00  0.0000000000000E+00  0.0000000000000E+00  0.0000000000000E+00  0.0000000000000E+00  0.0000000000000E+00 
ZONE T = "SEP , 1.6188E-07", I = 10, SOLUTIONTIME = 1.618750E-07
ZONETYPE = ORDERED
DATAPACKING = BLOCK
STRANDID = 2
 7.8740000000000E-04  8.4102222222222E-04  8.9464444444444E-04  9.4826666666667E-04  1.0018888888889E-03  1.0555111111111E-03  1.1091333333333E-03  1.1627555555556E-03  1.2163777777778E-03  1.2700000000000E-03 
 2.0863812686751E-08  2.0863525707806E-08  2.0863525707806E-08  2.0863525707806E-08  2.0863525707806E-08  2.0863525707806E-08  2.0863525707806E-08  2.0863525707806E-08  2.0863525707806E-08  1.9705614460941E-08 
 9.1999999999534E-01  9.2000000000000E-01  9.2000000000000E-01  9.2000000000000E-01  9.2000000000000E-01  9.2000000000000E-01  9.2000000000000E-01  9.2000000000000E-01  9.2000000000000E-01  9.2000000000514E-01 
 4.0000000002332E-02  4.0000000000001E-02  4.0000000000000E-02  4.0000000000000E-02  4.0000000000000E-02  4.0000000000000E-02  4.0000000000000E-02  4.0000000000000E-02  3.9999999999999E-02  3.9999999997431E-02 
 4.0000000002332E-02  4.0000000000001E-02  4.0000000000000E-02  4.0000000000000E-02  4.0000000000000E-02  4.0000000000000E-02  4.0000000000000E-02  4.0000000000000E-02  3.9999999999999E-02  3.9999999997431E-02 
 2.9166099738939E-02  2.9166050374111E-02  2.9166001009283E-02  2.9165951644456E-02  2.9165902279628E-02  2.9165852914800E-02  2.9165803549972E-02  2.9165754185144E-02  2.9165704820316E-02  2.9165655455489E-02 
 8.0911499769706E-01  8.0911499769706E-01  8.0911499769706E-01  8.0911499769706E-01  8.0911499769706E-01  8.0911499769706E-01  8.0911499769706E-01  8.0911499769706E-01  8.0911499769706E-01  8.0911499769706E-01 
 2.6811111111111E-05  5.3622222222222E-05  5.3622222222222E-05  5.3622222222222E-05  5.3622222222222E-05  5.3622222222222E-05  5.3622222222222E-05  5.3622222222223E-05  5.3622222222222E-05  2.6811111111111E-05 
 1.9088500230294E-01  1.9088500230294E-01  1.9088500230294E-01  1.9088500230294E-01  1.9088500230294E-01  1.9088500230294E-01  1.9088500230294E-01  1.9088500230294E-01  1.9088500230294E-01  1.9088500230294E-01 
 4.4772297429838E-09  4.4772296897994E-09  4.4772296335971E-09  4.4772296304480E-09  4.4772297155949E-09  4.4772297191681E-09  4.4772296366016E-09  4.4772296336894E-09  4.4772296332884E-09  4.4772296349382E-09 
 2.7658578625932E-02  2.7658578625528E-02  2.7658578625125E-02  2.7658578625125E-02  2.7658578625125E-02  2.7658578627069E-02  2.7658578627069E-02  2.7658578625125E-02  2.7658578626625E-02  2.7658578628125E-02 
 2.7658578625932E-02  2.7658578625528E-02  2.7658578625125E-02  2.7658578625125E-02  2.7658578625125E-02  2.7658578627069E-02  2.7658578627069E-02  2.7658578625125E-02  2.7658578626625E-02  2.7658578628125E-02 
 0.0000000000000E+00  0.0000000000000E+00  0.0000000000000E+00  0.0000000000000E+00  0.0000000000000E+00  0.0000000000000E+00  0.0000000000000E+00  0.0000000000000E+00  0.0000000000000E+00  0.0000000000000E+00 
ZONE T = "SEP , 2.3781E-07", I = 10, SOLUTIONTIME = 2.378125E-07
ZONETYPE = ORDERED
DATAPACKING = BLOCK
STRANDID = 2
 7.8740000000000E-04  8.4102222222222E-04  8.9464444444444E-04  9.4826666666667E-04  1.0018888888889E-03  1.0555111111111E-03  1.1091333333333E-03  1.1627555555556E-03  1.2163777777778E-03  1.2700000000000E-03 
 2.0862700641347E-08  2.0862891960644E-08  2.0862891960644E-08  2.0862891960644E-08  2.0862891960644E-08  2.0862891960644E-08  2.0862891960644E-08  2.0862891960644E-08  2.0862796300995E-08  1.9705136160777E-08 
 9.1999999999315E-01  9.2000000000000E-01  9.2000000000000E-01  9.2000000000000E-01  9.2000000000000E-01  9.2000000000000E-01  9.2000000000000E-01  9.2000000000000E-01  9.2000000000000E-01  9.2000000000755E-01 
 4.0000000003425E-02  4.0000000000002E-02  4.0000000000000E-02  4.0000000000000E-02  4.0000000000000E-02  4.0000000000000E-02  4.0000000000000E-02  4.0000000000000E-02  3.9999999999998E-02  3.9999999996226E-02 
 4.0000000003425E-02  4.0000000000002E-02  4.0000000000000E-02  4.0000000000000E-02  4.0000000000000E-02  4.0000000000000E-02  4.0000000000000E-02  4.0000000000000E-02  3.9999999999998E-02  3.9999999996226E-02 
 2.9166099737512E-02  2.9166050372684E-02  2.9166001007856E-02  2.9165951643028E-02  2.9165902278200E-02  2.9165852913372E-02  2.9165803548545E-02  2.9165754183717E-02  2.9165704818889E-02  2.9165655454061E-02 
 8.0911499769706E-01  8.0911499769706E-01  8.0911499769706E-01  8.0911499769706E-01  8.0911499769706E-01  8.0911499769706E-01  8.0911499769706E-01  8.0911499769706E-01  8.0911499769706E-01  8.0911499769706E-01 
 2.6811111111111E-05  5.3622222222222E-05  5.3622222222222E-05  5.3622222222222E-05  5.3622222222222E-05  5.3622222222222E-05  5.3622222222222E-05  5.3622222222223E-05  5.3622222222222E-05  2.6811111111111E-05 
 1.9088500230294E-01  1.9088500230294E-01  1.9088500230294E-01  1.9088500230294E-01  1.9088500230294E-01  1.9088500230294E-01  1.9088500230294E-01  1.9088500230294E-01  1.9088500230294E-01  1.9088500230294E-01 
 6.5775530568288E-09  6.5775530037470E-09  6.5775529476473E-09  6.5775529444982E-09  6.5775530294975E-09  6.5775530330707E-09  6.5775529506518E-09  6.5775529477395E-09  6.5775529472890E-09  6.5775529488893E-09 
 2.7658578618534E-02  2.7658578619886E-02  2.7658578621238E-02  2.7658578621237E-02  2.7658578619293E-02  2.7658578619294E-02  2.7658578621237E-02  2.7658578621237E-02  2.7658578620584E-02  2.7658578619932E-02 
 2.7658578618534E-02  2.7658578619886E-02  2.7658578621238E-02  2.7658578621237E-02  2.7658578619293E-02  2.7658578619294E-02  2.7658578621237E-02  2.7658578621237E-02  2.7658578620584E-02  2.7658578619932E-02 
 0.0000000000000E+00  0.0000000000000E+00  0.0000000000000E+00  0.0000000000000E+00  0.0000000000000E+00  0.0000000000000E+00  0.0000000000000E+00  0.0000000000000E+00  0.0000000000000E+00  0.0000000000000E+00 
ZONE T = "SEP , 3.5172E-07", I = 10, SOLUTIONTIME = 3.517188E-07
ZONETYPE = ORDERED
DATAPACKING = BLOCK
STRANDID = 2
 7.8740000000000E-04  8.4102222222222E-04  8.9464444444444E-04  9.4826666666667E-04  1.0018888888889E-03  1.0555111111111E-03  1.1091333333333E-03  1.1627555555556E-03  1.2163777777778E-03  1.2700000000000E-03 
 2.0862700638359E-08  2.0862700638359E-08  2.0862700638359E-08  2.0862700638359E-08  2.0862700638359E-08  2.0862700638359E-08  2.0862700638359E-08  2.0862700638359E-08  2.0862700638359E-08  1.9704968753511E-08 
 9.1999999998987E-01  9.1999999999999E-01  9.2000000000000E-01  9.2000000000000E-01  9.2000000000000E-01  9.2000000000000E-01  9.2000000000000E-01  9.2000000000000E-01  9.2000000000001E-01  9.2000000001116E-01 
 4.0000000005065E-02  4.0000000000003E-02  4.0000000000000E-02  4.0000000000000E-02  4.0000000000000E-02  4.0000000000000E-02  4.0000000000000E-02  4.0000000000000E-02  3.9999999999996E-02  3.9999999994419E-02 