TITLE = "Solution on Domain BulkDomain1D_0"
VARIABLES = "x [m]"  
"Vel_axial" 
"MF_sp(ECDMC)" 
"MF_sp(Li+)" 
"MF_sp(PF6-)" 
"Volt(Electroly)" 
"Volt(AnodeVolt)" 
"Potential Drop Electrode-Electrolyte [V]" 
"Surf_0 Equilibrium Potential Drop Electrode-Electrolyte [V]" 
"Overpotential_0 [V]" 
"Current Source [A/m^2]" 
"Li+ flux [kmol/m^2/s]" 
"Electrolyte Current [A/m^2]" 
"Electrode Current [A/m^2]" 
"CV Capacity discharged [A-s/m^2]" 
"Depth of discharge in CV [A-s/m^2]" 
"CV Capacity remaining [A-s/m^2]" 
"Initial CV capacity [A-s/m^2]" 
"Porosity []" 
"Surface Area [m2/m2] (area per area)" 
"Specific current (per particle area) [A/m^2]" 
"Control volume thickness [m]" 
"MoleDens Li_C6-bulk [kmol/m^3]" 
"MoleDens V_C6-bulk [kmol/m^3]" 
"qHeat_accum [J/m3]" 
"qHeat_step [W/m3]" 
"Joule_Lyte [W/m3]" 
"Joule_Solid [W/m3]" 
"electrodHeat [W/m3]" 
"OverpotHeat [W/m3]" 
"deltaSHeat [W/m3]" 

ZONE T = "ANOD, 0.0000E+00", I = 10, SOLUTIONTIME = 0.000000E+00
ZONETYPE = ORDERED
DATAPACKING = BLOCK
STRANDID = 1
 0.0000000000000E+00  8.7488888888889E-05  1.7497777777778E-04  2.6246666666667E-04  3.4995555555556E-04  4.3744444444444E-04  5.2493333333333E-04  6.1242222222222E-04  6.9991111111111E-04  7.8740000000000E-04 
 0.0000000000000E+00  0.0000000000000E+00  0.0000000000000E+00  0.0000000000000E+00  0.0000000000000E+00  0.0000000000000E+00  0.0000000000000E+00  0.0000000000000E+00  0.0000000000000E+00  0.0000000000000E+00 
 9.2000000000000E-01  9.2000000000000E-01  9.2000000000000E-01  9.2000000000000E-01  9.2000000000000E-01  9.2000000000000E-01  9.2000000000000E-01  9.2000000000000E-01  9.2000000000000E-01  9.2000000000000E-01 
 4.0000000000000E-02  4.0000000000000E-02  4.0000000000000E-02  4.0000000000000E-02  4.0000000000000E-02  4.0000000000000E-02  4.0000000000000E-02  4.0000000000000E-02  4.0000000000000E-02  4.0000000000000E-02 
 4.0000000000000E-02  4.0000000000000E-02  4.0000000000000E-02  4.0000000000000E-02  4.0000000000000E-02  4.0000000000000E-02  4.0000000000000E-02  4.0000000000000E-02  4.0000000000000E-02  4.0000000000000E-02 
-7.0000000000000E-02 -7.0000000000000E-02 -7.0000000000000E-02 -7.0000000000000E-02 -7.0000000000000E-02 -7.0000000000000E-02 -7.0000000000000E-02 -7.0000000000000E-02 -7.0000000000000E-02 -7.0000000000000E-02 
 0.0000000000000E+00  0.0000000000000E+00  0.0000000000000E+00  0.0000000000000E+00  0.0000000000000E+00  0.0000000000000E+00  0.0000000000000E+00  0.0000000000000E+00  0.0000000000000E+00  0.0000000000000E+00 
 7.0000000000000E-02  7.0000000000000E-02  7.0000000000000E-02  7.0000000000000E-02  7.0000000000000E-02  7.0000000000000E-02  7.0000000000000E-02  7.0000000000000E-02  7.0000000000000E-02  7.0000000000000E-02 
-4.0906712753392E-02 -4.0906712753392E-02 -4.0906712753392E-02 -4.0906712753392E-02 -4.0906712753392E-02 -4.0906712753392E-02 -4.0906712753392E-02 -4.0906712753392E-02 -4.0906712753392E-02 -4.0906712753392E-02 
 1.1090671275339E-01  1.1090671275339E-01  1.1090671275339E-01  1.1090671275339E-01  1.1090671275339E-01  1.1090671275339E-01  1.1090671275339E-01  1.1090671275339E-01  1.1090671275339E-01  1.1090671275339E-01 
 3.0930240924008E+01  6.1860481848016E+01  6.1860481848016E+01  6.1860481848016E+01  6.1860481848016E+01  6.1860481848016E+01  6.1860481848016E+01  6.1860481848016E+01  6.1860481848016E+01  3.0930240924008E+01 
-0.0000000000000E+00 -0.0000000000000E+00 -0.0000000000000E+00 -0.0000000000000E+00 -0.0000000000000E+00 -0.0000000000000E+00 -0.0000000000000E+00 -0.0000000000000E+00 -0.0000000000000E+00 -0.0000000000000E+00 
 0.0000000000000E+00  0.0000000000000E+00  0.0000000000000E+00  0.0000000000000E+00  0.0000000000000E+00  0.0000000000000E+00  0.0000000000000E+00  0.0000000000000E+00  0.0000000000000E+00  3.0930240924008E+01 
 3.0930240924008E+01 -0.0000000000000E+00 -0.0000000000000E+00 -0.0000000000000E+00 -0.0000000000000E+00 -0.0000000000000E+00 -0.0000000000000E+00 -0.0000000000000E+00 -0.0000000000000E+00  0.0000000000000E+00 
 0.0000000000000E+00  0.0000000000000E+00  0.0000000000000E+00  0.0000000000000E+00  0.0000000000000E+00  0.0000000000000E+00  0.0000000000000E+00  0.0000000000000E+00  0.0000000000000E+00  0.0000000000000E+00 
 9.1448444543281E+04  1.8289688908656E+05  1.8289688908656E+05  1.8289688908656E+05  1.8289688908656E+05  1.8289688908656E+05  1.8289688908656E+05  1.8289688908656E+05  1.8289688908656E+05  9.1448444543281E+04 
 3.6579377817312E+05  7.3158755634625E+05  7.3158755634625E+05  7.3158755634625E+05  7.3158755634625E+05  7.3158755634625E+05  7.3158755634625E+05  7.3158755634625E+05  7.3158755634625E+05  3.6579377817312E+05 
 4.5724222271640E+05  9.1448444543281E+05  9.1448444543281E+05  9.1448444543281E+05  9.1448444543281E+05  9.1448444543281E+05  9.1448444543281E+05  9.1448444543281E+05  9.1448444543281E+05  4.5724222271640E+05 
 3.5000000000000E-01  3.5000000000000E-01  3.5000000000000E-01  3.5000000000000E-01  3.5000000000000E-01  3.5000000000000E-01  3.5000000000000E-01  3.5000000000000E-01  3.5000000000000E-01  3.5000000000000E-01 
 8.5301666666666E+00  1.7060333333333E+01  1.7060333333333E+01  1.7060333333333E+01  1.7060333333333E+01  1.7060333333333E+01  1.7060333333333E+01  1.7060333333333E+01  1.7060333333333E+01  8.5301666666666E+00 
 3.6259831879809E+00  3.6259831879809E+00  3.6259831879809E+00  3.6259831879809E+00  3.6259831879809E+00  3.6259831879809E+00  3.6259831879809E+00  3.6259831879809E+00  3.6259831879809E+00  3.6259831879809E+00 
 4.3744444444444E-05  8.7488888888889E-05  8.7488888888889E-05  8.7488888888889E-05  8.7488888888889E-05  8.7488888888889E-05  8.7488888888889E-05  8.7488888888889E-05  8.7488888888889E-05  4.3744444444444E-05 
 8.6666666666666E+01  8.6666666666666E+01  8.6666666666666E+01  8.6666666666666E+01  8.6666666666666E+01  8.6666666666666E+01  8.6666666666666E+01  8.6666666666666E+01  8.6666666666666E+01  8.6666666666666E+01 
 2.1666666666667E+01  2.1666666666667E+01  2.1666666666667E+01  2.1666666666667E+01  2.1666666666667E+01  2.1666666666667E+01  2.1666666666667E+01  2.1666666666667E+01  2.1666666666667E+01  2.1666666666667E+01 
 0.0000000000000E+00  0.0000000000000E+00  0.0000000000000E+00  0.0000000000000E+00  0.0000000000000E+00  0.0000000000000E+00  0.0000000000000E+00  0.0000000000000E+00  0.0000000000000E+00  0.0000000000000E+00 
 0.0000000000000E+00  0.0000000000000E+00  0.0000000000000E+00  0.0000000000000E+00  0.0000000000000E+00  0.0000000000000E+00  0.0000000000000E+00  0.0000000000000E+00  0.0000000000000E+00  0.0000000000000E+00 
 0.0000000000000E+00  0.0000000000000E+00  0.0000000000000E+00  0.0000000000000E+00  0.0000000000000E+00  0.0000000000000E+00  0.0000000000000E+00  0.0000000000000E+00  0.0000000000000E+00  0.0000000000000E+00 
 0.0000000000000E+00  0.0000000000000E+00  0.0000000000000E+00  0.0000000000000E+00  0.0000000000000E+00  0.0000000000000E+00  0.0000000000000E+00  0.0000000000000E+00  0.0000000000000E+00  0.0000000000000E+00 
 0.0000000000000E+00  0.0000000000000E+00  0.0000000000000E+00  0.0000000000000E+00  0.0000000000000E+00  0.0000000000000E+00  0.0000000000000E+00  0.0000000000000E+00  0.0000000000000E+00  0.0000000000000E+00 
 0.0000000000000E+00  0.0000000000000E+00  0.0000000000000E+00  0.0000000000000E+00  0.0000000000000E+00  0.0000000000000E+00  0.0000000000000E+00  0.0000000000000E+00  0.0000000000000E+00  0.0000000000000E+00 
 0.0000000000000E+00  0.0000000000000E+00  0.0000000000000E+00  0.0000000000000E+00  0.0000000000000E+00  0.0000000000000E+00  0.0000000000000E+00  0.0000000000000E+00  0.0000000000000E+00  0.0000000000000E+00 
ZONE T = "ANOD, 1.0000E-08", I = 10, SOLUTIONTIME = 1.000000E-08
ZONETYPE = ORDERED
DATAPACKING = BLOCK
STRANDID = 1
 0.0000000000000E+00  8.7488888888889E-05  1.7497777777778E-04  2.6246666666667E-04  3.4995555555556E-04  4.3744444444444E-04  5.2493333333333E-04  6.1242222222222E-04  6.9991111111111E-04  7.8740000000000E-04 
 1.1589917710767E-09  3.4769775211153E-09  5.7949719092564E-09  8.1129813662156E-09  1.0431012322508E-08  1.2749071208745E-08  1.5067164455600E-08  1.7385298494104E-08  1.9703479755188E-08  2.0863142024014E-08 
 9.1999999999930E-01  9.1999999999930E-01  9.1999999999930E-01  9.1999999999930E-01  9.1999999999930E-01  9.1999999999930E-01  9.1999999999930E-01  9.1999999999930E-01  9.1999999999930E-01  9.1999999999971E-01 
 4.0000000000348E-02  4.0000000000348E-02  4.0000000000348E-02  4.0000000000348E-02  4.0000000000348E-02  4.0000000000348E-02  4.0000000000348E-02  4.0000000000348E-02  4.0000000000348E-02  4.0000000000144E-02 
 4.0000000000348E-02  4.0000000000348E-02  4.0000000000348E-02  4.0000000000348E-02  4.0000000000348E-02  4.0000000000348E-02  4.0000000000348E-02  4.0000000000348E-02  4.0000000000348E-02  4.0000000000144E-02 
 2.9167371469634E-02  2.9167355742516E-02  2.9167308561161E-02  2.9167229925452E-02  2.9167119835167E-02  2.9166978290035E-02  2.9166805289660E-02  2.9166600833566E-02  2.9166364921233E-02  2.9166097551994E-02 
 0.0000000000000E+00 -4.7371275801924E-09 -8.9169665839523E-09 -1.2539514934513E-08 -1.5604769009039E-08 -1.8112723638676E-08 -2.0063372108524E-08 -2.1456706157628E-08 -2.2292715978886E-08 -2.2571390219077E-08 
-2.9167371469634E-02 -2.9167360479644E-02 -2.9167317478127E-02 -2.9167242464967E-02 -2.9167135439936E-02 -2.9166996402759E-02 -2.9166825353032E-02 -2.9166622290272E-02 -2.9166387213949E-02 -2.9166120123384E-02 
-4.0906712752892E-02 -4.0906712752896E-02 -4.0906712752892E-02 -4.0906712752892E-02 -4.0906712752892E-02 -4.0906712752896E-02 -4.0906712752896E-02 -4.0906712752892E-02 -4.0906712752892E-02 -4.0906712753023E-02 
 1.1739341283258E-02  1.1739352273252E-02  1.1739395274764E-02  1.1739470287924E-02  1.1739577312955E-02  1.1739716350137E-02  1.1739887399864E-02  1.1740090462620E-02  1.1740325538943E-02  1.1740592629639E-02 
 1.6690490559135E+00  3.3381012910258E+00  3.3381137305630E+00  3.3381354304777E+00  3.3381663908446E+00  3.3382066117562E+00  3.3382560933463E+00  3.3383148357763E+00  3.3383828392230E+00  1.6692300519558E+00 
 8.6491976635331E-09  2.5947595118061E-08  4.3246055623695E-08  6.0544639117275E-08  7.7843371175180E-08  9.5142321200893E-08  1.1244153302342E-07  1.2974103071736E-07  1.4704096733472E-07  1.4704096733472E-07 
 0.0000000000000E+00  3.3380831919541E+00  6.6761726726842E+00  1.0014280103672E+01  1.3352413735255E+01  1.6690582731814E+01  2.0028798018993E+01  2.3367066147539E+01  2.6705397249967E+01  3.0043810549137E+01 
 3.0043810257056E+01  2.6705719148896E+01  2.3367628824624E+01  2.0029521430426E+01  1.6691387705705E+01  1.3353218389934E+01  1.0015004222476E+01  6.6767359423925E+00  3.3384042885585E+00  0.0000000000000E+00 
 1.6690490559135E-08  3.3381012910258E-08  3.3381137305630E-08  3.3381354304777E-08  3.3381663908446E-08  3.3382066117562E-08  3.3382560933463E-08  3.3383148357763E-08  3.3383828392230E-08  1.6692300519558E-08 
 9.1448444543298E+04  1.8289688908659E+05  1.8289688908660E+05  1.8289688908660E+05  1.8289688908660E+05  1.8289688908660E+05  1.8289688908660E+05  1.8289688908660E+05  1.8289688908660E+05  9.1448444543298E+04 
 3.6579377817311E+05  7.3158755634621E+05  7.3158755634621E+05  7.3158755634621E+05  7.3158755634621E+05  7.3158755634621E+05  7.3158755634621E+05  7.3158755634621E+05  7.3158755634621E+05  3.6579377817311E+05 
 4.5724222271640E+05  9.1448444543281E+05  9.1448444543281E+05  9.1448444543281E+05  9.1448444543281E+05  9.1448444543281E+05  9.1448444543281E+05  9.1448444543281E+05  9.1448444543281E+05  4.5724222271640E+05 
 3.5000000000000E-01  3.5000000000000E-01  3.5000000000000E-01  3.5000000000000E-01  3.5000000000000E-01  3.5000000000000E-01  3.5000000000000E-01  3.5000000000000E-01  3.5000000000000E-01  3.5000000000000E-01 
 8.5301666666666E+00  1.7060333333333E+01  1.7060333333333E+01  1.7060333333333E+01  1.7060333333333E+01  1.7060333333333E+01  1.7060333333333E+01  1.7060333333333E+01  1.7060333333333E+01  8.5301666666666E+00 
 1.9566429603722E-01  1.9566448238756E-01  1.9566521153727E-01  1.9566648348866E-01  1.9566829824611E-01  1.9567065581502E-01  1.9567355620326E-01  1.9567699942027E-01  1.9568098547643E-01  1.9568551438493E-01 
 4.3744444444444E-05  8.7488888888889E-05  8.7488888888889E-05  8.7488888888889E-05  8.7488888888889E-05  8.7488888888889E-05  8.7488888888889E-05  8.7488888888889E-05  8.7488888888889E-05  4.3744444444444E-05 
 8.6666666666662E+01  8.6666666666662E+01  8.6666666666662E+01  8.6666666666662E+01  8.6666666666662E+01  8.6666666666662E+01  8.6666666666662E+01  8.6666666666662E+01  8.6666666666662E+01  8.6666666666662E+01 
 2.1666666666671E+01  2.1666666666671E+01  2.1666666666671E+01  2.1666666666671E+01  2.1666666666671E+01  2.1666666666671E+01  2.1666666666671E+01  2.1666666666671E+01  2.1666666666671E+01  2.1666666666671E+01 
 1.8363940512555E-11  2.8663999555925E-11  6.1478018170720E-11  1.1872011374921E-10  2.0039089950435E-10  3.0649129066382E-10  4.3702252267407E-10  5.9198593178342E-10  7.7138328002515E-10  8.6719070975639E-10 
 1.8363940512555E-03  2.8663999555925E-03  6.1478018170720E-03  1.1872011374921E-02  2.0039089950435E-02  3.0649129066382E-02  4.3702252267407E-02  5.9198593178342E-02  7.7138328002515E-02  8.6719070975639E-02 
 3.0002908452225E-04  1.5001456440077E-03  5.1005063320639E-03  1.1101149835794E-02  1.9502137414011E-02  3.0303560055080E-02  4.3505540297315E-02  5.9108210287276E-02  7.7111744278047E-02  8.6713754083081E-02 
 1.5363649667333E-03  1.3662543115848E-03  1.0472954850082E-03  7.7086153912744E-04  5.3695253642321E-04  3.4556901130157E-04  1.9671197009198E-04  9.0382891065208E-05  2.6583724468015E-05  5.3168925579375E-06 
 0.0000000000000E+00  0.0000000000000E+00  0.0000000000000E+00  0.0000000000000E+00  0.0000000000000E+00  0.0000000000000E+00  0.0000000000000E+00  0.0000000000000E+00  0.0000000000000E+00  0.0000000000000E+00 
 0.0000000000000E+00  0.0000000000000E+00  0.0000000000000E+00  0.0000000000000E+00  0.0000000000000E+00  0.0000000000000E+00  0.0000000000000E+00  0.0000000000000E+00  0.0000000000000E+00  0.0000000000000E+00 
 0.0000000000000E+00  0.0000000000000E+00  0.0000000000000E+00  0.0000000000000E+00  0.0000000000000E+00  0.0000000000000E+00  0.0000000000000E+00  0.0000000000000E+00  0.0000000000000E+00  0.0000000000000E+00 
ZONE T = "ANOD, 2.0000E-08", I = 10, SOLUTIONTIME = 2.000000E-08
ZONETYPE = ORDERED
DATAPACKING = BLOCK
STRANDID = 1
 0.0000000000000E+00  8.7488888888889E-05  1.7497777777778E-04  2.6246666666667E-04  3.4995555555556E-04  4.3744444444444E-04  5.2493333333333E-04  6.1242222222222E-04  6.9991111111111E-04  7.8740000000000E-04 
 1.1589975178088E-09  3.4769947610902E-09  5.7950006425035E-09  8.1130215925443E-09  1.0431064041756E-08  1.2749134420752E-08  1.5067239160233E-08  1.7385384691010E-08  1.9703577444027E-08  2.0863245458802E-08 
 9.1999999999861E-01  9.1999999999861E-01  9.1999999999861E-01  9.1999999999861E-01  9.1999999999861E-01  9.1999999999861E-01  9.1999999999861E-01  9.1999999999861E-01  9.1999999999861E-01  9.1999999999942E-01 
 4.0000000000696E-02  4.0000000000696E-02  4.0000000000696E-02  4.0000000000696E-02  4.0000000000696E-02  4.0000000000696E-02  4.0000000000696E-02  4.0000000000696E-02  4.0000000000696E-02  4.0000000000288E-02 
 4.0000000000696E-02  4.0000000000696E-02  4.0000000000696E-02  4.0000000000696E-02  4.0000000000696E-02  4.0000000000696E-02  4.0000000000696E-02  4.0000000000696E-02  4.0000000000696E-02  4.0000000000288E-02 
 2.9167373665564E-02  2.9167357938379E-02  2.9167310756792E-02  2.9167232120688E-02  2.9167122029860E-02  2.9166980484019E-02  2.9166807482784E-02  2.9166603025689E-02  2.9166367112181E-02  2.9166099741619E-02 
 0.0000000000000E+00 -4.7371510662849E-09 -8.9170107929398E-09 -1.2539577103191E-08 -1.5604846374249E-08 -1.8112813437297E-08 -2.0063471577477E-08 -2.1456812533862E-08 -2.2292826499437E-08 -2.2571502121063E-08 
-2.9167373665564E-02 -2.9167362675530E-02 -2.9167319673803E-02 -2.9167244660265E-02 -2.9167137634707E-02 -2.9166998596832E-02 -2.9166827546255E-02 -2.9166624482501E-02 -2.9166389405007E-02 -2.9166122313121E-02 
-4.0906712752393E-02 -4.0906712752393E-02 -4.0906712752393E-02 -4.0906712752393E-02 -4.0906712752390E-02 -4.0906712752390E-02 -4.0906712752390E-02 -4.0906712752390E-02 -4.0906712752390E-02 -4.0906712752652E-02 
 1.1739339086828E-02  1.1739350076863E-02  1.1739393078590E-02  1.1739468092128E-02  1.1739575117683E-02  1.1739714155558E-02  1.1739885206135E-02  1.1740088269889E-02  1.1740323347383E-02  1.1740590439531E-02 
 1.6690487382326E+00  3.3381006556770E+00  3.3381130952749E+00  3.3381347952988E+00  3.3381657558172E+00  3.3382059769306E+00  3.3382554587664E+00  3.3383142014826E+00  3.3383822052674E+00  1.6692297351834E+00 
 8.6492352058110E-09  2.5947722100451E-08  4.3246273451378E-08  6.0544937249906E-08  7.7843761505376E-08  9.5142794179114E-08  1.1244208328079E-07  1.2974167679913E-07  1.4704176694791E-07  1.4704176694791E-07 
 0.0000000000000E+00  3.3380990661720E+00  6.6762059415826E+00  1.0014329886712E+01  1.3352480162409E+01  1.6690666028786E+01  2.0028896746508E+01  2.3367181576791E+01  2.6705529780227E+01  3.0043950618050E+01 
 3.0043950617931E+01  2.6705851551860E+01  2.3367744676384E+01  2.0029620731097E+01  1.6691470455539E+01  1.3353284589165E+01  1.0015053871317E+01  6.6767690411921E+00  3.3384208378171E+00  0.0000000000000E+00 
 3.3380977941461E-08  6.6762019467028E-08  6.6762268258379E-08  6.6762702257764E-08  6.6763321466618E-08  6.6764125886868E-08  6.6765115521127E-08  6.6766290372590E-08  6.6767650444904E-08  3.3384597871392E-08 
 9.1448444543314E+04  1.8289688908663E+05  1.8289688908663E+05  1.8289688908663E+05  1.8289688908663E+05  1.8289688908663E+05  1.8289688908663E+05  1.8289688908663E+05  1.8289688908663E+05  9.1448444543314E+04 
 3.6579377817309E+05  7.3158755634618E+05  7.3158755634618E+05  7.3158755634618E+05  7.3158755634618E+05  7.3158755634618E+05  7.3158755634618E+05  7.3158755634618E+05  7.3158755634618E+05  3.6579377817309E+05 
 4.5724222271640E+05  9.1448444543281E+05  9.1448444543281E+05  9.1448444543281E+05  9.1448444543281E+05  9.1448444543281E+05  9.1448444543281E+05  9.1448444543281E+05  9.1448444543281E+05  4.5724222271640E+05 
 3.5000000000000E-01  3.5000000000000E-01  3.5000000000000E-01  3.5000000000000E-01  3.5000000000000E-01  3.5000000000000E-01  3.5000000000000E-01  3.5000000000000E-01  3.5000000000000E-01  3.5000000000000E-01 
 8.5301666666666E+00  1.7060333333333E+01  1.7060333333333E+01  1.7060333333333E+01  1.7060333333333E+01  1.7060333333333E+01  1.7060333333333E+01  1.7060333333333E+01  1.7060333333333E+01  8.5301666666666E+00 
 1.9566425879517E-01  1.9566444514627E-01  1.9566517429954E-01  1.9566644625733E-01  1.9566826102365E-01  1.9567061860440E-01  1.9567351900704E-01  1.9567696224083E-01  1.9568094831680E-01  1.9568547724938E-01 
 4.3744444444444E-05  8.7488888888889E-05  8.7488888888889E-05  8.7488888888889E-05  8.7488888888889E-05  8.7488888888889E-05  8.7488888888889E-05  8.7488888888889E-05  8.7488888888889E-05  4.3744444444444E-05 
 8.6666666666658E+01  8.6666666666658E+01  8.6666666666658E+01  8.6666666666658E+01  8.6666666666658E+01  8.6666666666658E+01  8.6666666666658E+01  8.6666666666658E+01  8.6666666666658E+01  8.6666666666658E+01 
 2.1666666666674E+01  2.1666666666674E+01  2.1666666666674E+01  2.1666666666674E+01  2.1666666666674E+01  2.1666666666674E+01  2.1666666666674E+01  2.1666666666674E+01  2.1666666666674E+01  2.1666666666674E+01 
 3.6728059415058E-11  5.7328279752978E-11  1.2295665013923E-10  2.3744140568432E-10  4.0078379481087E-10  6.1298563901147E-10  8.7404935110337E-10  1.1839777158198E-09  1.5427742147733E-09  1.7343900005314E-09 
 1.8364118902503E-03  2.8664280197053E-03  6.1478631968505E-03  1.1872129193511E-02  2.0039289530653E-02  3.0649434834766E-02  4.3702682842930E-02  5.9199178403640E-02  7.7139093474814E-02  8.6719929077502E-02 
 6.0006077378668E-04  3.0003058047205E-03  1.0201063659336E-02  2.2202409846729E-02  3.9004469084192E-02  6.0607422452181E-02  8.7011509219767E-02  1.1821700490373E-01  1.5422425376483E-01  1.7342836621531E-01 
 3.0727451677191E-03  2.7325221705772E-03  2.0946013545862E-03  1.5417307217032E-03  1.0739103968951E-03  6.9114144896607E-04  3.9342589057035E-04  1.8076667825105E-04  5.3167712501016E-05  1.0633837829461E-05 
 0.0000000000000E+00  0.0000000000000E+00  0.0000000000000E+00  0.0000000000000E+00  0.0000000000000E+00  0.0000000000000E+00  0.0000000000000E+00  0.0000000000000E+00  0.0000000000000E+00  0.0000000000000E+00 
 0.0000000000000E+00  0.0000000000000E+00  0.0000000000000E+00  0.0000000000000E+00  0.0000000000000E+00  0.0000000000000E+00  0.0000000000000E+00  0.0000000000000E+00  0.0000000000000E+00  0.0000000000000E+00 
 0.0000000000000E+00  0.0000000000000E+00  0.0000000000000E+00  0.0000000000000E+00  0.0000000000000E+00  0.0000000000000E+00  0.0000000000000E+00  0.0000000000000E+00  0.0000000000000E+00  0.0000000000000E+00 
ZONE T = "ANOD, 3.0000E-08", I = 10, SOLUTIONTIME = 3.000000E-08
ZONETYPE = ORDERED
DATAPACKING = BLOCK
STRANDID = 1
 0.0000000000000E+00  8.7488888888889E-05  1.7497777777778E-04  2.6246666666667E-04  3.4995555555556E-04  4.3744444444444E-04  5.2493333333333E-04  6.1242222222222E-04  6.9991111111111E-04  7.8740000000000E-04 
 1.1589975177886E-09  3.4769947610298E-09  5.7950006424027E-09  8.1130215924030E-09  1.0431064041575E-08  1.2749134420531E-08  1.5067602367699E-08  1.7386474313893E-08  1.9705393482325E-08  2.0863971873908E-08 
 9.1999999999791E-01  9.1999999999791E-01  9.1999999999791E-01  9.1999999999791E-01  9.1999999999791E-01  9.1999999999791E-01  9.1999999999791E-01  9.1999999999791E-01  9.1999999999791E-01  9.1999999999914E-01 
 4.0000000001045E-02  4.0000000001045E-02  4.0000000001045E-02  4.0000000001045E-02  4.0000000001045E-02  4.0000000001045E-02  4.0000000001045E-02  4.0000000001045E-02  4.0000000001045E-02  4.0000000000432E-02 
 4.0000000001045E-02  4.0000000001045E-02  4.0000000001045E-02  4.0000000001045E-02  4.0000000001045E-02  4.0000000001045E-02  4.0000000001045E-02  4.0000000001045E-02  4.0000000001045E-02  4.0000000000432E-02 
 2.9167373665352E-02  2.9167357938166E-02  2.9167310756580E-02  2.9167232120475E-02  2.9167122029648E-02  2.9166980483806E-02  2.9166807482571E-02  2.9166603025476E-02  2.9166367111968E-02  2.9166099741407E-02 
 0.0000000000000E+00 -4.7371510662056E-09 -8.9170107927908E-09 -1.2539577102982E-08 -1.5604846373990E-08 -1.8112813436997E-08 -2.0063471577146E-08 -2.1456812533509E-08 -2.2292826499072E-08 -2.2571502120696E-08 
-2.9167373665352E-02 -2.9167362675317E-02 -2.9167319673591E-02 -2.9167244660052E-02 -2.9167137634494E-02 -2.9166998596620E-02 -2.9166827546043E-02 -2.9166624482289E-02 -2.9166389404795E-02 -2.9166122312909E-02 
-4.0906712751889E-02 -4.0906712751893E-02 -4.0906712751889E-02 -4.0906712751889E-02 -4.0906712751893E-02 -4.0906712751891E-02 -4.0906712751891E-02 -4.0906712751893E-02 -4.0906712751893E-02 -4.0906712752287E-02 
 1.1739339086537E-02  1.1739350076576E-02  1.1739393078298E-02  1.1739468091837E-02  1.1739575117399E-02  1.1739714155271E-02  1.1739885205848E-02  1.1740088269604E-02  1.1740323347098E-02  1.1740590439378E-02 
 1.6690487382035E+00  3.3381006556192E+00  3.3381130952167E+00  3.3381347952405E+00  3.3381657557600E+00  3.3382059768728E+00  3.3382554587086E+00  3.3383142014255E+00  3.3383822052102E+00  1.6692297351695E+00 
 8.6492352039783E-09  2.5947722100676E-08  4.3246273449847E-08  6.0544937246609E-08  7.7843761506061E-08  9.5142794175779E-08  1.1244208327761E-07  1.2974167679419E-07  1.4704183906451E-07  1.4704183906451E-07 
 0.0000000000000E+00  3.3380990660169E+00  6.6762059414566E+00  1.0014329886615E+01  1.3352480162157E+01  1.6690666028379E+01  2.0028896746314E+01  2.3367181576442E+01  2.6705529779686E+01  3.0043950617475E+01 
 3.0043950617427E+01  2.6705851551413E+01  2.3367744675995E+01  2.0029620730767E+01  1.6691470455267E+01  1.3353284588950E+01  1.0015053871159E+01  6.6767690410924E+00  3.3384208377746E+00  0.0000000000000E+00 
 5.0071465323496E-08  1.0014302602322E-07  1.0014339921055E-07  1.0014405021017E-07  1.0014497902422E-07  1.0014618565560E-07  1.0014767010821E-07  1.0014943238684E-07  1.0015147249701E-07  5.0076895223088E-08 
 9.1448444543331E+04  1.8289688908666E+05  1.8289688908666E+05  1.8289688908666E+05  1.8289688908666E+05  1.8289688908666E+05  1.8289688908666E+05  1.8289688908666E+05  1.8289688908666E+05  9.1448444543331E+04 
 3.6579377817307E+05  7.3158755634615E+05  7.3158755634615E+05  7.3158755634615E+05  7.3158755634615E+05  7.3158755634615E+05  7.3158755634615E+05  7.3158755634615E+05  7.3158755634615E+05  3.6579377817307E+05 
 4.5724222271640E+05  9.1448444543281E+05  9.1448444543281E+05  9.1448444543281E+05  9.1448444543281E+05  9.1448444543281E+05  9.1448444543281E+05  9.1448444543281E+05  9.1448444543281E+05  4.5724222271640E+05 
 3.5000000000000E-01  3.5000000000000E-01  3.5000000000000E-01  3.5000000000000E-01  3.5000000000000E-01  3.5000000000000E-01  3.5000000000000E-01  3.5000000000000E-01  3.5000000000000E-01  3.5000000000000E-01 
 8.5301666666666E+00  1.7060333333333E+01  1.7060333333333E+01  1.7060333333333E+01  1.7060333333333E+01  1.7060333333333E+01  1.7060333333333E+01  1.7060333333333E+01  1.7060333333333E+01  8.5301666666666E+00 
 1.9566425879176E-01  1.9566444514288E-01  1.9566517429613E-01  1.9566644625392E-01  1.9566826102030E-01  1.9567061860101E-01  1.9567351900365E-01  1.9567696223748E-01  1.9568094831345E-01  1.9568547724775E-01 
 4.3744444444444E-05  8.7488888888889E-05  8.7488888888889E-05  8.7488888888889E-05  8.7488888888889E-05  8.7488888888889E-05  8.7488888888889E-05  8.7488888888889E-05  8.7488888888889E-05  4.3744444444444E-05 
 8.6666666666654E+01  8.6666666666654E+01  8.6666666666654E+01  8.6666666666654E+01  8.6666666666654E+01  8.6666666666654E+01  8.6666666666654E+01  8.6666666666654E+01  8.6666666666654E+01  8.6666666666654E+01 
 2.1666666666678E+01  2.1666666666678E+01  2.1666666666678E+01  2.1666666666678E+01  2.1666666666678E+01  2.1666666666678E+01  2.1666666666678E+01  2.1666666666678E+01  2.1666666666678E+01  2.1666666666678E+01 
 5.5092178315749E-11  8.5992559949042E-11  1.8443528210452E-10  3.5616269761683E-10  6.0117669010701E-10  9.1947998734246E-10  1.3110761795205E-09  1.7759694998329E-09  2.3141651494847E-09  2.6015892912668E-09 
 1.8364118900691E-03  2.8664280196065E-03  6.1478631965292E-03  1.1872129193251E-02  2.0039289529614E-02  3.0649434833099E-02  4.3702682841714E-02  5.9199178401305E-02  7.7139093471138E-02  8.6719929073535E-02 
 9.0009246292134E-04  4.5004659653803E-03  1.5301620986322E-02  3.3303669857430E-02  5.8506800753352E-02  9.0911284847627E-02  1.3051747814101E-01  1.7732579951785E-01  2.3133676324793E-01  2.6014297834357E-01 
 4.6091253686536E-03  4.0987900295240E-03  3.1419072241295E-03  2.3125999042535E-03  1.6108682573495E-03  1.0367138866194E-03  5.9013981104253E-04  2.7115046543417E-04  7.9751700533293E-05  1.5950783100897E-05 
 0.0000000000000E+00  0.0000000000000E+00  0.0000000000000E+00  0.0000000000000E+00  0.0000000000000E+00  0.0000000000000E+00  0.0000000000000E+00  0.0000000000000E+00  0.0000000000000E+00  0.0000000000000E+00 
 0.0000000000000E+00  0.0000000000000E+00  0.0000000000000E+00  0.0000000000000E+00  0.0000000000000E+00  0.0000000000000E+00  0.0000000000000E+00  0.0000000000000E+00  0.0000000000000E+00  0.0000000000000E+00 
 0.0000000000000E+00  0.0000000000000E+00  0.0000000000000E+00  0.0000000000000E+00  0.0000000000000E+00  0.0000000000000E+00  0.0000000000000E+00  0.0000000000000E+00  0.0000000000000E+00  0.0000000000000E+00 
ZONE T = "ANOD, 4.0000E-08", I = 10, SOLUTIONTIME = 4.000000E-08
ZONETYPE = ORDERED
DATAPACKING = BLOCK
STRANDID = 1
 0.0000000000000E+00  8.7488888888889E-05  1.7497777777778E-04  2.6246666666667E-04  3.4995555555556E-04  4.3744444444444E-04  5.2493333333333E-04  6.1242222222222E-04  6.9991111111111E-04  7.8740000000000E-04 
 1.1586343100408E-09  3.4762683455141E-09  5.7935478113914E-09  8.1108423458962E-09  1.0428521587300E-08  1.2745865550761E-08  1.5063243874706E-08  1.7381389405404E-08  1.9699582158341E-08  2.0858705361505E-08 
 9.1999999999721E-01  9.1999999999721E-01  9.1999999999721E-01  9.1999999999721E-01  9.1999999999721E-01  9.1999999999721E-01  9.1999999999721E-01  9.1999999999721E-01  9.1999999999721E-01  9.1999999999885E-01 
 4.0000000001393E-02  4.0000000001393E-02  4.0000000001393E-02  4.0000000001393E-02  4.0000000001393E-02  4.0000000001393E-02  4.0000000001393E-02  4.0000000001393E-02  4.0000000001393E-02  4.0000000000576E-02 
 4.0000000001393E-02  4.0000000001393E-02  4.0000000001393E-02  4.0000000001393E-02  4.0000000001393E-02  4.0000000001393E-02  4.0000000001393E-02  4.0000000001393E-02  4.0000000001393E-02  4.0000000000576E-02 
 2.9167373665141E-02  2.9167357937956E-02  2.9167310756369E-02  2.9167232120265E-02  2.9167122029437E-02  2.9166980483596E-02  2.9166807482361E-02  2.9166603025266E-02  2.9166367111758E-02  2.9166099741196E-02 
 0.0000000000000E+00 -4.7371510661264E-09 -8.9170107926421E-09 -1.2539577102773E-08 -1.5604846373731E-08 -1.8112813436698E-08 -2.0063471576815E-08 -2.1456812533157E-08 -2.2292826498708E-08 -2.2571502120330E-08 
-2.9167373665141E-02 -2.9167362675107E-02 -2.9167319673380E-02 -2.9167244659842E-02 -2.9167137634284E-02 -2.9166998596409E-02 -2.9166827545832E-02 -2.9166624482078E-02 -2.9166389404584E-02 -2.9166122312698E-02 
-4.0906712751391E-02 -4.0906712751395E-02 -4.0906712751391E-02 -4.0906712751391E-02 -4.0906712751397E-02 -4.0906712751395E-02 -4.0906712751395E-02 -4.0906712751397E-02 -4.0906712751397E-02 -4.0906712751922E-02 
 1.1739339086250E-02  1.1739350076288E-02  1.1739393078011E-02  1.1739468091550E-02  1.1739575117113E-02  1.1739714154986E-02  1.1739885205563E-02  1.1740088269319E-02  1.1740323346813E-02  1.1740590439223E-02 
 1.6690487381747E+00  3.3381006555614E+00  3.3381130951590E+00  3.3381347951829E+00  3.3381657557026E+00  3.3382059768154E+00  3.3382554586512E+00  3.3383142013680E+00  3.3383822051527E+00  1.6692297351555E+00 