TITLE = "Solution on Domain BulkDomain1D_0"
VARIABLES = "x [m]"  
"Vel_axial" 
"MF_sp(ECDMC)" 
"MF_sp(Li+)" 
"MF_sp(PF6-)" 
"Volt(Electroly)" 
"Volt(AnodeVolt)" 
"Potential Drop Electrode-Electrolyte [V]" 
"Surf_0 Equilibrium Potential Drop Electrode-Electrolyte [V]" 
"Overpotential_0 [V]" 
"Current Source [A/m^2]" 
"Li+ flux [kmol/m^2/s]" 
"Electrolyte Current [A/m^2]" 
"Electrode Current [A/m^2]" 
"CV Capacity discharged [A-s/m^2]" 
"Depth of discharge in CV [A-s/m^2]" 
"CV Capacity remaining [A-s/m^2]" 
"Initial CV capacity [A-s/m^2]" 
"Porosity []" 
"Surface Area [m2/m2] (area per area)" 
"Specific current (per particle area) [A/m^2]" 
"Control volume thickness [m]" 
"MoleDens Li_C6-bulk [kmol/m^3]" 
"MoleDens V_C6-bulk [kmol/m^3]" 
"qHeat_accum [J/m3]" 
"qHeat_step [W/m3]" 
"Joule_Lyte [W/m3]" 
"Joule_Solid [W/m3]" 
"electrodHeat [W/m3]" 
"OverpotHeat [W/m3]" 
"deltaSHeat [W/m3]" 

ZONE T = "ANOD, 0.0000E+00", I = 10, SOLUTIONTIME = 0.000000E+00
ZONETYPE = ORDERED
DATAPACKING = BLOCK
STRANDID = 1
 0.0000000000000E+00  8.7488888888889E-05  1.7497777777778E-04  2.6246666666667E-04  3.4995555555556E-04  4.3744444444444E-04  5.2493333333333E-04  6.1242222222222E-04  6.9991111111111E-04  7.8740000000000E-04 
 0.0000000000000E+00  0.0000000000000E+00  0.0000000000000E+00  0.0000000000000E+00  0.0000000000000E+00  0.0000000000000E+00  0.0000000000000E+00  0.0000000000000E+00  0.0000000000000E+00  0.0000000000000E+00 
 9.2000000000000E-01  9.2000000000000E-01  9.2000000000000E-01  9.2000000000000E-01  9.2000000000000E-01  9.2000000000000E-01  9.2000000000000E-01  9.2000000000000E-01  9.2000000000000E-01  9.2000000000000E-01 
 4.0000000000000E-02  4.0000000000000E-02  4.0000000000000E-02  4.0000000000000E-02  4.0000000000000E-02  4.0000000000000E-02  4.0000000000000E-02  4.0000000000000E-02  4.0000000000000E-02  4.0000000000000E-02 
 4.0000000000000E-02  4.0000000000000E-02  4.0000000000000E-02  4.0000000000000E-02  4.0000000000000E-02  4.0000000000000E-02  4.0000000000000E-02  4.0000000000000E-02  4.0000000000000E-02  4.0000000000000E-02 
-7.0000000000000E-02 -7.0000000000000E-02 -7.0000000000000E-02 -7.0000000000000E-02 -7.0000000000000E-02 -7.0000000000000E-02 -7.0000000000000E-02 -7.0000000000000E-02 -7.0000000000000E-02 -7.0000000000000E-02 
 0.0000000000000E+00  0.0000000000000E+00  0.0000000000000E+00  0.0000000000000E+00  0.0000000000000E+00  0.0000000000000E+00  0.0000000000000E+00  0.0000000000000E+00  0.0000000000000E+00  0.0000000000000E+00 
 7.0000000000000E-02  7.0000000000000E-02  7.0000000000000E-02  7.0000000000000E-02  7.0000000000000E-02  7.0000000000000E-02  7.0000000000000E-02  7.0000000000000E-02  7.0000000000000E-02  7.0000000000000E-02 
-4.0906712753392E-02 -4.0906712753392E-02 -4.0906712753392E-02 -4.0906712753392E-02 -4.0906712753392E-02 -4.0906712753392E-02 -4.0906712753392E-02 -4.0906712753392E-02 -4.0906712753392E-02 -4.0906712753392E-02 
 1.1090671275339E-01  1.1090671275339E-01  1.1090671275339E-01  1.1090671275339E-01  1.1090671275339E-01  1.1090671275339E-01  1.1090671275339E-01  1.1090671275339E-01  1.1090671275339E-01  1.1090671275339E-01 
 3.0930240924008E+01  6.1860481848016E+01  6.1860481848016E+01  6.1860481848016E+01  6.1860481848016E+01  6.1860481848016E+01  6.1860481848016E+01  6.1860481848016E+01  6.1860481848016E+01  3.0930240924008E+01 
-0.0000000000000E+00 -0.0000000000000E+00 -0.0000000000000E+00 -0.0000000000000E+00 -0.0000000000000E+00 -0.0000000000000E+00 -0.0000000000000E+00 -0.0000000000000E+00 -0.0000000000000E+00 -0.0000000000000E+00 
 0.0000000000000E+00  0.0000000000000E+00  0.0000000000000E+00  0.0000000000000E+00  0.0000000000000E+00  0.0000000000000E+00  0.0000000000000E+00  0.0000000000000E+00  0.0000000000000E+00  3.0930240924008E+01 
 3.0930240924008E+01 -0.0000000000000E+00 -0.0000000000000E+00 -0.0000000000000E+00 -0.0000000000000E+00 -0.0000000000000E+00 -0.0000000000000E+00 -0.0000000000000E+00 -0.0000000000000E+00  0.0000000000000E+00 
 0.0000000000000E+00  0.0000000000000E+00  0.0000000000000E+00  0.0000000000000E+00  0.0000000000000E+00  0.0000000000000E+00  0.0000000000000E+00  0.0000000000000E+00  0.0000000000000E+00  0.0000000000000E+00 
 9.1448444543281E+04  1.8289688908656E+05  1.8289688908656E+05  1.8289688908656E+05  1.8289688908656E+05  1.8289688908656E+05  1.8289688908656E+05  1.8289688908656E+05  1.8289688908656E+05  9.1448444543281E+04 
 3.6579377817312E+05  7.3158755634625E+05  7.3158755634625E+05  7.3158755634625E+05  7.3158755634625E+05  7.3158755634625E+05  7.3158755634625E+05  7.3158755634625E+05  7.3158755634625E+05  3.6579377817312E+05 
 4.5724222271640E+05  9.1448444543281E+05  9.1448444543281E+05  9.1448444543281E+05  9.1448444543281E+05  9.1448444543281E+05  9.1448444543281E+05  9.1448444543281E+05  9.1448444543281E+05  4.5724222271640E+05 
 3.5000000000000E-01  3.5000000000000E-01  3.5000000000000E-01  3.5000000000000E-01  3.5000000000000E-01  3.5000000000000E-01  3.5000000000000E-01  3.5000000000000E-01  3.5000000000000E-01  3.5000000000000E-01 
 8.5301666666666E+00  1.7060333333333E+01  1.7060333333333E+01  1.7060333333333E+01  1.7060333333333E+01  1.7060333333333E+01  1.7060333333333E+01  1.7060333333333E+01  1.7060333333333E+01  8.5301666666666E+00 
 3.6259831879809E+00  3.6259831879809E+00  3.6259831879809E+00  3.6259831879809E+00  3.6259831879809E+00  3.6259831879809E+00  3.6259831879809E+00  3.6259831879809E+00  3.6259831879809E+00  3.6259831879809E+00 
 4.3744444444444E-05  8.7488888888889E-05  8.7488888888889E-05  8.7488888888889E-05  8.7488888888889E-05  8.7488888888889E-05  8.7488888888889E-05  8.7488888888889E-05  8.7488888888889E-05  4.3744444444444E-05 
 8.6666666666666E+01  8.6666666666666E+01  8.6666666666666E+01  8.6666666666666E+01  8.6666666666666E+01  8.6666666666666E+01  8.6666666666666E+01  8.6666666666666E+01  8.6666666666666E+01  8.6666666666666E+01 
 2.1666666666667E+01  2.1666666666667E+01  2.1666666666667E+01  2.1666666666667E+01  2.1666666666667E+01  2.1666666666667E+01  2.1666666666667E+01  2.1666666666667E+01  2.1666666666667E+01  2.1666666666667E+01 
 0.0000000000000E+00  0.0000000000000E+00  0.0000000000000E+00  0.0000000000000E+00  0.0000000000000E+00  0.0000000000000E+00  0.0000000000000E+00  0.0000000000000E+00  0.0000000000000E+00  0.0000000000000E+00 
 0.0000000000000E+00  0.0000000000000E+00  0.0000000000000E+00  0.0000000000000E+00  0.0000000000000E+00  0.0000000000000E+00  0.0000000000000E+00  0.0000000000000E+00  0.0000000000000E+00  0.0000000000000E+00 
 0.0000000000000E+00  0.0000000000000E+00  0.0000000000000E+00  0.0000000000000E+00  0.0000000000000E+00  0.0000000000000E+00  0.0000000000000E+00  0.0000000000000E+00  0.0000000000000E+00  0.0000000000000E+00 
 0.0000000000000E+00  0.0000000000000E+00  0.0000000000000E+00  0.0000000000000E+00  0.0000000000000E+00  0.0000000000000E+00  0.0000000000000E+00  0.0000000000000E+00  0.0000000000000E+00  0.0000000000000E+00 
 0.0000000000000E+00  0.0000000000000E+00  0.0000000000000E+00  0.0000000000000E+00  0.0000000000000E+00  0.0000000000000E+00  0.0000000000000E+00  0.0000000000000E+00  0.0000000000000E+00  0.0000000000000E+00 
 0.0000000000000E+00  0.0000000000000E+00  0.0000000000000E+00  0.0000000000000E+00  0.0000000000000E+00  0.0000000000000E+00  0.0000000000000E+00  0.0000000000000E+00  0.0000000000000E+00  0.0000000000000E+00 
 0.0000000000000E+00  0.0000000000000E+00  0.0000000000000E+00  0.0000000000000E+00  0.0000000000000E+00  0.0000000000000E+00  0.0000000000000E+00  0.0000000000000E+00  0.0000000000000E+00  0.0000000000000E+00 
ZONE T = "ANOD, 1.0000E-08", I = 10, SOLUTIONTIME = 1.000000E-08
ZONETYPE = ORDERED
DATAPACKING = BLOCK
STRANDID = 1
 0.0000000000000E+00  8.7488888888889E-05  1.7497777777778E-04  2.6246666666667E-04  3.4995555555556E-04  4.3744444444444E-04  5.2493333333333E-04  6.1242222222222E-04  6.9991111111111E-04  7.8740000000000E-04 
 1.1577512891674E-09  3.4728928644530E-09  5.7884062677086E-09  8.1039347067946E-09  1.0419121389620E-08  1.2734699147346E-08  1.5050674395768E-08  1.7366690343061E-08  1.9682753405258E-08  2.0840085286444E-08 
 9.1999999999930E-01  9.1999999999930E-01  9.1999999999930E-01  9.1999999999930E-01  9.1999999999930E-01  9.1999999999930E-01  9.1999999999930E-01  9.1999999999930E-01  9.1999999999930E-01  9.1999999999971E-01 
 4.0000000000348E-02  4.0000000000348E-02  4.0000000000348E-02  4.0000000000348E-02  4.0000000000348E-02  4.0000000000348E-02  4.0000000000348E-02  4.0000000000348E-02  4.0000000000348E-02  4.0000000000144E-02 
 4.0000000000348E-02  4.0000000000348E-02  4.0000000000348E-02  4.0000000000348E-02  4.0000000000348E-02  4.0000000000348E-02  4.0000000000348E-02  4.0000000000348E-02  4.0000000000348E-02  4.0000000000144E-02 
 2.9182258996632E-02  2.9182243283893E-02  2.9182196145646E-02  2.9182117581774E-02  2.9182007592074E-02  2.9181866176254E-02  2.9181693333936E-02  2.9181489064655E-02  2.9181253367858E-02  2.9180986242907E-02 
 0.0000000000000E+00 -4.7327994133200E-09 -8.9088194004747E-09 -1.2528057888991E-08 -1.5590511263966E-08 -1.8096174368051E-08 -2.0045040501439E-08 -2.1437101421843E-08 -2.2272347344466E-08 -2.2550766941977E-08 
-2.9182258996632E-02 -2.9182248016692E-02 -2.9182205054465E-02 -2.9182130109832E-02 -2.9182023182586E-02 -2.9181884272429E-02 -2.9181713378977E-02 -2.9181510501756E-02 -2.9181275640206E-02 -2.9181008793674E-02 
-4.0906712752890E-02 -4.0906712752891E-02 -4.0906712752896E-02 -4.0906712752896E-02 -4.0906712752896E-02 -4.0906712752896E-02 -4.0906712752896E-02 -4.0906712752896E-02 -4.0906712752896E-02 -4.0906712753027E-02 
 1.1724453756259E-02  1.1724464736199E-02  1.1724507698431E-02  1.1724582643064E-02  1.1724689570311E-02  1.1724828480468E-02  1.1724999373919E-02  1.1725202251140E-02  1.1725437112691E-02  1.1725703959354E-02 
 1.6668957842032E+00  3.3337947444922E+00  3.3338071718542E+00  3.3338288505355E+00  3.3338597806040E+00  3.3338999621591E+00  3.3339493953273E+00  3.3340080802665E+00  3.3340760171652E+00  1.6670766031197E+00 
 8.6412902443237E-09  2.5923887194163E-08  4.3206548467218E-08  6.0489321948697E-08  7.7772255521296E-08  9.5055397052136E-08  1.1233879442828E-07  1.2962249552778E-07  1.4690662028289E-07  1.4690662028289E-07 
 0.0000000000000E+00  3.3350327749371E+00  6.6700733443849E+00  1.0005130946916E+01  1.3340214821841E+01  1.6675334208283E+01  2.0010498345183E+01  2.3345716472037E+01  2.6680997828299E+01  3.0015732071830E+01 
 3.0015731844136E+01  2.6681318878719E+01  2.3346278309373E+01  2.0011220706714E+01  1.6676136831746E+01  1.3341017445394E+01  1.0005853308465E+01  6.6706351816268E+00  3.3353538253736E+00  0.0000000000000E+00 
 1.6668957842032E-08  3.3337947444922E-08  3.3338071718542E-08  3.3338288505355E-08  3.3338597806040E-08  3.3338999621591E-08  3.3339493953273E-08  3.3340080802665E-08  3.3340760171652E-08  1.6670766031197E-08 
 9.1448444543297E+04  1.8289688908659E+05  1.8289688908659E+05  1.8289688908659E+05  1.8289688908659E+05  1.8289688908660E+05  1.8289688908660E+05  1.8289688908659E+05  1.8289688908659E+05  9.1448444543297E+04 
 3.6579377817311E+05  7.3158755634621E+05  7.3158755634621E+05  7.3158755634621E+05  7.3158755634621E+05  7.3158755634621E+05  7.3158755634621E+05  7.3158755634621E+05  7.3158755634621E+05  3.6579377817311E+05 
 4.5724222271640E+05  9.1448444543281E+05  9.1448444543281E+05  9.1448444543281E+05  9.1448444543281E+05  9.1448444543281E+05  9.1448444543281E+05  9.1448444543281E+05  9.1448444543281E+05  4.5724222271640E+05 
 3.5000000000000E-01  3.5000000000000E-01  3.5000000000000E-01  3.5000000000000E-01  3.5000000000000E-01  3.5000000000000E-01  3.5000000000000E-01  3.5000000000000E-01  3.5000000000000E-01  3.5000000000000E-01 
 8.5301666666666E+00  1.7060333333333E+01  1.7060333333333E+01  1.7060333333333E+01  1.7060333333333E+01  1.7060333333333E+01  1.7060333333333E+01  1.7060333333333E+01  1.7060333333333E+01  8.5301666666666E+00 
 1.9541186583340E-01  1.9541205200126E-01  1.9541278043732E-01  1.9541405114411E-01  1.9541586412560E-01  1.9541821938761E-01  1.9542111693757E-01  1.9542455678474E-01  1.9542853894015E-01  1.9543306341647E-01 
 4.3744444444444E-05  8.7488888888889E-05  8.7488888888889E-05  8.7488888888889E-05  8.7488888888889E-05  8.7488888888889E-05  8.7488888888889E-05  8.7488888888889E-05  8.7488888888889E-05  4.3744444444444E-05 
 8.6666666666662E+01  8.6666666666662E+01  8.6666666666662E+01  8.6666666666662E+01  8.6666666666662E+01  8.6666666666662E+01  8.6666666666662E+01  8.6666666666662E+01  8.6666666666662E+01  8.6666666666662E+01 
 2.1666666666671E+01  2.1666666666671E+01  2.1666666666671E+01  2.1666666666671E+01  2.1666666666671E+01  2.1666666666671E+01  2.1666666666671E+01  2.1666666666671E+01  2.1666666666671E+01  2.1666666666671E+01 
 1.8330395308648E-11  2.8611642458386E-11  6.1365737139622E-11  1.1850328163709E-10  2.0002490916885E-10  3.0593152314978E-10  4.3622429720057E-10  5.9090467517968E-10  7.6997437118243E-10  8.6560677984171E-10 
 1.8330395308648E-03  2.8611642458386E-03  6.1365737139622E-03  1.1850328163709E-02  2.0002490916885E-02  3.0593152314978E-02  4.3622429720057E-02  5.9090467517968E-02  7.6997437118243E-02  8.6560677984171E-02 
 2.9948073983767E-04  1.4974054100205E-03  5.0911911381822E-03  1.1080874633602E-02  1.9466519155681E-02  3.0248214513124E-02  4.3426077064811E-02  5.9000249722980E-02  7.6970901953108E-02  8.6555370803951E-02 
 1.5335587910272E-03  1.3637588358181E-03  1.0453825757799E-03  7.6945353010789E-04  5.3597176120363E-04  3.4493780185397E-04  1.9635265524606E-04  9.0217794987935E-05  2.6535165134688E-05  5.3071802200104E-06 
 0.0000000000000E+00  0.0000000000000E+00  0.0000000000000E+00  0.0000000000000E+00  0.0000000000000E+00  0.0000000000000E+00  0.0000000000000E+00  0.0000000000000E+00  0.0000000000000E+00  0.0000000000000E+00 
 0.0000000000000E+00  0.0000000000000E+00  0.0000000000000E+00  0.0000000000000E+00  0.0000000000000E+00  0.0000000000000E+00  0.0000000000000E+00  0.0000000000000E+00  0.0000000000000E+00  0.0000000000000E+00 
 0.0000000000000E+00  0.0000000000000E+00  0.0000000000000E+00  0.0000000000000E+00  0.0000000000000E+00  0.0000000000000E+00  0.0000000000000E+00  0.0000000000000E+00  0.0000000000000E+00  0.0000000000000E+00 
ZONE T = "ANOD, 2.0000E-08", I = 10, SOLUTIONTIME = 2.000000E-08
ZONETYPE = ORDERED
DATAPACKING = BLOCK
STRANDID = 1
 0.0000000000000E+00  8.7488888888889E-05  1.7497777777778E-04  2.6246666666667E-04  3.4995555555556E-04  4.3744444444444E-04  5.2493333333333E-04  6.1242222222222E-04  6.9991111111111E-04  7.8740000000000E-04 
 1.1589761674327E-09  3.4758410866822E-09  5.7938042669524E-09  8.1110560998983E-09  1.0427966223591E-08  1.2744904276169E-08  1.5061876688135E-08  1.7379979513283E-08  1.9697039935986E-08  2.0856141784755E-08 
 9.1999999999861E-01  9.1999999999861E-01  9.1999999999861E-01  9.1999999999861E-01  9.1999999999861E-01  9.1999999999861E-01  9.1999999999861E-01  9.1999999999861E-01  9.1999999999861E-01  9.1999999999942E-01 
 4.0000000000696E-02  4.0000000000696E-02  4.0000000000696E-02  4.0000000000696E-02  4.0000000000696E-02  4.0000000000696E-02  4.0000000000696E-02  4.0000000000696E-02  4.0000000000696E-02  4.0000000000288E-02 
 4.0000000000696E-02  4.0000000000696E-02  4.0000000000696E-02  4.0000000000696E-02  4.0000000000696E-02  4.0000000000696E-02  4.0000000000696E-02  4.0000000000696E-02  4.0000000000696E-02  4.0000000000288E-02 
 2.9167671851333E-02  2.9167656124437E-02  2.9167608943720E-02  2.9167530309064E-02  2.9167420220264E-02  2.9167278677030E-02  2.9167105678982E-02  2.9166901225654E-02  2.9166665316492E-02  2.9166397950855E-02 
 0.0000000000000E+00 -4.7370637987072E-09 -8.9168465238937E-09 -1.2539346098857E-08 -1.5604558900926E-08 -1.8112479761452E-08 -2.0063101965792E-08 -2.1456417253285E-08 -2.2292415817227E-08 -2.2571086304838E-08 
-2.9167671851333E-02 -2.9167660861501E-02 -2.9167617860566E-02 -2.9167542848410E-02 -2.9167435824823E-02 -2.9167296789510E-02 -2.9167125742084E-02 -2.9166922682071E-02 -2.9166687608907E-02 -2.9166420521942E-02 
-4.0906712752398E-02 -4.0906712752396E-02 -4.0906712752391E-02 -4.0906712752391E-02 -4.0906712752396E-02 -4.0906712752396E-02 -4.0906712752396E-02 -4.0906712752396E-02 -4.0906712752396E-02 -4.0906712752658E-02 
 1.1739040901065E-02  1.1739051890895E-02  1.1739094891825E-02  1.1739169903982E-02  1.1739276927573E-02  1.1739415962886E-02  1.1739587010312E-02  1.1739790070325E-02  1.1740025143489E-02  1.1740292230717E-02 
 1.6690056084755E+00  3.3380143960995E+00  3.3380268354519E+00  3.3380485350477E+00  3.3380794949562E+00  3.3381197152760E+00  3.3381691961358E+00  3.3382279376935E+00  3.3382959401369E+00  1.6691866018561E+00 
 8.6490758732155E-09  2.5947244106480E-08  4.3245476789962E-08  6.0543821926247E-08  7.7842327500221E-08  9.5141041498013E-08  1.1244001190710E-07  1.2973928672365E-07  1.4703905810261E-07  1.4703905810261E-07 
 0.0000000000000E+00  3.3380375735038E+00  6.6760829562462E+00  1.0014145407971E+01  1.3352234189343E+01  1.6690358560291E+01  2.0028527781294E+01  2.3366751113017E+01  2.6705037815685E+01  3.0043384769245E+01 
 3.0043384767045E+01  2.6705359577042E+01  2.3367314194401E+01  2.0029251742519E+01  1.6691162961224E+01  1.3353038590261E+01  1.0014869369261E+01  6.6766460377110E+00  3.3383593349246E+00  0.0000000000000E+00 
 3.3359013926786E-08  6.6718091405917E-08  6.6718340073061E-08  6.6718773855832E-08  6.6719392755603E-08  6.6720196774351E-08  6.6721185914631E-08  6.6722360179600E-08  6.6723719573021E-08  3.3362632049758E-08 
 9.1448444543314E+04  1.8289688908663E+05  1.8289688908663E+05  1.8289688908663E+05  1.8289688908663E+05  1.8289688908663E+05  1.8289688908663E+05  1.8289688908663E+05  1.8289688908663E+05  9.1448444543314E+04 
 3.6579377817309E+05  7.3158755634618E+05  7.3158755634618E+05  7.3158755634618E+05  7.3158755634618E+05  7.3158755634618E+05  7.3158755634618E+05  7.3158755634618E+05  7.3158755634618E+05  3.6579377817309E+05 
 4.5724222271640E+05  9.1448444543281E+05  9.1448444543281E+05  9.1448444543281E+05  9.1448444543281E+05  9.1448444543281E+05  9.1448444543281E+05  9.1448444543281E+05  9.1448444543281E+05  4.5724222271640E+05 
 3.5000000000000E-01  3.5000000000000E-01  3.5000000000000E-01  3.5000000000000E-01  3.5000000000000E-01  3.5000000000000E-01  3.5000000000000E-01  3.5000000000000E-01  3.5000000000000E-01  3.5000000000000E-01 
 8.5301666666666E+00  1.7060333333333E+01  1.7060333333333E+01  1.7060333333333E+01  1.7060333333333E+01  1.7060333333333E+01  1.7060333333333E+01  1.7060333333333E+01  1.7060333333333E+01  8.5301666666666E+00 
 1.9565920265045E-01  1.9565938899784E-01  1.9566011813673E-01  1.9566139006943E-01  1.9566320480000E-01  1.9566556233423E-01  1.9566846267965E-01  1.9567190584554E-01  1.9567589184288E-01  1.9568042068613E-01 
 4.3744444444444E-05  8.7488888888889E-05  8.7488888888889E-05  8.7488888888889E-05  8.7488888888889E-05  8.7488888888889E-05  8.7488888888889E-05  8.7488888888889E-05  8.7488888888889E-05  4.3744444444444E-05 
 8.6666666666658E+01  8.6666666666658E+01  8.6666666666658E+01  8.6666666666658E+01  8.6666666666658E+01  8.6666666666658E+01  8.6666666666658E+01  8.6666666666658E+01  8.6666666666658E+01  8.6666666666658E+01 
 2.1666666666674E+01  2.1666666666674E+01  2.1666666666674E+01  2.1666666666674E+01  2.1666666666674E+01  2.1666666666674E+01  2.1666666666674E+01  2.1666666666674E+01  2.1666666666674E+01  2.1666666666674E+01 
 3.6693837613717E-11  5.7274866575701E-11  1.2284210406575E-10  2.3722019955858E-10  4.0041042144834E-10  6.1241457937212E-10  8.7323502426696E-10  1.1828746483928E-09  1.5413368853324E-09  1.7327741200421E-09 
 1.8363442305069E-03  2.8663224117316E-03  6.1476366926126E-03  1.1871691792149E-02  2.0038551227949E-02  3.0648305622234E-02  4.3701072706639E-02  5.9196997321316E-02  7.7136251414998E-02  8.6716734020043E-02 
 5.9950137508719E-04  2.9975103010243E-03  1.0191560547917E-02  2.2181725645035E-02  3.8968132306907E-02  6.0550960430086E-02  8.6930443098815E-02  1.1810686658729E-01  1.5408057035956E-01  1.7326678807463E-01 
 3.0698823862846E-03  2.7299763565458E-03  2.0926498586573E-03  1.5402943108234E-03  1.0729098379275E-03  6.9049750712679E-04  3.9305932788166E-04  1.8059825199775E-04  5.3118173678013E-05  1.0623929586200E-05 
 0.0000000000000E+00  0.0000000000000E+00  0.0000000000000E+00  0.0000000000000E+00  0.0000000000000E+00  0.0000000000000E+00  0.0000000000000E+00  0.0000000000000E+00  0.0000000000000E+00  0.0000000000000E+00 
 0.0000000000000E+00  0.0000000000000E+00  0.0000000000000E+00  0.0000000000000E+00  0.0000000000000E+00  0.0000000000000E+00  0.0000000000000E+00  0.0000000000000E+00  0.0000000000000E+00  0.0000000000000E+00 
 0.0000000000000E+00  0.0000000000000E+00  0.0000000000000E+00  0.0000000000000E+00  0.0000000000000E+00  0.0000000000000E+00  0.0000000000000E+00  0.0000000000000E+00  0.0000000000000E+00  0.0000000000000E+00 
ZONE T = "ANOD, 3.0000E-08", I = 10, SOLUTIONTIME = 3.000000E-08
ZONETYPE = ORDERED
DATAPACKING = BLOCK
STRANDID = 1
 0.0000000000000E+00  8.7488888888889E-05  1.7497777777778E-04  2.6246666666667E-04  3.4995555555556E-04  4.3744444444444E-04  5.2493333333333E-04  6.1242222222222E-04  6.9991111111111E-04  7.8740000000000E-04 
 1.1591995833775E-09  3.4779641656158E-09  5.7963741785414E-09  8.1147992605701E-09  1.0433609050166E-08  1.2752809978134E-08  1.5071318852183E-08  1.7390231726503E-08  1.9709191824498E-08  2.0868335493268E-08 
 9.1999999999791E-01  9.1999999999791E-01  9.1999999999791E-01  9.1999999999791E-01  9.1999999999791E-01  9.1999999999791E-01  9.1999999999791E-01  9.1999999999791E-01  9.1999999999791E-01  9.1999999999914E-01 
 4.0000000001044E-02  4.0000000001044E-02  4.0000000001044E-02  4.0000000001044E-02  4.0000000001044E-02  4.0000000001044E-02  4.0000000001044E-02  4.0000000001044E-02  4.0000000001044E-02  4.0000000000432E-02 
 4.0000000001044E-02  4.0000000001044E-02  4.0000000001044E-02  4.0000000001044E-02  4.0000000001044E-02  4.0000000001044E-02  4.0000000001044E-02  4.0000000001044E-02  4.0000000001044E-02  4.0000000000432E-02 
 2.9167087937538E-02  2.9167072210074E-02  2.9167025027655E-02  2.9166946390162E-02  2.9166836297391E-02  2.9166694749050E-02  2.9166521744761E-02  2.9166317284057E-02  2.9166081366384E-02  2.9165813991101E-02 
 0.0000000000000E+00 -4.7372347015095E-09 -8.9171682245883E-09 -1.2539798492395E-08 -1.5605121882024E-08 -1.8113133224501E-08 -2.0063825804758E-08 -2.1457191361617E-08 -2.2293220087763E-08 -2.2571900629711E-08 
-2.9167087937538E-02 -2.9167076947309E-02 -2.9167033944823E-02 -2.9166958929961E-02 -2.9166851902513E-02 -2.9166712862184E-02 -2.9166541808587E-02 -2.9166338741248E-02 -2.9166103659604E-02 -2.9165836563002E-02 
-4.0906712751891E-02 -4.0906712751895E-02 -4.0906712751891E-02 -4.0906712751891E-02 -4.0906712751893E-02 -4.0906712751895E-02 -4.0906712751895E-02 -4.0906712751893E-02 -4.0906712751893E-02 -4.0906712752286E-02 
 1.1739624814354E-02  1.1739635804586E-02  1.1739678807068E-02  1.1739753821931E-02  1.1739860849380E-02  1.1739999889711E-02  1.1740170943308E-02  1.1740374010645E-02  1.1740609092289E-02  1.1740876189284E-02 
 1.6690900660886E+00  3.3381833114500E+00  3.3381957512828E+00  3.3382174517168E+00  3.3382484128209E+00  3.3382886346952E+00  3.3383381174663E+00  3.3383968612924E+00  3.3384648663627E+00  1.6692710664761E+00 
 8.6493879019796E-09  2.5948180199538E-08  4.3247036948874E-08  6.0546006158985E-08  7.7845135814960E-08  9.5144473911383E-08  1.1244406843054E-07  1.2974396738355E-07  1.4704443503753E-07  1.4704443503753E-07 
 0.0000000000000E+00  3.3381579991753E+00  6.6763238079574E+00  1.0014506687011E+01  1.3352715897184E+01  1.6690960699326E+01  2.0029250354469E+01  2.3367594123462E+01  2.6706001267413E+01  3.0044492907229E+01 
 3.0044492909606E+01  2.6706323049129E+01  2.3368157240347E+01  2.0029974361209E+01  1.6691765150975E+01  1.3353520348825E+01  1.0015230693824E+01  6.6768869248918E+00  3.3384797807782E+00  0.0000000000000E+00 
 5.0049914587672E-08  1.0009992452042E-07  1.0010029758589E-07  1.0010094837300E-07  1.0010187688381E-07  1.0010308312130E-07  1.0010456708929E-07  1.0010632879252E-07  1.0010836823665E-07  5.0055342714519E-08 
 9.1448444543331E+04  1.8289688908666E+05  1.8289688908666E+05  1.8289688908666E+05  1.8289688908666E+05  1.8289688908666E+05  1.8289688908666E+05  1.8289688908666E+05  1.8289688908666E+05  9.1448444543331E+04 
 3.6579377817307E+05  7.3158755634615E+05  7.3158755634615E+05  7.3158755634615E+05  7.3158755634615E+05  7.3158755634615E+05  7.3158755634615E+05  7.3158755634615E+05  7.3158755634615E+05  3.6579377817307E+05 
 4.5724222271640E+05  9.1448444543281E+05  9.1448444543281E+05  9.1448444543281E+05  9.1448444543281E+05  9.1448444543281E+05  9.1448444543281E+05  9.1448444543281E+05  9.1448444543281E+05  4.5724222271640E+05 
 3.5000000000000E-01  3.5000000000000E-01  3.5000000000000E-01  3.5000000000000E-01  3.5000000000000E-01  3.5000000000000E-01  3.5000000000000E-01  3.5000000000000E-01  3.5000000000000E-01  3.5000000000000E-01 
 8.5301666666666E+00  1.7060333333333E+01  1.7060333333333E+01  1.7060333333333E+01  1.7060333333333E+01  1.7060333333333E+01  1.7060333333333E+01  1.7060333333333E+01  1.7060333333333E+01  8.5301666666666E+00 
 1.9566910370121E-01  1.9566929005588E-01  1.9567001922292E-01  1.9567129120475E-01  1.9567310600541E-01  1.9567546363075E-01  1.9567836408822E-01  1.9568180738706E-01  1.9568579353838E-01  1.9569032255831E-01 
 4.3744444444444E-05  8.7488888888889E-05  8.7488888888889E-05  8.7488888888889E-05  8.7488888888889E-05  8.7488888888889E-05  8.7488888888889E-05  8.7488888888889E-05  8.7488888888889E-05  4.3744444444444E-05 
 8.6666666666654E+01  8.6666666666654E+01  8.6666666666654E+01  8.6666666666654E+01  8.6666666666654E+01  8.6666666666654E+01  8.6666666666654E+01  8.6666666666654E+01  8.6666666666654E+01  8.6666666666654E+01 
 2.1666666666678E+01  2.1666666666678E+01  2.1666666666678E+01  2.1666666666678E+01  2.1666666666678E+01  2.1666666666678E+01  2.1666666666678E+01  2.1666666666678E+01  2.1666666666678E+01  2.1666666666678E+01 
 5.5058604961639E-11  8.5940158913226E-11  1.8432290683800E-10  3.5594568352533E-10  6.0081039259821E-10  9.1891975001982E-10  1.3102772841548E-09  1.7748873357967E-09  2.3127550581947E-09  2.6000040320230E-09 
 1.8364767347922E-03  2.8665292337525E-03  6.1480802772249E-03  1.1872548396675E-02  2.0039997114987E-02  3.0650517064769E-02  4.3704225988787E-02  5.9201268740387E-02  7.7141817286233E-02  8.6722991198088E-02 
 8.9954365829618E-04  4.4977234318874E-03  1.5292297974297E-02  3.3283377638957E-02  5.8471152600793E-02  9.0855892854541E-02  1.3043794822083E-01  1.7721774834887E-01  2.3119580271903E-01  2.5998446213969E-01 
 4.6063168378678E-03  4.0962924594352E-03  3.1399927095028E-03  2.3111907135756E-03  1.6098866590277E-03  1.0360821474411E-03  5.8978019465037E-04  2.7098523080505E-04  7.9703100448335E-05  1.5941062612336E-05 
 0.0000000000000E+00  0.0000000000000E+00  0.0000000000000E+00  0.0000000000000E+00  0.0000000000000E+00  0.0000000000000E+00  0.0000000000000E+00  0.0000000000000E+00  0.0000000000000E+00  0.0000000000000E+00 
 0.0000000000000E+00  0.0000000000000E+00  0.0000000000000E+00  0.0000000000000E+00  0.0000000000000E+00  0.0000000000000E+00  0.0000000000000E+00  0.0000000000000E+00  0.0000000000000E+00  0.0000000000000E+00 
 0.0000000000000E+00  0.0000000000000E+00  0.0000000000000E+00  0.0000000000000E+00  0.0000000000000E+00  0.0000000000000E+00  0.0000000000000E+00  0.0000000000000E+00  0.0000000000000E+00  0.0000000000000E+00 
ZONE T = "ANOD, 4.0000E-08", I = 10, SOLUTIONTIME = 4.000000E-08
ZONETYPE = ORDERED
DATAPACKING = BLOCK
STRANDID = 1
 0.0000000000000E+00  8.7488888888889E-05  1.7497777777778E-04  2.6246666666667E-04  3.4995555555556E-04  4.3744444444444E-04  5.2493333333333E-04  6.1242222222222E-04  6.9991111111111E-04  7.8740000000000E-04 
 1.1589987639753E-09  3.4766352918663E-09  5.7942804579068E-09  8.1119406926038E-09  1.0429622426513E-08  1.2746968882530E-08  1.5065076114553E-08  1.7383224137948E-08  1.9701419383670E-08  2.0860543833276E-08 
 9.1999999999721E-01  9.1999999999721E-01  9.1999999999721E-01  9.1999999999721E-01  9.1999999999721E-01  9.1999999999721E-01  9.1999999999721E-01  9.1999999999721E-01  9.1999999999721E-01  9.1999999999885E-01 
 4.0000000001393E-02  4.0000000001393E-02  4.0000000001393E-02  4.0000000001393E-02  4.0000000001393E-02  4.0000000001393E-02  4.0000000001393E-02  4.0000000001393E-02  4.0000000001393E-02  4.0000000000576E-02 
 4.0000000001393E-02  4.0000000001393E-02  4.0000000001393E-02  4.0000000001393E-02  4.0000000001393E-02  4.0000000001393E-02  4.0000000001393E-02  4.0000000001393E-02  4.0000000001393E-02  4.0000000000576E-02 
 2.9167356261571E-02  2.9167340534368E-02  2.9167293352731E-02  2.9167214716542E-02  2.9167104625596E-02  2.9166963079602E-02  2.9166790078181E-02  2.9166585620867E-02  2.9166349707105E-02  2.9166082336256E-02 
 0.0000000000000E+00 -4.7371561598727E-09 -8.9170203809093E-09 -1.2539590586332E-08 -1.5604863153344E-08 -1.8112832913119E-08 -2.0063493150785E-08 -2.1456835605403E-08 -2.2292850469936E-08 -2.2571526391226E-08 
-2.9167356261571E-02 -2.9167345271524E-02 -2.9167302269751E-02 -2.9167227256132E-02 -2.9167120230459E-02 -2.9166981192435E-02 -2.9166810141674E-02 -2.9166607077702E-02 -2.9166371999955E-02 -2.9166104907782E-02 
-4.0906712751398E-02 -4.0906712751390E-02 -4.0906712751393E-02 -4.0906712751393E-02 -4.0906712751396E-02 -4.0906712751394E-02 -4.0906712751394E-02 -4.0906712751396E-02 -4.0906712751396E-02 -4.0906712751920E-02 
 1.1739356489828E-02  1.1739367479866E-02  1.1739410481641E-02  1.1739485495260E-02  1.1739592520937E-02  1.1739731558958E-02  1.1739902609719E-02  1.1740105673694E-02  1.1740340751441E-02  1.1740607844138E-02 
 1.6690512554392E+00  3.3381056900918E+00  3.3381181297047E+00  3.3381398297535E+00  3.3381707903084E+00  3.3382110114679E+00  3.3382604933607E+00  3.3383192361447E+00  3.3383872400077E+00  1.6692322526275E+00 