TITLE = "Solution on Domain BulkDomain1D_0"
VARIABLES = "x [m]"  
"Vel_axial" 
"MF_sp(ECDMC)" 
"MF_sp(Li+)" 
"MF_sp(PF6-)" 
"Volt(Electroly)" 
"Volt(AnodeVolt)" 
"Potential Drop Electrode-Electrolyte [V]" 
"Surf_0 Equilibrium Potential Drop Electrode-Electrolyte [V]" 
"Overpotential_0 [V]" 
"Current Source [A/m^2]" 
"Li+ flux [kmol/m^2/s]" 
"Electrolyte Current [A/m^2]" 
"Electrode Current [A/m^2]" 
"CV Capacity discharged [A-s/m^2]" 
"Depth of discharge in CV [A-s/m^2]" 
"CV Capacity remaining [A-s/m^2]" 
"Initial CV capacity [A-s/m^2]" 
"Porosity []" 
"Surface Area [m2/m2] (area per area)" 
"Specific current (per particle area) [A/m^2]" 
"Control volume thickness [m]" 
"MoleDens Li_C6-bulk [kmol/m^3]" 
"MoleDens V_C6-bulk [kmol/m^3]" 
"qHeat_accum [J/m3]" 
"qHeat_step [W/m3]" 
"Joule_Lyte [W/m3]" 
"Joule_Solid [W/m3]" 
"electrodHeat [W/m3]" 
"OverpotHeat [W/m3]" 
"deltaSHeat [W/m3]" 

ZONE T = "ANOD, 0.0000E+00", I = 10, SOLUTIONTIME = 0.000000E+00
ZONETYPE = ORDERED
DATAPACKING = BLOCK
STRANDID = 1
 0.0000000000000E+00  8.7488888888889E-05  1.7497777777778E-04  2.6246666666667E-04  3.4995555555556E-04  4.3744444444444E-04  5.2493333333333E-04  6.1242222222222E-04  6.9991111111111E-04  7.8740000000000E-04 
 0.0000000000000E+00  0.0000000000000E+00  0.0000000000000E+00  0.0000000000000E+00  0.0000000000000E+00  0.0000000000000E+00  0.0000000000000E+00  0.0000000000000E+00  0.0000000000000E+00  0.0000000000000E+00 
 9.2000000000000E-01  9.2000000000000E-01  9.2000000000000E-01  9.2000000000000E-01  9.2000000000000E-01  9.2000000000000E-01  9.2000000000000E-01  9.2000000000000E-01  9.2000000000000E-01  9.2000000000000E-01 
 4.0000000000000E-02  4.0000000000000E-02  4.0000000000000E-02  4.0000000000000E-02  4.0000000000000E-02  4.0000000000000E-02  4.0000000000000E-02  4.0000000000000E-02  4.0000000000000E-02  4.0000000000000E-02 
 4.0000000000000E-02  4.0000000000000E-02  4.0000000000000E-02  4.0000000000000E-02  4.0000000000000E-02  4.0000000000000E-02  4.0000000000000E-02  4.0000000000000E-02  4.0000000000000E-02  4.0000000000000E-02 
-7.0000000000000E-02 -7.0000000000000E-02 -7.0000000000000E-02 -7.0000000000000E-02 -7.0000000000000E-02 -7.0000000000000E-02 -7.0000000000000E-02 -7.0000000000000E-02 -7.0000000000000E-02 -7.0000000000000E-02 
 0.0000000000000E+00  0.0000000000000E+00  0.0000000000000E+00  0.0000000000000E+00  0.0000000000000E+00  0.0000000000000E+00  0.0000000000000E+00  0.0000000000000E+00  0.0000000000000E+00  0.0000000000000E+00 
 7.0000000000000E-02  7.0000000000000E-02  7.0000000000000E-02  7.0000000000000E-02  7.0000000000000E-02  7.0000000000000E-02  7.0000000000000E-02  7.0000000000000E-02  7.0000000000000E-02  7.0000000000000E-02 
-4.0906712753390E-02 -4.0906712753390E-02 -4.0906712753390E-02 -4.0906712753390E-02 -4.0906712753390E-02 -4.0906712753390E-02 -4.0906712753390E-02 -4.0906712753390E-02 -4.0906712753390E-02 -4.0906712753390E-02 
 1.1090671275339E-01  1.1090671275339E-01  1.1090671275339E-01  1.1090671275339E-01  1.1090671275339E-01  1.1090671275339E-01  1.1090671275339E-01  1.1090671275339E-01  1.1090671275339E-01  1.1090671275339E-01 
 3.0930240924008E+01  6.1860481848016E+01  6.1860481848016E+01  6.1860481848016E+01  6.1860481848016E+01  6.1860481848016E+01  6.1860481848016E+01  6.1860481848016E+01  6.1860481848016E+01  3.0930240924008E+01 
-0.0000000000000E+00 -0.0000000000000E+00 -0.0000000000000E+00 -0.0000000000000E+00 -0.0000000000000E+00 -0.0000000000000E+00 -0.0000000000000E+00 -0.0000000000000E+00 -0.0000000000000E+00 -0.0000000000000E+00 
 0.0000000000000E+00  0.0000000000000E+00  0.0000000000000E+00  0.0000000000000E+00  0.0000000000000E+00  0.0000000000000E+00  0.0000000000000E+00  0.0000000000000E+00  0.0000000000000E+00  3.0930240924008E+01 
 3.0930240924008E+01 -0.0000000000000E+00 -0.0000000000000E+00 -0.0000000000000E+00 -0.0000000000000E+00 -0.0000000000000E+00 -0.0000000000000E+00 -0.0000000000000E+00 -0.0000000000000E+00  0.0000000000000E+00 
 0.0000000000000E+00  0.0000000000000E+00  0.0000000000000E+00  0.0000000000000E+00  0.0000000000000E+00  0.0000000000000E+00  0.0000000000000E+00  0.0000000000000E+00  0.0000000000000E+00  0.0000000000000E+00 
 9.1448444543281E+04  1.8289688908656E+05  1.8289688908656E+05  1.8289688908656E+05  1.8289688908656E+05  1.8289688908656E+05  1.8289688908656E+05  1.8289688908656E+05  1.8289688908656E+05  9.1448444543281E+04 
 3.6579377817312E+05  7.3158755634625E+05  7.3158755634625E+05  7.3158755634625E+05  7.3158755634625E+05  7.3158755634625E+05  7.3158755634625E+05  7.3158755634625E+05  7.3158755634625E+05  3.6579377817312E+05 
 4.5724222271640E+05  9.1448444543281E+05  9.1448444543281E+05  9.1448444543281E+05  9.1448444543281E+05  9.1448444543281E+05  9.1448444543281E+05  9.1448444543281E+05  9.1448444543281E+05  4.5724222271640E+05 
 3.5000000000000E-01  3.5000000000000E-01  3.5000000000000E-01  3.5000000000000E-01  3.5000000000000E-01  3.5000000000000E-01  3.5000000000000E-01  3.5000000000000E-01  3.5000000000000E-01  3.5000000000000E-01 
 8.5301666666666E+00  1.7060333333333E+01  1.7060333333333E+01  1.7060333333333E+01  1.7060333333333E+01  1.7060333333333E+01  1.7060333333333E+01  1.7060333333333E+01  1.7060333333333E+01  8.5301666666666E+00 
 3.6259831879809E+00  3.6259831879809E+00  3.6259831879809E+00  3.6259831879809E+00  3.6259831879809E+00  3.6259831879809E+00  3.6259831879809E+00  3.6259831879809E+00  3.6259831879809E+00  3.6259831879809E+00 
 4.3744444444444E-05  8.7488888888889E-05  8.7488888888889E-05  8.7488888888889E-05  8.7488888888889E-05  8.7488888888889E-05  8.7488888888889E-05  8.7488888888889E-05  8.7488888888889E-05  4.3744444444444E-05 
 8.6666666666666E+01  8.6666666666666E+01  8.6666666666666E+01  8.6666666666666E+01  8.6666666666666E+01  8.6666666666666E+01  8.6666666666666E+01  8.6666666666666E+01  8.6666666666666E+01  8.6666666666666E+01 
 2.1666666666667E+01  2.1666666666667E+01  2.1666666666667E+01  2.1666666666667E+01  2.1666666666667E+01  2.1666666666667E+01  2.1666666666667E+01  2.1666666666667E+01  2.1666666666667E+01  2.1666666666667E+01 
 0.0000000000000E+00  0.0000000000000E+00  0.0000000000000E+00  0.0000000000000E+00  0.0000000000000E+00  0.0000000000000E+00  0.0000000000000E+00  0.0000000000000E+00  0.0000000000000E+00  0.0000000000000E+00 
 0.0000000000000E+00  0.0000000000000E+00  0.0000000000000E+00  0.0000000000000E+00  0.0000000000000E+00  0.0000000000000E+00  0.0000000000000E+00  0.0000000000000E+00  0.0000000000000E+00  0.0000000000000E+00 
 0.0000000000000E+00  0.0000000000000E+00  0.0000000000000E+00  0.0000000000000E+00  0.0000000000000E+00  0.0000000000000E+00  0.0000000000000E+00  0.0000000000000E+00  0.0000000000000E+00  0.0000000000000E+00 
 0.0000000000000E+00  0.0000000000000E+00  0.0000000000000E+00  0.0000000000000E+00  0.0000000000000E+00  0.0000000000000E+00  0.0000000000000E+00  0.0000000000000E+00  0.0000000000000E+00  0.0000000000000E+00 
 0.0000000000000E+00  0.0000000000000E+00  0.0000000000000E+00  0.0000000000000E+00  0.0000000000000E+00  0.0000000000000E+00  0.0000000000000E+00  0.0000000000000E+00  0.0000000000000E+00  0.0000000000000E+00 
 0.0000000000000E+00  0.0000000000000E+00  0.0000000000000E+00  0.0000000000000E+00  0.0000000000000E+00  0.0000000000000E+00  0.0000000000000E+00  0.0000000000000E+00  0.0000000000000E+00  0.0000000000000E+00 
 0.0000000000000E+00  0.0000000000000E+00  0.0000000000000E+00  0.0000000000000E+00  0.0000000000000E+00  0.0000000000000E+00  0.0000000000000E+00  0.0000000000000E+00  0.0000000000000E+00  0.0000000000000E+00 
ZONE T = "ANOD, 1.0000E-08", I = 10, SOLUTIONTIME = 1.000000E-08
ZONETYPE = ORDERED
DATAPACKING = BLOCK
STRANDID = 1
 0.0000000000000E+00  8.7488888888889E-05  1.7497777777778E-04  2.6246666666667E-04  3.4995555555556E-04  4.3744444444444E-04  5.2493333333333E-04  6.1242222222222E-04  6.9991111111111E-04  7.8740000000000E-04 
 1.1589917711368E-09  3.4769775212947E-09  5.7949719095512E-09  8.1129813663857E-09  1.0431012322564E-08  1.2749071208681E-08  1.5067164455650E-08  1.7385298494034E-08  1.9703479754752E-08  2.0863142023635E-08 
 9.1999999999930E-01  9.1999999999930E-01  9.1999999999930E-01  9.1999999999930E-01  9.1999999999930E-01  9.1999999999930E-01  9.1999999999930E-01  9.1999999999930E-01  9.1999999999930E-01  9.1999999999971E-01 
 4.0000000000348E-02  4.0000000000348E-02  4.0000000000348E-02  4.0000000000348E-02  4.0000000000348E-02  4.0000000000348E-02  4.0000000000348E-02  4.0000000000348E-02  4.0000000000348E-02  4.0000000000144E-02 
 4.0000000000348E-02  4.0000000000348E-02  4.0000000000348E-02  4.0000000000348E-02  4.0000000000348E-02  4.0000000000348E-02  4.0000000000348E-02  4.0000000000348E-02  4.0000000000348E-02  4.0000000000144E-02 
 2.9167371470152E-02  2.9167355743040E-02  2.9167308561693E-02  2.9167229925976E-02  2.9167119835699E-02  2.9166978290553E-02  2.9166805290179E-02  2.9166600834098E-02  2.9166364921751E-02  2.9166097552526E-02 
 0.0000000000000E+00 -4.7371275800854E-09 -8.9169665837093E-09 -1.2539514934106E-08 -1.5604769008499E-08 -1.8112723638030E-08 -2.0063372107802E-08 -2.1456706156803E-08 -2.2292715977987E-08 -2.2571390218192E-08 
-2.9167371470152E-02 -2.9167360480168E-02 -2.9167317478660E-02 -2.9167242465491E-02 -2.9167135440468E-02 -2.9166996403276E-02 -2.9166825353551E-02 -2.9166622290805E-02 -2.9166387214467E-02 -2.9166120123916E-02 
-4.0906712752893E-02 -4.0906712752892E-02 -4.0906712752893E-02 -4.0906712752893E-02 -4.0906712752887E-02 -4.0906712752893E-02 -4.0906712752893E-02 -4.0906712752887E-02 -4.0906712752887E-02 -4.0906712753018E-02 
 1.1739341282741E-02  1.1739352272724E-02  1.1739395274233E-02  1.1739470287402E-02  1.1739577312418E-02  1.1739716349616E-02  1.1739887399342E-02  1.1740090462082E-02  1.1740325538420E-02  1.1740592629102E-02 
 1.6690490558385E+00  3.3381012908743E+00  3.3381137304089E+00  3.3381354303262E+00  3.3381663906909E+00  3.3382066116068E+00  3.3382560931968E+00  3.3383148356225E+00  3.3383828390733E+00  1.6692300518789E+00 
 8.6491943130189E-09  2.5947590471990E-08  4.3246060428134E-08  6.0544634473459E-08  7.7843379269076E-08  9.5142320555976E-08  1.1244152537791E-07  1.2974103869678E-07  1.4704095961098E-07  1.4704095961098E-07 
 0.0000000000000E+00  3.3380824204008E+00  6.6761726879643E+00  1.0014280118953E+01  1.3352414067920E+01  1.6690583450532E+01  2.0028797219089E+01  2.3367066179756E+01  2.6705397274636E+01  3.0043809058606E+01 
 3.0043810256340E+01  2.6705719148168E+01  2.3367628823727E+01  2.0029521429537E+01  1.6691387704988E+01  1.3353218389388E+01  1.0015004221937E+01  6.6767359418616E+00  3.3384042883804E+00  0.0000000000000E+00 
 1.6690490558385E-08  3.3381012908743E-08  3.3381137304089E-08  3.3381354303262E-08  3.3381663906909E-08  3.3382066116068E-08  3.3382560931968E-08  3.3383148356225E-08  3.3383828390733E-08  1.6692300518789E-08 
 9.1448444543298E+04  1.8289688908659E+05  1.8289688908660E+05  1.8289688908660E+05  1.8289688908660E+05  1.8289688908659E+05  1.8289688908659E+05  1.8289688908660E+05  1.8289688908660E+05  9.1448444543298E+04 
 3.6579377817311E+05  7.3158755634621E+05  7.3158755634621E+05  7.3158755634621E+05  7.3158755634621E+05  7.3158755634621E+05  7.3158755634621E+05  7.3158755634621E+05  7.3158755634621E+05  3.6579377817311E+05 
 4.5724222271640E+05  9.1448444543281E+05  9.1448444543281E+05  9.1448444543281E+05  9.1448444543281E+05  9.1448444543281E+05  9.1448444543281E+05  9.1448444543281E+05  9.1448444543281E+05  4.5724222271640E+05 
 3.5000000000000E-01  3.5000000000000E-01  3.5000000000000E-01  3.5000000000000E-01  3.5000000000000E-01  3.5000000000000E-01  3.5000000000000E-01  3.5000000000000E-01  3.5000000000000E-01  3.5000000000000E-01 
 8.5301666666666E+00  1.7060333333333E+01  1.7060333333333E+01  1.7060333333333E+01  1.7060333333333E+01  1.7060333333333E+01  1.7060333333333E+01  1.7060333333333E+01  1.7060333333333E+01  8.5301666666666E+00 
 1.9566429602843E-01  1.9566448237868E-01  1.9566521152824E-01  1.9566648347978E-01  1.9566829823709E-01  1.9567065580627E-01  1.9567355619449E-01  1.9567699941126E-01  1.9568098546766E-01  1.9568551437591E-01 
 4.3744444444444E-05  8.7488888888889E-05  8.7488888888889E-05  8.7488888888889E-05  8.7488888888889E-05  8.7488888888889E-05  8.7488888888889E-05  8.7488888888889E-05  8.7488888888889E-05  4.3744444444444E-05 
 8.6666666666662E+01  8.6666666666662E+01  8.6666666666662E+01  8.6666666666662E+01  8.6666666666662E+01  8.6666666666662E+01  8.6666666666662E+01  8.6666666666662E+01  8.6666666666662E+01  8.6666666666662E+01 
 2.1666666666671E+01  2.1666666666671E+01  2.1666666666671E+01  2.1666666666671E+01  2.1666666666671E+01  2.1666666666671E+01  2.1666666666671E+01  2.1666666666671E+01  2.1666666666671E+01  2.1666666666671E+01 
 1.8363938187364E-11  2.8663993557960E-11  6.1478021667937E-11  1.1872011079985E-10  2.0039091349139E-10  3.0649131347183E-10  4.3702248573479E-10  5.9198593882532E-10  7.7138327599653E-10  8.6719061865872E-10 
 1.8363938187364E-03  2.8663993557960E-03  6.1478021667937E-03  1.1872011079985E-02  2.0039091349139E-02  3.0649131347183E-02  4.3702248573479E-02  5.9198593882532E-02  7.7138327599653E-02  8.6719061865872E-02 
 3.0002885207259E-04  1.5001450442848E-03  5.1005066818650E-03  1.1101149540926E-02  1.9502138812762E-02  3.0303562335910E-02  4.3505536603407E-02  5.9108210991481E-02  7.7111743875189E-02  8.6713744973314E-02 
 1.5363649666638E-03  1.3662543115112E-03  1.0472954849288E-03  7.7086153905889E-04  5.3695253637703E-04  3.4556901127322E-04  1.9671197007191E-04  9.0382891051109E-05  2.6583724464070E-05  5.3168925584793E-06 
 0.0000000000000E+00  0.0000000000000E+00  0.0000000000000E+00  0.0000000000000E+00  0.0000000000000E+00  0.0000000000000E+00  0.0000000000000E+00  0.0000000000000E+00  0.0000000000000E+00  0.0000000000000E+00 
 0.0000000000000E+00  0.0000000000000E+00  0.0000000000000E+00  0.0000000000000E+00  0.0000000000000E+00  0.0000000000000E+00  0.0000000000000E+00  0.0000000000000E+00  0.0000000000000E+00  0.0000000000000E+00 
 0.0000000000000E+00  0.0000000000000E+00  0.0000000000000E+00  0.0000000000000E+00  0.0000000000000E+00  0.0000000000000E+00  0.0000000000000E+00  0.0000000000000E+00  0.0000000000000E+00  0.0000000000000E+00 
ZONE T = "ANOD, 2.0000E-08", I = 10, SOLUTIONTIME = 2.000000E-08
ZONETYPE = ORDERED
DATAPACKING = BLOCK
STRANDID = 1
 0.0000000000000E+00  8.7488888888889E-05  1.7497777777778E-04  2.6246666666667E-04  3.4995555555556E-04  4.3744444444444E-04  5.2493333333333E-04  6.1242222222222E-04  6.9991111111111E-04  7.8740000000000E-04 
 1.1589975178088E-09  3.4769947610904E-09  5.7950006425037E-09  8.1130215925445E-09  1.0431064041756E-08  1.2749134420752E-08  1.5066512744778E-08  1.7383931860100E-08  1.9701398197660E-08  2.0861066212436E-08 
 9.1999999999861E-01  9.1999999999861E-01  9.1999999999861E-01  9.1999999999861E-01  9.1999999999861E-01  9.1999999999861E-01  9.1999999999861E-01  9.1999999999861E-01  9.1999999999861E-01  9.1999999999942E-01 
 4.0000000000696E-02  4.0000000000696E-02  4.0000000000696E-02  4.0000000000696E-02  4.0000000000696E-02  4.0000000000696E-02  4.0000000000696E-02  4.0000000000696E-02  4.0000000000696E-02  4.0000000000288E-02 
 4.0000000000696E-02  4.0000000000696E-02  4.0000000000696E-02  4.0000000000696E-02  4.0000000000696E-02  4.0000000000696E-02  4.0000000000696E-02  4.0000000000696E-02  4.0000000000696E-02  4.0000000000288E-02 
 2.9167373665565E-02  2.9167357938380E-02  2.9167310756793E-02  2.9167232120688E-02  2.9167122029861E-02  2.9166980484019E-02  2.9166807482784E-02  2.9166603025690E-02  2.9166367112182E-02  2.9166099741620E-02 
 0.0000000000000E+00 -4.7371510662850E-09 -8.9170107929400E-09 -1.2539577103191E-08 -1.5604846374249E-08 -1.8112813437298E-08 -2.0063471577477E-08 -2.1456812533862E-08 -2.2292826499437E-08 -2.2571502121063E-08 
-2.9167373665565E-02 -2.9167362675531E-02 -2.9167319673804E-02 -2.9167244660266E-02 -2.9167137634708E-02 -2.9166998596833E-02 -2.9166827546256E-02 -2.9166624482502E-02 -2.9166389405008E-02 -2.9166122313122E-02 
-4.0906712752394E-02 -4.0906712752394E-02 -4.0906712752394E-02 -4.0906712752394E-02 -4.0906712752394E-02 -4.0906712752394E-02 -4.0906712752394E-02 -4.0906712752394E-02 -4.0906712752394E-02 -4.0906712752657E-02 
 1.1739339086829E-02  1.1739350076864E-02  1.1739393078590E-02  1.1739468092128E-02  1.1739575117687E-02  1.1739714155561E-02  1.1739885206138E-02  1.1740088269892E-02  1.1740323347386E-02  1.1740590439535E-02 
 1.6690487382327E+00  3.3381006556773E+00  3.3381130952749E+00  3.3381347952989E+00  3.3381657558171E+00  3.3382059769311E+00  3.3382554587670E+00  3.3383142014824E+00  3.3383822052671E+00  1.6692297351833E+00 
 8.6492352080660E-09  2.5947722098196E-08  4.3246273451378E-08  6.0544937254416E-08  7.7843761509200E-08  9.5142794177545E-08  1.1244208328079E-07  1.2974167679913E-07  1.4704176694566E-07  1.4704176694566E-07 
 0.0000000000000E+00  3.3380990661720E+00  6.6762059415825E+00  1.0014329886712E+01  1.3352480162409E+01  1.6690666028786E+01  2.0028896746508E+01  2.3367181576791E+01  2.6705529780227E+01  3.0043950618050E+01 
 3.0043950617932E+01  2.6705851551860E+01  2.3367744676384E+01  2.0029620731097E+01  1.6691470455539E+01  1.3353284589165E+01  1.0015053871316E+01  6.6767690411916E+00  3.3384208378168E+00  0.0000000000000E+00 
 3.3380977940712E-08  6.6762019465516E-08  6.6762268256838E-08  6.6762702256250E-08  6.6763321465080E-08  6.6764125885379E-08  6.6765115519637E-08  6.6766290371049E-08  6.6767650443404E-08  3.3384597870622E-08 
 9.1448444543314E+04  1.8289688908663E+05  1.8289688908663E+05  1.8289688908663E+05  1.8289688908663E+05  1.8289688908663E+05  1.8289688908663E+05  1.8289688908663E+05  1.8289688908663E+05  9.1448444543314E+04 
 3.6579377817309E+05  7.3158755634618E+05  7.3158755634618E+05  7.3158755634618E+05  7.3158755634618E+05  7.3158755634618E+05  7.3158755634618E+05  7.3158755634618E+05  7.3158755634618E+05  3.6579377817309E+05 
 4.5724222271640E+05  9.1448444543281E+05  9.1448444543281E+05  9.1448444543281E+05  9.1448444543281E+05  9.1448444543281E+05  9.1448444543281E+05  9.1448444543281E+05  9.1448444543281E+05  4.5724222271640E+05 
 3.5000000000000E-01  3.5000000000000E-01  3.5000000000000E-01  3.5000000000000E-01  3.5000000000000E-01  3.5000000000000E-01  3.5000000000000E-01  3.5000000000000E-01  3.5000000000000E-01  3.5000000000000E-01 
 8.5301666666666E+00  1.7060333333333E+01  1.7060333333333E+01  1.7060333333333E+01  1.7060333333333E+01  1.7060333333333E+01  1.7060333333333E+01  1.7060333333333E+01  1.7060333333333E+01  8.5301666666666E+00 
 1.9566425879518E-01  1.9566444514628E-01  1.9566517429954E-01  1.9566644625733E-01  1.9566826102365E-01  1.9567061860443E-01  1.9567351900707E-01  1.9567696224082E-01  1.9568094831678E-01  1.9568547724937E-01 
 4.3744444444444E-05  8.7488888888889E-05  8.7488888888889E-05  8.7488888888889E-05  8.7488888888889E-05  8.7488888888889E-05  8.7488888888889E-05  8.7488888888889E-05  8.7488888888889E-05  4.3744444444444E-05 
 8.6666666666658E+01  8.6666666666658E+01  8.6666666666658E+01  8.6666666666658E+01  8.6666666666658E+01  8.6666666666658E+01  8.6666666666658E+01  8.6666666666658E+01  8.6666666666658E+01  8.6666666666658E+01 
 2.1666666666674E+01  2.1666666666674E+01  2.1666666666674E+01  2.1666666666674E+01  2.1666666666674E+01  2.1666666666674E+01  2.1666666666674E+01  2.1666666666674E+01  2.1666666666674E+01  2.1666666666674E+01 
 3.6728057089868E-11  5.7328273755014E-11  1.2295665363644E-10  2.3744140273496E-10  4.0078380879792E-10  6.1298566181949E-10  8.7404931416409E-10  1.1839777228617E-09  1.5427742107447E-09  1.7343899094337E-09 
 1.8364118902504E-03  2.8664280197053E-03  6.1478631968506E-03  1.1872129193511E-02  2.0039289530653E-02  3.0649434834766E-02  4.3702682842930E-02  5.9199178403640E-02  7.7139093474814E-02  8.6719929077502E-02 
 6.0006054133702E-04  3.0003052049977E-03  1.0201064009137E-02  2.2202409551861E-02  3.9004470482943E-02  6.0607424733011E-02  8.7011505525858E-02  1.1821700560793E-01  1.5422425336197E-01  1.7342835710554E-01 
 3.0727451676498E-03  2.7325221705037E-03  2.0946013545069E-03  1.5417307216347E-03  1.0739103968490E-03  6.9114144893773E-04  3.9342589055027E-04  1.8076667823694E-04  5.3167712497067E-05  1.0633837830002E-05 
 0.0000000000000E+00  0.0000000000000E+00  0.0000000000000E+00  0.0000000000000E+00  0.0000000000000E+00  0.0000000000000E+00  0.0000000000000E+00  0.0000000000000E+00  0.0000000000000E+00  0.0000000000000E+00 
 0.0000000000000E+00  0.0000000000000E+00  0.0000000000000E+00  0.0000000000000E+00  0.0000000000000E+00  0.0000000000000E+00  0.0000000000000E+00  0.0000000000000E+00  0.0000000000000E+00  0.0000000000000E+00 
 0.0000000000000E+00  0.0000000000000E+00  0.0000000000000E+00  0.0000000000000E+00  0.0000000000000E+00  0.0000000000000E+00  0.0000000000000E+00  0.0000000000000E+00  0.0000000000000E+00  0.0000000000000E+00 
ZONE T = "ANOD, 3.0000E-08", I = 10, SOLUTIONTIME = 3.000000E-08
ZONETYPE = ORDERED
DATAPACKING = BLOCK
STRANDID = 1
 0.0000000000000E+00  8.7488888888889E-05  1.7497777777778E-04  2.6246666666667E-04  3.4995555555556E-04  4.3744444444444E-04  5.2493333333333E-04  6.1242222222222E-04  6.9991111111111E-04  7.8740000000000E-04 
 1.1589975177886E-09  3.4769947610295E-09  5.7950006424023E-09  8.1130215924026E-09  1.0431064041575E-08  1.2749134420530E-08  1.5067965575426E-08  1.7386837521620E-08  1.9705756690052E-08  2.0864335081635E-08 
 9.1999999999791E-01  9.1999999999791E-01  9.1999999999791E-01  9.1999999999791E-01  9.1999999999791E-01  9.1999999999791E-01  9.1999999999791E-01  9.1999999999791E-01  9.1999999999791E-01  9.1999999999914E-01 
 4.0000000001045E-02  4.0000000001045E-02  4.0000000001045E-02  4.0000000001045E-02  4.0000000001045E-02  4.0000000001045E-02  4.0000000001045E-02  4.0000000001045E-02  4.0000000001045E-02  4.0000000000432E-02 
 4.0000000001045E-02  4.0000000001045E-02  4.0000000001045E-02  4.0000000001045E-02  4.0000000001045E-02  4.0000000001045E-02  4.0000000001045E-02  4.0000000001045E-02  4.0000000001045E-02  4.0000000000432E-02 
 2.9167373665351E-02  2.9167357938165E-02  2.9167310756579E-02  2.9167232120474E-02  2.9167122029647E-02  2.9166980483805E-02  2.9166807482570E-02  2.9166603025475E-02  2.9166367111967E-02  2.9166099741405E-02 
 0.0000000000000E+00 -4.7371510662055E-09 -8.9170107927907E-09 -1.2539577102982E-08 -1.5604846373989E-08 -1.8112813436997E-08 -2.0063471577146E-08 -2.1456812533509E-08 -2.2292826499072E-08 -2.2571502120696E-08 
-2.9167373665351E-02 -2.9167362675316E-02 -2.9167319673589E-02 -2.9167244660051E-02 -2.9167137634493E-02 -2.9166998596618E-02 -2.9166827546041E-02 -2.9166624482288E-02 -2.9166389404794E-02 -2.9166122312907E-02 
-4.0906712751889E-02 -4.0906712751889E-02 -4.0906712751889E-02 -4.0906712751889E-02 -4.0906712751892E-02 -4.0906712751889E-02 -4.0906712751889E-02 -4.0906712751892E-02 -4.0906712751892E-02 -4.0906712752285E-02 
 1.1739339086539E-02  1.1739350076573E-02  1.1739393078300E-02  1.1739468091838E-02  1.1739575117399E-02  1.1739714155271E-02  1.1739885205848E-02  1.1740088269604E-02  1.1740323347098E-02  1.1740590439378E-02 
 1.6690487382035E+00  3.3381006556187E+00  3.3381130952166E+00  3.3381347952404E+00  3.3381657557601E+00  3.3382059768727E+00  3.3382554587085E+00  3.3383142014256E+00  3.3383822052102E+00  1.6692297351695E+00 
 8.6492352058863E-09  2.5947722098768E-08  4.3246273451755E-08  6.0544937246956E-08  7.7843761507969E-08  9.5142794178034E-08  1.1244208327570E-07  1.2974167679419E-07  1.4704183906225E-07  1.4704183906225E-07 
 0.0000000000000E+00  3.3380990660169E+00  6.6762059414566E+00  1.0014329886615E+01  1.3352480162157E+01  1.6690666028564E+01  2.0028896746130E+01  2.3367181576258E+01  2.6705529779686E+01  3.0043950617475E+01 
 3.0043950617426E+01  2.6705851551413E+01  2.3367744675995E+01  2.0029620730767E+01  1.6691470455267E+01  1.3353284588950E+01  1.0015053871160E+01  6.6767690410926E+00  3.3384208377747E+00  0.0000000000000E+00 
 5.0071465322747E-08  1.0014302602170E-07  1.0014339920900E-07  1.0014405020865E-07  1.0014497902268E-07  1.0014618565411E-07  1.0014767010672E-07  1.0014943238530E-07  1.0015147249551E-07  5.0076895222317E-08 
 9.1448444543331E+04  1.8289688908666E+05  1.8289688908666E+05  1.8289688908666E+05  1.8289688908666E+05  1.8289688908666E+05  1.8289688908666E+05  1.8289688908666E+05  1.8289688908666E+05  9.1448444543331E+04 
 3.6579377817307E+05  7.3158755634615E+05  7.3158755634615E+05  7.3158755634615E+05  7.3158755634615E+05  7.3158755634615E+05  7.3158755634615E+05  7.3158755634615E+05  7.3158755634615E+05  3.6579377817307E+05 
 4.5724222271640E+05  9.1448444543281E+05  9.1448444543281E+05  9.1448444543281E+05  9.1448444543281E+05  9.1448444543281E+05  9.1448444543281E+05  9.1448444543281E+05  9.1448444543281E+05  4.5724222271640E+05 
 3.5000000000000E-01  3.5000000000000E-01  3.5000000000000E-01  3.5000000000000E-01  3.5000000000000E-01  3.5000000000000E-01  3.5000000000000E-01  3.5000000000000E-01  3.5000000000000E-01  3.5000000000000E-01 
 8.5301666666666E+00  1.7060333333333E+01  1.7060333333333E+01  1.7060333333333E+01  1.7060333333333E+01  1.7060333333333E+01  1.7060333333333E+01  1.7060333333333E+01  1.7060333333333E+01  8.5301666666666E+00 
 1.9566425879176E-01  1.9566444514285E-01  1.9566517429612E-01  1.9566644625391E-01  1.9566826102031E-01  1.9567061860101E-01  1.9567351900365E-01  1.9567696223749E-01  1.9568094831345E-01  1.9568547724775E-01 
 4.3744444444444E-05  8.7488888888889E-05  8.7488888888889E-05  8.7488888888889E-05  8.7488888888889E-05  8.7488888888889E-05  8.7488888888889E-05  8.7488888888889E-05  8.7488888888889E-05  4.3744444444444E-05 
 8.6666666666654E+01  8.6666666666654E+01  8.6666666666654E+01  8.6666666666654E+01  8.6666666666654E+01  8.6666666666654E+01  8.6666666666654E+01  8.6666666666654E+01  8.6666666666654E+01  8.6666666666654E+01 
 2.1666666666678E+01  2.1666666666678E+01  2.1666666666678E+01  2.1666666666678E+01  2.1666666666678E+01  2.1666666666678E+01  2.1666666666678E+01  2.1666666666678E+01  2.1666666666678E+01  2.1666666666678E+01 
 5.5092175991882E-11  8.5992553949754E-11  1.8443528560306E-10  3.5616269466615E-10  6.0117670409538E-10  9.1948001015643E-10  1.3110761425726E-09  1.7759695068662E-09  2.3141651454561E-09  2.6015892001691E-09 
 1.8364118902014E-03  2.8664280194741E-03  6.1478631966616E-03  1.1872129193119E-02  2.0039289529746E-02  3.0649434833695E-02  4.3702682840854E-02  5.9199178400445E-02  7.7139093471138E-02  8.6719929073535E-02 
 9.0009223060406E-04  4.5004653655250E-03  1.5301621336256E-02  3.3303669562430E-02  5.8506802152234E-02  9.0911287129052E-02  1.3051747444624E-01  1.7732580022120E-01  2.3133676284508E-01  2.6014296923381E-01 
 4.6091253685841E-03  4.0987900294504E-03  3.1419072240501E-03  2.3125999041850E-03  1.6108682573033E-03  1.0367138865911E-03  5.9013981102246E-04  2.7115046542007E-04  7.9751700529345E-05  1.5950783101438E-05 
 0.0000000000000E+00  0.0000000000000E+00  0.0000000000000E+00  0.0000000000000E+00  0.0000000000000E+00  0.0000000000000E+00  0.0000000000000E+00  0.0000000000000E+00  0.0000000000000E+00  0.0000000000000E+00 
 0.0000000000000E+00  0.0000000000000E+00  0.0000000000000E+00  0.0000000000000E+00  0.0000000000000E+00  0.0000000000000E+00  0.0000000000000E+00  0.0000000000000E+00  0.0000000000000E+00  0.0000000000000E+00 
 0.0000000000000E+00  0.0000000000000E+00  0.0000000000000E+00  0.0000000000000E+00  0.0000000000000E+00  0.0000000000000E+00  0.0000000000000E+00  0.0000000000000E+00  0.0000000000000E+00  0.0000000000000E+00 
ZONE T = "ANOD, 4.0000E-08", I = 10, SOLUTIONTIME = 4.000000E-08
ZONETYPE = ORDERED
DATAPACKING = BLOCK
STRANDID = 1
 0.0000000000000E+00  8.7488888888889E-05  1.7497777777778E-04  2.6246666666667E-04  3.4995555555556E-04  4.3744444444444E-04  5.2493333333333E-04  6.1242222222222E-04  6.9991111111111E-04  7.8740000000000E-04 
 1.1593607254964E-09  3.4777211764252E-09  5.7964534732137E-09  8.1152008386297E-09  1.0432153664578E-08  1.2749497628038E-08  1.5065786328800E-08  1.7383931859498E-08  1.9702124612434E-08  2.0861247815599E-08 
 9.1999999999721E-01  9.1999999999721E-01  9.1999999999721E-01  9.1999999999721E-01  9.1999999999721E-01  9.1999999999721E-01  9.1999999999721E-01  9.1999999999721E-01  9.1999999999721E-01  9.1999999999885E-01 
 4.0000000001393E-02  4.0000000001393E-02  4.0000000001393E-02  4.0000000001393E-02  4.0000000001393E-02  4.0000000001393E-02  4.0000000001393E-02  4.0000000001393E-02  4.0000000001393E-02  4.0000000000576E-02 
 4.0000000001393E-02  4.0000000001393E-02  4.0000000001393E-02  4.0000000001393E-02  4.0000000001393E-02  4.0000000001393E-02  4.0000000001393E-02  4.0000000001393E-02  4.0000000001393E-02  4.0000000000576E-02 
 2.9167373665138E-02  2.9167357937953E-02  2.9167310756366E-02  2.9167232120262E-02  2.9167122029434E-02  2.9166980483593E-02  2.9166807482358E-02  2.9166603025263E-02  2.9166367111755E-02  2.9166099741193E-02 
 0.0000000000000E+00 -4.7371510661261E-09 -8.9170107926415E-09 -1.2539577102772E-08 -1.5604846373729E-08 -1.8112813436696E-08 -2.0063471576813E-08 -2.1456812533155E-08 -2.2292826498706E-08 -2.2571502120327E-08 
-2.9167373665138E-02 -2.9167362675104E-02 -2.9167319673377E-02 -2.9167244659839E-02 -2.9167137634281E-02 -2.9166998596406E-02 -2.9166827545829E-02 -2.9166624482075E-02 -2.9166389404581E-02 -2.9166122312695E-02 
-4.0906712751391E-02 -4.0906712751391E-02 -4.0906712751391E-02 -4.0906712751391E-02 -4.0906712751391E-02 -4.0906712751391E-02 -4.0906712751391E-02 -4.0906712751391E-02 -4.0906712751391E-02 -4.0906712751916E-02 
 1.1739339086253E-02  1.1739350076288E-02  1.1739393078014E-02  1.1739468091553E-02  1.1739575117111E-02  1.1739714154985E-02  1.1739885205562E-02  1.1740088269316E-02  1.1740323346810E-02  1.1740590439221E-02 
 1.6690487381748E+00  3.3381006555613E+00  3.3381130951592E+00  3.3381347951830E+00  3.3381657557021E+00  3.3382059768153E+00  3.3382554586511E+00  3.3383142013675E+00  3.3383822051522E+00  1.6692297351552E+00 