TITLE = "Solution on Domain BulkDomain1D_0"
VARIABLES = "x [m]"  
"Vel_axial" 
"MF_sp(ECDMC)" 
"MF_sp(Li+)" 
"MF_sp(PF6-)" 
"Volt(Electroly)" 
"Volt(AnodeVolt)" 
"Potential Drop Electrode-Electrolyte [V]" 
"Surf_0 Equilibrium Potential Drop Electrode-Electrolyte [V]" 
"Overpotential_0 [V]" 
"Current Source [A/m^2]" 
"Li+ flux [kmol/m^2/s]" 
"Electrolyte Current [A/m^2]" 
"Electrode Current [A/m^2]" 
"CV Capacity discharged [A-s/m^2]" 
"Depth of discharge in CV [A-s/m^2]" 
"CV Capacity remaining [A-s/m^2]" 
"Initial CV capacity [A-s/m^2]" 
"Porosity []" 
"Surface Area [m2/m2] (area per area)" 
"Specific current (per particle area) [A/m^2]" 
"Control volume thickness [m]" 
"MoleDens Li_C6-bulk [kmol/m^3]" 
"MoleDens V_C6-bulk [kmol/m^3]" 
"qHeat_accum [J/m3]" 
"qHeat_step [W/m3]" 
"Joule_Lyte [W/m3]" 
"Joule_Solid [W/m3]" 
"electrodHeat [W/m3]" 
"OverpotHeat [W/m3]" 
"deltaSHeat [W/m3]" 

ZONE T = "ANOD, 0.0000E+00", I = 10, SOLUTIONTIME = 0.000000E+00
ZONETYPE = ORDERED
DATAPACKING = BLOCK
STRANDID = 1
 0.0000000000000E+00  8.7488888888889E-05  1.7497777777778E-04  2.6246666666667E-04  3.4995555555556E-04  4.3744444444444E-04  5.2493333333333E-04  6.1242222222222E-04  6.9991111111111E-04  7.8740000000000E-04 
 0.0000000000000E+00  0.0000000000000E+00  0.0000000000000E+00  0.0000000000000E+00  0.0000000000000E+00  0.0000000000000E+00  0.0000000000000E+00  0.0000000000000E+00  0.0000000000000E+00  0.0000000000000E+00 
 9.2000000000000E-01  9.2000000000000E-01  9.2000000000000E-01  9.2000000000000E-01  9.2000000000000E-01  9.2000000000000E-01  9.2000000000000E-01  9.2000000000000E-01  9.2000000000000E-01  9.2000000000000E-01 
 4.0000000000000E-02  4.0000000000000E-02  4.0000000000000E-02  4.0000000000000E-02  4.0000000000000E-02  4.0000000000000E-02  4.0000000000000E-02  4.0000000000000E-02  4.0000000000000E-02  4.0000000000000E-02 
 4.0000000000000E-02  4.0000000000000E-02  4.0000000000000E-02  4.0000000000000E-02  4.0000000000000E-02  4.0000000000000E-02  4.0000000000000E-02  4.0000000000000E-02  4.0000000000000E-02  4.0000000000000E-02 
-7.0000000000000E-02 -7.0000000000000E-02 -7.0000000000000E-02 -7.0000000000000E-02 -7.0000000000000E-02 -7.0000000000000E-02 -7.0000000000000E-02 -7.0000000000000E-02 -7.0000000000000E-02 -7.0000000000000E-02 
 0.0000000000000E+00  0.0000000000000E+00  0.0000000000000E+00  0.0000000000000E+00  0.0000000000000E+00  0.0000000000000E+00  0.0000000000000E+00  0.0000000000000E+00  0.0000000000000E+00  0.0000000000000E+00 
 7.0000000000000E-02  7.0000000000000E-02  7.0000000000000E-02  7.0000000000000E-02  7.0000000000000E-02  7.0000000000000E-02  7.0000000000000E-02  7.0000000000000E-02  7.0000000000000E-02  7.0000000000000E-02 
-4.0906712753392E-02 -4.0906712753392E-02 -4.0906712753392E-02 -4.0906712753392E-02 -4.0906712753392E-02 -4.0906712753392E-02 -4.0906712753392E-02 -4.0906712753392E-02 -4.0906712753392E-02 -4.0906712753392E-02 
 1.1090671275339E-01  1.1090671275339E-01  1.1090671275339E-01  1.1090671275339E-01  1.1090671275339E-01  1.1090671275339E-01  1.1090671275339E-01  1.1090671275339E-01  1.1090671275339E-01  1.1090671275339E-01 
 3.0930240924008E+01  6.1860481848016E+01  6.1860481848016E+01  6.1860481848016E+01  6.1860481848016E+01  6.1860481848016E+01  6.1860481848016E+01  6.1860481848016E+01  6.1860481848016E+01  3.0930240924008E+01 
-0.0000000000000E+00 -0.0000000000000E+00 -0.0000000000000E+00 -0.0000000000000E+00 -0.0000000000000E+00 -0.0000000000000E+00 -0.0000000000000E+00 -0.0000000000000E+00 -0.0000000000000E+00 -0.0000000000000E+00 
 0.0000000000000E+00  0.0000000000000E+00  0.0000000000000E+00  0.0000000000000E+00  0.0000000000000E+00  0.0000000000000E+00  0.0000000000000E+00  0.0000000000000E+00  0.0000000000000E+00  3.0930240924008E+01 
 3.0930240924008E+01 -0.0000000000000E+00 -0.0000000000000E+00 -0.0000000000000E+00 -0.0000000000000E+00 -0.0000000000000E+00 -0.0000000000000E+00 -0.0000000000000E+00 -0.0000000000000E+00  0.0000000000000E+00 
 0.0000000000000E+00  0.0000000000000E+00  0.0000000000000E+00  0.0000000000000E+00  0.0000000000000E+00  0.0000000000000E+00  0.0000000000000E+00  0.0000000000000E+00  0.0000000000000E+00  0.0000000000000E+00 
 9.1448444543281E+04  1.8289688908656E+05  1.8289688908656E+05  1.8289688908656E+05  1.8289688908656E+05  1.8289688908656E+05  1.8289688908656E+05  1.8289688908656E+05  1.8289688908656E+05  9.1448444543281E+04 
 3.6579377817312E+05  7.3158755634625E+05  7.3158755634625E+05  7.3158755634625E+05  7.3158755634625E+05  7.3158755634625E+05  7.3158755634625E+05  7.3158755634625E+05  7.3158755634625E+05  3.6579377817312E+05 
 4.5724222271640E+05  9.1448444543281E+05  9.1448444543281E+05  9.1448444543281E+05  9.1448444543281E+05  9.1448444543281E+05  9.1448444543281E+05  9.1448444543281E+05  9.1448444543281E+05  4.5724222271640E+05 
 3.5000000000000E-01  3.5000000000000E-01  3.5000000000000E-01  3.5000000000000E-01  3.5000000000000E-01  3.5000000000000E-01  3.5000000000000E-01  3.5000000000000E-01  3.5000000000000E-01  3.5000000000000E-01 
 8.5301666666666E+00  1.7060333333333E+01  1.7060333333333E+01  1.7060333333333E+01  1.7060333333333E+01  1.7060333333333E+01  1.7060333333333E+01  1.7060333333333E+01  1.7060333333333E+01  8.5301666666666E+00 
 3.6259831879809E+00  3.6259831879809E+00  3.6259831879809E+00  3.6259831879809E+00  3.6259831879809E+00  3.6259831879809E+00  3.6259831879809E+00  3.6259831879809E+00  3.6259831879809E+00  3.6259831879809E+00 
 4.3744444444444E-05  8.7488888888889E-05  8.7488888888889E-05  8.7488888888889E-05  8.7488888888889E-05  8.7488888888889E-05  8.7488888888889E-05  8.7488888888889E-05  8.7488888888889E-05  4.3744444444444E-05 
 8.6666666666666E+01  8.6666666666666E+01  8.6666666666666E+01  8.6666666666666E+01  8.6666666666666E+01  8.6666666666666E+01  8.6666666666666E+01  8.6666666666666E+01  8.6666666666666E+01  8.6666666666666E+01 
 2.1666666666667E+01  2.1666666666667E+01  2.1666666666667E+01  2.1666666666667E+01  2.1666666666667E+01  2.1666666666667E+01  2.1666666666667E+01  2.1666666666667E+01  2.1666666666667E+01  2.1666666666667E+01 
 0.0000000000000E+00  0.0000000000000E+00  0.0000000000000E+00  0.0000000000000E+00  0.0000000000000E+00  0.0000000000000E+00  0.0000000000000E+00  0.0000000000000E+00  0.0000000000000E+00  0.0000000000000E+00 
 0.0000000000000E+00  0.0000000000000E+00  0.0000000000000E+00  0.0000000000000E+00  0.0000000000000E+00  0.0000000000000E+00  0.0000000000000E+00  0.0000000000000E+00  0.0000000000000E+00  0.0000000000000E+00 
 0.0000000000000E+00  0.0000000000000E+00  0.0000000000000E+00  0.0000000000000E+00  0.0000000000000E+00  0.0000000000000E+00  0.0000000000000E+00  0.0000000000000E+00  0.0000000000000E+00  0.0000000000000E+00 
 0.0000000000000E+00  0.0000000000000E+00  0.0000000000000E+00  0.0000000000000E+00  0.0000000000000E+00  0.0000000000000E+00  0.0000000000000E+00  0.0000000000000E+00  0.0000000000000E+00  0.0000000000000E+00 
 0.0000000000000E+00  0.0000000000000E+00  0.0000000000000E+00  0.0000000000000E+00  0.0000000000000E+00  0.0000000000000E+00  0.0000000000000E+00  0.0000000000000E+00  0.0000000000000E+00  0.0000000000000E+00 
 0.0000000000000E+00  0.0000000000000E+00  0.0000000000000E+00  0.0000000000000E+00  0.0000000000000E+00  0.0000000000000E+00  0.0000000000000E+00  0.0000000000000E+00  0.0000000000000E+00  0.0000000000000E+00 
 0.0000000000000E+00  0.0000000000000E+00  0.0000000000000E+00  0.0000000000000E+00  0.0000000000000E+00  0.0000000000000E+00  0.0000000000000E+00  0.0000000000000E+00  0.0000000000000E+00  0.0000000000000E+00 
ZONE T = "ANOD, 1.0000E-08", I = 10, SOLUTIONTIME = 1.000000E-08
ZONETYPE = ORDERED
DATAPACKING = BLOCK
STRANDID = 1
 0.0000000000000E+00  8.7488888888889E-05  1.7497777777778E-04  2.6246666666667E-04  3.4995555555556E-04  4.3744444444444E-04  5.2493333333333E-04  6.1242222222222E-04  6.9991111111111E-04  7.8740000000000E-04 
 1.1588159139110E-09  3.4760867416687E-09  5.7937294152862E-09  8.1113871575312E-09  1.0428703191220E-08  1.2746410362419E-08  1.5064151894105E-08  1.7381571009359E-08  1.9699037346853E-08  2.0858160549992E-08 
 9.1999999999930E-01  9.1999999999930E-01  9.1999999999930E-01  9.1999999999930E-01  9.1999999999930E-01  9.1999999999930E-01  9.1999999999930E-01  9.1999999999930E-01  9.1999999999930E-01  9.1999999999971E-01 
 4.0000000000348E-02  4.0000000000348E-02  4.0000000000348E-02  4.0000000000348E-02  4.0000000000348E-02  4.0000000000348E-02  4.0000000000348E-02  4.0000000000348E-02  4.0000000000348E-02  4.0000000000144E-02 
 4.0000000000348E-02  4.0000000000348E-02  4.0000000000348E-02  4.0000000000348E-02  4.0000000000348E-02  4.0000000000348E-02  4.0000000000348E-02  4.0000000000348E-02  4.0000000000348E-02  4.0000000000144E-02 
 2.9167373666318E-02  2.9167357939133E-02  2.9167310757546E-02  2.9167232121441E-02  2.9167122030614E-02  2.9166980484772E-02  2.9166807483537E-02  2.9166603026443E-02  2.9166367112935E-02  2.9166099742373E-02 
 0.0000000000000E+00 -4.7371510661438E-09 -8.9170107926739E-09 -1.2539577102817E-08 -1.5604846373782E-08 -1.8112813436755E-08 -2.0063471576875E-08 -2.1456812533217E-08 -2.2292826498765E-08 -2.2571502120381E-08 
-2.9167373666318E-02 -2.9167362676284E-02 -2.9167319674557E-02 -2.9167244661019E-02 -2.9167137635461E-02 -2.9166998597586E-02 -2.9166827547009E-02 -2.9166624483255E-02 -2.9166389405761E-02 -2.9166122313875E-02 
-4.0906712752892E-02 -4.0906712752896E-02 -4.0906712752892E-02 -4.0906712752892E-02 -4.0906712752892E-02 -4.0906712752896E-02 -4.0906712752896E-02 -4.0906712752892E-02 -4.0906712752892E-02 -4.0906712753023E-02 
 1.1739339086574E-02  1.1739350076612E-02  1.1739393078335E-02  1.1739468091873E-02  1.1739575117431E-02  1.1739714155310E-02  1.1739885205887E-02  1.1740088269636E-02  1.1740323347130E-02  1.1740590439148E-02 
 1.6690487381836E+00  3.3381006555789E+00  3.3381130951769E+00  3.3381347952008E+00  3.3381657557198E+00  3.3382059768327E+00  3.3382554586684E+00  3.3383142013852E+00  3.3383822051699E+00  1.6692297351200E+00 
 8.6492352060827E-09  2.5947722097970E-08  4.3246273446839E-08  6.0544937256144E-08  7.7843761502104E-08  9.5142794179319E-08  1.1244208328016E-07  1.2974167679193E-07  1.4704169482977E-07  1.4704169482977E-07 
 0.0000000000000E+00  3.3380990659588E+00  6.6762059413403E+00  1.0014329886441E+01  1.3352480162109E+01  1.6690666028273E+01  2.0028896745965E+01  2.3367181576035E+01  2.6705529779294E+01  3.0043950617076E+01 
 3.0043950617037E+01  2.6705851551063E+01  2.3367744675685E+01  2.0029620730497E+01  1.6691470455036E+01  1.3353284588760E+01  1.0015053871010E+01  6.6767690409827E+00  3.3384208377050E+00  0.0000000000000E+00 
 1.6690487381836E-08  3.3381006555789E-08  3.3381130951769E-08  3.3381347952008E-08  3.3381657557198E-08  3.3382059768327E-08  3.3382554586684E-08  3.3383142013852E-08  3.3383822051699E-08  1.6692297351200E-08 
 9.1448444543298E+04  1.8289688908659E+05  1.8289688908660E+05  1.8289688908660E+05  1.8289688908660E+05  1.8289688908660E+05  1.8289688908660E+05  1.8289688908660E+05  1.8289688908660E+05  9.1448444543298E+04 
 3.6579377817311E+05  7.3158755634621E+05  7.3158755634621E+05  7.3158755634621E+05  7.3158755634621E+05  7.3158755634621E+05  7.3158755634621E+05  7.3158755634621E+05  7.3158755634621E+05  3.6579377817311E+05 
 4.5724222271640E+05  9.1448444543281E+05  9.1448444543281E+05  9.1448444543281E+05  9.1448444543281E+05  9.1448444543281E+05  9.1448444543281E+05  9.1448444543281E+05  9.1448444543281E+05  4.5724222271640E+05 
 3.5000000000000E-01  3.5000000000000E-01  3.5000000000000E-01  3.5000000000000E-01  3.5000000000000E-01  3.5000000000000E-01  3.5000000000000E-01  3.5000000000000E-01  3.5000000000000E-01  3.5000000000000E-01 
 8.5301666666666E+00  1.7060333333333E+01  1.7060333333333E+01  1.7060333333333E+01  1.7060333333333E+01  1.7060333333333E+01  1.7060333333333E+01  1.7060333333333E+01  1.7060333333333E+01  8.5301666666666E+00 
 1.9566425878943E-01  1.9566444514052E-01  1.9566517429380E-01  1.9566644625158E-01  1.9566826101794E-01  1.9567061859866E-01  1.9567351900129E-01  1.9567696223512E-01  1.9568094831109E-01  1.9568547724195E-01 
 4.3744444444444E-05  8.7488888888889E-05  8.7488888888889E-05  8.7488888888889E-05  8.7488888888889E-05  8.7488888888889E-05  8.7488888888889E-05  8.7488888888889E-05  8.7488888888889E-05  4.3744444444444E-05 
 8.6666666666662E+01  8.6666666666662E+01  8.6666666666662E+01  8.6666666666662E+01  8.6666666666662E+01  8.6666666666662E+01  8.6666666666662E+01  8.6666666666662E+01  8.6666666666662E+01  8.6666666666662E+01 
 2.1666666666671E+01  2.1666666666671E+01  2.1666666666671E+01  2.1666666666671E+01  2.1666666666671E+01  2.1666666666671E+01  2.1666666666671E+01  2.1666666666671E+01  2.1666666666671E+01  2.1666666666671E+01 
 1.8364118900238E-11  2.8664280195445E-11  6.1478631964126E-11  1.1872129193037E-10  2.0039289529855E-10  3.0649434833157E-10  4.3702682840951E-10  5.9199178400273E-10  7.7139093470015E-10  8.6719929072467E-10 
 1.8364118900238E-03  2.8664280195445E-03  6.1478631964126E-03  1.1872129193037E-02  2.0039289529855E-02  3.0649434833157E-02  4.3702682840951E-02  5.9199178400273E-02  7.7139093470015E-02  8.6719929072467E-02 
 3.0003168912944E-04  1.5001601606336E-03  5.1005573268971E-03  1.1101260010508E-02  1.9502331669415E-02  3.0303862395514E-02  4.3505968920484E-02  5.9108794613093E-02  7.7112509481984E-02  8.6714612127196E-02 
 1.5363802008943E-03  1.3662678589109E-03  1.0473058695155E-03  7.7086918252955E-04  5.3695786043956E-04  3.4557243764355E-04  1.9671392046632E-04  9.0383787180198E-05  2.6583988031263E-05  5.3169452711200E-06 
 0.0000000000000E+00  0.0000000000000E+00  0.0000000000000E+00  0.0000000000000E+00  0.0000000000000E+00  0.0000000000000E+00  0.0000000000000E+00  0.0000000000000E+00  0.0000000000000E+00  0.0000000000000E+00 
 0.0000000000000E+00  0.0000000000000E+00  0.0000000000000E+00  0.0000000000000E+00  0.0000000000000E+00  0.0000000000000E+00  0.0000000000000E+00  0.0000000000000E+00  0.0000000000000E+00  0.0000000000000E+00 
 0.0000000000000E+00  0.0000000000000E+00  0.0000000000000E+00  0.0000000000000E+00  0.0000000000000E+00  0.0000000000000E+00  0.0000000000000E+00  0.0000000000000E+00  0.0000000000000E+00  0.0000000000000E+00 
ZONE T = "ANOD, 2.0000E-08", I = 10, SOLUTIONTIME = 2.000000E-08
ZONETYPE = ORDERED
DATAPACKING = BLOCK
STRANDID = 1
 0.0000000000000E+00  8.7488888888889E-05  1.7497777777778E-04  2.6246666666667E-04  3.4995555555556E-04  4.3744444444444E-04  5.2493333333333E-04  6.1242222222222E-04  6.9991111111111E-04  7.8740000000000E-04 
 1.1589975177543E-09  3.4769947609265E-09  5.7950006422308E-09  8.1130215921625E-09  1.0431064041265E-08  1.2749134420152E-08  1.5067239159523E-08  1.7385384690192E-08  1.9703577443099E-08  2.0863245457820E-08 
 9.1999999999861E-01  9.1999999999861E-01  9.1999999999861E-01  9.1999999999861E-01  9.1999999999861E-01  9.1999999999861E-01  9.1999999999861E-01  9.1999999999861E-01  9.1999999999861E-01  9.1999999999942E-01 
 4.0000000000696E-02  4.0000000000696E-02  4.0000000000696E-02  4.0000000000696E-02  4.0000000000696E-02  4.0000000000696E-02  4.0000000000696E-02  4.0000000000696E-02  4.0000000000696E-02  4.0000000000288E-02 
 4.0000000000696E-02  4.0000000000696E-02  4.0000000000696E-02  4.0000000000696E-02  4.0000000000696E-02  4.0000000000696E-02  4.0000000000696E-02  4.0000000000696E-02  4.0000000000696E-02  4.0000000000288E-02 
 2.9167373666107E-02  2.9167357938922E-02  2.9167310757335E-02  2.9167232121231E-02  2.9167122030403E-02  2.9166980484562E-02  2.9166807483327E-02  2.9166603026232E-02  2.9166367112724E-02  2.9166099742162E-02 
 0.0000000000000E+00 -4.7371510660620E-09 -8.9170107925202E-09 -1.2539577102601E-08 -1.5604846373514E-08 -1.8112813436445E-08 -2.0063471576532E-08 -2.1456812532852E-08 -2.2292826498388E-08 -2.2571502120000E-08 
-2.9167373666107E-02 -2.9167362676073E-02 -2.9167319674346E-02 -2.9167244660808E-02 -2.9167137635250E-02 -2.9166998597375E-02 -2.9166827546798E-02 -2.9166624483044E-02 -2.9166389405551E-02 -2.9166122313664E-02 
-4.0906712752393E-02 -4.0906712752393E-02 -4.0906712752393E-02 -4.0906712752393E-02 -4.0906712752390E-02 -4.0906712752390E-02 -4.0906712752390E-02 -4.0906712752390E-02 -4.0906712752390E-02 -4.0906712752653E-02 
 1.1739339086285E-02  1.1739350076320E-02  1.1739393078047E-02  1.1739468091585E-02  1.1739575117141E-02  1.1739714155015E-02  1.1739885205592E-02  1.1740088269346E-02  1.1740323346840E-02  1.1740590438988E-02 
 1.6690487381541E+00  3.3381006555199E+00  3.3381130951179E+00  3.3381347951417E+00  3.3381657556601E+00  3.3382059767735E+00  3.3382554586092E+00  3.3383142013256E+00  3.3383822051102E+00  1.6692297351049E+00 
 8.6492352039030E-09  2.5947722098543E-08  4.3246273447215E-08  6.0544937250253E-08  7.7843761499305E-08  9.5142794177553E-08  1.1244208327507E-07  1.2974167679116E-07  1.4704176694254E-07  1.4704176694254E-07 
 0.0000000000000E+00  3.3380990658038E+00  6.6762059412144E+00  1.0014329886344E+01  1.3352480161857E+01  1.6690666028050E+01  2.0028896745587E+01  2.3367181575686E+01  2.6705529778938E+01  3.0043950616499E+01 
 3.0043950616517E+01  2.6705851550603E+01  2.3367744675284E+01  2.0029620730154E+01  1.6691470454753E+01  1.3353284588537E+01  1.0015053870845E+01  6.6767690408778E+00  3.3384208376600E+00  0.0000000000000E+00 
 3.3380974763378E-08  6.6762013110988E-08  6.6762261902948E-08  6.6762695903425E-08  6.6763315113799E-08  6.6764119536061E-08  6.6765109172776E-08  6.6766284027108E-08  6.6767644102801E-08  3.3384594702249E-08 
 9.1448444543314E+04  1.8289688908663E+05  1.8289688908663E+05  1.8289688908663E+05  1.8289688908663E+05  1.8289688908663E+05  1.8289688908663E+05  1.8289688908663E+05  1.8289688908663E+05  9.1448444543314E+04 
 3.6579377817309E+05  7.3158755634618E+05  7.3158755634618E+05  7.3158755634618E+05  7.3158755634618E+05  7.3158755634618E+05  7.3158755634618E+05  7.3158755634618E+05  7.3158755634618E+05  3.6579377817309E+05 
 4.5724222271640E+05  9.1448444543281E+05  9.1448444543281E+05  9.1448444543281E+05  9.1448444543281E+05  9.1448444543281E+05  9.1448444543281E+05  9.1448444543281E+05  9.1448444543281E+05  4.5724222271640E+05 
 3.5000000000000E-01  3.5000000000000E-01  3.5000000000000E-01  3.5000000000000E-01  3.5000000000000E-01  3.5000000000000E-01  3.5000000000000E-01  3.5000000000000E-01  3.5000000000000E-01  3.5000000000000E-01 
 8.5301666666666E+00  1.7060333333333E+01  1.7060333333333E+01  1.7060333333333E+01  1.7060333333333E+01  1.7060333333333E+01  1.7060333333333E+01  1.7060333333333E+01  1.7060333333333E+01  8.5301666666666E+00 
 1.9566425878597E-01  1.9566444513706E-01  1.9566517429034E-01  1.9566644624812E-01  1.9566826101445E-01  1.9567061859519E-01  1.9567351899783E-01  1.9567696223162E-01  1.9568094830759E-01  1.9568547724017E-01 
 4.3744444444444E-05  8.7488888888889E-05  8.7488888888889E-05  8.7488888888889E-05  8.7488888888889E-05  8.7488888888889E-05  8.7488888888889E-05  8.7488888888889E-05  8.7488888888889E-05  4.3744444444444E-05 
 8.6666666666658E+01  8.6666666666658E+01  8.6666666666658E+01  8.6666666666658E+01  8.6666666666658E+01  8.6666666666658E+01  8.6666666666658E+01  8.6666666666658E+01  8.6666666666658E+01  8.6666666666658E+01 
 2.1666666666674E+01  2.1666666666674E+01  2.1666666666674E+01  2.1666666666674E+01  2.1666666666674E+01  2.1666666666674E+01  2.1666666666674E+01  2.1666666666674E+01  2.1666666666674E+01  2.1666666666674E+01 
 3.6728237799971E-11  5.7328560388565E-11  1.2295726392635E-10  2.3744258385681E-10  4.0078579058803E-10  6.1298869665243E-10  8.7405365679825E-10  1.1839835679834E-09  1.5427818693735E-09  1.7343985814097E-09 
 1.8364118899733E-03  2.8664280193119E-03  6.1478631962225E-03  1.1872129192644E-02  2.0039289528948E-02  3.0649434832086E-02  4.3702682838874E-02  5.9199178398071E-02  7.7139093467332E-02  8.6719929068500E-02 
 6.0006337826150E-04  3.0003203210817E-03  1.0201114653640E-02  2.2202520020648E-02  3.9004663337942E-02  6.0607724789967E-02  8.7011937838899E-02  1.1821758922399E-01  1.5422501896129E-01  1.7342922425042E-01 
 3.0727604017356E-03  2.7325357177747E-03  2.0946117389950E-03  1.5417383650327E-03  1.0739157208609E-03  6.9114487527552E-04  3.9342784092617E-04  1.8076757435753E-04  5.3167976061761E-05  1.0633890542144E-05 
 0.0000000000000E+00  0.0000000000000E+00  0.0000000000000E+00  0.0000000000000E+00  0.0000000000000E+00  0.0000000000000E+00  0.0000000000000E+00  0.0000000000000E+00  0.0000000000000E+00  0.0000000000000E+00 
 0.0000000000000E+00  0.0000000000000E+00  0.0000000000000E+00  0.0000000000000E+00  0.0000000000000E+00  0.0000000000000E+00  0.0000000000000E+00  0.0000000000000E+00  0.0000000000000E+00  0.0000000000000E+00 
 0.0000000000000E+00  0.0000000000000E+00  0.0000000000000E+00  0.0000000000000E+00  0.0000000000000E+00  0.0000000000000E+00  0.0000000000000E+00  0.0000000000000E+00  0.0000000000000E+00  0.0000000000000E+00 
ZONE T = "ANOD, 3.0000E-08", I = 10, SOLUTIONTIME = 3.000000E-08
ZONETYPE = ORDERED
DATAPACKING = BLOCK
STRANDID = 1
 0.0000000000000E+00  8.7488888888889E-05  1.7497777777778E-04  2.6246666666667E-04  3.4995555555556E-04  4.3744444444444E-04  5.2493333333333E-04  6.1242222222222E-04  6.9991111111111E-04  7.8740000000000E-04 
 1.1589975177340E-09  3.4769947608661E-09  5.7950006421299E-09  8.1130215920212E-09  1.0431064041084E-08  1.2749134419931E-08  1.5067239159263E-08  1.7386111105347E-08  1.9705030273670E-08  2.0863608665198E-08 
 9.1999999999791E-01  9.1999999999791E-01  9.1999999999791E-01  9.1999999999791E-01  9.1999999999791E-01  9.1999999999791E-01  9.1999999999791E-01  9.1999999999791E-01  9.1999999999791E-01  9.1999999999914E-01 
 4.0000000001045E-02  4.0000000001045E-02  4.0000000001045E-02  4.0000000001045E-02  4.0000000001045E-02  4.0000000001045E-02  4.0000000001045E-02  4.0000000001045E-02  4.0000000001045E-02  4.0000000000432E-02 
 4.0000000001045E-02  4.0000000001045E-02  4.0000000001045E-02  4.0000000001045E-02  4.0000000001045E-02  4.0000000001045E-02  4.0000000001045E-02  4.0000000001045E-02  4.0000000001045E-02  4.0000000000432E-02 
 2.9167373665895E-02  2.9167357938709E-02  2.9167310757123E-02  2.9167232121018E-02  2.9167122030191E-02  2.9166980484349E-02  2.9166807483114E-02  2.9166603026019E-02  2.9166367112512E-02  2.9166099741950E-02 
 0.0000000000000E+00 -4.7371510659827E-09 -8.9170107923712E-09 -1.2539577102392E-08 -1.5604846373255E-08 -1.8112813436145E-08 -2.0063471576202E-08 -2.1456812532500E-08 -2.2292826498024E-08 -2.2571502119634E-08 
-2.9167373665895E-02 -2.9167362675860E-02 -2.9167319674134E-02 -2.9167244660595E-02 -2.9167137635037E-02 -2.9166998597163E-02 -2.9166827546586E-02 -2.9166624482832E-02 -2.9166389405338E-02 -2.9166122313452E-02 
-4.0906712751889E-02 -4.0906712751893E-02 -4.0906712751889E-02 -4.0906712751889E-02 -4.0906712751893E-02 -4.0906712751891E-02 -4.0906712751891E-02 -4.0906712751893E-02 -4.0906712751893E-02 -4.0906712752287E-02 
 1.1739339085994E-02  1.1739350076033E-02  1.1739393077755E-02  1.1739468091294E-02  1.1739575116856E-02  1.1739714154728E-02  1.1739885205305E-02  1.1740088269061E-02  1.1740323346555E-02  1.1740590438835E-02 
 1.6690487381250E+00  3.3381006554621E+00  3.3381130950596E+00  3.3381347950835E+00  3.3381657556030E+00  3.3382059767158E+00  3.3382554585515E+00  3.3383142012684E+00  3.3383822050530E+00  1.6692297350910E+00 
 8.6492352039783E-09  2.5947722098768E-08  4.3246273447592E-08  6.0544937245048E-08  7.7843761499990E-08  9.5142794171963E-08  1.1244208327414E-07  1.2974167678621E-07  1.4704183905913E-07  1.4704183905913E-07 
 0.0000000000000E+00  3.3380990658328E+00  6.6762059412725E+00  1.0014329886247E+01  1.3352480161421E+01  1.6690666027643E+01  2.0028896745394E+01  2.3367181575337E+01  2.6705529778398E+01  3.0043950615923E+01 
 3.0043950616013E+01  2.6705851550157E+01  2.3367744674896E+01  2.0029620729824E+01  1.6691470454481E+01  1.3353284588322E+01  1.0015053870688E+01  6.6767690407783E+00  3.3384208376175E+00  0.0000000000000E+00 
 5.0071462144628E-08  1.0014301966561E-07  1.0014339285354E-07  1.0014404385426E-07  1.0014497266983E-07  1.0014617930322E-07  1.0014766375829E-07  1.0014942603979E-07  1.0015146615333E-07  5.0076892053159E-08 
 9.1448444543331E+04  1.8289688908666E+05  1.8289688908666E+05  1.8289688908666E+05  1.8289688908666E+05  1.8289688908666E+05  1.8289688908666E+05  1.8289688908666E+05  1.8289688908666E+05  9.1448444543331E+04 
 3.6579377817307E+05  7.3158755634615E+05  7.3158755634615E+05  7.3158755634615E+05  7.3158755634615E+05  7.3158755634615E+05  7.3158755634615E+05  7.3158755634615E+05  7.3158755634615E+05  3.6579377817307E+05 
 4.5724222271640E+05  9.1448444543281E+05  9.1448444543281E+05  9.1448444543281E+05  9.1448444543281E+05  9.1448444543281E+05  9.1448444543281E+05  9.1448444543281E+05  9.1448444543281E+05  4.5724222271640E+05 
 3.5000000000000E-01  3.5000000000000E-01  3.5000000000000E-01  3.5000000000000E-01  3.5000000000000E-01  3.5000000000000E-01  3.5000000000000E-01  3.5000000000000E-01  3.5000000000000E-01  3.5000000000000E-01 
 8.5301666666666E+00  1.7060333333333E+01  1.7060333333333E+01  1.7060333333333E+01  1.7060333333333E+01  1.7060333333333E+01  1.7060333333333E+01  1.7060333333333E+01  1.7060333333333E+01  8.5301666666666E+00 
 1.9566425878256E-01  1.9566444513367E-01  1.9566517428692E-01  1.9566644624471E-01  1.9566826101110E-01  1.9567061859181E-01  1.9567351899444E-01  1.9567696222827E-01  1.9568094830424E-01  1.9568547723855E-01 
 4.3744444444444E-05  8.7488888888889E-05  8.7488888888889E-05  8.7488888888889E-05  8.7488888888889E-05  8.7488888888889E-05  8.7488888888889E-05  8.7488888888889E-05  8.7488888888889E-05  4.3744444444444E-05 
 8.6666666666654E+01  8.6666666666654E+01  8.6666666666654E+01  8.6666666666654E+01  8.6666666666654E+01  8.6666666666654E+01  8.6666666666654E+01  8.6666666666654E+01  8.6666666666654E+01  8.6666666666654E+01 
 2.1666666666678E+01  2.1666666666678E+01  2.1666666666678E+01  2.1666666666678E+01  2.1666666666678E+01  2.1666666666678E+01  2.1666666666678E+01  2.1666666666678E+01  2.1666666666678E+01  2.1666666666678E+01 
 5.5092356699216E-11  8.5992840581358E-11  1.8443589588867E-10  3.5616387577933E-10  6.0117868586248E-10  9.1948304495662E-10  1.3110804851748E-09  1.7759753519408E-09  2.3141728040100E-09  2.6015978720550E-09 
 1.8364118899245E-03  2.8664280192793E-03  6.1478631962321E-03  1.1872129192252E-02  2.0039289527445E-02  3.0649434830419E-02  4.3702682837658E-02  5.9199178395737E-02  7.7139093463656E-02  8.6719929064532E-02 
 9.0009506739616E-04  4.5004804815429E-03  1.5301671980428E-02  3.3303780030423E-02  5.8506995004983E-02  9.0911587182765E-02  1.3051790675610E-01  1.7732638383255E-01  2.3133752843691E-01  2.6014383636969E-01 
 4.6091406025254E-03  4.0988035765929E-03  3.1419176084396E-03  2.3126075475105E-03  1.6108735812648E-03  1.0367173128964E-03  5.9014176137984E-04  2.7115136153215E-04  7.9751964091537E-05  1.5950835813079E-05 
 0.0000000000000E+00  0.0000000000000E+00  0.0000000000000E+00  0.0000000000000E+00  0.0000000000000E+00  0.0000000000000E+00  0.0000000000000E+00  0.0000000000000E+00  0.0000000000000E+00  0.0000000000000E+00 
 0.0000000000000E+00  0.0000000000000E+00  0.0000000000000E+00  0.0000000000000E+00  0.0000000000000E+00  0.0000000000000E+00  0.0000000000000E+00  0.0000000000000E+00  0.0000000000000E+00  0.0000000000000E+00 
 0.0000000000000E+00  0.0000000000000E+00  0.0000000000000E+00  0.0000000000000E+00  0.0000000000000E+00  0.0000000000000E+00  0.0000000000000E+00  0.0000000000000E+00  0.0000000000000E+00  0.0000000000000E+00 
ZONE T = "ANOD, 4.0000E-08", I = 10, SOLUTIONTIME = 4.000000E-08
ZONETYPE = ORDERED
DATAPACKING = BLOCK
STRANDID = 1
 0.0000000000000E+00  8.7488888888889E-05  1.7497777777778E-04  2.6246666666667E-04  3.4995555555556E-04  4.3744444444444E-04  5.2493333333333E-04  6.1242222222222E-04  6.9991111111111E-04  7.8740000000000E-04 
 1.1586343099862E-09  3.4762683453504E-09  5.7935478111186E-09  8.1119319686977E-09  1.0429611209993E-08  1.2746955173344E-08  1.5065059912636E-08  1.7383205443225E-08  1.9701398196053E-08  2.0860521399162E-08 
 9.1999999999721E-01  9.1999999999721E-01  9.1999999999721E-01  9.1999999999721E-01  9.1999999999721E-01  9.1999999999721E-01  9.1999999999721E-01  9.1999999999721E-01  9.1999999999721E-01  9.1999999999885E-01 
 4.0000000001393E-02  4.0000000001393E-02  4.0000000001393E-02  4.0000000001393E-02  4.0000000001393E-02  4.0000000001393E-02  4.0000000001393E-02  4.0000000001393E-02  4.0000000001393E-02  4.0000000000576E-02 
 4.0000000001393E-02  4.0000000001393E-02  4.0000000001393E-02  4.0000000001393E-02  4.0000000001393E-02  4.0000000001393E-02  4.0000000001393E-02  4.0000000001393E-02  4.0000000001393E-02  4.0000000000576E-02 
 2.9167373665684E-02  2.9167357938499E-02  2.9167310756912E-02  2.9167232120808E-02  2.9167122029980E-02  2.9166980484139E-02  2.9166807482904E-02  2.9166603025809E-02  2.9166367112301E-02  2.9166099741739E-02 
 0.0000000000000E+00 -4.7371510659035E-09 -8.9170107922225E-09 -1.2539577102183E-08 -1.5604846372996E-08 -1.8112813435845E-08 -2.0063471575871E-08 -2.1456812532147E-08 -2.2292826497659E-08 -2.2571502119267E-08 
-2.9167373665684E-02 -2.9167362675650E-02 -2.9167319673923E-02 -2.9167244660385E-02 -2.9167137634827E-02 -2.9166998596952E-02 -2.9166827546375E-02 -2.9166624482622E-02 -2.9166389405128E-02 -2.9166122313241E-02 
-4.0906712751392E-02 -4.0906712751395E-02 -4.0906712751392E-02 -4.0906712751392E-02 -4.0906712751397E-02 -4.0906712751395E-02 -4.0906712751395E-02 -4.0906712751397E-02 -4.0906712751397E-02 -4.0906712751922E-02 
 1.1739339085707E-02  1.1739350075745E-02  1.1739393077468E-02  1.1739468091007E-02  1.1739575116570E-02  1.1739714154443E-02  1.1739885205020E-02  1.1740088268776E-02  1.1740323346270E-02  1.1740590438680E-02 
 1.6690487380962E+00  3.3381006554042E+00  3.3381130950020E+00  3.3381347950259E+00  3.3381657555455E+00  3.3382059766583E+00  3.3382554584941E+00  3.3383142012109E+00  3.3383822049956E+00  1.6692297350770E+00 