TITLE = "Solution on Domain BulkDomain1D_2"
VARIABLES = "x [m]"  
"Vel_axial" 	"MF_sp(ECDMC)" 	"MF_sp(Li+)" 	"MF_sp(PF6-)" 	"Volt(Electroly)" 	"Volt(CathodeVo)" 	
"Potential Drop Electrode-Electrolyte [V]" 	"Surf_0 Equilibrium Potential Drop Electrode-Electrolyte [V]" 	"Overpotential_0 [V]" 	"Current Source [A/m^2]" 	"Li+ flux [kmol/m^2/s]" 	"Electrolyte Current [A/m^2]" 	"Electrode Current [A/m^2]" 	
"CV Capacity discharged [A-s/m^2]" 	"Depth of discharge in CV [A-s/m^2]" 	"CV Capacity remaining [A-s/m^2]" 	"Initial CV capacity [A-s/m^2]" 	"Porosity []" 	"Surface Area [m2/m2] (area per area)" 	"Specific current (per particle area) [A/m^2]" 	"Control volume thickness [m]" 	
"MoleDens LiCoO2 [kmol/m^3]" 	"MoleDens CoO2 [kmol/m^3]" 	"qHeat_accum [J/m3]" 	"qHeat_step [W/m3]" 	"Joule_Lyte [W/m3]" 	"Joule_Solid [W/m3]" 	"electrodHeat [W/m3]" 	"OverpotHeat [W/m3]" 	"deltaSHeat [W/m3]" 	

ZONE T = "CATH, 0.0000E+00", I = 10, SOLUTIONTIME = 0.000000E+00
ZONETYPE = ORDERED
DATAPACKING = BLOCK
STRANDID = 3
 1.2700000000000E-03  1.3377333333333E-03  1.4054666666667E-03  1.4732000000000E-03  1.5409333333333E-03  1.6086666666667E-03  1.6764000000000E-03  1.7441333333333E-03  1.8118666666667E-03  1.8796000000000E-03 
 0.0000000000000E+00  0.0000000000000E+00  0.0000000000000E+00  0.0000000000000E+00  0.0000000000000E+00  0.0000000000000E+00  0.0000000000000E+00  0.0000000000000E+00  0.0000000000000E+00  0.0000000000000E+00 
 9.2000000000000E-01  9.2000000000000E-01  9.2000000000000E-01  9.2000000000000E-01  9.2000000000000E-01  9.2000000000000E-01  9.2000000000000E-01  9.2000000000000E-01  9.2000000000000E-01  9.2000000000000E-01 
 4.0000000000000E-02  4.0000000000000E-02  4.0000000000000E-02  4.0000000000000E-02  4.0000000000000E-02  4.0000000000000E-02  4.0000000000000E-02  4.0000000000000E-02  4.0000000000000E-02  4.0000000000000E-02 
 4.0000000000000E-02  4.0000000000000E-02  4.0000000000000E-02  4.0000000000000E-02  4.0000000000000E-02  4.0000000000000E-02  4.0000000000000E-02  4.0000000000000E-02  4.0000000000000E-02  4.0000000000000E-02 
-7.0000000000000E-02 -7.0000000000000E-02 -7.0000000000000E-02 -7.0000000000000E-02 -7.0000000000000E-02 -7.0000000000000E-02 -7.0000000000000E-02 -7.0000000000000E-02 -7.0000000000000E-02 -7.0000000000000E-02 
 3.8000000000000E+00  3.8000000000000E+00  3.8000000000000E+00  3.8000000000000E+00  3.8000000000000E+00  3.8000000000000E+00  3.8000000000000E+00  3.8000000000000E+00  3.8000000000000E+00  3.8000000000000E+00 
 3.8700000000000E+00  3.8700000000000E+00  3.8700000000000E+00  3.8700000000000E+00  3.8700000000000E+00  3.8700000000000E+00  3.8700000000000E+00  3.8700000000000E+00  3.8700000000000E+00  3.8700000000000E+00 
 3.9714142713289E+00  3.9714142713289E+00  3.9714142713289E+00  3.9714142713289E+00  3.9714142713289E+00  3.9714142713289E+00  3.9714142713289E+00  3.9714142713289E+00  3.9714142713289E+00  3.9714142713289E+00 
-1.0141427132889E-01 -1.0141427132889E-01 -1.0141427132889E-01 -1.0141427132889E-01 -1.0141427132889E-01 -1.0141427132889E-01 -1.0141427132889E-01 -1.0141427132889E-01 -1.0141427132889E-01 -1.0141427132889E-01 
-2.3826357195711E-01 -4.7652714391422E-01 -4.7652714391423E-01 -4.7652714391422E-01 -4.7652714391423E-01 -4.7652714391423E-01 -4.7652714391422E-01 -4.7652714391423E-01 -4.7652714391422E-01 -2.3826357195711E-01 
-0.0000000000000E+00 -0.0000000000000E+00 -0.0000000000000E+00 -0.0000000000000E+00 -0.0000000000000E+00 -0.0000000000000E+00 -0.0000000000000E+00 -0.0000000000000E+00 -0.0000000000000E+00 -0.0000000000000E+00 
 2.3826357195711E-01  0.0000000000000E+00  0.0000000000000E+00  0.0000000000000E+00  0.0000000000000E+00  0.0000000000000E+00  0.0000000000000E+00  0.0000000000000E+00  0.0000000000000E+00  0.0000000000000E+00 
 0.0000000000000E+00 -0.0000000000000E+00 -0.0000000000000E+00 -0.0000000000000E+00 -0.0000000000000E+00 -0.0000000000000E+00 -0.0000000000000E+00 -0.0000000000000E+00 -0.0000000000000E+00  2.3826357195711E-01 
-0.0000000000000E+00 -0.0000000000000E+00 -0.0000000000000E+00 -0.0000000000000E+00 -0.0000000000000E+00 -0.0000000000000E+00 -0.0000000000000E+00 -0.0000000000000E+00 -0.0000000000000E+00 -0.0000000000000E+00 
 7.2440786946225E+03  1.4488157389245E+04  1.4488157389245E+04  1.4488157389245E+04  1.4488157389245E+04  1.4488157389245E+04  1.4488157389245E+04  1.4488157389245E+04  1.4488157389245E+04  7.2440786946225E+03 
 4.9259735123433E+04  9.8519470246865E+04  9.8519470246866E+04  9.8519470246865E+04  9.8519470246866E+04  9.8519470246866E+04  9.8519470246865E+04  9.8519470246866E+04  9.8519470246865E+04  4.9259735123433E+04 
 5.6503813818055E+04  1.1300762763611E+05  1.1300762763611E+05  1.1300762763611E+05  1.1300762763611E+05  1.1300762763611E+05  1.1300762763611E+05  1.1300762763611E+05  1.1300762763611E+05  5.6503813818055E+04 
 3.5000000000000E-01  3.5000000000000E-01  3.5000000000000E-01  3.5000000000000E-01  3.5000000000000E-01  3.5000000000000E-01  3.5000000000000E-01  3.5000000000000E-01  3.5000000000000E-01  3.5000000000000E-01 
 6.6040000000000E+00  1.3208000000000E+01  1.3208000000000E+01  1.3208000000000E+01  1.3208000000000E+01  1.3208000000000E+01  1.3208000000000E+01  1.3208000000000E+01  1.3208000000000E+01  6.6040000000000E+00 
-3.6078675341780E-02 -3.6078675341780E-02 -3.6078675341780E-02 -3.6078675341780E-02 -3.6078675341780E-02 -3.6078675341780E-02 -3.6078675341780E-02 -3.6078675341780E-02 -3.6078675341780E-02 -3.6078675341780E-02 
 3.3866666666667E-05  6.7733333333333E-05  6.7733333333334E-05  6.7733333333333E-05  6.7733333333334E-05  6.7733333333334E-05  6.7733333333333E-05  6.7733333333334E-05  6.7733333333333E-05  3.3866666666667E-05 
 2.6603001364256E+01  2.6603001364256E+01  2.6603001364256E+01  2.6603001364256E+01  2.6603001364256E+01  2.6603001364256E+01  2.6603001364256E+01  2.6603001364256E+01  2.6603001364256E+01  2.6603001364256E+01 
 1.7735334242838E+01  1.7735334242838E+01  1.7735334242838E+01  1.7735334242838E+01  1.7735334242838E+01  1.7735334242838E+01  1.7735334242838E+01  1.7735334242838E+01  1.7735334242838E+01  1.7735334242838E+01 
 0.0000000000000E+00  0.0000000000000E+00  0.0000000000000E+00  0.0000000000000E+00  0.0000000000000E+00  0.0000000000000E+00  0.0000000000000E+00  0.0000000000000E+00  0.0000000000000E+00  0.0000000000000E+00 
 0.0000000000000E+00  0.0000000000000E+00  0.0000000000000E+00  0.0000000000000E+00  0.0000000000000E+00  0.0000000000000E+00  0.0000000000000E+00  0.0000000000000E+00  0.0000000000000E+00  0.0000000000000E+00 
 0.0000000000000E+00  0.0000000000000E+00  0.0000000000000E+00  0.0000000000000E+00  0.0000000000000E+00  0.0000000000000E+00  0.0000000000000E+00  0.0000000000000E+00  0.0000000000000E+00  0.0000000000000E+00 
 0.0000000000000E+00  0.0000000000000E+00  0.0000000000000E+00  0.0000000000000E+00  0.0000000000000E+00  0.0000000000000E+00  0.0000000000000E+00  0.0000000000000E+00  0.0000000000000E+00  0.0000000000000E+00 
 0.0000000000000E+00  0.0000000000000E+00  0.0000000000000E+00  0.0000000000000E+00  0.0000000000000E+00  0.0000000000000E+00  0.0000000000000E+00  0.0000000000000E+00  0.0000000000000E+00  0.0000000000000E+00 
 0.0000000000000E+00  0.0000000000000E+00  0.0000000000000E+00  0.0000000000000E+00  0.0000000000000E+00  0.0000000000000E+00  0.0000000000000E+00  0.0000000000000E+00  0.0000000000000E+00  0.0000000000000E+00 
 0.0000000000000E+00  0.0000000000000E+00  0.0000000000000E+00  0.0000000000000E+00  0.0000000000000E+00  0.0000000000000E+00  0.0000000000000E+00  0.0000000000000E+00  0.0000000000000E+00  0.0000000000000E+00 
ZONE T = "CATH, 1.0000E-08", I = 10, SOLUTIONTIME = 1.000000E-08
ZONETYPE = ORDERED
DATAPACKING = BLOCK
STRANDID = 3
 1.2700000000000E-03  1.3377333333333E-03  1.4054666666667E-03  1.4732000000000E-03  1.5409333333333E-03  1.6086666666667E-03  1.6764000000000E-03  1.7441333333333E-03  1.8118666666667E-03  1.8796000000000E-03 
 1.9704870969412E-08  1.7388967434977E-08  1.5072780582052E-08  1.2756114836970E-08  1.0438774464880E-08  8.1205635031529E-09  5.8009224874145E-09  3.4800180084498E-09  1.1583794381797E-09 -3.2688694370954E-12 
 9.2000000000032E-01  9.2000000000090E-01  9.2000000000090E-01  9.2000000000090E-01  9.2000000000090E-01  9.2000000000090E-01  9.2000000000090E-01  9.2000000000090E-01  9.2000000000090E-01  9.2000000000090E-01 
 3.9999999999841E-02  3.9999999999551E-02  3.9999999999551E-02  3.9999999999551E-02  3.9999999999550E-02  3.9999999999550E-02  3.9999999999550E-02  3.9999999999550E-02  3.9999999999550E-02  3.9999999999549E-02 
 3.9999999999841E-02  3.9999999999551E-02  3.9999999999551E-02  3.9999999999551E-02  3.9999999999550E-02  3.9999999999550E-02  3.9999999999550E-02  3.9999999999550E-02  3.9999999999550E-02  3.9999999999549E-02 
 2.9165653270920E-02  2.9165446260758E-02  2.9165263576583E-02  2.9165105221373E-02  2.9164971200155E-02  2.9164861520010E-02  2.9164776190096E-02  2.9164715221615E-02  2.9164678627824E-02  2.9164666424094E-02 
 3.8001746420670E+00  3.8001724871785E+00  3.8001660223495E+00  3.8001552470526E+00  3.8001401603965E+00  3.8001207611255E+00  3.8000970476191E+00  3.8000690178917E+00  3.8000366695915E+00  3.8000000000000E+00 
 3.7710089887961E+00  3.7710070409177E+00  3.7710007587729E+00  3.7709901418312E+00  3.7709751891963E+00  3.7709558996055E+00  3.7709322714290E+00  3.7709043026701E+00  3.7708719909636E+00  3.7708353335759E+00 
 3.9714142713287E+00  3.9714142713285E+00  3.9714142713285E+00  3.9714142713285E+00  3.9714142713285E+00  3.9714142713285E+00  3.9714142713285E+00  3.9714142713285E+00  3.9714142713285E+00  3.9714142713285E+00 
-2.0040528253263E-01 -2.0040723041079E-01 -2.0041351255563E-01 -2.0042412949729E-01 -2.0043908213217E-01 -2.0045837172304E-01 -2.0048199989948E-01 -2.0050996865844E-01 -2.0054228036488E-01 -2.0057893775261E-01 
-1.6672260832642E+00 -3.3345786729996E+00 -3.3349867044210E+00 -3.3356763984233E+00 -3.3366479877004E+00 -3.3379018001757E+00 -3.3394382592402E+00 -3.3412578840536E+00 -3.3433612899184E+00 -1.6728745943630E+00 
 1.4705141478977E-07  1.2977112800856E-07  1.1248885801604E-07  9.5203016300991E-08  7.7912146204661E-08  6.0614769973816E-08  4.3309435832240E-08  2.5994684111728E-08  8.6690151843953E-09  8.6690151843953E-09 
 3.0043810966265E+01  2.6709303387419E+01  2.3374536255700E+01  2.0039220363622E+01  1.6703074687353E+01  1.3365816099838E+01  1.0027161943659E+01  6.6868313075142E+00  3.3445386626379E+00  0.0000000000000E+00 
 0.0000000000000E+00  3.3344992518756E+00  6.6692657525713E+00  1.0004581075429E+01  1.3340726977780E+01  1.6677985497670E+01  2.0016639048683E+01  2.3356970515465E+01  2.6699263349064E+01  3.0043810171622E+01 
 1.6672260832642E-08  3.3345786729996E-08  3.3349867044210E-08  3.3356763984233E-08  3.3366479877004E-08  3.3379018001757E-08  3.3394382592402E-08  3.3412578840536E-08  3.3433612899184E-08  1.6728745943630E-08 
 7.2440786946392E+03  1.4488157389278E+04  1.4488157389278E+04  1.4488157389278E+04  1.4488157389278E+04  1.4488157389278E+04  1.4488157389278E+04  1.4488157389278E+04  1.4488157389278E+04  7.2440786946392E+03 
 4.9259735123416E+04  9.8519470246832E+04  9.8519470246832E+04  9.8519470246832E+04  9.8519470246832E+04  9.8519470246832E+04  9.8519470246832E+04  9.8519470246832E+04  9.8519470246832E+04  4.9259735123416E+04 
 5.6503813818055E+04  1.1300762763611E+05  1.1300762763611E+05  1.1300762763611E+05  1.1300762763611E+05  1.1300762763611E+05  1.1300762763611E+05  1.1300762763611E+05  1.1300762763611E+05  5.6503813818055E+04 
 3.5000000000000E-01  3.5000000000000E-01  3.5000000000000E-01  3.5000000000000E-01  3.5000000000000E-01  3.5000000000000E-01  3.5000000000000E-01  3.5000000000000E-01  3.5000000000000E-01  3.5000000000000E-01 
 6.6040000000000E+00  1.3208000000000E+01  1.3208000000000E+01  1.3208000000000E+01  1.3208000000000E+01  1.3208000000000E+01  1.3208000000000E+01  1.3208000000000E+01  1.3208000000000E+01  6.6040000000000E+00 
-2.5245700836829E-01 -2.5246658638701E-01 -2.5249747913544E-01 -2.5254969703387E-01 -2.5262325769991E-01 -2.5271818596121E-01 -2.5283451387342E-01 -2.5297228074301E-01 -2.5313153315554E-01 -2.5331232500954E-01 
 3.3866666666667E-05  6.7733333333333E-05  6.7733333333334E-05  6.7733333333333E-05  6.7733333333334E-05  6.7733333333334E-05  6.7733333333333E-05  6.7733333333334E-05  6.7733333333333E-05  3.3866666666667E-05 
 2.6603001364262E+01  2.6603001364262E+01  2.6603001364262E+01  2.6603001364262E+01  2.6603001364262E+01  2.6603001364262E+01  2.6603001364262E+01  2.6603001364262E+01  2.6603001364262E+01  2.6603001364262E+01 
 1.7735334242833E+01  1.7735334242833E+01  1.7735334242833E+01  1.7735334242833E+01  1.7735334242833E+01  1.7735334242833E+01  1.7735334242833E+01  1.7735334242833E+01  1.7735334242833E+01  1.7735334242833E+01 
 1.3976737719229E-09  3.4235246457533E-09  9.6096576115112E-09  2.0066058104289E-08  3.4796258301920E-08  5.3805235853688E-08  7.7099417550676E-08  1.0468668395906E-07  1.3657637495063E-07  1.5359808547580E-07 
 1.3976737719229E-01  3.4235246457533E-01  9.6096576115112E-01  2.0066058104289E+00  3.4796258301920E+00  5.3805235853688E+00  7.7099417550676E+00  1.0468668395906E+01  1.3657637495063E+01  1.5359808547580E+01 
 8.6726005469484E-02  7.7133532664705E-02  5.9145219153432E-02  4.3550053861784E-02  3.0348208494891E-02  1.9540657592075E-02  1.1129189891768E-02  5.1164120538563E-03  1.5057386654834E-03  3.0140553579233E-04 
 5.3041371722802E-02  2.6521893191062E-01  9.0182054199769E-01  1.9630557565671E+00  3.4492776216971E+00  5.3609829277767E+00  7.6988125651759E+00  1.0463551983852E+01  1.3656131756397E+01  1.5359507142045E+01 
 0.0000000000000E+00  0.0000000000000E+00  0.0000000000000E+00  0.0000000000000E+00  0.0000000000000E+00  0.0000000000000E+00  0.0000000000000E+00  0.0000000000000E+00  0.0000000000000E+00  0.0000000000000E+00 
 0.0000000000000E+00  0.0000000000000E+00  0.0000000000000E+00  0.0000000000000E+00  0.0000000000000E+00  0.0000000000000E+00  0.0000000000000E+00  0.0000000000000E+00  0.0000000000000E+00  0.0000000000000E+00 
 0.0000000000000E+00  0.0000000000000E+00  0.0000000000000E+00  0.0000000000000E+00  0.0000000000000E+00  0.0000000000000E+00  0.0000000000000E+00  0.0000000000000E+00  0.0000000000000E+00  0.0000000000000E+00 
ZONE T = "CATH, 2.0000E-08", I = 10, SOLUTIONTIME = 2.000000E-08
ZONETYPE = ORDERED
DATAPACKING = BLOCK
STRANDID = 3
 1.2700000000000E-03  1.3377333333333E-03  1.4054666666667E-03  1.4732000000000E-03  1.5409333333333E-03  1.6086666666667E-03  1.6764000000000E-03  1.7441333333333E-03  1.8118666666667E-03  1.8796000000000E-03 
 1.9701881496367E-08  1.7386329878780E-08  1.5070131712596E-08  1.2753454616385E-08  1.0436102839401E-08  8.1182436109085E-09  5.7993174507023E-09  3.4784013103323E-09  1.1567509604327E-09 -5.0849081891281E-12 
 9.2000000000063E-01  9.2000000000180E-01  9.2000000000180E-01  9.2000000000180E-01  9.2000000000180E-01  9.2000000000180E-01  9.2000000000180E-01  9.2000000000180E-01  9.2000000000180E-01  9.2000000000180E-01 
 3.9999999999683E-02  3.9999999999101E-02  3.9999999999101E-02  3.9999999999101E-02  3.9999999999101E-02  3.9999999999100E-02  3.9999999999100E-02  3.9999999999100E-02  3.9999999999099E-02  3.9999999999098E-02 
 3.9999999999683E-02  3.9999999999101E-02  3.9999999999101E-02  3.9999999999101E-02  3.9999999999101E-02  3.9999999999100E-02  3.9999999999100E-02  3.9999999999100E-02  3.9999999999099E-02  3.9999999999098E-02 
 2.9165655458169E-02  2.9165448446989E-02  2.9165265761910E-02  2.9165107405909E-02  2.9164973384018E-02  2.9164863703325E-02  2.9164778372976E-02  2.9164717404181E-02  2.9164680810213E-02  2.9164668606416E-02 
 3.8001746429253E+00  3.8001724880263E+00  3.8001660231657E+00  3.8001552478163E+00  3.8001401610865E+00  3.8001207617205E+00  3.8000970480979E+00  3.8000690182326E+00  3.8000366697729E+00  3.8000000000000E+00 
 3.7710089874671E+00  3.7710070395793E+00  3.7710007574038E+00  3.7709901404104E+00  3.7709751877025E+00  3.7709558980172E+00  3.7709322697249E+00  3.7709043008285E+00  3.7708719889627E+00  3.7708353313936E+00 
 3.9714142713285E+00  3.9714142713282E+00  3.9714142713282E+00  3.9714142713282E+00  3.9714142713282E+00  3.9714142713282E+00  3.9714142713282E+00  3.9714142713282E+00  3.9714142713282E+00  3.9714142713282E+00 
-2.0040528386143E-01 -2.0040723174889E-01 -2.0041351392434E-01 -2.0042413091779E-01 -2.0043908362570E-01 -2.0045837331094E-01 -2.0048200160324E-01 -2.0050997049970E-01 -2.0054228236546E-01 -2.0057893993457E-01 
-1.6672261264097E+00 -3.3345787598854E+00 -3.3349867933060E+00 -3.3356764906910E+00 -3.3366480847406E+00 -3.3379019033884E+00 -3.3394383700356E+00 -3.3412580038568E+00 -3.3433614201723E+00 -1.6728746654457E+00 
 1.4705227082829E-07  1.2977176979353E-07  1.1248941938230E-07  9.5203494878553E-08  7.7912535436937E-08  6.0615078546323E-08  4.3309659471441E-08  2.5994810818193E-08  8.6690619715772E-09  8.6690619715772E-09 
 3.0043950617829E+01  2.6709435111546E+01  2.3374652335186E+01  2.0039320693176E+01  1.6703158405215E+01  1.3365883411222E+01  1.0027213274454E+01  6.6868650873342E+00  3.3445553756300E+00  0.0000000000000E+00 
 0.0000000000000E+00  3.3345155063300E+00  6.6692982829543E+00  1.0004629925032E+01  1.3340792212745E+01  1.6678067206642E+01  2.0016737343328E+01  2.3357085530469E+01  2.6699395242478E+01  3.0043950617929E+01 
 3.3344522096739E-08  6.6691574328850E-08  6.6699734977270E-08  6.6713528891143E-08  6.6732960724410E-08  6.6758037035641E-08  6.6788766292758E-08  6.6825158879104E-08  6.6867227100907E-08  3.3457492598087E-08 
 7.2440786946558E+03  1.4488157389312E+04  1.4488157389312E+04  1.4488157389312E+04  1.4488157389312E+04  1.4488157389312E+04  1.4488157389312E+04  1.4488157389312E+04  1.4488157389312E+04  7.2440786946559E+03 
 4.9259735123400E+04  9.8519470246798E+04  9.8519470246799E+04  9.8519470246798E+04  9.8519470246799E+04  9.8519470246799E+04  9.8519470246798E+04  9.8519470246799E+04  9.8519470246798E+04  4.9259735123399E+04 
 5.6503813818055E+04  1.1300762763611E+05  1.1300762763611E+05  1.1300762763611E+05  1.1300762763611E+05  1.1300762763611E+05  1.1300762763611E+05  1.1300762763611E+05  1.1300762763611E+05  5.6503813818055E+04 
 3.5000000000000E-01  3.5000000000000E-01  3.5000000000000E-01  3.5000000000000E-01  3.5000000000000E-01  3.5000000000000E-01  3.5000000000000E-01  3.5000000000000E-01  3.5000000000000E-01  3.5000000000000E-01 
 6.6040000000000E+00  1.3208000000000E+01  1.3208000000000E+01  1.3208000000000E+01  1.3208000000000E+01  1.3208000000000E+01  1.3208000000000E+01  1.3208000000000E+01  1.3208000000000E+01  6.6040000000000E+00 
-2.5245701490153E-01 -2.5246659296528E-01 -2.5249748586508E-01 -2.5254970401961E-01 -2.5262326504699E-01 -2.5271819377562E-01 -2.5283452226193E-01 -2.5297228981351E-01 -2.5313154301728E-01 -2.5331233577312E-01 
 3.3866666666667E-05  6.7733333333333E-05  6.7733333333334E-05  6.7733333333333E-05  6.7733333333334E-05  6.7733333333334E-05  6.7733333333333E-05  6.7733333333334E-05  6.7733333333333E-05  3.3866666666667E-05 
 2.6603001364267E+01  2.6603001364267E+01  2.6603001364267E+01  2.6603001364267E+01  2.6603001364267E+01  2.6603001364267E+01  2.6603001364267E+01  2.6603001364267E+01  2.6603001364267E+01  2.6603001364267E+01 
 1.7735334242827E+01  1.7735334242827E+01  1.7735334242827E+01  1.7735334242827E+01  1.7735334242827E+01  1.7735334242827E+01  1.7735334242827E+01  1.7735334242827E+01  1.7735334242827E+01  1.7735334242827E+01 
 2.7953612469489E-09  6.8470827570173E-09  1.9219409079150E-08  4.0132312288658E-08  6.9592857015483E-08  1.0761099902075E-07  1.5419959244366E-07  2.0937439904725E-07  2.7315409941168E-07  3.0719769091953E-07 
 1.3976874750260E-01  3.4235581112640E-01  9.6097514676391E-01  2.0066254184369E+00  3.4796598713563E+00  5.3805763167064E+00  7.7100174892981E+00  1.0468771508819E+01  1.3657772446106E+01  1.5359960544373E+01 
 8.6726858829366E-02  7.7134293355374E-02  5.9145806406705E-02  4.3550489814376E-02  3.0348512807439E-02  1.9540854186513E-02  1.1129303710362E-02  5.1164640765133E-03  1.5057534832132E-03  3.0140877925135E-04 
 5.3041888673234E-02  2.6522151777102E-01  9.0182934035721E-01  1.9630749286225E+00  3.4493113585489E+00  5.3610354625199E+00  7.6988881855877E+00  1.0463655044743E+01  1.3656266692623E+01  1.5359659135594E+01 
 0.0000000000000E+00  0.0000000000000E+00  0.0000000000000E+00  0.0000000000000E+00  0.0000000000000E+00  0.0000000000000E+00  0.0000000000000E+00  0.0000000000000E+00  0.0000000000000E+00  0.0000000000000E+00 
 0.0000000000000E+00  0.0000000000000E+00  0.0000000000000E+00  0.0000000000000E+00  0.0000000000000E+00  0.0000000000000E+00  0.0000000000000E+00  0.0000000000000E+00  0.0000000000000E+00  0.0000000000000E+00 
 0.0000000000000E+00  0.0000000000000E+00  0.0000000000000E+00  0.0000000000000E+00  0.0000000000000E+00  0.0000000000000E+00  0.0000000000000E+00  0.0000000000000E+00  0.0000000000000E+00  0.0000000000000E+00 
ZONE T = "CATH, 3.0000E-08", I = 10, SOLUTIONTIME = 3.000000E-08
ZONETYPE = ORDERED
DATAPACKING = BLOCK
STRANDID = 3
 1.2700000000000E-03  1.3377333333333E-03  1.4054666666667E-03  1.4732000000000E-03  1.5409333333333E-03  1.6086666666667E-03  1.6764000000000E-03  1.7441333333333E-03  1.8118666666667E-03  1.8796000000000E-03 
 1.9707329611944E-08  1.7391414786669E-08  1.5075216620525E-08  1.2759265939809E-08  1.0441914162866E-08  8.1236917266851E-09  5.8047655665189E-09  3.4853022571001E-09  1.1636519072406E-09  2.1792463666281E-12 
 9.2000000000095E-01  9.2000000000270E-01  9.2000000000270E-01  9.2000000000270E-01  9.2000000000270E-01  9.2000000000270E-01  9.2000000000270E-01  9.2000000000270E-01  9.2000000000270E-01  9.2000000000270E-01 
 3.9999999999524E-02  3.9999999998652E-02  3.9999999998652E-02  3.9999999998652E-02  3.9999999998651E-02  3.9999999998651E-02  3.9999999998650E-02  3.9999999998649E-02  3.9999999998649E-02  3.9999999998648E-02 
 3.9999999999524E-02  3.9999999998652E-02  3.9999999998652E-02  3.9999999998652E-02  3.9999999998651E-02  3.9999999998651E-02  3.9999999998650E-02  3.9999999998649E-02  3.9999999998649E-02  3.9999999998648E-02 
 2.9165655457955E-02  2.9165448446774E-02  2.9165265761695E-02  2.9165107405695E-02  2.9164973383804E-02  2.9164863703111E-02  2.9164778372762E-02  2.9164717403966E-02  2.9164680809998E-02  2.9164668606202E-02 
 3.8001746429253E+00  3.8001724880263E+00  3.8001660231657E+00  3.8001552478163E+00  3.8001401610865E+00  3.8001207617205E+00  3.8000970480979E+00  3.8000690182326E+00  3.8000366697729E+00  3.8000000000000E+00 
 3.7710089874673E+00  3.7710070395795E+00  3.7710007574040E+00  3.7709901404106E+00  3.7709751877027E+00  3.7709558980174E+00  3.7709322697251E+00  3.7709043008287E+00  3.7708719889629E+00  3.7708353313938E+00 
 3.9714142713283E+00  3.9714142713278E+00  3.9714142713278E+00  3.9714142713278E+00  3.9714142713278E+00  3.9714142713278E+00  3.9714142713278E+00  3.9714142713278E+00  3.9714142713278E+00  3.9714142713278E+00 
-2.0040528386104E-01 -2.0040723174831E-01 -2.0041351392376E-01 -2.0042413091721E-01 -2.0043908362512E-01 -2.0045837331036E-01 -2.0048200160266E-01 -2.0050997049912E-01 -2.0054228236488E-01 -2.0057893993399E-01 
-1.6672261263932E+00 -3.3345787598281E+00 -3.3349867932486E+00 -3.3356764906335E+00 -3.3366480846832E+00 -3.3379019033309E+00 -3.3394383699781E+00 -3.3412580037992E+00 -3.3433614201145E+00 -1.6728746654168E+00 
 1.4705240339564E-07  1.2977176982322E-07  1.1248941942049E-07  9.5203494936878E-08  7.7912535512045E-08  6.0615078638664E-08  4.3309659586382E-08  2.5994810946568E-08  8.6690621160454E-09  8.6690621160454E-09 
 3.0043950617121E+01  2.6709435111060E+01  2.3374652334686E+01  2.0039320692713E+01  1.6703158405027E+01  1.3365883410834E+01  1.0027213274341E+01  6.6868650874967E+00  3.3445553753546E+00  0.0000000000000E+00 
 0.0000000000000E+00  3.3345155063300E+00  6.6692982827825E+00  1.0004629924689E+01  1.3340792212401E+01  1.6678067206470E+01  2.0016737343156E+01  2.3357085529954E+01  2.6699395241963E+01  3.0043950617556E+01 
 5.0016783360671E-08  1.0003736192713E-07  1.0004960290976E-07  1.0007029379748E-07  1.0009944157124E-07  1.0013705606895E-07  1.0018314999254E-07  1.0023773891710E-07  1.0030084130205E-07  5.0186239252255E-08 
 7.2440786946725E+03  1.4488157389345E+04  1.4488157389345E+04  1.4488157389345E+04  1.4488157389345E+04  1.4488157389345E+04  1.4488157389345E+04  1.4488157389345E+04  1.4488157389345E+04  7.2440786946727E+03 
 4.9259735123383E+04  9.8519470246765E+04  9.8519470246766E+04  9.8519470246765E+04  9.8519470246766E+04  9.8519470246766E+04  9.8519470246765E+04  9.8519470246766E+04  9.8519470246765E+04  4.9259735123383E+04 
 5.6503813818055E+04  1.1300762763611E+05  1.1300762763611E+05  1.1300762763611E+05  1.1300762763611E+05  1.1300762763611E+05  1.1300762763611E+05  1.1300762763611E+05  1.1300762763611E+05  5.6503813818055E+04 
 3.5000000000000E-01  3.5000000000000E-01  3.5000000000000E-01  3.5000000000000E-01  3.5000000000000E-01  3.5000000000000E-01  3.5000000000000E-01  3.5000000000000E-01  3.5000000000000E-01  3.5000000000000E-01 
 6.6040000000000E+00  1.3208000000000E+01  1.3208000000000E+01  1.3208000000000E+01  1.3208000000000E+01  1.3208000000000E+01  1.3208000000000E+01  1.3208000000000E+01  1.3208000000000E+01  6.6040000000000E+00 
-2.5245701489903E-01 -2.5246659296094E-01 -2.5249748586073E-01 -2.5254970401525E-01 -2.5262326504264E-01 -2.5271819377126E-01 -2.5283452225758E-01 -2.5297228980915E-01 -2.5313154301291E-01 -2.5331233576874E-01 
 3.3866666666667E-05  6.7733333333333E-05  6.7733333333334E-05  6.7733333333333E-05  6.7733333333334E-05  6.7733333333334E-05  6.7733333333333E-05  6.7733333333334E-05  6.7733333333333E-05  3.3866666666667E-05 
 2.6603001364272E+01  2.6603001364272E+01  2.6603001364272E+01  2.6603001364272E+01  2.6603001364272E+01  2.6603001364272E+01  2.6603001364272E+01  2.6603001364272E+01  2.6603001364272E+01  2.6603001364272E+01 
 1.7735334242822E+01  1.7735334242822E+01  1.7735334242822E+01  1.7735334242822E+01  1.7735334242822E+01  1.7735334242822E+01  1.7735334242822E+01  1.7735334242822E+01  1.7735334242822E+01  1.7735334242822E+01 
 4.1930487219392E-09  1.0270640868260E-08  2.8829160546225E-08  6.0198566471699E-08  1.0438945572729E-07  1.6141676218682E-07  2.3129976733521E-07  3.1406211413074E-07  4.0973182386760E-07  4.6079729635954E-07 
 1.3976874749903E-01  3.4235581112424E-01  9.6097514670748E-01  2.0066254183041E+00  3.4796598711811E+00  5.3805763166072E+00  7.7100174891556E+00  1.0468771508349E+01  1.3657772445591E+01  1.5359960544001E+01 
 8.6726858825800E-02  7.7134293353211E-02  5.9145806404929E-02  4.3550489812775E-02  3.0348512807097E-02  1.9540854185695E-02  1.1129303710066E-02  5.1164640768838E-03  1.5057534831105E-03  3.0140877907657E-04 
 5.3041888673234E-02  2.6522151777102E-01  9.0182934030255E-01  1.9630749284913E+00  3.4493113583740E+00  5.3610354624215E+00  7.6988881854455E+00  1.0463655044272E+01  1.3656266692108E+01  1.5359659135222E+01 
 0.0000000000000E+00  0.0000000000000E+00  0.0000000000000E+00  0.0000000000000E+00  0.0000000000000E+00  0.0000000000000E+00  0.0000000000000E+00  0.0000000000000E+00  0.0000000000000E+00  0.0000000000000E+00 
 0.0000000000000E+00  0.0000000000000E+00  0.0000000000000E+00  0.0000000000000E+00  0.0000000000000E+00  0.0000000000000E+00  0.0000000000000E+00  0.0000000000000E+00  0.0000000000000E+00  0.0000000000000E+00 
 0.0000000000000E+00  0.0000000000000E+00  0.0000000000000E+00  0.0000000000000E+00  0.0000000000000E+00  0.0000000000000E+00  0.0000000000000E+00  0.0000000000000E+00  0.0000000000000E+00  0.0000000000000E+00 
ZONE T = "CATH, 4.0000E-08", I = 10, SOLUTIONTIME = 4.000000E-08
ZONETYPE = ORDERED
DATAPACKING = BLOCK
STRANDID = 3
 1.2700000000000E-03  1.3377333333333E-03  1.4054666666667E-03  1.4732000000000E-03  1.5409333333333E-03  1.6086666666667E-03  1.6764000000000E-03  1.7441333333333E-03  1.8118666666667E-03  1.8796000000000E-03 
 1.9704787157511E-08  1.7389598747732E-08  1.5074126997082E-08  1.2757449900951E-08  1.0440824539503E-08  8.1233285188175E-09  5.8044023586912E-09  3.4838494261290E-09  1.1625622840373E-09  1.0896231833895E-12 
 9.2000000000127E-01  9.2000000000359E-01  9.2000000000359E-01  9.2000000000360E-01  9.2000000000360E-01  9.2000000000360E-01  9.2000000000360E-01  9.2000000000360E-01  9.2000000000360E-01  9.2000000000361E-01 
 3.9999999999365E-02  3.9999999998203E-02  3.9999999998203E-02  3.9999999998202E-02  3.9999999998202E-02  3.9999999998201E-02  3.9999999998200E-02  3.9999999998199E-02  3.9999999998198E-02  3.9999999998197E-02 
 3.9999999999365E-02  3.9999999998203E-02  3.9999999998203E-02  3.9999999998202E-02  3.9999999998202E-02  3.9999999998201E-02  3.9999999998200E-02  3.9999999998199E-02  3.9999999998198E-02  3.9999999998197E-02 
 2.9165655457742E-02  2.9165448446562E-02  2.9165265761483E-02  2.9165107405482E-02  2.9164973383592E-02  2.9164863702899E-02  2.9164778372550E-02  2.9164717403754E-02  2.9164680809786E-02  2.9164668605990E-02 
 3.8001746429253E+00  3.8001724880262E+00  3.8001660231657E+00  3.8001552478163E+00  3.8001401610865E+00  3.8001207617205E+00  3.8000970480979E+00  3.8000690182326E+00  3.8000366697729E+00  3.8000000000000E+00 
 3.7710089874675E+00  3.7710070395797E+00  3.7710007574042E+00  3.7709901404108E+00  3.7709751877029E+00  3.7709558980176E+00  3.7709322697253E+00  3.7709043008289E+00  3.7708719889631E+00  3.7708353313940E+00 
 3.9714142713282E+00  3.9714142713274E+00  3.9714142713274E+00  3.9714142713274E+00  3.9714142713274E+00  3.9714142713274E+00  3.9714142713274E+00  3.9714142713274E+00  3.9714142713274E+00  3.9714142713274E+00 
-2.0040528386065E-01 -2.0040723174773E-01 -2.0041351392319E-01 -2.0042413091663E-01 -2.0043908362454E-01 -2.0045837330979E-01 -2.0048200160209E-01 -2.0050997049854E-01 -2.0054228236430E-01 -2.0057893993341E-01 
-1.6672261263767E+00 -3.3345787597709E+00 -3.3349867931914E+00 -3.3356764905763E+00 -3.3366480846260E+00 -3.3379019032735E+00 -3.3394383699206E+00 -3.3412580037416E+00 -3.3433614200569E+00 -1.6728746653879E+00 