TITLE = "Solution on Domain BulkDomain1D_0"
VARIABLES = "x [m]"  
"Vel_axial" 
"MF_sp(ECDMC)" 
"MF_sp(Li+)" 
"MF_sp(PF6-)" 
"Volt(Electroly)" 
"Volt(AnodeVolt)" 
"Potential Drop Electrode-Electrolyte [V]" 
"Surf_0 Equilibrium Potential Drop Electrode-Electrolyte [V]" 
"Overpotential_0 [V]" 
"Current Source [A/m^2]" 
"Li+ flux [kmol/m^2/s]" 
"Electrolyte Current [A/m^2]" 
"Electrode Current [A/m^2]" 
"CV Capacity discharged [A-s/m^2]" 
"Depth of discharge in CV [A-s/m^2]" 
"CV Capacity remaining [A-s/m^2]" 
"Initial CV capacity [A-s/m^2]" 
"Porosity []" 
"Surface Area [m2/m2] (area per area)" 
"Specific current (per particle area) [A/m^2]" 
"Control volume thickness [m]" 
"MoleDens Li_C6-bulk [kmol/m^3]" 
"MoleDens V_C6-bulk [kmol/m^3]" 
"qHeat_accum [J/m3]" 
"qHeat_step [W/m3]" 
"Joule_Lyte [W/m3]" 
"Joule_Solid [W/m3]" 
"electrodHeat [W/m3]" 
"OverpotHeat [W/m3]" 
"deltaSHeat [W/m3]" 

ZONE T = "ANOD, 0.0000E+00", I = 10, SOLUTIONTIME = 0.000000E+00
ZONETYPE = ORDERED
DATAPACKING = BLOCK
STRANDID = 1
 0.0000000000000E+00  8.7488888888889E-05  1.7497777777778E-04  2.6246666666667E-04  3.4995555555556E-04  4.3744444444444E-04  5.2493333333333E-04  6.1242222222222E-04  6.9991111111111E-04  7.8740000000000E-04 
 0.0000000000000E+00  0.0000000000000E+00  0.0000000000000E+00  0.0000000000000E+00  0.0000000000000E+00  0.0000000000000E+00  0.0000000000000E+00  0.0000000000000E+00  0.0000000000000E+00  0.0000000000000E+00 
 9.2000000000000E-01  9.2000000000000E-01  9.2000000000000E-01  9.2000000000000E-01  9.2000000000000E-01  9.2000000000000E-01  9.2000000000000E-01  9.2000000000000E-01  9.2000000000000E-01  9.2000000000000E-01 
 4.0000000000000E-02  4.0000000000000E-02  4.0000000000000E-02  4.0000000000000E-02  4.0000000000000E-02  4.0000000000000E-02  4.0000000000000E-02  4.0000000000000E-02  4.0000000000000E-02  4.0000000000000E-02 
 4.0000000000000E-02  4.0000000000000E-02  4.0000000000000E-02  4.0000000000000E-02  4.0000000000000E-02  4.0000000000000E-02  4.0000000000000E-02  4.0000000000000E-02  4.0000000000000E-02  4.0000000000000E-02 
-7.0000000000000E-02 -7.0000000000000E-02 -7.0000000000000E-02 -7.0000000000000E-02 -7.0000000000000E-02 -7.0000000000000E-02 -7.0000000000000E-02 -7.0000000000000E-02 -7.0000000000000E-02 -7.0000000000000E-02 
 0.0000000000000E+00  0.0000000000000E+00  0.0000000000000E+00  0.0000000000000E+00  0.0000000000000E+00  0.0000000000000E+00  0.0000000000000E+00  0.0000000000000E+00  0.0000000000000E+00  0.0000000000000E+00 
 7.0000000000000E-02  7.0000000000000E-02  7.0000000000000E-02  7.0000000000000E-02  7.0000000000000E-02  7.0000000000000E-02  7.0000000000000E-02  7.0000000000000E-02  7.0000000000000E-02  7.0000000000000E-02 
-4.0906712753392E-02 -4.0906712753392E-02 -4.0906712753392E-02 -4.0906712753392E-02 -4.0906712753392E-02 -4.0906712753392E-02 -4.0906712753392E-02 -4.0906712753392E-02 -4.0906712753392E-02 -4.0906712753392E-02 
 1.1090671275339E-01  1.1090671275339E-01  1.1090671275339E-01  1.1090671275339E-01  1.1090671275339E-01  1.1090671275339E-01  1.1090671275339E-01  1.1090671275339E-01  1.1090671275339E-01  1.1090671275339E-01 
 3.0930240924008E+01  6.1860481848016E+01  6.1860481848016E+01  6.1860481848016E+01  6.1860481848016E+01  6.1860481848016E+01  6.1860481848016E+01  6.1860481848016E+01  6.1860481848016E+01  3.0930240924008E+01 
-0.0000000000000E+00 -0.0000000000000E+00 -0.0000000000000E+00 -0.0000000000000E+00 -0.0000000000000E+00 -0.0000000000000E+00 -0.0000000000000E+00 -0.0000000000000E+00 -0.0000000000000E+00 -0.0000000000000E+00 
 0.0000000000000E+00  0.0000000000000E+00  0.0000000000000E+00  0.0000000000000E+00  0.0000000000000E+00  0.0000000000000E+00  0.0000000000000E+00  0.0000000000000E+00  0.0000000000000E+00  3.0930240924008E+01 
 3.0930240924008E+01 -0.0000000000000E+00 -0.0000000000000E+00 -0.0000000000000E+00 -0.0000000000000E+00 -0.0000000000000E+00 -0.0000000000000E+00 -0.0000000000000E+00 -0.0000000000000E+00  0.0000000000000E+00 
 0.0000000000000E+00  0.0000000000000E+00  0.0000000000000E+00  0.0000000000000E+00  0.0000000000000E+00  0.0000000000000E+00  0.0000000000000E+00  0.0000000000000E+00  0.0000000000000E+00  0.0000000000000E+00 
 9.1448444543281E+04  1.8289688908656E+05  1.8289688908656E+05  1.8289688908656E+05  1.8289688908656E+05  1.8289688908656E+05  1.8289688908656E+05  1.8289688908656E+05  1.8289688908656E+05  9.1448444543281E+04 
 3.6579377817312E+05  7.3158755634625E+05  7.3158755634625E+05  7.3158755634625E+05  7.3158755634625E+05  7.3158755634625E+05  7.3158755634625E+05  7.3158755634625E+05  7.3158755634625E+05  3.6579377817312E+05 
 4.5724222271640E+05  9.1448444543281E+05  9.1448444543281E+05  9.1448444543281E+05  9.1448444543281E+05  9.1448444543281E+05  9.1448444543281E+05  9.1448444543281E+05  9.1448444543281E+05  4.5724222271640E+05 
 3.5000000000000E-01  3.5000000000000E-01  3.5000000000000E-01  3.5000000000000E-01  3.5000000000000E-01  3.5000000000000E-01  3.5000000000000E-01  3.5000000000000E-01  3.5000000000000E-01  3.5000000000000E-01 
 8.5301666666666E+00  1.7060333333333E+01  1.7060333333333E+01  1.7060333333333E+01  1.7060333333333E+01  1.7060333333333E+01  1.7060333333333E+01  1.7060333333333E+01  1.7060333333333E+01  8.5301666666666E+00 
 3.6259831879809E+00  3.6259831879809E+00  3.6259831879809E+00  3.6259831879809E+00  3.6259831879809E+00  3.6259831879809E+00  3.6259831879809E+00  3.6259831879809E+00  3.6259831879809E+00  3.6259831879809E+00 
 4.3744444444444E-05  8.7488888888889E-05  8.7488888888889E-05  8.7488888888889E-05  8.7488888888889E-05  8.7488888888889E-05  8.7488888888889E-05  8.7488888888889E-05  8.7488888888889E-05  4.3744444444444E-05 
 8.6666666666666E+01  8.6666666666666E+01  8.6666666666666E+01  8.6666666666666E+01  8.6666666666666E+01  8.6666666666666E+01  8.6666666666666E+01  8.6666666666666E+01  8.6666666666666E+01  8.6666666666666E+01 
 2.1666666666667E+01  2.1666666666667E+01  2.1666666666667E+01  2.1666666666667E+01  2.1666666666667E+01  2.1666666666667E+01  2.1666666666667E+01  2.1666666666667E+01  2.1666666666667E+01  2.1666666666667E+01 
 0.0000000000000E+00  0.0000000000000E+00  0.0000000000000E+00  0.0000000000000E+00  0.0000000000000E+00  0.0000000000000E+00  0.0000000000000E+00  0.0000000000000E+00  0.0000000000000E+00  0.0000000000000E+00 
 0.0000000000000E+00  0.0000000000000E+00  0.0000000000000E+00  0.0000000000000E+00  0.0000000000000E+00  0.0000000000000E+00  0.0000000000000E+00  0.0000000000000E+00  0.0000000000000E+00  0.0000000000000E+00 
 0.0000000000000E+00  0.0000000000000E+00  0.0000000000000E+00  0.0000000000000E+00  0.0000000000000E+00  0.0000000000000E+00  0.0000000000000E+00  0.0000000000000E+00  0.0000000000000E+00  0.0000000000000E+00 
 0.0000000000000E+00  0.0000000000000E+00  0.0000000000000E+00  0.0000000000000E+00  0.0000000000000E+00  0.0000000000000E+00  0.0000000000000E+00  0.0000000000000E+00  0.0000000000000E+00  0.0000000000000E+00 
 0.0000000000000E+00  0.0000000000000E+00  0.0000000000000E+00  0.0000000000000E+00  0.0000000000000E+00  0.0000000000000E+00  0.0000000000000E+00  0.0000000000000E+00  0.0000000000000E+00  0.0000000000000E+00 
 0.0000000000000E+00  0.0000000000000E+00  0.0000000000000E+00  0.0000000000000E+00  0.0000000000000E+00  0.0000000000000E+00  0.0000000000000E+00  0.0000000000000E+00  0.0000000000000E+00  0.0000000000000E+00 
 0.0000000000000E+00  0.0000000000000E+00  0.0000000000000E+00  0.0000000000000E+00  0.0000000000000E+00  0.0000000000000E+00  0.0000000000000E+00  0.0000000000000E+00  0.0000000000000E+00  0.0000000000000E+00 
ZONE T = "ANOD, 1.0000E-08", I = 10, SOLUTIONTIME = 1.000000E-08
ZONETYPE = ORDERED
DATAPACKING = BLOCK
STRANDID = 1
 0.0000000000000E+00  8.7488888888889E-05  1.7497777777778E-04  2.6246666666667E-04  3.4995555555556E-04  4.3744444444444E-04  5.2493333333333E-04  6.1242222222222E-04  6.9991111111111E-04  7.8740000000000E-04 
 1.1589901636074E-09  3.4762462833130E-09  5.7938742487427E-09  8.1115172831934E-09  1.0428818609624E-08  1.2746511073141E-08  1.5064237897215E-08  1.7381642305791E-08  1.9699093937067E-08  2.0858754598632E-08 
 9.1999999999930E-01  9.1999999999930E-01  9.1999999999930E-01  9.1999999999930E-01  9.1999999999930E-01  9.1999999999930E-01  9.1999999999930E-01  9.1999999999930E-01  9.1999999999930E-01  9.1999999999971E-01 
 4.0000000000348E-02  4.0000000000348E-02  4.0000000000348E-02  4.0000000000348E-02  4.0000000000348E-02  4.0000000000348E-02  4.0000000000348E-02  4.0000000000348E-02  4.0000000000348E-02  4.0000000000144E-02 
 4.0000000000348E-02  4.0000000000348E-02  4.0000000000348E-02  4.0000000000348E-02  4.0000000000348E-02  4.0000000000348E-02  4.0000000000348E-02  4.0000000000348E-02  4.0000000000348E-02  4.0000000000144E-02 
 2.9167370854141E-02  2.9167355127055E-02  2.9167307945768E-02  2.9167229310163E-02  2.9167119220034E-02  2.9166977675090E-02  2.9166804674953E-02  2.9166600219156E-02  2.9166364307144E-02  2.9166096938279E-02 
 0.0000000000000E+00 -4.7371210102744E-09 -8.9169542171027E-09 -1.2539497543710E-08 -1.5604747367213E-08 -1.8112698518700E-08 -2.0063344283379E-08 -2.1456676400308E-08 -2.2292685062280E-08 -2.2571358916047E-08 
-2.9167370854141E-02 -2.9167359864177E-02 -2.9167316862723E-02 -2.9167241849660E-02 -2.9167134824781E-02 -2.9166995787789E-02 -2.9166824738297E-02 -2.9166621675832E-02 -2.9166386599830E-02 -2.9166119509638E-02 
-4.0906712752892E-02 -4.0906712752896E-02 -4.0906712752892E-02 -4.0906712752892E-02 -4.0906712752892E-02 -4.0906712752896E-02 -4.0906712752896E-02 -4.0906712752892E-02 -4.0906712752892E-02 -4.0906712753023E-02 
 1.1739341898750E-02  1.1739352888719E-02  1.1739395890169E-02  1.1739470903231E-02  1.1739577928110E-02  1.1739716965107E-02  1.1739888014599E-02  1.1740091077060E-02  1.1740326153062E-02  1.1740593243385E-02 
 1.6690491449387E+00  3.3381014690690E+00  3.3381139085882E+00  3.3381356084747E+00  3.3381665687976E+00  3.3382067896557E+00  3.3382562711781E+00  3.3383150135230E+00  3.3383830168771E+00  1.6692301407289E+00 
 8.6491803248476E-09  2.5947557451489E-08  4.3245999038582E-08  6.0544553086111E-08  7.7843267572203E-08  9.5142190493365E-08  1.1244136983243E-07  1.2974085359422E-07  1.4704076187722E-07  1.4704076187722E-07 
 0.0000000000000E+00  3.3380778849709E+00  6.6761635789963E+00  1.0014266343293E+01  1.3352395438341E+01  1.6690560124438E+01  2.0028769661879E+01  2.3367033312065E+01  2.6705360336545E+01  3.0043770990639E+01 
 3.0043770993150E+01  2.6705682111008E+01  2.3367596416798E+01  2.0029493652492E+01  1.6691364557347E+01  1.3353199871304E+01  1.0014990333940E+01  6.6767266836770E+00  3.3383996592621E+00  0.0000000000000E+00 
 1.6690491449387E-08  3.3381014690690E-08  3.3381139085882E-08  3.3381356084747E-08  3.3381665687976E-08  3.3382067896557E-08  3.3382562711781E-08  3.3383150135230E-08  3.3383830168771E-08  1.6692301407289E-08 
 9.1448444543298E+04  1.8289688908659E+05  1.8289688908660E+05  1.8289688908660E+05  1.8289688908660E+05  1.8289688908660E+05  1.8289688908660E+05  1.8289688908660E+05  1.8289688908660E+05  9.1448444543298E+04 
 3.6579377817311E+05  7.3158755634621E+05  7.3158755634621E+05  7.3158755634621E+05  7.3158755634621E+05  7.3158755634621E+05  7.3158755634621E+05  7.3158755634621E+05  7.3158755634621E+05  3.6579377817311E+05 
 4.5724222271640E+05  9.1448444543281E+05  9.1448444543281E+05  9.1448444543281E+05  9.1448444543281E+05  9.1448444543281E+05  9.1448444543281E+05  9.1448444543281E+05  9.1448444543281E+05  4.5724222271640E+05 
 3.5000000000000E-01  3.5000000000000E-01  3.5000000000000E-01  3.5000000000000E-01  3.5000000000000E-01  3.5000000000000E-01  3.5000000000000E-01  3.5000000000000E-01  3.5000000000000E-01  3.5000000000000E-01 
 8.5301666666666E+00  1.7060333333333E+01  1.7060333333333E+01  1.7060333333333E+01  1.7060333333333E+01  1.7060333333333E+01  1.7060333333333E+01  1.7060333333333E+01  1.7060333333333E+01  8.5301666666666E+00 
 1.9566430647374E-01  1.9566449282365E-01  1.9566522197231E-01  1.9566649392204E-01  1.9566830867691E-01  1.9567066624269E-01  1.9567356662696E-01  1.9567700983898E-01  1.9568099588971E-01  1.9568552479188E-01 
 4.3744444444444E-05  8.7488888888889E-05  8.7488888888889E-05  8.7488888888889E-05  8.7488888888889E-05  8.7488888888889E-05  8.7488888888889E-05  8.7488888888889E-05  8.7488888888889E-05  4.3744444444444E-05 
 8.6666666666662E+01  8.6666666666662E+01  8.6666666666662E+01  8.6666666666662E+01  8.6666666666662E+01  8.6666666666662E+01  8.6666666666662E+01  8.6666666666662E+01  8.6666666666662E+01  8.6666666666662E+01 
 2.1666666666671E+01  2.1666666666671E+01  2.1666666666671E+01  2.1666666666671E+01  2.1666666666671E+01  2.1666666666671E+01  2.1666666666671E+01  2.1666666666671E+01  2.1666666666671E+01  2.1666666666671E+01 
 1.8363885869381E-11  2.8663916447220E-11  6.1477851784173E-11  1.1871978532095E-10  2.0039035226177E-10  3.0649045888144E-10  4.3702128252889E-10  5.9198427169751E-10  7.7138114600780E-10  8.6718828634043E-10 
 1.8363885869381E-03  2.8663916447220E-03  6.1477851784173E-03  1.1871978532095E-02  2.0039035226177E-02  3.0649045888144E-02  4.3702128252889E-02  5.9198427169751E-02  7.7138114600780E-02  8.6718828634043E-02 
 3.0002788176834E-04  1.5001411228244E-03  5.1004925983309E-03  1.1101119131105E-02  1.9502084179092E-02  3.0303477835333E-02  4.3505416828389E-02  5.9108044529356E-02  7.7111530950039E-02  8.6713511756230E-02 
 1.5363607051698E-03  1.3662505218976E-03  1.0472925800865E-03  7.7085940098999E-04  5.3695104708525E-04  3.4556805281028E-04  1.9671142450031E-04  9.0382640394369E-05  2.6583650741574E-05  5.3168778125855E-06 
 0.0000000000000E+00  0.0000000000000E+00  0.0000000000000E+00  0.0000000000000E+00  0.0000000000000E+00  0.0000000000000E+00  0.0000000000000E+00  0.0000000000000E+00  0.0000000000000E+00  0.0000000000000E+00 
 0.0000000000000E+00  0.0000000000000E+00  0.0000000000000E+00  0.0000000000000E+00  0.0000000000000E+00  0.0000000000000E+00  0.0000000000000E+00  0.0000000000000E+00  0.0000000000000E+00  0.0000000000000E+00 
 0.0000000000000E+00  0.0000000000000E+00  0.0000000000000E+00  0.0000000000000E+00  0.0000000000000E+00  0.0000000000000E+00  0.0000000000000E+00  0.0000000000000E+00  0.0000000000000E+00  0.0000000000000E+00 
ZONE T = "ANOD, 2.0000E-08", I = 10, SOLUTIONTIME = 2.000000E-08
ZONETYPE = ORDERED
DATAPACKING = BLOCK
STRANDID = 1
 0.0000000000000E+00  8.7488888888889E-05  1.7497777777778E-04  2.6246666666667E-04  3.4995555555556E-04  4.3744444444444E-04  5.2493333333333E-04  6.1242222222222E-04  6.9991111111111E-04  7.8740000000000E-04 
 1.1589975177543E-09  3.4769947609266E-09  5.7950006422308E-09  8.1130215921625E-09  1.0431064041265E-08  1.2749134420152E-08  1.5067239159524E-08  1.7385384690192E-08  1.9703577443099E-08  2.0863245457820E-08 
 9.1999999999861E-01  9.1999999999861E-01  9.1999999999861E-01  9.1999999999861E-01  9.1999999999861E-01  9.1999999999861E-01  9.1999999999861E-01  9.1999999999861E-01  9.1999999999861E-01  9.1999999999942E-01 
 4.0000000000696E-02  4.0000000000696E-02  4.0000000000696E-02  4.0000000000696E-02  4.0000000000696E-02  4.0000000000696E-02  4.0000000000696E-02  4.0000000000696E-02  4.0000000000696E-02  4.0000000000288E-02 
 4.0000000000696E-02  4.0000000000696E-02  4.0000000000696E-02  4.0000000000696E-02  4.0000000000696E-02  4.0000000000696E-02  4.0000000000696E-02  4.0000000000696E-02  4.0000000000696E-02  4.0000000000288E-02 
 2.9167373666107E-02  2.9167357938922E-02  2.9167310757335E-02  2.9167232121231E-02  2.9167122030403E-02  2.9166980484562E-02  2.9166807483327E-02  2.9166603026232E-02  2.9166367112724E-02  2.9166099742162E-02 
 0.0000000000000E+00 -4.7371510660620E-09 -8.9170107925202E-09 -1.2539577102601E-08 -1.5604846373514E-08 -1.8112813436445E-08 -2.0063471576532E-08 -2.1456812532852E-08 -2.2292826498388E-08 -2.2571502120000E-08 
-2.9167373666107E-02 -2.9167362676073E-02 -2.9167319674346E-02 -2.9167244660808E-02 -2.9167137635250E-02 -2.9166998597375E-02 -2.9166827546798E-02 -2.9166624483044E-02 -2.9166389405551E-02 -2.9166122313664E-02 
-4.0906712752393E-02 -4.0906712752393E-02 -4.0906712752393E-02 -4.0906712752393E-02 -4.0906712752390E-02 -4.0906712752390E-02 -4.0906712752390E-02 -4.0906712752390E-02 -4.0906712752390E-02 -4.0906712752653E-02 
 1.1739339086285E-02  1.1739350076320E-02  1.1739393078047E-02  1.1739468091585E-02  1.1739575117141E-02  1.1739714155015E-02  1.1739885205592E-02  1.1740088269346E-02  1.1740323346840E-02  1.1740590438988E-02 
 1.6690487381541E+00  3.3381006555199E+00  3.3381130951179E+00  3.3381347951417E+00  3.3381657556601E+00  3.3382059767735E+00  3.3382554586092E+00  3.3383142013256E+00  3.3383822051102E+00  1.6692297351049E+00 
 8.6492352016479E-09  2.5947722098543E-08  4.3246273447215E-08  6.0544937250253E-08  7.7843761499305E-08  9.5142794177553E-08  1.1244208327507E-07  1.2974167679341E-07  1.4704176694028E-07  1.4704176694028E-07 
 0.0000000000000E+00  3.3380990658038E+00  6.6762059412144E+00  1.0014329886344E+01  1.3352480161857E+01  1.6690666028050E+01  2.0028896745587E+01  2.3367181575686E+01  2.6705529778938E+01  3.0043950616499E+01 
 3.0043950616517E+01  2.6705851550603E+01  2.3367744675284E+01  2.0029620730154E+01  1.6691470454753E+01  1.3353284588537E+01  1.0015053870845E+01  6.6767690408779E+00  3.3384208376600E+00  0.0000000000000E+00 
 3.3380978830928E-08  6.6762021245889E-08  6.6762270037061E-08  6.6762704036164E-08  6.6763323244577E-08  6.6764127664291E-08  6.6765117297874E-08  6.6766292148486E-08  6.6767652219873E-08  3.3384598758338E-08 
 9.1448444543314E+04  1.8289688908663E+05  1.8289688908663E+05  1.8289688908663E+05  1.8289688908663E+05  1.8289688908663E+05  1.8289688908663E+05  1.8289688908663E+05  1.8289688908663E+05  9.1448444543314E+04 
 3.6579377817309E+05  7.3158755634618E+05  7.3158755634618E+05  7.3158755634618E+05  7.3158755634618E+05  7.3158755634618E+05  7.3158755634618E+05  7.3158755634618E+05  7.3158755634618E+05  3.6579377817309E+05 
 4.5724222271640E+05  9.1448444543281E+05  9.1448444543281E+05  9.1448444543281E+05  9.1448444543281E+05  9.1448444543281E+05  9.1448444543281E+05  9.1448444543281E+05  9.1448444543281E+05  4.5724222271640E+05 
 3.5000000000000E-01  3.5000000000000E-01  3.5000000000000E-01  3.5000000000000E-01  3.5000000000000E-01  3.5000000000000E-01  3.5000000000000E-01  3.5000000000000E-01  3.5000000000000E-01  3.5000000000000E-01 
 8.5301666666666E+00  1.7060333333333E+01  1.7060333333333E+01  1.7060333333333E+01  1.7060333333333E+01  1.7060333333333E+01  1.7060333333333E+01  1.7060333333333E+01  1.7060333333333E+01  8.5301666666666E+00 
 1.9566425878597E-01  1.9566444513706E-01  1.9566517429034E-01  1.9566644624812E-01  1.9566826101445E-01  1.9567061859519E-01  1.9567351899783E-01  1.9567696223162E-01  1.9568094830759E-01  1.9568547724017E-01 
 4.3744444444444E-05  8.7488888888889E-05  8.7488888888889E-05  8.7488888888889E-05  8.7488888888889E-05  8.7488888888889E-05  8.7488888888889E-05  8.7488888888889E-05  8.7488888888889E-05  4.3744444444444E-05 
 8.6666666666658E+01  8.6666666666658E+01  8.6666666666658E+01  8.6666666666658E+01  8.6666666666658E+01  8.6666666666658E+01  8.6666666666658E+01  8.6666666666658E+01  8.6666666666658E+01  8.6666666666658E+01 
 2.1666666666674E+01  2.1666666666674E+01  2.1666666666674E+01  2.1666666666674E+01  2.1666666666674E+01  2.1666666666674E+01  2.1666666666674E+01  2.1666666666674E+01  2.1666666666674E+01  2.1666666666674E+01 
 3.6728004769114E-11  5.7328196640339E-11  1.2295648374640E-10  2.3744107724739E-10  4.0078324755125E-10  6.1298480720229E-10  8.7404811091763E-10  1.1839760556782E-09  1.5427720806811E-09  1.7343875770254E-09 
 1.8364118899733E-03  2.8664280193119E-03  6.1478631962225E-03  1.1872129192644E-02  2.0039289528948E-02  3.0649434832086E-02  4.3702682838874E-02  5.9199178398071E-02  7.7139093467332E-02  8.6719929068500E-02 
 6.0005957090039E-04  3.0003012832725E-03  1.0201049925074E-02  2.2202379141246E-02  3.9004415847618E-02  6.0607340229787E-02  8.7011385746803E-02  1.1821683914025E-01  1.5422404042934E-01  1.7342812387946E-01 
 3.0727409060111E-03  2.7325183807614E-03  2.0945984495659E-03  1.5417285834932E-03  1.0739089075066E-03  6.9114049044225E-04  3.9342534496017E-04  1.8076642757171E-04  5.3167638772073E-05  1.0633823083609E-05 
 0.0000000000000E+00  0.0000000000000E+00  0.0000000000000E+00  0.0000000000000E+00  0.0000000000000E+00  0.0000000000000E+00  0.0000000000000E+00  0.0000000000000E+00  0.0000000000000E+00  0.0000000000000E+00 
 0.0000000000000E+00  0.0000000000000E+00  0.0000000000000E+00  0.0000000000000E+00  0.0000000000000E+00  0.0000000000000E+00  0.0000000000000E+00  0.0000000000000E+00  0.0000000000000E+00  0.0000000000000E+00 
 0.0000000000000E+00  0.0000000000000E+00  0.0000000000000E+00  0.0000000000000E+00  0.0000000000000E+00  0.0000000000000E+00  0.0000000000000E+00  0.0000000000000E+00  0.0000000000000E+00  0.0000000000000E+00 
ZONE T = "ANOD, 3.0000E-08", I = 10, SOLUTIONTIME = 3.000000E-08
ZONETYPE = ORDERED
DATAPACKING = BLOCK
STRANDID = 1
 0.0000000000000E+00  8.7488888888889E-05  1.7497777777778E-04  2.6246666666667E-04  3.4995555555556E-04  4.3744444444444E-04  5.2493333333333E-04  6.1242222222222E-04  6.9991111111111E-04  7.8740000000000E-04 
 1.1589975177340E-09  3.4769947608661E-09  5.7950006421299E-09  8.1130215920212E-09  1.0431064041084E-08  1.2749134419930E-08  1.5067239159263E-08  1.7386111105347E-08  1.9705030273670E-08  2.0863608665198E-08 
 9.1999999999791E-01  9.1999999999791E-01  9.1999999999791E-01  9.1999999999791E-01  9.1999999999791E-01  9.1999999999791E-01  9.1999999999791E-01  9.1999999999791E-01  9.1999999999791E-01  9.1999999999914E-01 
 4.0000000001045E-02  4.0000000001045E-02  4.0000000001045E-02  4.0000000001045E-02  4.0000000001045E-02  4.0000000001045E-02  4.0000000001045E-02  4.0000000001045E-02  4.0000000001045E-02  4.0000000000432E-02 
 4.0000000001045E-02  4.0000000001045E-02  4.0000000001045E-02  4.0000000001045E-02  4.0000000001045E-02  4.0000000001045E-02  4.0000000001045E-02  4.0000000001045E-02  4.0000000001045E-02  4.0000000000432E-02 
 2.9167373665895E-02  2.9167357938709E-02  2.9167310757123E-02  2.9167232121018E-02  2.9167122030191E-02  2.9166980484349E-02  2.9166807483114E-02  2.9166603026020E-02  2.9166367112512E-02  2.9166099741950E-02 
 0.0000000000000E+00 -4.7371510659827E-09 -8.9170107923712E-09 -1.2539577102392E-08 -1.5604846373255E-08 -1.8112813436145E-08 -2.0063471576202E-08 -2.1456812532500E-08 -2.2292826498024E-08 -2.2571502119634E-08 
-2.9167373665895E-02 -2.9167362675861E-02 -2.9167319674134E-02 -2.9167244660595E-02 -2.9167137635037E-02 -2.9166998597163E-02 -2.9166827546586E-02 -2.9166624482832E-02 -2.9166389405338E-02 -2.9166122313452E-02 
-4.0906712751889E-02 -4.0906712751893E-02 -4.0906712751889E-02 -4.0906712751889E-02 -4.0906712751893E-02 -4.0906712751891E-02 -4.0906712751891E-02 -4.0906712751893E-02 -4.0906712751893E-02 -4.0906712752287E-02 
 1.1739339085994E-02  1.1739350076033E-02  1.1739393077755E-02  1.1739468091294E-02  1.1739575116856E-02  1.1739714154728E-02  1.1739885205305E-02  1.1740088269061E-02  1.1740323346555E-02  1.1740590438835E-02 
 1.6690487381250E+00  3.3381006554621E+00  3.3381130950596E+00  3.3381347950835E+00  3.3381657556030E+00  3.3382059767158E+00  3.3382554585515E+00  3.3383142012684E+00  3.3383822050530E+00  1.6692297350910E+00 
 8.6492352036313E-09  2.5947722096860E-08  4.3246273447592E-08  6.0544937245048E-08  7.7843761499990E-08  9.5142794171963E-08  1.1244208327414E-07  1.2974167678847E-07  1.4704183905688E-07  1.4704183905688E-07 
 0.0000000000000E+00  3.3380990658328E+00  6.6762059410884E+00  1.0014329886247E+01  1.3352480161421E+01  1.6690666027643E+01  2.0028896745394E+01  2.3367181575337E+01  2.6705529778398E+01  3.0043950615923E+01 
 3.0043950616013E+01  2.6705851550157E+01  2.3367744674896E+01  2.0029620729824E+01  1.6691470454481E+01  1.3353284588322E+01  1.0015053870688E+01  6.6767690407783E+00  3.3384208376175E+00  0.0000000000000E+00 
 5.0071466212178E-08  1.0014302780051E-07  1.0014340098766E-07  1.0014405198700E-07  1.0014498080061E-07  1.0014618743145E-07  1.0014767188339E-07  1.0014943416117E-07  1.0015147427040E-07  5.0076896109248E-08 
 9.1448444543331E+04  1.8289688908666E+05  1.8289688908666E+05  1.8289688908666E+05  1.8289688908666E+05  1.8289688908666E+05  1.8289688908666E+05  1.8289688908666E+05  1.8289688908666E+05  9.1448444543331E+04 
 3.6579377817307E+05  7.3158755634615E+05  7.3158755634615E+05  7.3158755634615E+05  7.3158755634615E+05  7.3158755634615E+05  7.3158755634615E+05  7.3158755634615E+05  7.3158755634615E+05  3.6579377817307E+05 
 4.5724222271640E+05  9.1448444543281E+05  9.1448444543281E+05  9.1448444543281E+05  9.1448444543281E+05  9.1448444543281E+05  9.1448444543281E+05  9.1448444543281E+05  9.1448444543281E+05  4.5724222271640E+05 
 3.5000000000000E-01  3.5000000000000E-01  3.5000000000000E-01  3.5000000000000E-01  3.5000000000000E-01  3.5000000000000E-01  3.5000000000000E-01  3.5000000000000E-01  3.5000000000000E-01  3.5000000000000E-01 
 8.5301666666666E+00  1.7060333333333E+01  1.7060333333333E+01  1.7060333333333E+01  1.7060333333333E+01  1.7060333333333E+01  1.7060333333333E+01  1.7060333333333E+01  1.7060333333333E+01  8.5301666666666E+00 
 1.9566425878255E-01  1.9566444513367E-01  1.9566517428692E-01  1.9566644624471E-01  1.9566826101110E-01  1.9567061859181E-01  1.9567351899444E-01  1.9567696222827E-01  1.9568094830424E-01  1.9568547723855E-01 
 4.3744444444444E-05  8.7488888888889E-05  8.7488888888889E-05  8.7488888888889E-05  8.7488888888889E-05  8.7488888888889E-05  8.7488888888889E-05  8.7488888888889E-05  8.7488888888889E-05  4.3744444444444E-05 
 8.6666666666654E+01  8.6666666666654E+01  8.6666666666654E+01  8.6666666666654E+01  8.6666666666654E+01  8.6666666666654E+01  8.6666666666654E+01  8.6666666666654E+01  8.6666666666654E+01  8.6666666666654E+01 
 2.1666666666678E+01  2.1666666666678E+01  2.1666666666678E+01  2.1666666666678E+01  2.1666666666678E+01  2.1666666666678E+01  2.1666666666678E+01  2.1666666666678E+01  2.1666666666678E+01  2.1666666666678E+01 
 5.5092123669683E-11  8.5992476831808E-11  1.8443511570673E-10  3.5616236916991E-10  6.0117614282570E-10  9.1947915550648E-10  1.3110749392942E-09  1.7759678396356E-09  2.3141630153177E-09  2.6015868676707E-09 
 1.8364118900569E-03  2.8664280191470E-03  6.1478631960335E-03  1.1872129192252E-02  2.0039289527445E-02  3.0649434830419E-02  4.3702682837658E-02  5.9199178395737E-02  7.7139093463656E-02  8.6719929064532E-02 
 9.0009126016743E-04  4.5004614436013E-03  1.5301607251663E-02  3.3303639151020E-02  5.8506747514659E-02  9.0911202622585E-02  1.3051735466401E-01  1.7732563374881E-01  2.3133654990497E-01  2.6014273599872E-01 
 4.6091211068009E-03  4.0987862395795E-03  3.1419043190106E-03  2.3125977659710E-03  1.6108667679104E-03  1.0367129280631E-03  5.9013926541383E-04  2.7115021474632E-04  7.9751626801848E-05  1.5950768354544E-05 
 0.0000000000000E+00  0.0000000000000E+00  0.0000000000000E+00  0.0000000000000E+00  0.0000000000000E+00  0.0000000000000E+00  0.0000000000000E+00  0.0000000000000E+00  0.0000000000000E+00  0.0000000000000E+00 
 0.0000000000000E+00  0.0000000000000E+00  0.0000000000000E+00  0.0000000000000E+00  0.0000000000000E+00  0.0000000000000E+00  0.0000000000000E+00  0.0000000000000E+00  0.0000000000000E+00  0.0000000000000E+00 
 0.0000000000000E+00  0.0000000000000E+00  0.0000000000000E+00  0.0000000000000E+00  0.0000000000000E+00  0.0000000000000E+00  0.0000000000000E+00  0.0000000000000E+00  0.0000000000000E+00  0.0000000000000E+00 
ZONE T = "ANOD, 4.0000E-08", I = 10, SOLUTIONTIME = 4.000000E-08
ZONETYPE = ORDERED
DATAPACKING = BLOCK
STRANDID = 1
 0.0000000000000E+00  8.7488888888889E-05  1.7497777777778E-04  2.6246666666667E-04  3.4995555555556E-04  4.3744444444444E-04  5.2493333333333E-04  6.1242222222222E-04  6.9991111111111E-04  7.8740000000000E-04 
 1.1591791215779E-09  3.4768131569421E-09  5.7940926227103E-09  8.1124767802894E-09  1.0430156021585E-08  1.2747499984936E-08  1.5065604724228E-08  1.7383750254817E-08  1.9701943007644E-08  2.0861066210754E-08 
 9.1999999999721E-01  9.1999999999721E-01  9.1999999999721E-01  9.1999999999721E-01  9.1999999999721E-01  9.1999999999721E-01  9.1999999999721E-01  9.1999999999721E-01  9.1999999999721E-01  9.1999999999885E-01 
 4.0000000001393E-02  4.0000000001393E-02  4.0000000001393E-02  4.0000000001393E-02  4.0000000001393E-02  4.0000000001393E-02  4.0000000001393E-02  4.0000000001393E-02  4.0000000001393E-02  4.0000000000576E-02 
 4.0000000001393E-02  4.0000000001393E-02  4.0000000001393E-02  4.0000000001393E-02  4.0000000001393E-02  4.0000000001393E-02  4.0000000001393E-02  4.0000000001393E-02  4.0000000001393E-02  4.0000000000576E-02 
 2.9167373665684E-02  2.9167357938499E-02  2.9167310756912E-02  2.9167232120808E-02  2.9167122029980E-02  2.9166980484139E-02  2.9166807482904E-02  2.9166603025809E-02  2.9166367112301E-02  2.9166099741739E-02 
 0.0000000000000E+00 -4.7371510659035E-09 -8.9170107922225E-09 -1.2539577102183E-08 -1.5604846372996E-08 -1.8112813435845E-08 -2.0063471575871E-08 -2.1456812532147E-08 -2.2292826497659E-08 -2.2571502119267E-08 
-2.9167373665684E-02 -2.9167362675650E-02 -2.9167319673923E-02 -2.9167244660385E-02 -2.9167137634827E-02 -2.9166998596952E-02 -2.9166827546375E-02 -2.9166624482622E-02 -2.9166389405128E-02 -2.9166122313241E-02 
-4.0906712751392E-02 -4.0906712751395E-02 -4.0906712751392E-02 -4.0906712751392E-02 -4.0906712751397E-02 -4.0906712751395E-02 -4.0906712751395E-02 -4.0906712751397E-02 -4.0906712751397E-02 -4.0906712751922E-02 
 1.1739339085707E-02  1.1739350075745E-02  1.1739393077468E-02  1.1739468091007E-02  1.1739575116570E-02  1.1739714154443E-02  1.1739885205020E-02  1.1740088268776E-02  1.1740323346270E-02  1.1740590438680E-02 
 1.6690487380962E+00  3.3381006554042E+00  3.3381130950020E+00  3.3381347950259E+00  3.3381657555455E+00  3.3382059766583E+00  3.3382554584941E+00  3.3383142012109E+00  3.3383822049956E+00  1.6692297350770E+00 