TITLE = "Solution on Domain BulkDomain1D_0"
VARIABLES = "x [m]"  
"Vel_axial" 
"MF_sp(ECDMC)" 
"MF_sp(Li+)" 
"MF_sp(PF6-)" 
"Volt(Electroly)" 
"Volt(AnodeVolt)" 
"Potential Drop Electrode-Electrolyte [V]" 
"Surf_0 Equilibrium Potential Drop Electrode-Electrolyte [V]" 
"Overpotential_0 [V]" 
"Current Source [A/m^2]" 
"Li+ flux [kmol/m^2/s]" 
"Electrolyte Current [A/m^2]" 
"Electrode Current [A/m^2]" 
"CV Capacity discharged [A-s/m^2]" 
"Depth of discharge in CV [A-s/m^2]" 
"CV Capacity remaining [A-s/m^2]" 
"Initial CV capacity [A-s/m^2]" 
"Porosity []" 
"Surface Area [m2/m2] (area per area)" 
"Specific current (per particle area) [A/m^2]" 
"Control volume thickness [m]" 
"MoleDens Li_C6-bulk [kmol/m^3]" 
"MoleDens V_C6-bulk [kmol/m^3]" 
"qHeat_accum [J/m3]" 
"qHeat_step [W/m3]" 
"Joule_Lyte [W/m3]" 
"Joule_Solid [W/m3]" 
"electrodHeat [W/m3]" 
"OverpotHeat [W/m3]" 
"deltaSHeat [W/m3]" 

ZONE T = "ANOD, 0.0000E+00", I = 10, SOLUTIONTIME = 0.000000E+00
ZONETYPE = ORDERED
DATAPACKING = BLOCK
STRANDID = 1
 0.0000000000000E+00  8.7488888888889E-05  1.7497777777778E-04  2.6246666666667E-04  3.4995555555556E-04  4.3744444444444E-04  5.2493333333333E-04  6.1242222222222E-04  6.9991111111111E-04  7.8740000000000E-04 
 0.0000000000000E+00  0.0000000000000E+00  0.0000000000000E+00  0.0000000000000E+00  0.0000000000000E+00  0.0000000000000E+00  0.0000000000000E+00  0.0000000000000E+00  0.0000000000000E+00  0.0000000000000E+00 
 9.2000000000000E-01  9.2000000000000E-01  9.2000000000000E-01  9.2000000000000E-01  9.2000000000000E-01  9.2000000000000E-01  9.2000000000000E-01  9.2000000000000E-01  9.2000000000000E-01  9.2000000000000E-01 
 4.0000000000000E-02  4.0000000000000E-02  4.0000000000000E-02  4.0000000000000E-02  4.0000000000000E-02  4.0000000000000E-02  4.0000000000000E-02  4.0000000000000E-02  4.0000000000000E-02  4.0000000000000E-02 
 4.0000000000000E-02  4.0000000000000E-02  4.0000000000000E-02  4.0000000000000E-02  4.0000000000000E-02  4.0000000000000E-02  4.0000000000000E-02  4.0000000000000E-02  4.0000000000000E-02  4.0000000000000E-02 
-7.0000000000000E-02 -7.0000000000000E-02 -7.0000000000000E-02 -7.0000000000000E-02 -7.0000000000000E-02 -7.0000000000000E-02 -7.0000000000000E-02 -7.0000000000000E-02 -7.0000000000000E-02 -7.0000000000000E-02 
 0.0000000000000E+00  0.0000000000000E+00  0.0000000000000E+00  0.0000000000000E+00  0.0000000000000E+00  0.0000000000000E+00  0.0000000000000E+00  0.0000000000000E+00  0.0000000000000E+00  0.0000000000000E+00 
 7.0000000000000E-02  7.0000000000000E-02  7.0000000000000E-02  7.0000000000000E-02  7.0000000000000E-02  7.0000000000000E-02  7.0000000000000E-02  7.0000000000000E-02  7.0000000000000E-02  7.0000000000000E-02 
-4.0906712753390E-02 -4.0906712753390E-02 -4.0906712753390E-02 -4.0906712753390E-02 -4.0906712753390E-02 -4.0906712753390E-02 -4.0906712753390E-02 -4.0906712753390E-02 -4.0906712753390E-02 -4.0906712753390E-02 
 1.1090671275339E-01  1.1090671275339E-01  1.1090671275339E-01  1.1090671275339E-01  1.1090671275339E-01  1.1090671275339E-01  1.1090671275339E-01  1.1090671275339E-01  1.1090671275339E-01  1.1090671275339E-01 
 3.0930240924008E+01  6.1860481848016E+01  6.1860481848016E+01  6.1860481848016E+01  6.1860481848016E+01  6.1860481848016E+01  6.1860481848016E+01  6.1860481848016E+01  6.1860481848016E+01  3.0930240924008E+01 
-0.0000000000000E+00 -0.0000000000000E+00 -0.0000000000000E+00 -0.0000000000000E+00 -0.0000000000000E+00 -0.0000000000000E+00 -0.0000000000000E+00 -0.0000000000000E+00 -0.0000000000000E+00 -0.0000000000000E+00 
 0.0000000000000E+00  0.0000000000000E+00  0.0000000000000E+00  0.0000000000000E+00  0.0000000000000E+00  0.0000000000000E+00  0.0000000000000E+00  0.0000000000000E+00  0.0000000000000E+00  3.0930240924008E+01 
 3.0930240924008E+01 -0.0000000000000E+00 -0.0000000000000E+00 -0.0000000000000E+00 -0.0000000000000E+00 -0.0000000000000E+00 -0.0000000000000E+00 -0.0000000000000E+00 -0.0000000000000E+00  0.0000000000000E+00 
 0.0000000000000E+00  0.0000000000000E+00  0.0000000000000E+00  0.0000000000000E+00  0.0000000000000E+00  0.0000000000000E+00  0.0000000000000E+00  0.0000000000000E+00  0.0000000000000E+00  0.0000000000000E+00 
 9.1448444543281E+04  1.8289688908656E+05  1.8289688908656E+05  1.8289688908656E+05  1.8289688908656E+05  1.8289688908656E+05  1.8289688908656E+05  1.8289688908656E+05  1.8289688908656E+05  9.1448444543281E+04 
 3.6579377817312E+05  7.3158755634625E+05  7.3158755634625E+05  7.3158755634625E+05  7.3158755634625E+05  7.3158755634625E+05  7.3158755634625E+05  7.3158755634625E+05  7.3158755634625E+05  3.6579377817312E+05 
 4.5724222271640E+05  9.1448444543281E+05  9.1448444543281E+05  9.1448444543281E+05  9.1448444543281E+05  9.1448444543281E+05  9.1448444543281E+05  9.1448444543281E+05  9.1448444543281E+05  4.5724222271640E+05 
 3.5000000000000E-01  3.5000000000000E-01  3.5000000000000E-01  3.5000000000000E-01  3.5000000000000E-01  3.5000000000000E-01  3.5000000000000E-01  3.5000000000000E-01  3.5000000000000E-01  3.5000000000000E-01 
 8.5301666666666E+00  1.7060333333333E+01  1.7060333333333E+01  1.7060333333333E+01  1.7060333333333E+01  1.7060333333333E+01  1.7060333333333E+01  1.7060333333333E+01  1.7060333333333E+01  8.5301666666666E+00 
 3.6259831879809E+00  3.6259831879809E+00  3.6259831879809E+00  3.6259831879809E+00  3.6259831879809E+00  3.6259831879809E+00  3.6259831879809E+00  3.6259831879809E+00  3.6259831879809E+00  3.6259831879809E+00 
 4.3744444444444E-05  8.7488888888889E-05  8.7488888888889E-05  8.7488888888889E-05  8.7488888888889E-05  8.7488888888889E-05  8.7488888888889E-05  8.7488888888889E-05  8.7488888888889E-05  4.3744444444444E-05 
 8.6666666666666E+01  8.6666666666666E+01  8.6666666666666E+01  8.6666666666666E+01  8.6666666666666E+01  8.6666666666666E+01  8.6666666666666E+01  8.6666666666666E+01  8.6666666666666E+01  8.6666666666666E+01 
 2.1666666666667E+01  2.1666666666667E+01  2.1666666666667E+01  2.1666666666667E+01  2.1666666666667E+01  2.1666666666667E+01  2.1666666666667E+01  2.1666666666667E+01  2.1666666666667E+01  2.1666666666667E+01 
 0.0000000000000E+00  0.0000000000000E+00  0.0000000000000E+00  0.0000000000000E+00  0.0000000000000E+00  0.0000000000000E+00  0.0000000000000E+00  0.0000000000000E+00  0.0000000000000E+00  0.0000000000000E+00 
 0.0000000000000E+00  0.0000000000000E+00  0.0000000000000E+00  0.0000000000000E+00  0.0000000000000E+00  0.0000000000000E+00  0.0000000000000E+00  0.0000000000000E+00  0.0000000000000E+00  0.0000000000000E+00 
 0.0000000000000E+00  0.0000000000000E+00  0.0000000000000E+00  0.0000000000000E+00  0.0000000000000E+00  0.0000000000000E+00  0.0000000000000E+00  0.0000000000000E+00  0.0000000000000E+00  0.0000000000000E+00 
 0.0000000000000E+00  0.0000000000000E+00  0.0000000000000E+00  0.0000000000000E+00  0.0000000000000E+00  0.0000000000000E+00  0.0000000000000E+00  0.0000000000000E+00  0.0000000000000E+00  0.0000000000000E+00 
 0.0000000000000E+00  0.0000000000000E+00  0.0000000000000E+00  0.0000000000000E+00  0.0000000000000E+00  0.0000000000000E+00  0.0000000000000E+00  0.0000000000000E+00  0.0000000000000E+00  0.0000000000000E+00 
 0.0000000000000E+00  0.0000000000000E+00  0.0000000000000E+00  0.0000000000000E+00  0.0000000000000E+00  0.0000000000000E+00  0.0000000000000E+00  0.0000000000000E+00  0.0000000000000E+00  0.0000000000000E+00 
 0.0000000000000E+00  0.0000000000000E+00  0.0000000000000E+00  0.0000000000000E+00  0.0000000000000E+00  0.0000000000000E+00  0.0000000000000E+00  0.0000000000000E+00  0.0000000000000E+00  0.0000000000000E+00 
ZONE T = "ANOD, 1.0000E-08", I = 10, SOLUTIONTIME = 1.000000E-08
ZONETYPE = ORDERED
DATAPACKING = BLOCK
STRANDID = 1
 0.0000000000000E+00  8.7488888888889E-05  1.7497777777778E-04  2.6246666666667E-04  3.4995555555556E-04  4.3744444444444E-04  5.2493333333333E-04  6.1242222222222E-04  6.9991111111111E-04  7.8740000000000E-04 
 1.1589917711764E-09  3.4769775211783E-09  5.7949719092844E-09  8.1129813661998E-09  1.0431012322453E-08  1.2749071208649E-08  1.5067164455464E-08  1.7385298494172E-08  1.9703479755216E-08  2.0863142024020E-08 
 9.1999999999930E-01  9.1999999999930E-01  9.1999999999930E-01  9.1999999999930E-01  9.1999999999930E-01  9.1999999999930E-01  9.1999999999930E-01  9.1999999999930E-01  9.1999999999930E-01  9.1999999999971E-01 
 4.0000000000348E-02  4.0000000000348E-02  4.0000000000348E-02  4.0000000000348E-02  4.0000000000348E-02  4.0000000000348E-02  4.0000000000348E-02  4.0000000000348E-02  4.0000000000348E-02  4.0000000000144E-02 
 4.0000000000348E-02  4.0000000000348E-02  4.0000000000348E-02  4.0000000000348E-02  4.0000000000348E-02  4.0000000000348E-02  4.0000000000348E-02  4.0000000000348E-02  4.0000000000348E-02  4.0000000000144E-02 
 2.9167371469754E-02  2.9167355742643E-02  2.9167308561296E-02  2.9167229925578E-02  2.9167119835302E-02  2.9166978290155E-02  2.9166805289781E-02  2.9166600833701E-02  2.9166364921353E-02  2.9166097552128E-02 
 0.0000000000000E+00 -4.7371275801690E-09 -8.9169665839143E-09 -1.2539514934469E-08 -1.5604769009001E-08 -1.8112723638653E-08 -2.0063372108526E-08 -2.1456706157664E-08 -2.2292715978908E-08 -2.2571390219095E-08 
-2.9167371469754E-02 -2.9167360479770E-02 -2.9167317478263E-02 -2.9167242465093E-02 -2.9167135440071E-02 -2.9166996402879E-02 -2.9166825353153E-02 -2.9166622290407E-02 -2.9166387214069E-02 -2.9166120123519E-02 
-4.0906712752893E-02 -4.0906712752892E-02 -4.0906712752893E-02 -4.0906712752893E-02 -4.0906712752887E-02 -4.0906712752893E-02 -4.0906712752893E-02 -4.0906712752887E-02 -4.0906712752887E-02 -4.0906712753018E-02 
 1.1739341283138E-02  1.1739352273122E-02  1.1739395274630E-02  1.1739470287799E-02  1.1739577312816E-02  1.1739716350014E-02  1.1739887399740E-02  1.1740090462480E-02  1.1740325538817E-02  1.1740592629499E-02 
 1.6690490558960E+00  3.3381012909894E+00  3.3381137305238E+00  3.3381354304413E+00  3.3381663908058E+00  3.3382066117218E+00  3.3382560933119E+00  3.3383148357375E+00  3.3383828391883E+00  1.6692300519364E+00 
 8.6491945820522E-09  2.5947590202956E-08  4.3246060819282E-08  6.0544634204425E-08  7.7843379204203E-08  9.5142320887975E-08  1.1244152526534E-07  1.2974103846781E-07  1.4704095962815E-07  1.4704095962815E-07 
 0.0000000000000E+00  3.3380824204008E+00  6.6761726997466E+00  1.0014280130735E+01  1.3352414035703E+01  1.6690583476305E+01  2.0028797240260E+01  2.3367066146803E+01  2.6705397254201E+01  3.0043809061977E+01 
 3.0043810256898E+01  2.6705719148782E+01  2.3367628824565E+01  2.0029521430427E+01  1.6691387705765E+01  1.3353218390052E+01  1.0015004222654E+01  6.6767359424541E+00  3.3384042885043E+00  0.0000000000000E+00 
 1.6690490558960E-08  3.3381012909894E-08  3.3381137305238E-08  3.3381354304413E-08  3.3381663908058E-08  3.3382066117218E-08  3.3382560933119E-08  3.3383148357375E-08  3.3383828391883E-08  1.6692300519364E-08 
 9.1448444543298E+04  1.8289688908659E+05  1.8289688908660E+05  1.8289688908660E+05  1.8289688908660E+05  1.8289688908659E+05  1.8289688908659E+05  1.8289688908660E+05  1.8289688908660E+05  9.1448444543298E+04 
 3.6579377817311E+05  7.3158755634621E+05  7.3158755634621E+05  7.3158755634621E+05  7.3158755634621E+05  7.3158755634621E+05  7.3158755634621E+05  7.3158755634621E+05  7.3158755634621E+05  3.6579377817311E+05 
 4.5724222271640E+05  9.1448444543281E+05  9.1448444543281E+05  9.1448444543281E+05  9.1448444543281E+05  9.1448444543281E+05  9.1448444543281E+05  9.1448444543281E+05  9.1448444543281E+05  4.5724222271640E+05 
 3.5000000000000E-01  3.5000000000000E-01  3.5000000000000E-01  3.5000000000000E-01  3.5000000000000E-01  3.5000000000000E-01  3.5000000000000E-01  3.5000000000000E-01  3.5000000000000E-01  3.5000000000000E-01 
 8.5301666666666E+00  1.7060333333333E+01  1.7060333333333E+01  1.7060333333333E+01  1.7060333333333E+01  1.7060333333333E+01  1.7060333333333E+01  1.7060333333333E+01  1.7060333333333E+01  8.5301666666666E+00 
 1.9566429603518E-01  1.9566448238542E-01  1.9566521153497E-01  1.9566648348653E-01  1.9566829824383E-01  1.9567065581300E-01  1.9567355620124E-01  1.9567699941800E-01  1.9568098547439E-01  1.9568551438265E-01 
 4.3744444444444E-05  8.7488888888889E-05  8.7488888888889E-05  8.7488888888889E-05  8.7488888888889E-05  8.7488888888889E-05  8.7488888888889E-05  8.7488888888889E-05  8.7488888888889E-05  4.3744444444444E-05 
 8.6666666666662E+01  8.6666666666662E+01  8.6666666666662E+01  8.6666666666662E+01  8.6666666666662E+01  8.6666666666662E+01  8.6666666666662E+01  8.6666666666662E+01  8.6666666666662E+01  8.6666666666662E+01 
 2.1666666666671E+01  2.1666666666671E+01  2.1666666666671E+01  2.1666666666671E+01  2.1666666666671E+01  2.1666666666671E+01  2.1666666666671E+01  2.1666666666671E+01  2.1666666666671E+01  2.1666666666671E+01 
 1.8363938374554E-11  2.8663993371931E-11  6.1478022067126E-11  1.1872011082568E-10  2.0039091263608E-10  3.0649131453648E-10  4.3702248649423E-10  5.9198593712642E-10  7.7138327490643E-10  8.6719061886126E-10 
 1.8363938374554E-03  2.8663993371931E-03  6.1478022067126E-03  1.1872011082568E-02  2.0039091263608E-02  3.0649131453648E-02  4.3702248649423E-02  5.9198593712642E-02  7.7138327490643E-02  8.6719061886126E-02 
 3.0002887073739E-04  1.5001450256200E-03  5.1005067217098E-03  1.1101149543441E-02  1.9502138727181E-02  3.0303562442340E-02  4.3505536679324E-02  5.9108210821575E-02  7.7111743766176E-02  8.6713744993568E-02 
 1.5363649667180E-03  1.3662543115731E-03  1.0472954850027E-03  7.7086153912731E-04  5.3695253642685E-04  3.4556901130741E-04  1.9671197009860E-04  9.0382891067695E-05  2.6583724467147E-05  5.3168925577702E-06 
 0.0000000000000E+00  0.0000000000000E+00  0.0000000000000E+00  0.0000000000000E+00  0.0000000000000E+00  0.0000000000000E+00  0.0000000000000E+00  0.0000000000000E+00  0.0000000000000E+00  0.0000000000000E+00 
 0.0000000000000E+00  0.0000000000000E+00  0.0000000000000E+00  0.0000000000000E+00  0.0000000000000E+00  0.0000000000000E+00  0.0000000000000E+00  0.0000000000000E+00  0.0000000000000E+00  0.0000000000000E+00 
 0.0000000000000E+00  0.0000000000000E+00  0.0000000000000E+00  0.0000000000000E+00  0.0000000000000E+00  0.0000000000000E+00  0.0000000000000E+00  0.0000000000000E+00  0.0000000000000E+00  0.0000000000000E+00 
ZONE T = "ANOD, 2.0000E-08", I = 10, SOLUTIONTIME = 2.000000E-08
ZONETYPE = ORDERED
DATAPACKING = BLOCK
STRANDID = 1
 0.0000000000000E+00  8.7488888888889E-05  1.7497777777778E-04  2.6246666666667E-04  3.4995555555556E-04  4.3744444444444E-04  5.2493333333333E-04  6.1242222222222E-04  6.9991111111111E-04  7.8740000000000E-04 
 1.1589975178088E-09  3.4769947610904E-09  5.7950006425037E-09  8.1130215925445E-09  1.0431064041756E-08  1.2749134420752E-08  1.5066512744778E-08  1.7383931860100E-08  1.9701398197660E-08  2.0861066212436E-08 
 9.1999999999861E-01  9.1999999999861E-01  9.1999999999861E-01  9.1999999999861E-01  9.1999999999861E-01  9.1999999999861E-01  9.1999999999861E-01  9.1999999999861E-01  9.1999999999861E-01  9.1999999999942E-01 
 4.0000000000696E-02  4.0000000000696E-02  4.0000000000696E-02  4.0000000000696E-02  4.0000000000696E-02  4.0000000000696E-02  4.0000000000696E-02  4.0000000000696E-02  4.0000000000696E-02  4.0000000000288E-02 
 4.0000000000696E-02  4.0000000000696E-02  4.0000000000696E-02  4.0000000000696E-02  4.0000000000696E-02  4.0000000000696E-02  4.0000000000696E-02  4.0000000000696E-02  4.0000000000696E-02  4.0000000000288E-02 
 2.9167373665565E-02  2.9167357938380E-02  2.9167310756793E-02  2.9167232120688E-02  2.9167122029861E-02  2.9166980484019E-02  2.9166807482784E-02  2.9166603025690E-02  2.9166367112182E-02  2.9166099741620E-02 
 0.0000000000000E+00 -4.7371510662850E-09 -8.9170107929400E-09 -1.2539577103191E-08 -1.5604846374249E-08 -1.8112813437298E-08 -2.0063471577477E-08 -2.1456812533862E-08 -2.2292826499437E-08 -2.2571502121063E-08 
-2.9167373665565E-02 -2.9167362675531E-02 -2.9167319673804E-02 -2.9167244660266E-02 -2.9167137634708E-02 -2.9166998596833E-02 -2.9166827546256E-02 -2.9166624482502E-02 -2.9166389405008E-02 -2.9166122313122E-02 
-4.0906712752394E-02 -4.0906712752394E-02 -4.0906712752394E-02 -4.0906712752394E-02 -4.0906712752394E-02 -4.0906712752394E-02 -4.0906712752394E-02 -4.0906712752394E-02 -4.0906712752394E-02 -4.0906712752657E-02 
 1.1739339086829E-02  1.1739350076864E-02  1.1739393078590E-02  1.1739468092128E-02  1.1739575117687E-02  1.1739714155561E-02  1.1739885206138E-02  1.1740088269892E-02  1.1740323347386E-02  1.1740590439535E-02 
 1.6690487382327E+00  3.3381006556773E+00  3.3381130952749E+00  3.3381347952989E+00  3.3381657558171E+00  3.3382059769311E+00  3.3382554587670E+00  3.3383142014824E+00  3.3383822052671E+00  1.6692297351833E+00 
 8.6492352080660E-09  2.5947722098196E-08  4.3246273451378E-08  6.0544937254416E-08  7.7843761509200E-08  9.5142794177545E-08  1.1244208328079E-07  1.2974167679913E-07  1.4704176694566E-07  1.4704176694566E-07 
 0.0000000000000E+00  3.3380990661720E+00  6.6762059415825E+00  1.0014329886712E+01  1.3352480162409E+01  1.6690666028786E+01  2.0028896746508E+01  2.3367181576791E+01  2.6705529780227E+01  3.0043950618050E+01 
 3.0043950617932E+01  2.6705851551860E+01  2.3367744676384E+01  2.0029620731097E+01  1.6691470455539E+01  1.3353284589165E+01  1.0015053871316E+01  6.6767690411916E+00  3.3384208378168E+00  0.0000000000000E+00 
 3.3380977941287E-08  6.6762019466667E-08  6.6762268257988E-08  6.6762702257402E-08  6.6763321466229E-08  6.6764125886529E-08  6.6765115520789E-08  6.6766290372199E-08  6.6767650444553E-08  3.3384597871197E-08 
 9.1448444543314E+04  1.8289688908663E+05  1.8289688908663E+05  1.8289688908663E+05  1.8289688908663E+05  1.8289688908663E+05  1.8289688908663E+05  1.8289688908663E+05  1.8289688908663E+05  9.1448444543314E+04 
 3.6579377817309E+05  7.3158755634618E+05  7.3158755634618E+05  7.3158755634618E+05  7.3158755634618E+05  7.3158755634618E+05  7.3158755634618E+05  7.3158755634618E+05  7.3158755634618E+05  3.6579377817309E+05 
 4.5724222271640E+05  9.1448444543281E+05  9.1448444543281E+05  9.1448444543281E+05  9.1448444543281E+05  9.1448444543281E+05  9.1448444543281E+05  9.1448444543281E+05  9.1448444543281E+05  4.5724222271640E+05 
 3.5000000000000E-01  3.5000000000000E-01  3.5000000000000E-01  3.5000000000000E-01  3.5000000000000E-01  3.5000000000000E-01  3.5000000000000E-01  3.5000000000000E-01  3.5000000000000E-01  3.5000000000000E-01 
 8.5301666666666E+00  1.7060333333333E+01  1.7060333333333E+01  1.7060333333333E+01  1.7060333333333E+01  1.7060333333333E+01  1.7060333333333E+01  1.7060333333333E+01  1.7060333333333E+01  8.5301666666666E+00 
 1.9566425879518E-01  1.9566444514628E-01  1.9566517429954E-01  1.9566644625733E-01  1.9566826102365E-01  1.9567061860443E-01  1.9567351900707E-01  1.9567696224082E-01  1.9568094831678E-01  1.9568547724937E-01 
 4.3744444444444E-05  8.7488888888889E-05  8.7488888888889E-05  8.7488888888889E-05  8.7488888888889E-05  8.7488888888889E-05  8.7488888888889E-05  8.7488888888889E-05  8.7488888888889E-05  4.3744444444444E-05 
 8.6666666666658E+01  8.6666666666658E+01  8.6666666666658E+01  8.6666666666658E+01  8.6666666666658E+01  8.6666666666658E+01  8.6666666666658E+01  8.6666666666658E+01  8.6666666666658E+01  8.6666666666658E+01 
 2.1666666666674E+01  2.1666666666674E+01  2.1666666666674E+01  2.1666666666674E+01  2.1666666666674E+01  2.1666666666674E+01  2.1666666666674E+01  2.1666666666674E+01  2.1666666666674E+01  2.1666666666674E+01 
 3.6728057277058E-11  5.7328273568984E-11  1.2295665403563E-10  2.3744140276079E-10  4.0078380794261E-10  6.1298566288413E-10  8.7404931492353E-10  1.1839777211628E-09  1.5427742096546E-09  1.7343899096363E-09 
 1.8364118902504E-03  2.8664280197053E-03  6.1478631968506E-03  1.1872129193511E-02  2.0039289530653E-02  3.0649434834766E-02  4.3702682842930E-02  5.9199178403640E-02  7.7139093474814E-02  8.6719929077502E-02 
 6.0006056000182E-04  3.0003051863329E-03  1.0201064048982E-02  2.2202409554376E-02  3.9004470397362E-02  6.0607424839441E-02  8.7011505601776E-02  1.1821700543803E-01  1.5422425325296E-01  1.7342835712580E-01 
 3.0727451677040E-03  2.7325221705655E-03  2.0946013545808E-03  1.5417307217031E-03  1.0739103968988E-03  6.9114144897193E-04  3.9342589057696E-04  1.8076667825353E-04  5.3167712500144E-05  1.0633837829293E-05 
 0.0000000000000E+00  0.0000000000000E+00  0.0000000000000E+00  0.0000000000000E+00  0.0000000000000E+00  0.0000000000000E+00  0.0000000000000E+00  0.0000000000000E+00  0.0000000000000E+00  0.0000000000000E+00 
 0.0000000000000E+00  0.0000000000000E+00  0.0000000000000E+00  0.0000000000000E+00  0.0000000000000E+00  0.0000000000000E+00  0.0000000000000E+00  0.0000000000000E+00  0.0000000000000E+00  0.0000000000000E+00 
 0.0000000000000E+00  0.0000000000000E+00  0.0000000000000E+00  0.0000000000000E+00  0.0000000000000E+00  0.0000000000000E+00  0.0000000000000E+00  0.0000000000000E+00  0.0000000000000E+00  0.0000000000000E+00 
ZONE T = "ANOD, 3.0000E-08", I = 10, SOLUTIONTIME = 3.000000E-08
ZONETYPE = ORDERED
DATAPACKING = BLOCK
STRANDID = 1
 0.0000000000000E+00  8.7488888888889E-05  1.7497777777778E-04  2.6246666666667E-04  3.4995555555556E-04  4.3744444444444E-04  5.2493333333333E-04  6.1242222222222E-04  6.9991111111111E-04  7.8740000000000E-04 
 1.1589975177886E-09  3.4769947610295E-09  5.7950006424022E-09  8.1130215924026E-09  1.0431064041575E-08  1.2749497628258E-08  1.5068328783154E-08  1.7387200729348E-08  1.9706119897780E-08  2.0864698289363E-08 
 9.1999999999791E-01  9.1999999999791E-01  9.1999999999791E-01  9.1999999999791E-01  9.1999999999791E-01  9.1999999999791E-01  9.1999999999791E-01  9.1999999999791E-01  9.1999999999791E-01  9.1999999999914E-01 
 4.0000000001045E-02  4.0000000001045E-02  4.0000000001045E-02  4.0000000001045E-02  4.0000000001045E-02  4.0000000001045E-02  4.0000000001045E-02  4.0000000001045E-02  4.0000000001045E-02  4.0000000000432E-02 
 4.0000000001045E-02  4.0000000001045E-02  4.0000000001045E-02  4.0000000001045E-02  4.0000000001045E-02  4.0000000001045E-02  4.0000000001045E-02  4.0000000001045E-02  4.0000000001045E-02  4.0000000000432E-02 
 2.9167373665351E-02  2.9167357938165E-02  2.9167310756579E-02  2.9167232120474E-02  2.9167122029647E-02  2.9166980483805E-02  2.9166807482570E-02  2.9166603025475E-02  2.9166367111967E-02  2.9166099741405E-02 
 0.0000000000000E+00 -4.7371510662055E-09 -8.9170107927907E-09 -1.2539577102982E-08 -1.5604846373989E-08 -1.8112813436997E-08 -2.0063471577146E-08 -2.1456812533509E-08 -2.2292826499072E-08 -2.2571502120696E-08 
-2.9167373665351E-02 -2.9167362675316E-02 -2.9167319673589E-02 -2.9167244660051E-02 -2.9167137634493E-02 -2.9166998596618E-02 -2.9166827546041E-02 -2.9166624482288E-02 -2.9166389404794E-02 -2.9166122312907E-02 
-4.0906712751889E-02 -4.0906712751889E-02 -4.0906712751889E-02 -4.0906712751889E-02 -4.0906712751892E-02 -4.0906712751889E-02 -4.0906712751889E-02 -4.0906712751892E-02 -4.0906712751892E-02 -4.0906712752285E-02 
 1.1739339086539E-02  1.1739350076573E-02  1.1739393078300E-02  1.1739468091838E-02  1.1739575117399E-02  1.1739714155271E-02  1.1739885205848E-02  1.1740088269604E-02  1.1740323347098E-02  1.1740590439378E-02 
 1.6690487382035E+00  3.3381006556187E+00  3.3381130952166E+00  3.3381347952404E+00  3.3381657557601E+00  3.3382059768727E+00  3.3382554587085E+00  3.3383142014256E+00  3.3383822052102E+00  1.6692297351695E+00 
 8.6492352039783E-09  2.5947722098768E-08  4.3246273451755E-08  6.0544937248864E-08  7.7843761503806E-08  9.5142794180289E-08  1.1244208327761E-07  1.2974167679419E-07  1.4704183906225E-07  1.4704183906225E-07 
 0.0000000000000E+00  3.3380990658328E+00  6.6762059414566E+00  1.0014329886799E+01  1.3352480162157E+01  1.6690666028379E+01  2.0028896746314E+01  2.3367181576442E+01  2.6705529779686E+01  3.0043950617475E+01 
 3.0043950617426E+01  2.6705851551413E+01  2.3367744675996E+01  2.0029620730767E+01  1.6691470455267E+01  1.3353284588950E+01  1.0015053871160E+01  6.6767690410926E+00  3.3384208377747E+00  0.0000000000000E+00 
 5.0071465323322E-08  1.0014302602285E-07  1.0014339921015E-07  1.0014405020981E-07  1.0014497902383E-07  1.0014618565526E-07  1.0014767010787E-07  1.0014943238645E-07  1.0015147249666E-07  5.0076895222892E-08 
 9.1448444543331E+04  1.8289688908666E+05  1.8289688908666E+05  1.8289688908666E+05  1.8289688908666E+05  1.8289688908666E+05  1.8289688908666E+05  1.8289688908666E+05  1.8289688908666E+05  9.1448444543331E+04 
 3.6579377817307E+05  7.3158755634615E+05  7.3158755634615E+05  7.3158755634615E+05  7.3158755634615E+05  7.3158755634615E+05  7.3158755634615E+05  7.3158755634615E+05  7.3158755634615E+05  3.6579377817307E+05 
 4.5724222271640E+05  9.1448444543281E+05  9.1448444543281E+05  9.1448444543281E+05  9.1448444543281E+05  9.1448444543281E+05  9.1448444543281E+05  9.1448444543281E+05  9.1448444543281E+05  4.5724222271640E+05 
 3.5000000000000E-01  3.5000000000000E-01  3.5000000000000E-01  3.5000000000000E-01  3.5000000000000E-01  3.5000000000000E-01  3.5000000000000E-01  3.5000000000000E-01  3.5000000000000E-01  3.5000000000000E-01 
 8.5301666666666E+00  1.7060333333333E+01  1.7060333333333E+01  1.7060333333333E+01  1.7060333333333E+01  1.7060333333333E+01  1.7060333333333E+01  1.7060333333333E+01  1.7060333333333E+01  8.5301666666666E+00 
 1.9566425879176E-01  1.9566444514285E-01  1.9566517429612E-01  1.9566644625391E-01  1.9566826102031E-01  1.9567061860101E-01  1.9567351900365E-01  1.9567696223749E-01  1.9568094831345E-01  1.9568547724775E-01 
 4.3744444444444E-05  8.7488888888889E-05  8.7488888888889E-05  8.7488888888889E-05  8.7488888888889E-05  8.7488888888889E-05  8.7488888888889E-05  8.7488888888889E-05  8.7488888888889E-05  4.3744444444444E-05 
 8.6666666666654E+01  8.6666666666654E+01  8.6666666666654E+01  8.6666666666654E+01  8.6666666666654E+01  8.6666666666654E+01  8.6666666666654E+01  8.6666666666654E+01  8.6666666666654E+01  8.6666666666654E+01 
 2.1666666666678E+01  2.1666666666678E+01  2.1666666666678E+01  2.1666666666678E+01  2.1666666666678E+01  2.1666666666678E+01  2.1666666666678E+01  2.1666666666678E+01  2.1666666666678E+01  2.1666666666678E+01 
 5.5092176177748E-11  8.5992553763063E-11  1.8443528600225E-10  3.5616269469661E-10  6.0117670323874E-10  9.1948001121512E-10  1.3110761433407E-09  1.7759695051759E-09  2.3141651443660E-09  2.6015892003716E-09 
 1.8364118900690E-03  2.8664280194079E-03  6.1478631966616E-03  1.1872129193582E-02  2.0039289529614E-02  3.0649434833099E-02  4.3702682841714E-02  5.9199178401305E-02  7.7139093471138E-02  8.6719929073535E-02 
 9.0009224913649E-04  4.5004653467940E-03  1.5301621376101E-02  3.3303669565408E-02  5.8506802066521E-02  9.0911287234887E-02  1.3051747452302E-01  1.7732580005215E-01  2.3133676273606E-01  2.6014296925406E-01 
 4.6091253686383E-03  4.0987900295122E-03  3.1419072241241E-03  2.3125999042534E-03  1.6108682573531E-03  1.0367138866253E-03  5.9013981104914E-04  2.7115046543665E-04  7.9751700532423E-05  1.5950783100729E-05 
 0.0000000000000E+00  0.0000000000000E+00  0.0000000000000E+00  0.0000000000000E+00  0.0000000000000E+00  0.0000000000000E+00  0.0000000000000E+00  0.0000000000000E+00  0.0000000000000E+00  0.0000000000000E+00 
 0.0000000000000E+00  0.0000000000000E+00  0.0000000000000E+00  0.0000000000000E+00  0.0000000000000E+00  0.0000000000000E+00  0.0000000000000E+00  0.0000000000000E+00  0.0000000000000E+00  0.0000000000000E+00 
 0.0000000000000E+00  0.0000000000000E+00  0.0000000000000E+00  0.0000000000000E+00  0.0000000000000E+00  0.0000000000000E+00  0.0000000000000E+00  0.0000000000000E+00  0.0000000000000E+00  0.0000000000000E+00 
ZONE T = "ANOD, 4.0000E-08", I = 10, SOLUTIONTIME = 4.000000E-08
ZONETYPE = ORDERED
DATAPACKING = BLOCK
STRANDID = 1
 0.0000000000000E+00  8.7488888888889E-05  1.7497777777778E-04  2.6246666666667E-04  3.4995555555556E-04  4.3744444444444E-04  5.2493333333333E-04  6.1242222222222E-04  6.9991111111111E-04  7.8740000000000E-04 
 1.1588159139047E-09  3.4771763648335E-09  5.7948190384387E-09  8.1135664038547E-09  1.0430519229803E-08  1.2747499985535E-08  1.5064515101753E-08  1.7382660632451E-08  1.9700853385387E-08  2.0859976588551E-08 
 9.1999999999721E-01  9.1999999999721E-01  9.1999999999721E-01  9.1999999999721E-01  9.1999999999721E-01  9.1999999999721E-01  9.1999999999721E-01  9.1999999999721E-01  9.1999999999721E-01  9.1999999999885E-01 
 4.0000000001393E-02  4.0000000001393E-02  4.0000000001393E-02  4.0000000001393E-02  4.0000000001393E-02  4.0000000001393E-02  4.0000000001393E-02  4.0000000001393E-02  4.0000000001393E-02  4.0000000000576E-02 
 4.0000000001393E-02  4.0000000001393E-02  4.0000000001393E-02  4.0000000001393E-02  4.0000000001393E-02  4.0000000001393E-02  4.0000000001393E-02  4.0000000001393E-02  4.0000000001393E-02  4.0000000000576E-02 
 2.9167373665138E-02  2.9167357937953E-02  2.9167310756366E-02  2.9167232120262E-02  2.9167122029434E-02  2.9166980483593E-02  2.9166807482358E-02  2.9166603025263E-02  2.9166367111755E-02  2.9166099741193E-02 
 0.0000000000000E+00 -4.7371510661261E-09 -8.9170107926415E-09 -1.2539577102772E-08 -1.5604846373729E-08 -1.8112813436696E-08 -2.0063471576813E-08 -2.1456812533155E-08 -2.2292826498706E-08 -2.2571502120327E-08 
-2.9167373665138E-02 -2.9167362675104E-02 -2.9167319673377E-02 -2.9167244659839E-02 -2.9167137634281E-02 -2.9166998596406E-02 -2.9166827545829E-02 -2.9166624482075E-02 -2.9166389404581E-02 -2.9166122312695E-02 
-4.0906712751391E-02 -4.0906712751391E-02 -4.0906712751391E-02 -4.0906712751391E-02 -4.0906712751391E-02 -4.0906712751391E-02 -4.0906712751391E-02 -4.0906712751391E-02 -4.0906712751391E-02 -4.0906712751916E-02 
 1.1739339086253E-02  1.1739350076288E-02  1.1739393078014E-02  1.1739468091553E-02  1.1739575117111E-02  1.1739714154985E-02  1.1739885205562E-02  1.1740088269316E-02  1.1740323346810E-02  1.1740590439221E-02 
 1.6690487381748E+00  3.3381006555613E+00  3.3381130951592E+00  3.3381347951830E+00  3.3381657557021E+00  3.3382059768153E+00  3.3382554586511E+00  3.3383142013675E+00  3.3383822051522E+00  1.6692297351552E+00 