TITLE = "Solution on Domain BulkDomain1D_2"
VARIABLES = "x [m]"  
"Vel_axial" 	"MF_sp(ECDMC)" 	"MF_sp(Li+)" 	"MF_sp(PF6-)" 	"Volt(Electroly)" 	"Volt(CathodeVo)" 	
"Potential Drop Electrode-Electrolyte [V]" 	"Surf_0 Equilibrium Potential Drop Electrode-Electrolyte [V]" 	"Overpotential_0 [V]" 	"Current Source [A/m^2]" 	"Li+ flux [kmol/m^2/s]" 	"Electrolyte Current [A/m^2]" 	"Electrode Current [A/m^2]" 	
"CV Capacity discharged [A-s/m^2]" 	"Depth of discharge in CV [A-s/m^2]" 	"CV Capacity remaining [A-s/m^2]" 	"Initial CV capacity [A-s/m^2]" 	"Porosity []" 	"Surface Area [m2/m2] (area per area)" 	"Specific current (per particle area) [A/m^2]" 	"Control volume thickness [m]" 	
"MoleDens LiCoO2 [kmol/m^3]" 	"MoleDens CoO2 [kmol/m^3]" 	"qHeat_accum [J/m3]" 	"qHeat_step [W/m3]" 	"Joule_Lyte [W/m3]" 	"Joule_Solid [W/m3]" 	"electrodHeat [W/m3]" 	"OverpotHeat [W/m3]" 	"deltaSHeat [W/m3]" 	

ZONE T = "CATH, 0.0000E+00", I = 10, SOLUTIONTIME = 0.000000E+00
ZONETYPE = ORDERED
DATAPACKING = BLOCK
STRANDID = 3
 1.2700000000000E-03  1.3377333333333E-03  1.4054666666667E-03  1.4732000000000E-03  1.5409333333333E-03  1.6086666666667E-03  1.6764000000000E-03  1.7441333333333E-03  1.8118666666667E-03  1.8796000000000E-03 
 0.0000000000000E+00  0.0000000000000E+00  0.0000000000000E+00  0.0000000000000E+00  0.0000000000000E+00  0.0000000000000E+00  0.0000000000000E+00  0.0000000000000E+00  0.0000000000000E+00  0.0000000000000E+00 
 9.2000000000000E-01  9.2000000000000E-01  9.2000000000000E-01  9.2000000000000E-01  9.2000000000000E-01  9.2000000000000E-01  9.2000000000000E-01  9.2000000000000E-01  9.2000000000000E-01  9.2000000000000E-01 
 4.0000000000000E-02  4.0000000000000E-02  4.0000000000000E-02  4.0000000000000E-02  4.0000000000000E-02  4.0000000000000E-02  4.0000000000000E-02  4.0000000000000E-02  4.0000000000000E-02  4.0000000000000E-02 
 4.0000000000000E-02  4.0000000000000E-02  4.0000000000000E-02  4.0000000000000E-02  4.0000000000000E-02  4.0000000000000E-02  4.0000000000000E-02  4.0000000000000E-02  4.0000000000000E-02  4.0000000000000E-02 
-7.0000000000000E-02 -7.0000000000000E-02 -7.0000000000000E-02 -7.0000000000000E-02 -7.0000000000000E-02 -7.0000000000000E-02 -7.0000000000000E-02 -7.0000000000000E-02 -7.0000000000000E-02 -7.0000000000000E-02 
 3.8000000000000E+00  3.8000000000000E+00  3.8000000000000E+00  3.8000000000000E+00  3.8000000000000E+00  3.8000000000000E+00  3.8000000000000E+00  3.8000000000000E+00  3.8000000000000E+00  3.8000000000000E+00 
 3.8700000000000E+00  3.8700000000000E+00  3.8700000000000E+00  3.8700000000000E+00  3.8700000000000E+00  3.8700000000000E+00  3.8700000000000E+00  3.8700000000000E+00  3.8700000000000E+00  3.8700000000000E+00 
 3.9714142713289E+00  3.9714142713289E+00  3.9714142713289E+00  3.9714142713289E+00  3.9714142713289E+00  3.9714142713289E+00  3.9714142713289E+00  3.9714142713289E+00  3.9714142713289E+00  3.9714142713289E+00 
-1.0141427132889E-01 -1.0141427132889E-01 -1.0141427132889E-01 -1.0141427132889E-01 -1.0141427132889E-01 -1.0141427132889E-01 -1.0141427132889E-01 -1.0141427132889E-01 -1.0141427132889E-01 -1.0141427132889E-01 
-2.3826357195711E-01 -4.7652714391422E-01 -4.7652714391423E-01 -4.7652714391422E-01 -4.7652714391423E-01 -4.7652714391423E-01 -4.7652714391422E-01 -4.7652714391423E-01 -4.7652714391422E-01 -2.3826357195711E-01 
-0.0000000000000E+00 -0.0000000000000E+00 -0.0000000000000E+00 -0.0000000000000E+00 -0.0000000000000E+00 -0.0000000000000E+00 -0.0000000000000E+00 -0.0000000000000E+00 -0.0000000000000E+00 -0.0000000000000E+00 
 2.3826357195711E-01  0.0000000000000E+00  0.0000000000000E+00  0.0000000000000E+00  0.0000000000000E+00  0.0000000000000E+00  0.0000000000000E+00  0.0000000000000E+00  0.0000000000000E+00  0.0000000000000E+00 
 0.0000000000000E+00 -0.0000000000000E+00 -0.0000000000000E+00 -0.0000000000000E+00 -0.0000000000000E+00 -0.0000000000000E+00 -0.0000000000000E+00 -0.0000000000000E+00 -0.0000000000000E+00  2.3826357195711E-01 
-0.0000000000000E+00 -0.0000000000000E+00 -0.0000000000000E+00 -0.0000000000000E+00 -0.0000000000000E+00 -0.0000000000000E+00 -0.0000000000000E+00 -0.0000000000000E+00 -0.0000000000000E+00 -0.0000000000000E+00 
 7.2440786946225E+03  1.4488157389245E+04  1.4488157389245E+04  1.4488157389245E+04  1.4488157389245E+04  1.4488157389245E+04  1.4488157389245E+04  1.4488157389245E+04  1.4488157389245E+04  7.2440786946225E+03 
 4.9259735123433E+04  9.8519470246865E+04  9.8519470246866E+04  9.8519470246865E+04  9.8519470246866E+04  9.8519470246866E+04  9.8519470246865E+04  9.8519470246866E+04  9.8519470246865E+04  4.9259735123433E+04 
 5.6503813818055E+04  1.1300762763611E+05  1.1300762763611E+05  1.1300762763611E+05  1.1300762763611E+05  1.1300762763611E+05  1.1300762763611E+05  1.1300762763611E+05  1.1300762763611E+05  5.6503813818055E+04 
 3.5000000000000E-01  3.5000000000000E-01  3.5000000000000E-01  3.5000000000000E-01  3.5000000000000E-01  3.5000000000000E-01  3.5000000000000E-01  3.5000000000000E-01  3.5000000000000E-01  3.5000000000000E-01 
 6.6040000000000E+00  1.3208000000000E+01  1.3208000000000E+01  1.3208000000000E+01  1.3208000000000E+01  1.3208000000000E+01  1.3208000000000E+01  1.3208000000000E+01  1.3208000000000E+01  6.6040000000000E+00 
-3.6078675341780E-02 -3.6078675341780E-02 -3.6078675341780E-02 -3.6078675341780E-02 -3.6078675341780E-02 -3.6078675341780E-02 -3.6078675341780E-02 -3.6078675341780E-02 -3.6078675341780E-02 -3.6078675341780E-02 
 3.3866666666667E-05  6.7733333333333E-05  6.7733333333334E-05  6.7733333333333E-05  6.7733333333334E-05  6.7733333333334E-05  6.7733333333333E-05  6.7733333333334E-05  6.7733333333333E-05  3.3866666666667E-05 
 2.6603001364256E+01  2.6603001364256E+01  2.6603001364256E+01  2.6603001364256E+01  2.6603001364256E+01  2.6603001364256E+01  2.6603001364256E+01  2.6603001364256E+01  2.6603001364256E+01  2.6603001364256E+01 
 1.7735334242838E+01  1.7735334242838E+01  1.7735334242838E+01  1.7735334242838E+01  1.7735334242838E+01  1.7735334242838E+01  1.7735334242838E+01  1.7735334242838E+01  1.7735334242838E+01  1.7735334242838E+01 
 0.0000000000000E+00  0.0000000000000E+00  0.0000000000000E+00  0.0000000000000E+00  0.0000000000000E+00  0.0000000000000E+00  0.0000000000000E+00  0.0000000000000E+00  0.0000000000000E+00  0.0000000000000E+00 
 0.0000000000000E+00  0.0000000000000E+00  0.0000000000000E+00  0.0000000000000E+00  0.0000000000000E+00  0.0000000000000E+00  0.0000000000000E+00  0.0000000000000E+00  0.0000000000000E+00  0.0000000000000E+00 
 0.0000000000000E+00  0.0000000000000E+00  0.0000000000000E+00  0.0000000000000E+00  0.0000000000000E+00  0.0000000000000E+00  0.0000000000000E+00  0.0000000000000E+00  0.0000000000000E+00  0.0000000000000E+00 
 0.0000000000000E+00  0.0000000000000E+00  0.0000000000000E+00  0.0000000000000E+00  0.0000000000000E+00  0.0000000000000E+00  0.0000000000000E+00  0.0000000000000E+00  0.0000000000000E+00  0.0000000000000E+00 
 0.0000000000000E+00  0.0000000000000E+00  0.0000000000000E+00  0.0000000000000E+00  0.0000000000000E+00  0.0000000000000E+00  0.0000000000000E+00  0.0000000000000E+00  0.0000000000000E+00  0.0000000000000E+00 
 0.0000000000000E+00  0.0000000000000E+00  0.0000000000000E+00  0.0000000000000E+00  0.0000000000000E+00  0.0000000000000E+00  0.0000000000000E+00  0.0000000000000E+00  0.0000000000000E+00  0.0000000000000E+00 
 0.0000000000000E+00  0.0000000000000E+00  0.0000000000000E+00  0.0000000000000E+00  0.0000000000000E+00  0.0000000000000E+00  0.0000000000000E+00  0.0000000000000E+00  0.0000000000000E+00  0.0000000000000E+00 
ZONE T = "CATH, 1.0000E-08", I = 10, SOLUTIONTIME = 1.000000E-08
ZONETYPE = ORDERED
DATAPACKING = BLOCK
STRANDID = 3
 1.2700000000000E-03  1.3377333333333E-03  1.4054666666667E-03  1.4732000000000E-03  1.5409333333333E-03  1.6086666666667E-03  1.6764000000000E-03  1.7441333333333E-03  1.8118666666667E-03  1.8796000000000E-03 
 1.9682875566234E-08  1.7369457662046E-08  1.5055755862113E-08  1.2741574265991E-08  1.0426716818249E-08  8.1109872450284E-09  5.7941889904623E-09  3.4761251529030E-09  1.1565984209191E-09 -3.9952850312731E-12 
 9.2000000000032E-01  9.2000000000090E-01  9.2000000000090E-01  9.2000000000090E-01  9.2000000000090E-01  9.2000000000090E-01  9.2000000000090E-01  9.2000000000090E-01  9.2000000000090E-01  9.2000000000090E-01 
 3.9999999999841E-02  3.9999999999551E-02  3.9999999999551E-02  3.9999999999551E-02  3.9999999999551E-02  3.9999999999551E-02  3.9999999999550E-02  3.9999999999550E-02  3.9999999999550E-02  3.9999999999550E-02 
 3.9999999999841E-02  3.9999999999551E-02  3.9999999999551E-02  3.9999999999551E-02  3.9999999999551E-02  3.9999999999551E-02  3.9999999999550E-02  3.9999999999550E-02  3.9999999999550E-02  3.9999999999550E-02 
 2.9180542364622E-02  2.9180335543569E-02  2.9180153026203E-02  2.9179994815505E-02  2.9179860916515E-02  2.9179751336335E-02  2.9179666084126E-02  2.9179605171116E-02  2.9179568610599E-02  2.9179556417944E-02 
 3.8001744822351E+00  3.8001723293221E+00  3.8001658704190E+00  3.8001551049975E+00  3.8001400321646E+00  3.8001206506621E+00  3.8000969588669E+00  3.8000689547898E+00  3.8000366360751E+00  3.8000000000000E+00 
 3.7709939398705E+00  3.7709919937785E+00  3.7709857173928E+00  3.7709751101820E+00  3.7709601712480E+00  3.7709408993258E+00  3.7709172927828E+00  3.7708893496187E+00  3.7708570674645E+00  3.7708204435821E+00 
 3.9714142713287E+00  3.9714142713285E+00  3.9714142713285E+00  3.9714142713285E+00  3.9714142713285E+00  3.9714142713285E+00  3.9714142713285E+00  3.9714142713285E+00  3.9714142713285E+00  3.9714142713285E+00 
-2.0042033145820E-01 -2.0042227754999E-01 -2.0042855393568E-01 -2.0043916114648E-01 -2.0045410008048E-01 -2.0047337200275E-01 -2.0049697854575E-01 -2.0052492170986E-01 -2.0055720386400E-01 -2.0059382774647E-01 
-1.6677148275920E+00 -3.3355560826266E+00 -3.3359638592568E+00 -3.3366531226264E+00 -3.3376241052880E+00 -3.3388771349603E+00 -3.3404126347628E+00 -3.3422311235184E+00 -3.3443332161248E+00 -1.6733598119972E+00 
 1.4691707910264E-07  1.2965263395895E-07  1.1238620263547E-07  9.5116190739235E-08  7.7841135173256E-08  6.0559571215236E-08  4.3270032017093E-08  2.5971048177516E-08  8.6611472043447E-09  8.6611472043447E-09 
 3.0018376886354E+01  2.6684909037336E+01  2.3353198578326E+01  2.0020938230867E+01  1.6687845770752E+01  1.3353638705591E+01  1.0018034182503E+01  6.6807488960870E+00  3.3414989968705E+00  0.0000000000000E+00 
 0.0000000000000E+00  3.3314426164735E+00  6.6631530753151E+00  9.9954134229867E+00  1.3328505882898E+01  1.6662712947831E+01  1.9998317471165E+01  2.3335602757923E+01  2.6674852656858E+01  3.0018364089375E+01 
 1.6677148275920E-08  3.3355560826266E-08  3.3359638592568E-08  3.3366531226264E-08  3.3376241052880E-08  3.3388771349603E-08  3.3404126347628E-08  3.3422311235184E-08  3.3443332161248E-08  1.6733598119972E-08 
 7.2440786946392E+03  1.4488157389278E+04  1.4488157389278E+04  1.4488157389278E+04  1.4488157389278E+04  1.4488157389278E+04  1.4488157389278E+04  1.4488157389278E+04  1.4488157389278E+04  7.2440786946392E+03 
 4.9259735123416E+04  9.8519470246832E+04  9.8519470246832E+04  9.8519470246832E+04  9.8519470246832E+04  9.8519470246832E+04  9.8519470246832E+04  9.8519470246832E+04  9.8519470246832E+04  4.9259735123416E+04 
 5.6503813818055E+04  1.1300762763611E+05  1.1300762763611E+05  1.1300762763611E+05  1.1300762763611E+05  1.1300762763611E+05  1.1300762763611E+05  1.1300762763611E+05  1.1300762763611E+05  5.6503813818055E+04 
 3.5000000000000E-01  3.5000000000000E-01  3.5000000000000E-01  3.5000000000000E-01  3.5000000000000E-01  3.5000000000000E-01  3.5000000000000E-01  3.5000000000000E-01  3.5000000000000E-01  3.5000000000000E-01 
 6.6040000000000E+00  1.3208000000000E+01  1.3208000000000E+01  1.3208000000000E+01  1.3208000000000E+01  1.3208000000000E+01  1.3208000000000E+01  1.3208000000000E+01  1.3208000000000E+01  6.6040000000000E+00 
-2.5253101568625E-01 -2.5254058772158E-01 -2.5257146117934E-01 -2.5262364647384E-01 -2.5269716121199E-01 -2.5279203020595E-01 -2.5290828549082E-01 -2.5304596634755E-01 -2.5320511933107E-01 -2.5338579830364E-01 
 3.3866666666667E-05  6.7733333333333E-05  6.7733333333334E-05  6.7733333333333E-05  6.7733333333334E-05  6.7733333333334E-05  6.7733333333333E-05  6.7733333333334E-05  6.7733333333333E-05  3.3866666666667E-05 
 2.6603001364262E+01  2.6603001364262E+01  2.6603001364262E+01  2.6603001364262E+01  2.6603001364262E+01  2.6603001364262E+01  2.6603001364262E+01  2.6603001364262E+01  2.6603001364262E+01  2.6603001364262E+01 
 1.7735334242833E+01  1.7735334242833E+01  1.7735334242833E+01  1.7735334242833E+01  1.7735334242833E+01  1.7735334242833E+01  1.7735334242833E+01  1.7735334242833E+01  1.7735334242833E+01  1.7735334242833E+01 
 1.3951179038869E-09  3.4172562435024E-09  9.5920549885756E-09  2.0029304284535E-08  3.4732539492863E-08  5.3706742504596E-08  7.6958345213426E-08  1.0449523399591E-07  1.3632675521433E-07  1.5331743366519E-07 
 1.3951179038869E-01  3.4172562435024E-01  9.5920549885756E-01  2.0029304284535E+00  3.4732539492863E+00  5.3706742504596E+00  7.6958345213426E+00  1.0449523399591E+01  1.3632675521433E+01  1.5331743366519E+01 
 8.6567624458085E-02  7.6992698558019E-02  5.9037283679962E-02  4.3470625085458E-02  3.0292892449031E-02  1.9505065580236E-02  1.1108935781129E-02  5.1071077724098E-03  1.5030021940256E-03  3.0085867413385E-04 
 5.2944165930605E-02  2.6473292579222E-01  9.0016821517760E-01  1.9594598033680E+00  3.4429610568372E+00  5.3511691848794E+00  7.6847255855615E+00  1.0444416291819E+01  1.3631172519239E+01  1.5331442507845E+01 
 0.0000000000000E+00  0.0000000000000E+00  0.0000000000000E+00  0.0000000000000E+00  0.0000000000000E+00  0.0000000000000E+00  0.0000000000000E+00  0.0000000000000E+00  0.0000000000000E+00  0.0000000000000E+00 
 0.0000000000000E+00  0.0000000000000E+00  0.0000000000000E+00  0.0000000000000E+00  0.0000000000000E+00  0.0000000000000E+00  0.0000000000000E+00  0.0000000000000E+00  0.0000000000000E+00  0.0000000000000E+00 
 0.0000000000000E+00  0.0000000000000E+00  0.0000000000000E+00  0.0000000000000E+00  0.0000000000000E+00  0.0000000000000E+00  0.0000000000000E+00  0.0000000000000E+00  0.0000000000000E+00  0.0000000000000E+00 
ZONE T = "CATH, 2.0000E-08", I = 10, SOLUTIONTIME = 2.000000E-08
ZONETYPE = ORDERED
DATAPACKING = BLOCK
STRANDID = 3
 1.2700000000000E-03  1.3377333333333E-03  1.4054666666667E-03  1.4732000000000E-03  1.5409333333333E-03  1.6086666666667E-03  1.6764000000000E-03  1.7441333333333E-03  1.8118666666667E-03  1.8796000000000E-03 
 1.9697523129429E-08  1.7382377225737E-08  1.5067311211698E-08  1.2751403097647E-08  1.0434820355542E-08  8.1166406064791E-09  5.7977572162271E-09  3.4776103591883E-09  1.1560029902820E-09 -5.8113236446794E-12 
 9.2000000000063E-01  9.2000000000180E-01  9.2000000000180E-01  9.2000000000180E-01  9.2000000000180E-01  9.2000000000180E-01  9.2000000000180E-01  9.2000000000180E-01  9.2000000000180E-01  9.2000000000180E-01 
 3.9999999999683E-02  3.9999999999102E-02  3.9999999999102E-02  3.9999999999102E-02  3.9999999999101E-02  3.9999999999101E-02  3.9999999999100E-02  3.9999999999100E-02  3.9999999999099E-02  3.9999999999099E-02 
 3.9999999999683E-02  3.9999999999102E-02  3.9999999999102E-02  3.9999999999102E-02  3.9999999999101E-02  3.9999999999101E-02  3.9999999999100E-02  3.9999999999100E-02  3.9999999999099E-02  3.9999999999099E-02 
 2.9165953672625E-02  2.9165746665258E-02  2.9165563983547E-02  2.9165405630468E-02  2.9165271611051E-02  2.9165161932384E-02  2.9165076603613E-02  2.9165015635945E-02  2.9164979042655E-02  2.9164966839085E-02 
 3.8001746397140E+00  3.8001724848545E+00  3.8001660201127E+00  3.8001552449611E+00  3.8001401585083E+00  3.8001207594988E+00  3.8000970463120E+00  3.8000690169622E+00  3.8000366690977E+00  3.8000000000000E+00 
 3.7710086860414E+00  3.7710067381893E+00  3.7710004561291E+00  3.7709898393306E+00  3.7709748868973E+00  3.7709555975664E+00  3.7709319697083E+00  3.7709040013262E+00  3.7708716900550E+00  3.7708350331609E+00 
 3.9714142713285E+00  3.9714142713282E+00  3.9714142713282E+00  3.9714142713282E+00  3.9714142713282E+00  3.9714142713282E+00  3.9714142713282E+00  3.9714142713282E+00  3.9714142713282E+00  3.9714142713282E+00 
-2.0040558528715E-01 -2.0040753313886E-01 -2.0041381519902E-01 -2.0042443199756E-01 -2.0043938443088E-01 -2.0045867376177E-01 -2.0048230161981E-01 -2.0051027000194E-01 -2.0054258127315E-01 -2.0057923816724E-01 
-1.6672359144167E+00 -3.3345983343200E+00 -3.3350063626424E+00 -3.3356960514050E+00 -3.3366676332984E+00 -3.3379214362422E+00 -3.3394578836207E+00 -3.3412774945868E+00 -3.3433808844354E+00 -1.6728843825234E+00 
 1.4704956114278E-07  1.2976937742855E-07  1.1248734441065E-07  9.5201737564154E-08  7.7911096179938E-08  6.0613957849055E-08  4.3308857951356E-08  2.5994329207525E-08  8.6689011163002E-09  8.6689011163002E-09 
 3.0043437538922E+01  2.6708942850708E+01  2.3374221302904E+01  2.0038950933205E+01  1.6702849982948E+01  1.3365636412978E+01  1.0027027808666E+01  6.6867412843129E+00  3.3444933870872E+00  0.0000000000000E+00 
 0.0000000000000E+00  3.3344542997609E+00  6.6691758476546E+00  1.0004446217366E+01  1.3340547167603E+01  1.6677760737783E+01  2.0016369341835E+01  2.3356655866123E+01  2.6698903763584E+01  3.0043437907952E+01 
 3.3349507420088E-08  6.6701544169466E-08  6.6709702218992E-08  6.6723491740314E-08  6.6742917385864E-08  6.6767985712025E-08  6.6798705183835E-08  6.6835086181052E-08  6.6877141005602E-08  3.3462441945207E-08 
 7.2440786946558E+03  1.4488157389312E+04  1.4488157389312E+04  1.4488157389312E+04  1.4488157389312E+04  1.4488157389312E+04  1.4488157389312E+04  1.4488157389312E+04  1.4488157389312E+04  7.2440786946559E+03 
 4.9259735123400E+04  9.8519470246798E+04  9.8519470246799E+04  9.8519470246798E+04  9.8519470246799E+04  9.8519470246799E+04  9.8519470246798E+04  9.8519470246799E+04  9.8519470246798E+04  4.9259735123399E+04 
 5.6503813818055E+04  1.1300762763611E+05  1.1300762763611E+05  1.1300762763611E+05  1.1300762763611E+05  1.1300762763611E+05  1.1300762763611E+05  1.1300762763611E+05  1.1300762763611E+05  5.6503813818055E+04 
 3.5000000000000E-01  3.5000000000000E-01  3.5000000000000E-01  3.5000000000000E-01  3.5000000000000E-01  3.5000000000000E-01  3.5000000000000E-01  3.5000000000000E-01  3.5000000000000E-01  3.5000000000000E-01 
 6.6040000000000E+00  1.3208000000000E+01  1.3208000000000E+01  1.3208000000000E+01  1.3208000000000E+01  1.3208000000000E+01  1.3208000000000E+01  1.3208000000000E+01  1.3208000000000E+01  6.6040000000000E+00 
-2.5245849703464E-01 -2.5246807497880E-01 -2.5249896749261E-01 -2.5255118499432E-01 -2.5262474510133E-01 -2.5271967264099E-01 -2.5283599966844E-01 -2.5297376548961E-01 -2.5313301668954E-01 -2.5331380716587E-01 
 3.3866666666667E-05  6.7733333333333E-05  6.7733333333334E-05  6.7733333333333E-05  6.7733333333334E-05  6.7733333333334E-05  6.7733333333333E-05  6.7733333333334E-05  6.7733333333333E-05  3.3866666666667E-05 
 2.6603001364267E+01  2.6603001364267E+01  2.6603001364267E+01  2.6603001364267E+01  2.6603001364267E+01  2.6603001364267E+01  2.6603001364267E+01  2.6603001364267E+01  2.6603001364267E+01  2.6603001364267E+01 
 1.7735334242827E+01  1.7735334242827E+01  1.7735334242827E+01  1.7735334242827E+01  1.7735334242827E+01  1.7735334242827E+01  1.7735334242827E+01  1.7735334242827E+01  1.7735334242827E+01  1.7735334242827E+01 
 2.7927539483409E-09  6.8406885575097E-09  1.9201453523526E-08  4.0094821458764E-08  6.9527859836562E-08  1.0751052818374E-07  1.5405568511925E-07  2.0917909746443E-07  2.7289945139671E-07  3.0691138237155E-07 
 1.3976360444540E-01  3.4234323140074E-01  9.6093985349506E-01  2.0065517174230E+00  3.4795320343699E+00  5.3803785679141E+00  7.7097339905824E+00  1.0468386346852E+01  1.3657269618238E+01  1.5359394870636E+01 
 8.6723662816575E-02  7.7131450221130E-02  5.9143625156175E-02  4.3548882710942E-02  3.0347392095103E-02  1.9540132010793E-02  1.1128892044897E-02  5.1162746452520E-03  1.5056976806319E-03  3.0139759395544E-04 
 5.3039941628826E-02  2.6521178117961E-01  9.0179622833888E-01  1.9630028347120E+00  3.4491846422748E+00  5.3608384359033E+00  7.6986050985375E+00  1.0463270072207E+01  1.3655763920557E+01  1.5359093473042E+01 
 0.0000000000000E+00  0.0000000000000E+00  0.0000000000000E+00  0.0000000000000E+00  0.0000000000000E+00  0.0000000000000E+00  0.0000000000000E+00  0.0000000000000E+00  0.0000000000000E+00  0.0000000000000E+00 
 0.0000000000000E+00  0.0000000000000E+00  0.0000000000000E+00  0.0000000000000E+00  0.0000000000000E+00  0.0000000000000E+00  0.0000000000000E+00  0.0000000000000E+00  0.0000000000000E+00  0.0000000000000E+00 
 0.0000000000000E+00  0.0000000000000E+00  0.0000000000000E+00  0.0000000000000E+00  0.0000000000000E+00  0.0000000000000E+00  0.0000000000000E+00  0.0000000000000E+00  0.0000000000000E+00  0.0000000000000E+00 
ZONE T = "CATH, 3.0000E-08", I = 10, SOLUTIONTIME = 3.000000E-08
ZONETYPE = ORDERED
DATAPACKING = BLOCK
STRANDID = 3
 1.2700000000000E-03  1.3377333333333E-03  1.4054666666667E-03  1.4732000000000E-03  1.5409333333333E-03  1.6086666666667E-03  1.6764000000000E-03  1.7441333333333E-03  1.8118666666667E-03  1.8796000000000E-03 
 1.9711128055087E-08  1.7395172493018E-08  1.5079659983669E-08  1.2762942092632E-08  1.0445549470253E-08  8.1276493313933E-09  5.8083189736702E-09  3.4880881650371E-09  1.1663966229128E-09  4.7217004612476E-12 
 9.2000000000095E-01  9.2000000000269E-01  9.2000000000270E-01  9.2000000000270E-01  9.2000000000270E-01  9.2000000000270E-01  9.2000000000270E-01  9.2000000000270E-01  9.2000000000270E-01  9.2000000000270E-01 
 3.9999999999524E-02  3.9999999998653E-02  3.9999999998652E-02  3.9999999998652E-02  3.9999999998652E-02  3.9999999998651E-02  3.9999999998651E-02  3.9999999998650E-02  3.9999999998649E-02  3.9999999998648E-02 
 3.9999999999524E-02  3.9999999998653E-02  3.9999999998652E-02  3.9999999998652E-02  3.9999999998652E-02  3.9999999998651E-02  3.9999999998651E-02  3.9999999998650E-02  3.9999999998649E-02  3.9999999998648E-02 
 2.9165369696842E-02  2.9165162682006E-02  2.9164979993699E-02  2.9164821634899E-02  2.9164687610638E-02  2.9164577928003E-02  2.9164492596142E-02  2.9164431626265E-02  2.9164395031647E-02  2.9164382827634E-02 
 3.8001746460029E+00  3.8001724910659E+00  3.8001660260917E+00  3.8001552505526E+00  3.8001401635573E+00  3.8001207638498E+00  3.8000970498095E+00  3.8000690194502E+00  3.8000366704200E+00  3.8000000000000E+00 
 3.7710092763060E+00  3.7710073283839E+00  3.7710010460980E+00  3.7709904289177E+00  3.7709754759467E+00  3.7709561859218E+00  3.7709325572133E+00  3.7709045878240E+00  3.7708722753884E+00  3.7708356171724E+00 
 3.9714142713283E+00  3.9714142713278E+00  3.9714142713278E+00  3.9714142713278E+00  3.9714142713278E+00  3.9714142713278E+00  3.9714142713278E+00  3.9714142713278E+00  3.9714142713278E+00  3.9714142713278E+00 
-2.0040499502234E-01 -2.0040694294385E-01 -2.0041322522981E-01 -2.0042384241005E-01 -2.0043879538111E-01 -2.0045808540597E-01 -2.0048171411445E-01 -2.0050968350382E-01 -2.0054199593940E-01 -2.0057865415542E-01 
-1.6672167471699E+00 -3.3345600028956E+00 -3.3349680412022E+00 -3.3356577468510E+00 -3.3366293525517E+00 -3.3378831862503E+00 -3.3394196713651E+00 -3.3412393270911E+00 -3.3433427687728E+00 -1.6728653541740E+00 
 1.4705500007412E-07  1.2977406259442E-07  1.1249140803861E-07  9.5205179113333E-08  7.7913914868190E-08  6.0616152698401E-08  4.3310427746775E-08  2.5995272509700E-08  8.6692162784949E-09  8.6692162784949E-09 
 3.0044442342489E+01  2.6709906883195E+01  2.3375065426452E+01  2.0039675062972E+01  1.6703453991001E+01  1.3366120129296E+01  1.0027391021374E+01  6.6869837382614E+00  3.3446147843211E+00  0.0000000000000E+00 
 0.0000000000000E+00  3.3345741651951E+00  6.6694156216435E+00  1.0004805985291E+01  1.3341027057279E+01  1.6678360918770E+01  2.0017090026815E+01  2.3357497309865E+01  2.6699866263980E+01  3.0044441988380E+01 
 5.0021674891787E-08  1.0004714419842E-07  1.0005938263101E-07  1.0008006920882E-07  1.0010921091138E-07  1.0014681757453E-07  1.0019290189749E-07  1.0024747945196E-07  1.0031056869333E-07  5.0191095486946E-08 
 7.2440786946725E+03  1.4488157389345E+04  1.4488157389345E+04  1.4488157389345E+04  1.4488157389345E+04  1.4488157389345E+04  1.4488157389345E+04  1.4488157389345E+04  1.4488157389345E+04  7.2440786946727E+03 
 4.9259735123383E+04  9.8519470246765E+04  9.8519470246766E+04  9.8519470246765E+04  9.8519470246766E+04  9.8519470246766E+04  9.8519470246765E+04  9.8519470246766E+04  9.8519470246765E+04  4.9259735123383E+04 
 5.6503813818055E+04  1.1300762763611E+05  1.1300762763611E+05  1.1300762763611E+05  1.1300762763611E+05  1.1300762763611E+05  1.1300762763611E+05  1.1300762763611E+05  1.1300762763611E+05  5.6503813818055E+04 
 3.5000000000000E-01  3.5000000000000E-01  3.5000000000000E-01  3.5000000000000E-01  3.5000000000000E-01  3.5000000000000E-01  3.5000000000000E-01  3.5000000000000E-01  3.5000000000000E-01  3.5000000000000E-01 
 6.6040000000000E+00  1.3208000000000E+01  1.3208000000000E+01  1.3208000000000E+01  1.3208000000000E+01  1.3208000000000E+01  1.3208000000000E+01  1.3208000000000E+01  1.3208000000000E+01  6.6040000000000E+00 
-2.5245559466534E-01 -2.5246517284188E-01 -2.5249606611161E-01 -2.5254828489181E-01 -2.5262184680131E-01 -2.5271677666946E-01 -2.5283310655399E-01 -2.5297087576401E-01 -2.5313013088831E-01 -2.5331092582888E-01 
 3.3866666666667E-05  6.7733333333333E-05  6.7733333333334E-05  6.7733333333333E-05  6.7733333333334E-05  6.7733333333334E-05  6.7733333333333E-05  6.7733333333334E-05  6.7733333333333E-05  3.3866666666667E-05 
 2.6603001364272E+01  2.6603001364272E+01  2.6603001364272E+01  2.6603001364272E+01  2.6603001364272E+01  2.6603001364272E+01  2.6603001364272E+01  2.6603001364272E+01  2.6603001364272E+01  2.6603001364272E+01 
 1.7735334242822E+01  1.7735334242822E+01  1.7735334242822E+01  1.7735334242822E+01  1.7735334242822E+01  1.7735334242822E+01  1.7735334242822E+01  1.7735334242822E+01  1.7735334242822E+01  1.7735334242822E+01 
 4.1904907141526E-09  1.0264367231965E-08  2.8811543238400E-08  6.0161781985710E-08  1.0432568372692E-07  1.6131818656051E-07  2.3115857704207E-07  3.1387050391380E-07  4.0948199492563E-07  4.6051640919623E-07 
 1.3977367658117E-01  3.4236786744548E-01  9.6100897148736E-01  2.0066960526945E+00  3.4797823890357E+00  5.3807658376778E+00  7.7102891922824E+00  1.0469140644937E+01  1.3658254352893E+01  1.5360502682467E+01 
 8.6729921872128E-02  7.7137018200809E-02  5.9147896904739E-02  4.3552030054874E-02  3.0349586895689E-02  1.9541546317771E-02  1.1129698249889E-02  5.1166456278714E-03  1.5058069644989E-03  3.0141949911308E-04 
 5.3043754709042E-02  2.6523084924467E-01  9.0186107458262E-01  1.9631440226397E+00  3.4494328021400E+00  5.3612242913600E+00  7.6991594940325E+00  1.0464023999309E+01  1.3656748545928E+01  1.5360201262968E+01 
 0.0000000000000E+00  0.0000000000000E+00  0.0000000000000E+00  0.0000000000000E+00  0.0000000000000E+00  0.0000000000000E+00  0.0000000000000E+00  0.0000000000000E+00  0.0000000000000E+00  0.0000000000000E+00 
 0.0000000000000E+00  0.0000000000000E+00  0.0000000000000E+00  0.0000000000000E+00  0.0000000000000E+00  0.0000000000000E+00  0.0000000000000E+00  0.0000000000000E+00  0.0000000000000E+00  0.0000000000000E+00 
 0.0000000000000E+00  0.0000000000000E+00  0.0000000000000E+00  0.0000000000000E+00  0.0000000000000E+00  0.0000000000000E+00  0.0000000000000E+00  0.0000000000000E+00  0.0000000000000E+00  0.0000000000000E+00 
ZONE T = "CATH, 4.0000E-08", I = 10, SOLUTIONTIME = 4.000000E-08
ZONETYPE = ORDERED
DATAPACKING = BLOCK
STRANDID = 3
 1.2700000000000E-03  1.3377333333333E-03  1.4054666666667E-03  1.4732000000000E-03  1.5409333333333E-03  1.6086666666667E-03  1.6764000000000E-03  1.7441333333333E-03  1.8118666666667E-03  1.8796000000000E-03 
 1.9702810707846E-08  1.7387256609290E-08  1.5071419168533E-08  1.2755466003273E-08  1.0438838154161E-08  8.1213396418577E-09  5.8024109852775E-09  3.4822187582705E-09  1.1609291074005E-09 -5.4481159172879E-13 
 9.2000000000127E-01  9.2000000000359E-01  9.2000000000359E-01  9.2000000000359E-01  9.2000000000360E-01  9.2000000000360E-01  9.2000000000360E-01  9.2000000000360E-01  9.2000000000360E-01  9.2000000000361E-01 
 3.9999999999365E-02  3.9999999998203E-02  3.9999999998203E-02  3.9999999998203E-02  3.9999999998202E-02  3.9999999998201E-02  3.9999999998201E-02  3.9999999998200E-02  3.9999999998198E-02  3.9999999998197E-02 
 3.9999999999365E-02  3.9999999998203E-02  3.9999999998203E-02  3.9999999998203E-02  3.9999999998202E-02  3.9999999998201E-02  3.9999999998201E-02  3.9999999998200E-02  3.9999999998198E-02  3.9999999998197E-02 
 2.9165638049363E-02  2.9165431037959E-02  2.9165248352684E-02  2.9165089996513E-02  2.9164955974478E-02  2.9164846293666E-02  2.9164760963225E-02  2.9164699994364E-02  2.9164663400356E-02  2.9164651196547E-02 
 3.8001746431127E+00  3.8001724882114E+00  3.8001660233439E+00  3.8001552479829E+00  3.8001401612370E+00  3.8001207618502E+00  3.8000970482021E+00  3.8000690183068E+00  3.8000366698123E+00  3.8000000000000E+00 
 3.7710090050633E+00  3.7710070571734E+00  3.7710007749912E+00  3.7709901579864E+00  3.7709752052625E+00  3.7709559155565E+00  3.7709322872389E+00  3.7709043183124E+00  3.7708720064120E+00  3.7708353488035E+00 
 3.9714142713282E+00  3.9714142713274E+00  3.9714142713274E+00  3.9714142713274E+00  3.9714142713274E+00  3.9714142713274E+00  3.9714142713274E+00  3.9714142713274E+00  3.9714142713274E+00  3.9714142713274E+00 
-2.0040526626483E-01 -2.0040721415400E-01 -2.0041349633619E-01 -2.0042411334101E-01 -2.0043906606494E-01 -2.0045835577087E-01 -2.0048198408852E-01 -2.0050995301499E-01 -2.0054226491546E-01 -2.0057892252396E-01 
-1.6672255550005E+00 -3.3345776171108E+00 -3.3349856508289E+00 -3.3356753487170E+00 -3.3366469434762E+00 -3.3379007630403E+00 -3.3394372308121E+00 -3.3412568659671E+00 -3.3433602838271E+00 -1.6728740981516E+00 