TITLE = "Solution on Domain BulkDomain1D_0"
VARIABLES = "x [m]"  
"Vel_axial" 
"MF_sp(ECDMC)" 
"MF_sp(Li+)" 
"MF_sp(PF6-)" 
"Volt(Electroly)" 
"Volt(AnodeVolt)" 
"Potential Drop Electrode-Electrolyte [V]" 
"Surf_0 Equilibrium Potential Drop Electrode-Electrolyte [V]" 
"Overpotential_0 [V]" 
"Current Source [A/m^2]" 
"Li+ flux [kmol/m^2/s]" 
"Electrolyte Current [A/m^2]" 
"Electrode Current [A/m^2]" 
"CV Capacity discharged [A-s/m^2]" 
"Depth of discharge in CV [A-s/m^2]" 
"CV Capacity remaining [A-s/m^2]" 
"Initial CV capacity [A-s/m^2]" 
"Porosity []" 
"Surface Area [m2/m2] (area per area)" 
"Specific current (per particle area) [A/m^2]" 
"Control volume thickness [m]" 
"MoleDens Li_C6-bulk [kmol/m^3]" 
"MoleDens V_C6-bulk [kmol/m^3]" 
"qHeat_accum [J/m3]" 
"qHeat_step [W/m3]" 
"Joule_Lyte [W/m3]" 
"Joule_Solid [W/m3]" 
"electrodHeat [W/m3]" 
"OverpotHeat [W/m3]" 
"deltaSHeat [W/m3]" 

ZONE T = "ANOD, 0.0000E+00", I = 10, SOLUTIONTIME = 0.000000E+00
ZONETYPE = ORDERED
DATAPACKING = BLOCK
STRANDID = 1
 0.0000000000000E+00  8.7488888888889E-05  1.7497777777778E-04  2.6246666666667E-04  3.4995555555556E-04  4.3744444444444E-04  5.2493333333333E-04  6.1242222222222E-04  6.9991111111111E-04  7.8740000000000E-04 
 0.0000000000000E+00  0.0000000000000E+00  0.0000000000000E+00  0.0000000000000E+00  0.0000000000000E+00  0.0000000000000E+00  0.0000000000000E+00  0.0000000000000E+00  0.0000000000000E+00  0.0000000000000E+00 
 9.2000000000000E-01  9.2000000000000E-01  9.2000000000000E-01  9.2000000000000E-01  9.2000000000000E-01  9.2000000000000E-01  9.2000000000000E-01  9.2000000000000E-01  9.2000000000000E-01  9.2000000000000E-01 
 4.0000000000000E-02  4.0000000000000E-02  4.0000000000000E-02  4.0000000000000E-02  4.0000000000000E-02  4.0000000000000E-02  4.0000000000000E-02  4.0000000000000E-02  4.0000000000000E-02  4.0000000000000E-02 
 4.0000000000000E-02  4.0000000000000E-02  4.0000000000000E-02  4.0000000000000E-02  4.0000000000000E-02  4.0000000000000E-02  4.0000000000000E-02  4.0000000000000E-02  4.0000000000000E-02  4.0000000000000E-02 
-7.0000000000000E-02 -7.0000000000000E-02 -7.0000000000000E-02 -7.0000000000000E-02 -7.0000000000000E-02 -7.0000000000000E-02 -7.0000000000000E-02 -7.0000000000000E-02 -7.0000000000000E-02 -7.0000000000000E-02 
 0.0000000000000E+00  0.0000000000000E+00  0.0000000000000E+00  0.0000000000000E+00  0.0000000000000E+00  0.0000000000000E+00  0.0000000000000E+00  0.0000000000000E+00  0.0000000000000E+00  0.0000000000000E+00 
 7.0000000000000E-02  7.0000000000000E-02  7.0000000000000E-02  7.0000000000000E-02  7.0000000000000E-02  7.0000000000000E-02  7.0000000000000E-02  7.0000000000000E-02  7.0000000000000E-02  7.0000000000000E-02 
-4.0906712753390E-02 -4.0906712753390E-02 -4.0906712753390E-02 -4.0906712753390E-02 -4.0906712753390E-02 -4.0906712753390E-02 -4.0906712753390E-02 -4.0906712753390E-02 -4.0906712753390E-02 -4.0906712753390E-02 
 1.1090671275339E-01  1.1090671275339E-01  1.1090671275339E-01  1.1090671275339E-01  1.1090671275339E-01  1.1090671275339E-01  1.1090671275339E-01  1.1090671275339E-01  1.1090671275339E-01  1.1090671275339E-01 
 3.0930240924008E+01  6.1860481848016E+01  6.1860481848016E+01  6.1860481848016E+01  6.1860481848016E+01  6.1860481848016E+01  6.1860481848016E+01  6.1860481848016E+01  6.1860481848016E+01  3.0930240924008E+01 
-0.0000000000000E+00 -0.0000000000000E+00 -0.0000000000000E+00 -0.0000000000000E+00 -0.0000000000000E+00 -0.0000000000000E+00 -0.0000000000000E+00 -0.0000000000000E+00 -0.0000000000000E+00 -0.0000000000000E+00 
 0.0000000000000E+00  0.0000000000000E+00  0.0000000000000E+00  0.0000000000000E+00  0.0000000000000E+00  0.0000000000000E+00  0.0000000000000E+00  0.0000000000000E+00  0.0000000000000E+00  3.0930240924008E+01 
 3.0930240924008E+01 -0.0000000000000E+00 -0.0000000000000E+00 -0.0000000000000E+00 -0.0000000000000E+00 -0.0000000000000E+00 -0.0000000000000E+00 -0.0000000000000E+00 -0.0000000000000E+00  0.0000000000000E+00 
 0.0000000000000E+00  0.0000000000000E+00  0.0000000000000E+00  0.0000000000000E+00  0.0000000000000E+00  0.0000000000000E+00  0.0000000000000E+00  0.0000000000000E+00  0.0000000000000E+00  0.0000000000000E+00 
 9.1448444543281E+04  1.8289688908656E+05  1.8289688908656E+05  1.8289688908656E+05  1.8289688908656E+05  1.8289688908656E+05  1.8289688908656E+05  1.8289688908656E+05  1.8289688908656E+05  9.1448444543281E+04 
 3.6579377817312E+05  7.3158755634625E+05  7.3158755634625E+05  7.3158755634625E+05  7.3158755634625E+05  7.3158755634625E+05  7.3158755634625E+05  7.3158755634625E+05  7.3158755634625E+05  3.6579377817312E+05 
 4.5724222271640E+05  9.1448444543281E+05  9.1448444543281E+05  9.1448444543281E+05  9.1448444543281E+05  9.1448444543281E+05  9.1448444543281E+05  9.1448444543281E+05  9.1448444543281E+05  4.5724222271640E+05 
 3.5000000000000E-01  3.5000000000000E-01  3.5000000000000E-01  3.5000000000000E-01  3.5000000000000E-01  3.5000000000000E-01  3.5000000000000E-01  3.5000000000000E-01  3.5000000000000E-01  3.5000000000000E-01 
 8.5301666666666E+00  1.7060333333333E+01  1.7060333333333E+01  1.7060333333333E+01  1.7060333333333E+01  1.7060333333333E+01  1.7060333333333E+01  1.7060333333333E+01  1.7060333333333E+01  8.5301666666666E+00 
 3.6259831879809E+00  3.6259831879809E+00  3.6259831879809E+00  3.6259831879809E+00  3.6259831879809E+00  3.6259831879809E+00  3.6259831879809E+00  3.6259831879809E+00  3.6259831879809E+00  3.6259831879809E+00 
 4.3744444444444E-05  8.7488888888889E-05  8.7488888888889E-05  8.7488888888889E-05  8.7488888888889E-05  8.7488888888889E-05  8.7488888888889E-05  8.7488888888889E-05  8.7488888888889E-05  4.3744444444444E-05 
 8.6666666666666E+01  8.6666666666666E+01  8.6666666666666E+01  8.6666666666666E+01  8.6666666666666E+01  8.6666666666666E+01  8.6666666666666E+01  8.6666666666666E+01  8.6666666666666E+01  8.6666666666666E+01 
 2.1666666666667E+01  2.1666666666667E+01  2.1666666666667E+01  2.1666666666667E+01  2.1666666666667E+01  2.1666666666667E+01  2.1666666666667E+01  2.1666666666667E+01  2.1666666666667E+01  2.1666666666667E+01 
 0.0000000000000E+00  0.0000000000000E+00  0.0000000000000E+00  0.0000000000000E+00  0.0000000000000E+00  0.0000000000000E+00  0.0000000000000E+00  0.0000000000000E+00  0.0000000000000E+00  0.0000000000000E+00 
 0.0000000000000E+00  0.0000000000000E+00  0.0000000000000E+00  0.0000000000000E+00  0.0000000000000E+00  0.0000000000000E+00  0.0000000000000E+00  0.0000000000000E+00  0.0000000000000E+00  0.0000000000000E+00 
 0.0000000000000E+00  0.0000000000000E+00  0.0000000000000E+00  0.0000000000000E+00  0.0000000000000E+00  0.0000000000000E+00  0.0000000000000E+00  0.0000000000000E+00  0.0000000000000E+00  0.0000000000000E+00 
 0.0000000000000E+00  0.0000000000000E+00  0.0000000000000E+00  0.0000000000000E+00  0.0000000000000E+00  0.0000000000000E+00  0.0000000000000E+00  0.0000000000000E+00  0.0000000000000E+00  0.0000000000000E+00 
 0.0000000000000E+00  0.0000000000000E+00  0.0000000000000E+00  0.0000000000000E+00  0.0000000000000E+00  0.0000000000000E+00  0.0000000000000E+00  0.0000000000000E+00  0.0000000000000E+00  0.0000000000000E+00 
 0.0000000000000E+00  0.0000000000000E+00  0.0000000000000E+00  0.0000000000000E+00  0.0000000000000E+00  0.0000000000000E+00  0.0000000000000E+00  0.0000000000000E+00  0.0000000000000E+00  0.0000000000000E+00 
 0.0000000000000E+00  0.0000000000000E+00  0.0000000000000E+00  0.0000000000000E+00  0.0000000000000E+00  0.0000000000000E+00  0.0000000000000E+00  0.0000000000000E+00  0.0000000000000E+00  0.0000000000000E+00 
ZONE T = "ANOD, 1.0000E-08", I = 10, SOLUTIONTIME = 1.000000E-08
ZONETYPE = ORDERED
DATAPACKING = BLOCK
STRANDID = 1
 0.0000000000000E+00  8.7488888888889E-05  1.7497777777778E-04  2.6246666666667E-04  3.4995555555556E-04  4.3744444444444E-04  5.2493333333333E-04  6.1242222222222E-04  6.9991111111111E-04  7.8740000000000E-04 
 1.1589917711795E-09  3.4769775214160E-09  5.7949719097540E-09  8.1129813666682E-09  1.0431012322934E-08  1.2749071209130E-08  1.5067164455942E-08  1.7385298494413E-08  1.9703479755461E-08  2.0863142024386E-08 
 9.1999999999930E-01  9.1999999999930E-01  9.1999999999930E-01  9.1999999999930E-01  9.1999999999930E-01  9.1999999999930E-01  9.1999999999930E-01  9.1999999999930E-01  9.1999999999930E-01  9.1999999999971E-01 
 4.0000000000348E-02  4.0000000000348E-02  4.0000000000348E-02  4.0000000000348E-02  4.0000000000348E-02  4.0000000000348E-02  4.0000000000348E-02  4.0000000000348E-02  4.0000000000348E-02  4.0000000000144E-02 
 4.0000000000348E-02  4.0000000000348E-02  4.0000000000348E-02  4.0000000000348E-02  4.0000000000348E-02  4.0000000000348E-02  4.0000000000348E-02  4.0000000000348E-02  4.0000000000348E-02  4.0000000000144E-02 
 2.9167371469787E-02  2.9167355742690E-02  2.9167308561330E-02  2.9167229925611E-02  2.9167119835340E-02  2.9166978290188E-02  2.9166805289819E-02  2.9166600833734E-02  2.9166364921401E-02  2.9166097552162E-02 
 0.0000000000000E+00 -4.7371275802549E-09 -8.9169665840301E-09 -1.2539514934559E-08 -1.5604769009065E-08 -1.8112723638688E-08 -2.0063372108533E-08 -2.1456706157643E-08 -2.2292715978916E-08 -2.2571390219131E-08 
-2.9167371469787E-02 -2.9167360479817E-02 -2.9167317478296E-02 -2.9167242465126E-02 -2.9167135440109E-02 -2.9166996402912E-02 -2.9166825353192E-02 -2.9166622290440E-02 -2.9166387214117E-02 -2.9166120123552E-02 
-4.0906712752893E-02 -4.0906712752892E-02 -4.0906712752893E-02 -4.0906712752893E-02 -4.0906712752887E-02 -4.0906712752893E-02 -4.0906712752893E-02 -4.0906712752887E-02 -4.0906712752887E-02 -4.0906712753018E-02 
 1.1739341283105E-02  1.1739352273074E-02  1.1739395274596E-02  1.1739470287766E-02  1.1739577312777E-02  1.1739716349981E-02  1.1739887399701E-02  1.1740090462446E-02  1.1740325538769E-02  1.1740592629466E-02 
 1.6690490558913E+00  3.3381012909757E+00  3.3381137305142E+00  3.3381354304317E+00  3.3381663907947E+00  3.3382066117122E+00  3.3382560933007E+00  3.3383148357278E+00  3.3383828391744E+00  1.6692300519316E+00 
 8.6491868296951E-09  2.5947597676740E-08  4.3246060947120E-08  6.0544631468299E-08  7.7843382064351E-08  9.5142317798862E-08  1.1244152808733E-07  1.2974103063722E-07  1.4704096768198E-07  1.4704096768198E-07 
 0.0000000000000E+00  3.3380823935226E+00  6.6761734331917E+00  1.0014279879073E+01  1.3352414047669E+01  1.6690583454214E+01  2.0028797214487E+01  2.3367065663546E+01  2.6705397275740E+01  3.0043810616125E+01 
 3.0043810257408E+01  2.6705719149129E+01  2.3367628824576E+01  2.0029521430271E+01  1.6691387705601E+01  1.3353218389881E+01  1.0015004222484E+01  6.6767359424578E+00  3.3384042886775E+00  0.0000000000000E+00 
 1.6690490558913E-08  3.3381012909757E-08  3.3381137305142E-08  3.3381354304317E-08  3.3381663907947E-08  3.3382066117122E-08  3.3382560933007E-08  3.3383148357278E-08  3.3383828391744E-08  1.6692300519316E-08 
 9.1448444543298E+04  1.8289688908659E+05  1.8289688908660E+05  1.8289688908660E+05  1.8289688908660E+05  1.8289688908659E+05  1.8289688908659E+05  1.8289688908660E+05  1.8289688908660E+05  9.1448444543298E+04 
 3.6579377817311E+05  7.3158755634621E+05  7.3158755634621E+05  7.3158755634621E+05  7.3158755634621E+05  7.3158755634621E+05  7.3158755634621E+05  7.3158755634621E+05  7.3158755634621E+05  3.6579377817311E+05 
 4.5724222271640E+05  9.1448444543281E+05  9.1448444543281E+05  9.1448444543281E+05  9.1448444543281E+05  9.1448444543281E+05  9.1448444543281E+05  9.1448444543281E+05  9.1448444543281E+05  4.5724222271640E+05 
 3.5000000000000E-01  3.5000000000000E-01  3.5000000000000E-01  3.5000000000000E-01  3.5000000000000E-01  3.5000000000000E-01  3.5000000000000E-01  3.5000000000000E-01  3.5000000000000E-01  3.5000000000000E-01 
 8.5301666666666E+00  1.7060333333333E+01  1.7060333333333E+01  1.7060333333333E+01  1.7060333333333E+01  1.7060333333333E+01  1.7060333333333E+01  1.7060333333333E+01  1.7060333333333E+01  8.5301666666666E+00 
 1.9566429603462E-01  1.9566448238462E-01  1.9566521153441E-01  1.9566648348596E-01  1.9566829824318E-01  1.9567065581244E-01  1.9567355620059E-01  1.9567699941743E-01  1.9568098547358E-01  1.9568551438209E-01 
 4.3744444444444E-05  8.7488888888889E-05  8.7488888888889E-05  8.7488888888889E-05  8.7488888888889E-05  8.7488888888889E-05  8.7488888888889E-05  8.7488888888889E-05  8.7488888888889E-05  4.3744444444444E-05 
 8.6666666666662E+01  8.6666666666662E+01  8.6666666666662E+01  8.6666666666662E+01  8.6666666666662E+01  8.6666666666662E+01  8.6666666666662E+01  8.6666666666662E+01  8.6666666666662E+01  8.6666666666662E+01 
 2.1666666666671E+01  2.1666666666671E+01  2.1666666666671E+01  2.1666666666671E+01  2.1666666666671E+01  2.1666666666671E+01  2.1666666666671E+01  2.1666666666671E+01  2.1666666666671E+01  2.1666666666671E+01 
 1.8363932996739E-11  2.8663998460775E-11  6.1478030066540E-11  1.1872010440339E-10  2.0039091492146E-10  3.0649131167835E-10  4.3702248743278E-10  5.9198590910661E-10  7.7138328165607E-10  8.6719071385220E-10 
 1.8363932996739E-03  2.8663998460775E-03  6.1478030066540E-03  1.1872010440339E-02  2.0039091492146E-02  3.0649131167835E-02  4.3702248743278E-02  5.9198590910661E-02  7.7138328165607E-02  8.6719071385220E-02 
 3.0002833290005E-04  1.5001455344680E-03  5.1005075216492E-03  1.1101148901223E-02  1.9502138955730E-02  3.0303562156536E-02  4.3505536773186E-02  5.9108208019594E-02  7.7111744441138E-02  8.6713754492661E-02 
 1.5363649667738E-03  1.3662543116095E-03  1.0472954850048E-03  7.7086153911538E-04  5.3695253641650E-04  3.4556901129867E-04  1.9671197009211E-04  9.0382891066702E-05  2.6583724469361E-05  5.3168925588672E-06 
 0.0000000000000E+00  0.0000000000000E+00  0.0000000000000E+00  0.0000000000000E+00  0.0000000000000E+00  0.0000000000000E+00  0.0000000000000E+00  0.0000000000000E+00  0.0000000000000E+00  0.0000000000000E+00 
 0.0000000000000E+00  0.0000000000000E+00  0.0000000000000E+00  0.0000000000000E+00  0.0000000000000E+00  0.0000000000000E+00  0.0000000000000E+00  0.0000000000000E+00  0.0000000000000E+00  0.0000000000000E+00 
 0.0000000000000E+00  0.0000000000000E+00  0.0000000000000E+00  0.0000000000000E+00  0.0000000000000E+00  0.0000000000000E+00  0.0000000000000E+00  0.0000000000000E+00  0.0000000000000E+00  0.0000000000000E+00 
ZONE T = "ANOD, 2.0000E-08", I = 10, SOLUTIONTIME = 2.000000E-08
ZONETYPE = ORDERED
DATAPACKING = BLOCK
STRANDID = 1
 0.0000000000000E+00  8.7488888888889E-05  1.7497777777778E-04  2.6246666666667E-04  3.4995555555556E-04  4.3744444444444E-04  5.2493333333333E-04  6.1242222222222E-04  6.9991111111111E-04  7.8740000000000E-04 
 1.1589975178088E-09  3.4769947610904E-09  5.7950006425037E-09  8.1130215925445E-09  1.0431064041756E-08  1.2749134420752E-08  1.5066512744778E-08  1.7383931860100E-08  1.9701398197660E-08  2.0861066212436E-08 
 9.1999999999861E-01  9.1999999999861E-01  9.1999999999861E-01  9.1999999999861E-01  9.1999999999861E-01  9.1999999999861E-01  9.1999999999861E-01  9.1999999999861E-01  9.1999999999861E-01  9.1999999999942E-01 
 4.0000000000696E-02  4.0000000000696E-02  4.0000000000696E-02  4.0000000000696E-02  4.0000000000696E-02  4.0000000000696E-02  4.0000000000696E-02  4.0000000000696E-02  4.0000000000696E-02  4.0000000000288E-02 
 4.0000000000696E-02  4.0000000000696E-02  4.0000000000696E-02  4.0000000000696E-02  4.0000000000696E-02  4.0000000000696E-02  4.0000000000696E-02  4.0000000000696E-02  4.0000000000696E-02  4.0000000000288E-02 
 2.9167373665565E-02  2.9167357938380E-02  2.9167310756793E-02  2.9167232120688E-02  2.9167122029861E-02  2.9166980484019E-02  2.9166807482784E-02  2.9166603025690E-02  2.9166367112182E-02  2.9166099741620E-02 
 0.0000000000000E+00 -4.7371510662850E-09 -8.9170107929400E-09 -1.2539577103191E-08 -1.5604846374249E-08 -1.8112813437298E-08 -2.0063471577477E-08 -2.1456812533862E-08 -2.2292826499437E-08 -2.2571502121063E-08 
-2.9167373665565E-02 -2.9167362675531E-02 -2.9167319673804E-02 -2.9167244660266E-02 -2.9167137634708E-02 -2.9166998596833E-02 -2.9166827546256E-02 -2.9166624482502E-02 -2.9166389405008E-02 -2.9166122313122E-02 
-4.0906712752394E-02 -4.0906712752394E-02 -4.0906712752394E-02 -4.0906712752394E-02 -4.0906712752394E-02 -4.0906712752394E-02 -4.0906712752394E-02 -4.0906712752394E-02 -4.0906712752394E-02 -4.0906712752657E-02 
 1.1739339086829E-02  1.1739350076864E-02  1.1739393078590E-02  1.1739468092128E-02  1.1739575117687E-02  1.1739714155561E-02  1.1739885206138E-02  1.1740088269892E-02  1.1740323347386E-02  1.1740590439535E-02 
 1.6690487382327E+00  3.3381006556773E+00  3.3381130952749E+00  3.3381347952989E+00  3.3381657558171E+00  3.3382059769311E+00  3.3382554587670E+00  3.3383142014824E+00  3.3383822052671E+00  1.6692297351833E+00 
 8.6492352061580E-09  2.5947722098196E-08  4.3246273451378E-08  6.0544937256324E-08  7.7843761507292E-08  9.5142794179453E-08  1.1244208328079E-07  1.2974167679723E-07  1.4704176694566E-07  1.4704176694566E-07 
 0.0000000000000E+00  3.3380990659879E+00  6.6762059415825E+00  1.0014329886896E+01  1.3352480162409E+01  1.6690666028786E+01  2.0028896746692E+01  2.3367181576606E+01  2.6705529780042E+01  3.0043950618050E+01 
 3.0043950617932E+01  2.6705851551860E+01  2.3367744676384E+01  2.0029620731097E+01  1.6691470455539E+01  1.3353284589165E+01  1.0015053871316E+01  6.6767690411916E+00  3.3384208378168E+00  0.0000000000000E+00 
 3.3380977941240E-08  6.6762019466530E-08  6.6762268257891E-08  6.6762702257305E-08  6.6763321466118E-08  6.6764125886433E-08  6.6765115520677E-08  6.6766290372102E-08  6.6767650444415E-08  3.3384597871149E-08 
 9.1448444543314E+04  1.8289688908663E+05  1.8289688908663E+05  1.8289688908663E+05  1.8289688908663E+05  1.8289688908663E+05  1.8289688908663E+05  1.8289688908663E+05  1.8289688908663E+05  9.1448444543314E+04 
 3.6579377817309E+05  7.3158755634618E+05  7.3158755634618E+05  7.3158755634618E+05  7.3158755634618E+05  7.3158755634618E+05  7.3158755634618E+05  7.3158755634618E+05  7.3158755634618E+05  3.6579377817309E+05 
 4.5724222271640E+05  9.1448444543281E+05  9.1448444543281E+05  9.1448444543281E+05  9.1448444543281E+05  9.1448444543281E+05  9.1448444543281E+05  9.1448444543281E+05  9.1448444543281E+05  4.5724222271640E+05 
 3.5000000000000E-01  3.5000000000000E-01  3.5000000000000E-01  3.5000000000000E-01  3.5000000000000E-01  3.5000000000000E-01  3.5000000000000E-01  3.5000000000000E-01  3.5000000000000E-01  3.5000000000000E-01 
 8.5301666666666E+00  1.7060333333333E+01  1.7060333333333E+01  1.7060333333333E+01  1.7060333333333E+01  1.7060333333333E+01  1.7060333333333E+01  1.7060333333333E+01  1.7060333333333E+01  8.5301666666666E+00 
 1.9566425879518E-01  1.9566444514628E-01  1.9566517429954E-01  1.9566644625733E-01  1.9566826102365E-01  1.9567061860443E-01  1.9567351900707E-01  1.9567696224082E-01  1.9568094831678E-01  1.9568547724937E-01 
 4.3744444444444E-05  8.7488888888889E-05  8.7488888888889E-05  8.7488888888889E-05  8.7488888888889E-05  8.7488888888889E-05  8.7488888888889E-05  8.7488888888889E-05  8.7488888888889E-05  4.3744444444444E-05 
 8.6666666666658E+01  8.6666666666658E+01  8.6666666666658E+01  8.6666666666658E+01  8.6666666666658E+01  8.6666666666658E+01  8.6666666666658E+01  8.6666666666658E+01  8.6666666666658E+01  8.6666666666658E+01 
 2.1666666666674E+01  2.1666666666674E+01  2.1666666666674E+01  2.1666666666674E+01  2.1666666666674E+01  2.1666666666674E+01  2.1666666666674E+01  2.1666666666674E+01  2.1666666666674E+01  2.1666666666674E+01 
 3.6728051897919E-11  5.7328278657166E-11  1.2295666203505E-10  2.3744139634313E-10  4.0078381022667E-10  6.1298566002733E-10  8.7404931586936E-10  1.1839776931331E-09  1.5427742163943E-09  1.7343900046272E-09 
 1.8364118901180E-03  2.8664280196391E-03  6.1478631968506E-03  1.1872129193974E-02  2.0039289530520E-02  3.0649434834898E-02  4.3702682843658E-02  5.9199178402647E-02  7.7139093473821E-02  8.6719929077502E-02 
 6.0006002203211E-04  3.0003056951147E-03  1.0201064848922E-02  2.2202408912622E-02  3.9004470625778E-02  6.0607424553770E-02  8.7011505696365E-02  1.1821700263506E-01  1.5422425392693E-01  1.7342836662489E-01 
 3.0727451677597E-03  2.7325221706019E-03  2.0946013545829E-03  1.5417307216912E-03  1.0739103968884E-03  6.9114144896319E-04  3.9342589057047E-04  1.8076667825253E-04  5.3167712502358E-05  1.0633837830390E-05 
 0.0000000000000E+00  0.0000000000000E+00  0.0000000000000E+00  0.0000000000000E+00  0.0000000000000E+00  0.0000000000000E+00  0.0000000000000E+00  0.0000000000000E+00  0.0000000000000E+00  0.0000000000000E+00 
 0.0000000000000E+00  0.0000000000000E+00  0.0000000000000E+00  0.0000000000000E+00  0.0000000000000E+00  0.0000000000000E+00  0.0000000000000E+00  0.0000000000000E+00  0.0000000000000E+00  0.0000000000000E+00 
 0.0000000000000E+00  0.0000000000000E+00  0.0000000000000E+00  0.0000000000000E+00  0.0000000000000E+00  0.0000000000000E+00  0.0000000000000E+00  0.0000000000000E+00  0.0000000000000E+00  0.0000000000000E+00 
ZONE T = "ANOD, 3.0000E-08", I = 10, SOLUTIONTIME = 3.000000E-08
ZONETYPE = ORDERED
DATAPACKING = BLOCK
STRANDID = 1
 0.0000000000000E+00  8.7488888888889E-05  1.7497777777778E-04  2.6246666666667E-04  3.4995555555556E-04  4.3744444444444E-04  5.2493333333333E-04  6.1242222222222E-04  6.9991111111111E-04  7.8740000000000E-04 
 1.1589975177886E-09  3.4769947610295E-09  5.7950006424022E-09  8.1130215924026E-09  1.0431064041575E-08  1.2749134420530E-08  1.5067965575427E-08  1.7386837521620E-08  1.9705756690052E-08  2.0864335081635E-08 
 9.1999999999791E-01  9.1999999999791E-01  9.1999999999791E-01  9.1999999999791E-01  9.1999999999791E-01  9.1999999999791E-01  9.1999999999791E-01  9.1999999999791E-01  9.1999999999791E-01  9.1999999999914E-01 
 4.0000000001045E-02  4.0000000001045E-02  4.0000000001045E-02  4.0000000001045E-02  4.0000000001045E-02  4.0000000001045E-02  4.0000000001045E-02  4.0000000001045E-02  4.0000000001045E-02  4.0000000000432E-02 
 4.0000000001045E-02  4.0000000001045E-02  4.0000000001045E-02  4.0000000001045E-02  4.0000000001045E-02  4.0000000001045E-02  4.0000000001045E-02  4.0000000001045E-02  4.0000000001045E-02  4.0000000000432E-02 
 2.9167373665350E-02  2.9167357938165E-02  2.9167310756579E-02  2.9167232120474E-02  2.9167122029647E-02  2.9166980483805E-02  2.9166807482570E-02  2.9166603025475E-02  2.9166367111967E-02  2.9166099741405E-02 
 0.0000000000000E+00 -4.7371510662055E-09 -8.9170107927907E-09 -1.2539577102982E-08 -1.5604846373989E-08 -1.8112813436997E-08 -2.0063471577146E-08 -2.1456812533509E-08 -2.2292826499072E-08 -2.2571502120696E-08 
-2.9167373665350E-02 -2.9167362675316E-02 -2.9167319673589E-02 -2.9167244660051E-02 -2.9167137634493E-02 -2.9166998596618E-02 -2.9166827546041E-02 -2.9166624482288E-02 -2.9166389404794E-02 -2.9166122312907E-02 
-4.0906712751889E-02 -4.0906712751889E-02 -4.0906712751889E-02 -4.0906712751889E-02 -4.0906712751892E-02 -4.0906712751889E-02 -4.0906712751889E-02 -4.0906712751892E-02 -4.0906712751892E-02 -4.0906712752285E-02 
 1.1739339086539E-02  1.1739350076573E-02  1.1739393078300E-02  1.1739468091838E-02  1.1739575117399E-02  1.1739714155271E-02  1.1739885205848E-02  1.1740088269604E-02  1.1740323347098E-02  1.1740590439378E-02 
 1.6690487382035E+00  3.3381006556187E+00  3.3381130952166E+00  3.3381347952404E+00  3.3381657557601E+00  3.3382059768727E+00  3.3382554587085E+00  3.3383142014256E+00  3.3383822052102E+00  1.6692297351695E+00 
 8.6492352058863E-09  2.5947722098768E-08  4.3246273451755E-08  6.0544937248864E-08  7.7843761506061E-08  9.5142794178034E-08  1.1244208327761E-07  1.2974167679419E-07  1.4704183906035E-07  1.4704183906035E-07 
 0.0000000000000E+00  3.3380990660169E+00  6.6762059414566E+00  1.0014329886799E+01  1.3352480162157E+01  1.6690666028379E+01  2.0028896746314E+01  2.3367181576442E+01  2.6705529779502E+01  3.0043950617106E+01 
 3.0043950617426E+01  2.6705851551413E+01  2.3367744675996E+01  2.0029620730767E+01  1.6691470455267E+01  1.3353284588950E+01  1.0015053871160E+01  6.6767690410925E+00  3.3384208377747E+00  0.0000000000000E+00 
 5.0071465323275E-08  1.0014302602272E-07  1.0014339921006E-07  1.0014405020971E-07  1.0014497902372E-07  1.0014618565516E-07  1.0014767010776E-07  1.0014943238636E-07  1.0015147249652E-07  5.0076895222844E-08 
 9.1448444543331E+04  1.8289688908666E+05  1.8289688908666E+05  1.8289688908666E+05  1.8289688908666E+05  1.8289688908666E+05  1.8289688908666E+05  1.8289688908666E+05  1.8289688908666E+05  9.1448444543331E+04 
 3.6579377817307E+05  7.3158755634615E+05  7.3158755634615E+05  7.3158755634615E+05  7.3158755634615E+05  7.3158755634615E+05  7.3158755634615E+05  7.3158755634615E+05  7.3158755634615E+05  3.6579377817307E+05 
 4.5724222271640E+05  9.1448444543281E+05  9.1448444543281E+05  9.1448444543281E+05  9.1448444543281E+05  9.1448444543281E+05  9.1448444543281E+05  9.1448444543281E+05  9.1448444543281E+05  4.5724222271640E+05 
 3.5000000000000E-01  3.5000000000000E-01  3.5000000000000E-01  3.5000000000000E-01  3.5000000000000E-01  3.5000000000000E-01  3.5000000000000E-01  3.5000000000000E-01  3.5000000000000E-01  3.5000000000000E-01 
 8.5301666666666E+00  1.7060333333333E+01  1.7060333333333E+01  1.7060333333333E+01  1.7060333333333E+01  1.7060333333333E+01  1.7060333333333E+01  1.7060333333333E+01  1.7060333333333E+01  8.5301666666666E+00 
 1.9566425879176E-01  1.9566444514285E-01  1.9566517429612E-01  1.9566644625391E-01  1.9566826102031E-01  1.9567061860101E-01  1.9567351900365E-01  1.9567696223749E-01  1.9568094831345E-01  1.9568547724775E-01 
 4.3744444444444E-05  8.7488888888889E-05  8.7488888888889E-05  8.7488888888889E-05  8.7488888888889E-05  8.7488888888889E-05  8.7488888888889E-05  8.7488888888889E-05  8.7488888888889E-05  4.3744444444444E-05 
 8.6666666666654E+01  8.6666666666654E+01  8.6666666666654E+01  8.6666666666654E+01  8.6666666666654E+01  8.6666666666654E+01  8.6666666666654E+01  8.6666666666654E+01  8.6666666666654E+01  8.6666666666654E+01 
 2.1666666666678E+01  2.1666666666678E+01  2.1666666666678E+01  2.1666666666678E+01  2.1666666666678E+01  2.1666666666678E+01  2.1666666666678E+01  2.1666666666678E+01  2.1666666666678E+01  2.1666666666678E+01 
 5.5092170799933E-11  8.5992558851907E-11  1.8443529400166E-10  3.5616268827895E-10  6.0117670552281E-10  9.1948000835832E-10  1.3110761442865E-09  1.7759694771461E-09  2.3141651510944E-09  2.6015892953401E-09 
 1.8364118902014E-03  2.8664280194741E-03  6.1478631966616E-03  1.1872129193582E-02  2.0039289529614E-02  3.0649434833099E-02  4.3702682841714E-02  5.9199178401305E-02  7.7139093470013E-02  8.6719929071284E-02 
 9.0009171129915E-04  4.5004658556420E-03  1.5301622176040E-02  3.3303668923654E-02  5.8506802294938E-02  9.0911286949215E-02  1.3051747461761E-01  1.7732579724918E-01  2.3133676340891E-01  2.6014297875090E-01 
 4.6091253686941E-03  4.0987900295486E-03  3.1419072241261E-03  2.3125999042415E-03  1.6108682573428E-03  1.0367138866166E-03  5.9013981104265E-04  2.7115046543566E-04  7.9751700534636E-05  1.5950783101826E-05 
 0.0000000000000E+00  0.0000000000000E+00  0.0000000000000E+00  0.0000000000000E+00  0.0000000000000E+00  0.0000000000000E+00  0.0000000000000E+00  0.0000000000000E+00  0.0000000000000E+00  0.0000000000000E+00 
 0.0000000000000E+00  0.0000000000000E+00  0.0000000000000E+00  0.0000000000000E+00  0.0000000000000E+00  0.0000000000000E+00  0.0000000000000E+00  0.0000000000000E+00  0.0000000000000E+00  0.0000000000000E+00 
 0.0000000000000E+00  0.0000000000000E+00  0.0000000000000E+00  0.0000000000000E+00  0.0000000000000E+00  0.0000000000000E+00  0.0000000000000E+00  0.0000000000000E+00  0.0000000000000E+00  0.0000000000000E+00 
ZONE T = "ANOD, 4.0000E-08", I = 10, SOLUTIONTIME = 4.000000E-08
ZONETYPE = ORDERED
DATAPACKING = BLOCK
STRANDID = 1
 0.0000000000000E+00  8.7488888888889E-05  1.7497777777778E-04  2.6246666666667E-04  3.4995555555556E-04  4.3744444444444E-04  5.2493333333333E-04  6.1242222222222E-04  6.9991111111111E-04  7.8740000000000E-04 
 1.1593607254964E-09  3.4777211764252E-09  5.7964534732137E-09  8.1152008386297E-09  1.0432153664578E-08  1.2749497628038E-08  1.5065786328800E-08  1.7383931859498E-08  1.9702124612434E-08  2.0861247815599E-08 
 9.1999999999721E-01  9.1999999999721E-01  9.1999999999721E-01  9.1999999999721E-01  9.1999999999721E-01  9.1999999999721E-01  9.1999999999721E-01  9.1999999999721E-01  9.1999999999721E-01  9.1999999999885E-01 
 4.0000000001393E-02  4.0000000001393E-02  4.0000000001393E-02  4.0000000001393E-02  4.0000000001393E-02  4.0000000001393E-02  4.0000000001393E-02  4.0000000001393E-02  4.0000000001393E-02  4.0000000000576E-02 
 4.0000000001393E-02  4.0000000001393E-02  4.0000000001393E-02  4.0000000001393E-02  4.0000000001393E-02  4.0000000001393E-02  4.0000000001393E-02  4.0000000001393E-02  4.0000000001393E-02  4.0000000000576E-02 
 2.9167373665138E-02  2.9167357937953E-02  2.9167310756366E-02  2.9167232120262E-02  2.9167122029434E-02  2.9166980483593E-02  2.9166807482358E-02  2.9166603025263E-02  2.9166367111755E-02  2.9166099741193E-02 
 0.0000000000000E+00 -4.7371510661261E-09 -8.9170107926415E-09 -1.2539577102772E-08 -1.5604846373729E-08 -1.8112813436696E-08 -2.0063471576813E-08 -2.1456812533155E-08 -2.2292826498706E-08 -2.2571502120327E-08 
-2.9167373665138E-02 -2.9167362675104E-02 -2.9167319673377E-02 -2.9167244659839E-02 -2.9167137634281E-02 -2.9166998596406E-02 -2.9166827545829E-02 -2.9166624482075E-02 -2.9166389404581E-02 -2.9166122312695E-02 
-4.0906712751391E-02 -4.0906712751391E-02 -4.0906712751391E-02 -4.0906712751391E-02 -4.0906712751391E-02 -4.0906712751391E-02 -4.0906712751391E-02 -4.0906712751391E-02 -4.0906712751391E-02 -4.0906712751916E-02 
 1.1739339086253E-02  1.1739350076288E-02  1.1739393078014E-02  1.1739468091553E-02  1.1739575117111E-02  1.1739714154985E-02  1.1739885205562E-02  1.1740088269316E-02  1.1740323346810E-02  1.1740590439221E-02 
 1.6690487381748E+00  3.3381006555613E+00  3.3381130951592E+00  3.3381347951830E+00  3.3381657557021E+00  3.3382059768153E+00  3.3382554586511E+00  3.3383142013675E+00  3.3383822051522E+00  1.6692297351552E+00 