TITLE = "Solution on Domain BulkDomain1D_0"
VARIABLES = "x [m]"  
"Vel_axial" 
"MF_sp(ECDMC)" 
"MF_sp(Li+)" 
"MF_sp(PF6-)" 
"Volt(Electroly)" 
"Volt(AnodeVolt)" 
"Potential Drop Electrode-Electrolyte [V]" 
"Surf_0 Equilibrium Potential Drop Electrode-Electrolyte [V]" 
"Overpotential_0 [V]" 
"Current Source [A/m^2]" 
"Li+ flux [kmol/m^2/s]" 
"Electrolyte Current [A/m^2]" 
"Electrode Current [A/m^2]" 
"CV Capacity discharged [A-s/m^2]" 
"Depth of discharge in CV [A-s/m^2]" 
"CV Capacity remaining [A-s/m^2]" 
"Initial CV capacity [A-s/m^2]" 
"Porosity []" 
"Surface Area [m2/m2] (area per area)" 
"Specific current (per particle area) [A/m^2]" 
"Control volume thickness [m]" 
"MoleDens Li_C6-bulk [kmol/m^3]" 
"MoleDens V_C6-bulk [kmol/m^3]" 
"qHeat_accum [J/m3]" 
"qHeat_step [W/m3]" 
"Joule_Lyte [W/m3]" 
"Joule_Solid [W/m3]" 
"electrodHeat [W/m3]" 
"OverpotHeat [W/m3]" 
"deltaSHeat [W/m3]" 

ZONE T = "ANOD, 0.0000E+00", I = 10, SOLUTIONTIME = 0.000000E+00
ZONETYPE = ORDERED
DATAPACKING = BLOCK
STRANDID = 1
 0.0000000000000E+00  8.7488888888889E-05  1.7497777777778E-04  2.6246666666667E-04  3.4995555555556E-04  4.3744444444444E-04  5.2493333333333E-04  6.1242222222222E-04  6.9991111111111E-04  7.8740000000000E-04 
 0.0000000000000E+00  0.0000000000000E+00  0.0000000000000E+00  0.0000000000000E+00  0.0000000000000E+00  0.0000000000000E+00  0.0000000000000E+00  0.0000000000000E+00  0.0000000000000E+00  0.0000000000000E+00 
 9.2000000000000E-01  9.2000000000000E-01  9.2000000000000E-01  9.2000000000000E-01  9.2000000000000E-01  9.2000000000000E-01  9.2000000000000E-01  9.2000000000000E-01  9.2000000000000E-01  9.2000000000000E-01 
 4.0000000000000E-02  4.0000000000000E-02  4.0000000000000E-02  4.0000000000000E-02  4.0000000000000E-02  4.0000000000000E-02  4.0000000000000E-02  4.0000000000000E-02  4.0000000000000E-02  4.0000000000000E-02 
 4.0000000000000E-02  4.0000000000000E-02  4.0000000000000E-02  4.0000000000000E-02  4.0000000000000E-02  4.0000000000000E-02  4.0000000000000E-02  4.0000000000000E-02  4.0000000000000E-02  4.0000000000000E-02 
-7.0000000000000E-02 -7.0000000000000E-02 -7.0000000000000E-02 -7.0000000000000E-02 -7.0000000000000E-02 -7.0000000000000E-02 -7.0000000000000E-02 -7.0000000000000E-02 -7.0000000000000E-02 -7.0000000000000E-02 
 0.0000000000000E+00  0.0000000000000E+00  0.0000000000000E+00  0.0000000000000E+00  0.0000000000000E+00  0.0000000000000E+00  0.0000000000000E+00  0.0000000000000E+00  0.0000000000000E+00  0.0000000000000E+00 
 7.0000000000000E-02  7.0000000000000E-02  7.0000000000000E-02  7.0000000000000E-02  7.0000000000000E-02  7.0000000000000E-02  7.0000000000000E-02  7.0000000000000E-02  7.0000000000000E-02  7.0000000000000E-02 
-4.0906712753392E-02 -4.0906712753392E-02 -4.0906712753392E-02 -4.0906712753392E-02 -4.0906712753392E-02 -4.0906712753392E-02 -4.0906712753392E-02 -4.0906712753392E-02 -4.0906712753392E-02 -4.0906712753392E-02 
 1.1090671275339E-01  1.1090671275339E-01  1.1090671275339E-01  1.1090671275339E-01  1.1090671275339E-01  1.1090671275339E-01  1.1090671275339E-01  1.1090671275339E-01  1.1090671275339E-01  1.1090671275339E-01 
 3.0930240924008E+01  6.1860481848016E+01  6.1860481848016E+01  6.1860481848016E+01  6.1860481848016E+01  6.1860481848016E+01  6.1860481848016E+01  6.1860481848016E+01  6.1860481848016E+01  3.0930240924008E+01 
-0.0000000000000E+00 -0.0000000000000E+00 -0.0000000000000E+00 -0.0000000000000E+00 -0.0000000000000E+00 -0.0000000000000E+00 -0.0000000000000E+00 -0.0000000000000E+00 -0.0000000000000E+00 -0.0000000000000E+00 
 0.0000000000000E+00  0.0000000000000E+00  0.0000000000000E+00  0.0000000000000E+00  0.0000000000000E+00  0.0000000000000E+00  0.0000000000000E+00  0.0000000000000E+00  0.0000000000000E+00  3.0930240924008E+01 
 3.0930240924008E+01 -0.0000000000000E+00 -0.0000000000000E+00 -0.0000000000000E+00 -0.0000000000000E+00 -0.0000000000000E+00 -0.0000000000000E+00 -0.0000000000000E+00 -0.0000000000000E+00  0.0000000000000E+00 
 0.0000000000000E+00  0.0000000000000E+00  0.0000000000000E+00  0.0000000000000E+00  0.0000000000000E+00  0.0000000000000E+00  0.0000000000000E+00  0.0000000000000E+00  0.0000000000000E+00  0.0000000000000E+00 
 9.1448444543281E+04  1.8289688908656E+05  1.8289688908656E+05  1.8289688908656E+05  1.8289688908656E+05  1.8289688908656E+05  1.8289688908656E+05  1.8289688908656E+05  1.8289688908656E+05  9.1448444543281E+04 
 3.6579377817312E+05  7.3158755634625E+05  7.3158755634625E+05  7.3158755634625E+05  7.3158755634625E+05  7.3158755634625E+05  7.3158755634625E+05  7.3158755634625E+05  7.3158755634625E+05  3.6579377817312E+05 
 4.5724222271640E+05  9.1448444543281E+05  9.1448444543281E+05  9.1448444543281E+05  9.1448444543281E+05  9.1448444543281E+05  9.1448444543281E+05  9.1448444543281E+05  9.1448444543281E+05  4.5724222271640E+05 
 3.5000000000000E-01  3.5000000000000E-01  3.5000000000000E-01  3.5000000000000E-01  3.5000000000000E-01  3.5000000000000E-01  3.5000000000000E-01  3.5000000000000E-01  3.5000000000000E-01  3.5000000000000E-01 
 8.5301666666666E+00  1.7060333333333E+01  1.7060333333333E+01  1.7060333333333E+01  1.7060333333333E+01  1.7060333333333E+01  1.7060333333333E+01  1.7060333333333E+01  1.7060333333333E+01  8.5301666666666E+00 
 3.6259831879809E+00  3.6259831879809E+00  3.6259831879809E+00  3.6259831879809E+00  3.6259831879809E+00  3.6259831879809E+00  3.6259831879809E+00  3.6259831879809E+00  3.6259831879809E+00  3.6259831879809E+00 
 4.3744444444444E-05  8.7488888888889E-05  8.7488888888889E-05  8.7488888888889E-05  8.7488888888889E-05  8.7488888888889E-05  8.7488888888889E-05  8.7488888888889E-05  8.7488888888889E-05  4.3744444444444E-05 
 8.6666666666666E+01  8.6666666666666E+01  8.6666666666666E+01  8.6666666666666E+01  8.6666666666666E+01  8.6666666666666E+01  8.6666666666666E+01  8.6666666666666E+01  8.6666666666666E+01  8.6666666666666E+01 
 2.1666666666667E+01  2.1666666666667E+01  2.1666666666667E+01  2.1666666666667E+01  2.1666666666667E+01  2.1666666666667E+01  2.1666666666667E+01  2.1666666666667E+01  2.1666666666667E+01  2.1666666666667E+01 
 0.0000000000000E+00  0.0000000000000E+00  0.0000000000000E+00  0.0000000000000E+00  0.0000000000000E+00  0.0000000000000E+00  0.0000000000000E+00  0.0000000000000E+00  0.0000000000000E+00  0.0000000000000E+00 
 0.0000000000000E+00  0.0000000000000E+00  0.0000000000000E+00  0.0000000000000E+00  0.0000000000000E+00  0.0000000000000E+00  0.0000000000000E+00  0.0000000000000E+00  0.0000000000000E+00  0.0000000000000E+00 
 0.0000000000000E+00  0.0000000000000E+00  0.0000000000000E+00  0.0000000000000E+00  0.0000000000000E+00  0.0000000000000E+00  0.0000000000000E+00  0.0000000000000E+00  0.0000000000000E+00  0.0000000000000E+00 
 0.0000000000000E+00  0.0000000000000E+00  0.0000000000000E+00  0.0000000000000E+00  0.0000000000000E+00  0.0000000000000E+00  0.0000000000000E+00  0.0000000000000E+00  0.0000000000000E+00  0.0000000000000E+00 
 0.0000000000000E+00  0.0000000000000E+00  0.0000000000000E+00  0.0000000000000E+00  0.0000000000000E+00  0.0000000000000E+00  0.0000000000000E+00  0.0000000000000E+00  0.0000000000000E+00  0.0000000000000E+00 
 0.0000000000000E+00  0.0000000000000E+00  0.0000000000000E+00  0.0000000000000E+00  0.0000000000000E+00  0.0000000000000E+00  0.0000000000000E+00  0.0000000000000E+00  0.0000000000000E+00  0.0000000000000E+00 
 0.0000000000000E+00  0.0000000000000E+00  0.0000000000000E+00  0.0000000000000E+00  0.0000000000000E+00  0.0000000000000E+00  0.0000000000000E+00  0.0000000000000E+00  0.0000000000000E+00  0.0000000000000E+00 
ZONE T = "ANOD, 1.0000E-08", I = 10, SOLUTIONTIME = 1.000000E-08
ZONETYPE = ORDERED
DATAPACKING = BLOCK
STRANDID = 1
 0.0000000000000E+00  8.7488888888889E-05  1.7497777777778E-04  2.6246666666667E-04  3.4995555555556E-04  4.3744444444444E-04  5.2493333333333E-04  6.1242222222222E-04  6.9991111111111E-04  7.8740000000000E-04 
 1.1589860993570E-09  3.4762340912602E-09  5.7938539285141E-09  8.1114888347254E-09  1.0428782032138E-08  1.2746466367228E-08  1.5064185062764E-08  1.7381581342655E-08  1.9699024844364E-08  2.0857410214307E-08 
 9.1999999999930E-01  9.1999999999930E-01  9.1999999999930E-01  9.1999999999930E-01  9.1999999999930E-01  9.1999999999930E-01  9.1999999999930E-01  9.1999999999930E-01  9.1999999999930E-01  9.1999999999967E-01 
 4.0000000000348E-02  4.0000000000348E-02  4.0000000000348E-02  4.0000000000348E-02  4.0000000000348E-02  4.0000000000348E-02  4.0000000000348E-02  4.0000000000348E-02  4.0000000000348E-02  4.0000000000167E-02 
 4.0000000000348E-02  4.0000000000348E-02  4.0000000000348E-02  4.0000000000348E-02  4.0000000000348E-02  4.0000000000348E-02  4.0000000000348E-02  4.0000000000348E-02  4.0000000000348E-02  4.0000000000167E-02 
 2.9167411314266E-02  2.9167395587235E-02  2.9167348406113E-02  2.9167269770783E-02  2.9167159681041E-02  2.9167018136594E-02  2.9166845137063E-02  2.9166640681982E-02  2.9166404770798E-02  2.9166137402871E-02 
 0.0000000000000E+00 -4.7371043989840E-09 -8.9169229486038E-09 -1.2539453572173E-08 -1.5604692646823E-08 -1.8112635003830E-08 -2.0063273928261E-08 -2.1456601159199E-08 -2.2292606889474E-08 -2.2571279766048E-08 
-2.9167411314266E-02 -2.9167400324339E-02 -2.9167357323036E-02 -2.9167282310237E-02 -2.9167175285733E-02 -2.9167036249229E-02 -2.9166865200337E-02 -2.9166662138583E-02 -2.9166427063405E-02 -2.9166159974150E-02 
-4.0906712752892E-02 -4.0906712752896E-02 -4.0906712752892E-02 -4.0906712752892E-02 -4.0906712752892E-02 -4.0906712752896E-02 -4.0906712752896E-02 -4.0906712752892E-02 -4.0906712752892E-02 -4.0906712753008E-02 
 1.1739301438626E-02  1.1739312428556E-02  1.1739355429855E-02  1.1739430442655E-02  1.1739537467158E-02  1.1739676503668E-02  1.1739847552560E-02  1.1740050614308E-02  1.1740285689486E-02  1.1740552778858E-02 
 1.6690432927601E+00  3.3380897647002E+00  3.3381022041734E+00  3.3381239039800E+00  3.3381548641889E+00  3.3381950848988E+00  3.3382445662390E+00  3.3383033083675E+00  3.3383713114710E+00  1.6692242878836E+00 
 8.6491499950274E-09  2.5947466464457E-08  4.3245847397634E-08  6.0544340782573E-08  7.7842994608331E-08  9.5141856863088E-08  1.1244097554598E-07  1.2974039864553E-07  1.4704023809043E-07  1.4704023809043E-07 
 0.0000000000000E+00  3.3380661796736E+00  6.6761401689539E+00  1.0014231227769E+01  1.3352348617152E+01  1.6690501597215E+01  2.0028699428806E+01  2.3366951373327E+01  2.6705266691225E+01  3.0043665638908E+01 
 3.0043665641562E+01  2.6705588463942E+01  2.3367514474686E+01  2.0029423415645E+01  1.6691306026372E+01  1.3353153046339E+01  1.0014955214638E+01  6.6767032702242E+00  3.3383879523979E+00  0.0000000000000E+00 
 1.6690432927601E-08  3.3380897647002E-08  3.3381022041734E-08  3.3381239039800E-08  3.3381548641889E-08  3.3381950848988E-08  3.3382445662390E-08  3.3383033083675E-08  3.3383713114710E-08  1.6692242878836E-08 
 9.1448444543298E+04  1.8289688908659E+05  1.8289688908660E+05  1.8289688908660E+05  1.8289688908660E+05  1.8289688908660E+05  1.8289688908660E+05  1.8289688908660E+05  1.8289688908660E+05  9.1448444543298E+04 
 3.6579377817311E+05  7.3158755634621E+05  7.3158755634621E+05  7.3158755634621E+05  7.3158755634621E+05  7.3158755634621E+05  7.3158755634621E+05  7.3158755634621E+05  7.3158755634621E+05  3.6579377817311E+05 
 4.5724222271640E+05  9.1448444543281E+05  9.1448444543281E+05  9.1448444543281E+05  9.1448444543281E+05  9.1448444543281E+05  9.1448444543281E+05  9.1448444543281E+05  9.1448444543281E+05  4.5724222271640E+05 
 3.5000000000000E-01  3.5000000000000E-01  3.5000000000000E-01  3.5000000000000E-01  3.5000000000000E-01  3.5000000000000E-01  3.5000000000000E-01  3.5000000000000E-01  3.5000000000000E-01  3.5000000000000E-01 
 8.5301666666666E+00  1.7060333333333E+01  1.7060333333333E+01  1.7060333333333E+01  1.7060333333333E+01  1.7060333333333E+01  1.7060333333333E+01  1.7060333333333E+01  1.7060333333333E+01  8.5301666666666E+00 
 1.9566362041697E-01  1.9566380676619E-01  1.9566453591216E-01  1.9566580785721E-01  1.9566762260540E-01  1.9566998016249E-01  1.9567288053608E-01  1.9567632373542E-01  1.9568030977146E-01  1.9568483865696E-01 
 4.3744444444444E-05  8.7488888888889E-05  8.7488888888889E-05  8.7488888888889E-05  8.7488888888889E-05  8.7488888888889E-05  8.7488888888889E-05  8.7488888888889E-05  8.7488888888889E-05  4.3744444444444E-05 
 8.6666666666662E+01  8.6666666666662E+01  8.6666666666662E+01  8.6666666666662E+01  8.6666666666662E+01  8.6666666666662E+01  8.6666666666662E+01  8.6666666666662E+01  8.6666666666662E+01  8.6666666666662E+01 
 2.1666666666671E+01  2.1666666666671E+01  2.1666666666671E+01  2.1666666666671E+01  2.1666666666671E+01  2.1666666666671E+01  2.1666666666671E+01  2.1666666666671E+01  2.1666666666671E+01  2.1666666666671E+01 
 1.8363757077358E-11  2.8663715422930E-11  6.1477420635931E-11  1.1871895272614E-10  2.0038894689492E-10  3.0648830940093E-10  4.3701821760917E-10  5.9198012000560E-10  7.7137573614786E-10  8.6718220454193E-10 
 1.8363757077358E-03  2.8663715422930E-03  6.1477420635931E-03  1.1871895272614E-02  2.0038894689492E-02  3.0648830940093E-02  4.3701821760917E-02  5.9198012000560E-02  7.7137573614786E-02  8.6718220454193E-02 
 3.0002577741811E-04  1.5001306022586E-03  5.1004568284815E-03  1.1101041277914E-02  1.9501947408214E-02  3.0303265310848E-02  4.3505111716019E-02  5.9107629994057E-02  7.7110990150489E-02  8.6712903613668E-02 
 1.5363499303177E-03  1.3662409400344E-03  1.0472852351117E-03  7.7085399469975E-04  5.3694728127792E-04  3.4556562924460E-04  1.9671004489835E-04  9.0382006502792E-05  2.6583464296994E-05  5.3168405245152E-06 
 0.0000000000000E+00  0.0000000000000E+00  0.0000000000000E+00  0.0000000000000E+00  0.0000000000000E+00  0.0000000000000E+00  0.0000000000000E+00  0.0000000000000E+00  0.0000000000000E+00  0.0000000000000E+00 
 0.0000000000000E+00  0.0000000000000E+00  0.0000000000000E+00  0.0000000000000E+00  0.0000000000000E+00  0.0000000000000E+00  0.0000000000000E+00  0.0000000000000E+00  0.0000000000000E+00  0.0000000000000E+00 
 0.0000000000000E+00  0.0000000000000E+00  0.0000000000000E+00  0.0000000000000E+00  0.0000000000000E+00  0.0000000000000E+00  0.0000000000000E+00  0.0000000000000E+00  0.0000000000000E+00  0.0000000000000E+00 
ZONE T = "ANOD, 2.0000E-08", I = 10, SOLUTIONTIME = 2.000000E-08
ZONETYPE = ORDERED
DATAPACKING = BLOCK
STRANDID = 1
 0.0000000000000E+00  8.7488888888889E-05  1.7497777777778E-04  2.6246666666667E-04  3.4995555555556E-04  4.3744444444444E-04  5.2493333333333E-04  6.1242222222222E-04  6.9991111111111E-04  7.8740000000000E-04 
 1.1589934535692E-09  3.4769825683633E-09  5.7949803212575E-09  8.1129931427237E-09  1.0431027463282E-08  1.2749089713520E-08  1.5067186324118E-08  1.7385323725863E-08  1.9703508349671E-08  2.0862627488152E-08 
 9.1999999999861E-01  9.1999999999861E-01  9.1999999999861E-01  9.1999999999861E-01  9.1999999999861E-01  9.1999999999861E-01  9.1999999999861E-01  9.1999999999861E-01  9.1999999999861E-01  9.1999999999933E-01 
 4.0000000000696E-02  4.0000000000696E-02  4.0000000000696E-02  4.0000000000696E-02  4.0000000000696E-02  4.0000000000696E-02  4.0000000000696E-02  4.0000000000696E-02  4.0000000000696E-02  4.0000000000334E-02 
 4.0000000000696E-02  4.0000000000696E-02  4.0000000000696E-02  4.0000000000696E-02  4.0000000000696E-02  4.0000000000696E-02  4.0000000000696E-02  4.0000000000696E-02  4.0000000000696E-02  4.0000000000334E-02 
 2.9167414130184E-02  2.9167398403054E-02  2.9167351221633E-02  2.9167272585804E-02  2.9167162495362E-02  2.9167020950017E-02  2.9166847949389E-02  2.9166643493011E-02  2.9166407580330E-02  2.9166140210706E-02 
 0.0000000000000E+00 -4.7371344545549E-09 -8.9169795237252E-09 -1.2539533130745E-08 -1.5604791652838E-08 -1.8112749921207E-08 -2.0063401221017E-08 -2.1456737291373E-08 -2.2292748325296E-08 -2.2571422969689E-08 
-2.9167414130184E-02 -2.9167403140188E-02 -2.9167360138612E-02 -2.9167285125337E-02 -2.9167178100154E-02 -2.9167039062767E-02 -2.9166868012790E-02 -2.9166664949748E-02 -2.9166429873079E-02 -2.9166162782129E-02 
-4.0906712752393E-02 -4.0906712752393E-02 -4.0906712752393E-02 -4.0906712752393E-02 -4.0906712752390E-02 -4.0906712752390E-02 -4.0906712752390E-02 -4.0906712752390E-02 -4.0906712752390E-02 -4.0906712752623E-02 
 1.1739298622209E-02  1.1739309612205E-02  1.1739352613781E-02  1.1739427627056E-02  1.1739534652236E-02  1.1739673689623E-02  1.1739844739600E-02  1.1740047802642E-02  1.1740282879312E-02  1.1740549970494E-02 
 1.6690428854039E+00  3.3380889500078E+00  3.3381013895600E+00  3.3381230895039E+00  3.3381540499083E+00  3.3381942708735E+00  3.3382437525270E+00  3.3383024950269E+00  3.3383704985610E+00  1.6692238816863E+00 
 8.6492048756439E-09  2.5947631103531E-08  4.3246121800543E-08  6.0544724943246E-08  7.7843488529022E-08  9.5142460541890E-08  1.1244168898099E-07  1.2974122183518E-07  1.4704123497921E-07  1.4704123497921E-07 
 0.0000000000000E+00  3.3380873603224E+00  6.6761825300674E+00  1.0014294769716E+01  1.3352433339563E+01  1.6690607499906E+01  2.0028826511410E+01  2.3367099635291E+01  2.6705436132149E+01  3.0043845263099E+01 
 3.0043845263059E+01  2.6705757902651E+01  2.3367662732867E+01  2.0029550493335E+01  1.6691411923629E+01  1.3353237763238E+01  1.0015018751538E+01  6.6767456277610E+00  3.3384091309669E+00  0.0000000000000E+00 
 3.3380861781641E-08  6.6761787147080E-08  6.6762035937335E-08  6.6762469934838E-08  6.6763089140972E-08  6.6763893557723E-08  6.6764883187660E-08  6.6766058033944E-08  6.6767418100321E-08  3.3384481695700E-08 
 9.1448444543314E+04  1.8289688908663E+05  1.8289688908663E+05  1.8289688908663E+05  1.8289688908663E+05  1.8289688908663E+05  1.8289688908663E+05  1.8289688908663E+05  1.8289688908663E+05  9.1448444543314E+04 
 3.6579377817309E+05  7.3158755634618E+05  7.3158755634618E+05  7.3158755634618E+05  7.3158755634618E+05  7.3158755634618E+05  7.3158755634618E+05  7.3158755634618E+05  7.3158755634618E+05  3.6579377817309E+05 
 4.5724222271640E+05  9.1448444543281E+05  9.1448444543281E+05  9.1448444543281E+05  9.1448444543281E+05  9.1448444543281E+05  9.1448444543281E+05  9.1448444543281E+05  9.1448444543281E+05  4.5724222271640E+05 
 3.5000000000000E-01  3.5000000000000E-01  3.5000000000000E-01  3.5000000000000E-01  3.5000000000000E-01  3.5000000000000E-01  3.5000000000000E-01  3.5000000000000E-01  3.5000000000000E-01  3.5000000000000E-01 
 8.5301666666666E+00  1.7060333333333E+01  1.7060333333333E+01  1.7060333333333E+01  1.7060333333333E+01  1.7060333333333E+01  1.7060333333333E+01  1.7060333333333E+01  1.7060333333333E+01  8.5301666666666E+00 
 1.9566357266219E-01  1.9566375901259E-01  1.9566448816319E-01  1.9566576011629E-01  1.9566757487593E-01  1.9566993244799E-01  1.9567283283994E-01  1.9567627606105E-01  1.9568026212233E-01  1.9568479103804E-01 
 4.3744444444444E-05  8.7488888888889E-05  8.7488888888889E-05  8.7488888888889E-05  8.7488888888889E-05  8.7488888888889E-05  8.7488888888889E-05  8.7488888888889E-05  8.7488888888889E-05  4.3744444444444E-05 
 8.6666666666658E+01  8.6666666666658E+01  8.6666666666658E+01  8.6666666666658E+01  8.6666666666658E+01  8.6666666666658E+01  8.6666666666658E+01  8.6666666666658E+01  8.6666666666658E+01  8.6666666666658E+01 
 2.1666666666674E+01  2.1666666666674E+01  2.1666666666674E+01  2.1666666666674E+01  2.1666666666674E+01  2.1666666666674E+01  2.1666666666674E+01  2.1666666666674E+01  2.1666666666674E+01  2.1666666666674E+01 
 3.6727747185493E-11  5.7327794584921E-11  1.2295562143101E-10  2.3743941202868E-10  4.0078043677678E-10  6.1298050819502E-10  8.7404198100975E-10  1.1839677521841E-09  1.5427612608437E-09  1.7343754133226E-09 
 1.8363990108135E-03  2.8664079161991E-03  6.1478200795079E-03  1.1872045930253E-02  2.0039148988186E-02  3.0649219879410E-02  4.3702376340058E-02  5.9198763217848E-02  7.7138552469583E-02  8.6719320878064E-02 
 6.0005536245133E-04  3.0002802416108E-03  1.0200978383560E-02  2.2202223431988E-02  3.9004142301817E-02  6.0606915176225E-02  8.7010775515229E-02  1.1821601005862E-01  1.5422295881848E-01  1.7342690758375E-01 
 3.0727193560980E-03  2.7324992168812E-03  2.0945837595415E-03  1.5417177708796E-03  1.0739013758607E-03  6.9113564327756E-04  3.9342258574621E-04  1.8076515979200E-04  5.3167265886051E-05  1.0633748506182E-05 
 0.0000000000000E+00  0.0000000000000E+00  0.0000000000000E+00  0.0000000000000E+00  0.0000000000000E+00  0.0000000000000E+00  0.0000000000000E+00  0.0000000000000E+00  0.0000000000000E+00  0.0000000000000E+00 
 0.0000000000000E+00  0.0000000000000E+00  0.0000000000000E+00  0.0000000000000E+00  0.0000000000000E+00  0.0000000000000E+00  0.0000000000000E+00  0.0000000000000E+00  0.0000000000000E+00  0.0000000000000E+00 
 0.0000000000000E+00  0.0000000000000E+00  0.0000000000000E+00  0.0000000000000E+00  0.0000000000000E+00  0.0000000000000E+00  0.0000000000000E+00  0.0000000000000E+00  0.0000000000000E+00  0.0000000000000E+00 
ZONE T = "ANOD, 3.0000E-08", I = 10, SOLUTIONTIME = 3.000000E-08
ZONETYPE = ORDERED
DATAPACKING = BLOCK
STRANDID = 1
 0.0000000000000E+00  8.7488888888889E-05  1.7497777777778E-04  2.6246666666667E-04  3.4995555555556E-04  4.3744444444444E-04  5.2493333333333E-04  6.1242222222222E-04  6.9991111111111E-04  7.8740000000000E-04 
 1.1586302458212E-09  3.4766193605752E-09  5.7946171134289E-09  8.1126299348547E-09  1.0430664255373E-08  1.2748726505572E-08  1.5066823116130E-08  1.7385686933290E-08  1.9704597972515E-08  2.0863717110984E-08 
 9.1999999999791E-01  9.1999999999791E-01  9.1999999999791E-01  9.1999999999791E-01  9.1999999999791E-01  9.1999999999791E-01  9.1999999999791E-01  9.1999999999791E-01  9.1999999999791E-01  9.1999999999900E-01 
 4.0000000001045E-02  4.0000000001045E-02  4.0000000001045E-02  4.0000000001045E-02  4.0000000001045E-02  4.0000000001045E-02  4.0000000001045E-02  4.0000000001045E-02  4.0000000001045E-02  4.0000000000502E-02 
 4.0000000001045E-02  4.0000000001045E-02  4.0000000001045E-02  4.0000000001045E-02  4.0000000001045E-02  4.0000000001045E-02  4.0000000001045E-02  4.0000000001045E-02  4.0000000001045E-02  4.0000000000502E-02 
 2.9167414129971E-02  2.9167398402841E-02  2.9167351221420E-02  2.9167272585591E-02  2.9167162495150E-02  2.9167020949805E-02  2.9166847949176E-02  2.9166643492798E-02  2.9166407580118E-02  2.9166140210493E-02 
 0.0000000000000E+00 -4.7371344544753E-09 -8.9169795235757E-09 -1.2539533130535E-08 -1.5604791652577E-08 -1.8112749920905E-08 -2.0063401220684E-08 -2.1456737291019E-08 -2.2292748324930E-08 -2.2571422969320E-08 
-2.9167414129971E-02 -2.9167403139975E-02 -2.9167360138400E-02 -2.9167285125124E-02 -2.9167178099942E-02 -2.9167039062554E-02 -2.9166868012577E-02 -2.9166664949536E-02 -2.9166429872866E-02 -2.9166162781916E-02 
-4.0906712751889E-02 -4.0906712751893E-02 -4.0906712751889E-02 -4.0906712751889E-02 -4.0906712751893E-02 -4.0906712751891E-02 -4.0906712751891E-02 -4.0906712751893E-02 -4.0906712751893E-02 -4.0906712752242E-02 
 1.1739298621918E-02  1.1739309611918E-02  1.1739352613490E-02  1.1739427626765E-02  1.1739534651952E-02  1.1739673689337E-02  1.1739844739314E-02  1.1740047802358E-02  1.1740282879027E-02  1.1740549970326E-02 
 1.6690428853749E+00  3.3380889499501E+00  3.3381013895018E+00  3.3381230894457E+00  3.3381540498512E+00  3.3381942708158E+00  3.3382437524693E+00  3.3383024949699E+00  3.3383704985040E+00  1.6692238816708E+00 
 8.6492048760662E-09  2.5947631103410E-08  4.3246121799011E-08  6.0544724944120E-08  7.7843488523629E-08  9.5142460536300E-08  1.1244168898006E-07  1.2974122183024E-07  1.4704129892567E-07  1.4704129892567E-07 
 0.0000000000000E+00  3.3380873603514E+00  6.6761825301255E+00  1.0014294769435E+01  1.3352433339127E+01  1.6690607499499E+01  2.0028826511216E+01  2.3367099634942E+01  2.6705436131613E+01  3.0043845262530E+01 
 3.0043845262553E+01  2.6705757902203E+01  2.3367662732478E+01  2.0029550493004E+01  1.6691411923355E+01  1.3353237763022E+01  1.0015018751379E+01  6.6767456276597E+00  3.3384091309228E+00  0.0000000000000E+00 
 5.0071290635389E-08  1.0014267664658E-07  1.0014304983235E-07  1.0014370082930E-07  1.0014462963948E-07  1.0014583626588E-07  1.0014732071235E-07  1.0014908298364E-07  1.0015112308536E-07  5.0076720512408E-08 
 9.1448444543331E+04  1.8289688908666E+05  1.8289688908666E+05  1.8289688908666E+05  1.8289688908666E+05  1.8289688908666E+05  1.8289688908666E+05  1.8289688908666E+05  1.8289688908666E+05  9.1448444543331E+04 
 3.6579377817307E+05  7.3158755634615E+05  7.3158755634615E+05  7.3158755634615E+05  7.3158755634615E+05  7.3158755634615E+05  7.3158755634615E+05  7.3158755634615E+05  7.3158755634615E+05  3.6579377817307E+05 
 4.5724222271640E+05  9.1448444543281E+05  9.1448444543281E+05  9.1448444543281E+05  9.1448444543281E+05  9.1448444543281E+05  9.1448444543281E+05  9.1448444543281E+05  9.1448444543281E+05  4.5724222271640E+05 
 3.5000000000000E-01  3.5000000000000E-01  3.5000000000000E-01  3.5000000000000E-01  3.5000000000000E-01  3.5000000000000E-01  3.5000000000000E-01  3.5000000000000E-01  3.5000000000000E-01  3.5000000000000E-01 
 8.5301666666666E+00  1.7060333333333E+01  1.7060333333333E+01  1.7060333333333E+01  1.7060333333333E+01  1.7060333333333E+01  1.7060333333333E+01  1.7060333333333E+01  1.7060333333333E+01  8.5301666666666E+00 
 1.9566357265878E-01  1.9566375900921E-01  1.9566448815977E-01  1.9566576011288E-01  1.9566757487259E-01  1.9566993244461E-01  1.9567283283656E-01  1.9567627605771E-01  1.9568026211899E-01  1.9568479103622E-01 
 4.3744444444444E-05  8.7488888888889E-05  8.7488888888889E-05  8.7488888888889E-05  8.7488888888889E-05  8.7488888888889E-05  8.7488888888889E-05  8.7488888888889E-05  8.7488888888889E-05  4.3744444444444E-05 
 8.6666666666654E+01  8.6666666666654E+01  8.6666666666654E+01  8.6666666666654E+01  8.6666666666654E+01  8.6666666666654E+01  8.6666666666654E+01  8.6666666666654E+01  8.6666666666654E+01  8.6666666666654E+01 
 2.1666666666678E+01  2.1666666666678E+01  2.1666666666678E+01  2.1666666666678E+01  2.1666666666678E+01  2.1666666666678E+01  2.1666666666678E+01  2.1666666666678E+01  2.1666666666678E+01  2.1666666666678E+01 
 5.5091737291814E-11  8.5991873747908E-11  1.8443382222486E-10  3.5615987132398E-10  6.0117192664361E-10  9.1947270697245E-10  1.3110657443982E-09  1.7759553843392E-09  2.3141467855029E-09  2.6015686220638E-09 
 1.8363990106321E-03  2.8664079162987E-03  6.1478200793850E-03  1.1872045929530E-02  2.0039148986684E-02  3.0649219877743E-02  4.3702376338842E-02  5.9198763215513E-02  7.7138552465919E-02  8.6719320874122E-02 
 9.0008494735479E-04  4.5004298811085E-03  1.5301499938550E-02  3.3303405585364E-02  5.8506337193935E-02  9.0910565039946E-02  1.3051643931323E-01  1.7732439012084E-01  2.3133492748281E-01  2.6014091154989E-01 
 4.6090887818266E-03  4.0987574936823E-03  3.1418822839363E-03  2.3125815470338E-03  1.6108554704259E-03  1.0367056572993E-03  5.9013512658782E-04  2.7114831307844E-04  7.9751067474363E-05  1.5950656487750E-05 
 0.0000000000000E+00  0.0000000000000E+00  0.0000000000000E+00  0.0000000000000E+00  0.0000000000000E+00  0.0000000000000E+00  0.0000000000000E+00  0.0000000000000E+00  0.0000000000000E+00  0.0000000000000E+00 
 0.0000000000000E+00  0.0000000000000E+00  0.0000000000000E+00  0.0000000000000E+00  0.0000000000000E+00  0.0000000000000E+00  0.0000000000000E+00  0.0000000000000E+00  0.0000000000000E+00  0.0000000000000E+00 
 0.0000000000000E+00  0.0000000000000E+00  0.0000000000000E+00  0.0000000000000E+00  0.0000000000000E+00  0.0000000000000E+00  0.0000000000000E+00  0.0000000000000E+00  0.0000000000000E+00  0.0000000000000E+00 
ZONE T = "ANOD, 4.0000E-08", I = 10, SOLUTIONTIME = 4.000000E-08
ZONETYPE = ORDERED
DATAPACKING = BLOCK
STRANDID = 1
 0.0000000000000E+00  8.7488888888889E-05  1.7497777777778E-04  2.6246666666667E-04  3.4995555555556E-04  4.3744444444444E-04  5.2493333333333E-04  6.1242222222222E-04  6.9991111111111E-04  7.8740000000000E-04 
 1.1591750573929E-09  3.4778905875623E-09  5.7951619249205E-09  8.1124483308507E-09  1.0430119443601E-08  1.2747455278305E-08  1.5065551888823E-08  1.7383689290487E-08  1.9701873914217E-08  2.0859903429492E-08 
 9.1999999999721E-01  9.1999999999721E-01  9.1999999999721E-01  9.1999999999721E-01  9.1999999999721E-01  9.1999999999721E-01  9.1999999999721E-01  9.1999999999721E-01  9.1999999999721E-01  9.1999999999866E-01 
 4.0000000001393E-02  4.0000000001393E-02  4.0000000001393E-02  4.0000000001393E-02  4.0000000001393E-02  4.0000000001393E-02  4.0000000001393E-02  4.0000000001393E-02  4.0000000001393E-02  4.0000000000669E-02 
 4.0000000001393E-02  4.0000000001393E-02  4.0000000001393E-02  4.0000000001393E-02  4.0000000001393E-02  4.0000000001393E-02  4.0000000001393E-02  4.0000000001393E-02  4.0000000001393E-02  4.0000000000669E-02 
 2.9167414129761E-02  2.9167398402630E-02  2.9167351221209E-02  2.9167272585380E-02  2.9167162494939E-02  2.9167020949594E-02  2.9166847948965E-02  2.9166643492588E-02  2.9166407579907E-02  2.9166140210283E-02 
 0.0000000000000E+00 -4.7371344543959E-09 -8.9169795234265E-09 -1.2539533130326E-08 -1.5604791652318E-08 -1.8112749920605E-08 -2.0063401220352E-08 -2.1456737290665E-08 -2.2292748324564E-08 -2.2571422968951E-08 
-2.9167414129761E-02 -2.9167403139765E-02 -2.9167360138189E-02 -2.9167285124914E-02 -2.9167178099731E-02 -2.9167039062344E-02 -2.9166868012367E-02 -2.9166664949325E-02 -2.9166429872655E-02 -2.9166162781706E-02 
-4.0906712751392E-02 -4.0906712751395E-02 -4.0906712751392E-02 -4.0906712751392E-02 -4.0906712751397E-02 -4.0906712751395E-02 -4.0906712751395E-02 -4.0906712751397E-02 -4.0906712751397E-02 -4.0906712751862E-02 
 1.1739298621631E-02  1.1739309611630E-02  1.1739352613203E-02  1.1739427626478E-02  1.1739534651666E-02  1.1739673689051E-02  1.1739844739028E-02  1.1740047802072E-02  1.1740282878742E-02  1.1740549970157E-02 
 1.6690428853461E+00  3.3380889498923E+00  3.3381013894442E+00  3.3381230893881E+00  3.3381540497938E+00  3.3381942707584E+00  3.3382437524119E+00  3.3383024949124E+00  3.3383704984465E+00  1.6692238816551E+00 