TITLE = "Solution on Domain BulkDomain1D_2"
VARIABLES = "x [m]"  
"Vel_axial" 	"MF_sp(ECDMC)" 	"MF_sp(Li+)" 	"MF_sp(PF6-)" 	"Volt(Electroly)" 	"Volt(CathodeVo)" 	
"Potential Drop Electrode-Electrolyte [V]" 	"Surf_0 Equilibrium Potential Drop Electrode-Electrolyte [V]" 	"Overpotential_0 [V]" 	"Current Source [A/m^2]" 	"Li+ flux [kmol/m^2/s]" 	"Electrolyte Current [A/m^2]" 	"Electrode Current [A/m^2]" 	
"CV Capacity discharged [A-s/m^2]" 	"Depth of discharge in CV [A-s/m^2]" 	"CV Capacity remaining [A-s/m^2]" 	"Initial CV capacity [A-s/m^2]" 	"Porosity []" 	"Surface Area [m2/m2] (area per area)" 	"Specific current (per particle area) [A/m^2]" 	"Control volume thickness [m]" 	
"MoleDens LiCoO2 [kmol/m^3]" 	"MoleDens CoO2 [kmol/m^3]" 	"qHeat_accum [J/m3]" 	"qHeat_step [W/m3]" 	"Joule_Lyte [W/m3]" 	"Joule_Solid [W/m3]" 	"electrodHeat [W/m3]" 	"OverpotHeat [W/m3]" 	"deltaSHeat [W/m3]" 	

ZONE T = "CATH, 0.0000E+00", I = 10, SOLUTIONTIME = 0.000000E+00
ZONETYPE = ORDERED
DATAPACKING = BLOCK
STRANDID = 3
 1.2700000000000E-03  1.3377333333333E-03  1.4054666666667E-03  1.4732000000000E-03  1.5409333333333E-03  1.6086666666667E-03  1.6764000000000E-03  1.7441333333333E-03  1.8118666666667E-03  1.8796000000000E-03 
 0.0000000000000E+00  0.0000000000000E+00  0.0000000000000E+00  0.0000000000000E+00  0.0000000000000E+00  0.0000000000000E+00  0.0000000000000E+00  0.0000000000000E+00  0.0000000000000E+00  0.0000000000000E+00 
 9.2000000000000E-01  9.2000000000000E-01  9.2000000000000E-01  9.2000000000000E-01  9.2000000000000E-01  9.2000000000000E-01  9.2000000000000E-01  9.2000000000000E-01  9.2000000000000E-01  9.2000000000000E-01 
 4.0000000000000E-02  4.0000000000000E-02  4.0000000000000E-02  4.0000000000000E-02  4.0000000000000E-02  4.0000000000000E-02  4.0000000000000E-02  4.0000000000000E-02  4.0000000000000E-02  4.0000000000000E-02 
 4.0000000000000E-02  4.0000000000000E-02  4.0000000000000E-02  4.0000000000000E-02  4.0000000000000E-02  4.0000000000000E-02  4.0000000000000E-02  4.0000000000000E-02  4.0000000000000E-02  4.0000000000000E-02 
-7.0000000000000E-02 -7.0000000000000E-02 -7.0000000000000E-02 -7.0000000000000E-02 -7.0000000000000E-02 -7.0000000000000E-02 -7.0000000000000E-02 -7.0000000000000E-02 -7.0000000000000E-02 -7.0000000000000E-02 
 3.8000000000000E+00  3.8000000000000E+00  3.8000000000000E+00  3.8000000000000E+00  3.8000000000000E+00  3.8000000000000E+00  3.8000000000000E+00  3.8000000000000E+00  3.8000000000000E+00  3.8000000000000E+00 
 3.8700000000000E+00  3.8700000000000E+00  3.8700000000000E+00  3.8700000000000E+00  3.8700000000000E+00  3.8700000000000E+00  3.8700000000000E+00  3.8700000000000E+00  3.8700000000000E+00  3.8700000000000E+00 
 3.9714142713289E+00  3.9714142713289E+00  3.9714142713289E+00  3.9714142713289E+00  3.9714142713289E+00  3.9714142713289E+00  3.9714142713289E+00  3.9714142713289E+00  3.9714142713289E+00  3.9714142713289E+00 
-1.0141427132889E-01 -1.0141427132889E-01 -1.0141427132889E-01 -1.0141427132889E-01 -1.0141427132889E-01 -1.0141427132889E-01 -1.0141427132889E-01 -1.0141427132889E-01 -1.0141427132889E-01 -1.0141427132889E-01 
-2.3826357195711E-01 -4.7652714391422E-01 -4.7652714391423E-01 -4.7652714391422E-01 -4.7652714391423E-01 -4.7652714391423E-01 -4.7652714391422E-01 -4.7652714391423E-01 -4.7652714391422E-01 -2.3826357195711E-01 
-0.0000000000000E+00 -0.0000000000000E+00 -0.0000000000000E+00 -0.0000000000000E+00 -0.0000000000000E+00 -0.0000000000000E+00 -0.0000000000000E+00 -0.0000000000000E+00 -0.0000000000000E+00 -0.0000000000000E+00 
 2.3826357195711E-01  0.0000000000000E+00  0.0000000000000E+00  0.0000000000000E+00  0.0000000000000E+00  0.0000000000000E+00  0.0000000000000E+00  0.0000000000000E+00  0.0000000000000E+00  0.0000000000000E+00 
 0.0000000000000E+00 -0.0000000000000E+00 -0.0000000000000E+00 -0.0000000000000E+00 -0.0000000000000E+00 -0.0000000000000E+00 -0.0000000000000E+00 -0.0000000000000E+00 -0.0000000000000E+00  2.3826357195711E-01 
-0.0000000000000E+00 -0.0000000000000E+00 -0.0000000000000E+00 -0.0000000000000E+00 -0.0000000000000E+00 -0.0000000000000E+00 -0.0000000000000E+00 -0.0000000000000E+00 -0.0000000000000E+00 -0.0000000000000E+00 
 7.2440786946225E+03  1.4488157389245E+04  1.4488157389245E+04  1.4488157389245E+04  1.4488157389245E+04  1.4488157389245E+04  1.4488157389245E+04  1.4488157389245E+04  1.4488157389245E+04  7.2440786946225E+03 
 4.9259735123433E+04  9.8519470246865E+04  9.8519470246866E+04  9.8519470246865E+04  9.8519470246866E+04  9.8519470246866E+04  9.8519470246865E+04  9.8519470246866E+04  9.8519470246865E+04  4.9259735123433E+04 
 5.6503813818055E+04  1.1300762763611E+05  1.1300762763611E+05  1.1300762763611E+05  1.1300762763611E+05  1.1300762763611E+05  1.1300762763611E+05  1.1300762763611E+05  1.1300762763611E+05  5.6503813818055E+04 
 3.5000000000000E-01  3.5000000000000E-01  3.5000000000000E-01  3.5000000000000E-01  3.5000000000000E-01  3.5000000000000E-01  3.5000000000000E-01  3.5000000000000E-01  3.5000000000000E-01  3.5000000000000E-01 
 6.6040000000000E+00  1.3208000000000E+01  1.3208000000000E+01  1.3208000000000E+01  1.3208000000000E+01  1.3208000000000E+01  1.3208000000000E+01  1.3208000000000E+01  1.3208000000000E+01  6.6040000000000E+00 
-3.6078675341780E-02 -3.6078675341780E-02 -3.6078675341780E-02 -3.6078675341780E-02 -3.6078675341780E-02 -3.6078675341780E-02 -3.6078675341780E-02 -3.6078675341780E-02 -3.6078675341780E-02 -3.6078675341780E-02 
 3.3866666666667E-05  6.7733333333333E-05  6.7733333333334E-05  6.7733333333333E-05  6.7733333333334E-05  6.7733333333334E-05  6.7733333333333E-05  6.7733333333334E-05  6.7733333333333E-05  3.3866666666667E-05 
 2.6603001364256E+01  2.6603001364256E+01  2.6603001364256E+01  2.6603001364256E+01  2.6603001364256E+01  2.6603001364256E+01  2.6603001364256E+01  2.6603001364256E+01  2.6603001364256E+01  2.6603001364256E+01 
 1.7735334242838E+01  1.7735334242838E+01  1.7735334242838E+01  1.7735334242838E+01  1.7735334242838E+01  1.7735334242838E+01  1.7735334242838E+01  1.7735334242838E+01  1.7735334242838E+01  1.7735334242838E+01 
 0.0000000000000E+00  0.0000000000000E+00  0.0000000000000E+00  0.0000000000000E+00  0.0000000000000E+00  0.0000000000000E+00  0.0000000000000E+00  0.0000000000000E+00  0.0000000000000E+00  0.0000000000000E+00 
 0.0000000000000E+00  0.0000000000000E+00  0.0000000000000E+00  0.0000000000000E+00  0.0000000000000E+00  0.0000000000000E+00  0.0000000000000E+00  0.0000000000000E+00  0.0000000000000E+00  0.0000000000000E+00 
 0.0000000000000E+00  0.0000000000000E+00  0.0000000000000E+00  0.0000000000000E+00  0.0000000000000E+00  0.0000000000000E+00  0.0000000000000E+00  0.0000000000000E+00  0.0000000000000E+00  0.0000000000000E+00 
 0.0000000000000E+00  0.0000000000000E+00  0.0000000000000E+00  0.0000000000000E+00  0.0000000000000E+00  0.0000000000000E+00  0.0000000000000E+00  0.0000000000000E+00  0.0000000000000E+00  0.0000000000000E+00 
 0.0000000000000E+00  0.0000000000000E+00  0.0000000000000E+00  0.0000000000000E+00  0.0000000000000E+00  0.0000000000000E+00  0.0000000000000E+00  0.0000000000000E+00  0.0000000000000E+00  0.0000000000000E+00 
 0.0000000000000E+00  0.0000000000000E+00  0.0000000000000E+00  0.0000000000000E+00  0.0000000000000E+00  0.0000000000000E+00  0.0000000000000E+00  0.0000000000000E+00  0.0000000000000E+00  0.0000000000000E+00 
 0.0000000000000E+00  0.0000000000000E+00  0.0000000000000E+00  0.0000000000000E+00  0.0000000000000E+00  0.0000000000000E+00  0.0000000000000E+00  0.0000000000000E+00  0.0000000000000E+00  0.0000000000000E+00 
ZONE T = "CATH, 1.0000E-08", I = 10, SOLUTIONTIME = 1.000000E-08
ZONETYPE = ORDERED
DATAPACKING = BLOCK
STRANDID = 3
 1.2700000000000E-03  1.3377333333333E-03  1.4054666666667E-03  1.4732000000000E-03  1.5409333333333E-03  1.6086666666667E-03  1.6764000000000E-03  1.7441333333333E-03  1.8118666666667E-03  1.8796000000000E-03 
 1.9704870969383E-08  1.7388967434950E-08  1.5072780582162E-08  1.2756114837221E-08  1.0438774465015E-08  8.1205635032935E-09  5.8009224874205E-09  3.4800180085288E-09  1.1583794380378E-09 -3.2688695772366E-12 
 9.2000000000032E-01  9.2000000000090E-01  9.2000000000090E-01  9.2000000000090E-01  9.2000000000090E-01  9.2000000000090E-01  9.2000000000090E-01  9.2000000000090E-01  9.2000000000090E-01  9.2000000000090E-01 
 3.9999999999841E-02  3.9999999999551E-02  3.9999999999551E-02  3.9999999999551E-02  3.9999999999550E-02  3.9999999999550E-02  3.9999999999550E-02  3.9999999999550E-02  3.9999999999550E-02  3.9999999999549E-02 
 3.9999999999841E-02  3.9999999999551E-02  3.9999999999551E-02  3.9999999999551E-02  3.9999999999550E-02  3.9999999999550E-02  3.9999999999550E-02  3.9999999999550E-02  3.9999999999550E-02  3.9999999999549E-02 
 2.9165653270830E-02  2.9165446260683E-02  2.9165263576507E-02  2.9165105221297E-02  2.9164971200080E-02  2.9164861519935E-02  2.9164776190020E-02  2.9164715221539E-02  2.9164678627749E-02  2.9164666424019E-02 
 3.8001746420670E+00  3.8001724871785E+00  3.8001660223495E+00  3.8001552470526E+00  3.8001401603965E+00  3.8001207611255E+00  3.8000970476191E+00  3.8000690178917E+00  3.8000366695915E+00  3.8000000000000E+00 
 3.7710089887962E+00  3.7710070409178E+00  3.7710007587730E+00  3.7709901418313E+00  3.7709751891964E+00  3.7709558996056E+00  3.7709322714291E+00  3.7709043026702E+00  3.7708719909637E+00  3.7708353335760E+00 
 3.9714142713287E+00  3.9714142713285E+00  3.9714142713285E+00  3.9714142713285E+00  3.9714142713285E+00  3.9714142713285E+00  3.9714142713285E+00  3.9714142713285E+00  3.9714142713285E+00  3.9714142713285E+00 
-2.0040528253254E-01 -2.0040723041071E-01 -2.0041351255556E-01 -2.0042412949722E-01 -2.0043908213210E-01 -2.0045837172296E-01 -2.0048199989941E-01 -2.0050996865837E-01 -2.0054228036480E-01 -2.0057893775254E-01 
-1.6672260832614E+00 -3.3345786729948E+00 -3.3349867044162E+00 -3.3356763984185E+00 -3.3366479876954E+00 -3.3379018001707E+00 -3.3394382592352E+00 -3.3412578840488E+00 -3.3433612899136E+00 -1.6728745943605E+00 
 1.4705140441895E-07  1.2977112800610E-07  1.1248885801850E-07  9.5203016300991E-08  7.7912146207126E-08  6.0614769973816E-08  4.3309435871673E-08  2.5994684074759E-08  8.6690151843953E-09  8.6690151843953E-09 
 3.0043808964998E+01  2.6709302386550E+01  2.3374536255700E+01  2.0039220363859E+01  1.6703074687591E+01  1.3365816100076E+01  1.0027161947464E+01  6.6868313077520E+00  3.3445386590710E+00  0.0000000000000E+00 
 0.0000000000000E+00  3.3344992520474E+00  6.6692657525713E+00  1.0004581074913E+01  1.3340726977265E+01  1.6677985497498E+01  2.0016639048855E+01  2.3356970515293E+01  2.6699263348892E+01  3.0043810171963E+01 
 1.6672260832614E-08  3.3345786729948E-08  3.3349867044162E-08  3.3356763984185E-08  3.3366479876954E-08  3.3379018001707E-08  3.3394382592352E-08  3.3412578840488E-08  3.3433612899136E-08  1.6728745943605E-08 
 7.2440786946392E+03  1.4488157389278E+04  1.4488157389278E+04  1.4488157389278E+04  1.4488157389278E+04  1.4488157389278E+04  1.4488157389278E+04  1.4488157389278E+04  1.4488157389278E+04  7.2440786946392E+03 
 4.9259735123416E+04  9.8519470246832E+04  9.8519470246832E+04  9.8519470246832E+04  9.8519470246832E+04  9.8519470246832E+04  9.8519470246832E+04  9.8519470246832E+04  9.8519470246832E+04  4.9259735123416E+04 
 5.6503813818055E+04  1.1300762763611E+05  1.1300762763611E+05  1.1300762763611E+05  1.1300762763611E+05  1.1300762763611E+05  1.1300762763611E+05  1.1300762763611E+05  1.1300762763611E+05  5.6503813818055E+04 
 3.5000000000000E-01  3.5000000000000E-01  3.5000000000000E-01  3.5000000000000E-01  3.5000000000000E-01  3.5000000000000E-01  3.5000000000000E-01  3.5000000000000E-01  3.5000000000000E-01  3.5000000000000E-01 
 6.6040000000000E+00  1.3208000000000E+01  1.3208000000000E+01  1.3208000000000E+01  1.3208000000000E+01  1.3208000000000E+01  1.3208000000000E+01  1.3208000000000E+01  1.3208000000000E+01  6.6040000000000E+00 
-2.5245700836786E-01 -2.5246658638665E-01 -2.5249747913508E-01 -2.5254969703350E-01 -2.5262325769953E-01 -2.5271818596083E-01 -2.5283451387305E-01 -2.5297228074264E-01 -2.5313153315518E-01 -2.5331232500916E-01 
 3.3866666666667E-05  6.7733333333333E-05  6.7733333333334E-05  6.7733333333333E-05  6.7733333333334E-05  6.7733333333334E-05  6.7733333333333E-05  6.7733333333334E-05  6.7733333333333E-05  3.3866666666667E-05 
 2.6603001364262E+01  2.6603001364262E+01  2.6603001364262E+01  2.6603001364262E+01  2.6603001364262E+01  2.6603001364262E+01  2.6603001364262E+01  2.6603001364262E+01  2.6603001364262E+01  2.6603001364262E+01 
 1.7735334242833E+01  1.7735334242833E+01  1.7735334242833E+01  1.7735334242833E+01  1.7735334242833E+01  1.7735334242833E+01  1.7735334242833E+01  1.7735334242833E+01  1.7735334242833E+01  1.7735334242833E+01 
 1.3976736495955E-09  3.4235245849047E-09  9.6096576112908E-09  2.0066058102223E-08  3.4796258299413E-08  5.3805235852711E-08  7.7099417552167E-08  1.0468668395723E-07  1.3657637494917E-07  1.5359808547952E-07 
 1.3976736495955E-01  3.4235245849047E-01  9.6096576112908E-01  2.0066058102223E+00  3.4796258299413E+00  5.3805235852711E+00  7.7099417552167E+00  1.0468668395723E+01  1.3657637494917E+01  1.5359808547952E+01 
 8.6725993236747E-02  7.7133526547054E-02  5.9145219153261E-02  4.3550053862896E-02  3.0348208495661E-02  1.9540657592845E-02  1.1129189898617E-02  5.1164120568515E-03  1.5057386616293E-03  3.0140553579233E-04 
 5.3041371722802E-02  2.6521893194342E-01  9.0182054197582E-01  1.9630557563594E+00  3.4492776214456E+00  5.3609829276783E+00  7.6988125653181E+00  1.0463551983666E+01  1.3656131756255E+01  1.5359507142417E+01 
 0.0000000000000E+00  0.0000000000000E+00  0.0000000000000E+00  0.0000000000000E+00  0.0000000000000E+00  0.0000000000000E+00  0.0000000000000E+00  0.0000000000000E+00  0.0000000000000E+00  0.0000000000000E+00 
 0.0000000000000E+00  0.0000000000000E+00  0.0000000000000E+00  0.0000000000000E+00  0.0000000000000E+00  0.0000000000000E+00  0.0000000000000E+00  0.0000000000000E+00  0.0000000000000E+00  0.0000000000000E+00 
 0.0000000000000E+00  0.0000000000000E+00  0.0000000000000E+00  0.0000000000000E+00  0.0000000000000E+00  0.0000000000000E+00  0.0000000000000E+00  0.0000000000000E+00  0.0000000000000E+00  0.0000000000000E+00 
ZONE T = "CATH, 2.0000E-08", I = 10, SOLUTIONTIME = 2.000000E-08
ZONETYPE = ORDERED
DATAPACKING = BLOCK
STRANDID = 3
 1.2700000000000E-03  1.3377333333333E-03  1.4054666666667E-03  1.4732000000000E-03  1.5409333333333E-03  1.6086666666667E-03  1.6764000000000E-03  1.7441333333333E-03  1.8118666666667E-03  1.8796000000000E-03 
 1.9704060742733E-08  1.7388872332874E-08  1.5072674166690E-08  1.2755997070479E-08  1.0439008501223E-08  8.1211492727308E-09  5.8022231125246E-09  3.4813069721546E-09  1.1592934145273E-09 -2.5424540945139E-12 
 9.2000000000063E-01  9.2000000000180E-01  9.2000000000180E-01  9.2000000000180E-01  9.2000000000180E-01  9.2000000000180E-01  9.2000000000180E-01  9.2000000000180E-01  9.2000000000180E-01  9.2000000000180E-01 
 3.9999999999683E-02  3.9999999999101E-02  3.9999999999101E-02  3.9999999999101E-02  3.9999999999101E-02  3.9999999999100E-02  3.9999999999100E-02  3.9999999999100E-02  3.9999999999099E-02  3.9999999999098E-02 
 3.9999999999683E-02  3.9999999999101E-02  3.9999999999101E-02  3.9999999999101E-02  3.9999999999101E-02  3.9999999999100E-02  3.9999999999100E-02  3.9999999999100E-02  3.9999999999099E-02  3.9999999999098E-02 
 2.9165655458168E-02  2.9165448446988E-02  2.9165265761909E-02  2.9165107405908E-02  2.9164973384018E-02  2.9164863703325E-02  2.9164778372976E-02  2.9164717404180E-02  2.9164680810212E-02  2.9164668606416E-02 
 3.8001746429253E+00  3.8001724880263E+00  3.8001660231657E+00  3.8001552478163E+00  3.8001401610865E+00  3.8001207617205E+00  3.8000970480979E+00  3.8000690182326E+00  3.8000366697729E+00  3.8000000000000E+00 
 3.7710089874671E+00  3.7710070395793E+00  3.7710007574038E+00  3.7709901404104E+00  3.7709751877025E+00  3.7709558980172E+00  3.7709322697249E+00  3.7709043008285E+00  3.7708719889627E+00  3.7708353313936E+00 
 3.9714142713285E+00  3.9714142713282E+00  3.9714142713282E+00  3.9714142713282E+00  3.9714142713282E+00  3.9714142713282E+00  3.9714142713282E+00  3.9714142713282E+00  3.9714142713282E+00  3.9714142713282E+00 
-2.0040528386143E-01 -2.0040723174889E-01 -2.0041351392434E-01 -2.0042413091779E-01 -2.0043908362570E-01 -2.0045837331094E-01 -2.0048200160324E-01 -2.0050997049970E-01 -2.0054228236546E-01 -2.0057893993457E-01 
-1.6672261264097E+00 -3.3345787598854E+00 -3.3349867933058E+00 -3.3356764906908E+00 -3.3366480847406E+00 -3.3379019033884E+00 -3.3394383700356E+00 -3.3412580038568E+00 -3.3433614201722E+00 -1.6728746654457E+00 
 1.4705227082538E-07  1.2977176979644E-07  1.1248941937983E-07  9.5203494878553E-08  7.7912535439401E-08  6.0615078543858E-08  4.3309659473906E-08  2.5994810818193E-08  8.6690619691127E-09  8.6690619691127E-09 
 3.0043950617829E+01  2.6709435111546E+01  2.3374652334948E+01  2.0039320692938E+01  1.6703158405453E+01  1.3365883411222E+01  1.0027213274454E+01  6.6868650875720E+00  3.3445553753922E+00  0.0000000000000E+00 
 0.0000000000000E+00  3.3345155063300E+00  6.6692982829543E+00  1.0004629925032E+01  1.3340792212745E+01  1.6678067206642E+01  2.0016737343328E+01  2.3357085530469E+01  2.6699395242478E+01  3.0043950617929E+01 
 3.3344522096711E-08  6.6691574328802E-08  6.6699734977220E-08  6.6713528891093E-08  6.6732960724360E-08  6.6758037035591E-08  6.6788766292709E-08  6.6825158879056E-08  6.6867227100858E-08  3.3457492598062E-08 
 7.2440786946558E+03  1.4488157389312E+04  1.4488157389312E+04  1.4488157389312E+04  1.4488157389312E+04  1.4488157389312E+04  1.4488157389312E+04  1.4488157389312E+04  1.4488157389312E+04  7.2440786946559E+03 
 4.9259735123400E+04  9.8519470246798E+04  9.8519470246799E+04  9.8519470246798E+04  9.8519470246799E+04  9.8519470246799E+04  9.8519470246798E+04  9.8519470246799E+04  9.8519470246798E+04  4.9259735123399E+04 
 5.6503813818055E+04  1.1300762763611E+05  1.1300762763611E+05  1.1300762763611E+05  1.1300762763611E+05  1.1300762763611E+05  1.1300762763611E+05  1.1300762763611E+05  1.1300762763611E+05  5.6503813818055E+04 
 3.5000000000000E-01  3.5000000000000E-01  3.5000000000000E-01  3.5000000000000E-01  3.5000000000000E-01  3.5000000000000E-01  3.5000000000000E-01  3.5000000000000E-01  3.5000000000000E-01  3.5000000000000E-01 
 6.6040000000000E+00  1.3208000000000E+01  1.3208000000000E+01  1.3208000000000E+01  1.3208000000000E+01  1.3208000000000E+01  1.3208000000000E+01  1.3208000000000E+01  1.3208000000000E+01  6.6040000000000E+00 
-2.5245701490153E-01 -2.5246659296528E-01 -2.5249748586507E-01 -2.5254970401960E-01 -2.5262326504699E-01 -2.5271819377562E-01 -2.5283452226194E-01 -2.5297228981351E-01 -2.5313154301728E-01 -2.5331233577312E-01 
 3.3866666666667E-05  6.7733333333333E-05  6.7733333333334E-05  6.7733333333333E-05  6.7733333333334E-05  6.7733333333334E-05  6.7733333333333E-05  6.7733333333334E-05  6.7733333333333E-05  3.3866666666667E-05 
 2.6603001364267E+01  2.6603001364267E+01  2.6603001364267E+01  2.6603001364267E+01  2.6603001364267E+01  2.6603001364267E+01  2.6603001364267E+01  2.6603001364267E+01  2.6603001364267E+01  2.6603001364267E+01 
 1.7735334242827E+01  1.7735334242827E+01  1.7735334242827E+01  1.7735334242827E+01  1.7735334242827E+01  1.7735334242827E+01  1.7735334242827E+01  1.7735334242827E+01  1.7735334242827E+01  1.7735334242827E+01 
 2.7953611246215E-09  6.8470826961687E-09  1.9219409078919E-08  4.0132312286581E-08  6.9592857012984E-08  1.0761099901978E-07  1.5419959244515E-07  2.0937439904543E-07  2.7315409941022E-07  3.0719769092325E-07 
 1.3976874750260E-01  3.4235581112640E-01  9.6097514676280E-01  2.0066254184358E+00  3.4796598713571E+00  5.3805763167066E+00  7.7100174892979E+00  1.0468771508820E+01  1.3657772446106E+01  1.5359960544373E+01 
 8.6726858829366E-02  7.7134293355374E-02  5.9145806405593E-02  4.3550489813264E-02  3.0348512808209E-02  1.9540854186684E-02  1.1129303710191E-02  5.1164640769414E-03  1.5057534831275E-03  3.0140877907997E-04 
 5.3041888673234E-02  2.6522151777102E-01  9.0182934035721E-01  1.9630749286225E+00  3.4493113585489E+00  5.3610354625199E+00  7.6988881855877E+00  1.0463655044743E+01  1.3656266692623E+01  1.5359659135594E+01 
 0.0000000000000E+00  0.0000000000000E+00  0.0000000000000E+00  0.0000000000000E+00  0.0000000000000E+00  0.0000000000000E+00  0.0000000000000E+00  0.0000000000000E+00  0.0000000000000E+00  0.0000000000000E+00 
 0.0000000000000E+00  0.0000000000000E+00  0.0000000000000E+00  0.0000000000000E+00  0.0000000000000E+00  0.0000000000000E+00  0.0000000000000E+00  0.0000000000000E+00  0.0000000000000E+00  0.0000000000000E+00 
 0.0000000000000E+00  0.0000000000000E+00  0.0000000000000E+00  0.0000000000000E+00  0.0000000000000E+00  0.0000000000000E+00  0.0000000000000E+00  0.0000000000000E+00  0.0000000000000E+00  0.0000000000000E+00 
ZONE T = "CATH, 3.0000E-08", I = 10, SOLUTIONTIME = 3.000000E-08
ZONETYPE = ORDERED
DATAPACKING = BLOCK
STRANDID = 3
 1.2700000000000E-03  1.3377333333333E-03  1.4054666666667E-03  1.4732000000000E-03  1.5409333333333E-03  1.6086666666667E-03  1.6764000000000E-03  1.7441333333333E-03  1.8118666666667E-03  1.8796000000000E-03 
 1.9706966404216E-08  1.7391051578942E-08  1.5074853412798E-08  1.2758902732082E-08  1.0441550955138E-08  8.1236917266853E-09  5.8047655665191E-09  3.4853022571002E-09  1.1640151149684E-09  2.5424540944144E-12 
 9.2000000000095E-01  9.2000000000270E-01  9.2000000000270E-01  9.2000000000270E-01  9.2000000000270E-01  9.2000000000270E-01  9.2000000000270E-01  9.2000000000270E-01  9.2000000000270E-01  9.2000000000270E-01 
 3.9999999999524E-02  3.9999999998652E-02  3.9999999998652E-02  3.9999999998652E-02  3.9999999998651E-02  3.9999999998651E-02  3.9999999998650E-02  3.9999999998649E-02  3.9999999998649E-02  3.9999999998648E-02 
 3.9999999999524E-02  3.9999999998652E-02  3.9999999998652E-02  3.9999999998652E-02  3.9999999998651E-02  3.9999999998651E-02  3.9999999998650E-02  3.9999999998649E-02  3.9999999998649E-02  3.9999999998648E-02 
 2.9165655457956E-02  2.9165448446775E-02  2.9165265761697E-02  2.9165107405696E-02  2.9164973383805E-02  2.9164863703112E-02  2.9164778372763E-02  2.9164717403968E-02  2.9164680809999E-02  2.9164668606203E-02 
 3.8001746429253E+00  3.8001724880263E+00  3.8001660231657E+00  3.8001552478163E+00  3.8001401610865E+00  3.8001207617205E+00  3.8000970480979E+00  3.8000690182326E+00  3.8000366697729E+00  3.8000000000000E+00 
 3.7710089874673E+00  3.7710070395795E+00  3.7710007574040E+00  3.7709901404106E+00  3.7709751877027E+00  3.7709558980174E+00  3.7709322697251E+00  3.7709043008287E+00  3.7708719889629E+00  3.7708353313938E+00 
 3.9714142713283E+00  3.9714142713278E+00  3.9714142713278E+00  3.9714142713278E+00  3.9714142713278E+00  3.9714142713278E+00  3.9714142713278E+00  3.9714142713278E+00  3.9714142713278E+00  3.9714142713278E+00 
-2.0040528386104E-01 -2.0040723174831E-01 -2.0041351392377E-01 -2.0042413091721E-01 -2.0043908362512E-01 -2.0045837331037E-01 -2.0048200160266E-01 -2.0050997049912E-01 -2.0054228236488E-01 -2.0057893993399E-01 
-1.6672261263932E+00 -3.3345787598282E+00 -3.3349867932486E+00 -3.3356764906335E+00 -3.3366480846833E+00 -3.3379019033310E+00 -3.3394383699781E+00 -3.3412580037992E+00 -3.3433614201146E+00 -1.6728746654168E+00 
 1.4705240339273E-07  1.2977176982614E-07  1.1248941942049E-07  9.5203494936878E-08  7.7912535512045E-08  6.0615078638664E-08  4.3309659586382E-08  2.5994810949481E-08  8.6690621131327E-09  8.6690621131327E-09 
 3.0043950617121E+01  2.6709435111060E+01  2.3374652334686E+01  2.0039320692713E+01  1.6703158405027E+01  1.3365883410834E+01  1.0027213274341E+01  6.6868650874967E+00  3.3445553753546E+00  0.0000000000000E+00 
 0.0000000000000E+00  3.3345155063300E+00  6.6692982827825E+00  1.0004629924689E+01  1.3340792212401E+01  1.6678067206470E+01  2.0016737343156E+01  2.3357085529954E+01  2.6699395241963E+01  3.0043950617556E+01 
 5.0016783360643E-08  1.0003736192708E-07  1.0004960290971E-07  1.0007029379743E-07  1.0009944157119E-07  1.0013705606890E-07  1.0018314999249E-07  1.0023773891705E-07  1.0030084130200E-07  5.0186239252230E-08 
 7.2440786946725E+03  1.4488157389345E+04  1.4488157389345E+04  1.4488157389345E+04  1.4488157389345E+04  1.4488157389345E+04  1.4488157389345E+04  1.4488157389345E+04  1.4488157389345E+04  7.2440786946727E+03 
 4.9259735123383E+04  9.8519470246765E+04  9.8519470246766E+04  9.8519470246765E+04  9.8519470246766E+04  9.8519470246766E+04  9.8519470246765E+04  9.8519470246766E+04  9.8519470246765E+04  4.9259735123383E+04 
 5.6503813818055E+04  1.1300762763611E+05  1.1300762763611E+05  1.1300762763611E+05  1.1300762763611E+05  1.1300762763611E+05  1.1300762763611E+05  1.1300762763611E+05  1.1300762763611E+05  5.6503813818055E+04 
 3.5000000000000E-01  3.5000000000000E-01  3.5000000000000E-01  3.5000000000000E-01  3.5000000000000E-01  3.5000000000000E-01  3.5000000000000E-01  3.5000000000000E-01  3.5000000000000E-01  3.5000000000000E-01 
 6.6040000000000E+00  1.3208000000000E+01  1.3208000000000E+01  1.3208000000000E+01  1.3208000000000E+01  1.3208000000000E+01  1.3208000000000E+01  1.3208000000000E+01  1.3208000000000E+01  6.6040000000000E+00 
-2.5245701489903E-01 -2.5246659296095E-01 -2.5249748586074E-01 -2.5254970401526E-01 -2.5262326504265E-01 -2.5271819377127E-01 -2.5283452225758E-01 -2.5297228980915E-01 -2.5313154301292E-01 -2.5331233576875E-01 
 3.3866666666667E-05  6.7733333333333E-05  6.7733333333334E-05  6.7733333333333E-05  6.7733333333334E-05  6.7733333333334E-05  6.7733333333333E-05  6.7733333333334E-05  6.7733333333333E-05  3.3866666666667E-05 
 2.6603001364272E+01  2.6603001364272E+01  2.6603001364272E+01  2.6603001364272E+01  2.6603001364272E+01  2.6603001364272E+01  2.6603001364272E+01  2.6603001364272E+01  2.6603001364272E+01  2.6603001364272E+01 
 1.7735334242822E+01  1.7735334242822E+01  1.7735334242822E+01  1.7735334242822E+01  1.7735334242822E+01  1.7735334242822E+01  1.7735334242822E+01  1.7735334242822E+01  1.7735334242822E+01  1.7735334242822E+01 
 4.1930485996118E-09  1.0270640807411E-08  2.8829160545994E-08  6.0198566469622E-08  1.0438945572479E-07  1.6141676218585E-07  2.3129976733670E-07  3.1406211412892E-07  4.0973182386614E-07  4.6079729636326E-07 
 1.3976874749903E-01  3.4235581112424E-01  9.6097514670748E-01  2.0066254183041E+00  3.4796598711811E+00  5.3805763166072E+00  7.7100174891556E+00  1.0468771508349E+01  1.3657772445591E+01  1.5359960544001E+01 
 8.6726858825800E-02  7.7134293353211E-02  5.9145806404929E-02  4.3550489812775E-02  3.0348512807097E-02  1.9540854185695E-02  1.1129303710066E-02  5.1164640768838E-03  1.5057534831105E-03  3.0140877907657E-04 
 5.3041888673234E-02  2.6522151777102E-01  9.0182934030255E-01  1.9630749284913E+00  3.4493113583740E+00  5.3610354624215E+00  7.6988881854455E+00  1.0463655044272E+01  1.3656266692108E+01  1.5359659135222E+01 
 0.0000000000000E+00  0.0000000000000E+00  0.0000000000000E+00  0.0000000000000E+00  0.0000000000000E+00  0.0000000000000E+00  0.0000000000000E+00  0.0000000000000E+00  0.0000000000000E+00  0.0000000000000E+00 
 0.0000000000000E+00  0.0000000000000E+00  0.0000000000000E+00  0.0000000000000E+00  0.0000000000000E+00  0.0000000000000E+00  0.0000000000000E+00  0.0000000000000E+00  0.0000000000000E+00  0.0000000000000E+00 
 0.0000000000000E+00  0.0000000000000E+00  0.0000000000000E+00  0.0000000000000E+00  0.0000000000000E+00  0.0000000000000E+00  0.0000000000000E+00  0.0000000000000E+00  0.0000000000000E+00  0.0000000000000E+00 
ZONE T = "CATH, 4.0000E-08", I = 10, SOLUTIONTIME = 4.000000E-08
ZONETYPE = ORDERED
DATAPACKING = BLOCK
STRANDID = 3
 1.2700000000000E-03  1.3377333333333E-03  1.4054666666667E-03  1.4732000000000E-03  1.5409333333333E-03  1.6086666666667E-03  1.6764000000000E-03  1.7441333333333E-03  1.8118666666667E-03  1.8796000000000E-03 
 1.9702244703417E-08  1.7387056293638E-08  1.5071584542989E-08  1.2754907446857E-08  1.0438282085409E-08  8.1204228569957E-09  5.8014966968693E-09  3.4809437643069E-09  1.1596566222151E-09 -1.8160386388950E-12 
 9.2000000000127E-01  9.2000000000359E-01  9.2000000000359E-01  9.2000000000360E-01  9.2000000000360E-01  9.2000000000360E-01  9.2000000000360E-01  9.2000000000360E-01  9.2000000000360E-01  9.2000000000361E-01 
 3.9999999999365E-02  3.9999999998203E-02  3.9999999998203E-02  3.9999999998202E-02  3.9999999998202E-02  3.9999999998201E-02  3.9999999998200E-02  3.9999999998199E-02  3.9999999998198E-02  3.9999999998197E-02 
 3.9999999999365E-02  3.9999999998203E-02  3.9999999998203E-02  3.9999999998202E-02  3.9999999998202E-02  3.9999999998201E-02  3.9999999998200E-02  3.9999999998199E-02  3.9999999998198E-02  3.9999999998197E-02 
 2.9165655457745E-02  2.9165448446565E-02  2.9165265761486E-02  2.9165107405485E-02  2.9164973383595E-02  2.9164863702902E-02  2.9164778372553E-02  2.9164717403757E-02  2.9164680809789E-02  2.9164668605993E-02 
 3.8001746429253E+00  3.8001724880262E+00  3.8001660231657E+00  3.8001552478163E+00  3.8001401610865E+00  3.8001207617205E+00  3.8000970480979E+00  3.8000690182326E+00  3.8000366697729E+00  3.8000000000000E+00 
 3.7710089874675E+00  3.7710070395797E+00  3.7710007574042E+00  3.7709901404108E+00  3.7709751877029E+00  3.7709558980176E+00  3.7709322697253E+00  3.7709043008289E+00  3.7708719889631E+00  3.7708353313940E+00 
 3.9714142713282E+00  3.9714142713274E+00  3.9714142713274E+00  3.9714142713274E+00  3.9714142713274E+00  3.9714142713274E+00  3.9714142713274E+00  3.9714142713274E+00  3.9714142713274E+00  3.9714142713274E+00 
-2.0040528386065E-01 -2.0040723174773E-01 -2.0041351392319E-01 -2.0042413091664E-01 -2.0043908362454E-01 -2.0045837330979E-01 -2.0048200160209E-01 -2.0050997049854E-01 -2.0054228236431E-01 -2.0057893993341E-01 
-1.6672261263768E+00 -3.3345787597711E+00 -3.3349867931916E+00 -3.3356764905765E+00 -3.3366480846262E+00 -3.3379019032737E+00 -3.3394383699208E+00 -3.3412580037418E+00 -3.3433614200571E+00 -1.6728746653880E+00 