TITLE = "Solution on Domain BulkDomain1D_2"
VARIABLES = "x [m]"  
"Vel_axial" 	"MF_sp(ECDMC)" 	"MF_sp(Li+)" 	"MF_sp(PF6-)" 	"Volt(Electroly)" 	"Volt(CathodeVo)" 	
"Potential Drop Electrode-Electrolyte [V]" 	"Surf_0 Equilibrium Potential Drop Electrode-Electrolyte [V]" 	"Overpotential_0 [V]" 	"Current Source [A/m^2]" 	"Li+ flux [kmol/m^2/s]" 	"Electrolyte Current [A/m^2]" 	"Electrode Current [A/m^2]" 	
"CV Capacity discharged [A-s/m^2]" 	"Depth of discharge in CV [A-s/m^2]" 	"CV Capacity remaining [A-s/m^2]" 	"Initial CV capacity [A-s/m^2]" 	"Porosity []" 	"Surface Area [m2/m2] (area per area)" 	"Specific current (per particle area) [A/m^2]" 	"Control volume thickness [m]" 	
"MoleDens LiCoO2 [kmol/m^3]" 	"MoleDens CoO2 [kmol/m^3]" 	"qHeat_accum [J/m3]" 	"qHeat_step [W/m3]" 	"Joule_Lyte [W/m3]" 	"Joule_Solid [W/m3]" 	"electrodHeat [W/m3]" 	"OverpotHeat [W/m3]" 	"deltaSHeat [W/m3]" 	

ZONE T = "CATH, 0.0000E+00", I = 10, SOLUTIONTIME = 0.000000E+00
ZONETYPE = ORDERED
DATAPACKING = BLOCK
STRANDID = 3
 1.2700000000000E-03  1.3377333333333E-03  1.4054666666667E-03  1.4732000000000E-03  1.5409333333333E-03  1.6086666666667E-03  1.6764000000000E-03  1.7441333333333E-03  1.8118666666667E-03  1.8796000000000E-03 
 0.0000000000000E+00  0.0000000000000E+00  0.0000000000000E+00  0.0000000000000E+00  0.0000000000000E+00  0.0000000000000E+00  0.0000000000000E+00  0.0000000000000E+00  0.0000000000000E+00  0.0000000000000E+00 
 9.2000000000000E-01  9.2000000000000E-01  9.2000000000000E-01  9.2000000000000E-01  9.2000000000000E-01  9.2000000000000E-01  9.2000000000000E-01  9.2000000000000E-01  9.2000000000000E-01  9.2000000000000E-01 
 4.0000000000000E-02  4.0000000000000E-02  4.0000000000000E-02  4.0000000000000E-02  4.0000000000000E-02  4.0000000000000E-02  4.0000000000000E-02  4.0000000000000E-02  4.0000000000000E-02  4.0000000000000E-02 
 4.0000000000000E-02  4.0000000000000E-02  4.0000000000000E-02  4.0000000000000E-02  4.0000000000000E-02  4.0000000000000E-02  4.0000000000000E-02  4.0000000000000E-02  4.0000000000000E-02  4.0000000000000E-02 
-7.0000000000000E-02 -7.0000000000000E-02 -7.0000000000000E-02 -7.0000000000000E-02 -7.0000000000000E-02 -7.0000000000000E-02 -7.0000000000000E-02 -7.0000000000000E-02 -7.0000000000000E-02 -7.0000000000000E-02 
 3.8000000000000E+00  3.8000000000000E+00  3.8000000000000E+00  3.8000000000000E+00  3.8000000000000E+00  3.8000000000000E+00  3.8000000000000E+00  3.8000000000000E+00  3.8000000000000E+00  3.8000000000000E+00 
 3.8700000000000E+00  3.8700000000000E+00  3.8700000000000E+00  3.8700000000000E+00  3.8700000000000E+00  3.8700000000000E+00  3.8700000000000E+00  3.8700000000000E+00  3.8700000000000E+00  3.8700000000000E+00 
 3.9714142713289E+00  3.9714142713289E+00  3.9714142713289E+00  3.9714142713289E+00  3.9714142713289E+00  3.9714142713289E+00  3.9714142713289E+00  3.9714142713289E+00  3.9714142713289E+00  3.9714142713289E+00 
-1.0141427132889E-01 -1.0141427132889E-01 -1.0141427132889E-01 -1.0141427132889E-01 -1.0141427132889E-01 -1.0141427132889E-01 -1.0141427132889E-01 -1.0141427132889E-01 -1.0141427132889E-01 -1.0141427132889E-01 
-2.3826357195711E-01 -4.7652714391422E-01 -4.7652714391423E-01 -4.7652714391422E-01 -4.7652714391423E-01 -4.7652714391423E-01 -4.7652714391422E-01 -4.7652714391423E-01 -4.7652714391422E-01 -2.3826357195711E-01 
-0.0000000000000E+00 -0.0000000000000E+00 -0.0000000000000E+00 -0.0000000000000E+00 -0.0000000000000E+00 -0.0000000000000E+00 -0.0000000000000E+00 -0.0000000000000E+00 -0.0000000000000E+00 -0.0000000000000E+00 
 2.3826357195711E-01  0.0000000000000E+00  0.0000000000000E+00  0.0000000000000E+00  0.0000000000000E+00  0.0000000000000E+00  0.0000000000000E+00  0.0000000000000E+00  0.0000000000000E+00  0.0000000000000E+00 
 0.0000000000000E+00 -0.0000000000000E+00 -0.0000000000000E+00 -0.0000000000000E+00 -0.0000000000000E+00 -0.0000000000000E+00 -0.0000000000000E+00 -0.0000000000000E+00 -0.0000000000000E+00  2.3826357195711E-01 
-0.0000000000000E+00 -0.0000000000000E+00 -0.0000000000000E+00 -0.0000000000000E+00 -0.0000000000000E+00 -0.0000000000000E+00 -0.0000000000000E+00 -0.0000000000000E+00 -0.0000000000000E+00 -0.0000000000000E+00 
 7.2440786946225E+03  1.4488157389245E+04  1.4488157389245E+04  1.4488157389245E+04  1.4488157389245E+04  1.4488157389245E+04  1.4488157389245E+04  1.4488157389245E+04  1.4488157389245E+04  7.2440786946225E+03 
 4.9259735123433E+04  9.8519470246865E+04  9.8519470246866E+04  9.8519470246865E+04  9.8519470246866E+04  9.8519470246866E+04  9.8519470246865E+04  9.8519470246866E+04  9.8519470246865E+04  4.9259735123433E+04 
 5.6503813818055E+04  1.1300762763611E+05  1.1300762763611E+05  1.1300762763611E+05  1.1300762763611E+05  1.1300762763611E+05  1.1300762763611E+05  1.1300762763611E+05  1.1300762763611E+05  5.6503813818055E+04 
 3.5000000000000E-01  3.5000000000000E-01  3.5000000000000E-01  3.5000000000000E-01  3.5000000000000E-01  3.5000000000000E-01  3.5000000000000E-01  3.5000000000000E-01  3.5000000000000E-01  3.5000000000000E-01 
 6.6040000000000E+00  1.3208000000000E+01  1.3208000000000E+01  1.3208000000000E+01  1.3208000000000E+01  1.3208000000000E+01  1.3208000000000E+01  1.3208000000000E+01  1.3208000000000E+01  6.6040000000000E+00 
-3.6078675341780E-02 -3.6078675341780E-02 -3.6078675341780E-02 -3.6078675341780E-02 -3.6078675341780E-02 -3.6078675341780E-02 -3.6078675341780E-02 -3.6078675341780E-02 -3.6078675341780E-02 -3.6078675341780E-02 
 3.3866666666667E-05  6.7733333333333E-05  6.7733333333334E-05  6.7733333333333E-05  6.7733333333334E-05  6.7733333333334E-05  6.7733333333333E-05  6.7733333333334E-05  6.7733333333333E-05  3.3866666666667E-05 
 2.6603001364256E+01  2.6603001364256E+01  2.6603001364256E+01  2.6603001364256E+01  2.6603001364256E+01  2.6603001364256E+01  2.6603001364256E+01  2.6603001364256E+01  2.6603001364256E+01  2.6603001364256E+01 
 1.7735334242838E+01  1.7735334242838E+01  1.7735334242838E+01  1.7735334242838E+01  1.7735334242838E+01  1.7735334242838E+01  1.7735334242838E+01  1.7735334242838E+01  1.7735334242838E+01  1.7735334242838E+01 
 0.0000000000000E+00  0.0000000000000E+00  0.0000000000000E+00  0.0000000000000E+00  0.0000000000000E+00  0.0000000000000E+00  0.0000000000000E+00  0.0000000000000E+00  0.0000000000000E+00  0.0000000000000E+00 
 0.0000000000000E+00  0.0000000000000E+00  0.0000000000000E+00  0.0000000000000E+00  0.0000000000000E+00  0.0000000000000E+00  0.0000000000000E+00  0.0000000000000E+00  0.0000000000000E+00  0.0000000000000E+00 
 0.0000000000000E+00  0.0000000000000E+00  0.0000000000000E+00  0.0000000000000E+00  0.0000000000000E+00  0.0000000000000E+00  0.0000000000000E+00  0.0000000000000E+00  0.0000000000000E+00  0.0000000000000E+00 
 0.0000000000000E+00  0.0000000000000E+00  0.0000000000000E+00  0.0000000000000E+00  0.0000000000000E+00  0.0000000000000E+00  0.0000000000000E+00  0.0000000000000E+00  0.0000000000000E+00  0.0000000000000E+00 
 0.0000000000000E+00  0.0000000000000E+00  0.0000000000000E+00  0.0000000000000E+00  0.0000000000000E+00  0.0000000000000E+00  0.0000000000000E+00  0.0000000000000E+00  0.0000000000000E+00  0.0000000000000E+00 
 0.0000000000000E+00  0.0000000000000E+00  0.0000000000000E+00  0.0000000000000E+00  0.0000000000000E+00  0.0000000000000E+00  0.0000000000000E+00  0.0000000000000E+00  0.0000000000000E+00  0.0000000000000E+00 
 0.0000000000000E+00  0.0000000000000E+00  0.0000000000000E+00  0.0000000000000E+00  0.0000000000000E+00  0.0000000000000E+00  0.0000000000000E+00  0.0000000000000E+00  0.0000000000000E+00  0.0000000000000E+00 
ZONE T = "CATH, 1.0000E-08", I = 10, SOLUTIONTIME = 1.000000E-08
ZONETYPE = ORDERED
DATAPACKING = BLOCK
STRANDID = 3
 1.2700000000000E-03  1.3377333333333E-03  1.4054666666667E-03  1.4732000000000E-03  1.5409333333333E-03  1.6086666666667E-03  1.6764000000000E-03  1.7441333333333E-03  1.8118666666667E-03  1.8796000000000E-03 
 1.9699689609792E-08  1.7384160562752E-08  1.5067984996487E-08  1.2752056966193E-08  1.0434727909876E-08  8.1165282861571E-09  5.7979882584926E-09  3.4774583840585E-09  1.1554680398729E-09 -6.3561336575314E-12 
 9.2000000000037E-01  9.2000000000090E-01  9.2000000000090E-01  9.2000000000090E-01  9.2000000000090E-01  9.2000000000090E-01  9.2000000000090E-01  9.2000000000090E-01  9.2000000000090E-01  9.2000000000090E-01 
 3.9999999999813E-02  3.9999999999551E-02  3.9999999999551E-02  3.9999999999551E-02  3.9999999999550E-02  3.9999999999550E-02  3.9999999999550E-02  3.9999999999550E-02  3.9999999999550E-02  3.9999999999549E-02 
 3.9999999999813E-02  3.9999999999551E-02  3.9999999999551E-02  3.9999999999551E-02  3.9999999999550E-02  3.9999999999550E-02  3.9999999999550E-02  3.9999999999550E-02  3.9999999999550E-02  3.9999999999549E-02 
 2.9165472200617E-02  2.9165265191477E-02  2.9165082508202E-02  2.9164924153767E-02  2.9164790133205E-02  2.9164680453601E-02  2.9164595124102E-02  2.9164534155915E-02  2.9164497562314E-02  2.9164485358641E-02 
 3.8001746412144E+00  3.8001724863364E+00  3.8001660215389E+00  3.8001552462945E+00  3.8001401597120E+00  3.8001207605355E+00  3.8000970471449E+00  3.8000690175543E+00  3.8000366694121E+00  3.8000000000000E+00 
 3.7710091690138E+00  3.7710072211450E+00  3.7710009390307E+00  3.7709903221408E+00  3.7709753695788E+00  3.7709560800819E+00  3.7709324520208E+00  3.7709044833984E+00  3.7708721718498E+00  3.7708355146414E+00 
 3.9714142713287E+00  3.9714142713285E+00  3.9714142713285E+00  3.9714142713285E+00  3.9714142713285E+00  3.9714142713285E+00  3.9714142713285E+00  3.9714142713285E+00  3.9714142713285E+00  3.9714142713285E+00 
-2.0040510231486E-01 -2.0040705018357E-01 -2.0041333229782E-01 -2.0042394918776E-01 -2.0043890174976E-01 -2.0045819124658E-01 -2.0048181930774E-01 -2.0050978793015E-01 -2.0054209947871E-01 -2.0057875668716E-01 
-1.6672202311946E+00 -3.3345669678017E+00 -3.3349749958062E+00 -3.3356646840307E+00 -3.3366362651653E+00 -3.3378900671285E+00 -3.3394265133031E+00 -3.3412461228403E+00 -3.3433495110329E+00 -1.6728686948791E+00 
 1.4705067562354E-07  1.2977048860067E-07  1.1248830683742E-07  9.5202551349095E-08  7.7911761446714E-08  6.0614474777568E-08  4.3309226769505E-08  2.5994550175829E-08  8.6689745435392E-09  8.6689745435392E-09 
 3.0043664993346E+01  2.6709171633790E+01  2.3374421381561E+01  2.0039122321646E+01  1.6702992702813E+01  1.3365750494229E+01  1.0027113290062E+01  6.6867982131755E+00  3.3445218188220E+00  0.0000000000000E+00 
 0.0000000000000E+00  3.3344830097904E+00  6.6692332618728E+00  1.0004532322029E+01  1.3340661940893E+01  1.6677904149293E+01  2.0016541353255E+01  2.3356856430381E+01  2.6699132824675E+01  3.0043665514869E+01 
 1.6672202311946E-08  3.3345669678017E-08  3.3349749958062E-08  3.3356646840307E-08  3.3366362651653E-08  3.3378900671285E-08  3.3394265133031E-08  3.3412461228403E-08  3.3433495110329E-08  1.6728686948791E-08 
 7.2440786946392E+03  1.4488157389278E+04  1.4488157389278E+04  1.4488157389278E+04  1.4488157389278E+04  1.4488157389278E+04  1.4488157389278E+04  1.4488157389278E+04  1.4488157389278E+04  7.2440786946392E+03 
 4.9259735123416E+04  9.8519470246832E+04  9.8519470246832E+04  9.8519470246832E+04  9.8519470246832E+04  9.8519470246832E+04  9.8519470246832E+04  9.8519470246832E+04  9.8519470246832E+04  4.9259735123416E+04 
 5.6503813818055E+04  1.1300762763611E+05  1.1300762763611E+05  1.1300762763611E+05  1.1300762763611E+05  1.1300762763611E+05  1.1300762763611E+05  1.1300762763611E+05  1.1300762763611E+05  5.6503813818055E+04 
 3.5000000000000E-01  3.5000000000000E-01  3.5000000000000E-01  3.5000000000000E-01  3.5000000000000E-01  3.5000000000000E-01  3.5000000000000E-01  3.5000000000000E-01  3.5000000000000E-01  3.5000000000000E-01 
 6.6040000000000E+00  1.3208000000000E+01  1.3208000000000E+01  1.3208000000000E+01  1.3208000000000E+01  1.3208000000000E+01  1.3208000000000E+01  1.3208000000000E+01  1.3208000000000E+01  6.6040000000000E+00 
-2.5245612222813E-01 -2.5246570016669E-01 -2.5249659265643E-01 -2.5254881011741E-01 -2.5262237016697E-01 -2.5271729763238E-01 -2.5283362456868E-01 -2.5297139028167E-01 -2.5313064135621E-01 -2.5331143168975E-01 
 3.3866666666667E-05  6.7733333333333E-05  6.7733333333334E-05  6.7733333333333E-05  6.7733333333334E-05  6.7733333333334E-05  6.7733333333333E-05  6.7733333333334E-05  6.7733333333333E-05  3.3866666666667E-05 
 2.6603001364262E+01  2.6603001364262E+01  2.6603001364262E+01  2.6603001364262E+01  2.6603001364262E+01  2.6603001364262E+01  2.6603001364262E+01  2.6603001364262E+01  2.6603001364262E+01  2.6603001364262E+01 
 1.7735334242833E+01  1.7735334242833E+01  1.7735334242833E+01  1.7735334242833E+01  1.7735334242833E+01  1.7735334242833E+01  1.7735334242833E+01  1.7735334242833E+01  1.7735334242833E+01  1.7735334242833E+01 
 1.3976600401950E-09  3.4234911979696E-09  9.6095639269800E-09  2.0065862513896E-08  3.4795919007002E-08  5.3804710946613E-08  7.7098664936607E-08  1.0468566126306E-07  1.3657503954991E-07  1.5359658303812E-07 
 1.3976600401950E-01  3.4234911979696E-01  9.6095639269800E-01  2.0065862513896E+00  3.4795919007002E+00  5.3804710946613E+00  7.7098664936607E+00  1.0468566126306E+01  1.3657503954991E+01  1.5359658303812E+01 
 8.6725148982265E-02  7.7132771635337E-02  5.9144637702589E-02  4.3549627667668E-02  3.0347910738473E-02  1.9540465601794E-02  1.1129081815230E-02  5.1163617767828E-03  1.5057232891504E-03  3.0140270998748E-04 
 5.3040855037232E-02  2.6521634816162E-01  9.0181175499541E-01  1.9630366237219E+00  3.4492439899617E+00  5.3609306290595E+00  7.6987374118455E+00  1.0463449764529E+01  1.3655998231702E+01  1.5359356901102E+01 
 0.0000000000000E+00  0.0000000000000E+00  0.0000000000000E+00  0.0000000000000E+00  0.0000000000000E+00  0.0000000000000E+00  0.0000000000000E+00  0.0000000000000E+00  0.0000000000000E+00  0.0000000000000E+00 
 0.0000000000000E+00  0.0000000000000E+00  0.0000000000000E+00  0.0000000000000E+00  0.0000000000000E+00  0.0000000000000E+00  0.0000000000000E+00  0.0000000000000E+00  0.0000000000000E+00  0.0000000000000E+00 
 0.0000000000000E+00  0.0000000000000E+00  0.0000000000000E+00  0.0000000000000E+00  0.0000000000000E+00  0.0000000000000E+00  0.0000000000000E+00  0.0000000000000E+00  0.0000000000000E+00  0.0000000000000E+00 
ZONE T = "CATH, 2.0000E-08", I = 10, SOLUTIONTIME = 2.000000E-08
ZONETYPE = ORDERED
DATAPACKING = BLOCK
STRANDID = 3
 1.2700000000000E-03  1.3377333333333E-03  1.4054666666667E-03  1.4732000000000E-03  1.5409333333333E-03  1.6086666666667E-03  1.6764000000000E-03  1.7441333333333E-03  1.8118666666667E-03  1.8796000000000E-03 
 1.9703628431184E-08  1.7388448132414E-08  1.5072258079303E-08  1.2755589099517E-08  1.0438608651410E-08  8.1207575501649E-09  5.8018395246804E-09  3.4809315278869E-09  1.1589261240761E-09 -2.9056618222908E-12 
 9.2000000000075E-01  9.2000000000180E-01  9.2000000000180E-01  9.2000000000180E-01  9.2000000000180E-01  9.2000000000180E-01  9.2000000000180E-01  9.2000000000180E-01  9.2000000000180E-01  9.2000000000180E-01 
 3.9999999999625E-02  3.9999999999101E-02  3.9999999999101E-02  3.9999999999101E-02  3.9999999999101E-02  3.9999999999100E-02  3.9999999999100E-02  3.9999999999100E-02  3.9999999999099E-02  3.9999999999098E-02 
 3.9999999999625E-02  3.9999999999101E-02  3.9999999999101E-02  3.9999999999101E-02  3.9999999999101E-02  3.9999999999100E-02  3.9999999999100E-02  3.9999999999100E-02  3.9999999999099E-02  3.9999999999098E-02 
 2.9165475004232E-02  2.9165267993777E-02  2.9165085309339E-02  2.9164926953894E-02  2.9164792932474E-02  2.9164683252165E-02  2.9164597922116E-02  2.9164536953535E-02  2.9164500359695E-02  2.9164488155942E-02 
 3.8001746423132E+00  3.8001724874217E+00  3.8001660225838E+00  3.8001552472721E+00  3.8001401605952E+00  3.8001207612972E+00  3.8000970477577E+00  3.8000690179907E+00  3.8000366696443E+00  3.8000000000000E+00 
 3.7710091673090E+00  3.7710072194280E+00  3.7710009372745E+00  3.7709903203183E+00  3.7709753676627E+00  3.7709560780451E+00  3.7709324498356E+00  3.7709044810371E+00  3.7708721692846E+00  3.7708355118441E+00 
 3.9714142713285E+00  3.9714142713282E+00  3.9714142713282E+00  3.9714142713282E+00  3.9714142713282E+00  3.9714142713282E+00  3.9714142713282E+00  3.9714142713282E+00  3.9714142713282E+00  3.9714142713282E+00 
-2.0040510401952E-01 -2.0040705190019E-01 -2.0041333405364E-01 -2.0042395100990E-01 -2.0043890366543E-01 -2.0045819328309E-01 -2.0048182149259E-01 -2.0050979029102E-01 -2.0054210204352E-01 -2.0057875948409E-01 
-1.6672202865442E+00 -3.3345670792714E+00 -3.3349751098356E+00 -3.3356648023920E+00 -3.3366363896387E+00 -3.3378901995051E+00 -3.3394266553885E+00 -3.3412462764578E+00 -3.3433496780269E+00 -1.6728687859988E+00 
 1.4705172904359E-07  1.2977131462140E-07  1.1248902476124E-07  9.5203160820854E-08  7.7912261993244E-08  6.0614865747331E-08  4.3309507381677E-08  2.5994719498822E-08  8.6690315023618E-09  8.6690315023618E-09 
 3.0043845263079E+01  2.6709341436864E+01  2.3374570342323E+01  2.0039250386165E+01  1.6703099790239E+01  1.3365836495652E+01  1.0027178068039E+01  6.6868416022030E+00  3.3445436250984E+00  0.0000000000000E+00 
 0.0000000000000E+00  3.3345038260608E+00  6.6692749206979E+00  1.0004594876837E+01  1.3340745472942E+01  1.6678008767501E+01  2.0016667194885E+01  2.3357003660870E+01  2.6699301637979E+01  3.0043845262926E+01 
 3.3344405177388E-08  6.6691340470730E-08  6.6699501056417E-08  6.6713294864228E-08  6.6732726548040E-08  6.6757802666336E-08  6.6788531686917E-08  6.6824923992981E-08  6.6866991890597E-08  3.3457374808779E-08 
 7.2440786946558E+03  1.4488157389312E+04  1.4488157389312E+04  1.4488157389312E+04  1.4488157389312E+04  1.4488157389312E+04  1.4488157389312E+04  1.4488157389312E+04  1.4488157389312E+04  7.2440786946559E+03 
 4.9259735123400E+04  9.8519470246798E+04  9.8519470246799E+04  9.8519470246798E+04  9.8519470246799E+04  9.8519470246799E+04  9.8519470246798E+04  9.8519470246799E+04  9.8519470246798E+04  4.9259735123399E+04 
 5.6503813818055E+04  1.1300762763611E+05  1.1300762763611E+05  1.1300762763611E+05  1.1300762763611E+05  1.1300762763611E+05  1.1300762763611E+05  1.1300762763611E+05  1.1300762763611E+05  5.6503813818055E+04 
 3.5000000000000E-01  3.5000000000000E-01  3.5000000000000E-01  3.5000000000000E-01  3.5000000000000E-01  3.5000000000000E-01  3.5000000000000E-01  3.5000000000000E-01  3.5000000000000E-01  3.5000000000000E-01 
 6.6040000000000E+00  1.3208000000000E+01  1.3208000000000E+01  1.3208000000000E+01  1.3208000000000E+01  1.3208000000000E+01  1.3208000000000E+01  1.3208000000000E+01  1.3208000000000E+01  6.6040000000000E+00 
-2.5245613060936E-01 -2.5246570860625E-01 -2.5249660128979E-01 -2.5254881907874E-01 -2.5262237959106E-01 -2.5271730765484E-01 -2.5283363532621E-01 -2.5297140191231E-01 -2.5313065399961E-01 -2.5331144548741E-01 
 3.3866666666667E-05  6.7733333333333E-05  6.7733333333334E-05  6.7733333333333E-05  6.7733333333334E-05  6.7733333333334E-05  6.7733333333333E-05  6.7733333333334E-05  6.7733333333333E-05  3.3866666666667E-05 
 2.6603001364267E+01  2.6603001364267E+01  2.6603001364267E+01  2.6603001364267E+01  2.6603001364267E+01  2.6603001364267E+01  2.6603001364267E+01  2.6603001364267E+01  2.6603001364267E+01  2.6603001364267E+01 
 1.7735334242827E+01  1.7735334242827E+01  1.7735334242827E+01  1.7735334242827E+01  1.7735334242827E+01  1.7735334242827E+01  1.7735334242827E+01  1.7735334242827E+01  1.7735334242827E+01  1.7735334242827E+01 
 2.7953377164522E-09  6.8470253182300E-09  1.9219248063670E-08  4.0131976100907E-08  6.9592273894552E-08  1.0761009704379E-07  1.5419829943190E-07  2.0937264245878E-07  2.7315180635945E-07  3.0719511137218E-07 
 1.3976776762573E-01  3.4235341202605E-01  9.6096841366900E-01  2.0066113587011E+00  3.4796354887550E+00  5.3805386097174E+00  7.7099634495295E+00  1.0468698119572E+01  1.3657676680953E+01  1.5359852833406E+01 
 8.6726250542296E-02  7.7133752311923E-02  5.9145391470587E-02  4.3550184227857E-02  3.0348299811302E-02  1.9540717008465E-02  1.1129225560391E-02  5.1164281385579E-03  1.5057429036384E-03  3.0140666052773E-04 
 5.3041517083430E-02  2.6521965971412E-01  9.0182302219841E-01  1.9630611744732E+00  3.4492871889437E+00  5.3609978927090E+00  7.6988342239691E+00  1.0463581691434E+01  1.3656170938050E+01  1.5359551426745E+01 
 0.0000000000000E+00  0.0000000000000E+00  0.0000000000000E+00  0.0000000000000E+00  0.0000000000000E+00  0.0000000000000E+00  0.0000000000000E+00  0.0000000000000E+00  0.0000000000000E+00  0.0000000000000E+00 
 0.0000000000000E+00  0.0000000000000E+00  0.0000000000000E+00  0.0000000000000E+00  0.0000000000000E+00  0.0000000000000E+00  0.0000000000000E+00  0.0000000000000E+00  0.0000000000000E+00  0.0000000000000E+00 
 0.0000000000000E+00  0.0000000000000E+00  0.0000000000000E+00  0.0000000000000E+00  0.0000000000000E+00  0.0000000000000E+00  0.0000000000000E+00  0.0000000000000E+00  0.0000000000000E+00  0.0000000000000E+00 
ZONE T = "CATH, 3.0000E-08", I = 10, SOLUTIONTIME = 3.000000E-08
ZONETYPE = ORDERED
DATAPACKING = BLOCK
STRANDID = 3
 1.2700000000000E-03  1.3377333333333E-03  1.4054666666667E-03  1.4732000000000E-03  1.5409333333333E-03  1.6086666666667E-03  1.6764000000000E-03  1.7441333333333E-03  1.8118666666667E-03  1.8796000000000E-03 
 1.9705444469484E-08  1.7389537755299E-08  1.5074074117682E-08  1.2757405137936E-08  1.0440061482142E-08  8.1222103809366E-09  5.8032923554920E-09  3.4838371896496E-09  1.1621949936066E-09  7.2641545606901E-13 
 9.2000000000112E-01  9.2000000000270E-01  9.2000000000270E-01  9.2000000000270E-01  9.2000000000270E-01  9.2000000000270E-01  9.2000000000270E-01  9.2000000000270E-01  9.2000000000270E-01  9.2000000000270E-01 
 3.9999999999438E-02  3.9999999998652E-02  3.9999999998652E-02  3.9999999998652E-02  3.9999999998651E-02  3.9999999998651E-02  3.9999999998650E-02  3.9999999998649E-02  3.9999999998649E-02  3.9999999998648E-02 
 3.9999999999438E-02  3.9999999998652E-02  3.9999999998652E-02  3.9999999998652E-02  3.9999999998651E-02  3.9999999998651E-02  3.9999999998650E-02  3.9999999998649E-02  3.9999999998649E-02  3.9999999998648E-02 
 2.9165475004019E-02  2.9165267993565E-02  2.9165085309127E-02  2.9164926953681E-02  2.9164792932261E-02  2.9164683251953E-02  2.9164597921904E-02  2.9164536953322E-02  2.9164500359482E-02  2.9164488155729E-02 
 3.8001746423132E+00  3.8001724874217E+00  3.8001660225838E+00  3.8001552472721E+00  3.8001401605952E+00  3.8001207612972E+00  3.8000970477577E+00  3.8000690179907E+00  3.8000366696443E+00  3.8000000000000E+00 
 3.7710091673092E+00  3.7710072194282E+00  3.7710009372747E+00  3.7709903203185E+00  3.7709753676629E+00  3.7709560780453E+00  3.7709324498358E+00  3.7709044810373E+00  3.7708721692848E+00  3.7708355118443E+00 
 3.9714142713283E+00  3.9714142713278E+00  3.9714142713278E+00  3.9714142713278E+00  3.9714142713278E+00  3.9714142713278E+00  3.9714142713278E+00  3.9714142713278E+00  3.9714142713278E+00  3.9714142713278E+00 
-2.0040510401912E-01 -2.0040705189962E-01 -2.0041333405307E-01 -2.0042395100932E-01 -2.0043890366485E-01 -2.0045819328251E-01 -2.0048182149201E-01 -2.0050979029044E-01 -2.0054210204294E-01 -2.0057875948351E-01 
-1.6672202865265E+00 -3.3345670792141E+00 -3.3349751097783E+00 -3.3356648023348E+00 -3.3366363895814E+00 -3.3378901994477E+00 -3.3394266553311E+00 -3.3412462764003E+00 -3.3433496779693E+00 -1.6728687859699E+00 
 1.4705184857425E-07  1.2977131464863E-07  1.1248902480189E-07  9.5203160874240E-08  7.7912262070827E-08  6.0614865844601E-08  4.3309507494154E-08  2.5994719625171E-08  8.6690316459436E-09  8.6690316459436E-09 
 3.0043845262835E+01  2.6709341436372E+01  2.3374570341823E+01  2.0039250385940E+01  1.6703099789813E+01  1.3365836495502E+01  1.0027178068164E+01  6.6868416021277E+00  3.3445436248229E+00  0.0000000000000E+00 
 0.0000000000000E+00  3.3345038262326E+00  6.6692749206979E+00  1.0004594876666E+01  1.3340745472599E+01  1.6678008767157E+01  2.0016667194541E+01  2.3357003660355E+01  2.6699301637636E+01  3.0043845262553E+01 
 5.0016608042653E-08  1.0003701126287E-07  1.0004925215420E-07  1.0006994288758E-07  1.0009909044385E-07  1.0013670466081E-07  1.0018279824023E-07  1.0023738675698E-07  1.0030048867029E-07  5.0186062668479E-08 
 7.2440786946725E+03  1.4488157389345E+04  1.4488157389345E+04  1.4488157389345E+04  1.4488157389345E+04  1.4488157389345E+04  1.4488157389345E+04  1.4488157389345E+04  1.4488157389345E+04  7.2440786946727E+03 
 4.9259735123383E+04  9.8519470246765E+04  9.8519470246766E+04  9.8519470246765E+04  9.8519470246766E+04  9.8519470246766E+04  9.8519470246765E+04  9.8519470246766E+04  9.8519470246765E+04  4.9259735123383E+04 
 5.6503813818055E+04  1.1300762763611E+05  1.1300762763611E+05  1.1300762763611E+05  1.1300762763611E+05  1.1300762763611E+05  1.1300762763611E+05  1.1300762763611E+05  1.1300762763611E+05  5.6503813818055E+04 
 3.5000000000000E-01  3.5000000000000E-01  3.5000000000000E-01  3.5000000000000E-01  3.5000000000000E-01  3.5000000000000E-01  3.5000000000000E-01  3.5000000000000E-01  3.5000000000000E-01  3.5000000000000E-01 
 6.6040000000000E+00  1.3208000000000E+01  1.3208000000000E+01  1.3208000000000E+01  1.3208000000000E+01  1.3208000000000E+01  1.3208000000000E+01  1.3208000000000E+01  1.3208000000000E+01  6.6040000000000E+00 
-2.5245613060668E-01 -2.5246570860192E-01 -2.5249660128546E-01 -2.5254881907441E-01 -2.5262237958672E-01 -2.5271730765049E-01 -2.5283363532186E-01 -2.5297140190796E-01 -2.5313065399525E-01 -2.5331144548303E-01 
 3.3866666666667E-05  6.7733333333333E-05  6.7733333333334E-05  6.7733333333333E-05  6.7733333333334E-05  6.7733333333334E-05  6.7733333333333E-05  6.7733333333334E-05  6.7733333333333E-05  3.3866666666667E-05 
 2.6603001364272E+01  2.6603001364272E+01  2.6603001364272E+01  2.6603001364272E+01  2.6603001364272E+01  2.6603001364272E+01  2.6603001364272E+01  2.6603001364272E+01  2.6603001364272E+01  2.6603001364272E+01 
 1.7735334242822E+01  1.7735334242822E+01  1.7735334242822E+01  1.7735334242822E+01  1.7735334242822E+01  1.7735334242822E+01  1.7735334242822E+01  1.7735334242822E+01  1.7735334242822E+01  1.7735334242822E+01 
 4.1930153927026E-09  1.0270559438798E-08  2.8828932200122E-08  6.0198089687366E-08  1.0438862878012E-07  1.6141548313899E-07  2.3129793392436E-07  3.1405962365002E-07  4.0972857316548E-07  4.6079363970251E-07 
 1.3976776762504E-01  3.4235341205683E-01  9.6096841364518E-01  2.0066113586459E+00  3.4796354885571E+00  5.3805386095202E+00  7.7099634492456E+00  1.0468698119124E+01  1.3657676680603E+01  1.5359852833033E+01 
 8.6726250541606E-02  7.7133752309916E-02  5.9145391468640E-02  4.3550184227368E-02  3.0348299810191E-02  1.9540717008074E-02  1.1129225560865E-02  5.1164281385003E-03  1.5057429035357E-03  3.0140666035295E-04 
 5.3041517083430E-02  2.6521965974692E-01  9.0182302217654E-01  1.9630611744186E+00  3.4492871887469E+00  5.3609978925122E+00  7.6988342236847E+00  1.0463581690985E+01  1.3656170937700E+01  1.5359551426373E+01 
 0.0000000000000E+00  0.0000000000000E+00  0.0000000000000E+00  0.0000000000000E+00  0.0000000000000E+00  0.0000000000000E+00  0.0000000000000E+00  0.0000000000000E+00  0.0000000000000E+00  0.0000000000000E+00 
 0.0000000000000E+00  0.0000000000000E+00  0.0000000000000E+00  0.0000000000000E+00  0.0000000000000E+00  0.0000000000000E+00  0.0000000000000E+00  0.0000000000000E+00  0.0000000000000E+00  0.0000000000000E+00 
 0.0000000000000E+00  0.0000000000000E+00  0.0000000000000E+00  0.0000000000000E+00  0.0000000000000E+00  0.0000000000000E+00  0.0000000000000E+00  0.0000000000000E+00  0.0000000000000E+00  0.0000000000000E+00 
ZONE T = "CATH, 4.0000E-08", I = 10, SOLUTIONTIME = 4.000000E-08
ZONETYPE = ORDERED
DATAPACKING = BLOCK
STRANDID = 3
 1.2700000000000E-03  1.3377333333333E-03  1.4054666666667E-03  1.4732000000000E-03  1.5409333333333E-03  1.6086666666667E-03  1.6764000000000E-03  1.7441333333333E-03  1.8118666666667E-03  1.8796000000000E-03 
 1.9702720411188E-08  1.7387540112497E-08  1.5071350059465E-08  1.2754681079758E-08  1.0438063839459E-08  8.1202127382935E-09  5.8012947128887E-09  3.4807499239029E-09  1.1598341433555E-09 -1.6344347750762E-12 
 9.2000000000150E-01  9.2000000000359E-01  9.2000000000359E-01  9.2000000000360E-01  9.2000000000360E-01  9.2000000000360E-01  9.2000000000360E-01  9.2000000000360E-01  9.2000000000360E-01  9.2000000000361E-01 
 3.9999999999251E-02  3.9999999998203E-02  3.9999999998203E-02  3.9999999998202E-02  3.9999999998202E-02  3.9999999998201E-02  3.9999999998200E-02  3.9999999998199E-02  3.9999999998198E-02  3.9999999998197E-02 
 3.9999999999251E-02  3.9999999998203E-02  3.9999999998203E-02  3.9999999998202E-02  3.9999999998202E-02  3.9999999998201E-02  3.9999999998200E-02  3.9999999998199E-02  3.9999999998198E-02  3.9999999998197E-02 
 2.9165475003809E-02  2.9165267993354E-02  2.9165085308916E-02  2.9164926953471E-02  2.9164792932050E-02  2.9164683251742E-02  2.9164597921693E-02  2.9164536953111E-02  2.9164500359272E-02  2.9164488155518E-02 
 3.8001746423132E+00  3.8001724874217E+00  3.8001660225838E+00  3.8001552472721E+00  3.8001401605952E+00  3.8001207612972E+00  3.8000970477577E+00  3.8000690179907E+00  3.8000366696443E+00  3.8000000000000E+00 
 3.7710091673094E+00  3.7710072194284E+00  3.7710009372749E+00  3.7709903203187E+00  3.7709753676631E+00  3.7709560780455E+00  3.7709324498360E+00  3.7709044810376E+00  3.7708721692851E+00  3.7708355118445E+00 
 3.9714142713281E+00  3.9714142713274E+00  3.9714142713274E+00  3.9714142713274E+00  3.9714142713274E+00  3.9714142713274E+00  3.9714142713274E+00  3.9714142713274E+00  3.9714142713274E+00  3.9714142713274E+00 
-2.0040510401871E-01 -2.0040705189904E-01 -2.0041333405249E-01 -2.0042395100875E-01 -2.0043890366427E-01 -2.0045819328193E-01 -2.0048182149143E-01 -2.0050979028986E-01 -2.0054210204236E-01 -2.0057875948293E-01 
-1.6672202865089E+00 -3.3345670791571E+00 -3.3349751097212E+00 -3.3356648022777E+00 -3.3366363895242E+00 -3.3378901993905E+00 -3.3394266552737E+00 -3.3412462763429E+00 -3.3433496779117E+00 -1.6728687859411E+00 