TITLE = "Solution on Domain BulkDomain1D_1"
VARIABLES = "x [m]"  
"Vel_axial" 	"MF_sp(ECDMC)" 	"MF_sp(Li+)" 	"MF_sp(PF6-)" 	"Volt(Electroly)" 	"Porosity []" 	"Control volume thickness [m]" 	"volFrac MgO(S) []" 	"qHeat_accum [J/m3]" 	"qHeat_step [W/m3]" 	"Joule_Lyte [W/m3]" 	"Joule_Solid [W/m3]" 	
ZONE T = "SEP , 0.0000E+00", I = 10, SOLUTIONTIME = 0.000000E+00
ZONETYPE = ORDERED
DATAPACKING = BLOCK
STRANDID = 2
 7.8740000000000E-04  8.4102222222222E-04  8.9464444444444E-04  9.4826666666667E-04  1.0018888888889E-03  1.0555111111111E-03  1.1091333333333E-03  1.1627555555556E-03  1.2163777777778E-03  1.2700000000000E-03 
 0.0000000000000E+00  0.0000000000000E+00  0.0000000000000E+00  0.0000000000000E+00  0.0000000000000E+00  0.0000000000000E+00  0.0000000000000E+00  0.0000000000000E+00  0.0000000000000E+00  0.0000000000000E+00 
 9.2000000000000E-01  9.2000000000000E-01  9.2000000000000E-01  9.2000000000000E-01  9.2000000000000E-01  9.2000000000000E-01  9.2000000000000E-01  9.2000000000000E-01  9.2000000000000E-01  9.2000000000000E-01 
 4.0000000000000E-02  4.0000000000000E-02  4.0000000000000E-02  4.0000000000000E-02  4.0000000000000E-02  4.0000000000000E-02  4.0000000000000E-02  4.0000000000000E-02  4.0000000000000E-02  4.0000000000000E-02 
 4.0000000000000E-02  4.0000000000000E-02  4.0000000000000E-02  4.0000000000000E-02  4.0000000000000E-02  4.0000000000000E-02  4.0000000000000E-02  4.0000000000000E-02  4.0000000000000E-02  4.0000000000000E-02 
-7.0000000000000E-02 -7.0000000000000E-02 -7.0000000000000E-02 -7.0000000000000E-02 -7.0000000000000E-02 -7.0000000000000E-02 -7.0000000000000E-02 -7.0000000000000E-02 -7.0000000000000E-02 -7.0000000000000E-02 
 8.0911499769706E-01  8.0911499769706E-01  8.0911499769706E-01  8.0911499769706E-01  8.0911499769706E-01  8.0911499769706E-01  8.0911499769706E-01  8.0911499769706E-01  8.0911499769706E-01  8.0911499769706E-01 
 2.6811111111111E-05  5.3622222222222E-05  5.3622222222222E-05  5.3622222222222E-05  5.3622222222222E-05  5.3622222222222E-05  5.3622222222222E-05  5.3622222222223E-05  5.3622222222222E-05  2.6811111111111E-05 
 1.9088500230294E-01  1.9088500230294E-01  1.9088500230294E-01  1.9088500230294E-01  1.9088500230294E-01  1.9088500230294E-01  1.9088500230294E-01  1.9088500230294E-01  1.9088500230294E-01  1.9088500230294E-01 
 0.0000000000000E+00  0.0000000000000E+00  0.0000000000000E+00  0.0000000000000E+00  0.0000000000000E+00  0.0000000000000E+00  0.0000000000000E+00  0.0000000000000E+00  0.0000000000000E+00  0.0000000000000E+00 
 0.0000000000000E+00  0.0000000000000E+00  0.0000000000000E+00  0.0000000000000E+00  0.0000000000000E+00  0.0000000000000E+00  0.0000000000000E+00  0.0000000000000E+00  0.0000000000000E+00  0.0000000000000E+00 
 0.0000000000000E+00  0.0000000000000E+00  0.0000000000000E+00  0.0000000000000E+00  0.0000000000000E+00  0.0000000000000E+00  0.0000000000000E+00  0.0000000000000E+00  0.0000000000000E+00  0.0000000000000E+00 
 0.0000000000000E+00  0.0000000000000E+00  0.0000000000000E+00  0.0000000000000E+00  0.0000000000000E+00  0.0000000000000E+00  0.0000000000000E+00  0.0000000000000E+00  0.0000000000000E+00  0.0000000000000E+00 
ZONE T = "SEP , 1.0000E-08", I = 10, SOLUTIONTIME = 1.000000E-08
ZONETYPE = ORDERED
DATAPACKING = BLOCK
STRANDID = 2
 7.8740000000000E-04  8.4102222222222E-04  8.9464444444444E-04  9.4826666666667E-04  1.0018888888889E-03  1.0555111111111E-03  1.1091333333333E-03  1.1627555555556E-03  1.2163777777778E-03  1.2700000000000E-03 
 2.0863323627606E-08  2.0863323627606E-08  2.0863323627606E-08  2.0863323627606E-08  2.0863323627606E-08  2.0863323627606E-08  2.0863323627606E-08  2.0863323627606E-08  2.0863323627606E-08  1.9705052572741E-08 
 9.1999999999971E-01  9.2000000000000E-01  9.2000000000000E-01  9.2000000000000E-01  9.2000000000000E-01  9.2000000000000E-01  9.2000000000000E-01  9.2000000000000E-01  9.2000000000000E-01  9.2000000000032E-01 
 4.0000000000144E-02  4.0000000000000E-02  4.0000000000000E-02  4.0000000000000E-02  4.0000000000000E-02  4.0000000000000E-02  4.0000000000000E-02  4.0000000000000E-02  4.0000000000000E-02  3.9999999999841E-02 
 4.0000000000144E-02  4.0000000000000E-02  4.0000000000000E-02  4.0000000000000E-02  4.0000000000000E-02  4.0000000000000E-02  4.0000000000000E-02  4.0000000000000E-02  4.0000000000000E-02  3.9999999999841E-02 
 2.9166097552559E-02  2.9166048187981E-02  2.9165998823400E-02  2.9165949458806E-02  2.9165900094227E-02  2.9165850729647E-02  2.9165801365058E-02  2.9165752000478E-02  2.9165702635899E-02  2.9165653271319E-02 
 8.0911499769706E-01  8.0911499769706E-01  8.0911499769706E-01  8.0911499769706E-01  8.0911499769706E-01  8.0911499769706E-01  8.0911499769706E-01  8.0911499769706E-01  8.0911499769706E-01  8.0911499769706E-01 
 2.6811111111111E-05  5.3622222222222E-05  5.3622222222222E-05  5.3622222222222E-05  5.3622222222222E-05  5.3622222222222E-05  5.3622222222222E-05  5.3622222222223E-05  5.3622222222222E-05  2.6811111111111E-05 
 1.9088500230294E-01  1.9088500230294E-01  1.9088500230294E-01  1.9088500230294E-01  1.9088500230294E-01  1.9088500230294E-01  1.9088500230294E-01  1.9088500230294E-01  1.9088500230294E-01  1.9088500230294E-01 
 2.7658299653825E-10  2.7658300538267E-10  2.7658308885280E-10  2.7658308286564E-10  2.7658300509084E-10  2.7658306031658E-10  2.7658305757571E-10  2.7658300168904E-10  2.7658300666511E-10  2.7658301239929E-10 
 2.7658299653825E-02  2.7658300538267E-02  2.7658308885280E-02  2.7658308286564E-02  2.7658300509084E-02  2.7658306031658E-02  2.7658305757571E-02  2.7658300168904E-02  2.7658300666511E-02  2.7658301239929E-02 
 2.7658299653825E-02  2.7658300538267E-02  2.7658308885280E-02  2.7658308286564E-02  2.7658300509084E-02  2.7658306031658E-02  2.7658305757571E-02  2.7658300168904E-02  2.7658300666511E-02  2.7658301239929E-02 
 0.0000000000000E+00  0.0000000000000E+00  0.0000000000000E+00  0.0000000000000E+00  0.0000000000000E+00  0.0000000000000E+00  0.0000000000000E+00  0.0000000000000E+00  0.0000000000000E+00  0.0000000000000E+00 
ZONE T = "SEP , 2.0000E-08", I = 10, SOLUTIONTIME = 2.000000E-08
ZONETYPE = ORDERED
DATAPACKING = BLOCK
STRANDID = 2
 7.8740000000000E-04  8.4102222222222E-04  8.9464444444444E-04  9.4826666666667E-04  1.0018888888889E-03  1.0555111111111E-03  1.1091333333333E-03  1.1627555555556E-03  1.2163777777778E-03  1.2700000000000E-03 
 2.0861974231753E-08  2.0860521400842E-08  2.0860521400842E-08  2.0860521400842E-08  2.0860521400842E-08  2.0860521400842E-08  2.0860521400842E-08  2.0860521400842E-08  2.0860521400842E-08  1.9702789515684E-08 
 9.1999999999942E-01  9.2000000000000E-01  9.2000000000000E-01  9.2000000000000E-01  9.2000000000000E-01  9.2000000000000E-01  9.2000000000000E-01  9.2000000000000E-01  9.2000000000000E-01  9.2000000000063E-01 
 4.0000000000288E-02  4.0000000000000E-02  4.0000000000000E-02  4.0000000000000E-02  4.0000000000000E-02  4.0000000000000E-02  4.0000000000000E-02  4.0000000000000E-02  4.0000000000000E-02  3.9999999999683E-02 
 4.0000000000288E-02  4.0000000000000E-02  4.0000000000000E-02  4.0000000000000E-02  4.0000000000000E-02  4.0000000000000E-02  4.0000000000000E-02  4.0000000000000E-02  4.0000000000000E-02  3.9999999999683E-02 
 2.9166099741615E-02  2.9166050376788E-02  2.9166001011960E-02  2.9165951647132E-02  2.9165902282304E-02  2.9165852917476E-02  2.9165803552648E-02  2.9165754187821E-02  2.9165704822993E-02  2.9165655458165E-02 
 8.0911499769706E-01  8.0911499769706E-01  8.0911499769706E-01  8.0911499769706E-01  8.0911499769706E-01  8.0911499769706E-01  8.0911499769706E-01  8.0911499769706E-01  8.0911499769706E-01  8.0911499769706E-01 
 2.6811111111111E-05  5.3622222222222E-05  5.3622222222222E-05  5.3622222222222E-05  5.3622222222222E-05  5.3622222222222E-05  5.3622222222222E-05  5.3622222222223E-05  5.3622222222222E-05  2.6811111111111E-05 
 1.9088500230294E-01  1.9088500230294E-01  1.9088500230294E-01  1.9088500230294E-01  1.9088500230294E-01  1.9088500230294E-01  1.9088500230294E-01  1.9088500230294E-01  1.9088500230294E-01  1.9088500230294E-01 
 5.5316878290713E-10  5.5316879173161E-10  5.5316887520125E-10  5.5316886923353E-10  5.5316879145872E-10  5.5316884668447E-10  5.5316884394359E-10  5.5316878803748E-10  5.5316879301301E-10  5.5316879876608E-10 
 2.7658578636888E-02  2.7658578634894E-02  2.7658578634845E-02  2.7658578636789E-02  2.7658578636788E-02  2.7658578636789E-02  2.7658578636789E-02  2.7658578634844E-02  2.7658578634790E-02  2.7658578636679E-02 
 2.7658578636888E-02  2.7658578634894E-02  2.7658578634845E-02  2.7658578636789E-02  2.7658578636788E-02  2.7658578636789E-02  2.7658578636789E-02  2.7658578634844E-02  2.7658578634790E-02  2.7658578636679E-02 
 0.0000000000000E+00  0.0000000000000E+00  0.0000000000000E+00  0.0000000000000E+00  0.0000000000000E+00  0.0000000000000E+00  0.0000000000000E+00  0.0000000000000E+00  0.0000000000000E+00  0.0000000000000E+00 
ZONE T = "SEP , 3.0000E-08", I = 10, SOLUTIONTIME = 3.000000E-08
ZONETYPE = ORDERED
DATAPACKING = BLOCK
STRANDID = 2
 7.8740000000000E-04  8.4102222222222E-04  8.9464444444444E-04  9.4826666666667E-04  1.0018888888889E-03  1.0555111111111E-03  1.1091333333333E-03  1.1627555555556E-03  1.2163777777778E-03  1.2700000000000E-03 
 2.0863790270042E-08  2.0865243100953E-08  2.0865243100953E-08  2.0865243100953E-08  2.0865243100953E-08  2.0865243100953E-08  2.0865243100953E-08  2.0865243100953E-08  2.0865243100953E-08  1.9706784800351E-08 
 9.1999999999914E-01  9.2000000000000E-01  9.2000000000000E-01  9.2000000000000E-01  9.2000000000000E-01  9.2000000000000E-01  9.2000000000000E-01  9.2000000000000E-01  9.2000000000000E-01  9.2000000000095E-01 
 4.0000000000432E-02  4.0000000000000E-02  4.0000000000000E-02  4.0000000000000E-02  4.0000000000000E-02  4.0000000000000E-02  4.0000000000000E-02  4.0000000000000E-02  4.0000000000000E-02  3.9999999999524E-02 
 4.0000000000432E-02  4.0000000000000E-02  4.0000000000000E-02  4.0000000000000E-02  4.0000000000000E-02  4.0000000000000E-02  4.0000000000000E-02  4.0000000000000E-02  4.0000000000000E-02  3.9999999999524E-02 
 2.9166099741401E-02  2.9166050376573E-02  2.9166001011745E-02  2.9165951646917E-02  2.9165902282090E-02  2.9165852917262E-02  2.9165803552434E-02  2.9165754187606E-02  2.9165704822778E-02  2.9165655457950E-02 
 8.0911499769706E-01  8.0911499769706E-01  8.0911499769706E-01  8.0911499769706E-01  8.0911499769706E-01  8.0911499769706E-01  8.0911499769706E-01  8.0911499769706E-01  8.0911499769706E-01  8.0911499769706E-01 
 2.6811111111111E-05  5.3622222222222E-05  5.3622222222222E-05  5.3622222222222E-05  5.3622222222222E-05  5.3622222222222E-05  5.3622222222222E-05  5.3622222222223E-05  5.3622222222222E-05  2.6811111111111E-05 
 1.9088500230294E-01  1.9088500230294E-01  1.9088500230294E-01  1.9088500230294E-01  1.9088500230294E-01  1.9088500230294E-01  1.9088500230294E-01  1.9088500230294E-01  1.9088500230294E-01  1.9088500230294E-01 
 8.2975456923763E-10  8.2975457808081E-10  8.2975466156913E-10  8.2975465558197E-10  8.2975457780717E-10  8.2975463303292E-10  8.2975463029204E-10  8.2975457438593E-10  8.2975457936063E-10  8.2975458513232E-10 
 2.7658578633050E-02  2.7658578634919E-02  2.7658578636789E-02  2.7658578634845E-02  2.7658578634845E-02  2.7658578634845E-02  2.7658578634845E-02  2.7658578634844E-02  2.7658578634762E-02  2.7658578636624E-02 
 2.7658578633050E-02  2.7658578634919E-02  2.7658578636789E-02  2.7658578634845E-02  2.7658578634845E-02  2.7658578634845E-02  2.7658578634845E-02  2.7658578634844E-02  2.7658578634762E-02  2.7658578636624E-02 
 0.0000000000000E+00  0.0000000000000E+00  0.0000000000000E+00  0.0000000000000E+00  0.0000000000000E+00  0.0000000000000E+00  0.0000000000000E+00  0.0000000000000E+00  0.0000000000000E+00  0.0000000000000E+00 
ZONE T = "SEP , 4.0000E-08", I = 10, SOLUTIONTIME = 4.000000E-08
ZONETYPE = ORDERED
DATAPACKING = BLOCK
STRANDID = 2
 7.8740000000000E-04  8.4102222222222E-04  8.9464444444444E-04  9.4826666666667E-04  1.0018888888889E-03  1.0555111111111E-03  1.1091333333333E-03  1.1627555555556E-03  1.2163777777778E-03  1.2700000000000E-03 
 2.0861429419460E-08  2.0861429419460E-08  2.0861429419460E-08  2.0861429419460E-08  2.0861429419460E-08  2.0861429419460E-08  2.0861429419460E-08  2.0861429419460E-08  2.0861429419460E-08  1.9704968761372E-08 
 9.1999999999885E-01  9.2000000000000E-01  9.2000000000000E-01  9.2000000000000E-01  9.2000000000000E-01  9.2000000000000E-01  9.2000000000000E-01  9.2000000000000E-01  9.2000000000000E-01  9.2000000000127E-01 
 4.0000000000576E-02  4.0000000000000E-02  4.0000000000000E-02  4.0000000000000E-02  4.0000000000000E-02  4.0000000000000E-02  4.0000000000000E-02  4.0000000000000E-02  4.0000000000000E-02  3.9999999999365E-02 
 4.0000000000576E-02  4.0000000000000E-02  4.0000000000000E-02  4.0000000000000E-02  4.0000000000000E-02  4.0000000000000E-02  4.0000000000000E-02  4.0000000000000E-02  4.0000000000000E-02  3.9999999999365E-02 
 2.9166099741186E-02  2.9166050376358E-02  2.9166001011530E-02  2.9165951646702E-02  2.9165902281875E-02  2.9165852917047E-02  2.9165803552219E-02  2.9165754187391E-02  2.9165704822563E-02  2.9165655457735E-02 
 8.0911499769706E-01  8.0911499769706E-01  8.0911499769706E-01  8.0911499769706E-01  8.0911499769706E-01  8.0911499769706E-01  8.0911499769706E-01  8.0911499769706E-01  8.0911499769706E-01  8.0911499769706E-01 
 2.6811111111111E-05  5.3622222222222E-05  5.3622222222222E-05  5.3622222222222E-05  5.3622222222222E-05  5.3622222222222E-05  5.3622222222222E-05  5.3622222222223E-05  5.3622222222222E-05  2.6811111111111E-05 
 1.9088500230294E-01  1.9088500230294E-01  1.9088500230294E-01  1.9088500230294E-01  1.9088500230294E-01  1.9088500230294E-01  1.9088500230294E-01  1.9088500230294E-01  1.9088500230294E-01  1.9088500230294E-01 
 1.1063403555686E-09  1.1063403644108E-09  1.1063404479176E-09  1.1063404419304E-09  1.1063403641362E-09  1.1063404193814E-09  1.1063404166405E-09  1.1063403607149E-09  1.1063403657080E-09  1.1063403714980E-09 
 2.7658578633100E-02  2.7658578633000E-02  2.7658578634845E-02  2.7658578634845E-02  2.7658578632901E-02  2.7658578634845E-02  2.7658578634845E-02  2.7658578632901E-02  2.7658578634735E-02  2.7658578636569E-02 
 2.7658578633100E-02  2.7658578633000E-02  2.7658578634845E-02  2.7658578634845E-02  2.7658578632901E-02  2.7658578634845E-02  2.7658578634845E-02  2.7658578632901E-02  2.7658578634735E-02  2.7658578636569E-02 
 0.0000000000000E+00  0.0000000000000E+00  0.0000000000000E+00  0.0000000000000E+00  0.0000000000000E+00  0.0000000000000E+00  0.0000000000000E+00  0.0000000000000E+00  0.0000000000000E+00  0.0000000000000E+00 
ZONE T = "SEP , 5.5000E-08", I = 10, SOLUTIONTIME = 5.500000E-08
ZONETYPE = ORDERED
DATAPACKING = BLOCK
STRANDID = 2
 7.8740000000000E-04  8.4102222222222E-04  8.9464444444444E-04  9.4826666666667E-04  1.0018888888889E-03  1.0555111111111E-03  1.1091333333333E-03  1.1627555555556E-03  1.2163777777778E-03  1.2700000000000E-03 
 2.0865364169474E-08  2.0865364169474E-08  2.0865364169474E-08  2.0865364169474E-08  2.0865364169474E-08  2.0865364169474E-08  2.0865364169474E-08  2.0865364169474E-08  2.0865364169474E-08  1.9706905868896E-08 
 9.1999999999842E-01  9.2000000000000E-01  9.2000000000000E-01  9.2000000000000E-01  9.2000000000000E-01  9.2000000000000E-01  9.2000000000000E-01  9.2000000000000E-01  9.2000000000000E-01  9.2000000000175E-01 
 4.0000000000792E-02  4.0000000000000E-02  4.0000000000000E-02  4.0000000000000E-02  4.0000000000000E-02  4.0000000000000E-02  4.0000000000000E-02  4.0000000000000E-02  4.0000000000000E-02  3.9999999999127E-02 
 4.0000000000792E-02  4.0000000000000E-02  4.0000000000000E-02  4.0000000000000E-02  4.0000000000000E-02  4.0000000000000E-02  4.0000000000000E-02  4.0000000000000E-02  4.0000000000000E-02  3.9999999999127E-02 
 2.9166099740941E-02  2.9166050376113E-02  2.9166001011286E-02  2.9165951646458E-02  2.9165902281630E-02  2.9165852916802E-02  2.9165803551974E-02  2.9165754187146E-02  2.9165704822319E-02  2.9165655457491E-02 
 8.0911499769706E-01  8.0911499769706E-01  8.0911499769706E-01  8.0911499769706E-01  8.0911499769706E-01  8.0911499769706E-01  8.0911499769706E-01  8.0911499769706E-01  8.0911499769706E-01  8.0911499769706E-01 
 2.6811111111111E-05  5.3622222222222E-05  5.3622222222222E-05  5.3622222222222E-05  5.3622222222222E-05  5.3622222222222E-05  5.3622222222222E-05  5.3622222222223E-05  5.3622222222222E-05  2.6811111111111E-05 
 1.9088500230294E-01  1.9088500230294E-01  1.9088500230294E-01  1.9088500230294E-01  1.9088500230294E-01  1.9088500230294E-01  1.9088500230294E-01  1.9088500230294E-01  1.9088500230294E-01  1.9088500230294E-01 
 1.5212190350663E-09  1.5212190439064E-09  1.5212191274111E-09  1.5212191214239E-09  1.5212190436297E-09  1.5212190988749E-09  1.5212190961340E-09  1.5212190402084E-09  1.5212190452284E-09  1.5212190510453E-09 
 2.7658578633175E-02  2.7658578633038E-02  2.7658578632901E-02  2.7658578632901E-02  2.7658578632901E-02  2.7658578632901E-02  2.7658578632901E-02  2.7658578632901E-02  2.7658578634694E-02  2.7658578636487E-02 
 2.7658578633175E-02  2.7658578633038E-02  2.7658578632901E-02  2.7658578632901E-02  2.7658578632901E-02  2.7658578632901E-02  2.7658578632901E-02  2.7658578632901E-02  2.7658578634694E-02  2.7658578636487E-02 
 0.0000000000000E+00  0.0000000000000E+00  0.0000000000000E+00  0.0000000000000E+00  0.0000000000000E+00  0.0000000000000E+00  0.0000000000000E+00  0.0000000000000E+00  0.0000000000000E+00  0.0000000000000E+00 
ZONE T = "SEP , 7.7500E-08", I = 10, SOLUTIONTIME = 7.750000E-08
ZONETYPE = ORDERED
DATAPACKING = BLOCK
STRANDID = 2
 7.8740000000000E-04  8.4102222222222E-04  8.9464444444444E-04  9.4826666666667E-04  1.0018888888889E-03  1.0555111111111E-03  1.1091333333333E-03  1.1627555555556E-03  1.2163777777778E-03  1.2700000000000E-03 
 2.0861086388977E-08  2.0861086388977E-08  2.0861086388977E-08  2.0861086388977E-08  2.0861086388977E-08  2.0861086388977E-08  2.0861086388977E-08  2.0861086388977E-08  2.0861086388977E-08  1.9704000206503E-08 
 9.1999999999777E-01  9.2000000000000E-01  9.2000000000000E-01  9.2000000000000E-01  9.2000000000000E-01  9.2000000000000E-01  9.2000000000000E-01  9.2000000000000E-01  9.2000000000000E-01  9.2000000000246E-01 
 4.0000000001117E-02  4.0000000000000E-02  4.0000000000000E-02  4.0000000000000E-02  4.0000000000000E-02  4.0000000000000E-02  4.0000000000000E-02  4.0000000000000E-02  4.0000000000000E-02  3.9999999998770E-02 
 4.0000000001117E-02  4.0000000000000E-02  4.0000000000000E-02  4.0000000000000E-02  4.0000000000000E-02  4.0000000000000E-02  4.0000000000000E-02  4.0000000000000E-02  4.0000000000000E-02  3.9999999998770E-02 
 2.9166099740513E-02  2.9166050375685E-02  2.9166001010858E-02  2.9165951646030E-02  2.9165902281202E-02  2.9165852916374E-02  2.9165803551546E-02  2.9165754186718E-02  2.9165704821891E-02  2.9165655457063E-02 
 8.0911499769706E-01  8.0911499769706E-01  8.0911499769706E-01  8.0911499769706E-01  8.0911499769706E-01  8.0911499769706E-01  8.0911499769706E-01  8.0911499769706E-01  8.0911499769706E-01  8.0911499769706E-01 
 2.6811111111111E-05  5.3622222222222E-05  5.3622222222222E-05  5.3622222222222E-05  5.3622222222222E-05  5.3622222222222E-05  5.3622222222222E-05  5.3622222222223E-05  5.3622222222222E-05  2.6811111111111E-05 
 1.9088500230294E-01  1.9088500230294E-01  1.9088500230294E-01  1.9088500230294E-01  1.9088500230294E-01  1.9088500230294E-01  1.9088500230294E-01  1.9088500230294E-01  1.9088500230294E-01  1.9088500230294E-01 
 2.1435370543152E-09  2.1435370631510E-09  2.1435371466076E-09  2.1435371406205E-09  2.1435370628700E-09  2.1435371180714E-09  2.1435371153305E-09  2.1435370594487E-09  2.1435370644201E-09  2.1435370701885E-09 
 2.7658578633287E-02  2.7658578633094E-02  2.7658578630957E-02  2.7658578630957E-02  2.7658578632901E-02  2.7658578630957E-02  2.7658578630957E-02  2.7658578632901E-02  2.7658578630744E-02  2.7658578628588E-02 
 2.7658578633287E-02  2.7658578633094E-02  2.7658578630957E-02  2.7658578630957E-02  2.7658578632901E-02  2.7658578630957E-02  2.7658578630957E-02  2.7658578632901E-02  2.7658578630744E-02  2.7658578628588E-02 
 0.0000000000000E+00  0.0000000000000E+00  0.0000000000000E+00  0.0000000000000E+00  0.0000000000000E+00  0.0000000000000E+00  0.0000000000000E+00  0.0000000000000E+00  0.0000000000000E+00  0.0000000000000E+00 
ZONE T = "SEP , 1.1125E-07", I = 10, SOLUTIONTIME = 1.112500E-07
ZONETYPE = ORDERED
DATAPACKING = BLOCK
STRANDID = 2
 7.8740000000000E-04  8.4102222222222E-04  8.9464444444444E-04  9.4826666666667E-04  1.0018888888889E-03  1.0555111111111E-03  1.1091333333333E-03  1.1627555555556E-03  1.2163777777778E-03  1.2700000000000E-03 
 2.0863238730182E-08  2.0863238730182E-08  2.0863238730182E-08  2.0863238730182E-08  2.0863238730182E-08  2.0863238730182E-08  2.0863238730182E-08  2.0863238730182E-08  2.0863238730182E-08  1.9705506845111E-08 
 9.1999999999679E-01  9.2000000000000E-01  9.2000000000000E-01  9.2000000000000E-01  9.2000000000000E-01  9.2000000000000E-01  9.2000000000000E-01  9.2000000000000E-01  9.2000000000000E-01  9.2000000000353E-01 
 4.0000000001603E-02  4.0000000000000E-02  4.0000000000000E-02  4.0000000000000E-02  4.0000000000000E-02  4.0000000000000E-02  4.0000000000000E-02  4.0000000000000E-02  4.0000000000000E-02  3.9999999998234E-02 
 4.0000000001603E-02  4.0000000000000E-02  4.0000000000000E-02  4.0000000000000E-02  4.0000000000000E-02  4.0000000000000E-02  4.0000000000000E-02  4.0000000000000E-02  4.0000000000000E-02  3.9999999998234E-02 
 2.9166099739876E-02  2.9166050375048E-02  2.9166001010220E-02  2.9165951645392E-02  2.9165902280564E-02  2.9165852915737E-02  2.9165803550909E-02  2.9165754186081E-02  2.9165704821253E-02  2.9165655456425E-02 
 8.0911499769706E-01  8.0911499769706E-01  8.0911499769706E-01  8.0911499769706E-01  8.0911499769706E-01  8.0911499769706E-01  8.0911499769706E-01  8.0911499769706E-01  8.0911499769706E-01  8.0911499769706E-01 
 2.6811111111111E-05  5.3622222222222E-05  5.3622222222222E-05  5.3622222222222E-05  5.3622222222222E-05  5.3622222222222E-05  5.3622222222222E-05  5.3622222222223E-05  5.3622222222222E-05  2.6811111111111E-05 
 1.9088500230294E-01  1.9088500230294E-01  1.9088500230294E-01  1.9088500230294E-01  1.9088500230294E-01  1.9088500230294E-01  1.9088500230294E-01  1.9088500230294E-01  1.9088500230294E-01  1.9088500230294E-01 
 3.0770140829319E-09  3.0770140918239E-09  3.0770141753368E-09  3.0770141694153E-09  3.0770140916647E-09  3.0770141468006E-09  3.0770141440597E-09  3.0770140881779E-09  3.0770140931390E-09  3.0770140988971E-09 
 2.7658578625679E-02  2.7658578627346E-02  2.7658578629013E-02  2.7658578630957E-02  2.7658578630957E-02  2.7658578629013E-02  2.7658578629013E-02  2.7658578629013E-02  2.7658578628708E-02  2.7658578628402E-02 
 2.7658578625679E-02  2.7658578627346E-02  2.7658578629013E-02  2.7658578630957E-02  2.7658578630957E-02  2.7658578629013E-02  2.7658578629013E-02  2.7658578629013E-02  2.7658578628708E-02  2.7658578628402E-02 
 0.0000000000000E+00  0.0000000000000E+00  0.0000000000000E+00  0.0000000000000E+00  0.0000000000000E+00  0.0000000000000E+00  0.0000000000000E+00  0.0000000000000E+00  0.0000000000000E+00  0.0000000000000E+00 
ZONE T = "SEP , 1.6188E-07", I = 10, SOLUTIONTIME = 1.618750E-07
ZONETYPE = ORDERED
DATAPACKING = BLOCK
STRANDID = 2
 7.8740000000000E-04  8.4102222222222E-04  8.9464444444444E-04  9.4826666666667E-04  1.0018888888889E-03  1.0555111111111E-03  1.1091333333333E-03  1.1627555555556E-03  1.2163777777778E-03  1.2700000000000E-03 
 2.0863453963062E-08  2.0863453963062E-08  2.0863453963062E-08  2.0863453963062E-08  2.0863453963062E-08  2.0863453963062E-08  2.0863453963062E-08  2.0863453963062E-08  2.0863453963062E-08  1.9705542716198E-08 
 9.1999999999534E-01  9.2000000000000E-01  9.2000000000000E-01  9.2000000000000E-01  9.2000000000000E-01  9.2000000000000E-01  9.2000000000000E-01  9.2000000000000E-01  9.2000000000000E-01  9.2000000000514E-01 
 4.0000000002332E-02  4.0000000000001E-02  4.0000000000000E-02  4.0000000000000E-02  4.0000000000000E-02  4.0000000000000E-02  4.0000000000000E-02  4.0000000000000E-02  3.9999999999999E-02  3.9999999997431E-02 
 4.0000000002332E-02  4.0000000000001E-02  4.0000000000000E-02  4.0000000000000E-02  4.0000000000000E-02  4.0000000000000E-02  4.0000000000000E-02  4.0000000000000E-02  3.9999999999999E-02  3.9999999997431E-02 
 2.9166099738921E-02  2.9166050374094E-02  2.9166001009266E-02  2.9165951644438E-02  2.9165902279610E-02  2.9165852914782E-02  2.9165803549954E-02  2.9165754185127E-02  2.9165704820299E-02  2.9165655455471E-02 
 8.0911499769706E-01  8.0911499769706E-01  8.0911499769706E-01  8.0911499769706E-01  8.0911499769706E-01  8.0911499769706E-01  8.0911499769706E-01  8.0911499769706E-01  8.0911499769706E-01  8.0911499769706E-01 
 2.6811111111111E-05  5.3622222222222E-05  5.3622222222222E-05  5.3622222222222E-05  5.3622222222222E-05  5.3622222222222E-05  5.3622222222222E-05  5.3622222222223E-05  5.3622222222222E-05  2.6811111111111E-05 
 1.9088500230294E-01  1.9088500230294E-01  1.9088500230294E-01  1.9088500230294E-01  1.9088500230294E-01  1.9088500230294E-01  1.9088500230294E-01  1.9088500230294E-01  1.9088500230294E-01  1.9088500230294E-01 
 4.4772296258697E-09  4.4772296347413E-09  4.4772297182338E-09  4.4772297123122E-09  4.4772296345617E-09  4.4772296897960E-09  4.4772296870551E-09  4.4772296310748E-09  4.4772296361119E-09  4.4772296419459E-09 
 2.7658578625932E-02  2.7658578625528E-02  2.7658578625125E-02  2.7658578625125E-02  2.7658578625125E-02  2.7658578627069E-02  2.7658578627069E-02  2.7658578625125E-02  2.7658578626625E-02  2.7658578628125E-02 
 2.7658578625932E-02  2.7658578625528E-02  2.7658578625125E-02  2.7658578625125E-02  2.7658578625125E-02  2.7658578627069E-02  2.7658578627069E-02  2.7658578625125E-02  2.7658578626625E-02  2.7658578628125E-02 
 0.0000000000000E+00  0.0000000000000E+00  0.0000000000000E+00  0.0000000000000E+00  0.0000000000000E+00  0.0000000000000E+00  0.0000000000000E+00  0.0000000000000E+00  0.0000000000000E+00  0.0000000000000E+00 
ZONE T = "SEP , 2.3781E-07", I = 10, SOLUTIONTIME = 2.378125E-07
ZONETYPE = ORDERED
DATAPACKING = BLOCK
STRANDID = 2
 7.8740000000000E-04  8.4102222222222E-04  8.9464444444444E-04  9.4826666666667E-04  1.0018888888889E-03  1.0555111111111E-03  1.1091333333333E-03  1.1627555555556E-03  1.2163777777778E-03  1.2700000000000E-03 
 2.0862509322041E-08  2.0862796300987E-08  2.0862796300987E-08  2.0862796300987E-08  2.0862796300987E-08  2.0862796300987E-08  2.0862796300987E-08  2.0862796300987E-08  2.0862700641338E-08  1.9705040501121E-08 
 9.1999999999315E-01  9.2000000000000E-01  9.2000000000000E-01  9.2000000000000E-01  9.2000000000000E-01  9.2000000000000E-01  9.2000000000000E-01  9.2000000000000E-01  9.2000000000000E-01  9.2000000000755E-01 
 4.0000000003425E-02  4.0000000000002E-02  4.0000000000000E-02  4.0000000000000E-02  4.0000000000000E-02  4.0000000000000E-02  4.0000000000000E-02  4.0000000000000E-02  3.9999999999998E-02  3.9999999996226E-02 
 4.0000000003425E-02  4.0000000000002E-02  4.0000000000000E-02  4.0000000000000E-02  4.0000000000000E-02  4.0000000000000E-02  4.0000000000000E-02  4.0000000000000E-02  3.9999999999998E-02  3.9999999996226E-02 
 2.9166099737491E-02  2.9166050372663E-02  2.9166001007835E-02  2.9165951643008E-02  2.9165902278180E-02  2.9165852913352E-02  2.9165803548524E-02  2.9165754183696E-02  2.9165704818868E-02  2.9165655454041E-02 
 8.0911499769706E-01  8.0911499769706E-01  8.0911499769706E-01  8.0911499769706E-01  8.0911499769706E-01  8.0911499769706E-01  8.0911499769706E-01  8.0911499769706E-01  8.0911499769706E-01  8.0911499769706E-01 
 2.6811111111111E-05  5.3622222222222E-05  5.3622222222222E-05  5.3622222222222E-05  5.3622222222222E-05  5.3622222222222E-05  5.3622222222222E-05  5.3622222222223E-05  5.3622222222222E-05  2.6811111111111E-05 
 1.9088500230294E-01  1.9088500230294E-01  1.9088500230294E-01  1.9088500230294E-01  1.9088500230294E-01  1.9088500230294E-01  1.9088500230294E-01  1.9088500230294E-01  1.9088500230294E-01  1.9088500230294E-01 
 6.5775529397146E-09  6.5775529486889E-09  6.5775530322840E-09  6.5775530263624E-09  6.5775529486119E-09  6.5775530036986E-09  6.5775530009577E-09  6.5775529451250E-09  6.5775529502601E-09  6.5775529561923E-09 
 2.7658578618534E-02  2.7658578619886E-02  2.7658578621238E-02  2.7658578621237E-02  2.7658578621237E-02  2.7658578619294E-02  2.7658578619294E-02  2.7658578621237E-02  2.7658578622528E-02  2.7658578623820E-02 
 2.7658578618534E-02  2.7658578619886E-02  2.7658578621238E-02  2.7658578621237E-02  2.7658578621237E-02  2.7658578619294E-02  2.7658578619294E-02  2.7658578621237E-02  2.7658578622528E-02  2.7658578623820E-02 
 0.0000000000000E+00  0.0000000000000E+00  0.0000000000000E+00  0.0000000000000E+00  0.0000000000000E+00  0.0000000000000E+00  0.0000000000000E+00  0.0000000000000E+00  0.0000000000000E+00  0.0000000000000E+00 
ZONE T = "SEP , 3.5172E-07", I = 10, SOLUTIONTIME = 3.517188E-07
ZONETYPE = ORDERED
DATAPACKING = BLOCK
STRANDID = 2
 7.8740000000000E-04  8.4102222222222E-04  8.9464444444444E-04  9.4826666666667E-04  1.0018888888889E-03  1.0555111111111E-03  1.1091333333333E-03  1.1627555555556E-03  1.2163777777778E-03  1.2700000000000E-03 
 2.0862716581625E-08  2.0862652808526E-08  2.0862652808526E-08  2.0862652808526E-08  2.0862652808526E-08  2.0862652808526E-08  2.0862652808526E-08  2.0862652808526E-08  2.0862652808526E-08  1.9704920923678E-08 
 9.1999999998987E-01  9.1999999999999E-01  9.2000000000000E-01  9.2000000000000E-01  9.2000000000000E-01  9.2000000000000E-01  9.2000000000000E-01  9.2000000000000E-01  9.2000000000001E-01  9.2000000001116E-01 
 4.0000000005065E-02  4.0000000000003E-02  4.0000000000000E-02  4.0000000000000E-02  4.0000000000000E-02  4.0000000000000E-02  4.0000000000000E-02  4.0000000000000E-02  3.9999999999996E-02  3.9999999994419E-02 