TITLE = "Solution on Domain BulkDomain1D_0"
VARIABLES = "x [m]"  
"Vel_axial" 
"MF_sp(ECDMC)" 
"MF_sp(Li+)" 
"MF_sp(PF6-)" 
"Volt(Electroly)" 
"Volt(AnodeVolt)" 
"Potential Drop Electrode-Electrolyte [V]" 
"Surf_0 Equilibrium Potential Drop Electrode-Electrolyte [V]" 
"Overpotential_0 [V]" 
"Current Source [A/m^2]" 
"Li+ flux [kmol/m^2/s]" 
"Electrolyte Current [A/m^2]" 
"Electrode Current [A/m^2]" 
"CV Capacity discharged [A-s/m^2]" 
"Depth of discharge in CV [A-s/m^2]" 
"CV Capacity remaining [A-s/m^2]" 
"Initial CV capacity [A-s/m^2]" 
"Porosity []" 
"Surface Area [m2/m2] (area per area)" 
"Specific current (per particle area) [A/m^2]" 
"Control volume thickness [m]" 
"MoleDens Li_C6-bulk [kmol/m^3]" 
"MoleDens V_C6-bulk [kmol/m^3]" 
"qHeat_accum [J/m3]" 
"qHeat_step [W/m3]" 
"Joule_Lyte [W/m3]" 
"Joule_Solid [W/m3]" 
"electrodHeat [W/m3]" 
"OverpotHeat [W/m3]" 
"deltaSHeat [W/m3]" 

ZONE T = "ANOD, 0.0000E+00", I = 10, SOLUTIONTIME = 0.000000E+00
ZONETYPE = ORDERED
DATAPACKING = BLOCK
STRANDID = 1
 0.0000000000000E+00  8.7488888888889E-05  1.7497777777778E-04  2.6246666666667E-04  3.4995555555556E-04  4.3744444444444E-04  5.2493333333333E-04  6.1242222222222E-04  6.9991111111111E-04  7.8740000000000E-04 
 0.0000000000000E+00  0.0000000000000E+00  0.0000000000000E+00  0.0000000000000E+00  0.0000000000000E+00  0.0000000000000E+00  0.0000000000000E+00  0.0000000000000E+00  0.0000000000000E+00  0.0000000000000E+00 
 9.2000000000000E-01  9.2000000000000E-01  9.2000000000000E-01  9.2000000000000E-01  9.2000000000000E-01  9.2000000000000E-01  9.2000000000000E-01  9.2000000000000E-01  9.2000000000000E-01  9.2000000000000E-01 
 4.0000000000000E-02  4.0000000000000E-02  4.0000000000000E-02  4.0000000000000E-02  4.0000000000000E-02  4.0000000000000E-02  4.0000000000000E-02  4.0000000000000E-02  4.0000000000000E-02  4.0000000000000E-02 
 4.0000000000000E-02  4.0000000000000E-02  4.0000000000000E-02  4.0000000000000E-02  4.0000000000000E-02  4.0000000000000E-02  4.0000000000000E-02  4.0000000000000E-02  4.0000000000000E-02  4.0000000000000E-02 
-7.0000000000000E-02 -7.0000000000000E-02 -7.0000000000000E-02 -7.0000000000000E-02 -7.0000000000000E-02 -7.0000000000000E-02 -7.0000000000000E-02 -7.0000000000000E-02 -7.0000000000000E-02 -7.0000000000000E-02 
 0.0000000000000E+00  0.0000000000000E+00  0.0000000000000E+00  0.0000000000000E+00  0.0000000000000E+00  0.0000000000000E+00  0.0000000000000E+00  0.0000000000000E+00  0.0000000000000E+00  0.0000000000000E+00 
 7.0000000000000E-02  7.0000000000000E-02  7.0000000000000E-02  7.0000000000000E-02  7.0000000000000E-02  7.0000000000000E-02  7.0000000000000E-02  7.0000000000000E-02  7.0000000000000E-02  7.0000000000000E-02 
-4.0906712753392E-02 -4.0906712753392E-02 -4.0906712753392E-02 -4.0906712753392E-02 -4.0906712753392E-02 -4.0906712753392E-02 -4.0906712753392E-02 -4.0906712753392E-02 -4.0906712753392E-02 -4.0906712753392E-02 
 1.1090671275339E-01  1.1090671275339E-01  1.1090671275339E-01  1.1090671275339E-01  1.1090671275339E-01  1.1090671275339E-01  1.1090671275339E-01  1.1090671275339E-01  1.1090671275339E-01  1.1090671275339E-01 
 3.0930240924008E+01  6.1860481848017E+01  6.1860481848017E+01  6.1860481848017E+01  6.1860481848016E+01  6.1860481848017E+01  6.1860481848017E+01  6.1860481848016E+01  6.1860481848016E+01  3.0930240924008E+01 
-0.0000000000000E+00 -0.0000000000000E+00 -0.0000000000000E+00 -0.0000000000000E+00 -0.0000000000000E+00 -0.0000000000000E+00 -0.0000000000000E+00 -0.0000000000000E+00 -0.0000000000000E+00 -0.0000000000000E+00 
 0.0000000000000E+00  0.0000000000000E+00  0.0000000000000E+00  0.0000000000000E+00  0.0000000000000E+00  0.0000000000000E+00  0.0000000000000E+00  0.0000000000000E+00  0.0000000000000E+00  3.0930240924008E+01 
 3.0930240924008E+01 -0.0000000000000E+00 -0.0000000000000E+00 -0.0000000000000E+00 -0.0000000000000E+00 -0.0000000000000E+00 -0.0000000000000E+00 -0.0000000000000E+00 -0.0000000000000E+00  0.0000000000000E+00 
 0.0000000000000E+00  0.0000000000000E+00  0.0000000000000E+00  0.0000000000000E+00  0.0000000000000E+00  0.0000000000000E+00  0.0000000000000E+00  0.0000000000000E+00  0.0000000000000E+00  0.0000000000000E+00 
 9.1448444543281E+04  1.8289688908656E+05  1.8289688908656E+05  1.8289688908656E+05  1.8289688908656E+05  1.8289688908656E+05  1.8289688908656E+05  1.8289688908656E+05  1.8289688908656E+05  9.1448444543281E+04 
 3.6579377817312E+05  7.3158755634625E+05  7.3158755634625E+05  7.3158755634625E+05  7.3158755634625E+05  7.3158755634625E+05  7.3158755634625E+05  7.3158755634625E+05  7.3158755634625E+05  3.6579377817312E+05 
 4.5724222271640E+05  9.1448444543281E+05  9.1448444543281E+05  9.1448444543281E+05  9.1448444543281E+05  9.1448444543281E+05  9.1448444543281E+05  9.1448444543281E+05  9.1448444543281E+05  4.5724222271640E+05 
 3.5000000000000E-01  3.5000000000000E-01  3.5000000000000E-01  3.5000000000000E-01  3.5000000000000E-01  3.5000000000000E-01  3.5000000000000E-01  3.5000000000000E-01  3.5000000000000E-01  3.5000000000000E-01 
 8.5301666666666E+00  1.7060333333333E+01  1.7060333333333E+01  1.7060333333333E+01  1.7060333333333E+01  1.7060333333333E+01  1.7060333333333E+01  1.7060333333333E+01  1.7060333333333E+01  8.5301666666666E+00 
 3.6259831879809E+00  3.6259831879809E+00  3.6259831879809E+00  3.6259831879809E+00  3.6259831879809E+00  3.6259831879809E+00  3.6259831879809E+00  3.6259831879809E+00  3.6259831879809E+00  3.6259831879809E+00 
 4.3744444444444E-05  8.7488888888889E-05  8.7488888888889E-05  8.7488888888889E-05  8.7488888888889E-05  8.7488888888889E-05  8.7488888888889E-05  8.7488888888889E-05  8.7488888888889E-05  4.3744444444444E-05 
 8.6666666666666E+01  8.6666666666666E+01  8.6666666666666E+01  8.6666666666666E+01  8.6666666666666E+01  8.6666666666666E+01  8.6666666666666E+01  8.6666666666666E+01  8.6666666666666E+01  8.6666666666666E+01 
 2.1666666666667E+01  2.1666666666667E+01  2.1666666666667E+01  2.1666666666667E+01  2.1666666666667E+01  2.1666666666667E+01  2.1666666666667E+01  2.1666666666667E+01  2.1666666666667E+01  2.1666666666667E+01 
 0.0000000000000E+00  0.0000000000000E+00  0.0000000000000E+00  0.0000000000000E+00  0.0000000000000E+00  0.0000000000000E+00  0.0000000000000E+00  0.0000000000000E+00  0.0000000000000E+00  0.0000000000000E+00 
 0.0000000000000E+00  0.0000000000000E+00  0.0000000000000E+00  0.0000000000000E+00  0.0000000000000E+00  0.0000000000000E+00  0.0000000000000E+00  0.0000000000000E+00  0.0000000000000E+00  0.0000000000000E+00 
 0.0000000000000E+00  0.0000000000000E+00  0.0000000000000E+00  0.0000000000000E+00  0.0000000000000E+00  0.0000000000000E+00  0.0000000000000E+00  0.0000000000000E+00  0.0000000000000E+00  0.0000000000000E+00 
 0.0000000000000E+00  0.0000000000000E+00  0.0000000000000E+00  0.0000000000000E+00  0.0000000000000E+00  0.0000000000000E+00  0.0000000000000E+00  0.0000000000000E+00  0.0000000000000E+00  0.0000000000000E+00 
 0.0000000000000E+00  0.0000000000000E+00  0.0000000000000E+00  0.0000000000000E+00  0.0000000000000E+00  0.0000000000000E+00  0.0000000000000E+00  0.0000000000000E+00  0.0000000000000E+00  0.0000000000000E+00 
 0.0000000000000E+00  0.0000000000000E+00  0.0000000000000E+00  0.0000000000000E+00  0.0000000000000E+00  0.0000000000000E+00  0.0000000000000E+00  0.0000000000000E+00  0.0000000000000E+00  0.0000000000000E+00 
 0.0000000000000E+00  0.0000000000000E+00  0.0000000000000E+00  0.0000000000000E+00  0.0000000000000E+00  0.0000000000000E+00  0.0000000000000E+00  0.0000000000000E+00  0.0000000000000E+00  0.0000000000000E+00 
ZONE T = "ANOD, 1.0000E-08", I = 10, SOLUTIONTIME = 1.000000E-08
ZONETYPE = ORDERED
DATAPACKING = BLOCK
STRANDID = 1
 0.0000000000000E+00  8.7488888888889E-05  1.7497777777778E-04  2.6246666666667E-04  3.4995555555556E-04  4.3744444444444E-04  5.2493333333333E-04  6.1242222222222E-04  6.9991111111111E-04  7.8740000000000E-04 
 1.1589917711490E-09  3.4769775213282E-09  5.7949719096109E-09  8.1129813664696E-09  1.0431012322669E-08  1.2749071208807E-08  1.5067164455798E-08  1.7385298494203E-08  1.9703479754943E-08  2.0863323627698E-08 
 9.1999999999930E-01  9.1999999999930E-01  9.1999999999930E-01  9.1999999999930E-01  9.1999999999930E-01  9.1999999999930E-01  9.1999999999930E-01  9.1999999999930E-01  9.1999999999930E-01  9.1999999999971E-01 
 4.0000000000348E-02  4.0000000000348E-02  4.0000000000348E-02  4.0000000000348E-02  4.0000000000348E-02  4.0000000000348E-02  4.0000000000348E-02  4.0000000000348E-02  4.0000000000348E-02  4.0000000000144E-02 
 4.0000000000348E-02  4.0000000000348E-02  4.0000000000348E-02  4.0000000000348E-02  4.0000000000348E-02  4.0000000000348E-02  4.0000000000348E-02  4.0000000000348E-02  4.0000000000348E-02  4.0000000000144E-02 
 2.9167371470044E-02  2.9167355742942E-02  2.9167308561586E-02  2.9167229925863E-02  2.9167119835591E-02  2.9166978290445E-02  2.9166805290070E-02  2.9166600833991E-02  2.9166364921644E-02  2.9166097552418E-02 
 0.0000000000000E+00 -4.7371275801327E-09 -8.9169665837997E-09 -1.2539514934234E-08 -1.5604769008657E-08 -1.8112723638214E-08 -2.0063372108006E-08 -2.1456706157020E-08 -2.2292715978213E-08 -2.2571390218421E-08 
-2.9167371470044E-02 -2.9167360480069E-02 -2.9167317478553E-02 -2.9167242465378E-02 -2.9167135440360E-02 -2.9166996403169E-02 -2.9166825353442E-02 -2.9166622290697E-02 -2.9166387214360E-02 -2.9166120123808E-02 
-4.0906712752891E-02 -4.0906712752891E-02 -4.0906712752891E-02 -4.0906712752891E-02 -4.0906712752891E-02 -4.0906712752891E-02 -4.0906712752891E-02 -4.0906712752891E-02 -4.0906712752891E-02 -4.0906712753022E-02 
 1.1739341282847E-02  1.1739352272822E-02  1.1739395274338E-02  1.1739470287513E-02  1.1739577312531E-02  1.1739716349722E-02  1.1739887399449E-02  1.1740090462194E-02  1.1740325538531E-02  1.1740592629214E-02 
 1.6690490558536E+00  3.3381012909017E+00  3.3381137304389E+00  3.3381354303577E+00  3.3381663907208E+00  3.3382066116368E+00  3.3382560932271E+00  3.3383148356523E+00  3.3383828391030E+00  1.6692300518938E+00 
 8.6491893845575E-09  2.5947595119969E-08  4.3246063559224E-08  6.0544631746873E-08  7.7843378990503E-08  9.5142321136020E-08  1.1244152501539E-07  1.2974103835298E-07  1.4704095996050E-07  1.4704095996050E-07 
 0.0000000000000E+00  3.3380823933385E+00  6.6761734385305E+00  1.0014280157981E+01  1.3352413777966E+01  1.6690583479619E+01  2.0028797240076E+01  2.3367066111824E+01  2.6705397275188E+01  3.0043809125632E+01 
 3.0043810256639E+01  2.6705719148439E+01  2.3367628823968E+01  2.0029521429741E+01  1.6691387705157E+01  1.3353218389524E+01  1.0015004222038E+01  6.6767359419287E+00  3.3384042884153E+00  0.0000000000000E+00 
 1.6690490558536E-08  3.3381012909017E-08  3.3381137304389E-08  3.3381354303577E-08  3.3381663907208E-08  3.3382066116368E-08  3.3382560932271E-08  3.3383148356523E-08  3.3383828391030E-08  1.6692300518938E-08 
 9.1448444543298E+04  1.8289688908660E+05  1.8289688908660E+05  1.8289688908660E+05  1.8289688908660E+05  1.8289688908660E+05  1.8289688908660E+05  1.8289688908660E+05  1.8289688908660E+05  9.1448444543298E+04 
 3.6579377817311E+05  7.3158755634621E+05  7.3158755634621E+05  7.3158755634621E+05  7.3158755634621E+05  7.3158755634622E+05  7.3158755634622E+05  7.3158755634621E+05  7.3158755634621E+05  3.6579377817311E+05 
 4.5724222271641E+05  9.1448444543281E+05  9.1448444543281E+05  9.1448444543281E+05  9.1448444543281E+05  9.1448444543281E+05  9.1448444543281E+05  9.1448444543281E+05  9.1448444543281E+05  4.5724222271640E+05 
 3.5000000000000E-01  3.5000000000000E-01  3.5000000000000E-01  3.5000000000000E-01  3.5000000000000E-01  3.5000000000000E-01  3.5000000000000E-01  3.5000000000000E-01  3.5000000000000E-01  3.5000000000000E-01 
 8.5301666666666E+00  1.7060333333333E+01  1.7060333333333E+01  1.7060333333333E+01  1.7060333333333E+01  1.7060333333333E+01  1.7060333333333E+01  1.7060333333333E+01  1.7060333333333E+01  8.5301666666666E+00 
 1.9566429603020E-01  1.9566448238028E-01  1.9566521152999E-01  1.9566648348163E-01  1.9566829823885E-01  1.9567065580802E-01  1.9567355619627E-01  1.9567699941300E-01  1.9568098546940E-01  1.9568551437766E-01 
 4.3744444444444E-05  8.7488888888889E-05  8.7488888888889E-05  8.7488888888889E-05  8.7488888888889E-05  8.7488888888889E-05  8.7488888888889E-05  8.7488888888889E-05  8.7488888888889E-05  4.3744444444444E-05 
 8.6666666666663E+01  8.6666666666663E+01  8.6666666666663E+01  8.6666666666663E+01  8.6666666666663E+01  8.6666666666663E+01  8.6666666666663E+01  8.6666666666663E+01  8.6666666666663E+01  8.6666666666663E+01 
 2.1666666666671E+01  2.1666666666671E+01  2.1666666666671E+01  2.1666666666671E+01  2.1666666666671E+01  2.1666666666671E+01  2.1666666666671E+01  2.1666666666671E+01  2.1666666666671E+01  2.1666666666671E+01 
 1.8363934768439E-11  2.8663996685587E-11  6.1478031935794E-11  1.1872010960994E-10  2.0039090600105E-10  3.0649131481552E-10  4.3702248631330E-10  5.9198593541331E-10  7.7138327626726E-10  8.6719062275452E-10 
 1.8363934768439E-03  2.8663996685587E-03  6.1478031935794E-03  1.1872010960994E-02  2.0039090600105E-02  3.0649131481552E-02  4.3702248631330E-02  5.9198593541331E-02  7.7138327626726E-02  8.6719062275452E-02 
 3.0002851014937E-04  1.5001453570198E-03  5.1005077086290E-03  1.1101149421920E-02  1.9502138063717E-02  3.0303562470272E-02  4.3505536661254E-02  5.9108210650278E-02  7.7111743902262E-02  8.6713745382893E-02 
 1.5363649666945E-03  1.3662543115389E-03  1.0472954849503E-03  7.7086153907461E-04  5.3695253638786E-04  3.4556901128022E-04  1.9671197007589E-04  9.0382891052929E-05  2.6583724464612E-05  5.3168925586056E-06 
 0.0000000000000E+00  0.0000000000000E+00  0.0000000000000E+00  0.0000000000000E+00  0.0000000000000E+00  0.0000000000000E+00  0.0000000000000E+00  0.0000000000000E+00  0.0000000000000E+00  0.0000000000000E+00 
 0.0000000000000E+00  0.0000000000000E+00  0.0000000000000E+00  0.0000000000000E+00  0.0000000000000E+00  0.0000000000000E+00  0.0000000000000E+00  0.0000000000000E+00  0.0000000000000E+00  0.0000000000000E+00 
 0.0000000000000E+00  0.0000000000000E+00  0.0000000000000E+00  0.0000000000000E+00  0.0000000000000E+00  0.0000000000000E+00  0.0000000000000E+00  0.0000000000000E+00  0.0000000000000E+00  0.0000000000000E+00 
ZONE T = "ANOD, 2.0000E-08", I = 10, SOLUTIONTIME = 2.000000E-08
ZONETYPE = ORDERED
DATAPACKING = BLOCK
STRANDID = 1
 0.0000000000000E+00  8.7488888888889E-05  1.7497777777778E-04  2.6246666666667E-04  3.4995555555556E-04  4.3744444444444E-04  5.2493333333333E-04  6.1242222222222E-04  6.9991111111111E-04  7.8740000000000E-04 
 1.1589975178084E-09  3.4769947610898E-09  5.7950006425023E-09  8.1130215925424E-09  1.0431064041754E-08  1.2749134420750E-08  1.5066512744775E-08  1.7384295067825E-08  1.9702124613114E-08  2.0861974231753E-08 
 9.1999999999861E-01  9.1999999999861E-01  9.1999999999861E-01  9.1999999999861E-01  9.1999999999861E-01  9.1999999999861E-01  9.1999999999861E-01  9.1999999999861E-01  9.1999999999861E-01  9.1999999999942E-01 
 4.0000000000696E-02  4.0000000000696E-02  4.0000000000696E-02  4.0000000000696E-02  4.0000000000696E-02  4.0000000000696E-02  4.0000000000696E-02  4.0000000000696E-02  4.0000000000696E-02  4.0000000000288E-02 
 4.0000000000696E-02  4.0000000000696E-02  4.0000000000696E-02  4.0000000000696E-02  4.0000000000696E-02  4.0000000000696E-02  4.0000000000696E-02  4.0000000000696E-02  4.0000000000696E-02  4.0000000000288E-02 
 2.9167373665561E-02  2.9167357938375E-02  2.9167310756789E-02  2.9167232120684E-02  2.9167122029857E-02  2.9166980484015E-02  2.9166807482780E-02  2.9166603025685E-02  2.9166367112177E-02  2.9166099741615E-02 
 0.0000000000000E+00 -4.7371510662846E-09 -8.9170107929393E-09 -1.2539577103190E-08 -1.5604846374248E-08 -1.8112813437297E-08 -2.0063471577476E-08 -2.1456812533861E-08 -2.2292826499436E-08 -2.2571502121062E-08 
-2.9167373665561E-02 -2.9167362675526E-02 -2.9167319673800E-02 -2.9167244660261E-02 -2.9167137634703E-02 -2.9166998596829E-02 -2.9166827546252E-02 -2.9166624482498E-02 -2.9166389405004E-02 -2.9166122313118E-02 
-4.0906712752384E-02 -4.0906712752388E-02 -4.0906712752384E-02 -4.0906712752384E-02 -4.0906712752387E-02 -4.0906712752386E-02 -4.0906712752386E-02 -4.0906712752387E-02 -4.0906712752387E-02 -4.0906712752650E-02 
 1.1739339086823E-02  1.1739350076862E-02  1.1739393078585E-02  1.1739468092123E-02  1.1739575117684E-02  1.1739714155558E-02  1.1739885206134E-02  1.1740088269890E-02  1.1740323347384E-02  1.1740590439532E-02 
 1.6690487382321E+00  3.3381006556770E+00  3.3381130952738E+00  3.3381347952977E+00  3.3381657558176E+00  3.3382059769303E+00  3.3382554587662E+00  3.3383142014830E+00  3.3383822052676E+00  1.6692297351836E+00 
 8.6492352061580E-09  2.5947722098196E-08  4.3246273451378E-08  6.0544937256324E-08  7.7843761507292E-08  9.5142794179453E-08  1.1244208328079E-07  1.2974167679272E-07  1.4704176695017E-07  1.4704176695017E-07 
 0.0000000000000E+00  3.3380990659879E+00  6.6762059415825E+00  1.0014329886896E+01  1.3352480162409E+01  1.6690666028786E+01  2.0028896746692E+01  2.3367181576606E+01  2.6705529780042E+01  3.0043950618050E+01 
 3.0043950617929E+01  2.6705851551858E+01  2.3367744676383E+01  2.0029620731097E+01  1.6691470455539E+01  1.3353284589165E+01  1.0015053871317E+01  6.6767690411927E+00  3.3384208378174E+00  0.0000000000000E+00 
 3.3380977940857E-08  6.6762019465787E-08  6.6762268257127E-08  6.6762702256554E-08  6.6763321465384E-08  6.6764125885671E-08  6.6765115519932E-08  6.6766290371353E-08  6.6767650443706E-08  3.3384597870774E-08 
 9.1448444543314E+04  1.8289688908663E+05  1.8289688908663E+05  1.8289688908663E+05  1.8289688908663E+05  1.8289688908663E+05  1.8289688908663E+05  1.8289688908663E+05  1.8289688908663E+05  9.1448444543314E+04 
 3.6579377817309E+05  7.3158755634618E+05  7.3158755634618E+05  7.3158755634618E+05  7.3158755634618E+05  7.3158755634618E+05  7.3158755634618E+05  7.3158755634618E+05  7.3158755634618E+05  3.6579377817309E+05 
 4.5724222271641E+05  9.1448444543281E+05  9.1448444543281E+05  9.1448444543281E+05  9.1448444543281E+05  9.1448444543281E+05  9.1448444543281E+05  9.1448444543281E+05  9.1448444543281E+05  4.5724222271641E+05 
 3.5000000000000E-01  3.5000000000000E-01  3.5000000000000E-01  3.5000000000000E-01  3.5000000000000E-01  3.5000000000000E-01  3.5000000000000E-01  3.5000000000000E-01  3.5000000000000E-01  3.5000000000000E-01 
 8.5301666666666E+00  1.7060333333333E+01  1.7060333333333E+01  1.7060333333333E+01  1.7060333333333E+01  1.7060333333333E+01  1.7060333333333E+01  1.7060333333333E+01  1.7060333333333E+01  8.5301666666666E+00 
 1.9566425879511E-01  1.9566444514627E-01  1.9566517429947E-01  1.9566644625727E-01  1.9566826102368E-01  1.9567061860438E-01  1.9567351900702E-01  1.9567696224085E-01  1.9568094831681E-01  1.9568547724940E-01 
 4.3744444444444E-05  8.7488888888889E-05  8.7488888888889E-05  8.7488888888889E-05  8.7488888888889E-05  8.7488888888889E-05  8.7488888888889E-05  8.7488888888889E-05  8.7488888888889E-05  4.3744444444444E-05 
 8.6666666666659E+01  8.6666666666659E+01  8.6666666666659E+01  8.6666666666659E+01  8.6666666666659E+01  8.6666666666659E+01  8.6666666666659E+01  8.6666666666659E+01  8.6666666666659E+01  8.6666666666659E+01 
 2.1666666666675E+01  2.1666666666675E+01  2.1666666666675E+01  2.1666666666675E+01  2.1666666666675E+01  2.1666666666675E+01  2.1666666666675E+01  2.1666666666675E+01  2.1666666666675E+01  2.1666666666675E+01 
 3.6728053669616E-11  5.7328276881976E-11  1.2295666390430E-10  2.3744140154968E-10  4.0078380130625E-10  6.1298566316450E-10  8.7404931474988E-10  1.1839777194398E-09  1.5427742110055E-09  1.7343899135295E-09 
 1.8364118901178E-03  2.8664280196389E-03  6.1478631968504E-03  1.1872129193974E-02  2.0039289530520E-02  3.0649434834898E-02  4.3702682843658E-02  5.9199178402647E-02  7.7139093473821E-02  8.6719929077502E-02 
 6.0006019928143E-04  3.0003055176665E-03  1.0201065035902E-02  2.2202409433318E-02  3.9004469733765E-02  6.0607424867505E-02  8.7011505584434E-02  1.1821700526574E-01  1.5422425338805E-01  1.7342835751512E-01 
 3.0727451676802E-03  2.7325221705311E-03  2.0946013545283E-03  1.5417307216504E-03  1.0739103968598E-03  6.9114144894474E-04  3.9342589055428E-04  1.8076667823879E-04  5.3167712497617E-05  1.0633837830131E-05 
 0.0000000000000E+00  0.0000000000000E+00  0.0000000000000E+00  0.0000000000000E+00  0.0000000000000E+00  0.0000000000000E+00  0.0000000000000E+00  0.0000000000000E+00  0.0000000000000E+00  0.0000000000000E+00 
 0.0000000000000E+00  0.0000000000000E+00  0.0000000000000E+00  0.0000000000000E+00  0.0000000000000E+00  0.0000000000000E+00  0.0000000000000E+00  0.0000000000000E+00  0.0000000000000E+00  0.0000000000000E+00 
 0.0000000000000E+00  0.0000000000000E+00  0.0000000000000E+00  0.0000000000000E+00  0.0000000000000E+00  0.0000000000000E+00  0.0000000000000E+00  0.0000000000000E+00  0.0000000000000E+00  0.0000000000000E+00 
ZONE T = "ANOD, 3.0000E-08", I = 10, SOLUTIONTIME = 3.000000E-08
ZONETYPE = ORDERED
DATAPACKING = BLOCK
STRANDID = 1
 0.0000000000000E+00  8.7488888888889E-05  1.7497777777778E-04  2.6246666666667E-04  3.4995555555556E-04  4.3744444444444E-04  5.2493333333333E-04  6.1242222222222E-04  6.9991111111111E-04  7.8740000000000E-04 
 1.1589975177886E-09  3.4769947610289E-09  5.7950006424018E-09  8.1130215924022E-09  1.0431064041574E-08  1.2749134420530E-08  1.5067965575427E-08  1.7386837521620E-08  1.9705393482323E-08  2.0863790270041E-08 
 9.1999999999791E-01  9.1999999999791E-01  9.1999999999791E-01  9.1999999999791E-01  9.1999999999791E-01  9.1999999999791E-01  9.1999999999791E-01  9.1999999999791E-01  9.1999999999791E-01  9.1999999999914E-01 
 4.0000000001045E-02  4.0000000001045E-02  4.0000000001045E-02  4.0000000001045E-02  4.0000000001045E-02  4.0000000001045E-02  4.0000000001045E-02  4.0000000001045E-02  4.0000000001045E-02  4.0000000000432E-02 
 4.0000000001045E-02  4.0000000001045E-02  4.0000000001045E-02  4.0000000001045E-02  4.0000000001045E-02  4.0000000001045E-02  4.0000000001045E-02  4.0000000001045E-02  4.0000000001045E-02  4.0000000000432E-02 
 2.9167373665346E-02  2.9167357938161E-02  2.9167310756574E-02  2.9167232120470E-02  2.9167122029642E-02  2.9166980483801E-02  2.9166807482566E-02  2.9166603025471E-02  2.9166367111963E-02  2.9166099741401E-02 
 0.0000000000000E+00 -4.7371510662050E-09 -8.9170107927899E-09 -1.2539577102981E-08 -1.5604846373988E-08 -1.8112813436996E-08 -2.0063471577144E-08 -2.1456812533507E-08 -2.2292826499070E-08 -2.2571502120693E-08 
-2.9167373665346E-02 -2.9167362675312E-02 -2.9167319673585E-02 -2.9167244660047E-02 -2.9167137634489E-02 -2.9166998596614E-02 -2.9166827546037E-02 -2.9166624482283E-02 -2.9166389404789E-02 -2.9166122312903E-02 
-4.0906712751885E-02 -4.0906712751881E-02 -4.0906712751885E-02 -4.0906712751885E-02 -4.0906712751882E-02 -4.0906712751888E-02 -4.0906712751888E-02 -4.0906712751882E-02 -4.0906712751882E-02 -4.0906712752276E-02 
 1.1739339086539E-02  1.1739350076569E-02  1.1739393078300E-02  1.1739468091839E-02  1.1739575117394E-02  1.1739714155274E-02  1.1739885205851E-02  1.1740088269599E-02  1.1740323347093E-02  1.1740590439373E-02 
 1.6690487382036E+00  3.3381006556178E+00  3.3381130952168E+00  3.3381347952406E+00  3.3381657557591E+00  3.3382059768737E+00  3.3382554587094E+00  3.3383142014244E+00  3.3383822052091E+00  1.6692297351690E+00 
 8.6492352058863E-09  2.5947722098768E-08  4.3246273451755E-08  6.0544937246956E-08  7.7843761507969E-08  9.5142794178034E-08  1.1244208327570E-07  1.2974167678811E-07  1.4704183906833E-07  1.4704183906833E-07 
 0.0000000000000E+00  3.3380990660169E+00  6.6762059414566E+00  1.0014329886615E+01  1.3352480162157E+01  1.6690666028563E+01  2.0028896746130E+01  2.3367181576258E+01  2.6705529779686E+01  3.0043950617474E+01 
 3.0043950617423E+01  2.6705851551411E+01  2.3367744675994E+01  2.0029620730765E+01  1.6691470455265E+01  1.3353284588949E+01  1.0015053871157E+01  6.6767690410903E+00  3.3384208377736E+00  0.0000000000000E+00 
 5.0071465322893E-08  1.0014302602196E-07  1.0014339920929E-07  1.0014405020896E-07  1.0014497902297E-07  1.0014618565441E-07  1.0014767010703E-07  1.0014943238560E-07  1.0015147249580E-07  5.0076895222464E-08 
 9.1448444543331E+04  1.8289688908666E+05  1.8289688908666E+05  1.8289688908666E+05  1.8289688908666E+05  1.8289688908666E+05  1.8289688908666E+05  1.8289688908666E+05  1.8289688908666E+05  9.1448444543331E+04 
 3.6579377817307E+05  7.3158755634615E+05  7.3158755634615E+05  7.3158755634615E+05  7.3158755634615E+05  7.3158755634615E+05  7.3158755634615E+05  7.3158755634615E+05  7.3158755634615E+05  3.6579377817307E+05 
 4.5724222271641E+05  9.1448444543281E+05  9.1448444543281E+05  9.1448444543281E+05  9.1448444543281E+05  9.1448444543281E+05  9.1448444543281E+05  9.1448444543281E+05  9.1448444543281E+05  4.5724222271641E+05 
 3.5000000000000E-01  3.5000000000000E-01  3.5000000000000E-01  3.5000000000000E-01  3.5000000000000E-01  3.5000000000000E-01  3.5000000000000E-01  3.5000000000000E-01  3.5000000000000E-01  3.5000000000000E-01 
 8.5301666666666E+00  1.7060333333333E+01  1.7060333333333E+01  1.7060333333333E+01  1.7060333333333E+01  1.7060333333333E+01  1.7060333333333E+01  1.7060333333333E+01  1.7060333333333E+01  8.5301666666666E+00 
 1.9566425879177E-01  1.9566444514279E-01  1.9566517429613E-01  1.9566644625392E-01  1.9566826102025E-01  1.9567061860106E-01  1.9567351900370E-01  1.9567696223742E-01  1.9568094831339E-01  1.9568547724769E-01 
 4.3744444444444E-05  8.7488888888889E-05  8.7488888888889E-05  8.7488888888889E-05  8.7488888888889E-05  8.7488888888889E-05  8.7488888888889E-05  8.7488888888889E-05  8.7488888888889E-05  4.3744444444444E-05 
 8.6666666666655E+01  8.6666666666655E+01  8.6666666666655E+01  8.6666666666655E+01  8.6666666666655E+01  8.6666666666655E+01  8.6666666666655E+01  8.6666666666655E+01  8.6666666666655E+01  8.6666666666655E+01 
 2.1666666666679E+01  2.1666666666679E+01  2.1666666666679E+01  2.1666666666679E+01  2.1666666666679E+01  2.1666666666679E+01  2.1666666666679E+01  2.1666666666679E+01  2.1666666666679E+01  2.1666666666679E+01 
 5.5092172571627E-11  8.5992557076714E-11  1.8443529587091E-10  3.5616269348087E-10  6.0117669660371E-10  9.1948001150145E-10  1.3110761431584E-09  1.7759695034442E-09  2.3141651457169E-09  2.6015892042649E-09 
 1.8364118902011E-03  2.8664280194738E-03  6.1478631966614E-03  1.1872129193119E-02  2.0039289529746E-02  3.0649434833695E-02  4.3702682840853E-02  5.9199178400445E-02  7.7139093471138E-02  8.6719929073535E-02 
 9.0009188854847E-04  4.5004656781938E-03  1.5301622363020E-02  3.3303669443887E-02  5.8506801403057E-02  9.0911287263547E-02  1.3051747450482E-01  1.7732579987900E-01  2.3133676287116E-01  2.6014296964339E-01 
 4.6091253686143E-03  4.0987900294776E-03  3.1419072240714E-03  2.3125999042005E-03  1.6108682573141E-03  1.0367138865980E-03  5.9013981102638E-04  2.7115046542185E-04  7.9751700529878E-05  1.5950783101563E-05 
 0.0000000000000E+00  0.0000000000000E+00  0.0000000000000E+00  0.0000000000000E+00  0.0000000000000E+00  0.0000000000000E+00  0.0000000000000E+00  0.0000000000000E+00  0.0000000000000E+00  0.0000000000000E+00 
 0.0000000000000E+00  0.0000000000000E+00  0.0000000000000E+00  0.0000000000000E+00  0.0000000000000E+00  0.0000000000000E+00  0.0000000000000E+00  0.0000000000000E+00  0.0000000000000E+00  0.0000000000000E+00 
 0.0000000000000E+00  0.0000000000000E+00  0.0000000000000E+00  0.0000000000000E+00  0.0000000000000E+00  0.0000000000000E+00  0.0000000000000E+00  0.0000000000000E+00  0.0000000000000E+00  0.0000000000000E+00 
ZONE T = "ANOD, 4.0000E-08", I = 10, SOLUTIONTIME = 4.000000E-08
ZONETYPE = ORDERED
DATAPACKING = BLOCK
STRANDID = 1
 0.0000000000000E+00  8.7488888888889E-05  1.7497777777778E-04  2.6246666666667E-04  3.4995555555556E-04  4.3744444444444E-04  5.2493333333333E-04  6.1242222222222E-04  6.9991111111111E-04  7.8740000000000E-04 
 1.1588159139043E-09  3.4771763648331E-09  5.7948190384375E-09  8.1135664038527E-09  1.0431245645257E-08  1.2748589608716E-08  1.5065604724933E-08  1.7383750255631E-08  1.9702306216295E-08  2.0861429419460E-08 
 9.1999999999721E-01  9.1999999999721E-01  9.1999999999721E-01  9.1999999999721E-01  9.1999999999721E-01  9.1999999999721E-01  9.1999999999721E-01  9.1999999999721E-01  9.1999999999721E-01  9.1999999999885E-01 
 4.0000000001393E-02  4.0000000001393E-02  4.0000000001393E-02  4.0000000001393E-02  4.0000000001393E-02  4.0000000001393E-02  4.0000000001393E-02  4.0000000001393E-02  4.0000000001393E-02  4.0000000000576E-02 
 4.0000000001393E-02  4.0000000001393E-02  4.0000000001393E-02  4.0000000001393E-02  4.0000000001393E-02  4.0000000001393E-02  4.0000000001393E-02  4.0000000001393E-02  4.0000000001393E-02  4.0000000000576E-02 
 2.9167373665131E-02  2.9167357937946E-02  2.9167310756359E-02  2.9167232120255E-02  2.9167122029427E-02  2.9166980483586E-02  2.9166807482350E-02  2.9166603025256E-02  2.9166367111748E-02  2.9166099741186E-02 
 0.0000000000000E+00 -4.7371510661255E-09 -8.9170107926402E-09 -1.2539577102771E-08 -1.5604846373728E-08 -1.8112813436694E-08 -2.0063471576811E-08 -2.1456812533153E-08 -2.2292826498704E-08 -2.2571502120325E-08 
-2.9167373665131E-02 -2.9167362675097E-02 -2.9167319673370E-02 -2.9167244659832E-02 -2.9167137634274E-02 -2.9166998596399E-02 -2.9166827545822E-02 -2.9166624482068E-02 -2.9166389404574E-02 -2.9166122312688E-02 
-4.0906712751379E-02 -4.0906712751383E-02 -4.0906712751379E-02 -4.0906712751379E-02 -4.0906712751383E-02 -4.0906712751380E-02 -4.0906712751380E-02 -4.0906712751383E-02 -4.0906712751383E-02 -4.0906712751908E-02 
 1.1739339086247E-02  1.1739350076286E-02  1.1739393078009E-02  1.1739468091547E-02  1.1739575117109E-02  1.1739714154981E-02  1.1739885205558E-02  1.1740088269315E-02  1.1740323346809E-02  1.1740590439220E-02 
 1.6690487381742E+00  3.3381006555613E+00  3.3381130951580E+00  3.3381347951818E+00  3.3381657557021E+00  3.3382059768146E+00  3.3382554586504E+00  3.3383142013675E+00  3.3383822051522E+00  1.6692297351553E+00 