TITLE = "Solution on Domain BulkDomain1D_2"
VARIABLES = "x [m]"  
"Vel_axial" 	"MF_sp(ECDMC)" 	"MF_sp(Li+)" 	"MF_sp(PF6-)" 	"Volt(Electroly)" 	"Volt(CathodeVo)" 	
"Potential Drop Electrode-Electrolyte [V]" 	"Surf_0 Equilibrium Potential Drop Electrode-Electrolyte [V]" 	"Overpotential_0 [V]" 	"Current Source [A/m^2]" 	"Li+ flux [kmol/m^2/s]" 	"Electrolyte Current [A/m^2]" 	"Electrode Current [A/m^2]" 	
"CV Capacity discharged [A-s/m^2]" 	"Depth of discharge in CV [A-s/m^2]" 	"CV Capacity remaining [A-s/m^2]" 	"Initial CV capacity [A-s/m^2]" 	"Porosity []" 	"Surface Area [m2/m2] (area per area)" 	"Specific current (per particle area) [A/m^2]" 	"Control volume thickness [m]" 	
"MoleDens LiCoO2 [kmol/m^3]" 	"MoleDens CoO2 [kmol/m^3]" 	"qHeat_accum [J/m3]" 	"qHeat_step [W/m3]" 	"Joule_Lyte [W/m3]" 	"Joule_Solid [W/m3]" 	"electrodHeat [W/m3]" 	"OverpotHeat [W/m3]" 	"deltaSHeat [W/m3]" 	

ZONE T = "CATH, 0.0000E+00", I = 10, SOLUTIONTIME = 0.000000E+00
ZONETYPE = ORDERED
DATAPACKING = BLOCK
STRANDID = 3
 1.2700000000000E-03  1.3377333333333E-03  1.4054666666667E-03  1.4732000000000E-03  1.5409333333333E-03  1.6086666666667E-03  1.6764000000000E-03  1.7441333333333E-03  1.8118666666667E-03  1.8796000000000E-03 
 0.0000000000000E+00  0.0000000000000E+00  0.0000000000000E+00  0.0000000000000E+00  0.0000000000000E+00  0.0000000000000E+00  0.0000000000000E+00  0.0000000000000E+00  0.0000000000000E+00  0.0000000000000E+00 
 9.2000000000000E-01  9.2000000000000E-01  9.2000000000000E-01  9.2000000000000E-01  9.2000000000000E-01  9.2000000000000E-01  9.2000000000000E-01  9.2000000000000E-01  9.2000000000000E-01  9.2000000000000E-01 
 4.0000000000000E-02  4.0000000000000E-02  4.0000000000000E-02  4.0000000000000E-02  4.0000000000000E-02  4.0000000000000E-02  4.0000000000000E-02  4.0000000000000E-02  4.0000000000000E-02  4.0000000000000E-02 
 4.0000000000000E-02  4.0000000000000E-02  4.0000000000000E-02  4.0000000000000E-02  4.0000000000000E-02  4.0000000000000E-02  4.0000000000000E-02  4.0000000000000E-02  4.0000000000000E-02  4.0000000000000E-02 
-7.0000000000000E-02 -7.0000000000000E-02 -7.0000000000000E-02 -7.0000000000000E-02 -7.0000000000000E-02 -7.0000000000000E-02 -7.0000000000000E-02 -7.0000000000000E-02 -7.0000000000000E-02 -7.0000000000000E-02 
 3.8000000000000E+00  3.8000000000000E+00  3.8000000000000E+00  3.8000000000000E+00  3.8000000000000E+00  3.8000000000000E+00  3.8000000000000E+00  3.8000000000000E+00  3.8000000000000E+00  3.8000000000000E+00 
 3.8700000000000E+00  3.8700000000000E+00  3.8700000000000E+00  3.8700000000000E+00  3.8700000000000E+00  3.8700000000000E+00  3.8700000000000E+00  3.8700000000000E+00  3.8700000000000E+00  3.8700000000000E+00 
 3.9714142713289E+00  3.9714142713289E+00  3.9714142713289E+00  3.9714142713289E+00  3.9714142713289E+00  3.9714142713289E+00  3.9714142713289E+00  3.9714142713289E+00  3.9714142713289E+00  3.9714142713289E+00 
-1.0141427132889E-01 -1.0141427132889E-01 -1.0141427132889E-01 -1.0141427132889E-01 -1.0141427132889E-01 -1.0141427132889E-01 -1.0141427132889E-01 -1.0141427132889E-01 -1.0141427132889E-01 -1.0141427132889E-01 
-2.3826357195711E-01 -4.7652714391422E-01 -4.7652714391423E-01 -4.7652714391422E-01 -4.7652714391423E-01 -4.7652714391423E-01 -4.7652714391422E-01 -4.7652714391423E-01 -4.7652714391422E-01 -2.3826357195711E-01 
-0.0000000000000E+00 -0.0000000000000E+00 -0.0000000000000E+00 -0.0000000000000E+00 -0.0000000000000E+00 -0.0000000000000E+00 -0.0000000000000E+00 -0.0000000000000E+00 -0.0000000000000E+00 -0.0000000000000E+00 
 2.3826357195711E-01  0.0000000000000E+00  0.0000000000000E+00  0.0000000000000E+00  0.0000000000000E+00  0.0000000000000E+00  0.0000000000000E+00  0.0000000000000E+00  0.0000000000000E+00  0.0000000000000E+00 
 0.0000000000000E+00 -0.0000000000000E+00 -0.0000000000000E+00 -0.0000000000000E+00 -0.0000000000000E+00 -0.0000000000000E+00 -0.0000000000000E+00 -0.0000000000000E+00 -0.0000000000000E+00  2.3826357195711E-01 
-0.0000000000000E+00 -0.0000000000000E+00 -0.0000000000000E+00 -0.0000000000000E+00 -0.0000000000000E+00 -0.0000000000000E+00 -0.0000000000000E+00 -0.0000000000000E+00 -0.0000000000000E+00 -0.0000000000000E+00 
 7.2440786946225E+03  1.4488157389245E+04  1.4488157389245E+04  1.4488157389245E+04  1.4488157389245E+04  1.4488157389245E+04  1.4488157389245E+04  1.4488157389245E+04  1.4488157389245E+04  7.2440786946225E+03 
 4.9259735123433E+04  9.8519470246865E+04  9.8519470246866E+04  9.8519470246865E+04  9.8519470246866E+04  9.8519470246866E+04  9.8519470246865E+04  9.8519470246866E+04  9.8519470246865E+04  4.9259735123433E+04 
 5.6503813818055E+04  1.1300762763611E+05  1.1300762763611E+05  1.1300762763611E+05  1.1300762763611E+05  1.1300762763611E+05  1.1300762763611E+05  1.1300762763611E+05  1.1300762763611E+05  5.6503813818055E+04 
 3.5000000000000E-01  3.5000000000000E-01  3.5000000000000E-01  3.5000000000000E-01  3.5000000000000E-01  3.5000000000000E-01  3.5000000000000E-01  3.5000000000000E-01  3.5000000000000E-01  3.5000000000000E-01 
 6.6040000000000E+00  1.3208000000000E+01  1.3208000000000E+01  1.3208000000000E+01  1.3208000000000E+01  1.3208000000000E+01  1.3208000000000E+01  1.3208000000000E+01  1.3208000000000E+01  6.6040000000000E+00 
-3.6078675341780E-02 -3.6078675341780E-02 -3.6078675341780E-02 -3.6078675341780E-02 -3.6078675341780E-02 -3.6078675341780E-02 -3.6078675341780E-02 -3.6078675341780E-02 -3.6078675341780E-02 -3.6078675341780E-02 
 3.3866666666667E-05  6.7733333333333E-05  6.7733333333334E-05  6.7733333333333E-05  6.7733333333334E-05  6.7733333333334E-05  6.7733333333333E-05  6.7733333333334E-05  6.7733333333333E-05  3.3866666666667E-05 
 2.6603001364256E+01  2.6603001364256E+01  2.6603001364256E+01  2.6603001364256E+01  2.6603001364256E+01  2.6603001364256E+01  2.6603001364256E+01  2.6603001364256E+01  2.6603001364256E+01  2.6603001364256E+01 
 1.7735334242838E+01  1.7735334242838E+01  1.7735334242838E+01  1.7735334242838E+01  1.7735334242838E+01  1.7735334242838E+01  1.7735334242838E+01  1.7735334242838E+01  1.7735334242838E+01  1.7735334242838E+01 
 0.0000000000000E+00  0.0000000000000E+00  0.0000000000000E+00  0.0000000000000E+00  0.0000000000000E+00  0.0000000000000E+00  0.0000000000000E+00  0.0000000000000E+00  0.0000000000000E+00  0.0000000000000E+00 
 0.0000000000000E+00  0.0000000000000E+00  0.0000000000000E+00  0.0000000000000E+00  0.0000000000000E+00  0.0000000000000E+00  0.0000000000000E+00  0.0000000000000E+00  0.0000000000000E+00  0.0000000000000E+00 
 0.0000000000000E+00  0.0000000000000E+00  0.0000000000000E+00  0.0000000000000E+00  0.0000000000000E+00  0.0000000000000E+00  0.0000000000000E+00  0.0000000000000E+00  0.0000000000000E+00  0.0000000000000E+00 
 0.0000000000000E+00  0.0000000000000E+00  0.0000000000000E+00  0.0000000000000E+00  0.0000000000000E+00  0.0000000000000E+00  0.0000000000000E+00  0.0000000000000E+00  0.0000000000000E+00  0.0000000000000E+00 
 0.0000000000000E+00  0.0000000000000E+00  0.0000000000000E+00  0.0000000000000E+00  0.0000000000000E+00  0.0000000000000E+00  0.0000000000000E+00  0.0000000000000E+00  0.0000000000000E+00  0.0000000000000E+00 
 0.0000000000000E+00  0.0000000000000E+00  0.0000000000000E+00  0.0000000000000E+00  0.0000000000000E+00  0.0000000000000E+00  0.0000000000000E+00  0.0000000000000E+00  0.0000000000000E+00  0.0000000000000E+00 
 0.0000000000000E+00  0.0000000000000E+00  0.0000000000000E+00  0.0000000000000E+00  0.0000000000000E+00  0.0000000000000E+00  0.0000000000000E+00  0.0000000000000E+00  0.0000000000000E+00  0.0000000000000E+00 
ZONE T = "CATH, 1.0000E-08", I = 10, SOLUTIONTIME = 1.000000E-08
ZONETYPE = ORDERED
DATAPACKING = BLOCK
STRANDID = 3
 1.2700000000000E-03  1.3377333333333E-03  1.4054666666667E-03  1.4732000000000E-03  1.5409333333333E-03  1.6086666666667E-03  1.6764000000000E-03  1.7441333333333E-03  1.8118666666667E-03  1.8796000000000E-03 
 1.9705052572939E-08  1.7389149038410E-08  1.5072962185479E-08  1.2756296440392E-08  1.0438956068399E-08  8.1207451066736E-09  5.8011040909325E-09  3.4801996121877E-09  1.1585610419185E-09 -3.0872656902834E-12 
 9.2000000000032E-01  9.2000000000090E-01  9.2000000000090E-01  9.2000000000090E-01  9.2000000000090E-01  9.2000000000090E-01  9.2000000000090E-01  9.2000000000090E-01  9.2000000000090E-01  9.2000000000090E-01 
 3.9999999999841E-02  3.9999999999551E-02  3.9999999999551E-02  3.9999999999551E-02  3.9999999999550E-02  3.9999999999550E-02  3.9999999999550E-02  3.9999999999550E-02  3.9999999999550E-02  3.9999999999549E-02 
 3.9999999999841E-02  3.9999999999551E-02  3.9999999999551E-02  3.9999999999551E-02  3.9999999999550E-02  3.9999999999550E-02  3.9999999999550E-02  3.9999999999550E-02  3.9999999999550E-02  3.9999999999549E-02 
 2.9165653271018E-02  2.9165446260870E-02  2.9165263576695E-02  2.9165105221478E-02  2.9164971200267E-02  2.9164861520117E-02  2.9164776190207E-02  2.9164715221711E-02  2.9164678627936E-02  2.9164666424199E-02 
 3.8001746420670E+00  3.8001724871785E+00  3.8001660223495E+00  3.8001552470526E+00  3.8001401603965E+00  3.8001207611255E+00  3.8000970476191E+00  3.8000690178917E+00  3.8000366695915E+00  3.8000000000000E+00 
 3.7710089887960E+00  3.7710070409176E+00  3.7710007587728E+00  3.7709901418311E+00  3.7709751891962E+00  3.7709558996054E+00  3.7709322714289E+00  3.7709043026700E+00  3.7708719909635E+00  3.7708353335758E+00 
 3.9714142713287E+00  3.9714142713285E+00  3.9714142713285E+00  3.9714142713285E+00  3.9714142713285E+00  3.9714142713285E+00  3.9714142713285E+00  3.9714142713285E+00  3.9714142713285E+00  3.9714142713285E+00 
-2.0040528253273E-01 -2.0040723041090E-01 -2.0041351255574E-01 -2.0042412949740E-01 -2.0043908213229E-01 -2.0045837172314E-01 -2.0048199989959E-01 -2.0050996865854E-01 -2.0054228036499E-01 -2.0057893775272E-01 
-1.6672260832675E+00 -3.3345786730069E+00 -3.3349867044284E+00 -3.3356763984303E+00 -3.3366479877077E+00 -3.3379018001827E+00 -3.3394382592475E+00 -3.3412578840600E+00 -3.3433612899257E+00 -1.6728745943664E+00 
 1.4705140474674E-07  1.2977112761424E-07  1.1248886232407E-07  9.5203012022535E-08  7.7912149724037E-08  6.0614766804407E-08  4.3309446193203E-08  2.5994673304682E-08  8.6690199261869E-09  8.6690199261869E-09 
 3.0043809028257E+01  2.6709302380367E+01  2.3374536633315E+01  2.0039220366475E+01  1.6703074614113E+01  1.3365816133604E+01  1.0027162637539E+01  6.6868312644737E+00  3.3445380774298E+00  0.0000000000000E+00 
 0.0000000000000E+00  3.3344992518756E+00  6.6692657525713E+00  1.0004581075257E+01  1.3340726977608E+01  1.6677985497498E+01  2.0016639048683E+01  2.3356970515121E+01  2.6699263348549E+01  3.0043810171282E+01 
 1.6672260832675E-08  3.3345786730069E-08  3.3349867044284E-08  3.3356763984303E-08  3.3366479877077E-08  3.3379018001827E-08  3.3394382592475E-08  3.3412578840600E-08  3.3433612899257E-08  1.6728745943664E-08 
 7.2440786946392E+03  1.4488157389278E+04  1.4488157389278E+04  1.4488157389278E+04  1.4488157389278E+04  1.4488157389278E+04  1.4488157389278E+04  1.4488157389278E+04  1.4488157389278E+04  7.2440786946392E+03 
 4.9259735123416E+04  9.8519470246832E+04  9.8519470246832E+04  9.8519470246832E+04  9.8519470246832E+04  9.8519470246832E+04  9.8519470246832E+04  9.8519470246832E+04  9.8519470246832E+04  4.9259735123416E+04 
 5.6503813818055E+04  1.1300762763611E+05  1.1300762763611E+05  1.1300762763611E+05  1.1300762763611E+05  1.1300762763611E+05  1.1300762763611E+05  1.1300762763611E+05  1.1300762763611E+05  5.6503813818055E+04 
 3.5000000000000E-01  3.5000000000000E-01  3.5000000000000E-01  3.5000000000000E-01  3.5000000000000E-01  3.5000000000000E-01  3.5000000000000E-01  3.5000000000000E-01  3.5000000000000E-01  3.5000000000000E-01 
 6.6040000000000E+00  1.3208000000000E+01  1.3208000000000E+01  1.3208000000000E+01  1.3208000000000E+01  1.3208000000000E+01  1.3208000000000E+01  1.3208000000000E+01  1.3208000000000E+01  6.6040000000000E+00 
-2.5245700836879E-01 -2.5246658638756E-01 -2.5249747913601E-01 -2.5254969703440E-01 -2.5262325770046E-01 -2.5271818596174E-01 -2.5283451387398E-01 -2.5297228074349E-01 -2.5313153315610E-01 -2.5331232501005E-01 
 3.3866666666667E-05  6.7733333333333E-05  6.7733333333334E-05  6.7733333333333E-05  6.7733333333334E-05  6.7733333333334E-05  6.7733333333333E-05  6.7733333333334E-05  6.7733333333333E-05  3.3866666666667E-05 
 2.6603001364262E+01  2.6603001364262E+01  2.6603001364262E+01  2.6603001364262E+01  2.6603001364262E+01  2.6603001364262E+01  2.6603001364262E+01  2.6603001364262E+01  2.6603001364262E+01  2.6603001364262E+01 
 1.7735334242833E+01  1.7735334242833E+01  1.7735334242833E+01  1.7735334242833E+01  1.7735334242833E+01  1.7735334242833E+01  1.7735334242833E+01  1.7735334242833E+01  1.7735334242833E+01  1.7735334242833E+01 
 1.3976736532432E-09  3.4235245846891E-09  9.6096576286759E-09  2.0066058106842E-08  3.4796258295597E-08  5.3805235855996E-08  7.7099417560968E-08  1.0468668396251E-07  1.3657637493587E-07  1.5359808547538E-07 
 1.3976736532432E-01  3.4235245846891E-01  9.6096576286759E-01  2.0066058106842E+00  3.4796258295597E+00  5.3805235855996E+00  7.7099417560968E+00  1.0468668396251E+01  1.3657637493587E+01  1.5359808547538E+01 
 8.6725993623380E-02  7.7133526536421E-02  5.9145220891769E-02  4.3550054171739E-02  3.0348207960998E-02  1.9540657921303E-02  1.1129190920951E-02  5.1164127268459E-03  1.5057377036601E-03  3.0140586551898E-04 
 5.3041371700940E-02  2.6521893193249E-01  9.0182054197582E-01  1.9630557565125E+00  3.4492776215987E+00  5.3609829276783E+00  7.6988125651759E+00  1.0463551983524E+01  1.3656131755883E+01  1.5359507141673E+01 
 0.0000000000000E+00  0.0000000000000E+00  0.0000000000000E+00  0.0000000000000E+00  0.0000000000000E+00  0.0000000000000E+00  0.0000000000000E+00  0.0000000000000E+00  0.0000000000000E+00  0.0000000000000E+00 
 0.0000000000000E+00  0.0000000000000E+00  0.0000000000000E+00  0.0000000000000E+00  0.0000000000000E+00  0.0000000000000E+00  0.0000000000000E+00  0.0000000000000E+00  0.0000000000000E+00  0.0000000000000E+00 
 0.0000000000000E+00  0.0000000000000E+00  0.0000000000000E+00  0.0000000000000E+00  0.0000000000000E+00  0.0000000000000E+00  0.0000000000000E+00  0.0000000000000E+00  0.0000000000000E+00  0.0000000000000E+00 
ZONE T = "CATH, 2.0000E-08", I = 10, SOLUTIONTIME = 2.000000E-08
ZONETYPE = ORDERED
DATAPACKING = BLOCK
STRANDID = 3
 1.2700000000000E-03  1.3377333333333E-03  1.4054666666667E-03  1.4732000000000E-03  1.5409333333333E-03  1.6086666666667E-03  1.6764000000000E-03  1.7441333333333E-03  1.8118666666667E-03  1.8796000000000E-03 
 1.9702789515684E-08  1.7387237898098E-08  1.5071039731914E-08  1.2754362635703E-08  1.0437010858720E-08  8.1191516302273E-09  5.8002254700213E-09  3.4793093296515E-09  1.1576589797521E-09 -4.1768888696122E-12 
 9.2000000000063E-01  9.2000000000180E-01  9.2000000000180E-01  9.2000000000180E-01  9.2000000000180E-01  9.2000000000180E-01  9.2000000000180E-01  9.2000000000180E-01  9.2000000000180E-01  9.2000000000180E-01 
 3.9999999999683E-02  3.9999999999101E-02  3.9999999999101E-02  3.9999999999101E-02  3.9999999999101E-02  3.9999999999100E-02  3.9999999999100E-02  3.9999999999100E-02  3.9999999999099E-02  3.9999999999098E-02 
 3.9999999999683E-02  3.9999999999101E-02  3.9999999999101E-02  3.9999999999101E-02  3.9999999999101E-02  3.9999999999100E-02  3.9999999999100E-02  3.9999999999100E-02  3.9999999999099E-02  3.9999999999098E-02 
 2.9165655458165E-02  2.9165448446984E-02  2.9165265761905E-02  2.9165107405905E-02  2.9164973384014E-02  2.9164863703321E-02  2.9164778372972E-02  2.9164717404176E-02  2.9164680810208E-02  2.9164668606412E-02 
 3.8001746429253E+00  3.8001724880263E+00  3.8001660231657E+00  3.8001552478163E+00  3.8001401610865E+00  3.8001207617205E+00  3.8000970480979E+00  3.8000690182326E+00  3.8000366697729E+00  3.8000000000000E+00 
 3.7710089874671E+00  3.7710070395793E+00  3.7710007574038E+00  3.7709901404104E+00  3.7709751877025E+00  3.7709558980172E+00  3.7709322697249E+00  3.7709043008285E+00  3.7708719889627E+00  3.7708353313936E+00 
 3.9714142713285E+00  3.9714142713282E+00  3.9714142713282E+00  3.9714142713282E+00  3.9714142713282E+00  3.9714142713282E+00  3.9714142713282E+00  3.9714142713282E+00  3.9714142713282E+00  3.9714142713282E+00 
-2.0040528386143E-01 -2.0040723174888E-01 -2.0041351392434E-01 -2.0042413091779E-01 -2.0043908362569E-01 -2.0045837331094E-01 -2.0048200160324E-01 -2.0050997049969E-01 -2.0054228236546E-01 -2.0057893993456E-01 
-1.6672261264096E+00 -3.3345787598852E+00 -3.3349867933058E+00 -3.3356764906907E+00 -3.3366480847403E+00 -3.3379019033881E+00 -3.3394383700354E+00 -3.3412580038565E+00 -3.3433614201720E+00 -1.6728746654456E+00 
 1.4705227083076E-07  1.2977176979353E-07  1.1248941937983E-07  9.5203494878553E-08  7.7912535436937E-08  6.0615078546323E-08  4.3309659471441E-08  2.5994810820658E-08  8.6690619691127E-09  8.6690619691127E-09 
 3.0043950618304E+01  2.6709435111784E+01  2.3374652334948E+01  2.0039320692938E+01  1.6703158405215E+01  1.3365883411222E+01  1.0027213274454E+01  6.6868650875720E+00  3.3445553756300E+00  0.0000000000000E+00 
 0.0000000000000E+00  3.3345155065018E+00  6.6692982829543E+00  1.0004629924860E+01  1.3340792212745E+01  1.6678067206813E+01  2.0016737343328E+01  2.3357085530298E+01  2.6699395242478E+01  3.0043950617929E+01 
 3.3344522096771E-08  6.6691574328921E-08  6.6699734977342E-08  6.6713528891210E-08  6.6732960724480E-08  6.6758037035708E-08  6.6788766292829E-08  6.6825158879165E-08  6.6867227100977E-08  3.3457492598120E-08 
 7.2440786946558E+03  1.4488157389312E+04  1.4488157389312E+04  1.4488157389312E+04  1.4488157389312E+04  1.4488157389312E+04  1.4488157389312E+04  1.4488157389312E+04  1.4488157389312E+04  7.2440786946559E+03 
 4.9259735123400E+04  9.8519470246798E+04  9.8519470246799E+04  9.8519470246798E+04  9.8519470246799E+04  9.8519470246799E+04  9.8519470246798E+04  9.8519470246799E+04  9.8519470246798E+04  4.9259735123399E+04 
 5.6503813818055E+04  1.1300762763611E+05  1.1300762763611E+05  1.1300762763611E+05  1.1300762763611E+05  1.1300762763611E+05  1.1300762763611E+05  1.1300762763611E+05  1.1300762763611E+05  5.6503813818055E+04 
 3.5000000000000E-01  3.5000000000000E-01  3.5000000000000E-01  3.5000000000000E-01  3.5000000000000E-01  3.5000000000000E-01  3.5000000000000E-01  3.5000000000000E-01  3.5000000000000E-01  3.5000000000000E-01 
 6.6040000000000E+00  1.3208000000000E+01  1.3208000000000E+01  1.3208000000000E+01  1.3208000000000E+01  1.3208000000000E+01  1.3208000000000E+01  1.3208000000000E+01  1.3208000000000E+01  6.6040000000000E+00 
-2.5245701490151E-01 -2.5246659296526E-01 -2.5249748586506E-01 -2.5254970401959E-01 -2.5262326504697E-01 -2.5271819377560E-01 -2.5283452226192E-01 -2.5297228981348E-01 -2.5313154301726E-01 -2.5331233577310E-01 
 3.3866666666667E-05  6.7733333333333E-05  6.7733333333334E-05  6.7733333333333E-05  6.7733333333334E-05  6.7733333333334E-05  6.7733333333333E-05  6.7733333333334E-05  6.7733333333333E-05  3.3866666666667E-05 
 2.6603001364267E+01  2.6603001364267E+01  2.6603001364267E+01  2.6603001364267E+01  2.6603001364267E+01  2.6603001364267E+01  2.6603001364267E+01  2.6603001364267E+01  2.6603001364267E+01  2.6603001364267E+01 
 1.7735334242827E+01  1.7735334242827E+01  1.7735334242827E+01  1.7735334242827E+01  1.7735334242827E+01  1.7735334242827E+01  1.7735334242827E+01  1.7735334242827E+01  1.7735334242827E+01  1.7735334242827E+01 
 2.7953611282983E-09  6.8470826962955E-09  1.9219409096085E-08  4.0132312290653E-08  6.9592857009160E-08  1.0761099902426E-07  1.5419959245373E-07  2.0937439904928E-07  2.7315409939692E-07  3.0719769091911E-07 
 1.3976874750551E-01  3.4235581116065E-01  9.6097514674094E-01  2.0066254183811E+00  3.4796598713563E+00  5.3805763168267E+00  7.7100174892762E+00  1.0468771508677E+01  1.3657772446106E+01  1.5359960544373E+01 
 8.6726858832273E-02  7.7134293356827E-02  5.9145806405593E-02  4.3550489813264E-02  3.0348512807439E-02  1.9540854186513E-02  1.1129303710362E-02  5.1164640767703E-03  1.5057534833844E-03  3.0140877907997E-04 
 5.3041888673234E-02  2.6522151780382E-01  9.0182934033534E-01  1.9630749285678E+00  3.4493113585489E+00  5.3610354626402E+00  7.6988881855658E+00  1.0463655044600E+01  1.3656266692623E+01  1.5359659135594E+01 
 0.0000000000000E+00  0.0000000000000E+00  0.0000000000000E+00  0.0000000000000E+00  0.0000000000000E+00  0.0000000000000E+00  0.0000000000000E+00  0.0000000000000E+00  0.0000000000000E+00  0.0000000000000E+00 
 0.0000000000000E+00  0.0000000000000E+00  0.0000000000000E+00  0.0000000000000E+00  0.0000000000000E+00  0.0000000000000E+00  0.0000000000000E+00  0.0000000000000E+00  0.0000000000000E+00  0.0000000000000E+00 
 0.0000000000000E+00  0.0000000000000E+00  0.0000000000000E+00  0.0000000000000E+00  0.0000000000000E+00  0.0000000000000E+00  0.0000000000000E+00  0.0000000000000E+00  0.0000000000000E+00  0.0000000000000E+00 
ZONE T = "CATH, 3.0000E-08", I = 10, SOLUTIONTIME = 3.000000E-08
ZONETYPE = ORDERED
DATAPACKING = BLOCK
STRANDID = 3
 1.2700000000000E-03  1.3377333333333E-03  1.4054666666667E-03  1.4732000000000E-03  1.5409333333333E-03  1.6086666666667E-03  1.6764000000000E-03  1.7441333333333E-03  1.8118666666667E-03  1.8796000000000E-03 
 1.9706421592623E-08  1.7390506767349E-08  1.5074308601204E-08  1.2758357920489E-08  1.0441006143545E-08  8.1227837073650E-09  5.8038575471990E-09  3.4843942377804E-09  1.1627438879210E-09  1.2712270471720E-12 
 9.2000000000095E-01  9.2000000000270E-01  9.2000000000270E-01  9.2000000000270E-01  9.2000000000270E-01  9.2000000000270E-01  9.2000000000270E-01  9.2000000000270E-01  9.2000000000270E-01  9.2000000000270E-01 
 3.9999999999524E-02  3.9999999998652E-02  3.9999999998652E-02  3.9999999998652E-02  3.9999999998651E-02  3.9999999998651E-02  3.9999999998650E-02  3.9999999998649E-02  3.9999999998649E-02  3.9999999998648E-02 
 3.9999999999524E-02  3.9999999998652E-02  3.9999999998652E-02  3.9999999998652E-02  3.9999999998651E-02  3.9999999998651E-02  3.9999999998650E-02  3.9999999998649E-02  3.9999999998649E-02  3.9999999998648E-02 
 2.9165655457950E-02  2.9165448446770E-02  2.9165265761691E-02  2.9165107405690E-02  2.9164973383800E-02  2.9164863703107E-02  2.9164778372758E-02  2.9164717403962E-02  2.9164680809994E-02  2.9164668606198E-02 
 3.8001746429253E+00  3.8001724880263E+00  3.8001660231657E+00  3.8001552478163E+00  3.8001401610865E+00  3.8001207617205E+00  3.8000970480979E+00  3.8000690182326E+00  3.8000366697729E+00  3.8000000000000E+00 
 3.7710089874673E+00  3.7710070395795E+00  3.7710007574040E+00  3.7709901404106E+00  3.7709751877027E+00  3.7709558980174E+00  3.7709322697251E+00  3.7709043008287E+00  3.7708719889629E+00  3.7708353313938E+00 
 3.9714142713283E+00  3.9714142713278E+00  3.9714142713278E+00  3.9714142713278E+00  3.9714142713278E+00  3.9714142713278E+00  3.9714142713278E+00  3.9714142713278E+00  3.9714142713278E+00  3.9714142713278E+00 
-2.0040528386104E-01 -2.0040723174830E-01 -2.0041351392376E-01 -2.0042413091721E-01 -2.0043908362511E-01 -2.0045837331036E-01 -2.0048200160266E-01 -2.0050997049911E-01 -2.0054228236488E-01 -2.0057893993398E-01 
-1.6672261263930E+00 -3.3345787598278E+00 -3.3349867932484E+00 -3.3356764906333E+00 -3.3366480846829E+00 -3.3379019033306E+00 -3.3394383699778E+00 -3.3412580037989E+00 -3.3433614201142E+00 -1.6728746654166E+00 
 1.4705240339564E-07  1.2977176982322E-07  1.1248941942049E-07  9.5203494934414E-08  7.7912535514510E-08  6.0615078638664E-08  4.3309659583918E-08  2.5994810949032E-08  8.6690621160454E-09  8.6690621160454E-09 
 3.0043950617121E+01  2.6709435111060E+01  2.3374652334686E+01  2.0039320692475E+01  1.6703158405027E+01  1.3365883411072E+01  1.0027213274103E+01  6.6868650874967E+00  3.3445553755924E+00  0.0000000000000E+00 
 0.0000000000000E+00  3.3345155063300E+00  6.6692982827825E+00  1.0004629924689E+01  1.3340792212401E+01  1.6678067206470E+01  2.0016737343156E+01  2.3357085529954E+01  2.6699395241963E+01  3.0043950617556E+01 
 5.0016783360701E-08  1.0003736192720E-07  1.0004960290983E-07  1.0007029379754E-07  1.0009944157131E-07  1.0013705606901E-07  1.0018314999261E-07  1.0023773891715E-07  1.0030084130212E-07  5.0186239252286E-08 
 7.2440786946725E+03  1.4488157389345E+04  1.4488157389345E+04  1.4488157389345E+04  1.4488157389345E+04  1.4488157389345E+04  1.4488157389345E+04  1.4488157389345E+04  1.4488157389345E+04  7.2440786946727E+03 
 4.9259735123383E+04  9.8519470246765E+04  9.8519470246766E+04  9.8519470246765E+04  9.8519470246766E+04  9.8519470246766E+04  9.8519470246765E+04  9.8519470246766E+04  9.8519470246765E+04  4.9259735123383E+04 
 5.6503813818055E+04  1.1300762763611E+05  1.1300762763611E+05  1.1300762763611E+05  1.1300762763611E+05  1.1300762763611E+05  1.1300762763611E+05  1.1300762763611E+05  1.1300762763611E+05  5.6503813818055E+04 
 3.5000000000000E-01  3.5000000000000E-01  3.5000000000000E-01  3.5000000000000E-01  3.5000000000000E-01  3.5000000000000E-01  3.5000000000000E-01  3.5000000000000E-01  3.5000000000000E-01  3.5000000000000E-01 
 6.6040000000000E+00  1.3208000000000E+01  1.3208000000000E+01  1.3208000000000E+01  1.3208000000000E+01  1.3208000000000E+01  1.3208000000000E+01  1.3208000000000E+01  1.3208000000000E+01  6.6040000000000E+00 
-2.5245701489900E-01 -2.5246659296092E-01 -2.5249748586072E-01 -2.5254970401524E-01 -2.5262326504262E-01 -2.5271819377124E-01 -2.5283452225756E-01 -2.5297228980912E-01 -2.5313154301289E-01 -2.5331233576872E-01 
 3.3866666666667E-05  6.7733333333333E-05  6.7733333333334E-05  6.7733333333333E-05  6.7733333333334E-05  6.7733333333334E-05  6.7733333333333E-05  6.7733333333334E-05  6.7733333333333E-05  3.3866666666667E-05 
 2.6603001364272E+01  2.6603001364272E+01  2.6603001364272E+01  2.6603001364272E+01  2.6603001364272E+01  2.6603001364272E+01  2.6603001364272E+01  2.6603001364272E+01  2.6603001364272E+01  2.6603001364272E+01 
 1.7735334242822E+01  1.7735334242822E+01  1.7735334242822E+01  1.7735334242822E+01  1.7735334242822E+01  1.7735334242822E+01  1.7735334242822E+01  1.7735334242822E+01  1.7735334242822E+01  1.7735334242822E+01 
 4.1930486032886E-09  1.0270640807538E-08  2.8829160563160E-08  6.0198566473685E-08  1.0438945572097E-07  1.6141676219034E-07  2.3129976734528E-07  3.1406211413277E-07  4.0973182385284E-07  4.6079729635912E-07 
 1.3976874749903E-01  3.4235581112424E-01  9.6097514670748E-01  2.0066254183031E+00  3.4796598711809E+00  5.3805763166080E+00  7.7100174891552E+00  1.0468771508349E+01  1.3657772445592E+01  1.5359960544001E+01 
 8.6726858825800E-02  7.7134293353211E-02  5.9145806404929E-02  4.3550489811834E-02  3.0348512806927E-02  1.9540854186465E-02  1.1129303709637E-02  5.1164640767127E-03  1.5057534833675E-03  3.0140877907657E-04 
 5.3041888673234E-02  2.6522151777102E-01  9.0182934030255E-01  1.9630749284913E+00  3.4493113583740E+00  5.3610354624215E+00  7.6988881854455E+00  1.0463655044272E+01  1.3656266692108E+01  1.5359659135222E+01 
 0.0000000000000E+00  0.0000000000000E+00  0.0000000000000E+00  0.0000000000000E+00  0.0000000000000E+00  0.0000000000000E+00  0.0000000000000E+00  0.0000000000000E+00  0.0000000000000E+00  0.0000000000000E+00 
 0.0000000000000E+00  0.0000000000000E+00  0.0000000000000E+00  0.0000000000000E+00  0.0000000000000E+00  0.0000000000000E+00  0.0000000000000E+00  0.0000000000000E+00  0.0000000000000E+00  0.0000000000000E+00 
 0.0000000000000E+00  0.0000000000000E+00  0.0000000000000E+00  0.0000000000000E+00  0.0000000000000E+00  0.0000000000000E+00  0.0000000000000E+00  0.0000000000000E+00  0.0000000000000E+00  0.0000000000000E+00 
ZONE T = "CATH, 4.0000E-08", I = 10, SOLUTIONTIME = 4.000000E-08
ZONETYPE = ORDERED
DATAPACKING = BLOCK
STRANDID = 3
 1.2700000000000E-03  1.3377333333333E-03  1.4054666666667E-03  1.4732000000000E-03  1.5409333333333E-03  1.6086666666667E-03  1.6764000000000E-03  1.7441333333333E-03  1.8118666666667E-03  1.8796000000000E-03 
 1.9706239988419E-08  1.7391051578640E-08  1.5075579827992E-08  1.2758902731860E-08  1.0442277370412E-08  8.1247813497275E-09  5.8058551896015E-09  3.4853022570396E-09  1.1640151149482E-09  2.5424540945095E-12 
 9.2000000000127E-01  9.2000000000359E-01  9.2000000000359E-01  9.2000000000360E-01  9.2000000000360E-01  9.2000000000360E-01  9.2000000000360E-01  9.2000000000360E-01  9.2000000000360E-01  9.2000000000361E-01 
 3.9999999999365E-02  3.9999999998203E-02  3.9999999998203E-02  3.9999999998202E-02  3.9999999998202E-02  3.9999999998201E-02  3.9999999998200E-02  3.9999999998199E-02  3.9999999998198E-02  3.9999999998197E-02 
 3.9999999999365E-02  3.9999999998203E-02  3.9999999998203E-02  3.9999999998202E-02  3.9999999998202E-02  3.9999999998201E-02  3.9999999998200E-02  3.9999999998199E-02  3.9999999998198E-02  3.9999999998197E-02 
 2.9165655457735E-02  2.9165448446555E-02  2.9165265761476E-02  2.9165107405475E-02  2.9164973383585E-02  2.9164863702891E-02  2.9164778372543E-02  2.9164717403747E-02  2.9164680809779E-02  2.9164668605983E-02 
 3.8001746429253E+00  3.8001724880262E+00  3.8001660231657E+00  3.8001552478163E+00  3.8001401610865E+00  3.8001207617205E+00  3.8000970480979E+00  3.8000690182326E+00  3.8000366697729E+00  3.8000000000000E+00 
 3.7710089874675E+00  3.7710070395797E+00  3.7710007574042E+00  3.7709901404108E+00  3.7709751877029E+00  3.7709558980176E+00  3.7709322697253E+00  3.7709043008289E+00  3.7708719889631E+00  3.7708353313940E+00 
 3.9714142713282E+00  3.9714142713274E+00  3.9714142713274E+00  3.9714142713274E+00  3.9714142713274E+00  3.9714142713274E+00  3.9714142713274E+00  3.9714142713274E+00  3.9714142713274E+00  3.9714142713274E+00 
-2.0040528386064E-01 -2.0040723174772E-01 -2.0041351392318E-01 -2.0042413091663E-01 -2.0043908362453E-01 -2.0045837330978E-01 -2.0048200160208E-01 -2.0050997049853E-01 -2.0054228236430E-01 -2.0057893993340E-01 
-1.6672261263764E+00 -3.3345787597705E+00 -3.3349867931909E+00 -3.3356764905758E+00 -3.3366480846255E+00 -3.3379019032732E+00 -3.3394383699203E+00 -3.3412580037413E+00 -3.3433614200564E+00 -1.6728746653877E+00 