TITLE = "Solution on Domain BulkDomain1D_2"
VARIABLES = "x [m]"  
"Vel_axial" 	"MF_sp(ECDMC)" 	"MF_sp(Li+)" 	"MF_sp(PF6-)" 	"Volt(Electroly)" 	"Volt(CathodeVo)" 	
"Potential Drop Electrode-Electrolyte [V]" 	"Surf_0 Equilibrium Potential Drop Electrode-Electrolyte [V]" 	"Overpotential_0 [V]" 	"Current Source [A/m^2]" 	"Li+ flux [kmol/m^2/s]" 	"Electrolyte Current [A/m^2]" 	"Electrode Current [A/m^2]" 	
"CV Capacity discharged [A-s/m^2]" 	"Depth of discharge in CV [A-s/m^2]" 	"CV Capacity remaining [A-s/m^2]" 	"Initial CV capacity [A-s/m^2]" 	"Porosity []" 	"Surface Area [m2/m2] (area per area)" 	"Specific current (per particle area) [A/m^2]" 	"Control volume thickness [m]" 	
"MoleDens LiCoO2 [kmol/m^3]" 	"MoleDens CoO2 [kmol/m^3]" 	"qHeat_accum [J/m3]" 	"qHeat_step [W/m3]" 	"Joule_Lyte [W/m3]" 	"Joule_Solid [W/m3]" 	"electrodHeat [W/m3]" 	"OverpotHeat [W/m3]" 	"deltaSHeat [W/m3]" 	

ZONE T = "CATH, 0.0000E+00", I = 10, SOLUTIONTIME = 0.000000E+00
ZONETYPE = ORDERED
DATAPACKING = BLOCK
STRANDID = 3
 1.2700000000000E-03  1.3377333333333E-03  1.4054666666667E-03  1.4732000000000E-03  1.5409333333333E-03  1.6086666666667E-03  1.6764000000000E-03  1.7441333333333E-03  1.8118666666667E-03  1.8796000000000E-03 
 0.0000000000000E+00  0.0000000000000E+00  0.0000000000000E+00  0.0000000000000E+00  0.0000000000000E+00  0.0000000000000E+00  0.0000000000000E+00  0.0000000000000E+00  0.0000000000000E+00  0.0000000000000E+00 
 9.2000000000000E-01  9.2000000000000E-01  9.2000000000000E-01  9.2000000000000E-01  9.2000000000000E-01  9.2000000000000E-01  9.2000000000000E-01  9.2000000000000E-01  9.2000000000000E-01  9.2000000000000E-01 
 4.0000000000000E-02  4.0000000000000E-02  4.0000000000000E-02  4.0000000000000E-02  4.0000000000000E-02  4.0000000000000E-02  4.0000000000000E-02  4.0000000000000E-02  4.0000000000000E-02  4.0000000000000E-02 
 4.0000000000000E-02  4.0000000000000E-02  4.0000000000000E-02  4.0000000000000E-02  4.0000000000000E-02  4.0000000000000E-02  4.0000000000000E-02  4.0000000000000E-02  4.0000000000000E-02  4.0000000000000E-02 
-7.0000000000000E-02 -7.0000000000000E-02 -7.0000000000000E-02 -7.0000000000000E-02 -7.0000000000000E-02 -7.0000000000000E-02 -7.0000000000000E-02 -7.0000000000000E-02 -7.0000000000000E-02 -7.0000000000000E-02 
 3.8000000000000E+00  3.8000000000000E+00  3.8000000000000E+00  3.8000000000000E+00  3.8000000000000E+00  3.8000000000000E+00  3.8000000000000E+00  3.8000000000000E+00  3.8000000000000E+00  3.8000000000000E+00 
 3.8700000000000E+00  3.8700000000000E+00  3.8700000000000E+00  3.8700000000000E+00  3.8700000000000E+00  3.8700000000000E+00  3.8700000000000E+00  3.8700000000000E+00  3.8700000000000E+00  3.8700000000000E+00 
 3.9714142713289E+00  3.9714142713289E+00  3.9714142713289E+00  3.9714142713289E+00  3.9714142713289E+00  3.9714142713289E+00  3.9714142713289E+00  3.9714142713289E+00  3.9714142713289E+00  3.9714142713289E+00 
-1.0141427132889E-01 -1.0141427132889E-01 -1.0141427132889E-01 -1.0141427132889E-01 -1.0141427132889E-01 -1.0141427132889E-01 -1.0141427132889E-01 -1.0141427132889E-01 -1.0141427132889E-01 -1.0141427132889E-01 
-2.3826357195711E-01 -4.7652714391422E-01 -4.7652714391423E-01 -4.7652714391422E-01 -4.7652714391423E-01 -4.7652714391423E-01 -4.7652714391422E-01 -4.7652714391423E-01 -4.7652714391422E-01 -2.3826357195711E-01 
-0.0000000000000E+00 -0.0000000000000E+00 -0.0000000000000E+00 -0.0000000000000E+00 -0.0000000000000E+00 -0.0000000000000E+00 -0.0000000000000E+00 -0.0000000000000E+00 -0.0000000000000E+00 -0.0000000000000E+00 
 2.3826357195711E-01  0.0000000000000E+00  0.0000000000000E+00  0.0000000000000E+00  0.0000000000000E+00  0.0000000000000E+00  0.0000000000000E+00  0.0000000000000E+00  0.0000000000000E+00  0.0000000000000E+00 
 0.0000000000000E+00 -0.0000000000000E+00 -0.0000000000000E+00 -0.0000000000000E+00 -0.0000000000000E+00 -0.0000000000000E+00 -0.0000000000000E+00 -0.0000000000000E+00 -0.0000000000000E+00  2.3826357195711E-01 
-0.0000000000000E+00 -0.0000000000000E+00 -0.0000000000000E+00 -0.0000000000000E+00 -0.0000000000000E+00 -0.0000000000000E+00 -0.0000000000000E+00 -0.0000000000000E+00 -0.0000000000000E+00 -0.0000000000000E+00 
 7.2440786946225E+03  1.4488157389245E+04  1.4488157389245E+04  1.4488157389245E+04  1.4488157389245E+04  1.4488157389245E+04  1.4488157389245E+04  1.4488157389245E+04  1.4488157389245E+04  7.2440786946225E+03 
 4.9259735123433E+04  9.8519470246865E+04  9.8519470246866E+04  9.8519470246865E+04  9.8519470246866E+04  9.8519470246866E+04  9.8519470246865E+04  9.8519470246866E+04  9.8519470246865E+04  4.9259735123433E+04 
 5.6503813818055E+04  1.1300762763611E+05  1.1300762763611E+05  1.1300762763611E+05  1.1300762763611E+05  1.1300762763611E+05  1.1300762763611E+05  1.1300762763611E+05  1.1300762763611E+05  5.6503813818055E+04 
 3.5000000000000E-01  3.5000000000000E-01  3.5000000000000E-01  3.5000000000000E-01  3.5000000000000E-01  3.5000000000000E-01  3.5000000000000E-01  3.5000000000000E-01  3.5000000000000E-01  3.5000000000000E-01 
 6.6040000000000E+00  1.3208000000000E+01  1.3208000000000E+01  1.3208000000000E+01  1.3208000000000E+01  1.3208000000000E+01  1.3208000000000E+01  1.3208000000000E+01  1.3208000000000E+01  6.6040000000000E+00 
-3.6078675341780E-02 -3.6078675341780E-02 -3.6078675341780E-02 -3.6078675341780E-02 -3.6078675341780E-02 -3.6078675341780E-02 -3.6078675341780E-02 -3.6078675341780E-02 -3.6078675341780E-02 -3.6078675341780E-02 
 3.3866666666667E-05  6.7733333333333E-05  6.7733333333334E-05  6.7733333333333E-05  6.7733333333334E-05  6.7733333333334E-05  6.7733333333333E-05  6.7733333333334E-05  6.7733333333333E-05  3.3866666666667E-05 
 2.6603001364256E+01  2.6603001364256E+01  2.6603001364256E+01  2.6603001364256E+01  2.6603001364256E+01  2.6603001364256E+01  2.6603001364256E+01  2.6603001364256E+01  2.6603001364256E+01  2.6603001364256E+01 
 1.7735334242838E+01  1.7735334242838E+01  1.7735334242838E+01  1.7735334242838E+01  1.7735334242838E+01  1.7735334242838E+01  1.7735334242838E+01  1.7735334242838E+01  1.7735334242838E+01  1.7735334242838E+01 
 0.0000000000000E+00  0.0000000000000E+00  0.0000000000000E+00  0.0000000000000E+00  0.0000000000000E+00  0.0000000000000E+00  0.0000000000000E+00  0.0000000000000E+00  0.0000000000000E+00  0.0000000000000E+00 
 0.0000000000000E+00  0.0000000000000E+00  0.0000000000000E+00  0.0000000000000E+00  0.0000000000000E+00  0.0000000000000E+00  0.0000000000000E+00  0.0000000000000E+00  0.0000000000000E+00  0.0000000000000E+00 
 0.0000000000000E+00  0.0000000000000E+00  0.0000000000000E+00  0.0000000000000E+00  0.0000000000000E+00  0.0000000000000E+00  0.0000000000000E+00  0.0000000000000E+00  0.0000000000000E+00  0.0000000000000E+00 
 0.0000000000000E+00  0.0000000000000E+00  0.0000000000000E+00  0.0000000000000E+00  0.0000000000000E+00  0.0000000000000E+00  0.0000000000000E+00  0.0000000000000E+00  0.0000000000000E+00  0.0000000000000E+00 
 0.0000000000000E+00  0.0000000000000E+00  0.0000000000000E+00  0.0000000000000E+00  0.0000000000000E+00  0.0000000000000E+00  0.0000000000000E+00  0.0000000000000E+00  0.0000000000000E+00  0.0000000000000E+00 
 0.0000000000000E+00  0.0000000000000E+00  0.0000000000000E+00  0.0000000000000E+00  0.0000000000000E+00  0.0000000000000E+00  0.0000000000000E+00  0.0000000000000E+00  0.0000000000000E+00  0.0000000000000E+00 
 0.0000000000000E+00  0.0000000000000E+00  0.0000000000000E+00  0.0000000000000E+00  0.0000000000000E+00  0.0000000000000E+00  0.0000000000000E+00  0.0000000000000E+00  0.0000000000000E+00  0.0000000000000E+00 
ZONE T = "CATH, 1.0000E-08", I = 10, SOLUTIONTIME = 1.000000E-08
ZONETYPE = ORDERED
DATAPACKING = BLOCK
STRANDID = 3
 1.2700000000000E-03  1.3377333333333E-03  1.4054666666667E-03  1.4732000000000E-03  1.5409333333333E-03  1.6086666666667E-03  1.6764000000000E-03  1.7441333333333E-03  1.8118666666667E-03  1.8796000000000E-03 
 1.9680514718552E-08  1.7367096814070E-08  1.5053395013844E-08  1.2739213417427E-08  1.0424355969391E-08  8.1086263958761E-09  5.7918281410155E-09  3.4737643031617E-09  1.1542375708831E-09 -6.3561352148420E-12 
 9.2000000000032E-01  9.2000000000090E-01  9.2000000000090E-01  9.2000000000090E-01  9.2000000000090E-01  9.2000000000090E-01  9.2000000000090E-01  9.2000000000090E-01  9.2000000000090E-01  9.2000000000090E-01 
 3.9999999999841E-02  3.9999999999551E-02  3.9999999999551E-02  3.9999999999551E-02  3.9999999999551E-02  3.9999999999551E-02  3.9999999999550E-02  3.9999999999550E-02  3.9999999999550E-02  3.9999999999550E-02 
 3.9999999999841E-02  3.9999999999551E-02  3.9999999999551E-02  3.9999999999551E-02  3.9999999999551E-02  3.9999999999551E-02  3.9999999999550E-02  3.9999999999550E-02  3.9999999999550E-02  3.9999999999550E-02 
 2.9180542362519E-02  2.9180335541467E-02  2.9180153024100E-02  2.9179994813402E-02  2.9179860914413E-02  2.9179751334233E-02  2.9179666082024E-02  2.9179605169013E-02  2.9179568608496E-02  2.9179556415842E-02 
 3.8001744822352E+00  3.8001723293221E+00  3.8001658704191E+00  3.8001551049976E+00  3.8001400321646E+00  3.8001206506621E+00  3.8000969588669E+00  3.8000689547898E+00  3.8000366360751E+00  3.8000000000000E+00 
 3.7709939398726E+00  3.7709919937807E+00  3.7709857173950E+00  3.7709751101842E+00  3.7709601712502E+00  3.7709408993279E+00  3.7709172927849E+00  3.7708893496208E+00  3.7708570674666E+00  3.7708204435842E+00 
 3.9714142713287E+00  3.9714142713285E+00  3.9714142713285E+00  3.9714142713285E+00  3.9714142713285E+00  3.9714142713285E+00  3.9714142713285E+00  3.9714142713285E+00  3.9714142713285E+00  3.9714142713285E+00 
-2.0042033145607E-01 -2.0042227754787E-01 -2.0042855393356E-01 -2.0043916114436E-01 -2.0045410007836E-01 -2.0047337200063E-01 -2.0049697854364E-01 -2.0052492170774E-01 -2.0055720386190E-01 -2.0059382774436E-01 
-1.6677148275230E+00 -3.3355560824885E+00 -3.3359638591188E+00 -3.3366531224885E+00 -3.3376241051502E+00 -3.3388771348225E+00 -3.3404126346252E+00 -3.3422311233810E+00 -3.3443332159874E+00 -1.6733598119287E+00 
 1.4691707911989E-07  1.2965263397374E-07  1.1238620265025E-07  9.5116190751557E-08  7.7841135183114E-08  6.0559571225094E-08  4.3270032022023E-08  2.5971048177516E-08  8.6611472092738E-09  8.6611472092738E-09 
 3.0018376889614E+01  2.6684909040428E+01  2.3353198581179E+01  2.0020938233483E+01  1.6687845772892E+01  1.3353638707493E+01  1.0018034183930E+01  6.6807488965626E+00  3.3414989973461E+00  0.0000000000000E+00 
 0.0000000000000E+00  3.3314426169889E+00  6.6631530763459E+00  9.9954134241893E+00  1.3328505884444E+01  1.6662712950065E+01  1.9998317473914E+01  2.3335602760672E+01  2.6674852660122E+01  3.0018364093086E+01 
 1.6677148275230E-08  3.3355560824885E-08  3.3359638591188E-08  3.3366531224885E-08  3.3376241051502E-08  3.3388771348225E-08  3.3404126346252E-08  3.3422311233810E-08  3.3443332159874E-08  1.6733598119287E-08 
 7.2440786946392E+03  1.4488157389278E+04  1.4488157389278E+04  1.4488157389278E+04  1.4488157389278E+04  1.4488157389278E+04  1.4488157389278E+04  1.4488157389278E+04  1.4488157389278E+04  7.2440786946392E+03 
 4.9259735123416E+04  9.8519470246832E+04  9.8519470246832E+04  9.8519470246832E+04  9.8519470246832E+04  9.8519470246832E+04  9.8519470246832E+04  9.8519470246832E+04  9.8519470246832E+04  4.9259735123416E+04 
 5.6503813818055E+04  1.1300762763611E+05  1.1300762763611E+05  1.1300762763611E+05  1.1300762763611E+05  1.1300762763611E+05  1.1300762763611E+05  1.1300762763611E+05  1.1300762763611E+05  5.6503813818055E+04 
 3.5000000000000E-01  3.5000000000000E-01  3.5000000000000E-01  3.5000000000000E-01  3.5000000000000E-01  3.5000000000000E-01  3.5000000000000E-01  3.5000000000000E-01  3.5000000000000E-01  3.5000000000000E-01 
 6.6040000000000E+00  1.3208000000000E+01  1.3208000000000E+01  1.3208000000000E+01  1.3208000000000E+01  1.3208000000000E+01  1.3208000000000E+01  1.3208000000000E+01  1.3208000000000E+01  6.6040000000000E+00 
-2.5253101567580E-01 -2.5254058771113E-01 -2.5257146116890E-01 -2.5262364646339E-01 -2.5269716120156E-01 -2.5279203019553E-01 -2.5290828548040E-01 -2.5304596633714E-01 -2.5320511932067E-01 -2.5338579829326E-01 
 3.3866666666667E-05  6.7733333333333E-05  6.7733333333334E-05  6.7733333333333E-05  6.7733333333334E-05  6.7733333333334E-05  6.7733333333333E-05  6.7733333333334E-05  6.7733333333333E-05  3.3866666666667E-05 
 2.6603001364262E+01  2.6603001364262E+01  2.6603001364262E+01  2.6603001364262E+01  2.6603001364262E+01  2.6603001364262E+01  2.6603001364262E+01  2.6603001364262E+01  2.6603001364262E+01  2.6603001364262E+01 
 1.7735334242833E+01  1.7735334242833E+01  1.7735334242833E+01  1.7735334242833E+01  1.7735334242833E+01  1.7735334242833E+01  1.7735334242833E+01  1.7735334242833E+01  1.7735334242833E+01  1.7735334242833E+01 
 1.3951179040902E-09  3.4172562446638E-09  9.5920549913404E-09  2.0029304289345E-08  3.4732539500915E-08  5.3706742519181E-08  7.6958345234437E-08  1.0449523402040E-07  1.3632675524789E-07  1.5331743370608E-07 
 1.3951179040902E-01  3.4172562446638E-01  9.5920549913404E-01  2.0029304289345E+00  3.4732539500915E+00  5.3706742519181E+00  7.6958345234437E+00  1.0449523402040E+01  1.3632675524789E+01  1.5331743370608E+01 
 8.6567624478416E-02  7.6992698575873E-02  5.9037283694316E-02  4.3470625096824E-02  3.0292892456809E-02  1.9505065585708E-02  1.1108935784379E-02  5.1071077732652E-03  1.5030021941968E-03  3.0085867447629E-04 
 5.2944165930605E-02  2.6473292589051E-01  9.0016821543972E-01  1.9594598038377E+00  3.4429610576346E+00  5.3511691863324E+00  7.6847255876593E+00  1.0444416294267E+01  1.3631172522595E+01  1.5331442511934E+01 
 0.0000000000000E+00  0.0000000000000E+00  0.0000000000000E+00  0.0000000000000E+00  0.0000000000000E+00  0.0000000000000E+00  0.0000000000000E+00  0.0000000000000E+00  0.0000000000000E+00  0.0000000000000E+00 
 0.0000000000000E+00  0.0000000000000E+00  0.0000000000000E+00  0.0000000000000E+00  0.0000000000000E+00  0.0000000000000E+00  0.0000000000000E+00  0.0000000000000E+00  0.0000000000000E+00  0.0000000000000E+00 
 0.0000000000000E+00  0.0000000000000E+00  0.0000000000000E+00  0.0000000000000E+00  0.0000000000000E+00  0.0000000000000E+00  0.0000000000000E+00  0.0000000000000E+00  0.0000000000000E+00  0.0000000000000E+00 
ZONE T = "CATH, 2.0000E-08", I = 10, SOLUTIONTIME = 2.000000E-08
ZONETYPE = ORDERED
DATAPACKING = BLOCK
STRANDID = 3
 1.2700000000000E-03  1.3377333333333E-03  1.4054666666667E-03  1.4732000000000E-03  1.5409333333333E-03  1.6086666666667E-03  1.6764000000000E-03  1.7441333333333E-03  1.8118666666667E-03  1.8796000000000E-03 
 1.9697886337206E-08  1.7382740433508E-08  1.5067674419463E-08  1.2751766305406E-08  1.0435183563296E-08  8.1170038142272E-09  5.7981204239695E-09  3.4779735669250E-09  1.1563661980130E-09 -5.4481159166172E-12 
 9.2000000000063E-01  9.2000000000180E-01  9.2000000000180E-01  9.2000000000180E-01  9.2000000000180E-01  9.2000000000180E-01  9.2000000000180E-01  9.2000000000180E-01  9.2000000000180E-01  9.2000000000180E-01 
 3.9999999999683E-02  3.9999999999102E-02  3.9999999999102E-02  3.9999999999102E-02  3.9999999999101E-02  3.9999999999101E-02  3.9999999999100E-02  3.9999999999100E-02  3.9999999999099E-02  3.9999999999099E-02 
 3.9999999999683E-02  3.9999999999102E-02  3.9999999999102E-02  3.9999999999102E-02  3.9999999999101E-02  3.9999999999101E-02  3.9999999999100E-02  3.9999999999100E-02  3.9999999999099E-02  3.9999999999099E-02 
 2.9165953672576E-02  2.9165746665209E-02  2.9165563983498E-02  2.9165405630419E-02  2.9165271611002E-02  2.9165161932335E-02  2.9165076603564E-02  2.9165015635896E-02  2.9164979042606E-02  2.9164966839037E-02 
 3.8001746397140E+00  3.8001724848545E+00  3.8001660201127E+00  3.8001552449611E+00  3.8001401585083E+00  3.8001207594988E+00  3.8000970463120E+00  3.8000690169622E+00  3.8000366690977E+00  3.8000000000000E+00 
 3.7710086860414E+00  3.7710067381893E+00  3.7710004561292E+00  3.7709898393306E+00  3.7709748868973E+00  3.7709555975664E+00  3.7709319697084E+00  3.7709040013263E+00  3.7708716900551E+00  3.7708350331610E+00 
 3.9714142713285E+00  3.9714142713282E+00  3.9714142713282E+00  3.9714142713282E+00  3.9714142713282E+00  3.9714142713282E+00  3.9714142713282E+00  3.9714142713282E+00  3.9714142713282E+00  3.9714142713282E+00 
-2.0040558528710E-01 -2.0040753313881E-01 -2.0041381519897E-01 -2.0042443199751E-01 -2.0043938443083E-01 -2.0045867376172E-01 -2.0048230161976E-01 -2.0051027000189E-01 -2.0054258127310E-01 -2.0057923816719E-01 
-1.6672359144152E+00 -3.3345983343168E+00 -3.3350063626392E+00 -3.3356960514018E+00 -3.3366676332952E+00 -3.3379214362390E+00 -3.3394578836175E+00 -3.3412774945836E+00 -3.3433808844322E+00 -1.6728843825218E+00 
 1.4704956114278E-07  1.2976937742855E-07  1.1248734441065E-07  9.5201737564154E-08  7.7911096179938E-08  6.0613957849055E-08  4.3308857951356E-08  2.5994329209990E-08  8.6689011138357E-09  8.6689011138357E-09 
 3.0043437538921E+01  2.6708942850708E+01  2.3374221302904E+01  2.0038950933205E+01  1.6702849982948E+01  1.3365636412978E+01  1.0027027808666E+01  6.6867412845507E+00  3.3444933870872E+00  0.0000000000000E+00 
 0.0000000000000E+00  3.3344542997609E+00  6.6691758476546E+00  1.0004446217538E+01  1.3340547167775E+01  1.6677760737611E+01  2.0016369341835E+01  2.3356655866123E+01  2.6698903763584E+01  3.0043437908294E+01 
 3.3349507419382E-08  6.6701544168054E-08  6.6709702217580E-08  6.6723491738903E-08  6.6742917384453E-08  6.6767985710615E-08  6.6798705182427E-08  6.6835086179646E-08  6.6877141004197E-08  3.3462441944505E-08 
 7.2440786946558E+03  1.4488157389312E+04  1.4488157389312E+04  1.4488157389312E+04  1.4488157389312E+04  1.4488157389312E+04  1.4488157389312E+04  1.4488157389312E+04  1.4488157389312E+04  7.2440786946559E+03 
 4.9259735123400E+04  9.8519470246798E+04  9.8519470246799E+04  9.8519470246798E+04  9.8519470246799E+04  9.8519470246799E+04  9.8519470246798E+04  9.8519470246799E+04  9.8519470246798E+04  4.9259735123399E+04 
 5.6503813818055E+04  1.1300762763611E+05  1.1300762763611E+05  1.1300762763611E+05  1.1300762763611E+05  1.1300762763611E+05  1.1300762763611E+05  1.1300762763611E+05  1.1300762763611E+05  5.6503813818055E+04 
 3.5000000000000E-01  3.5000000000000E-01  3.5000000000000E-01  3.5000000000000E-01  3.5000000000000E-01  3.5000000000000E-01  3.5000000000000E-01  3.5000000000000E-01  3.5000000000000E-01  3.5000000000000E-01 
 6.6040000000000E+00  1.3208000000000E+01  1.3208000000000E+01  1.3208000000000E+01  1.3208000000000E+01  1.3208000000000E+01  1.3208000000000E+01  1.3208000000000E+01  1.3208000000000E+01  6.6040000000000E+00 
-2.5245849703440E-01 -2.5246807497856E-01 -2.5249896749237E-01 -2.5255118499408E-01 -2.5262474510109E-01 -2.5271967264075E-01 -2.5283599966819E-01 -2.5297376548937E-01 -2.5313301668930E-01 -2.5331380716563E-01 
 3.3866666666667E-05  6.7733333333333E-05  6.7733333333334E-05  6.7733333333333E-05  6.7733333333334E-05  6.7733333333334E-05  6.7733333333333E-05  6.7733333333334E-05  6.7733333333333E-05  3.3866666666667E-05 
 2.6603001364267E+01  2.6603001364267E+01  2.6603001364267E+01  2.6603001364267E+01  2.6603001364267E+01  2.6603001364267E+01  2.6603001364267E+01  2.6603001364267E+01  2.6603001364267E+01  2.6603001364267E+01 
 1.7735334242827E+01  1.7735334242827E+01  1.7735334242827E+01  1.7735334242827E+01  1.7735334242827E+01  1.7735334242827E+01  1.7735334242827E+01  1.7735334242827E+01  1.7735334242827E+01  1.7735334242827E+01 
 2.7927539485442E-09  6.8406885586712E-09  1.9201453526291E-08  4.0094821464340E-08  6.9527859845379E-08  1.0751052819712E-07  1.5405568514048E-07  2.0917909748870E-07  2.7289945143049E-07  3.0691138241616E-07 
 1.3976360444540E-01  3.4234323140074E-01  9.6093985349506E-01  2.0065517174995E+00  3.4795320344464E+00  5.3803785677938E+00  7.7097339906042E+00  1.0468386346830E+01  1.3657269618260E+01  1.5359394871008E+01 
 8.6723662816575E-02  7.7131450221130E-02  5.9143625156175E-02  4.3548882710942E-02  3.0347392095103E-02  1.9540132010793E-02  1.1128892044897E-02  5.1162746455090E-03  1.5056976808032E-03  3.0139759378406E-04 
 5.3039941628826E-02  2.6521178117961E-01  9.0179622833888E-01  1.9630028347885E+00  3.4491846423513E+00  5.3608384357830E+00  7.6986050985593E+00  1.0463270072185E+01  1.3655763920579E+01  1.5359093473414E+01 
 0.0000000000000E+00  0.0000000000000E+00  0.0000000000000E+00  0.0000000000000E+00  0.0000000000000E+00  0.0000000000000E+00  0.0000000000000E+00  0.0000000000000E+00  0.0000000000000E+00  0.0000000000000E+00 
 0.0000000000000E+00  0.0000000000000E+00  0.0000000000000E+00  0.0000000000000E+00  0.0000000000000E+00  0.0000000000000E+00  0.0000000000000E+00  0.0000000000000E+00  0.0000000000000E+00  0.0000000000000E+00 
 0.0000000000000E+00  0.0000000000000E+00  0.0000000000000E+00  0.0000000000000E+00  0.0000000000000E+00  0.0000000000000E+00  0.0000000000000E+00  0.0000000000000E+00  0.0000000000000E+00  0.0000000000000E+00 
ZONE T = "CATH, 3.0000E-08", I = 10, SOLUTIONTIME = 3.000000E-08
ZONETYPE = ORDERED
DATAPACKING = BLOCK
STRANDID = 3
 1.2700000000000E-03  1.3377333333333E-03  1.4054666666667E-03  1.4732000000000E-03  1.5409333333333E-03  1.6086666666667E-03  1.6764000000000E-03  1.7441333333333E-03  1.8118666666667E-03  1.8796000000000E-03 
 1.9710583243444E-08  1.7394627681381E-08  1.5079115172038E-08  1.2762397281008E-08  1.0445004658635E-08  8.1271045197805E-09  5.8077741620635E-09  3.4875433534365E-09  1.1658518113182E-09  4.1768888697611E-12 
 9.2000000000095E-01  9.2000000000269E-01  9.2000000000270E-01  9.2000000000270E-01  9.2000000000270E-01  9.2000000000270E-01  9.2000000000270E-01  9.2000000000270E-01  9.2000000000270E-01  9.2000000000270E-01 
 3.9999999999524E-02  3.9999999998653E-02  3.9999999998652E-02  3.9999999998652E-02  3.9999999998652E-02  3.9999999998651E-02  3.9999999998651E-02  3.9999999998650E-02  3.9999999998649E-02  3.9999999998648E-02 
 3.9999999999524E-02  3.9999999998653E-02  3.9999999998652E-02  3.9999999998652E-02  3.9999999998652E-02  3.9999999998651E-02  3.9999999998651E-02  3.9999999998650E-02  3.9999999998649E-02  3.9999999998648E-02 
 2.9165369696875E-02  2.9165162682039E-02  2.9164979993733E-02  2.9164821634933E-02  2.9164687610671E-02  2.9164577928036E-02  2.9164492596175E-02  2.9164431626298E-02  2.9164395031680E-02  2.9164382827667E-02 
 3.8001746460029E+00  3.8001724910659E+00  3.8001660260917E+00  3.8001552505526E+00  3.8001401635573E+00  3.8001207638498E+00  3.8000970498095E+00  3.8000690194502E+00  3.8000366704200E+00  3.8000000000000E+00 
 3.7710092763060E+00  3.7710073283839E+00  3.7710010460979E+00  3.7709904289177E+00  3.7709754759466E+00  3.7709561859218E+00  3.7709325572133E+00  3.7709045878239E+00  3.7708722753884E+00  3.7708356171723E+00 
 3.9714142713283E+00  3.9714142713278E+00  3.9714142713278E+00  3.9714142713278E+00  3.9714142713278E+00  3.9714142713278E+00  3.9714142713278E+00  3.9714142713278E+00  3.9714142713278E+00  3.9714142713278E+00 
-2.0040499502237E-01 -2.0040694294389E-01 -2.0041322522984E-01 -2.0042384241009E-01 -2.0043879538115E-01 -2.0045808540600E-01 -2.0048171411449E-01 -2.0050968350385E-01 -2.0054199593943E-01 -2.0057865415545E-01 
-1.6672167471710E+00 -3.3345600028977E+00 -3.3349680412044E+00 -3.3356577468532E+00 -3.3366293525539E+00 -3.3378831862525E+00 -3.3394196713672E+00 -3.3412393270933E+00 -3.3433427687750E+00 -1.6728653541750E+00 
 1.4705500007412E-07  1.2977406259442E-07  1.1249140803861E-07  9.5205179110869E-08  7.7913914870654E-08  6.0616152698401E-08  4.3310427746775E-08  2.5995272509700E-08  8.6692162784949E-09  8.6692162784949E-09 
 3.0044442342490E+01  2.6709906883195E+01  2.3375065426452E+01  2.0039675062734E+01  1.6703453991001E+01  1.3366120129533E+01  1.0027391021374E+01  6.6869837382614E+00  3.3446147843211E+00  0.0000000000000E+00 
 0.0000000000000E+00  3.3345741651951E+00  6.6694156216435E+00  1.0004805985291E+01  1.3341027057279E+01  1.6678360918598E+01  2.0017090026815E+01  2.3357497310037E+01  2.6699866263808E+01  3.0044441988038E+01 
 5.0021674891092E-08  1.0004714419703E-07  1.0005938262962E-07  1.0008006920744E-07  1.0010921090999E-07  1.0014681757314E-07  1.0019290189610E-07  1.0024747945058E-07  1.0031056869195E-07  5.0191095486256E-08 
 7.2440786946725E+03  1.4488157389345E+04  1.4488157389345E+04  1.4488157389345E+04  1.4488157389345E+04  1.4488157389345E+04  1.4488157389345E+04  1.4488157389345E+04  1.4488157389345E+04  7.2440786946727E+03 
 4.9259735123383E+04  9.8519470246765E+04  9.8519470246766E+04  9.8519470246765E+04  9.8519470246766E+04  9.8519470246766E+04  9.8519470246765E+04  9.8519470246766E+04  9.8519470246765E+04  4.9259735123383E+04 
 5.6503813818055E+04  1.1300762763611E+05  1.1300762763611E+05  1.1300762763611E+05  1.1300762763611E+05  1.1300762763611E+05  1.1300762763611E+05  1.1300762763611E+05  1.1300762763611E+05  5.6503813818055E+04 
 3.5000000000000E-01  3.5000000000000E-01  3.5000000000000E-01  3.5000000000000E-01  3.5000000000000E-01  3.5000000000000E-01  3.5000000000000E-01  3.5000000000000E-01  3.5000000000000E-01  3.5000000000000E-01 
 6.6040000000000E+00  1.3208000000000E+01  1.3208000000000E+01  1.3208000000000E+01  1.3208000000000E+01  1.3208000000000E+01  1.3208000000000E+01  1.3208000000000E+01  1.3208000000000E+01  6.6040000000000E+00 
-2.5245559466551E-01 -2.5246517284205E-01 -2.5249606611178E-01 -2.5254828489198E-01 -2.5262184680148E-01 -2.5271677666963E-01 -2.5283310655415E-01 -2.5297087576418E-01 -2.5313013088847E-01 -2.5331092582905E-01 
 3.3866666666667E-05  6.7733333333333E-05  6.7733333333334E-05  6.7733333333333E-05  6.7733333333334E-05  6.7733333333334E-05  6.7733333333333E-05  6.7733333333334E-05  6.7733333333333E-05  3.3866666666667E-05 
 2.6603001364272E+01  2.6603001364272E+01  2.6603001364272E+01  2.6603001364272E+01  2.6603001364272E+01  2.6603001364272E+01  2.6603001364272E+01  2.6603001364272E+01  2.6603001364272E+01  2.6603001364272E+01 
 1.7735334242822E+01  1.7735334242822E+01  1.7735334242822E+01  1.7735334242822E+01  1.7735334242822E+01  1.7735334242822E+01  1.7735334242822E+01  1.7735334242822E+01  1.7735334242822E+01  1.7735334242822E+01 
 4.1904907143559E-09  1.0264367233126E-08  2.8811543241165E-08  6.0161781991276E-08  1.0432568373573E-07  1.6131818657270E-07  2.3115857706352E-07  3.1387050393949E-07  4.0948199495756E-07  4.6051640923711E-07 
 1.3977367658117E-01  3.4236786744548E-01  9.6100897148736E-01  2.0066960526936E+00  3.4797823890355E+00  5.3807658375583E+00  7.7102891923043E+00  1.0469140645079E+01  1.3658254352707E+01  1.5360502682095E+01 
 8.6729921872128E-02  7.7137018200809E-02  5.9147896904739E-02  4.3552030053933E-02  3.0349586895519E-02  1.9541546318541E-02  1.1129698249889E-02  5.1166456278714E-03  1.5058069644989E-03  3.0141949911308E-04 
 5.3043754709042E-02  2.6523084924467E-01  9.0186107458262E-01  1.9631440226397E+00  3.4494328021400E+00  5.3612242912397E+00  7.6991594940544E+00  1.0464023999451E+01  1.3656748545742E+01  1.5360201262596E+01 
 0.0000000000000E+00  0.0000000000000E+00  0.0000000000000E+00  0.0000000000000E+00  0.0000000000000E+00  0.0000000000000E+00  0.0000000000000E+00  0.0000000000000E+00  0.0000000000000E+00  0.0000000000000E+00 
 0.0000000000000E+00  0.0000000000000E+00  0.0000000000000E+00  0.0000000000000E+00  0.0000000000000E+00  0.0000000000000E+00  0.0000000000000E+00  0.0000000000000E+00  0.0000000000000E+00  0.0000000000000E+00 
 0.0000000000000E+00  0.0000000000000E+00  0.0000000000000E+00  0.0000000000000E+00  0.0000000000000E+00  0.0000000000000E+00  0.0000000000000E+00  0.0000000000000E+00  0.0000000000000E+00  0.0000000000000E+00 
ZONE T = "CATH, 4.0000E-08", I = 10, SOLUTIONTIME = 4.000000E-08
ZONETYPE = ORDERED
DATAPACKING = BLOCK
STRANDID = 3
 1.2700000000000E-03  1.3377333333333E-03  1.4054666666667E-03  1.4732000000000E-03  1.5409333333333E-03  1.6086666666667E-03  1.6764000000000E-03  1.7441333333333E-03  1.8118666666667E-03  1.8796000000000E-03 
 1.9701902688521E-08  1.7386348589966E-08  1.5070511149209E-08  1.2754557983950E-08  1.0437930134839E-08  8.1204316225359E-09  5.8015029659563E-09  3.4813107389501E-09  1.1600210880806E-09 -1.4528309112248E-12 
 9.2000000000127E-01  9.2000000000359E-01  9.2000000000359E-01  9.2000000000359E-01  9.2000000000360E-01  9.2000000000360E-01  9.2000000000360E-01  9.2000000000360E-01  9.2000000000360E-01  9.2000000000361E-01 
 3.9999999999365E-02  3.9999999998203E-02  3.9999999998203E-02  3.9999999998203E-02  3.9999999998202E-02  3.9999999998201E-02  3.9999999998201E-02  3.9999999998200E-02  3.9999999998198E-02  3.9999999998197E-02 
 3.9999999999365E-02  3.9999999998203E-02  3.9999999998203E-02  3.9999999998203E-02  3.9999999998202E-02  3.9999999998201E-02  3.9999999998201E-02  3.9999999998200E-02  3.9999999998198E-02  3.9999999998197E-02 
 2.9165638049358E-02  2.9165431037955E-02  2.9165248352679E-02  2.9165089996508E-02  2.9164955974473E-02  2.9164846293662E-02  2.9164760963221E-02  2.9164699994359E-02  2.9164663400351E-02  2.9164651196542E-02 
 3.8001746431127E+00  3.8001724882114E+00  3.8001660233439E+00  3.8001552479829E+00  3.8001401612370E+00  3.8001207618502E+00  3.8000970482021E+00  3.8000690183068E+00  3.8000366698123E+00  3.8000000000000E+00 
 3.7710090050633E+00  3.7710070571734E+00  3.7710007749912E+00  3.7709901579864E+00  3.7709752052625E+00  3.7709559155566E+00  3.7709322872389E+00  3.7709043183124E+00  3.7708720064120E+00  3.7708353488035E+00 
 3.9714142713282E+00  3.9714142713274E+00  3.9714142713274E+00  3.9714142713274E+00  3.9714142713274E+00  3.9714142713274E+00  3.9714142713274E+00  3.9714142713274E+00  3.9714142713274E+00  3.9714142713274E+00 
-2.0040526626483E-01 -2.0040721415399E-01 -2.0041349633618E-01 -2.0042411334100E-01 -2.0043906606494E-01 -2.0045835577087E-01 -2.0048198408851E-01 -2.0050995301498E-01 -2.0054226491546E-01 -2.0057892252396E-01 
-1.6672255550004E+00 -3.3345776171105E+00 -3.3349856508286E+00 -3.3356753487167E+00 -3.3366469434759E+00 -3.3379007630401E+00 -3.3394372308118E+00 -3.3412568659667E+00 -3.3433602838267E+00 -1.6728740981515E+00 