TITLE = "Solution on Domain BulkDomain1D_0"
VARIABLES = "x [m]"  
"Vel_axial" 
"MF_sp(ECDMC)" 
"MF_sp(Li+)" 
"MF_sp(PF6-)" 
"Volt(Electroly)" 
"Volt(AnodeVolt)" 
"Potential Drop Electrode-Electrolyte [V]" 
"Surf_0 Equilibrium Potential Drop Electrode-Electrolyte [V]" 
"Overpotential_0 [V]" 
"Current Source [A/m^2]" 
"Li+ flux [kmol/m^2/s]" 
"Electrolyte Current [A/m^2]" 
"Electrode Current [A/m^2]" 
"CV Capacity discharged [A-s/m^2]" 
"Depth of discharge in CV [A-s/m^2]" 
"CV Capacity remaining [A-s/m^2]" 
"Initial CV capacity [A-s/m^2]" 
"Porosity []" 
"Surface Area [m2/m2] (area per area)" 
"Specific current (per particle area) [A/m^2]" 
"Control volume thickness [m]" 
"MoleDens Li_C6-bulk [kmol/m^3]" 
"MoleDens V_C6-bulk [kmol/m^3]" 
"qHeat_accum [J/m3]" 
"qHeat_step [W/m3]" 
"Joule_Lyte [W/m3]" 
"Joule_Solid [W/m3]" 
"electrodHeat [W/m3]" 
"OverpotHeat [W/m3]" 
"deltaSHeat [W/m3]" 

ZONE T = "ANOD, 0.0000E+00", I = 10, SOLUTIONTIME = 0.000000E+00
ZONETYPE = ORDERED
DATAPACKING = BLOCK
STRANDID = 1
 0.0000000000000E+00  8.7488888888889E-05  1.7497777777778E-04  2.6246666666667E-04  3.4995555555556E-04  4.3744444444444E-04  5.2493333333333E-04  6.1242222222222E-04  6.9991111111111E-04  7.8740000000000E-04 
 0.0000000000000E+00  0.0000000000000E+00  0.0000000000000E+00  0.0000000000000E+00  0.0000000000000E+00  0.0000000000000E+00  0.0000000000000E+00  0.0000000000000E+00  0.0000000000000E+00  0.0000000000000E+00 
 9.2000000000000E-01  9.2000000000000E-01  9.2000000000000E-01  9.2000000000000E-01  9.2000000000000E-01  9.2000000000000E-01  9.2000000000000E-01  9.2000000000000E-01  9.2000000000000E-01  9.2000000000000E-01 
 4.0000000000000E-02  4.0000000000000E-02  4.0000000000000E-02  4.0000000000000E-02  4.0000000000000E-02  4.0000000000000E-02  4.0000000000000E-02  4.0000000000000E-02  4.0000000000000E-02  4.0000000000000E-02 
 4.0000000000000E-02  4.0000000000000E-02  4.0000000000000E-02  4.0000000000000E-02  4.0000000000000E-02  4.0000000000000E-02  4.0000000000000E-02  4.0000000000000E-02  4.0000000000000E-02  4.0000000000000E-02 
-7.0000000000000E-02 -7.0000000000000E-02 -7.0000000000000E-02 -7.0000000000000E-02 -7.0000000000000E-02 -7.0000000000000E-02 -7.0000000000000E-02 -7.0000000000000E-02 -7.0000000000000E-02 -7.0000000000000E-02 
 0.0000000000000E+00  0.0000000000000E+00  0.0000000000000E+00  0.0000000000000E+00  0.0000000000000E+00  0.0000000000000E+00  0.0000000000000E+00  0.0000000000000E+00  0.0000000000000E+00  0.0000000000000E+00 
 7.0000000000000E-02  7.0000000000000E-02  7.0000000000000E-02  7.0000000000000E-02  7.0000000000000E-02  7.0000000000000E-02  7.0000000000000E-02  7.0000000000000E-02  7.0000000000000E-02  7.0000000000000E-02 
-4.0906712753392E-02 -4.0906712753392E-02 -4.0906712753392E-02 -4.0906712753392E-02 -4.0906712753392E-02 -4.0906712753392E-02 -4.0906712753392E-02 -4.0906712753392E-02 -4.0906712753392E-02 -4.0906712753392E-02 
 1.1090671275339E-01  1.1090671275339E-01  1.1090671275339E-01  1.1090671275339E-01  1.1090671275339E-01  1.1090671275339E-01  1.1090671275339E-01  1.1090671275339E-01  1.1090671275339E-01  1.1090671275339E-01 
 3.0930240924008E+01  6.1860481848017E+01  6.1860481848017E+01  6.1860481848017E+01  6.1860481848016E+01  6.1860481848017E+01  6.1860481848017E+01  6.1860481848016E+01  6.1860481848016E+01  3.0930240924008E+01 
-0.0000000000000E+00 -0.0000000000000E+00 -0.0000000000000E+00 -0.0000000000000E+00 -0.0000000000000E+00 -0.0000000000000E+00 -0.0000000000000E+00 -0.0000000000000E+00 -0.0000000000000E+00 -0.0000000000000E+00 
 0.0000000000000E+00  0.0000000000000E+00  0.0000000000000E+00  0.0000000000000E+00  0.0000000000000E+00  0.0000000000000E+00  0.0000000000000E+00  0.0000000000000E+00  0.0000000000000E+00  3.0930240924008E+01 
 3.0930240924008E+01 -0.0000000000000E+00 -0.0000000000000E+00 -0.0000000000000E+00 -0.0000000000000E+00 -0.0000000000000E+00 -0.0000000000000E+00 -0.0000000000000E+00 -0.0000000000000E+00  0.0000000000000E+00 
 0.0000000000000E+00  0.0000000000000E+00  0.0000000000000E+00  0.0000000000000E+00  0.0000000000000E+00  0.0000000000000E+00  0.0000000000000E+00  0.0000000000000E+00  0.0000000000000E+00  0.0000000000000E+00 
 9.1448444543281E+04  1.8289688908656E+05  1.8289688908656E+05  1.8289688908656E+05  1.8289688908656E+05  1.8289688908656E+05  1.8289688908656E+05  1.8289688908656E+05  1.8289688908656E+05  9.1448444543281E+04 
 3.6579377817312E+05  7.3158755634625E+05  7.3158755634625E+05  7.3158755634625E+05  7.3158755634625E+05  7.3158755634625E+05  7.3158755634625E+05  7.3158755634625E+05  7.3158755634625E+05  3.6579377817312E+05 
 4.5724222271640E+05  9.1448444543281E+05  9.1448444543281E+05  9.1448444543281E+05  9.1448444543281E+05  9.1448444543281E+05  9.1448444543281E+05  9.1448444543281E+05  9.1448444543281E+05  4.5724222271640E+05 
 3.5000000000000E-01  3.5000000000000E-01  3.5000000000000E-01  3.5000000000000E-01  3.5000000000000E-01  3.5000000000000E-01  3.5000000000000E-01  3.5000000000000E-01  3.5000000000000E-01  3.5000000000000E-01 
 8.5301666666666E+00  1.7060333333333E+01  1.7060333333333E+01  1.7060333333333E+01  1.7060333333333E+01  1.7060333333333E+01  1.7060333333333E+01  1.7060333333333E+01  1.7060333333333E+01  8.5301666666666E+00 
 3.6259831879809E+00  3.6259831879809E+00  3.6259831879809E+00  3.6259831879809E+00  3.6259831879809E+00  3.6259831879809E+00  3.6259831879809E+00  3.6259831879809E+00  3.6259831879809E+00  3.6259831879809E+00 
 4.3744444444444E-05  8.7488888888889E-05  8.7488888888889E-05  8.7488888888889E-05  8.7488888888889E-05  8.7488888888889E-05  8.7488888888889E-05  8.7488888888889E-05  8.7488888888889E-05  4.3744444444444E-05 
 8.6666666666666E+01  8.6666666666666E+01  8.6666666666666E+01  8.6666666666666E+01  8.6666666666666E+01  8.6666666666666E+01  8.6666666666666E+01  8.6666666666666E+01  8.6666666666666E+01  8.6666666666666E+01 
 2.1666666666667E+01  2.1666666666667E+01  2.1666666666667E+01  2.1666666666667E+01  2.1666666666667E+01  2.1666666666667E+01  2.1666666666667E+01  2.1666666666667E+01  2.1666666666667E+01  2.1666666666667E+01 
 0.0000000000000E+00  0.0000000000000E+00  0.0000000000000E+00  0.0000000000000E+00  0.0000000000000E+00  0.0000000000000E+00  0.0000000000000E+00  0.0000000000000E+00  0.0000000000000E+00  0.0000000000000E+00 
 0.0000000000000E+00  0.0000000000000E+00  0.0000000000000E+00  0.0000000000000E+00  0.0000000000000E+00  0.0000000000000E+00  0.0000000000000E+00  0.0000000000000E+00  0.0000000000000E+00  0.0000000000000E+00 
 0.0000000000000E+00  0.0000000000000E+00  0.0000000000000E+00  0.0000000000000E+00  0.0000000000000E+00  0.0000000000000E+00  0.0000000000000E+00  0.0000000000000E+00  0.0000000000000E+00  0.0000000000000E+00 
 0.0000000000000E+00  0.0000000000000E+00  0.0000000000000E+00  0.0000000000000E+00  0.0000000000000E+00  0.0000000000000E+00  0.0000000000000E+00  0.0000000000000E+00  0.0000000000000E+00  0.0000000000000E+00 
 0.0000000000000E+00  0.0000000000000E+00  0.0000000000000E+00  0.0000000000000E+00  0.0000000000000E+00  0.0000000000000E+00  0.0000000000000E+00  0.0000000000000E+00  0.0000000000000E+00  0.0000000000000E+00 
 0.0000000000000E+00  0.0000000000000E+00  0.0000000000000E+00  0.0000000000000E+00  0.0000000000000E+00  0.0000000000000E+00  0.0000000000000E+00  0.0000000000000E+00  0.0000000000000E+00  0.0000000000000E+00 
 0.0000000000000E+00  0.0000000000000E+00  0.0000000000000E+00  0.0000000000000E+00  0.0000000000000E+00  0.0000000000000E+00  0.0000000000000E+00  0.0000000000000E+00  0.0000000000000E+00  0.0000000000000E+00 
ZONE T = "ANOD, 1.0000E-08", I = 10, SOLUTIONTIME = 1.000000E-08
ZONETYPE = ORDERED
DATAPACKING = BLOCK
STRANDID = 1
 0.0000000000000E+00  8.7488888888889E-05  1.7497777777778E-04  2.6246666666667E-04  3.4995555555556E-04  4.3744444444444E-04  5.2493333333333E-04  6.1242222222222E-04  6.9991111111111E-04  7.8740000000000E-04 
 1.1589917711303E-09  3.4769775212826E-09  5.7949719095347E-09  8.1129813663655E-09  1.0431012322536E-08  1.2749071208642E-08  1.5067164455124E-08  1.7385298493505E-08  1.9703479754458E-08  2.0863323627200E-08 
 9.1999999999930E-01  9.1999999999930E-01  9.1999999999930E-01  9.1999999999930E-01  9.1999999999930E-01  9.1999999999930E-01  9.1999999999930E-01  9.1999999999930E-01  9.1999999999930E-01  9.1999999999971E-01 
 4.0000000000348E-02  4.0000000000348E-02  4.0000000000348E-02  4.0000000000348E-02  4.0000000000348E-02  4.0000000000348E-02  4.0000000000348E-02  4.0000000000348E-02  4.0000000000348E-02  4.0000000000144E-02 
 4.0000000000348E-02  4.0000000000348E-02  4.0000000000348E-02  4.0000000000348E-02  4.0000000000348E-02  4.0000000000348E-02  4.0000000000348E-02  4.0000000000348E-02  4.0000000000348E-02  4.0000000000144E-02 
 2.9167371470222E-02  2.9167355743105E-02  2.9167308561749E-02  2.9167229926041E-02  2.9167119835755E-02  2.9166978290623E-02  2.9166805290249E-02  2.9166600834155E-02  2.9166364921821E-02  2.9166097552581E-02 
 0.0000000000000E+00 -4.7371275800165E-09 -8.9169665835733E-09 -1.2539514933905E-08 -1.5604769008232E-08 -1.8112723637699E-08 -2.0063372107409E-08 -2.1456706156464E-08 -2.2292715977703E-08 -2.2571390217907E-08 
-2.9167371470222E-02 -2.9167360480232E-02 -2.9167317478716E-02 -2.9167242465556E-02 -2.9167135440524E-02 -2.9166996403347E-02 -2.9166825353621E-02 -2.9166622290861E-02 -2.9166387214537E-02 -2.9166120123971E-02 
-4.0906712752891E-02 -4.0906712752891E-02 -4.0906712752891E-02 -4.0906712752891E-02 -4.0906712752891E-02 -4.0906712752891E-02 -4.0906712752891E-02 -4.0906712752891E-02 -4.0906712752891E-02 -4.0906712753022E-02 
 1.1739341282669E-02  1.1739352272659E-02  1.1739395274176E-02  1.1739470287335E-02  1.1739577312367E-02  1.1739716349545E-02  1.1739887399270E-02  1.1740090462030E-02  1.1740325538354E-02  1.1740592629051E-02 
 1.6690490558279E+00  3.3381012908546E+00  3.3381137303918E+00  3.3381354303064E+00  3.3381663906736E+00  3.3382066115855E+00  3.3382560931754E+00  3.3383148356050E+00  3.3383828390519E+00  1.6692300518703E+00 
 8.6491976501768E-09  2.5947595119969E-08  4.3246055469144E-08  6.0544639495414E-08  7.7843371177088E-08  9.5142320645654E-08  1.1244153304441E-07  1.2974103114442E-07  1.4704096776437E-07  1.4704096776437E-07 
 0.0000000000000E+00  3.3380831908495E+00  6.6761726579564E+00  1.0014280125028E+01  1.3352413771707E+01  1.6690582678426E+01  2.0028797967446E+01  2.3367066190986E+01  2.6705397332627E+01  3.0043810631528E+01 
 3.0043810255917E+01  2.6705719147761E+01  2.3367628823330E+01  2.0029521429146E+01  1.6691387704600E+01  1.3353218389009E+01  1.0015004221915E+01  6.6767359421911E+00  3.3384042885409E+00  0.0000000000000E+00 
 1.6690490558279E-08  3.3381012908546E-08  3.3381137303918E-08  3.3381354303064E-08  3.3381663906736E-08  3.3382066115855E-08  3.3382560931754E-08  3.3383148356050E-08  3.3383828390519E-08  1.6692300518703E-08 
 9.1448444543298E+04  1.8289688908660E+05  1.8289688908660E+05  1.8289688908660E+05  1.8289688908660E+05  1.8289688908660E+05  1.8289688908660E+05  1.8289688908660E+05  1.8289688908660E+05  9.1448444543298E+04 
 3.6579377817311E+05  7.3158755634621E+05  7.3158755634621E+05  7.3158755634621E+05  7.3158755634621E+05  7.3158755634622E+05  7.3158755634622E+05  7.3158755634621E+05  7.3158755634621E+05  3.6579377817311E+05 
 4.5724222271641E+05  9.1448444543281E+05  9.1448444543281E+05  9.1448444543281E+05  9.1448444543281E+05  9.1448444543281E+05  9.1448444543281E+05  9.1448444543281E+05  9.1448444543281E+05  4.5724222271640E+05 
 3.5000000000000E-01  3.5000000000000E-01  3.5000000000000E-01  3.5000000000000E-01  3.5000000000000E-01  3.5000000000000E-01  3.5000000000000E-01  3.5000000000000E-01  3.5000000000000E-01  3.5000000000000E-01 
 8.5301666666666E+00  1.7060333333333E+01  1.7060333333333E+01  1.7060333333333E+01  1.7060333333333E+01  1.7060333333333E+01  1.7060333333333E+01  1.7060333333333E+01  1.7060333333333E+01  8.5301666666666E+00 
 1.9566429602719E-01  1.9566448237752E-01  1.9566521152724E-01  1.9566648347862E-01  1.9566829823608E-01  1.9567065580501E-01  1.9567355619324E-01  1.9567699941023E-01  1.9568098546640E-01  1.9568551437491E-01 
 4.3744444444444E-05  8.7488888888889E-05  8.7488888888889E-05  8.7488888888889E-05  8.7488888888889E-05  8.7488888888889E-05  8.7488888888889E-05  8.7488888888889E-05  8.7488888888889E-05  4.3744444444444E-05 
 8.6666666666663E+01  8.6666666666663E+01  8.6666666666663E+01  8.6666666666663E+01  8.6666666666663E+01  8.6666666666663E+01  8.6666666666663E+01  8.6666666666663E+01  8.6666666666663E+01  8.6666666666663E+01 
 2.1666666666671E+01  2.1666666666671E+01  2.1666666666671E+01  2.1666666666671E+01  2.1666666666671E+01  2.1666666666671E+01  2.1666666666671E+01  2.1666666666671E+01  2.1666666666671E+01  2.1666666666671E+01 
 1.8363940502147E-11  2.8663999552126E-11  6.1478017903499E-11  1.1872011439290E-10  2.0039090042232E-10  3.0649128855061E-10  4.3702252064981E-10  5.9198593411188E-10  7.7138328477950E-10  8.6719071479737E-10 
 1.8363940502147E-03  2.8663999552126E-03  6.1478017903499E-03  1.1872011439290E-02  2.0039090042232E-02  3.0649128855061E-02  4.3702252064981E-02  5.9198593411188E-02  7.7138328477950E-02  8.6719071479737E-02 
 3.0002908359562E-04  1.5001456437429E-03  5.1005063054565E-03  1.1101149900261E-02  1.9502137505880E-02  3.0303559843808E-02  4.3505540094912E-02  5.9108210520129E-02  7.7111744753483E-02  8.6713754587179E-02 
 1.5363649666191E-03  1.3662543114697E-03  1.0472954848933E-03  7.7086153902898E-04  5.3695253635231E-04  3.4556901125386E-04  1.9671197006884E-04  9.0382891059505E-05  2.6583724467191E-05  5.3168925584261E-06 
 0.0000000000000E+00  0.0000000000000E+00  0.0000000000000E+00  0.0000000000000E+00  0.0000000000000E+00  0.0000000000000E+00  0.0000000000000E+00  0.0000000000000E+00  0.0000000000000E+00  0.0000000000000E+00 
 0.0000000000000E+00  0.0000000000000E+00  0.0000000000000E+00  0.0000000000000E+00  0.0000000000000E+00  0.0000000000000E+00  0.0000000000000E+00  0.0000000000000E+00  0.0000000000000E+00  0.0000000000000E+00 
 0.0000000000000E+00  0.0000000000000E+00  0.0000000000000E+00  0.0000000000000E+00  0.0000000000000E+00  0.0000000000000E+00  0.0000000000000E+00  0.0000000000000E+00  0.0000000000000E+00  0.0000000000000E+00 
ZONE T = "ANOD, 2.0000E-08", I = 10, SOLUTIONTIME = 2.000000E-08
ZONETYPE = ORDERED
DATAPACKING = BLOCK
STRANDID = 1
 0.0000000000000E+00  8.7488888888889E-05  1.7497777777778E-04  2.6246666666667E-04  3.4995555555556E-04  4.3744444444444E-04  5.2493333333333E-04  6.1242222222222E-04  6.9991111111111E-04  7.8740000000000E-04 
 1.1589975177539E-09  3.4769947609262E-09  5.7950006422296E-09  8.1130215921606E-09  1.0431064041263E-08  1.2749134420150E-08  1.5066512744066E-08  1.7384295067007E-08  1.9702124612187E-08  2.0861974230772E-08 
 9.1999999999861E-01  9.1999999999861E-01  9.1999999999861E-01  9.1999999999861E-01  9.1999999999861E-01  9.1999999999861E-01  9.1999999999861E-01  9.1999999999861E-01  9.1999999999861E-01  9.1999999999942E-01 
 4.0000000000696E-02  4.0000000000696E-02  4.0000000000696E-02  4.0000000000696E-02  4.0000000000696E-02  4.0000000000696E-02  4.0000000000696E-02  4.0000000000696E-02  4.0000000000696E-02  4.0000000000288E-02 
 4.0000000000696E-02  4.0000000000696E-02  4.0000000000696E-02  4.0000000000696E-02  4.0000000000696E-02  4.0000000000696E-02  4.0000000000696E-02  4.0000000000696E-02  4.0000000000696E-02  4.0000000000288E-02 
 2.9167373666104E-02  2.9167357938918E-02  2.9167310757332E-02  2.9167232121227E-02  2.9167122030400E-02  2.9166980484558E-02  2.9166807483323E-02  2.9166603026228E-02  2.9166367112721E-02  2.9166099742159E-02 
 0.0000000000000E+00 -4.7371510660617E-09 -8.9170107925197E-09 -1.2539577102600E-08 -1.5604846373514E-08 -1.8112813436444E-08 -2.0063471576532E-08 -2.1456812532852E-08 -2.2292826498387E-08 -2.2571502120000E-08 
-2.9167373666104E-02 -2.9167362676069E-02 -2.9167319674343E-02 -2.9167244660804E-02 -2.9167137635246E-02 -2.9166998597372E-02 -2.9166827546795E-02 -2.9166624483041E-02 -2.9166389405547E-02 -2.9166122313661E-02 
-4.0906712752384E-02 -4.0906712752389E-02 -4.0906712752384E-02 -4.0906712752384E-02 -4.0906712752388E-02 -4.0906712752386E-02 -4.0906712752386E-02 -4.0906712752388E-02 -4.0906712752388E-02 -4.0906712752650E-02 
 1.1739339086280E-02  1.1739350076319E-02  1.1739393078042E-02  1.1739468091580E-02  1.1739575117141E-02  1.1739714155014E-02  1.1739885205591E-02  1.1740088269347E-02  1.1740323346841E-02  1.1740590438989E-02 
 1.6690487381535E+00  3.3381006555200E+00  3.3381130951168E+00  3.3381347951406E+00  3.3381657556604E+00  3.3382059767732E+00  3.3382554586090E+00  3.3383142013259E+00  3.3383822051105E+00  1.6692297351050E+00 
 8.6492352080660E-09  2.5947722096288E-08  4.3246273449470E-08  6.0544937252508E-08  7.7843761503476E-08  9.5142794173729E-08  1.1244208327698E-07  1.2974167678699E-07  1.4704176694254E-07  1.4704176694254E-07 
 0.0000000000000E+00  3.3380990659879E+00  6.6762059412144E+00  1.0014329886344E+01  1.3352480161673E+01  1.6690666027866E+01  2.0028896745771E+01  2.3367181575686E+01  2.6705529778754E+01  3.0043950616499E+01 
 3.0043950616515E+01  2.6705851550601E+01  2.3367744675283E+01  2.0029620730154E+01  1.6691470454754E+01  1.3353284588537E+01  1.0015053870846E+01  6.6767690408785E+00  3.3384208376603E+00  0.0000000000000E+00 
 3.3380977939814E-08  6.6762019463745E-08  6.6762268255086E-08  6.6762702254470E-08  6.6763321463340E-08  6.6764125883587E-08  6.6765115517844E-08  6.6766290369309E-08  6.6767650441624E-08  3.3384597869754E-08 
 9.1448444543314E+04  1.8289688908663E+05  1.8289688908663E+05  1.8289688908663E+05  1.8289688908663E+05  1.8289688908663E+05  1.8289688908663E+05  1.8289688908663E+05  1.8289688908663E+05  9.1448444543314E+04 
 3.6579377817309E+05  7.3158755634618E+05  7.3158755634618E+05  7.3158755634618E+05  7.3158755634618E+05  7.3158755634618E+05  7.3158755634618E+05  7.3158755634618E+05  7.3158755634618E+05  3.6579377817309E+05 
 4.5724222271641E+05  9.1448444543281E+05  9.1448444543281E+05  9.1448444543281E+05  9.1448444543281E+05  9.1448444543281E+05  9.1448444543281E+05  9.1448444543281E+05  9.1448444543281E+05  4.5724222271641E+05 
 3.5000000000000E-01  3.5000000000000E-01  3.5000000000000E-01  3.5000000000000E-01  3.5000000000000E-01  3.5000000000000E-01  3.5000000000000E-01  3.5000000000000E-01  3.5000000000000E-01  3.5000000000000E-01 
 8.5301666666666E+00  1.7060333333333E+01  1.7060333333333E+01  1.7060333333333E+01  1.7060333333333E+01  1.7060333333333E+01  1.7060333333333E+01  1.7060333333333E+01  1.7060333333333E+01  8.5301666666666E+00 
 1.9566425878590E-01  1.9566444513706E-01  1.9566517429027E-01  1.9566644624806E-01  1.9566826101447E-01  1.9567061859518E-01  1.9567351899781E-01  1.9567696223164E-01  1.9568094830761E-01  1.9568547724019E-01 
 4.3744444444444E-05  8.7488888888889E-05  8.7488888888889E-05  8.7488888888889E-05  8.7488888888889E-05  8.7488888888889E-05  8.7488888888889E-05  8.7488888888889E-05  8.7488888888889E-05  4.3744444444444E-05 
 8.6666666666659E+01  8.6666666666659E+01  8.6666666666659E+01  8.6666666666659E+01  8.6666666666659E+01  8.6666666666659E+01  8.6666666666659E+01  8.6666666666659E+01  8.6666666666659E+01  8.6666666666659E+01 
 2.1666666666675E+01  2.1666666666675E+01  2.1666666666675E+01  2.1666666666675E+01  2.1666666666675E+01  2.1666666666675E+01  2.1666666666675E+01  2.1666666666675E+01  2.1666666666675E+01  2.1666666666675E+01 
 3.6728059403203E-11  5.7328279745905E-11  1.2295664986572E-10  2.3744140631934E-10  4.0078379570584E-10  6.1298563686551E-10  8.7404934904715E-10  1.1839777180913E-09  1.5427742194429E-09  1.7343900054824E-09 
 1.8364118901055E-03  2.8664280193780E-03  6.1478631962224E-03  1.1872129192644E-02  2.0039289528352E-02  3.0649434831490E-02  4.3702682839734E-02  5.9199178397939E-02  7.7139093466339E-02  8.6719929068500E-02 
 6.0006077286005E-04  3.0003058042572E-03  1.0201063632200E-02  2.2202409910401E-02  3.9004469173810E-02  6.0607422237666E-02  8.7011509014187E-02  1.1821700513089E-01  1.5422425423179E-01  1.7342836671041E-01 
 3.0727451674602E-03  2.7325221703333E-03  2.0946013543727E-03  1.5417307215322E-03  1.0739103967737E-03  6.9114144888585E-04  3.9342589052871E-04  1.8076667823686E-04  5.3167712497695E-05  1.0633837829451E-05 
 0.0000000000000E+00  0.0000000000000E+00  0.0000000000000E+00  0.0000000000000E+00  0.0000000000000E+00  0.0000000000000E+00  0.0000000000000E+00  0.0000000000000E+00  0.0000000000000E+00  0.0000000000000E+00 
 0.0000000000000E+00  0.0000000000000E+00  0.0000000000000E+00  0.0000000000000E+00  0.0000000000000E+00  0.0000000000000E+00  0.0000000000000E+00  0.0000000000000E+00  0.0000000000000E+00  0.0000000000000E+00 
 0.0000000000000E+00  0.0000000000000E+00  0.0000000000000E+00  0.0000000000000E+00  0.0000000000000E+00  0.0000000000000E+00  0.0000000000000E+00  0.0000000000000E+00  0.0000000000000E+00  0.0000000000000E+00 
ZONE T = "ANOD, 3.0000E-08", I = 10, SOLUTIONTIME = 3.000000E-08
ZONETYPE = ORDERED
DATAPACKING = BLOCK
STRANDID = 1
 0.0000000000000E+00  8.7488888888889E-05  1.7497777777778E-04  2.6246666666667E-04  3.4995555555556E-04  4.3744444444444E-04  5.2493333333333E-04  6.1242222222222E-04  6.9991111111111E-04  7.8740000000000E-04 
 1.1589975177341E-09  3.4769947608653E-09  5.7950006421291E-09  8.1130215920204E-09  1.0431064041083E-08  1.2749134419930E-08  1.5067965574718E-08  1.7386837520801E-08  1.9705393481396E-08  2.0863790269060E-08 
 9.1999999999791E-01  9.1999999999791E-01  9.1999999999791E-01  9.1999999999791E-01  9.1999999999791E-01  9.1999999999791E-01  9.1999999999791E-01  9.1999999999791E-01  9.1999999999791E-01  9.1999999999914E-01 
 4.0000000001045E-02  4.0000000001045E-02  4.0000000001045E-02  4.0000000001045E-02  4.0000000001045E-02  4.0000000001045E-02  4.0000000001045E-02  4.0000000001045E-02  4.0000000001045E-02  4.0000000000432E-02 
 4.0000000001045E-02  4.0000000001045E-02  4.0000000001045E-02  4.0000000001045E-02  4.0000000001045E-02  4.0000000001045E-02  4.0000000001045E-02  4.0000000001045E-02  4.0000000001045E-02  4.0000000000432E-02 
 2.9167373665889E-02  2.9167357938704E-02  2.9167310757117E-02  2.9167232121013E-02  2.9167122030185E-02  2.9166980484344E-02  2.9166807483109E-02  2.9166603026014E-02  2.9166367112506E-02  2.9166099741944E-02 
 0.0000000000000E+00 -4.7371510659821E-09 -8.9170107923703E-09 -1.2539577102391E-08 -1.5604846373254E-08 -1.8112813436143E-08 -2.0063471576199E-08 -2.1456812532497E-08 -2.2292826498021E-08 -2.2571502119631E-08 
-2.9167373665889E-02 -2.9167362675855E-02 -2.9167319674128E-02 -2.9167244660590E-02 -2.9167137635032E-02 -2.9166998597157E-02 -2.9166827546580E-02 -2.9166624482827E-02 -2.9166389405333E-02 -2.9166122313446E-02 
-4.0906712751885E-02 -4.0906712751881E-02 -4.0906712751885E-02 -4.0906712751885E-02 -4.0906712751882E-02 -4.0906712751888E-02 -4.0906712751888E-02 -4.0906712751882E-02 -4.0906712751882E-02 -4.0906712752276E-02 
 1.1739339085996E-02  1.1739350076026E-02  1.1739393077757E-02  1.1739468091296E-02  1.1739575116851E-02  1.1739714154731E-02  1.1739885205308E-02  1.1740088269056E-02  1.1740323346550E-02  1.1740590438830E-02 
 1.6690487381250E+00  3.3381006554607E+00  3.3381130950597E+00  3.3381347950836E+00  3.3381657556019E+00  3.3382059767166E+00  3.3382554585524E+00  3.3383142012674E+00  3.3383822050521E+00  1.6692297350905E+00 
 8.6492352058863E-09  2.5947722096860E-08  4.3246273449847E-08  6.0544937245048E-08  7.7843761502245E-08  9.5142794174218E-08  1.1244208327189E-07  1.2974167678239E-07  1.4704183906070E-07  1.4704183906070E-07 
 0.0000000000000E+00  3.3380990658328E+00  6.6762059410884E+00  1.0014329886247E+01  1.3352480161421E+01  1.6690666027643E+01  2.0028896745394E+01  2.3367181575337E+01  2.6705529778398E+01  3.0043950615923E+01 
 3.0043950616009E+01  2.6705851550154E+01  2.3367744674894E+01  2.0029620729822E+01  1.6691470454480E+01  1.3353284588320E+01  1.0015053870686E+01  6.6767690407762E+00  3.3384208376165E+00  0.0000000000000E+00 
 5.0071465321064E-08  1.0014302601835E-07  1.0014339920568E-07  1.0014405020531E-07  1.0014497901936E-07  1.0014618565075E-07  1.0014767010337E-07  1.0014943238198E-07  1.0015147249215E-07  5.0076895220659E-08 
 9.1448444543331E+04  1.8289688908666E+05  1.8289688908666E+05  1.8289688908666E+05  1.8289688908666E+05  1.8289688908666E+05  1.8289688908666E+05  1.8289688908666E+05  1.8289688908666E+05  9.1448444543331E+04 
 3.6579377817307E+05  7.3158755634615E+05  7.3158755634615E+05  7.3158755634615E+05  7.3158755634615E+05  7.3158755634615E+05  7.3158755634615E+05  7.3158755634615E+05  7.3158755634615E+05  3.6579377817307E+05 
 4.5724222271641E+05  9.1448444543281E+05  9.1448444543281E+05  9.1448444543281E+05  9.1448444543281E+05  9.1448444543281E+05  9.1448444543281E+05  9.1448444543281E+05  9.1448444543281E+05  4.5724222271641E+05 
 3.5000000000000E-01  3.5000000000000E-01  3.5000000000000E-01  3.5000000000000E-01  3.5000000000000E-01  3.5000000000000E-01  3.5000000000000E-01  3.5000000000000E-01  3.5000000000000E-01  3.5000000000000E-01 
 8.5301666666666E+00  1.7060333333333E+01  1.7060333333333E+01  1.7060333333333E+01  1.7060333333333E+01  1.7060333333333E+01  1.7060333333333E+01  1.7060333333333E+01  1.7060333333333E+01  8.5301666666666E+00 
 1.9566425878256E-01  1.9566444513359E-01  1.9566517428693E-01  1.9566644624471E-01  1.9566826101103E-01  1.9567061859186E-01  1.9567351899449E-01  1.9567696222821E-01  1.9568094830418E-01  1.9568547723849E-01 
 4.3744444444444E-05  8.7488888888889E-05  8.7488888888889E-05  8.7488888888889E-05  8.7488888888889E-05  8.7488888888889E-05  8.7488888888889E-05  8.7488888888889E-05  8.7488888888889E-05  4.3744444444444E-05 
 8.6666666666655E+01  8.6666666666655E+01  8.6666666666655E+01  8.6666666666655E+01  8.6666666666655E+01  8.6666666666655E+01  8.6666666666655E+01  8.6666666666655E+01  8.6666666666655E+01  8.6666666666655E+01 
 2.1666666666679E+01  2.1666666666679E+01  2.1666666666679E+01  2.1666666666679E+01  2.1666666666679E+01  2.1666666666679E+01  2.1666666666679E+01  2.1666666666679E+01  2.1666666666679E+01  2.1666666666679E+01 
 5.5092178303768E-11  8.5992559937372E-11  1.8443528182606E-10  3.5616269824186E-10  6.0117669098029E-10  9.1947998516970E-10  1.3110761774237E-09  1.7759695020486E-09  2.3141651540795E-09  2.6015892961277E-09 
 1.8364118900565E-03  2.8664280191467E-03  6.1478631960333E-03  1.1872129192252E-02  2.0039289527445E-02  3.0649434830419E-02  4.3702682837658E-02  5.9199178395737E-02  7.7139093463656E-02  8.6719929064532E-02 
 9.0009246212710E-04  4.5004659645860E-03  1.5301620958788E-02  3.3303669920176E-02  5.8506800840852E-02  9.0911284630464E-02  1.3051747793139E-01  1.7732579973945E-01  2.3133676370742E-01  2.6014297882967E-01 
 4.6091253682497E-03  4.0987900291512E-03  3.1419072238172E-03  2.3125999040098E-03  1.6108682571774E-03  1.0367138865066E-03  5.9013981098230E-04  2.7115046541142E-04  7.9751700527454E-05  1.5950783100382E-05 
 0.0000000000000E+00  0.0000000000000E+00  0.0000000000000E+00  0.0000000000000E+00  0.0000000000000E+00  0.0000000000000E+00  0.0000000000000E+00  0.0000000000000E+00  0.0000000000000E+00  0.0000000000000E+00 
 0.0000000000000E+00  0.0000000000000E+00  0.0000000000000E+00  0.0000000000000E+00  0.0000000000000E+00  0.0000000000000E+00  0.0000000000000E+00  0.0000000000000E+00  0.0000000000000E+00  0.0000000000000E+00 
 0.0000000000000E+00  0.0000000000000E+00  0.0000000000000E+00  0.0000000000000E+00  0.0000000000000E+00  0.0000000000000E+00  0.0000000000000E+00  0.0000000000000E+00  0.0000000000000E+00  0.0000000000000E+00 
ZONE T = "ANOD, 4.0000E-08", I = 10, SOLUTIONTIME = 4.000000E-08
ZONETYPE = ORDERED
DATAPACKING = BLOCK
STRANDID = 1
 0.0000000000000E+00  8.7488888888889E-05  1.7497777777778E-04  2.6246666666667E-04  3.4995555555556E-04  4.3744444444444E-04  5.2493333333333E-04  6.1242222222222E-04  6.9991111111111E-04  7.8740000000000E-04 
 1.1588159138498E-09  3.4771763646695E-09  5.7948190381647E-09  8.1135664034709E-09  1.0431245644766E-08  1.2748589608116E-08  1.5065604724224E-08  1.7383750254813E-08  1.9702306215368E-08  2.0861429418478E-08 
 9.1999999999721E-01  9.1999999999721E-01  9.1999999999721E-01  9.1999999999721E-01  9.1999999999721E-01  9.1999999999721E-01  9.1999999999721E-01  9.1999999999721E-01  9.1999999999721E-01  9.1999999999885E-01 
 4.0000000001393E-02  4.0000000001393E-02  4.0000000001393E-02  4.0000000001393E-02  4.0000000001393E-02  4.0000000001393E-02  4.0000000001393E-02  4.0000000001393E-02  4.0000000001393E-02  4.0000000000576E-02 
 4.0000000001393E-02  4.0000000001393E-02  4.0000000001393E-02  4.0000000001393E-02  4.0000000001393E-02  4.0000000001393E-02  4.0000000001393E-02  4.0000000001393E-02  4.0000000001393E-02  4.0000000000576E-02 
 2.9167373665674E-02  2.9167357938489E-02  2.9167310756902E-02  2.9167232120798E-02  2.9167122029970E-02  2.9166980484129E-02  2.9166807482894E-02  2.9166603025799E-02  2.9166367112291E-02  2.9166099741729E-02 
 0.0000000000000E+00 -4.7371510659025E-09 -8.9170107922206E-09 -1.2539577102181E-08 -1.5604846372993E-08 -1.8112813435842E-08 -2.0063471575867E-08 -2.1456812532143E-08 -2.2292826497655E-08 -2.2571502119263E-08 
-2.9167373665674E-02 -2.9167362675640E-02 -2.9167319673913E-02 -2.9167244660375E-02 -2.9167137634817E-02 -2.9166998596942E-02 -2.9166827546365E-02 -2.9166624482611E-02 -2.9166389405117E-02 -2.9166122313231E-02 
-4.0906712751379E-02 -4.0906712751383E-02 -4.0906712751379E-02 -4.0906712751379E-02 -4.0906712751383E-02 -4.0906712751380E-02 -4.0906712751380E-02 -4.0906712751383E-02 -4.0906712751383E-02 -4.0906712751908E-02 
 1.1739339085704E-02  1.1739350075743E-02  1.1739393077466E-02  1.1739468091004E-02  1.1739575116567E-02  1.1739714154438E-02  1.1739885205015E-02  1.1740088268772E-02  1.1740323346266E-02  1.1740590438677E-02 
 1.6690487380956E+00  3.3381006554042E+00  3.3381130950009E+00  3.3381347950248E+00  3.3381657555451E+00  3.3382059766575E+00  3.3382554584932E+00  3.3383142012104E+00  3.3383822049951E+00  1.6692297350767E+00 