TITLE = "Solution on Domain BulkDomain1D_2"
VARIABLES = "x [m]"  
"Vel_axial" 	"MF_sp(ECDMC)" 	"MF_sp(Li+)" 	"MF_sp(PF6-)" 	"Volt(Electroly)" 	"Volt(CathodeVo)" 	
"Potential Drop Electrode-Electrolyte [V]" 	"Surf_0 Equilibrium Potential Drop Electrode-Electrolyte [V]" 	"Overpotential_0 [V]" 	"Current Source [A/m^2]" 	"Li+ flux [kmol/m^2/s]" 	"Electrolyte Current [A/m^2]" 	"Electrode Current [A/m^2]" 	
"CV Capacity discharged [A-s/m^2]" 	"Depth of discharge in CV [A-s/m^2]" 	"CV Capacity remaining [A-s/m^2]" 	"Initial CV capacity [A-s/m^2]" 	"Porosity []" 	"Surface Area [m2/m2] (area per area)" 	"Specific current (per particle area) [A/m^2]" 	"Control volume thickness [m]" 	
"MoleDens LiCoO2 [kmol/m^3]" 	"MoleDens CoO2 [kmol/m^3]" 	"qHeat_accum [J/m3]" 	"qHeat_step [W/m3]" 	"Joule_Lyte [W/m3]" 	"Joule_Solid [W/m3]" 	"electrodHeat [W/m3]" 	"OverpotHeat [W/m3]" 	"deltaSHeat [W/m3]" 	

ZONE T = "CATH, 0.0000E+00", I = 10, SOLUTIONTIME = 0.000000E+00
ZONETYPE = ORDERED
DATAPACKING = BLOCK
STRANDID = 3
 1.2700000000000E-03  1.3377333333333E-03  1.4054666666667E-03  1.4732000000000E-03  1.5409333333333E-03  1.6086666666667E-03  1.6764000000000E-03  1.7441333333333E-03  1.8118666666667E-03  1.8796000000000E-03 
 0.0000000000000E+00  0.0000000000000E+00  0.0000000000000E+00  0.0000000000000E+00  0.0000000000000E+00  0.0000000000000E+00  0.0000000000000E+00  0.0000000000000E+00  0.0000000000000E+00  0.0000000000000E+00 
 9.2000000000000E-01  9.2000000000000E-01  9.2000000000000E-01  9.2000000000000E-01  9.2000000000000E-01  9.2000000000000E-01  9.2000000000000E-01  9.2000000000000E-01  9.2000000000000E-01  9.2000000000000E-01 
 4.0000000000000E-02  4.0000000000000E-02  4.0000000000000E-02  4.0000000000000E-02  4.0000000000000E-02  4.0000000000000E-02  4.0000000000000E-02  4.0000000000000E-02  4.0000000000000E-02  4.0000000000000E-02 
 4.0000000000000E-02  4.0000000000000E-02  4.0000000000000E-02  4.0000000000000E-02  4.0000000000000E-02  4.0000000000000E-02  4.0000000000000E-02  4.0000000000000E-02  4.0000000000000E-02  4.0000000000000E-02 
-7.0000000000000E-02 -7.0000000000000E-02 -7.0000000000000E-02 -7.0000000000000E-02 -7.0000000000000E-02 -7.0000000000000E-02 -7.0000000000000E-02 -7.0000000000000E-02 -7.0000000000000E-02 -7.0000000000000E-02 
 3.8000000000000E+00  3.8000000000000E+00  3.8000000000000E+00  3.8000000000000E+00  3.8000000000000E+00  3.8000000000000E+00  3.8000000000000E+00  3.8000000000000E+00  3.8000000000000E+00  3.8000000000000E+00 
 3.8700000000000E+00  3.8700000000000E+00  3.8700000000000E+00  3.8700000000000E+00  3.8700000000000E+00  3.8700000000000E+00  3.8700000000000E+00  3.8700000000000E+00  3.8700000000000E+00  3.8700000000000E+00 
 3.9714142713289E+00  3.9714142713289E+00  3.9714142713289E+00  3.9714142713289E+00  3.9714142713289E+00  3.9714142713289E+00  3.9714142713289E+00  3.9714142713289E+00  3.9714142713289E+00  3.9714142713289E+00 
-1.0141427132889E-01 -1.0141427132889E-01 -1.0141427132889E-01 -1.0141427132889E-01 -1.0141427132889E-01 -1.0141427132889E-01 -1.0141427132889E-01 -1.0141427132889E-01 -1.0141427132889E-01 -1.0141427132889E-01 
-2.3826357195711E-01 -4.7652714391422E-01 -4.7652714391423E-01 -4.7652714391422E-01 -4.7652714391423E-01 -4.7652714391423E-01 -4.7652714391422E-01 -4.7652714391423E-01 -4.7652714391422E-01 -2.3826357195711E-01 
-0.0000000000000E+00 -0.0000000000000E+00 -0.0000000000000E+00 -0.0000000000000E+00 -0.0000000000000E+00 -0.0000000000000E+00 -0.0000000000000E+00 -0.0000000000000E+00 -0.0000000000000E+00 -0.0000000000000E+00 
 2.3826357195711E-01  0.0000000000000E+00  0.0000000000000E+00  0.0000000000000E+00  0.0000000000000E+00  0.0000000000000E+00  0.0000000000000E+00  0.0000000000000E+00  0.0000000000000E+00  0.0000000000000E+00 
 0.0000000000000E+00 -0.0000000000000E+00 -0.0000000000000E+00 -0.0000000000000E+00 -0.0000000000000E+00 -0.0000000000000E+00 -0.0000000000000E+00 -0.0000000000000E+00 -0.0000000000000E+00  2.3826357195711E-01 
-0.0000000000000E+00 -0.0000000000000E+00 -0.0000000000000E+00 -0.0000000000000E+00 -0.0000000000000E+00 -0.0000000000000E+00 -0.0000000000000E+00 -0.0000000000000E+00 -0.0000000000000E+00 -0.0000000000000E+00 
 7.2440786946225E+03  1.4488157389245E+04  1.4488157389245E+04  1.4488157389245E+04  1.4488157389245E+04  1.4488157389245E+04  1.4488157389245E+04  1.4488157389245E+04  1.4488157389245E+04  7.2440786946225E+03 
 4.9259735123433E+04  9.8519470246865E+04  9.8519470246866E+04  9.8519470246865E+04  9.8519470246866E+04  9.8519470246866E+04  9.8519470246865E+04  9.8519470246866E+04  9.8519470246865E+04  4.9259735123433E+04 
 5.6503813818055E+04  1.1300762763611E+05  1.1300762763611E+05  1.1300762763611E+05  1.1300762763611E+05  1.1300762763611E+05  1.1300762763611E+05  1.1300762763611E+05  1.1300762763611E+05  5.6503813818055E+04 
 3.5000000000000E-01  3.5000000000000E-01  3.5000000000000E-01  3.5000000000000E-01  3.5000000000000E-01  3.5000000000000E-01  3.5000000000000E-01  3.5000000000000E-01  3.5000000000000E-01  3.5000000000000E-01 
 6.6040000000000E+00  1.3208000000000E+01  1.3208000000000E+01  1.3208000000000E+01  1.3208000000000E+01  1.3208000000000E+01  1.3208000000000E+01  1.3208000000000E+01  1.3208000000000E+01  6.6040000000000E+00 
-3.6078675341780E-02 -3.6078675341780E-02 -3.6078675341780E-02 -3.6078675341780E-02 -3.6078675341780E-02 -3.6078675341780E-02 -3.6078675341780E-02 -3.6078675341780E-02 -3.6078675341780E-02 -3.6078675341780E-02 
 3.3866666666667E-05  6.7733333333333E-05  6.7733333333334E-05  6.7733333333333E-05  6.7733333333334E-05  6.7733333333334E-05  6.7733333333333E-05  6.7733333333334E-05  6.7733333333333E-05  3.3866666666667E-05 
 2.6603001364256E+01  2.6603001364256E+01  2.6603001364256E+01  2.6603001364256E+01  2.6603001364256E+01  2.6603001364256E+01  2.6603001364256E+01  2.6603001364256E+01  2.6603001364256E+01  2.6603001364256E+01 
 1.7735334242838E+01  1.7735334242838E+01  1.7735334242838E+01  1.7735334242838E+01  1.7735334242838E+01  1.7735334242838E+01  1.7735334242838E+01  1.7735334242838E+01  1.7735334242838E+01  1.7735334242838E+01 
 0.0000000000000E+00  0.0000000000000E+00  0.0000000000000E+00  0.0000000000000E+00  0.0000000000000E+00  0.0000000000000E+00  0.0000000000000E+00  0.0000000000000E+00  0.0000000000000E+00  0.0000000000000E+00 
 0.0000000000000E+00  0.0000000000000E+00  0.0000000000000E+00  0.0000000000000E+00  0.0000000000000E+00  0.0000000000000E+00  0.0000000000000E+00  0.0000000000000E+00  0.0000000000000E+00  0.0000000000000E+00 
 0.0000000000000E+00  0.0000000000000E+00  0.0000000000000E+00  0.0000000000000E+00  0.0000000000000E+00  0.0000000000000E+00  0.0000000000000E+00  0.0000000000000E+00  0.0000000000000E+00  0.0000000000000E+00 
 0.0000000000000E+00  0.0000000000000E+00  0.0000000000000E+00  0.0000000000000E+00  0.0000000000000E+00  0.0000000000000E+00  0.0000000000000E+00  0.0000000000000E+00  0.0000000000000E+00  0.0000000000000E+00 
 0.0000000000000E+00  0.0000000000000E+00  0.0000000000000E+00  0.0000000000000E+00  0.0000000000000E+00  0.0000000000000E+00  0.0000000000000E+00  0.0000000000000E+00  0.0000000000000E+00  0.0000000000000E+00 
 0.0000000000000E+00  0.0000000000000E+00  0.0000000000000E+00  0.0000000000000E+00  0.0000000000000E+00  0.0000000000000E+00  0.0000000000000E+00  0.0000000000000E+00  0.0000000000000E+00  0.0000000000000E+00 
 0.0000000000000E+00  0.0000000000000E+00  0.0000000000000E+00  0.0000000000000E+00  0.0000000000000E+00  0.0000000000000E+00  0.0000000000000E+00  0.0000000000000E+00  0.0000000000000E+00  0.0000000000000E+00 
ZONE T = "CATH, 1.0000E-08", I = 10, SOLUTIONTIME = 1.000000E-08
ZONETYPE = ORDERED
DATAPACKING = BLOCK
STRANDID = 3
 1.2700000000000E-03  1.3377333333333E-03  1.4054666666667E-03  1.4732000000000E-03  1.5409333333333E-03  1.6086666666667E-03  1.6764000000000E-03  1.7441333333333E-03  1.8118666666667E-03  1.8796000000000E-03 
 1.9701574750919E-08  1.7386037593260E-08  1.5069853914388E-08  1.2753917767705E-08  1.0436580590580E-08  8.1183728393750E-09  5.7998246768949E-09  3.4792866590220E-09  1.1572881611408E-09 -4.5400951294693E-12 
 9.2000000000032E-01  9.2000000000090E-01  9.2000000000090E-01  9.2000000000090E-01  9.2000000000090E-01  9.2000000000090E-01  9.2000000000090E-01  9.2000000000090E-01  9.2000000000090E-01  9.2000000000090E-01 
 3.9999999999841E-02  3.9999999999551E-02  3.9999999999551E-02  3.9999999999551E-02  3.9999999999550E-02  3.9999999999550E-02  3.9999999999550E-02  3.9999999999550E-02  3.9999999999550E-02  3.9999999999549E-02 
 3.9999999999841E-02  3.9999999999551E-02  3.9999999999551E-02  3.9999999999551E-02  3.9999999999550E-02  3.9999999999550E-02  3.9999999999550E-02  3.9999999999550E-02  3.9999999999550E-02  3.9999999999549E-02 
 2.9165652654362E-02  2.9165445644497E-02  2.9165262960580E-02  2.9165104605591E-02  2.9164970584558E-02  2.9164860904569E-02  2.9164775574771E-02  2.9164714606370E-02  2.9164678012640E-02  2.9164665808924E-02 
 3.8001746418265E+00  3.8001724869409E+00  3.8001660221208E+00  3.8001552468386E+00  3.8001401602032E+00  3.8001207609588E+00  3.8000970474851E+00  3.8000690177962E+00  3.8000366695407E+00  3.8000000000000E+00 
 3.7710089891721E+00  3.7710070412964E+00  3.7710007591602E+00  3.7709901422330E+00  3.7709751896187E+00  3.7709559000543E+00  3.7709322719103E+00  3.7709043031899E+00  3.7708719915281E+00  3.7708353341911E+00 
 3.9714142713287E+00  3.9714142713285E+00  3.9714142713285E+00  3.9714142713285E+00  3.9714142713285E+00  3.9714142713285E+00  3.9714142713285E+00  3.9714142713285E+00  3.9714142713285E+00  3.9714142713285E+00 
-2.0040528215658E-01 -2.0040723003209E-01 -2.0041351216834E-01 -2.0042412909547E-01 -2.0043908170986E-01 -2.0045837127425E-01 -2.0048199941821E-01 -2.0050996813864E-01 -2.0054227980047E-01 -2.0057893713744E-01 
-1.6672260710530E+00 -3.3345786484040E+00 -3.3349866792647E+00 -3.3356763723176E+00 -3.3366479602551E+00 -3.3379017709995E+00 -3.3394382279378E+00 -3.3412578502266E+00 -3.3433612531653E+00 -1.6728745743194E+00 
 1.4705120435428E-07  1.2977094376876E-07  1.1248870145558E-07  9.5202885398952E-08  7.7912034895785E-08  6.0614687574096E-08  4.3309378859268E-08  2.5994641489823E-08  8.6690050127546E-09  8.6690050127546E-09 
 3.0043770346176E+01  2.6709265307041E+01  2.3374503373473E+01  2.0039192627706E+01  1.6703051317551E+01  1.3365797409799E+01  1.0027148496238E+01  6.6868216980690E+00  3.3445335691159E+00  0.0000000000000E+00 
 0.0000000000000E+00  3.3344946895443E+00  6.6692566230984E+00  1.0004567368506E+01  1.3340708678806E+01  1.6677962586716E+01  2.0016611500152E+01  2.3356938298262E+01  2.6699226427113E+01  3.0043770867804E+01 
 1.6672260710530E-08  3.3345786484040E-08  3.3349866792647E-08  3.3356763723176E-08  3.3366479602551E-08  3.3379017709995E-08  3.3394382279378E-08  3.3412578502266E-08  3.3433612531653E-08  1.6728745743194E-08 
 7.2440786946392E+03  1.4488157389278E+04  1.4488157389278E+04  1.4488157389278E+04  1.4488157389278E+04  1.4488157389278E+04  1.4488157389278E+04  1.4488157389278E+04  1.4488157389278E+04  7.2440786946392E+03 
 4.9259735123416E+04  9.8519470246832E+04  9.8519470246832E+04  9.8519470246832E+04  9.8519470246832E+04  9.8519470246832E+04  9.8519470246832E+04  9.8519470246832E+04  9.8519470246832E+04  4.9259735123416E+04 
 5.6503813818055E+04  1.1300762763611E+05  1.1300762763611E+05  1.1300762763611E+05  1.1300762763611E+05  1.1300762763611E+05  1.1300762763611E+05  1.1300762763611E+05  1.1300762763611E+05  5.6503813818055E+04 
 3.5000000000000E-01  3.5000000000000E-01  3.5000000000000E-01  3.5000000000000E-01  3.5000000000000E-01  3.5000000000000E-01  3.5000000000000E-01  3.5000000000000E-01  3.5000000000000E-01  3.5000000000000E-01 
 6.6040000000000E+00  1.3208000000000E+01  1.3208000000000E+01  1.3208000000000E+01  1.3208000000000E+01  1.3208000000000E+01  1.3208000000000E+01  1.3208000000000E+01  1.3208000000000E+01  6.6040000000000E+00 
-2.5245700651923E-01 -2.5246658452484E-01 -2.5249747723082E-01 -2.5254969505736E-01 -2.5262325562198E-01 -2.5271818375223E-01 -2.5283451150346E-01 -2.5297227818190E-01 -2.5313153037290E-01 -2.5331232197447E-01 
 3.3866666666667E-05  6.7733333333333E-05  6.7733333333334E-05  6.7733333333333E-05  6.7733333333334E-05  6.7733333333334E-05  6.7733333333333E-05  6.7733333333334E-05  6.7733333333333E-05  3.3866666666667E-05 
 2.6603001364262E+01  2.6603001364262E+01  2.6603001364262E+01  2.6603001364262E+01  2.6603001364262E+01  2.6603001364262E+01  2.6603001364262E+01  2.6603001364262E+01  2.6603001364262E+01  2.6603001364262E+01 
 1.7735334242833E+01  1.7735334242833E+01  1.7735334242833E+01  1.7735334242833E+01  1.7735334242833E+01  1.7735334242833E+01  1.7735334242833E+01  1.7735334242833E+01  1.7735334242833E+01  1.7735334242833E+01 
 1.3976698385667E-09  3.4235151879736E-09  9.6096312546179E-09  2.0066003103555E-08  3.4796162821965E-08  5.3805088003204E-08  7.7099205319187E-08  1.0468639513536E-07  1.3657599717437E-07  1.5359766011865E-07 
 1.3976698385667E-01  3.4235151879736E-01  9.6096312546179E-01  2.0066003103555E+00  3.4796162821965E+00  5.3805088003204E+00  7.7099205319187E+00  1.0468639513536E+01  1.3657599717437E+01  1.5359766011865E+01 
 8.6725757253813E-02  7.7133312666953E-02  5.9145052631273E-02  4.3549933248128E-02  3.0348123732133E-02  1.9540602779131E-02  1.1129159964097E-02  5.1163977142482E-03  1.5057338683993E-03  3.0140482869722E-04 
 5.3041226602855E-02  2.6521820613041E-01  9.0181807283051E-01  1.9630503771073E+00  3.4492681584644E+00  5.3609681975413E+00  7.6987913719546E+00  1.0463523115822E+01  1.3656093983569E+01  1.5359464607036E+01 
 0.0000000000000E+00  0.0000000000000E+00  0.0000000000000E+00  0.0000000000000E+00  0.0000000000000E+00  0.0000000000000E+00  0.0000000000000E+00  0.0000000000000E+00  0.0000000000000E+00  0.0000000000000E+00 
 0.0000000000000E+00  0.0000000000000E+00  0.0000000000000E+00  0.0000000000000E+00  0.0000000000000E+00  0.0000000000000E+00  0.0000000000000E+00  0.0000000000000E+00  0.0000000000000E+00  0.0000000000000E+00 
 0.0000000000000E+00  0.0000000000000E+00  0.0000000000000E+00  0.0000000000000E+00  0.0000000000000E+00  0.0000000000000E+00  0.0000000000000E+00  0.0000000000000E+00  0.0000000000000E+00  0.0000000000000E+00 
ZONE T = "CATH, 2.0000E-08", I = 10, SOLUTIONTIME = 2.000000E-08
ZONETYPE = ORDERED
DATAPACKING = BLOCK
STRANDID = 3
 1.2700000000000E-03  1.3377333333333E-03  1.4054666666667E-03  1.4732000000000E-03  1.5409333333333E-03  1.6086666666667E-03  1.6764000000000E-03  1.7441333333333E-03  1.8118666666667E-03  1.8796000000000E-03 
 1.9703515930213E-08  1.7388327520463E-08  1.5072129354388E-08  1.2755452258286E-08  1.0438463689139E-08  8.1206044607560E-09  5.8016783006592E-09  3.4807621603986E-09  1.1587486028807E-09 -3.0872656861894E-12 
 9.2000000000063E-01  9.2000000000180E-01  9.2000000000180E-01  9.2000000000180E-01  9.2000000000180E-01  9.2000000000180E-01  9.2000000000180E-01  9.2000000000180E-01  9.2000000000180E-01  9.2000000000180E-01 
 3.9999999999683E-02  3.9999999999101E-02  3.9999999999101E-02  3.9999999999101E-02  3.9999999999101E-02  3.9999999999100E-02  3.9999999999100E-02  3.9999999999100E-02  3.9999999999099E-02  3.9999999999098E-02 
 3.9999999999683E-02  3.9999999999101E-02  3.9999999999101E-02  3.9999999999101E-02  3.9999999999101E-02  3.9999999999100E-02  3.9999999999100E-02  3.9999999999100E-02  3.9999999999099E-02  3.9999999999098E-02 
 2.9165655455743E-02  2.9165448444563E-02  2.9165265759484E-02  2.9165107403483E-02  2.9164973381593E-02  2.9164863700899E-02  2.9164778370551E-02  2.9164717401755E-02  2.9164680807787E-02  2.9164668603991E-02 
 3.8001746429253E+00  3.8001724880262E+00  3.8001660231657E+00  3.8001552478163E+00  3.8001401610865E+00  3.8001207617205E+00  3.8000970480979E+00  3.8000690182326E+00  3.8000366697729E+00  3.8000000000000E+00 
 3.7710089874695E+00  3.7710070395817E+00  3.7710007574062E+00  3.7709901404128E+00  3.7709751877049E+00  3.7709558980196E+00  3.7709322697273E+00  3.7709043008309E+00  3.7708719889651E+00  3.7708353313960E+00 
 3.9714142713285E+00  3.9714142713282E+00  3.9714142713282E+00  3.9714142713282E+00  3.9714142713282E+00  3.9714142713282E+00  3.9714142713282E+00  3.9714142713282E+00  3.9714142713282E+00  3.9714142713282E+00 
-2.0040528385901E-01 -2.0040723174647E-01 -2.0041351392193E-01 -2.0042413091537E-01 -2.0043908362328E-01 -2.0045837330852E-01 -2.0048200160082E-01 -2.0050997049727E-01 -2.0054228236304E-01 -2.0057893993214E-01 
-1.6672261263312E+00 -3.3345787597284E+00 -3.3349867931489E+00 -3.3356764905338E+00 -3.3366480845834E+00 -3.3379019032310E+00 -3.3394383698781E+00 -3.3412580036992E+00 -3.3433614200144E+00 -1.6728746653666E+00 
 1.4705227081799E-07  1.2977176978905E-07  1.1248941937737E-07  9.5203494873624E-08  7.7912535432008E-08  6.0615078543858E-08  4.3309659471441E-08  2.5994810818193E-08  8.6690619661999E-09  8.6690619661999E-09 
 3.0043950616323E+01  2.6709435110120E+01  2.3374652333997E+01  2.0039320692225E+01  1.6703158404264E+01  1.3365883410509E+01  1.0027213274216E+01  6.6868650873342E+00  3.3445553753922E+00  0.0000000000000E+00 
 0.0000000000000E+00  3.3345155061582E+00  6.6692982826107E+00  1.0004629924517E+01  1.3340792212058E+01  1.6678067205954E+01  2.0016737342469E+01  2.3357085529267E+01  2.6699395241104E+01  3.0043950616476E+01 
 3.3344521973842E-08  6.6691574081325E-08  6.6699734724136E-08  6.6713528628514E-08  6.6732960448385E-08  6.6758036742305E-08  6.6788765978159E-08  6.6825158539258E-08  6.6867226731797E-08  3.3457492396861E-08 
 7.2440786946558E+03  1.4488157389312E+04  1.4488157389312E+04  1.4488157389312E+04  1.4488157389312E+04  1.4488157389312E+04  1.4488157389312E+04  1.4488157389312E+04  1.4488157389312E+04  7.2440786946559E+03 
 4.9259735123400E+04  9.8519470246798E+04  9.8519470246799E+04  9.8519470246798E+04  9.8519470246799E+04  9.8519470246799E+04  9.8519470246798E+04  9.8519470246799E+04  9.8519470246798E+04  4.9259735123399E+04 
 5.6503813818055E+04  1.1300762763611E+05  1.1300762763611E+05  1.1300762763611E+05  1.1300762763611E+05  1.1300762763611E+05  1.1300762763611E+05  1.1300762763611E+05  1.1300762763611E+05  5.6503813818055E+04 
 3.5000000000000E-01  3.5000000000000E-01  3.5000000000000E-01  3.5000000000000E-01  3.5000000000000E-01  3.5000000000000E-01  3.5000000000000E-01  3.5000000000000E-01  3.5000000000000E-01  3.5000000000000E-01 
 6.6040000000000E+00  1.3208000000000E+01  1.3208000000000E+01  1.3208000000000E+01  1.3208000000000E+01  1.3208000000000E+01  1.3208000000000E+01  1.3208000000000E+01  1.3208000000000E+01  6.6040000000000E+00 
-2.5245701488964E-01 -2.5246659295339E-01 -2.5249748585319E-01 -2.5254970400771E-01 -2.5262326503509E-01 -2.5271819376370E-01 -2.5283452225001E-01 -2.5297228980157E-01 -2.5313154300533E-01 -2.5331233576115E-01 
 3.3866666666667E-05  6.7733333333333E-05  6.7733333333334E-05  6.7733333333333E-05  6.7733333333334E-05  6.7733333333334E-05  6.7733333333333E-05  6.7733333333334E-05  6.7733333333333E-05  3.3866666666667E-05 
 2.6603001364267E+01  2.6603001364267E+01  2.6603001364267E+01  2.6603001364267E+01  2.6603001364267E+01  2.6603001364267E+01  2.6603001364267E+01  2.6603001364267E+01  2.6603001364267E+01  2.6603001364267E+01 
 1.7735334242827E+01  1.7735334242827E+01  1.7735334242827E+01  1.7735334242827E+01  1.7735334242827E+01  1.7735334242827E+01  1.7735334242827E+01  1.7735334242827E+01  1.7735334242827E+01  1.7735334242827E+01 
 2.7953573135055E-09  6.8470732988275E-09  1.9219382721322E-08  4.0132257285805E-08  6.9592761531995E-08  1.0761085116587E-07  1.5419938020549E-07  2.0937411021273E-07  2.7315372162142E-07  3.0719726554750E-07 
 1.3976874749388E-01  3.4235581108539E-01  9.6097514667039E-01  2.0066254182250E+00  3.4796598710030E+00  5.3805763162669E+00  7.7100174886303E+00  1.0468771507736E+01  1.3657772444705E+01  1.5359960542885E+01 
 8.6726858820645E-02  7.7134293347165E-02  5.9145806400633E-02  4.3550489810270E-02  3.0348512804016E-02  1.9540854184374E-02  1.1129303709763E-02  5.1164640765133E-03  1.5057534831275E-03  3.0140877907997E-04 
 5.3041888673234E-02  2.6522151773823E-01  9.0182934026976E-01  1.9630749284148E+00  3.4493113581990E+00  5.3610354620825E+00  7.6988881849206E+00  1.0463655043660E+01  1.3656266691222E+01  1.5359659134106E+01 
 0.0000000000000E+00  0.0000000000000E+00  0.0000000000000E+00  0.0000000000000E+00  0.0000000000000E+00  0.0000000000000E+00  0.0000000000000E+00  0.0000000000000E+00  0.0000000000000E+00  0.0000000000000E+00 
 0.0000000000000E+00  0.0000000000000E+00  0.0000000000000E+00  0.0000000000000E+00  0.0000000000000E+00  0.0000000000000E+00  0.0000000000000E+00  0.0000000000000E+00  0.0000000000000E+00  0.0000000000000E+00 
 0.0000000000000E+00  0.0000000000000E+00  0.0000000000000E+00  0.0000000000000E+00  0.0000000000000E+00  0.0000000000000E+00  0.0000000000000E+00  0.0000000000000E+00  0.0000000000000E+00  0.0000000000000E+00 
ZONE T = "CATH, 3.0000E-08", I = 10, SOLUTIONTIME = 3.000000E-08
ZONETYPE = ORDERED
DATAPACKING = BLOCK
STRANDID = 3
 1.2700000000000E-03  1.3377333333333E-03  1.4054666666667E-03  1.4732000000000E-03  1.5409333333333E-03  1.6086666666667E-03  1.6764000000000E-03  1.7441333333333E-03  1.8118666666667E-03  1.8796000000000E-03 
 1.9706058383967E-08  1.7390143558802E-08  1.5073945392767E-08  1.2757994712160E-08  1.0440642935326E-08  8.1227837069821E-09  5.8038575469253E-09  3.4843942376159E-09  1.1631070955938E-09  1.6344347746990E-12 
 9.2000000000095E-01  9.2000000000270E-01  9.2000000000270E-01  9.2000000000270E-01  9.2000000000270E-01  9.2000000000270E-01  9.2000000000270E-01  9.2000000000270E-01  9.2000000000270E-01  9.2000000000270E-01 
 3.9999999999524E-02  3.9999999998652E-02  3.9999999998652E-02  3.9999999998652E-02  3.9999999998651E-02  3.9999999998651E-02  3.9999999998650E-02  3.9999999998649E-02  3.9999999998649E-02  3.9999999998648E-02 
 3.9999999999524E-02  3.9999999998652E-02  3.9999999998652E-02  3.9999999998652E-02  3.9999999998651E-02  3.9999999998651E-02  3.9999999998650E-02  3.9999999998649E-02  3.9999999998649E-02  3.9999999998648E-02 
 2.9165655455529E-02  2.9165448444348E-02  2.9165265759269E-02  2.9165107403269E-02  2.9164973381378E-02  2.9164863700685E-02  2.9164778370336E-02  2.9164717401541E-02  2.9164680807572E-02  2.9164668603776E-02 
 3.8001746429253E+00  3.8001724880262E+00  3.8001660231657E+00  3.8001552478163E+00  3.8001401610865E+00  3.8001207617205E+00  3.8000970480979E+00  3.8000690182326E+00  3.8000366697729E+00  3.8000000000000E+00 
 3.7710089874697E+00  3.7710070395819E+00  3.7710007574064E+00  3.7709901404130E+00  3.7709751877051E+00  3.7709558980198E+00  3.7709322697275E+00  3.7709043008311E+00  3.7708719889653E+00  3.7708353313962E+00 
 3.9714142713283E+00  3.9714142713278E+00  3.9714142713278E+00  3.9714142713278E+00  3.9714142713278E+00  3.9714142713278E+00  3.9714142713278E+00  3.9714142713278E+00  3.9714142713278E+00  3.9714142713278E+00 
-2.0040528385862E-01 -2.0040723174589E-01 -2.0041351392135E-01 -2.0042413091479E-01 -2.0043908362270E-01 -2.0045837330794E-01 -2.0048200160024E-01 -2.0050997049669E-01 -2.0054228236246E-01 -2.0057893993156E-01 
-1.6672261263146E+00 -3.3345787596711E+00 -3.3349867930915E+00 -3.3356764904764E+00 -3.3366480845260E+00 -3.3379019031735E+00 -3.3394383698206E+00 -3.3412580036415E+00 -3.3433614199566E+00 -1.6728746653377E+00 
 1.4705240338534E-07  1.2977176982121E-07  1.1248941941309E-07  9.5203494931949E-08  7.7912535509581E-08  6.0615078636199E-08  4.3309659583918E-08  2.5994810949481E-08  8.6690621102199E-09  8.6690621102199E-09 
 3.0043950615615E+01  2.6709435109871E+01  2.3374652333497E+01  2.0039320691524E+01  1.6703158404314E+01  1.3365883410359E+01  1.0027213273865E+01  6.6868650872589E+00  3.3445553753546E+00  0.0000000000000E+00 
 0.0000000000000E+00  3.3345155061582E+00  6.6692982826107E+00  1.0004629924345E+01  1.3340792211714E+01  1.6678067205611E+01  2.0016737342126E+01  2.3357085528923E+01  2.6699395240760E+01  3.0043950616103E+01 
 5.0016783236989E-08  1.0003736167804E-07  1.0004960265505E-07  1.0007029353328E-07  1.0009944129365E-07  1.0013705577404E-07  1.0018314967636E-07  1.0023773857567E-07  1.0030084093136E-07  5.0186239050238E-08 
 7.2440786946725E+03  1.4488157389345E+04  1.4488157389345E+04  1.4488157389345E+04  1.4488157389345E+04  1.4488157389345E+04  1.4488157389345E+04  1.4488157389345E+04  1.4488157389345E+04  7.2440786946727E+03 
 4.9259735123383E+04  9.8519470246765E+04  9.8519470246766E+04  9.8519470246765E+04  9.8519470246766E+04  9.8519470246766E+04  9.8519470246765E+04  9.8519470246766E+04  9.8519470246765E+04  4.9259735123383E+04 
 5.6503813818055E+04  1.1300762763611E+05  1.1300762763611E+05  1.1300762763611E+05  1.1300762763611E+05  1.1300762763611E+05  1.1300762763611E+05  1.1300762763611E+05  1.1300762763611E+05  5.6503813818055E+04 
 3.5000000000000E-01  3.5000000000000E-01  3.5000000000000E-01  3.5000000000000E-01  3.5000000000000E-01  3.5000000000000E-01  3.5000000000000E-01  3.5000000000000E-01  3.5000000000000E-01  3.5000000000000E-01 
 6.6040000000000E+00  1.3208000000000E+01  1.3208000000000E+01  1.3208000000000E+01  1.3208000000000E+01  1.3208000000000E+01  1.3208000000000E+01  1.3208000000000E+01  1.3208000000000E+01  6.6040000000000E+00 
-2.5245701488713E-01 -2.5246659294905E-01 -2.5249748584884E-01 -2.5254970400336E-01 -2.5262326503074E-01 -2.5271819375935E-01 -2.5283452224565E-01 -2.5297228979720E-01 -2.5313154300096E-01 -2.5331233575677E-01 
 3.3866666666667E-05  6.7733333333333E-05  6.7733333333334E-05  6.7733333333333E-05  6.7733333333334E-05  6.7733333333334E-05  6.7733333333333E-05  6.7733333333334E-05  6.7733333333333E-05  3.3866666666667E-05 
 2.6603001364272E+01  2.6603001364272E+01  2.6603001364272E+01  2.6603001364272E+01  2.6603001364272E+01  2.6603001364272E+01  2.6603001364272E+01  2.6603001364272E+01  2.6603001364272E+01  2.6603001364272E+01 
 1.7735334242822E+01  1.7735334242822E+01  1.7735334242822E+01  1.7735334242822E+01  1.7735334242822E+01  1.7735334242822E+01  1.7735334242822E+01  1.7735334242822E+01  1.7735334242822E+01  1.7735334242822E+01 
 4.1930447884086E-09  1.0270631409673E-08  2.8829134188010E-08  6.0198511467263E-08  1.0438936024028E-07  1.6141661432635E-07  2.3129955508916E-07  3.1406182528702E-07  4.0973144606497E-07  4.6079687097262E-07 
 1.3976874749031E-01  3.4235581108452E-01  9.6097514666878E-01  2.0066254181458E+00  3.4796598708285E+00  5.3805763160482E+00  7.7100174883671E+00  1.0468771507430E+01  1.3657772444355E+01  1.5359960542513E+01 
 8.6726858817079E-02  7.7134293346285E-02  5.9145806399027E-02  4.3550489807557E-02  3.0348512804445E-02  1.9540854184325E-02  1.1129303709038E-02  5.1164640764557E-03  1.5057534831105E-03  3.0140877907657E-04 
 5.3041888673234E-02  2.6522151773823E-01  9.0182934026976E-01  1.9630749283382E+00  3.4493113580241E+00  5.3610354618638E+00  7.6988881846581E+00  1.0463655043353E+01  1.3656266690872E+01  1.5359659133734E+01 
 0.0000000000000E+00  0.0000000000000E+00  0.0000000000000E+00  0.0000000000000E+00  0.0000000000000E+00  0.0000000000000E+00  0.0000000000000E+00  0.0000000000000E+00  0.0000000000000E+00  0.0000000000000E+00 
 0.0000000000000E+00  0.0000000000000E+00  0.0000000000000E+00  0.0000000000000E+00  0.0000000000000E+00  0.0000000000000E+00  0.0000000000000E+00  0.0000000000000E+00  0.0000000000000E+00  0.0000000000000E+00 
 0.0000000000000E+00  0.0000000000000E+00  0.0000000000000E+00  0.0000000000000E+00  0.0000000000000E+00  0.0000000000000E+00  0.0000000000000E+00  0.0000000000000E+00  0.0000000000000E+00  0.0000000000000E+00 
ZONE T = "CATH, 4.0000E-08", I = 10, SOLUTIONTIME = 4.000000E-08
ZONETYPE = ORDERED
DATAPACKING = BLOCK
STRANDID = 3
 1.2700000000000E-03  1.3377333333333E-03  1.4054666666667E-03  1.4732000000000E-03  1.5409333333333E-03  1.6086666666667E-03  1.6764000000000E-03  1.7441333333333E-03  1.8118666666667E-03  1.8796000000000E-03 
 1.9704242344989E-08  1.7389053935319E-08  1.5073582184779E-08  1.2756905088757E-08  1.0440279727418E-08  8.1224204991141E-09  5.8034943390973E-09  3.4829414066446E-09  1.1616542646628E-09  1.8160386385566E-13 
 9.2000000000127E-01  9.2000000000359E-01  9.2000000000359E-01  9.2000000000360E-01  9.2000000000360E-01  9.2000000000360E-01  9.2000000000360E-01  9.2000000000360E-01  9.2000000000360E-01  9.2000000000361E-01 
 3.9999999999365E-02  3.9999999998203E-02  3.9999999998203E-02  3.9999999998202E-02  3.9999999998202E-02  3.9999999998201E-02  3.9999999998200E-02  3.9999999998199E-02  3.9999999998198E-02  3.9999999998197E-02 
 3.9999999999365E-02  3.9999999998203E-02  3.9999999998203E-02  3.9999999998202E-02  3.9999999998202E-02  3.9999999998201E-02  3.9999999998200E-02  3.9999999998199E-02  3.9999999998198E-02  3.9999999998197E-02 
 2.9165655455314E-02  2.9165448444133E-02  2.9165265759054E-02  2.9165107403054E-02  2.9164973381163E-02  2.9164863700470E-02  2.9164778370121E-02  2.9164717401325E-02  2.9164680807357E-02  2.9164668603561E-02 
 3.8001746429252E+00  3.8001724880262E+00  3.8001660231657E+00  3.8001552478163E+00  3.8001401610865E+00  3.8001207617205E+00  3.8000970480979E+00  3.8000690182326E+00  3.8000366697729E+00  3.8000000000000E+00 
 3.7710089874699E+00  3.7710070395821E+00  3.7710007574067E+00  3.7709901404132E+00  3.7709751877053E+00  3.7709558980201E+00  3.7709322697278E+00  3.7709043008313E+00  3.7708719889655E+00  3.7708353313964E+00 
 3.9714142713282E+00  3.9714142713274E+00  3.9714142713274E+00  3.9714142713274E+00  3.9714142713274E+00  3.9714142713274E+00  3.9714142713274E+00  3.9714142713274E+00  3.9714142713274E+00  3.9714142713274E+00 
-2.0040528385823E-01 -2.0040723174531E-01 -2.0041351392077E-01 -2.0042413091421E-01 -2.0043908362212E-01 -2.0045837330736E-01 -2.0048200159966E-01 -2.0050997049611E-01 -2.0054228236188E-01 -2.0057893993098E-01 
-1.6672261262981E+00 -3.3345787596137E+00 -3.3349867930341E+00 -3.3356764904189E+00 -3.3366480844685E+00 -3.3379019031160E+00 -3.3394383697630E+00 -3.3412580035838E+00 -3.3433614198988E+00 -1.6728746653088E+00 