TITLE = "Solution on Domain BulkDomain1D_1"
VARIABLES = "x [m]"  
"Vel_axial" 	"MF_sp(ECDMC)" 	"MF_sp(Li+)" 	"MF_sp(PF6-)" 	"Volt(Electroly)" 	"Porosity []" 	"Control volume thickness [m]" 	"volFrac MgO(S) []" 	"qHeat_accum [J/m3]" 	"qHeat_step [W/m3]" 	"Joule_Lyte [W/m3]" 	"Joule_Solid [W/m3]" 	
ZONE T = "SEP , 0.0000E+00", I = 10, SOLUTIONTIME = 0.000000E+00
ZONETYPE = ORDERED
DATAPACKING = BLOCK
STRANDID = 2
 7.8740000000000E-04  8.4102222222222E-04  8.9464444444444E-04  9.4826666666667E-04  1.0018888888889E-03  1.0555111111111E-03  1.1091333333333E-03  1.1627555555556E-03  1.2163777777778E-03  1.2700000000000E-03 
 0.0000000000000E+00  0.0000000000000E+00  0.0000000000000E+00  0.0000000000000E+00  0.0000000000000E+00  0.0000000000000E+00  0.0000000000000E+00  0.0000000000000E+00  0.0000000000000E+00  0.0000000000000E+00 
 9.2000000000000E-01  9.2000000000000E-01  9.2000000000000E-01  9.2000000000000E-01  9.2000000000000E-01  9.2000000000000E-01  9.2000000000000E-01  9.2000000000000E-01  9.2000000000000E-01  9.2000000000000E-01 
 4.0000000000000E-02  4.0000000000000E-02  4.0000000000000E-02  4.0000000000000E-02  4.0000000000000E-02  4.0000000000000E-02  4.0000000000000E-02  4.0000000000000E-02  4.0000000000000E-02  4.0000000000000E-02 
 4.0000000000000E-02  4.0000000000000E-02  4.0000000000000E-02  4.0000000000000E-02  4.0000000000000E-02  4.0000000000000E-02  4.0000000000000E-02  4.0000000000000E-02  4.0000000000000E-02  4.0000000000000E-02 
-7.0000000000000E-02 -7.0000000000000E-02 -7.0000000000000E-02 -7.0000000000000E-02 -7.0000000000000E-02 -7.0000000000000E-02 -7.0000000000000E-02 -7.0000000000000E-02 -7.0000000000000E-02 -7.0000000000000E-02 
 8.0911139820575E-01  8.0911139820575E-01  8.0911139820575E-01  8.0911139820575E-01  8.0911139820575E-01  8.0911139820575E-01  8.0911139820575E-01  8.0911139820575E-01  8.0911139820575E-01  8.0911139820575E-01 
 2.6811111111111E-05  5.3622222222222E-05  5.3622222222222E-05  5.3622222222222E-05  5.3622222222222E-05  5.3622222222222E-05  5.3622222222222E-05  5.3622222222223E-05  5.3622222222222E-05  2.6811111111111E-05 
 1.9088860179425E-01  1.9088860179425E-01  1.9088860179425E-01  1.9088860179425E-01  1.9088860179425E-01  1.9088860179425E-01  1.9088860179425E-01  1.9088860179425E-01  1.9088860179425E-01  1.9088860179425E-01 
 0.0000000000000E+00  0.0000000000000E+00  0.0000000000000E+00  0.0000000000000E+00  0.0000000000000E+00  0.0000000000000E+00  0.0000000000000E+00  0.0000000000000E+00  0.0000000000000E+00  0.0000000000000E+00 
 0.0000000000000E+00  0.0000000000000E+00  0.0000000000000E+00  0.0000000000000E+00  0.0000000000000E+00  0.0000000000000E+00  0.0000000000000E+00  0.0000000000000E+00  0.0000000000000E+00  0.0000000000000E+00 
 0.0000000000000E+00  0.0000000000000E+00  0.0000000000000E+00  0.0000000000000E+00  0.0000000000000E+00  0.0000000000000E+00  0.0000000000000E+00  0.0000000000000E+00  0.0000000000000E+00  0.0000000000000E+00 
 0.0000000000000E+00  0.0000000000000E+00  0.0000000000000E+00  0.0000000000000E+00  0.0000000000000E+00  0.0000000000000E+00  0.0000000000000E+00  0.0000000000000E+00  0.0000000000000E+00  0.0000000000000E+00 
ZONE T = "SEP , 1.0000E-08", I = 10, SOLUTIONTIME = 1.000000E-08
ZONETYPE = ORDERED
DATAPACKING = BLOCK
STRANDID = 2
 7.8740000000000E-04  8.4102222222222E-04  8.9464444444444E-04  9.4826666666667E-04  1.0018888888889E-03  1.0555111111111E-03  1.1091333333333E-03  1.1627555555556E-03  1.2163777777778E-03  1.2700000000000E-03 
 2.0863323627200E-08  2.0863323627200E-08  2.0863323627200E-08  2.0863323627200E-08  2.0863323627200E-08  2.0863323627200E-08  2.0863323627200E-08  2.0863323627200E-08  2.0863323627200E-08  1.9705052572394E-08 
 9.1999999999971E-01  9.2000000000000E-01  9.2000000000000E-01  9.2000000000000E-01  9.2000000000000E-01  9.2000000000000E-01  9.2000000000000E-01  9.2000000000000E-01  9.2000000000000E-01  9.2000000000032E-01 
 4.0000000000144E-02  4.0000000000000E-02  4.0000000000000E-02  4.0000000000000E-02  4.0000000000000E-02  4.0000000000000E-02  4.0000000000000E-02  4.0000000000000E-02  4.0000000000000E-02  3.9999999999841E-02 
 4.0000000000144E-02  4.0000000000000E-02  4.0000000000000E-02  4.0000000000000E-02  4.0000000000000E-02  4.0000000000000E-02  4.0000000000000E-02  4.0000000000000E-02  4.0000000000000E-02  3.9999999999841E-02 
 2.9166097552581E-02  2.9166048187670E-02  2.9165998822760E-02  2.9165949457849E-02  2.9165900092929E-02  2.9165850728018E-02  2.9165801363107E-02  2.9165751998196E-02  2.9165702633286E-02  2.9165653268380E-02 
 8.0911139820575E-01  8.0911139820575E-01  8.0911139820575E-01  8.0911139820575E-01  8.0911139820575E-01  8.0911139820575E-01  8.0911139820575E-01  8.0911139820575E-01  8.0911139820575E-01  8.0911139820575E-01 
 2.6811111111111E-05  5.3622222222222E-05  5.3622222222222E-05  5.3622222222222E-05  5.3622222222222E-05  5.3622222222222E-05  5.3622222222222E-05  5.3622222222223E-05  5.3622222222222E-05  2.6811111111111E-05 
 1.9088860179425E-01  1.9088860179425E-01  1.9088860179425E-01  1.9088860179425E-01  1.9088860179425E-01  1.9088860179425E-01  1.9088860179425E-01  1.9088860179425E-01  1.9088860179425E-01  1.9088860179425E-01 
 2.7658486615263E-10  2.7658486729927E-10  2.7658486823209E-10  2.7658492159171E-10  2.7658492592657E-10  2.7658487233369E-10  2.7658487107016E-10  2.7658486792107E-10  2.7658483662427E-10  2.7658481156733E-10 
 2.7658486615263E-02  2.7658486729927E-02  2.7658486823209E-02  2.7658492159171E-02  2.7658492592657E-02  2.7658487233369E-02  2.7658487107016E-02  2.7658486792107E-02  2.7658483662427E-02  2.7658481156733E-02 
 2.7658486615263E-02  2.7658486729927E-02  2.7658486823209E-02  2.7658492159171E-02  2.7658492592657E-02  2.7658487233369E-02  2.7658487107016E-02  2.7658486792107E-02  2.7658483662427E-02  2.7658481156733E-02 
 0.0000000000000E+00  0.0000000000000E+00  0.0000000000000E+00  0.0000000000000E+00  0.0000000000000E+00  0.0000000000000E+00  0.0000000000000E+00  0.0000000000000E+00  0.0000000000000E+00  0.0000000000000E+00 
ZONE T = "SEP , 2.0000E-08", I = 10, SOLUTIONTIME = 2.000000E-08
ZONETYPE = ORDERED
DATAPACKING = BLOCK
STRANDID = 2
 7.8740000000000E-04  8.4102222222222E-04  8.9464444444444E-04  9.4826666666667E-04  1.0018888888889E-03  1.0555111111111E-03  1.1091333333333E-03  1.1627555555556E-03  1.2163777777778E-03  1.2700000000000E-03 
 2.0861974230772E-08  2.0861974230772E-08  2.0861974230772E-08  2.0861974230772E-08  2.0861974230772E-08  2.0861974230772E-08  2.0861974230772E-08  2.0861974230772E-08  2.0861974230772E-08  1.9704242345668E-08 
 9.1999999999942E-01  9.2000000000000E-01  9.2000000000000E-01  9.2000000000000E-01  9.2000000000000E-01  9.2000000000000E-01  9.2000000000000E-01  9.2000000000000E-01  9.2000000000000E-01  9.2000000000063E-01 
 4.0000000000288E-02  4.0000000000000E-02  4.0000000000000E-02  4.0000000000000E-02  4.0000000000000E-02  4.0000000000000E-02  4.0000000000000E-02  4.0000000000000E-02  4.0000000000000E-02  3.9999999999683E-02 
 4.0000000000288E-02  4.0000000000000E-02  4.0000000000000E-02  4.0000000000000E-02  4.0000000000000E-02  4.0000000000000E-02  4.0000000000000E-02  4.0000000000000E-02  4.0000000000000E-02  3.9999999999683E-02 
 2.9166099742159E-02  2.9166050377001E-02  2.9166001011844E-02  2.9165951646687E-02  2.9165902281530E-02  2.9165852916372E-02  2.9165803551215E-02  2.9165754186058E-02  2.9165704820901E-02  2.9165655455743E-02 
 8.0911139820575E-01  8.0911139820575E-01  8.0911139820575E-01  8.0911139820575E-01  8.0911139820575E-01  8.0911139820575E-01  8.0911139820575E-01  8.0911139820575E-01  8.0911139820575E-01  8.0911139820575E-01 
 2.6811111111111E-05  5.3622222222222E-05  5.3622222222222E-05  5.3622222222222E-05  5.3622222222222E-05  5.3622222222222E-05  5.3622222222222E-05  5.3622222222223E-05  5.3622222222222E-05  2.6811111111111E-05 
 1.9088860179425E-01  1.9088860179425E-01  1.9088860179425E-01  1.9088860179425E-01  1.9088860179425E-01  1.9088860179425E-01  1.9088860179425E-01  1.9088860179425E-01  1.9088860179425E-01  1.9088860179425E-01 
 5.5317249814838E-10  5.5317249931396E-10  5.5317250024627E-10  5.5317255358645E-10  5.5317255794075E-10  5.5317250434787E-10  5.5317250306491E-10  5.5317249991581E-10  5.5317246863790E-10  5.5317244359986E-10 
 2.7658763199574E-02  2.7658763201468E-02  2.7658763201418E-02  2.7658763199474E-02  2.7658763201418E-02  2.7658763201418E-02  2.7658763199475E-02  2.7658763199474E-02  2.7658763201364E-02  2.7658763203253E-02 
 2.7658763199574E-02  2.7658763201468E-02  2.7658763201418E-02  2.7658763199474E-02  2.7658763201418E-02  2.7658763201418E-02  2.7658763199475E-02  2.7658763199474E-02  2.7658763201364E-02  2.7658763203253E-02 
 0.0000000000000E+00  0.0000000000000E+00  0.0000000000000E+00  0.0000000000000E+00  0.0000000000000E+00  0.0000000000000E+00  0.0000000000000E+00  0.0000000000000E+00  0.0000000000000E+00  0.0000000000000E+00 
ZONE T = "SEP , 3.0000E-08", I = 10, SOLUTIONTIME = 3.000000E-08
ZONETYPE = ORDERED
DATAPACKING = BLOCK
STRANDID = 2
 7.8740000000000E-04  8.4102222222222E-04  8.9464444444444E-04  9.4826666666667E-04  1.0018888888889E-03  1.0555111111111E-03  1.1091333333333E-03  1.1627555555556E-03  1.2163777777778E-03  1.2700000000000E-03 
 2.0863790269060E-08  2.0863790269060E-08  2.0863790269060E-08  2.0863790269060E-08  2.0863790269060E-08  2.0863790269060E-08  2.0863790269060E-08  2.0863790269060E-08  2.0863790269060E-08  1.9705331968512E-08 
 9.1999999999914E-01  9.2000000000000E-01  9.2000000000000E-01  9.2000000000000E-01  9.2000000000000E-01  9.2000000000000E-01  9.2000000000000E-01  9.2000000000000E-01  9.2000000000000E-01  9.2000000000095E-01 
 4.0000000000432E-02  4.0000000000000E-02  4.0000000000000E-02  4.0000000000000E-02  4.0000000000000E-02  4.0000000000000E-02  4.0000000000000E-02  4.0000000000000E-02  4.0000000000000E-02  3.9999999999524E-02 
 4.0000000000432E-02  4.0000000000000E-02  4.0000000000000E-02  4.0000000000000E-02  4.0000000000000E-02  4.0000000000000E-02  4.0000000000000E-02  4.0000000000000E-02  4.0000000000000E-02  3.9999999999524E-02 
 2.9166099741944E-02  2.9166050376787E-02  2.9166001011630E-02  2.9165951646472E-02  2.9165902281315E-02  2.9165852916158E-02  2.9165803551001E-02  2.9165754185843E-02  2.9165704820686E-02  2.9165655455529E-02 
 8.0911139820575E-01  8.0911139820575E-01  8.0911139820575E-01  8.0911139820575E-01  8.0911139820575E-01  8.0911139820575E-01  8.0911139820575E-01  8.0911139820575E-01  8.0911139820575E-01  8.0911139820575E-01 
 2.6811111111111E-05  5.3622222222222E-05  5.3622222222222E-05  5.3622222222222E-05  5.3622222222222E-05  5.3622222222222E-05  5.3622222222222E-05  5.3622222222223E-05  5.3622222222222E-05  2.6811111111111E-05 
 1.9088860179425E-01  1.9088860179425E-01  1.9088860179425E-01  1.9088860179425E-01  1.9088860179425E-01  1.9088860179425E-01  1.9088860179425E-01  1.9088860179425E-01  1.9088860179425E-01  1.9088860179425E-01 
 8.2976013014461E-10  8.2976013130945E-10  8.2976013224102E-10  8.2976018558120E-10  8.2976018993550E-10  8.2976013634262E-10  8.2976013505965E-10  8.2976013191055E-10  8.2976010065126E-10  8.2976007563183E-10 
 2.7658763199624E-02  2.7658763199549E-02  2.7658763199474E-02  2.7658763199474E-02  2.7658763199474E-02  2.7658763199475E-02  2.7658763199475E-02  2.7658763199474E-02  2.7658763201336E-02  2.7658763203198E-02 
 2.7658763199624E-02  2.7658763199549E-02  2.7658763199474E-02  2.7658763199474E-02  2.7658763199474E-02  2.7658763199475E-02  2.7658763199475E-02  2.7658763199474E-02  2.7658763201336E-02  2.7658763203198E-02 
 0.0000000000000E+00  0.0000000000000E+00  0.0000000000000E+00  0.0000000000000E+00  0.0000000000000E+00  0.0000000000000E+00  0.0000000000000E+00  0.0000000000000E+00  0.0000000000000E+00  0.0000000000000E+00 
ZONE T = "SEP , 4.0000E-08", I = 10, SOLUTIONTIME = 4.000000E-08
ZONETYPE = ORDERED
DATAPACKING = BLOCK
STRANDID = 2
 7.8740000000000E-04  8.4102222222222E-04  8.9464444444444E-04  9.4826666666667E-04  1.0018888888889E-03  1.0555111111111E-03  1.1091333333333E-03  1.1627555555556E-03  1.2163777777778E-03  1.2700000000000E-03 
 2.0861429418478E-08  2.0861429418478E-08  2.0861429418478E-08  2.0861429418478E-08  2.0861429418478E-08  2.0861429418478E-08  2.0861429418478E-08  2.0861429418478E-08  2.0861429418478E-08  1.9704968760444E-08 
 9.1999999999885E-01  9.2000000000000E-01  9.2000000000000E-01  9.2000000000000E-01  9.2000000000000E-01  9.2000000000000E-01  9.2000000000000E-01  9.2000000000000E-01  9.2000000000000E-01  9.2000000000127E-01 
 4.0000000000576E-02  4.0000000000000E-02  4.0000000000000E-02  4.0000000000000E-02  4.0000000000000E-02  4.0000000000000E-02  4.0000000000000E-02  4.0000000000000E-02  4.0000000000000E-02  3.9999999999365E-02 
 4.0000000000576E-02  4.0000000000000E-02  4.0000000000000E-02  4.0000000000000E-02  4.0000000000000E-02  4.0000000000000E-02  4.0000000000000E-02  4.0000000000000E-02  4.0000000000000E-02  3.9999999999365E-02 
 2.9166099741729E-02  2.9166050376572E-02  2.9166001011415E-02  2.9165951646257E-02  2.9165902281100E-02  2.9165852915943E-02  2.9165803550786E-02  2.9165754185628E-02  2.9165704820471E-02  2.9165655455314E-02 
 8.0911139820575E-01  8.0911139820575E-01  8.0911139820575E-01  8.0911139820575E-01  8.0911139820575E-01  8.0911139820575E-01  8.0911139820575E-01  8.0911139820575E-01  8.0911139820575E-01  8.0911139820575E-01 
 2.6811111111111E-05  5.3622222222222E-05  5.3622222222222E-05  5.3622222222222E-05  5.3622222222222E-05  5.3622222222222E-05  5.3622222222222E-05  5.3622222222223E-05  5.3622222222222E-05  2.6811111111111E-05 
 1.9088860179425E-01  1.9088860179425E-01  1.9088860179425E-01  1.9088860179425E-01  1.9088860179425E-01  1.9088860179425E-01  1.9088860179425E-01  1.9088860179425E-01  1.9088860179425E-01  1.9088860179425E-01 
 1.1063477621414E-09  1.1063477633052E-09  1.1063477642358E-09  1.1063478175759E-09  1.1063478219108E-09  1.1063477683179E-09  1.1063477670544E-09  1.1063477639053E-09  1.1063477326449E-09  1.1063477076244E-09 
 2.7658763199674E-02  2.7658763199574E-02  2.7658763199474E-02  2.7658763199474E-02  2.7658763197531E-02  2.7658763197531E-02  2.7658763199475E-02  2.7658763199474E-02  2.7658763199365E-02  2.7658763199255E-02 
 2.7658763199674E-02  2.7658763199574E-02  2.7658763199474E-02  2.7658763199474E-02  2.7658763197531E-02  2.7658763197531E-02  2.7658763199475E-02  2.7658763199474E-02  2.7658763199365E-02  2.7658763199255E-02 
 0.0000000000000E+00  0.0000000000000E+00  0.0000000000000E+00  0.0000000000000E+00  0.0000000000000E+00  0.0000000000000E+00  0.0000000000000E+00  0.0000000000000E+00  0.0000000000000E+00  0.0000000000000E+00 
ZONE T = "SEP , 5.5000E-08", I = 10, SOLUTIONTIME = 5.500000E-08
ZONETYPE = ORDERED
DATAPACKING = BLOCK
STRANDID = 2
 7.8740000000000E-04  8.4102222222222E-04  8.9464444444444E-04  9.4826666666667E-04  1.0018888888889E-03  1.0555111111111E-03  1.1091333333333E-03  1.1627555555556E-03  1.2163777777778E-03  1.2700000000000E-03 
 2.0865364168493E-08  2.0865364168493E-08  2.0865364168493E-08  2.0865364168493E-08  2.0865364168493E-08  2.0865364168493E-08  2.0865364168493E-08  2.0865364168492E-08  2.0865364168493E-08  1.9707632283424E-08 
 9.1999999999842E-01  9.2000000000000E-01  9.2000000000000E-01  9.2000000000000E-01  9.2000000000000E-01  9.2000000000000E-01  9.2000000000000E-01  9.2000000000000E-01  9.2000000000000E-01  9.2000000000175E-01 
 4.0000000000792E-02  4.0000000000000E-02  4.0000000000000E-02  4.0000000000000E-02  4.0000000000000E-02  4.0000000000000E-02  4.0000000000000E-02  4.0000000000000E-02  4.0000000000000E-02  3.9999999999127E-02 
 4.0000000000792E-02  4.0000000000000E-02  4.0000000000000E-02  4.0000000000000E-02  4.0000000000000E-02  4.0000000000000E-02  4.0000000000000E-02  4.0000000000000E-02  4.0000000000000E-02  3.9999999999127E-02 
 2.9166099741485E-02  2.9166050376327E-02  2.9166001011170E-02  2.9165951646013E-02  2.9165902280855E-02  2.9165852915698E-02  2.9165803550541E-02  2.9165754185384E-02  2.9165704820226E-02  2.9165655455069E-02 
 8.0911139820575E-01  8.0911139820575E-01  8.0911139820575E-01  8.0911139820575E-01  8.0911139820575E-01  8.0911139820575E-01  8.0911139820575E-01  8.0911139820575E-01  8.0911139820575E-01  8.0911139820575E-01 
 2.6811111111111E-05  5.3622222222222E-05  5.3622222222222E-05  5.3622222222222E-05  5.3622222222222E-05  5.3622222222222E-05  5.3622222222222E-05  5.3622222222223E-05  5.3622222222222E-05  2.6811111111111E-05 
 1.9088860179425E-01  1.9088860179425E-01  1.9088860179425E-01  1.9088860179425E-01  1.9088860179425E-01  1.9088860179425E-01  1.9088860179425E-01  1.9088860179425E-01  1.9088860179425E-01  1.9088860179425E-01 
 1.5212292100793E-09  1.5212292112702E-09  1.5212292121987E-09  1.5212292655389E-09  1.5212292698738E-09  1.5212292162809E-09  1.5212292150465E-09  1.5212292118682E-09  1.5212291806056E-09  1.5212291556120E-09 
 2.7658763195861E-02  2.7658763197668E-02  2.7658763197531E-02  2.7658763197531E-02  2.7658763197531E-02  2.7658763197531E-02  2.7658763199475E-02  2.7658763197530E-02  2.7658763197380E-02  2.7658763199173E-02 
 2.7658763195861E-02  2.7658763197668E-02  2.7658763197531E-02  2.7658763197531E-02  2.7658763197531E-02  2.7658763197531E-02  2.7658763199475E-02  2.7658763197530E-02  2.7658763197380E-02  2.7658763199173E-02 
 0.0000000000000E+00  0.0000000000000E+00  0.0000000000000E+00  0.0000000000000E+00  0.0000000000000E+00  0.0000000000000E+00  0.0000000000000E+00  0.0000000000000E+00  0.0000000000000E+00  0.0000000000000E+00 
ZONE T = "SEP , 7.7500E-08", I = 10, SOLUTIONTIME = 7.750000E-08
ZONETYPE = ORDERED
DATAPACKING = BLOCK
STRANDID = 2
 7.8740000000000E-04  8.4102222222222E-04  8.9464444444444E-04  9.4826666666667E-04  1.0018888888889E-03  1.0555111111111E-03  1.1091333333333E-03  1.1627555555556E-03  1.2163777777778E-03  1.2700000000000E-03 
 2.0861086387995E-08  2.0861086387995E-08  2.0861086387995E-08  2.0861086387995E-08  2.0861086387995E-08  2.0861086387995E-08  2.0861086387995E-08  2.0861086387995E-08  2.0861086387995E-08  1.9703515928605E-08 
 9.1999999999777E-01  9.2000000000000E-01  9.2000000000000E-01  9.2000000000000E-01  9.2000000000000E-01  9.2000000000000E-01  9.2000000000000E-01  9.2000000000000E-01  9.2000000000000E-01  9.2000000000246E-01 
 4.0000000001117E-02  4.0000000000000E-02  4.0000000000000E-02  4.0000000000000E-02  4.0000000000000E-02  4.0000000000000E-02  4.0000000000000E-02  4.0000000000000E-02  4.0000000000000E-02  3.9999999998770E-02 
 4.0000000001117E-02  4.0000000000000E-02  4.0000000000000E-02  4.0000000000000E-02  4.0000000000000E-02  4.0000000000000E-02  4.0000000000000E-02  4.0000000000000E-02  4.0000000000000E-02  3.9999999998770E-02 
 2.9166099741057E-02  2.9166050375899E-02  2.9166001010742E-02  2.9165951645585E-02  2.9165902280428E-02  2.9165852915270E-02  2.9165803550113E-02  2.9165754184956E-02  2.9165704819799E-02  2.9165655454641E-02 
 8.0911139820575E-01  8.0911139820575E-01  8.0911139820575E-01  8.0911139820575E-01  8.0911139820575E-01  8.0911139820575E-01  8.0911139820575E-01  8.0911139820575E-01  8.0911139820575E-01  8.0911139820575E-01 
 2.6811111111111E-05  5.3622222222222E-05  5.3622222222222E-05  5.3622222222222E-05  5.3622222222222E-05  5.3622222222222E-05  5.3622222222222E-05  5.3622222222223E-05  5.3622222222222E-05  2.6811111111111E-05 
 1.9088860179425E-01  1.9088860179425E-01  1.9088860179425E-01  1.9088860179425E-01  1.9088860179425E-01  1.9088860179425E-01  1.9088860179425E-01  1.9088860179425E-01  1.9088860179425E-01  1.9088860179425E-01 
 2.1435513819887E-09  2.1435513831752E-09  2.1435513840994E-09  2.1435514374396E-09  2.1435514417745E-09  2.1435513882253E-09  2.1435513869910E-09  2.1435513837689E-09  2.1435513525015E-09  2.1435513275031E-09 
 2.7658763195973E-02  2.7658763195780E-02  2.7658763195587E-02  2.7658763195587E-02  2.7658763195587E-02  2.7658763197531E-02  2.7658763197531E-02  2.7658763195586E-02  2.7658763195374E-02  2.7658763195161E-02 
 2.7658763195973E-02  2.7658763195780E-02  2.7658763195587E-02  2.7658763195587E-02  2.7658763195587E-02  2.7658763197531E-02  2.7658763197531E-02  2.7658763195586E-02  2.7658763195374E-02  2.7658763195161E-02 
 0.0000000000000E+00  0.0000000000000E+00  0.0000000000000E+00  0.0000000000000E+00  0.0000000000000E+00  0.0000000000000E+00  0.0000000000000E+00  0.0000000000000E+00  0.0000000000000E+00  0.0000000000000E+00 
ZONE T = "SEP , 1.1125E-07", I = 10, SOLUTIONTIME = 1.112500E-07
ZONETYPE = ORDERED
DATAPACKING = BLOCK
STRANDID = 2
 7.8740000000000E-04  8.4102222222222E-04  8.9464444444444E-04  9.4826666666667E-04  1.0018888888889E-03  1.0555111111111E-03  1.1091333333333E-03  1.1627555555556E-03  1.2163777777778E-03  1.2700000000000E-03 
 2.0863238729200E-08  2.0863238729200E-08  2.0863238729200E-08  2.0863238729200E-08  2.0863238729200E-08  2.0863238729200E-08  2.0863238729200E-08  2.0863238729200E-08  2.0863238729200E-08  1.9705506844184E-08 
 9.1999999999679E-01  9.2000000000000E-01  9.2000000000000E-01  9.2000000000000E-01  9.2000000000000E-01  9.2000000000000E-01  9.2000000000000E-01  9.2000000000000E-01  9.2000000000000E-01  9.2000000000353E-01 
 4.0000000001603E-02  4.0000000000000E-02  4.0000000000000E-02  4.0000000000000E-02  4.0000000000000E-02  4.0000000000000E-02  4.0000000000000E-02  4.0000000000000E-02  4.0000000000000E-02  3.9999999998234E-02 
 4.0000000001603E-02  4.0000000000000E-02  4.0000000000000E-02  4.0000000000000E-02  4.0000000000000E-02  4.0000000000000E-02  4.0000000000000E-02  4.0000000000000E-02  4.0000000000000E-02  3.9999999998234E-02 
 2.9166099740419E-02  2.9166050375262E-02  2.9166001010104E-02  2.9165951644947E-02  2.9165902279790E-02  2.9165852914633E-02  2.9165803549475E-02  2.9165754184318E-02  2.9165704819161E-02  2.9165655454004E-02 
 8.0911139820575E-01  8.0911139820575E-01  8.0911139820575E-01  8.0911139820575E-01  8.0911139820575E-01  8.0911139820575E-01  8.0911139820575E-01  8.0911139820575E-01  8.0911139820575E-01  8.0911139820575E-01 
 2.6811111111111E-05  5.3622222222222E-05  5.3622222222222E-05  5.3622222222222E-05  5.3622222222222E-05  5.3622222222222E-05  5.3622222222222E-05  5.3622222222223E-05  5.3622222222222E-05  2.6811111111111E-05 
 1.9088860179425E-01  1.9088860179425E-01  1.9088860179425E-01  1.9088860179425E-01  1.9088860179425E-01  1.9088860179425E-01  1.9088860179425E-01  1.9088860179425E-01  1.9088860179425E-01  1.9088860179425E-01 
 3.0770346397272E-09  3.0770346409700E-09  3.0770346418849E-09  3.0770346952250E-09  3.0770346995599E-09  3.0770346460108E-09  3.0770346447764E-09  3.0770346415544E-09  3.0770346103423E-09  3.0770345853336E-09 
 2.7658763192253E-02  2.7658763193920E-02  2.7658763193643E-02  2.7658763193643E-02  2.7658763193643E-02  2.7658763193643E-02  2.7658763193643E-02  2.7658763193643E-02  2.7658763195281E-02  2.7658763194976E-02 
 2.7658763192253E-02  2.7658763193920E-02  2.7658763193643E-02  2.7658763193643E-02  2.7658763193643E-02  2.7658763193643E-02  2.7658763193643E-02  2.7658763193643E-02  2.7658763195281E-02  2.7658763194976E-02 
 0.0000000000000E+00  0.0000000000000E+00  0.0000000000000E+00  0.0000000000000E+00  0.0000000000000E+00  0.0000000000000E+00  0.0000000000000E+00  0.0000000000000E+00  0.0000000000000E+00  0.0000000000000E+00 
ZONE T = "SEP , 1.6188E-07", I = 10, SOLUTIONTIME = 1.618750E-07
ZONETYPE = ORDERED
DATAPACKING = BLOCK
STRANDID = 2
 7.8740000000000E-04  8.4102222222222E-04  8.9464444444444E-04  9.4826666666667E-04  1.0018888888889E-03  1.0555111111111E-03  1.1091333333333E-03  1.1627555555556E-03  1.2163777777778E-03  1.2700000000000E-03 
 2.0863453962080E-08  2.0863453962080E-08  2.0863453962080E-08  2.0863453962080E-08  2.0863453962080E-08  2.0863453962080E-08  2.0863453962080E-08  2.0863453962080E-08  2.0863453962080E-08  1.9705542715270E-08 
 9.1999999999534E-01  9.2000000000000E-01  9.2000000000000E-01  9.2000000000000E-01  9.2000000000000E-01  9.2000000000000E-01  9.2000000000000E-01  9.2000000000000E-01  9.2000000000000E-01  9.2000000000514E-01 
 4.0000000002332E-02  4.0000000000001E-02  4.0000000000000E-02  4.0000000000000E-02  4.0000000000000E-02  4.0000000000000E-02  4.0000000000000E-02  4.0000000000000E-02  3.9999999999999E-02  3.9999999997431E-02 
 4.0000000002332E-02  4.0000000000001E-02  4.0000000000000E-02  4.0000000000000E-02  4.0000000000000E-02  4.0000000000000E-02  4.0000000000000E-02  4.0000000000000E-02  3.9999999999999E-02  3.9999999997431E-02 
 2.9166099739465E-02  2.9166050374307E-02  2.9166001009150E-02  2.9165951643993E-02  2.9165902278836E-02  2.9165852913678E-02  2.9165803548521E-02  2.9165754183364E-02  2.9165704818207E-02  2.9165655453049E-02 
 8.0911139820575E-01  8.0911139820575E-01  8.0911139820575E-01  8.0911139820575E-01  8.0911139820575E-01  8.0911139820575E-01  8.0911139820575E-01  8.0911139820575E-01  8.0911139820575E-01  8.0911139820575E-01 
 2.6811111111111E-05  5.3622222222222E-05  5.3622222222222E-05  5.3622222222222E-05  5.3622222222222E-05  5.3622222222222E-05  5.3622222222222E-05  5.3622222222223E-05  5.3622222222222E-05  2.6811111111111E-05 
 1.9088860179425E-01  1.9088860179425E-01  1.9088860179425E-01  1.9088860179425E-01  1.9088860179425E-01  1.9088860179425E-01  1.9088860179425E-01  1.9088860179425E-01  1.9088860179425E-01  1.9088860179425E-01 
 4.4772595261510E-09  4.4772595274718E-09  4.4772595284646E-09  4.4772595817064E-09  4.4772595860412E-09  4.4772595325905E-09  4.4772595312578E-09  4.4772595280357E-09  4.4772594968995E-09  4.4772594718683E-09 
 2.7658763188618E-02  2.7658763190158E-02  2.7658763191699E-02  2.7658763189755E-02  2.7658763189755E-02  2.7658763191699E-02  2.7658763189755E-02  2.7658763189755E-02  2.7658763191255E-02  2.7658763190810E-02 
 2.7658763188618E-02  2.7658763190158E-02  2.7658763191699E-02  2.7658763189755E-02  2.7658763189755E-02  2.7658763191699E-02  2.7658763189755E-02  2.7658763189755E-02  2.7658763191255E-02  2.7658763190810E-02 
 0.0000000000000E+00  0.0000000000000E+00  0.0000000000000E+00  0.0000000000000E+00  0.0000000000000E+00  0.0000000000000E+00  0.0000000000000E+00  0.0000000000000E+00  0.0000000000000E+00  0.0000000000000E+00 
ZONE T = "SEP , 2.3781E-07", I = 10, SOLUTIONTIME = 2.378125E-07
ZONETYPE = ORDERED
DATAPACKING = BLOCK
STRANDID = 2
 7.8740000000000E-04  8.4102222222222E-04  8.9464444444444E-04  9.4826666666667E-04  1.0018888888889E-03  1.0555111111111E-03  1.1091333333333E-03  1.1627555555556E-03  1.2163777777778E-03  1.2700000000000E-03 
 2.0862509321059E-08  2.0862604980708E-08  2.0862604980708E-08  2.0862604980708E-08  2.0862604980708E-08  2.0862604980708E-08  2.0862604980708E-08  2.0862604980708E-08  2.0862509321059E-08  1.9704849180897E-08 
 9.1999999999315E-01  9.2000000000000E-01  9.2000000000000E-01  9.2000000000000E-01  9.2000000000000E-01  9.2000000000000E-01  9.2000000000000E-01  9.2000000000000E-01  9.2000000000000E-01  9.2000000000755E-01 
 4.0000000003425E-02  4.0000000000002E-02  4.0000000000000E-02  4.0000000000000E-02  4.0000000000000E-02  4.0000000000000E-02  4.0000000000000E-02  4.0000000000000E-02  3.9999999999998E-02  3.9999999996226E-02 
 4.0000000003425E-02  4.0000000000002E-02  4.0000000000000E-02  4.0000000000000E-02  4.0000000000000E-02  4.0000000000000E-02  4.0000000000000E-02  4.0000000000000E-02  3.9999999999998E-02  3.9999999996226E-02 
 2.9166099738034E-02  2.9166050372877E-02  2.9166001007720E-02  2.9165951642563E-02  2.9165902277405E-02  2.9165852912248E-02  2.9165803547091E-02  2.9165754181934E-02  2.9165704816776E-02  2.9165655451619E-02 
 8.0911139820575E-01  8.0911139820575E-01  8.0911139820575E-01  8.0911139820575E-01  8.0911139820575E-01  8.0911139820575E-01  8.0911139820575E-01  8.0911139820575E-01  8.0911139820575E-01  8.0911139820575E-01 
 2.6811111111111E-05  5.3622222222222E-05  5.3622222222222E-05  5.3622222222222E-05  5.3622222222222E-05  5.3622222222222E-05  5.3622222222222E-05  5.3622222222223E-05  5.3622222222222E-05  2.6811111111111E-05 
 1.9088860179425E-01  1.9088860179425E-01  1.9088860179425E-01  1.9088860179425E-01  1.9088860179425E-01  1.9088860179425E-01  1.9088860179425E-01  1.9088860179425E-01  1.9088860179425E-01  1.9088860179425E-01 
 6.5775968555201E-09  6.5775968567960E-09  6.5775968578914E-09  6.5775969111332E-09  6.5775969153204E-09  6.5775968618697E-09  6.5775968606845E-09  6.5775968574625E-09  6.5775968262767E-09  6.5775968013436E-09 
 2.7658763185108E-02  2.7658763184516E-02  2.7658763185867E-02  2.7658763185867E-02  2.7658763183923E-02  2.7658763183923E-02  2.7658763185867E-02  2.7658763185867E-02  2.7658763185214E-02  2.7658763186506E-02 
 2.7658763185108E-02  2.7658763184516E-02  2.7658763185867E-02  2.7658763185867E-02  2.7658763183923E-02  2.7658763183923E-02  2.7658763185867E-02  2.7658763185867E-02  2.7658763185214E-02  2.7658763186506E-02 
 0.0000000000000E+00  0.0000000000000E+00  0.0000000000000E+00  0.0000000000000E+00  0.0000000000000E+00  0.0000000000000E+00  0.0000000000000E+00  0.0000000000000E+00  0.0000000000000E+00  0.0000000000000E+00 
ZONE T = "SEP , 3.5172E-07", I = 10, SOLUTIONTIME = 3.517188E-07
ZONETYPE = ORDERED
DATAPACKING = BLOCK
STRANDID = 2
 7.8740000000000E-04  8.4102222222222E-04  8.9464444444444E-04  9.4826666666667E-04  1.0018888888889E-03  1.0555111111111E-03  1.1091333333333E-03  1.1627555555556E-03  1.2163777777778E-03  1.2700000000000E-03 
 2.0862716580643E-08  2.0862652807545E-08  2.0862652807545E-08  2.0862652807545E-08  2.0862652807545E-08  2.0862652807545E-08  2.0862652807545E-08  2.0862652807545E-08  2.0862652807545E-08  1.9704920922751E-08 
 9.1999999998987E-01  9.1999999999999E-01  9.2000000000000E-01  9.2000000000000E-01  9.2000000000000E-01  9.2000000000000E-01  9.2000000000000E-01  9.2000000000000E-01  9.2000000000001E-01  9.2000000001116E-01 
 4.0000000005065E-02  4.0000000000003E-02  4.0000000000000E-02  4.0000000000000E-02  4.0000000000000E-02  4.0000000000000E-02  4.0000000000000E-02  4.0000000000000E-02  3.9999999999996E-02  3.9999999994419E-02 