TITLE = "Solution on Domain BulkDomain1D_0"
VARIABLES = "x [m]"  
"Vel_axial" 
"MF_sp(ECDMC)" 
"MF_sp(Li+)" 
"MF_sp(PF6-)" 
"Volt(Electroly)" 
"Volt(AnodeVolt)" 
"Potential Drop Electrode-Electrolyte [V]" 
"Surf_0 Equilibrium Potential Drop Electrode-Electrolyte [V]" 
"Overpotential_0 [V]" 
"Current Source [A/m^2]" 
"Li+ flux [kmol/m^2/s]" 
"Electrolyte Current [A/m^2]" 
"Electrode Current [A/m^2]" 
"CV Capacity discharged [A-s/m^2]" 
"Depth of discharge in CV [A-s/m^2]" 
"CV Capacity remaining [A-s/m^2]" 
"Initial CV capacity [A-s/m^2]" 
"Porosity []" 
"Surface Area [m2/m2] (area per area)" 
"Specific current (per particle area) [A/m^2]" 
"Control volume thickness [m]" 
"MoleDens Li_C6-bulk [kmol/m^3]" 
"MoleDens V_C6-bulk [kmol/m^3]" 
"qHeat_accum [J/m3]" 
"qHeat_step [W/m3]" 
"Joule_Lyte [W/m3]" 
"Joule_Solid [W/m3]" 
"electrodHeat [W/m3]" 
"OverpotHeat [W/m3]" 
"deltaSHeat [W/m3]" 

ZONE T = "ANOD, 0.0000E+00", I = 10, SOLUTIONTIME = 0.000000E+00
ZONETYPE = ORDERED
DATAPACKING = BLOCK
STRANDID = 1
 0.0000000000000E+00  8.7488888888889E-05  1.7497777777778E-04  2.6246666666667E-04  3.4995555555556E-04  4.3744444444444E-04  5.2493333333333E-04  6.1242222222222E-04  6.9991111111111E-04  7.8740000000000E-04 
 0.0000000000000E+00  0.0000000000000E+00  0.0000000000000E+00  0.0000000000000E+00  0.0000000000000E+00  0.0000000000000E+00  0.0000000000000E+00  0.0000000000000E+00  0.0000000000000E+00  0.0000000000000E+00 
 9.2000000000000E-01  9.2000000000000E-01  9.2000000000000E-01  9.2000000000000E-01  9.2000000000000E-01  9.2000000000000E-01  9.2000000000000E-01  9.2000000000000E-01  9.2000000000000E-01  9.2000000000000E-01 
 4.0000000000000E-02  4.0000000000000E-02  4.0000000000000E-02  4.0000000000000E-02  4.0000000000000E-02  4.0000000000000E-02  4.0000000000000E-02  4.0000000000000E-02  4.0000000000000E-02  4.0000000000000E-02 
 4.0000000000000E-02  4.0000000000000E-02  4.0000000000000E-02  4.0000000000000E-02  4.0000000000000E-02  4.0000000000000E-02  4.0000000000000E-02  4.0000000000000E-02  4.0000000000000E-02  4.0000000000000E-02 
-7.0000000000000E-02 -7.0000000000000E-02 -7.0000000000000E-02 -7.0000000000000E-02 -7.0000000000000E-02 -7.0000000000000E-02 -7.0000000000000E-02 -7.0000000000000E-02 -7.0000000000000E-02 -7.0000000000000E-02 
 0.0000000000000E+00  0.0000000000000E+00  0.0000000000000E+00  0.0000000000000E+00  0.0000000000000E+00  0.0000000000000E+00  0.0000000000000E+00  0.0000000000000E+00  0.0000000000000E+00  0.0000000000000E+00 
 7.0000000000000E-02  7.0000000000000E-02  7.0000000000000E-02  7.0000000000000E-02  7.0000000000000E-02  7.0000000000000E-02  7.0000000000000E-02  7.0000000000000E-02  7.0000000000000E-02  7.0000000000000E-02 
-4.0899179293841E-02 -4.0899179293841E-02 -4.0899179293841E-02 -4.0899179293841E-02 -4.0899179293841E-02 -4.0899179293841E-02 -4.0899179293841E-02 -4.0899179293841E-02 -4.0899179293841E-02 -4.0899179293841E-02 
 1.1089917929384E-01  1.1089917929384E-01  1.1089917929384E-01  1.1089917929384E-01  1.1089917929384E-01  1.1089917929384E-01  1.1089917929384E-01  1.1089917929384E-01  1.1089917929384E-01  1.1089917929384E-01 
 3.0925583987519E+01  6.1851167975038E+01  6.1851167975038E+01  6.1851167975038E+01  6.1851167975038E+01  6.1851167975038E+01  6.1851167975038E+01  6.1851167975038E+01  6.1851167975038E+01  3.0925583987519E+01 
-0.0000000000000E+00 -0.0000000000000E+00 -0.0000000000000E+00 -0.0000000000000E+00 -0.0000000000000E+00 -0.0000000000000E+00 -0.0000000000000E+00 -0.0000000000000E+00 -0.0000000000000E+00 -0.0000000000000E+00 
 0.0000000000000E+00  0.0000000000000E+00  0.0000000000000E+00  0.0000000000000E+00  0.0000000000000E+00  0.0000000000000E+00  0.0000000000000E+00  0.0000000000000E+00  0.0000000000000E+00  3.0925583987519E+01 
 3.0925583987519E+01 -0.0000000000000E+00 -0.0000000000000E+00 -0.0000000000000E+00 -0.0000000000000E+00 -0.0000000000000E+00 -0.0000000000000E+00 -0.0000000000000E+00 -0.0000000000000E+00  0.0000000000000E+00 
 0.0000000000000E+00  0.0000000000000E+00  0.0000000000000E+00  0.0000000000000E+00  0.0000000000000E+00  0.0000000000000E+00  0.0000000000000E+00  0.0000000000000E+00  0.0000000000000E+00  0.0000000000000E+00 
 9.1448444543281E+04  1.8289688908656E+05  1.8289688908656E+05  1.8289688908656E+05  1.8289688908656E+05  1.8289688908656E+05  1.8289688908656E+05  1.8289688908656E+05  1.8289688908656E+05  9.1448444543281E+04 
 3.6579377817312E+05  7.3158755634625E+05  7.3158755634625E+05  7.3158755634625E+05  7.3158755634625E+05  7.3158755634625E+05  7.3158755634625E+05  7.3158755634625E+05  7.3158755634625E+05  3.6579377817312E+05 
 4.5724222271640E+05  9.1448444543281E+05  9.1448444543281E+05  9.1448444543281E+05  9.1448444543281E+05  9.1448444543281E+05  9.1448444543281E+05  9.1448444543281E+05  9.1448444543281E+05  4.5724222271640E+05 
 3.5000000000000E-01  3.5000000000000E-01  3.5000000000000E-01  3.5000000000000E-01  3.5000000000000E-01  3.5000000000000E-01  3.5000000000000E-01  3.5000000000000E-01  3.5000000000000E-01  3.5000000000000E-01 
 8.5301666666666E+00  1.7060333333333E+01  1.7060333333333E+01  1.7060333333333E+01  1.7060333333333E+01  1.7060333333333E+01  1.7060333333333E+01  1.7060333333333E+01  1.7060333333333E+01  8.5301666666666E+00 
 3.6254372506421E+00  3.6254372506421E+00  3.6254372506421E+00  3.6254372506421E+00  3.6254372506421E+00  3.6254372506421E+00  3.6254372506421E+00  3.6254372506421E+00  3.6254372506421E+00  3.6254372506421E+00 
 4.3744444444444E-05  8.7488888888889E-05  8.7488888888889E-05  8.7488888888889E-05  8.7488888888889E-05  8.7488888888889E-05  8.7488888888889E-05  8.7488888888889E-05  8.7488888888889E-05  4.3744444444444E-05 
 8.6666666666666E+01  8.6666666666666E+01  8.6666666666666E+01  8.6666666666666E+01  8.6666666666666E+01  8.6666666666666E+01  8.6666666666666E+01  8.6666666666666E+01  8.6666666666666E+01  8.6666666666666E+01 
 2.1666666666667E+01  2.1666666666667E+01  2.1666666666667E+01  2.1666666666667E+01  2.1666666666667E+01  2.1666666666667E+01  2.1666666666667E+01  2.1666666666667E+01  2.1666666666667E+01  2.1666666666667E+01 
 0.0000000000000E+00  0.0000000000000E+00  0.0000000000000E+00  0.0000000000000E+00  0.0000000000000E+00  0.0000000000000E+00  0.0000000000000E+00  0.0000000000000E+00  0.0000000000000E+00  0.0000000000000E+00 
 0.0000000000000E+00  0.0000000000000E+00  0.0000000000000E+00  0.0000000000000E+00  0.0000000000000E+00  0.0000000000000E+00  0.0000000000000E+00  0.0000000000000E+00  0.0000000000000E+00  0.0000000000000E+00 
 0.0000000000000E+00  0.0000000000000E+00  0.0000000000000E+00  0.0000000000000E+00  0.0000000000000E+00  0.0000000000000E+00  0.0000000000000E+00  0.0000000000000E+00  0.0000000000000E+00  0.0000000000000E+00 
 0.0000000000000E+00  0.0000000000000E+00  0.0000000000000E+00  0.0000000000000E+00  0.0000000000000E+00  0.0000000000000E+00  0.0000000000000E+00  0.0000000000000E+00  0.0000000000000E+00  0.0000000000000E+00 
 0.0000000000000E+00  0.0000000000000E+00  0.0000000000000E+00  0.0000000000000E+00  0.0000000000000E+00  0.0000000000000E+00  0.0000000000000E+00  0.0000000000000E+00  0.0000000000000E+00  0.0000000000000E+00 
 0.0000000000000E+00  0.0000000000000E+00  0.0000000000000E+00  0.0000000000000E+00  0.0000000000000E+00  0.0000000000000E+00  0.0000000000000E+00  0.0000000000000E+00  0.0000000000000E+00  0.0000000000000E+00 
 0.0000000000000E+00  0.0000000000000E+00  0.0000000000000E+00  0.0000000000000E+00  0.0000000000000E+00  0.0000000000000E+00  0.0000000000000E+00  0.0000000000000E+00  0.0000000000000E+00  0.0000000000000E+00 
ZONE T = "ANOD, 1.0000E-08", I = 10, SOLUTIONTIME = 1.000000E-08
ZONETYPE = ORDERED
DATAPACKING = BLOCK
STRANDID = 1
 0.0000000000000E+00  8.7488888888889E-05  1.7497777777778E-04  2.6246666666667E-04  3.4995555555556E-04  4.3744444444444E-04  5.2493333333333E-04  6.1242222222222E-04  6.9991111111111E-04  7.8740000000000E-04 
 1.1589917775802E-09  3.4769775406271E-09  5.7949719420169E-09  8.1129814122164E-09  1.0431012381526E-08  1.2749071280766E-08  1.5067164540864E-08  1.7385298592379E-08  1.9703479866218E-08  2.0863323745535E-08 
 9.1999999999930E-01  9.1999999999930E-01  9.1999999999930E-01  9.1999999999930E-01  9.1999999999930E-01  9.1999999999930E-01  9.1999999999930E-01  9.1999999999930E-01  9.1999999999930E-01  9.1999999999971E-01 
 4.0000000000348E-02  4.0000000000348E-02  4.0000000000348E-02  4.0000000000348E-02  4.0000000000348E-02  4.0000000000348E-02  4.0000000000348E-02  4.0000000000348E-02  4.0000000000348E-02  4.0000000000144E-02 
 4.0000000000348E-02  4.0000000000348E-02  4.0000000000348E-02  4.0000000000348E-02  4.0000000000348E-02  4.0000000000348E-02  4.0000000000348E-02  4.0000000000348E-02  4.0000000000348E-02  4.0000000000144E-02 
 2.9159838012887E-02  2.9159822285789E-02  2.9159775104429E-02  2.9159696468719E-02  2.9159586378428E-02  2.9159444833288E-02  2.9159271832909E-02  2.9159067376830E-02  2.9158831464491E-02  2.9158564095252E-02 
 0.0000000000000E+00 -4.7371276069111E-09 -8.9169666342624E-09 -1.2539515005230E-08 -1.5604769096980E-08 -1.8112723740711E-08 -2.0063372221528E-08 -2.1456706278416E-08 -2.2292716104331E-08 -2.2571390346113E-08 
-2.9159838012887E-02 -2.9159827022917E-02 -2.9159784021395E-02 -2.9159709008234E-02 -2.9159601983197E-02 -2.9159462946012E-02 -2.9159291896281E-02 -2.9159088833536E-02 -2.9158853757207E-02 -2.9158586666642E-02 
-4.0899179293341E-02 -4.0899179293341E-02 -4.0899179293341E-02 -4.0899179293341E-02 -4.0899179293341E-02 -4.0899179293341E-02 -4.0899179293341E-02 -4.0899179293341E-02 -4.0899179293341E-02 -4.0899179293472E-02 
 1.1739341280453E-02  1.1739352270424E-02  1.1739395271945E-02  1.1739470285107E-02  1.1739577310144E-02  1.1739716347329E-02  1.1739887397060E-02  1.1740090459805E-02  1.1740325536133E-02  1.1740592626830E-02 
 1.6690490555074E+00  3.3381012902080E+00  3.3381137297466E+00  3.3381354296618E+00  3.3381663900303E+00  3.3382066109445E+00  3.3382560925360E+00  3.3383148349612E+00  3.3383828384093E+00  1.6692300515490E+00 
 8.6491870605676E-09  2.5947597739705E-08  4.3246056598702E-08  6.0544642082713E-08  7.7843375430104E-08  9.5142323767204E-08  1.1244152458764E-07  1.2974103359468E-07  1.4704096755830E-07  1.4704096755830E-07 
 0.0000000000000E+00  3.3380824218736E+00  6.6761730197083E+00  1.0014280483650E+01  1.3352414431697E+01  1.6690583389964E+01  2.0028797452893E+01  2.3367065611447E+01  2.6705397548941E+01  3.0043810591441E+01 
 3.0043810416691E+01  2.6705719299571E+01  2.3367628956396E+01  2.0029521543128E+01  1.6691387799500E+01  1.3353218464994E+01  1.0015004278640E+01  6.6767359796550E+00  3.3384043072715E+00  0.0000000000000E+00 
 1.6690490555074E-08  3.3381012902080E-08  3.3381137297466E-08  3.3381354296618E-08  3.3381663900303E-08  3.3382066109445E-08  3.3382560925360E-08  3.3383148349612E-08  3.3383828384093E-08  1.6692300515490E-08 
 9.1448444543298E+04  1.8289688908660E+05  1.8289688908660E+05  1.8289688908660E+05  1.8289688908660E+05  1.8289688908660E+05  1.8289688908660E+05  1.8289688908660E+05  1.8289688908660E+05  9.1448444543298E+04 
 3.6579377817311E+05  7.3158755634621E+05  7.3158755634621E+05  7.3158755634621E+05  7.3158755634621E+05  7.3158755634622E+05  7.3158755634622E+05  7.3158755634621E+05  7.3158755634621E+05  3.6579377817311E+05 
 4.5724222271641E+05  9.1448444543281E+05  9.1448444543281E+05  9.1448444543281E+05  9.1448444543281E+05  9.1448444543281E+05  9.1448444543281E+05  9.1448444543281E+05  9.1448444543281E+05  4.5724222271640E+05 
 3.5000000000000E-01  3.5000000000000E-01  3.5000000000000E-01  3.5000000000000E-01  3.5000000000000E-01  3.5000000000000E-01  3.5000000000000E-01  3.5000000000000E-01  3.5000000000000E-01  3.5000000000000E-01 
 8.5301666666666E+00  1.7060333333333E+01  1.7060333333333E+01  1.7060333333333E+01  1.7060333333333E+01  1.7060333333333E+01  1.7060333333333E+01  1.7060333333333E+01  1.7060333333333E+01  8.5301666666666E+00 
 1.9566429598961E-01  1.9566448233962E-01  1.9566521148942E-01  1.9566648344084E-01  1.9566829819837E-01  1.9567065576744E-01  1.9567355615576E-01  1.9567699937249E-01  1.9568098542873E-01  1.9568551433723E-01 
 4.3744444444444E-05  8.7488888888889E-05  8.7488888888889E-05  8.7488888888889E-05  8.7488888888889E-05  8.7488888888889E-05  8.7488888888889E-05  8.7488888888889E-05  8.7488888888889E-05  4.3744444444444E-05 
 8.6666666666663E+01  8.6666666666663E+01  8.6666666666663E+01  8.6666666666663E+01  8.6666666666663E+01  8.6666666666663E+01  8.6666666666663E+01  8.6666666666663E+01  8.6666666666663E+01  8.6666666666663E+01 
 2.1666666666671E+01  2.1666666666671E+01  2.1666666666671E+01  2.1666666666671E+01  2.1666666666671E+01  2.1666666666671E+01  2.1666666666671E+01  2.1666666666671E+01  2.1666666666671E+01  2.1666666666671E+01 
 1.8363933329816E-11  2.8663998760307E-11  6.1478022708172E-11  1.1872012272231E-10  2.0039092004383E-10  3.0649131377908E-10  4.3702249445680E-10  5.9198590873355E-10  7.7138329630529E-10  8.6719071236750E-10 
 1.8363933329816E-03  2.8663998760307E-03  6.1478022708172E-03  1.1872012272231E-02  2.0039092004383E-02  3.0649131377908E-02  4.3702249445680E-02  5.9198590873355E-02  7.7138329630529E-02  8.6719071236750E-02 
 3.0002834891735E-04  1.5001455490292E-03  5.1005067739966E-03  1.1101150724427E-02  1.9502139461925E-02  3.0303562362721E-02  4.3505537473381E-02  5.9108207981281E-02  7.7111745905764E-02  8.6713754344132E-02 
 1.5363649840643E-03  1.3662543270015E-03  1.0472954968206E-03  7.7086154780326E-04  5.3695254245787E-04  3.4556901518646E-04  1.9671197229942E-04  9.0382892074381E-05  2.6583724764933E-05  5.3168926186500E-06 
 0.0000000000000E+00  0.0000000000000E+00  0.0000000000000E+00  0.0000000000000E+00  0.0000000000000E+00  0.0000000000000E+00  0.0000000000000E+00  0.0000000000000E+00  0.0000000000000E+00  0.0000000000000E+00 
 0.0000000000000E+00  0.0000000000000E+00  0.0000000000000E+00  0.0000000000000E+00  0.0000000000000E+00  0.0000000000000E+00  0.0000000000000E+00  0.0000000000000E+00  0.0000000000000E+00  0.0000000000000E+00 
 0.0000000000000E+00  0.0000000000000E+00  0.0000000000000E+00  0.0000000000000E+00  0.0000000000000E+00  0.0000000000000E+00  0.0000000000000E+00  0.0000000000000E+00  0.0000000000000E+00  0.0000000000000E+00 
ZONE T = "ANOD, 2.0000E-08", I = 10, SOLUTIONTIME = 2.000000E-08
ZONETYPE = ORDERED
DATAPACKING = BLOCK
STRANDID = 1
 0.0000000000000E+00  8.7488888888889E-05  1.7497777777778E-04  2.6246666666667E-04  3.4995555555556E-04  4.3744444444444E-04  5.2493333333333E-04  6.1242222222222E-04  6.9991111111111E-04  7.8740000000000E-04 
 1.1589975178084E-09  3.4769947610898E-09  5.7950006425023E-09  8.1130215925423E-09  1.0431064041754E-08  1.2749134420750E-08  1.5066512744775E-08  1.7384295067825E-08  1.9702124613114E-08  2.0861974231753E-08 
 9.1999999999861E-01  9.1999999999861E-01  9.1999999999861E-01  9.1999999999861E-01  9.1999999999861E-01  9.1999999999861E-01  9.1999999999861E-01  9.1999999999861E-01  9.1999999999861E-01  9.1999999999942E-01 
 4.0000000000696E-02  4.0000000000696E-02  4.0000000000696E-02  4.0000000000696E-02  4.0000000000696E-02  4.0000000000696E-02  4.0000000000696E-02  4.0000000000696E-02  4.0000000000696E-02  4.0000000000288E-02 
 4.0000000000696E-02  4.0000000000696E-02  4.0000000000696E-02  4.0000000000696E-02  4.0000000000696E-02  4.0000000000696E-02  4.0000000000696E-02  4.0000000000696E-02  4.0000000000696E-02  4.0000000000288E-02 
 2.9159840206010E-02  2.9159824478825E-02  2.9159777297238E-02  2.9159698661134E-02  2.9159588570307E-02  2.9159447024465E-02  2.9159274023230E-02  2.9159069566135E-02  2.9158833652627E-02  2.9158566282065E-02 
 0.0000000000000E+00 -4.7371510662846E-09 -8.9170107929393E-09 -1.2539577103190E-08 -1.5604846374248E-08 -1.8112813437297E-08 -2.0063471577476E-08 -2.1456812533861E-08 -2.2292826499436E-08 -2.2571502121062E-08 
-2.9159840206010E-02 -2.9159829215976E-02 -2.9159786214249E-02 -2.9159711200711E-02 -2.9159604175153E-02 -2.9159465137278E-02 -2.9159294086701E-02 -2.9159091022947E-02 -2.9158855945454E-02 -2.9158588853567E-02 
-4.0899179292834E-02 -4.0899179292838E-02 -4.0899179292834E-02 -4.0899179292834E-02 -4.0899179292837E-02 -4.0899179292836E-02 -4.0899179292836E-02 -4.0899179292837E-02 -4.0899179292837E-02 -4.0899179293099E-02 
 1.1739339086823E-02  1.1739350076862E-02  1.1739393078585E-02  1.1739468092123E-02  1.1739575117684E-02  1.1739714155557E-02  1.1739885206134E-02  1.1740088269889E-02  1.1740323347383E-02  1.1740590439532E-02 
 1.6690487382321E+00  3.3381006556770E+00  3.3381130952738E+00  3.3381347952976E+00  3.3381657558176E+00  3.3382059769303E+00  3.3382554587662E+00  3.3383142014829E+00  3.3383822052676E+00  1.6692297351836E+00 
 8.6492352061580E-09  2.5947722098196E-08  4.3246273451378E-08  6.0544937256324E-08  7.7843761507292E-08  9.5142794179453E-08  1.1244208327854E-07  1.2974167679497E-07  1.4704176695017E-07  1.4704176695017E-07 
 0.0000000000000E+00  3.3380990659879E+00  6.6762059415825E+00  1.0014329886896E+01  1.3352480162409E+01  1.6690666028786E+01  2.0028896746692E+01  2.3367181576606E+01  2.6705529780042E+01  3.0043950618050E+01 
 3.0043950617929E+01  2.6705851551858E+01  2.3367744676383E+01  2.0029620731097E+01  1.6691470455539E+01  1.3353284589165E+01  1.0015053871317E+01  6.6767690411926E+00  3.3384208378174E+00  0.0000000000000E+00 
 3.3380977937395E-08  6.6762019458849E-08  6.6762268250204E-08  6.6762702249595E-08  6.6763321458479E-08  6.6764125878748E-08  6.6765115513022E-08  6.6766290364441E-08  6.6767650436769E-08  3.3384597867326E-08 
 9.1448444543314E+04  1.8289688908663E+05  1.8289688908663E+05  1.8289688908663E+05  1.8289688908663E+05  1.8289688908663E+05  1.8289688908663E+05  1.8289688908663E+05  1.8289688908663E+05  9.1448444543314E+04 
 3.6579377817309E+05  7.3158755634618E+05  7.3158755634618E+05  7.3158755634618E+05  7.3158755634618E+05  7.3158755634618E+05  7.3158755634618E+05  7.3158755634618E+05  7.3158755634618E+05  3.6579377817309E+05 
 4.5724222271641E+05  9.1448444543281E+05  9.1448444543281E+05  9.1448444543281E+05  9.1448444543281E+05  9.1448444543281E+05  9.1448444543281E+05  9.1448444543281E+05  9.1448444543281E+05  4.5724222271641E+05 
 3.5000000000000E-01  3.5000000000000E-01  3.5000000000000E-01  3.5000000000000E-01  3.5000000000000E-01  3.5000000000000E-01  3.5000000000000E-01  3.5000000000000E-01  3.5000000000000E-01  3.5000000000000E-01 
 8.5301666666666E+00  1.7060333333333E+01  1.7060333333333E+01  1.7060333333333E+01  1.7060333333333E+01  1.7060333333333E+01  1.7060333333333E+01  1.7060333333333E+01  1.7060333333333E+01  8.5301666666666E+00 
 1.9566425879511E-01  1.9566444514626E-01  1.9566517429947E-01  1.9566644625726E-01  1.9566826102368E-01  1.9567061860438E-01  1.9567351900703E-01  1.9567696224085E-01  1.9568094831681E-01  1.9568547724940E-01 
 4.3744444444444E-05  8.7488888888889E-05  8.7488888888889E-05  8.7488888888889E-05  8.7488888888889E-05  8.7488888888889E-05  8.7488888888889E-05  8.7488888888889E-05  8.7488888888889E-05  4.3744444444444E-05 
 8.6666666666659E+01  8.6666666666659E+01  8.6666666666659E+01  8.6666666666659E+01  8.6666666666659E+01  8.6666666666659E+01  8.6666666666659E+01  8.6666666666659E+01  8.6666666666659E+01  8.6666666666659E+01 
 2.1666666666675E+01  2.1666666666675E+01  2.1666666666675E+01  2.1666666666675E+01  2.1666666666675E+01  2.1666666666675E+01  2.1666666666675E+01  2.1666666666675E+01  2.1666666666675E+01  2.1666666666675E+01 
 3.6728052230994E-11  5.7328278956696E-11  1.2295665467668E-10  2.3744141466205E-10  4.0078381534903E-10  6.1298566212806E-10  8.7404932289338E-10  1.1839776927600E-09  1.5427742310435E-09  1.7343900031425E-09 
 1.8364118901177E-03  2.8664280196389E-03  6.1478631968504E-03  1.1872129193974E-02  2.0039289530520E-02  3.0649434834898E-02  4.3702682843658E-02  5.9199178402647E-02  7.7139093473821E-02  8.6719929077502E-02 
 6.0006003804941E-04  3.0003057096759E-03  1.0201064101269E-02  2.2202410735826E-02  3.9004471131974E-02  6.0607424759955E-02  8.7011506396560E-02  1.1821700259674E-01  1.5422425539155E-01  1.7342836647636E-01 
 3.0727451850500E-03  2.7325221859937E-03  2.0946013663985E-03  1.5417307303790E-03  1.0739104029298E-03  6.9114145285097E-04  3.9342589277781E-04  1.8076667926024E-04  5.3167712797939E-05  1.0633837890175E-05 
 0.0000000000000E+00  0.0000000000000E+00  0.0000000000000E+00  0.0000000000000E+00  0.0000000000000E+00  0.0000000000000E+00  0.0000000000000E+00  0.0000000000000E+00  0.0000000000000E+00  0.0000000000000E+00 
 0.0000000000000E+00  0.0000000000000E+00  0.0000000000000E+00  0.0000000000000E+00  0.0000000000000E+00  0.0000000000000E+00  0.0000000000000E+00  0.0000000000000E+00  0.0000000000000E+00  0.0000000000000E+00 
 0.0000000000000E+00  0.0000000000000E+00  0.0000000000000E+00  0.0000000000000E+00  0.0000000000000E+00  0.0000000000000E+00  0.0000000000000E+00  0.0000000000000E+00  0.0000000000000E+00  0.0000000000000E+00 
ZONE T = "ANOD, 3.0000E-08", I = 10, SOLUTIONTIME = 3.000000E-08
ZONETYPE = ORDERED
DATAPACKING = BLOCK
STRANDID = 1
 0.0000000000000E+00  8.7488888888889E-05  1.7497777777778E-04  2.6246666666667E-04  3.4995555555556E-04  4.3744444444444E-04  5.2493333333333E-04  6.1242222222222E-04  6.9991111111111E-04  7.8740000000000E-04 
 1.1589975177886E-09  3.4769947610289E-09  5.7950006424018E-09  8.1130215924022E-09  1.0431064041574E-08  1.2749497628257E-08  1.5068328783154E-08  1.7387200729347E-08  1.9705756690051E-08  2.0864153477769E-08 
 9.1999999999791E-01  9.1999999999791E-01  9.1999999999791E-01  9.1999999999791E-01  9.1999999999791E-01  9.1999999999791E-01  9.1999999999791E-01  9.1999999999791E-01  9.1999999999791E-01  9.1999999999914E-01 
 4.0000000001045E-02  4.0000000001045E-02  4.0000000001045E-02  4.0000000001045E-02  4.0000000001045E-02  4.0000000001045E-02  4.0000000001045E-02  4.0000000001045E-02  4.0000000001045E-02  4.0000000000432E-02 
 4.0000000001045E-02  4.0000000001045E-02  4.0000000001045E-02  4.0000000001045E-02  4.0000000001045E-02  4.0000000001045E-02  4.0000000001045E-02  4.0000000001045E-02  4.0000000001045E-02  4.0000000000432E-02 
 2.9159840205796E-02  2.9159824478610E-02  2.9159777297024E-02  2.9159698660919E-02  2.9159588570092E-02  2.9159447024250E-02  2.9159274023015E-02  2.9159069565920E-02  2.9158833652413E-02  2.9158566281851E-02 
 0.0000000000000E+00 -4.7371510662050E-09 -8.9170107927899E-09 -1.2539577102981E-08 -1.5604846373988E-08 -1.8112813436996E-08 -2.0063471577144E-08 -2.1456812533507E-08 -2.2292826499070E-08 -2.2571502120693E-08 
-2.9159840205796E-02 -2.9159829215761E-02 -2.9159786214035E-02 -2.9159711200496E-02 -2.9159604174938E-02 -2.9159465137064E-02 -2.9159294086487E-02 -2.9159091022733E-02 -2.9158855945239E-02 -2.9158588853353E-02 
-4.0899179292335E-02 -4.0899179292331E-02 -4.0899179292335E-02 -4.0899179292335E-02 -4.0899179292332E-02 -4.0899179292337E-02 -4.0899179292337E-02 -4.0899179292332E-02 -4.0899179292332E-02 -4.0899179292725E-02 
 1.1739339086539E-02  1.1739350076569E-02  1.1739393078300E-02  1.1739468091839E-02  1.1739575117394E-02  1.1739714155274E-02  1.1739885205851E-02  1.1740088269599E-02  1.1740323347093E-02  1.1740590439373E-02 
 1.6690487382036E+00  3.3381006556178E+00  3.3381130952168E+00  3.3381347952406E+00  3.3381657557591E+00  3.3382059768737E+00  3.3382554587094E+00  3.3383142014245E+00  3.3383822052092E+00  1.6692297351690E+00 
 8.6492352039783E-09  2.5947722100676E-08  4.3246273449847E-08  6.0544937252688E-08  7.7843761499983E-08  9.5142794180289E-08  1.1244208327310E-07  1.2974167679262E-07  1.4704183906833E-07  1.4704183906833E-07 
 0.0000000000000E+00  3.3380990660169E+00  6.6762059414566E+00  1.0014329886615E+01  1.3352480162157E+01  1.6690666028379E+01  2.0028896746314E+01  2.3367181576442E+01  2.6705529779686E+01  3.0043950617474E+01 
 3.0043950617423E+01  2.6705851551411E+01  2.3367744675994E+01  2.0029620730765E+01  1.6691470455265E+01  1.3353284588949E+01  1.0015053871157E+01  6.6767690410904E+00  3.3384208377736E+00  0.0000000000000E+00 
 5.0071465319431E-08  1.0014302601503E-07  1.0014339920237E-07  1.0014405020200E-07  1.0014497901607E-07  1.0014618564748E-07  1.0014767010012E-07  1.0014943237869E-07  1.0015147248886E-07  5.0076895219016E-08 
 9.1448444543331E+04  1.8289688908666E+05  1.8289688908666E+05  1.8289688908666E+05  1.8289688908666E+05  1.8289688908666E+05  1.8289688908666E+05  1.8289688908666E+05  1.8289688908666E+05  9.1448444543331E+04 
 3.6579377817307E+05  7.3158755634615E+05  7.3158755634615E+05  7.3158755634615E+05  7.3158755634615E+05  7.3158755634615E+05  7.3158755634615E+05  7.3158755634615E+05  7.3158755634615E+05  3.6579377817307E+05 
 4.5724222271641E+05  9.1448444543281E+05  9.1448444543281E+05  9.1448444543281E+05  9.1448444543281E+05  9.1448444543281E+05  9.1448444543281E+05  9.1448444543281E+05  9.1448444543281E+05  4.5724222271641E+05 
 3.5000000000000E-01  3.5000000000000E-01  3.5000000000000E-01  3.5000000000000E-01  3.5000000000000E-01  3.5000000000000E-01  3.5000000000000E-01  3.5000000000000E-01  3.5000000000000E-01  3.5000000000000E-01 
 8.5301666666666E+00  1.7060333333333E+01  1.7060333333333E+01  1.7060333333333E+01  1.7060333333333E+01  1.7060333333333E+01  1.7060333333333E+01  1.7060333333333E+01  1.7060333333333E+01  8.5301666666666E+00 
 1.9566425879177E-01  1.9566444514280E-01  1.9566517429613E-01  1.9566644625392E-01  1.9566826102025E-01  1.9567061860106E-01  1.9567351900370E-01  1.9567696223742E-01  1.9568094831339E-01  1.9568547724769E-01 
 4.3744444444444E-05  8.7488888888889E-05  8.7488888888889E-05  8.7488888888889E-05  8.7488888888889E-05  8.7488888888889E-05  8.7488888888889E-05  8.7488888888889E-05  8.7488888888889E-05  4.3744444444444E-05 
 8.6666666666655E+01  8.6666666666655E+01  8.6666666666655E+01  8.6666666666655E+01  8.6666666666655E+01  8.6666666666655E+01  8.6666666666655E+01  8.6666666666655E+01  8.6666666666655E+01  8.6666666666655E+01 
 2.1666666666679E+01  2.1666666666679E+01  2.1666666666679E+01  2.1666666666679E+01  2.1666666666679E+01  2.1666666666679E+01  2.1666666666679E+01  2.1666666666679E+01  2.1666666666679E+01  2.1666666666679E+01 
 5.5092171131681E-11  8.5992559152758E-11  1.8443528664197E-10  3.5616270659456E-10  6.0117671064517E-10  9.1948001045905E-10  1.3110761513105E-09  1.7759694767731E-09  2.3141651657549E-09  2.6015892938779E-09 
 1.8364118900687E-03  2.8664280196062E-03  6.1478631965290E-03  1.1872129193251E-02  2.0039289529614E-02  3.0649434833099E-02  4.3702682841714E-02  5.9199178401305E-02  7.7139093471138E-02  8.6719929073535E-02 
 9.0009172718407E-04  4.5004658703356E-03  1.5301621428255E-02  3.3303670746527E-02  5.8506802801133E-02  9.0911287155400E-02  1.3051747531780E-01  1.7732579721086E-01  2.3133676487466E-01  2.6014297860463E-01 
 4.6091253859840E-03  4.0987900449402E-03  3.1419072359416E-03  2.3125999129292E-03  1.6108682633841E-03  1.0367138905043E-03  5.9013981324991E-04  2.7115046644331E-04  7.9751700830200E-05  1.5950783161607E-05 
 0.0000000000000E+00  0.0000000000000E+00  0.0000000000000E+00  0.0000000000000E+00  0.0000000000000E+00  0.0000000000000E+00  0.0000000000000E+00  0.0000000000000E+00  0.0000000000000E+00  0.0000000000000E+00 
 0.0000000000000E+00  0.0000000000000E+00  0.0000000000000E+00  0.0000000000000E+00  0.0000000000000E+00  0.0000000000000E+00  0.0000000000000E+00  0.0000000000000E+00  0.0000000000000E+00  0.0000000000000E+00 
 0.0000000000000E+00  0.0000000000000E+00  0.0000000000000E+00  0.0000000000000E+00  0.0000000000000E+00  0.0000000000000E+00  0.0000000000000E+00  0.0000000000000E+00  0.0000000000000E+00  0.0000000000000E+00 
ZONE T = "ANOD, 4.0000E-08", I = 10, SOLUTIONTIME = 4.000000E-08
ZONETYPE = ORDERED
DATAPACKING = BLOCK
STRANDID = 1
 0.0000000000000E+00  8.7488888888889E-05  1.7497777777778E-04  2.6246666666667E-04  3.4995555555556E-04  4.3744444444444E-04  5.2493333333333E-04  6.1242222222222E-04  6.9991111111111E-04  7.8740000000000E-04 
 1.1588159139043E-09  3.4771763648332E-09  5.7948190384375E-09  8.1135664038527E-09  1.0431245645257E-08  1.2748226400988E-08  1.5065241517206E-08  1.7383387047903E-08  1.9701943008568E-08  2.0861066211732E-08 
 9.1999999999721E-01  9.1999999999721E-01  9.1999999999721E-01  9.1999999999721E-01  9.1999999999721E-01  9.1999999999721E-01  9.1999999999721E-01  9.1999999999721E-01  9.1999999999721E-01  9.1999999999885E-01 
 4.0000000001393E-02  4.0000000001393E-02  4.0000000001393E-02  4.0000000001393E-02  4.0000000001393E-02  4.0000000001393E-02  4.0000000001393E-02  4.0000000001393E-02  4.0000000001393E-02  4.0000000000576E-02 
 4.0000000001393E-02  4.0000000001393E-02  4.0000000001393E-02  4.0000000001393E-02  4.0000000001393E-02  4.0000000001393E-02  4.0000000001393E-02  4.0000000001393E-02  4.0000000001393E-02  4.0000000000576E-02 
 2.9159840205581E-02  2.9159824478395E-02  2.9159777296809E-02  2.9159698660704E-02  2.9159588569877E-02  2.9159447024035E-02  2.9159274022800E-02  2.9159069565705E-02  2.9158833652197E-02  2.9158566281636E-02 
 0.0000000000000E+00 -4.7371510661255E-09 -8.9170107926403E-09 -1.2539577102771E-08 -1.5604846373728E-08 -1.8112813436694E-08 -2.0063471576811E-08 -2.1456812533153E-08 -2.2292826498704E-08 -2.2571502120325E-08 
-2.9159840205581E-02 -2.9159829215546E-02 -2.9159786213820E-02 -2.9159711200281E-02 -2.9159604174723E-02 -2.9159465136849E-02 -2.9159294086272E-02 -2.9159091022518E-02 -2.9158855945024E-02 -2.9158588853138E-02 
-4.0899179291828E-02 -4.0899179291833E-02 -4.0899179291828E-02 -4.0899179291828E-02 -4.0899179291833E-02 -4.0899179291830E-02 -4.0899179291830E-02 -4.0899179291833E-02 -4.0899179291833E-02 -4.0899179292357E-02 
 1.1739339086247E-02  1.1739350076286E-02  1.1739393078009E-02  1.1739468091547E-02  1.1739575117109E-02  1.1739714154981E-02  1.1739885205558E-02  1.1740088269315E-02  1.1740323346809E-02  1.1740590439219E-02 
 1.6690487381742E+00  3.3381006555613E+00  3.3381130951580E+00  3.3381347951819E+00  3.3381657557021E+00  3.3382059768146E+00  3.3382554586504E+00  3.3383142013675E+00  3.3383822051522E+00  1.6692297351553E+00 