TITLE = "Solution on Domain BulkDomain1D_2"
VARIABLES = "x [m]"  
"Vel_axial" 	"MF_sp(ECDMC)" 	"MF_sp(Li+)" 	"MF_sp(PF6-)" 	"Volt(Electroly)" 	"Volt(CathodeVo)" 	
"Potential Drop Electrode-Electrolyte [V]" 	"Surf_0 Equilibrium Potential Drop Electrode-Electrolyte [V]" 	"Overpotential_0 [V]" 	"Current Source [A/m^2]" 	"Li+ flux [kmol/m^2/s]" 	"Electrolyte Current [A/m^2]" 	"Electrode Current [A/m^2]" 	
"CV Capacity discharged [A-s/m^2]" 	"Depth of discharge in CV [A-s/m^2]" 	"CV Capacity remaining [A-s/m^2]" 	"Initial CV capacity [A-s/m^2]" 	"Porosity []" 	"Surface Area [m2/m2] (area per area)" 	"Specific current (per particle area) [A/m^2]" 	"Control volume thickness [m]" 	
"MoleDens LiCoO2 [kmol/m^3]" 	"MoleDens CoO2 [kmol/m^3]" 	"qHeat_accum [J/m3]" 	"qHeat_step [W/m3]" 	"Joule_Lyte [W/m3]" 	"Joule_Solid [W/m3]" 	"electrodHeat [W/m3]" 	"OverpotHeat [W/m3]" 	"deltaSHeat [W/m3]" 	

ZONE T = "CATH, 0.0000E+00", I = 10, SOLUTIONTIME = 0.000000E+00
ZONETYPE = ORDERED
DATAPACKING = BLOCK
STRANDID = 3
 1.2700000000000E-03  1.3377333333333E-03  1.4054666666667E-03  1.4732000000000E-03  1.5409333333333E-03  1.6086666666667E-03  1.6764000000000E-03  1.7441333333333E-03  1.8118666666667E-03  1.8796000000000E-03 
 0.0000000000000E+00  0.0000000000000E+00  0.0000000000000E+00  0.0000000000000E+00  0.0000000000000E+00  0.0000000000000E+00  0.0000000000000E+00  0.0000000000000E+00  0.0000000000000E+00  0.0000000000000E+00 
 9.2000000000000E-01  9.2000000000000E-01  9.2000000000000E-01  9.2000000000000E-01  9.2000000000000E-01  9.2000000000000E-01  9.2000000000000E-01  9.2000000000000E-01  9.2000000000000E-01  9.2000000000000E-01 
 4.0000000000000E-02  4.0000000000000E-02  4.0000000000000E-02  4.0000000000000E-02  4.0000000000000E-02  4.0000000000000E-02  4.0000000000000E-02  4.0000000000000E-02  4.0000000000000E-02  4.0000000000000E-02 
 4.0000000000000E-02  4.0000000000000E-02  4.0000000000000E-02  4.0000000000000E-02  4.0000000000000E-02  4.0000000000000E-02  4.0000000000000E-02  4.0000000000000E-02  4.0000000000000E-02  4.0000000000000E-02 
-7.0000000000000E-02 -7.0000000000000E-02 -7.0000000000000E-02 -7.0000000000000E-02 -7.0000000000000E-02 -7.0000000000000E-02 -7.0000000000000E-02 -7.0000000000000E-02 -7.0000000000000E-02 -7.0000000000000E-02 
 3.8000000000000E+00  3.8000000000000E+00  3.8000000000000E+00  3.8000000000000E+00  3.8000000000000E+00  3.8000000000000E+00  3.8000000000000E+00  3.8000000000000E+00  3.8000000000000E+00  3.8000000000000E+00 
 3.8700000000000E+00  3.8700000000000E+00  3.8700000000000E+00  3.8700000000000E+00  3.8700000000000E+00  3.8700000000000E+00  3.8700000000000E+00  3.8700000000000E+00  3.8700000000000E+00  3.8700000000000E+00 
 3.9714218047884E+00  3.9714218047884E+00  3.9714218047884E+00  3.9714218047884E+00  3.9714218047884E+00  3.9714218047884E+00  3.9714218047884E+00  3.9714218047884E+00  3.9714218047884E+00  3.9714218047884E+00 
-1.0142180478844E-01 -1.0142180478844E-01 -1.0142180478844E-01 -1.0142180478844E-01 -1.0142180478844E-01 -1.0142180478844E-01 -1.0142180478844E-01 -1.0142180478844E-01 -1.0142180478844E-01 -1.0142180478844E-01 
-2.3829988127905E-01 -4.7659976255810E-01 -4.7659976255810E-01 -4.7659976255810E-01 -4.7659976255810E-01 -4.7659976255810E-01 -4.7659976255810E-01 -4.7659976255810E-01 -4.7659976255810E-01 -2.3829988127905E-01 
-0.0000000000000E+00 -0.0000000000000E+00 -0.0000000000000E+00 -0.0000000000000E+00 -0.0000000000000E+00 -0.0000000000000E+00 -0.0000000000000E+00 -0.0000000000000E+00 -0.0000000000000E+00 -0.0000000000000E+00 
 2.3829988127905E-01  0.0000000000000E+00  0.0000000000000E+00  0.0000000000000E+00  0.0000000000000E+00  0.0000000000000E+00  0.0000000000000E+00  0.0000000000000E+00  0.0000000000000E+00  0.0000000000000E+00 
 0.0000000000000E+00 -0.0000000000000E+00 -0.0000000000000E+00 -0.0000000000000E+00 -0.0000000000000E+00 -0.0000000000000E+00 -0.0000000000000E+00 -0.0000000000000E+00 -0.0000000000000E+00  2.3829988127905E-01 
-0.0000000000000E+00 -0.0000000000000E+00 -0.0000000000000E+00 -0.0000000000000E+00 -0.0000000000000E+00 -0.0000000000000E+00 -0.0000000000000E+00 -0.0000000000000E+00 -0.0000000000000E+00 -0.0000000000000E+00 
 7.2440786946225E+03  1.4488157389245E+04  1.4488157389245E+04  1.4488157389245E+04  1.4488157389245E+04  1.4488157389245E+04  1.4488157389245E+04  1.4488157389245E+04  1.4488157389245E+04  7.2440786946225E+03 
 4.9259735123433E+04  9.8519470246865E+04  9.8519470246866E+04  9.8519470246865E+04  9.8519470246866E+04  9.8519470246866E+04  9.8519470246865E+04  9.8519470246866E+04  9.8519470246865E+04  4.9259735123433E+04 
 5.6503813818055E+04  1.1300762763611E+05  1.1300762763611E+05  1.1300762763611E+05  1.1300762763611E+05  1.1300762763611E+05  1.1300762763611E+05  1.1300762763611E+05  1.1300762763611E+05  5.6503813818055E+04 
 3.5000000000000E-01  3.5000000000000E-01  3.5000000000000E-01  3.5000000000000E-01  3.5000000000000E-01  3.5000000000000E-01  3.5000000000000E-01  3.5000000000000E-01  3.5000000000000E-01  3.5000000000000E-01 
 6.6040000000000E+00  1.3208000000000E+01  1.3208000000000E+01  1.3208000000000E+01  1.3208000000000E+01  1.3208000000000E+01  1.3208000000000E+01  1.3208000000000E+01  1.3208000000000E+01  6.6040000000000E+00 
-3.6084173422024E-02 -3.6084173422024E-02 -3.6084173422024E-02 -3.6084173422024E-02 -3.6084173422024E-02 -3.6084173422024E-02 -3.6084173422024E-02 -3.6084173422024E-02 -3.6084173422024E-02 -3.6084173422024E-02 
 3.3866666666667E-05  6.7733333333333E-05  6.7733333333334E-05  6.7733333333333E-05  6.7733333333334E-05  6.7733333333334E-05  6.7733333333333E-05  6.7733333333334E-05  6.7733333333333E-05  3.3866666666667E-05 
 2.6603001364256E+01  2.6603001364256E+01  2.6603001364256E+01  2.6603001364256E+01  2.6603001364256E+01  2.6603001364256E+01  2.6603001364256E+01  2.6603001364256E+01  2.6603001364256E+01  2.6603001364256E+01 
 1.7735334242838E+01  1.7735334242838E+01  1.7735334242838E+01  1.7735334242838E+01  1.7735334242838E+01  1.7735334242838E+01  1.7735334242838E+01  1.7735334242838E+01  1.7735334242838E+01  1.7735334242838E+01 
 0.0000000000000E+00  0.0000000000000E+00  0.0000000000000E+00  0.0000000000000E+00  0.0000000000000E+00  0.0000000000000E+00  0.0000000000000E+00  0.0000000000000E+00  0.0000000000000E+00  0.0000000000000E+00 
 0.0000000000000E+00  0.0000000000000E+00  0.0000000000000E+00  0.0000000000000E+00  0.0000000000000E+00  0.0000000000000E+00  0.0000000000000E+00  0.0000000000000E+00  0.0000000000000E+00  0.0000000000000E+00 
 0.0000000000000E+00  0.0000000000000E+00  0.0000000000000E+00  0.0000000000000E+00  0.0000000000000E+00  0.0000000000000E+00  0.0000000000000E+00  0.0000000000000E+00  0.0000000000000E+00  0.0000000000000E+00 
 0.0000000000000E+00  0.0000000000000E+00  0.0000000000000E+00  0.0000000000000E+00  0.0000000000000E+00  0.0000000000000E+00  0.0000000000000E+00  0.0000000000000E+00  0.0000000000000E+00  0.0000000000000E+00 
 0.0000000000000E+00  0.0000000000000E+00  0.0000000000000E+00  0.0000000000000E+00  0.0000000000000E+00  0.0000000000000E+00  0.0000000000000E+00  0.0000000000000E+00  0.0000000000000E+00  0.0000000000000E+00 
 0.0000000000000E+00  0.0000000000000E+00  0.0000000000000E+00  0.0000000000000E+00  0.0000000000000E+00  0.0000000000000E+00  0.0000000000000E+00  0.0000000000000E+00  0.0000000000000E+00  0.0000000000000E+00 
 0.0000000000000E+00  0.0000000000000E+00  0.0000000000000E+00  0.0000000000000E+00  0.0000000000000E+00  0.0000000000000E+00  0.0000000000000E+00  0.0000000000000E+00  0.0000000000000E+00  0.0000000000000E+00 
ZONE T = "CATH, 1.0000E-08", I = 10, SOLUTIONTIME = 1.000000E-08
ZONETYPE = ORDERED
DATAPACKING = BLOCK
STRANDID = 3
 1.2700000000000E-03  1.3377333333333E-03  1.4054666666667E-03  1.4732000000000E-03  1.5409333333333E-03  1.6086666666667E-03  1.6764000000000E-03  1.7441333333333E-03  1.8118666666667E-03  1.8796000000000E-03 
 1.9705052684146E-08  1.7389149136770E-08  1.5072962270881E-08  1.2756296513025E-08  1.0438956128371E-08  8.1207451533920E-09  5.8011041245591E-09  3.4805628401310E-09  1.1589242564654E-09 -3.0872656148524E-12 
 9.2000000000032E-01  9.2000000000090E-01  9.2000000000090E-01  9.2000000000090E-01  9.2000000000090E-01  9.2000000000090E-01  9.2000000000090E-01  9.2000000000090E-01  9.2000000000090E-01  9.2000000000090E-01 
 3.9999999999841E-02  3.9999999999551E-02  3.9999999999551E-02  3.9999999999551E-02  3.9999999999550E-02  3.9999999999550E-02  3.9999999999550E-02  3.9999999999550E-02  3.9999999999550E-02  3.9999999999549E-02 
 3.9999999999841E-02  3.9999999999551E-02  3.9999999999551E-02  3.9999999999551E-02  3.9999999999550E-02  3.9999999999550E-02  3.9999999999550E-02  3.9999999999550E-02  3.9999999999550E-02  3.9999999999549E-02 
 2.9158119814012E-02  2.9157912803856E-02  2.9157730119683E-02  2.9157571764463E-02  2.9157437743245E-02  2.9157328063110E-02  2.9157242733192E-02  2.9157181764705E-02  2.9157145170918E-02  2.9157132967186E-02 
 3.8001746420680E+00  3.8001724871795E+00  3.8001660223504E+00  3.8001552470535E+00  3.8001401603973E+00  3.8001207611262E+00  3.8000970476197E+00  3.8000690178921E+00  3.8000366695917E+00  3.8000000000000E+00 
 3.7710165222540E+00  3.7710145743756E+00  3.7710082922307E+00  3.7709976752890E+00  3.7709827226540E+00  3.7709634330631E+00  3.7709398048865E+00  3.7709118361274E+00  3.7708795244208E+00  3.7708428670328E+00 
 3.9714218047883E+00  3.9714218047881E+00  3.9714218047881E+00  3.9714218047881E+00  3.9714218047881E+00  3.9714218047881E+00  3.9714218047881E+00  3.9714218047881E+00  3.9714218047881E+00  3.9714218047881E+00 
-2.0040528253430E-01 -2.0040723041247E-01 -2.0041351255735E-01 -2.0042412949907E-01 -2.0043908213403E-01 -2.0045837172501E-01 -2.0048199990159E-01 -2.0050996866070E-01 -2.0054228036732E-01 -2.0057893775526E-01 
-1.6672260833184E+00 -3.3345786731091E+00 -3.3349867045330E+00 -3.3356763985386E+00 -3.3366479878211E+00 -3.3379018003040E+00 -3.3394382593771E+00 -3.3412578842003E+00 -3.3433612900772E+00 -1.6728745944491E+00 
 1.4705141076270E-07  1.2977112567912E-07  1.1248886487039E-07  9.5203016941774E-08  7.7912139488766E-08  6.0614771918345E-08  4.3309440036760E-08  2.5994682396402E-08  8.6690159311535E-09  8.6690159311535E-09 
 3.0043810189212E+01  2.6709302774390E+01  2.3374536692288E+01  2.0039221086512E+01  1.6703074101194E+01  1.3365815639471E+01  1.0027162536952E+01  6.6868315476849E+00  3.3445385691853E+00  0.0000000000000E+00 
 0.0000000000000E+00  3.3344992706012E+00  6.6692657898506E+00  1.0004581130918E+01  1.3340727051823E+01  1.6677985590438E+01  2.0016639160177E+01  2.3356970645856E+01  2.6699263498696E+01  3.0043810331133E+01 
 1.6672260833184E-08  3.3345786731091E-08  3.3349867045330E-08  3.3356763985386E-08  3.3366479878211E-08  3.3379018003040E-08  3.3394382593771E-08  3.3412578842003E-08  3.3433612900772E-08  1.6728745944491E-08 
 7.2440786946392E+03  1.4488157389278E+04  1.4488157389278E+04  1.4488157389278E+04  1.4488157389278E+04  1.4488157389278E+04  1.4488157389278E+04  1.4488157389278E+04  1.4488157389278E+04  7.2440786946392E+03 
 4.9259735123416E+04  9.8519470246832E+04  9.8519470246832E+04  9.8519470246832E+04  9.8519470246832E+04  9.8519470246832E+04  9.8519470246832E+04  9.8519470246832E+04  9.8519470246832E+04  4.9259735123416E+04 
 5.6503813818055E+04  1.1300762763611E+05  1.1300762763611E+05  1.1300762763611E+05  1.1300762763611E+05  1.1300762763611E+05  1.1300762763611E+05  1.1300762763611E+05  1.1300762763611E+05  5.6503813818055E+04 
 3.5000000000000E-01  3.5000000000000E-01  3.5000000000000E-01  3.5000000000000E-01  3.5000000000000E-01  3.5000000000000E-01  3.5000000000000E-01  3.5000000000000E-01  3.5000000000000E-01  3.5000000000000E-01 
 6.6040000000000E+00  1.3208000000000E+01  1.3208000000000E+01  1.3208000000000E+01  1.3208000000000E+01  1.3208000000000E+01  1.3208000000000E+01  1.3208000000000E+01  1.3208000000000E+01  6.6040000000000E+00 
-2.5245700837649E-01 -2.5246658639530E-01 -2.5249747914393E-01 -2.5254969704260E-01 -2.5262325770905E-01 -2.5271818597093E-01 -2.5283451388379E-01 -2.5297228075411E-01 -2.5313153316757E-01 -2.5331232502257E-01 
 3.3866666666667E-05  6.7733333333333E-05  6.7733333333334E-05  6.7733333333333E-05  6.7733333333334E-05  6.7733333333334E-05  6.7733333333333E-05  6.7733333333334E-05  6.7733333333333E-05  3.3866666666667E-05 
 2.6603001364262E+01  2.6603001364262E+01  2.6603001364262E+01  2.6603001364262E+01  2.6603001364262E+01  2.6603001364262E+01  2.6603001364262E+01  2.6603001364262E+01  2.6603001364262E+01  2.6603001364262E+01 
 1.7735334242833E+01  1.7735334242833E+01  1.7735334242833E+01  1.7735334242833E+01  1.7735334242833E+01  1.7735334242833E+01  1.7735334242833E+01  1.7735334242833E+01  1.7735334242833E+01  1.7735334242833E+01 
 1.3976737303249E-09  3.4235246397365E-09  9.6096577309938E-09  2.0066058355312E-08  3.4796258666382E-08  5.3805236433818E-08  7.7099418420461E-08  1.0468668513292E-07  1.3657637648005E-07  1.5359808720252E-07 
 1.3976737303249E-01  3.4235246397365E-01  9.6096577309938E-01  2.0066058355312E+00  3.4796258666382E+00  5.3805236433818E+00  7.7099418420461E+00  1.0468668513292E+01  1.3657637648005E+01  1.5359808720252E+01 
 8.6726000719414E-02  7.7133529078796E-02  5.9145221033589E-02  4.3550057197481E-02  3.0348206641000E-02  1.9540655966239E-02  1.1129191094804E-02  5.1164126053410E-03  1.5057385126158E-03  3.0140558771912E-04 
 5.3041372313076E-02  2.6521893489486E-01  9.0182055206580E-01  1.9630557783337E+00  3.4492776599972E+00  5.3609829874156E+00  7.6988126509513E+00  1.0463552100687E+01  1.3656131909492E+01  1.5359507314664E+01 
 0.0000000000000E+00  0.0000000000000E+00  0.0000000000000E+00  0.0000000000000E+00  0.0000000000000E+00  0.0000000000000E+00  0.0000000000000E+00  0.0000000000000E+00  0.0000000000000E+00  0.0000000000000E+00 
 0.0000000000000E+00  0.0000000000000E+00  0.0000000000000E+00  0.0000000000000E+00  0.0000000000000E+00  0.0000000000000E+00  0.0000000000000E+00  0.0000000000000E+00  0.0000000000000E+00  0.0000000000000E+00 
 0.0000000000000E+00  0.0000000000000E+00  0.0000000000000E+00  0.0000000000000E+00  0.0000000000000E+00  0.0000000000000E+00  0.0000000000000E+00  0.0000000000000E+00  0.0000000000000E+00  0.0000000000000E+00 
ZONE T = "CATH, 2.0000E-08", I = 10, SOLUTIONTIME = 2.000000E-08
ZONETYPE = ORDERED
DATAPACKING = BLOCK
STRANDID = 3
 1.2700000000000E-03  1.3377333333333E-03  1.4054666666667E-03  1.4732000000000E-03  1.5409333333333E-03  1.6086666666667E-03  1.6764000000000E-03  1.7441333333333E-03  1.8118666666667E-03  1.8796000000000E-03 
 1.9702789515684E-08  1.7387601105826E-08  1.5071402939642E-08  1.2754725843431E-08  1.0437737274175E-08  8.1198780456829E-09  5.8009518854769E-09  3.4800357451071E-09  1.1580221874799E-09 -3.8136811418443E-12 
 9.2000000000063E-01  9.2000000000180E-01  9.2000000000180E-01  9.2000000000180E-01  9.2000000000180E-01  9.2000000000180E-01  9.2000000000180E-01  9.2000000000180E-01  9.2000000000180E-01  9.2000000000180E-01 
 3.9999999999683E-02  3.9999999999101E-02  3.9999999999101E-02  3.9999999999101E-02  3.9999999999101E-02  3.9999999999100E-02  3.9999999999100E-02  3.9999999999100E-02  3.9999999999099E-02  3.9999999999098E-02 
 3.9999999999683E-02  3.9999999999101E-02  3.9999999999101E-02  3.9999999999101E-02  3.9999999999101E-02  3.9999999999100E-02  3.9999999999100E-02  3.9999999999100E-02  3.9999999999099E-02  3.9999999999098E-02 
 2.9158121998615E-02  2.9157914987434E-02  2.9157732302355E-02  2.9157573946355E-02  2.9157439924464E-02  2.9157330243771E-02  2.9157244913422E-02  2.9157183944626E-02  2.9157147350658E-02  2.9157135146862E-02 
 3.8001746429253E+00  3.8001724880263E+00  3.8001660231657E+00  3.8001552478163E+00  3.8001401610865E+00  3.8001207617205E+00  3.8000970480979E+00  3.8000690182326E+00  3.8000366697729E+00  3.8000000000000E+00 
 3.7710165209266E+00  3.7710145730388E+00  3.7710082908634E+00  3.7709976738699E+00  3.7709827211620E+00  3.7709634314768E+00  3.7709398031845E+00  3.7709118342880E+00  3.7708795224222E+00  3.7708428648531E+00 
 3.9714218047881E+00  3.9714218047877E+00  3.9714218047877E+00  3.9714218047877E+00  3.9714218047877E+00  3.9714218047877E+00  3.9714218047877E+00  3.9714218047877E+00  3.9714218047877E+00  3.9714218047877E+00 
-2.0040528386143E-01 -2.0040723174888E-01 -2.0041351392434E-01 -2.0042413091779E-01 -2.0043908362569E-01 -2.0045837331094E-01 -2.0048200160324E-01 -2.0050997049969E-01 -2.0054228236546E-01 -2.0057893993456E-01 
-1.6672261264096E+00 -3.3345787598852E+00 -3.3349867933057E+00 -3.3356764906907E+00 -3.3366480847404E+00 -3.3379019033881E+00 -3.3394383700354E+00 -3.3412580038565E+00 -3.3433614201720E+00 -1.6728746654456E+00 
 1.4705227082784E-07  1.2977176978904E-07  1.1248941938724E-07  9.5203494878553E-08  7.7912535436937E-08  6.0615078546323E-08  4.3309659471441E-08  2.5994810818193E-08  8.6690619715772E-09  8.6690619715772E-09 
 3.0043950618304E+01  2.6709435111546E+01  2.3374652334948E+01  2.0039320693176E+01  1.6703158405215E+01  1.3365883411222E+01  1.0027213274454E+01  6.6868650873342E+00  3.3445553756300E+00  0.0000000000000E+00 
 0.0000000000000E+00  3.3345155065018E+00  6.6692982829543E+00  1.0004629924860E+01  1.3340792212745E+01  1.6678067206813E+01  2.0016737343328E+01  2.3357085530298E+01  2.6699395242478E+01  3.0043950617929E+01 
 3.3344522097279E-08  6.6691574329942E-08  6.6699734978387E-08  6.6713528892293E-08  6.6732960725614E-08  6.6758037036921E-08  6.6788766294124E-08  6.6825158880569E-08  6.6867227102492E-08  3.3457492598946E-08 
 7.2440786946558E+03  1.4488157389312E+04  1.4488157389312E+04  1.4488157389312E+04  1.4488157389312E+04  1.4488157389312E+04  1.4488157389312E+04  1.4488157389312E+04  1.4488157389312E+04  7.2440786946559E+03 
 4.9259735123400E+04  9.8519470246798E+04  9.8519470246799E+04  9.8519470246798E+04  9.8519470246799E+04  9.8519470246799E+04  9.8519470246798E+04  9.8519470246799E+04  9.8519470246798E+04  4.9259735123399E+04 
 5.6503813818055E+04  1.1300762763611E+05  1.1300762763611E+05  1.1300762763611E+05  1.1300762763611E+05  1.1300762763611E+05  1.1300762763611E+05  1.1300762763611E+05  1.1300762763611E+05  5.6503813818055E+04 
 3.5000000000000E-01  3.5000000000000E-01  3.5000000000000E-01  3.5000000000000E-01  3.5000000000000E-01  3.5000000000000E-01  3.5000000000000E-01  3.5000000000000E-01  3.5000000000000E-01  3.5000000000000E-01 
 6.6040000000000E+00  1.3208000000000E+01  1.3208000000000E+01  1.3208000000000E+01  1.3208000000000E+01  1.3208000000000E+01  1.3208000000000E+01  1.3208000000000E+01  1.3208000000000E+01  6.6040000000000E+00 
-2.5245701490151E-01 -2.5246659296526E-01 -2.5249748586506E-01 -2.5254970401959E-01 -2.5262326504697E-01 -2.5271819377560E-01 -2.5283452226192E-01 -2.5297228981348E-01 -2.5313154301726E-01 -2.5331233577310E-01 
 3.3866666666667E-05  6.7733333333333E-05  6.7733333333334E-05  6.7733333333333E-05  6.7733333333334E-05  6.7733333333334E-05  6.7733333333333E-05  6.7733333333334E-05  6.7733333333333E-05  3.3866666666667E-05 
 2.6603001364267E+01  2.6603001364267E+01  2.6603001364267E+01  2.6603001364267E+01  2.6603001364267E+01  2.6603001364267E+01  2.6603001364267E+01  2.6603001364267E+01  2.6603001364267E+01  2.6603001364267E+01 
 1.7735334242827E+01  1.7735334242827E+01  1.7735334242827E+01  1.7735334242827E+01  1.7735334242827E+01  1.7735334242827E+01  1.7735334242827E+01  1.7735334242827E+01  1.7735334242827E+01  1.7735334242827E+01 
 2.7953612053800E-09  6.8470827513301E-09  1.9219409198401E-08  4.0132312539134E-08  6.9592857379946E-08  1.0761099960209E-07  1.5419959331322E-07  2.0937440021969E-07  2.7315410094110E-07  3.0719769264625E-07 
 1.3976874750551E-01  3.4235581115936E-01  9.6097514674077E-01  2.0066254183822E+00  3.4796598713563E+00  5.3805763168267E+00  7.7100174892762E+00  1.0468771508677E+01  1.3657772446106E+01  1.5359960544373E+01 
 8.6726858832273E-02  7.7134293355545E-02  5.9145806405422E-02  4.3550489814376E-02  3.0348512807439E-02  1.9540854186513E-02  1.1129303710362E-02  5.1164640765133E-03  1.5057534832132E-03  3.0140877925135E-04 
 5.3041888673234E-02  2.6522151780382E-01  9.0182934033534E-01  1.9630749285678E+00  3.4493113585489E+00  5.3610354626402E+00  7.6988881855658E+00  1.0463655044600E+01  1.3656266692623E+01  1.5359659135594E+01 
 0.0000000000000E+00  0.0000000000000E+00  0.0000000000000E+00  0.0000000000000E+00  0.0000000000000E+00  0.0000000000000E+00  0.0000000000000E+00  0.0000000000000E+00  0.0000000000000E+00  0.0000000000000E+00 
 0.0000000000000E+00  0.0000000000000E+00  0.0000000000000E+00  0.0000000000000E+00  0.0000000000000E+00  0.0000000000000E+00  0.0000000000000E+00  0.0000000000000E+00  0.0000000000000E+00  0.0000000000000E+00 
 0.0000000000000E+00  0.0000000000000E+00  0.0000000000000E+00  0.0000000000000E+00  0.0000000000000E+00  0.0000000000000E+00  0.0000000000000E+00  0.0000000000000E+00  0.0000000000000E+00  0.0000000000000E+00 
ZONE T = "CATH, 3.0000E-08", I = 10, SOLUTIONTIME = 3.000000E-08
ZONETYPE = ORDERED
DATAPACKING = BLOCK
STRANDID = 3
 1.2700000000000E-03  1.3377333333333E-03  1.4054666666667E-03  1.4732000000000E-03  1.5409333333333E-03  1.6086666666667E-03  1.6764000000000E-03  1.7441333333333E-03  1.8118666666667E-03  1.8796000000000E-03 
 1.9707148008078E-08  1.7391233182804E-08  1.5075761432115E-08  1.2759810751400E-08  1.0442458974456E-08  8.1245997460039E-09  5.8056735858379E-09  3.4862102764192E-09  1.1649231342877E-09  3.4504734138519E-12 
 9.2000000000095E-01  9.2000000000270E-01  9.2000000000270E-01  9.2000000000270E-01  9.2000000000270E-01  9.2000000000270E-01  9.2000000000270E-01  9.2000000000270E-01  9.2000000000270E-01  9.2000000000270E-01 
 3.9999999999524E-02  3.9999999998652E-02  3.9999999998652E-02  3.9999999998652E-02  3.9999999998651E-02  3.9999999998651E-02  3.9999999998650E-02  3.9999999998649E-02  3.9999999998649E-02  3.9999999998648E-02 
 3.9999999999524E-02  3.9999999998652E-02  3.9999999998652E-02  3.9999999998652E-02  3.9999999998651E-02  3.9999999998651E-02  3.9999999998650E-02  3.9999999998649E-02  3.9999999998649E-02  3.9999999998648E-02 
 2.9158121998400E-02  2.9157914987219E-02  2.9157732302141E-02  2.9157573946140E-02  2.9157439924249E-02  2.9157330243556E-02  2.9157244913207E-02  2.9157183944412E-02  2.9157147350443E-02  2.9157135146647E-02 
 3.8001746429253E+00  3.8001724880263E+00  3.8001660231657E+00  3.8001552478163E+00  3.8001401610865E+00  3.8001207617205E+00  3.8000970480979E+00  3.8000690182326E+00  3.8000366697729E+00  3.8000000000000E+00 
 3.7710165209269E+00  3.7710145730390E+00  3.7710082908636E+00  3.7709976738701E+00  3.7709827211622E+00  3.7709634314770E+00  3.7709398031847E+00  3.7709118342882E+00  3.7708795224225E+00  3.7708428648534E+00 
 3.9714218047879E+00  3.9714218047873E+00  3.9714218047873E+00  3.9714218047873E+00  3.9714218047873E+00  3.9714218047873E+00  3.9714218047873E+00  3.9714218047873E+00  3.9714218047873E+00  3.9714218047873E+00 
-2.0040528386104E-01 -2.0040723174830E-01 -2.0041351392376E-01 -2.0042413091721E-01 -2.0043908362511E-01 -2.0045837331036E-01 -2.0048200160266E-01 -2.0050997049911E-01 -2.0054228236488E-01 -2.0057893993398E-01 
-1.6672261263930E+00 -3.3345787598279E+00 -3.3349867932483E+00 -3.3356764906332E+00 -3.3366480846829E+00 -3.3379019033306E+00 -3.3394383699778E+00 -3.3412580037989E+00 -3.3433614201141E+00 -1.6728746654166E+00 
 1.4705240339273E-07  1.2977176982120E-07  1.1248941942543E-07  9.5203494936878E-08  7.7912535512046E-08  6.0615078638664E-08  4.3309659586382E-08  2.5994810949481E-08  8.6690621131327E-09  8.6690621131327E-09 
 3.0043950617121E+01  2.6709435111060E+01  2.3374652334686E+01  2.0039320692713E+01  1.6703158405027E+01  1.3365883410834E+01  1.0027213274341E+01  6.6868650874967E+00  3.3445553753546E+00  0.0000000000000E+00 
 0.0000000000000E+00  3.3345155063300E+00  6.6692982827825E+00  1.0004629924689E+01  1.3340792212401E+01  1.6678067206470E+01  2.0016737343156E+01  2.3357085529954E+01  2.6699395241963E+01  3.0043950617556E+01 
 5.0016783361210E-08  1.0003736192822E-07  1.0004960291087E-07  1.0007029379863E-07  1.0009944157244E-07  1.0013705607023E-07  1.0018314999390E-07  1.0023773891856E-07  1.0030084130363E-07  5.0186239253112E-08 
 7.2440786946725E+03  1.4488157389345E+04  1.4488157389345E+04  1.4488157389345E+04  1.4488157389345E+04  1.4488157389345E+04  1.4488157389345E+04  1.4488157389345E+04  1.4488157389345E+04  7.2440786946727E+03 
 4.9259735123383E+04  9.8519470246765E+04  9.8519470246766E+04  9.8519470246765E+04  9.8519470246766E+04  9.8519470246766E+04  9.8519470246765E+04  9.8519470246766E+04  9.8519470246765E+04  4.9259735123383E+04 
 5.6503813818055E+04  1.1300762763611E+05  1.1300762763611E+05  1.1300762763611E+05  1.1300762763611E+05  1.1300762763611E+05  1.1300762763611E+05  1.1300762763611E+05  1.1300762763611E+05  5.6503813818055E+04 
 3.5000000000000E-01  3.5000000000000E-01  3.5000000000000E-01  3.5000000000000E-01  3.5000000000000E-01  3.5000000000000E-01  3.5000000000000E-01  3.5000000000000E-01  3.5000000000000E-01  3.5000000000000E-01 
 6.6040000000000E+00  1.3208000000000E+01  1.3208000000000E+01  1.3208000000000E+01  1.3208000000000E+01  1.3208000000000E+01  1.3208000000000E+01  1.3208000000000E+01  1.3208000000000E+01  6.6040000000000E+00 
-2.5245701489900E-01 -2.5246659296092E-01 -2.5249748586071E-01 -2.5254970401523E-01 -2.5262326504262E-01 -2.5271819377124E-01 -2.5283452225756E-01 -2.5297228980912E-01 -2.5313154301288E-01 -2.5331233576871E-01 
 3.3866666666667E-05  6.7733333333333E-05  6.7733333333334E-05  6.7733333333333E-05  6.7733333333334E-05  6.7733333333334E-05  6.7733333333333E-05  6.7733333333334E-05  6.7733333333333E-05  3.3866666666667E-05 
 2.6603001364272E+01  2.6603001364272E+01  2.6603001364272E+01  2.6603001364272E+01  2.6603001364272E+01  2.6603001364272E+01  2.6603001364272E+01  2.6603001364272E+01  2.6603001364272E+01  2.6603001364272E+01 
 1.7735334242822E+01  1.7735334242822E+01  1.7735334242822E+01  1.7735334242822E+01  1.7735334242822E+01  1.7735334242822E+01  1.7735334242822E+01  1.7735334242822E+01  1.7735334242822E+01  1.7735334242822E+01 
 4.1930486803703E-09  1.0270640862573E-08  2.8829160665476E-08  6.0198566722175E-08  1.0438945609176E-07  1.6141676276816E-07  2.3129976820478E-07  3.1406211530318E-07  4.0973182539702E-07  4.6079729808625E-07 
 1.3976874749903E-01  3.4235581112424E-01  9.6097514670748E-01  2.0066254183041E+00  3.4796598711811E+00  5.3805763166072E+00  7.7100174891556E+00  1.0468771508349E+01  1.3657772445591E+01  1.5359960544001E+01 
 8.6726858825800E-02  7.7134293353211E-02  5.9145806404929E-02  4.3550489812775E-02  3.0348512807097E-02  1.9540854185695E-02  1.1129303710066E-02  5.1164640768838E-03  1.5057534831105E-03  3.0140877907658E-04 
 5.3041888673234E-02  2.6522151777102E-01  9.0182934030255E-01  1.9630749284913E+00  3.4493113583740E+00  5.3610354624215E+00  7.6988881854455E+00  1.0463655044272E+01  1.3656266692108E+01  1.5359659135222E+01 
 0.0000000000000E+00  0.0000000000000E+00  0.0000000000000E+00  0.0000000000000E+00  0.0000000000000E+00  0.0000000000000E+00  0.0000000000000E+00  0.0000000000000E+00  0.0000000000000E+00  0.0000000000000E+00 
 0.0000000000000E+00  0.0000000000000E+00  0.0000000000000E+00  0.0000000000000E+00  0.0000000000000E+00  0.0000000000000E+00  0.0000000000000E+00  0.0000000000000E+00  0.0000000000000E+00  0.0000000000000E+00 
 0.0000000000000E+00  0.0000000000000E+00  0.0000000000000E+00  0.0000000000000E+00  0.0000000000000E+00  0.0000000000000E+00  0.0000000000000E+00  0.0000000000000E+00  0.0000000000000E+00  0.0000000000000E+00 
ZONE T = "CATH, 4.0000E-08", I = 10, SOLUTIONTIME = 4.000000E-08
ZONETYPE = ORDERED
DATAPACKING = BLOCK
STRANDID = 3
 1.2700000000000E-03  1.3377333333333E-03  1.4054666666667E-03  1.4732000000000E-03  1.5409333333333E-03  1.6086666666667E-03  1.6764000000000E-03  1.7441333333333E-03  1.8118666666667E-03  1.8796000000000E-03 
 1.9704605553644E-08  1.7389417143865E-08  1.5073218977761E-08  1.2756541881630E-08  1.0439916520182E-08  8.1220572917692E-09  5.8031311316432E-09  3.4825781990813E-09  1.1612910569898E-09 -1.8160386390373E-13 
 9.2000000000127E-01  9.2000000000359E-01  9.2000000000359E-01  9.2000000000360E-01  9.2000000000360E-01  9.2000000000360E-01  9.2000000000360E-01  9.2000000000360E-01  9.2000000000360E-01  9.2000000000361E-01 
 3.9999999999365E-02  3.9999999998203E-02  3.9999999998203E-02  3.9999999998202E-02  3.9999999998202E-02  3.9999999998201E-02  3.9999999998200E-02  3.9999999998199E-02  3.9999999998198E-02  3.9999999998197E-02 
 3.9999999999365E-02  3.9999999998203E-02  3.9999999998203E-02  3.9999999998202E-02  3.9999999998202E-02  3.9999999998201E-02  3.9999999998200E-02  3.9999999998199E-02  3.9999999998198E-02  3.9999999998197E-02 
 2.9158121998185E-02  2.9157914987004E-02  2.9157732301926E-02  2.9157573945925E-02  2.9157439924034E-02  2.9157330243341E-02  2.9157244912992E-02  2.9157183944197E-02  2.9157147350228E-02  2.9157135146432E-02 
 3.8001746429253E+00  3.8001724880262E+00  3.8001660231657E+00  3.8001552478163E+00  3.8001401610865E+00  3.8001207617205E+00  3.8000970480979E+00  3.8000690182326E+00  3.8000366697729E+00  3.8000000000000E+00 
 3.7710165209271E+00  3.7710145730392E+00  3.7710082908638E+00  3.7709976738703E+00  3.7709827211624E+00  3.7709634314772E+00  3.7709398031849E+00  3.7709118342884E+00  3.7708795224227E+00  3.7708428648536E+00 
 3.9714218047877E+00  3.9714218047870E+00  3.9714218047870E+00  3.9714218047870E+00  3.9714218047870E+00  3.9714218047870E+00  3.9714218047870E+00  3.9714218047870E+00  3.9714218047870E+00  3.9714218047870E+00 
-2.0040528386064E-01 -2.0040723174772E-01 -2.0041351392318E-01 -2.0042413091663E-01 -2.0043908362453E-01 -2.0045837330978E-01 -2.0048200160208E-01 -2.0050997049853E-01 -2.0054228236430E-01 -2.0057893993340E-01 
-1.6672261263765E+00 -3.3345787597705E+00 -3.3349867931909E+00 -3.3356764905758E+00 -3.3366480846254E+00 -3.3379019032730E+00 -3.3394383699202E+00 -3.3412580037412E+00 -3.3433614200564E+00 -1.6728746653877E+00 