TITLE = "Solution on Domain BulkDomain1D_0"
VARIABLES = "x [m]"  
"Vel_axial" 
"MF_sp(ECDMC)" 
"MF_sp(Li+)" 
"MF_sp(PF6-)" 
"Volt(Electroly)" 
"Volt(AnodeVolt)" 
"Potential Drop Electrode-Electrolyte [V]" 
"Surf_0 Equilibrium Potential Drop Electrode-Electrolyte [V]" 
"Overpotential_0 [V]" 
"Current Source [A/m^2]" 
"Li+ flux [kmol/m^2/s]" 
"Electrolyte Current [A/m^2]" 
"Electrode Current [A/m^2]" 
"CV Capacity discharged [A-s/m^2]" 
"Depth of discharge in CV [A-s/m^2]" 
"CV Capacity remaining [A-s/m^2]" 
"Initial CV capacity [A-s/m^2]" 
"Porosity []" 
"Surface Area [m2/m2] (area per area)" 
"Specific current (per particle area) [A/m^2]" 
"Control volume thickness [m]" 
"MoleDens Li_C6-bulk [kmol/m^3]" 
"MoleDens V_C6-bulk [kmol/m^3]" 
"qHeat_accum [J/m3]" 
"qHeat_step [W/m3]" 
"Joule_Lyte [W/m3]" 
"Joule_Solid [W/m3]" 
"electrodHeat [W/m3]" 
"OverpotHeat [W/m3]" 
"deltaSHeat [W/m3]" 

ZONE T = "ANOD, 0.0000E+00", I = 10, SOLUTIONTIME = 0.000000E+00
ZONETYPE = ORDERED
DATAPACKING = BLOCK
STRANDID = 1
 0.0000000000000E+00  8.7488888888889E-05  1.7497777777778E-04  2.6246666666667E-04  3.4995555555556E-04  4.3744444444444E-04  5.2493333333333E-04  6.1242222222222E-04  6.9991111111111E-04  7.8740000000000E-04 
 0.0000000000000E+00  0.0000000000000E+00  0.0000000000000E+00  0.0000000000000E+00  0.0000000000000E+00  0.0000000000000E+00  0.0000000000000E+00  0.0000000000000E+00  0.0000000000000E+00  0.0000000000000E+00 
 9.2000000000000E-01  9.2000000000000E-01  9.2000000000000E-01  9.2000000000000E-01  9.2000000000000E-01  9.2000000000000E-01  9.2000000000000E-01  9.2000000000000E-01  9.2000000000000E-01  9.2000000000000E-01 
 4.0000000000000E-02  4.0000000000000E-02  4.0000000000000E-02  4.0000000000000E-02  4.0000000000000E-02  4.0000000000000E-02  4.0000000000000E-02  4.0000000000000E-02  4.0000000000000E-02  4.0000000000000E-02 
 4.0000000000000E-02  4.0000000000000E-02  4.0000000000000E-02  4.0000000000000E-02  4.0000000000000E-02  4.0000000000000E-02  4.0000000000000E-02  4.0000000000000E-02  4.0000000000000E-02  4.0000000000000E-02 
-7.0000000000000E-02 -7.0000000000000E-02 -7.0000000000000E-02 -7.0000000000000E-02 -7.0000000000000E-02 -7.0000000000000E-02 -7.0000000000000E-02 -7.0000000000000E-02 -7.0000000000000E-02 -7.0000000000000E-02 
 0.0000000000000E+00  0.0000000000000E+00  0.0000000000000E+00  0.0000000000000E+00  0.0000000000000E+00  0.0000000000000E+00  0.0000000000000E+00  0.0000000000000E+00  0.0000000000000E+00  0.0000000000000E+00 
 7.0000000000000E-02  7.0000000000000E-02  7.0000000000000E-02  7.0000000000000E-02  7.0000000000000E-02  7.0000000000000E-02  7.0000000000000E-02  7.0000000000000E-02  7.0000000000000E-02  7.0000000000000E-02 
-4.0906712753392E-02 -4.0906712753392E-02 -4.0906712753392E-02 -4.0906712753392E-02 -4.0906712753392E-02 -4.0906712753392E-02 -4.0906712753392E-02 -4.0906712753392E-02 -4.0906712753392E-02 -4.0906712753392E-02 
 1.1090671275339E-01  1.1090671275339E-01  1.1090671275339E-01  1.1090671275339E-01  1.1090671275339E-01  1.1090671275339E-01  1.1090671275339E-01  1.1090671275339E-01  1.1090671275339E-01  1.1090671275339E-01 
 3.0930240924008E+01  6.1860481848017E+01  6.1860481848017E+01  6.1860481848017E+01  6.1860481848016E+01  6.1860481848017E+01  6.1860481848017E+01  6.1860481848016E+01  6.1860481848016E+01  3.0930240924008E+01 
-0.0000000000000E+00 -0.0000000000000E+00 -0.0000000000000E+00 -0.0000000000000E+00 -0.0000000000000E+00 -0.0000000000000E+00 -0.0000000000000E+00 -0.0000000000000E+00 -0.0000000000000E+00 -0.0000000000000E+00 
 0.0000000000000E+00  0.0000000000000E+00  0.0000000000000E+00  0.0000000000000E+00  0.0000000000000E+00  0.0000000000000E+00  0.0000000000000E+00  0.0000000000000E+00  0.0000000000000E+00  3.0930240924008E+01 
 3.0930240924008E+01 -0.0000000000000E+00 -0.0000000000000E+00 -0.0000000000000E+00 -0.0000000000000E+00 -0.0000000000000E+00 -0.0000000000000E+00 -0.0000000000000E+00 -0.0000000000000E+00  0.0000000000000E+00 
 0.0000000000000E+00  0.0000000000000E+00  0.0000000000000E+00  0.0000000000000E+00  0.0000000000000E+00  0.0000000000000E+00  0.0000000000000E+00  0.0000000000000E+00  0.0000000000000E+00  0.0000000000000E+00 
 9.1448444543281E+04  1.8289688908656E+05  1.8289688908656E+05  1.8289688908656E+05  1.8289688908656E+05  1.8289688908656E+05  1.8289688908656E+05  1.8289688908656E+05  1.8289688908656E+05  9.1448444543281E+04 
 3.6579377817312E+05  7.3158755634625E+05  7.3158755634625E+05  7.3158755634625E+05  7.3158755634625E+05  7.3158755634625E+05  7.3158755634625E+05  7.3158755634625E+05  7.3158755634625E+05  3.6579377817312E+05 
 4.5724222271640E+05  9.1448444543281E+05  9.1448444543281E+05  9.1448444543281E+05  9.1448444543281E+05  9.1448444543281E+05  9.1448444543281E+05  9.1448444543281E+05  9.1448444543281E+05  4.5724222271640E+05 
 3.5000000000000E-01  3.5000000000000E-01  3.5000000000000E-01  3.5000000000000E-01  3.5000000000000E-01  3.5000000000000E-01  3.5000000000000E-01  3.5000000000000E-01  3.5000000000000E-01  3.5000000000000E-01 
 8.5301666666666E+00  1.7060333333333E+01  1.7060333333333E+01  1.7060333333333E+01  1.7060333333333E+01  1.7060333333333E+01  1.7060333333333E+01  1.7060333333333E+01  1.7060333333333E+01  8.5301666666666E+00 
 3.6259831879809E+00  3.6259831879809E+00  3.6259831879809E+00  3.6259831879809E+00  3.6259831879809E+00  3.6259831879809E+00  3.6259831879809E+00  3.6259831879809E+00  3.6259831879809E+00  3.6259831879809E+00 
 4.3744444444444E-05  8.7488888888889E-05  8.7488888888889E-05  8.7488888888889E-05  8.7488888888889E-05  8.7488888888889E-05  8.7488888888889E-05  8.7488888888889E-05  8.7488888888889E-05  4.3744444444444E-05 
 8.6666666666666E+01  8.6666666666666E+01  8.6666666666666E+01  8.6666666666666E+01  8.6666666666666E+01  8.6666666666666E+01  8.6666666666666E+01  8.6666666666666E+01  8.6666666666666E+01  8.6666666666666E+01 
 2.1666666666667E+01  2.1666666666667E+01  2.1666666666667E+01  2.1666666666667E+01  2.1666666666667E+01  2.1666666666667E+01  2.1666666666667E+01  2.1666666666667E+01  2.1666666666667E+01  2.1666666666667E+01 
 0.0000000000000E+00  0.0000000000000E+00  0.0000000000000E+00  0.0000000000000E+00  0.0000000000000E+00  0.0000000000000E+00  0.0000000000000E+00  0.0000000000000E+00  0.0000000000000E+00  0.0000000000000E+00 
 0.0000000000000E+00  0.0000000000000E+00  0.0000000000000E+00  0.0000000000000E+00  0.0000000000000E+00  0.0000000000000E+00  0.0000000000000E+00  0.0000000000000E+00  0.0000000000000E+00  0.0000000000000E+00 
 0.0000000000000E+00  0.0000000000000E+00  0.0000000000000E+00  0.0000000000000E+00  0.0000000000000E+00  0.0000000000000E+00  0.0000000000000E+00  0.0000000000000E+00  0.0000000000000E+00  0.0000000000000E+00 
 0.0000000000000E+00  0.0000000000000E+00  0.0000000000000E+00  0.0000000000000E+00  0.0000000000000E+00  0.0000000000000E+00  0.0000000000000E+00  0.0000000000000E+00  0.0000000000000E+00  0.0000000000000E+00 
 0.0000000000000E+00  0.0000000000000E+00  0.0000000000000E+00  0.0000000000000E+00  0.0000000000000E+00  0.0000000000000E+00  0.0000000000000E+00  0.0000000000000E+00  0.0000000000000E+00  0.0000000000000E+00 
 0.0000000000000E+00  0.0000000000000E+00  0.0000000000000E+00  0.0000000000000E+00  0.0000000000000E+00  0.0000000000000E+00  0.0000000000000E+00  0.0000000000000E+00  0.0000000000000E+00  0.0000000000000E+00 
 0.0000000000000E+00  0.0000000000000E+00  0.0000000000000E+00  0.0000000000000E+00  0.0000000000000E+00  0.0000000000000E+00  0.0000000000000E+00  0.0000000000000E+00  0.0000000000000E+00  0.0000000000000E+00 
ZONE T = "ANOD, 1.0000E-08", I = 10, SOLUTIONTIME = 1.000000E-08
ZONETYPE = ORDERED
DATAPACKING = BLOCK
STRANDID = 1
 0.0000000000000E+00  8.7488888888889E-05  1.7497777777778E-04  2.6246666666667E-04  3.4995555555556E-04  4.3744444444444E-04  5.2493333333333E-04  6.1242222222222E-04  6.9991111111111E-04  7.8740000000000E-04 
 1.1573880815890E-09  3.4725296571747E-09  5.7873166452734E-09  8.1021186692026E-09  1.0417305352328E-08  1.2732156694897E-08  1.5048131943620E-08  1.7364147891212E-08  1.9680210953709E-08  2.0837724438909E-08 
 9.1999999999930E-01  9.1999999999930E-01  9.1999999999930E-01  9.1999999999930E-01  9.1999999999930E-01  9.1999999999930E-01  9.1999999999930E-01  9.1999999999930E-01  9.1999999999930E-01  9.1999999999971E-01 
 4.0000000000348E-02  4.0000000000348E-02  4.0000000000348E-02  4.0000000000348E-02  4.0000000000348E-02  4.0000000000348E-02  4.0000000000348E-02  4.0000000000348E-02  4.0000000000348E-02  4.0000000000144E-02 
 4.0000000000348E-02  4.0000000000348E-02  4.0000000000348E-02  4.0000000000348E-02  4.0000000000348E-02  4.0000000000348E-02  4.0000000000348E-02  4.0000000000348E-02  4.0000000000348E-02  4.0000000000144E-02 
 2.9182258994529E-02  2.9182243281790E-02  2.9182196143544E-02  2.9182117579672E-02  2.9182007589972E-02  2.9181866174152E-02  2.9181693331834E-02  2.9181489062553E-02  2.9181253365756E-02  2.9180986240804E-02 
 0.0000000000000E+00 -4.7327994139329E-09 -8.9088194016284E-09 -1.2528057890614E-08 -1.5590511265985E-08 -1.8096174370394E-08 -2.0045040504035E-08 -2.1437101424619E-08 -2.2272347347351E-08 -2.2550766944897E-08 
-2.9182258994529E-02 -2.9182248014590E-02 -2.9182205052363E-02 -2.9182130107730E-02 -2.9182023180483E-02 -2.9181884270326E-02 -2.9181713376874E-02 -2.9181510499654E-02 -2.9181275638103E-02 -2.9181008791571E-02 
-4.0906712752889E-02 -4.0906712752890E-02 -4.0906712752890E-02 -4.0906712752889E-02 -4.0906712752889E-02 -4.0906712752889E-02 -4.0906712752889E-02 -4.0906712752889E-02 -4.0906712752889E-02 -4.0906712753020E-02 
 1.1724453758360E-02  1.1724464738300E-02  1.1724507700527E-02  1.1724582645159E-02  1.1724689572406E-02  1.1724828482563E-02  1.1724999376015E-02  1.1725202253235E-02  1.1725437114786E-02  1.1725703961449E-02 
 1.6668957845070E+00  3.3337947450992E+00  3.3338071724625E+00  3.3338288511436E+00  3.3338597812121E+00  3.3338999627664E+00  3.3339493959348E+00  3.3340080808746E+00  3.3340760177734E+00  1.6670766034237E+00 
 8.6412902500554E-09  2.5923887194155E-08  4.3206548472603E-08  6.0489321960492E-08  7.7772255530836E-08  9.5055397065492E-08  1.1233879444164E-07  1.2962249554495E-07  1.4690662030197E-07  1.4690662030197E-07 
 0.0000000000000E+00  3.3350327754894E+00  6.6700733451213E+00  1.0005130948205E+01  1.3340214823681E+01  1.6675334210492E+01  2.0010498347761E+01  2.3345716474982E+01  2.6680997831797E+01  3.0015732075816E+01 
 3.0015731848111E+01  2.6681318882174E+01  2.3346278312397E+01  2.0011220709305E+01  1.6676136833906E+01  1.3341017447121E+01  1.0005853309761E+01  6.6706351824907E+00  3.3353538258058E+00  0.0000000000000E+00 
 1.6668957845070E-08  3.3337947450992E-08  3.3338071724625E-08  3.3338288511436E-08  3.3338597812121E-08  3.3338999627664E-08  3.3339493959348E-08  3.3340080808746E-08  3.3340760177734E-08  1.6670766034237E-08 
 9.1448444543298E+04  1.8289688908660E+05  1.8289688908660E+05  1.8289688908660E+05  1.8289688908660E+05  1.8289688908660E+05  1.8289688908660E+05  1.8289688908660E+05  1.8289688908660E+05  9.1448444543298E+04 
 3.6579377817311E+05  7.3158755634622E+05  7.3158755634621E+05  7.3158755634621E+05  7.3158755634621E+05  7.3158755634622E+05  7.3158755634622E+05  7.3158755634621E+05  7.3158755634621E+05  3.6579377817311E+05 
 4.5724222271641E+05  9.1448444543281E+05  9.1448444543281E+05  9.1448444543281E+05  9.1448444543281E+05  9.1448444543281E+05  9.1448444543281E+05  9.1448444543281E+05  9.1448444543281E+05  4.5724222271640E+05 
 3.5000000000000E-01  3.5000000000000E-01  3.5000000000000E-01  3.5000000000000E-01  3.5000000000000E-01  3.5000000000000E-01  3.5000000000000E-01  3.5000000000000E-01  3.5000000000000E-01  3.5000000000000E-01 
 8.5301666666666E+00  1.7060333333333E+01  1.7060333333333E+01  1.7060333333333E+01  1.7060333333333E+01  1.7060333333333E+01  1.7060333333333E+01  1.7060333333333E+01  1.7060333333333E+01  8.5301666666666E+00 
 1.9541186586901E-01  1.9541205203684E-01  1.9541278047298E-01  1.9541405117975E-01  1.9541586416124E-01  1.9541821942321E-01  1.9542111697318E-01  1.9542455682038E-01  1.9542853897579E-01  1.9543306345211E-01 
 4.3744444444444E-05  8.7488888888889E-05  8.7488888888889E-05  8.7488888888889E-05  8.7488888888889E-05  8.7488888888889E-05  8.7488888888889E-05  8.7488888888889E-05  8.7488888888889E-05  4.3744444444444E-05 
 8.6666666666663E+01  8.6666666666663E+01  8.6666666666663E+01  8.6666666666663E+01  8.6666666666663E+01  8.6666666666663E+01  8.6666666666663E+01  8.6666666666663E+01  8.6666666666663E+01  8.6666666666663E+01 
 2.1666666666671E+01  2.1666666666671E+01  2.1666666666671E+01  2.1666666666671E+01  2.1666666666671E+01  2.1666666666671E+01  2.1666666666671E+01  2.1666666666671E+01  2.1666666666671E+01  2.1666666666671E+01 
 1.8330395313943E-11  2.8611642466547E-11  6.1365737152910E-11  1.1850328166884E-10  2.0002490922314E-10  3.0593152323135E-10  4.3622429731217E-10  5.9090467532936E-10  7.6997437138419E-10  8.6560678006656E-10 
 1.8330395313943E-03  2.8611642466547E-03  6.1365737152910E-03  1.1850328166884E-02  2.0002490922314E-02  3.0593152323135E-02  4.3622429731217E-02  5.9090467532936E-02  7.6997437138419E-02  8.6560678006656E-02 
 2.9948073996993E-04  1.4974054104834E-03  5.0911911392403E-03  1.1080874636577E-02  1.9466519160972E-02  3.0248214521192E-02  4.3426077075920E-02  5.9000249737925E-02  7.6970901973278E-02  8.6555370826435E-02 
 1.5335587914244E-03  1.3637588361713E-03  1.0453825760507E-03  7.6945353030720E-04  5.3597176134245E-04  3.4493780194331E-04  1.9635265529691E-04  9.0217795011303E-05  2.6535165141564E-05  5.3071802213855E-06 
 0.0000000000000E+00  0.0000000000000E+00  0.0000000000000E+00  0.0000000000000E+00  0.0000000000000E+00  0.0000000000000E+00  0.0000000000000E+00  0.0000000000000E+00  0.0000000000000E+00  0.0000000000000E+00 
 0.0000000000000E+00  0.0000000000000E+00  0.0000000000000E+00  0.0000000000000E+00  0.0000000000000E+00  0.0000000000000E+00  0.0000000000000E+00  0.0000000000000E+00  0.0000000000000E+00  0.0000000000000E+00 
 0.0000000000000E+00  0.0000000000000E+00  0.0000000000000E+00  0.0000000000000E+00  0.0000000000000E+00  0.0000000000000E+00  0.0000000000000E+00  0.0000000000000E+00  0.0000000000000E+00  0.0000000000000E+00 
ZONE T = "ANOD, 2.0000E-08", I = 10, SOLUTIONTIME = 2.000000E-08
ZONETYPE = ORDERED
DATAPACKING = BLOCK
STRANDID = 1
 0.0000000000000E+00  8.7488888888889E-05  1.7497777777778E-04  2.6246666666667E-04  3.4995555555556E-04  4.3744444444444E-04  5.2493333333333E-04  6.1242222222222E-04  6.9991111111111E-04  7.8740000000000E-04 
 1.1586129597076E-09  3.4762042944192E-09  5.7934410592395E-09  8.1106928921910E-09  1.0427239808161E-08  1.2744177860746E-08  1.5061876688174E-08  1.7380342721054E-08  1.9697403143763E-08  2.0856504992534E-08 
 9.1999999999861E-01  9.1999999999861E-01  9.1999999999861E-01  9.1999999999861E-01  9.1999999999861E-01  9.1999999999861E-01  9.1999999999861E-01  9.1999999999861E-01  9.1999999999861E-01  9.1999999999942E-01 
 4.0000000000696E-02  4.0000000000696E-02  4.0000000000696E-02  4.0000000000696E-02  4.0000000000696E-02  4.0000000000696E-02  4.0000000000696E-02  4.0000000000696E-02  4.0000000000696E-02  4.0000000000288E-02 
 4.0000000000696E-02  4.0000000000696E-02  4.0000000000696E-02  4.0000000000696E-02  4.0000000000696E-02  4.0000000000696E-02  4.0000000000696E-02  4.0000000000696E-02  4.0000000000696E-02  4.0000000000288E-02 
 2.9167671851284E-02  2.9167656124388E-02  2.9167608943671E-02  2.9167530309015E-02  2.9167420220215E-02  2.9167278676981E-02  2.9167105678933E-02  2.9166901225605E-02  2.9166665316443E-02  2.9166397950806E-02 
 0.0000000000000E+00 -4.7370637987189E-09 -8.9168465239156E-09 -1.2539346098887E-08 -1.5604558900964E-08 -1.8112479761496E-08 -2.0063101965841E-08 -2.1456417253337E-08 -2.2292415817280E-08 -2.2571086304893E-08 
-2.9167671851284E-02 -2.9167660861452E-02 -2.9167617860517E-02 -2.9167542848361E-02 -2.9167435824774E-02 -2.9167296789461E-02 -2.9167125742035E-02 -2.9166922682022E-02 -2.9166687608859E-02 -2.9166420521893E-02 
-4.0906712752388E-02 -4.0906712752385E-02 -4.0906712752388E-02 -4.0906712752388E-02 -4.0906712752390E-02 -4.0906712752390E-02 -4.0906712752390E-02 -4.0906712752390E-02 -4.0906712752390E-02 -4.0906712752652E-02 
 1.1739040901104E-02  1.1739051890933E-02  1.1739094891871E-02  1.1739169904027E-02  1.1739276927615E-02  1.1739415962929E-02  1.1739587010354E-02  1.1739790070367E-02  1.1740025143531E-02  1.1740292230759E-02 
 1.6690056084813E+00  3.3380143961110E+00  3.3380268354641E+00  3.3380485350600E+00  3.3380794949688E+00  3.3381197152886E+00  3.3381691961484E+00  3.3382279377061E+00  3.3382959401495E+00  1.6691866018624E+00 
 8.6490758773785E-09  2.5947244100062E-08  4.3245476792217E-08  6.0543821926586E-08  7.7842327501789E-08  9.5141041498013E-08  1.1244001190710E-07  1.2973928672590E-07  1.4703905810487E-07  1.4703905810487E-07 
 0.0000000000000E+00  3.3380375735038E+00  6.6760829560621E+00  1.0014145408155E+01  1.3352234189527E+01  1.6690358560291E+01  2.0028527781294E+01  2.3366751113017E+01  2.6705037815685E+01  3.0043384769251E+01 
 3.0043384767121E+01  2.6705359577108E+01  2.3367314194458E+01  2.0029251742567E+01  1.6691162961265E+01  1.3353038590294E+01  1.0014869369285E+01  6.6766460377261E+00  3.3383593349322E+00  0.0000000000000E+00 
 3.3359013929883E-08  6.6718091412102E-08  6.6718340079266E-08  6.6718773862036E-08  6.6719392761809E-08  6.6720196780551E-08  6.6721185920832E-08  6.6722360185808E-08  6.6723719579228E-08  3.3362632052861E-08 
 9.1448444543314E+04  1.8289688908663E+05  1.8289688908663E+05  1.8289688908663E+05  1.8289688908663E+05  1.8289688908663E+05  1.8289688908663E+05  1.8289688908663E+05  1.8289688908663E+05  9.1448444543314E+04 
 3.6579377817309E+05  7.3158755634618E+05  7.3158755634618E+05  7.3158755634618E+05  7.3158755634618E+05  7.3158755634618E+05  7.3158755634618E+05  7.3158755634618E+05  7.3158755634618E+05  3.6579377817309E+05 
 4.5724222271641E+05  9.1448444543281E+05  9.1448444543281E+05  9.1448444543281E+05  9.1448444543281E+05  9.1448444543281E+05  9.1448444543281E+05  9.1448444543281E+05  9.1448444543281E+05  4.5724222271641E+05 
 3.5000000000000E-01  3.5000000000000E-01  3.5000000000000E-01  3.5000000000000E-01  3.5000000000000E-01  3.5000000000000E-01  3.5000000000000E-01  3.5000000000000E-01  3.5000000000000E-01  3.5000000000000E-01 
 8.5301666666666E+00  1.7060333333333E+01  1.7060333333333E+01  1.7060333333333E+01  1.7060333333333E+01  1.7060333333333E+01  1.7060333333333E+01  1.7060333333333E+01  1.7060333333333E+01  8.5301666666666E+00 
 1.9565920265113E-01  1.9565938899851E-01  1.9566011813744E-01  1.9566139007014E-01  1.9566320480073E-01  1.9566556233497E-01  1.9566846268039E-01  1.9567190584628E-01  1.9567589184362E-01  1.9568042068687E-01 
 4.3744444444444E-05  8.7488888888889E-05  8.7488888888889E-05  8.7488888888889E-05  8.7488888888889E-05  8.7488888888889E-05  8.7488888888889E-05  8.7488888888889E-05  8.7488888888889E-05  4.3744444444444E-05 
 8.6666666666659E+01  8.6666666666659E+01  8.6666666666659E+01  8.6666666666659E+01  8.6666666666659E+01  8.6666666666659E+01  8.6666666666659E+01  8.6666666666659E+01  8.6666666666659E+01  8.6666666666659E+01 
 2.1666666666675E+01  2.1666666666675E+01  2.1666666666675E+01  2.1666666666675E+01  2.1666666666675E+01  2.1666666666675E+01  2.1666666666675E+01  2.1666666666675E+01  2.1666666666675E+01  2.1666666666675E+01 
 3.6693837620412E-11  5.7274866582606E-11  1.2284210407710E-10  2.3722019959500E-10  4.0041042150729E-10  6.1241457945371E-10  8.7323502437857E-10  1.1828746485425E-09  1.5413368855342E-09  1.7327741202670E-09 
 1.8363442306469E-03  2.8663224116059E-03  6.1476366924191E-03  1.1871691792616E-02  2.0038551228415E-02  3.0648305622236E-02  4.3701072706640E-02  5.9196997321317E-02  7.7136251414998E-02  8.6716734020042E-02 
 5.9950137535182E-04  2.9975103013548E-03  1.0191560548777E-02  2.2181725648474E-02  3.8968132312660E-02  6.0550960438153E-02  8.6930443109924E-02  1.1810686660223E-01  1.5408057037973E-01  1.7326678809711E-01 
 3.0698823866894E-03  2.7299763569057E-03  2.0926498589331E-03  1.5402943110264E-03  1.0729098380690E-03  6.9049750721780E-04  3.9305932793344E-04  1.8059825202153E-04  5.3118173685009E-05  1.0623929587599E-05 
 0.0000000000000E+00  0.0000000000000E+00  0.0000000000000E+00  0.0000000000000E+00  0.0000000000000E+00  0.0000000000000E+00  0.0000000000000E+00  0.0000000000000E+00  0.0000000000000E+00  0.0000000000000E+00 
 0.0000000000000E+00  0.0000000000000E+00  0.0000000000000E+00  0.0000000000000E+00  0.0000000000000E+00  0.0000000000000E+00  0.0000000000000E+00  0.0000000000000E+00  0.0000000000000E+00  0.0000000000000E+00 
 0.0000000000000E+00  0.0000000000000E+00  0.0000000000000E+00  0.0000000000000E+00  0.0000000000000E+00  0.0000000000000E+00  0.0000000000000E+00  0.0000000000000E+00  0.0000000000000E+00  0.0000000000000E+00 
ZONE T = "ANOD, 3.0000E-08", I = 10, SOLUTIONTIME = 3.000000E-08
ZONETYPE = ORDERED
DATAPACKING = BLOCK
STRANDID = 1
 0.0000000000000E+00  8.7488888888889E-05  1.7497777777778E-04  2.6246666666667E-04  3.4995555555556E-04  4.3744444444444E-04  5.2493333333333E-04  6.1242222222222E-04  6.9991111111111E-04  7.8740000000000E-04 
 1.1593811872385E-09  3.4777825617426E-09  5.7965557823907E-09  8.1153440721421E-09  1.0434517069460E-08  1.2752991581965E-08  1.5071500456009E-08  1.7390050122594E-08  1.9708647012855E-08  2.0867790681622E-08 
 9.1999999999791E-01  9.1999999999791E-01  9.1999999999791E-01  9.1999999999791E-01  9.1999999999791E-01  9.1999999999791E-01  9.1999999999791E-01  9.1999999999791E-01  9.1999999999791E-01  9.1999999999914E-01 
 4.0000000001044E-02  4.0000000001044E-02  4.0000000001044E-02  4.0000000001044E-02  4.0000000001044E-02  4.0000000001044E-02  4.0000000001044E-02  4.0000000001044E-02  4.0000000001044E-02  4.0000000000432E-02 
 4.0000000001044E-02  4.0000000001044E-02  4.0000000001044E-02  4.0000000001044E-02  4.0000000001044E-02  4.0000000001044E-02  4.0000000001044E-02  4.0000000001044E-02  4.0000000001044E-02  4.0000000000432E-02 
 2.9167087937571E-02  2.9167072210108E-02  2.9167025027688E-02  2.9166946390195E-02  2.9166836297424E-02  2.9166694749084E-02  2.9166521744794E-02  2.9166317284090E-02  2.9166081366417E-02  2.9165813991135E-02 
 0.0000000000000E+00 -4.7372347014971E-09 -8.9171682245651E-09 -1.2539798492362E-08 -1.5605121881983E-08 -1.8113133224453E-08 -2.0063825804705E-08 -2.1457191361560E-08 -2.2293220087704E-08 -2.2571900629651E-08 
-2.9167087937571E-02 -2.9167076947342E-02 -2.9167033944856E-02 -2.9166958929994E-02 -2.9166851902546E-02 -2.9166712862217E-02 -2.9166541808620E-02 -2.9166338741281E-02 -2.9166103659637E-02 -2.9165836563035E-02 
-4.0906712751883E-02 -4.0906712751887E-02 -4.0906712751890E-02 -4.0906712751883E-02 -4.0906712751884E-02 -4.0906712751884E-02 -4.0906712751884E-02 -4.0906712751884E-02 -4.0906712751884E-02 -4.0906712752277E-02 
 1.1739624814312E-02  1.1739635804545E-02  1.1739678807033E-02  1.1739753821889E-02  1.1739860849337E-02  1.1739999889667E-02  1.1740170943264E-02  1.1740374010602E-02  1.1740609092247E-02  1.1740876189242E-02 
 1.6690900660827E+00  3.3381833114382E+00  3.3381957512720E+00  3.3382174517044E+00  3.3382484128088E+00  3.3382886346824E+00  3.3383381174534E+00  3.3383968612803E+00  3.3384648663505E+00  1.6692710664700E+00 
 8.6493879042347E-09  2.5948180193806E-08  4.3247036953037E-08  6.0546006156391E-08  7.7845135819123E-08  9.5144473911383E-08  1.1244406842864E-07  1.2974396738355E-07  1.4704443503753E-07  1.4704443503753E-07 
 0.0000000000000E+00  3.3381579989912E+00  6.6763238079574E+00  1.0014506687011E+01  1.3352715897184E+01  1.6690960699510E+01  2.0029250354285E+01  2.3367594123278E+01  2.6706001267413E+01  3.0044492907223E+01 
 3.0044492909526E+01  2.6706323049059E+01  2.3368157240286E+01  2.0029974361155E+01  1.6691765150930E+01  1.3353520348789E+01  1.0015230693797E+01  6.6768869248738E+00  3.3384797807693E+00  0.0000000000000E+00 
 5.0049914590710E-08  1.0009992452648E-07  1.0010029759199E-07  1.0010094837908E-07  1.0010187688990E-07  1.0010308312738E-07  1.0010456709537E-07  1.0010632879861E-07  1.0010836824273E-07  5.0055342717561E-08 
 9.1448444543331E+04  1.8289688908666E+05  1.8289688908666E+05  1.8289688908666E+05  1.8289688908666E+05  1.8289688908666E+05  1.8289688908666E+05  1.8289688908666E+05  1.8289688908666E+05  9.1448444543331E+04 
 3.6579377817307E+05  7.3158755634615E+05  7.3158755634615E+05  7.3158755634615E+05  7.3158755634615E+05  7.3158755634615E+05  7.3158755634615E+05  7.3158755634615E+05  7.3158755634615E+05  3.6579377817307E+05 
 4.5724222271641E+05  9.1448444543281E+05  9.1448444543281E+05  9.1448444543281E+05  9.1448444543281E+05  9.1448444543281E+05  9.1448444543281E+05  9.1448444543281E+05  9.1448444543281E+05  4.5724222271641E+05 
 3.5000000000000E-01  3.5000000000000E-01  3.5000000000000E-01  3.5000000000000E-01  3.5000000000000E-01  3.5000000000000E-01  3.5000000000000E-01  3.5000000000000E-01  3.5000000000000E-01  3.5000000000000E-01 
 8.5301666666666E+00  1.7060333333333E+01  1.7060333333333E+01  1.7060333333333E+01  1.7060333333333E+01  1.7060333333333E+01  1.7060333333333E+01  1.7060333333333E+01  1.7060333333333E+01  8.5301666666666E+00 
 1.9566910370052E-01  1.9566929005519E-01  1.9567001922229E-01  1.9567129120402E-01  1.9567310600469E-01  1.9567546363001E-01  1.9567836408746E-01  1.9568180738635E-01  1.9568579353767E-01  1.9569032255759E-01 
 4.3744444444444E-05  8.7488888888889E-05  8.7488888888889E-05  8.7488888888889E-05  8.7488888888889E-05  8.7488888888889E-05  8.7488888888889E-05  8.7488888888889E-05  8.7488888888889E-05  4.3744444444444E-05 
 8.6666666666655E+01  8.6666666666655E+01  8.6666666666655E+01  8.6666666666655E+01  8.6666666666655E+01  8.6666666666655E+01  8.6666666666655E+01  8.6666666666655E+01  8.6666666666655E+01  8.6666666666655E+01 
 2.1666666666678E+01  2.1666666666678E+01  2.1666666666678E+01  2.1666666666678E+01  2.1666666666678E+01  2.1666666666678E+01  2.1666666666679E+01  2.1666666666678E+01  2.1666666666678E+01  2.1666666666678E+01 
 5.5058604968253E-11  8.5940158918074E-11  1.8432290685062E-10  3.5594568356038E-10  6.0081039265845E-10  9.1891975010734E-10  1.3102772842578E-09  1.7748873359378E-09  2.3127550583965E-09  2.6000040322479E-09 
 1.8364767347842E-03  2.8665292335468E-03  6.1480802773518E-03  1.1872548396538E-02  2.0039997115116E-02  3.0650517065363E-02  4.3704225987925E-02  5.9201268739526E-02  7.7141817286233E-02  8.6722991198088E-02 
 8.9954365856081E-04  4.4977234320193E-03  1.5292297975289E-02  3.3283377642264E-02  5.8471152606679E-02  9.0855892863204E-02  1.3043794823108E-01  1.7721774836295E-01  2.3119580273919E-01  2.5998446216217E-01 
 4.6063168382645E-03  4.0962924597881E-03  3.1399927097732E-03  2.3111907137745E-03  1.6098866591663E-03  1.0360821475303E-03  5.8978019470108E-04  2.7098523082834E-04  7.9703100455188E-05  1.5941062613706E-05 
 0.0000000000000E+00  0.0000000000000E+00  0.0000000000000E+00  0.0000000000000E+00  0.0000000000000E+00  0.0000000000000E+00  0.0000000000000E+00  0.0000000000000E+00  0.0000000000000E+00  0.0000000000000E+00 
 0.0000000000000E+00  0.0000000000000E+00  0.0000000000000E+00  0.0000000000000E+00  0.0000000000000E+00  0.0000000000000E+00  0.0000000000000E+00  0.0000000000000E+00  0.0000000000000E+00  0.0000000000000E+00 
 0.0000000000000E+00  0.0000000000000E+00  0.0000000000000E+00  0.0000000000000E+00  0.0000000000000E+00  0.0000000000000E+00  0.0000000000000E+00  0.0000000000000E+00  0.0000000000000E+00  0.0000000000000E+00 
ZONE T = "ANOD, 4.0000E-08", I = 10, SOLUTIONTIME = 4.000000E-08
ZONETYPE = ORDERED
DATAPACKING = BLOCK
STRANDID = 1
 0.0000000000000E+00  8.7488888888889E-05  1.7497777777778E-04  2.6246666666667E-04  3.4995555555556E-04  4.3744444444444E-04  5.2493333333333E-04  6.1242222222222E-04  6.9991111111111E-04  7.8740000000000E-04 
 1.1588171601106E-09  3.4760904802729E-09  5.7937356463124E-09  8.1113958810088E-09  1.0428714407190E-08  1.2746060863207E-08  1.5064168095228E-08  1.7382316118623E-08  1.9700511364344E-08  2.0859635813951E-08 
 9.1999999999721E-01  9.1999999999721E-01  9.1999999999721E-01  9.1999999999721E-01  9.1999999999721E-01  9.1999999999721E-01  9.1999999999721E-01  9.1999999999721E-01  9.1999999999721E-01  9.1999999999885E-01 
 4.0000000001393E-02  4.0000000001393E-02  4.0000000001393E-02  4.0000000001393E-02  4.0000000001393E-02  4.0000000001393E-02  4.0000000001393E-02  4.0000000001393E-02  4.0000000001393E-02  4.0000000000576E-02 
 4.0000000001393E-02  4.0000000001393E-02  4.0000000001393E-02  4.0000000001393E-02  4.0000000001393E-02  4.0000000001393E-02  4.0000000001393E-02  4.0000000001393E-02  4.0000000001393E-02  4.0000000000576E-02 
 2.9167356261566E-02  2.9167340534364E-02  2.9167293352726E-02  2.9167214716537E-02  2.9167104625591E-02  2.9166963079598E-02  2.9166790078176E-02  2.9166585620862E-02  2.9166349707100E-02  2.9166082336251E-02 
 0.0000000000000E+00 -4.7371561598714E-09 -8.9170203809069E-09 -1.2539590586329E-08 -1.5604863153340E-08 -1.8112832913115E-08 -2.0063493150781E-08 -2.1456835605398E-08 -2.2292850469931E-08 -2.2571526391221E-08 
-2.9167356261566E-02 -2.9167345271520E-02 -2.9167302269747E-02 -2.9167227256128E-02 -2.9167120230455E-02 -2.9166981192430E-02 -2.9166810141670E-02 -2.9166607077697E-02 -2.9166371999951E-02 -2.9166104907777E-02 
-4.0906712751382E-02 -4.0906712751379E-02 -4.0906712751381E-02 -4.0906712751382E-02 -4.0906712751387E-02 -4.0906712751381E-02 -4.0906712751379E-02 -4.0906712751387E-02 -4.0906712751387E-02 -4.0906712751911E-02 
 1.1739356489817E-02  1.1739367479859E-02  1.1739410481634E-02  1.1739485495255E-02  1.1739592520932E-02  1.1739731558951E-02  1.1739902609709E-02  1.1740105673689E-02  1.1740340751436E-02  1.1740607844134E-02 
 1.6690512554379E+00  3.3381056900903E+00  3.3381181297030E+00  3.3381398297523E+00  3.3381707903082E+00  3.3382110114662E+00  3.3382604933584E+00  3.3383192361445E+00  3.3383872400074E+00  1.6692322526274E+00 