TITLE = "Solution on Domain BulkDomain1D_0"
VARIABLES = "x [m]"  
"Vel_axial" 
"MF_sp(ECDMC)" 
"MF_sp(Li+)" 
"MF_sp(PF6-)" 
"Volt(Electroly)" 
"Volt(AnodeVolt)" 
"Potential Drop Electrode-Electrolyte [V]" 
"Surf_0 Equilibrium Potential Drop Electrode-Electrolyte [V]" 
"Overpotential_0 [V]" 
"Current Source [A/m^2]" 
"Li+ flux [kmol/m^2/s]" 
"Electrolyte Current [A/m^2]" 
"Electrode Current [A/m^2]" 
"CV Capacity discharged [A-s/m^2]" 
"Depth of discharge in CV [A-s/m^2]" 
"CV Capacity remaining [A-s/m^2]" 
"Initial CV capacity [A-s/m^2]" 
"Porosity []" 
"Surface Area [m2/m2] (area per area)" 
"Specific current (per particle area) [A/m^2]" 
"Control volume thickness [m]" 
"MoleDens Li_C6-bulk [kmol/m^3]" 
"MoleDens V_C6-bulk [kmol/m^3]" 
"qHeat_accum [J/m3]" 
"qHeat_step [W/m3]" 
"Joule_Lyte [W/m3]" 
"Joule_Solid [W/m3]" 
"electrodHeat [W/m3]" 
"OverpotHeat [W/m3]" 
"deltaSHeat [W/m3]" 

ZONE T = "ANOD, 0.0000E+00", I = 10, SOLUTIONTIME = 0.000000E+00
ZONETYPE = ORDERED
DATAPACKING = BLOCK
STRANDID = 1
 0.0000000000000E+00  8.7488888888889E-05  1.7497777777778E-04  2.6246666666667E-04  3.4995555555556E-04  4.3744444444444E-04  5.2493333333333E-04  6.1242222222222E-04  6.9991111111111E-04  7.8740000000000E-04 
 0.0000000000000E+00  0.0000000000000E+00  0.0000000000000E+00  0.0000000000000E+00  0.0000000000000E+00  0.0000000000000E+00  0.0000000000000E+00  0.0000000000000E+00  0.0000000000000E+00  0.0000000000000E+00 
 9.2000000000000E-01  9.2000000000000E-01  9.2000000000000E-01  9.2000000000000E-01  9.2000000000000E-01  9.2000000000000E-01  9.2000000000000E-01  9.2000000000000E-01  9.2000000000000E-01  9.2000000000000E-01 
 4.0000000000000E-02  4.0000000000000E-02  4.0000000000000E-02  4.0000000000000E-02  4.0000000000000E-02  4.0000000000000E-02  4.0000000000000E-02  4.0000000000000E-02  4.0000000000000E-02  4.0000000000000E-02 
 4.0000000000000E-02  4.0000000000000E-02  4.0000000000000E-02  4.0000000000000E-02  4.0000000000000E-02  4.0000000000000E-02  4.0000000000000E-02  4.0000000000000E-02  4.0000000000000E-02  4.0000000000000E-02 
-7.0000000000000E-02 -7.0000000000000E-02 -7.0000000000000E-02 -7.0000000000000E-02 -7.0000000000000E-02 -7.0000000000000E-02 -7.0000000000000E-02 -7.0000000000000E-02 -7.0000000000000E-02 -7.0000000000000E-02 
 0.0000000000000E+00  0.0000000000000E+00  0.0000000000000E+00  0.0000000000000E+00  0.0000000000000E+00  0.0000000000000E+00  0.0000000000000E+00  0.0000000000000E+00  0.0000000000000E+00  0.0000000000000E+00 
 7.0000000000000E-02  7.0000000000000E-02  7.0000000000000E-02  7.0000000000000E-02  7.0000000000000E-02  7.0000000000000E-02  7.0000000000000E-02  7.0000000000000E-02  7.0000000000000E-02  7.0000000000000E-02 
-4.0906712753392E-02 -4.0906712753392E-02 -4.0906712753392E-02 -4.0906712753392E-02 -4.0906712753392E-02 -4.0906712753392E-02 -4.0906712753392E-02 -4.0906712753392E-02 -4.0906712753392E-02 -4.0906712753392E-02 
 1.1090671275339E-01  1.1090671275339E-01  1.1090671275339E-01  1.1090671275339E-01  1.1090671275339E-01  1.1090671275339E-01  1.1090671275339E-01  1.1090671275339E-01  1.1090671275339E-01  1.1090671275339E-01 
 3.0930240924008E+01  6.1860481848017E+01  6.1860481848017E+01  6.1860481848017E+01  6.1860481848016E+01  6.1860481848017E+01  6.1860481848017E+01  6.1860481848016E+01  6.1860481848016E+01  3.0930240924008E+01 
-0.0000000000000E+00 -0.0000000000000E+00 -0.0000000000000E+00 -0.0000000000000E+00 -0.0000000000000E+00 -0.0000000000000E+00 -0.0000000000000E+00 -0.0000000000000E+00 -0.0000000000000E+00 -0.0000000000000E+00 
 0.0000000000000E+00  0.0000000000000E+00  0.0000000000000E+00  0.0000000000000E+00  0.0000000000000E+00  0.0000000000000E+00  0.0000000000000E+00  0.0000000000000E+00  0.0000000000000E+00  3.0930240924008E+01 
 3.0930240924008E+01 -0.0000000000000E+00 -0.0000000000000E+00 -0.0000000000000E+00 -0.0000000000000E+00 -0.0000000000000E+00 -0.0000000000000E+00 -0.0000000000000E+00 -0.0000000000000E+00  0.0000000000000E+00 
 0.0000000000000E+00  0.0000000000000E+00  0.0000000000000E+00  0.0000000000000E+00  0.0000000000000E+00  0.0000000000000E+00  0.0000000000000E+00  0.0000000000000E+00  0.0000000000000E+00  0.0000000000000E+00 
 9.1448444543281E+04  1.8289688908656E+05  1.8289688908656E+05  1.8289688908656E+05  1.8289688908656E+05  1.8289688908656E+05  1.8289688908656E+05  1.8289688908656E+05  1.8289688908656E+05  9.1448444543281E+04 
 3.6579377817312E+05  7.3158755634625E+05  7.3158755634625E+05  7.3158755634625E+05  7.3158755634625E+05  7.3158755634625E+05  7.3158755634625E+05  7.3158755634625E+05  7.3158755634625E+05  3.6579377817312E+05 
 4.5724222271640E+05  9.1448444543281E+05  9.1448444543281E+05  9.1448444543281E+05  9.1448444543281E+05  9.1448444543281E+05  9.1448444543281E+05  9.1448444543281E+05  9.1448444543281E+05  4.5724222271640E+05 
 3.5000000000000E-01  3.5000000000000E-01  3.5000000000000E-01  3.5000000000000E-01  3.5000000000000E-01  3.5000000000000E-01  3.5000000000000E-01  3.5000000000000E-01  3.5000000000000E-01  3.5000000000000E-01 
 8.5301666666666E+00  1.7060333333333E+01  1.7060333333333E+01  1.7060333333333E+01  1.7060333333333E+01  1.7060333333333E+01  1.7060333333333E+01  1.7060333333333E+01  1.7060333333333E+01  8.5301666666666E+00 
 3.6259831879809E+00  3.6259831879809E+00  3.6259831879809E+00  3.6259831879809E+00  3.6259831879809E+00  3.6259831879809E+00  3.6259831879809E+00  3.6259831879809E+00  3.6259831879809E+00  3.6259831879809E+00 
 4.3744444444444E-05  8.7488888888889E-05  8.7488888888889E-05  8.7488888888889E-05  8.7488888888889E-05  8.7488888888889E-05  8.7488888888889E-05  8.7488888888889E-05  8.7488888888889E-05  4.3744444444444E-05 
 8.6666666666666E+01  8.6666666666666E+01  8.6666666666666E+01  8.6666666666666E+01  8.6666666666666E+01  8.6666666666666E+01  8.6666666666666E+01  8.6666666666666E+01  8.6666666666666E+01  8.6666666666666E+01 
 2.1666666666667E+01  2.1666666666667E+01  2.1666666666667E+01  2.1666666666667E+01  2.1666666666667E+01  2.1666666666667E+01  2.1666666666667E+01  2.1666666666667E+01  2.1666666666667E+01  2.1666666666667E+01 
 0.0000000000000E+00  0.0000000000000E+00  0.0000000000000E+00  0.0000000000000E+00  0.0000000000000E+00  0.0000000000000E+00  0.0000000000000E+00  0.0000000000000E+00  0.0000000000000E+00  0.0000000000000E+00 
 0.0000000000000E+00  0.0000000000000E+00  0.0000000000000E+00  0.0000000000000E+00  0.0000000000000E+00  0.0000000000000E+00  0.0000000000000E+00  0.0000000000000E+00  0.0000000000000E+00  0.0000000000000E+00 
 0.0000000000000E+00  0.0000000000000E+00  0.0000000000000E+00  0.0000000000000E+00  0.0000000000000E+00  0.0000000000000E+00  0.0000000000000E+00  0.0000000000000E+00  0.0000000000000E+00  0.0000000000000E+00 
 0.0000000000000E+00  0.0000000000000E+00  0.0000000000000E+00  0.0000000000000E+00  0.0000000000000E+00  0.0000000000000E+00  0.0000000000000E+00  0.0000000000000E+00  0.0000000000000E+00  0.0000000000000E+00 
 0.0000000000000E+00  0.0000000000000E+00  0.0000000000000E+00  0.0000000000000E+00  0.0000000000000E+00  0.0000000000000E+00  0.0000000000000E+00  0.0000000000000E+00  0.0000000000000E+00  0.0000000000000E+00 
 0.0000000000000E+00  0.0000000000000E+00  0.0000000000000E+00  0.0000000000000E+00  0.0000000000000E+00  0.0000000000000E+00  0.0000000000000E+00  0.0000000000000E+00  0.0000000000000E+00  0.0000000000000E+00 
 0.0000000000000E+00  0.0000000000000E+00  0.0000000000000E+00  0.0000000000000E+00  0.0000000000000E+00  0.0000000000000E+00  0.0000000000000E+00  0.0000000000000E+00  0.0000000000000E+00  0.0000000000000E+00 
ZONE T = "ANOD, 1.0000E-08", I = 10, SOLUTIONTIME = 1.000000E-08
ZONETYPE = ORDERED
DATAPACKING = BLOCK
STRANDID = 1
 0.0000000000000E+00  8.7488888888889E-05  1.7497777777778E-04  2.6246666666667E-04  3.4995555555556E-04  4.3744444444444E-04  5.2493333333333E-04  6.1242222222222E-04  6.9991111111111E-04  7.8740000000000E-04 
 1.1586228920656E-09  3.4762340914342E-09  5.7934907213348E-09  8.1107624194960E-09  1.0428418824725E-08  1.2746103160045E-08  1.5063821855454E-08  1.7381581342806E-08  1.9699388052328E-08  2.0857955025920E-08 
 9.1999999999930E-01  9.1999999999930E-01  9.1999999999930E-01  9.1999999999930E-01  9.1999999999930E-01  9.1999999999930E-01  9.1999999999930E-01  9.1999999999930E-01  9.1999999999930E-01  9.1999999999967E-01 
 4.0000000000348E-02  4.0000000000348E-02  4.0000000000348E-02  4.0000000000348E-02  4.0000000000348E-02  4.0000000000348E-02  4.0000000000348E-02  4.0000000000348E-02  4.0000000000348E-02  4.0000000000167E-02 
 4.0000000000348E-02  4.0000000000348E-02  4.0000000000348E-02  4.0000000000348E-02  4.0000000000348E-02  4.0000000000348E-02  4.0000000000348E-02  4.0000000000348E-02  4.0000000000348E-02  4.0000000000167E-02 
 2.9167411314799E-02  2.9167395587768E-02  2.9167348406646E-02  2.9167269771316E-02  2.9167159681574E-02  2.9167018137126E-02  2.9166845137596E-02  2.9166640682515E-02  2.9166404771331E-02  2.9166137403403E-02 
 0.0000000000000E+00 -4.7371043989477E-09 -8.9169229485593E-09 -1.2539453572064E-08 -1.5604692646762E-08 -1.8112635003762E-08 -2.0063273928130E-08 -2.1456601159037E-08 -2.2292606889310E-08 -2.2571279765828E-08 
-2.9167411314799E-02 -2.9167400324872E-02 -2.9167357323569E-02 -2.9167282310770E-02 -2.9167175286266E-02 -2.9167036249761E-02 -2.9166865200870E-02 -2.9166662139116E-02 -2.9166427063938E-02 -2.9166159974683E-02 
-4.0906712752891E-02 -4.0906712752891E-02 -4.0906712752891E-02 -4.0906712752891E-02 -4.0906712752891E-02 -4.0906712752891E-02 -4.0906712752891E-02 -4.0906712752891E-02 -4.0906712752891E-02 -4.0906712753007E-02 
 1.1739301438093E-02  1.1739312428019E-02  1.1739355429322E-02  1.1739430442121E-02  1.1739537466625E-02  1.1739676503130E-02  1.1739847552021E-02  1.1740050613775E-02  1.1740285688953E-02  1.1740552778324E-02 
 1.6690432926825E+00  3.3380897645449E+00  3.3381022040182E+00  3.3381239038247E+00  3.3381548640337E+00  3.3381950847441E+00  3.3382445660842E+00  3.3383033082122E+00  3.3383713113157E+00  1.6692242878060E+00 
 8.6491499969355E-09  2.5947466464457E-08  4.3245847401450E-08  6.0544340782573E-08  7.7842994612494E-08  9.5141856866904E-08  1.1244097554789E-07  1.2974039864519E-07  1.4704023809459E-07  1.4704023809459E-07 
 0.0000000000000E+00  3.3380661798577E+00  6.6761401693221E+00  1.0014231228137E+01  1.3352348617336E+01  1.6690501597767E+01  2.0028699429358E+01  2.3366951373695E+01  2.6705266691593E+01  3.0043665639199E+01 
 3.0043665641267E+01  2.6705588463809E+01  2.3367514474470E+01  2.0029423415596E+01  1.6691306026493E+01  1.3353153046128E+01  1.0014955214354E+01  6.6767032701234E+00  3.3383879522237E+00  0.0000000000000E+00 
 1.6690432926825E-08  3.3380897645449E-08  3.3381022040182E-08  3.3381239038247E-08  3.3381548640337E-08  3.3381950847441E-08  3.3382445660842E-08  3.3383033082122E-08  3.3383713113157E-08  1.6692242878060E-08 
 9.1448444543298E+04  1.8289688908660E+05  1.8289688908660E+05  1.8289688908660E+05  1.8289688908660E+05  1.8289688908660E+05  1.8289688908660E+05  1.8289688908660E+05  1.8289688908660E+05  9.1448444543298E+04 
 3.6579377817311E+05  7.3158755634621E+05  7.3158755634621E+05  7.3158755634621E+05  7.3158755634621E+05  7.3158755634622E+05  7.3158755634622E+05  7.3158755634621E+05  7.3158755634621E+05  3.6579377817311E+05 
 4.5724222271641E+05  9.1448444543281E+05  9.1448444543281E+05  9.1448444543281E+05  9.1448444543281E+05  9.1448444543281E+05  9.1448444543281E+05  9.1448444543281E+05  9.1448444543281E+05  4.5724222271640E+05 
 3.5000000000000E-01  3.5000000000000E-01  3.5000000000000E-01  3.5000000000000E-01  3.5000000000000E-01  3.5000000000000E-01  3.5000000000000E-01  3.5000000000000E-01  3.5000000000000E-01  3.5000000000000E-01 
 8.5301666666666E+00  1.7060333333333E+01  1.7060333333333E+01  1.7060333333333E+01  1.7060333333333E+01  1.7060333333333E+01  1.7060333333333E+01  1.7060333333333E+01  1.7060333333333E+01  8.5301666666666E+00 
 1.9566362040787E-01  1.9566380675709E-01  1.9566453590306E-01  1.9566580784811E-01  1.9566762259630E-01  1.9566998015342E-01  1.9567288052701E-01  1.9567632372632E-01  1.9568030976236E-01  1.9568483864786E-01 
 4.3744444444444E-05  8.7488888888889E-05  8.7488888888889E-05  8.7488888888889E-05  8.7488888888889E-05  8.7488888888889E-05  8.7488888888889E-05  8.7488888888889E-05  8.7488888888889E-05  4.3744444444444E-05 
 8.6666666666663E+01  8.6666666666663E+01  8.6666666666663E+01  8.6666666666663E+01  8.6666666666663E+01  8.6666666666663E+01  8.6666666666663E+01  8.6666666666663E+01  8.6666666666663E+01  8.6666666666663E+01 
 2.1666666666671E+01  2.1666666666671E+01  2.1666666666671E+01  2.1666666666671E+01  2.1666666666671E+01  2.1666666666671E+01  2.1666666666671E+01  2.1666666666671E+01  2.1666666666671E+01  2.1666666666671E+01 
 1.8363757078447E-11  2.8663715423451E-11  6.1477420642369E-11  1.1871895273270E-10  2.0038894690096E-10  3.0648830942135E-10  4.3701821763222E-10  5.9198012002410E-10  7.7137573616903E-10  8.6718220456441E-10 
 1.8363757078447E-03  2.8663715423451E-03  6.1477420642369E-03  1.1871895273270E-02  2.0038894690096E-02  3.0648830942135E-02  4.3701821763222E-02  5.9198012002410E-02  7.7137573616903E-02  8.6718220456441E-02 
 3.0002577755048E-04  1.5001306023248E-03  5.1004568291434E-03  1.1101041278576E-02  1.9501947408809E-02  3.0303265312900E-02  4.3505111718335E-02  5.9107629995910E-02  7.7110990152608E-02  8.6712903615919E-02 
 1.5363499302942E-03  1.3662409400203E-03  1.0472852350935E-03  7.7085399469391E-04  5.3694728128667E-04  3.4556562923496E-04  1.9671004488691E-04  9.0382006499657E-05  2.6583464295809E-05  5.3168405223704E-06 
 0.0000000000000E+00  0.0000000000000E+00  0.0000000000000E+00  0.0000000000000E+00  0.0000000000000E+00  0.0000000000000E+00  0.0000000000000E+00  0.0000000000000E+00  0.0000000000000E+00  0.0000000000000E+00 
 0.0000000000000E+00  0.0000000000000E+00  0.0000000000000E+00  0.0000000000000E+00  0.0000000000000E+00  0.0000000000000E+00  0.0000000000000E+00  0.0000000000000E+00  0.0000000000000E+00  0.0000000000000E+00 
 0.0000000000000E+00  0.0000000000000E+00  0.0000000000000E+00  0.0000000000000E+00  0.0000000000000E+00  0.0000000000000E+00  0.0000000000000E+00  0.0000000000000E+00  0.0000000000000E+00  0.0000000000000E+00 
ZONE T = "ANOD, 2.0000E-08", I = 10, SOLUTIONTIME = 2.000000E-08
ZONETYPE = ORDERED
DATAPACKING = BLOCK
STRANDID = 1
 0.0000000000000E+00  8.7488888888889E-05  1.7497777777778E-04  2.6246666666667E-04  3.4995555555556E-04  4.3744444444444E-04  5.2493333333333E-04  6.1242222222222E-04  6.9991111111111E-04  7.8740000000000E-04 
 1.1589934535689E-09  3.4769825683630E-09  5.7949803212564E-09  8.1129931427218E-09  1.0431027463280E-08  1.2749089713519E-08  1.5066459908661E-08  1.7384234102677E-08  1.9702055518759E-08  2.0861174657239E-08 
 9.1999999999861E-01  9.1999999999861E-01  9.1999999999861E-01  9.1999999999861E-01  9.1999999999861E-01  9.1999999999861E-01  9.1999999999861E-01  9.1999999999861E-01  9.1999999999861E-01  9.1999999999933E-01 
 4.0000000000696E-02  4.0000000000696E-02  4.0000000000696E-02  4.0000000000696E-02  4.0000000000696E-02  4.0000000000696E-02  4.0000000000696E-02  4.0000000000696E-02  4.0000000000696E-02  4.0000000000334E-02 
 4.0000000000696E-02  4.0000000000696E-02  4.0000000000696E-02  4.0000000000696E-02  4.0000000000696E-02  4.0000000000696E-02  4.0000000000696E-02  4.0000000000696E-02  4.0000000000696E-02  4.0000000000334E-02 
 2.9167414130180E-02  2.9167398403050E-02  2.9167351221629E-02  2.9167272585800E-02  2.9167162495359E-02  2.9167020950013E-02  2.9166847949385E-02  2.9166643493007E-02  2.9166407580327E-02  2.9166140210702E-02 
 0.0000000000000E+00 -4.7371344545546E-09 -8.9169795237246E-09 -1.2539533130744E-08 -1.5604791652837E-08 -1.8112749921206E-08 -2.0063401221016E-08 -2.1456737291373E-08 -2.2292748325296E-08 -2.2571422969688E-08 
-2.9167414130180E-02 -2.9167403140184E-02 -2.9167360138609E-02 -2.9167285125333E-02 -2.9167178100150E-02 -2.9167039062763E-02 -2.9166868012786E-02 -2.9166664949745E-02 -2.9166429873075E-02 -2.9166162782125E-02 
-4.0906712752384E-02 -4.0906712752389E-02 -4.0906712752384E-02 -4.0906712752384E-02 -4.0906712752388E-02 -4.0906712752386E-02 -4.0906712752386E-02 -4.0906712752388E-02 -4.0906712752388E-02 -4.0906712752620E-02 
 1.1739298622204E-02  1.1739309612204E-02  1.1739352613776E-02  1.1739427627051E-02  1.1739534652237E-02  1.1739673689623E-02  1.1739844739600E-02  1.1740047802643E-02  1.1740282879313E-02  1.1740549970495E-02 
 1.6690428854034E+00  3.3380889500079E+00  3.3381013895589E+00  3.3381230895028E+00  3.3381540499086E+00  3.3381942708732E+00  3.3382437525268E+00  3.3383024950273E+00  3.3383704985614E+00  1.6692238816865E+00 
 8.6492048778989E-09  2.5947631101276E-08  4.3246121800543E-08  6.0544724945501E-08  7.7843488531624E-08  9.5142460543798E-08  1.1244168898099E-07  1.2974122183067E-07  1.4704123498146E-07  1.4704123498146E-07 
 0.0000000000000E+00  3.3380873603224E+00  6.6761825300674E+00  1.0014294769716E+01  1.3352433339379E+01  1.6690607499906E+01  2.0028826511594E+01  2.3367099635291E+01  2.6705436132149E+01  3.0043845263099E+01 
 3.0043845263057E+01  2.6705757902650E+01  2.3367662732866E+01  2.0029550493335E+01  1.6691411923630E+01  1.3353237763239E+01  1.0015018751539E+01  6.6767456277615E+00  3.3384091309672E+00  0.0000000000000E+00 
 3.3380861780859E-08  6.6761787145528E-08  6.6762035935772E-08  6.6762469933275E-08  6.6763089139424E-08  6.6763893556173E-08  6.6764883186110E-08  6.6766058032395E-08  6.6767418098771E-08  3.3384481694925E-08 
 9.1448444543314E+04  1.8289688908663E+05  1.8289688908663E+05  1.8289688908663E+05  1.8289688908663E+05  1.8289688908663E+05  1.8289688908663E+05  1.8289688908663E+05  1.8289688908663E+05  9.1448444543314E+04 
 3.6579377817309E+05  7.3158755634618E+05  7.3158755634618E+05  7.3158755634618E+05  7.3158755634618E+05  7.3158755634618E+05  7.3158755634618E+05  7.3158755634618E+05  7.3158755634618E+05  3.6579377817309E+05 
 4.5724222271641E+05  9.1448444543281E+05  9.1448444543281E+05  9.1448444543281E+05  9.1448444543281E+05  9.1448444543281E+05  9.1448444543281E+05  9.1448444543281E+05  9.1448444543281E+05  4.5724222271641E+05 
 3.5000000000000E-01  3.5000000000000E-01  3.5000000000000E-01  3.5000000000000E-01  3.5000000000000E-01  3.5000000000000E-01  3.5000000000000E-01  3.5000000000000E-01  3.5000000000000E-01  3.5000000000000E-01 
 8.5301666666666E+00  1.7060333333333E+01  1.7060333333333E+01  1.7060333333333E+01  1.7060333333333E+01  1.7060333333333E+01  1.7060333333333E+01  1.7060333333333E+01  1.7060333333333E+01  8.5301666666666E+00 
 1.9566357266213E-01  1.9566375901260E-01  1.9566448816312E-01  1.9566576011622E-01  1.9566757487595E-01  1.9566993244797E-01  1.9567283283993E-01  1.9567627606107E-01  1.9568026212235E-01  1.9568479103806E-01 
 4.3744444444444E-05  8.7488888888889E-05  8.7488888888889E-05  8.7488888888889E-05  8.7488888888889E-05  8.7488888888889E-05  8.7488888888889E-05  8.7488888888889E-05  8.7488888888889E-05  4.3744444444444E-05 
 8.6666666666659E+01  8.6666666666659E+01  8.6666666666659E+01  8.6666666666659E+01  8.6666666666659E+01  8.6666666666659E+01  8.6666666666659E+01  8.6666666666659E+01  8.6666666666659E+01  8.6666666666659E+01 
 2.1666666666675E+01  2.1666666666675E+01  2.1666666666675E+01  2.1666666666675E+01  2.1666666666675E+01  2.1666666666675E+01  2.1666666666675E+01  2.1666666666675E+01  2.1666666666675E+01  2.1666666666675E+01 
 3.6727747186580E-11  5.7327794585440E-11  1.2295562143745E-10  2.3743941203524E-10  4.0078043677686E-10  6.1298050821677E-10  8.7404198104008E-10  1.1839677522026E-09  1.5427612608649E-09  1.7343754133451E-09 
 1.8363990108133E-03  2.8664079161989E-03  6.1478200795078E-03  1.1872045930253E-02  2.0039148987590E-02  3.0649219879542E-02  4.3702376340786E-02  5.9198763217848E-02  7.7138552469583E-02  8.6719320878064E-02 
 6.0005536258370E-04  3.0002802416770E-03  1.0200978384221E-02  2.2202223432650E-02  3.9004142301817E-02  6.0606915178409E-02  8.7010775518274E-02  1.1821601006047E-01  1.5422295882060E-01  1.7342690758600E-01 
 3.0727193560743E-03  2.7324992168669E-03  2.0945837595232E-03  1.5417177708737E-03  1.0739013758695E-03  6.9113564326793E-04  3.9342258573479E-04  1.8076515978888E-04  5.3167265884870E-05  1.0633748504038E-05 
 0.0000000000000E+00  0.0000000000000E+00  0.0000000000000E+00  0.0000000000000E+00  0.0000000000000E+00  0.0000000000000E+00  0.0000000000000E+00  0.0000000000000E+00  0.0000000000000E+00  0.0000000000000E+00 
 0.0000000000000E+00  0.0000000000000E+00  0.0000000000000E+00  0.0000000000000E+00  0.0000000000000E+00  0.0000000000000E+00  0.0000000000000E+00  0.0000000000000E+00  0.0000000000000E+00  0.0000000000000E+00 
 0.0000000000000E+00  0.0000000000000E+00  0.0000000000000E+00  0.0000000000000E+00  0.0000000000000E+00  0.0000000000000E+00  0.0000000000000E+00  0.0000000000000E+00  0.0000000000000E+00  0.0000000000000E+00 
ZONE T = "ANOD, 3.0000E-08", I = 10, SOLUTIONTIME = 3.000000E-08
ZONETYPE = ORDERED
DATAPACKING = BLOCK
STRANDID = 1
 0.0000000000000E+00  8.7488888888889E-05  1.7497777777778E-04  2.6246666666667E-04  3.4995555555556E-04  4.3744444444444E-04  5.2493333333333E-04  6.1242222222222E-04  6.9991111111111E-04  7.8740000000000E-04 
 1.1589934535491E-09  3.4769825683021E-09  5.7949803211558E-09  8.1129931425816E-09  1.0431027463099E-08  1.2749089713299E-08  1.5067912739312E-08  1.7386776556472E-08  1.9705324387968E-08  2.0864443526437E-08 
 9.1999999999791E-01  9.1999999999791E-01  9.1999999999791E-01  9.1999999999791E-01  9.1999999999791E-01  9.1999999999791E-01  9.1999999999791E-01  9.1999999999791E-01  9.1999999999791E-01  9.1999999999900E-01 
 4.0000000001045E-02  4.0000000001045E-02  4.0000000001045E-02  4.0000000001045E-02  4.0000000001045E-02  4.0000000001045E-02  4.0000000001045E-02  4.0000000001045E-02  4.0000000001045E-02  4.0000000000502E-02 
 4.0000000001045E-02  4.0000000001045E-02  4.0000000001045E-02  4.0000000001045E-02  4.0000000001045E-02  4.0000000001045E-02  4.0000000001045E-02  4.0000000001045E-02  4.0000000001045E-02  4.0000000000502E-02 
 2.9167414129966E-02  2.9167398402835E-02  2.9167351221414E-02  2.9167272585586E-02  2.9167162495144E-02  2.9167020949799E-02  2.9166847949171E-02  2.9166643492793E-02  2.9166407580112E-02  2.9166140210488E-02 
 0.0000000000000E+00 -4.7371344544748E-09 -8.9169795235748E-09 -1.2539533130534E-08 -1.5604791652576E-08 -1.8112749920904E-08 -2.0063401220682E-08 -2.1456737291016E-08 -2.2292748324927E-08 -2.2571422969317E-08 
-2.9167414129966E-02 -2.9167403139970E-02 -2.9167360138394E-02 -2.9167285125119E-02 -2.9167178099936E-02 -2.9167039062549E-02 -2.9166868012572E-02 -2.9166664949530E-02 -2.9166429872860E-02 -2.9166162781911E-02 
-4.0906712751886E-02 -4.0906712751881E-02 -4.0906712751885E-02 -4.0906712751885E-02 -4.0906712751882E-02 -4.0906712751888E-02 -4.0906712751888E-02 -4.0906712751882E-02 -4.0906712751882E-02 -4.0906712752231E-02 
 1.1739298621920E-02  1.1739309611911E-02  1.1739352613491E-02  1.1739427626767E-02  1.1739534651947E-02  1.1739673689339E-02  1.1739844739316E-02  1.1740047802352E-02  1.1740282879022E-02  1.1740549970320E-02 
 1.6690428853749E+00  3.3380889499487E+00  3.3381013895019E+00  3.3381230894458E+00  3.3381540498502E+00  3.3381942708166E+00  3.3382437524701E+00  3.3383024949688E+00  3.3383704985029E+00  1.6692238816703E+00 
 8.6492048757191E-09  2.5947631101502E-08  4.3246121799011E-08  6.0544724946028E-08  7.7843488525884E-08  9.5142460540810E-08  1.1244168897590E-07  1.2974122182416E-07  1.4704129892915E-07  1.4704129892915E-07 
 0.0000000000000E+00  3.3380873603514E+00  6.6761825299414E+00  1.0014294769619E+01  1.3352433339311E+01  1.6690607499499E+01  2.0028826511032E+01  2.3367099634758E+01  2.6705436131797E+01  3.0043845262897E+01 
 3.0043845262550E+01  2.6705757902201E+01  2.3367662732476E+01  2.0029550493002E+01  1.6691411923354E+01  1.3353237763020E+01  1.0015018751377E+01  6.6767456276576E+00  3.3384091309218E+00  0.0000000000000E+00 
 5.0071290634608E-08  1.0014267664502E-07  1.0014304983079E-07  1.0014370082773E-07  1.0014462963793E-07  1.0014583626434E-07  1.0014732071081E-07  1.0014908298208E-07  1.0015112308380E-07  5.0076720511628E-08 
 9.1448444543331E+04  1.8289688908666E+05  1.8289688908666E+05  1.8289688908666E+05  1.8289688908666E+05  1.8289688908666E+05  1.8289688908666E+05  1.8289688908666E+05  1.8289688908666E+05  9.1448444543331E+04 
 3.6579377817307E+05  7.3158755634615E+05  7.3158755634615E+05  7.3158755634615E+05  7.3158755634615E+05  7.3158755634615E+05  7.3158755634615E+05  7.3158755634615E+05  7.3158755634615E+05  3.6579377817307E+05 
 4.5724222271641E+05  9.1448444543281E+05  9.1448444543281E+05  9.1448444543281E+05  9.1448444543281E+05  9.1448444543281E+05  9.1448444543281E+05  9.1448444543281E+05  9.1448444543281E+05  4.5724222271641E+05 
 3.5000000000000E-01  3.5000000000000E-01  3.5000000000000E-01  3.5000000000000E-01  3.5000000000000E-01  3.5000000000000E-01  3.5000000000000E-01  3.5000000000000E-01  3.5000000000000E-01  3.5000000000000E-01 
 8.5301666666666E+00  1.7060333333333E+01  1.7060333333333E+01  1.7060333333333E+01  1.7060333333333E+01  1.7060333333333E+01  1.7060333333333E+01  1.7060333333333E+01  1.7060333333333E+01  8.5301666666666E+00 
 1.9566357265879E-01  1.9566375900913E-01  1.9566448815978E-01  1.9566576011288E-01  1.9566757487252E-01  1.9566993244465E-01  1.9567283283660E-01  1.9567627605765E-01  1.9568026211893E-01  1.9568479103616E-01 
 4.3744444444444E-05  8.7488888888889E-05  8.7488888888889E-05  8.7488888888889E-05  8.7488888888889E-05  8.7488888888889E-05  8.7488888888889E-05  8.7488888888889E-05  8.7488888888889E-05  4.3744444444444E-05 
 8.6666666666655E+01  8.6666666666655E+01  8.6666666666655E+01  8.6666666666655E+01  8.6666666666655E+01  8.6666666666655E+01  8.6666666666655E+01  8.6666666666655E+01  8.6666666666655E+01  8.6666666666655E+01 
 2.1666666666679E+01  2.1666666666679E+01  2.1666666666679E+01  2.1666666666679E+01  2.1666666666679E+01  2.1666666666679E+01  2.1666666666679E+01  2.1666666666679E+01  2.1666666666679E+01  2.1666666666679E+01 
 5.5091737294221E-11  8.5991873747101E-11  1.8443382222931E-10  3.5615987133517E-10  6.0117192664833E-10  9.1947270699420E-10  1.3110657444199E-09  1.7759553843491E-09  2.3141467855353E-09  2.6015686221088E-09 
 1.8363990107641E-03  2.8664079161661E-03  6.1478200791863E-03  1.1872045929993E-02  2.0039148987147E-02  3.0649219877743E-02  4.3702376337982E-02  5.9198763214653E-02  7.7138552467044E-02  8.6719320876372E-02 
 9.0008494761953E-04  4.5004298810423E-03  1.5301499939013E-02  3.3303405586489E-02  5.8506337194399E-02  9.0910565042130E-02  1.3051643931541E-01  1.7732439012184E-01  2.3133492748606E-01  2.6014091155439E-01 
 4.6090887818026E-03  4.0987574936677E-03  3.1418822839179E-03  2.3125815470278E-03  1.6108554704346E-03  1.0367056572896E-03  5.9013512657632E-04  2.7114831307526E-04  7.9751067473166E-05  1.5950656485603E-05 
 0.0000000000000E+00  0.0000000000000E+00  0.0000000000000E+00  0.0000000000000E+00  0.0000000000000E+00  0.0000000000000E+00  0.0000000000000E+00  0.0000000000000E+00  0.0000000000000E+00  0.0000000000000E+00 
 0.0000000000000E+00  0.0000000000000E+00  0.0000000000000E+00  0.0000000000000E+00  0.0000000000000E+00  0.0000000000000E+00  0.0000000000000E+00  0.0000000000000E+00  0.0000000000000E+00  0.0000000000000E+00 
 0.0000000000000E+00  0.0000000000000E+00  0.0000000000000E+00  0.0000000000000E+00  0.0000000000000E+00  0.0000000000000E+00  0.0000000000000E+00  0.0000000000000E+00  0.0000000000000E+00  0.0000000000000E+00 
ZONE T = "ANOD, 4.0000E-08", I = 10, SOLUTIONTIME = 4.000000E-08
ZONETYPE = ORDERED
DATAPACKING = BLOCK
STRANDID = 1
 0.0000000000000E+00  8.7488888888889E-05  1.7497777777778E-04  2.6246666666667E-04  3.4995555555556E-04  4.3744444444444E-04  5.2493333333333E-04  6.1242222222222E-04  6.9991111111111E-04  7.8740000000000E-04 
 1.1593566612565E-09  3.4777089836981E-09  5.7953435287833E-09  8.1140827656240E-09  1.0432480293830E-08  1.2749816128533E-08  1.5066823115867E-08  1.7384960517531E-08  1.9703508348988E-08  2.0861537864263E-08 
 9.1999999999721E-01  9.1999999999721E-01  9.1999999999721E-01  9.1999999999721E-01  9.1999999999721E-01  9.1999999999721E-01  9.1999999999721E-01  9.1999999999721E-01  9.1999999999721E-01  9.1999999999866E-01 
 4.0000000001393E-02  4.0000000001393E-02  4.0000000001393E-02  4.0000000001393E-02  4.0000000001393E-02  4.0000000001393E-02  4.0000000001393E-02  4.0000000001393E-02  4.0000000001393E-02  4.0000000000669E-02 
 4.0000000001393E-02  4.0000000001393E-02  4.0000000001393E-02  4.0000000001393E-02  4.0000000001393E-02  4.0000000001393E-02  4.0000000001393E-02  4.0000000001393E-02  4.0000000001393E-02  4.0000000000669E-02 
 2.9167414129751E-02  2.9167398402620E-02  2.9167351221199E-02  2.9167272585370E-02  2.9167162494929E-02  2.9167020949584E-02  2.9166847948955E-02  2.9166643492577E-02  2.9166407579897E-02  2.9166140210273E-02 
 0.0000000000000E+00 -4.7371344543950E-09 -8.9169795234248E-09 -1.2539533130323E-08 -1.5604791652315E-08 -1.8112749920601E-08 -2.0063401220348E-08 -2.1456737290661E-08 -2.2292748324559E-08 -2.2571422968947E-08 
-2.9167414129751E-02 -2.9167403139755E-02 -2.9167360138179E-02 -2.9167285124903E-02 -2.9167178099721E-02 -2.9167039062334E-02 -2.9166868012356E-02 -2.9166664949315E-02 -2.9166429872645E-02 -2.9166162781696E-02 
-4.0906712751379E-02 -4.0906712751383E-02 -4.0906712751379E-02 -4.0906712751379E-02 -4.0906712751383E-02 -4.0906712751380E-02 -4.0906712751380E-02 -4.0906712751383E-02 -4.0906712751383E-02 -4.0906712751848E-02 
 1.1739298621628E-02  1.1739309611629E-02  1.1739352613200E-02  1.1739427626475E-02  1.1739534651663E-02  1.1739673689047E-02  1.1739844739024E-02  1.1740047802068E-02  1.1740282878738E-02  1.1740549970153E-02 
 1.6690428853456E+00  3.3380889498922E+00  3.3381013894432E+00  3.3381230893871E+00  3.3381540497933E+00  3.3381942707576E+00  3.3382437524111E+00  3.3383024949119E+00  3.3383704984461E+00  1.6692238816549E+00 