TITLE = "Solution on Domain BulkDomain1D_1"
VARIABLES = "x [m]"  
"Vel_axial" 	"MF_sp(ECDMC)" 	"MF_sp(Li+)" 	"MF_sp(PF6-)" 	"Volt(Electroly)" 	"Porosity []" 	"Control volume thickness [m]" 	"volFrac MgO(S) []" 	"qHeat_accum [J/m3]" 	"qHeat_step [W/m3]" 	"Joule_Lyte [W/m3]" 	"Joule_Solid [W/m3]" 	
ZONE T = "SEP , 0.0000E+00", I = 10, SOLUTIONTIME = 0.000000E+00
ZONETYPE = ORDERED
DATAPACKING = BLOCK
STRANDID = 2
 7.8740000000000E-04  8.4102222222222E-04  8.9464444444444E-04  9.4826666666667E-04  1.0018888888889E-03  1.0555111111111E-03  1.1091333333333E-03  1.1627555555556E-03  1.2163777777778E-03  1.2700000000000E-03 
 0.0000000000000E+00  0.0000000000000E+00  0.0000000000000E+00  0.0000000000000E+00  0.0000000000000E+00  0.0000000000000E+00  0.0000000000000E+00  0.0000000000000E+00  0.0000000000000E+00  0.0000000000000E+00 
 9.2000000000000E-01  9.2000000000000E-01  9.2000000000000E-01  9.2000000000000E-01  9.2000000000000E-01  9.2000000000000E-01  9.2000000000000E-01  9.2000000000000E-01  9.2000000000000E-01  9.2000000000000E-01 
 4.0000000000000E-02  4.0000000000000E-02  4.0000000000000E-02  4.0000000000000E-02  4.0000000000000E-02  4.0000000000000E-02  4.0000000000000E-02  4.0000000000000E-02  4.0000000000000E-02  4.0000000000000E-02 
 4.0000000000000E-02  4.0000000000000E-02  4.0000000000000E-02  4.0000000000000E-02  4.0000000000000E-02  4.0000000000000E-02  4.0000000000000E-02  4.0000000000000E-02  4.0000000000000E-02  4.0000000000000E-02 
-7.0000000000000E-02 -7.0000000000000E-02 -7.0000000000000E-02 -7.0000000000000E-02 -7.0000000000000E-02 -7.0000000000000E-02 -7.0000000000000E-02 -7.0000000000000E-02 -7.0000000000000E-02 -7.0000000000000E-02 
 8.0911139820575E-01  8.0911139820575E-01  8.0911139820575E-01  8.0911139820575E-01  8.0911139820575E-01  8.0911139820575E-01  8.0911139820575E-01  8.0911139820575E-01  8.0911139820575E-01  8.0911139820575E-01 
 2.6811111111111E-05  5.3622222222222E-05  5.3622222222222E-05  5.3622222222222E-05  5.3622222222222E-05  5.3622222222222E-05  5.3622222222222E-05  5.3622222222223E-05  5.3622222222222E-05  2.6811111111111E-05 
 1.9088860179425E-01  1.9088860179425E-01  1.9088860179425E-01  1.9088860179425E-01  1.9088860179425E-01  1.9088860179425E-01  1.9088860179425E-01  1.9088860179425E-01  1.9088860179425E-01  1.9088860179425E-01 
 0.0000000000000E+00  0.0000000000000E+00  0.0000000000000E+00  0.0000000000000E+00  0.0000000000000E+00  0.0000000000000E+00  0.0000000000000E+00  0.0000000000000E+00  0.0000000000000E+00  0.0000000000000E+00 
 0.0000000000000E+00  0.0000000000000E+00  0.0000000000000E+00  0.0000000000000E+00  0.0000000000000E+00  0.0000000000000E+00  0.0000000000000E+00  0.0000000000000E+00  0.0000000000000E+00  0.0000000000000E+00 
 0.0000000000000E+00  0.0000000000000E+00  0.0000000000000E+00  0.0000000000000E+00  0.0000000000000E+00  0.0000000000000E+00  0.0000000000000E+00  0.0000000000000E+00  0.0000000000000E+00  0.0000000000000E+00 
 0.0000000000000E+00  0.0000000000000E+00  0.0000000000000E+00  0.0000000000000E+00  0.0000000000000E+00  0.0000000000000E+00  0.0000000000000E+00  0.0000000000000E+00  0.0000000000000E+00  0.0000000000000E+00 
ZONE T = "SEP , 1.0000E-08", I = 10, SOLUTIONTIME = 1.000000E-08
ZONETYPE = ORDERED
DATAPACKING = BLOCK
STRANDID = 2
 7.8740000000000E-04  8.4102222222222E-04  8.9464444444444E-04  9.4826666666667E-04  1.0018888888889E-03  1.0555111111111E-03  1.1091333333333E-03  1.1627555555556E-03  1.2163777777778E-03  1.2700000000000E-03 
 2.0837724438909E-08  2.0837724438909E-08  2.0837724438909E-08  2.0837724438909E-08  2.0837724438909E-08  2.0837724438909E-08  2.0837724438909E-08  2.0837724438909E-08  2.0837724438909E-08  1.9680514718552E-08 
 9.1999999999971E-01  9.2000000000000E-01  9.2000000000000E-01  9.2000000000000E-01  9.2000000000000E-01  9.2000000000000E-01  9.2000000000000E-01  9.2000000000000E-01  9.2000000000000E-01  9.2000000000032E-01 
 4.0000000000144E-02  4.0000000000000E-02  4.0000000000000E-02  4.0000000000000E-02  4.0000000000000E-02  4.0000000000000E-02  4.0000000000000E-02  4.0000000000000E-02  4.0000000000000E-02  3.9999999999841E-02 
 4.0000000000144E-02  4.0000000000000E-02  4.0000000000000E-02  4.0000000000000E-02  4.0000000000000E-02  4.0000000000000E-02  4.0000000000000E-02  4.0000000000000E-02  4.0000000000000E-02  3.9999999999841E-02 
 2.9180986240804E-02  2.9180936920995E-02  2.9180887601185E-02  2.9180838281376E-02  2.9180788961566E-02  2.9180739641757E-02  2.9180690321947E-02  2.9180641002138E-02  2.9180591682329E-02  2.9180542362519E-02 
 8.0911139820575E-01  8.0911139820575E-01  8.0911139820575E-01  8.0911139820575E-01  8.0911139820575E-01  8.0911139820575E-01  8.0911139820575E-01  8.0911139820575E-01  8.0911139820575E-01  8.0911139820575E-01 
 2.6811111111111E-05  5.3622222222222E-05  5.3622222222222E-05  5.3622222222222E-05  5.3622222222222E-05  5.3622222222222E-05  5.3622222222222E-05  5.3622222222223E-05  5.3622222222222E-05  2.6811111111111E-05 
 1.9088860179425E-01  1.9088860179425E-01  1.9088860179425E-01  1.9088860179425E-01  1.9088860179425E-01  1.9088860179425E-01  1.9088860179425E-01  1.9088860179425E-01  1.9088860179425E-01  1.9088860179425E-01 
 2.7607970782499E-10  2.7607970782474E-10  2.7607970782449E-10  2.7607970782449E-10  2.7607970782449E-10  2.7607970782449E-10  2.7607970782449E-10  2.7607970782449E-10  2.7607970782422E-10  2.7607970782394E-10 
 2.7607970782499E-02  2.7607970782474E-02  2.7607970782449E-02  2.7607970782449E-02  2.7607970782449E-02  2.7607970782449E-02  2.7607970782449E-02  2.7607970782449E-02  2.7607970782422E-02  2.7607970782394E-02 
 2.7607970782499E-02  2.7607970782474E-02  2.7607970782449E-02  2.7607970782449E-02  2.7607970782449E-02  2.7607970782449E-02  2.7607970782449E-02  2.7607970782449E-02  2.7607970782422E-02  2.7607970782394E-02 
 0.0000000000000E+00  0.0000000000000E+00  0.0000000000000E+00  0.0000000000000E+00  0.0000000000000E+00  0.0000000000000E+00  0.0000000000000E+00  0.0000000000000E+00  0.0000000000000E+00  0.0000000000000E+00 
ZONE T = "SEP , 2.0000E-08", I = 10, SOLUTIONTIME = 2.000000E-08
ZONETYPE = ORDERED
DATAPACKING = BLOCK
STRANDID = 2
 7.8740000000000E-04  8.4102222222222E-04  8.9464444444444E-04  9.4826666666667E-04  1.0018888888889E-03  1.0555111111111E-03  1.1091333333333E-03  1.1627555555556E-03  1.2163777777778E-03  1.2700000000000E-03 
 2.0856504992534E-08  2.0856504992534E-08  2.0856504992534E-08  2.0856504992534E-08  2.0856504992534E-08  2.0856504992534E-08  2.0856504992534E-08  2.0856504992534E-08  2.0856504992534E-08  1.9697886337206E-08 
 9.1999999999942E-01  9.2000000000000E-01  9.2000000000000E-01  9.2000000000000E-01  9.2000000000000E-01  9.2000000000000E-01  9.2000000000000E-01  9.2000000000000E-01  9.2000000000000E-01  9.2000000000063E-01 
 4.0000000000288E-02  4.0000000000000E-02  4.0000000000000E-02  4.0000000000000E-02  4.0000000000000E-02  4.0000000000000E-02  4.0000000000000E-02  4.0000000000000E-02  4.0000000000000E-02  3.9999999999683E-02 
 4.0000000000288E-02  4.0000000000000E-02  4.0000000000000E-02  4.0000000000000E-02  4.0000000000000E-02  4.0000000000000E-02  4.0000000000000E-02  4.0000000000000E-02  4.0000000000000E-02  3.9999999999683E-02 
 2.9166397950806E-02  2.9166348586559E-02  2.9166299222311E-02  2.9166249858063E-02  2.9166200493815E-02  2.9166151129567E-02  2.9166101765319E-02  2.9166052401071E-02  2.9166003036824E-02  2.9165953672576E-02 
 8.0911139820575E-01  8.0911139820575E-01  8.0911139820575E-01  8.0911139820575E-01  8.0911139820575E-01  8.0911139820575E-01  8.0911139820575E-01  8.0911139820575E-01  8.0911139820575E-01  8.0911139820575E-01 
 2.6811111111111E-05  5.3622222222222E-05  5.3622222222222E-05  5.3622222222222E-05  5.3622222222222E-05  5.3622222222222E-05  5.3622222222222E-05  5.3622222222223E-05  5.3622222222222E-05  2.6811111111111E-05 
 1.9088860179425E-01  1.9088860179425E-01  1.9088860179425E-01  1.9088860179425E-01  1.9088860179425E-01  1.9088860179425E-01  1.9088860179425E-01  1.9088860179425E-01  1.9088860179425E-01  1.9088860179425E-01 
 5.5265714940246E-10  5.5265714940171E-10  5.5265714940097E-10  5.5265714940097E-10  5.5265714940097E-10  5.5265714940097E-10  5.5265714940097E-10  5.5265714940096E-10  5.5265714940015E-10  5.5265714939932E-10 
 2.7657744157748E-02  2.7657744157698E-02  2.7657744157648E-02  2.7657744157648E-02  2.7657744157648E-02  2.7657744157648E-02  2.7657744157648E-02  2.7657744157648E-02  2.7657744157593E-02  2.7657744157538E-02 
 2.7657744157748E-02  2.7657744157698E-02  2.7657744157648E-02  2.7657744157648E-02  2.7657744157648E-02  2.7657744157648E-02  2.7657744157648E-02  2.7657744157648E-02  2.7657744157593E-02  2.7657744157538E-02 
 0.0000000000000E+00  0.0000000000000E+00  0.0000000000000E+00  0.0000000000000E+00  0.0000000000000E+00  0.0000000000000E+00  0.0000000000000E+00  0.0000000000000E+00  0.0000000000000E+00  0.0000000000000E+00 
ZONE T = "SEP , 3.0000E-08", I = 10, SOLUTIONTIME = 3.000000E-08
ZONETYPE = ORDERED
DATAPACKING = BLOCK
STRANDID = 2
 7.8740000000000E-04  8.4102222222222E-04  8.9464444444444E-04  9.4826666666667E-04  1.0018888888889E-03  1.0555111111111E-03  1.1091333333333E-03  1.1627555555556E-03  1.2163777777778E-03  1.2700000000000E-03 
 2.0867790681622E-08  2.0867790681622E-08  2.0867790681622E-08  2.0867790681622E-08  2.0867790681622E-08  2.0867790681622E-08  2.0867790681622E-08  2.0867790681622E-08  2.0867790681622E-08  1.9710583243444E-08 
 9.1999999999914E-01  9.2000000000000E-01  9.2000000000000E-01  9.2000000000000E-01  9.2000000000000E-01  9.2000000000000E-01  9.2000000000000E-01  9.2000000000000E-01  9.2000000000000E-01  9.2000000000095E-01 
 4.0000000000432E-02  4.0000000000000E-02  4.0000000000000E-02  4.0000000000000E-02  4.0000000000000E-02  4.0000000000000E-02  4.0000000000000E-02  4.0000000000000E-02  4.0000000000000E-02  3.9999999999524E-02 
 4.0000000000432E-02  4.0000000000000E-02  4.0000000000000E-02  4.0000000000000E-02  4.0000000000000E-02  4.0000000000000E-02  4.0000000000000E-02  4.0000000000000E-02  4.0000000000000E-02  3.9999999999524E-02 
 2.9165813991135E-02  2.9165764625106E-02  2.9165715259077E-02  2.9165665893048E-02  2.9165616527019E-02  2.9165567160990E-02  2.9165517794962E-02  2.9165468428933E-02  2.9165419062904E-02  2.9165369696875E-02 
 8.0911139820575E-01  8.0911139820575E-01  8.0911139820575E-01  8.0911139820575E-01  8.0911139820575E-01  8.0911139820575E-01  8.0911139820575E-01  8.0911139820575E-01  8.0911139820575E-01  8.0911139820575E-01 
 2.6811111111111E-05  5.3622222222222E-05  5.3622222222222E-05  5.3622222222222E-05  5.3622222222222E-05  5.3622222222222E-05  5.3622222222222E-05  5.3622222222223E-05  5.3622222222222E-05  2.6811111111111E-05 
 1.9088860179425E-01  1.9088860179425E-01  1.9088860179425E-01  1.9088860179425E-01  1.9088860179425E-01  1.9088860179425E-01  1.9088860179425E-01  1.9088860179425E-01  1.9088860179425E-01  1.9088860179425E-01 
 8.2925454791722E-10  8.2925454791573E-10  8.2925454789480E-10  8.2925454789480E-10  8.2925454791423E-10  8.2925454791424E-10  8.2925454791424E-10  8.2925454791423E-10  8.2925454789315E-10  8.2925454787207E-10 
 2.7659739851476E-02  2.7659739851402E-02  2.7659739849383E-02  2.7659739849383E-02  2.7659739851327E-02  2.7659739851327E-02  2.7659739851327E-02  2.7659739851327E-02  2.7659739849301E-02  2.7659739847274E-02 
 2.7659739851476E-02  2.7659739851402E-02  2.7659739849383E-02  2.7659739849383E-02  2.7659739851327E-02  2.7659739851327E-02  2.7659739851327E-02  2.7659739851327E-02  2.7659739849301E-02  2.7659739847274E-02 
 0.0000000000000E+00  0.0000000000000E+00  0.0000000000000E+00  0.0000000000000E+00  0.0000000000000E+00  0.0000000000000E+00  0.0000000000000E+00  0.0000000000000E+00  0.0000000000000E+00  0.0000000000000E+00 
ZONE T = "SEP , 4.0000E-08", I = 10, SOLUTIONTIME = 4.000000E-08
ZONETYPE = ORDERED
DATAPACKING = BLOCK
STRANDID = 2
 7.8740000000000E-04  8.4102222222222E-04  8.9464444444444E-04  9.4826666666667E-04  1.0018888888889E-03  1.0555111111111E-03  1.1091333333333E-03  1.1627555555556E-03  1.2163777777778E-03  1.2700000000000E-03 
 2.0859635813951E-08  2.0859635813951E-08  2.0859635813951E-08  2.0859635813951E-08  2.0859635813951E-08  2.0859635813951E-08  2.0859635813951E-08  2.0859635813951E-08  2.0859635813951E-08  1.9701902688521E-08 
 9.1999999999885E-01  9.2000000000000E-01  9.2000000000000E-01  9.2000000000000E-01  9.2000000000000E-01  9.2000000000000E-01  9.2000000000000E-01  9.2000000000000E-01  9.2000000000000E-01  9.2000000000127E-01 
 4.0000000000576E-02  4.0000000000000E-02  4.0000000000000E-02  4.0000000000000E-02  4.0000000000000E-02  4.0000000000000E-02  4.0000000000000E-02  4.0000000000000E-02  4.0000000000000E-02  3.9999999999365E-02 
 4.0000000000576E-02  4.0000000000000E-02  4.0000000000000E-02  4.0000000000000E-02  4.0000000000000E-02  4.0000000000000E-02  4.0000000000000E-02  4.0000000000000E-02  4.0000000000000E-02  3.9999999999365E-02 
 2.9166082336251E-02  2.9166032971041E-02  2.9165983605830E-02  2.9165934240620E-02  2.9165884875410E-02  2.9165835510199E-02  2.9165786144989E-02  2.9165736779779E-02  2.9165687414568E-02  2.9165638049358E-02 
 8.0911139820575E-01  8.0911139820575E-01  8.0911139820575E-01  8.0911139820575E-01  8.0911139820575E-01  8.0911139820575E-01  8.0911139820575E-01  8.0911139820575E-01  8.0911139820575E-01  8.0911139820575E-01 
 2.6811111111111E-05  5.3622222222222E-05  5.3622222222222E-05  5.3622222222222E-05  5.3622222222222E-05  5.3622222222222E-05  5.3622222222222E-05  5.3622222222223E-05  5.3622222222222E-05  2.6811111111111E-05 
 1.9088860179425E-01  1.9088860179425E-01  1.9088860179425E-01  1.9088860179425E-01  1.9088860179425E-01  1.9088860179425E-01  1.9088860179425E-01  1.9088860179425E-01  1.9088860179425E-01  1.9088860179425E-01 
 1.1058427747457E-09  1.1058427747432E-09  1.1058427747213E-09  1.1058427747213E-09  1.1058427747407E-09  1.1058427747407E-09  1.1058427747407E-09  1.1058427747407E-09  1.1058427747186E-09  1.1058427746964E-09 
 2.7658822682849E-02  2.7658822682749E-02  2.7658822682650E-02  2.7658822682650E-02  2.7658822682650E-02  2.7658822682650E-02  2.7658822682650E-02  2.7658822682649E-02  2.7658822682540E-02  2.7658822682430E-02 
 2.7658822682849E-02  2.7658822682749E-02  2.7658822682650E-02  2.7658822682650E-02  2.7658822682650E-02  2.7658822682650E-02  2.7658822682650E-02  2.7658822682649E-02  2.7658822682540E-02  2.7658822682430E-02 
 0.0000000000000E+00  0.0000000000000E+00  0.0000000000000E+00  0.0000000000000E+00  0.0000000000000E+00  0.0000000000000E+00  0.0000000000000E+00  0.0000000000000E+00  0.0000000000000E+00  0.0000000000000E+00 
ZONE T = "SEP , 5.5000E-08", I = 10, SOLUTIONTIME = 5.500000E-08
ZONETYPE = ORDERED
DATAPACKING = BLOCK
STRANDID = 2
 7.8740000000000E-04  8.4102222222222E-04  8.9464444444444E-04  9.4826666666667E-04  1.0018888888889E-03  1.0555111111111E-03  1.1091333333333E-03  1.1627555555556E-03  1.2163777777778E-03  1.2700000000000E-03 
 2.0860874671880E-08  2.0860874671880E-08  2.0860874671880E-08  2.0860874671880E-08  2.0860874671880E-08  2.0860874671880E-08  2.0860874671880E-08  2.0860874671880E-08  2.0860874671880E-08  1.9703143336084E-08 
 9.1999999999842E-01  9.2000000000000E-01  9.2000000000000E-01  9.2000000000000E-01  9.2000000000000E-01  9.2000000000000E-01  9.2000000000000E-01  9.2000000000000E-01  9.2000000000000E-01  9.2000000000175E-01 
 4.0000000000792E-02  4.0000000000000E-02  4.0000000000000E-02  4.0000000000000E-02  4.0000000000000E-02  4.0000000000000E-02  4.0000000000000E-02  4.0000000000000E-02  4.0000000000000E-02  3.9999999999127E-02 
 4.0000000000792E-02  4.0000000000000E-02  4.0000000000000E-02  4.0000000000000E-02  4.0000000000000E-02  4.0000000000000E-02  4.0000000000000E-02  4.0000000000000E-02  4.0000000000000E-02  3.9999999999127E-02 
 2.9166107449315E-02  2.9166058084181E-02  2.9166008719048E-02  2.9165959353914E-02  2.9165909988780E-02  2.9165860623646E-02  2.9165811258513E-02  2.9165761893379E-02  2.9165712528245E-02  2.9165663163111E-02 
 8.0911139820575E-01  8.0911139820575E-01  8.0911139820575E-01  8.0911139820575E-01  8.0911139820575E-01  8.0911139820575E-01  8.0911139820575E-01  8.0911139820575E-01  8.0911139820575E-01  8.0911139820575E-01 
 2.6811111111111E-05  5.3622222222222E-05  5.3622222222222E-05  5.3622222222222E-05  5.3622222222222E-05  5.3622222222222E-05  5.3622222222222E-05  5.3622222222223E-05  5.3622222222222E-05  2.6811111111111E-05 
 1.9088860179425E-01  1.9088860179425E-01  1.9088860179425E-01  1.9088860179425E-01  1.9088860179425E-01  1.9088860179425E-01  1.9088860179425E-01  1.9088860179425E-01  1.9088860179425E-01  1.9088860179425E-01 
 1.5207238275873E-09  1.5207238275828E-09  1.5207238275588E-09  1.5207238275588E-09  1.5207238275783E-09  1.5207238275783E-09  1.5207238275783E-09  1.5207238276074E-09  1.5207238275830E-09  1.5207238275294E-09 
 2.7658736856109E-02  2.7658736855972E-02  2.7658736855835E-02  2.7658736855835E-02  2.7658736855835E-02  2.7658736855835E-02  2.7658736855835E-02  2.7658736857779E-02  2.7658736857628E-02  2.7658736855533E-02 
 2.7658736856109E-02  2.7658736855972E-02  2.7658736855835E-02  2.7658736855835E-02  2.7658736855835E-02  2.7658736855835E-02  2.7658736855835E-02  2.7658736857779E-02  2.7658736857628E-02  2.7658736855533E-02 
 0.0000000000000E+00  0.0000000000000E+00  0.0000000000000E+00  0.0000000000000E+00  0.0000000000000E+00  0.0000000000000E+00  0.0000000000000E+00  0.0000000000000E+00  0.0000000000000E+00  0.0000000000000E+00 
ZONE T = "SEP , 7.7500E-08", I = 10, SOLUTIONTIME = 7.750000E-08
ZONETYPE = ORDERED
DATAPACKING = BLOCK
STRANDID = 2
 7.8740000000000E-04  8.4102222222222E-04  8.9464444444444E-04  9.4826666666667E-04  1.0018888888889E-03  1.0555111111111E-03  1.1091333333333E-03  1.1627555555556E-03  1.2163777777778E-03  1.2700000000000E-03 
 2.0862860899643E-08  2.0862860899643E-08  2.0862860899643E-08  2.0862860899643E-08  2.0862860899643E-08  2.0862860899643E-08  2.0862860899643E-08  2.0862860899643E-08  2.0862860899643E-08  1.9705129079315E-08 
 9.1999999999777E-01  9.2000000000000E-01  9.2000000000000E-01  9.2000000000000E-01  9.2000000000000E-01  9.2000000000000E-01  9.2000000000000E-01  9.2000000000000E-01  9.2000000000000E-01  9.2000000000246E-01 
 4.0000000001116E-02  4.0000000000000E-02  4.0000000000000E-02  4.0000000000000E-02  4.0000000000000E-02  4.0000000000000E-02  4.0000000000000E-02  4.0000000000000E-02  4.0000000000000E-02  3.9999999998770E-02 
 4.0000000001116E-02  4.0000000000000E-02  4.0000000000000E-02  4.0000000000000E-02  4.0000000000000E-02  4.0000000000000E-02  4.0000000000000E-02  4.0000000000000E-02  4.0000000000000E-02  3.9999999998770E-02 
 2.9166100649254E-02  2.9166051284099E-02  2.9166001918945E-02  2.9165952553790E-02  2.9165903188636E-02  2.9165853823481E-02  2.9165804458327E-02  2.9165755093172E-02  2.9165705728018E-02  2.9165656362863E-02 
 8.0911139820575E-01  8.0911139820575E-01  8.0911139820575E-01  8.0911139820575E-01  8.0911139820575E-01  8.0911139820575E-01  8.0911139820575E-01  8.0911139820575E-01  8.0911139820575E-01  8.0911139820575E-01 
 2.6811111111111E-05  5.3622222222222E-05  5.3622222222222E-05  5.3622222222222E-05  5.3622222222222E-05  5.3622222222222E-05  5.3622222222222E-05  5.3622222222223E-05  5.3622222222222E-05  2.6811111111111E-05 
 1.9088860179425E-01  1.9088860179425E-01  1.9088860179425E-01  1.9088860179425E-01  1.9088860179425E-01  1.9088860179425E-01  1.9088860179425E-01  1.9088860179425E-01  1.9088860179425E-01  1.9088860179425E-01 
 2.1430459296915E-09  2.1430459296389E-09  2.1430459296106E-09  2.1430459296543E-09  2.1430459296737E-09  2.1430459296737E-09  2.1430459296300E-09  2.1430459296591E-09  2.1430459296737E-09  2.1430459296153E-09 
 2.7658760093519E-02  2.7658760091382E-02  2.7658760091189E-02  2.7658760093133E-02  2.7658760093133E-02  2.7658760093133E-02  2.7658760091189E-02  2.7658760091188E-02  2.7658760092920E-02  2.7658760092707E-02 
 2.7658760093519E-02  2.7658760091382E-02  2.7658760091189E-02  2.7658760093133E-02  2.7658760093133E-02  2.7658760093133E-02  2.7658760091189E-02  2.7658760091188E-02  2.7658760092920E-02  2.7658760092707E-02 
 0.0000000000000E+00  0.0000000000000E+00  0.0000000000000E+00  0.0000000000000E+00  0.0000000000000E+00  0.0000000000000E+00  0.0000000000000E+00  0.0000000000000E+00  0.0000000000000E+00  0.0000000000000E+00 
ZONE T = "SEP , 1.1125E-07", I = 10, SOLUTIONTIME = 1.112500E-07
ZONETYPE = ORDERED
DATAPACKING = BLOCK
STRANDID = 2
 7.8740000000000E-04  8.4102222222222E-04  8.9464444444444E-04  9.4826666666667E-04  1.0018888888889E-03  1.0555111111111E-03  1.1091333333333E-03  1.1627555555556E-03  1.2163777777778E-03  1.2700000000000E-03 
 2.0862969926117E-08  2.0862969926117E-08  2.0862969926117E-08  2.0862969926117E-08  2.0862969926117E-08  2.0862969926117E-08  2.0862969926117E-08  2.0862969926117E-08  2.0862969926117E-08  1.9705076602193E-08 
 9.1999999999679E-01  9.2000000000000E-01  9.2000000000000E-01  9.2000000000000E-01  9.2000000000000E-01  9.2000000000000E-01  9.2000000000000E-01  9.2000000000000E-01  9.2000000000000E-01  9.2000000000353E-01 
 4.0000000001603E-02  4.0000000000000E-02  4.0000000000000E-02  4.0000000000000E-02  4.0000000000000E-02  4.0000000000000E-02  4.0000000000000E-02  4.0000000000000E-02  4.0000000000000E-02  3.9999999998234E-02 
 4.0000000001603E-02  4.0000000000000E-02  4.0000000000000E-02  4.0000000000000E-02  4.0000000000000E-02  4.0000000000000E-02  4.0000000000000E-02  4.0000000000000E-02  4.0000000000000E-02  3.9999999998234E-02 
 2.9166099554464E-02  2.9166050189306E-02  2.9166000824148E-02  2.9165951458990E-02  2.9165902093833E-02  2.9165852728675E-02  2.9165803363517E-02  2.9165753998359E-02  2.9165704633201E-02  2.9165655268043E-02 
 8.0911139820575E-01  8.0911139820575E-01  8.0911139820575E-01  8.0911139820575E-01  8.0911139820575E-01  8.0911139820575E-01  8.0911139820575E-01  8.0911139820575E-01  8.0911139820575E-01  8.0911139820575E-01 
 2.6811111111111E-05  5.3622222222222E-05  5.3622222222222E-05  5.3622222222222E-05  5.3622222222222E-05  5.3622222222222E-05  5.3622222222222E-05  5.3622222222223E-05  5.3622222222222E-05  2.6811111111111E-05 
 1.9088860179425E-01  1.9088860179425E-01  1.9088860179425E-01  1.9088860179425E-01  1.9088860179425E-01  1.9088860179425E-01  1.9088860179425E-01  1.9088860179425E-01  1.9088860179425E-01  1.9088860179425E-01 
 3.0765292089490E-09  3.0765292088870E-09  3.0765292088493E-09  3.0765292088930E-09  3.0765292089125E-09  3.0765292089125E-09  3.0765292088688E-09  3.0765292088979E-09  3.0765292089021E-09  3.0765292088334E-09 
 2.7658763829850E-02  2.7658763829573E-02  2.7658763829296E-02  2.7658763829296E-02  2.7658763829296E-02  2.7658763829296E-02  2.7658763829296E-02  2.7658763829296E-02  2.7658763828991E-02  2.7658763828686E-02 
 2.7658763829850E-02  2.7658763829573E-02  2.7658763829296E-02  2.7658763829296E-02  2.7658763829296E-02  2.7658763829296E-02  2.7658763829296E-02  2.7658763829296E-02  2.7658763828991E-02  2.7658763828686E-02 
 0.0000000000000E+00  0.0000000000000E+00  0.0000000000000E+00  0.0000000000000E+00  0.0000000000000E+00  0.0000000000000E+00  0.0000000000000E+00  0.0000000000000E+00  0.0000000000000E+00  0.0000000000000E+00 
ZONE T = "SEP , 1.6188E-07", I = 10, SOLUTIONTIME = 1.618750E-07
ZONETYPE = ORDERED
DATAPACKING = BLOCK
STRANDID = 2
 7.8740000000000E-04  8.4102222222222E-04  8.9464444444444E-04  9.4826666666667E-04  1.0018888888889E-03  1.0555111111111E-03  1.1091333333333E-03  1.1627555555556E-03  1.2163777777778E-03  1.2700000000000E-03 
 2.0863274647374E-08  2.0863274647374E-08  2.0863274647374E-08  2.0863274647374E-08  2.0863274647374E-08  2.0863274647374E-08  2.0863274647374E-08  2.0863274647374E-08  2.0863274647374E-08  1.9705542759799E-08 
 9.1999999999534E-01  9.2000000000000E-01  9.2000000000000E-01  9.2000000000000E-01  9.2000000000000E-01  9.2000000000000E-01  9.2000000000000E-01  9.2000000000000E-01  9.2000000000000E-01  9.2000000000514E-01 
 4.0000000002332E-02  4.0000000000001E-02  4.0000000000000E-02  4.0000000000000E-02  4.0000000000000E-02  4.0000000000000E-02  4.0000000000000E-02  4.0000000000000E-02  3.9999999999999E-02  3.9999999997431E-02 
 4.0000000002332E-02  4.0000000000001E-02  4.0000000000000E-02  4.0000000000000E-02  4.0000000000000E-02  4.0000000000000E-02  4.0000000000000E-02  4.0000000000000E-02  3.9999999999999E-02  3.9999999997431E-02 
 2.9166099702895E-02  2.9166050337738E-02  2.9166000972581E-02  2.9165951607423E-02  2.9165902242266E-02  2.9165852877108E-02  2.9165803511951E-02  2.9165754146794E-02  2.9165704781636E-02  2.9165655416479E-02 
 8.0911139820575E-01  8.0911139820575E-01  8.0911139820575E-01  8.0911139820575E-01  8.0911139820575E-01  8.0911139820575E-01  8.0911139820575E-01  8.0911139820575E-01  8.0911139820575E-01  8.0911139820575E-01 
 2.6811111111111E-05  5.3622222222222E-05  5.3622222222222E-05  5.3622222222222E-05  5.3622222222222E-05  5.3622222222222E-05  5.3622222222222E-05  5.3622222222223E-05  5.3622222222222E-05  2.6811111111111E-05 
 1.9088860179425E-01  1.9088860179425E-01  1.9088860179425E-01  1.9088860179425E-01  1.9088860179425E-01  1.9088860179425E-01  1.9088860179425E-01  1.9088860179425E-01  1.9088860179425E-01  1.9088860179425E-01 
 4.4767541016709E-09  4.4767541016870E-09  4.4767541017273E-09  4.4767541017710E-09  4.4767541017904E-09  4.4767541016921E-09  4.4767541016483E-09  4.4767541017758E-09  4.4767541017576E-09  4.4767541016664E-09 
 2.7658763313027E-02  2.7658763314567E-02  2.7658763316108E-02  2.7658763316108E-02  2.7658763316108E-02  2.7658763314164E-02  2.7658763314164E-02  2.7658763316108E-02  2.7658763315664E-02  2.7658763315220E-02 
 2.7658763313027E-02  2.7658763314567E-02  2.7658763316108E-02  2.7658763316108E-02  2.7658763316108E-02  2.7658763314164E-02  2.7658763314164E-02  2.7658763316108E-02  2.7658763315664E-02  2.7658763315220E-02 
 0.0000000000000E+00  0.0000000000000E+00  0.0000000000000E+00  0.0000000000000E+00  0.0000000000000E+00  0.0000000000000E+00  0.0000000000000E+00  0.0000000000000E+00  0.0000000000000E+00  0.0000000000000E+00 
ZONE T = "SEP , 2.3781E-07", I = 10, SOLUTIONTIME = 2.378125E-07
ZONETYPE = ORDERED
DATAPACKING = BLOCK
STRANDID = 2
 7.8740000000000E-04  8.4102222222222E-04  8.9464444444444E-04  9.4826666666667E-04  1.0018888888889E-03  1.0555111111111E-03  1.1091333333333E-03  1.1627555555556E-03  1.2163777777778E-03  1.2700000000000E-03 
 2.0862461486399E-08  2.0862557146047E-08  2.0862557146047E-08  2.0862557146047E-08  2.0862557146047E-08  2.0862557146047E-08  2.0862557146047E-08  2.0862557146047E-08  2.0862461486399E-08  1.9704801346503E-08 
 9.1999999999315E-01  9.2000000000000E-01  9.2000000000000E-01  9.2000000000000E-01  9.2000000000000E-01  9.2000000000000E-01  9.2000000000000E-01  9.2000000000000E-01  9.2000000000000E-01  9.2000000000755E-01 
 4.0000000003425E-02  4.0000000000002E-02  4.0000000000000E-02  4.0000000000000E-02  4.0000000000000E-02  4.0000000000000E-02  4.0000000000000E-02  4.0000000000000E-02  3.9999999999998E-02  3.9999999996226E-02 
 4.0000000003425E-02  4.0000000000002E-02  4.0000000000000E-02  4.0000000000000E-02  4.0000000000000E-02  4.0000000000000E-02  4.0000000000000E-02  4.0000000000000E-02  3.9999999999998E-02  3.9999999996226E-02 
 2.9166099741787E-02  2.9166050376630E-02  2.9166001011473E-02  2.9165951646316E-02  2.9165902281158E-02  2.9165852916001E-02  2.9165803550844E-02  2.9165754185687E-02  2.9165704820529E-02  2.9165655455372E-02 
 8.0911139820575E-01  8.0911139820575E-01  8.0911139820575E-01  8.0911139820575E-01  8.0911139820575E-01  8.0911139820575E-01  8.0911139820575E-01  8.0911139820575E-01  8.0911139820575E-01  8.0911139820575E-01 
 2.6811111111111E-05  5.3622222222222E-05  5.3622222222222E-05  5.3622222222222E-05  5.3622222222222E-05  5.3622222222222E-05  5.3622222222222E-05  5.3622222222223E-05  5.3622222222222E-05  2.6811111111111E-05 
 1.9088860179425E-01  1.9088860179425E-01  1.9088860179425E-01  1.9088860179425E-01  1.9088860179425E-01  1.9088860179425E-01  1.9088860179425E-01  1.9088860179425E-01  1.9088860179425E-01  1.9088860179425E-01 
 6.5770914298592E-09  6.5770914299778E-09  6.5770914301208E-09  6.5770914301645E-09  6.5770914301839E-09  6.5770914300856E-09  6.5770914300418E-09  6.5770914301693E-09  6.5770914302491E-09  6.5770914302560E-09 
 2.7658763169557E-02  2.7658763170909E-02  2.7658763172260E-02  2.7658763172260E-02  2.7658763172260E-02  2.7658763172260E-02  2.7658763172260E-02  2.7658763172259E-02  2.7658763173551E-02  2.7658763174843E-02 
 2.7658763169557E-02  2.7658763170909E-02  2.7658763172260E-02  2.7658763172260E-02  2.7658763172260E-02  2.7658763172260E-02  2.7658763172260E-02  2.7658763172259E-02  2.7658763173551E-02  2.7658763174843E-02 
 0.0000000000000E+00  0.0000000000000E+00  0.0000000000000E+00  0.0000000000000E+00  0.0000000000000E+00  0.0000000000000E+00  0.0000000000000E+00  0.0000000000000E+00  0.0000000000000E+00  0.0000000000000E+00 
ZONE T = "SEP , 3.5172E-07", I = 10, SOLUTIONTIME = 3.517188E-07
ZONETYPE = ORDERED
DATAPACKING = BLOCK
STRANDID = 2
 7.8740000000000E-04  8.4102222222222E-04  8.9464444444444E-04  9.4826666666667E-04  1.0018888888889E-03  1.0555111111111E-03  1.1091333333333E-03  1.1627555555556E-03  1.2163777777778E-03  1.2700000000000E-03 
 2.0862652805888E-08  2.0862589032789E-08  2.0862589032789E-08  2.0862589032789E-08  2.0862589032789E-08  2.0862589032789E-08  2.0862589032789E-08  2.0862589032789E-08  2.0862589032789E-08  1.9704857148086E-08 
 9.1999999998987E-01  9.1999999999999E-01  9.2000000000000E-01  9.2000000000000E-01  9.2000000000000E-01  9.2000000000000E-01  9.2000000000000E-01  9.2000000000000E-01  9.2000000000001E-01  9.2000000001116E-01 
 4.0000000005065E-02  4.0000000000003E-02  4.0000000000000E-02  4.0000000000000E-02  4.0000000000000E-02  4.0000000000000E-02  4.0000000000000E-02  4.0000000000000E-02  3.9999999999996E-02  3.9999999994419E-02 