TITLE = "Solution on Domain BulkDomain1D_0"
VARIABLES = "x [m]"  
"Vel_axial" 
"MF_sp(ECDMC)" 
"MF_sp(Li+)" 
"MF_sp(PF6-)" 
"Volt(Electroly)" 
"Volt(AnodeVolt)" 
"Potential Drop Electrode-Electrolyte [V]" 
"Surf_0 Equilibrium Potential Drop Electrode-Electrolyte [V]" 
"Overpotential_0 [V]" 
"Current Source [A/m^2]" 
"Li+ flux [kmol/m^2/s]" 
"Electrolyte Current [A/m^2]" 
"Electrode Current [A/m^2]" 
"CV Capacity discharged [A-s/m^2]" 
"Depth of discharge in CV [A-s/m^2]" 
"CV Capacity remaining [A-s/m^2]" 
"Initial CV capacity [A-s/m^2]" 
"Porosity []" 
"Surface Area [m2/m2] (area per area)" 
"Specific current (per particle area) [A/m^2]" 
"Control volume thickness [m]" 
"MoleDens Li_C6-bulk [kmol/m^3]" 
"MoleDens V_C6-bulk [kmol/m^3]" 
"qHeat_accum [J/m3]" 
"qHeat_step [W/m3]" 
"Joule_Lyte [W/m3]" 
"Joule_Solid [W/m3]" 
"electrodHeat [W/m3]" 
"OverpotHeat [W/m3]" 
"deltaSHeat [W/m3]" 

ZONE T = "ANOD, 0.0000E+00", I = 10, SOLUTIONTIME = 0.000000E+00
ZONETYPE = ORDERED
DATAPACKING = BLOCK
STRANDID = 1
 0.0000000000000E+00  8.7488888888889E-05  1.7497777777778E-04  2.6246666666667E-04  3.4995555555556E-04  4.3744444444444E-04  5.2493333333333E-04  6.1242222222222E-04  6.9991111111111E-04  7.8740000000000E-04 
 0.0000000000000E+00  0.0000000000000E+00  0.0000000000000E+00  0.0000000000000E+00  0.0000000000000E+00  0.0000000000000E+00  0.0000000000000E+00  0.0000000000000E+00  0.0000000000000E+00  0.0000000000000E+00 
 9.2000000000000E-01  9.2000000000000E-01  9.2000000000000E-01  9.2000000000000E-01  9.2000000000000E-01  9.2000000000000E-01  9.2000000000000E-01  9.2000000000000E-01  9.2000000000000E-01  9.2000000000000E-01 
 4.0000000000000E-02  4.0000000000000E-02  4.0000000000000E-02  4.0000000000000E-02  4.0000000000000E-02  4.0000000000000E-02  4.0000000000000E-02  4.0000000000000E-02  4.0000000000000E-02  4.0000000000000E-02 
 4.0000000000000E-02  4.0000000000000E-02  4.0000000000000E-02  4.0000000000000E-02  4.0000000000000E-02  4.0000000000000E-02  4.0000000000000E-02  4.0000000000000E-02  4.0000000000000E-02  4.0000000000000E-02 
-7.0000000000000E-02 -7.0000000000000E-02 -7.0000000000000E-02 -7.0000000000000E-02 -7.0000000000000E-02 -7.0000000000000E-02 -7.0000000000000E-02 -7.0000000000000E-02 -7.0000000000000E-02 -7.0000000000000E-02 
 0.0000000000000E+00  0.0000000000000E+00  0.0000000000000E+00  0.0000000000000E+00  0.0000000000000E+00  0.0000000000000E+00  0.0000000000000E+00  0.0000000000000E+00  0.0000000000000E+00  0.0000000000000E+00 
 7.0000000000000E-02  7.0000000000000E-02  7.0000000000000E-02  7.0000000000000E-02  7.0000000000000E-02  7.0000000000000E-02  7.0000000000000E-02  7.0000000000000E-02  7.0000000000000E-02  7.0000000000000E-02 
-4.0906712753392E-02 -4.0906712753392E-02 -4.0906712753392E-02 -4.0906712753392E-02 -4.0906712753392E-02 -4.0906712753392E-02 -4.0906712753392E-02 -4.0906712753392E-02 -4.0906712753392E-02 -4.0906712753392E-02 
 1.1090671275339E-01  1.1090671275339E-01  1.1090671275339E-01  1.1090671275339E-01  1.1090671275339E-01  1.1090671275339E-01  1.1090671275339E-01  1.1090671275339E-01  1.1090671275339E-01  1.1090671275339E-01 
 3.0930240924008E+01  6.1860481848017E+01  6.1860481848017E+01  6.1860481848017E+01  6.1860481848016E+01  6.1860481848017E+01  6.1860481848017E+01  6.1860481848016E+01  6.1860481848016E+01  3.0930240924008E+01 
-0.0000000000000E+00 -0.0000000000000E+00 -0.0000000000000E+00 -0.0000000000000E+00 -0.0000000000000E+00 -0.0000000000000E+00 -0.0000000000000E+00 -0.0000000000000E+00 -0.0000000000000E+00 -0.0000000000000E+00 
 0.0000000000000E+00  0.0000000000000E+00  0.0000000000000E+00  0.0000000000000E+00  0.0000000000000E+00  0.0000000000000E+00  0.0000000000000E+00  0.0000000000000E+00  0.0000000000000E+00  3.0930240924008E+01 
 3.0930240924008E+01 -0.0000000000000E+00 -0.0000000000000E+00 -0.0000000000000E+00 -0.0000000000000E+00 -0.0000000000000E+00 -0.0000000000000E+00 -0.0000000000000E+00 -0.0000000000000E+00  0.0000000000000E+00 
 0.0000000000000E+00  0.0000000000000E+00  0.0000000000000E+00  0.0000000000000E+00  0.0000000000000E+00  0.0000000000000E+00  0.0000000000000E+00  0.0000000000000E+00  0.0000000000000E+00  0.0000000000000E+00 
 9.1448444543281E+04  1.8289688908656E+05  1.8289688908656E+05  1.8289688908656E+05  1.8289688908656E+05  1.8289688908656E+05  1.8289688908656E+05  1.8289688908656E+05  1.8289688908656E+05  9.1448444543281E+04 
 3.6579377817312E+05  7.3158755634625E+05  7.3158755634625E+05  7.3158755634625E+05  7.3158755634625E+05  7.3158755634625E+05  7.3158755634625E+05  7.3158755634625E+05  7.3158755634625E+05  3.6579377817312E+05 
 4.5724222271640E+05  9.1448444543281E+05  9.1448444543281E+05  9.1448444543281E+05  9.1448444543281E+05  9.1448444543281E+05  9.1448444543281E+05  9.1448444543281E+05  9.1448444543281E+05  4.5724222271640E+05 
 3.5000000000000E-01  3.5000000000000E-01  3.5000000000000E-01  3.5000000000000E-01  3.5000000000000E-01  3.5000000000000E-01  3.5000000000000E-01  3.5000000000000E-01  3.5000000000000E-01  3.5000000000000E-01 
 8.5301666666666E+00  1.7060333333333E+01  1.7060333333333E+01  1.7060333333333E+01  1.7060333333333E+01  1.7060333333333E+01  1.7060333333333E+01  1.7060333333333E+01  1.7060333333333E+01  8.5301666666666E+00 
 3.6259831879809E+00  3.6259831879809E+00  3.6259831879809E+00  3.6259831879809E+00  3.6259831879809E+00  3.6259831879809E+00  3.6259831879809E+00  3.6259831879809E+00  3.6259831879809E+00  3.6259831879809E+00 
 4.3744444444444E-05  8.7488888888889E-05  8.7488888888889E-05  8.7488888888889E-05  8.7488888888889E-05  8.7488888888889E-05  8.7488888888889E-05  8.7488888888889E-05  8.7488888888889E-05  4.3744444444444E-05 
 8.6666666666666E+01  8.6666666666666E+01  8.6666666666666E+01  8.6666666666666E+01  8.6666666666666E+01  8.6666666666666E+01  8.6666666666666E+01  8.6666666666666E+01  8.6666666666666E+01  8.6666666666666E+01 
 2.1666666666667E+01  2.1666666666667E+01  2.1666666666667E+01  2.1666666666667E+01  2.1666666666667E+01  2.1666666666667E+01  2.1666666666667E+01  2.1666666666667E+01  2.1666666666667E+01  2.1666666666667E+01 
 0.0000000000000E+00  0.0000000000000E+00  0.0000000000000E+00  0.0000000000000E+00  0.0000000000000E+00  0.0000000000000E+00  0.0000000000000E+00  0.0000000000000E+00  0.0000000000000E+00  0.0000000000000E+00 
 0.0000000000000E+00  0.0000000000000E+00  0.0000000000000E+00  0.0000000000000E+00  0.0000000000000E+00  0.0000000000000E+00  0.0000000000000E+00  0.0000000000000E+00  0.0000000000000E+00  0.0000000000000E+00 
 0.0000000000000E+00  0.0000000000000E+00  0.0000000000000E+00  0.0000000000000E+00  0.0000000000000E+00  0.0000000000000E+00  0.0000000000000E+00  0.0000000000000E+00  0.0000000000000E+00  0.0000000000000E+00 
 0.0000000000000E+00  0.0000000000000E+00  0.0000000000000E+00  0.0000000000000E+00  0.0000000000000E+00  0.0000000000000E+00  0.0000000000000E+00  0.0000000000000E+00  0.0000000000000E+00  0.0000000000000E+00 
 0.0000000000000E+00  0.0000000000000E+00  0.0000000000000E+00  0.0000000000000E+00  0.0000000000000E+00  0.0000000000000E+00  0.0000000000000E+00  0.0000000000000E+00  0.0000000000000E+00  0.0000000000000E+00 
 0.0000000000000E+00  0.0000000000000E+00  0.0000000000000E+00  0.0000000000000E+00  0.0000000000000E+00  0.0000000000000E+00  0.0000000000000E+00  0.0000000000000E+00  0.0000000000000E+00  0.0000000000000E+00 
 0.0000000000000E+00  0.0000000000000E+00  0.0000000000000E+00  0.0000000000000E+00  0.0000000000000E+00  0.0000000000000E+00  0.0000000000000E+00  0.0000000000000E+00  0.0000000000000E+00  0.0000000000000E+00 
ZONE T = "ANOD, 1.0000E-08", I = 10, SOLUTIONTIME = 1.000000E-08
ZONETYPE = ORDERED
DATAPACKING = BLOCK
STRANDID = 1
 0.0000000000000E+00  8.7488888888889E-05  1.7497777777778E-04  2.6246666666667E-04  3.4995555555556E-04  4.3744444444444E-04  5.2493333333333E-04  6.1242222222222E-04  6.9991111111111E-04  7.8740000000000E-04 
 1.1586269560430E-09  3.4762462833911E-09  5.7935110412949E-09  8.1107908682116E-09  1.0428455402287E-08  1.2746147866208E-08  1.5063874690696E-08  1.7381642306562E-08  1.9699457145115E-08  2.0859299410549E-08 
 9.1999999999930E-01  9.1999999999930E-01  9.1999999999930E-01  9.1999999999930E-01  9.1999999999930E-01  9.1999999999930E-01  9.1999999999930E-01  9.1999999999930E-01  9.1999999999930E-01  9.1999999999971E-01 
 4.0000000000348E-02  4.0000000000348E-02  4.0000000000348E-02  4.0000000000348E-02  4.0000000000348E-02  4.0000000000348E-02  4.0000000000348E-02  4.0000000000348E-02  4.0000000000348E-02  4.0000000000144E-02 
 4.0000000000348E-02  4.0000000000348E-02  4.0000000000348E-02  4.0000000000348E-02  4.0000000000348E-02  4.0000000000348E-02  4.0000000000348E-02  4.0000000000348E-02  4.0000000000348E-02  4.0000000000144E-02 
 2.9167370853821E-02  2.9167355126735E-02  2.9167307945448E-02  2.9167229309843E-02  2.9167119219714E-02  2.9166977674770E-02  2.9166804674633E-02  2.9166600218835E-02  2.9166364306824E-02  2.9166096937959E-02 
 0.0000000000000E+00 -4.7371210103853E-09 -8.9169542173116E-09 -1.2539497544002E-08 -1.5604747367575E-08 -1.8112698519119E-08 -2.0063344283758E-08 -2.1456676400547E-08 -2.2292685062451E-08 -2.2571358916225E-08 
-2.9167370853821E-02 -2.9167359863856E-02 -2.9167316862403E-02 -2.9167241849340E-02 -2.9167134824461E-02 -2.9166995787469E-02 -2.9166824737977E-02 -2.9166621675512E-02 -2.9166386599509E-02 -2.9166119509318E-02 
-4.0906712752891E-02 -4.0906712752891E-02 -4.0906712752891E-02 -4.0906712752891E-02 -4.0906712752891E-02 -4.0906712752891E-02 -4.0906712752891E-02 -4.0906712752891E-02 -4.0906712752891E-02 -4.0906712753022E-02 
 1.1739341899070E-02  1.1739352889035E-02  1.1739395890489E-02  1.1739470903551E-02  1.1739577928430E-02  1.1739716965422E-02  1.1739888014914E-02  1.1740091077379E-02  1.1740326153382E-02  1.1740593243704E-02 
 1.6690491449845E+00  3.3381014691606E+00  3.3381139086797E+00  3.3381356085661E+00  3.3381665688892E+00  3.3382067897477E+00  3.3382562712701E+00  3.3383150136145E+00  3.3383830169685E+00  1.6692301407747E+00 
 8.6491803274496E-09  2.5947557451142E-08  4.3245999040837E-08  6.0544553088019E-08  7.7843267574111E-08  9.5142190499089E-08  1.1244136984006E-07  1.2974085359769E-07  1.4704076188329E-07  1.4704076188329E-07 
 0.0000000000000E+00  3.3380778849709E+00  6.6761635791804E+00  1.0014266343477E+01  1.3352395438710E+01  1.6690560125174E+01  2.0028769663167E+01  2.3367033313354E+01  2.6705360337466E+01  3.0043770991421E+01 
 3.0043770993861E+01  2.6705682111633E+01  2.3367596417340E+01  2.0029493652950E+01  1.6691364557727E+01  1.3353199871355E+01  1.0014990333401E+01  6.6767266830543E+00  3.3383996590779E+00  0.0000000000000E+00 
 1.6690491449845E-08  3.3381014691606E-08  3.3381139086797E-08  3.3381356085661E-08  3.3381665688892E-08  3.3382067897477E-08  3.3382562712701E-08  3.3383150136145E-08  3.3383830169685E-08  1.6692301407747E-08 
 9.1448444543298E+04  1.8289688908660E+05  1.8289688908660E+05  1.8289688908660E+05  1.8289688908660E+05  1.8289688908660E+05  1.8289688908660E+05  1.8289688908660E+05  1.8289688908660E+05  9.1448444543298E+04 
 3.6579377817311E+05  7.3158755634621E+05  7.3158755634621E+05  7.3158755634621E+05  7.3158755634621E+05  7.3158755634622E+05  7.3158755634622E+05  7.3158755634621E+05  7.3158755634621E+05  3.6579377817311E+05 
 4.5724222271641E+05  9.1448444543281E+05  9.1448444543281E+05  9.1448444543281E+05  9.1448444543281E+05  9.1448444543281E+05  9.1448444543281E+05  9.1448444543281E+05  9.1448444543281E+05  4.5724222271640E+05 
 3.5000000000000E-01  3.5000000000000E-01  3.5000000000000E-01  3.5000000000000E-01  3.5000000000000E-01  3.5000000000000E-01  3.5000000000000E-01  3.5000000000000E-01  3.5000000000000E-01  3.5000000000000E-01 
 8.5301666666666E+00  1.7060333333333E+01  1.7060333333333E+01  1.7060333333333E+01  1.7060333333333E+01  1.7060333333333E+01  1.7060333333333E+01  1.7060333333333E+01  1.7060333333333E+01  8.5301666666666E+00 
 1.9566430647910E-01  1.9566449282901E-01  1.9566522197767E-01  1.9566649392740E-01  1.9566830868227E-01  1.9567066624808E-01  1.9567356663235E-01  1.9567700984435E-01  1.9568099589507E-01  1.9568552479725E-01 
 4.3744444444444E-05  8.7488888888889E-05  8.7488888888889E-05  8.7488888888889E-05  8.7488888888889E-05  8.7488888888889E-05  8.7488888888889E-05  8.7488888888889E-05  8.7488888888889E-05  4.3744444444444E-05 
 8.6666666666663E+01  8.6666666666663E+01  8.6666666666663E+01  8.6666666666663E+01  8.6666666666663E+01  8.6666666666663E+01  8.6666666666663E+01  8.6666666666663E+01  8.6666666666663E+01  8.6666666666663E+01 
 2.1666666666671E+01  2.1666666666671E+01  2.1666666666671E+01  2.1666666666671E+01  2.1666666666671E+01  2.1666666666671E+01  2.1666666666671E+01  2.1666666666671E+01  2.1666666666671E+01  2.1666666666671E+01 
 1.8363885868777E-11  2.8663916449183E-11  6.1477851786645E-11  1.1871978532594E-10  2.0039035227261E-10  3.0649045890928E-10  4.3702128258496E-10  5.9198427176154E-10  7.7138114606006E-10  8.6718828638544E-10 
 1.8363885868777E-03  2.8663916449183E-03  6.1477851786645E-03  1.1871978532594E-02  2.0039035227261E-02  3.0649045890928E-02  4.3702128258496E-02  5.9198427176154E-02  7.7138114606006E-02  8.6718828638544E-02 
 3.0002788163596E-04  1.5001411229568E-03  5.1004925985295E-03  1.1101119131568E-02  1.9502084180151E-02  3.0303477838113E-02  4.3505416834015E-02  5.9108044535777E-02  7.7111530955268E-02  8.6713511760731E-02 
 1.5363607052418E-03  1.3662505219616E-03  1.0472925801351E-03  7.7085940102527E-04  5.3695104710972E-04  3.4556805281470E-04  1.9671142448161E-04  9.0382640377131E-05  2.6583650737807E-05  5.3168778128312E-06 
 0.0000000000000E+00  0.0000000000000E+00  0.0000000000000E+00  0.0000000000000E+00  0.0000000000000E+00  0.0000000000000E+00  0.0000000000000E+00  0.0000000000000E+00  0.0000000000000E+00  0.0000000000000E+00 
 0.0000000000000E+00  0.0000000000000E+00  0.0000000000000E+00  0.0000000000000E+00  0.0000000000000E+00  0.0000000000000E+00  0.0000000000000E+00  0.0000000000000E+00  0.0000000000000E+00  0.0000000000000E+00 
 0.0000000000000E+00  0.0000000000000E+00  0.0000000000000E+00  0.0000000000000E+00  0.0000000000000E+00  0.0000000000000E+00  0.0000000000000E+00  0.0000000000000E+00  0.0000000000000E+00  0.0000000000000E+00 
ZONE T = "ANOD, 2.0000E-08", I = 10, SOLUTIONTIME = 2.000000E-08
ZONETYPE = ORDERED
DATAPACKING = BLOCK
STRANDID = 1
 0.0000000000000E+00  8.7488888888889E-05  1.7497777777778E-04  2.6246666666667E-04  3.4995555555556E-04  4.3744444444444E-04  5.2493333333333E-04  6.1242222222222E-04  6.9991111111111E-04  7.8740000000000E-04 
 1.1589975177539E-09  3.4769947609262E-09  5.7950006422296E-09  8.1130215921605E-09  1.0431064041263E-08  1.2748408004694E-08  1.5065786328610E-08  1.7383568651552E-08  1.9701398196731E-08  2.0861247815316E-08 
 9.1999999999861E-01  9.1999999999861E-01  9.1999999999861E-01  9.1999999999861E-01  9.1999999999861E-01  9.1999999999861E-01  9.1999999999861E-01  9.1999999999861E-01  9.1999999999861E-01  9.1999999999942E-01 
 4.0000000000696E-02  4.0000000000696E-02  4.0000000000696E-02  4.0000000000696E-02  4.0000000000696E-02  4.0000000000696E-02  4.0000000000696E-02  4.0000000000696E-02  4.0000000000696E-02  4.0000000000288E-02 
 4.0000000000696E-02  4.0000000000696E-02  4.0000000000696E-02  4.0000000000696E-02  4.0000000000696E-02  4.0000000000696E-02  4.0000000000696E-02  4.0000000000696E-02  4.0000000000696E-02  4.0000000000288E-02 
 2.9167373666104E-02  2.9167357938918E-02  2.9167310757332E-02  2.9167232121227E-02  2.9167122030400E-02  2.9166980484558E-02  2.9166807483323E-02  2.9166603026228E-02  2.9166367112720E-02  2.9166099742159E-02 
 0.0000000000000E+00 -4.7371510660617E-09 -8.9170107925197E-09 -1.2539577102600E-08 -1.5604846373514E-08 -1.8112813436445E-08 -2.0063471576532E-08 -2.1456812532852E-08 -2.2292826498388E-08 -2.2571502120000E-08 
-2.9167373666104E-02 -2.9167362676069E-02 -2.9167319674343E-02 -2.9167244660804E-02 -2.9167137635246E-02 -2.9166998597372E-02 -2.9166827546795E-02 -2.9166624483041E-02 -2.9166389405547E-02 -2.9166122313661E-02 
-4.0906712752384E-02 -4.0906712752389E-02 -4.0906712752384E-02 -4.0906712752384E-02 -4.0906712752388E-02 -4.0906712752386E-02 -4.0906712752386E-02 -4.0906712752388E-02 -4.0906712752388E-02 -4.0906712752650E-02 
 1.1739339086281E-02  1.1739350076319E-02  1.1739393078042E-02  1.1739468091580E-02  1.1739575117141E-02  1.1739714155014E-02  1.1739885205591E-02  1.1740088269347E-02  1.1740323346841E-02  1.1740590438989E-02 
 1.6690487381535E+00  3.3381006555200E+00  3.3381130951168E+00  3.3381347951406E+00  3.3381657556604E+00  3.3382059767732E+00  3.3382554586090E+00  3.3383142013259E+00  3.3383822051105E+00  1.6692297351050E+00 
 8.6492352084130E-09  2.5947722095941E-08  4.3246273449470E-08  6.0544937252508E-08  7.7843761499652E-08  9.5142794177552E-08  1.1244208327507E-07  1.2974167678890E-07  1.4704176694254E-07  1.4704176694254E-07 
 0.0000000000000E+00  3.3380990659879E+00  6.6762059413984E+00  1.0014329886344E+01  1.3352480161673E+01  1.6690666027866E+01  2.0028896745587E+01  2.3367181575686E+01  2.6705529778938E+01  3.0043950616499E+01 
 3.0043950616515E+01  2.6705851550602E+01  2.3367744675283E+01  2.0029620730155E+01  1.6691470454754E+01  1.3353284588537E+01  1.0015053870846E+01  6.6767690408785E+00  3.3384208376603E+00  0.0000000000000E+00 
 3.3380978831380E-08  6.6762021246805E-08  6.6762270037965E-08  6.6762704037068E-08  6.6763323245496E-08  6.6764127665209E-08  6.6765117298791E-08  6.6766292149404E-08  6.6767652220791E-08  3.3384598758797E-08 
 9.1448444543314E+04  1.8289688908663E+05  1.8289688908663E+05  1.8289688908663E+05  1.8289688908663E+05  1.8289688908663E+05  1.8289688908663E+05  1.8289688908663E+05  1.8289688908663E+05  9.1448444543314E+04 
 3.6579377817309E+05  7.3158755634618E+05  7.3158755634618E+05  7.3158755634618E+05  7.3158755634618E+05  7.3158755634618E+05  7.3158755634618E+05  7.3158755634618E+05  7.3158755634618E+05  3.6579377817309E+05 
 4.5724222271641E+05  9.1448444543281E+05  9.1448444543281E+05  9.1448444543281E+05  9.1448444543281E+05  9.1448444543281E+05  9.1448444543281E+05  9.1448444543281E+05  9.1448444543281E+05  4.5724222271641E+05 
 3.5000000000000E-01  3.5000000000000E-01  3.5000000000000E-01  3.5000000000000E-01  3.5000000000000E-01  3.5000000000000E-01  3.5000000000000E-01  3.5000000000000E-01  3.5000000000000E-01  3.5000000000000E-01 
 8.5301666666666E+00  1.7060333333333E+01  1.7060333333333E+01  1.7060333333333E+01  1.7060333333333E+01  1.7060333333333E+01  1.7060333333333E+01  1.7060333333333E+01  1.7060333333333E+01  8.5301666666666E+00 
 1.9566425878590E-01  1.9566444513706E-01  1.9566517429027E-01  1.9566644624806E-01  1.9566826101447E-01  1.9567061859518E-01  1.9567351899781E-01  1.9567696223164E-01  1.9568094830761E-01  1.9568547724019E-01 
 4.3744444444444E-05  8.7488888888889E-05  8.7488888888889E-05  8.7488888888889E-05  8.7488888888889E-05  8.7488888888889E-05  8.7488888888889E-05  8.7488888888889E-05  8.7488888888889E-05  4.3744444444444E-05 
 8.6666666666659E+01  8.6666666666659E+01  8.6666666666659E+01  8.6666666666659E+01  8.6666666666659E+01  8.6666666666659E+01  8.6666666666659E+01  8.6666666666659E+01  8.6666666666659E+01  8.6666666666659E+01 
 2.1666666666675E+01  2.1666666666675E+01  2.1666666666675E+01  2.1666666666675E+01  2.1666666666675E+01  2.1666666666675E+01  2.1666666666675E+01  2.1666666666675E+01  2.1666666666675E+01  2.1666666666675E+01 
 3.6728004768509E-11  5.7328196644287E-11  1.2295648375085E-10  2.3744107725238E-10  4.0078324755612E-10  6.1298480722418E-10  8.7404811097370E-10  1.1839760557423E-09  1.5427720807334E-09  1.7343875770704E-09 
 1.8364118899732E-03  2.8664280195103E-03  6.1478631964209E-03  1.1872129192644E-02  2.0039289528352E-02  3.0649434831490E-02  4.3702682838874E-02  5.9199178398071E-02  7.7139093467332E-02  8.6719929068500E-02 
 6.0005957076802E-04  3.0003012836035E-03  1.0201049925471E-02  2.2202379141709E-02  3.9004415848081E-02  6.0607340231971E-02  8.7011385752429E-02  1.1821683914667E-01  1.5422404043457E-01  1.7342812388396E-01 
 3.0727409060829E-03  2.7325183808252E-03  2.0945984496145E-03  1.5417285835285E-03  1.0739089075311E-03  6.9114049044670E-04  3.9342534494149E-04  1.8076642755449E-04  5.3167638768311E-05  1.0633823083856E-05 
 0.0000000000000E+00  0.0000000000000E+00  0.0000000000000E+00  0.0000000000000E+00  0.0000000000000E+00  0.0000000000000E+00  0.0000000000000E+00  0.0000000000000E+00  0.0000000000000E+00  0.0000000000000E+00 
 0.0000000000000E+00  0.0000000000000E+00  0.0000000000000E+00  0.0000000000000E+00  0.0000000000000E+00  0.0000000000000E+00  0.0000000000000E+00  0.0000000000000E+00  0.0000000000000E+00  0.0000000000000E+00 
 0.0000000000000E+00  0.0000000000000E+00  0.0000000000000E+00  0.0000000000000E+00  0.0000000000000E+00  0.0000000000000E+00  0.0000000000000E+00  0.0000000000000E+00  0.0000000000000E+00  0.0000000000000E+00 
ZONE T = "ANOD, 3.0000E-08", I = 10, SOLUTIONTIME = 3.000000E-08
ZONETYPE = ORDERED
DATAPACKING = BLOCK
STRANDID = 1
 0.0000000000000E+00  8.7488888888889E-05  1.7497777777778E-04  2.6246666666667E-04  3.4995555555556E-04  4.3744444444444E-04  5.2493333333333E-04  6.1242222222222E-04  6.9991111111111E-04  7.8740000000000E-04 
 1.1589975177341E-09  3.4769947608652E-09  5.7950006421290E-09  8.1130215920203E-09  1.0431064041083E-08  1.2749860835385E-08  1.5068691990173E-08  1.7387563936257E-08  1.9706119896851E-08  2.0864516684515E-08 
 9.1999999999791E-01  9.1999999999791E-01  9.1999999999791E-01  9.1999999999791E-01  9.1999999999791E-01  9.1999999999791E-01  9.1999999999791E-01  9.1999999999791E-01  9.1999999999791E-01  9.1999999999914E-01 
 4.0000000001045E-02  4.0000000001045E-02  4.0000000001045E-02  4.0000000001045E-02  4.0000000001045E-02  4.0000000001045E-02  4.0000000001045E-02  4.0000000001045E-02  4.0000000001045E-02  4.0000000000432E-02 
 4.0000000001045E-02  4.0000000001045E-02  4.0000000001045E-02  4.0000000001045E-02  4.0000000001045E-02  4.0000000001045E-02  4.0000000001045E-02  4.0000000001045E-02  4.0000000001045E-02  4.0000000000432E-02 
 2.9167373665889E-02  2.9167357938704E-02  2.9167310757117E-02  2.9167232121013E-02  2.9167122030185E-02  2.9166980484344E-02  2.9166807483109E-02  2.9166603026014E-02  2.9166367112506E-02  2.9166099741944E-02 
 0.0000000000000E+00 -4.7371510659821E-09 -8.9170107923703E-09 -1.2539577102391E-08 -1.5604846373254E-08 -1.8112813436143E-08 -2.0063471576200E-08 -2.1456812532497E-08 -2.2292826498021E-08 -2.2571502119631E-08 
-2.9167373665889E-02 -2.9167362675855E-02 -2.9167319674128E-02 -2.9167244660590E-02 -2.9167137635032E-02 -2.9166998597157E-02 -2.9166827546580E-02 -2.9166624482826E-02 -2.9166389405333E-02 -2.9166122313446E-02 
-4.0906712751885E-02 -4.0906712751881E-02 -4.0906712751885E-02 -4.0906712751885E-02 -4.0906712751882E-02 -4.0906712751888E-02 -4.0906712751888E-02 -4.0906712751882E-02 -4.0906712751882E-02 -4.0906712752276E-02 
 1.1739339085996E-02  1.1739350076026E-02  1.1739393077757E-02  1.1739468091296E-02  1.1739575116851E-02  1.1739714154731E-02  1.1739885205308E-02  1.1740088269056E-02  1.1740323346550E-02  1.1740590438830E-02 
 1.6690487381250E+00  3.3381006554607E+00  3.3381130950597E+00  3.3381347950836E+00  3.3381657556019E+00  3.3382059767166E+00  3.3382554585524E+00  3.3383142012674E+00  3.3383822050521E+00  1.6692297350905E+00 
 8.6492352081413E-09  2.5947722096513E-08  4.3246273447939E-08  6.0544937245048E-08  7.7843761501898E-08  9.5142794174565E-08  1.1244208327189E-07  1.2974167678239E-07  1.4704183906070E-07  1.4704183906070E-07 
 0.0000000000000E+00  3.3380990660169E+00  6.6762059410884E+00  1.0014329886063E+01  1.3352480161605E+01  1.6690666027643E+01  2.0028896745209E+01  2.3367181575337E+01  2.6705529778398E+01  3.0043950615923E+01 
 3.0043950616010E+01  2.6705851550154E+01  2.3367744674894E+01  2.0029620729822E+01  1.6691470454480E+01  1.3353284588320E+01  1.0015053870686E+01  6.6767690407762E+00  3.3384208376165E+00  0.0000000000000E+00 
 5.0071466212630E-08  1.0014302780141E-07  1.0014340098856E-07  1.0014405198790E-07  1.0014498080152E-07  1.0014618743238E-07  1.0014767188431E-07  1.0014943416208E-07  1.0015147427131E-07  5.0076896109702E-08 
 9.1448444543331E+04  1.8289688908666E+05  1.8289688908666E+05  1.8289688908666E+05  1.8289688908666E+05  1.8289688908666E+05  1.8289688908666E+05  1.8289688908666E+05  1.8289688908666E+05  9.1448444543331E+04 
 3.6579377817307E+05  7.3158755634615E+05  7.3158755634615E+05  7.3158755634615E+05  7.3158755634615E+05  7.3158755634615E+05  7.3158755634615E+05  7.3158755634615E+05  7.3158755634615E+05  3.6579377817307E+05 
 4.5724222271641E+05  9.1448444543281E+05  9.1448444543281E+05  9.1448444543281E+05  9.1448444543281E+05  9.1448444543281E+05  9.1448444543281E+05  9.1448444543281E+05  9.1448444543281E+05  4.5724222271641E+05 
 3.5000000000000E-01  3.5000000000000E-01  3.5000000000000E-01  3.5000000000000E-01  3.5000000000000E-01  3.5000000000000E-01  3.5000000000000E-01  3.5000000000000E-01  3.5000000000000E-01  3.5000000000000E-01 
 8.5301666666666E+00  1.7060333333333E+01  1.7060333333333E+01  1.7060333333333E+01  1.7060333333333E+01  1.7060333333333E+01  1.7060333333333E+01  1.7060333333333E+01  1.7060333333333E+01  8.5301666666666E+00 
 1.9566425878256E-01  1.9566444513359E-01  1.9566517428693E-01  1.9566644624471E-01  1.9566826101103E-01  1.9567061859186E-01  1.9567351899449E-01  1.9567696222821E-01  1.9568094830418E-01  1.9568547723849E-01 
 4.3744444444444E-05  8.7488888888889E-05  8.7488888888889E-05  8.7488888888889E-05  8.7488888888889E-05  8.7488888888889E-05  8.7488888888889E-05  8.7488888888889E-05  8.7488888888889E-05  4.3744444444444E-05 
 8.6666666666655E+01  8.6666666666655E+01  8.6666666666655E+01  8.6666666666655E+01  8.6666666666655E+01  8.6666666666655E+01  8.6666666666655E+01  8.6666666666655E+01  8.6666666666655E+01  8.6666666666655E+01 
 2.1666666666679E+01  2.1666666666679E+01  2.1666666666679E+01  2.1666666666679E+01  2.1666666666679E+01  2.1666666666679E+01  2.1666666666679E+01  2.1666666666679E+01  2.1666666666679E+01  2.1666666666679E+01 
 5.5092123669074E-11  8.5992476837739E-11  1.8443511570986E-10  3.5616236917159E-10  6.0117614283653E-10  9.1947915552704E-10  1.3110749393430E-09  1.7759678396996E-09  2.3141630153699E-09  2.6015868677158E-09 
 1.8364118900565E-03  2.8664280193452E-03  6.1478631959010E-03  1.1872129191921E-02  2.0039289528041E-02  3.0649434830286E-02  4.3702682836930E-02  5.9199178395737E-02  7.7139093463656E-02  8.6719929064532E-02 
 9.0009126003506E-04  4.5004614441308E-03  1.5301607251927E-02  3.3303639151153E-02  5.8506747515718E-02  9.0911202624637E-02  1.3051735466891E-01  1.7732563375523E-01  2.3133654991020E-01  2.6014273600322E-01 
 4.6091211068723E-03  4.0987862396431E-03  3.1419043190590E-03  2.3125977660061E-03  1.6108667679348E-03  1.0367129280675E-03  5.9013926539508E-04  2.7115021472905E-04  7.9751626798070E-05  1.5950768354788E-05 
 0.0000000000000E+00  0.0000000000000E+00  0.0000000000000E+00  0.0000000000000E+00  0.0000000000000E+00  0.0000000000000E+00  0.0000000000000E+00  0.0000000000000E+00  0.0000000000000E+00  0.0000000000000E+00 
 0.0000000000000E+00  0.0000000000000E+00  0.0000000000000E+00  0.0000000000000E+00  0.0000000000000E+00  0.0000000000000E+00  0.0000000000000E+00  0.0000000000000E+00  0.0000000000000E+00  0.0000000000000E+00 
 0.0000000000000E+00  0.0000000000000E+00  0.0000000000000E+00  0.0000000000000E+00  0.0000000000000E+00  0.0000000000000E+00  0.0000000000000E+00  0.0000000000000E+00  0.0000000000000E+00  0.0000000000000E+00 
ZONE T = "ANOD, 4.0000E-08", I = 10, SOLUTIONTIME = 4.000000E-08
ZONETYPE = ORDERED
DATAPACKING = BLOCK
STRANDID = 1
 0.0000000000000E+00  8.7488888888889E-05  1.7497777777778E-04  2.6246666666667E-04  3.4995555555556E-04  4.3744444444444E-04  5.2493333333333E-04  6.1242222222222E-04  6.9991111111111E-04  7.8740000000000E-04 
 1.1588159138498E-09  3.4764499492139E-09  5.7940926227091E-09  8.1128399880153E-09  1.0430519229310E-08  1.2747863192661E-08  1.5064878308769E-08  1.7383023839357E-08  1.9701579799912E-08  2.0860703003022E-08 
 9.1999999999721E-01  9.1999999999721E-01  9.1999999999721E-01  9.1999999999721E-01  9.1999999999721E-01  9.1999999999721E-01  9.1999999999721E-01  9.1999999999721E-01  9.1999999999721E-01  9.1999999999885E-01 
 4.0000000001393E-02  4.0000000001393E-02  4.0000000001393E-02  4.0000000001393E-02  4.0000000001393E-02  4.0000000001393E-02  4.0000000001393E-02  4.0000000001393E-02  4.0000000001393E-02  4.0000000000576E-02 
 4.0000000001393E-02  4.0000000001393E-02  4.0000000001393E-02  4.0000000001393E-02  4.0000000001393E-02  4.0000000001393E-02  4.0000000001393E-02  4.0000000001393E-02  4.0000000001393E-02  4.0000000000576E-02 
 2.9167373665674E-02  2.9167357938489E-02  2.9167310756902E-02  2.9167232120798E-02  2.9167122029970E-02  2.9166980484129E-02  2.9166807482894E-02  2.9166603025799E-02  2.9166367112291E-02  2.9166099741729E-02 
 0.0000000000000E+00 -4.7371510659025E-09 -8.9170107922206E-09 -1.2539577102181E-08 -1.5604846372993E-08 -1.8112813435842E-08 -2.0063471575867E-08 -2.1456812532143E-08 -2.2292826497655E-08 -2.2571502119263E-08 
-2.9167373665674E-02 -2.9167362675640E-02 -2.9167319673913E-02 -2.9167244660375E-02 -2.9167137634817E-02 -2.9166998596942E-02 -2.9166827546365E-02 -2.9166624482611E-02 -2.9166389405117E-02 -2.9166122313231E-02 
-4.0906712751379E-02 -4.0906712751383E-02 -4.0906712751379E-02 -4.0906712751379E-02 -4.0906712751383E-02 -4.0906712751380E-02 -4.0906712751380E-02 -4.0906712751383E-02 -4.0906712751383E-02 -4.0906712751908E-02 
 1.1739339085704E-02  1.1739350075743E-02  1.1739393077466E-02  1.1739468091004E-02  1.1739575116567E-02  1.1739714154438E-02  1.1739885205015E-02  1.1740088268772E-02  1.1740323346266E-02  1.1740590438677E-02 
 1.6690487380956E+00  3.3381006554042E+00  3.3381130950009E+00  3.3381347950248E+00  3.3381657555451E+00  3.3382059766575E+00  3.3382554584932E+00  3.3383142012104E+00  3.3383822049951E+00  1.6692297350767E+00 