TITLE = "Solution on Domain BulkDomain1D_0"
VARIABLES = "x [m]"  
"Vel_axial" 
"MF_sp(ECDMC)" 
"MF_sp(Li+)" 
"MF_sp(PF6-)" 
"Volt(Electroly)" 
"Volt(AnodeVolt)" 
"Potential Drop Electrode-Electrolyte [V]" 
"Surf_0 Equilibrium Potential Drop Electrode-Electrolyte [V]" 
"Overpotential_0 [V]" 
"Current Source [A/m^2]" 
"Li+ flux [kmol/m^2/s]" 
"Electrolyte Current [A/m^2]" 
"Electrode Current [A/m^2]" 
"CV Capacity discharged [A-s/m^2]" 
"Depth of discharge in CV [A-s/m^2]" 
"CV Capacity remaining [A-s/m^2]" 
"Initial CV capacity [A-s/m^2]" 
"Porosity []" 
"Surface Area [m2/m2] (area per area)" 
"Specific current (per particle area) [A/m^2]" 
"Control volume thickness [m]" 
"MoleDens Li_C6-bulk [kmol/m^3]" 
"MoleDens V_C6-bulk [kmol/m^3]" 
"qHeat_accum [J/m3]" 
"qHeat_step [W/m3]" 
"Joule_Lyte [W/m3]" 
"Joule_Solid [W/m3]" 
"electrodHeat [W/m3]" 
"OverpotHeat [W/m3]" 
"deltaSHeat [W/m3]" 

ZONE T = "ANOD, 0.0000E+00", I = 10, SOLUTIONTIME = 0.000000E+00
ZONETYPE = ORDERED
DATAPACKING = BLOCK
STRANDID = 1
 0.0000000000000E+00  8.7488888888889E-05  1.7497777777778E-04  2.6246666666667E-04  3.4995555555556E-04  4.3744444444444E-04  5.2493333333333E-04  6.1242222222222E-04  6.9991111111111E-04  7.8740000000000E-04 
 0.0000000000000E+00  0.0000000000000E+00  0.0000000000000E+00  0.0000000000000E+00  0.0000000000000E+00  0.0000000000000E+00  0.0000000000000E+00  0.0000000000000E+00  0.0000000000000E+00  0.0000000000000E+00 
 9.2000000000000E-01  9.2000000000000E-01  9.2000000000000E-01  9.2000000000000E-01  9.2000000000000E-01  9.2000000000000E-01  9.2000000000000E-01  9.2000000000000E-01  9.2000000000000E-01  9.2000000000000E-01 
 4.0000000000000E-02  4.0000000000000E-02  4.0000000000000E-02  4.0000000000000E-02  4.0000000000000E-02  4.0000000000000E-02  4.0000000000000E-02  4.0000000000000E-02  4.0000000000000E-02  4.0000000000000E-02 
 4.0000000000000E-02  4.0000000000000E-02  4.0000000000000E-02  4.0000000000000E-02  4.0000000000000E-02  4.0000000000000E-02  4.0000000000000E-02  4.0000000000000E-02  4.0000000000000E-02  4.0000000000000E-02 
-7.0000000000000E-02 -7.0000000000000E-02 -7.0000000000000E-02 -7.0000000000000E-02 -7.0000000000000E-02 -7.0000000000000E-02 -7.0000000000000E-02 -7.0000000000000E-02 -7.0000000000000E-02 -7.0000000000000E-02 
 0.0000000000000E+00  0.0000000000000E+00  0.0000000000000E+00  0.0000000000000E+00  0.0000000000000E+00  0.0000000000000E+00  0.0000000000000E+00  0.0000000000000E+00  0.0000000000000E+00  0.0000000000000E+00 
 7.0000000000000E-02  7.0000000000000E-02  7.0000000000000E-02  7.0000000000000E-02  7.0000000000000E-02  7.0000000000000E-02  7.0000000000000E-02  7.0000000000000E-02  7.0000000000000E-02  7.0000000000000E-02 
-4.0906712753392E-02 -4.0906712753392E-02 -4.0906712753392E-02 -4.0906712753392E-02 -4.0906712753392E-02 -4.0906712753392E-02 -4.0906712753392E-02 -4.0906712753392E-02 -4.0906712753392E-02 -4.0906712753392E-02 
 1.1090671275339E-01  1.1090671275339E-01  1.1090671275339E-01  1.1090671275339E-01  1.1090671275339E-01  1.1090671275339E-01  1.1090671275339E-01  1.1090671275339E-01  1.1090671275339E-01  1.1090671275339E-01 
 3.0930240924008E+01  6.1860481848017E+01  6.1860481848017E+01  6.1860481848017E+01  6.1860481848016E+01  6.1860481848017E+01  6.1860481848017E+01  6.1860481848016E+01  6.1860481848016E+01  3.0930240924008E+01 
-0.0000000000000E+00 -0.0000000000000E+00 -0.0000000000000E+00 -0.0000000000000E+00 -0.0000000000000E+00 -0.0000000000000E+00 -0.0000000000000E+00 -0.0000000000000E+00 -0.0000000000000E+00 -0.0000000000000E+00 
 0.0000000000000E+00  0.0000000000000E+00  0.0000000000000E+00  0.0000000000000E+00  0.0000000000000E+00  0.0000000000000E+00  0.0000000000000E+00  0.0000000000000E+00  0.0000000000000E+00  3.0930240924008E+01 
 3.0930240924008E+01 -0.0000000000000E+00 -0.0000000000000E+00 -0.0000000000000E+00 -0.0000000000000E+00 -0.0000000000000E+00 -0.0000000000000E+00 -0.0000000000000E+00 -0.0000000000000E+00  0.0000000000000E+00 
 0.0000000000000E+00  0.0000000000000E+00  0.0000000000000E+00  0.0000000000000E+00  0.0000000000000E+00  0.0000000000000E+00  0.0000000000000E+00  0.0000000000000E+00  0.0000000000000E+00  0.0000000000000E+00 
 9.1448444543281E+04  1.8289688908656E+05  1.8289688908656E+05  1.8289688908656E+05  1.8289688908656E+05  1.8289688908656E+05  1.8289688908656E+05  1.8289688908656E+05  1.8289688908656E+05  9.1448444543281E+04 
 3.6579377817312E+05  7.3158755634625E+05  7.3158755634625E+05  7.3158755634625E+05  7.3158755634625E+05  7.3158755634625E+05  7.3158755634625E+05  7.3158755634625E+05  7.3158755634625E+05  3.6579377817312E+05 
 4.5724222271640E+05  9.1448444543281E+05  9.1448444543281E+05  9.1448444543281E+05  9.1448444543281E+05  9.1448444543281E+05  9.1448444543281E+05  9.1448444543281E+05  9.1448444543281E+05  4.5724222271640E+05 
 3.5000000000000E-01  3.5000000000000E-01  3.5000000000000E-01  3.5000000000000E-01  3.5000000000000E-01  3.5000000000000E-01  3.5000000000000E-01  3.5000000000000E-01  3.5000000000000E-01  3.5000000000000E-01 
 8.5301666666666E+00  1.7060333333333E+01  1.7060333333333E+01  1.7060333333333E+01  1.7060333333333E+01  1.7060333333333E+01  1.7060333333333E+01  1.7060333333333E+01  1.7060333333333E+01  8.5301666666666E+00 
 3.6259831879809E+00  3.6259831879809E+00  3.6259831879809E+00  3.6259831879809E+00  3.6259831879809E+00  3.6259831879809E+00  3.6259831879809E+00  3.6259831879809E+00  3.6259831879809E+00  3.6259831879809E+00 
 4.3744444444444E-05  8.7488888888889E-05  8.7488888888889E-05  8.7488888888889E-05  8.7488888888889E-05  8.7488888888889E-05  8.7488888888889E-05  8.7488888888889E-05  8.7488888888889E-05  4.3744444444444E-05 
 8.6666666666666E+01  8.6666666666666E+01  8.6666666666666E+01  8.6666666666666E+01  8.6666666666666E+01  8.6666666666666E+01  8.6666666666666E+01  8.6666666666666E+01  8.6666666666666E+01  8.6666666666666E+01 
 2.1666666666667E+01  2.1666666666667E+01  2.1666666666667E+01  2.1666666666667E+01  2.1666666666667E+01  2.1666666666667E+01  2.1666666666667E+01  2.1666666666667E+01  2.1666666666667E+01  2.1666666666667E+01 
 0.0000000000000E+00  0.0000000000000E+00  0.0000000000000E+00  0.0000000000000E+00  0.0000000000000E+00  0.0000000000000E+00  0.0000000000000E+00  0.0000000000000E+00  0.0000000000000E+00  0.0000000000000E+00 
 0.0000000000000E+00  0.0000000000000E+00  0.0000000000000E+00  0.0000000000000E+00  0.0000000000000E+00  0.0000000000000E+00  0.0000000000000E+00  0.0000000000000E+00  0.0000000000000E+00  0.0000000000000E+00 
 0.0000000000000E+00  0.0000000000000E+00  0.0000000000000E+00  0.0000000000000E+00  0.0000000000000E+00  0.0000000000000E+00  0.0000000000000E+00  0.0000000000000E+00  0.0000000000000E+00  0.0000000000000E+00 
 0.0000000000000E+00  0.0000000000000E+00  0.0000000000000E+00  0.0000000000000E+00  0.0000000000000E+00  0.0000000000000E+00  0.0000000000000E+00  0.0000000000000E+00  0.0000000000000E+00  0.0000000000000E+00 
 0.0000000000000E+00  0.0000000000000E+00  0.0000000000000E+00  0.0000000000000E+00  0.0000000000000E+00  0.0000000000000E+00  0.0000000000000E+00  0.0000000000000E+00  0.0000000000000E+00  0.0000000000000E+00 
 0.0000000000000E+00  0.0000000000000E+00  0.0000000000000E+00  0.0000000000000E+00  0.0000000000000E+00  0.0000000000000E+00  0.0000000000000E+00  0.0000000000000E+00  0.0000000000000E+00  0.0000000000000E+00 
 0.0000000000000E+00  0.0000000000000E+00  0.0000000000000E+00  0.0000000000000E+00  0.0000000000000E+00  0.0000000000000E+00  0.0000000000000E+00  0.0000000000000E+00  0.0000000000000E+00  0.0000000000000E+00 
ZONE T = "ANOD, 1.0000E-08", I = 10, SOLUTIONTIME = 1.000000E-08
ZONETYPE = ORDERED
DATAPACKING = BLOCK
STRANDID = 1
 0.0000000000000E+00  8.7488888888889E-05  1.7497777777778E-04  2.6246666666667E-04  3.4995555555556E-04  4.3744444444444E-04  5.2493333333333E-04  6.1242222222222E-04  6.9991111111111E-04  7.8740000000000E-04 
 1.1589917712533E-09  3.4769775211729E-09  5.7949719094310E-09  8.1129813662586E-09  1.0431012322434E-08  1.2749071208547E-08  1.5067164455517E-08  1.7385298493893E-08  1.9703479754848E-08  2.0863323627606E-08 
 9.1999999999930E-01  9.1999999999930E-01  9.1999999999930E-01  9.1999999999930E-01  9.1999999999930E-01  9.1999999999930E-01  9.1999999999930E-01  9.1999999999930E-01  9.1999999999930E-01  9.1999999999971E-01 
 4.0000000000348E-02  4.0000000000348E-02  4.0000000000348E-02  4.0000000000348E-02  4.0000000000348E-02  4.0000000000348E-02  4.0000000000348E-02  4.0000000000348E-02  4.0000000000348E-02  4.0000000000144E-02 
 4.0000000000348E-02  4.0000000000348E-02  4.0000000000348E-02  4.0000000000348E-02  4.0000000000348E-02  4.0000000000348E-02  4.0000000000348E-02  4.0000000000348E-02  4.0000000000348E-02  4.0000000000144E-02 
 2.9167371470186E-02  2.9167355743084E-02  2.9167308561727E-02  2.9167229926019E-02  2.9167119835733E-02  2.9166978290587E-02  2.9166805290212E-02  2.9166600834132E-02  2.9166364921799E-02  2.9166097552559E-02 
 0.0000000000000E+00 -4.7371275800798E-09 -8.9169665837558E-09 -1.2539514934205E-08 -1.5604769008652E-08 -1.8112723638237E-08 -2.0063372108064E-08 -2.1456706157119E-08 -2.2292715978359E-08 -2.2571390218563E-08 
-2.9167371470186E-02 -2.9167360480211E-02 -2.9167317478694E-02 -2.9167242465534E-02 -2.9167135440502E-02 -2.9166996403310E-02 -2.9166825353584E-02 -2.9166622290839E-02 -2.9166387214515E-02 -2.9166120123950E-02 
-4.0906712752891E-02 -4.0906712752891E-02 -4.0906712752891E-02 -4.0906712752891E-02 -4.0906712752891E-02 -4.0906712752891E-02 -4.0906712752891E-02 -4.0906712752891E-02 -4.0906712752891E-02 -4.0906712753022E-02 
 1.1739341282705E-02  1.1739352272680E-02  1.1739395274197E-02  1.1739470287357E-02  1.1739577312389E-02  1.1739716349581E-02  1.1739887399307E-02  1.1740090462052E-02  1.1740325538376E-02  1.1740592629073E-02 
 1.6690490558331E+00  3.3381012908606E+00  3.3381137303980E+00  3.3381354303126E+00  3.3381663906798E+00  3.3382066115959E+00  3.3382560931861E+00  3.3383148356114E+00  3.3383828390579E+00  1.6692300518734E+00 
 8.6491892891557E-09  2.5947595398543E-08  4.3246055524477E-08  6.0544639554563E-08  7.7843379156502E-08  9.5142320914687E-08  1.1244152501920E-07  1.2974103063115E-07  1.4704096789412E-07  1.4704096789412E-07 
 0.0000000000000E+00  3.3380824110118E+00  6.6761726901735E+00  1.0014280136074E+01  1.3352414547310E+01  1.6690583474280E+01  2.0028797219089E+01  2.3367065367149E+01  2.6705397295623E+01  3.0043810656568E+01 
 3.0043810256301E+01  2.6705719148307E+01  2.3367628824040E+01  2.0029521429855E+01  1.6691387705311E+01  1.3353218389714E+01  1.0015004222266E+01  6.6767359421932E+00  3.3384042885452E+00  0.0000000000000E+00 
 1.6690490558331E-08  3.3381012908606E-08  3.3381137303980E-08  3.3381354303126E-08  3.3381663906798E-08  3.3382066115959E-08  3.3382560931861E-08  3.3383148356114E-08  3.3383828390579E-08  1.6692300518734E-08 
 9.1448444543298E+04  1.8289688908660E+05  1.8289688908660E+05  1.8289688908660E+05  1.8289688908660E+05  1.8289688908660E+05  1.8289688908660E+05  1.8289688908660E+05  1.8289688908660E+05  9.1448444543298E+04 
 3.6579377817311E+05  7.3158755634621E+05  7.3158755634621E+05  7.3158755634621E+05  7.3158755634621E+05  7.3158755634622E+05  7.3158755634622E+05  7.3158755634621E+05  7.3158755634621E+05  3.6579377817311E+05 
 4.5724222271641E+05  9.1448444543281E+05  9.1448444543281E+05  9.1448444543281E+05  9.1448444543281E+05  9.1448444543281E+05  9.1448444543281E+05  9.1448444543281E+05  9.1448444543281E+05  4.5724222271640E+05 
 3.5000000000000E-01  3.5000000000000E-01  3.5000000000000E-01  3.5000000000000E-01  3.5000000000000E-01  3.5000000000000E-01  3.5000000000000E-01  3.5000000000000E-01  3.5000000000000E-01  3.5000000000000E-01 
 8.5301666666666E+00  1.7060333333333E+01  1.7060333333333E+01  1.7060333333333E+01  1.7060333333333E+01  1.7060333333333E+01  1.7060333333333E+01  1.7060333333333E+01  1.7060333333333E+01  8.5301666666666E+00 
 1.9566429602780E-01  1.9566448237787E-01  1.9566521152760E-01  1.9566648347899E-01  1.9566829823645E-01  1.9567065580563E-01  1.9567355619387E-01  1.9567699941061E-01  1.9568098546675E-01  1.9568551437527E-01 
 4.3744444444444E-05  8.7488888888889E-05  8.7488888888889E-05  8.7488888888889E-05  8.7488888888889E-05  8.7488888888889E-05  8.7488888888889E-05  8.7488888888889E-05  8.7488888888889E-05  4.3744444444444E-05 
 8.6666666666663E+01  8.6666666666663E+01  8.6666666666663E+01  8.6666666666663E+01  8.6666666666663E+01  8.6666666666663E+01  8.6666666666663E+01  8.6666666666663E+01  8.6666666666663E+01  8.6666666666663E+01 
 2.1666666666671E+01  2.1666666666671E+01  2.1666666666671E+01  2.1666666666671E+01  2.1666666666671E+01  2.1666666666671E+01  2.1666666666671E+01  2.1666666666671E+01  2.1666666666671E+01  2.1666666666671E+01 
 1.8363934701908E-11  2.8663996942248E-11  6.1478018290004E-11  1.1872011463304E-10  2.0039092547816E-10  3.0649131448931E-10  4.3702248548604E-10  5.9198589525065E-10  7.7138328287393E-10  8.6719071632767E-10 
 1.8363934701908E-03  2.8663996942248E-03  6.1478018290004E-03  1.1872011463304E-02  2.0039092547816E-02  3.0649131448931E-02  4.3702248548604E-02  5.9198589525065E-02  7.7138328287393E-02  8.6719071632767E-02 
 3.0002850353065E-04  1.5001453827005E-03  5.1005063440437E-03  1.1101149924220E-02  1.9502140011418E-02  3.0303562437641E-02  4.3505536578519E-02  5.9108206634006E-02  7.7111744562926E-02  8.6713754740209E-02 
 1.5363649666602E-03  1.3662543115243E-03  1.0472954849566E-03  7.7086153908316E-04  5.3695253639757E-04  3.4556901128979E-04  1.9671197008447E-04  9.0382891059541E-05  2.6583724467251E-05  5.3168925584488E-06 
 0.0000000000000E+00  0.0000000000000E+00  0.0000000000000E+00  0.0000000000000E+00  0.0000000000000E+00  0.0000000000000E+00  0.0000000000000E+00  0.0000000000000E+00  0.0000000000000E+00  0.0000000000000E+00 
 0.0000000000000E+00  0.0000000000000E+00  0.0000000000000E+00  0.0000000000000E+00  0.0000000000000E+00  0.0000000000000E+00  0.0000000000000E+00  0.0000000000000E+00  0.0000000000000E+00  0.0000000000000E+00 
 0.0000000000000E+00  0.0000000000000E+00  0.0000000000000E+00  0.0000000000000E+00  0.0000000000000E+00  0.0000000000000E+00  0.0000000000000E+00  0.0000000000000E+00  0.0000000000000E+00  0.0000000000000E+00 
ZONE T = "ANOD, 2.0000E-08", I = 10, SOLUTIONTIME = 2.000000E-08
ZONETYPE = ORDERED
DATAPACKING = BLOCK
STRANDID = 1
 0.0000000000000E+00  8.7488888888889E-05  1.7497777777778E-04  2.6246666666667E-04  3.4995555555556E-04  4.3744444444444E-04  5.2493333333333E-04  6.1242222222222E-04  6.9991111111111E-04  7.8740000000000E-04 
 1.1589975178084E-09  3.4769947610899E-09  5.7950006425024E-09  8.1130215925424E-09  1.0431064041754E-08  1.2749134420750E-08  1.5066512744775E-08  1.7384295067825E-08  1.9702124613114E-08  2.0861974231753E-08 
 9.1999999999861E-01  9.1999999999861E-01  9.1999999999861E-01  9.1999999999861E-01  9.1999999999861E-01  9.1999999999861E-01  9.1999999999861E-01  9.1999999999861E-01  9.1999999999861E-01  9.1999999999942E-01 
 4.0000000000696E-02  4.0000000000696E-02  4.0000000000696E-02  4.0000000000696E-02  4.0000000000696E-02  4.0000000000696E-02  4.0000000000696E-02  4.0000000000696E-02  4.0000000000696E-02  4.0000000000288E-02 
 4.0000000000696E-02  4.0000000000696E-02  4.0000000000696E-02  4.0000000000696E-02  4.0000000000696E-02  4.0000000000696E-02  4.0000000000696E-02  4.0000000000696E-02  4.0000000000696E-02  4.0000000000288E-02 
 2.9167373665561E-02  2.9167357938375E-02  2.9167310756789E-02  2.9167232120684E-02  2.9167122029857E-02  2.9166980484015E-02  2.9166807482780E-02  2.9166603025685E-02  2.9166367112177E-02  2.9166099741615E-02 
 0.0000000000000E+00 -4.7371510662846E-09 -8.9170107929393E-09 -1.2539577103190E-08 -1.5604846374248E-08 -1.8112813437297E-08 -2.0063471577476E-08 -2.1456812533861E-08 -2.2292826499437E-08 -2.2571502121062E-08 
-2.9167373665561E-02 -2.9167362675526E-02 -2.9167319673800E-02 -2.9167244660261E-02 -2.9167137634703E-02 -2.9166998596829E-02 -2.9166827546252E-02 -2.9166624482498E-02 -2.9166389405004E-02 -2.9166122313118E-02 
-4.0906712752384E-02 -4.0906712752388E-02 -4.0906712752384E-02 -4.0906712752384E-02 -4.0906712752387E-02 -4.0906712752386E-02 -4.0906712752386E-02 -4.0906712752387E-02 -4.0906712752387E-02 -4.0906712752650E-02 
 1.1739339086823E-02  1.1739350076862E-02  1.1739393078585E-02  1.1739468092123E-02  1.1739575117684E-02  1.1739714155557E-02  1.1739885206134E-02  1.1740088269890E-02  1.1740323347384E-02  1.1740590439532E-02 
 1.6690487382321E+00  3.3381006556770E+00  3.3381130952738E+00  3.3381347952977E+00  3.3381657558176E+00  3.3382059769303E+00  3.3382554587662E+00  3.3383142014830E+00  3.3383822052676E+00  1.6692297351836E+00 
 8.6492352061580E-09  2.5947722098196E-08  4.3246273451378E-08  6.0544937256324E-08  7.7843761507292E-08  9.5142794179453E-08  1.1244208328079E-07  1.2974167679272E-07  1.4704176695017E-07  1.4704176695017E-07 
 0.0000000000000E+00  3.3380990659879E+00  6.6762059415825E+00  1.0014329886896E+01  1.3352480162409E+01  1.6690666028786E+01  2.0028896746692E+01  2.3367181576606E+01  2.6705529780042E+01  3.0043950618050E+01 
 3.0043950617929E+01  2.6705851551858E+01  2.3367744676383E+01  2.0029620731097E+01  1.6691470455539E+01  1.3353284589165E+01  1.0015053871317E+01  6.6767690411927E+00  3.3384208378174E+00  0.0000000000000E+00 
 3.3380977940652E-08  6.6762019465376E-08  6.6762268256718E-08  6.6762702256104E-08  6.6763321464974E-08  6.6764125885262E-08  6.6765115519522E-08  6.6766290370944E-08  6.6767650443256E-08  3.3384597870570E-08 
 9.1448444543314E+04  1.8289688908663E+05  1.8289688908663E+05  1.8289688908663E+05  1.8289688908663E+05  1.8289688908663E+05  1.8289688908663E+05  1.8289688908663E+05  1.8289688908663E+05  9.1448444543314E+04 
 3.6579377817309E+05  7.3158755634618E+05  7.3158755634618E+05  7.3158755634618E+05  7.3158755634618E+05  7.3158755634618E+05  7.3158755634618E+05  7.3158755634618E+05  7.3158755634618E+05  3.6579377817309E+05 
 4.5724222271641E+05  9.1448444543281E+05  9.1448444543281E+05  9.1448444543281E+05  9.1448444543281E+05  9.1448444543281E+05  9.1448444543281E+05  9.1448444543281E+05  9.1448444543281E+05  4.5724222271641E+05 
 3.5000000000000E-01  3.5000000000000E-01  3.5000000000000E-01  3.5000000000000E-01  3.5000000000000E-01  3.5000000000000E-01  3.5000000000000E-01  3.5000000000000E-01  3.5000000000000E-01  3.5000000000000E-01 
 8.5301666666666E+00  1.7060333333333E+01  1.7060333333333E+01  1.7060333333333E+01  1.7060333333333E+01  1.7060333333333E+01  1.7060333333333E+01  1.7060333333333E+01  1.7060333333333E+01  8.5301666666666E+00 
 1.9566425879511E-01  1.9566444514627E-01  1.9566517429947E-01  1.9566644625727E-01  1.9566826102368E-01  1.9567061860438E-01  1.9567351900702E-01  1.9567696224085E-01  1.9568094831681E-01  1.9568547724940E-01 
 4.3744444444444E-05  8.7488888888889E-05  8.7488888888889E-05  8.7488888888889E-05  8.7488888888889E-05  8.7488888888889E-05  8.7488888888889E-05  8.7488888888889E-05  8.7488888888889E-05  4.3744444444444E-05 
 8.6666666666659E+01  8.6666666666659E+01  8.6666666666659E+01  8.6666666666659E+01  8.6666666666659E+01  8.6666666666659E+01  8.6666666666659E+01  8.6666666666659E+01  8.6666666666659E+01  8.6666666666659E+01 
 2.1666666666675E+01  2.1666666666675E+01  2.1666666666675E+01  2.1666666666675E+01  2.1666666666675E+01  2.1666666666675E+01  2.1666666666675E+01  2.1666666666675E+01  2.1666666666675E+01  2.1666666666675E+01 
 3.6728053603086E-11  5.7328277138637E-11  1.2295665025851E-10  2.3744140657278E-10  4.0078382078336E-10  6.1298566283829E-10  8.7404931392262E-10  1.1839776792771E-09  1.5427742176121E-09  1.7343900071027E-09 
 1.8364118901178E-03  2.8664280196389E-03  6.1478631968504E-03  1.1872129193974E-02  2.0039289530520E-02  3.0649434834898E-02  4.3702682843658E-02  5.9199178402647E-02  7.7139093473821E-02  8.6719929077502E-02 
 6.0006019266270E-04  3.0003055433471E-03  1.0201063671316E-02  2.2202409935619E-02  3.9004471681467E-02  6.0607424834875E-02  8.7011505501699E-02  1.1821700124947E-01  1.5422425404871E-01  1.7342836687244E-01 
 3.0727451676459E-03  2.7325221705166E-03  2.0946013545346E-03  1.5417307216589E-03  1.0739103968695E-03  6.9114144895431E-04  3.9342589056286E-04  1.8076667824540E-04  5.3167712500257E-05  1.0633837829974E-05 
 0.0000000000000E+00  0.0000000000000E+00  0.0000000000000E+00  0.0000000000000E+00  0.0000000000000E+00  0.0000000000000E+00  0.0000000000000E+00  0.0000000000000E+00  0.0000000000000E+00  0.0000000000000E+00 
 0.0000000000000E+00  0.0000000000000E+00  0.0000000000000E+00  0.0000000000000E+00  0.0000000000000E+00  0.0000000000000E+00  0.0000000000000E+00  0.0000000000000E+00  0.0000000000000E+00  0.0000000000000E+00 
 0.0000000000000E+00  0.0000000000000E+00  0.0000000000000E+00  0.0000000000000E+00  0.0000000000000E+00  0.0000000000000E+00  0.0000000000000E+00  0.0000000000000E+00  0.0000000000000E+00  0.0000000000000E+00 
ZONE T = "ANOD, 3.0000E-08", I = 10, SOLUTIONTIME = 3.000000E-08
ZONETYPE = ORDERED
DATAPACKING = BLOCK
STRANDID = 1
 0.0000000000000E+00  8.7488888888889E-05  1.7497777777778E-04  2.6246666666667E-04  3.4995555555556E-04  4.3744444444444E-04  5.2493333333333E-04  6.1242222222222E-04  6.9991111111111E-04  7.8740000000000E-04 
 1.1589975177886E-09  3.4769947610289E-09  5.7950006424018E-09  8.1130215924023E-09  1.0431064041574E-08  1.2749134420530E-08  1.5067965575427E-08  1.7386837521620E-08  1.9705393482323E-08  2.0863790270042E-08 
 9.1999999999791E-01  9.1999999999791E-01  9.1999999999791E-01  9.1999999999791E-01  9.1999999999791E-01  9.1999999999791E-01  9.1999999999791E-01  9.1999999999791E-01  9.1999999999791E-01  9.1999999999914E-01 
 4.0000000001045E-02  4.0000000001045E-02  4.0000000001045E-02  4.0000000001045E-02  4.0000000001045E-02  4.0000000001045E-02  4.0000000001045E-02  4.0000000001045E-02  4.0000000001045E-02  4.0000000000432E-02 
 4.0000000001045E-02  4.0000000001045E-02  4.0000000001045E-02  4.0000000001045E-02  4.0000000001045E-02  4.0000000001045E-02  4.0000000001045E-02  4.0000000001045E-02  4.0000000001045E-02  4.0000000000432E-02 
 2.9167373665346E-02  2.9167357938161E-02  2.9167310756574E-02  2.9167232120470E-02  2.9167122029642E-02  2.9166980483801E-02  2.9166807482566E-02  2.9166603025471E-02  2.9166367111963E-02  2.9166099741401E-02 
 0.0000000000000E+00 -4.7371510662051E-09 -8.9170107927900E-09 -1.2539577102981E-08 -1.5604846373988E-08 -1.8112813436996E-08 -2.0063471577144E-08 -2.1456812533507E-08 -2.2292826499070E-08 -2.2571502120693E-08 
-2.9167373665346E-02 -2.9167362675312E-02 -2.9167319673585E-02 -2.9167244660047E-02 -2.9167137634489E-02 -2.9166998596614E-02 -2.9166827546037E-02 -2.9166624482283E-02 -2.9166389404789E-02 -2.9166122312903E-02 
-4.0906712751885E-02 -4.0906712751881E-02 -4.0906712751885E-02 -4.0906712751885E-02 -4.0906712751882E-02 -4.0906712751888E-02 -4.0906712751888E-02 -4.0906712751882E-02 -4.0906712751882E-02 -4.0906712752276E-02 
 1.1739339086539E-02  1.1739350076569E-02  1.1739393078300E-02  1.1739468091839E-02  1.1739575117394E-02  1.1739714155274E-02  1.1739885205851E-02  1.1740088269599E-02  1.1740323347093E-02  1.1740590439373E-02 
 1.6690487382036E+00  3.3381006556178E+00  3.3381130952168E+00  3.3381347952406E+00  3.3381657557591E+00  3.3382059768737E+00  3.3382554587094E+00  3.3383142014244E+00  3.3383822052091E+00  1.6692297351690E+00 
 8.6492352058863E-09  2.5947722098768E-08  4.3246273449847E-08  6.0544937248864E-08  7.7843761506061E-08  9.5142794179942E-08  1.1244208327570E-07  1.2974167678811E-07  1.4704183906833E-07  1.4704183906833E-07 
 0.0000000000000E+00  3.3380990660169E+00  6.6762059412725E+00  1.0014329886615E+01  1.3352480162157E+01  1.6690666028563E+01  2.0028896746314E+01  2.3367181576258E+01  2.6705529779686E+01  3.0043950617474E+01 
 3.0043950617424E+01  2.6705851551411E+01  2.3367744675994E+01  2.0029620730765E+01  1.6691470455265E+01  1.3353284588949E+01  1.0015053871157E+01  6.6767690410904E+00  3.3384208377736E+00  0.0000000000000E+00 
 5.0071465322688E-08  1.0014302602155E-07  1.0014339920889E-07  1.0014405020851E-07  1.0014497902256E-07  1.0014618565400E-07  1.0014767010662E-07  1.0014943238519E-07  1.0015147249535E-07  5.0076895222260E-08 
 9.1448444543331E+04  1.8289688908666E+05  1.8289688908666E+05  1.8289688908666E+05  1.8289688908666E+05  1.8289688908666E+05  1.8289688908666E+05  1.8289688908666E+05  1.8289688908666E+05  9.1448444543331E+04 
 3.6579377817307E+05  7.3158755634615E+05  7.3158755634615E+05  7.3158755634615E+05  7.3158755634615E+05  7.3158755634615E+05  7.3158755634615E+05  7.3158755634615E+05  7.3158755634615E+05  3.6579377817307E+05 
 4.5724222271641E+05  9.1448444543281E+05  9.1448444543281E+05  9.1448444543281E+05  9.1448444543281E+05  9.1448444543281E+05  9.1448444543281E+05  9.1448444543281E+05  9.1448444543281E+05  4.5724222271641E+05 
 3.5000000000000E-01  3.5000000000000E-01  3.5000000000000E-01  3.5000000000000E-01  3.5000000000000E-01  3.5000000000000E-01  3.5000000000000E-01  3.5000000000000E-01  3.5000000000000E-01  3.5000000000000E-01 
 8.5301666666666E+00  1.7060333333333E+01  1.7060333333333E+01  1.7060333333333E+01  1.7060333333333E+01  1.7060333333333E+01  1.7060333333333E+01  1.7060333333333E+01  1.7060333333333E+01  8.5301666666666E+00 
 1.9566425879177E-01  1.9566444514279E-01  1.9566517429613E-01  1.9566644625392E-01  1.9566826102025E-01  1.9567061860106E-01  1.9567351900370E-01  1.9567696223742E-01  1.9568094831339E-01  1.9568547724769E-01 
 4.3744444444444E-05  8.7488888888889E-05  8.7488888888889E-05  8.7488888888889E-05  8.7488888888889E-05  8.7488888888889E-05  8.7488888888889E-05  8.7488888888889E-05  8.7488888888889E-05  4.3744444444444E-05 
 8.6666666666655E+01  8.6666666666655E+01  8.6666666666655E+01  8.6666666666655E+01  8.6666666666655E+01  8.6666666666655E+01  8.6666666666655E+01  8.6666666666655E+01  8.6666666666655E+01  8.6666666666655E+01 
 2.1666666666679E+01  2.1666666666679E+01  2.1666666666679E+01  2.1666666666679E+01  2.1666666666679E+01  2.1666666666679E+01  2.1666666666679E+01  2.1666666666679E+01  2.1666666666679E+01  2.1666666666679E+01 
 5.5092172505097E-11  8.5992557333375E-11  1.8443528222181E-10  3.5616269850529E-10  6.0117671607950E-10  9.1948001117656E-10  1.3110761423384E-09  1.7759694632816E-09  2.3141651523235E-09  2.6015892978380E-09 
 1.8364118902011E-03  2.8664280194738E-03  6.1478631963305E-03  1.1872129193251E-02  2.0039289529614E-02  3.0649434833827E-02  4.3702682841582E-02  5.9199178400445E-02  7.7139093471138E-02  8.6719929073535E-02 
 9.0009188192975E-04  4.5004657038745E-03  1.5301620998104E-02  3.3303669946320E-02  5.8506803350626E-02  9.0911287231048E-02  1.3051747442281E-01  1.7732579586273E-01  2.3133676353182E-01  2.6014297900070E-01 
 4.6091253685800E-03  4.0987900294630E-03  3.1419072240777E-03  2.3125999042091E-03  1.6108682573238E-03  1.0367138866076E-03  5.9013981103496E-04  2.7115046542847E-04  7.9751700532518E-05  1.5950783101406E-05 
 0.0000000000000E+00  0.0000000000000E+00  0.0000000000000E+00  0.0000000000000E+00  0.0000000000000E+00  0.0000000000000E+00  0.0000000000000E+00  0.0000000000000E+00  0.0000000000000E+00  0.0000000000000E+00 
 0.0000000000000E+00  0.0000000000000E+00  0.0000000000000E+00  0.0000000000000E+00  0.0000000000000E+00  0.0000000000000E+00  0.0000000000000E+00  0.0000000000000E+00  0.0000000000000E+00  0.0000000000000E+00 
 0.0000000000000E+00  0.0000000000000E+00  0.0000000000000E+00  0.0000000000000E+00  0.0000000000000E+00  0.0000000000000E+00  0.0000000000000E+00  0.0000000000000E+00  0.0000000000000E+00  0.0000000000000E+00 
ZONE T = "ANOD, 4.0000E-08", I = 10, SOLUTIONTIME = 4.000000E-08
ZONETYPE = ORDERED
DATAPACKING = BLOCK
STRANDID = 1
 0.0000000000000E+00  8.7488888888889E-05  1.7497777777778E-04  2.6246666666667E-04  3.4995555555556E-04  4.3744444444444E-04  5.2493333333333E-04  6.1242222222222E-04  6.9991111111111E-04  7.8740000000000E-04 
 1.1588159139043E-09  3.4771763648332E-09  5.7948190384375E-09  8.1135664038527E-09  1.0431245645257E-08  1.2748589608716E-08  1.5065604724933E-08  1.7383750255631E-08  1.9702306216295E-08  2.0861429419460E-08 
 9.1999999999721E-01  9.1999999999721E-01  9.1999999999721E-01  9.1999999999721E-01  9.1999999999721E-01  9.1999999999721E-01  9.1999999999721E-01  9.1999999999721E-01  9.1999999999721E-01  9.1999999999885E-01 
 4.0000000001393E-02  4.0000000001393E-02  4.0000000001393E-02  4.0000000001393E-02  4.0000000001393E-02  4.0000000001393E-02  4.0000000001393E-02  4.0000000001393E-02  4.0000000001393E-02  4.0000000000576E-02 
 4.0000000001393E-02  4.0000000001393E-02  4.0000000001393E-02  4.0000000001393E-02  4.0000000001393E-02  4.0000000001393E-02  4.0000000001393E-02  4.0000000001393E-02  4.0000000001393E-02  4.0000000000576E-02 
 2.9167373665131E-02  2.9167357937946E-02  2.9167310756359E-02  2.9167232120255E-02  2.9167122029427E-02  2.9166980483586E-02  2.9166807482350E-02  2.9166603025256E-02  2.9166367111748E-02  2.9166099741186E-02 
 0.0000000000000E+00 -4.7371510661255E-09 -8.9170107926403E-09 -1.2539577102771E-08 -1.5604846373728E-08 -1.8112813436694E-08 -2.0063471576811E-08 -2.1456812533153E-08 -2.2292826498704E-08 -2.2571502120325E-08 
-2.9167373665131E-02 -2.9167362675097E-02 -2.9167319673370E-02 -2.9167244659832E-02 -2.9167137634274E-02 -2.9166998596399E-02 -2.9166827545822E-02 -2.9166624482068E-02 -2.9166389404574E-02 -2.9166122312688E-02 
-4.0906712751379E-02 -4.0906712751383E-02 -4.0906712751379E-02 -4.0906712751379E-02 -4.0906712751383E-02 -4.0906712751380E-02 -4.0906712751380E-02 -4.0906712751383E-02 -4.0906712751383E-02 -4.0906712751908E-02 
 1.1739339086247E-02  1.1739350076286E-02  1.1739393078009E-02  1.1739468091547E-02  1.1739575117109E-02  1.1739714154981E-02  1.1739885205558E-02  1.1740088269315E-02  1.1740323346809E-02  1.1740590439220E-02 
 1.6690487381742E+00  3.3381006555613E+00  3.3381130951580E+00  3.3381347951818E+00  3.3381657557021E+00  3.3382059768146E+00  3.3382554586504E+00  3.3383142013675E+00  3.3383822051522E+00  1.6692297351553E+00 