TITLE = "Solution on Domain BulkDomain1D_0"
VARIABLES = "x [m]"  
"Vel_axial" 
"MF_sp(ECDMC)" 
"MF_sp(Li+)" 
"MF_sp(PF6-)" 
"Volt(Electroly)" 
"Volt(AnodeVolt)" 
"Potential Drop Electrode-Electrolyte [V]" 
"Surf_0 Equilibrium Potential Drop Electrode-Electrolyte [V]" 
"Overpotential_0 [V]" 
"Current Source [A/m^2]" 
"Li+ flux [kmol/m^2/s]" 
"Electrolyte Current [A/m^2]" 
"Electrode Current [A/m^2]" 
"CV Capacity discharged [A-s/m^2]" 
"Depth of discharge in CV [A-s/m^2]" 
"CV Capacity remaining [A-s/m^2]" 
"Initial CV capacity [A-s/m^2]" 
"Porosity []" 
"Surface Area [m2/m2] (area per area)" 
"Specific current (per particle area) [A/m^2]" 
"Control volume thickness [m]" 
"MoleDens Li_C6-bulk [kmol/m^3]" 
"MoleDens V_C6-bulk [kmol/m^3]" 
"qHeat_accum [J/m3]" 
"qHeat_step [W/m3]" 
"Joule_Lyte [W/m3]" 
"Joule_Solid [W/m3]" 
"electrodHeat [W/m3]" 
"OverpotHeat [W/m3]" 
"deltaSHeat [W/m3]" 

ZONE T = "ANOD, 0.0000E+00", I = 10, SOLUTIONTIME = 0.000000E+00
ZONETYPE = ORDERED
DATAPACKING = BLOCK
STRANDID = 1
 0.0000000000000E+00  8.7488888888889E-05  1.7497777777778E-04  2.6246666666667E-04  3.4995555555556E-04  4.3744444444444E-04  5.2493333333333E-04  6.1242222222222E-04  6.9991111111111E-04  7.8740000000000E-04 
 0.0000000000000E+00  0.0000000000000E+00  0.0000000000000E+00  0.0000000000000E+00  0.0000000000000E+00  0.0000000000000E+00  0.0000000000000E+00  0.0000000000000E+00  0.0000000000000E+00  0.0000000000000E+00 
 9.2000000000000E-01  9.2000000000000E-01  9.2000000000000E-01  9.2000000000000E-01  9.2000000000000E-01  9.2000000000000E-01  9.2000000000000E-01  9.2000000000000E-01  9.2000000000000E-01  9.2000000000000E-01 
 4.0000000000000E-02  4.0000000000000E-02  4.0000000000000E-02  4.0000000000000E-02  4.0000000000000E-02  4.0000000000000E-02  4.0000000000000E-02  4.0000000000000E-02  4.0000000000000E-02  4.0000000000000E-02 
 4.0000000000000E-02  4.0000000000000E-02  4.0000000000000E-02  4.0000000000000E-02  4.0000000000000E-02  4.0000000000000E-02  4.0000000000000E-02  4.0000000000000E-02  4.0000000000000E-02  4.0000000000000E-02 
-7.0000000000000E-02 -7.0000000000000E-02 -7.0000000000000E-02 -7.0000000000000E-02 -7.0000000000000E-02 -7.0000000000000E-02 -7.0000000000000E-02 -7.0000000000000E-02 -7.0000000000000E-02 -7.0000000000000E-02 
 0.0000000000000E+00  0.0000000000000E+00  0.0000000000000E+00  0.0000000000000E+00  0.0000000000000E+00  0.0000000000000E+00  0.0000000000000E+00  0.0000000000000E+00  0.0000000000000E+00  0.0000000000000E+00 
 7.0000000000000E-02  7.0000000000000E-02  7.0000000000000E-02  7.0000000000000E-02  7.0000000000000E-02  7.0000000000000E-02  7.0000000000000E-02  7.0000000000000E-02  7.0000000000000E-02  7.0000000000000E-02 
-4.0906712753392E-02 -4.0906712753392E-02 -4.0906712753392E-02 -4.0906712753392E-02 -4.0906712753392E-02 -4.0906712753392E-02 -4.0906712753392E-02 -4.0906712753392E-02 -4.0906712753392E-02 -4.0906712753392E-02 
 1.1090671275339E-01  1.1090671275339E-01  1.1090671275339E-01  1.1090671275339E-01  1.1090671275339E-01  1.1090671275339E-01  1.1090671275339E-01  1.1090671275339E-01  1.1090671275339E-01  1.1090671275339E-01 
 3.0930240924008E+01  6.1860481848017E+01  6.1860481848017E+01  6.1860481848017E+01  6.1860481848016E+01  6.1860481848017E+01  6.1860481848017E+01  6.1860481848016E+01  6.1860481848016E+01  3.0930240924008E+01 
-0.0000000000000E+00 -0.0000000000000E+00 -0.0000000000000E+00 -0.0000000000000E+00 -0.0000000000000E+00 -0.0000000000000E+00 -0.0000000000000E+00 -0.0000000000000E+00 -0.0000000000000E+00 -0.0000000000000E+00 
 0.0000000000000E+00  0.0000000000000E+00  0.0000000000000E+00  0.0000000000000E+00  0.0000000000000E+00  0.0000000000000E+00  0.0000000000000E+00  0.0000000000000E+00  0.0000000000000E+00  3.0930240924008E+01 
 3.0930240924008E+01 -0.0000000000000E+00 -0.0000000000000E+00 -0.0000000000000E+00 -0.0000000000000E+00 -0.0000000000000E+00 -0.0000000000000E+00 -0.0000000000000E+00 -0.0000000000000E+00  0.0000000000000E+00 
 0.0000000000000E+00  0.0000000000000E+00  0.0000000000000E+00  0.0000000000000E+00  0.0000000000000E+00  0.0000000000000E+00  0.0000000000000E+00  0.0000000000000E+00  0.0000000000000E+00  0.0000000000000E+00 
 9.1448444543281E+04  1.8289688908656E+05  1.8289688908656E+05  1.8289688908656E+05  1.8289688908656E+05  1.8289688908656E+05  1.8289688908656E+05  1.8289688908656E+05  1.8289688908656E+05  9.1448444543281E+04 
 3.6579377817312E+05  7.3158755634625E+05  7.3158755634625E+05  7.3158755634625E+05  7.3158755634625E+05  7.3158755634625E+05  7.3158755634625E+05  7.3158755634625E+05  7.3158755634625E+05  3.6579377817312E+05 
 4.5724222271640E+05  9.1448444543281E+05  9.1448444543281E+05  9.1448444543281E+05  9.1448444543281E+05  9.1448444543281E+05  9.1448444543281E+05  9.1448444543281E+05  9.1448444543281E+05  4.5724222271640E+05 
 3.5000000000000E-01  3.5000000000000E-01  3.5000000000000E-01  3.5000000000000E-01  3.5000000000000E-01  3.5000000000000E-01  3.5000000000000E-01  3.5000000000000E-01  3.5000000000000E-01  3.5000000000000E-01 
 8.5301666666666E+00  1.7060333333333E+01  1.7060333333333E+01  1.7060333333333E+01  1.7060333333333E+01  1.7060333333333E+01  1.7060333333333E+01  1.7060333333333E+01  1.7060333333333E+01  8.5301666666666E+00 
 3.6259831879809E+00  3.6259831879809E+00  3.6259831879809E+00  3.6259831879809E+00  3.6259831879809E+00  3.6259831879809E+00  3.6259831879809E+00  3.6259831879809E+00  3.6259831879809E+00  3.6259831879809E+00 
 4.3744444444444E-05  8.7488888888889E-05  8.7488888888889E-05  8.7488888888889E-05  8.7488888888889E-05  8.7488888888889E-05  8.7488888888889E-05  8.7488888888889E-05  8.7488888888889E-05  4.3744444444444E-05 
 8.6666666666666E+01  8.6666666666666E+01  8.6666666666666E+01  8.6666666666666E+01  8.6666666666666E+01  8.6666666666666E+01  8.6666666666666E+01  8.6666666666666E+01  8.6666666666666E+01  8.6666666666666E+01 
 2.1666666666667E+01  2.1666666666667E+01  2.1666666666667E+01  2.1666666666667E+01  2.1666666666667E+01  2.1666666666667E+01  2.1666666666667E+01  2.1666666666667E+01  2.1666666666667E+01  2.1666666666667E+01 
 0.0000000000000E+00  0.0000000000000E+00  0.0000000000000E+00  0.0000000000000E+00  0.0000000000000E+00  0.0000000000000E+00  0.0000000000000E+00  0.0000000000000E+00  0.0000000000000E+00  0.0000000000000E+00 
 0.0000000000000E+00  0.0000000000000E+00  0.0000000000000E+00  0.0000000000000E+00  0.0000000000000E+00  0.0000000000000E+00  0.0000000000000E+00  0.0000000000000E+00  0.0000000000000E+00  0.0000000000000E+00 
 0.0000000000000E+00  0.0000000000000E+00  0.0000000000000E+00  0.0000000000000E+00  0.0000000000000E+00  0.0000000000000E+00  0.0000000000000E+00  0.0000000000000E+00  0.0000000000000E+00  0.0000000000000E+00 
 0.0000000000000E+00  0.0000000000000E+00  0.0000000000000E+00  0.0000000000000E+00  0.0000000000000E+00  0.0000000000000E+00  0.0000000000000E+00  0.0000000000000E+00  0.0000000000000E+00  0.0000000000000E+00 
 0.0000000000000E+00  0.0000000000000E+00  0.0000000000000E+00  0.0000000000000E+00  0.0000000000000E+00  0.0000000000000E+00  0.0000000000000E+00  0.0000000000000E+00  0.0000000000000E+00  0.0000000000000E+00 
 0.0000000000000E+00  0.0000000000000E+00  0.0000000000000E+00  0.0000000000000E+00  0.0000000000000E+00  0.0000000000000E+00  0.0000000000000E+00  0.0000000000000E+00  0.0000000000000E+00  0.0000000000000E+00 
 0.0000000000000E+00  0.0000000000000E+00  0.0000000000000E+00  0.0000000000000E+00  0.0000000000000E+00  0.0000000000000E+00  0.0000000000000E+00  0.0000000000000E+00  0.0000000000000E+00  0.0000000000000E+00 
ZONE T = "ANOD, 1.0000E-08", I = 10, SOLUTIONTIME = 1.000000E-08
ZONETYPE = ORDERED
DATAPACKING = BLOCK
STRANDID = 1
 0.0000000000000E+00  8.7488888888889E-05  1.7497777777778E-04  2.6246666666667E-04  3.4995555555556E-04  4.3744444444444E-04  5.2493333333333E-04  6.1242222222222E-04  6.9991111111111E-04  7.8740000000000E-04 
 1.1589917711268E-09  3.4769775212722E-09  5.7949719095162E-09  8.1129813660993E-09  1.0431012322261E-08  1.2749071208360E-08  1.5067164455314E-08  1.7385298493679E-08  1.9703479754624E-08  2.0863323627361E-08 
 9.1999999999930E-01  9.1999999999930E-01  9.1999999999930E-01  9.1999999999930E-01  9.1999999999930E-01  9.1999999999930E-01  9.1999999999930E-01  9.1999999999930E-01  9.1999999999930E-01  9.1999999999971E-01 
 4.0000000000348E-02  4.0000000000348E-02  4.0000000000348E-02  4.0000000000348E-02  4.0000000000348E-02  4.0000000000348E-02  4.0000000000348E-02  4.0000000000348E-02  4.0000000000348E-02  4.0000000000144E-02 
 4.0000000000348E-02  4.0000000000348E-02  4.0000000000348E-02  4.0000000000348E-02  4.0000000000348E-02  4.0000000000348E-02  4.0000000000348E-02  4.0000000000348E-02  4.0000000000348E-02  4.0000000000144E-02 
 2.9167371470235E-02  2.9167355743123E-02  2.9167308561777E-02  2.9167229926059E-02  2.9167119835773E-02  2.9166978290636E-02  2.9166805290262E-02  2.9166600834182E-02  2.9166364921834E-02  2.9166097552595E-02 
 0.0000000000000E+00 -4.7371275800546E-09 -8.9169665836513E-09 -1.2539514934024E-08 -1.5604769008454E-08 -1.8112723638026E-08 -2.0063372107843E-08 -2.1456706156893E-08 -2.2292715978130E-08 -2.2571390218333E-08 
-2.9167371470235E-02 -2.9167360480251E-02 -2.9167317478743E-02 -2.9167242465573E-02 -2.9167135440542E-02 -2.9166996403359E-02 -2.9166825353634E-02 -2.9166622290888E-02 -2.9166387214550E-02 -2.9166120123985E-02 
-4.0906712752891E-02 -4.0906712752891E-02 -4.0906712752891E-02 -4.0906712752891E-02 -4.0906712752891E-02 -4.0906712752891E-02 -4.0906712752891E-02 -4.0906712752891E-02 -4.0906712752891E-02 -4.0906712753022E-02 
 1.1739341282656E-02  1.1739352272640E-02  1.1739395274148E-02  1.1739470287318E-02  1.1739577312349E-02  1.1739716349532E-02  1.1739887399257E-02  1.1740090462003E-02  1.1740325538341E-02  1.1740592629037E-02 
 1.6690490558259E+00  3.3381012908491E+00  3.3381137303837E+00  3.3381354303012E+00  3.3381663906683E+00  3.3382066115817E+00  3.3382560931716E+00  3.3383148355970E+00  3.3383828390480E+00  1.6692300518683E+00 
 8.6491946392933E-09  2.5947590204864E-08  4.3246060973833E-08  6.0544639214932E-08  7.7843374245213E-08  9.5142320617033E-08  1.1244152504210E-07  1.2974103895974E-07  1.4704096737513E-07  1.4704096737513E-07 
 0.0000000000000E+00  3.3380824261078E+00  6.6761727148426E+00  1.0014280629087E+01  1.3352414040673E+01  1.6690582971694E+01  2.0028797192579E+01  2.3367066172945E+01  2.6705398049135E+01  3.0043810556414E+01 
 3.0043810256143E+01  2.6705719147994E+01  2.3367628823574E+01  2.0029521429576E+01  1.6691387705221E+01  1.3353218389645E+01  1.0015004222219E+01  6.6767359421672E+00  3.3384042885338E+00  0.0000000000000E+00 
 1.6690490558260E-08  3.3381012908491E-08  3.3381137303837E-08  3.3381354303012E-08  3.3381663906683E-08  3.3382066115817E-08  3.3382560931716E-08  3.3383148355970E-08  3.3383828390480E-08  1.6692300518683E-08 
 9.1448444543298E+04  1.8289688908660E+05  1.8289688908660E+05  1.8289688908660E+05  1.8289688908660E+05  1.8289688908660E+05  1.8289688908660E+05  1.8289688908660E+05  1.8289688908660E+05  9.1448444543298E+04 
 3.6579377817311E+05  7.3158755634621E+05  7.3158755634621E+05  7.3158755634621E+05  7.3158755634621E+05  7.3158755634622E+05  7.3158755634622E+05  7.3158755634621E+05  7.3158755634621E+05  3.6579377817311E+05 
 4.5724222271641E+05  9.1448444543281E+05  9.1448444543281E+05  9.1448444543281E+05  9.1448444543281E+05  9.1448444543281E+05  9.1448444543281E+05  9.1448444543281E+05  9.1448444543281E+05  4.5724222271640E+05 
 3.5000000000000E-01  3.5000000000000E-01  3.5000000000000E-01  3.5000000000000E-01  3.5000000000000E-01  3.5000000000000E-01  3.5000000000000E-01  3.5000000000000E-01  3.5000000000000E-01  3.5000000000000E-01 
 8.5301666666666E+00  1.7060333333333E+01  1.7060333333333E+01  1.7060333333333E+01  1.7060333333333E+01  1.7060333333333E+01  1.7060333333333E+01  1.7060333333333E+01  1.7060333333333E+01  8.5301666666666E+00 
 1.9566429602696E-01  1.9566448237720E-01  1.9566521152676E-01  1.9566648347832E-01  1.9566829823577E-01  1.9567065580479E-01  1.9567355619302E-01  1.9567699940976E-01  1.9568098546617E-01  1.9568551437467E-01 
 4.3744444444444E-05  8.7488888888889E-05  8.7488888888889E-05  8.7488888888889E-05  8.7488888888889E-05  8.7488888888889E-05  8.7488888888889E-05  8.7488888888889E-05  8.7488888888889E-05  4.3744444444444E-05 
 8.6666666666663E+01  8.6666666666663E+01  8.6666666666663E+01  8.6666666666663E+01  8.6666666666663E+01  8.6666666666663E+01  8.6666666666663E+01  8.6666666666663E+01  8.6666666666663E+01  8.6666666666663E+01 
 2.1666666666671E+01  2.1666666666671E+01  2.1666666666671E+01  2.1666666666671E+01  2.1666666666671E+01  2.1666666666671E+01  2.1666666666671E+01  2.1666666666671E+01  2.1666666666671E+01  2.1666666666671E+01 
 1.8363938413525E-11  2.8663993392976E-11  6.1478022336293E-11  1.1872012325967E-10  2.0039090932034E-10  3.0649129802042E-10  4.3702248445348E-10  5.9198593869104E-10  7.7138332315048E-10  8.6719071020648E-10 
 1.8363938413525E-03  2.8663993392976E-03  6.1478022336293E-03  1.1872012325967E-02  2.0039090932034E-02  3.0649129802042E-02  4.3702248445348E-02  5.9198593869104E-02  7.7138332315048E-02  8.6719071020648E-02 
 3.0002887470863E-04  1.5001450278042E-03  5.1005067487143E-03  1.1101150786907E-02  1.9502138395642E-02  3.0303560790756E-02  4.3505536475266E-02  5.9108210978046E-02  7.7111748590581E-02  8.6713754128090E-02 
 1.5363649666438E-03  1.3662543114934E-03  1.0472954849150E-03  7.7086153906074E-04  5.3695253639180E-04  3.4556901128623E-04  1.9671197008262E-04  9.0382891058826E-05  2.6583724467066E-05  5.3168925584152E-06 
 0.0000000000000E+00  0.0000000000000E+00  0.0000000000000E+00  0.0000000000000E+00  0.0000000000000E+00  0.0000000000000E+00  0.0000000000000E+00  0.0000000000000E+00  0.0000000000000E+00  0.0000000000000E+00 
 0.0000000000000E+00  0.0000000000000E+00  0.0000000000000E+00  0.0000000000000E+00  0.0000000000000E+00  0.0000000000000E+00  0.0000000000000E+00  0.0000000000000E+00  0.0000000000000E+00  0.0000000000000E+00 
 0.0000000000000E+00  0.0000000000000E+00  0.0000000000000E+00  0.0000000000000E+00  0.0000000000000E+00  0.0000000000000E+00  0.0000000000000E+00  0.0000000000000E+00  0.0000000000000E+00  0.0000000000000E+00 
ZONE T = "ANOD, 2.0000E-08", I = 10, SOLUTIONTIME = 2.000000E-08
ZONETYPE = ORDERED
DATAPACKING = BLOCK
STRANDID = 1
 0.0000000000000E+00  8.7488888888889E-05  1.7497777777778E-04  2.6246666666667E-04  3.4995555555556E-04  4.3744444444444E-04  5.2493333333333E-04  6.1242222222222E-04  6.9991111111111E-04  7.8740000000000E-04 
 1.1589975178084E-09  3.4769947610898E-09  5.7950006425024E-09  8.1130215925424E-09  1.0431064041754E-08  1.2749134420750E-08  1.5066512744775E-08  1.7384295067825E-08  1.9702124613114E-08  2.0861974231753E-08 
 9.1999999999861E-01  9.1999999999861E-01  9.1999999999861E-01  9.1999999999861E-01  9.1999999999861E-01  9.1999999999861E-01  9.1999999999861E-01  9.1999999999861E-01  9.1999999999861E-01  9.1999999999942E-01 
 4.0000000000696E-02  4.0000000000696E-02  4.0000000000696E-02  4.0000000000696E-02  4.0000000000696E-02  4.0000000000696E-02  4.0000000000696E-02  4.0000000000696E-02  4.0000000000696E-02  4.0000000000288E-02 
 4.0000000000696E-02  4.0000000000696E-02  4.0000000000696E-02  4.0000000000696E-02  4.0000000000696E-02  4.0000000000696E-02  4.0000000000696E-02  4.0000000000696E-02  4.0000000000696E-02  4.0000000000288E-02 
 2.9167373665561E-02  2.9167357938375E-02  2.9167310756789E-02  2.9167232120684E-02  2.9167122029857E-02  2.9166980484015E-02  2.9166807482780E-02  2.9166603025685E-02  2.9166367112177E-02  2.9166099741615E-02 
 0.0000000000000E+00 -4.7371510662846E-09 -8.9170107929393E-09 -1.2539577103190E-08 -1.5604846374248E-08 -1.8112813437297E-08 -2.0063471577476E-08 -2.1456812533862E-08 -2.2292826499437E-08 -2.2571502121063E-08 
-2.9167373665561E-02 -2.9167362675526E-02 -2.9167319673799E-02 -2.9167244660261E-02 -2.9167137634703E-02 -2.9166998596828E-02 -2.9166827546251E-02 -2.9166624482498E-02 -2.9166389405004E-02 -2.9166122313117E-02 
-4.0906712752384E-02 -4.0906712752388E-02 -4.0906712752384E-02 -4.0906712752384E-02 -4.0906712752387E-02 -4.0906712752386E-02 -4.0906712752386E-02 -4.0906712752387E-02 -4.0906712752387E-02 -4.0906712752650E-02 
 1.1739339086824E-02  1.1739350076862E-02  1.1739393078585E-02  1.1739468092123E-02  1.1739575117684E-02  1.1739714155558E-02  1.1739885206135E-02  1.1740088269890E-02  1.1740323347384E-02  1.1740590439532E-02 
 1.6690487382321E+00  3.3381006556770E+00  3.3381130952739E+00  3.3381347952977E+00  3.3381657558176E+00  3.3382059769304E+00  3.3382554587662E+00  3.3383142014830E+00  3.3383822052677E+00  1.6692297351836E+00 
 8.6492352080660E-09  2.5947722098196E-08  4.3246273451378E-08  6.0544937254416E-08  7.7843761507292E-08  9.5142794179453E-08  1.1244208328079E-07  1.2974167679462E-07  1.4704176694826E-07  1.4704176694826E-07 
 0.0000000000000E+00  3.3380990661720E+00  6.6762059415825E+00  1.0014329886712E+01  1.3352480162225E+01  1.6690666028786E+01  2.0028896746692E+01  2.3367181576791E+01  2.6705529780042E+01  3.0043950617682E+01 
 3.0043950617929E+01  2.6705851551858E+01  2.3367744676383E+01  2.0029620731097E+01  1.6691470455539E+01  1.3353284589165E+01  1.0015053871317E+01  6.6767690411927E+00  3.3384208378174E+00  0.0000000000000E+00 
 3.3380977940581E-08  6.6762019465261E-08  6.6762268256576E-08  6.6762702255989E-08  6.6763321464859E-08  6.6764125885121E-08  6.6765115519378E-08  6.6766290370800E-08  6.6767650443157E-08  3.3384597870519E-08 
 9.1448444543314E+04  1.8289688908663E+05  1.8289688908663E+05  1.8289688908663E+05  1.8289688908663E+05  1.8289688908663E+05  1.8289688908663E+05  1.8289688908663E+05  1.8289688908663E+05  9.1448444543314E+04 
 3.6579377817309E+05  7.3158755634618E+05  7.3158755634618E+05  7.3158755634618E+05  7.3158755634618E+05  7.3158755634618E+05  7.3158755634618E+05  7.3158755634618E+05  7.3158755634618E+05  3.6579377817309E+05 
 4.5724222271641E+05  9.1448444543281E+05  9.1448444543281E+05  9.1448444543281E+05  9.1448444543281E+05  9.1448444543281E+05  9.1448444543281E+05  9.1448444543281E+05  9.1448444543281E+05  4.5724222271641E+05 
 3.5000000000000E-01  3.5000000000000E-01  3.5000000000000E-01  3.5000000000000E-01  3.5000000000000E-01  3.5000000000000E-01  3.5000000000000E-01  3.5000000000000E-01  3.5000000000000E-01  3.5000000000000E-01 
 8.5301666666666E+00  1.7060333333333E+01  1.7060333333333E+01  1.7060333333333E+01  1.7060333333333E+01  1.7060333333333E+01  1.7060333333333E+01  1.7060333333333E+01  1.7060333333333E+01  8.5301666666666E+00 
 1.9566425879511E-01  1.9566444514627E-01  1.9566517429948E-01  1.9566644625727E-01  1.9566826102368E-01  1.9567061860439E-01  1.9567351900702E-01  1.9567696224085E-01  1.9568094831682E-01  1.9568547724940E-01 
 4.3744444444444E-05  8.7488888888889E-05  8.7488888888889E-05  8.7488888888889E-05  8.7488888888889E-05  8.7488888888889E-05  8.7488888888889E-05  8.7488888888889E-05  8.7488888888889E-05  4.3744444444444E-05 
 8.6666666666659E+01  8.6666666666659E+01  8.6666666666659E+01  8.6666666666659E+01  8.6666666666659E+01  8.6666666666659E+01  8.6666666666659E+01  8.6666666666659E+01  8.6666666666659E+01  8.6666666666659E+01 
 2.1666666666675E+01  2.1666666666675E+01  2.1666666666675E+01  2.1666666666675E+01  2.1666666666675E+01  2.1666666666675E+01  2.1666666666675E+01  2.1666666666675E+01  2.1666666666675E+01  2.1666666666675E+01 
 3.6728057316026E-11  5.7328273590027E-11  1.2295665430480E-10  2.3744141519478E-10  4.0078380462091E-10  6.1298564636940E-10  8.7404931289006E-10  1.1839777227274E-09  1.5427742578874E-09  1.7343900009590E-09 
 1.8364118902501E-03  2.8664280197051E-03  6.1478631968505E-03  1.1872129193511E-02  2.0039289530057E-02  3.0649434834898E-02  4.3702682843658E-02  5.9199178403640E-02  7.7139093473689E-02  8.6719929075251E-02 
 6.0006056397306E-04  3.0003051885171E-03  1.0201064075987E-02  2.2202410797842E-02  3.9004470065227E-02  6.0607423187990E-02  8.7011505398445E-02  1.1821700559450E-01  1.5422425807624E-01  1.7342836625807E-01 
 3.0727451676295E-03  2.7325221704857E-03  2.0946013544930E-03  1.5417307216365E-03  1.0739103968637E-03  6.9114144895075E-04  3.9342589056102E-04  1.8076667824469E-04  5.3167712500071E-05  1.0633837829940E-05 
 0.0000000000000E+00  0.0000000000000E+00  0.0000000000000E+00  0.0000000000000E+00  0.0000000000000E+00  0.0000000000000E+00  0.0000000000000E+00  0.0000000000000E+00  0.0000000000000E+00  0.0000000000000E+00 
 0.0000000000000E+00  0.0000000000000E+00  0.0000000000000E+00  0.0000000000000E+00  0.0000000000000E+00  0.0000000000000E+00  0.0000000000000E+00  0.0000000000000E+00  0.0000000000000E+00  0.0000000000000E+00 
 0.0000000000000E+00  0.0000000000000E+00  0.0000000000000E+00  0.0000000000000E+00  0.0000000000000E+00  0.0000000000000E+00  0.0000000000000E+00  0.0000000000000E+00  0.0000000000000E+00  0.0000000000000E+00 
ZONE T = "ANOD, 3.0000E-08", I = 10, SOLUTIONTIME = 3.000000E-08
ZONETYPE = ORDERED
DATAPACKING = BLOCK
STRANDID = 1
 0.0000000000000E+00  8.7488888888889E-05  1.7497777777778E-04  2.6246666666667E-04  3.4995555555556E-04  4.3744444444444E-04  5.2493333333333E-04  6.1242222222222E-04  6.9991111111111E-04  7.8740000000000E-04 
 1.1589975177886E-09  3.4769947610289E-09  5.7950006424018E-09  8.1130215924022E-09  1.0431064041574E-08  1.2749134420530E-08  1.5067965575427E-08  1.7386474313892E-08  1.9705030274595E-08  2.0863427062314E-08 
 9.1999999999791E-01  9.1999999999791E-01  9.1999999999791E-01  9.1999999999791E-01  9.1999999999791E-01  9.1999999999791E-01  9.1999999999791E-01  9.1999999999791E-01  9.1999999999791E-01  9.1999999999914E-01 
 4.0000000001045E-02  4.0000000001045E-02  4.0000000001045E-02  4.0000000001045E-02  4.0000000001045E-02  4.0000000001045E-02  4.0000000001045E-02  4.0000000001045E-02  4.0000000001045E-02  4.0000000000432E-02 
 4.0000000001045E-02  4.0000000001045E-02  4.0000000001045E-02  4.0000000001045E-02  4.0000000001045E-02  4.0000000001045E-02  4.0000000001045E-02  4.0000000001045E-02  4.0000000001045E-02  4.0000000000432E-02 
 2.9167373665346E-02  2.9167357938161E-02  2.9167310756574E-02  2.9167232120470E-02  2.9167122029642E-02  2.9166980483801E-02  2.9166807482566E-02  2.9166603025471E-02  2.9166367111963E-02  2.9166099741401E-02 
 0.0000000000000E+00 -4.7371510662050E-09 -8.9170107927900E-09 -1.2539577102981E-08 -1.5604846373988E-08 -1.8112813436996E-08 -2.0063471577144E-08 -2.1456812533507E-08 -2.2292826499070E-08 -2.2571502120693E-08 
-2.9167373665346E-02 -2.9167362675312E-02 -2.9167319673585E-02 -2.9167244660047E-02 -2.9167137634489E-02 -2.9166998596614E-02 -2.9166827546037E-02 -2.9166624482283E-02 -2.9166389404789E-02 -2.9166122312903E-02 
-4.0906712751885E-02 -4.0906712751881E-02 -4.0906712751885E-02 -4.0906712751885E-02 -4.0906712751882E-02 -4.0906712751888E-02 -4.0906712751888E-02 -4.0906712751882E-02 -4.0906712751882E-02 -4.0906712752276E-02 
 1.1739339086539E-02  1.1739350076569E-02  1.1739393078300E-02  1.1739468091839E-02  1.1739575117394E-02  1.1739714155274E-02  1.1739885205851E-02  1.1740088269599E-02  1.1740323347093E-02  1.1740590439373E-02 
 1.6690487382036E+00  3.3381006556178E+00  3.3381130952168E+00  3.3381347952406E+00  3.3381657557591E+00  3.3382059768737E+00  3.3382554587094E+00  3.3383142014244E+00  3.3383822052091E+00  1.6692297351690E+00 
 8.6492352039783E-09  2.5947722100676E-08  4.3246273449847E-08  6.0544937248864E-08  7.7843761506061E-08  9.5142794178034E-08  1.1244208327536E-07  1.2974167679037E-07  1.4704183906833E-07  1.4704183906833E-07 
 0.0000000000000E+00  3.3380990660169E+00  6.6762059414566E+00  1.0014329886615E+01  1.3352480162157E+01  1.6690666028379E+01  2.0028896746314E+01  2.3367181576442E+01  2.6705529779686E+01  3.0043950617474E+01 
 3.0043950617423E+01  2.6705851551411E+01  2.3367744675994E+01  2.0029620730765E+01  1.6691470455265E+01  1.3353284588949E+01  1.0015053871157E+01  6.6767690410904E+00  3.3384208377736E+00  0.0000000000000E+00 
 5.0071465322616E-08  1.0014302602144E-07  1.0014339920874E-07  1.0014405020840E-07  1.0014497902245E-07  1.0014618565386E-07  1.0014767010647E-07  1.0014943238504E-07  1.0015147249525E-07  5.0076895222209E-08 
 9.1448444543331E+04  1.8289688908666E+05  1.8289688908666E+05  1.8289688908666E+05  1.8289688908666E+05  1.8289688908666E+05  1.8289688908666E+05  1.8289688908666E+05  1.8289688908666E+05  9.1448444543331E+04 
 3.6579377817307E+05  7.3158755634615E+05  7.3158755634615E+05  7.3158755634615E+05  7.3158755634615E+05  7.3158755634615E+05  7.3158755634615E+05  7.3158755634615E+05  7.3158755634615E+05  3.6579377817307E+05 
 4.5724222271641E+05  9.1448444543281E+05  9.1448444543281E+05  9.1448444543281E+05  9.1448444543281E+05  9.1448444543281E+05  9.1448444543281E+05  9.1448444543281E+05  9.1448444543281E+05  4.5724222271641E+05 
 3.5000000000000E-01  3.5000000000000E-01  3.5000000000000E-01  3.5000000000000E-01  3.5000000000000E-01  3.5000000000000E-01  3.5000000000000E-01  3.5000000000000E-01  3.5000000000000E-01  3.5000000000000E-01 
 8.5301666666666E+00  1.7060333333333E+01  1.7060333333333E+01  1.7060333333333E+01  1.7060333333333E+01  1.7060333333333E+01  1.7060333333333E+01  1.7060333333333E+01  1.7060333333333E+01  8.5301666666666E+00 
 1.9566425879177E-01  1.9566444514279E-01  1.9566517429613E-01  1.9566644625392E-01  1.9566826102025E-01  1.9567061860106E-01  1.9567351900370E-01  1.9567696223742E-01  1.9568094831339E-01  1.9568547724769E-01 
 4.3744444444444E-05  8.7488888888889E-05  8.7488888888889E-05  8.7488888888889E-05  8.7488888888889E-05  8.7488888888889E-05  8.7488888888889E-05  8.7488888888889E-05  8.7488888888889E-05  4.3744444444444E-05 
 8.6666666666655E+01  8.6666666666655E+01  8.6666666666655E+01  8.6666666666655E+01  8.6666666666655E+01  8.6666666666655E+01  8.6666666666655E+01  8.6666666666655E+01  8.6666666666655E+01  8.6666666666655E+01 
 2.1666666666679E+01  2.1666666666679E+01  2.1666666666679E+01  2.1666666666679E+01  2.1666666666679E+01  2.1666666666679E+01  2.1666666666679E+01  2.1666666666679E+01  2.1666666666679E+01  2.1666666666679E+01 
 5.5092176216713E-11  8.5992553786089E-11  1.8443528627009E-10  3.5616270712729E-10  6.0117669991705E-10  9.1947999470039E-10  1.3110761413072E-09  1.7759695067405E-09  2.3141651925987E-09  2.6015892916943E-09 
 1.8364118900687E-03  2.8664280196062E-03  6.1478631965290E-03  1.1872129193251E-02  2.0039289529614E-02  3.0649434833099E-02  4.3702682841714E-02  5.9199178401305E-02  7.7139093471138E-02  8.6719929073535E-02 
 9.0009225310773E-04  4.5004653491768E-03  1.5301621402973E-02  3.3303670808543E-02  5.8506801734387E-02  9.0911285583435E-02  1.3051747431969E-01  1.7732580020862E-01  2.3133676755934E-01  2.6014297838633E-01 
 4.6091253685636E-03  4.0987900294322E-03  3.1419072240361E-03  2.3125999041867E-03  1.6108682573180E-03  1.0367138866041E-03  5.9013981103312E-04  2.7115046542775E-04  7.9751700532332E-05  1.5950783101372E-05 
 0.0000000000000E+00  0.0000000000000E+00  0.0000000000000E+00  0.0000000000000E+00  0.0000000000000E+00  0.0000000000000E+00  0.0000000000000E+00  0.0000000000000E+00  0.0000000000000E+00  0.0000000000000E+00 
 0.0000000000000E+00  0.0000000000000E+00  0.0000000000000E+00  0.0000000000000E+00  0.0000000000000E+00  0.0000000000000E+00  0.0000000000000E+00  0.0000000000000E+00  0.0000000000000E+00  0.0000000000000E+00 
 0.0000000000000E+00  0.0000000000000E+00  0.0000000000000E+00  0.0000000000000E+00  0.0000000000000E+00  0.0000000000000E+00  0.0000000000000E+00  0.0000000000000E+00  0.0000000000000E+00  0.0000000000000E+00 
ZONE T = "ANOD, 4.0000E-08", I = 10, SOLUTIONTIME = 4.000000E-08
ZONETYPE = ORDERED
DATAPACKING = BLOCK
STRANDID = 1
 0.0000000000000E+00  8.7488888888889E-05  1.7497777777778E-04  2.6246666666667E-04  3.4995555555556E-04  4.3744444444444E-04  5.2493333333333E-04  6.1242222222222E-04  6.9991111111111E-04  7.8740000000000E-04 
 1.1593607254960E-09  3.4777211764248E-09  5.7964534732125E-09  8.1152008386278E-09  1.0432880080032E-08  1.2750224043491E-08  1.5066512744253E-08  1.7385021482678E-08  1.9703577443343E-08  2.0862700646507E-08 
 9.1999999999721E-01  9.1999999999721E-01  9.1999999999721E-01  9.1999999999721E-01  9.1999999999721E-01  9.1999999999721E-01  9.1999999999721E-01  9.1999999999721E-01  9.1999999999721E-01  9.1999999999885E-01 
 4.0000000001393E-02  4.0000000001393E-02  4.0000000001393E-02  4.0000000001393E-02  4.0000000001393E-02  4.0000000001393E-02  4.0000000001393E-02  4.0000000001393E-02  4.0000000001393E-02  4.0000000000576E-02 
 4.0000000001393E-02  4.0000000001393E-02  4.0000000001393E-02  4.0000000001393E-02  4.0000000001393E-02  4.0000000001393E-02  4.0000000001393E-02  4.0000000001393E-02  4.0000000001393E-02  4.0000000000576E-02 
 2.9167373665131E-02  2.9167357937946E-02  2.9167310756359E-02  2.9167232120255E-02  2.9167122029427E-02  2.9166980483586E-02  2.9166807482350E-02  2.9166603025256E-02  2.9166367111748E-02  2.9166099741186E-02 
 0.0000000000000E+00 -4.7371510661255E-09 -8.9170107926403E-09 -1.2539577102771E-08 -1.5604846373728E-08 -1.8112813436694E-08 -2.0063471576811E-08 -2.1456812533153E-08 -2.2292826498704E-08 -2.2571502120325E-08 
-2.9167373665131E-02 -2.9167362675097E-02 -2.9167319673370E-02 -2.9167244659832E-02 -2.9167137634274E-02 -2.9166998596399E-02 -2.9166827545822E-02 -2.9166624482068E-02 -2.9166389404574E-02 -2.9166122312688E-02 
-4.0906712751379E-02 -4.0906712751383E-02 -4.0906712751379E-02 -4.0906712751379E-02 -4.0906712751383E-02 -4.0906712751380E-02 -4.0906712751380E-02 -4.0906712751383E-02 -4.0906712751383E-02 -4.0906712751908E-02 
 1.1739339086247E-02  1.1739350076286E-02  1.1739393078009E-02  1.1739468091547E-02  1.1739575117109E-02  1.1739714154981E-02  1.1739885205558E-02  1.1740088269315E-02  1.1740323346809E-02  1.1740590439220E-02 
 1.6690487381742E+00  3.3381006555613E+00  3.3381130951580E+00  3.3381347951818E+00  3.3381657557021E+00  3.3382059768146E+00  3.3382554586504E+00  3.3383142013675E+00  3.3383822051522E+00  1.6692297351553E+00 