TITLE = "Solution on Domain BulkDomain1D_2"
VARIABLES = "x [m]"  
"Vel_axial" 	"MF_sp(ECDMC)" 	"MF_sp(Li+)" 	"MF_sp(PF6-)" 	"Volt(Electroly)" 	"Volt(CathodeVo)" 	
"Potential Drop Electrode-Electrolyte [V]" 	"Surf_0 Equilibrium Potential Drop Electrode-Electrolyte [V]" 	"Overpotential_0 [V]" 	"Current Source [A/m^2]" 	"Li+ flux [kmol/m^2/s]" 	"Electrolyte Current [A/m^2]" 	"Electrode Current [A/m^2]" 	
"CV Capacity discharged [A-s/m^2]" 	"Depth of discharge in CV [A-s/m^2]" 	"CV Capacity remaining [A-s/m^2]" 	"Initial CV capacity [A-s/m^2]" 	"Porosity []" 	"Surface Area [m2/m2] (area per area)" 	"Specific current (per particle area) [A/m^2]" 	"Control volume thickness [m]" 	
"MoleDens LiCoO2 [kmol/m^3]" 	"MoleDens CoO2 [kmol/m^3]" 	"qHeat_accum [J/m3]" 	"qHeat_step [W/m3]" 	"Joule_Lyte [W/m3]" 	"Joule_Solid [W/m3]" 	"electrodHeat [W/m3]" 	"OverpotHeat [W/m3]" 	"deltaSHeat [W/m3]" 	

ZONE T = "CATH, 0.0000E+00", I = 10, SOLUTIONTIME = 0.000000E+00
ZONETYPE = ORDERED
DATAPACKING = BLOCK
STRANDID = 3
 1.2700000000000E-03  1.3377333333333E-03  1.4054666666667E-03  1.4732000000000E-03  1.5409333333333E-03  1.6086666666667E-03  1.6764000000000E-03  1.7441333333333E-03  1.8118666666667E-03  1.8796000000000E-03 
 0.0000000000000E+00  0.0000000000000E+00  0.0000000000000E+00  0.0000000000000E+00  0.0000000000000E+00  0.0000000000000E+00  0.0000000000000E+00  0.0000000000000E+00  0.0000000000000E+00  0.0000000000000E+00 
 9.2000000000000E-01  9.2000000000000E-01  9.2000000000000E-01  9.2000000000000E-01  9.2000000000000E-01  9.2000000000000E-01  9.2000000000000E-01  9.2000000000000E-01  9.2000000000000E-01  9.2000000000000E-01 
 4.0000000000000E-02  4.0000000000000E-02  4.0000000000000E-02  4.0000000000000E-02  4.0000000000000E-02  4.0000000000000E-02  4.0000000000000E-02  4.0000000000000E-02  4.0000000000000E-02  4.0000000000000E-02 
 4.0000000000000E-02  4.0000000000000E-02  4.0000000000000E-02  4.0000000000000E-02  4.0000000000000E-02  4.0000000000000E-02  4.0000000000000E-02  4.0000000000000E-02  4.0000000000000E-02  4.0000000000000E-02 
-7.0000000000000E-02 -7.0000000000000E-02 -7.0000000000000E-02 -7.0000000000000E-02 -7.0000000000000E-02 -7.0000000000000E-02 -7.0000000000000E-02 -7.0000000000000E-02 -7.0000000000000E-02 -7.0000000000000E-02 
 3.8000000000000E+00  3.8000000000000E+00  3.8000000000000E+00  3.8000000000000E+00  3.8000000000000E+00  3.8000000000000E+00  3.8000000000000E+00  3.8000000000000E+00  3.8000000000000E+00  3.8000000000000E+00 
 3.8700000000000E+00  3.8700000000000E+00  3.8700000000000E+00  3.8700000000000E+00  3.8700000000000E+00  3.8700000000000E+00  3.8700000000000E+00  3.8700000000000E+00  3.8700000000000E+00  3.8700000000000E+00 
 3.9714142713289E+00  3.9714142713289E+00  3.9714142713289E+00  3.9714142713289E+00  3.9714142713289E+00  3.9714142713289E+00  3.9714142713289E+00  3.9714142713289E+00  3.9714142713289E+00  3.9714142713289E+00 
-1.0141427132889E-01 -1.0141427132889E-01 -1.0141427132889E-01 -1.0141427132889E-01 -1.0141427132889E-01 -1.0141427132889E-01 -1.0141427132889E-01 -1.0141427132889E-01 -1.0141427132889E-01 -1.0141427132889E-01 
-2.3826357195711E-01 -4.7652714391422E-01 -4.7652714391423E-01 -4.7652714391422E-01 -4.7652714391423E-01 -4.7652714391423E-01 -4.7652714391422E-01 -4.7652714391423E-01 -4.7652714391422E-01 -2.3826357195711E-01 
-0.0000000000000E+00 -0.0000000000000E+00 -0.0000000000000E+00 -0.0000000000000E+00 -0.0000000000000E+00 -0.0000000000000E+00 -0.0000000000000E+00 -0.0000000000000E+00 -0.0000000000000E+00 -0.0000000000000E+00 
 2.3826357195711E-01  0.0000000000000E+00  0.0000000000000E+00  0.0000000000000E+00  0.0000000000000E+00  0.0000000000000E+00  0.0000000000000E+00  0.0000000000000E+00  0.0000000000000E+00  0.0000000000000E+00 
 0.0000000000000E+00 -0.0000000000000E+00 -0.0000000000000E+00 -0.0000000000000E+00 -0.0000000000000E+00 -0.0000000000000E+00 -0.0000000000000E+00 -0.0000000000000E+00 -0.0000000000000E+00  2.3826357195711E-01 
-0.0000000000000E+00 -0.0000000000000E+00 -0.0000000000000E+00 -0.0000000000000E+00 -0.0000000000000E+00 -0.0000000000000E+00 -0.0000000000000E+00 -0.0000000000000E+00 -0.0000000000000E+00 -0.0000000000000E+00 
 7.2440786946225E+03  1.4488157389245E+04  1.4488157389245E+04  1.4488157389245E+04  1.4488157389245E+04  1.4488157389245E+04  1.4488157389245E+04  1.4488157389245E+04  1.4488157389245E+04  7.2440786946225E+03 
 4.9259735123433E+04  9.8519470246865E+04  9.8519470246866E+04  9.8519470246865E+04  9.8519470246866E+04  9.8519470246866E+04  9.8519470246865E+04  9.8519470246866E+04  9.8519470246865E+04  4.9259735123433E+04 
 5.6503813818055E+04  1.1300762763611E+05  1.1300762763611E+05  1.1300762763611E+05  1.1300762763611E+05  1.1300762763611E+05  1.1300762763611E+05  1.1300762763611E+05  1.1300762763611E+05  5.6503813818055E+04 
 3.5000000000000E-01  3.5000000000000E-01  3.5000000000000E-01  3.5000000000000E-01  3.5000000000000E-01  3.5000000000000E-01  3.5000000000000E-01  3.5000000000000E-01  3.5000000000000E-01  3.5000000000000E-01 
 6.6040000000000E+00  1.3208000000000E+01  1.3208000000000E+01  1.3208000000000E+01  1.3208000000000E+01  1.3208000000000E+01  1.3208000000000E+01  1.3208000000000E+01  1.3208000000000E+01  6.6040000000000E+00 
-3.6078675341780E-02 -3.6078675341780E-02 -3.6078675341780E-02 -3.6078675341780E-02 -3.6078675341780E-02 -3.6078675341780E-02 -3.6078675341780E-02 -3.6078675341780E-02 -3.6078675341780E-02 -3.6078675341780E-02 
 3.3866666666667E-05  6.7733333333333E-05  6.7733333333334E-05  6.7733333333333E-05  6.7733333333334E-05  6.7733333333334E-05  6.7733333333333E-05  6.7733333333334E-05  6.7733333333333E-05  3.3866666666667E-05 
 2.6603001364256E+01  2.6603001364256E+01  2.6603001364256E+01  2.6603001364256E+01  2.6603001364256E+01  2.6603001364256E+01  2.6603001364256E+01  2.6603001364256E+01  2.6603001364256E+01  2.6603001364256E+01 
 1.7735334242838E+01  1.7735334242838E+01  1.7735334242838E+01  1.7735334242838E+01  1.7735334242838E+01  1.7735334242838E+01  1.7735334242838E+01  1.7735334242838E+01  1.7735334242838E+01  1.7735334242838E+01 
 0.0000000000000E+00  0.0000000000000E+00  0.0000000000000E+00  0.0000000000000E+00  0.0000000000000E+00  0.0000000000000E+00  0.0000000000000E+00  0.0000000000000E+00  0.0000000000000E+00  0.0000000000000E+00 
 0.0000000000000E+00  0.0000000000000E+00  0.0000000000000E+00  0.0000000000000E+00  0.0000000000000E+00  0.0000000000000E+00  0.0000000000000E+00  0.0000000000000E+00  0.0000000000000E+00  0.0000000000000E+00 
 0.0000000000000E+00  0.0000000000000E+00  0.0000000000000E+00  0.0000000000000E+00  0.0000000000000E+00  0.0000000000000E+00  0.0000000000000E+00  0.0000000000000E+00  0.0000000000000E+00  0.0000000000000E+00 
 0.0000000000000E+00  0.0000000000000E+00  0.0000000000000E+00  0.0000000000000E+00  0.0000000000000E+00  0.0000000000000E+00  0.0000000000000E+00  0.0000000000000E+00  0.0000000000000E+00  0.0000000000000E+00 
 0.0000000000000E+00  0.0000000000000E+00  0.0000000000000E+00  0.0000000000000E+00  0.0000000000000E+00  0.0000000000000E+00  0.0000000000000E+00  0.0000000000000E+00  0.0000000000000E+00  0.0000000000000E+00 
 0.0000000000000E+00  0.0000000000000E+00  0.0000000000000E+00  0.0000000000000E+00  0.0000000000000E+00  0.0000000000000E+00  0.0000000000000E+00  0.0000000000000E+00  0.0000000000000E+00  0.0000000000000E+00 
 0.0000000000000E+00  0.0000000000000E+00  0.0000000000000E+00  0.0000000000000E+00  0.0000000000000E+00  0.0000000000000E+00  0.0000000000000E+00  0.0000000000000E+00  0.0000000000000E+00  0.0000000000000E+00 
ZONE T = "CATH, 1.0000E-08", I = 10, SOLUTIONTIME = 1.000000E-08
ZONETYPE = ORDERED
DATAPACKING = BLOCK
STRANDID = 3
 1.2700000000000E-03  1.3377333333333E-03  1.4054666666667E-03  1.4732000000000E-03  1.5409333333333E-03  1.6086666666667E-03  1.6764000000000E-03  1.7441333333333E-03  1.8118666666667E-03  1.8796000000000E-03 
 1.9700234421471E-08  1.7384705374554E-08  1.5068529808467E-08  1.2752601777939E-08  1.0435272721800E-08  8.1170730978569E-09  5.7985330701135E-09  3.4780031954441E-09  1.1560128512343E-09 -5.8113223087021E-12 
 9.2000000000037E-01  9.2000000000090E-01  9.2000000000090E-01  9.2000000000090E-01  9.2000000000090E-01  9.2000000000090E-01  9.2000000000090E-01  9.2000000000090E-01  9.2000000000090E-01  9.2000000000090E-01 
 3.9999999999813E-02  3.9999999999551E-02  3.9999999999551E-02  3.9999999999551E-02  3.9999999999550E-02  3.9999999999550E-02  3.9999999999550E-02  3.9999999999550E-02  3.9999999999550E-02  3.9999999999549E-02 
 3.9999999999813E-02  3.9999999999551E-02  3.9999999999551E-02  3.9999999999551E-02  3.9999999999550E-02  3.9999999999550E-02  3.9999999999550E-02  3.9999999999550E-02  3.9999999999550E-02  3.9999999999549E-02 
 2.9165472201150E-02  2.9165265192010E-02  2.9165082508735E-02  2.9164924154300E-02  2.9164790133738E-02  2.9164680454134E-02  2.9164595124635E-02  2.9164534156448E-02  2.9164497562847E-02  2.9164485359173E-02 
 3.8001746412144E+00  3.8001724863364E+00  3.8001660215389E+00  3.8001552462945E+00  3.8001401597120E+00  3.8001207605355E+00  3.8000970471449E+00  3.8000690175543E+00  3.8000366694121E+00  3.8000000000000E+00 
 3.7710091690133E+00  3.7710072211444E+00  3.7710009390302E+00  3.7709903221402E+00  3.7709753695782E+00  3.7709560800814E+00  3.7709324520202E+00  3.7709044833978E+00  3.7708721718493E+00  3.7708355146408E+00 
 3.9714142713287E+00  3.9714142713285E+00  3.9714142713285E+00  3.9714142713285E+00  3.9714142713285E+00  3.9714142713285E+00  3.9714142713285E+00  3.9714142713285E+00  3.9714142713285E+00  3.9714142713285E+00 
-2.0040510231540E-01 -2.0040705018410E-01 -2.0041333229835E-01 -2.0042394918829E-01 -2.0043890175030E-01 -2.0045819124711E-01 -2.0048181930828E-01 -2.0050978793068E-01 -2.0054209947925E-01 -2.0057875668769E-01 
-1.6672202312119E+00 -3.3345669678364E+00 -3.3349749958408E+00 -3.3356646840653E+00 -3.3366362651999E+00 -3.3378900671631E+00 -3.3394265133378E+00 -3.3412461228750E+00 -3.3433495110675E+00 -1.6728686948965E+00 
 1.4705067562600E-07  1.2977048860314E-07  1.1248830684235E-07  9.5202551349095E-08  7.7911761451643E-08  6.0614474780033E-08  4.3309226771969E-08  2.5994550175829E-08  8.6689745460038E-09  8.6689745460038E-09 
 3.0043664993839E+01  2.6709171634266E+01  2.3374421382274E+01  2.0039122322122E+01  1.6702992703289E+01  1.3365750494942E+01  1.0027113290537E+01  6.6867982134133E+00  3.3445218190598E+00  0.0000000000000E+00 
 0.0000000000000E+00  3.3344830096186E+00  6.6692332617010E+00  1.0004532321686E+01  1.3340661940378E+01  1.6677904148950E+01  2.0016541353255E+01  2.3356856430381E+01  2.6699132825019E+01  3.0043665515574E+01 
 1.6672202312119E-08  3.3345669678364E-08  3.3349749958408E-08  3.3356646840653E-08  3.3366362651999E-08  3.3378900671631E-08  3.3394265133378E-08  3.3412461228750E-08  3.3433495110675E-08  1.6728686948965E-08 
 7.2440786946392E+03  1.4488157389278E+04  1.4488157389278E+04  1.4488157389278E+04  1.4488157389278E+04  1.4488157389278E+04  1.4488157389278E+04  1.4488157389278E+04  1.4488157389278E+04  7.2440786946392E+03 
 4.9259735123416E+04  9.8519470246832E+04  9.8519470246832E+04  9.8519470246832E+04  9.8519470246832E+04  9.8519470246832E+04  9.8519470246832E+04  9.8519470246832E+04  9.8519470246832E+04  4.9259735123416E+04 
 5.6503813818055E+04  1.1300762763611E+05  1.1300762763611E+05  1.1300762763611E+05  1.1300762763611E+05  1.1300762763611E+05  1.1300762763611E+05  1.1300762763611E+05  1.1300762763611E+05  5.6503813818055E+04 
 3.5000000000000E-01  3.5000000000000E-01  3.5000000000000E-01  3.5000000000000E-01  3.5000000000000E-01  3.5000000000000E-01  3.5000000000000E-01  3.5000000000000E-01  3.5000000000000E-01  3.5000000000000E-01 
 6.6040000000000E+00  1.3208000000000E+01  1.3208000000000E+01  1.3208000000000E+01  1.3208000000000E+01  1.3208000000000E+01  1.3208000000000E+01  1.3208000000000E+01  1.3208000000000E+01  6.6040000000000E+00 
-2.5245612223076E-01 -2.5246570016932E-01 -2.5249659265906E-01 -2.5254881012003E-01 -2.5262237016959E-01 -2.5271729763500E-01 -2.5283362457130E-01 -2.5297139028430E-01 -2.5313064135884E-01 -2.5331143169238E-01 
 3.3866666666667E-05  6.7733333333333E-05  6.7733333333334E-05  6.7733333333333E-05  6.7733333333334E-05  6.7733333333334E-05  6.7733333333333E-05  6.7733333333334E-05  6.7733333333333E-05  3.3866666666667E-05 
 2.6603001364262E+01  2.6603001364262E+01  2.6603001364262E+01  2.6603001364262E+01  2.6603001364262E+01  2.6603001364262E+01  2.6603001364262E+01  2.6603001364262E+01  2.6603001364262E+01  2.6603001364262E+01 
 1.7735334242833E+01  1.7735334242833E+01  1.7735334242833E+01  1.7735334242833E+01  1.7735334242833E+01  1.7735334242833E+01  1.7735334242833E+01  1.7735334242833E+01  1.7735334242833E+01  1.7735334242833E+01 
 1.3976600400054E-09  3.4234911978876E-09  9.6095639264685E-09  2.0065862512606E-08  3.4795919004284E-08  5.3804710944666E-08  7.7098664936618E-08  1.0468566126306E-07  1.3657503955363E-07  1.5359658304556E-07 
 1.3976600400054E-01  3.4234911978876E-01  9.6095639264685E-01  2.0065862512606E+00  3.4795919004284E+00  5.3804710944666E+00  7.7098664936618E+00  1.0468566126306E+01  1.3657503955363E+01  1.5359658304556E+01 
 8.6725148985172E-02  7.7132771638073E-02  5.9144637706095E-02  4.3549627669892E-02  3.0347910740013E-02  1.9540465603933E-02  1.1129081816257E-02  5.1163617772109E-03  1.5057232892361E-03  3.0140271015885E-04 
 5.3040855015370E-02  2.6521634815069E-01  9.0181175494075E-01  1.9630366235907E+00  3.4492439896884E+00  5.3609306288627E+00  7.6987374118455E+00  1.0463449764529E+01  1.3655998232074E+01  1.5359356901846E+01 
 0.0000000000000E+00  0.0000000000000E+00  0.0000000000000E+00  0.0000000000000E+00  0.0000000000000E+00  0.0000000000000E+00  0.0000000000000E+00  0.0000000000000E+00  0.0000000000000E+00  0.0000000000000E+00 
 0.0000000000000E+00  0.0000000000000E+00  0.0000000000000E+00  0.0000000000000E+00  0.0000000000000E+00  0.0000000000000E+00  0.0000000000000E+00  0.0000000000000E+00  0.0000000000000E+00  0.0000000000000E+00 
 0.0000000000000E+00  0.0000000000000E+00  0.0000000000000E+00  0.0000000000000E+00  0.0000000000000E+00  0.0000000000000E+00  0.0000000000000E+00  0.0000000000000E+00  0.0000000000000E+00  0.0000000000000E+00 
ZONE T = "CATH, 2.0000E-08", I = 10, SOLUTIONTIME = 2.000000E-08
ZONETYPE = ORDERED
DATAPACKING = BLOCK
STRANDID = 3
 1.2700000000000E-03  1.3377333333333E-03  1.4054666666667E-03  1.4732000000000E-03  1.5409333333333E-03  1.6086666666667E-03  1.6764000000000E-03  1.7441333333333E-03  1.8118666666667E-03  1.8796000000000E-03 
 1.9702175600272E-08  1.7386995301502E-08  1.5070805248390E-08  1.2754136268605E-08  1.0437155820498E-08  8.1193047192532E-09  5.8003866937688E-09  3.4794786969756E-09  1.1574732931649E-09 -4.3584927334360E-12 
 9.2000000000075E-01  9.2000000000180E-01  9.2000000000180E-01  9.2000000000180E-01  9.2000000000180E-01  9.2000000000180E-01  9.2000000000180E-01  9.2000000000180E-01  9.2000000000180E-01  9.2000000000180E-01 
 3.9999999999625E-02  3.9999999999101E-02  3.9999999999101E-02  3.9999999999101E-02  3.9999999999101E-02  3.9999999999100E-02  3.9999999999100E-02  3.9999999999100E-02  3.9999999999099E-02  3.9999999999098E-02 
 3.9999999999625E-02  3.9999999999101E-02  3.9999999999101E-02  3.9999999999101E-02  3.9999999999101E-02  3.9999999999100E-02  3.9999999999100E-02  3.9999999999100E-02  3.9999999999099E-02  3.9999999999098E-02 
 2.9165475004228E-02  2.9165267993774E-02  2.9165085309335E-02  2.9164926953890E-02  2.9164792932470E-02  2.9164683252162E-02  2.9164597922112E-02  2.9164536953531E-02  2.9164500359691E-02  2.9164488155938E-02 
 3.8001746423132E+00  3.8001724874217E+00  3.8001660225838E+00  3.8001552472721E+00  3.8001401605952E+00  3.8001207612972E+00  3.8000970477577E+00  3.8000690179907E+00  3.8000366696443E+00  3.8000000000000E+00 
 3.7710091673090E+00  3.7710072194280E+00  3.7710009372745E+00  3.7709903203183E+00  3.7709753676627E+00  3.7709560780451E+00  3.7709324498356E+00  3.7709044810371E+00  3.7708721692846E+00  3.7708355118441E+00 
 3.9714142713285E+00  3.9714142713282E+00  3.9714142713282E+00  3.9714142713282E+00  3.9714142713282E+00  3.9714142713282E+00  3.9714142713282E+00  3.9714142713282E+00  3.9714142713282E+00  3.9714142713282E+00 
-2.0040510401952E-01 -2.0040705190019E-01 -2.0041333405364E-01 -2.0042395100990E-01 -2.0043890366542E-01 -2.0045819328308E-01 -2.0048182149259E-01 -2.0050979029102E-01 -2.0054210204352E-01 -2.0057875948409E-01 
-1.6672202865441E+00 -3.3345670792711E+00 -3.3349751098353E+00 -3.3356648023918E+00 -3.3366363896384E+00 -3.3378901995049E+00 -3.3394266553883E+00 -3.3412462764576E+00 -3.3433496780267E+00 -1.6728687859987E+00 
 1.4705172904359E-07  1.2977131462140E-07  1.1248902476124E-07  9.5203160820854E-08  7.7912261993244E-08  6.0614865747331E-08  4.3309507381677E-08  2.5994719498822E-08  8.6690315023618E-09  8.6690315023618E-09 
 3.0043845263079E+01  2.6709341436864E+01  2.3374570342323E+01  2.0039250386165E+01  1.6703099790239E+01  1.3365836495652E+01  1.0027178068039E+01  6.6868416022030E+00  3.3445436250984E+00  0.0000000000000E+00 
 0.0000000000000E+00  3.3345038260608E+00  6.6692749206979E+00  1.0004594876837E+01  1.3340745472942E+01  1.6678008767501E+01  2.0016667194885E+01  2.3357003660870E+01  2.6699301637979E+01  3.0043845262925E+01 
 3.3344405177560E-08  6.6691340471075E-08  6.6699501056761E-08  6.6713294864571E-08  6.6732726548383E-08  6.6757802666680E-08  6.6788531687261E-08  6.6824923993326E-08  6.6866991890942E-08  3.3457374808952E-08 
 7.2440786946558E+03  1.4488157389312E+04  1.4488157389312E+04  1.4488157389312E+04  1.4488157389312E+04  1.4488157389312E+04  1.4488157389312E+04  1.4488157389312E+04  1.4488157389312E+04  7.2440786946559E+03 
 4.9259735123400E+04  9.8519470246798E+04  9.8519470246799E+04  9.8519470246798E+04  9.8519470246799E+04  9.8519470246799E+04  9.8519470246798E+04  9.8519470246799E+04  9.8519470246798E+04  4.9259735123399E+04 
 5.6503813818055E+04  1.1300762763611E+05  1.1300762763611E+05  1.1300762763611E+05  1.1300762763611E+05  1.1300762763611E+05  1.1300762763611E+05  1.1300762763611E+05  1.1300762763611E+05  5.6503813818055E+04 
 3.5000000000000E-01  3.5000000000000E-01  3.5000000000000E-01  3.5000000000000E-01  3.5000000000000E-01  3.5000000000000E-01  3.5000000000000E-01  3.5000000000000E-01  3.5000000000000E-01  3.5000000000000E-01 
 6.6040000000000E+00  1.3208000000000E+01  1.3208000000000E+01  1.3208000000000E+01  1.3208000000000E+01  1.3208000000000E+01  1.3208000000000E+01  1.3208000000000E+01  1.3208000000000E+01  6.6040000000000E+00 
-2.5245613060934E-01 -2.5246570860623E-01 -2.5249660128977E-01 -2.5254881907873E-01 -2.5262237959104E-01 -2.5271730765482E-01 -2.5283363532619E-01 -2.5297140191229E-01 -2.5313065399960E-01 -2.5331144548739E-01 
 3.3866666666667E-05  6.7733333333333E-05  6.7733333333334E-05  6.7733333333333E-05  6.7733333333334E-05  6.7733333333334E-05  6.7733333333333E-05  6.7733333333334E-05  6.7733333333333E-05  3.3866666666667E-05 
 2.6603001364267E+01  2.6603001364267E+01  2.6603001364267E+01  2.6603001364267E+01  2.6603001364267E+01  2.6603001364267E+01  2.6603001364267E+01  2.6603001364267E+01  2.6603001364267E+01  2.6603001364267E+01 
 1.7735334242827E+01  1.7735334242827E+01  1.7735334242827E+01  1.7735334242827E+01  1.7735334242827E+01  1.7735334242827E+01  1.7735334242827E+01  1.7735334242827E+01  1.7735334242827E+01  1.7735334242827E+01 
 2.7953377162627E-09  6.8470253181481E-09  1.9219248063158E-08  4.0131976099617E-08  6.9592273891834E-08  1.0761009704184E-07  1.5419829943191E-07  2.0937264245879E-07  2.7315180636317E-07  3.0719511137962E-07 
 1.3976776762573E-01  3.4235341202605E-01  9.6096841366900E-01  2.0066113587011E+00  3.4796354887550E+00  5.3805386097174E+00  7.7099634495295E+00  1.0468698119572E+01  1.3657676680953E+01  1.5359852833406E+01 
 8.6726250542296E-02  7.7133752311923E-02  5.9145391470587E-02  4.3550184227857E-02  3.0348299811302E-02  1.9540717008465E-02  1.1129225560391E-02  5.1164281385579E-03  1.5057429036384E-03  3.0140666052773E-04 
 5.3041517083430E-02  2.6521965971412E-01  9.0182302219841E-01  1.9630611744732E+00  3.4492871889437E+00  5.3609978927090E+00  7.6988342239691E+00  1.0463581691434E+01  1.3656170938050E+01  1.5359551426745E+01 
 0.0000000000000E+00  0.0000000000000E+00  0.0000000000000E+00  0.0000000000000E+00  0.0000000000000E+00  0.0000000000000E+00  0.0000000000000E+00  0.0000000000000E+00  0.0000000000000E+00  0.0000000000000E+00 
 0.0000000000000E+00  0.0000000000000E+00  0.0000000000000E+00  0.0000000000000E+00  0.0000000000000E+00  0.0000000000000E+00  0.0000000000000E+00  0.0000000000000E+00  0.0000000000000E+00  0.0000000000000E+00 
 0.0000000000000E+00  0.0000000000000E+00  0.0000000000000E+00  0.0000000000000E+00  0.0000000000000E+00  0.0000000000000E+00  0.0000000000000E+00  0.0000000000000E+00  0.0000000000000E+00  0.0000000000000E+00 
ZONE T = "CATH, 3.0000E-08", I = 10, SOLUTIONTIME = 3.000000E-08
ZONETYPE = ORDERED
DATAPACKING = BLOCK
STRANDID = 3
 1.2700000000000E-03  1.3377333333333E-03  1.4054666666667E-03  1.4732000000000E-03  1.5409333333333E-03  1.6086666666667E-03  1.6764000000000E-03  1.7441333333333E-03  1.8118666666667E-03  1.8796000000000E-03 
 1.9706170884937E-08  1.7390264170752E-08  1.5074800533136E-08  1.2758131553390E-08  1.0440787897596E-08  8.1229367963907E-09  5.8040187709463E-09  3.4845636051043E-09  1.1629214090615E-09  1.4528309110510E-12 
 9.2000000000112E-01  9.2000000000270E-01  9.2000000000270E-01  9.2000000000270E-01  9.2000000000270E-01  9.2000000000270E-01  9.2000000000270E-01  9.2000000000270E-01  9.2000000000270E-01  9.2000000000270E-01 
 3.9999999999438E-02  3.9999999998652E-02  3.9999999998652E-02  3.9999999998652E-02  3.9999999998651E-02  3.9999999998651E-02  3.9999999998650E-02  3.9999999998649E-02  3.9999999998649E-02  3.9999999998648E-02 
 3.9999999999438E-02  3.9999999998652E-02  3.9999999998652E-02  3.9999999998652E-02  3.9999999998651E-02  3.9999999998651E-02  3.9999999998650E-02  3.9999999998649E-02  3.9999999998649E-02  3.9999999998648E-02 
 2.9165475004014E-02  2.9165267993559E-02  2.9165085309121E-02  2.9164926953676E-02  2.9164792932255E-02  2.9164683251947E-02  2.9164597921898E-02  2.9164536953316E-02  2.9164500359477E-02  2.9164488155724E-02 
 3.8001746423132E+00  3.8001724874217E+00  3.8001660225838E+00  3.8001552472721E+00  3.8001401605952E+00  3.8001207612972E+00  3.8000970477577E+00  3.8000690179907E+00  3.8000366696443E+00  3.8000000000000E+00 
 3.7710091673092E+00  3.7710072194282E+00  3.7710009372747E+00  3.7709903203185E+00  3.7709753676629E+00  3.7709560780453E+00  3.7709324498358E+00  3.7709044810374E+00  3.7708721692849E+00  3.7708355118443E+00 
 3.9714142713283E+00  3.9714142713278E+00  3.9714142713278E+00  3.9714142713278E+00  3.9714142713278E+00  3.9714142713278E+00  3.9714142713278E+00  3.9714142713278E+00  3.9714142713278E+00  3.9714142713278E+00 
-2.0040510401911E-01 -2.0040705189961E-01 -2.0041333405306E-01 -2.0042395100932E-01 -2.0043890366484E-01 -2.0045819328250E-01 -2.0048182149201E-01 -2.0050979029043E-01 -2.0054210204293E-01 -2.0057875948351E-01 
-1.6672202865263E+00 -3.3345670792138E+00 -3.3349751097780E+00 -3.3356648023344E+00 -3.3366363895810E+00 -3.3378901994473E+00 -3.3394266553307E+00 -3.3412462763999E+00 -3.3433496779689E+00 -1.6728687859698E+00 
 1.4705184857425E-07  1.2977131465109E-07  1.1248902479943E-07  9.5203160874240E-08  7.7912262073292E-08  6.0614865842137E-08  4.3309507494154E-08  2.5994719625171E-08  8.6690316484081E-09  8.6690316484081E-09 
 3.0043845262835E+01  2.6709341436610E+01  2.3374570341823E+01  2.0039250385702E+01  1.6703099790051E+01  1.3365836495502E+01  1.0027178067926E+01  6.6868416021277E+00  3.3445436250607E+00  0.0000000000000E+00 
 0.0000000000000E+00  3.3345038262326E+00  6.6692749206979E+00  1.0004594876666E+01  1.3340745472599E+01  1.6678008767157E+01  2.0016667194541E+01  2.3357003660355E+01  2.6699301637636E+01  3.0043845262553E+01 
 5.0016608042824E-08  1.0003701126321E-07  1.0004925215454E-07  1.0006994288792E-07  1.0009909044419E-07  1.0013670466115E-07  1.0018279824057E-07  1.0023738675733E-07  1.0030048867063E-07  5.0186062668650E-08 
 7.2440786946725E+03  1.4488157389345E+04  1.4488157389345E+04  1.4488157389345E+04  1.4488157389345E+04  1.4488157389345E+04  1.4488157389345E+04  1.4488157389345E+04  1.4488157389345E+04  7.2440786946727E+03 
 4.9259735123383E+04  9.8519470246765E+04  9.8519470246766E+04  9.8519470246765E+04  9.8519470246766E+04  9.8519470246766E+04  9.8519470246765E+04  9.8519470246766E+04  9.8519470246765E+04  4.9259735123383E+04 
 5.6503813818055E+04  1.1300762763611E+05  1.1300762763611E+05  1.1300762763611E+05  1.1300762763611E+05  1.1300762763611E+05  1.1300762763611E+05  1.1300762763611E+05  1.1300762763611E+05  5.6503813818055E+04 
 3.5000000000000E-01  3.5000000000000E-01  3.5000000000000E-01  3.5000000000000E-01  3.5000000000000E-01  3.5000000000000E-01  3.5000000000000E-01  3.5000000000000E-01  3.5000000000000E-01  3.5000000000000E-01 
 6.6040000000000E+00  1.3208000000000E+01  1.3208000000000E+01  1.3208000000000E+01  1.3208000000000E+01  1.3208000000000E+01  1.3208000000000E+01  1.3208000000000E+01  1.3208000000000E+01  6.6040000000000E+00 
-2.5245613060665E-01 -2.5246570860189E-01 -2.5249660128543E-01 -2.5254881907438E-01 -2.5262237958669E-01 -2.5271730765046E-01 -2.5283363532183E-01 -2.5297140190793E-01 -2.5313065399522E-01 -2.5331144548300E-01 
 3.3866666666667E-05  6.7733333333333E-05  6.7733333333334E-05  6.7733333333333E-05  6.7733333333334E-05  6.7733333333334E-05  6.7733333333333E-05  6.7733333333334E-05  6.7733333333333E-05  3.3866666666667E-05 
 2.6603001364272E+01  2.6603001364272E+01  2.6603001364272E+01  2.6603001364272E+01  2.6603001364272E+01  2.6603001364272E+01  2.6603001364272E+01  2.6603001364272E+01  2.6603001364272E+01  2.6603001364272E+01 
 1.7735334242822E+01  1.7735334242822E+01  1.7735334242822E+01  1.7735334242822E+01  1.7735334242822E+01  1.7735334242822E+01  1.7735334242822E+01  1.7735334242822E+01  1.7735334242822E+01  1.7735334242822E+01 
 4.1930153925130E-09  1.0270559438729E-08  2.8828932199612E-08  6.0198089686065E-08  1.0438862877741E-07  1.6141548313704E-07  2.3129793392436E-07  3.1405962365002E-07  4.0972857316920E-07  4.6079363970995E-07 
 1.3976776762504E-01  3.4235341205811E-01  9.6096841364536E-01  2.0066113586448E+00  3.4796354885579E+00  5.3805386095204E+00  7.7099634492450E+00  1.0468698119124E+01  1.3657676680603E+01  1.5359852833034E+01 
 8.6726250541606E-02  7.7133752311199E-02  5.9145391468811E-02  4.3550184226256E-02  3.0348299810961E-02  1.9540717008245E-02  1.1129225560266E-02  5.1164281385003E-03  1.5057429036214E-03  3.0140666052433E-04 
 5.3041517083430E-02  2.6521965974692E-01  9.0182302217654E-01  1.9630611744186E+00  3.4492871887469E+00  5.3609978925122E+00  7.6988342236847E+00  1.0463581690985E+01  1.3656170937700E+01  1.5359551426373E+01 
 0.0000000000000E+00  0.0000000000000E+00  0.0000000000000E+00  0.0000000000000E+00  0.0000000000000E+00  0.0000000000000E+00  0.0000000000000E+00  0.0000000000000E+00  0.0000000000000E+00  0.0000000000000E+00 
 0.0000000000000E+00  0.0000000000000E+00  0.0000000000000E+00  0.0000000000000E+00  0.0000000000000E+00  0.0000000000000E+00  0.0000000000000E+00  0.0000000000000E+00  0.0000000000000E+00  0.0000000000000E+00 
 0.0000000000000E+00  0.0000000000000E+00  0.0000000000000E+00  0.0000000000000E+00  0.0000000000000E+00  0.0000000000000E+00  0.0000000000000E+00  0.0000000000000E+00  0.0000000000000E+00  0.0000000000000E+00 
ZONE T = "CATH, 4.0000E-08", I = 10, SOLUTIONTIME = 4.000000E-08
ZONETYPE = ORDERED
DATAPACKING = BLOCK
STRANDID = 3
 1.2700000000000E-03  1.3377333333333E-03  1.4054666666667E-03  1.4732000000000E-03  1.5409333333333E-03  1.6086666666667E-03  1.6764000000000E-03  1.7441333333333E-03  1.8118666666667E-03  1.8796000000000E-03 
 1.9704354845959E-08  1.7389174547269E-08  1.5072984494237E-08  1.2756315514531E-08  1.0439698274232E-08  8.1218471730670E-09  5.8029291476626E-09  3.4823843586773E-09  1.1614685781303E-09 -5.9715432617135E-23 
 9.2000000000150E-01  9.2000000000359E-01  9.2000000000359E-01  9.2000000000360E-01  9.2000000000360E-01  9.2000000000360E-01  9.2000000000360E-01  9.2000000000360E-01  9.2000000000360E-01  9.2000000000361E-01 
 3.9999999999251E-02  3.9999999998203E-02  3.9999999998203E-02  3.9999999998202E-02  3.9999999998202E-02  3.9999999998201E-02  3.9999999998200E-02  3.9999999998199E-02  3.9999999998198E-02  3.9999999998197E-02 
 3.9999999999251E-02  3.9999999998203E-02  3.9999999998203E-02  3.9999999998202E-02  3.9999999998202E-02  3.9999999998201E-02  3.9999999998200E-02  3.9999999998199E-02  3.9999999998198E-02  3.9999999998197E-02 
 2.9165475003798E-02  2.9165267993344E-02  2.9165085308906E-02  2.9164926953461E-02  2.9164792932040E-02  2.9164683251732E-02  2.9164597921683E-02  2.9164536953101E-02  2.9164500359262E-02  2.9164488155508E-02 
 3.8001746423132E+00  3.8001724874217E+00  3.8001660225838E+00  3.8001552472721E+00  3.8001401605952E+00  3.8001207612972E+00  3.8000970477577E+00  3.8000690179907E+00  3.8000366696443E+00  3.8000000000000E+00 
 3.7710091673094E+00  3.7710072194284E+00  3.7710009372749E+00  3.7709903203187E+00  3.7709753676632E+00  3.7709560780455E+00  3.7709324498360E+00  3.7709044810376E+00  3.7708721692851E+00  3.7708355118445E+00 
 3.9714142713281E+00  3.9714142713274E+00  3.9714142713274E+00  3.9714142713274E+00  3.9714142713274E+00  3.9714142713274E+00  3.9714142713274E+00  3.9714142713274E+00  3.9714142713274E+00  3.9714142713274E+00 
-2.0040510401870E-01 -2.0040705189903E-01 -2.0041333405248E-01 -2.0042395100874E-01 -2.0043890366426E-01 -2.0045819328192E-01 -2.0048182149142E-01 -2.0050979028985E-01 -2.0054210204235E-01 -2.0057875948292E-01 
-1.6672202865086E+00 -3.3345670791564E+00 -3.3349751097206E+00 -3.3356648022770E+00 -3.3366363895235E+00 -3.3378901993898E+00 -3.3394266552731E+00 -3.3412462763423E+00 -3.3433496779111E+00 -1.6728687859408E+00 