TITLE = "Solution on Domain BulkDomain1D_1"
VARIABLES = "x [m]"  
"Vel_axial" 	"MF_sp(ECDMC)" 	"MF_sp(Li+)" 	"MF_sp(PF6-)" 	"Volt(Electroly)" 	"Porosity []" 	"Control volume thickness [m]" 	"volFrac MgO(S) []" 	"qHeat_accum [J/m3]" 	"qHeat_step [W/m3]" 	"Joule_Lyte [W/m3]" 	"Joule_Solid [W/m3]" 	
ZONE T = "SEP , 0.0000E+00", I = 10, SOLUTIONTIME = 0.000000E+00
ZONETYPE = ORDERED
DATAPACKING = BLOCK
STRANDID = 2
 7.8740000000000E-04  8.4102222222222E-04  8.9464444444444E-04  9.4826666666667E-04  1.0018888888889E-03  1.0555111111111E-03  1.1091333333333E-03  1.1627555555556E-03  1.2163777777778E-03  1.2700000000000E-03 
 0.0000000000000E+00  0.0000000000000E+00  0.0000000000000E+00  0.0000000000000E+00  0.0000000000000E+00  0.0000000000000E+00  0.0000000000000E+00  0.0000000000000E+00  0.0000000000000E+00  0.0000000000000E+00 
 9.2000000000000E-01  9.2000000000000E-01  9.2000000000000E-01  9.2000000000000E-01  9.2000000000000E-01  9.2000000000000E-01  9.2000000000000E-01  9.2000000000000E-01  9.2000000000000E-01  9.2000000000000E-01 
 4.0000000000000E-02  4.0000000000000E-02  4.0000000000000E-02  4.0000000000000E-02  4.0000000000000E-02  4.0000000000000E-02  4.0000000000000E-02  4.0000000000000E-02  4.0000000000000E-02  4.0000000000000E-02 
 4.0000000000000E-02  4.0000000000000E-02  4.0000000000000E-02  4.0000000000000E-02  4.0000000000000E-02  4.0000000000000E-02  4.0000000000000E-02  4.0000000000000E-02  4.0000000000000E-02  4.0000000000000E-02 
-7.0000000000000E-02 -7.0000000000000E-02 -7.0000000000000E-02 -7.0000000000000E-02 -7.0000000000000E-02 -7.0000000000000E-02 -7.0000000000000E-02 -7.0000000000000E-02 -7.0000000000000E-02 -7.0000000000000E-02 
 8.0911499769706E-01  8.0911499769706E-01  8.0911499769706E-01  8.0911499769706E-01  8.0911499769706E-01  8.0911499769706E-01  8.0911499769706E-01  8.0911499769706E-01  8.0911499769706E-01  8.0911499769706E-01 
 2.6811111111111E-05  5.3622222222222E-05  5.3622222222222E-05  5.3622222222222E-05  5.3622222222222E-05  5.3622222222222E-05  5.3622222222222E-05  5.3622222222223E-05  5.3622222222222E-05  2.6811111111111E-05 
 1.9088500230294E-01  1.9088500230294E-01  1.9088500230294E-01  1.9088500230294E-01  1.9088500230294E-01  1.9088500230294E-01  1.9088500230294E-01  1.9088500230294E-01  1.9088500230294E-01  1.9088500230294E-01 
 0.0000000000000E+00  0.0000000000000E+00  0.0000000000000E+00  0.0000000000000E+00  0.0000000000000E+00  0.0000000000000E+00  0.0000000000000E+00  0.0000000000000E+00  0.0000000000000E+00  0.0000000000000E+00 
 0.0000000000000E+00  0.0000000000000E+00  0.0000000000000E+00  0.0000000000000E+00  0.0000000000000E+00  0.0000000000000E+00  0.0000000000000E+00  0.0000000000000E+00  0.0000000000000E+00  0.0000000000000E+00 
 0.0000000000000E+00  0.0000000000000E+00  0.0000000000000E+00  0.0000000000000E+00  0.0000000000000E+00  0.0000000000000E+00  0.0000000000000E+00  0.0000000000000E+00  0.0000000000000E+00  0.0000000000000E+00 
 0.0000000000000E+00  0.0000000000000E+00  0.0000000000000E+00  0.0000000000000E+00  0.0000000000000E+00  0.0000000000000E+00  0.0000000000000E+00  0.0000000000000E+00  0.0000000000000E+00  0.0000000000000E+00 
ZONE T = "SEP , 1.0000E-08", I = 10, SOLUTIONTIME = 1.000000E-08
ZONETYPE = ORDERED
DATAPACKING = BLOCK
STRANDID = 2
 7.8740000000000E-04  8.4102222222222E-04  8.9464444444444E-04  9.4826666666667E-04  1.0018888888889E-03  1.0555111111111E-03  1.1091333333333E-03  1.1627555555556E-03  1.2163777777778E-03  1.2700000000000E-03 
 2.0863323627698E-08  2.0863323627698E-08  2.0863323627698E-08  2.0863323627698E-08  2.0863323627698E-08  2.0863323627698E-08  2.0863323627698E-08  2.0863323627698E-08  2.0863323627698E-08  1.9705052572840E-08 
 9.1999999999971E-01  9.2000000000000E-01  9.2000000000000E-01  9.2000000000000E-01  9.2000000000000E-01  9.2000000000000E-01  9.2000000000000E-01  9.2000000000000E-01  9.2000000000000E-01  9.2000000000032E-01 
 4.0000000000144E-02  4.0000000000000E-02  4.0000000000000E-02  4.0000000000000E-02  4.0000000000000E-02  4.0000000000000E-02  4.0000000000000E-02  4.0000000000000E-02  4.0000000000000E-02  3.9999999999841E-02 
 4.0000000000144E-02  4.0000000000000E-02  4.0000000000000E-02  4.0000000000000E-02  4.0000000000000E-02  4.0000000000000E-02  4.0000000000000E-02  4.0000000000000E-02  4.0000000000000E-02  3.9999999999841E-02 
 2.9166097552418E-02  2.9166048187824E-02  2.9165998823244E-02  2.9165949458665E-02  2.9165900094085E-02  2.9165850729505E-02  2.9165801364911E-02  2.9165752000331E-02  2.9165702635743E-02  2.9165653271163E-02 
 8.0911499769706E-01  8.0911499769706E-01  8.0911499769706E-01  8.0911499769706E-01  8.0911499769706E-01  8.0911499769706E-01  8.0911499769706E-01  8.0911499769706E-01  8.0911499769706E-01  8.0911499769706E-01 
 2.6811111111111E-05  5.3622222222222E-05  5.3622222222222E-05  5.3622222222222E-05  5.3622222222222E-05  5.3622222222222E-05  5.3622222222222E-05  5.3622222222223E-05  5.3622222222222E-05  2.6811111111111E-05 
 1.9088500230294E-01  1.9088500230294E-01  1.9088500230294E-01  1.9088500230294E-01  1.9088500230294E-01  1.9088500230294E-01  1.9088500230294E-01  1.9088500230294E-01  1.9088500230294E-01  1.9088500230294E-01 
 2.7658316448983E-10  2.7658308570396E-10  2.7658300489645E-10  2.7658300474094E-10  2.7658300950345E-10  2.7658308624800E-10  2.7658308444019E-10  2.7658305759514E-10  2.7658305378486E-10  2.7658300116364E-10 
 2.7658316448983E-02  2.7658308570396E-02  2.7658300489645E-02  2.7658300474094E-02  2.7658300950345E-02  2.7658308624800E-02  2.7658308444019E-02  2.7658305759514E-02  2.7658305378486E-02  2.7658300116364E-02 
 2.7658316448983E-02  2.7658308570396E-02  2.7658300489645E-02  2.7658300474094E-02  2.7658300950345E-02  2.7658308624800E-02  2.7658308444019E-02  2.7658305759514E-02  2.7658305378486E-02  2.7658300116364E-02 
 0.0000000000000E+00  0.0000000000000E+00  0.0000000000000E+00  0.0000000000000E+00  0.0000000000000E+00  0.0000000000000E+00  0.0000000000000E+00  0.0000000000000E+00  0.0000000000000E+00  0.0000000000000E+00 
ZONE T = "SEP , 2.0000E-08", I = 10, SOLUTIONTIME = 2.000000E-08
ZONETYPE = ORDERED
DATAPACKING = BLOCK
STRANDID = 2
 7.8740000000000E-04  8.4102222222222E-04  8.9464444444444E-04  9.4826666666667E-04  1.0018888888889E-03  1.0555111111111E-03  1.1091333333333E-03  1.1627555555556E-03  1.2163777777778E-03  1.2700000000000E-03 
 2.0861974231753E-08  2.0860521400842E-08  2.0860521400842E-08  2.0860521400842E-08  2.0860521400842E-08  2.0860521400842E-08  2.0860521400842E-08  2.0860521400842E-08  2.0860521400842E-08  1.9702789515684E-08 
 9.1999999999942E-01  9.2000000000000E-01  9.2000000000000E-01  9.2000000000000E-01  9.2000000000000E-01  9.2000000000000E-01  9.2000000000000E-01  9.2000000000000E-01  9.2000000000000E-01  9.2000000000063E-01 
 4.0000000000288E-02  4.0000000000000E-02  4.0000000000000E-02  4.0000000000000E-02  4.0000000000000E-02  4.0000000000000E-02  4.0000000000000E-02  4.0000000000000E-02  4.0000000000000E-02  3.9999999999683E-02 
 4.0000000000288E-02  4.0000000000000E-02  4.0000000000000E-02  4.0000000000000E-02  4.0000000000000E-02  4.0000000000000E-02  4.0000000000000E-02  4.0000000000000E-02  4.0000000000000E-02  3.9999999999683E-02 
 2.9166099741615E-02  2.9166050376788E-02  2.9166001011960E-02  2.9165951647132E-02  2.9165902282304E-02  2.9165852917476E-02  2.9165803552648E-02  2.9165754187821E-02  2.9165704822993E-02  2.9165655458165E-02 
 8.0911499769706E-01  8.0911499769706E-01  8.0911499769706E-01  8.0911499769706E-01  8.0911499769706E-01  8.0911499769706E-01  8.0911499769706E-01  8.0911499769706E-01  8.0911499769706E-01  8.0911499769706E-01 
 2.6811111111111E-05  5.3622222222222E-05  5.3622222222222E-05  5.3622222222222E-05  5.3622222222222E-05  5.3622222222222E-05  5.3622222222222E-05  5.3622222222223E-05  5.3622222222222E-05  2.6811111111111E-05 
 1.9088500230294E-01  1.9088500230294E-01  1.9088500230294E-01  1.9088500230294E-01  1.9088500230294E-01  1.9088500230294E-01  1.9088500230294E-01  1.9088500230294E-01  1.9088500230294E-01  1.9088500230294E-01 
 5.5316895085871E-10  5.5316887207234E-10  5.5316879126433E-10  5.5316879108939E-10  5.5316879585190E-10  5.5316887261588E-10  5.5316887080807E-10  5.5316884396303E-10  5.5316884013276E-10  5.5316878749156E-10 
 2.7658578636888E-02  2.7658578636838E-02  2.7658578636789E-02  2.7658578634845E-02  2.7658578634845E-02  2.7658578636789E-02  2.7658578636789E-02  2.7658578636788E-02  2.7658578634790E-02  2.7658578632791E-02 
 2.7658578636888E-02  2.7658578636838E-02  2.7658578636789E-02  2.7658578634845E-02  2.7658578634845E-02  2.7658578636789E-02  2.7658578636789E-02  2.7658578636788E-02  2.7658578634790E-02  2.7658578632791E-02 
 0.0000000000000E+00  0.0000000000000E+00  0.0000000000000E+00  0.0000000000000E+00  0.0000000000000E+00  0.0000000000000E+00  0.0000000000000E+00  0.0000000000000E+00  0.0000000000000E+00  0.0000000000000E+00 
ZONE T = "SEP , 3.0000E-08", I = 10, SOLUTIONTIME = 3.000000E-08
ZONETYPE = ORDERED
DATAPACKING = BLOCK
STRANDID = 2
 7.8740000000000E-04  8.4102222222222E-04  8.9464444444444E-04  9.4826666666667E-04  1.0018888888889E-03  1.0555111111111E-03  1.1091333333333E-03  1.1627555555556E-03  1.2163777777778E-03  1.2700000000000E-03 
 2.0863790270041E-08  2.0865243100953E-08  2.0865243100953E-08  2.0865243100953E-08  2.0865243100953E-08  2.0865243100953E-08  2.0865243100953E-08  2.0865243100953E-08  2.0865243100953E-08  1.9706784800350E-08 
 9.1999999999914E-01  9.2000000000000E-01  9.2000000000000E-01  9.2000000000000E-01  9.2000000000000E-01  9.2000000000000E-01  9.2000000000000E-01  9.2000000000000E-01  9.2000000000000E-01  9.2000000000095E-01 
 4.0000000000432E-02  4.0000000000000E-02  4.0000000000000E-02  4.0000000000000E-02  4.0000000000000E-02  4.0000000000000E-02  4.0000000000000E-02  4.0000000000000E-02  4.0000000000000E-02  3.9999999999524E-02 
 4.0000000000432E-02  4.0000000000000E-02  4.0000000000000E-02  4.0000000000000E-02  4.0000000000000E-02  4.0000000000000E-02  4.0000000000000E-02  4.0000000000000E-02  4.0000000000000E-02  3.9999999999524E-02 
 2.9166099741401E-02  2.9166050376573E-02  2.9166001011745E-02  2.9165951646917E-02  2.9165902282090E-02  2.9165852917262E-02  2.9165803552434E-02  2.9165754187606E-02  2.9165704822778E-02  2.9165655457950E-02 
 8.0911499769706E-01  8.0911499769706E-01  8.0911499769706E-01  8.0911499769706E-01  8.0911499769706E-01  8.0911499769706E-01  8.0911499769706E-01  8.0911499769706E-01  8.0911499769706E-01  8.0911499769706E-01 
 2.6811111111111E-05  5.3622222222222E-05  5.3622222222222E-05  5.3622222222222E-05  5.3622222222222E-05  5.3622222222222E-05  5.3622222222222E-05  5.3622222222223E-05  5.3622222222222E-05  2.6811111111111E-05 
 1.9088500230294E-01  1.9088500230294E-01  1.9088500230294E-01  1.9088500230294E-01  1.9088500230294E-01  1.9088500230294E-01  1.9088500230294E-01  1.9088500230294E-01  1.9088500230294E-01  1.9088500230294E-01 
 8.2975473722809E-10  8.2975465842154E-10  8.2975457761278E-10  8.2975457743783E-10  8.2975458220035E-10  8.2975465898377E-10  8.2975465715652E-10  8.2975463031147E-10  8.2975462648038E-10  8.2975457381892E-10 
 2.7658578636938E-02  2.7658578634919E-02  2.7658578634845E-02  2.7658578634845E-02  2.7658578634845E-02  2.7658578636789E-02  2.7658578634845E-02  2.7658578634844E-02  2.7658578634762E-02  2.7658578632736E-02 
 2.7658578636938E-02  2.7658578634919E-02  2.7658578634845E-02  2.7658578634845E-02  2.7658578634845E-02  2.7658578636789E-02  2.7658578634845E-02  2.7658578634844E-02  2.7658578634762E-02  2.7658578632736E-02 
 0.0000000000000E+00  0.0000000000000E+00  0.0000000000000E+00  0.0000000000000E+00  0.0000000000000E+00  0.0000000000000E+00  0.0000000000000E+00  0.0000000000000E+00  0.0000000000000E+00  0.0000000000000E+00 
ZONE T = "SEP , 4.0000E-08", I = 10, SOLUTIONTIME = 4.000000E-08
ZONETYPE = ORDERED
DATAPACKING = BLOCK
STRANDID = 2
 7.8740000000000E-04  8.4102222222222E-04  8.9464444444444E-04  9.4826666666667E-04  1.0018888888889E-03  1.0555111111111E-03  1.1091333333333E-03  1.1627555555556E-03  1.2163777777778E-03  1.2700000000000E-03 
 2.0861429419460E-08  2.0861429419460E-08  2.0861429419460E-08  2.0861429419460E-08  2.0861429419460E-08  2.0861429419460E-08  2.0861429419460E-08  2.0861429419459E-08  2.0861429419459E-08  1.9704968761372E-08 
 9.1999999999885E-01  9.2000000000000E-01  9.2000000000000E-01  9.2000000000000E-01  9.2000000000000E-01  9.2000000000000E-01  9.2000000000000E-01  9.2000000000000E-01  9.2000000000000E-01  9.2000000000127E-01 
 4.0000000000576E-02  4.0000000000000E-02  4.0000000000000E-02  4.0000000000000E-02  4.0000000000000E-02  4.0000000000000E-02  4.0000000000000E-02  4.0000000000000E-02  4.0000000000000E-02  3.9999999999365E-02 
 4.0000000000576E-02  4.0000000000000E-02  4.0000000000000E-02  4.0000000000000E-02  4.0000000000000E-02  4.0000000000000E-02  4.0000000000000E-02  4.0000000000000E-02  4.0000000000000E-02  3.9999999999365E-02 
 2.9166099741186E-02  2.9166050376358E-02  2.9166001011530E-02  2.9165951646702E-02  2.9165902281875E-02  2.9165852917047E-02  2.9165803552219E-02  2.9165754187391E-02  2.9165704822563E-02  2.9165655457735E-02 
 8.0911499769706E-01  8.0911499769706E-01  8.0911499769706E-01  8.0911499769706E-01  8.0911499769706E-01  8.0911499769706E-01  8.0911499769706E-01  8.0911499769706E-01  8.0911499769706E-01  8.0911499769706E-01 
 2.6811111111111E-05  5.3622222222222E-05  5.3622222222222E-05  5.3622222222222E-05  5.3622222222222E-05  5.3622222222222E-05  5.3622222222222E-05  5.3622222222223E-05  5.3622222222222E-05  2.6811111111111E-05 
 1.9088500230294E-01  1.9088500230294E-01  1.9088500230294E-01  1.9088500230294E-01  1.9088500230294E-01  1.9088500230294E-01  1.9088500230294E-01  1.9088500230294E-01  1.9088500230294E-01  1.9088500230294E-01 
 1.1063405235591E-09  1.1063404447710E-09  1.1063403639612E-09  1.1063403637668E-09  1.1063403685294E-09  1.1063404453322E-09  1.1063404435050E-09  1.1063404166405E-09  1.1063404128277E-09  1.1063403601846E-09 
 2.7658578633100E-02  2.7658578634944E-02  2.7658578634845E-02  2.7658578632901E-02  2.7658578632901E-02  2.7658578634845E-02  2.7658578634845E-02  2.7658578632901E-02  2.7658578634735E-02  2.7658578636569E-02 
 2.7658578633100E-02  2.7658578634944E-02  2.7658578634845E-02  2.7658578632901E-02  2.7658578632901E-02  2.7658578634845E-02  2.7658578634845E-02  2.7658578632901E-02  2.7658578634735E-02  2.7658578636569E-02 
 0.0000000000000E+00  0.0000000000000E+00  0.0000000000000E+00  0.0000000000000E+00  0.0000000000000E+00  0.0000000000000E+00  0.0000000000000E+00  0.0000000000000E+00  0.0000000000000E+00  0.0000000000000E+00 
ZONE T = "SEP , 5.5000E-08", I = 10, SOLUTIONTIME = 5.500000E-08
ZONETYPE = ORDERED
DATAPACKING = BLOCK
STRANDID = 2
 7.8740000000000E-04  8.4102222222222E-04  8.9464444444444E-04  9.4826666666667E-04  1.0018888888889E-03  1.0555111111111E-03  1.1091333333333E-03  1.1627555555556E-03  1.2163777777778E-03  1.2700000000000E-03 
 2.0865364169474E-08  2.0865364169474E-08  2.0865364169474E-08  2.0865364169474E-08  2.0865364169474E-08  2.0865364169474E-08  2.0865364169474E-08  2.0865364169474E-08  2.0865364169474E-08  1.9706905868896E-08 
 9.1999999999842E-01  9.2000000000000E-01  9.2000000000000E-01  9.2000000000000E-01  9.2000000000000E-01  9.2000000000000E-01  9.2000000000000E-01  9.2000000000000E-01  9.2000000000000E-01  9.2000000000175E-01 
 4.0000000000792E-02  4.0000000000000E-02  4.0000000000000E-02  4.0000000000000E-02  4.0000000000000E-02  4.0000000000000E-02  4.0000000000000E-02  4.0000000000000E-02  4.0000000000000E-02  3.9999999999127E-02 
 4.0000000000792E-02  4.0000000000000E-02  4.0000000000000E-02  4.0000000000000E-02  4.0000000000000E-02  4.0000000000000E-02  4.0000000000000E-02  4.0000000000000E-02  4.0000000000000E-02  3.9999999999127E-02 
 2.9166099740941E-02  2.9166050376114E-02  2.9166001011286E-02  2.9165951646458E-02  2.9165902281630E-02  2.9165852916802E-02  2.9165803551974E-02  2.9165754187147E-02  2.9165704822319E-02  2.9165655457491E-02 
 8.0911499769706E-01  8.0911499769706E-01  8.0911499769706E-01  8.0911499769706E-01  8.0911499769706E-01  8.0911499769706E-01  8.0911499769706E-01  8.0911499769706E-01  8.0911499769706E-01  8.0911499769706E-01 
 2.6811111111111E-05  5.3622222222222E-05  5.3622222222222E-05  5.3622222222222E-05  5.3622222222222E-05  5.3622222222222E-05  5.3622222222222E-05  5.3622222222223E-05  5.3622222222222E-05  2.6811111111111E-05 
 1.9088500230294E-01  1.9088500230294E-01  1.9088500230294E-01  1.9088500230294E-01  1.9088500230294E-01  1.9088500230294E-01  1.9088500230294E-01  1.9088500230294E-01  1.9088500230294E-01  1.9088500230294E-01 
 1.5212192030567E-09  1.5212191242665E-09  1.5212190434547E-09  1.5212190432604E-09  1.5212190480520E-09  1.5212191248549E-09  1.5212191229985E-09  1.5212190961340E-09  1.5212190923190E-09  1.5212190396736E-09 
 2.7658578633175E-02  2.7658578633038E-02  2.7658578632901E-02  2.7658578632901E-02  2.7658578634845E-02  2.7658578634845E-02  2.7658578632901E-02  2.7658578632901E-02  2.7658578632750E-02  2.7658578632599E-02 
 2.7658578633175E-02  2.7658578633038E-02  2.7658578632901E-02  2.7658578632901E-02  2.7658578634845E-02  2.7658578634845E-02  2.7658578632901E-02  2.7658578632901E-02  2.7658578632750E-02  2.7658578632599E-02 
 0.0000000000000E+00  0.0000000000000E+00  0.0000000000000E+00  0.0000000000000E+00  0.0000000000000E+00  0.0000000000000E+00  0.0000000000000E+00  0.0000000000000E+00  0.0000000000000E+00  0.0000000000000E+00 
ZONE T = "SEP , 7.7500E-08", I = 10, SOLUTIONTIME = 7.750000E-08
ZONETYPE = ORDERED
DATAPACKING = BLOCK
STRANDID = 2
 7.8740000000000E-04  8.4102222222222E-04  8.9464444444444E-04  9.4826666666667E-04  1.0018888888889E-03  1.0555111111111E-03  1.1091333333333E-03  1.1627555555556E-03  1.2163777777778E-03  1.2700000000000E-03 
 2.0861086388977E-08  2.0861086388977E-08  2.0861086388977E-08  2.0861086388977E-08  2.0861086388977E-08  2.0861086388977E-08  2.0861086388977E-08  2.0861086388977E-08  2.0861086388977E-08  1.9704000206503E-08 
 9.1999999999777E-01  9.2000000000000E-01  9.2000000000000E-01  9.2000000000000E-01  9.2000000000000E-01  9.2000000000000E-01  9.2000000000000E-01  9.2000000000000E-01  9.2000000000000E-01  9.2000000000246E-01 
 4.0000000001117E-02  4.0000000000000E-02  4.0000000000000E-02  4.0000000000000E-02  4.0000000000000E-02  4.0000000000000E-02  4.0000000000000E-02  4.0000000000000E-02  4.0000000000000E-02  3.9999999998770E-02 
 4.0000000001117E-02  4.0000000000000E-02  4.0000000000000E-02  4.0000000000000E-02  4.0000000000000E-02  4.0000000000000E-02  4.0000000000000E-02  4.0000000000000E-02  4.0000000000000E-02  3.9999999998770E-02 
 2.9166099740513E-02  2.9166050375686E-02  2.9166001010858E-02  2.9165951646030E-02  2.9165902281202E-02  2.9165852916374E-02  2.9165803551546E-02  2.9165754186718E-02  2.9165704821891E-02  2.9165655457063E-02 
 8.0911499769706E-01  8.0911499769706E-01  8.0911499769706E-01  8.0911499769706E-01  8.0911499769706E-01  8.0911499769706E-01  8.0911499769706E-01  8.0911499769706E-01  8.0911499769706E-01  8.0911499769706E-01 
 2.6811111111111E-05  5.3622222222222E-05  5.3622222222222E-05  5.3622222222222E-05  5.3622222222222E-05  5.3622222222222E-05  5.3622222222222E-05  5.3622222222223E-05  5.3622222222222E-05  2.6811111111111E-05 
 1.9088500230294E-01  1.9088500230294E-01  1.9088500230294E-01  1.9088500230294E-01  1.9088500230294E-01  1.9088500230294E-01  1.9088500230294E-01  1.9088500230294E-01  1.9088500230294E-01  1.9088500230294E-01 
 2.1435372223057E-09  2.1435371434674E-09  2.1435370626513E-09  2.1435370625006E-09  2.1435370672486E-09  2.1435371440514E-09  2.1435371422387E-09  2.1435371153305E-09  2.1435371115107E-09  2.1435370589043E-09 
 2.7658578633287E-02  2.7658578631150E-02  2.7658578630957E-02  2.7658578632901E-02  2.7658578630957E-02  2.7658578630957E-02  2.7658578632901E-02  2.7658578630957E-02  2.7658578630744E-02  2.7658578632475E-02 
 2.7658578633287E-02  2.7658578631150E-02  2.7658578630957E-02  2.7658578632901E-02  2.7658578630957E-02  2.7658578630957E-02  2.7658578632901E-02  2.7658578630957E-02  2.7658578630744E-02  2.7658578632475E-02 
 0.0000000000000E+00  0.0000000000000E+00  0.0000000000000E+00  0.0000000000000E+00  0.0000000000000E+00  0.0000000000000E+00  0.0000000000000E+00  0.0000000000000E+00  0.0000000000000E+00  0.0000000000000E+00 
ZONE T = "SEP , 1.1125E-07", I = 10, SOLUTIONTIME = 1.112500E-07
ZONETYPE = ORDERED
DATAPACKING = BLOCK
STRANDID = 2
 7.8740000000000E-04  8.4102222222222E-04  8.9464444444444E-04  9.4826666666667E-04  1.0018888888889E-03  1.0555111111111E-03  1.1091333333333E-03  1.1627555555556E-03  1.2163777777778E-03  1.2700000000000E-03 
 2.0863238730181E-08  2.0863238730181E-08  2.0863238730181E-08  2.0863238730181E-08  2.0863238730181E-08  2.0863238730181E-08  2.0863238730181E-08  2.0863238730181E-08  2.0863238730181E-08  1.9705506845111E-08 
 9.1999999999679E-01  9.2000000000000E-01  9.2000000000000E-01  9.2000000000000E-01  9.2000000000000E-01  9.2000000000000E-01  9.2000000000000E-01  9.2000000000000E-01  9.2000000000000E-01  9.2000000000353E-01 
 4.0000000001603E-02  4.0000000000000E-02  4.0000000000000E-02  4.0000000000000E-02  4.0000000000000E-02  4.0000000000000E-02  4.0000000000000E-02  4.0000000000000E-02  4.0000000000000E-02  3.9999999998234E-02 
 4.0000000001603E-02  4.0000000000000E-02  4.0000000000000E-02  4.0000000000000E-02  4.0000000000000E-02  4.0000000000000E-02  4.0000000000000E-02  4.0000000000000E-02  4.0000000000000E-02  3.9999999998234E-02 
 2.9166099739876E-02  2.9166050375048E-02  2.9166001010220E-02  2.9165951645392E-02  2.9165902280564E-02  2.9165852915737E-02  2.9165803550909E-02  2.9165754186081E-02  2.9165704821253E-02  2.9165655456425E-02 
 8.0911499769706E-01  8.0911499769706E-01  8.0911499769706E-01  8.0911499769706E-01  8.0911499769706E-01  8.0911499769706E-01  8.0911499769706E-01  8.0911499769706E-01  8.0911499769706E-01  8.0911499769706E-01 
 2.6811111111111E-05  5.3622222222222E-05  5.3622222222222E-05  5.3622222222222E-05  5.3622222222222E-05  5.3622222222222E-05  5.3622222222222E-05  5.3622222222223E-05  5.3622222222222E-05  2.6811111111111E-05 
 1.9088500230294E-01  1.9088500230294E-01  1.9088500230294E-01  1.9088500230294E-01  1.9088500230294E-01  1.9088500230294E-01  1.9088500230294E-01  1.9088500230294E-01  1.9088500230294E-01  1.9088500230294E-01 
 3.0770142510536E-09  3.0770141722060E-09  3.0770140913805E-09  3.0770140912298E-09  3.0770140959777E-09  3.0770141727806E-09  3.0770141709679E-09  3.0770141441253E-09  3.0770141402952E-09  3.0770140876129E-09 
 2.7658578629567E-02  2.7658578629290E-02  2.7658578629013E-02  2.7658578629013E-02  2.7658578629013E-02  2.7658578629013E-02  2.7658578629013E-02  2.7658578630957E-02  2.7658578630652E-02  2.7658578628402E-02 
 2.7658578629567E-02  2.7658578629290E-02  2.7658578629013E-02  2.7658578629013E-02  2.7658578629013E-02  2.7658578629013E-02  2.7658578629013E-02  2.7658578630957E-02  2.7658578630652E-02  2.7658578628402E-02 
 0.0000000000000E+00  0.0000000000000E+00  0.0000000000000E+00  0.0000000000000E+00  0.0000000000000E+00  0.0000000000000E+00  0.0000000000000E+00  0.0000000000000E+00  0.0000000000000E+00  0.0000000000000E+00 
ZONE T = "SEP , 1.6188E-07", I = 10, SOLUTIONTIME = 1.618750E-07
ZONETYPE = ORDERED
DATAPACKING = BLOCK
STRANDID = 2
 7.8740000000000E-04  8.4102222222222E-04  8.9464444444444E-04  9.4826666666667E-04  1.0018888888889E-03  1.0555111111111E-03  1.1091333333333E-03  1.1627555555556E-03  1.2163777777778E-03  1.2700000000000E-03 
 2.0863453963062E-08  2.0863453963062E-08  2.0863453963062E-08  2.0863453963062E-08  2.0863453963062E-08  2.0863453963062E-08  2.0863453963062E-08  2.0863453963062E-08  2.0863453963062E-08  1.9705542716198E-08 
 9.1999999999534E-01  9.2000000000000E-01  9.2000000000000E-01  9.2000000000000E-01  9.2000000000000E-01  9.2000000000000E-01  9.2000000000000E-01  9.2000000000000E-01  9.2000000000000E-01  9.2000000000514E-01 
 4.0000000002332E-02  4.0000000000001E-02  4.0000000000000E-02  4.0000000000000E-02  4.0000000000000E-02  4.0000000000000E-02  4.0000000000000E-02  4.0000000000000E-02  3.9999999999999E-02  3.9999999997431E-02 
 4.0000000002332E-02  4.0000000000001E-02  4.0000000000000E-02  4.0000000000000E-02  4.0000000000000E-02  4.0000000000000E-02  4.0000000000000E-02  4.0000000000000E-02  3.9999999999999E-02  3.9999999997431E-02 
 2.9166099738921E-02  2.9166050374094E-02  2.9166001009266E-02  2.9165951644438E-02  2.9165902279610E-02  2.9165852914782E-02  2.9165803549954E-02  2.9165754185127E-02  2.9165704820299E-02  2.9165655455471E-02 
 8.0911499769706E-01  8.0911499769706E-01  8.0911499769706E-01  8.0911499769706E-01  8.0911499769706E-01  8.0911499769706E-01  8.0911499769706E-01  8.0911499769706E-01  8.0911499769706E-01  8.0911499769706E-01 
 2.6811111111111E-05  5.3622222222222E-05  5.3622222222222E-05  5.3622222222222E-05  5.3622222222222E-05  5.3622222222222E-05  5.3622222222222E-05  5.3622222222223E-05  5.3622222222222E-05  2.6811111111111E-05 
 1.9088500230294E-01  1.9088500230294E-01  1.9088500230294E-01  1.9088500230294E-01  1.9088500230294E-01  1.9088500230294E-01  1.9088500230294E-01  1.9088500230294E-01  1.9088500230294E-01  1.9088500230294E-01 
 4.4772297939914E-09  4.4772297151233E-09  4.4772296342774E-09  4.4772296341268E-09  4.4772296388747E-09  4.4772297156776E-09  4.4772297139633E-09  4.4772296871206E-09  4.4772296831697E-09  4.4772296304649E-09 
 2.7658578625932E-02  2.7658578625528E-02  2.7658578625125E-02  2.7658578625125E-02  2.7658578625125E-02  2.7658578625125E-02  2.7658578627069E-02  2.7658578627069E-02  2.7658578624681E-02  2.7658578624237E-02 
 2.7658578625932E-02  2.7658578625528E-02  2.7658578625125E-02  2.7658578625125E-02  2.7658578625125E-02  2.7658578625125E-02  2.7658578627069E-02  2.7658578627069E-02  2.7658578624681E-02  2.7658578624237E-02 
 0.0000000000000E+00  0.0000000000000E+00  0.0000000000000E+00  0.0000000000000E+00  0.0000000000000E+00  0.0000000000000E+00  0.0000000000000E+00  0.0000000000000E+00  0.0000000000000E+00  0.0000000000000E+00 
ZONE T = "SEP , 2.3781E-07", I = 10, SOLUTIONTIME = 2.378125E-07
ZONETYPE = ORDERED
DATAPACKING = BLOCK
STRANDID = 2
 7.8740000000000E-04  8.4102222222222E-04  8.9464444444444E-04  9.4826666666667E-04  1.0018888888889E-03  1.0555111111111E-03  1.1091333333333E-03  1.1627555555556E-03  1.2163777777778E-03  1.2700000000000E-03 
 2.0862509322041E-08  2.0862796300987E-08  2.0862796300987E-08  2.0862796300987E-08  2.0862796300987E-08  2.0862796300987E-08  2.0862796300987E-08  2.0862796300987E-08  2.0862700641338E-08  1.9705040501121E-08 
 9.1999999999315E-01  9.2000000000000E-01  9.2000000000000E-01  9.2000000000000E-01  9.2000000000000E-01  9.2000000000000E-01  9.2000000000000E-01  9.2000000000000E-01  9.2000000000000E-01  9.2000000000755E-01 
 4.0000000003425E-02  4.0000000000002E-02  4.0000000000000E-02  4.0000000000000E-02  4.0000000000000E-02  4.0000000000000E-02  4.0000000000000E-02  4.0000000000000E-02  3.9999999999998E-02  3.9999999996226E-02 
 4.0000000003425E-02  4.0000000000002E-02  4.0000000000000E-02  4.0000000000000E-02  4.0000000000000E-02  4.0000000000000E-02  4.0000000000000E-02  4.0000000000000E-02  3.9999999999998E-02  3.9999999996226E-02 
 2.9166099737491E-02  2.9166050372663E-02  2.9166001007836E-02  2.9165951643008E-02  2.9165902278180E-02  2.9165852913352E-02  2.9165803548524E-02  2.9165754183696E-02  2.9165704818869E-02  2.9165655454041E-02 
 8.0911499769706E-01  8.0911499769706E-01  8.0911499769706E-01  8.0911499769706E-01  8.0911499769706E-01  8.0911499769706E-01  8.0911499769706E-01  8.0911499769706E-01  8.0911499769706E-01  8.0911499769706E-01 
 2.6811111111111E-05  5.3622222222222E-05  5.3622222222222E-05  5.3622222222222E-05  5.3622222222222E-05  5.3622222222222E-05  5.3622222222222E-05  5.3622222222223E-05  5.3622222222222E-05  2.6811111111111E-05 
 1.9088500230294E-01  1.9088500230294E-01  1.9088500230294E-01  1.9088500230294E-01  1.9088500230294E-01  1.9088500230294E-01  1.9088500230294E-01  1.9088500230294E-01  1.9088500230294E-01  1.9088500230294E-01 
 6.5775531078363E-09  6.5775530290709E-09  6.5775529483277E-09  6.5775529481770E-09  6.5775529529249E-09  6.5775530295802E-09  6.5775530278659E-09  6.5775530011708E-09  6.5775529971703E-09  6.5775529444160E-09 
 2.7658578618534E-02  2.7658578619886E-02  2.7658578621238E-02  2.7658578621237E-02  2.7658578621237E-02  2.7658578619294E-02  2.7658578619294E-02  2.7658578621237E-02  2.7658578620584E-02  2.7658578619932E-02 
 2.7658578618534E-02  2.7658578619886E-02  2.7658578621238E-02  2.7658578621237E-02  2.7658578621237E-02  2.7658578619294E-02  2.7658578619294E-02  2.7658578621237E-02  2.7658578620584E-02  2.7658578619932E-02 
 0.0000000000000E+00  0.0000000000000E+00  0.0000000000000E+00  0.0000000000000E+00  0.0000000000000E+00  0.0000000000000E+00  0.0000000000000E+00  0.0000000000000E+00  0.0000000000000E+00  0.0000000000000E+00 
ZONE T = "SEP , 3.5172E-07", I = 10, SOLUTIONTIME = 3.517188E-07
ZONETYPE = ORDERED
DATAPACKING = BLOCK
STRANDID = 2
 7.8740000000000E-04  8.4102222222222E-04  8.9464444444444E-04  9.4826666666667E-04  1.0018888888889E-03  1.0555111111111E-03  1.1091333333333E-03  1.1627555555556E-03  1.2163777777778E-03  1.2700000000000E-03 
 2.0862716581625E-08  2.0862652808526E-08  2.0862652808526E-08  2.0862652808526E-08  2.0862652808526E-08  2.0862652808526E-08  2.0862652808526E-08  2.0862652808526E-08  2.0862652808526E-08  1.9704920923678E-08 
 9.1999999998987E-01  9.1999999999999E-01  9.2000000000000E-01  9.2000000000000E-01  9.2000000000000E-01  9.2000000000000E-01  9.2000000000000E-01  9.2000000000000E-01  9.2000000000001E-01  9.2000000001116E-01 
 4.0000000005065E-02  4.0000000000003E-02  4.0000000000000E-02  4.0000000000000E-02  4.0000000000000E-02  4.0000000000000E-02  4.0000000000000E-02  4.0000000000000E-02  3.9999999999996E-02  3.9999999994419E-02 