TITLE = "Solution on Domain BulkDomain1D_0"
VARIABLES = "x [m]"  
"Vel_axial" 
"MF_sp(ECDMC)" 
"MF_sp(Li+)" 
"MF_sp(PF6-)" 
"Volt(Electroly)" 
"Volt(AnodeVolt)" 
"Potential Drop Electrode-Electrolyte [V]" 
"Surf_0 Equilibrium Potential Drop Electrode-Electrolyte [V]" 
"Overpotential_0 [V]" 
"Current Source [A/m^2]" 
"Li+ flux [kmol/m^2/s]" 
"Electrolyte Current [A/m^2]" 
"Electrode Current [A/m^2]" 
"CV Capacity discharged [A-s/m^2]" 
"Depth of discharge in CV [A-s/m^2]" 
"CV Capacity remaining [A-s/m^2]" 
"Initial CV capacity [A-s/m^2]" 
"Porosity []" 
"Surface Area [m2/m2] (area per area)" 
"Specific current (per particle area) [A/m^2]" 
"Control volume thickness [m]" 
"MoleDens Li_C6-bulk [kmol/m^3]" 
"MoleDens V_C6-bulk [kmol/m^3]" 
"qHeat_accum [J/m3]" 
"qHeat_step [W/m3]" 
"Joule_Lyte [W/m3]" 
"Joule_Solid [W/m3]" 
"electrodHeat [W/m3]" 
"OverpotHeat [W/m3]" 
"deltaSHeat [W/m3]" 

ZONE T = "ANOD, 0.0000E+00", I = 10, SOLUTIONTIME = 0.000000E+00
ZONETYPE = ORDERED
DATAPACKING = BLOCK
STRANDID = 1
 0.0000000000000E+00  8.7488888888889E-05  1.7497777777778E-04  2.6246666666667E-04  3.4995555555556E-04  4.3744444444444E-04  5.2493333333333E-04  6.1242222222222E-04  6.9991111111111E-04  7.8740000000000E-04 
 0.0000000000000E+00  0.0000000000000E+00  0.0000000000000E+00  0.0000000000000E+00  0.0000000000000E+00  0.0000000000000E+00  0.0000000000000E+00  0.0000000000000E+00  0.0000000000000E+00  0.0000000000000E+00 
 9.2000000000000E-01  9.2000000000000E-01  9.2000000000000E-01  9.2000000000000E-01  9.2000000000000E-01  9.2000000000000E-01  9.2000000000000E-01  9.2000000000000E-01  9.2000000000000E-01  9.2000000000000E-01 
 4.0000000000000E-02  4.0000000000000E-02  4.0000000000000E-02  4.0000000000000E-02  4.0000000000000E-02  4.0000000000000E-02  4.0000000000000E-02  4.0000000000000E-02  4.0000000000000E-02  4.0000000000000E-02 
 4.0000000000000E-02  4.0000000000000E-02  4.0000000000000E-02  4.0000000000000E-02  4.0000000000000E-02  4.0000000000000E-02  4.0000000000000E-02  4.0000000000000E-02  4.0000000000000E-02  4.0000000000000E-02 
-7.0000000000000E-02 -7.0000000000000E-02 -7.0000000000000E-02 -7.0000000000000E-02 -7.0000000000000E-02 -7.0000000000000E-02 -7.0000000000000E-02 -7.0000000000000E-02 -7.0000000000000E-02 -7.0000000000000E-02 
 0.0000000000000E+00  0.0000000000000E+00  0.0000000000000E+00  0.0000000000000E+00  0.0000000000000E+00  0.0000000000000E+00  0.0000000000000E+00  0.0000000000000E+00  0.0000000000000E+00  0.0000000000000E+00 
 7.0000000000000E-02  7.0000000000000E-02  7.0000000000000E-02  7.0000000000000E-02  7.0000000000000E-02  7.0000000000000E-02  7.0000000000000E-02  7.0000000000000E-02  7.0000000000000E-02  7.0000000000000E-02 
-4.0906712753392E-02 -4.0906712753392E-02 -4.0906712753392E-02 -4.0906712753392E-02 -4.0906712753392E-02 -4.0906712753392E-02 -4.0906712753392E-02 -4.0906712753392E-02 -4.0906712753392E-02 -4.0906712753392E-02 
 1.1090671275339E-01  1.1090671275339E-01  1.1090671275339E-01  1.1090671275339E-01  1.1090671275339E-01  1.1090671275339E-01  1.1090671275339E-01  1.1090671275339E-01  1.1090671275339E-01  1.1090671275339E-01 
 3.0930240924008E+01  6.1860481848017E+01  6.1860481848017E+01  6.1860481848017E+01  6.1860481848016E+01  6.1860481848017E+01  6.1860481848017E+01  6.1860481848016E+01  6.1860481848016E+01  3.0930240924008E+01 
-0.0000000000000E+00 -0.0000000000000E+00 -0.0000000000000E+00 -0.0000000000000E+00 -0.0000000000000E+00 -0.0000000000000E+00 -0.0000000000000E+00 -0.0000000000000E+00 -0.0000000000000E+00 -0.0000000000000E+00 
 0.0000000000000E+00  0.0000000000000E+00  0.0000000000000E+00  0.0000000000000E+00  0.0000000000000E+00  0.0000000000000E+00  0.0000000000000E+00  0.0000000000000E+00  0.0000000000000E+00  3.0930240924008E+01 
 3.0930240924008E+01 -0.0000000000000E+00 -0.0000000000000E+00 -0.0000000000000E+00 -0.0000000000000E+00 -0.0000000000000E+00 -0.0000000000000E+00 -0.0000000000000E+00 -0.0000000000000E+00  0.0000000000000E+00 
 0.0000000000000E+00  0.0000000000000E+00  0.0000000000000E+00  0.0000000000000E+00  0.0000000000000E+00  0.0000000000000E+00  0.0000000000000E+00  0.0000000000000E+00  0.0000000000000E+00  0.0000000000000E+00 
 9.1448444543281E+04  1.8289688908656E+05  1.8289688908656E+05  1.8289688908656E+05  1.8289688908656E+05  1.8289688908656E+05  1.8289688908656E+05  1.8289688908656E+05  1.8289688908656E+05  9.1448444543281E+04 
 3.6579377817312E+05  7.3158755634625E+05  7.3158755634625E+05  7.3158755634625E+05  7.3158755634625E+05  7.3158755634625E+05  7.3158755634625E+05  7.3158755634625E+05  7.3158755634625E+05  3.6579377817312E+05 
 4.5724222271640E+05  9.1448444543281E+05  9.1448444543281E+05  9.1448444543281E+05  9.1448444543281E+05  9.1448444543281E+05  9.1448444543281E+05  9.1448444543281E+05  9.1448444543281E+05  4.5724222271640E+05 
 3.5000000000000E-01  3.5000000000000E-01  3.5000000000000E-01  3.5000000000000E-01  3.5000000000000E-01  3.5000000000000E-01  3.5000000000000E-01  3.5000000000000E-01  3.5000000000000E-01  3.5000000000000E-01 
 8.5301666666666E+00  1.7060333333333E+01  1.7060333333333E+01  1.7060333333333E+01  1.7060333333333E+01  1.7060333333333E+01  1.7060333333333E+01  1.7060333333333E+01  1.7060333333333E+01  8.5301666666666E+00 
 3.6259831879809E+00  3.6259831879809E+00  3.6259831879809E+00  3.6259831879809E+00  3.6259831879809E+00  3.6259831879809E+00  3.6259831879809E+00  3.6259831879809E+00  3.6259831879809E+00  3.6259831879809E+00 
 4.3744444444444E-05  8.7488888888889E-05  8.7488888888889E-05  8.7488888888889E-05  8.7488888888889E-05  8.7488888888889E-05  8.7488888888889E-05  8.7488888888889E-05  8.7488888888889E-05  4.3744444444444E-05 
 8.6666666666666E+01  8.6666666666666E+01  8.6666666666666E+01  8.6666666666666E+01  8.6666666666666E+01  8.6666666666666E+01  8.6666666666666E+01  8.6666666666666E+01  8.6666666666666E+01  8.6666666666666E+01 
 2.1666666666667E+01  2.1666666666667E+01  2.1666666666667E+01  2.1666666666667E+01  2.1666666666667E+01  2.1666666666667E+01  2.1666666666667E+01  2.1666666666667E+01  2.1666666666667E+01  2.1666666666667E+01 
 0.0000000000000E+00  0.0000000000000E+00  0.0000000000000E+00  0.0000000000000E+00  0.0000000000000E+00  0.0000000000000E+00  0.0000000000000E+00  0.0000000000000E+00  0.0000000000000E+00  0.0000000000000E+00 
 0.0000000000000E+00  0.0000000000000E+00  0.0000000000000E+00  0.0000000000000E+00  0.0000000000000E+00  0.0000000000000E+00  0.0000000000000E+00  0.0000000000000E+00  0.0000000000000E+00  0.0000000000000E+00 
 0.0000000000000E+00  0.0000000000000E+00  0.0000000000000E+00  0.0000000000000E+00  0.0000000000000E+00  0.0000000000000E+00  0.0000000000000E+00  0.0000000000000E+00  0.0000000000000E+00  0.0000000000000E+00 
 0.0000000000000E+00  0.0000000000000E+00  0.0000000000000E+00  0.0000000000000E+00  0.0000000000000E+00  0.0000000000000E+00  0.0000000000000E+00  0.0000000000000E+00  0.0000000000000E+00  0.0000000000000E+00 
 0.0000000000000E+00  0.0000000000000E+00  0.0000000000000E+00  0.0000000000000E+00  0.0000000000000E+00  0.0000000000000E+00  0.0000000000000E+00  0.0000000000000E+00  0.0000000000000E+00  0.0000000000000E+00 
 0.0000000000000E+00  0.0000000000000E+00  0.0000000000000E+00  0.0000000000000E+00  0.0000000000000E+00  0.0000000000000E+00  0.0000000000000E+00  0.0000000000000E+00  0.0000000000000E+00  0.0000000000000E+00 
 0.0000000000000E+00  0.0000000000000E+00  0.0000000000000E+00  0.0000000000000E+00  0.0000000000000E+00  0.0000000000000E+00  0.0000000000000E+00  0.0000000000000E+00  0.0000000000000E+00  0.0000000000000E+00 
ZONE T = "ANOD, 1.0000E-08", I = 10, SOLUTIONTIME = 1.000000E-08
ZONETYPE = ORDERED
DATAPACKING = BLOCK
STRANDID = 1
 0.0000000000000E+00  8.7488888888889E-05  1.7497777777778E-04  2.6246666666667E-04  3.4995555555556E-04  4.3744444444444E-04  5.2493333333333E-04  6.1242222222222E-04  6.9991111111111E-04  7.8740000000000E-04 
 1.1586343100469E-09  3.4762683455323E-09  5.7935478114218E-09  8.1108423459389E-09  1.0428521587355E-08  1.2746228758555E-08  1.5063970290240E-08  1.7381752613223E-08  1.9699582158443E-08  2.0858705361583E-08 
 9.1999999999930E-01  9.1999999999930E-01  9.1999999999930E-01  9.1999999999930E-01  9.1999999999930E-01  9.1999999999930E-01  9.1999999999930E-01  9.1999999999930E-01  9.1999999999930E-01  9.1999999999971E-01 
 4.0000000000348E-02  4.0000000000348E-02  4.0000000000348E-02  4.0000000000348E-02  4.0000000000348E-02  4.0000000000348E-02  4.0000000000348E-02  4.0000000000348E-02  4.0000000000348E-02  4.0000000000144E-02 
 4.0000000000348E-02  4.0000000000348E-02  4.0000000000348E-02  4.0000000000348E-02  4.0000000000348E-02  4.0000000000348E-02  4.0000000000348E-02  4.0000000000348E-02  4.0000000000348E-02  4.0000000000144E-02 
 2.9167373666315E-02  2.9167357939130E-02  2.9167310757543E-02  2.9167232121439E-02  2.9167122030611E-02  2.9166980484770E-02  2.9166807483535E-02  2.9166603026440E-02  2.9166367112932E-02  2.9166099742370E-02 
 0.0000000000000E+00 -4.7371510661435E-09 -8.9170107926735E-09 -1.2539577102816E-08 -1.5604846373782E-08 -1.8112813436754E-08 -2.0063471576874E-08 -2.1456812533216E-08 -2.2292826498764E-08 -2.2571502120379E-08 
-2.9167373666315E-02 -2.9167362676281E-02 -2.9167319674554E-02 -2.9167244661016E-02 -2.9167137635458E-02 -2.9166998597583E-02 -2.9166827547006E-02 -2.9166624483252E-02 -2.9166389405758E-02 -2.9166122313872E-02 
-4.0906712752891E-02 -4.0906712752891E-02 -4.0906712752891E-02 -4.0906712752891E-02 -4.0906712752891E-02 -4.0906712752891E-02 -4.0906712752891E-02 -4.0906712752891E-02 -4.0906712752891E-02 -4.0906712753022E-02 
 1.1739339086576E-02  1.1739350076610E-02  1.1739393078337E-02  1.1739468091875E-02  1.1739575117433E-02  1.1739714155308E-02  1.1739885205885E-02  1.1740088269639E-02  1.1740323347133E-02  1.1740590439150E-02 
 1.6690487381835E+00  3.3381006555787E+00  3.3381130951766E+00  3.3381347952004E+00  3.3381657557195E+00  3.3382059768328E+00  3.3382554586685E+00  3.3383142013850E+00  3.3383822051696E+00  1.6692297351198E+00 
 8.6492352102458E-09  2.5947722093807E-08  4.3246273451002E-08  6.0544937256144E-08  7.7843761500196E-08  9.5142794181227E-08  1.1244208328016E-07  1.2974167679193E-07  1.4704169482751E-07  1.4704169482751E-07 
 0.0000000000000E+00  3.3380990659588E+00  6.6762059413403E+00  1.0014329886625E+01  1.3352480161925E+01  1.6690666028273E+01  2.0028896746149E+01  2.3367181576035E+01  2.6705529779294E+01  3.0043950617076E+01 
 3.0043950617035E+01  2.6705851551062E+01  2.3367744675684E+01  2.0029620730496E+01  1.6691470455036E+01  1.3353284588760E+01  1.0015053871009E+01  6.6767690409821E+00  3.3384208377047E+00  0.0000000000000E+00 
 1.6690487381835E-08  3.3381006555787E-08  3.3381130951766E-08  3.3381347952004E-08  3.3381657557195E-08  3.3382059768328E-08  3.3382554586685E-08  3.3383142013850E-08  3.3383822051696E-08  1.6692297351198E-08 
 9.1448444543298E+04  1.8289688908660E+05  1.8289688908660E+05  1.8289688908660E+05  1.8289688908660E+05  1.8289688908660E+05  1.8289688908660E+05  1.8289688908660E+05  1.8289688908660E+05  9.1448444543298E+04 
 3.6579377817311E+05  7.3158755634621E+05  7.3158755634621E+05  7.3158755634621E+05  7.3158755634621E+05  7.3158755634622E+05  7.3158755634622E+05  7.3158755634621E+05  7.3158755634621E+05  3.6579377817311E+05 
 4.5724222271641E+05  9.1448444543281E+05  9.1448444543281E+05  9.1448444543281E+05  9.1448444543281E+05  9.1448444543281E+05  9.1448444543281E+05  9.1448444543281E+05  9.1448444543281E+05  4.5724222271640E+05 
 3.5000000000000E-01  3.5000000000000E-01  3.5000000000000E-01  3.5000000000000E-01  3.5000000000000E-01  3.5000000000000E-01  3.5000000000000E-01  3.5000000000000E-01  3.5000000000000E-01  3.5000000000000E-01 
 8.5301666666666E+00  1.7060333333333E+01  1.7060333333333E+01  1.7060333333333E+01  1.7060333333333E+01  1.7060333333333E+01  1.7060333333333E+01  1.7060333333333E+01  1.7060333333333E+01  8.5301666666666E+00 
 1.9566425878942E-01  1.9566444514050E-01  1.9566517429378E-01  1.9566644625156E-01  1.9566826101793E-01  1.9567061859867E-01  1.9567351900130E-01  1.9567696223511E-01  1.9568094831107E-01  1.9568547724193E-01 
 4.3744444444444E-05  8.7488888888889E-05  8.7488888888889E-05  8.7488888888889E-05  8.7488888888889E-05  8.7488888888889E-05  8.7488888888889E-05  8.7488888888889E-05  8.7488888888889E-05  4.3744444444444E-05 
 8.6666666666663E+01  8.6666666666663E+01  8.6666666666663E+01  8.6666666666663E+01  8.6666666666663E+01  8.6666666666663E+01  8.6666666666663E+01  8.6666666666663E+01  8.6666666666663E+01  8.6666666666663E+01 
 2.1666666666671E+01  2.1666666666671E+01  2.1666666666671E+01  2.1666666666671E+01  2.1666666666671E+01  2.1666666666671E+01  2.1666666666671E+01  2.1666666666671E+01  2.1666666666671E+01  2.1666666666671E+01 
 1.8364118901560E-11  2.8664280194120E-11  6.1478631965449E-11  1.1872129193368E-10  2.0039289529259E-10  3.0649434833290E-10  4.3702682841679E-10  5.9199178400273E-10  7.7139093470015E-10  8.6719929072467E-10 
 1.8364118901560E-03  2.8664280194120E-03  6.1478631965449E-03  1.1872129193368E-02  2.0039289529259E-02  3.0649434833290E-02  4.3702682841679E-02  5.9199178400273E-02  7.7139093470015E-02  8.6719929072467E-02 
 3.0003168926182E-04  1.5001601605012E-03  5.1005573270295E-03  1.1101260010839E-02  1.9502331668820E-02  3.0303862395646E-02  4.3505968921212E-02  5.9108794613093E-02  7.7112509481984E-02  8.6714612127196E-02 
 1.5363802008942E-03  1.3662678589108E-03  1.0473058695154E-03  7.7086918252949E-04  5.3695786043953E-04  3.4557243764353E-04  1.9671392046630E-04  9.0383787180182E-05  2.6583988031258E-05  5.3169452711191E-06 
 0.0000000000000E+00  0.0000000000000E+00  0.0000000000000E+00  0.0000000000000E+00  0.0000000000000E+00  0.0000000000000E+00  0.0000000000000E+00  0.0000000000000E+00  0.0000000000000E+00  0.0000000000000E+00 
 0.0000000000000E+00  0.0000000000000E+00  0.0000000000000E+00  0.0000000000000E+00  0.0000000000000E+00  0.0000000000000E+00  0.0000000000000E+00  0.0000000000000E+00  0.0000000000000E+00  0.0000000000000E+00 
 0.0000000000000E+00  0.0000000000000E+00  0.0000000000000E+00  0.0000000000000E+00  0.0000000000000E+00  0.0000000000000E+00  0.0000000000000E+00  0.0000000000000E+00  0.0000000000000E+00  0.0000000000000E+00 
ZONE T = "ANOD, 2.0000E-08", I = 10, SOLUTIONTIME = 2.000000E-08
ZONETYPE = ORDERED
DATAPACKING = BLOCK
STRANDID = 1
 0.0000000000000E+00  8.7488888888889E-05  1.7497777777778E-04  2.6246666666667E-04  3.4995555555556E-04  4.3744444444444E-04  5.2493333333333E-04  6.1242222222222E-04  6.9991111111111E-04  7.8740000000000E-04 
 1.1589975177538E-09  3.4769947609262E-09  5.7950006422296E-09  8.1130215921606E-09  1.0431064041263E-08  1.2748408004694E-08  1.5065786328610E-08  1.7383568651552E-08  1.9701398196731E-08  2.0861247815316E-08 
 9.1999999999861E-01  9.1999999999861E-01  9.1999999999861E-01  9.1999999999861E-01  9.1999999999861E-01  9.1999999999861E-01  9.1999999999861E-01  9.1999999999861E-01  9.1999999999861E-01  9.1999999999942E-01 
 4.0000000000696E-02  4.0000000000696E-02  4.0000000000696E-02  4.0000000000696E-02  4.0000000000696E-02  4.0000000000696E-02  4.0000000000696E-02  4.0000000000696E-02  4.0000000000696E-02  4.0000000000288E-02 
 4.0000000000696E-02  4.0000000000696E-02  4.0000000000696E-02  4.0000000000696E-02  4.0000000000696E-02  4.0000000000696E-02  4.0000000000696E-02  4.0000000000696E-02  4.0000000000696E-02  4.0000000000288E-02 
 2.9167373666104E-02  2.9167357938918E-02  2.9167310757332E-02  2.9167232121227E-02  2.9167122030400E-02  2.9166980484558E-02  2.9166807483323E-02  2.9166603026228E-02  2.9166367112721E-02  2.9166099742159E-02 
 0.0000000000000E+00 -4.7371510660617E-09 -8.9170107925197E-09 -1.2539577102600E-08 -1.5604846373514E-08 -1.8112813436445E-08 -2.0063471576532E-08 -2.1456812532852E-08 -2.2292826498388E-08 -2.2571502120000E-08 
-2.9167373666104E-02 -2.9167362676069E-02 -2.9167319674343E-02 -2.9167244660804E-02 -2.9167137635246E-02 -2.9166998597372E-02 -2.9166827546795E-02 -2.9166624483041E-02 -2.9166389405547E-02 -2.9166122313661E-02 
-4.0906712752384E-02 -4.0906712752389E-02 -4.0906712752384E-02 -4.0906712752384E-02 -4.0906712752388E-02 -4.0906712752386E-02 -4.0906712752386E-02 -4.0906712752388E-02 -4.0906712752388E-02 -4.0906712752650E-02 
 1.1739339086280E-02  1.1739350076319E-02  1.1739393078042E-02  1.1739468091580E-02  1.1739575117141E-02  1.1739714155014E-02  1.1739885205591E-02  1.1740088269347E-02  1.1740323346840E-02  1.1740590438989E-02 
 1.6690487381535E+00  3.3381006555200E+00  3.3381130951167E+00  3.3381347951406E+00  3.3381657556604E+00  3.3382059767732E+00  3.3382554586090E+00  3.3383142013258E+00  3.3383822051105E+00  1.6692297351050E+00 
 8.6492352084130E-09  2.5947722094032E-08  4.3246273449470E-08  6.0544937252508E-08  7.7843761501560E-08  9.5142794177552E-08  1.1244208327507E-07  1.2974167678890E-07  1.4704176694028E-07  1.4704176694028E-07 
 0.0000000000000E+00  3.3380990658038E+00  6.6762059412144E+00  1.0014329886344E+01  1.3352480161857E+01  1.6690666028050E+01  2.0028896745587E+01  2.3367181575686E+01  2.6705529778938E+01  3.0043950616499E+01 
 3.0043950616515E+01  2.6705851550602E+01  2.3367744675283E+01  2.0029620730154E+01  1.6691470454754E+01  1.3353284588537E+01  1.0015053870846E+01  6.6767690408785E+00  3.3384208376603E+00  0.0000000000000E+00 
 3.3380974763371E-08  6.6762013110986E-08  6.6762261902933E-08  6.6762695903411E-08  6.6763315113800E-08  6.6764119536060E-08  6.6765109172775E-08  6.6766284027108E-08  6.6767644102802E-08  3.3384594702249E-08 
 9.1448444543314E+04  1.8289688908663E+05  1.8289688908663E+05  1.8289688908663E+05  1.8289688908663E+05  1.8289688908663E+05  1.8289688908663E+05  1.8289688908663E+05  1.8289688908663E+05  9.1448444543314E+04 
 3.6579377817309E+05  7.3158755634618E+05  7.3158755634618E+05  7.3158755634618E+05  7.3158755634618E+05  7.3158755634618E+05  7.3158755634618E+05  7.3158755634618E+05  7.3158755634618E+05  3.6579377817309E+05 
 4.5724222271641E+05  9.1448444543281E+05  9.1448444543281E+05  9.1448444543281E+05  9.1448444543281E+05  9.1448444543281E+05  9.1448444543281E+05  9.1448444543281E+05  9.1448444543281E+05  4.5724222271641E+05 
 3.5000000000000E-01  3.5000000000000E-01  3.5000000000000E-01  3.5000000000000E-01  3.5000000000000E-01  3.5000000000000E-01  3.5000000000000E-01  3.5000000000000E-01  3.5000000000000E-01  3.5000000000000E-01 
 8.5301666666666E+00  1.7060333333333E+01  1.7060333333333E+01  1.7060333333333E+01  1.7060333333333E+01  1.7060333333333E+01  1.7060333333333E+01  1.7060333333333E+01  1.7060333333333E+01  8.5301666666666E+00 
 1.9566425878590E-01  1.9566444513706E-01  1.9566517429027E-01  1.9566644624806E-01  1.9566826101447E-01  1.9567061859518E-01  1.9567351899781E-01  1.9567696223164E-01  1.9568094830761E-01  1.9568547724019E-01 
 4.3744444444444E-05  8.7488888888889E-05  8.7488888888889E-05  8.7488888888889E-05  8.7488888888889E-05  8.7488888888889E-05  8.7488888888889E-05  8.7488888888889E-05  8.7488888888889E-05  4.3744444444444E-05 
 8.6666666666659E+01  8.6666666666659E+01  8.6666666666659E+01  8.6666666666659E+01  8.6666666666659E+01  8.6666666666659E+01  8.6666666666659E+01  8.6666666666659E+01  8.6666666666659E+01  8.6666666666659E+01 
 2.1666666666675E+01  2.1666666666675E+01  2.1666666666675E+01  2.1666666666675E+01  2.1666666666675E+01  2.1666666666675E+01  2.1666666666675E+01  2.1666666666675E+01  2.1666666666675E+01  2.1666666666675E+01 
 3.6728237801292E-11  5.7328560387238E-11  1.2295726392767E-10  2.3744258386012E-10  4.0078579058207E-10  6.1298869665375E-10  8.7405365680553E-10  1.1839835679834E-09  1.5427818693735E-09  1.7343985814097E-09 
 1.8364118899732E-03  2.8664280193118E-03  6.1478631962224E-03  1.1872129192644E-02  2.0039289528948E-02  3.0649434832086E-02  4.3702682838874E-02  5.9199178398071E-02  7.7139093467332E-02  8.6719929068500E-02 
 6.0006337839387E-04  3.0003203209494E-03  1.0201114653772E-02  2.2202520020979E-02  3.9004663337346E-02  6.0607724790100E-02  8.7011937839627E-02  1.1821758922399E-01  1.5422501896129E-01  1.7342922425042E-01 
 3.0727604017353E-03  2.7325357177745E-03  2.0946117389948E-03  1.5417383650327E-03  1.0739157208609E-03  6.9114487527552E-04  3.9342784092618E-04  1.8076757435754E-04  5.3167976061762E-05  1.0633890542144E-05 
 0.0000000000000E+00  0.0000000000000E+00  0.0000000000000E+00  0.0000000000000E+00  0.0000000000000E+00  0.0000000000000E+00  0.0000000000000E+00  0.0000000000000E+00  0.0000000000000E+00  0.0000000000000E+00 
 0.0000000000000E+00  0.0000000000000E+00  0.0000000000000E+00  0.0000000000000E+00  0.0000000000000E+00  0.0000000000000E+00  0.0000000000000E+00  0.0000000000000E+00  0.0000000000000E+00  0.0000000000000E+00 
 0.0000000000000E+00  0.0000000000000E+00  0.0000000000000E+00  0.0000000000000E+00  0.0000000000000E+00  0.0000000000000E+00  0.0000000000000E+00  0.0000000000000E+00  0.0000000000000E+00  0.0000000000000E+00 
ZONE T = "ANOD, 3.0000E-08", I = 10, SOLUTIONTIME = 3.000000E-08
ZONETYPE = ORDERED
DATAPACKING = BLOCK
STRANDID = 1
 0.0000000000000E+00  8.7488888888889E-05  1.7497777777778E-04  2.6246666666667E-04  3.4995555555556E-04  4.3744444444444E-04  5.2493333333333E-04  6.1242222222222E-04  6.9991111111111E-04  7.8740000000000E-04 
 1.1589975177341E-09  3.4769947608652E-09  5.7950006421290E-09  8.1130215920203E-09  1.0431064041082E-08  1.2749860835385E-08  1.5068691990173E-08  1.7387563936257E-08  1.9706119896851E-08  2.0864516684515E-08 
 9.1999999999791E-01  9.1999999999791E-01  9.1999999999791E-01  9.1999999999791E-01  9.1999999999791E-01  9.1999999999791E-01  9.1999999999791E-01  9.1999999999791E-01  9.1999999999791E-01  9.1999999999914E-01 
 4.0000000001045E-02  4.0000000001045E-02  4.0000000001045E-02  4.0000000001045E-02  4.0000000001045E-02  4.0000000001045E-02  4.0000000001045E-02  4.0000000001045E-02  4.0000000001045E-02  4.0000000000432E-02 
 4.0000000001045E-02  4.0000000001045E-02  4.0000000001045E-02  4.0000000001045E-02  4.0000000001045E-02  4.0000000001045E-02  4.0000000001045E-02  4.0000000001045E-02  4.0000000001045E-02  4.0000000000432E-02 
 2.9167373665889E-02  2.9167357938704E-02  2.9167310757117E-02  2.9167232121013E-02  2.9167122030186E-02  2.9166980484344E-02  2.9166807483109E-02  2.9166603026014E-02  2.9166367112506E-02  2.9166099741944E-02 
 0.0000000000000E+00 -4.7371510659821E-09 -8.9170107923703E-09 -1.2539577102391E-08 -1.5604846373254E-08 -1.8112813436143E-08 -2.0063471576200E-08 -2.1456812532497E-08 -2.2292826498021E-08 -2.2571502119631E-08 
-2.9167373665889E-02 -2.9167362675855E-02 -2.9167319674128E-02 -2.9167244660590E-02 -2.9167137635032E-02 -2.9166998597157E-02 -2.9166827546580E-02 -2.9166624482827E-02 -2.9166389405333E-02 -2.9166122313446E-02 
-4.0906712751885E-02 -4.0906712751881E-02 -4.0906712751885E-02 -4.0906712751885E-02 -4.0906712751882E-02 -4.0906712751888E-02 -4.0906712751888E-02 -4.0906712751882E-02 -4.0906712751882E-02 -4.0906712752276E-02 
 1.1739339085996E-02  1.1739350076026E-02  1.1739393077757E-02  1.1739468091296E-02  1.1739575116851E-02  1.1739714154731E-02  1.1739885205307E-02  1.1740088269056E-02  1.1740323346550E-02  1.1740590438829E-02 
 1.6690487381250E+00  3.3381006554607E+00  3.3381130950597E+00  3.3381347950835E+00  3.3381657556019E+00  3.3382059767165E+00  3.3382554585523E+00  3.3383142012674E+00  3.3383822050520E+00  1.6692297350905E+00 
 8.6492352062333E-09  2.5947722096513E-08  4.3246273449847E-08  6.0544937245048E-08  7.7843761499990E-08  9.5142794176473E-08  1.1244208327189E-07  1.2974167678048E-07  1.4704183905810E-07  1.4704183905810E-07 
 0.0000000000000E+00  3.3380990658328E+00  6.6762059412725E+00  1.0014329886247E+01  1.3352480161421E+01  1.6690666027643E+01  2.0028896745394E+01  2.3367181575153E+01  2.6705529778398E+01  3.0043950616291E+01 
 3.0043950616010E+01  2.6705851550154E+01  2.3367744674894E+01  2.0029620729822E+01  1.6691470454480E+01  1.3353284588320E+01  1.0015053870686E+01  6.6767690407762E+00  3.3384208376165E+00  0.0000000000000E+00 
 5.0071462144620E-08  1.0014301966559E-07  1.0014339285353E-07  1.0014404385425E-07  1.0014497266982E-07  1.0014617930322E-07  1.0014766375830E-07  1.0014942603978E-07  1.0015146615332E-07  5.0076892053154E-08 
 9.1448444543331E+04  1.8289688908666E+05  1.8289688908666E+05  1.8289688908666E+05  1.8289688908666E+05  1.8289688908666E+05  1.8289688908666E+05  1.8289688908666E+05  1.8289688908666E+05  9.1448444543331E+04 
 3.6579377817307E+05  7.3158755634615E+05  7.3158755634615E+05  7.3158755634615E+05  7.3158755634615E+05  7.3158755634615E+05  7.3158755634615E+05  7.3158755634615E+05  7.3158755634615E+05  3.6579377817307E+05 
 4.5724222271641E+05  9.1448444543281E+05  9.1448444543281E+05  9.1448444543281E+05  9.1448444543281E+05  9.1448444543281E+05  9.1448444543281E+05  9.1448444543281E+05  9.1448444543281E+05  4.5724222271641E+05 
 3.5000000000000E-01  3.5000000000000E-01  3.5000000000000E-01  3.5000000000000E-01  3.5000000000000E-01  3.5000000000000E-01  3.5000000000000E-01  3.5000000000000E-01  3.5000000000000E-01  3.5000000000000E-01 
 8.5301666666666E+00  1.7060333333333E+01  1.7060333333333E+01  1.7060333333333E+01  1.7060333333333E+01  1.7060333333333E+01  1.7060333333333E+01  1.7060333333333E+01  1.7060333333333E+01  8.5301666666666E+00 
 1.9566425878256E-01  1.9566444513359E-01  1.9566517428693E-01  1.9566644624471E-01  1.9566826101103E-01  1.9567061859185E-01  1.9567351899449E-01  1.9567696222821E-01  1.9568094830418E-01  1.9568547723849E-01 
 4.3744444444444E-05  8.7488888888889E-05  8.7488888888889E-05  8.7488888888889E-05  8.7488888888889E-05  8.7488888888889E-05  8.7488888888889E-05  8.7488888888889E-05  8.7488888888889E-05  4.3744444444444E-05 
 8.6666666666655E+01  8.6666666666655E+01  8.6666666666655E+01  8.6666666666655E+01  8.6666666666655E+01  8.6666666666655E+01  8.6666666666655E+01  8.6666666666655E+01  8.6666666666655E+01  8.6666666666655E+01 
 2.1666666666679E+01  2.1666666666679E+01  2.1666666666679E+01  2.1666666666679E+01  2.1666666666679E+01  2.1666666666679E+01  2.1666666666679E+01  2.1666666666679E+01  2.1666666666679E+01  2.1666666666679E+01 
 5.5092356700533E-11  8.5992840580029E-11  1.8443589588999E-10  3.5616387578264E-10  6.0117868585652E-10  9.1948304495794E-10  1.3110804851821E-09  1.7759753519309E-09  2.3141728040114E-09  2.6015978720775E-09 
 1.8364118899241E-03  2.8664280192791E-03  6.1478631962319E-03  1.1872129192252E-02  2.0039289527445E-02  3.0649434830419E-02  4.3702682837658E-02  5.9199178394744E-02  7.7139093463788E-02  8.6719929066783E-02 
 9.0009506752854E-04  4.5004804814105E-03  1.5301671980560E-02  3.3303780030754E-02  5.8506995004387E-02  9.0911587182898E-02  1.3051790675683E-01  1.7732638383156E-01  2.3133752843704E-01  2.6014383637194E-01 
 4.6091406025248E-03  4.0988035765923E-03  3.1419176084393E-03  2.3126075475103E-03  1.6108735812647E-03  1.0367173128963E-03  5.9014176137976E-04  2.7115136153210E-04  7.9751964091521E-05  1.5950835813076E-05 
 0.0000000000000E+00  0.0000000000000E+00  0.0000000000000E+00  0.0000000000000E+00  0.0000000000000E+00  0.0000000000000E+00  0.0000000000000E+00  0.0000000000000E+00  0.0000000000000E+00  0.0000000000000E+00 
 0.0000000000000E+00  0.0000000000000E+00  0.0000000000000E+00  0.0000000000000E+00  0.0000000000000E+00  0.0000000000000E+00  0.0000000000000E+00  0.0000000000000E+00  0.0000000000000E+00  0.0000000000000E+00 
 0.0000000000000E+00  0.0000000000000E+00  0.0000000000000E+00  0.0000000000000E+00  0.0000000000000E+00  0.0000000000000E+00  0.0000000000000E+00  0.0000000000000E+00  0.0000000000000E+00  0.0000000000000E+00 
ZONE T = "ANOD, 4.0000E-08", I = 10, SOLUTIONTIME = 4.000000E-08
ZONETYPE = ORDERED
DATAPACKING = BLOCK
STRANDID = 1
 0.0000000000000E+00  8.7488888888889E-05  1.7497777777778E-04  2.6246666666667E-04  3.4995555555556E-04  4.3744444444444E-04  5.2493333333333E-04  6.1242222222222E-04  6.9991111111111E-04  7.8740000000000E-04 
 1.1588159138498E-09  3.4764499492139E-09  5.7940926227091E-09  8.1128399880153E-09  1.0430519229310E-08  1.2747863192661E-08  1.5064878308769E-08  1.7383023839357E-08  1.9701579799912E-08  2.0860703003022E-08 
 9.1999999999721E-01  9.1999999999721E-01  9.1999999999721E-01  9.1999999999721E-01  9.1999999999721E-01  9.1999999999721E-01  9.1999999999721E-01  9.1999999999721E-01  9.1999999999721E-01  9.1999999999885E-01 
 4.0000000001393E-02  4.0000000001393E-02  4.0000000001393E-02  4.0000000001393E-02  4.0000000001393E-02  4.0000000001393E-02  4.0000000001393E-02  4.0000000001393E-02  4.0000000001393E-02  4.0000000000576E-02 
 4.0000000001393E-02  4.0000000001393E-02  4.0000000001393E-02  4.0000000001393E-02  4.0000000001393E-02  4.0000000001393E-02  4.0000000001393E-02  4.0000000001393E-02  4.0000000001393E-02  4.0000000000576E-02 
 2.9167373665674E-02  2.9167357938489E-02  2.9167310756902E-02  2.9167232120798E-02  2.9167122029970E-02  2.9166980484129E-02  2.9166807482894E-02  2.9166603025799E-02  2.9166367112291E-02  2.9166099741729E-02 
 0.0000000000000E+00 -4.7371510659025E-09 -8.9170107922206E-09 -1.2539577102181E-08 -1.5604846372993E-08 -1.8112813435842E-08 -2.0063471575867E-08 -2.1456812532143E-08 -2.2292826497655E-08 -2.2571502119263E-08 
-2.9167373665674E-02 -2.9167362675640E-02 -2.9167319673913E-02 -2.9167244660375E-02 -2.9167137634817E-02 -2.9166998596942E-02 -2.9166827546365E-02 -2.9166624482611E-02 -2.9166389405117E-02 -2.9166122313231E-02 
-4.0906712751379E-02 -4.0906712751383E-02 -4.0906712751379E-02 -4.0906712751379E-02 -4.0906712751383E-02 -4.0906712751380E-02 -4.0906712751380E-02 -4.0906712751383E-02 -4.0906712751383E-02 -4.0906712751908E-02 
 1.1739339085704E-02  1.1739350075743E-02  1.1739393077466E-02  1.1739468091004E-02  1.1739575116567E-02  1.1739714154438E-02  1.1739885205015E-02  1.1740088268772E-02  1.1740323346266E-02  1.1740590438677E-02 
 1.6690487380956E+00  3.3381006554042E+00  3.3381130950009E+00  3.3381347950248E+00  3.3381657555451E+00  3.3382059766575E+00  3.3382554584932E+00  3.3383142012104E+00  3.3383822049951E+00  1.6692297350767E+00 