TITLE = "Solution on Domain BulkDomain1D_0"
VARIABLES = "x [m]"  
"Vel_axial" 
"MF_sp(ECDMC)" 
"MF_sp(Li+)" 
"MF_sp(PF6-)" 
"Volt(Electroly)" 
"Volt(AnodeVolt)" 
"Potential Drop Electrode-Electrolyte [V]" 
"Surf_0 Equilibrium Potential Drop Electrode-Electrolyte [V]" 
"Overpotential_0 [V]" 
"Current Source [A/m^2]" 
"Li+ flux [kmol/m^2/s]" 
"Electrolyte Current [A/m^2]" 
"Electrode Current [A/m^2]" 
"CV Capacity discharged [A-s/m^2]" 
"Depth of discharge in CV [A-s/m^2]" 
"CV Capacity remaining [A-s/m^2]" 
"Initial CV capacity [A-s/m^2]" 
"Porosity []" 
"Surface Area [m2/m2] (area per area)" 
"Specific current (per particle area) [A/m^2]" 
"Control volume thickness [m]" 
"MoleDens Li_C6-bulk [kmol/m^3]" 
"MoleDens V_C6-bulk [kmol/m^3]" 
"qHeat_accum [J/m3]" 
"qHeat_step [W/m3]" 
"Joule_Lyte [W/m3]" 
"Joule_Solid [W/m3]" 
"electrodHeat [W/m3]" 
"OverpotHeat [W/m3]" 
"deltaSHeat [W/m3]" 

ZONE T = "ANOD, 0.0000E+00", I = 10, SOLUTIONTIME = 0.000000E+00
ZONETYPE = ORDERED
DATAPACKING = BLOCK
STRANDID = 1
 0.0000000000000E+00  8.7488888888889E-05  1.7497777777778E-04  2.6246666666667E-04  3.4995555555556E-04  4.3744444444444E-04  5.2493333333333E-04  6.1242222222222E-04  6.9991111111111E-04  7.8740000000000E-04 
 0.0000000000000E+00  0.0000000000000E+00  0.0000000000000E+00  0.0000000000000E+00  0.0000000000000E+00  0.0000000000000E+00  0.0000000000000E+00  0.0000000000000E+00  0.0000000000000E+00  0.0000000000000E+00 
 9.2000000000000E-01  9.2000000000000E-01  9.2000000000000E-01  9.2000000000000E-01  9.2000000000000E-01  9.2000000000000E-01  9.2000000000000E-01  9.2000000000000E-01  9.2000000000000E-01  9.2000000000000E-01 
 4.0000000000000E-02  4.0000000000000E-02  4.0000000000000E-02  4.0000000000000E-02  4.0000000000000E-02  4.0000000000000E-02  4.0000000000000E-02  4.0000000000000E-02  4.0000000000000E-02  4.0000000000000E-02 
 4.0000000000000E-02  4.0000000000000E-02  4.0000000000000E-02  4.0000000000000E-02  4.0000000000000E-02  4.0000000000000E-02  4.0000000000000E-02  4.0000000000000E-02  4.0000000000000E-02  4.0000000000000E-02 
-7.0000000000000E-02 -7.0000000000000E-02 -7.0000000000000E-02 -7.0000000000000E-02 -7.0000000000000E-02 -7.0000000000000E-02 -7.0000000000000E-02 -7.0000000000000E-02 -7.0000000000000E-02 -7.0000000000000E-02 
 0.0000000000000E+00  0.0000000000000E+00  0.0000000000000E+00  0.0000000000000E+00  0.0000000000000E+00  0.0000000000000E+00  0.0000000000000E+00  0.0000000000000E+00  0.0000000000000E+00  0.0000000000000E+00 
 7.0000000000000E-02  7.0000000000000E-02  7.0000000000000E-02  7.0000000000000E-02  7.0000000000000E-02  7.0000000000000E-02  7.0000000000000E-02  7.0000000000000E-02  7.0000000000000E-02  7.0000000000000E-02 
-4.0906712753392E-02 -4.0906712753392E-02 -4.0906712753392E-02 -4.0906712753392E-02 -4.0906712753392E-02 -4.0906712753392E-02 -4.0906712753392E-02 -4.0906712753392E-02 -4.0906712753392E-02 -4.0906712753392E-02 
 1.1090671275339E-01  1.1090671275339E-01  1.1090671275339E-01  1.1090671275339E-01  1.1090671275339E-01  1.1090671275339E-01  1.1090671275339E-01  1.1090671275339E-01  1.1090671275339E-01  1.1090671275339E-01 
 3.0930240924008E+01  6.1860481848017E+01  6.1860481848017E+01  6.1860481848017E+01  6.1860481848016E+01  6.1860481848017E+01  6.1860481848017E+01  6.1860481848016E+01  6.1860481848016E+01  3.0930240924008E+01 
-0.0000000000000E+00 -0.0000000000000E+00 -0.0000000000000E+00 -0.0000000000000E+00 -0.0000000000000E+00 -0.0000000000000E+00 -0.0000000000000E+00 -0.0000000000000E+00 -0.0000000000000E+00 -0.0000000000000E+00 
 0.0000000000000E+00  0.0000000000000E+00  0.0000000000000E+00  0.0000000000000E+00  0.0000000000000E+00  0.0000000000000E+00  0.0000000000000E+00  0.0000000000000E+00  0.0000000000000E+00  3.0930240924008E+01 
 3.0930240924008E+01 -0.0000000000000E+00 -0.0000000000000E+00 -0.0000000000000E+00 -0.0000000000000E+00 -0.0000000000000E+00 -0.0000000000000E+00 -0.0000000000000E+00 -0.0000000000000E+00  0.0000000000000E+00 
 0.0000000000000E+00  0.0000000000000E+00  0.0000000000000E+00  0.0000000000000E+00  0.0000000000000E+00  0.0000000000000E+00  0.0000000000000E+00  0.0000000000000E+00  0.0000000000000E+00  0.0000000000000E+00 
 9.1448444543281E+04  1.8289688908656E+05  1.8289688908656E+05  1.8289688908656E+05  1.8289688908656E+05  1.8289688908656E+05  1.8289688908656E+05  1.8289688908656E+05  1.8289688908656E+05  9.1448444543281E+04 
 3.6579377817312E+05  7.3158755634625E+05  7.3158755634625E+05  7.3158755634625E+05  7.3158755634625E+05  7.3158755634625E+05  7.3158755634625E+05  7.3158755634625E+05  7.3158755634625E+05  3.6579377817312E+05 
 4.5724222271640E+05  9.1448444543281E+05  9.1448444543281E+05  9.1448444543281E+05  9.1448444543281E+05  9.1448444543281E+05  9.1448444543281E+05  9.1448444543281E+05  9.1448444543281E+05  4.5724222271640E+05 
 3.5000000000000E-01  3.5000000000000E-01  3.5000000000000E-01  3.5000000000000E-01  3.5000000000000E-01  3.5000000000000E-01  3.5000000000000E-01  3.5000000000000E-01  3.5000000000000E-01  3.5000000000000E-01 
 8.5301666666666E+00  1.7060333333333E+01  1.7060333333333E+01  1.7060333333333E+01  1.7060333333333E+01  1.7060333333333E+01  1.7060333333333E+01  1.7060333333333E+01  1.7060333333333E+01  8.5301666666666E+00 
 3.6259831879809E+00  3.6259831879809E+00  3.6259831879809E+00  3.6259831879809E+00  3.6259831879809E+00  3.6259831879809E+00  3.6259831879809E+00  3.6259831879809E+00  3.6259831879809E+00  3.6259831879809E+00 
 4.3744444444444E-05  8.7488888888889E-05  8.7488888888889E-05  8.7488888888889E-05  8.7488888888889E-05  8.7488888888889E-05  8.7488888888889E-05  8.7488888888889E-05  8.7488888888889E-05  4.3744444444444E-05 
 8.6666666666666E+01  8.6666666666666E+01  8.6666666666666E+01  8.6666666666666E+01  8.6666666666666E+01  8.6666666666666E+01  8.6666666666666E+01  8.6666666666666E+01  8.6666666666666E+01  8.6666666666666E+01 
 2.1666666666667E+01  2.1666666666667E+01  2.1666666666667E+01  2.1666666666667E+01  2.1666666666667E+01  2.1666666666667E+01  2.1666666666667E+01  2.1666666666667E+01  2.1666666666667E+01  2.1666666666667E+01 
 0.0000000000000E+00  0.0000000000000E+00  0.0000000000000E+00  0.0000000000000E+00  0.0000000000000E+00  0.0000000000000E+00  0.0000000000000E+00  0.0000000000000E+00  0.0000000000000E+00  0.0000000000000E+00 
 0.0000000000000E+00  0.0000000000000E+00  0.0000000000000E+00  0.0000000000000E+00  0.0000000000000E+00  0.0000000000000E+00  0.0000000000000E+00  0.0000000000000E+00  0.0000000000000E+00  0.0000000000000E+00 
 0.0000000000000E+00  0.0000000000000E+00  0.0000000000000E+00  0.0000000000000E+00  0.0000000000000E+00  0.0000000000000E+00  0.0000000000000E+00  0.0000000000000E+00  0.0000000000000E+00  0.0000000000000E+00 
 0.0000000000000E+00  0.0000000000000E+00  0.0000000000000E+00  0.0000000000000E+00  0.0000000000000E+00  0.0000000000000E+00  0.0000000000000E+00  0.0000000000000E+00  0.0000000000000E+00  0.0000000000000E+00 
 0.0000000000000E+00  0.0000000000000E+00  0.0000000000000E+00  0.0000000000000E+00  0.0000000000000E+00  0.0000000000000E+00  0.0000000000000E+00  0.0000000000000E+00  0.0000000000000E+00  0.0000000000000E+00 
 0.0000000000000E+00  0.0000000000000E+00  0.0000000000000E+00  0.0000000000000E+00  0.0000000000000E+00  0.0000000000000E+00  0.0000000000000E+00  0.0000000000000E+00  0.0000000000000E+00  0.0000000000000E+00 
 0.0000000000000E+00  0.0000000000000E+00  0.0000000000000E+00  0.0000000000000E+00  0.0000000000000E+00  0.0000000000000E+00  0.0000000000000E+00  0.0000000000000E+00  0.0000000000000E+00  0.0000000000000E+00 
ZONE T = "ANOD, 1.0000E-08", I = 10, SOLUTIONTIME = 1.000000E-08
ZONETYPE = ORDERED
DATAPACKING = BLOCK
STRANDID = 1
 0.0000000000000E+00  8.7488888888889E-05  1.7497777777778E-04  2.6246666666667E-04  3.4995555555556E-04  4.3744444444444E-04  5.2493333333333E-04  6.1242222222222E-04  6.9991111111111E-04  7.8740000000000E-04 
 1.1589917711690E-09  3.4769775211543E-09  5.7949719094808E-09  8.1129813663871E-09  1.0431012322633E-08  1.2749071208820E-08  1.5067164455620E-08  1.7385298494069E-08  1.9703479754858E-08  2.0863323627637E-08 
 9.1999999999930E-01  9.1999999999930E-01  9.1999999999930E-01  9.1999999999930E-01  9.1999999999930E-01  9.1999999999930E-01  9.1999999999930E-01  9.1999999999930E-01  9.1999999999930E-01  9.1999999999971E-01 
 4.0000000000348E-02  4.0000000000348E-02  4.0000000000348E-02  4.0000000000348E-02  4.0000000000348E-02  4.0000000000348E-02  4.0000000000348E-02  4.0000000000348E-02  4.0000000000348E-02  4.0000000000144E-02 
 4.0000000000348E-02  4.0000000000348E-02  4.0000000000348E-02  4.0000000000348E-02  4.0000000000348E-02  4.0000000000348E-02  4.0000000000348E-02  4.0000000000348E-02  4.0000000000348E-02  4.0000000000144E-02 
 2.9167371469907E-02  2.9167355742796E-02  2.9167308561449E-02  2.9167229925731E-02  2.9167119835440E-02  2.9166978290308E-02  2.9166805289934E-02  2.9166600833854E-02  2.9166364921507E-02  2.9166097552282E-02 
 0.0000000000000E+00 -4.7371275801106E-09 -8.9169665838015E-09 -1.2539514934249E-08 -1.5604769008675E-08 -1.8112723638223E-08 -2.0063372107994E-08 -2.1456706157035E-08 -2.2292715978243E-08 -2.2571390218456E-08 
-2.9167371469907E-02 -2.9167360479924E-02 -2.9167317478416E-02 -2.9167242465246E-02 -2.9167135440209E-02 -2.9166996403031E-02 -2.9166825353306E-02 -2.9166622290560E-02 -2.9166387214223E-02 -2.9166120123672E-02 
-4.0906712752891E-02 -4.0906712752891E-02 -4.0906712752891E-02 -4.0906712752891E-02 -4.0906712752891E-02 -4.0906712752891E-02 -4.0906712752891E-02 -4.0906712752891E-02 -4.0906712752891E-02 -4.0906712753022E-02 
 1.1739341282984E-02  1.1739352272967E-02  1.1739395274475E-02  1.1739470287645E-02  1.1739577312682E-02  1.1739716349860E-02  1.1739887399585E-02  1.1740090462331E-02  1.1740325538669E-02  1.1740592629351E-02 
 1.6690490558734E+00  3.3381012909437E+00  3.3381137304786E+00  3.3381354303960E+00  3.3381663907645E+00  3.3382066116766E+00  3.3382560932665E+00  3.3383148356921E+00  3.3383828391427E+00  1.6692300519136E+00 
 8.6491942462376E-09  2.5947590470081E-08  4.3246060773489E-08  6.0544642256344E-08  7.7843371488098E-08  9.5142320557884E-08  1.1244152537791E-07  1.2974103835107E-07  1.4704095965139E-07  1.4704095965139E-07 
 0.0000000000000E+00  3.3380824137733E+00  6.6761727211019E+00  1.0014280903209E+01  1.3352414068104E+01  1.6690582699966E+01  2.0028797219273E+01  2.3367066146619E+01  2.6705397245180E+01  3.0043809066004E+01 
 3.0043810256526E+01  2.6705719148444E+01  2.3367628824079E+01  2.0029521429787E+01  1.6691387705138E+01  1.3353218389436E+01  1.0015004222056E+01  6.6767359420556E+00  3.3384042884764E+00  0.0000000000000E+00 
 1.6690490558734E-08  3.3381012909437E-08  3.3381137304786E-08  3.3381354303960E-08  3.3381663907645E-08  3.3382066116766E-08  3.3382560932665E-08  3.3383148356921E-08  3.3383828391427E-08  1.6692300519136E-08 
 9.1448444543298E+04  1.8289688908660E+05  1.8289688908660E+05  1.8289688908660E+05  1.8289688908660E+05  1.8289688908660E+05  1.8289688908660E+05  1.8289688908660E+05  1.8289688908660E+05  9.1448444543298E+04 
 3.6579377817311E+05  7.3158755634621E+05  7.3158755634621E+05  7.3158755634621E+05  7.3158755634621E+05  7.3158755634622E+05  7.3158755634622E+05  7.3158755634621E+05  7.3158755634621E+05  3.6579377817311E+05 
 4.5724222271641E+05  9.1448444543281E+05  9.1448444543281E+05  9.1448444543281E+05  9.1448444543281E+05  9.1448444543281E+05  9.1448444543281E+05  9.1448444543281E+05  9.1448444543281E+05  4.5724222271640E+05 
 3.5000000000000E-01  3.5000000000000E-01  3.5000000000000E-01  3.5000000000000E-01  3.5000000000000E-01  3.5000000000000E-01  3.5000000000000E-01  3.5000000000000E-01  3.5000000000000E-01  3.5000000000000E-01 
 8.5301666666666E+00  1.7060333333333E+01  1.7060333333333E+01  1.7060333333333E+01  1.7060333333333E+01  1.7060333333333E+01  1.7060333333333E+01  1.7060333333333E+01  1.7060333333333E+01  8.5301666666666E+00 
 1.9566429603252E-01  1.9566448238274E-01  1.9566521153232E-01  1.9566648348387E-01  1.9566829824141E-01  1.9567065581036E-01  1.9567355619858E-01  1.9567699941533E-01  1.9568098547172E-01  1.9568551437998E-01 
 4.3744444444444E-05  8.7488888888889E-05  8.7488888888889E-05  8.7488888888889E-05  8.7488888888889E-05  8.7488888888889E-05  8.7488888888889E-05  8.7488888888889E-05  8.7488888888889E-05  4.3744444444444E-05 
 8.6666666666663E+01  8.6666666666663E+01  8.6666666666663E+01  8.6666666666663E+01  8.6666666666663E+01  8.6666666666663E+01  8.6666666666663E+01  8.6666666666663E+01  8.6666666666663E+01  8.6666666666663E+01 
 2.1666666666671E+01  2.1666666666671E+01  2.1666666666671E+01  2.1666666666671E+01  2.1666666666671E+01  2.1666666666671E+01  2.1666666666671E+01  2.1666666666671E+01  2.1666666666671E+01  2.1666666666671E+01 
 1.8363938141196E-11  2.8663993533083E-11  6.1478022265264E-11  1.1872013029757E-10  2.0039090809778E-10  3.0649128918690E-10  4.3702248574210E-10  5.9198593703827E-10  7.7138327443449E-10  8.6719061910881E-10 
 1.8363938141196E-03  2.8663993533083E-03  6.1478022265264E-03  1.1872013029757E-02  2.0039090809778E-02  3.0649128918690E-02  4.3702248574210E-02  5.9198593703827E-02  7.7138327443449E-02  8.6719061910881E-02 
 3.0002884743948E-04  1.5001450417697E-03  5.1005067415660E-03  1.1101151490679E-02  1.9502138273391E-02  3.0303559907414E-02  4.3505536604135E-02  5.9108210812771E-02  7.7111743718983E-02  8.6713745018322E-02 
 1.5363649666802E-03  1.3662543115386E-03  1.0472954849604E-03  7.7086153907835E-04  5.3695253638690E-04  3.4556901127600E-04  1.9671197007569E-04  9.0382891056359E-05  2.6583724465612E-05  5.3168925587734E-06 
 0.0000000000000E+00  0.0000000000000E+00  0.0000000000000E+00  0.0000000000000E+00  0.0000000000000E+00  0.0000000000000E+00  0.0000000000000E+00  0.0000000000000E+00  0.0000000000000E+00  0.0000000000000E+00 
 0.0000000000000E+00  0.0000000000000E+00  0.0000000000000E+00  0.0000000000000E+00  0.0000000000000E+00  0.0000000000000E+00  0.0000000000000E+00  0.0000000000000E+00  0.0000000000000E+00  0.0000000000000E+00 
 0.0000000000000E+00  0.0000000000000E+00  0.0000000000000E+00  0.0000000000000E+00  0.0000000000000E+00  0.0000000000000E+00  0.0000000000000E+00  0.0000000000000E+00  0.0000000000000E+00  0.0000000000000E+00 
ZONE T = "ANOD, 2.0000E-08", I = 10, SOLUTIONTIME = 2.000000E-08
ZONETYPE = ORDERED
DATAPACKING = BLOCK
STRANDID = 1
 0.0000000000000E+00  8.7488888888889E-05  1.7497777777778E-04  2.6246666666667E-04  3.4995555555556E-04  4.3744444444444E-04  5.2493333333333E-04  6.1242222222222E-04  6.9991111111111E-04  7.8740000000000E-04 
 1.1589975178084E-09  3.4769947610898E-09  5.7950006425023E-09  8.1130215925424E-09  1.0431064041754E-08  1.2749134420750E-08  1.5066512744775E-08  1.7384295067825E-08  1.9702124613114E-08  2.0861974231753E-08 
 9.1999999999861E-01  9.1999999999861E-01  9.1999999999861E-01  9.1999999999861E-01  9.1999999999861E-01  9.1999999999861E-01  9.1999999999861E-01  9.1999999999861E-01  9.1999999999861E-01  9.1999999999942E-01 
 4.0000000000696E-02  4.0000000000696E-02  4.0000000000696E-02  4.0000000000696E-02  4.0000000000696E-02  4.0000000000696E-02  4.0000000000696E-02  4.0000000000696E-02  4.0000000000696E-02  4.0000000000288E-02 
 4.0000000000696E-02  4.0000000000696E-02  4.0000000000696E-02  4.0000000000696E-02  4.0000000000696E-02  4.0000000000696E-02  4.0000000000696E-02  4.0000000000696E-02  4.0000000000696E-02  4.0000000000288E-02 
 2.9167373665561E-02  2.9167357938375E-02  2.9167310756789E-02  2.9167232120684E-02  2.9167122029857E-02  2.9166980484015E-02  2.9166807482780E-02  2.9166603025685E-02  2.9166367112177E-02  2.9166099741616E-02 
 0.0000000000000E+00 -4.7371510662846E-09 -8.9170107929393E-09 -1.2539577103190E-08 -1.5604846374248E-08 -1.8112813437297E-08 -2.0063471577476E-08 -2.1456812533862E-08 -2.2292826499437E-08 -2.2571502121062E-08 
-2.9167373665561E-02 -2.9167362675526E-02 -2.9167319673800E-02 -2.9167244660261E-02 -2.9167137634703E-02 -2.9166998596829E-02 -2.9166827546252E-02 -2.9166624482498E-02 -2.9166389405004E-02 -2.9166122313118E-02 
-4.0906712752384E-02 -4.0906712752389E-02 -4.0906712752384E-02 -4.0906712752384E-02 -4.0906712752388E-02 -4.0906712752386E-02 -4.0906712752386E-02 -4.0906712752388E-02 -4.0906712752388E-02 -4.0906712752650E-02 
 1.1739339086824E-02  1.1739350076862E-02  1.1739393078585E-02  1.1739468092123E-02  1.1739575117684E-02  1.1739714155558E-02  1.1739885206134E-02  1.1740088269890E-02  1.1740323347384E-02  1.1740590439532E-02 
 1.6690487382321E+00  3.3381006556770E+00  3.3381130952739E+00  3.3381347952977E+00  3.3381657558176E+00  3.3382059769304E+00  3.3382554587662E+00  3.3383142014830E+00  3.3383822052677E+00  1.6692297351836E+00 
 8.6492352080660E-09  2.5947722098196E-08  4.3246273451378E-08  6.0544937254416E-08  7.7843761509200E-08  9.5142794177545E-08  1.1244208328079E-07  1.2974167679462E-07  1.4704176694826E-07  1.4704176694826E-07 
 0.0000000000000E+00  3.3380990661720E+00  6.6762059415825E+00  1.0014329886712E+01  1.3352480162409E+01  1.6690666028786E+01  2.0028896746508E+01  2.3367181576791E+01  2.6705529780042E+01  3.0043950617682E+01 
 3.0043950617929E+01  2.6705851551858E+01  2.3367744676383E+01  2.0029620731097E+01  1.6691470455539E+01  1.3353284589165E+01  1.0015053871317E+01  6.6767690411927E+00  3.3384208378174E+00  0.0000000000000E+00 
 3.3380977941055E-08  6.6762019466207E-08  6.6762268257524E-08  6.6762702256937E-08  6.6763321465821E-08  6.6764125886070E-08  6.6765115520327E-08  6.6766290371750E-08  6.6767650444104E-08  3.3384597870972E-08 
 9.1448444543314E+04  1.8289688908663E+05  1.8289688908663E+05  1.8289688908663E+05  1.8289688908663E+05  1.8289688908663E+05  1.8289688908663E+05  1.8289688908663E+05  1.8289688908663E+05  9.1448444543314E+04 
 3.6579377817309E+05  7.3158755634618E+05  7.3158755634618E+05  7.3158755634618E+05  7.3158755634618E+05  7.3158755634618E+05  7.3158755634618E+05  7.3158755634618E+05  7.3158755634618E+05  3.6579377817309E+05 
 4.5724222271641E+05  9.1448444543281E+05  9.1448444543281E+05  9.1448444543281E+05  9.1448444543281E+05  9.1448444543281E+05  9.1448444543281E+05  9.1448444543281E+05  9.1448444543281E+05  4.5724222271641E+05 
 3.5000000000000E-01  3.5000000000000E-01  3.5000000000000E-01  3.5000000000000E-01  3.5000000000000E-01  3.5000000000000E-01  3.5000000000000E-01  3.5000000000000E-01  3.5000000000000E-01  3.5000000000000E-01 
 8.5301666666666E+00  1.7060333333333E+01  1.7060333333333E+01  1.7060333333333E+01  1.7060333333333E+01  1.7060333333333E+01  1.7060333333333E+01  1.7060333333333E+01  1.7060333333333E+01  8.5301666666666E+00 
 1.9566425879511E-01  1.9566444514627E-01  1.9566517429948E-01  1.9566644625727E-01  1.9566826102368E-01  1.9567061860439E-01  1.9567351900702E-01  1.9567696224085E-01  1.9568094831682E-01  1.9568547724940E-01 
 4.3744444444444E-05  8.7488888888889E-05  8.7488888888889E-05  8.7488888888889E-05  8.7488888888889E-05  8.7488888888889E-05  8.7488888888889E-05  8.7488888888889E-05  8.7488888888889E-05  4.3744444444444E-05 
 8.6666666666659E+01  8.6666666666659E+01  8.6666666666659E+01  8.6666666666659E+01  8.6666666666659E+01  8.6666666666659E+01  8.6666666666659E+01  8.6666666666659E+01  8.6666666666659E+01  8.6666666666659E+01 
 2.1666666666675E+01  2.1666666666675E+01  2.1666666666675E+01  2.1666666666675E+01  2.1666666666675E+01  2.1666666666675E+01  2.1666666666675E+01  2.1666666666675E+01  2.1666666666675E+01  2.1666666666675E+01 
 3.6728057043698E-11  5.7328273730134E-11  1.2295665423377E-10  2.3744142223268E-10  4.0078380340431E-10  6.1298563753456E-10  8.7404931417140E-10  1.1839777210747E-09  1.5427742091714E-09  1.7343899098613E-09 
 1.8364118902501E-03  2.8664280197051E-03  6.1478631968504E-03  1.1872129193511E-02  2.0039289530653E-02  3.0649434834766E-02  4.3702682842930E-02  5.9199178403640E-02  7.7139093473689E-02  8.6719929075251E-02 
 6.0006053670391E-04  3.0003052024826E-03  1.0201064068838E-02  2.2202411501614E-02  3.9004469943572E-02  6.0607422304515E-02  8.7011505526586E-02  1.1821700542922E-01  1.5422425320464E-01  1.7342835714830E-01 
 3.0727451676659E-03  2.7325221705308E-03  2.0946013545384E-03  1.5417307216541E-03  1.0739103968588E-03  6.9114144894051E-04  3.9342589055408E-04  1.8076667824222E-04  5.3167712498617E-05  1.0633837830298E-05 
 0.0000000000000E+00  0.0000000000000E+00  0.0000000000000E+00  0.0000000000000E+00  0.0000000000000E+00  0.0000000000000E+00  0.0000000000000E+00  0.0000000000000E+00  0.0000000000000E+00  0.0000000000000E+00 
 0.0000000000000E+00  0.0000000000000E+00  0.0000000000000E+00  0.0000000000000E+00  0.0000000000000E+00  0.0000000000000E+00  0.0000000000000E+00  0.0000000000000E+00  0.0000000000000E+00  0.0000000000000E+00 
 0.0000000000000E+00  0.0000000000000E+00  0.0000000000000E+00  0.0000000000000E+00  0.0000000000000E+00  0.0000000000000E+00  0.0000000000000E+00  0.0000000000000E+00  0.0000000000000E+00  0.0000000000000E+00 
ZONE T = "ANOD, 3.0000E-08", I = 10, SOLUTIONTIME = 3.000000E-08
ZONETYPE = ORDERED
DATAPACKING = BLOCK
STRANDID = 1
 0.0000000000000E+00  8.7488888888889E-05  1.7497777777778E-04  2.6246666666667E-04  3.4995555555556E-04  4.3744444444444E-04  5.2493333333333E-04  6.1242222222222E-04  6.9991111111111E-04  7.8740000000000E-04 
 1.1589975177886E-09  3.4769947610289E-09  5.7950006424018E-09  8.1130215924022E-09  1.0431064041574E-08  1.2749134420530E-08  1.5067965575427E-08  1.7386837521620E-08  1.9705393482323E-08  2.0863790270041E-08 
 9.1999999999791E-01  9.1999999999791E-01  9.1999999999791E-01  9.1999999999791E-01  9.1999999999791E-01  9.1999999999791E-01  9.1999999999791E-01  9.1999999999791E-01  9.1999999999791E-01  9.1999999999914E-01 
 4.0000000001045E-02  4.0000000001045E-02  4.0000000001045E-02  4.0000000001045E-02  4.0000000001045E-02  4.0000000001045E-02  4.0000000001045E-02  4.0000000001045E-02  4.0000000001045E-02  4.0000000000432E-02 
 4.0000000001045E-02  4.0000000001045E-02  4.0000000001045E-02  4.0000000001045E-02  4.0000000001045E-02  4.0000000001045E-02  4.0000000001045E-02  4.0000000001045E-02  4.0000000001045E-02  4.0000000000432E-02 
 2.9167373665346E-02  2.9167357938161E-02  2.9167310756574E-02  2.9167232120470E-02  2.9167122029642E-02  2.9166980483801E-02  2.9166807482566E-02  2.9166603025471E-02  2.9166367111963E-02  2.9166099741401E-02 
 0.0000000000000E+00 -4.7371510662050E-09 -8.9170107927899E-09 -1.2539577102981E-08 -1.5604846373988E-08 -1.8112813436996E-08 -2.0063471577144E-08 -2.1456812533507E-08 -2.2292826499070E-08 -2.2571502120693E-08 
-2.9167373665346E-02 -2.9167362675312E-02 -2.9167319673585E-02 -2.9167244660047E-02 -2.9167137634489E-02 -2.9166998596614E-02 -2.9166827546037E-02 -2.9166624482283E-02 -2.9166389404789E-02 -2.9166122312903E-02 
-4.0906712751885E-02 -4.0906712751881E-02 -4.0906712751885E-02 -4.0906712751885E-02 -4.0906712751882E-02 -4.0906712751888E-02 -4.0906712751888E-02 -4.0906712751882E-02 -4.0906712751882E-02 -4.0906712752276E-02 
 1.1739339086539E-02  1.1739350076569E-02  1.1739393078300E-02  1.1739468091839E-02  1.1739575117394E-02  1.1739714155274E-02  1.1739885205851E-02  1.1740088269599E-02  1.1740323347093E-02  1.1740590439373E-02 
 1.6690487382036E+00  3.3381006556178E+00  3.3381130952168E+00  3.3381347952406E+00  3.3381657557591E+00  3.3382059768737E+00  3.3382554587094E+00  3.3383142014244E+00  3.3383822052091E+00  1.6692297351690E+00 
 8.6492352039783E-09  2.5947722100676E-08  4.3246273449847E-08  6.0544937248864E-08  7.7843761506061E-08  9.5142794178034E-08  1.1244208327761E-07  1.2974167678811E-07  1.4704183906833E-07  1.4704183906833E-07 
 0.0000000000000E+00  3.3380990660169E+00  6.6762059414566E+00  1.0014329886615E+01  1.3352480162157E+01  1.6690666028379E+01  2.0028896746314E+01  2.3367181576442E+01  2.6705529779686E+01  3.0043950617474E+01 
 3.0043950617423E+01  2.6705851551411E+01  2.3367744675994E+01  2.0029620730765E+01  1.6691470455265E+01  1.3353284588949E+01  1.0015053871157E+01  6.6767690410904E+00  3.3384208377736E+00  0.0000000000000E+00 
 5.0071465323091E-08  1.0014302602239E-07  1.0014339920969E-07  1.0014405020934E-07  1.0014497902341E-07  1.0014618565481E-07  1.0014767010742E-07  1.0014943238599E-07  1.0015147249620E-07  5.0076895222662E-08 
 9.1448444543331E+04  1.8289688908666E+05  1.8289688908666E+05  1.8289688908666E+05  1.8289688908666E+05  1.8289688908666E+05  1.8289688908666E+05  1.8289688908666E+05  1.8289688908666E+05  9.1448444543331E+04 
 3.6579377817307E+05  7.3158755634615E+05  7.3158755634615E+05  7.3158755634615E+05  7.3158755634615E+05  7.3158755634615E+05  7.3158755634615E+05  7.3158755634615E+05  7.3158755634615E+05  3.6579377817307E+05 
 4.5724222271641E+05  9.1448444543281E+05  9.1448444543281E+05  9.1448444543281E+05  9.1448444543281E+05  9.1448444543281E+05  9.1448444543281E+05  9.1448444543281E+05  9.1448444543281E+05  4.5724222271641E+05 
 3.5000000000000E-01  3.5000000000000E-01  3.5000000000000E-01  3.5000000000000E-01  3.5000000000000E-01  3.5000000000000E-01  3.5000000000000E-01  3.5000000000000E-01  3.5000000000000E-01  3.5000000000000E-01 
 8.5301666666666E+00  1.7060333333333E+01  1.7060333333333E+01  1.7060333333333E+01  1.7060333333333E+01  1.7060333333333E+01  1.7060333333333E+01  1.7060333333333E+01  1.7060333333333E+01  8.5301666666666E+00 
 1.9566425879177E-01  1.9566444514279E-01  1.9566517429613E-01  1.9566644625392E-01  1.9566826102025E-01  1.9567061860106E-01  1.9567351900370E-01  1.9567696223742E-01  1.9568094831339E-01  1.9568547724769E-01 
 4.3744444444444E-05  8.7488888888889E-05  8.7488888888889E-05  8.7488888888889E-05  8.7488888888889E-05  8.7488888888889E-05  8.7488888888889E-05  8.7488888888889E-05  8.7488888888889E-05  4.3744444444444E-05 
 8.6666666666655E+01  8.6666666666655E+01  8.6666666666655E+01  8.6666666666655E+01  8.6666666666655E+01  8.6666666666655E+01  8.6666666666655E+01  8.6666666666655E+01  8.6666666666655E+01  8.6666666666655E+01 
 2.1666666666679E+01  2.1666666666679E+01  2.1666666666679E+01  2.1666666666679E+01  2.1666666666679E+01  2.1666666666679E+01  2.1666666666679E+01  2.1666666666679E+01  2.1666666666679E+01  2.1666666666679E+01 
 5.5092175944385E-11  8.5992553926196E-11  1.8443528619906E-10  3.5616271416519E-10  6.0117669870044E-10  9.1947998586555E-10  1.3110761425885E-09  1.7759695050877E-09  2.3141651438828E-09  2.6015892005967E-09 
 1.8364118900687E-03  2.8664280196062E-03  6.1478631965290E-03  1.1872129193251E-02  2.0039289529614E-02  3.0649434833099E-02  4.3702682841714E-02  5.9199178401305E-02  7.7139093471138E-02  8.6719929073535E-02 
 9.0009222583858E-04  4.5004653631423E-03  1.5301621395824E-02  3.3303671512315E-02  5.8506801612731E-02  9.0911284699961E-02  1.3051747444783E-01  1.7732580004335E-01  2.3133676268774E-01  2.6014296927657E-01 
 4.6091253685999E-03  4.0987900294773E-03  3.1419072240814E-03  2.3125999042043E-03  1.6108682573131E-03  1.0367138865938E-03  5.9013981102618E-04  2.7115046542529E-04  7.9751700530878E-05  1.5950783101731E-05 
 0.0000000000000E+00  0.0000000000000E+00  0.0000000000000E+00  0.0000000000000E+00  0.0000000000000E+00  0.0000000000000E+00  0.0000000000000E+00  0.0000000000000E+00  0.0000000000000E+00  0.0000000000000E+00 
 0.0000000000000E+00  0.0000000000000E+00  0.0000000000000E+00  0.0000000000000E+00  0.0000000000000E+00  0.0000000000000E+00  0.0000000000000E+00  0.0000000000000E+00  0.0000000000000E+00  0.0000000000000E+00 
 0.0000000000000E+00  0.0000000000000E+00  0.0000000000000E+00  0.0000000000000E+00  0.0000000000000E+00  0.0000000000000E+00  0.0000000000000E+00  0.0000000000000E+00  0.0000000000000E+00  0.0000000000000E+00 
ZONE T = "ANOD, 4.0000E-08", I = 10, SOLUTIONTIME = 4.000000E-08
ZONETYPE = ORDERED
DATAPACKING = BLOCK
STRANDID = 1
 0.0000000000000E+00  8.7488888888889E-05  1.7497777777778E-04  2.6246666666667E-04  3.4995555555556E-04  4.3744444444444E-04  5.2493333333333E-04  6.1242222222222E-04  6.9991111111111E-04  7.8740000000000E-04 
 1.1588159139043E-09  3.4771763648332E-09  5.7948190384375E-09  8.1135664038527E-09  1.0431245645257E-08  1.2748589608716E-08  1.5065604724933E-08  1.7383750255631E-08  1.9702306216295E-08  2.0861429419460E-08 
 9.1999999999721E-01  9.1999999999721E-01  9.1999999999721E-01  9.1999999999721E-01  9.1999999999721E-01  9.1999999999721E-01  9.1999999999721E-01  9.1999999999721E-01  9.1999999999721E-01  9.1999999999885E-01 
 4.0000000001393E-02  4.0000000001393E-02  4.0000000001393E-02  4.0000000001393E-02  4.0000000001393E-02  4.0000000001393E-02  4.0000000001393E-02  4.0000000001393E-02  4.0000000001393E-02  4.0000000000576E-02 
 4.0000000001393E-02  4.0000000001393E-02  4.0000000001393E-02  4.0000000001393E-02  4.0000000001393E-02  4.0000000001393E-02  4.0000000001393E-02  4.0000000001393E-02  4.0000000001393E-02  4.0000000000576E-02 
 2.9167373665131E-02  2.9167357937946E-02  2.9167310756359E-02  2.9167232120255E-02  2.9167122029427E-02  2.9166980483586E-02  2.9166807482351E-02  2.9166603025256E-02  2.9166367111748E-02  2.9166099741186E-02 
 0.0000000000000E+00 -4.7371510661255E-09 -8.9170107926403E-09 -1.2539577102771E-08 -1.5604846373728E-08 -1.8112813436694E-08 -2.0063471576811E-08 -2.1456812533153E-08 -2.2292826498704E-08 -2.2571502120325E-08 
-2.9167373665131E-02 -2.9167362675097E-02 -2.9167319673370E-02 -2.9167244659832E-02 -2.9167137634274E-02 -2.9166998596399E-02 -2.9166827545822E-02 -2.9166624482068E-02 -2.9166389404574E-02 -2.9166122312688E-02 
-4.0906712751379E-02 -4.0906712751383E-02 -4.0906712751379E-02 -4.0906712751379E-02 -4.0906712751383E-02 -4.0906712751380E-02 -4.0906712751380E-02 -4.0906712751383E-02 -4.0906712751383E-02 -4.0906712751908E-02 
 1.1739339086247E-02  1.1739350076286E-02  1.1739393078009E-02  1.1739468091547E-02  1.1739575117110E-02  1.1739714154981E-02  1.1739885205558E-02  1.1740088269315E-02  1.1740323346809E-02  1.1740590439220E-02 
 1.6690487381742E+00  3.3381006555613E+00  3.3381130951580E+00  3.3381347951818E+00  3.3381657557021E+00  3.3382059768146E+00  3.3382554586504E+00  3.3383142013675E+00  3.3383822051522E+00  1.6692297351553E+00 