TITLE = "Solution on Domain BulkDomain1D_0"
VARIABLES = "x [m]"  
"Vel_axial" 
"MF_sp(ECDMC)" 
"MF_sp(Li+)" 
"MF_sp(PF6-)" 
"Volt(Electroly)" 
"Volt(AnodeVolt)" 
"Potential Drop Electrode-Electrolyte [V]" 
"Surf_0 Equilibrium Potential Drop Electrode-Electrolyte [V]" 
"Overpotential_0 [V]" 
"Current Source [A/m^2]" 
"Li+ flux [kmol/m^2/s]" 
"Electrolyte Current [A/m^2]" 
"Electrode Current [A/m^2]" 
"CV Capacity discharged [A-s/m^2]" 
"Depth of discharge in CV [A-s/m^2]" 
"CV Capacity remaining [A-s/m^2]" 
"Initial CV capacity [A-s/m^2]" 
"Porosity []" 
"Surface Area [m2/m2] (area per area)" 
"Specific current (per particle area) [A/m^2]" 
"Control volume thickness [m]" 
"MoleDens Li_C6-bulk [kmol/m^3]" 
"MoleDens V_C6-bulk [kmol/m^3]" 
"qHeat_accum [J/m3]" 
"qHeat_step [W/m3]" 
"Joule_Lyte [W/m3]" 
"Joule_Solid [W/m3]" 
"electrodHeat [W/m3]" 
"OverpotHeat [W/m3]" 
"deltaSHeat [W/m3]" 

ZONE T = "ANOD, 0.0000E+00", I = 10, SOLUTIONTIME = 0.000000E+00
ZONETYPE = ORDERED
DATAPACKING = BLOCK
STRANDID = 1
 0.0000000000000E+00  8.7488888888889E-05  1.7497777777778E-04  2.6246666666667E-04  3.4995555555556E-04  4.3744444444444E-04  5.2493333333333E-04  6.1242222222222E-04  6.9991111111111E-04  7.8740000000000E-04 
 0.0000000000000E+00  0.0000000000000E+00  0.0000000000000E+00  0.0000000000000E+00  0.0000000000000E+00  0.0000000000000E+00  0.0000000000000E+00  0.0000000000000E+00  0.0000000000000E+00  0.0000000000000E+00 
 9.2000000000000E-01  9.2000000000000E-01  9.2000000000000E-01  9.2000000000000E-01  9.2000000000000E-01  9.2000000000000E-01  9.2000000000000E-01  9.2000000000000E-01  9.2000000000000E-01  9.2000000000000E-01 
 4.0000000000000E-02  4.0000000000000E-02  4.0000000000000E-02  4.0000000000000E-02  4.0000000000000E-02  4.0000000000000E-02  4.0000000000000E-02  4.0000000000000E-02  4.0000000000000E-02  4.0000000000000E-02 
 4.0000000000000E-02  4.0000000000000E-02  4.0000000000000E-02  4.0000000000000E-02  4.0000000000000E-02  4.0000000000000E-02  4.0000000000000E-02  4.0000000000000E-02  4.0000000000000E-02  4.0000000000000E-02 
-7.0000000000000E-02 -7.0000000000000E-02 -7.0000000000000E-02 -7.0000000000000E-02 -7.0000000000000E-02 -7.0000000000000E-02 -7.0000000000000E-02 -7.0000000000000E-02 -7.0000000000000E-02 -7.0000000000000E-02 
 0.0000000000000E+00  0.0000000000000E+00  0.0000000000000E+00  0.0000000000000E+00  0.0000000000000E+00  0.0000000000000E+00  0.0000000000000E+00  0.0000000000000E+00  0.0000000000000E+00  0.0000000000000E+00 
 7.0000000000000E-02  7.0000000000000E-02  7.0000000000000E-02  7.0000000000000E-02  7.0000000000000E-02  7.0000000000000E-02  7.0000000000000E-02  7.0000000000000E-02  7.0000000000000E-02  7.0000000000000E-02 
-4.0906712753392E-02 -4.0906712753392E-02 -4.0906712753392E-02 -4.0906712753392E-02 -4.0906712753392E-02 -4.0906712753392E-02 -4.0906712753392E-02 -4.0906712753392E-02 -4.0906712753392E-02 -4.0906712753392E-02 
 1.1090671275339E-01  1.1090671275339E-01  1.1090671275339E-01  1.1090671275339E-01  1.1090671275339E-01  1.1090671275339E-01  1.1090671275339E-01  1.1090671275339E-01  1.1090671275339E-01  1.1090671275339E-01 
 3.0930240924008E+01  6.1860481848017E+01  6.1860481848017E+01  6.1860481848017E+01  6.1860481848016E+01  6.1860481848017E+01  6.1860481848017E+01  6.1860481848016E+01  6.1860481848016E+01  3.0930240924008E+01 
-0.0000000000000E+00 -0.0000000000000E+00 -0.0000000000000E+00 -0.0000000000000E+00 -0.0000000000000E+00 -0.0000000000000E+00 -0.0000000000000E+00 -0.0000000000000E+00 -0.0000000000000E+00 -0.0000000000000E+00 
 0.0000000000000E+00  0.0000000000000E+00  0.0000000000000E+00  0.0000000000000E+00  0.0000000000000E+00  0.0000000000000E+00  0.0000000000000E+00  0.0000000000000E+00  0.0000000000000E+00  3.0930240924008E+01 
 3.0930240924008E+01 -0.0000000000000E+00 -0.0000000000000E+00 -0.0000000000000E+00 -0.0000000000000E+00 -0.0000000000000E+00 -0.0000000000000E+00 -0.0000000000000E+00 -0.0000000000000E+00  0.0000000000000E+00 
 0.0000000000000E+00  0.0000000000000E+00  0.0000000000000E+00  0.0000000000000E+00  0.0000000000000E+00  0.0000000000000E+00  0.0000000000000E+00  0.0000000000000E+00  0.0000000000000E+00  0.0000000000000E+00 
 9.1448444543281E+04  1.8289688908656E+05  1.8289688908656E+05  1.8289688908656E+05  1.8289688908656E+05  1.8289688908656E+05  1.8289688908656E+05  1.8289688908656E+05  1.8289688908656E+05  9.1448444543281E+04 
 3.6579377817312E+05  7.3158755634625E+05  7.3158755634625E+05  7.3158755634625E+05  7.3158755634625E+05  7.3158755634625E+05  7.3158755634625E+05  7.3158755634625E+05  7.3158755634625E+05  3.6579377817312E+05 
 4.5724222271640E+05  9.1448444543281E+05  9.1448444543281E+05  9.1448444543281E+05  9.1448444543281E+05  9.1448444543281E+05  9.1448444543281E+05  9.1448444543281E+05  9.1448444543281E+05  4.5724222271640E+05 
 3.5000000000000E-01  3.5000000000000E-01  3.5000000000000E-01  3.5000000000000E-01  3.5000000000000E-01  3.5000000000000E-01  3.5000000000000E-01  3.5000000000000E-01  3.5000000000000E-01  3.5000000000000E-01 
 8.5301666666666E+00  1.7060333333333E+01  1.7060333333333E+01  1.7060333333333E+01  1.7060333333333E+01  1.7060333333333E+01  1.7060333333333E+01  1.7060333333333E+01  1.7060333333333E+01  8.5301666666666E+00 
 3.6259831879809E+00  3.6259831879809E+00  3.6259831879809E+00  3.6259831879809E+00  3.6259831879809E+00  3.6259831879809E+00  3.6259831879809E+00  3.6259831879809E+00  3.6259831879809E+00  3.6259831879809E+00 
 4.3744444444444E-05  8.7488888888889E-05  8.7488888888889E-05  8.7488888888889E-05  8.7488888888889E-05  8.7488888888889E-05  8.7488888888889E-05  8.7488888888889E-05  8.7488888888889E-05  4.3744444444444E-05 
 8.6666666666666E+01  8.6666666666666E+01  8.6666666666666E+01  8.6666666666666E+01  8.6666666666666E+01  8.6666666666666E+01  8.6666666666666E+01  8.6666666666666E+01  8.6666666666666E+01  8.6666666666666E+01 
 2.1666666666667E+01  2.1666666666667E+01  2.1666666666667E+01  2.1666666666667E+01  2.1666666666667E+01  2.1666666666667E+01  2.1666666666667E+01  2.1666666666667E+01  2.1666666666667E+01  2.1666666666667E+01 
 0.0000000000000E+00  0.0000000000000E+00  0.0000000000000E+00  0.0000000000000E+00  0.0000000000000E+00  0.0000000000000E+00  0.0000000000000E+00  0.0000000000000E+00  0.0000000000000E+00  0.0000000000000E+00 
 0.0000000000000E+00  0.0000000000000E+00  0.0000000000000E+00  0.0000000000000E+00  0.0000000000000E+00  0.0000000000000E+00  0.0000000000000E+00  0.0000000000000E+00  0.0000000000000E+00  0.0000000000000E+00 
 0.0000000000000E+00  0.0000000000000E+00  0.0000000000000E+00  0.0000000000000E+00  0.0000000000000E+00  0.0000000000000E+00  0.0000000000000E+00  0.0000000000000E+00  0.0000000000000E+00  0.0000000000000E+00 
 0.0000000000000E+00  0.0000000000000E+00  0.0000000000000E+00  0.0000000000000E+00  0.0000000000000E+00  0.0000000000000E+00  0.0000000000000E+00  0.0000000000000E+00  0.0000000000000E+00  0.0000000000000E+00 
 0.0000000000000E+00  0.0000000000000E+00  0.0000000000000E+00  0.0000000000000E+00  0.0000000000000E+00  0.0000000000000E+00  0.0000000000000E+00  0.0000000000000E+00  0.0000000000000E+00  0.0000000000000E+00 
 0.0000000000000E+00  0.0000000000000E+00  0.0000000000000E+00  0.0000000000000E+00  0.0000000000000E+00  0.0000000000000E+00  0.0000000000000E+00  0.0000000000000E+00  0.0000000000000E+00  0.0000000000000E+00 
 0.0000000000000E+00  0.0000000000000E+00  0.0000000000000E+00  0.0000000000000E+00  0.0000000000000E+00  0.0000000000000E+00  0.0000000000000E+00  0.0000000000000E+00  0.0000000000000E+00  0.0000000000000E+00 
ZONE T = "ANOD, 1.0000E-08", I = 10, SOLUTIONTIME = 1.000000E-08
ZONETYPE = ORDERED
DATAPACKING = BLOCK
STRANDID = 1
 0.0000000000000E+00  8.7488888888889E-05  1.7497777777778E-04  2.6246666666667E-04  3.4995555555556E-04  4.3744444444444E-04  5.2493333333333E-04  6.1242222222222E-04  6.9991111111111E-04  7.8740000000000E-04 
 1.1586343100504E-09  3.4762683455428E-09  5.7935478114393E-09  8.1108423459633E-09  1.0428521587386E-08  1.2746228758593E-08  1.5063970290286E-08  1.7381752613275E-08  1.9699582158503E-08  2.0858705361646E-08 
 9.1999999999930E-01  9.1999999999930E-01  9.1999999999930E-01  9.1999999999930E-01  9.1999999999930E-01  9.1999999999930E-01  9.1999999999930E-01  9.1999999999930E-01  9.1999999999930E-01  9.1999999999971E-01 
 4.0000000000348E-02  4.0000000000348E-02  4.0000000000348E-02  4.0000000000348E-02  4.0000000000348E-02  4.0000000000348E-02  4.0000000000348E-02  4.0000000000348E-02  4.0000000000348E-02  4.0000000000144E-02 
 4.0000000000348E-02  4.0000000000348E-02  4.0000000000348E-02  4.0000000000348E-02  4.0000000000348E-02  4.0000000000348E-02  4.0000000000348E-02  4.0000000000348E-02  4.0000000000348E-02  4.0000000000144E-02 
 2.9167373666282E-02  2.9167357939096E-02  2.9167310757510E-02  2.9167232121405E-02  2.9167122030578E-02  2.9166980484736E-02  2.9166807483501E-02  2.9166603026406E-02  2.9166367112898E-02  2.9166099742337E-02 
 0.0000000000000E+00 -4.7371510661578E-09 -8.9170107927004E-09 -1.2539577102854E-08 -1.5604846373829E-08 -1.8112813436809E-08 -2.0063471576935E-08 -2.1456812533281E-08 -2.2292826498831E-08 -2.2571502120447E-08 
-2.9167373666282E-02 -2.9167362676247E-02 -2.9167319674521E-02 -2.9167244660982E-02 -2.9167137635424E-02 -2.9166998597550E-02 -2.9166827546973E-02 -2.9166624483219E-02 -2.9166389405725E-02 -2.9166122313839E-02 
-4.0906712752891E-02 -4.0906712752891E-02 -4.0906712752891E-02 -4.0906712752891E-02 -4.0906712752891E-02 -4.0906712752891E-02 -4.0906712752891E-02 -4.0906712752891E-02 -4.0906712752891E-02 -4.0906712753022E-02 
 1.1739339086609E-02  1.1739350076644E-02  1.1739393078371E-02  1.1739468091909E-02  1.1739575117467E-02  1.1739714155342E-02  1.1739885205918E-02  1.1740088269672E-02  1.1740323347166E-02  1.1740590439184E-02 
 1.6690487381883E+00  3.3381006555884E+00  3.3381130951863E+00  3.3381347952101E+00  3.3381657557292E+00  3.3382059768424E+00  3.3382554586782E+00  3.3383142013947E+00  3.3383822051793E+00  1.6692297351247E+00 
 8.6492352102458E-09  2.5947722093807E-08  4.3246273451002E-08  6.0544937256144E-08  7.7843761502104E-08  9.5142794179319E-08  1.1244208328016E-07  1.2974167679384E-07  1.4704169482751E-07  1.4704169482751E-07 
 0.0000000000000E+00  3.3380990659588E+00  6.6762059413403E+00  1.0014329886625E+01  1.3352480162109E+01  1.6690666028273E+01  2.0028896745965E+01  2.3367181576219E+01  2.6705529779478E+01  3.0043950617081E+01 
 3.0043950617125E+01  2.6705851551143E+01  2.3367744675755E+01  2.0029620730556E+01  1.6691470455086E+01  1.3353284588800E+01  1.0015053871039E+01  6.6767690410021E+00  3.3384208377147E+00  0.0000000000000E+00 
 1.6690487381883E-08  3.3381006555884E-08  3.3381130951863E-08  3.3381347952101E-08  3.3381657557292E-08  3.3382059768424E-08  3.3382554586782E-08  3.3383142013947E-08  3.3383822051793E-08  1.6692297351247E-08 
 9.1448444543298E+04  1.8289688908660E+05  1.8289688908660E+05  1.8289688908660E+05  1.8289688908660E+05  1.8289688908660E+05  1.8289688908660E+05  1.8289688908660E+05  1.8289688908660E+05  9.1448444543298E+04 
 3.6579377817311E+05  7.3158755634621E+05  7.3158755634621E+05  7.3158755634621E+05  7.3158755634621E+05  7.3158755634622E+05  7.3158755634622E+05  7.3158755634621E+05  7.3158755634621E+05  3.6579377817311E+05 
 4.5724222271641E+05  9.1448444543281E+05  9.1448444543281E+05  9.1448444543281E+05  9.1448444543281E+05  9.1448444543281E+05  9.1448444543281E+05  9.1448444543281E+05  9.1448444543281E+05  4.5724222271640E+05 
 3.5000000000000E-01  3.5000000000000E-01  3.5000000000000E-01  3.5000000000000E-01  3.5000000000000E-01  3.5000000000000E-01  3.5000000000000E-01  3.5000000000000E-01  3.5000000000000E-01  3.5000000000000E-01 
 8.5301666666666E+00  1.7060333333333E+01  1.7060333333333E+01  1.7060333333333E+01  1.7060333333333E+01  1.7060333333333E+01  1.7060333333333E+01  1.7060333333333E+01  1.7060333333333E+01  8.5301666666666E+00 
 1.9566425878998E-01  1.9566444514107E-01  1.9566517429435E-01  1.9566644625213E-01  1.9566826101850E-01  1.9567061859923E-01  1.9567351900187E-01  1.9567696223568E-01  1.9568094831163E-01  1.9568547724250E-01 
 4.3744444444444E-05  8.7488888888889E-05  8.7488888888889E-05  8.7488888888889E-05  8.7488888888889E-05  8.7488888888889E-05  8.7488888888889E-05  8.7488888888889E-05  8.7488888888889E-05  4.3744444444444E-05 
 8.6666666666663E+01  8.6666666666663E+01  8.6666666666663E+01  8.6666666666663E+01  8.6666666666663E+01  8.6666666666663E+01  8.6666666666663E+01  8.6666666666663E+01  8.6666666666663E+01  8.6666666666663E+01 
 2.1666666666671E+01  2.1666666666671E+01  2.1666666666671E+01  2.1666666666671E+01  2.1666666666671E+01  2.1666666666671E+01  2.1666666666671E+01  2.1666666666671E+01  2.1666666666671E+01  2.1666666666671E+01 
 1.8364118901653E-11  2.8664280194203E-11  6.1478631965512E-11  1.1872129193373E-10  2.0039289529858E-10  3.0649434833159E-10  4.3702682840952E-10  5.9199178401267E-10  7.7139093471008E-10  8.6719929072467E-10 
 1.8364118901653E-03  2.8664280194203E-03  6.1478631965512E-03  1.1872129193373E-02  2.0039289529858E-02  3.0649434833159E-02  4.3702682840952E-02  5.9199178401267E-02  7.7139093471008E-02  8.6719929072467E-02 
 3.0003168926182E-04  1.5001601605012E-03  5.1005573270295E-03  1.1101260010839E-02  1.9502331669415E-02  3.0303862395514E-02  4.3505968920484E-02  5.9108794614086E-02  7.7112509482977E-02  8.6714612127196E-02 
 1.5363802009034E-03  1.3662678589190E-03  1.0473058695217E-03  7.7086918253414E-04  5.3695786044277E-04  3.4557243764561E-04  1.9671392046748E-04  9.0383787180725E-05  2.6583988031418E-05  5.3169452711512E-06 
 0.0000000000000E+00  0.0000000000000E+00  0.0000000000000E+00  0.0000000000000E+00  0.0000000000000E+00  0.0000000000000E+00  0.0000000000000E+00  0.0000000000000E+00  0.0000000000000E+00  0.0000000000000E+00 
 0.0000000000000E+00  0.0000000000000E+00  0.0000000000000E+00  0.0000000000000E+00  0.0000000000000E+00  0.0000000000000E+00  0.0000000000000E+00  0.0000000000000E+00  0.0000000000000E+00  0.0000000000000E+00 
 0.0000000000000E+00  0.0000000000000E+00  0.0000000000000E+00  0.0000000000000E+00  0.0000000000000E+00  0.0000000000000E+00  0.0000000000000E+00  0.0000000000000E+00  0.0000000000000E+00  0.0000000000000E+00 
ZONE T = "ANOD, 2.0000E-08", I = 10, SOLUTIONTIME = 2.000000E-08
ZONETYPE = ORDERED
DATAPACKING = BLOCK
STRANDID = 1
 0.0000000000000E+00  8.7488888888889E-05  1.7497777777778E-04  2.6246666666667E-04  3.4995555555556E-04  4.3744444444444E-04  5.2493333333333E-04  6.1242222222222E-04  6.9991111111111E-04  7.8740000000000E-04 
 1.1589975177539E-09  3.4769947609262E-09  5.7950006422296E-09  8.1130215921606E-09  1.0431064041263E-08  1.2748408004694E-08  1.5065786328610E-08  1.7383568651551E-08  1.9701398196731E-08  2.0861247815316E-08 
 9.1999999999861E-01  9.1999999999861E-01  9.1999999999861E-01  9.1999999999861E-01  9.1999999999861E-01  9.1999999999861E-01  9.1999999999861E-01  9.1999999999861E-01  9.1999999999861E-01  9.1999999999942E-01 
 4.0000000000696E-02  4.0000000000696E-02  4.0000000000696E-02  4.0000000000696E-02  4.0000000000696E-02  4.0000000000696E-02  4.0000000000696E-02  4.0000000000696E-02  4.0000000000696E-02  4.0000000000288E-02 
 4.0000000000696E-02  4.0000000000696E-02  4.0000000000696E-02  4.0000000000696E-02  4.0000000000696E-02  4.0000000000696E-02  4.0000000000696E-02  4.0000000000696E-02  4.0000000000696E-02  4.0000000000288E-02 
 2.9167373666104E-02  2.9167357938918E-02  2.9167310757332E-02  2.9167232121227E-02  2.9167122030400E-02  2.9166980484558E-02  2.9166807483323E-02  2.9166603026228E-02  2.9166367112721E-02  2.9166099742159E-02 
 0.0000000000000E+00 -4.7371510660617E-09 -8.9170107925197E-09 -1.2539577102600E-08 -1.5604846373514E-08 -1.8112813436445E-08 -2.0063471576532E-08 -2.1456812532852E-08 -2.2292826498388E-08 -2.2571502120000E-08 
-2.9167373666104E-02 -2.9167362676069E-02 -2.9167319674343E-02 -2.9167244660804E-02 -2.9167137635246E-02 -2.9166998597372E-02 -2.9166827546795E-02 -2.9166624483041E-02 -2.9166389405547E-02 -2.9166122313661E-02 
-4.0906712752384E-02 -4.0906712752389E-02 -4.0906712752384E-02 -4.0906712752384E-02 -4.0906712752388E-02 -4.0906712752386E-02 -4.0906712752386E-02 -4.0906712752388E-02 -4.0906712752388E-02 -4.0906712752650E-02 
 1.1739339086280E-02  1.1739350076319E-02  1.1739393078042E-02  1.1739468091580E-02  1.1739575117141E-02  1.1739714155014E-02  1.1739885205591E-02  1.1740088269347E-02  1.1740323346841E-02  1.1740590438989E-02 
 1.6690487381535E+00  3.3381006555200E+00  3.3381130951168E+00  3.3381347951406E+00  3.3381657556604E+00  3.3382059767732E+00  3.3382554586090E+00  3.3383142013259E+00  3.3383822051105E+00  1.6692297351050E+00 
 8.6492352084130E-09  2.5947722094032E-08  4.3246273449470E-08  6.0544937252508E-08  7.7843761501560E-08  9.5142794177552E-08  1.1244208327507E-07  1.2974167678890E-07  1.4704176694028E-07  1.4704176694028E-07 
 0.0000000000000E+00  3.3380990658038E+00  6.6762059412144E+00  1.0014329886344E+01  1.3352480161857E+01  1.6690666028050E+01  2.0028896745587E+01  2.3367181575686E+01  2.6705529778938E+01  3.0043950616499E+01 
 3.0043950616515E+01  2.6705851550602E+01  2.3367744675283E+01  2.0029620730154E+01  1.6691470454754E+01  1.3353284588537E+01  1.0015053870846E+01  6.6767690408786E+00  3.3384208376603E+00  0.0000000000000E+00 
 3.3380974763419E-08  6.6762013111083E-08  6.6762261903031E-08  6.6762695903508E-08  6.6763315113897E-08  6.6764119536156E-08  6.6765109172872E-08  6.6766284027206E-08  6.6767644102898E-08  3.3384594702298E-08 
 9.1448444543314E+04  1.8289688908663E+05  1.8289688908663E+05  1.8289688908663E+05  1.8289688908663E+05  1.8289688908663E+05  1.8289688908663E+05  1.8289688908663E+05  1.8289688908663E+05  9.1448444543314E+04 
 3.6579377817309E+05  7.3158755634618E+05  7.3158755634618E+05  7.3158755634618E+05  7.3158755634618E+05  7.3158755634618E+05  7.3158755634618E+05  7.3158755634618E+05  7.3158755634618E+05  3.6579377817309E+05 
 4.5724222271641E+05  9.1448444543281E+05  9.1448444543281E+05  9.1448444543281E+05  9.1448444543281E+05  9.1448444543281E+05  9.1448444543281E+05  9.1448444543281E+05  9.1448444543281E+05  4.5724222271641E+05 
 3.5000000000000E-01  3.5000000000000E-01  3.5000000000000E-01  3.5000000000000E-01  3.5000000000000E-01  3.5000000000000E-01  3.5000000000000E-01  3.5000000000000E-01  3.5000000000000E-01  3.5000000000000E-01 
 8.5301666666666E+00  1.7060333333333E+01  1.7060333333333E+01  1.7060333333333E+01  1.7060333333333E+01  1.7060333333333E+01  1.7060333333333E+01  1.7060333333333E+01  1.7060333333333E+01  8.5301666666666E+00 
 1.9566425878590E-01  1.9566444513706E-01  1.9566517429027E-01  1.9566644624806E-01  1.9566826101447E-01  1.9567061859518E-01  1.9567351899781E-01  1.9567696223164E-01  1.9568094830761E-01  1.9568547724019E-01 
 4.3744444444444E-05  8.7488888888889E-05  8.7488888888889E-05  8.7488888888889E-05  8.7488888888889E-05  8.7488888888889E-05  8.7488888888889E-05  8.7488888888889E-05  8.7488888888889E-05  4.3744444444444E-05 
 8.6666666666659E+01  8.6666666666659E+01  8.6666666666659E+01  8.6666666666659E+01  8.6666666666659E+01  8.6666666666659E+01  8.6666666666659E+01  8.6666666666659E+01  8.6666666666659E+01  8.6666666666659E+01 
 2.1666666666675E+01  2.1666666666675E+01  2.1666666666675E+01  2.1666666666675E+01  2.1666666666675E+01  2.1666666666675E+01  2.1666666666675E+01  2.1666666666675E+01  2.1666666666675E+01  2.1666666666675E+01 
 3.6728237801384E-11  5.7328560387320E-11  1.2295726392774E-10  2.3744258386017E-10  4.0078579058806E-10  6.1298869665245E-10  8.7405365679826E-10  1.1839835679934E-09  1.5427818693834E-09  1.7343985814097E-09 
 1.8364118899732E-03  2.8664280193118E-03  6.1478631962224E-03  1.1872129192644E-02  2.0039289528948E-02  3.0649434832086E-02  4.3702682838874E-02  5.9199178398071E-02  7.7139093467332E-02  8.6719929068500E-02 
 6.0006337839387E-04  3.0003203209494E-03  1.0201114653772E-02  2.2202520020979E-02  3.9004663337942E-02  6.0607724789967E-02  8.7011937838898E-02  1.1821758922498E-01  1.5422501896228E-01  1.7342922425042E-01 
 3.0727604017446E-03  2.7325357177827E-03  2.0946117390011E-03  1.5417383650373E-03  1.0739157208642E-03  6.9114487527761E-04  3.9342784092736E-04  1.8076757435808E-04  5.3167976061922E-05  1.0633890542176E-05 
 0.0000000000000E+00  0.0000000000000E+00  0.0000000000000E+00  0.0000000000000E+00  0.0000000000000E+00  0.0000000000000E+00  0.0000000000000E+00  0.0000000000000E+00  0.0000000000000E+00  0.0000000000000E+00 
 0.0000000000000E+00  0.0000000000000E+00  0.0000000000000E+00  0.0000000000000E+00  0.0000000000000E+00  0.0000000000000E+00  0.0000000000000E+00  0.0000000000000E+00  0.0000000000000E+00  0.0000000000000E+00 
 0.0000000000000E+00  0.0000000000000E+00  0.0000000000000E+00  0.0000000000000E+00  0.0000000000000E+00  0.0000000000000E+00  0.0000000000000E+00  0.0000000000000E+00  0.0000000000000E+00  0.0000000000000E+00 
ZONE T = "ANOD, 3.0000E-08", I = 10, SOLUTIONTIME = 3.000000E-08
ZONETYPE = ORDERED
DATAPACKING = BLOCK
STRANDID = 1
 0.0000000000000E+00  8.7488888888889E-05  1.7497777777778E-04  2.6246666666667E-04  3.4995555555556E-04  4.3744444444444E-04  5.2493333333333E-04  6.1242222222222E-04  6.9991111111111E-04  7.8740000000000E-04 
 1.1589975177341E-09  3.4769947608652E-09  5.7950006421290E-09  8.1130215920204E-09  1.0431064041083E-08  1.2749860835385E-08  1.5068691990173E-08  1.7387563936257E-08  1.9706119896851E-08  2.0864516684515E-08 
 9.1999999999791E-01  9.1999999999791E-01  9.1999999999791E-01  9.1999999999791E-01  9.1999999999791E-01  9.1999999999791E-01  9.1999999999791E-01  9.1999999999791E-01  9.1999999999791E-01  9.1999999999914E-01 
 4.0000000001045E-02  4.0000000001045E-02  4.0000000001045E-02  4.0000000001045E-02  4.0000000001045E-02  4.0000000001045E-02  4.0000000001045E-02  4.0000000001045E-02  4.0000000001045E-02  4.0000000000432E-02 
 4.0000000001045E-02  4.0000000001045E-02  4.0000000001045E-02  4.0000000001045E-02  4.0000000001045E-02  4.0000000001045E-02  4.0000000001045E-02  4.0000000001045E-02  4.0000000001045E-02  4.0000000000432E-02 
 2.9167373665889E-02  2.9167357938704E-02  2.9167310757117E-02  2.9167232121013E-02  2.9167122030186E-02  2.9166980484344E-02  2.9166807483109E-02  2.9166603026014E-02  2.9166367112506E-02  2.9166099741944E-02 
 0.0000000000000E+00 -4.7371510659821E-09 -8.9170107923703E-09 -1.2539577102391E-08 -1.5604846373254E-08 -1.8112813436143E-08 -2.0063471576200E-08 -2.1456812532497E-08 -2.2292826498021E-08 -2.2571502119631E-08 
-2.9167373665889E-02 -2.9167362675855E-02 -2.9167319674128E-02 -2.9167244660590E-02 -2.9167137635032E-02 -2.9166998597157E-02 -2.9166827546580E-02 -2.9166624482827E-02 -2.9166389405333E-02 -2.9166122313446E-02 
-4.0906712751885E-02 -4.0906712751881E-02 -4.0906712751885E-02 -4.0906712751885E-02 -4.0906712751882E-02 -4.0906712751888E-02 -4.0906712751888E-02 -4.0906712751882E-02 -4.0906712751882E-02 -4.0906712752276E-02 
 1.1739339085996E-02  1.1739350076026E-02  1.1739393077757E-02  1.1739468091296E-02  1.1739575116851E-02  1.1739714154731E-02  1.1739885205307E-02  1.1740088269056E-02  1.1740323346550E-02  1.1740590438829E-02 
 1.6690487381250E+00  3.3381006554607E+00  3.3381130950597E+00  3.3381347950836E+00  3.3381657556019E+00  3.3382059767165E+00  3.3382554585523E+00  3.3383142012674E+00  3.3383822050520E+00  1.6692297350905E+00 
 8.6492352081413E-09  2.5947722096513E-08  4.3246273447939E-08  6.0544937245048E-08  7.7843761501898E-08  9.5142794174565E-08  1.1244208327189E-07  1.2974167678239E-07  1.4704183905619E-07  1.4704183905619E-07 
 0.0000000000000E+00  3.3380990660169E+00  6.6762059410884E+00  1.0014329886063E+01  1.3352480161605E+01  1.6690666027643E+01  2.0028896745209E+01  2.3367181575337E+01  2.6705529778398E+01  3.0043950615923E+01 
 3.0043950616010E+01  2.6705851550154E+01  2.3367744674894E+01  2.0029620729822E+01  1.6691470454480E+01  1.3353284588320E+01  1.0015053870686E+01  6.6767690407762E+00  3.3384208376165E+00  0.0000000000000E+00 
 5.0071462144669E-08  1.0014301966569E-07  1.0014339285363E-07  1.0014404385434E-07  1.0014497266992E-07  1.0014617930332E-07  1.0014766375840E-07  1.0014942603988E-07  1.0015146615342E-07  5.0076892053203E-08 
 9.1448444543331E+04  1.8289688908666E+05  1.8289688908666E+05  1.8289688908666E+05  1.8289688908666E+05  1.8289688908666E+05  1.8289688908666E+05  1.8289688908666E+05  1.8289688908666E+05  9.1448444543331E+04 
 3.6579377817307E+05  7.3158755634615E+05  7.3158755634615E+05  7.3158755634615E+05  7.3158755634615E+05  7.3158755634615E+05  7.3158755634615E+05  7.3158755634615E+05  7.3158755634615E+05  3.6579377817307E+05 
 4.5724222271641E+05  9.1448444543281E+05  9.1448444543281E+05  9.1448444543281E+05  9.1448444543281E+05  9.1448444543281E+05  9.1448444543281E+05  9.1448444543281E+05  9.1448444543281E+05  4.5724222271641E+05 
 3.5000000000000E-01  3.5000000000000E-01  3.5000000000000E-01  3.5000000000000E-01  3.5000000000000E-01  3.5000000000000E-01  3.5000000000000E-01  3.5000000000000E-01  3.5000000000000E-01  3.5000000000000E-01 
 8.5301666666666E+00  1.7060333333333E+01  1.7060333333333E+01  1.7060333333333E+01  1.7060333333333E+01  1.7060333333333E+01  1.7060333333333E+01  1.7060333333333E+01  1.7060333333333E+01  8.5301666666666E+00 
 1.9566425878256E-01  1.9566444513359E-01  1.9566517428693E-01  1.9566644624471E-01  1.9566826101103E-01  1.9567061859185E-01  1.9567351899449E-01  1.9567696222821E-01  1.9568094830418E-01  1.9568547723849E-01 
 4.3744444444444E-05  8.7488888888889E-05  8.7488888888889E-05  8.7488888888889E-05  8.7488888888889E-05  8.7488888888889E-05  8.7488888888889E-05  8.7488888888889E-05  8.7488888888889E-05  4.3744444444444E-05 
 8.6666666666655E+01  8.6666666666655E+01  8.6666666666655E+01  8.6666666666655E+01  8.6666666666655E+01  8.6666666666655E+01  8.6666666666655E+01  8.6666666666655E+01  8.6666666666655E+01  8.6666666666655E+01 
 2.1666666666679E+01  2.1666666666679E+01  2.1666666666679E+01  2.1666666666679E+01  2.1666666666679E+01  2.1666666666679E+01  2.1666666666679E+01  2.1666666666679E+01  2.1666666666679E+01  2.1666666666679E+01 
 5.5092356701949E-11  8.5992840580773E-11  1.8443589588675E-10  3.5616387577938E-10  6.0117868586846E-10  9.1948304495531E-10  1.3110804851676E-09  1.7759753519507E-09  2.3141728040200E-09  2.6015978720550E-09 
 1.8364118900565E-03  2.8664280193452E-03  6.1478631959010E-03  1.1872129191921E-02  2.0039289528041E-02  3.0649434830286E-02  4.3702682836930E-02  5.9199178395737E-02  7.7139093463656E-02  8.6719929064532E-02 
 9.0009506766091E-04  4.5004804814767E-03  1.5301671980229E-02  3.3303780030423E-02  5.8506995005579E-02  9.0911587182633E-02  1.3051790675537E-01  1.7732638383354E-01  2.3133752843790E-01  2.6014383636969E-01 
 4.6091406025340E-03  4.0988035766006E-03  3.1419176084456E-03  2.3126075475150E-03  1.6108735812679E-03  1.0367173128984E-03  5.9014176138095E-04  2.7115136153264E-04  7.9751964091681E-05  1.5950835813108E-05 
 0.0000000000000E+00  0.0000000000000E+00  0.0000000000000E+00  0.0000000000000E+00  0.0000000000000E+00  0.0000000000000E+00  0.0000000000000E+00  0.0000000000000E+00  0.0000000000000E+00  0.0000000000000E+00 
 0.0000000000000E+00  0.0000000000000E+00  0.0000000000000E+00  0.0000000000000E+00  0.0000000000000E+00  0.0000000000000E+00  0.0000000000000E+00  0.0000000000000E+00  0.0000000000000E+00  0.0000000000000E+00 
 0.0000000000000E+00  0.0000000000000E+00  0.0000000000000E+00  0.0000000000000E+00  0.0000000000000E+00  0.0000000000000E+00  0.0000000000000E+00  0.0000000000000E+00  0.0000000000000E+00  0.0000000000000E+00 
ZONE T = "ANOD, 4.0000E-08", I = 10, SOLUTIONTIME = 4.000000E-08
ZONETYPE = ORDERED
DATAPACKING = BLOCK
STRANDID = 1
 0.0000000000000E+00  8.7488888888889E-05  1.7497777777778E-04  2.6246666666667E-04  3.4995555555556E-04  4.3744444444444E-04  5.2493333333333E-04  6.1242222222222E-04  6.9991111111111E-04  7.8740000000000E-04 
 1.1588159138498E-09  3.4764499492139E-09  5.7940926227092E-09  8.1128399880153E-09  1.0430519229310E-08  1.2747863192661E-08  1.5064878308769E-08  1.7383023839357E-08  1.9701579799912E-08  2.0860703003022E-08 
 9.1999999999721E-01  9.1999999999721E-01  9.1999999999721E-01  9.1999999999721E-01  9.1999999999721E-01  9.1999999999721E-01  9.1999999999721E-01  9.1999999999721E-01  9.1999999999721E-01  9.1999999999885E-01 
 4.0000000001393E-02  4.0000000001393E-02  4.0000000001393E-02  4.0000000001393E-02  4.0000000001393E-02  4.0000000001393E-02  4.0000000001393E-02  4.0000000001393E-02  4.0000000001393E-02  4.0000000000576E-02 
 4.0000000001393E-02  4.0000000001393E-02  4.0000000001393E-02  4.0000000001393E-02  4.0000000001393E-02  4.0000000001393E-02  4.0000000001393E-02  4.0000000001393E-02  4.0000000001393E-02  4.0000000000576E-02 
 2.9167373665674E-02  2.9167357938489E-02  2.9167310756902E-02  2.9167232120798E-02  2.9167122029970E-02  2.9166980484129E-02  2.9166807482894E-02  2.9166603025799E-02  2.9166367112291E-02  2.9166099741729E-02 
 0.0000000000000E+00 -4.7371510659025E-09 -8.9170107922206E-09 -1.2539577102181E-08 -1.5604846372993E-08 -1.8112813435842E-08 -2.0063471575867E-08 -2.1456812532143E-08 -2.2292826497655E-08 -2.2571502119263E-08 
-2.9167373665674E-02 -2.9167362675640E-02 -2.9167319673913E-02 -2.9167244660375E-02 -2.9167137634817E-02 -2.9166998596942E-02 -2.9166827546365E-02 -2.9166624482611E-02 -2.9166389405117E-02 -2.9166122313231E-02 
-4.0906712751379E-02 -4.0906712751383E-02 -4.0906712751379E-02 -4.0906712751379E-02 -4.0906712751383E-02 -4.0906712751380E-02 -4.0906712751380E-02 -4.0906712751383E-02 -4.0906712751383E-02 -4.0906712751908E-02 
 1.1739339085704E-02  1.1739350075743E-02  1.1739393077466E-02  1.1739468091004E-02  1.1739575116567E-02  1.1739714154438E-02  1.1739885205015E-02  1.1740088268772E-02  1.1740323346266E-02  1.1740590438677E-02 
 1.6690487380956E+00  3.3381006554042E+00  3.3381130950009E+00  3.3381347950248E+00  3.3381657555451E+00  3.3382059766575E+00  3.3382554584932E+00  3.3383142012104E+00  3.3383822049951E+00  1.6692297350767E+00 