TITLE = "Solution on Domain BulkDomain1D_2"
VARIABLES = "x [m]"  
"Vel_axial" 	"MF_sp(ECDMC)" 	"MF_sp(Li+)" 	"MF_sp(PF6-)" 	"Volt(Electroly)" 	"Volt(CathodeVo)" 	
"Potential Drop Electrode-Electrolyte [V]" 	"Surf_0 Equilibrium Potential Drop Electrode-Electrolyte [V]" 	"Overpotential_0 [V]" 	"Current Source [A/m^2]" 	"Li+ flux [kmol/m^2/s]" 	"Electrolyte Current [A/m^2]" 	"Electrode Current [A/m^2]" 	
"CV Capacity discharged [A-s/m^2]" 	"Depth of discharge in CV [A-s/m^2]" 	"CV Capacity remaining [A-s/m^2]" 	"Initial CV capacity [A-s/m^2]" 	"Porosity []" 	"Surface Area [m2/m2] (area per area)" 	"Specific current (per particle area) [A/m^2]" 	"Control volume thickness [m]" 	
"MoleDens LiCoO2 [kmol/m^3]" 	"MoleDens CoO2 [kmol/m^3]" 	"qHeat_accum [J/m3]" 	"qHeat_step [W/m3]" 	"Joule_Lyte [W/m3]" 	"Joule_Solid [W/m3]" 	"electrodHeat [W/m3]" 	"OverpotHeat [W/m3]" 	"deltaSHeat [W/m3]" 	

ZONE T = "CATH, 0.0000E+00", I = 10, SOLUTIONTIME = 0.000000E+00
ZONETYPE = ORDERED
DATAPACKING = BLOCK
STRANDID = 3
 1.2700000000000E-03  1.3377333333333E-03  1.4054666666667E-03  1.4732000000000E-03  1.5409333333333E-03  1.6086666666667E-03  1.6764000000000E-03  1.7441333333333E-03  1.8118666666667E-03  1.8796000000000E-03 
 0.0000000000000E+00  0.0000000000000E+00  0.0000000000000E+00  0.0000000000000E+00  0.0000000000000E+00  0.0000000000000E+00  0.0000000000000E+00  0.0000000000000E+00  0.0000000000000E+00  0.0000000000000E+00 
 9.2000000000000E-01  9.2000000000000E-01  9.2000000000000E-01  9.2000000000000E-01  9.2000000000000E-01  9.2000000000000E-01  9.2000000000000E-01  9.2000000000000E-01  9.2000000000000E-01  9.2000000000000E-01 
 4.0000000000000E-02  4.0000000000000E-02  4.0000000000000E-02  4.0000000000000E-02  4.0000000000000E-02  4.0000000000000E-02  4.0000000000000E-02  4.0000000000000E-02  4.0000000000000E-02  4.0000000000000E-02 
 4.0000000000000E-02  4.0000000000000E-02  4.0000000000000E-02  4.0000000000000E-02  4.0000000000000E-02  4.0000000000000E-02  4.0000000000000E-02  4.0000000000000E-02  4.0000000000000E-02  4.0000000000000E-02 
-7.0000000000000E-02 -7.0000000000000E-02 -7.0000000000000E-02 -7.0000000000000E-02 -7.0000000000000E-02 -7.0000000000000E-02 -7.0000000000000E-02 -7.0000000000000E-02 -7.0000000000000E-02 -7.0000000000000E-02 
 3.8000000000000E+00  3.8000000000000E+00  3.8000000000000E+00  3.8000000000000E+00  3.8000000000000E+00  3.8000000000000E+00  3.8000000000000E+00  3.8000000000000E+00  3.8000000000000E+00  3.8000000000000E+00 
 3.8700000000000E+00  3.8700000000000E+00  3.8700000000000E+00  3.8700000000000E+00  3.8700000000000E+00  3.8700000000000E+00  3.8700000000000E+00  3.8700000000000E+00  3.8700000000000E+00  3.8700000000000E+00 
 3.9714142713289E+00  3.9714142713289E+00  3.9714142713289E+00  3.9714142713289E+00  3.9714142713289E+00  3.9714142713289E+00  3.9714142713289E+00  3.9714142713289E+00  3.9714142713289E+00  3.9714142713289E+00 
-1.0141427132889E-01 -1.0141427132889E-01 -1.0141427132889E-01 -1.0141427132889E-01 -1.0141427132889E-01 -1.0141427132889E-01 -1.0141427132889E-01 -1.0141427132889E-01 -1.0141427132889E-01 -1.0141427132889E-01 
-2.3826357195711E-01 -4.7652714391422E-01 -4.7652714391423E-01 -4.7652714391422E-01 -4.7652714391423E-01 -4.7652714391423E-01 -4.7652714391422E-01 -4.7652714391423E-01 -4.7652714391422E-01 -2.3826357195711E-01 
-0.0000000000000E+00 -0.0000000000000E+00 -0.0000000000000E+00 -0.0000000000000E+00 -0.0000000000000E+00 -0.0000000000000E+00 -0.0000000000000E+00 -0.0000000000000E+00 -0.0000000000000E+00 -0.0000000000000E+00 
 2.3826357195711E-01  0.0000000000000E+00  0.0000000000000E+00  0.0000000000000E+00  0.0000000000000E+00  0.0000000000000E+00  0.0000000000000E+00  0.0000000000000E+00  0.0000000000000E+00  0.0000000000000E+00 
 0.0000000000000E+00 -0.0000000000000E+00 -0.0000000000000E+00 -0.0000000000000E+00 -0.0000000000000E+00 -0.0000000000000E+00 -0.0000000000000E+00 -0.0000000000000E+00 -0.0000000000000E+00  2.3826357195711E-01 
-0.0000000000000E+00 -0.0000000000000E+00 -0.0000000000000E+00 -0.0000000000000E+00 -0.0000000000000E+00 -0.0000000000000E+00 -0.0000000000000E+00 -0.0000000000000E+00 -0.0000000000000E+00 -0.0000000000000E+00 
 7.2440786946225E+03  1.4488157389245E+04  1.4488157389245E+04  1.4488157389245E+04  1.4488157389245E+04  1.4488157389245E+04  1.4488157389245E+04  1.4488157389245E+04  1.4488157389245E+04  7.2440786946225E+03 
 4.9259735123433E+04  9.8519470246865E+04  9.8519470246866E+04  9.8519470246865E+04  9.8519470246866E+04  9.8519470246866E+04  9.8519470246865E+04  9.8519470246866E+04  9.8519470246865E+04  4.9259735123433E+04 
 5.6503813818055E+04  1.1300762763611E+05  1.1300762763611E+05  1.1300762763611E+05  1.1300762763611E+05  1.1300762763611E+05  1.1300762763611E+05  1.1300762763611E+05  1.1300762763611E+05  5.6503813818055E+04 
 3.5000000000000E-01  3.5000000000000E-01  3.5000000000000E-01  3.5000000000000E-01  3.5000000000000E-01  3.5000000000000E-01  3.5000000000000E-01  3.5000000000000E-01  3.5000000000000E-01  3.5000000000000E-01 
 6.6040000000000E+00  1.3208000000000E+01  1.3208000000000E+01  1.3208000000000E+01  1.3208000000000E+01  1.3208000000000E+01  1.3208000000000E+01  1.3208000000000E+01  1.3208000000000E+01  6.6040000000000E+00 
-3.6078675341780E-02 -3.6078675341780E-02 -3.6078675341780E-02 -3.6078675341780E-02 -3.6078675341780E-02 -3.6078675341780E-02 -3.6078675341780E-02 -3.6078675341780E-02 -3.6078675341780E-02 -3.6078675341780E-02 
 3.3866666666667E-05  6.7733333333333E-05  6.7733333333334E-05  6.7733333333333E-05  6.7733333333334E-05  6.7733333333334E-05  6.7733333333333E-05  6.7733333333334E-05  6.7733333333333E-05  3.3866666666667E-05 
 2.6603001364256E+01  2.6603001364256E+01  2.6603001364256E+01  2.6603001364256E+01  2.6603001364256E+01  2.6603001364256E+01  2.6603001364256E+01  2.6603001364256E+01  2.6603001364256E+01  2.6603001364256E+01 
 1.7735334242838E+01  1.7735334242838E+01  1.7735334242838E+01  1.7735334242838E+01  1.7735334242838E+01  1.7735334242838E+01  1.7735334242838E+01  1.7735334242838E+01  1.7735334242838E+01  1.7735334242838E+01 
 0.0000000000000E+00  0.0000000000000E+00  0.0000000000000E+00  0.0000000000000E+00  0.0000000000000E+00  0.0000000000000E+00  0.0000000000000E+00  0.0000000000000E+00  0.0000000000000E+00  0.0000000000000E+00 
 0.0000000000000E+00  0.0000000000000E+00  0.0000000000000E+00  0.0000000000000E+00  0.0000000000000E+00  0.0000000000000E+00  0.0000000000000E+00  0.0000000000000E+00  0.0000000000000E+00  0.0000000000000E+00 
 0.0000000000000E+00  0.0000000000000E+00  0.0000000000000E+00  0.0000000000000E+00  0.0000000000000E+00  0.0000000000000E+00  0.0000000000000E+00  0.0000000000000E+00  0.0000000000000E+00  0.0000000000000E+00 
 0.0000000000000E+00  0.0000000000000E+00  0.0000000000000E+00  0.0000000000000E+00  0.0000000000000E+00  0.0000000000000E+00  0.0000000000000E+00  0.0000000000000E+00  0.0000000000000E+00  0.0000000000000E+00 
 0.0000000000000E+00  0.0000000000000E+00  0.0000000000000E+00  0.0000000000000E+00  0.0000000000000E+00  0.0000000000000E+00  0.0000000000000E+00  0.0000000000000E+00  0.0000000000000E+00  0.0000000000000E+00 
 0.0000000000000E+00  0.0000000000000E+00  0.0000000000000E+00  0.0000000000000E+00  0.0000000000000E+00  0.0000000000000E+00  0.0000000000000E+00  0.0000000000000E+00  0.0000000000000E+00  0.0000000000000E+00 
 0.0000000000000E+00  0.0000000000000E+00  0.0000000000000E+00  0.0000000000000E+00  0.0000000000000E+00  0.0000000000000E+00  0.0000000000000E+00  0.0000000000000E+00  0.0000000000000E+00  0.0000000000000E+00 
ZONE T = "CATH, 1.0000E-08", I = 10, SOLUTIONTIME = 1.000000E-08
ZONETYPE = ORDERED
DATAPACKING = BLOCK
STRANDID = 3
 1.2700000000000E-03  1.3377333333333E-03  1.4054666666667E-03  1.4732000000000E-03  1.5409333333333E-03  1.6086666666667E-03  1.6764000000000E-03  1.7441333333333E-03  1.8118666666667E-03  1.8796000000000E-03 
 1.9705052572394E-08  1.7389149037830E-08  1.5072962185016E-08  1.2756296440181E-08  1.0438956068206E-08  8.1207451065945E-09  5.8011040909681E-09  3.4801996123252E-09  1.1585610420824E-09 -3.0872656584275E-12 
 9.2000000000032E-01  9.2000000000090E-01  9.2000000000090E-01  9.2000000000090E-01  9.2000000000090E-01  9.2000000000090E-01  9.2000000000090E-01  9.2000000000090E-01  9.2000000000090E-01  9.2000000000090E-01 
 3.9999999999841E-02  3.9999999999551E-02  3.9999999999551E-02  3.9999999999551E-02  3.9999999999550E-02  3.9999999999550E-02  3.9999999999550E-02  3.9999999999550E-02  3.9999999999550E-02  3.9999999999549E-02 
 3.9999999999841E-02  3.9999999999551E-02  3.9999999999551E-02  3.9999999999551E-02  3.9999999999550E-02  3.9999999999550E-02  3.9999999999550E-02  3.9999999999550E-02  3.9999999999550E-02  3.9999999999549E-02 
 2.9165653268380E-02  2.9165446258217E-02  2.9165263574052E-02  2.9165105218842E-02  2.9164971197624E-02  2.9164861517479E-02  2.9164776187555E-02  2.9164715219068E-02  2.9164678625294E-02  2.9164666421563E-02 
 3.8001746420670E+00  3.8001724871785E+00  3.8001660223495E+00  3.8001552470526E+00  3.8001401603965E+00  3.8001207611255E+00  3.8000970476191E+00  3.8000690178917E+00  3.8000366695915E+00  3.8000000000000E+00 
 3.7710089887986E+00  3.7710070409203E+00  3.7710007587754E+00  3.7709901418338E+00  3.7709751891989E+00  3.7709558996080E+00  3.7709322714316E+00  3.7709043026726E+00  3.7708719909662E+00  3.7708353335784E+00 
 3.9714142713287E+00  3.9714142713285E+00  3.9714142713285E+00  3.9714142713285E+00  3.9714142713285E+00  3.9714142713285E+00  3.9714142713285E+00  3.9714142713285E+00  3.9714142713285E+00  3.9714142713285E+00 
-2.0040528253010E-01 -2.0040723040825E-01 -2.0041351255311E-01 -2.0042412949477E-01 -2.0043908212965E-01 -2.0045837172051E-01 -2.0048199989695E-01 -2.0050996865590E-01 -2.0054228036235E-01 -2.0057893775008E-01 
-1.6672260831820E+00 -3.3345786728351E+00 -3.3349867042572E+00 -3.3356763982594E+00 -3.3366479875363E+00 -3.3379018000115E+00 -3.3394382590752E+00 -3.3412578838882E+00 -3.3433612897538E+00 -1.6728745942805E+00 
 1.4705141550942E-07  1.2977112079236E-07  1.1248885800864E-07  9.5203016333030E-08  7.7912146239165E-08  6.0614776741467E-08  4.3309439790306E-08  2.5994673304682E-08  8.6690155614712E-09  8.6690155614712E-09 
 3.0043811105054E+01  2.6709302760598E+01  2.3374535558729E+01  2.0039220365999E+01  1.6703074693774E+01  1.3365816756146E+01  1.0027162978534E+01  6.6868306466880E+00  3.3445376562987E+00  0.0000000000000E+00 
 0.0000000000000E+00  3.3344992518756E+00  6.6692657525713E+00  1.0004581074913E+01  1.3340726977093E+01  1.6677985496811E+01  2.0016639047824E+01  2.3356970514090E+01  2.6699263347346E+01  3.0043810170165E+01 
 1.6672260831820E-08  3.3345786728351E-08  3.3349867042572E-08  3.3356763982594E-08  3.3366479875363E-08  3.3379018000115E-08  3.3394382590752E-08  3.3412578838882E-08  3.3433612897538E-08  1.6728745942805E-08 
 7.2440786946392E+03  1.4488157389278E+04  1.4488157389278E+04  1.4488157389278E+04  1.4488157389278E+04  1.4488157389278E+04  1.4488157389278E+04  1.4488157389278E+04  1.4488157389278E+04  7.2440786946392E+03 
 4.9259735123416E+04  9.8519470246832E+04  9.8519470246832E+04  9.8519470246832E+04  9.8519470246832E+04  9.8519470246832E+04  9.8519470246832E+04  9.8519470246832E+04  9.8519470246832E+04  4.9259735123416E+04 
 5.6503813818055E+04  1.1300762763611E+05  1.1300762763611E+05  1.1300762763611E+05  1.1300762763611E+05  1.1300762763611E+05  1.1300762763611E+05  1.1300762763611E+05  1.1300762763611E+05  5.6503813818055E+04 
 3.5000000000000E-01  3.5000000000000E-01  3.5000000000000E-01  3.5000000000000E-01  3.5000000000000E-01  3.5000000000000E-01  3.5000000000000E-01  3.5000000000000E-01  3.5000000000000E-01  3.5000000000000E-01 
 6.6040000000000E+00  1.3208000000000E+01  1.3208000000000E+01  1.3208000000000E+01  1.3208000000000E+01  1.3208000000000E+01  1.3208000000000E+01  1.3208000000000E+01  1.3208000000000E+01  6.6040000000000E+00 
-2.5245700835585E-01 -2.5246658637456E-01 -2.5249747912305E-01 -2.5254969702146E-01 -2.5262325768748E-01 -2.5271818594878E-01 -2.5283451386094E-01 -2.5297228073048E-01 -2.5313153314308E-01 -2.5331232499705E-01 
 3.3866666666667E-05  6.7733333333333E-05  6.7733333333334E-05  6.7733333333333E-05  6.7733333333334E-05  6.7733333333334E-05  6.7733333333333E-05  6.7733333333334E-05  6.7733333333333E-05  3.3866666666667E-05 
 2.6603001364262E+01  2.6603001364262E+01  2.6603001364262E+01  2.6603001364262E+01  2.6603001364262E+01  2.6603001364262E+01  2.6603001364262E+01  2.6603001364262E+01  2.6603001364262E+01  2.6603001364262E+01 
 1.7735334242833E+01  1.7735334242833E+01  1.7735334242833E+01  1.7735334242833E+01  1.7735334242833E+01  1.7735334242833E+01  1.7735334242833E+01  1.7735334242833E+01  1.7735334242833E+01  1.7735334242833E+01 
 1.3976737801927E-09  3.4235246126585E-09  9.6096575737015E-09  2.0066058102301E-08  3.4796258298651E-08  5.3805235864671E-08  7.7099417567551E-08  1.0468668394198E-07  1.3657637492220E-07  1.5359808546119E-07 
 1.3976737801927E-01  3.4235246126585E-01  9.6096575737015E-01  2.0066058102301E+00  3.4796258298651E+00  5.3805235864671E+00  7.7099417567551E+00  1.0468668394198E+01  1.3657637492220E+01  1.5359808546119E+01 
 8.6726006318333E-02  7.7133529333367E-02  5.9145215394333E-02  4.3550053870682E-02  3.0348208517906E-02  1.9540659248092E-02  1.1129192224511E-02  5.1164116146767E-03  1.5057375519070E-03  3.0140556201279E-04 
 5.3041371700940E-02  2.6521893193249E-01  9.0182054197582E-01  1.9630557563594E+00  3.4492776213472E+00  5.3609829272190E+00  7.6988125645306E+00  1.0463551982583E+01  1.3656131754668E+01  1.5359507140557E+01 
 0.0000000000000E+00  0.0000000000000E+00  0.0000000000000E+00  0.0000000000000E+00  0.0000000000000E+00  0.0000000000000E+00  0.0000000000000E+00  0.0000000000000E+00  0.0000000000000E+00  0.0000000000000E+00 
 0.0000000000000E+00  0.0000000000000E+00  0.0000000000000E+00  0.0000000000000E+00  0.0000000000000E+00  0.0000000000000E+00  0.0000000000000E+00  0.0000000000000E+00  0.0000000000000E+00  0.0000000000000E+00 
 0.0000000000000E+00  0.0000000000000E+00  0.0000000000000E+00  0.0000000000000E+00  0.0000000000000E+00  0.0000000000000E+00  0.0000000000000E+00  0.0000000000000E+00  0.0000000000000E+00  0.0000000000000E+00 
ZONE T = "CATH, 2.0000E-08", I = 10, SOLUTIONTIME = 2.000000E-08
ZONETYPE = ORDERED
DATAPACKING = BLOCK
STRANDID = 3
 1.2700000000000E-03  1.3377333333333E-03  1.4054666666667E-03  1.4732000000000E-03  1.5409333333333E-03  1.6086666666667E-03  1.6764000000000E-03  1.7441333333333E-03  1.8118666666667E-03  1.8796000000000E-03 
 1.9704242345668E-08  1.7389053935918E-08  1.5072855769843E-08  1.2756178673741E-08  1.0439190104595E-08  8.1213308762114E-09  5.8024047161146E-09  3.4814885758540E-09  1.1594750183363E-09 -2.3608502306684E-12 
 9.2000000000063E-01  9.2000000000180E-01  9.2000000000180E-01  9.2000000000180E-01  9.2000000000180E-01  9.2000000000180E-01  9.2000000000180E-01  9.2000000000180E-01  9.2000000000180E-01  9.2000000000180E-01 
 3.9999999999683E-02  3.9999999999101E-02  3.9999999999101E-02  3.9999999999101E-02  3.9999999999101E-02  3.9999999999100E-02  3.9999999999100E-02  3.9999999999100E-02  3.9999999999099E-02  3.9999999999098E-02 
 3.9999999999683E-02  3.9999999999101E-02  3.9999999999101E-02  3.9999999999101E-02  3.9999999999101E-02  3.9999999999100E-02  3.9999999999100E-02  3.9999999999100E-02  3.9999999999099E-02  3.9999999999098E-02 
 2.9165655455743E-02  2.9165448444563E-02  2.9165265759484E-02  2.9165107403483E-02  2.9164973381593E-02  2.9164863700899E-02  2.9164778370551E-02  2.9164717401755E-02  2.9164680807787E-02  2.9164668603991E-02 
 3.8001746429253E+00  3.8001724880262E+00  3.8001660231657E+00  3.8001552478163E+00  3.8001401610865E+00  3.8001207617205E+00  3.8000970480979E+00  3.8000690182326E+00  3.8000366697729E+00  3.8000000000000E+00 
 3.7710089874695E+00  3.7710070395817E+00  3.7710007574062E+00  3.7709901404128E+00  3.7709751877049E+00  3.7709558980196E+00  3.7709322697273E+00  3.7709043008309E+00  3.7708719889651E+00  3.7708353313960E+00 
 3.9714142713285E+00  3.9714142713282E+00  3.9714142713282E+00  3.9714142713282E+00  3.9714142713282E+00  3.9714142713282E+00  3.9714142713282E+00  3.9714142713282E+00  3.9714142713282E+00  3.9714142713282E+00 
-2.0040528385901E-01 -2.0040723174647E-01 -2.0041351392193E-01 -2.0042413091537E-01 -2.0043908362328E-01 -2.0045837330852E-01 -2.0048200160082E-01 -2.0050997049727E-01 -2.0054228236304E-01 -2.0057893993214E-01 
-1.6672261263312E+00 -3.3345787597284E+00 -3.3349867931489E+00 -3.3356764905338E+00 -3.3366480845834E+00 -3.3379019032310E+00 -3.3394383698781E+00 -3.3412580036992E+00 -3.3433614200144E+00 -1.6728746653666E+00 
 1.4705227081799E-07  1.2977176979151E-07  1.1248941937490E-07  9.5203494873624E-08  7.7912535434472E-08  6.0615078541394E-08  4.3309659471441E-08  2.5994810818193E-08  8.6690619691127E-09  8.6690619691127E-09 
 3.0043950616323E+01  2.6709435110357E+01  2.3374652333997E+01  2.0039320691987E+01  1.6703158404502E+01  1.3365883410509E+01  1.0027213273978E+01  6.6868650873342E+00  3.3445553753922E+00  0.0000000000000E+00 
 0.0000000000000E+00  3.3345155061582E+00  6.6692982826107E+00  1.0004629924517E+01  1.3340792212058E+01  1.6678067205954E+01  2.0016737342469E+01  2.3357085529267E+01  2.6699395241104E+01  3.0043950616476E+01 
 3.3344522095132E-08  6.6691574325635E-08  6.6699734974061E-08  6.6713528887932E-08  6.6732960721197E-08  6.6758037032425E-08  6.6788766289534E-08  6.6825158875874E-08  6.6867227097682E-08  3.3457492596472E-08 
 7.2440786946558E+03  1.4488157389312E+04  1.4488157389312E+04  1.4488157389312E+04  1.4488157389312E+04  1.4488157389312E+04  1.4488157389312E+04  1.4488157389312E+04  1.4488157389312E+04  7.2440786946559E+03 
 4.9259735123400E+04  9.8519470246798E+04  9.8519470246799E+04  9.8519470246798E+04  9.8519470246799E+04  9.8519470246799E+04  9.8519470246798E+04  9.8519470246799E+04  9.8519470246798E+04  4.9259735123399E+04 
 5.6503813818055E+04  1.1300762763611E+05  1.1300762763611E+05  1.1300762763611E+05  1.1300762763611E+05  1.1300762763611E+05  1.1300762763611E+05  1.1300762763611E+05  1.1300762763611E+05  5.6503813818055E+04 
 3.5000000000000E-01  3.5000000000000E-01  3.5000000000000E-01  3.5000000000000E-01  3.5000000000000E-01  3.5000000000000E-01  3.5000000000000E-01  3.5000000000000E-01  3.5000000000000E-01  3.5000000000000E-01 
 6.6040000000000E+00  1.3208000000000E+01  1.3208000000000E+01  1.3208000000000E+01  1.3208000000000E+01  1.3208000000000E+01  1.3208000000000E+01  1.3208000000000E+01  1.3208000000000E+01  6.6040000000000E+00 
-2.5245701488964E-01 -2.5246659295339E-01 -2.5249748585319E-01 -2.5254970400771E-01 -2.5262326503509E-01 -2.5271819376370E-01 -2.5283452225001E-01 -2.5297228980157E-01 -2.5313154300533E-01 -2.5331233576115E-01 
 3.3866666666667E-05  6.7733333333333E-05  6.7733333333334E-05  6.7733333333333E-05  6.7733333333334E-05  6.7733333333334E-05  6.7733333333333E-05  6.7733333333334E-05  6.7733333333333E-05  3.3866666666667E-05 
 2.6603001364267E+01  2.6603001364267E+01  2.6603001364267E+01  2.6603001364267E+01  2.6603001364267E+01  2.6603001364267E+01  2.6603001364267E+01  2.6603001364267E+01  2.6603001364267E+01  2.6603001364267E+01 
 1.7735334242827E+01  1.7735334242827E+01  1.7735334242827E+01  1.7735334242827E+01  1.7735334242827E+01  1.7735334242827E+01  1.7735334242827E+01  1.7735334242827E+01  1.7735334242827E+01  1.7735334242827E+01 
 2.7953612551315E-09  6.8470827235253E-09  1.9219409040407E-08  4.0132312284540E-08  6.9592857008689E-08  1.0761099902734E-07  1.5419959245385E-07  2.0937439901934E-07  2.7315409936926E-07  3.0719769089003E-07 
 1.3976874749388E-01  3.4235581108668E-01  9.6097514667056E-01  2.0066254182239E+00  3.4796598710038E+00  5.3805763162671E+00  7.7100174886297E+00  1.0468771507736E+01  1.3657772444705E+01  1.5359960542885E+01 
 8.6726858820645E-02  7.7134293348448E-02  5.9145806400804E-02  4.3550489809158E-02  3.0348512804786E-02  1.9540854184545E-02  1.1129303709164E-02  5.1164640765133E-03  1.5057534831275E-03  3.0140877907997E-04 
 5.3041888673234E-02  2.6522151773823E-01  9.0182934026976E-01  1.9630749284148E+00  3.4493113581990E+00  5.3610354620825E+00  7.6988881849206E+00  1.0463655043660E+01  1.3656266691222E+01  1.5359659134106E+01 
 0.0000000000000E+00  0.0000000000000E+00  0.0000000000000E+00  0.0000000000000E+00  0.0000000000000E+00  0.0000000000000E+00  0.0000000000000E+00  0.0000000000000E+00  0.0000000000000E+00  0.0000000000000E+00 
 0.0000000000000E+00  0.0000000000000E+00  0.0000000000000E+00  0.0000000000000E+00  0.0000000000000E+00  0.0000000000000E+00  0.0000000000000E+00  0.0000000000000E+00  0.0000000000000E+00  0.0000000000000E+00 
 0.0000000000000E+00  0.0000000000000E+00  0.0000000000000E+00  0.0000000000000E+00  0.0000000000000E+00  0.0000000000000E+00  0.0000000000000E+00  0.0000000000000E+00  0.0000000000000E+00  0.0000000000000E+00 
ZONE T = "CATH, 3.0000E-08", I = 10, SOLUTIONTIME = 3.000000E-08
ZONETYPE = ORDERED
DATAPACKING = BLOCK
STRANDID = 3
 1.2700000000000E-03  1.3377333333333E-03  1.4054666666667E-03  1.4732000000000E-03  1.5409333333333E-03  1.6086666666667E-03  1.6764000000000E-03  1.7441333333333E-03  1.8118666666667E-03  1.8796000000000E-03 
 1.9705331968512E-08  1.7389417143347E-08  1.5073218977311E-08  1.2757268296705E-08  1.0439916519870E-08  8.1220572915268E-09  5.8031311314700E-09  3.4836678221606E-09  1.1623806801385E-09  9.0801931944905E-13 
 9.2000000000095E-01  9.2000000000270E-01  9.2000000000270E-01  9.2000000000270E-01  9.2000000000270E-01  9.2000000000270E-01  9.2000000000270E-01  9.2000000000270E-01  9.2000000000270E-01  9.2000000000270E-01 
 3.9999999999524E-02  3.9999999998652E-02  3.9999999998652E-02  3.9999999998652E-02  3.9999999998651E-02  3.9999999998651E-02  3.9999999998650E-02  3.9999999998649E-02  3.9999999998649E-02  3.9999999998648E-02 
 3.9999999999524E-02  3.9999999998652E-02  3.9999999998652E-02  3.9999999998652E-02  3.9999999998651E-02  3.9999999998651E-02  3.9999999998650E-02  3.9999999998649E-02  3.9999999998649E-02  3.9999999998648E-02 
 2.9165655455529E-02  2.9165448444348E-02  2.9165265759269E-02  2.9165107403269E-02  2.9164973381378E-02  2.9164863700685E-02  2.9164778370336E-02  2.9164717401541E-02  2.9164680807572E-02  2.9164668603776E-02 
 3.8001746429253E+00  3.8001724880262E+00  3.8001660231657E+00  3.8001552478163E+00  3.8001401610865E+00  3.8001207617205E+00  3.8000970480979E+00  3.8000690182326E+00  3.8000366697729E+00  3.8000000000000E+00 
 3.7710089874697E+00  3.7710070395819E+00  3.7710007574064E+00  3.7709901404130E+00  3.7709751877051E+00  3.7709558980198E+00  3.7709322697275E+00  3.7709043008311E+00  3.7708719889653E+00  3.7708353313962E+00 
 3.9714142713283E+00  3.9714142713278E+00  3.9714142713278E+00  3.9714142713278E+00  3.9714142713278E+00  3.9714142713278E+00  3.9714142713278E+00  3.9714142713278E+00  3.9714142713278E+00  3.9714142713278E+00 
-2.0040528385862E-01 -2.0040723174589E-01 -2.0041351392135E-01 -2.0042413091479E-01 -2.0043908362270E-01 -2.0045837330794E-01 -2.0048200160024E-01 -2.0050997049669E-01 -2.0054228236246E-01 -2.0057893993156E-01 
-1.6672261263146E+00 -3.3345787596711E+00 -3.3349867930914E+00 -3.3356764904763E+00 -3.3366480845260E+00 -3.3379019031735E+00 -3.3394383698206E+00 -3.3412580036415E+00 -3.3433614199566E+00 -1.6728746653377E+00 
 1.4705240338534E-07  1.2977176981874E-07  1.1248941941556E-07  9.5203494931949E-08  7.7912535509581E-08  6.0615078636199E-08  4.3309659583918E-08  2.5994810949481E-08  8.6690621131327E-09  8.6690621131327E-09 
 3.0043950615615E+01  2.6709435109633E+01  2.3374652333497E+01  2.0039320691762E+01  1.6703158404314E+01  1.3365883410359E+01  1.0027213273865E+01  6.6868650872589E+00  3.3445553753546E+00  0.0000000000000E+00 
 0.0000000000000E+00  3.3345155061582E+00  6.6692982826107E+00  1.0004629924345E+01  1.3340792211714E+01  1.6678067205611E+01  2.0016737342126E+01  2.3357085528923E+01  2.6699395240760E+01  3.0043950616103E+01 
 5.0016783358279E-08  1.0003736192235E-07  1.0004960290498E-07  1.0007029379270E-07  1.0009944156646E-07  1.0013705606416E-07  1.0018314998774E-07  1.0023773891229E-07  1.0030084129725E-07  5.0186239249849E-08 
 7.2440786946725E+03  1.4488157389345E+04  1.4488157389345E+04  1.4488157389345E+04  1.4488157389345E+04  1.4488157389345E+04  1.4488157389345E+04  1.4488157389345E+04  1.4488157389345E+04  7.2440786946727E+03 
 4.9259735123383E+04  9.8519470246765E+04  9.8519470246766E+04  9.8519470246765E+04  9.8519470246766E+04  9.8519470246766E+04  9.8519470246765E+04  9.8519470246766E+04  9.8519470246765E+04  4.9259735123383E+04 
 5.6503813818055E+04  1.1300762763611E+05  1.1300762763611E+05  1.1300762763611E+05  1.1300762763611E+05  1.1300762763611E+05  1.1300762763611E+05  1.1300762763611E+05  1.1300762763611E+05  5.6503813818055E+04 
 3.5000000000000E-01  3.5000000000000E-01  3.5000000000000E-01  3.5000000000000E-01  3.5000000000000E-01  3.5000000000000E-01  3.5000000000000E-01  3.5000000000000E-01  3.5000000000000E-01  3.5000000000000E-01 
 6.6040000000000E+00  1.3208000000000E+01  1.3208000000000E+01  1.3208000000000E+01  1.3208000000000E+01  1.3208000000000E+01  1.3208000000000E+01  1.3208000000000E+01  1.3208000000000E+01  6.6040000000000E+00 
-2.5245701488713E-01 -2.5246659294905E-01 -2.5249748584884E-01 -2.5254970400336E-01 -2.5262326503074E-01 -2.5271819375935E-01 -2.5283452224565E-01 -2.5297228979720E-01 -2.5313154300096E-01 -2.5331233575677E-01 
 3.3866666666667E-05  6.7733333333333E-05  6.7733333333334E-05  6.7733333333333E-05  6.7733333333334E-05  6.7733333333334E-05  6.7733333333333E-05  6.7733333333334E-05  6.7733333333333E-05  3.3866666666667E-05 
 2.6603001364272E+01  2.6603001364272E+01  2.6603001364272E+01  2.6603001364272E+01  2.6603001364272E+01  2.6603001364272E+01  2.6603001364272E+01  2.6603001364272E+01  2.6603001364272E+01  2.6603001364272E+01 
 1.7735334242822E+01  1.7735334242822E+01  1.7735334242822E+01  1.7735334242822E+01  1.7735334242822E+01  1.7735334242822E+01  1.7735334242822E+01  1.7735334242822E+01  1.7735334242822E+01  1.7735334242822E+01 
 4.1930487300346E-09  1.0270640834358E-08  2.8829160507093E-08  6.0198566466009E-08  1.0438945571697E-07  1.6141676218782E-07  2.3129976733752E-07  3.1406211409364E-07  4.0973182381281E-07  4.6079729631516E-07 
 1.3976874749031E-01  3.4235581108323E-01  9.6097514666861E-01  2.0066254181469E+00  3.4796598708285E+00  5.3805763160482E+00  7.7100174883671E+00  1.0468771507430E+01  1.3657772444355E+01  1.5359960542513E+01 
 8.6726858817079E-02  7.7134293345003E-02  5.9145806398857E-02  4.3550489808669E-02  3.0348512804445E-02  1.9540854184325E-02  1.1129303709038E-02  5.1164640764557E-03  1.5057534831105E-03  3.0140877907657E-04 
 5.3041888673234E-02  2.6522151773823E-01  9.0182934026976E-01  1.9630749283382E+00  3.4493113580241E+00  5.3610354618638E+00  7.6988881846581E+00  1.0463655043353E+01  1.3656266690872E+01  1.5359659133734E+01 
 0.0000000000000E+00  0.0000000000000E+00  0.0000000000000E+00  0.0000000000000E+00  0.0000000000000E+00  0.0000000000000E+00  0.0000000000000E+00  0.0000000000000E+00  0.0000000000000E+00  0.0000000000000E+00 
 0.0000000000000E+00  0.0000000000000E+00  0.0000000000000E+00  0.0000000000000E+00  0.0000000000000E+00  0.0000000000000E+00  0.0000000000000E+00  0.0000000000000E+00  0.0000000000000E+00  0.0000000000000E+00 
 0.0000000000000E+00  0.0000000000000E+00  0.0000000000000E+00  0.0000000000000E+00  0.0000000000000E+00  0.0000000000000E+00  0.0000000000000E+00  0.0000000000000E+00  0.0000000000000E+00  0.0000000000000E+00 
ZONE T = "CATH, 4.0000E-08", I = 10, SOLUTIONTIME = 4.000000E-08
ZONETYPE = ORDERED
DATAPACKING = BLOCK
STRANDID = 3
 1.2700000000000E-03  1.3377333333333E-03  1.4054666666667E-03  1.4732000000000E-03  1.5409333333333E-03  1.6086666666667E-03  1.6764000000000E-03  1.7441333333333E-03  1.8118666666667E-03  1.8796000000000E-03 
 1.9704968760444E-08  1.7389780350774E-08  1.5074308600235E-08  1.2757631504212E-08  1.0441006142873E-08  8.1231469145699E-09  5.8042207545530E-09  3.4836678221004E-09  1.1623806801184E-09  9.0801931946824E-13 
 9.2000000000127E-01  9.2000000000359E-01  9.2000000000359E-01  9.2000000000360E-01  9.2000000000360E-01  9.2000000000360E-01  9.2000000000360E-01  9.2000000000360E-01  9.2000000000360E-01  9.2000000000361E-01 
 3.9999999999365E-02  3.9999999998203E-02  3.9999999998203E-02  3.9999999998202E-02  3.9999999998202E-02  3.9999999998201E-02  3.9999999998200E-02  3.9999999998199E-02  3.9999999998198E-02  3.9999999998197E-02 
 3.9999999999365E-02  3.9999999998203E-02  3.9999999998203E-02  3.9999999998202E-02  3.9999999998202E-02  3.9999999998201E-02  3.9999999998200E-02  3.9999999998199E-02  3.9999999998198E-02  3.9999999998197E-02 
 2.9165655455314E-02  2.9165448444133E-02  2.9165265759054E-02  2.9165107403054E-02  2.9164973381163E-02  2.9164863700470E-02  2.9164778370121E-02  2.9164717401325E-02  2.9164680807357E-02  2.9164668603561E-02 
 3.8001746429252E+00  3.8001724880262E+00  3.8001660231657E+00  3.8001552478163E+00  3.8001401610865E+00  3.8001207617205E+00  3.8000970480979E+00  3.8000690182326E+00  3.8000366697729E+00  3.8000000000000E+00 
 3.7710089874699E+00  3.7710070395821E+00  3.7710007574067E+00  3.7709901404132E+00  3.7709751877053E+00  3.7709558980201E+00  3.7709322697278E+00  3.7709043008313E+00  3.7708719889655E+00  3.7708353313964E+00 
 3.9714142713282E+00  3.9714142713274E+00  3.9714142713274E+00  3.9714142713274E+00  3.9714142713274E+00  3.9714142713274E+00  3.9714142713274E+00  3.9714142713274E+00  3.9714142713274E+00  3.9714142713274E+00 
-2.0040528385823E-01 -2.0040723174531E-01 -2.0041351392077E-01 -2.0042413091421E-01 -2.0043908362212E-01 -2.0045837330736E-01 -2.0048200159966E-01 -2.0050997049611E-01 -2.0054228236188E-01 -2.0057893993098E-01 
-1.6672261262981E+00 -3.3345787596137E+00 -3.3349867930341E+00 -3.3356764904189E+00 -3.3366480844685E+00 -3.3379019031160E+00 -3.3394383697630E+00 -3.3412580035838E+00 -3.3433614198988E+00 -1.6728746653087E+00 