TITLE = "Solution on Domain BulkDomain1D_0"
VARIABLES = "x [m]"  
"Vel_axial" 
"MF_sp(ECDMC)" 
"MF_sp(Li+)" 
"MF_sp(PF6-)" 
"Volt(Electroly)" 
"Volt(AnodeVolt)" 
"Potential Drop Electrode-Electrolyte [V]" 
"Surf_0 Equilibrium Potential Drop Electrode-Electrolyte [V]" 
"Overpotential_0 [V]" 
"Current Source [A/m^2]" 
"Li+ flux [kmol/m^2/s]" 
"Electrolyte Current [A/m^2]" 
"Electrode Current [A/m^2]" 
"CV Capacity discharged [A-s/m^2]" 
"Depth of discharge in CV [A-s/m^2]" 
"CV Capacity remaining [A-s/m^2]" 
"Initial CV capacity [A-s/m^2]" 
"Porosity []" 
"Surface Area [m2/m2] (area per area)" 
"Specific current (per particle area) [A/m^2]" 
"Control volume thickness [m]" 
"MoleDens Li_C6-bulk [kmol/m^3]" 
"MoleDens V_C6-bulk [kmol/m^3]" 
"qHeat_accum [J/m3]" 
"qHeat_step [W/m3]" 
"Joule_Lyte [W/m3]" 
"Joule_Solid [W/m3]" 
"electrodHeat [W/m3]" 
"OverpotHeat [W/m3]" 
"deltaSHeat [W/m3]" 

ZONE T = "ANOD, 0.0000E+00", I = 10, SOLUTIONTIME = 0.000000E+00
ZONETYPE = ORDERED
DATAPACKING = BLOCK
STRANDID = 1
 0.0000000000000E+00  8.7488888888889E-05  1.7497777777778E-04  2.6246666666667E-04  3.4995555555556E-04  4.3744444444444E-04  5.2493333333333E-04  6.1242222222222E-04  6.9991111111111E-04  7.8740000000000E-04 
 8.0556036137532E-12  2.4166809368316E-11  4.0278010269142E-11  5.6389202940529E-11  7.2500383999613E-11  8.8611550072436E-11  1.0472269777983E-10  1.2083382374051E-10  1.3694492457746E-10  1.4500046074539E-10 
 9.1999997264233E-01  9.1999997295547E-01  9.1999997389488E-01  9.1999997546058E-01  9.1999997765255E-01  9.1999998047079E-01  9.1999998391532E-01  9.1999998798612E-01  9.1999999268319E-01  9.1999999800653E-01 
 4.0000013678836E-02  4.0000013522267E-02  4.0000013052559E-02  4.0000012269712E-02  4.0000011173727E-02  4.0000009764603E-02  4.0000008042341E-02  4.0000006006942E-02  4.0000003658406E-02  4.0000000996733E-02 
 4.0000013678836E-02  4.0000013522267E-02  4.0000013052559E-02  4.0000012269712E-02  4.0000011173727E-02  4.0000009764603E-02  4.0000008042341E-02  4.0000006006942E-02  4.0000003658406E-02  4.0000000996733E-02 
 1.0249120196691E-02  1.0249120087379E-02  1.0249119759444E-02  1.0249119212886E-02  1.0249118447705E-02  1.0249117463900E-02  1.0249116261473E-02  1.0249114840424E-02  1.0249113200752E-02  1.0249111342458E-02 
 0.0000000000000E+00 -2.6544331020875E-11 -4.9965790634587E-11 -7.0264379781945E-11 -8.7440100058081E-11 -1.0149295371383E-10 -1.1242294365402E-10 -1.2023007343846E-10 -1.2491434728237E-10 -1.2647577005553E-10 
-1.0249120196691E-02 -1.0249120113923E-02 -1.0249119809410E-02 -1.0249119283150E-02 -1.0249118535145E-02 -1.0249117565393E-02 -1.0249116373896E-02 -1.0249114960654E-02 -1.0249113325666E-02 -1.0249111468934E-02 
-1.0307459482521E-02 -1.0307459394131E-02 -1.0307459071169E-02 -1.0307458513627E-02 -1.0307457721502E-02 -1.0307456694804E-02 -1.0307455433525E-02 -1.0307453937671E-02 -1.0307452207236E-02 -1.0307450242228E-02 
 5.8339285829954E-05  5.8339280207527E-05  5.8339261759358E-05  5.8339230476507E-05  5.8339186356943E-05  5.8339129410804E-05  5.8339059628860E-05  5.8338977017290E-05  5.8338881570145E-05  5.8338773294647E-05 
 1.1600715693325E-02  2.3201429150971E-02  2.3201421829471E-02  2.3201409418344E-02  2.3201391917042E-02  2.3201369329196E-02  2.3201341651479E-02  2.3201308886361E-02  2.3201271031309E-02  1.1600614044751E-02 
 1.1542358916420E-10  3.4627074924006E-10  5.7711783342576E-10  8.0796480048363E-10  1.0388116042661E-09  1.2696581835309E-09  1.5005044938501E-09  1.7313505045102E-09  1.9621961354529E-09  1.9621961354529E-09 
 0.0000000000000E+00  2.3201420717808E-02  4.6402836656474E-02  6.9604243128905E-02  9.2805635724157E-02  1.1600700901875E-01  1.3920835740510E-01  1.6240967822120E-01  1.8561096484695E-01  2.0881221211610E-01 
 1.7059771149111E-01  1.4964420458200E-01  1.3093862496810E-01  1.1223305294917E-01  9.3527492448660E-02  7.4821947389009E-02  5.6116421690506E-02  3.7410919277692E-02  1.8705444073853E-02  0.0000000000000E+00 
 1.4407436557919E+04  2.8814873691066E+04  2.8814875592718E+04  2.8814878820812E+04  2.8814883375324E+04  2.8814889256269E+04  2.8814896463642E+04  2.8814904997455E+04  2.8814914857697E+04  1.4407463022191E+04 
 1.0585588110120E+05  2.1171176277763E+05  2.1171176467928E+05  2.1171176790737E+05  2.1171177246189E+05  2.1171177834283E+05  2.1171178555020E+05  2.1171179408402E+05  2.1171180394426E+05  1.0585590756547E+05 
 3.5138634161521E+05  7.0277268265518E+05  7.0277268075353E+05  7.0277267752544E+05  7.0277267297093E+05  7.0277266708998E+05  7.0277265988261E+05  7.0277265134880E+05  7.0277264148855E+05  3.5138631515093E+05 
 4.5724222271641E+05  9.1448444543281E+05  9.1448444543281E+05  9.1448444543281E+05  9.1448444543281E+05  9.1448444543281E+05  9.1448444543281E+05  9.1448444543281E+05  9.1448444543281E+05  4.5724222271641E+05 
 3.5000000000000E-01  3.5000000000000E-01  3.5000000000000E-01  3.5000000000000E-01  3.5000000000000E-01  3.5000000000000E-01  3.5000000000000E-01  3.5000000000000E-01  3.5000000000000E-01  3.5000000000000E-01 
 8.5301666666667E+00  1.7060333333333E+01  1.7060333333333E+01  1.7060333333333E+01  1.7060333333333E+01  1.7060333333333E+01  1.7060333333333E+01  1.7060333333333E+01  1.7060333333333E+01  8.5301666666667E+00 
 1.3599635442830E-03  1.3599634132376E-03  1.3599629840842E-03  1.3599622565997E-03  1.3599612307522E-03  1.3599599067542E-03  1.3599582844110E-03  1.3599563638671E-03  1.3599541449743E-03  1.3599516279187E-03 
 4.3744444444444E-05  8.7488888888889E-05  8.7488888888889E-05  8.7488888888889E-05  8.7488888888889E-05  8.7488888888889E-05  8.7488888888889E-05  8.7488888888889E-05  8.7488888888889E-05  4.3744444444444E-05 
 8.3253146327632E+01  8.3253146259488E+01  8.3253146034211E+01  8.3253145651799E+01  8.3253145112254E+01  8.3253144415575E+01  8.3253143561762E+01  8.3253142550814E+01  8.3253141382731E+01  8.3253140057514E+01 
 2.5080187005701E+01  2.5080187073845E+01  2.5080187299122E+01  2.5080187681534E+01  2.5080188221079E+01  2.5080188917759E+01  2.5080189771572E+01  2.5080190782520E+01  2.5080191950602E+01  2.5080193275820E+01 
 0.0000000000000E+00  0.0000000000000E+00  0.0000000000000E+00  0.0000000000000E+00  0.0000000000000E+00  0.0000000000000E+00  0.0000000000000E+00  0.0000000000000E+00  0.0000000000000E+00  0.0000000000000E+00 
 0.0000000000000E+00  0.0000000000000E+00  0.0000000000000E+00  0.0000000000000E+00  0.0000000000000E+00  0.0000000000000E+00  0.0000000000000E+00  0.0000000000000E+00  0.0000000000000E+00  0.0000000000000E+00 
 0.0000000000000E+00  0.0000000000000E+00  0.0000000000000E+00  0.0000000000000E+00  0.0000000000000E+00  0.0000000000000E+00  0.0000000000000E+00  0.0000000000000E+00  0.0000000000000E+00  0.0000000000000E+00 
 0.0000000000000E+00  0.0000000000000E+00  0.0000000000000E+00  0.0000000000000E+00  0.0000000000000E+00  0.0000000000000E+00  0.0000000000000E+00  0.0000000000000E+00  0.0000000000000E+00  0.0000000000000E+00 
 0.0000000000000E+00  0.0000000000000E+00  0.0000000000000E+00  0.0000000000000E+00  0.0000000000000E+00  0.0000000000000E+00  0.0000000000000E+00  0.0000000000000E+00  0.0000000000000E+00  0.0000000000000E+00 
 0.0000000000000E+00  0.0000000000000E+00  0.0000000000000E+00  0.0000000000000E+00  0.0000000000000E+00  0.0000000000000E+00  0.0000000000000E+00  0.0000000000000E+00  0.0000000000000E+00  0.0000000000000E+00 
 0.0000000000000E+00  0.0000000000000E+00  0.0000000000000E+00  0.0000000000000E+00  0.0000000000000E+00  0.0000000000000E+00  0.0000000000000E+00  0.0000000000000E+00  0.0000000000000E+00  0.0000000000000E+00 
ZONE T = "ANOD, 1.0000E-08", I = 10, SOLUTIONTIME = 1.000000E-08
ZONETYPE = ORDERED
DATAPACKING = BLOCK
STRANDID = 1
 0.0000000000000E+00  8.7488888888889E-05  1.7497777777778E-04  2.6246666666667E-04  3.4995555555556E-04  4.3744444444444E-04  5.2493333333333E-04  6.1242222222222E-04  6.9991111111111E-04  7.8740000000000E-04 
-1.8118147518003E-13 -9.0677655948467E-13 -1.6324608309862E-12 -1.6318836117868E-12 -2.7211483227254E-12 -2.7210733753464E-12 -2.7213467373114E-12 -2.7220331901047E-12 -3.8128207026919E-12 -3.8136741976637E-12 
 9.1999997264233E-01  9.1999997295547E-01  9.1999997389489E-01  9.1999997546058E-01  9.1999997765255E-01  9.1999998047080E-01  9.1999998391532E-01  9.1999998798612E-01  9.1999999268319E-01  9.1999999800654E-01 
 4.0000013678834E-02  4.0000013522264E-02  4.0000013052556E-02  4.0000012269709E-02  4.0000011173724E-02  4.0000009764601E-02  4.0000008042339E-02  4.0000006006940E-02  4.0000003658403E-02  4.0000000996732E-02 
 4.0000013678834E-02  4.0000013522264E-02  4.0000013052556E-02  4.0000012269709E-02  4.0000011173724E-02  4.0000009764601E-02  4.0000008042339E-02  4.0000006006940E-02  4.0000003658403E-02  4.0000000996732E-02 
 1.0307456423547E-02  1.0307456423541E-02  1.0307456423524E-02  1.0307456423497E-02  1.0307456423463E-02  1.0307456423423E-02  1.0307456423383E-02  1.0307456423346E-02  1.0307456423318E-02  1.0307456423307E-02 
 0.0000000000000E+00  9.9880915075178E-17  3.9699493795674E-16  8.6989973653594E-16  1.4815791916653E-15  2.1794423478621E-15  2.8953243059520E-15  3.5454847641109E-15  4.0306087058740E-15  4.2358053943215E-15 
-1.0307456423547E-02 -1.0307456423541E-02 -1.0307456423524E-02 -1.0307456423496E-02 -1.0307456423461E-02 -1.0307456423421E-02 -1.0307456423380E-02 -1.0307456423342E-02 -1.0307456423314E-02 -1.0307456423302E-02 
-1.0307459482516E-02 -1.0307459394137E-02 -1.0307459071168E-02 -1.0307458513630E-02 -1.0307457721504E-02 -1.0307456694803E-02 -1.0307455433531E-02 -1.0307453937673E-02 -1.0307452207237E-02 -1.0307450242230E-02 
 3.0589699506062E-09  2.9705963053989E-09  2.6476444526385E-09  2.0901335072432E-09  1.2980431226411E-09  2.7138162550511E-10 -9.8984821728099E-10 -2.4856687853847E-09 -4.2160771748789E-09 -6.1810727595285E-09 
 6.0827338355710E-07  1.1813999808368E-06  1.0529627593996E-06  8.3124160307542E-07  5.1622885014759E-07  1.0793016759052E-07 -3.9366242901145E-07 -9.8854660315470E-07 -1.6767269379809E-06 -1.2291007064387E-06 
 5.5310293979627E-11  1.6593069677980E-10  2.7655040217558E-10  3.8716889307233E-10  4.9778567026482E-10  6.0840023503821E-10  7.1901205895147E-10  8.2962065551929E-10  9.4022501050783E-10  9.4022501050783E-10 
 0.0000000000000E+00  1.1989364026938E-06  2.3161333907702E-06  3.2582534000376E-06  3.9319588803660E-06  4.2440964006766E-06  4.1012364120534E-06  3.4100414503854E-06  2.0774502413662E-06  1.0060706126212E-08 
 1.0000048960803E-08 -1.1889733147241E-06 -2.3061549229425E-06 -3.2482573754379E-06 -3.9219926263409E-06 -4.2340721606171E-06 -4.0912057671579E-06 -3.4001009259138E-06 -2.0674641650301E-06  0.0000000000000E+00 
 1.4407436557919E+04  2.8814873691066E+04  2.8814875592718E+04  2.8814878820812E+04  2.8814883375324E+04  2.8814889256269E+04  2.8814896463642E+04  2.8814904997455E+04  2.8814914857697E+04  1.4407463022191E+04 
 1.0585588110120E+05  2.1171176277763E+05  2.1171176467928E+05  2.1171176790737E+05  2.1171177246189E+05  2.1171177834283E+05  2.1171178555020E+05  2.1171179408402E+05  2.1171180394426E+05  1.0585590756547E+05 
 3.5138634161521E+05  7.0277268265518E+05  7.0277268075353E+05  7.0277267752544E+05  7.0277267297093E+05  7.0277266708998E+05  7.0277265988261E+05  7.0277265134880E+05  7.0277264148855E+05  3.5138631515093E+05 
 4.5724222271641E+05  9.1448444543281E+05  9.1448444543281E+05  9.1448444543281E+05  9.1448444543281E+05  9.1448444543281E+05  9.1448444543281E+05  9.1448444543281E+05  9.1448444543281E+05  4.5724222271641E+05 
 3.5000000000000E-01  3.5000000000000E-01  3.5000000000000E-01  3.5000000000000E-01  3.5000000000000E-01  3.5000000000000E-01  3.5000000000000E-01  3.5000000000000E-01  3.5000000000000E-01  3.5000000000000E-01 
 8.5301666666667E+00  1.7060333333333E+01  1.7060333333333E+01  1.7060333333333E+01  1.7060333333333E+01  1.7060333333333E+01  1.7060333333333E+01  1.7060333333333E+01  1.7060333333333E+01  8.5301666666667E+00 
 7.1308499274000E-08  6.9248352758063E-08  6.1719940567765E-08  4.8723643719862E-08  3.0259013118985E-08  6.3263809376829E-09 -2.3074720834575E-08 -5.7944155242455E-08 -9.8282190929110E-08 -1.4408870945531E-07 
 4.3744444444444E-05  8.7488888888889E-05  8.7488888888889E-05  8.7488888888889E-05  8.7488888888889E-05  8.7488888888889E-05  8.7488888888889E-05  8.7488888888889E-05  8.7488888888889E-05  4.3744444444444E-05 
 8.3253146327632E+01  8.3253146259488E+01  8.3253146034211E+01  8.3253145651799E+01  8.3253145112254E+01  8.3253144415575E+01  8.3253143561762E+01  8.3253142550814E+01  8.3253141382731E+01  8.3253140057514E+01 
 2.5080187005701E+01  2.5080187073845E+01  2.5080187299122E+01  2.5080187681534E+01  2.5080188221079E+01  2.5080188917759E+01  2.5080189771572E+01  2.5080190782520E+01  2.5080191950602E+01  2.5080193275820E+01 
 4.0530950718941E-25  1.9575900334031E-24  6.1830680607706E-24  1.1824678636175E-23  1.7017797626307E-23  1.9745193598068E-23  1.8477736233025E-23  1.3012574946124E-23  5.5000977230914E-24  1.6826343660372E-24 
 4.0530950718941E-17  1.9575900334031E-16  6.1830680607706E-16  1.1824678636175E-15  1.7017797626307E-15  1.9745193598068E-15  1.8477736233025E-15  1.3012574946124E-15  5.5000977230914E-16  1.6826343660372E-16 
 3.9847937265650E-17  1.9239559349680E-16  6.0762925985725E-16  1.1620041996939E-15  1.6723002379300E-15  1.9403043223705E-15  1.8157598627886E-15  1.2787308930085E-15  5.4051202947497E-16  1.6538070022803E-16 
 6.8301345329059E-19  3.3634098435078E-18  1.0677546219815E-17  2.0463663923668E-17  2.9479524700708E-17  3.4215037436350E-17  3.2013760513913E-17  2.2526601603880E-17  9.4977428341683E-18  2.8827363756890E-18 
 0.0000000000000E+00  0.0000000000000E+00  0.0000000000000E+00  0.0000000000000E+00  0.0000000000000E+00  0.0000000000000E+00  0.0000000000000E+00  0.0000000000000E+00  0.0000000000000E+00  0.0000000000000E+00 
 0.0000000000000E+00  0.0000000000000E+00  0.0000000000000E+00  0.0000000000000E+00  0.0000000000000E+00  0.0000000000000E+00  0.0000000000000E+00  0.0000000000000E+00  0.0000000000000E+00  0.0000000000000E+00 
 0.0000000000000E+00  0.0000000000000E+00  0.0000000000000E+00  0.0000000000000E+00  0.0000000000000E+00  0.0000000000000E+00  0.0000000000000E+00  0.0000000000000E+00  0.0000000000000E+00  0.0000000000000E+00 
ZONE T = "ANOD, 2.0000E-08", I = 10, SOLUTIONTIME = 2.000000E-08
ZONETYPE = ORDERED
DATAPACKING = BLOCK
STRANDID = 1
 0.0000000000000E+00  8.7488888888889E-05  1.7497777777778E-04  2.6246666666667E-04  3.4995555555556E-04  4.3744444444444E-04  5.2493333333333E-04  6.1242222222222E-04  6.9991111111111E-04  7.8740000000000E-04 
 4.2277503969101E-16  1.4540748290130E-12  2.1812222398331E-12  2.1818002294744E-12  2.1821594740620E-12  1.4558197368975E-12  3.6592396495969E-13 -3.6117717288929E-13 -3.6234073023000E-13 -3.6319383969806E-13 
 9.1999997264234E-01  9.1999997295548E-01  9.1999997389489E-01  9.1999997546059E-01  9.1999997765256E-01  9.1999998047080E-01  9.1999998391533E-01  9.1999998798613E-01  9.1999999268320E-01  9.1999999800654E-01 
 4.0000013678831E-02  4.0000013522262E-02  4.0000013052554E-02  4.0000012269707E-02  4.0000011173722E-02  4.0000009764598E-02  4.0000008042337E-02  4.0000006006937E-02  4.0000003658401E-02  4.0000000996731E-02 
 4.0000013678831E-02  4.0000013522262E-02  4.0000013052554E-02  4.0000012269707E-02  4.0000011173722E-02  4.0000009764598E-02  4.0000008042337E-02  4.0000006006937E-02  4.0000003658401E-02  4.0000000996731E-02 
 1.0307456420754E-02  1.0307456420748E-02  1.0307456420732E-02  1.0307456420705E-02  1.0307456420670E-02  1.0307456420631E-02  1.0307456420590E-02  1.0307456420553E-02  1.0307456420526E-02  1.0307456420514E-02 
 0.0000000000000E+00  9.8304319045143E-17  3.9402724830743E-16  8.6572636809720E-16  1.4763853686079E-15  2.1734137120799E-15  2.8886462238449E-15  3.5383431701986E-15  4.0231888444241E-15  4.2282928450650E-15 
-1.0307456420754E-02 -1.0307456420748E-02 -1.0307456420731E-02 -1.0307456420704E-02 -1.0307456420669E-02 -1.0307456420628E-02 -1.0307456420587E-02 -1.0307456420550E-02 -1.0307456420522E-02 -1.0307456420510E-02 
-1.0307459482524E-02 -1.0307459394140E-02 -1.0307459071170E-02 -1.0307458513626E-02 -1.0307457721508E-02 -1.0307456694809E-02 -1.0307455433536E-02 -1.0307453937671E-02 -1.0307452207240E-02 -1.0307450242229E-02 
 3.0617699330743E-09  2.9733917359526E-09  2.6504384277592E-09  2.0929224898297E-09  1.3008392453495E-09  2.7418073020313E-10 -9.8705137292765E-10 -2.4828789007419E-09 -4.2132814563611E-09 -6.1782807776051E-09 
 6.0882969880591E-07  1.1825110250718E-06  1.0540737954650E-06  8.3235104879333E-07  5.1734075355142E-07  1.0904061136038E-07 -3.9254935054782E-07 -9.8743701719211E-07 -1.6756153150665E-06 -1.2285455900777E-06 
 5.5310296841684E-11  1.6593070536597E-10  2.7655041266212E-10  3.8716891562947E-10  4.9778569827837E-10  6.0840026652084E-10  7.1901209458949E-10  8.2962069871785E-10  9.4022456060495E-10  9.4022456060495E-10 
 0.0000000000000E+00  1.2000409890153E-06  2.3183425633883E-06  3.2616592077605E-06  3.9364692742384E-06  4.2496193317606E-06  4.1078639290648E-06  3.4178656020128E-06  2.0863789786218E-06  2.0004803653992E-08 
 1.9999963755031E-08 -1.1800852825050E-06 -2.2983777630768E-06 -3.2415902546156E-06 -3.9164362246034E-06 -4.2296269039311E-06 -4.0878725319184E-06 -3.3978793463426E-06 -2.0663531785589E-06  0.0000000000000E+00 
 1.4407436557919E+04  2.8814873691066E+04  2.8814875592718E+04  2.8814878820812E+04  2.8814883375324E+04  2.8814889256269E+04  2.8814896463642E+04  2.8814904997455E+04  2.8814914857697E+04  1.4407463022191E+04 
 1.0585588110120E+05  2.1171176277763E+05  2.1171176467928E+05  2.1171176790737E+05  2.1171177246189E+05  2.1171177834283E+05  2.1171178555020E+05  2.1171179408402E+05  2.1171180394426E+05  1.0585590756547E+05 
 3.5138634161521E+05  7.0277268265518E+05  7.0277268075353E+05  7.0277267752544E+05  7.0277267297093E+05  7.0277266708998E+05  7.0277265988261E+05  7.0277265134880E+05  7.0277264148855E+05  3.5138631515093E+05 
 4.5724222271641E+05  9.1448444543281E+05  9.1448444543281E+05  9.1448444543281E+05  9.1448444543281E+05  9.1448444543281E+05  9.1448444543281E+05  9.1448444543281E+05  9.1448444543281E+05  4.5724222271641E+05 
 3.5000000000000E-01  3.5000000000000E-01  3.5000000000000E-01  3.5000000000000E-01  3.5000000000000E-01  3.5000000000000E-01  3.5000000000000E-01  3.5000000000000E-01  3.5000000000000E-01  3.5000000000000E-01 
 8.5301666666667E+00  1.7060333333333E+01  1.7060333333333E+01  1.7060333333333E+01  1.7060333333333E+01  1.7060333333333E+01  1.7060333333333E+01  1.7060333333333E+01  1.7060333333333E+01  8.5301666666667E+00 
 7.1373716668987E-08  6.9313477173469E-08  6.1785064504305E-08  4.8788674437389E-08  3.0324187895005E-08  6.3914701565257E-09 -2.3009477181834E-08 -5.7879116304416E-08 -9.8217032594115E-08 -1.4402363260714E-07 
 4.3744444444444E-05  8.7488888888889E-05  8.7488888888889E-05  8.7488888888889E-05  8.7488888888889E-05  8.7488888888889E-05  8.7488888888889E-05  8.7488888888889E-05  8.7488888888889E-05  4.3744444444444E-05 
 8.3253146327632E+01  8.3253146259488E+01  8.3253146034211E+01  8.3253145651799E+01  8.3253145112254E+01  8.3253144415575E+01  8.3253143561762E+01  8.3253142550814E+01  8.3253141382731E+01  8.3253140057514E+01 
 2.5080187005701E+01  2.5080187073845E+01  2.5080187299122E+01  2.5080187681534E+01  2.5080188221079E+01  2.5080188917759E+01  2.5080189771572E+01  2.5080190782520E+01  2.5080191950602E+01  2.5080193275820E+01 
 8.1112905147644E-25  3.9183478443990E-24  1.2377117708754E-23  2.3673033823899E-23  3.4073249334585E-23  3.9540258854757E-23  3.7013311148232E-23  2.6081703508907E-23  1.1039300836388E-23  3.3903990434711E-24 
 4.0581954428704E-17  1.9607578109959E-16  6.1940496479832E-16  1.1848355187723E-15  1.7055451708278E-15  1.9795065256688E-15  1.8535574915207E-15  1.3069128562784E-15  5.5392031132963E-16  1.7077646774339E-16 
 7.9768270465957E-17  3.8514689183931E-16  1.2164238960311E-15  2.3264577403315E-15  3.3484484456505E-15  3.8856674894901E-15  3.6373560351043E-15  2.5631470121677E-15  1.0849451394519E-15  3.3327703528459E-16 
 1.3446346816871E-18  6.6878926005917E-18  2.1287874844237E-17  4.0845642058381E-17  5.8876487807946E-17  6.8358395985550E-17  6.3975079718948E-17  4.5023338723031E-17  1.8984944186839E-17  5.7628690625229E-18 
 0.0000000000000E+00  0.0000000000000E+00  0.0000000000000E+00  0.0000000000000E+00  0.0000000000000E+00  0.0000000000000E+00  0.0000000000000E+00  0.0000000000000E+00  0.0000000000000E+00  0.0000000000000E+00 
 0.0000000000000E+00  0.0000000000000E+00  0.0000000000000E+00  0.0000000000000E+00  0.0000000000000E+00  0.0000000000000E+00  0.0000000000000E+00  0.0000000000000E+00  0.0000000000000E+00  0.0000000000000E+00 
 0.0000000000000E+00  0.0000000000000E+00  0.0000000000000E+00  0.0000000000000E+00  0.0000000000000E+00  0.0000000000000E+00  0.0000000000000E+00  0.0000000000000E+00  0.0000000000000E+00  0.0000000000000E+00 
ZONE T = "ANOD, 3.0000E-08", I = 10, SOLUTIONTIME = 3.000000E-08
ZONETYPE = ORDERED
DATAPACKING = BLOCK
STRANDID = 1
 0.0000000000000E+00  8.7488888888889E-05  1.7497777777778E-04  2.6246666666667E-04  3.4995555555556E-04  4.3744444444444E-04  5.2493333333333E-04  6.1242222222222E-04  6.9991111111111E-04  7.8740000000000E-04 
 5.4523475241702E-13 -1.8035878842728E-13  1.8358166611376E-13  1.8416042713132E-13  1.8452044290335E-13  9.1101238765525E-13  5.4753284216053E-13  1.8364020489976E-13  1.2721006026361E-12  1.9976633349199E-12 
 9.1999997264234E-01  9.1999997295548E-01  9.1999997389490E-01  9.1999997546059E-01  9.1999997765256E-01  9.1999998047081E-01  9.1999998391533E-01  9.1999998798613E-01  9.1999999268320E-01  9.1999999800654E-01 
 4.0000013678829E-02  4.0000013522260E-02  4.0000013052551E-02  4.0000012269705E-02  4.0000011173719E-02  4.0000009764596E-02  4.0000008042334E-02  4.0000006006935E-02  4.0000003658399E-02  4.0000000996730E-02 
 4.0000013678829E-02  4.0000013522260E-02  4.0000013052551E-02  4.0000012269705E-02  4.0000011173719E-02  4.0000009764596E-02  4.0000008042334E-02  4.0000006006935E-02  4.0000003658399E-02  4.0000000996730E-02 
 1.0307456417962E-02  1.0307456417956E-02  1.0307456417939E-02  1.0307456417912E-02  1.0307456417878E-02  1.0307456417838E-02  1.0307456417797E-02  1.0307456417760E-02  1.0307456417733E-02  1.0307456417721E-02 
 0.0000000000000E+00  9.6727560770598E-17  3.9105930788472E-16  8.6155272675566E-16  1.4711914807639E-15  2.1673849847667E-15  2.8819679697775E-15  3.5312007252995E-15  4.0157680043879E-15  4.2207791607961E-15 
-1.0307456417962E-02 -1.0307456417956E-02 -1.0307456417939E-02 -1.0307456417911E-02 -1.0307456417876E-02 -1.0307456417836E-02 -1.0307456417794E-02 -1.0307456417757E-02 -1.0307456417729E-02 -1.0307456417717E-02 
-1.0307459482524E-02 -1.0307459394141E-02 -1.0307459071169E-02 -1.0307458513629E-02 -1.0307457721508E-02 -1.0307456694808E-02 -1.0307455433533E-02 -1.0307453937676E-02 -1.0307452207240E-02 -1.0307450242233E-02 
 3.0645627615428E-09  2.9761851854521E-09  2.6532302310062E-09  2.0957181059988E-09  1.3036321917792E-09  2.7697175108976E-10 -9.8426160798082E-10 -2.4800806096292E-09 -4.2104884544203E-09 -6.1754840182532E-09 
 6.0938514467385E-07  1.1836226343702E-06  1.0551848356151E-06  8.3346192691322E-07  5.1845149414984E-07  1.1015064120420E-07 -3.9143917909773E-07 -9.8632423691862E-07 -1.6745038555439E-06 -1.2279894511560E-06 
 5.5310299703742E-11  1.6593071620718E-10  2.7655042724012E-10  3.8716893314113E-10  4.9778572629191E-10  6.0840029800347E-10  7.1901213431897E-10  8.2962074007999E-10  9.4022411001575E-10  9.4022411001575E-10 
 0.0000000000000E+00  1.2011455753356E-06  2.3206437848583E-06  3.2649729666104E-06  3.9407955704147E-06  4.2551422628596E-06  4.1145834949393E-06  3.4256897536502E-06  2.0952156669794E-06  2.9949923682648E-08 
 2.9999980991334E-08 -1.1711964992362E-06 -2.2906002717969E-06 -3.2349236908110E-06 -3.9108803660623E-06 -4.2251813262671E-06 -4.0845370221593E-06 -3.3956553509807E-06 -2.0652413414502E-06  0.0000000000000E+00 
 1.4407436557919E+04  2.8814873691066E+04  2.8814875592718E+04  2.8814878820812E+04  2.8814883375324E+04  2.8814889256269E+04  2.8814896463642E+04  2.8814904997455E+04  2.8814914857697E+04  1.4407463022191E+04 
 1.0585588110120E+05  2.1171176277763E+05  2.1171176467928E+05  2.1171176790737E+05  2.1171177246189E+05  2.1171177834283E+05  2.1171178555020E+05  2.1171179408402E+05  2.1171180394426E+05  1.0585590756547E+05 
 3.5138634161521E+05  7.0277268265518E+05  7.0277268075353E+05  7.0277267752544E+05  7.0277267297093E+05  7.0277266708998E+05  7.0277265988261E+05  7.0277265134880E+05  7.0277264148855E+05  3.5138631515093E+05 
 4.5724222271641E+05  9.1448444543281E+05  9.1448444543281E+05  9.1448444543281E+05  9.1448444543281E+05  9.1448444543281E+05  9.1448444543281E+05  9.1448444543281E+05  9.1448444543281E+05  4.5724222271641E+05 
 3.5000000000000E-01  3.5000000000000E-01  3.5000000000000E-01  3.5000000000000E-01  3.5000000000000E-01  3.5000000000000E-01  3.5000000000000E-01  3.5000000000000E-01  3.5000000000000E-01  3.5000000000000E-01 
 8.5301666666667E+00  1.7060333333333E+01  1.7060333333333E+01  1.7060333333333E+01  1.7060333333333E+01  1.7060333333333E+01  1.7060333333333E+01  1.7060333333333E+01  1.7060333333333E+01  8.5301666666667E+00 
 7.1438832145583E-08  6.9378634710356E-08  6.1850188680278E-08  4.8853789115877E-08  3.0389294512602E-08  6.4565351128854E-09 -2.2944403925152E-08 -5.7813890130241E-08 -9.8151883836415E-08 -1.4395843588315E-07 
 4.3744444444444E-05  8.7488888888889E-05  8.7488888888889E-05  8.7488888888889E-05  8.7488888888889E-05  8.7488888888889E-05  8.7488888888889E-05  8.7488888888889E-05  8.7488888888889E-05  4.3744444444444E-05 
 8.3253146327632E+01  8.3253146259488E+01  8.3253146034211E+01  8.3253145651799E+01  8.3253145112254E+01  8.3253144415575E+01  8.3253143561762E+01  8.3253142550814E+01  8.3253141382731E+01  8.3253140057514E+01 
 2.5080187005701E+01  2.5080187073845E+01  2.5080187299122E+01  2.5080187681534E+01  2.5080188221079E+01  2.5080188917759E+01  2.5080189771572E+01  2.5080190782520E+01  2.5080191950602E+01  2.5080193275820E+01 
 1.2174626719951E-24  5.8822797163177E-24  1.8582727161451E-23  3.5544197946452E-23  5.1164940629414E-23  5.9385262845960E-23  5.5607597128571E-23  3.9207713850197E-23  1.6617200047196E-23  5.1234838874053E-24 
 4.0633362051864E-17  1.9639318719187E-16  6.2056094526974E-16  1.1871164122553E-15  1.7091691294829E-15  1.9845003991204E-15  1.8594285980339E-15  1.3126010341290E-15  5.5778992108082E-16  1.7330848439342E-16 
 1.1976106530590E-16  5.7825422355215E-16  1.8264415007566E-15  3.4932736814497E-15  5.0283030472006E-15  5.8360961375675E-15  5.4648757457731E-15  3.8532811880672E-15  1.6332584012008E-15  5.0370799389485E-16 
 1.9852018936088E-18  9.9737480796197E-18  3.1831215388514E-17  6.1146113195455E-17  8.8191015740810E-17  1.0243014702850E-16  9.5883967083978E-17  6.7490196952498E-17  2.8461603518805E-17  8.6403948456795E-18 
 0.0000000000000E+00  0.0000000000000E+00  0.0000000000000E+00  0.0000000000000E+00  0.0000000000000E+00  0.0000000000000E+00  0.0000000000000E+00  0.0000000000000E+00  0.0000000000000E+00  0.0000000000000E+00 
 0.0000000000000E+00  0.0000000000000E+00  0.0000000000000E+00  0.0000000000000E+00  0.0000000000000E+00  0.0000000000000E+00  0.0000000000000E+00  0.0000000000000E+00  0.0000000000000E+00  0.0000000000000E+00 
 0.0000000000000E+00  0.0000000000000E+00  0.0000000000000E+00  0.0000000000000E+00  0.0000000000000E+00  0.0000000000000E+00  0.0000000000000E+00  0.0000000000000E+00  0.0000000000000E+00  0.0000000000000E+00 
ZONE T = "ANOD, 4.0000E-08", I = 10, SOLUTIONTIME = 4.000000E-08
ZONETYPE = ORDERED
DATAPACKING = BLOCK
STRANDID = 1
 0.0000000000000E+00  8.7488888888889E-05  1.7497777777778E-04  2.6246666666667E-04  3.4995555555556E-04  4.3744444444444E-04  5.2493333333333E-04  6.1242222222222E-04  6.9991111111111E-04  7.8740000000000E-04 
-3.6278418167989E-13 -3.6196149601861E-13 -3.6122799753662E-13 -3.6064846437637E-13 -3.6028767747505E-13 -3.6021041712630E-13  2.7262645867107E-15  1.0916653106137E-12  8.8011414580422E-16 -7.2638767929794E-13 
 9.1999997264235E-01  9.1999997295549E-01  9.1999997389490E-01  9.1999997546060E-01  9.1999997765257E-01  9.1999998047081E-01  9.1999998391534E-01  9.1999998798613E-01  9.1999999268321E-01  9.1999999800654E-01 
 4.0000013678827E-02  4.0000013522257E-02  4.0000013052549E-02  4.0000012269702E-02  4.0000011173717E-02  4.0000009764593E-02  4.0000008042332E-02  4.0000006006933E-02  4.0000003658396E-02  4.0000000996729E-02 
 4.0000013678827E-02  4.0000013522257E-02  4.0000013052549E-02  4.0000012269702E-02  4.0000011173717E-02  4.0000009764593E-02  4.0000008042332E-02  4.0000006006933E-02  4.0000003658396E-02  4.0000000996729E-02 
 1.0307456415170E-02  1.0307456415164E-02  1.0307456415147E-02  1.0307456415121E-02  1.0307456415086E-02  1.0307456415046E-02  1.0307456415006E-02  1.0307456414969E-02  1.0307456414941E-02  1.0307456414929E-02 
 0.0000000000000E+00  9.5150723830323E-17  3.8809098153338E-16  8.5737845288375E-16  1.4659968971991E-15  2.1613554858942E-15  2.8752889511367E-15  3.5240577036114E-15  4.0083466184681E-15  4.2132651198437E-15 
-1.0307456415170E-02 -1.0307456415164E-02 -1.0307456415147E-02 -1.0307456415120E-02 -1.0307456415084E-02 -1.0307456415044E-02 -1.0307456415003E-02 -1.0307456414965E-02 -1.0307456414937E-02 -1.0307456414925E-02 
-1.0307459482524E-02 -1.0307459394138E-02 -1.0307459071172E-02 -1.0307458513632E-02 -1.0307457721509E-02 -1.0307456694811E-02 -1.0307455433537E-02 -1.0307453937680E-02 -1.0307452207243E-02 -1.0307450242232E-02 
 3.0673535031389E-09  2.9789742703873E-09  2.6560251255303E-09  2.0985124402073E-09  1.3064242864597E-09  2.7976698215026E-10 -9.8146608895622E-10 -2.4772850246851E-09 -4.2076934089752E-09 -6.1726927822608E-09 
 6.0994008198462E-07  1.1847327990123E-06  1.0562963128385E-06  8.3457383167865E-07  5.1956194200450E-07  1.1126095153737E-07 -3.9032799870289E-07 -9.8521232670680E-07 -1.6733915218748E-06 -1.2274344069597E-06 