TITLE = "Solution on Domain BulkDomain1D_0"
VARIABLES = "x [m]"  
"Vel_axial" 
"MF_sp(ECDMC)" 
"MF_sp(Li+)" 
"MF_sp(PF6-)" 
"Volt(Electroly)" 
"Volt(AnodeVolt)" 
"Potential Drop Electrode-Electrolyte [V]" 
"Surf_0 Equilibrium Potential Drop Electrode-Electrolyte [V]" 
"Overpotential_0 [V]" 
"Current Source [A/m^2]" 
"Li+ flux [kmol/m^2/s]" 
"Electrolyte Current [A/m^2]" 
"Electrode Current [A/m^2]" 
"CV Capacity discharged [A-s/m^2]" 
"Depth of discharge in CV [A-s/m^2]" 
"CV Capacity remaining [A-s/m^2]" 
"Initial CV capacity [A-s/m^2]" 
"Porosity []" 
"Surface Area [m2/m2] (area per area)" 
"Specific current (per particle area) [A/m^2]" 
"Control volume thickness [m]" 
"MoleDens Li_C6-bulk [kmol/m^3]" 
"MoleDens V_C6-bulk [kmol/m^3]" 
"qHeat_accum [J/m3]" 
"qHeat_step [W/m3]" 
"Joule_Lyte [W/m3]" 
"Joule_Solid [W/m3]" 
"electrodHeat [W/m3]" 
"OverpotHeat [W/m3]" 
"deltaSHeat [W/m3]" 

ZONE T = "ANOD, 0.0000E+00", I = 10, SOLUTIONTIME = 0.000000E+00
ZONETYPE = ORDERED
DATAPACKING = BLOCK
STRANDID = 1
 0.0000000000000E+00  8.7488888888889E-05  1.7497777777778E-04  2.6246666666667E-04  3.4995555555556E-04  4.3744444444444E-04  5.2493333333333E-04  6.1242222222222E-04  6.9991111111111E-04  7.8740000000000E-04 
 8.0556036137532E-12  2.4166809368316E-11  4.0278010269142E-11  5.6389202940529E-11  7.2500383999613E-11  8.8611550072436E-11  1.0472269777983E-10  1.2083382374051E-10  1.3694492457746E-10  1.4500046074539E-10 
 9.1999997264233E-01  9.1999997295547E-01  9.1999997389488E-01  9.1999997546058E-01  9.1999997765255E-01  9.1999998047079E-01  9.1999998391532E-01  9.1999998798612E-01  9.1999999268319E-01  9.1999999800653E-01 
 4.0000013678836E-02  4.0000013522267E-02  4.0000013052559E-02  4.0000012269712E-02  4.0000011173727E-02  4.0000009764603E-02  4.0000008042341E-02  4.0000006006942E-02  4.0000003658406E-02  4.0000000996733E-02 
 4.0000013678836E-02  4.0000013522267E-02  4.0000013052559E-02  4.0000012269712E-02  4.0000011173727E-02  4.0000009764603E-02  4.0000008042341E-02  4.0000006006942E-02  4.0000003658406E-02  4.0000000996733E-02 
 1.0249120196691E-02  1.0249120087379E-02  1.0249119759444E-02  1.0249119212886E-02  1.0249118447705E-02  1.0249117463900E-02  1.0249116261473E-02  1.0249114840424E-02  1.0249113200752E-02  1.0249111342458E-02 
 0.0000000000000E+00 -2.6544331020875E-11 -4.9965790634587E-11 -7.0264379781945E-11 -8.7440100058081E-11 -1.0149295371383E-10 -1.1242294365402E-10 -1.2023007343846E-10 -1.2491434728237E-10 -1.2647577005553E-10 
-1.0249120196691E-02 -1.0249120113923E-02 -1.0249119809410E-02 -1.0249119283150E-02 -1.0249118535145E-02 -1.0249117565393E-02 -1.0249116373896E-02 -1.0249114960654E-02 -1.0249113325666E-02 -1.0249111468934E-02 
-1.0307459482522E-02 -1.0307459394132E-02 -1.0307459071161E-02 -1.0307458513628E-02 -1.0307457721502E-02 -1.0307456694802E-02 -1.0307455433531E-02 -1.0307453937675E-02 -1.0307452207236E-02 -1.0307450242231E-02 
 5.8339285831151E-05  5.8339280209070E-05  5.8339261751481E-05  5.8339230477975E-05  5.8339186357059E-05  5.8339129408875E-05  5.8339059634651E-05  5.8338977020997E-05  5.8338881570223E-05  5.8338773297271E-05 
 1.1600715693615E-02  2.3201429151698E-02  2.3201421826278E-02  2.3201409418922E-02  2.3201391917042E-02  2.3201369328470E-02  2.3201341653798E-02  2.3201308887954E-02  2.3201271031452E-02  1.1600614045258E-02 
 1.1542358916420E-10  3.4627074924006E-10  5.7711783342576E-10  8.0796480048364E-10  1.0388116042661E-09  1.2696581835309E-09  1.5005044938502E-09  1.7313505045102E-09  1.9621961354529E-09  1.9621961354529E-09 
 0.0000000000000E+00  2.3201420717808E-02  4.6402836656475E-02  6.9604243128906E-02  9.2805635724158E-02  1.1600700901875E-01  1.3920835740510E-01  1.6240967822121E-01  1.8561096484696E-01  2.0881221211661E-01 
 1.7059771149140E-01  1.4964420458200E-01  1.3093862496809E-01  1.1223305294917E-01  9.3527492448659E-02  7.4821947389009E-02  5.6116421690506E-02  3.7410919277691E-02  1.8705444073852E-02  0.0000000000000E+00 
 1.4407436557919E+04  2.8814873691066E+04  2.8814875592718E+04  2.8814878820812E+04  2.8814883375324E+04  2.8814889256269E+04  2.8814896463642E+04  2.8814904997455E+04  2.8814914857697E+04  1.4407463022191E+04 
 1.0585588110120E+05  2.1171176277763E+05  2.1171176467928E+05  2.1171176790737E+05  2.1171177246189E+05  2.1171177834283E+05  2.1171178555020E+05  2.1171179408402E+05  2.1171180394426E+05  1.0585590756547E+05 
 3.5138634161521E+05  7.0277268265518E+05  7.0277268075353E+05  7.0277267752544E+05  7.0277267297093E+05  7.0277266708998E+05  7.0277265988261E+05  7.0277265134880E+05  7.0277264148855E+05  3.5138631515093E+05 
 4.5724222271641E+05  9.1448444543281E+05  9.1448444543281E+05  9.1448444543281E+05  9.1448444543281E+05  9.1448444543281E+05  9.1448444543281E+05  9.1448444543281E+05  9.1448444543281E+05  4.5724222271641E+05 
 3.5000000000000E-01  3.5000000000000E-01  3.5000000000000E-01  3.5000000000000E-01  3.5000000000000E-01  3.5000000000000E-01  3.5000000000000E-01  3.5000000000000E-01  3.5000000000000E-01  3.5000000000000E-01 
 8.5301666666666E+00  1.7060333333333E+01  1.7060333333333E+01  1.7060333333333E+01  1.7060333333333E+01  1.7060333333333E+01  1.7060333333333E+01  1.7060333333333E+01  1.7060333333333E+01  8.5301666666666E+00 
 1.3599635443171E-03  1.3599634132802E-03  1.3599629838970E-03  1.3599622566337E-03  1.3599612307522E-03  1.3599599067117E-03  1.3599582845469E-03  1.3599563639605E-03  1.3599541449827E-03  1.3599516279781E-03 
 4.3744444444444E-05  8.7488888888889E-05  8.7488888888889E-05  8.7488888888889E-05  8.7488888888889E-05  8.7488888888889E-05  8.7488888888889E-05  8.7488888888889E-05  8.7488888888889E-05  4.3744444444444E-05 
 8.3253146327632E+01  8.3253146259488E+01  8.3253146034211E+01  8.3253145651799E+01  8.3253145112254E+01  8.3253144415575E+01  8.3253143561762E+01  8.3253142550814E+01  8.3253141382731E+01  8.3253140057514E+01 
 2.5080187005701E+01  2.5080187073845E+01  2.5080187299122E+01  2.5080187681534E+01  2.5080188221079E+01  2.5080188917759E+01  2.5080189771572E+01  2.5080190782520E+01  2.5080191950602E+01  2.5080193275820E+01 
 0.0000000000000E+00  0.0000000000000E+00  0.0000000000000E+00  0.0000000000000E+00  0.0000000000000E+00  0.0000000000000E+00  0.0000000000000E+00  0.0000000000000E+00  0.0000000000000E+00  0.0000000000000E+00 
 0.0000000000000E+00  0.0000000000000E+00  0.0000000000000E+00  0.0000000000000E+00  0.0000000000000E+00  0.0000000000000E+00  0.0000000000000E+00  0.0000000000000E+00  0.0000000000000E+00  0.0000000000000E+00 
 0.0000000000000E+00  0.0000000000000E+00  0.0000000000000E+00  0.0000000000000E+00  0.0000000000000E+00  0.0000000000000E+00  0.0000000000000E+00  0.0000000000000E+00  0.0000000000000E+00  0.0000000000000E+00 
 0.0000000000000E+00  0.0000000000000E+00  0.0000000000000E+00  0.0000000000000E+00  0.0000000000000E+00  0.0000000000000E+00  0.0000000000000E+00  0.0000000000000E+00  0.0000000000000E+00  0.0000000000000E+00 
 0.0000000000000E+00  0.0000000000000E+00  0.0000000000000E+00  0.0000000000000E+00  0.0000000000000E+00  0.0000000000000E+00  0.0000000000000E+00  0.0000000000000E+00  0.0000000000000E+00  0.0000000000000E+00 
 0.0000000000000E+00  0.0000000000000E+00  0.0000000000000E+00  0.0000000000000E+00  0.0000000000000E+00  0.0000000000000E+00  0.0000000000000E+00  0.0000000000000E+00  0.0000000000000E+00  0.0000000000000E+00 
 0.0000000000000E+00  0.0000000000000E+00  0.0000000000000E+00  0.0000000000000E+00  0.0000000000000E+00  0.0000000000000E+00  0.0000000000000E+00  0.0000000000000E+00  0.0000000000000E+00  0.0000000000000E+00 
ZONE T = "ANOD, 1.0000E-08", I = 10, SOLUTIONTIME = 1.000000E-08
ZONETYPE = ORDERED
DATAPACKING = BLOCK
STRANDID = 1
 0.0000000000000E+00  8.7488888888889E-05  1.7497777777778E-04  2.6246666666667E-04  3.4995555555556E-04  4.3744444444444E-04  5.2493333333333E-04  6.1242222222222E-04  6.9991111111111E-04  7.8740000000000E-04 
 4.2238852159392E-16  1.2427594747691E-15 -3.6123378475707E-13  2.5511614912529E-15 -3.6029809360123E-13 -3.6022314706635E-13  7.2912667597427E-13  7.2844022315244E-13  3.6406816690428E-13  3.6321467189807E-13 
 9.1999997264233E-01  9.1999997295547E-01  9.1999997389489E-01  9.1999997546058E-01  9.1999997765255E-01  9.1999998047080E-01  9.1999998391532E-01  9.1999998798612E-01  9.1999999268319E-01  9.1999999800654E-01 
 4.0000013678834E-02  4.0000013522264E-02  4.0000013052556E-02  4.0000012269709E-02  4.0000011173724E-02  4.0000009764601E-02  4.0000008042339E-02  4.0000006006940E-02  4.0000003658403E-02  4.0000000996732E-02 
 4.0000013678834E-02  4.0000013522264E-02  4.0000013052556E-02  4.0000012269709E-02  4.0000011173724E-02  4.0000009764601E-02  4.0000008042339E-02  4.0000006006940E-02  4.0000003658403E-02  4.0000000996732E-02 
 1.0307456423546E-02  1.0307456423541E-02  1.0307456423524E-02  1.0307456423497E-02  1.0307456423462E-02  1.0307456423423E-02  1.0307456423382E-02  1.0307456423346E-02  1.0307456423318E-02  1.0307456423306E-02 
 0.0000000000000E+00  9.9880879035739E-17  3.9699479137800E-16  8.6989936086266E-16  1.4815784063333E-15  2.1794412147536E-15  2.8953226142759E-15  3.5454829099310E-15  4.0306066741192E-15  4.2358033710088E-15 
-1.0307456423546E-02 -1.0307456423541E-02 -1.0307456423523E-02 -1.0307456423496E-02 -1.0307456423461E-02 -1.0307456423421E-02 -1.0307456423380E-02 -1.0307456423342E-02 -1.0307456423314E-02 -1.0307456423302E-02 
-1.0307459482516E-02 -1.0307459394136E-02 -1.0307459071168E-02 -1.0307458513626E-02 -1.0307457721505E-02 -1.0307456694810E-02 -1.0307455433533E-02 -1.0307453937674E-02 -1.0307452207239E-02 -1.0307450242229E-02 
 3.0589694510058E-09  2.9705955733456E-09  2.6476446868262E-09  2.0901294566639E-09  1.2980436656096E-09  2.7138927390091E-10 -9.8984678439940E-10 -2.4856685112984E-09 -4.2160748538189E-09 -6.1810732573941E-09 
 6.0827311055653E-07  1.1813994974692E-06  1.0529625292894E-06  8.3124069625058E-07  5.1622920552489E-07  1.0792893942836E-07 -3.9366064804016E-07 -9.8854678833214E-07 -1.6767257424971E-06 -1.2291008759578E-06 
 5.5310293979627E-11  1.6593070224388E-10  2.7655039992056E-10  3.8716889081730E-10  4.9778567477489E-10  6.0840022827313E-10  7.1901206571657E-10  8.2962065326427E-10  9.4022501050784E-10  9.4022501050784E-10 
 0.0000000000000E+00  1.1990284515568E-06  2.3162254396357E-06  3.2582534000451E-06  3.9319588803560E-06  4.2440964006617E-06  4.1012364120484E-06  3.4100414503754E-06  2.0774502413512E-06  1.0060536587207E-08 
 9.9999918316635E-09 -1.1889728757306E-06 -2.3061539057618E-06 -3.2482554624145E-06 -3.9219903578730E-06 -4.2340694461769E-06 -4.0912036075970E-06 -3.4000999074010E-06 -2.0674636584889E-06  0.0000000000000E+00 
 1.4407436557919E+04  2.8814873691066E+04  2.8814875592718E+04  2.8814878820812E+04  2.8814883375324E+04  2.8814889256269E+04  2.8814896463642E+04  2.8814904997455E+04  2.8814914857697E+04  1.4407463022191E+04 
 1.0585588110120E+05  2.1171176277763E+05  2.1171176467928E+05  2.1171176790737E+05  2.1171177246189E+05  2.1171177834283E+05  2.1171178555020E+05  2.1171179408402E+05  2.1171180394426E+05  1.0585590756547E+05 
 3.5138634161521E+05  7.0277268265518E+05  7.0277268075353E+05  7.0277267752544E+05  7.0277267297093E+05  7.0277266708998E+05  7.0277265988261E+05  7.0277265134880E+05  7.0277264148855E+05  3.5138631515093E+05 
 4.5724222271641E+05  9.1448444543281E+05  9.1448444543281E+05  9.1448444543281E+05  9.1448444543281E+05  9.1448444543281E+05  9.1448444543281E+05  9.1448444543281E+05  9.1448444543281E+05  4.5724222271641E+05 
 3.5000000000000E-01  3.5000000000000E-01  3.5000000000000E-01  3.5000000000000E-01  3.5000000000000E-01  3.5000000000000E-01  3.5000000000000E-01  3.5000000000000E-01  3.5000000000000E-01  3.5000000000000E-01 
 8.5301666666667E+00  1.7060333333333E+01  1.7060333333333E+01  1.7060333333333E+01  1.7060333333333E+01  1.7060333333333E+01  1.7060333333333E+01  1.7060333333333E+01  1.7060333333333E+01  8.5301666666667E+00 
 7.1308467269869E-08  6.9248324425229E-08  6.1719927079739E-08  4.8723590565869E-08  3.0259033949604E-08  6.3263089483415E-09 -2.3074616442049E-08 -5.7944166096723E-08 -9.8282120855228E-08 -1.4408872932820E-07 
 4.3744444444444E-05  8.7488888888889E-05  8.7488888888889E-05  8.7488888888889E-05  8.7488888888889E-05  8.7488888888889E-05  8.7488888888889E-05  8.7488888888889E-05  8.7488888888889E-05  4.3744444444444E-05 
 8.3253146327632E+01  8.3253146259488E+01  8.3253146034211E+01  8.3253145651799E+01  8.3253145112254E+01  8.3253144415575E+01  8.3253143561762E+01  8.3253142550814E+01  8.3253141382731E+01  8.3253140057514E+01 
 2.5080187005701E+01  2.5080187073845E+01  2.5080187299122E+01  2.5080187681534E+01  2.5080188221079E+01  2.5080188917759E+01  2.5080189771572E+01  2.5080190782520E+01  2.5080191950602E+01  2.5080193275820E+01 
 4.0530950226045E-25  1.9579448700905E-24  6.1834228257560E-24  1.1824678390471E-23  1.7017797288539E-23  1.9745193158071E-23  1.8477735886902E-23  1.3012574814773E-23  5.5000976652693E-24  1.6826343683825E-24 
 4.0530950226045E-17  1.9579448700905E-16  6.1834228257560E-16  1.1824678390471E-15  1.7017797288539E-15  1.9745193158071E-15  1.8477735886902E-15  1.3012574814773E-15  5.5000976652693E-16  1.6826343683825E-16 
 3.9847937265650E-17  1.9243107966055E-16  6.0766474602176E-16  1.1620041996966E-15  1.6723002379252E-15  1.9403043223637E-15  1.8157598627865E-15  1.2787308930048E-15  5.4051202947207E-16  1.6538070022536E-16 
 6.8301296039527E-19  3.3634073485026E-18  1.0677536553842E-17  2.0463639350482E-17  2.9479490928627E-17  3.4214993443329E-17  3.2013725903705E-17  2.2526588472471E-17  9.4977370548574E-18  2.8827366128888E-18 
 0.0000000000000E+00  0.0000000000000E+00  0.0000000000000E+00  0.0000000000000E+00  0.0000000000000E+00  0.0000000000000E+00  0.0000000000000E+00  0.0000000000000E+00  0.0000000000000E+00  0.0000000000000E+00 
 0.0000000000000E+00  0.0000000000000E+00  0.0000000000000E+00  0.0000000000000E+00  0.0000000000000E+00  0.0000000000000E+00  0.0000000000000E+00  0.0000000000000E+00  0.0000000000000E+00  0.0000000000000E+00 
 0.0000000000000E+00  0.0000000000000E+00  0.0000000000000E+00  0.0000000000000E+00  0.0000000000000E+00  0.0000000000000E+00  0.0000000000000E+00  0.0000000000000E+00  0.0000000000000E+00  0.0000000000000E+00 
ZONE T = "ANOD, 2.0000E-08", I = 10, SOLUTIONTIME = 2.000000E-08
ZONETYPE = ORDERED
DATAPACKING = BLOCK
STRANDID = 1
 0.0000000000000E+00  8.7488888888889E-05  1.7497777777778E-04  2.6246666666667E-04  3.4995555555556E-04  4.3744444444444E-04  5.2493333333333E-04  6.1242222222222E-04  6.9991111111111E-04  7.8740000000000E-04 
-1.8118108866821E-13  9.0926323659328E-13  1.2732029194777E-12  1.2737809090783E-12  1.2741401538326E-12  1.8459268886392E-13 -5.4209535554581E-13 -1.6324042204898E-12 -1.6335677778840E-12 -2.3608363424619E-12 
 9.1999997264234E-01  9.1999997295548E-01  9.1999997389489E-01  9.1999997546059E-01  9.1999997765256E-01  9.1999998047080E-01  9.1999998391533E-01  9.1999998798613E-01  9.1999999268320E-01  9.1999999800654E-01 
 4.0000013678831E-02  4.0000013522262E-02  4.0000013052554E-02  4.0000012269707E-02  4.0000011173722E-02  4.0000009764598E-02  4.0000008042337E-02  4.0000006006937E-02  4.0000003658401E-02  4.0000000996731E-02 
 4.0000013678831E-02  4.0000013522262E-02  4.0000013052554E-02  4.0000012269707E-02  4.0000011173722E-02  4.0000009764598E-02  4.0000008042337E-02  4.0000006006937E-02  4.0000003658401E-02  4.0000000996731E-02 
 1.0307456420755E-02  1.0307456420749E-02  1.0307456420732E-02  1.0307456420705E-02  1.0307456420671E-02  1.0307456420631E-02  1.0307456420590E-02  1.0307456420554E-02  1.0307456420526E-02  1.0307456420514E-02 
 0.0000000000000E+00  9.8304362110628E-17  3.9402710721143E-16  8.6572600894673E-16  1.4763847825141E-15  2.1734129381167E-15  2.8886452541434E-15  3.5383419433572E-15  4.0231875226051E-15  4.2282914184666E-15 
-1.0307456420755E-02 -1.0307456420749E-02 -1.0307456420732E-02 -1.0307456420704E-02 -1.0307456420669E-02 -1.0307456420629E-02 -1.0307456420588E-02 -1.0307456420550E-02 -1.0307456420522E-02 -1.0307456420510E-02 
-1.0307459482525E-02 -1.0307459394133E-02 -1.0307459071170E-02 -1.0307458513627E-02 -1.0307457721506E-02 -1.0307456694809E-02 -1.0307455433535E-02 -1.0307453937673E-02 -1.0307452207240E-02 -1.0307450242233E-02 
 3.0617706130859E-09  2.9733846929753E-09  2.6504381449993E-09  2.0929229408578E-09  1.3008367993894E-09  2.7418048387240E-10 -9.8705239121033E-10 -2.4828766750917E-09 -4.2132817026919E-09 -6.1782773948943E-09 
 6.0883006031040E-07  1.1825097233833E-06  1.0540736524971E-06  8.3235105151653E-07  5.1734119062465E-07  1.0904047792369E-07 -3.9254965963076E-07 -9.8743613079126E-07 -1.6756153137049E-06 -1.2285449337871E-06 
 5.5310298410402E-11  1.6593070857503E-10  2.7655041266213E-10  3.8716891467545E-10  4.9778570053340E-10  6.0840025975575E-10  7.1901210135460E-10  8.2962069646283E-10  9.4022455834993E-10  9.4022455834993E-10 
 0.0000000000000E+00  1.2001330378765E-06  2.3184346122514E-06  3.2615671588950E-06  3.9363772253903E-06  4.2496193317856E-06  4.1078639290748E-06  3.4178656020078E-06  2.0863789786018E-06  2.0005459924684E-08 
 2.0000067303028E-08 -1.1800848599318E-06 -2.2983765584668E-06 -3.2415889218766E-06 -3.9164349822670E-06 -4.2296257550517E-06 -4.0878711755782E-06 -3.3978782917744E-06 -2.0663525803003E-06  0.0000000000000E+00 
 1.4407436557919E+04  2.8814873691066E+04  2.8814875592718E+04  2.8814878820812E+04  2.8814883375324E+04  2.8814889256269E+04  2.8814896463642E+04  2.8814904997455E+04  2.8814914857697E+04  1.4407463022191E+04 
 1.0585588110120E+05  2.1171176277763E+05  2.1171176467928E+05  2.1171176790737E+05  2.1171177246189E+05  2.1171177834283E+05  2.1171178555020E+05  2.1171179408402E+05  2.1171180394426E+05  1.0585590756547E+05 
 3.5138634161521E+05  7.0277268265518E+05  7.0277268075353E+05  7.0277267752544E+05  7.0277267297093E+05  7.0277266708998E+05  7.0277265988261E+05  7.0277265134880E+05  7.0277264148855E+05  3.5138631515093E+05 
 4.5724222271641E+05  9.1448444543281E+05  9.1448444543281E+05  9.1448444543281E+05  9.1448444543281E+05  9.1448444543281E+05  9.1448444543281E+05  9.1448444543281E+05  9.1448444543281E+05  4.5724222271641E+05 
 3.5000000000000E-01  3.5000000000000E-01  3.5000000000000E-01  3.5000000000000E-01  3.5000000000000E-01  3.5000000000000E-01  3.5000000000000E-01  3.5000000000000E-01  3.5000000000000E-01  3.5000000000000E-01 
 8.5301666666667E+00  1.7060333333333E+01  1.7060333333333E+01  1.7060333333333E+01  1.7060333333333E+01  1.7060333333333E+01  1.7060333333333E+01  1.7060333333333E+01  1.7060333333333E+01  8.5301666666667E+00 
 7.1373759048522E-08  6.9313400874344E-08  6.1785056124171E-08  4.8788674597010E-08  3.0324213514272E-08  6.3914623350673E-09 -2.3009495298886E-08 -5.7879064347585E-08 -9.8217032514304E-08 -1.4402355566953E-07 
 4.3744444444444E-05  8.7488888888889E-05  8.7488888888889E-05  8.7488888888889E-05  8.7488888888889E-05  8.7488888888889E-05  8.7488888888889E-05  8.7488888888889E-05  8.7488888888889E-05  4.3744444444444E-05 
 8.3253146327632E+01  8.3253146259488E+01  8.3253146034211E+01  8.3253145651799E+01  8.3253145112254E+01  8.3253144415575E+01  8.3253143561762E+01  8.3253142550814E+01  8.3253141382731E+01  8.3253140057514E+01 
 2.5080187005701E+01  2.5080187073845E+01  2.5080187299122E+01  2.5080187681534E+01  2.5080188221079E+01  2.5080188917759E+01  2.5080189771572E+01  2.5080190782520E+01  2.5080191950602E+01  2.5080193275820E+01 
 8.1112905234521E-25  3.9190578368566E-24  1.2377827556198E-23  2.3672304178892E-23  3.4072519578362E-23  3.9540258229369E-23  3.7013310591926E-23  2.6081703231640E-23  1.1039300732280E-23  3.3903990163628E-24 
 4.0581955008476E-17  1.9611129667661E-16  6.1944047304425E-16  1.1847625788421E-15  1.7054722289824E-15  1.9795065071298E-15  1.8535574705024E-15  1.3069128416867E-15  5.5392030670106E-16  1.7077646479802E-16 
 7.9768270466039E-17  3.8521789701885E-16  1.2164949012122E-15  2.3263848169341E-15  3.3483755222539E-15  3.8856674894947E-15  3.6373560351066E-15  2.5631470121630E-15  1.0849451394445E-15  3.3327703527924E-16 
 1.3446347684823E-18  6.6878866668136E-18  2.1287854407676E-17  4.0845600955098E-17  5.8876435582323E-17  6.8358333442216E-17  6.3975024085992E-17  4.5023311001029E-17  1.8984933783442E-17  5.7628663570361E-18 
 0.0000000000000E+00  0.0000000000000E+00  0.0000000000000E+00  0.0000000000000E+00  0.0000000000000E+00  0.0000000000000E+00  0.0000000000000E+00  0.0000000000000E+00  0.0000000000000E+00  0.0000000000000E+00 
 0.0000000000000E+00  0.0000000000000E+00  0.0000000000000E+00  0.0000000000000E+00  0.0000000000000E+00  0.0000000000000E+00  0.0000000000000E+00  0.0000000000000E+00  0.0000000000000E+00  0.0000000000000E+00 
 0.0000000000000E+00  0.0000000000000E+00  0.0000000000000E+00  0.0000000000000E+00  0.0000000000000E+00  0.0000000000000E+00  0.0000000000000E+00  0.0000000000000E+00  0.0000000000000E+00  0.0000000000000E+00 
ZONE T = "ANOD, 3.0000E-08", I = 10, SOLUTIONTIME = 3.000000E-08
ZONETYPE = ORDERED
DATAPACKING = BLOCK
STRANDID = 1
 0.0000000000000E+00  8.7488888888889E-05  1.7497777777778E-04  2.6246666666667E-04  3.4995555555556E-04  4.3744444444444E-04  5.2493333333333E-04  6.1242222222222E-04  6.9991111111111E-04  7.8740000000000E-04 
 3.6363088874557E-13 -7.2517038131059E-13 -3.6122992702062E-13 -7.2385889260489E-13 -1.4499143330413E-12 -1.0866301152837E-12 -1.4501096607261E-12 -1.4507945702059E-12 -1.0887496274093E-12  2.0832198109641E-17 
 9.1999997264234E-01  9.1999997295548E-01  9.1999997389490E-01  9.1999997546059E-01  9.1999997765256E-01  9.1999998047081E-01  9.1999998391533E-01  9.1999998798613E-01  9.1999999268320E-01  9.1999999800654E-01 
 4.0000013678829E-02  4.0000013522260E-02  4.0000013052551E-02  4.0000012269705E-02  4.0000011173719E-02  4.0000009764596E-02  4.0000008042334E-02  4.0000006006935E-02  4.0000003658399E-02  4.0000000996730E-02 
 4.0000013678829E-02  4.0000013522260E-02  4.0000013052551E-02  4.0000012269705E-02  4.0000011173719E-02  4.0000009764596E-02  4.0000008042334E-02  4.0000006006935E-02  4.0000003658399E-02  4.0000000996730E-02 
 1.0307456417962E-02  1.0307456417957E-02  1.0307456417940E-02  1.0307456417913E-02  1.0307456417878E-02  1.0307456417839E-02  1.0307456417798E-02  1.0307456417761E-02  1.0307456417734E-02  1.0307456417722E-02 
 0.0000000000000E+00  9.6727616192898E-17  3.9105907221219E-16  8.6155214284472E-16  1.4711908328998E-15  2.1673841189674E-15  2.8819670725808E-15  3.5311998098003E-15  4.0157670645864E-15  4.2207783339022E-15 
-1.0307456417962E-02 -1.0307456417957E-02 -1.0307456417939E-02 -1.0307456417912E-02 -1.0307456417877E-02 -1.0307456417837E-02 -1.0307456417795E-02 -1.0307456417758E-02 -1.0307456417730E-02 -1.0307456417717E-02 
-1.0307459482525E-02 -1.0307459394136E-02 -1.0307459071169E-02 -1.0307458513631E-02 -1.0307457721507E-02 -1.0307456694811E-02 -1.0307455433536E-02 -1.0307453937677E-02 -1.0307452207240E-02 -1.0307450242231E-02 
 3.0645623781689E-09  2.9761795892341E-09  2.6532295024223E-09  2.0957188033577E-09  1.3036298377594E-09  2.7697434276663E-10 -9.8425890007747E-10 -2.4800808386127E-09 -4.2104893408640E-09 -6.1754860218588E-09 
 6.0938550345515E-07  1.1836206110344E-06  1.0551845455946E-06  8.3346367929094E-07  5.1845047839710E-07  1.1015166376493E-07 -3.9143904974584E-07 -9.8632422194103E-07 -1.6745029827590E-06 -1.2279901013194E-06 
 5.5310299703742E-11  1.6593071716120E-10  2.7655042854113E-10  3.8716893088610E-10  4.9778572950097E-10  6.0840029123838E-10  7.1901214013006E-10  8.2962073782497E-10  9.4022410645971E-10  9.4022410645971E-10 
 0.0000000000000E+00  1.2012376241977E-06  2.3206437848670E-06  3.2648809177674E-06  3.9408876192677E-06  4.2552343117027E-06  4.1144914461012E-06  3.4255977048370E-06  2.0953077158524E-06  3.0133371215348E-08 
 3.0000007800460E-08 -1.1711957934127E-06 -2.2905983570365E-06 -3.2349224563249E-06 -3.9108795218253E-06 -4.2251805795324E-06 -4.0845368733116E-06 -3.3956552233823E-06 -2.0652416068170E-06  0.0000000000000E+00 
 1.4407436557919E+04  2.8814873691066E+04  2.8814875592718E+04  2.8814878820812E+04  2.8814883375324E+04  2.8814889256269E+04  2.8814896463642E+04  2.8814904997455E+04  2.8814914857697E+04  1.4407463022191E+04 
 1.0585588110120E+05  2.1171176277763E+05  2.1171176467928E+05  2.1171176790737E+05  2.1171177246189E+05  2.1171177834283E+05  2.1171178555020E+05  2.1171179408402E+05  2.1171180394426E+05  1.0585590756547E+05 
 3.5138634161521E+05  7.0277268265518E+05  7.0277268075353E+05  7.0277267752544E+05  7.0277267297093E+05  7.0277266708998E+05  7.0277265988261E+05  7.0277265134880E+05  7.0277264148855E+05  3.5138631515093E+05 
 4.5724222271641E+05  9.1448444543281E+05  9.1448444543281E+05  9.1448444543281E+05  9.1448444543281E+05  9.1448444543281E+05  9.1448444543281E+05  9.1448444543281E+05  9.1448444543281E+05  4.5724222271641E+05 
 3.5000000000000E-01  3.5000000000000E-01  3.5000000000000E-01  3.5000000000000E-01  3.5000000000000E-01  3.5000000000000E-01  3.5000000000000E-01  3.5000000000000E-01  3.5000000000000E-01  3.5000000000000E-01 
 8.5301666666667E+00  1.7060333333333E+01  1.7060333333333E+01  1.7060333333333E+01  1.7060333333333E+01  1.7060333333333E+01  1.7060333333333E+01  1.7060333333333E+01  1.7060333333333E+01  8.5301666666667E+00 
 7.1438874205875E-08  6.9378516111508E-08  6.1850171680578E-08  4.8853891832376E-08  3.0389234973746E-08  6.4565950507959E-09 -2.2944396343126E-08 -5.7813889252322E-08 -9.8151832677693E-08 -1.4395851210247E-07 
 4.3744444444444E-05  8.7488888888889E-05  8.7488888888889E-05  8.7488888888889E-05  8.7488888888889E-05  8.7488888888889E-05  8.7488888888889E-05  8.7488888888889E-05  8.7488888888889E-05  4.3744444444444E-05 
 8.3253146327632E+01  8.3253146259488E+01  8.3253146034211E+01  8.3253145651799E+01  8.3253145112254E+01  8.3253144415575E+01  8.3253143561762E+01  8.3253142550814E+01  8.3253141382731E+01  8.3253140057514E+01 
 2.5080187005701E+01  2.5080187073845E+01  2.5080187299122E+01  2.5080187681534E+01  2.5080188221079E+01  2.5080188917759E+01  2.5080189771572E+01  2.5080190782520E+01  2.5080191950602E+01  2.5080193275820E+01 
 1.2174626802048E-24  5.8833451724715E-24  1.8583227604241E-23  3.5542903410112E-23  5.1165043534891E-23  5.9386094893565E-23  5.5606819532811E-23  3.9206936540854E-23  1.6617449392548E-23  5.1239827751832E-24 
 4.0633362785960E-17  1.9642873356149E-16  6.2054000480430E-16  1.1870599231220E-15  1.7092523956528E-15  1.9845836664196E-15  1.8593508940885E-15  1.3125233309214E-15  5.5781486602677E-16  1.7335837588204E-16 
 1.1976106530602E-16  5.7836078060019E-16  1.8264915825556E-15  3.4931442828058E-15  5.0283134030310E-15  5.8361794167951E-15  5.4647980441797E-15  3.8532034864746E-15  1.6332833453608E-15  5.0375788220860E-16 
 1.9852027144599E-18  9.9737366469566E-18  3.1831177868585E-17  6.1146058205413E-17  8.8190950458126E-17  1.0243007256134E-16  9.5883909101423E-17  6.7490167610722E-17  2.8461593893930E-17  8.6403953097223E-18 
 0.0000000000000E+00  0.0000000000000E+00  0.0000000000000E+00  0.0000000000000E+00  0.0000000000000E+00  0.0000000000000E+00  0.0000000000000E+00  0.0000000000000E+00  0.0000000000000E+00  0.0000000000000E+00 
 0.0000000000000E+00  0.0000000000000E+00  0.0000000000000E+00  0.0000000000000E+00  0.0000000000000E+00  0.0000000000000E+00  0.0000000000000E+00  0.0000000000000E+00  0.0000000000000E+00  0.0000000000000E+00 
 0.0000000000000E+00  0.0000000000000E+00  0.0000000000000E+00  0.0000000000000E+00  0.0000000000000E+00  0.0000000000000E+00  0.0000000000000E+00  0.0000000000000E+00  0.0000000000000E+00  0.0000000000000E+00 
ZONE T = "ANOD, 4.0000E-08", I = 10, SOLUTIONTIME = 4.000000E-08
ZONETYPE = ORDERED
DATAPACKING = BLOCK
STRANDID = 1
 0.0000000000000E+00  8.7488888888889E-05  1.7497777777778E-04  2.6246666666667E-04  3.4995555555556E-04  4.3744444444444E-04  5.2493333333333E-04  6.1242222222222E-04  6.9991111111111E-04  7.8740000000000E-04 
-1.8118031771030E-13 -1.8035763299164E-13 -5.4283186212507E-13 -9.0546005607917E-13 -1.7868381254699E-13 -1.7860655174040E-13 -1.7887759765978E-13  9.1006144733421E-13  5.4569170578692E-13  1.8163164015115E-13 
 9.1999997264235E-01  9.1999997295549E-01  9.1999997389490E-01  9.1999997546060E-01  9.1999997765257E-01  9.1999998047081E-01  9.1999998391534E-01  9.1999998798613E-01  9.1999999268321E-01  9.1999999800654E-01 
 4.0000013678827E-02  4.0000013522257E-02  4.0000013052549E-02  4.0000012269702E-02  4.0000011173717E-02  4.0000009764593E-02  4.0000008042332E-02  4.0000006006933E-02  4.0000003658396E-02  4.0000000996729E-02 
 4.0000013678827E-02  4.0000013522257E-02  4.0000013052549E-02  4.0000012269702E-02  4.0000011173717E-02  4.0000009764593E-02  4.0000008042332E-02  4.0000006006933E-02  4.0000003658396E-02  4.0000000996729E-02 
 1.0307456415170E-02  1.0307456415164E-02  1.0307456415147E-02  1.0307456415120E-02  1.0307456415086E-02  1.0307456415046E-02  1.0307456415005E-02  1.0307456414968E-02  1.0307456414941E-02  1.0307456414929E-02 
 0.0000000000000E+00  9.5150743227568E-17  3.8809079350396E-16  8.5737809553950E-16  1.4659965316297E-15  2.1613553699145E-15  2.8752891978732E-15  3.5240583482225E-15  4.0083474106035E-15  4.2132659045145E-15 
-1.0307456415170E-02 -1.0307456415164E-02 -1.0307456415147E-02 -1.0307456415119E-02 -1.0307456415084E-02 -1.0307456415044E-02 -1.0307456415002E-02 -1.0307456414965E-02 -1.0307456414937E-02 -1.0307456414924E-02 
-1.0307459482524E-02 -1.0307459394140E-02 -1.0307459071172E-02 -1.0307458513634E-02 -1.0307457721512E-02 -1.0307456694806E-02 -1.0307455433540E-02 -1.0307453937676E-02 -1.0307452207243E-02 -1.0307450242232E-02 
 3.0673544624410E-09  2.9789755766341E-09  2.6560255054348E-09  2.0985149052494E-09  1.3064282173431E-09  2.7976269044439E-10 -9.8146192561988E-10 -2.4772885062752E-09 -4.2076931053986E-09 -6.1726928655276E-09 
 6.0994022903730E-07  1.1847315027702E-06  1.0562964558064E-06  8.3457485696258E-07  5.1956340163846E-07  1.1126168816235E-07 -3.9032772774472E-07 -9.8521376455518E-07 -1.6733922462454E-06 -1.2274344035557E-06 