TITLE = "Solution on Domain BulkDomain1D_1"
VARIABLES = "x [m]"  
"Vel_axial" 	"MF_sp(ECDMC)" 	"MF_sp(Li+)" 	"MF_sp(PF6-)" 	"Volt(Electroly)" 	"qHeat_accum [J/m3]" 	"qHeat_step [W/m3]" 	"Joule_Lyte [W/m3]" 	"Joule_Solid [W/m3]" 	
ZONE T = "t = 0 [s]" I = 10 SOLUTIONTIME = 0.0000000000000E+00
0.0007874 	1.45e-10 	0.92 	0.04 	0.04 	0.0102491 	
0 	0.0 	 0.0 	 0.0 	 
0.000841022 	1.45e-10 	0.92 	0.04 	0.04 	0.0102491 	
0 	0.0 	 0.0 	 0.0 	 
0.000894644 	1.45e-10 	0.92 	0.04 	0.04 	0.0102491 	
0 	0.0 	 0.0 	 0.0 	 
0.000948267 	1.45e-10 	0.92 	0.04 	0.04 	0.0102491 	
0 	0.0 	 0.0 	 0.0 	 
0.00100189 	1.45e-10 	0.92 	0.04 	0.04 	0.0102491 	
0 	0.0 	 0.0 	 0.0 	 
0.00105551 	1.45e-10 	0.92 	0.04 	0.04 	0.0102491 	
0 	0.0 	 0.0 	 0.0 	 
0.00110913 	1.45e-10 	0.92 	0.04 	0.04 	0.0102491 	
0 	0.0 	 0.0 	 0.0 	 
0.00116276 	1.45e-10 	0.92 	0.04 	0.04 	0.0102491 	
0 	0.0 	 0.0 	 0.0 	 
0.00121638 	1.45e-10 	0.92 	0.04 	0.04 	0.0102491 	
0 	0.0 	 0.0 	 0.0 	 
0.00127 	1.36944e-10 	0.92 	0.04 	0.04 	0.0102491 	
0 	0.0 	 0.0 	 0.0 	 
ZONE T = "t = 1e-08 [s]" I = 10 SOLUTIONTIME = 1.0000000000000E-08
0.0007874 	-7.26409e-13 	0.92 	0.04 	0.04 	0.0103075 	
3.41548e-29 	3.41548e-21 	3.41548e-21 	0 	
0.000841022 	-7.26409e-13 	0.92 	0.04 	0.04 	0.0103075 	
3.09101e-29 	3.09101e-21 	3.09101e-21 	0 	
0.000894644 	-7.26409e-13 	0.92 	0.04 	0.04 	0.0103075 	
3.09101e-29 	3.09101e-21 	3.09101e-21 	0 	
0.000948267 	-7.26409e-13 	0.92 	0.04 	0.04 	0.0103075 	
3.09101e-29 	3.09101e-21 	3.09101e-21 	0 	
0.00100189 	-7.26409e-13 	0.92 	0.04 	0.04 	0.0103075 	
3.09101e-29 	3.09101e-21 	3.09101e-21 	0 	
0.00105551 	-7.26409e-13 	0.92 	0.04 	0.04 	0.0103075 	
3.09101e-29 	3.09101e-21 	3.09101e-21 	0 	
0.00110913 	-7.26409e-13 	0.92 	0.04 	0.04 	0.0103075 	
3.09101e-29 	3.09101e-21 	3.09101e-21 	0 	
0.00116276 	-7.26409e-13 	0.92 	0.04 	0.04 	0.0103075 	
3.09101e-29 	3.09101e-21 	3.09101e-21 	0 	
0.00121638 	-7.26409e-13 	0.92 	0.04 	0.04 	0.0103075 	
3.09101e-29 	3.09101e-21 	3.09101e-21 	0 	
0.00127 	9.07498e-13 	0.92 	0.04 	0.04 	0.0103075 	
3.41548e-29 	3.41548e-21 	3.41548e-21 	0 	
ZONE T = "t = 2e-08 [s]" I = 10 SOLUTIONTIME = 2.0000000000000E-08
0.0007874 	-2.36084e-12 	0.92 	0.04 	0.04 	0.0103075 	
1.57454e-28 	1.23299e-20 	1.23299e-20 	0 	
0.000841022 	-2.36084e-12 	0.92 	0.04 	0.04 	0.0103075 	
1.54209e-28 	1.23299e-20 	1.23299e-20 	0 	
0.000894644 	-2.36084e-12 	0.92 	0.04 	0.04 	0.0103075 	
1.54209e-28 	1.23299e-20 	1.23299e-20 	0 	
0.000948267 	-2.36084e-12 	0.92 	0.04 	0.04 	0.0103075 	
1.54209e-28 	1.23299e-20 	1.23299e-20 	0 	
0.00100189 	-2.36084e-12 	0.92 	0.04 	0.04 	0.0103075 	
1.54209e-28 	1.23299e-20 	1.23299e-20 	0 	
0.00105551 	-2.36084e-12 	0.92 	0.04 	0.04 	0.0103075 	
1.54209e-28 	1.23299e-20 	1.23299e-20 	0 	
0.00110913 	-2.36084e-12 	0.92 	0.04 	0.04 	0.0103075 	
1.54209e-28 	1.23299e-20 	1.23299e-20 	0 	
0.00116276 	-2.36084e-12 	0.92 	0.04 	0.04 	0.0103075 	
1.54209e-28 	1.23299e-20 	1.23299e-20 	0 	
0.00121638 	-2.36084e-12 	0.92 	0.04 	0.04 	0.0103075 	
1.54209e-28 	1.23299e-20 	1.23299e-20 	0 	
0.00127 	-2.36137e-12 	0.92 	0.04 	0.04 	0.0103075 	
1.57454e-28 	1.23299e-20 	1.23299e-20 	0 	
ZONE T = "t = 3e-08 [s]" I = 10 SOLUTIONTIME = 3.0000000000000E-08
0.0007874 	2.0832e-17 	0.92 	0.04 	0.04 	0.0103075 	
4.44696e-28 	2.87242e-20 	2.87242e-20 	0 	
0.000841022 	2.08319e-17 	0.92 	0.04 	0.04 	0.0103075 	
4.31717e-28 	2.77508e-20 	2.77508e-20 	0 	
0.000894644 	2.08319e-17 	0.92 	0.04 	0.04 	0.0103075 	
4.31717e-28 	2.77508e-20 	2.77508e-20 	0 	
0.000948267 	2.08319e-17 	0.92 	0.04 	0.04 	0.0103075 	
4.31717e-28 	2.77508e-20 	2.77508e-20 	0 	
0.00100189 	2.08319e-17 	0.92 	0.04 	0.04 	0.0103075 	
4.31717e-28 	2.77508e-20 	2.77508e-20 	0 	
0.00105551 	2.08319e-17 	0.92 	0.04 	0.04 	0.0103075 	
4.31717e-28 	2.77508e-20 	2.77508e-20 	0 	
0.00110913 	2.08319e-17 	0.92 	0.04 	0.04 	0.0103075 	
4.21983e-28 	2.67774e-20 	2.67774e-20 	0 	
0.00116276 	2.08319e-17 	0.92 	0.04 	0.04 	0.0103075 	
4.31717e-28 	2.77508e-20 	2.77508e-20 	0 	
0.00121638 	2.0832e-17 	0.92 	0.04 	0.04 	0.0103075 	
4.31717e-28 	2.77508e-20 	2.77508e-20 	0 	
0.00127 	-1.09013e-12 	0.92 	0.04 	0.04 	0.0103075 	
4.25228e-28 	2.67774e-20 	2.67774e-20 	0 	
ZONE T = "t = 4e-08 [s]" I = 10 SOLUTIONTIME = 4.0000000000000E-08
0.0007874 	1.81632e-13 	0.92 	0.04 	0.04 	0.0103075 	
9.37892e-28 	4.93196e-20 	4.93196e-20 	0 	
0.000841022 	1.81632e-13 	0.92 	0.04 	0.04 	0.0103075 	
9.24913e-28 	4.93196e-20 	4.93196e-20 	0 	
0.000894644 	1.81632e-13 	0.92 	0.04 	0.04 	0.0103075 	
9.24913e-28 	4.93196e-20 	4.93196e-20 	0 	
0.000948267 	1.81632e-13 	0.92 	0.04 	0.04 	0.0103075 	
9.24913e-28 	4.93196e-20 	4.93196e-20 	0 	
0.00100189 	1.81632e-13 	0.92 	0.04 	0.04 	0.0103075 	
9.24913e-28 	4.93196e-20 	4.93196e-20 	0 	
0.00105551 	1.81632e-13 	0.92 	0.04 	0.04 	0.0103075 	
9.24913e-28 	4.93196e-20 	4.93196e-20 	0 	
0.00110913 	1.81632e-13 	0.92 	0.04 	0.04 	0.0103075 	
9.15179e-28 	4.93196e-20 	4.93196e-20 	0 	
0.00116276 	1.81632e-13 	0.92 	0.04 	0.04 	0.0103075 	
9.12105e-28 	4.80388e-20 	4.80388e-20 	0 	
0.00121638 	1.81632e-13 	0.92 	0.04 	0.04 	0.0103075 	
9.12105e-28 	4.80388e-20 	4.80388e-20 	0 	
0.00127 	7.25914e-13 	0.92 	0.04 	0.04 	0.0103075 	
9.18423e-28 	4.93196e-20 	4.93196e-20 	0 	
ZONE T = "t = 5.5e-08 [s]" I = 10 SOLUTIONTIME = 5.5000000000000E-08
0.0007874 	-1.08958e-12 	0.92 	0.04 	0.04 	0.0103075 	
2.32321e-27 	9.23547e-20 	9.23547e-20 	0 	
0.000841022 	-1.08958e-12 	0.92 	0.04 	0.04 	0.0103075 	
2.31023e-27 	9.23547e-20 	9.23547e-20 	0 	
0.000894644 	-1.08958e-12 	0.92 	0.04 	0.04 	0.0103075 	
2.31023e-27 	9.23547e-20 	9.23547e-20 	0 	
0.000948267 	-1.08958e-12 	0.92 	0.04 	0.04 	0.0103075 	
2.31023e-27 	9.23547e-20 	9.23547e-20 	0 	
0.00100189 	-1.08958e-12 	0.92 	0.04 	0.04 	0.0103075 	
2.31023e-27 	9.23547e-20 	9.23547e-20 	0 	
0.00105551 	-1.08958e-12 	0.92 	0.04 	0.04 	0.0103075 	
2.33713e-27 	9.41478e-20 	9.41478e-20 	0 	
0.00110913 	-1.08958e-12 	0.92 	0.04 	0.04 	0.0103075 	
2.3274e-27 	9.41478e-20 	9.41478e-20 	0 	
0.00116276 	-1.08958e-12 	0.92 	0.04 	0.04 	0.0103075 	
2.29742e-27 	9.23547e-20 	9.23547e-20 	0 	
0.00121638 	-1.08958e-12 	0.92 	0.04 	0.04 	0.0103075 	
2.29742e-27 	9.23547e-20 	9.23547e-20 	0 	
0.00127 	-1.09012e-12 	0.92 	0.04 	0.04 	0.0103075 	
2.30374e-27 	9.23547e-20 	9.23547e-20 	0 	
ZONE T = "t = 7.75e-08 [s]" I = 10 SOLUTIONTIME = 7.7500000000000E-08
0.0007874 	1.13003e-12 	0.92 	0.04 	0.04 	0.0103075 	
6.53143e-27 	1.87032e-19 	1.87032e-19 	0 	
0.000841022 	1.13003e-12 	0.92 	0.04 	0.04 	0.0103075 	
6.46197e-27 	1.84522e-19 	1.84522e-19 	0 	
0.000894644 	1.13003e-12 	0.92 	0.04 	0.04 	0.0103075 	
6.40548e-27 	1.82011e-19 	1.82011e-19 	0 	
0.000948267 	1.13003e-12 	0.92 	0.04 	0.04 	0.0103075 	
6.46197e-27 	1.84522e-19 	1.84522e-19 	0 	
0.00100189 	1.13003e-12 	0.92 	0.04 	0.04 	0.0103075 	
6.46197e-27 	1.84522e-19 	1.84522e-19 	0 	
0.00105551 	1.13003e-12 	0.92 	0.04 	0.04 	0.0103075 	
6.48886e-27 	1.84522e-19 	1.84522e-19 	0 	
0.00110913 	1.13003e-12 	0.92 	0.04 	0.04 	0.0103075 	
6.47913e-27 	1.84521e-19 	1.84521e-19 	0 	
0.00116276 	1.13003e-12 	0.92 	0.04 	0.04 	0.0103075 	
6.39268e-27 	1.82011e-19 	1.82011e-19 	0 	
0.00121638 	1.13003e-12 	0.92 	0.04 	0.04 	0.0103075 	
6.44916e-27 	1.84521e-19 	1.84521e-19 	0 	
0.00127 	1.37164e-12 	0.92 	0.04 	0.04 	0.0103075 	
6.51196e-27 	1.87032e-19 	1.87032e-19 	0 	
ZONE T = "t = 1.1125e-07 [s]" I = 10 SOLUTIONTIME = 1.1125000000000E-07
0.0007874 	-5.91817e-13 	0.92 	0.04 	0.04 	0.0103075 	
1.92402e-26 	3.76557e-19 	3.76557e-19 	0 	
0.000841022 	-5.91817e-13 	0.92 	0.04 	0.04 	0.0103075 	
1.91708e-26 	3.76557e-19 	3.76557e-19 	0 	
0.000894644 	-5.91817e-13 	0.92 	0.04 	0.04 	0.0103075 	
1.92359e-26 	3.8016e-19 	3.8016e-19 	0 	
0.000948267 	-5.91817e-13 	0.92 	0.04 	0.04 	0.0103075 	
1.92924e-26 	3.8016e-19 	3.8016e-19 	0 	
0.00100189 	-5.91817e-13 	0.92 	0.04 	0.04 	0.0103075 	
1.91708e-26 	3.76557e-19 	3.76557e-19 	0 	
0.00105551 	-5.91817e-13 	0.92 	0.04 	0.04 	0.0103075 	
1.93193e-26 	3.8016e-19 	3.8016e-19 	0 	
0.00110913 	-5.91817e-13 	0.92 	0.04 	0.04 	0.0103075 	
1.93095e-26 	3.8016e-19 	3.8016e-19 	0 	
0.00116276 	-5.91817e-13 	0.92 	0.04 	0.04 	0.0103075 	
1.92231e-26 	3.8016e-19 	3.8016e-19 	0 	
0.00121638 	-5.91817e-13 	0.92 	0.04 	0.04 	0.0103075 	
1.92796e-26 	3.8016e-19 	3.8016e-19 	0 	
0.00127 	-9.152e-13 	0.92 	0.04 	0.04 	0.0103075 	
1.92208e-26 	3.76557e-19 	3.76557e-19 	0 	
ZONE T = "t = 1.61875e-07 [s]" I = 10 SOLUTIONTIME = 1.6187500000000E-07
0.0007874 	-2.50994e-13 	0.92 	0.04 	0.04 	0.0103075 	
5.97165e-26 	7.99531e-19 	7.99531e-19 	0 	
0.000841022 	-2.50994e-13 	0.92 	0.04 	0.04 	0.0103075 	
5.9647e-26 	7.99531e-19 	7.99531e-19 	0 	
0.000894644 	-2.50994e-13 	0.92 	0.04 	0.04 	0.0103075 	
5.99775e-26 	8.04773e-19 	8.04773e-19 	0 	
0.000948267 	-2.50994e-13 	0.92 	0.04 	0.04 	0.0103075 	
6.0034e-26 	8.04773e-19 	8.04773e-19 	0 	
0.00100189 	-2.50994e-13 	0.92 	0.04 	0.04 	0.0103075 	
5.9647e-26 	7.99531e-19 	7.99531e-19 	0 	
0.00105551 	-2.50994e-13 	0.92 	0.04 	0.04 	0.0103075 	
6.00609e-26 	8.04773e-19 	8.04773e-19 	0 	
0.00110913 	-2.50994e-13 	0.92 	0.04 	0.04 	0.0103075 	
6.00512e-26 	8.04773e-19 	8.04773e-19 	0 	
0.00116276 	-2.50994e-13 	0.92 	0.04 	0.04 	0.0103075 	
5.96993e-26 	7.99531e-19 	7.99531e-19 	0 	
0.00121638 	-2.50994e-13 	0.92 	0.04 	0.04 	0.0103075 	
6.00212e-26 	8.04773e-19 	8.04773e-19 	0 	
0.00127 	-1.43911e-13 	0.92 	0.04 	0.04 	0.0103075 	
6.02278e-26 	8.10016e-19 	8.10016e-19 	0 	
ZONE T = "t = 2.37813e-07 [s]" I = 10 SOLUTIONTIME = 2.3781250000000E-07
0.0007874 	1.65138e-16 	0.92 	0.04 	0.04 	0.0103075 	
1.91019e-25 	1.72909e-18 	1.72909e-18 	0 	
0.000841022 	1.65138e-16 	0.92 	0.04 	0.04 	0.0103075 	
1.9095e-25 	1.72909e-18 	1.72909e-18 	0 	
0.000894644 	1.65138e-16 	0.92 	0.04 	0.04 	0.0103075 	
1.91865e-25 	1.73679e-18 	1.73679e-18 	0 	
0.000948267 	1.65138e-16 	0.92 	0.04 	0.04 	0.0103075 	
1.91922e-25 	1.73679e-18 	1.73679e-18 	0 	
0.00100189 	1.65138e-16 	0.92 	0.04 	0.04 	0.0103075 	
1.9095e-25 	1.72909e-18 	1.72909e-18 	0 	
0.00105551 	1.65138e-16 	0.92 	0.04 	0.04 	0.0103075 	
1.91364e-25 	1.72909e-18 	1.72909e-18 	0 	
0.00110913 	1.65138e-16 	0.92 	0.04 	0.04 	0.0103075 	
1.91939e-25 	1.73679e-18 	1.73679e-18 	0 	
0.00116276 	1.65138e-16 	0.92 	0.04 	0.04 	0.0103075 	
1.91587e-25 	1.73679e-18 	1.73679e-18 	0 	
0.00121638 	1.65138e-16 	0.92 	0.04 	0.04 	0.0103075 	
1.91324e-25 	1.72909e-18 	1.72909e-18 	0 	
0.00127 	7.13728e-14 	0.92 	0.04 	0.04 	0.0103075 	
1.9153e-25 	1.72909e-18 	1.72909e-18 	0 	
ZONE T = "t = 3.51719e-07 [s]" I = 10 SOLUTIONTIME = 3.5171875000000E-07
0.0007874 	1.59677e-13 	0.92 	0.04 	0.04 	0.0103075 	
6.22427e-25 	3.7874e-18 	3.7874e-18 	0 	
0.000841022 	1.59677e-13 	0.92 	0.04 	0.04 	0.0103075 	
6.22358e-25 	3.7874e-18 	3.7874e-18 	0 	
0.000894644 	1.59677e-13 	0.92 	0.04 	0.04 	0.0103075 	
6.23273e-25 	3.7874e-18 	3.7874e-18 	0 	
0.000948267 	1.59677e-13 	0.92 	0.04 	0.04 	0.0103075 	
6.24627e-25 	3.79879e-18 	3.79879e-18 	0 	
0.00100189 	1.59677e-13 	0.92 	0.04 	0.04 	0.0103075 	
6.23655e-25 	3.79879e-18 	3.79879e-18 	0 	
0.00105551 	1.59677e-13 	0.92 	0.04 	0.04 	0.0103075 	
6.22772e-25 	3.7874e-18 	3.7874e-18 	0 	
0.00110913 	1.59677e-13 	0.92 	0.04 	0.04 	0.0103075 	
6.23347e-25 	3.7874e-18 	3.7874e-18 	0 	
0.00116276 	1.59677e-13 	0.92 	0.04 	0.04 	0.0103075 	
6.22995e-25 	3.7874e-18 	3.7874e-18 	0 	
0.00121638 	1.59677e-13 	0.92 	0.04 	0.04 	0.0103075 	
6.22732e-25 	3.7874e-18 	3.7874e-18 	0 	
0.00127 	1.43192e-13 	0.92 	0.04 	0.04 	0.0103075 	
6.22938e-25 	3.7874e-18 	3.7874e-18 	0 	
ZONE T = "t = 5.22578e-07 [s]" I = 10 SOLUTIONTIME = 5.2257812500000E-07
0.0007874 	2.16206e-14 	0.92 	0.04 	0.04 	0.0103075 	
2.05231e-24 	8.36879e-18 	8.36879e-18 	0 	
0.000841022 	2.16206e-14 	0.92 	0.04 	0.04 	0.0103075 	
2.05224e-24 	8.36879e-18 	8.36879e-18 	0 	
0.000894644 	2.16206e-14 	0.92 	0.04 	0.04 	0.0103075 	
2.05316e-24 	8.36879e-18 	8.36879e-18 	0 	
0.000948267 	2.16206e-14 	0.92 	0.04 	0.04 	0.0103075 	
2.05451e-24 	8.36879e-18 	8.36879e-18 	0 	
0.00100189 	2.16206e-14 	0.92 	0.04 	0.04 	0.0103075 	
2.05354e-24 	8.36879e-18 	8.36879e-18 	0 	
0.00105551 	2.16206e-14 	0.92 	0.04 	0.04 	0.0103075 	
2.05266e-24 	8.36879e-18 	8.36879e-18 	0 	
0.00110913 	2.16206e-14 	0.92 	0.04 	0.04 	0.0103075 	
2.05323e-24 	8.36879e-18 	8.36879e-18 	0 	
0.00116276 	2.16206e-14 	0.92 	0.04 	0.04 	0.0103075 	
2.05288e-24 	8.36879e-18 	8.36879e-18 	0 	
0.00121638 	2.16206e-14 	0.92 	0.04 	0.04 	0.0103075 	
2.05262e-24 	8.36879e-18 	8.36879e-18 	0 	
0.00127 	-1.85168e-16 	0.92 	0.04 	0.04 	0.0103075 	
2.05282e-24 	8.36879e-18 	8.36879e-18 	0 	
ZONE T = "t = 7.78867e-07 [s]" I = 10 SOLUTIONTIME = 7.7886718750000E-07
0.0007874 	-9.86617e-14 	0.92 	0.04 	0.04 	0.0103075 	
6.81986e-24 	1.86022e-17 	1.86022e-17 	0 	
0.000841022 	-9.86617e-14 	0.92 	0.04 	0.04 	0.0103075 	
6.81334e-24 	1.8577e-17 	1.8577e-17 	0 	
0.000894644 	-9.86617e-14 	0.92 	0.04 	0.04 	0.0103075 	
6.81425e-24 	1.8577e-17 	1.8577e-17 	0 	
0.000948267 	-9.86617e-14 	0.92 	0.04 	0.04 	0.0103075 	
6.82206e-24 	1.86022e-17 	1.86022e-17 	0 	
0.00100189 	-9.86617e-14 	0.92 	0.04 	0.04 	0.0103075 	
6.81463e-24 	1.8577e-17 	1.8577e-17 	0 	
0.00105551 	-9.86617e-14 	0.92 	0.04 	0.04 	0.0103075 	
6.81375e-24 	1.8577e-17 	1.8577e-17 	0 	
0.00110913 	-9.86617e-14 	0.92 	0.04 	0.04 	0.0103075 	
6.82078e-24 	1.86022e-17 	1.86022e-17 	0 	
0.00116276 	-9.86617e-14 	0.92 	0.04 	0.04 	0.0103075 	
6.82043e-24 	1.86022e-17 	1.86022e-17 	0 	
0.00121638 	-7.03181e-14 	0.92 	0.04 	0.04 	0.0103075 	
6.81371e-24 	1.8577e-17 	1.8577e-17 	0 	
0.00127 	-7.08761e-14 	0.92 	0.04 	0.04 	0.0103075 	
6.80746e-24 	1.85518e-17 	1.85518e-17 	0 	
ZONE T = "t = 1.1633e-06 [s]" I = 10 SOLUTIONTIME = 1.1633007812500E-06
0.0007874 	3.85993e-14 	0.92 	0.04 	0.04 	0.0103075 	
2.27653e-23 	4.14778e-17 	4.14778e-17 	0 	
0.000841022 	3.85993e-14 	0.92 	0.04 	0.04 	0.0103075 	
2.27588e-23 	4.14778e-17 	4.14778e-17 	0 	
0.000894644 	3.85993e-14 	0.92 	0.04 	0.04 	0.0103075 	
2.27597e-23 	4.14778e-17 	4.14778e-17 	0 	
0.000948267 	3.85993e-14 	0.92 	0.04 	0.04 	0.0103075 	
2.27675e-23 	4.14778e-17 	4.14778e-17 	0 	
0.00100189 	3.85993e-14 	0.92 	0.04 	0.04 	0.0103075 	
2.27601e-23 	4.14778e-17 	4.14778e-17 	0 	
0.00105551 	3.85993e-14 	0.92 	0.04 	0.04 	0.0103075 	
2.27447e-23 	4.14401e-17 	4.14401e-17 	0 	
0.00110913 	3.85993e-14 	0.92 	0.04 	0.04 	0.0103075 	
2.27518e-23 	4.14401e-17 	4.14401e-17 	0 	
0.00116276 	3.85993e-14 	0.92 	0.04 	0.04 	0.0103075 	
2.27659e-23 	4.14778e-17 	4.14778e-17 	0 	
0.00121638 	1.97035e-14 	0.92 	0.04 	0.04 	0.0103075 	
2.27592e-23 	4.14778e-17 	4.14778e-17 	0 	
0.00127 	1.91308e-14 	0.92 	0.04 	0.04 	0.0103075 	
2.27529e-23 	4.14778e-17 	4.14778e-17 	0 	
ZONE T = "t = 1.73995e-06 [s]" I = 10 SOLUTIONTIME = 1.7399511718750E-06
0.0007874 	-5.09035e-15 	0.92 	0.04 	0.04 	0.0103075 	
7.62561e-23 	9.27613e-17 	9.27613e-17 	0 	
0.000841022 	-5.09035e-15 	0.92 	0.04 	0.04 	0.0103075 	
7.62496e-23 	9.27613e-17 	9.27613e-17 	0 	
0.000894644 	-5.09035e-15 	0.92 	0.04 	0.04 	0.0103075 	
7.62505e-23 	9.27613e-17 	9.27613e-17 	0 	
0.000948267 	-5.09035e-15 	0.92 	0.04 	0.04 	0.0103075 	
7.62583e-23 	9.27613e-17 	9.27613e-17 	0 	
0.00100189 	-5.09035e-15 	0.92 	0.04 	0.04 	0.0103075 	
7.62509e-23 	9.27613e-17 	9.27613e-17 	0 	
0.00105551 	-5.09035e-15 	0.92 	0.04 	0.04 	0.0103075 	
7.62355e-23 	9.27613e-17 	9.27613e-17 	0 	
0.00110913 	-5.09035e-15 	0.92 	0.04 	0.04 	0.0103075 	
7.62426e-23 	9.27613e-17 	9.27613e-17 	0 	
0.00116276 	-5.09035e-15 	0.92 	0.04 	0.04 	0.0103075 	
7.62567e-23 	9.27613e-17 	9.27613e-17 	0 	
0.00121638 	-5.09035e-15 	0.92 	0.04 	0.04 	0.0103075 	
7.625e-23 	9.27613e-17 	9.27613e-17 	0 	
0.00127 	-5.68536e-15 	0.92 	0.04 	0.04 	0.0103075 	
7.62437e-23 	9.27613e-17 	9.27613e-17 	0 	
ZONE T = "t = 2.60493e-06 [s]" I = 10 SOLUTIONTIME = 2.6049267578125E-06
0.0007874 	-8.68875e-15 	0.92 	0.04 	0.04 	0.0103075 	
2.56058e-22 	2.07869e-16 	2.07869e-16 	0 	
0.000841022 	-8.68875e-15 	0.92 	0.04 	0.04 	0.0103075 	
2.56124e-22 	2.07954e-16 	2.07954e-16 	0 	
0.000894644 	-8.68875e-15 	0.92 	0.04 	0.04 	0.0103075 	
2.56125e-22 	2.07954e-16 	2.07954e-16 	0 	
0.000948267 	-8.68875e-15 	0.92 	0.04 	0.04 	0.0103075 	
2.5606e-22 	2.07869e-16 	2.07869e-16 	0 	
0.00100189 	-8.68875e-15 	0.92 	0.04 	0.04 	0.0103075 	
2.56126e-22 	2.07954e-16 	2.07954e-16 	0 	
0.00105551 	-8.68875e-15 	0.92 	0.04 	0.04 	0.0103075 	
2.5611e-22 	2.07954e-16 	2.07954e-16 	0 	
0.00110913 	-8.68875e-15 	0.92 	0.04 	0.04 	0.0103075 	
2.56045e-22 	2.07869e-16 	2.07869e-16 	0 	
0.00116276 	-8.68875e-15 	0.92 	0.04 	0.04 	0.0103075 	
2.56132e-22 	2.07954e-16 	2.07954e-16 	0 	
0.00121638 	-8.68875e-15 	0.92 	0.04 	0.04 	0.0103075 	
2.56125e-22 	2.07954e-16 	2.07954e-16 	0 	
0.00127 	-9.31713e-15 	0.92 	0.04 	0.04 	0.0103075 	
2.56046e-22 	2.07869e-16 	2.07869e-16 	0 	
ZONE T = "t = 3.90239e-06 [s]" I = 10 SOLUTIONTIME = 3.9023901367188E-06
0.0007874 	1.67067e-14 	0.92 	0.04 	0.04 	0.0103075 	
8.61415e-22 	4.66569e-16 	4.66569e-16 	0 	
0.000841022 	1.67067e-14 	0.92 	0.04 	0.04 	0.0103075 	
8.61481e-22 	4.66569e-16 	4.66569e-16 	0 	
0.000894644 	1.67067e-14 	0.92 	0.04 	0.04 	0.0103075 	
8.61646e-22 	4.66696e-16 	4.66696e-16 	0 	
0.000948267 	1.67067e-14 	0.92 	0.04 	0.04 	0.0103075 	
8.61581e-22 	4.66696e-16 	4.66696e-16 	0 	
0.00100189 	1.67067e-14 	0.92 	0.04 	0.04 	0.0103075 	
8.61482e-22 	4.66569e-16 	4.66569e-16 	0 	
0.00105551 	1.67067e-14 	0.92 	0.04 	0.04 	0.0103075 	
8.61631e-22 	4.66696e-16 	4.66696e-16 	0 	
0.00110913 	1.67067e-14 	0.92 	0.04 	0.04 	0.0103075 	
8.61565e-22 	4.66696e-16 	4.66696e-16 	0 	
0.00116276 	1.67067e-14 	0.92 	0.04 	0.04 	0.0103075 	
8.61488e-22 	4.66569e-16 	4.66569e-16 	0 	
0.00121638 	1.67067e-14 	0.92 	0.04 	0.04 	0.0103075 	
8.61481e-22 	4.66569e-16 	4.66569e-16 	0 	
0.00127 	2.44264e-14 	0.92 	0.04 	0.04 	0.0103075 	
8.61402e-22 	4.66569e-16 	4.66569e-16 	0 	
ZONE T = "t = 5.84859e-06 [s]" I = 10 SOLUTIONTIME = 5.8485852050781E-06
0.0007874 	-2.47057e-15 	0.92 	0.04 	0.04 	0.0103075 	
2.90155e-21 	1.04827e-15 	1.04827e-15 	0 	
0.000841022 	-2.47057e-15 	0.92 	0.04 	0.04 	0.0103075 	
2.90124e-21 	1.04808e-15 	1.04808e-15 	0 	
0.000894644 	-2.47057e-15 	0.92 	0.04 	0.04 	0.0103075 	
2.90141e-21 	1.04808e-15 	1.04808e-15 	0 	
0.000948267 	-2.47057e-15 	0.92 	0.04 	0.04 	0.0103075 	
2.90171e-21 	1.04827e-15 	1.04827e-15 	0 	
0.00100189 	-2.47057e-15 	0.92 	0.04 	0.04 	0.0103075 	
2.90125e-21 	1.04808e-15 	1.04808e-15 	0 	
0.00105551 	-2.47057e-15 	0.92 	0.04 	0.04 	0.0103075 	
2.90139e-21 	1.04808e-15 	1.04808e-15 	0 	
0.00110913 	-2.47057e-15 	0.92 	0.04 	0.04 	0.0103075 	
2.9017e-21 	1.04827e-15 	1.04827e-15 	0 	
0.00116276 	1.26193e-15 	0.92 	0.04 	0.04 	0.0103075 	
2.90125e-21 	1.04808e-15 	1.04808e-15 	0 	
0.00121638 	-2.47057e-15 	0.92 	0.04 	0.04 	0.0103075 	
2.90124e-21 	1.04808e-15 	1.04808e-15 	0 	
0.00127 	-8.82281e-15 	0.92 	0.04 	0.04 	0.0103075 	
2.90153e-21 	1.04827e-15 	1.04827e-15 	0 	
ZONE T = "t = 8.76788e-06 [s]" I = 10 SOLUTIONTIME = 8.7678778076172E-06
0.0007874 	1.66639e-14 	0.92 	0.04 	0.04 	0.0103075 	
9.77871e-21 	2.35576e-15 	2.35576e-15 	0 	
0.000841022 	1.41755e-14 	0.92 	0.04 	0.04 	0.0103075 	
9.7784e-21 	2.35576e-15 	2.35576e-15 	0 	
0.000894644 	1.91522e-14 	0.92 	0.04 	0.04 	0.0103075 	
9.77857e-21 	2.35576e-15 	2.35576e-15 	0 	
0.000948267 	1.91522e-14 	0.92 	0.04 	0.04 	0.0103075 	
9.77804e-21 	2.35548e-15 	2.35548e-15 	0 	
0.00100189 	1.91522e-14 	0.92 	0.04 	0.04 	0.0103075 	
9.77758e-21 	2.35548e-15 	2.35548e-15 	0 	
0.00105551 	1.91522e-14 	0.92 	0.04 	0.04 	0.0103075 	
9.77855e-21 	2.35576e-15 	2.35576e-15 	0 	
0.00110913 	1.91522e-14 	0.92 	0.04 	0.04 	0.0103075 	
9.77886e-21 	2.35576e-15 	2.35576e-15 	0 	
0.00116276 	1.91522e-14 	0.92 	0.04 	0.04 	0.0103075 	
9.77758e-21 	2.35548e-15 	2.35548e-15 	0 	
0.00121638 	1.91522e-14 	0.92 	0.04 	0.04 	0.0103075 	
9.77758e-21 	2.35548e-15 	2.35548e-15 	0 	
0.00127 	2.13965e-14 	0.92 	0.04 	0.04 	0.0103075 	
9.77869e-21 	2.35576e-15 	2.35576e-15 	0 	
ZONE T = "t = 1.31468e-05 [s]" I = 10 SOLUTIONTIME = 1.3146816711426E-05
0.0007874 	2.90841e-15 	0.92 	0.04 	0.04 	0.0103075 	
3.29686e-20 	5.29579e-15 	5.29579e-15 	0 	
0.000841022 	4.5673e-15 	0.92 	0.04 	0.04 	0.0103075 	
3.29702e-20 	5.29621e-15 	5.29621e-15 	0 	
0.000894644 	2.90841e-15 	0.92 	0.04 	0.04 	0.0103075 	
3.29704e-20 	5.29621e-15 	5.29621e-15 	0 	
0.000948267 	2.90841e-15 	0.92 	0.04 	0.04 	0.0103075 	
3.29698e-20 	5.29621e-15 	5.29621e-15 	0 	
0.00100189 	2.90841e-15 	0.92 	0.04 	0.04 	0.0103075 	
3.29694e-20 	5.29621e-15 	5.29621e-15 	0 	
0.00105551 	4.5673e-15 	0.92 	0.04 	0.04 	0.0103075 	
3.29703e-20 	5.29621e-15 	5.29621e-15 	0 	
0.00110913 	4.5673e-15 	0.92 	0.04 	0.04 	0.0103075 	
3.29706e-20 	5.29621e-15 	5.29621e-15 	0 	
0.00116276 	4.5673e-15 	0.92 	0.04 	0.04 	0.0103075 	
3.29675e-20 	5.29579e-15 	5.29579e-15 	0 	
0.00121638 	4.5673e-15 	0.92 	0.04 	0.04 	0.0103075 	
3.29694e-20 	5.29621e-15 	5.29621e-15 	0 	
0.00127 	1.45863e-15 	0.92 	0.04 	0.04 	0.0103075 	
3.29723e-20 	5.29664e-15 	5.29664e-15 	0 	
ZONE T = "t = 1.97152e-05 [s]" I = 10 SOLUTIONTIME = 1.9715225067139E-05
0.0007874 	1.78376e-14 	0.92 	0.04 	0.04 	0.0103075 	
1.11193e-19 	1.19091e-14 	1.19091e-14 	0 	
0.000841022 	1.78376e-14 	0.92 	0.04 	0.04 	0.0103075 	
1.11198e-19 	1.19098e-14 	1.19098e-14 	0 	
0.000894644 	1.89435e-14 	0.92 	0.04 	0.04 	0.0103075 	
1.11203e-19 	1.19104e-14 	1.19104e-14 	0 	
0.000948267 	1.89435e-14 	0.92 	0.04 	0.04 	0.0103075 	
1.11202e-19 	1.19104e-14 	1.19104e-14 	0 	
0.00100189 	1.89435e-14 	0.92 	0.04 	0.04 	0.0103075 	
1.11202e-19 	1.19104e-14 	1.19104e-14 	0 	
0.00105551 	2.00494e-14 	0.92 	0.04 	0.04 	0.0103075 	
1.11203e-19 	1.19104e-14 	1.19104e-14 	0 	
0.00110913 	2.00494e-14 	0.92 	0.04 	0.04 	0.0103075 	
1.11203e-19 	1.19104e-14 	1.19104e-14 	0 	
0.00116276 	1.89435e-14 	0.92 	0.04 	0.04 	0.0103075 	
1.112e-19 	1.19104e-14 	1.19104e-14 	0 	
0.00121638 	2.00494e-14 	0.92 	0.04 	0.04 	0.0103075 	
1.11202e-19 	1.19104e-14 	1.19104e-14 	0 	
0.00127 	2.04199e-14 	0.92 	0.04 	0.04 	0.0103075 	
1.11205e-19 	1.19104e-14 	1.19104e-14 	0 	
ZONE T = "t = 2.95678e-05 [s]" I = 10 SOLUTIONTIME = 2.9567837600708E-05
0.0007874 	2.03478e-14 	0.92 	0.04 	0.04 	0.0103074 	
3.75133e-19 	2.67889e-14 	2.67889e-14 	0 	
0.000841022 	2.03478e-14 	0.92 	0.04 	0.04 	0.0103074 	
3.75139e-19 	2.67889e-14 	2.67889e-14 	0 	
0.000894644 	1.96105e-14 	0.92 	0.04 	0.04 	0.0103074 	
3.75153e-19 	2.67898e-14 	2.67898e-14 	0 	
0.000948267 	1.96105e-14 	0.92 	0.04 	0.04 	0.0103074 	
3.75152e-19 	2.67898e-14 	2.67898e-14 	0 	
0.00100189 	1.96105e-14 	0.92 	0.04 	0.04 	0.0103074 	
3.75142e-19 	2.67889e-14 	2.67889e-14 	0 	
0.00105551 	2.03478e-14 	0.92 	0.04 	0.04 	0.0103074 	
3.75143e-19 	2.67889e-14 	2.67889e-14 	0 	
0.00110913 	2.03478e-14 	0.92 	0.04 	0.04 	0.0103074 	
3.75143e-19 	2.67889e-14 	2.67889e-14 	0 	
0.00116276 	2.1085e-14 	0.92 	0.04 	0.04 	0.0103074 	
3.7514e-19 	2.67889e-14 	2.67889e-14 	0 	
0.00121638 	2.18223e-14 	0.92 	0.04 	0.04 	0.0103074 	
3.75142e-19 	2.67889e-14 	2.67889e-14 	0 	
0.00127 	2.01538e-14 	0.92 	0.04 	0.04 	0.0103074 	
3.75145e-19 	2.67889e-14 	2.67889e-14 	0 	
ZONE T = "t = 4.43468e-05 [s]" I = 10 SOLUTIONTIME = 4.4346756401062E-05
0.0007874 	3.09175e-14 	0.92 	0.04 	0.04 	0.0103074 	
1.26576e-18 	6.02635e-14 	6.02635e-14 	0 	
0.000841022 	3.19006e-14 	0.92 	0.04 	0.04 	0.0103074 	
1.26575e-18 	6.0262e-14 	6.0262e-14 	0 	
0.000894644 	3.09175e-14 	0.92 	0.04 	0.04 	0.0103074 	
1.26576e-18 	6.0262e-14 	6.0262e-14 	0 	
0.000948267 	3.0426e-14 	0.92 	0.04 	0.04 	0.0103074 	
1.26576e-18 	6.0262e-14 	6.0262e-14 	0 	
0.00100189 	3.0426e-14 	0.92 	0.04 	0.04 	0.0103074 	
1.26573e-18 	6.02606e-14 	6.02606e-14 	0 	
0.00105551 	2.99345e-14 	0.92 	0.04 	0.04 	0.0103074 	
1.26575e-18 	6.0262e-14 	6.0262e-14 	0 	
0.00110913 	3.0426e-14 	0.92 	0.04 	0.04 	0.0103074 	
1.26575e-18 	6.0262e-14 	6.0262e-14 	0 	
0.00116276 	2.99345e-14 	0.92 	0.04 	0.04 	0.0103074 	
1.26575e-18 	6.0262e-14 	6.0262e-14 	0 	
0.00121638 	2.9443e-14 	0.92 	0.04 	0.04 	0.0103074 	
1.26575e-18 	6.0262e-14 	6.0262e-14 	0 	
0.00127 	2.6467e-14 	0.92 	0.04 	0.04 	0.0103074 	
1.26573e-18 	6.02606e-14 	6.02606e-14 	0 	
ZONE T = "t = 6.65151e-05 [s]" I = 10 SOLUTIONTIME = 6.6515134601593E-05
0.0007874 	4.58608e-14 	0.92 	0.04 	0.04 	0.0103074 	
4.27111e-18 	1.35569e-13 	1.35569e-13 	0 	
0.000841022 	4.52055e-14 	0.92 	0.04 	0.04 	0.0103074 	
4.2711e-18 	1.35569e-13 	1.35569e-13 	0 	
0.000894644 	4.58608e-14 	0.92 	0.04 	0.04 	0.0103074 	
4.27106e-18 	1.35567e-13 	1.35567e-13 	0 	
0.000948267 	4.65162e-14 	0.92 	0.04 	0.04 	0.0103074 	
4.27106e-18 	1.35567e-13 	1.35567e-13 	0 	
0.00100189 	4.65162e-14 	0.92 	0.04 	0.04 	0.0103074 	
4.27108e-18 	1.35569e-13 	1.35569e-13 	0 	
0.00105551 	4.65162e-14 	0.92 	0.04 	0.04 	0.0103074 	
4.2711e-18 	1.35569e-13 	1.35569e-13 	0 	
0.00110913 	4.65162e-14 	0.92 	0.04 	0.04 	0.0103074 	
4.2711e-18 	1.35569e-13 	1.35569e-13 	0 	
0.00116276 	4.68439e-14 	0.92 	0.04 	0.04 	0.0103074 	
4.2711e-18 	1.35569e-13 	1.35569e-13 	0 	
0.00121638 	4.65162e-14 	0.92 	0.04 	0.04 	0.0103074 	
4.2711e-18 	1.35569e-13 	1.35569e-13 	0 	
0.00127 	4.36681e-14 	0.92 	0.04 	0.04 	0.0103074 	
4.27108e-18 	1.35569e-13 	1.35569e-13 	0 	
ZONE T = "t = 9.97677e-05 [s]" I = 10 SOLUTIONTIME = 9.9767701902390E-05
0.0007874 	6.88424e-14 	0.92 	0.04 	0.04 	0.0103074 	
1.44131e-17 	3.04998e-13 	3.04998e-13 	0 	
0.000841022 	6.92793e-14 	0.92 	0.04 	0.04 	0.0103074 	
1.44132e-17 	3.05002e-13 	3.05002e-13 	0 	
0.000894644 	6.92793e-14 	0.92 	0.04 	0.04 	0.0103074 	
1.44131e-17 	3.05002e-13 	3.05002e-13 	0 	
0.000948267 	6.90608e-14 	0.92 	0.04 	0.04 	0.0103074 	
1.4413e-17 	3.04998e-13 	3.04998e-13 	0 	
0.00100189 	6.90608e-14 	0.92 	0.04 	0.04 	0.0103074 	
1.44131e-17 	3.04998e-13 	3.04998e-13 	0 	
0.00105551 	6.90608e-14 	0.92 	0.04 	0.04 	0.0103074 	
1.44131e-17 	3.04998e-13 	3.04998e-13 	0 	
0.00110913 	6.90608e-14 	0.92 	0.04 	0.04 	0.0103074 	
1.44131e-17 	3.04998e-13 	3.04998e-13 	0 	
0.00116276 	6.92793e-14 	0.92 	0.04 	0.04 	0.0103074 	
1.44131e-17 	3.04998e-13 	3.04998e-13 	0 	
0.00121638 	6.94977e-14 	0.92 	0.04 	0.04 	0.0103074 	
1.44131e-17 	3.04998e-13 	3.04998e-13 	0 	
0.00127 	6.51211e-14 	0.92 	0.04 	0.04 	0.0103074 	
1.44131e-17 	3.04998e-13 	3.04998e-13 	0 	
ZONE T = "t = 0.000149647 [s]" I = 10 SOLUTIONTIME = 1.4964655285358E-04
0.0007874 	1.04207e-13 	0.92 	0.04 	0.04 	0.0103074 	
4.86398e-17 	6.86198e-13 	6.86198e-13 	0 	
0.000841022 	1.03915e-13 	0.92 	0.04 	0.04 	0.0103074 	
4.86399e-17 	6.86198e-13 	6.86198e-13 	0 	
0.000894644 	1.03915e-13 	0.92 	0.04 	0.04 	0.0103074 	
4.86401e-17 	6.86203e-13 	6.86203e-13 	0 	
0.000948267 	1.0377e-13 	0.92 	0.04 	0.04 	0.0103074 	
4.864e-17 	6.86203e-13 	6.86203e-13 	0 	
0.00100189 	1.0377e-13 	0.92 	0.04 	0.04 	0.0103074 	
4.86401e-17 	6.86203e-13 	6.86203e-13 	0 	
0.00105551 	1.03624e-13 	0.92 	0.04 	0.04 	0.0103074 	
4.86401e-17 	6.86203e-13 	6.86203e-13 	0 	
0.00110913 	1.03624e-13 	0.92 	0.04 	0.04 	0.0103074 	
4.86401e-17 	6.86203e-13 	6.86203e-13 	0 	
0.00116276 	1.03479e-13 	0.92 	0.04 	0.04 	0.0103074 	
4.86401e-17 	6.86203e-13 	6.86203e-13 	0 	
0.00121638 	1.03333e-13 	0.92 	0.04 	0.04 	0.0103074 	
4.86401e-17 	6.86203e-13 	6.86203e-13 	0 	
0.00127 	9.71049e-14 	0.92 	0.04 	0.04 	0.0103074 	
4.86403e-17 	6.86207e-13 	6.86207e-13 	0 	
ZONE T = "t = 0.000224465 [s]" I = 10 SOLUTIONTIME = 2.2446482928038E-04
0.0007874 	1.55918e-13 	0.92 	0.04 	0.04 	0.0103074 	
1.6415e-16 	1.54387e-12 	1.54387e-12 	0 	
0.000841022 	1.56015e-13 	0.92 	0.04 	0.04 	0.0103074 	
1.6415e-16 	1.54388e-12 	1.54388e-12 	0 	
0.000894644 	1.56015e-13 	0.92 	0.04 	0.04 	0.0103074 	
1.64151e-16 	1.54389e-12 	1.54389e-12 	0 	
0.000948267 	1.5621e-13 	0.92 	0.04 	0.04 	0.0103074 	
1.64151e-16 	1.54389e-12 	1.54389e-12 	0 	
0.00100189 	1.5621e-13 	0.92 	0.04 	0.04 	0.0103074 	
1.64151e-16 	1.54389e-12 	1.54389e-12 	0 	
0.00105551 	1.56404e-13 	0.92 	0.04 	0.04 	0.0103074 	
1.64151e-16 	1.54389e-12 	1.54389e-12 	0 	
0.00110913 	1.56501e-13 	0.92 	0.04 	0.04 	0.0103074 	
1.64151e-16 	1.54389e-12 	1.54389e-12 	0 	
0.00116276 	1.56404e-13 	0.92 	0.04 	0.04 	0.0103074 	
1.64151e-16 	1.54389e-12 	1.54389e-12 	0 	
0.00121638 	1.56404e-13 	0.92 	0.04 	0.04 	0.0103074 	
1.64151e-16 	1.54389e-12 	1.54389e-12 	0 	
0.00127 	1.47095e-13 	0.92 	0.04 	0.04 	0.0103074 	
1.64151e-16 	1.54389e-12 	1.54389e-12 	0 	
ZONE T = "t = 0.000336692 [s]" I = 10 SOLUTIONTIME = 3.3669224392056E-04
0.0007874 	2.33785e-13 	0.92 	0.04 	0.04 	0.0103074 	
5.53988e-16 	3.47365e-12 	3.47365e-12 	0 	
0.000841022 	2.3372e-13 	0.92 	0.04 	0.04 	0.0103074 	
5.53988e-16 	3.47364e-12 	3.47364e-12 	0 	
0.000894644 	2.3372e-13 	0.92 	0.04 	0.04 	0.0103074 	
5.53988e-16 	3.47364e-12 	3.47364e-12 	0 	
0.000948267 	2.33655e-13 	0.92 	0.04 	0.04 	0.0103074 	
5.53989e-16 	3.47365e-12 	3.47365e-12 	0 	
0.00100189 	2.3372e-13 	0.92 	0.04 	0.04 	0.0103074 	
5.53988e-16 	3.47364e-12 	3.47364e-12 	0 	
0.00105551 	2.33655e-13 	0.92 	0.04 	0.04 	0.0103074 	
5.53988e-16 	3.47364e-12 	3.47364e-12 	0 	
0.00110913 	2.33655e-13 	0.92 	0.04 	0.04 	0.0103074 	
5.5399e-16 	3.47365e-12 	3.47365e-12 	0 	
0.00116276 	2.3372e-13 	0.92 	0.04 	0.04 	0.0103074 	
5.5399e-16 	3.47365e-12 	3.47365e-12 	0 	
0.00121638 	2.3372e-13 	0.92 	0.04 	0.04 	0.0103074 	
5.53988e-16 	3.47364e-12 	3.47364e-12 	0 	
0.00127 	2.20285e-13 	0.92 	0.04 	0.04 	0.0103074 	
5.53987e-16 	3.47363e-12 	3.47363e-12 	0 	
ZONE T = "t = 0.000505033 [s]" I = 10 SOLUTIONTIME = 5.0503336588085E-04
0.0007874 	3.50666e-13 	0.92 	0.04 	0.04 	0.0103073 	
1.86966e-15 	7.81553e-12 	7.81553e-12 	0 	
0.000841022 	3.50666e-13 	0.92 	0.04 	0.04 	0.0103073 	
1.86967e-15 	7.81554e-12 	7.81554e-12 	0 	
0.000894644 	3.50666e-13 	0.92 	0.04 	0.04 	0.0103073 	
1.86967e-15 	7.81554e-12 	7.81554e-12 	0 	
0.000948267 	3.50666e-13 	0.92 	0.04 	0.04 	0.0103073 	
1.86966e-15 	7.81553e-12 	7.81553e-12 	0 	
0.00100189 	3.50666e-13 	0.92 	0.04 	0.04 	0.0103073 	
1.86966e-15 	7.81553e-12 	7.81553e-12 	0 	