TITLE = "Solution on Domain BulkDomain1D_0"
VARIABLES = "x [m]"  
"Vel_axial" 
"MF_sp(ECDMC)" 
"MF_sp(Li+)" 
"MF_sp(PF6-)" 
"Volt(Electroly)" 
"Volt(AnodeVolt)" 
"Potential Drop Electrode-Electrolyte [V]" 
"Surf_0 Equilibrium Potential Drop Electrode-Electrolyte [V]" 
"Overpotential_0 [V]" 
"Current Source [A/m^2]" 
"Li+ flux [kmol/m^2/s]" 
"Electrolyte Current [A/m^2]" 
"Electrode Current [A/m^2]" 
"CV Capacity discharged [A-s/m^2]" 
"Depth of discharge in CV [A-s/m^2]" 
"CV Capacity remaining [A-s/m^2]" 
"Initial CV capacity [A-s/m^2]" 
"Porosity []" 
"Surface Area [m2/m2] (area per area)" 
"Specific current (per particle area) [A/m^2]" 
"Control volume thickness [m]" 
"MoleDens Li_C6-bulk [kmol/m^3]" 
"MoleDens V_C6-bulk [kmol/m^3]" 
"qHeat_accum [J/m3]" 
"qHeat_step [W/m3]" 
"Joule_Lyte [W/m3]" 
"Joule_Solid [W/m3]" 
"electrodHeat [W/m3]" 
"OverpotHeat [W/m3]" 
"deltaSHeat [W/m3]" 

ZONE T = "ANOD, 0.0000E+00", I = 10, SOLUTIONTIME = 0.000000E+00
ZONETYPE = ORDERED
DATAPACKING = BLOCK
STRANDID = 1
 0.0000000000000E+00  8.7488888888889E-05  1.7497777777778E-04  2.6246666666667E-04  3.4995555555556E-04  4.3744444444444E-04  5.2493333333333E-04  6.1242222222222E-04  6.9991111111111E-04  7.8740000000000E-04 
 8.0556036137532E-12  2.4166809368316E-11  4.0278010269142E-11  5.6389202940529E-11  7.2500383999613E-11  8.8611550072436E-11  1.0472269777983E-10  1.2083382374051E-10  1.3694492457746E-10  1.4500046074539E-10 
 9.1999997264233E-01  9.1999997295547E-01  9.1999997389488E-01  9.1999997546058E-01  9.1999997765255E-01  9.1999998047079E-01  9.1999998391532E-01  9.1999998798612E-01  9.1999999268319E-01  9.1999999800653E-01 
 4.0000013678836E-02  4.0000013522267E-02  4.0000013052559E-02  4.0000012269712E-02  4.0000011173727E-02  4.0000009764603E-02  4.0000008042341E-02  4.0000006006942E-02  4.0000003658406E-02  4.0000000996733E-02 
 4.0000013678836E-02  4.0000013522267E-02  4.0000013052559E-02  4.0000012269712E-02  4.0000011173727E-02  4.0000009764603E-02  4.0000008042341E-02  4.0000006006942E-02  4.0000003658406E-02  4.0000000996733E-02 
 1.0249120196691E-02  1.0249120087379E-02  1.0249119759444E-02  1.0249119212886E-02  1.0249118447705E-02  1.0249117463900E-02  1.0249116261473E-02  1.0249114840424E-02  1.0249113200752E-02  1.0249111342458E-02 
 0.0000000000000E+00 -2.6544331020875E-11 -4.9965790634587E-11 -7.0264379781945E-11 -8.7440100058081E-11 -1.0149295371383E-10 -1.1242294365402E-10 -1.2023007343846E-10 -1.2491434728237E-10 -1.2647577005553E-10 
-1.0249120196691E-02 -1.0249120113923E-02 -1.0249119809410E-02 -1.0249119283150E-02 -1.0249118535145E-02 -1.0249117565393E-02 -1.0249116373896E-02 -1.0249114960654E-02 -1.0249113325666E-02 -1.0249111468934E-02 
-1.0307459482521E-02 -1.0307459394131E-02 -1.0307459071169E-02 -1.0307458513627E-02 -1.0307457721502E-02 -1.0307456694804E-02 -1.0307455433525E-02 -1.0307453937671E-02 -1.0307452207236E-02 -1.0307450242228E-02 
 5.8339285829954E-05  5.8339280207527E-05  5.8339261759358E-05  5.8339230476507E-05  5.8339186356943E-05  5.8339129410804E-05  5.8339059628860E-05  5.8338977017290E-05  5.8338881570145E-05  5.8338773294647E-05 
 1.1600715693325E-02  2.3201429150971E-02  2.3201421829471E-02  2.3201409418344E-02  2.3201391917042E-02  2.3201369329196E-02  2.3201341651479E-02  2.3201308886361E-02  2.3201271031309E-02  1.1600614044751E-02 
 1.1542358916420E-10  3.4627074924006E-10  5.7711783342576E-10  8.0796480048363E-10  1.0388116042661E-09  1.2696581835309E-09  1.5005044938501E-09  1.7313505045102E-09  1.9621961354529E-09  1.9621961354529E-09 
 0.0000000000000E+00  2.3201420717808E-02  4.6402836656474E-02  6.9604243128905E-02  9.2805635724157E-02  1.1600700901875E-01  1.3920835740510E-01  1.6240967822120E-01  1.8561096484695E-01  2.0881221211610E-01 
 1.7059771149111E-01  1.4964420458200E-01  1.3093862496810E-01  1.1223305294917E-01  9.3527492448660E-02  7.4821947389009E-02  5.6116421690506E-02  3.7410919277692E-02  1.8705444073853E-02  0.0000000000000E+00 
 1.4407436557919E+04  2.8814873691066E+04  2.8814875592718E+04  2.8814878820812E+04  2.8814883375324E+04  2.8814889256269E+04  2.8814896463642E+04  2.8814904997455E+04  2.8814914857697E+04  1.4407463022191E+04 
 1.0585588110120E+05  2.1171176277763E+05  2.1171176467928E+05  2.1171176790737E+05  2.1171177246189E+05  2.1171177834283E+05  2.1171178555020E+05  2.1171179408402E+05  2.1171180394426E+05  1.0585590756547E+05 
 3.5138634161521E+05  7.0277268265518E+05  7.0277268075353E+05  7.0277267752544E+05  7.0277267297093E+05  7.0277266708998E+05  7.0277265988261E+05  7.0277265134880E+05  7.0277264148855E+05  3.5138631515093E+05 
 4.5724222271641E+05  9.1448444543281E+05  9.1448444543281E+05  9.1448444543281E+05  9.1448444543281E+05  9.1448444543281E+05  9.1448444543281E+05  9.1448444543281E+05  9.1448444543281E+05  4.5724222271641E+05 
 3.5000000000000E-01  3.5000000000000E-01  3.5000000000000E-01  3.5000000000000E-01  3.5000000000000E-01  3.5000000000000E-01  3.5000000000000E-01  3.5000000000000E-01  3.5000000000000E-01  3.5000000000000E-01 
 8.5301666666667E+00  1.7060333333333E+01  1.7060333333333E+01  1.7060333333333E+01  1.7060333333333E+01  1.7060333333333E+01  1.7060333333333E+01  1.7060333333333E+01  1.7060333333333E+01  8.5301666666667E+00 
 1.3599635442830E-03  1.3599634132376E-03  1.3599629840842E-03  1.3599622565997E-03  1.3599612307522E-03  1.3599599067542E-03  1.3599582844110E-03  1.3599563638671E-03  1.3599541449743E-03  1.3599516279187E-03 
 4.3744444444444E-05  8.7488888888889E-05  8.7488888888889E-05  8.7488888888889E-05  8.7488888888889E-05  8.7488888888889E-05  8.7488888888889E-05  8.7488888888889E-05  8.7488888888889E-05  4.3744444444444E-05 
 8.3253146327632E+01  8.3253146259488E+01  8.3253146034211E+01  8.3253145651799E+01  8.3253145112254E+01  8.3253144415575E+01  8.3253143561762E+01  8.3253142550814E+01  8.3253141382731E+01  8.3253140057514E+01 
 2.5080187005701E+01  2.5080187073845E+01  2.5080187299122E+01  2.5080187681534E+01  2.5080188221079E+01  2.5080188917759E+01  2.5080189771572E+01  2.5080190782520E+01  2.5080191950602E+01  2.5080193275820E+01 
 0.0000000000000E+00  0.0000000000000E+00  0.0000000000000E+00  0.0000000000000E+00  0.0000000000000E+00  0.0000000000000E+00  0.0000000000000E+00  0.0000000000000E+00  0.0000000000000E+00  0.0000000000000E+00 
 0.0000000000000E+00  0.0000000000000E+00  0.0000000000000E+00  0.0000000000000E+00  0.0000000000000E+00  0.0000000000000E+00  0.0000000000000E+00  0.0000000000000E+00  0.0000000000000E+00  0.0000000000000E+00 
 0.0000000000000E+00  0.0000000000000E+00  0.0000000000000E+00  0.0000000000000E+00  0.0000000000000E+00  0.0000000000000E+00  0.0000000000000E+00  0.0000000000000E+00  0.0000000000000E+00  0.0000000000000E+00 
 0.0000000000000E+00  0.0000000000000E+00  0.0000000000000E+00  0.0000000000000E+00  0.0000000000000E+00  0.0000000000000E+00  0.0000000000000E+00  0.0000000000000E+00  0.0000000000000E+00  0.0000000000000E+00 
 0.0000000000000E+00  0.0000000000000E+00  0.0000000000000E+00  0.0000000000000E+00  0.0000000000000E+00  0.0000000000000E+00  0.0000000000000E+00  0.0000000000000E+00  0.0000000000000E+00  0.0000000000000E+00 
 0.0000000000000E+00  0.0000000000000E+00  0.0000000000000E+00  0.0000000000000E+00  0.0000000000000E+00  0.0000000000000E+00  0.0000000000000E+00  0.0000000000000E+00  0.0000000000000E+00  0.0000000000000E+00 
 0.0000000000000E+00  0.0000000000000E+00  0.0000000000000E+00  0.0000000000000E+00  0.0000000000000E+00  0.0000000000000E+00  0.0000000000000E+00  0.0000000000000E+00  0.0000000000000E+00  0.0000000000000E+00 
ZONE T = "ANOD, 1.0000E-08", I = 10, SOLUTIONTIME = 1.000000E-08
ZONETYPE = ORDERED
DATAPACKING = BLOCK
STRANDID = 1
 0.0000000000000E+00  8.7488888888889E-05  1.7497777777778E-04  2.6246666666667E-04  3.4995555555556E-04  4.3744444444444E-04  5.2493333333333E-04  6.1242222222222E-04  6.9991111111111E-04  7.8740000000000E-04 
-1.8118147517042E-13 -9.0677655945551E-13 -1.6324608310375E-12 -1.6318836119175E-12 -2.7211483228366E-12 -2.7210733754380E-12 -2.7213467374844E-12 -2.7220331902557E-12 -3.8128207029224E-12 -3.8136741978842E-12 
 9.1999997264233E-01  9.1999997295547E-01  9.1999997389489E-01  9.1999997546058E-01  9.1999997765255E-01  9.1999998047080E-01  9.1999998391532E-01  9.1999998798612E-01  9.1999999268319E-01  9.1999999800654E-01 
 4.0000013678834E-02  4.0000013522264E-02  4.0000013052556E-02  4.0000012269709E-02  4.0000011173724E-02  4.0000009764601E-02  4.0000008042339E-02  4.0000006006940E-02  4.0000003658403E-02  4.0000000996732E-02 
 4.0000013678834E-02  4.0000013522264E-02  4.0000013052556E-02  4.0000012269709E-02  4.0000011173724E-02  4.0000009764601E-02  4.0000008042339E-02  4.0000006006940E-02  4.0000003658403E-02  4.0000000996732E-02 
 1.0307456423547E-02  1.0307456423541E-02  1.0307456423524E-02  1.0307456423497E-02  1.0307456423463E-02  1.0307456423423E-02  1.0307456423383E-02  1.0307456423346E-02  1.0307456423318E-02  1.0307456423307E-02 
 0.0000000000000E+00  9.9880970399138E-17  3.9699505330700E-16  8.6989989257890E-16  1.4815793692933E-15  2.1794425517754E-15  2.8953245408810E-15  3.5454850104744E-15  4.0306089689406E-15  4.2358056549813E-15 
-1.0307456423547E-02 -1.0307456423541E-02 -1.0307456423524E-02 -1.0307456423496E-02 -1.0307456423461E-02 -1.0307456423421E-02 -1.0307456423380E-02 -1.0307456423342E-02 -1.0307456423314E-02 -1.0307456423302E-02 
-1.0307459482516E-02 -1.0307459394137E-02 -1.0307459071168E-02 -1.0307458513630E-02 -1.0307457721504E-02 -1.0307456694803E-02 -1.0307455433531E-02 -1.0307453937673E-02 -1.0307452207237E-02 -1.0307450242230E-02 
 3.0589698760131E-09  2.9705962325405E-09  2.6476443797802E-09  2.0901334343848E-09  1.2980430497828E-09  2.7138155264672E-10 -9.8984829013937E-10 -2.4856688582431E-09 -4.2160772477373E-09 -6.1810728323869E-09 
 6.0827338355710E-07  1.1813999808368E-06  1.0529626137085E-06  8.3124160443702E-07  5.1622885014759E-07  1.0793016895212E-07 -3.9366257334093E-07 -9.8854674884577E-07 -1.6767269379809E-06 -1.2291007792843E-06 
 5.5310294933646E-11  1.6593069677980E-10  2.7655040217558E-10  3.8716889307233E-10  4.9778567026482E-10  6.0840023503821E-10  7.1901205895147E-10  8.2962065551929E-10  9.4022501050783E-10  9.4022501050783E-10 
 0.0000000000000E+00  1.1990284515568E-06  2.3161333907777E-06  3.2582534000451E-06  3.9319588803685E-06  4.2440964006816E-06  4.1012364120583E-06  3.4100414503854E-06  2.0774502413662E-06  1.0060633280674E-08 
 9.9997175776800E-09 -1.1889736601905E-06 -2.3061552245891E-06 -3.2482575619555E-06 -3.9219927697093E-06 -4.2340723322297E-06 -4.0912058942935E-06 -3.4001010101843E-06 -2.0674642078465E-06  0.0000000000000E+00 
 1.4407436557919E+04  2.8814873691066E+04  2.8814875592718E+04  2.8814878820812E+04  2.8814883375324E+04  2.8814889256269E+04  2.8814896463642E+04  2.8814904997455E+04  2.8814914857697E+04  1.4407463022191E+04 
 1.0585588110120E+05  2.1171176277763E+05  2.1171176467928E+05  2.1171176790737E+05  2.1171177246189E+05  2.1171177834283E+05  2.1171178555020E+05  2.1171179408402E+05  2.1171180394426E+05  1.0585590756547E+05 
 3.5138634161521E+05  7.0277268265518E+05  7.0277268075353E+05  7.0277267752544E+05  7.0277267297093E+05  7.0277266708998E+05  7.0277265988261E+05  7.0277265134880E+05  7.0277264148855E+05  3.5138631515093E+05 
 4.5724222271641E+05  9.1448444543281E+05  9.1448444543281E+05  9.1448444543281E+05  9.1448444543281E+05  9.1448444543281E+05  9.1448444543281E+05  9.1448444543281E+05  9.1448444543281E+05  4.5724222271641E+05 
 3.5000000000000E-01  3.5000000000000E-01  3.5000000000000E-01  3.5000000000000E-01  3.5000000000000E-01  3.5000000000000E-01  3.5000000000000E-01  3.5000000000000E-01  3.5000000000000E-01  3.5000000000000E-01 
 8.5301666666667E+00  1.7060333333333E+01  1.7060333333333E+01  1.7060333333333E+01  1.7060333333333E+01  1.7060333333333E+01  1.7060333333333E+01  1.7060333333333E+01  1.7060333333333E+01  8.5301666666667E+00 
 7.1308499274000E-08  6.9248352758063E-08  6.1719932028009E-08  4.8723643799673E-08  3.0259013118985E-08  6.3263810174937E-09 -2.3074729294519E-08 -5.7944163782211E-08 -9.8282190929110E-08 -1.4408871799507E-07 
 4.3744444444444E-05  8.7488888888889E-05  8.7488888888889E-05  8.7488888888889E-05  8.7488888888889E-05  8.7488888888889E-05  8.7488888888889E-05  8.7488888888889E-05  8.7488888888889E-05  4.3744444444444E-05 
 8.3253146327632E+01  8.3253146259488E+01  8.3253146034211E+01  8.3253145651799E+01  8.3253145112254E+01  8.3253144415575E+01  8.3253143561762E+01  8.3253142550814E+01  8.3253141382731E+01  8.3253140057514E+01 
 2.5080187005701E+01  2.5080187073845E+01  2.5080187299122E+01  2.5080187681534E+01  2.5080188221079E+01  2.5080188917759E+01  2.5080189771572E+01  2.5080190782520E+01  2.5080191950602E+01  2.5080193275820E+01 
 4.0555076153248E-25  1.9577106727898E-24  6.1830680861762E-24  1.1824678658415E-23  1.7017797647915E-23  1.9745193625852E-23  1.8477736253340E-23  1.3012574956761E-23  5.5000977283010E-24  1.6826343653609E-24 
 4.0555076153248E-17  1.9577106727898E-16  6.1830680861762E-16  1.1824678658415E-15  1.7017797647915E-15  1.9745193625852E-15  1.8477736253340E-15  1.3012574956761E-15  5.5000977283010E-16  1.6826343653609E-16 
 3.9872061943316E-17  1.9240765583612E-16  6.0762925985925E-16  1.1620041996964E-15  1.6723002379310E-15  1.9403043223728E-15  1.8157598627909E-15  1.2787308930085E-15  5.4051202947497E-16  1.6538070022803E-16 
 6.8301420993201E-19  3.3634114428661E-18  1.0677548758364E-17  2.0463666145121E-17  2.9479526860527E-17  3.4215040212380E-17  3.2013762543048E-17  2.2526602667636E-17  9.4977433551281E-18  2.8827363080621E-18 
 0.0000000000000E+00  0.0000000000000E+00  0.0000000000000E+00  0.0000000000000E+00  0.0000000000000E+00  0.0000000000000E+00  0.0000000000000E+00  0.0000000000000E+00  0.0000000000000E+00  0.0000000000000E+00 
 0.0000000000000E+00  0.0000000000000E+00  0.0000000000000E+00  0.0000000000000E+00  0.0000000000000E+00  0.0000000000000E+00  0.0000000000000E+00  0.0000000000000E+00  0.0000000000000E+00  0.0000000000000E+00 
 0.0000000000000E+00  0.0000000000000E+00  0.0000000000000E+00  0.0000000000000E+00  0.0000000000000E+00  0.0000000000000E+00  0.0000000000000E+00  0.0000000000000E+00  0.0000000000000E+00  0.0000000000000E+00 
ZONE T = "ANOD, 2.0000E-08", I = 10, SOLUTIONTIME = 2.000000E-08
ZONETYPE = ORDERED
DATAPACKING = BLOCK
STRANDID = 1
 0.0000000000000E+00  8.7488888888889E-05  1.7497777777778E-04  2.6246666666667E-04  3.4995555555556E-04  4.3744444444444E-04  5.2493333333333E-04  6.1242222222222E-04  6.9991111111111E-04  7.8740000000000E-04 
 4.2277502813524E-16  1.4540748289783E-12  2.1812222397753E-12  2.1818002293954E-12  2.1821594739608E-12  1.4558197368753E-12  3.6592396491536E-13 -3.6117717285651E-13 -3.6234073021939E-13 -3.6319383969806E-13 
 9.1999997264234E-01  9.1999997295548E-01  9.1999997389489E-01  9.1999997546059E-01  9.1999997765256E-01  9.1999998047080E-01  9.1999998391533E-01  9.1999998798613E-01  9.1999999268320E-01  9.1999999800654E-01 
 4.0000013678831E-02  4.0000013522262E-02  4.0000013052554E-02  4.0000012269707E-02  4.0000011173722E-02  4.0000009764598E-02  4.0000008042337E-02  4.0000006006937E-02  4.0000003658401E-02  4.0000000996731E-02 
 4.0000013678831E-02  4.0000013522262E-02  4.0000013052554E-02  4.0000012269707E-02  4.0000011173722E-02  4.0000009764598E-02  4.0000008042337E-02  4.0000006006937E-02  4.0000003658401E-02  4.0000000996731E-02 
 1.0307456420754E-02  1.0307456420748E-02  1.0307456420732E-02  1.0307456420705E-02  1.0307456420670E-02  1.0307456420631E-02  1.0307456420590E-02  1.0307456420553E-02  1.0307456420526E-02  1.0307456420514E-02 
 0.0000000000000E+00  9.8304316266915E-17  3.9402723719451E-16  8.6572634309308E-16  1.4763853246107E-15  2.1734136437603E-15  2.8886461501964E-15  3.5383430858917E-15  4.0231887679976E-15  4.2282927711896E-15 
-1.0307456420754E-02 -1.0307456420748E-02 -1.0307456420731E-02 -1.0307456420704E-02 -1.0307456420669E-02 -1.0307456420628E-02 -1.0307456420587E-02 -1.0307456420550E-02 -1.0307456420522E-02 -1.0307456420510E-02 
-1.0307459482524E-02 -1.0307459394140E-02 -1.0307459071170E-02 -1.0307458513626E-02 -1.0307457721508E-02 -1.0307456694809E-02 -1.0307455433536E-02 -1.0307453937671E-02 -1.0307452207240E-02 -1.0307450242229E-02 
 3.0617699226659E-09  2.9733917255442E-09  2.6504384173509E-09  2.0929224794214E-09  1.3008392332065E-09  2.7418071979479E-10 -9.8705138507071E-10 -2.4828789111503E-09 -4.2132814667695E-09 -6.1782807880134E-09 
 6.0882969948671E-07  1.1825110264334E-06  1.0540737968266E-06  8.3235104879333E-07  5.1734075491302E-07  1.0904061272198E-07 -3.9254935054782E-07 -9.8743701583051E-07 -1.6756153150665E-06 -1.2285455907585E-06 
 5.5310296841684E-11  1.6593070536597E-10  2.7655041266212E-10  3.8716891467545E-10  4.9778569923239E-10  6.0840026556682E-10  7.1901209554351E-10  8.2962069871785E-10  9.4022456060495E-10  9.4022456060495E-10 
 0.0000000000000E+00  1.2000409890156E-06  2.3183425633908E-06  3.2615671589050E-06  3.9364692742484E-06  4.2496193317706E-06  4.1078639290549E-06  3.4179576508609E-06  2.0863789786318E-06  2.0004802993146E-08 
 1.9999981077048E-08 -1.1800852492225E-06 -2.2983776965117E-06 -3.2415901561292E-06 -3.9164360948762E-06 -4.2296268151274E-06 -4.0878724840377E-06 -3.3978793380231E-06 -2.0663532098007E-06  0.0000000000000E+00 
 1.4407436557919E+04  2.8814873691066E+04  2.8814875592718E+04  2.8814878820812E+04  2.8814883375324E+04  2.8814889256269E+04  2.8814896463642E+04  2.8814904997455E+04  2.8814914857697E+04  1.4407463022191E+04 
 1.0585588110120E+05  2.1171176277763E+05  2.1171176467928E+05  2.1171176790737E+05  2.1171177246189E+05  2.1171177834283E+05  2.1171178555020E+05  2.1171179408402E+05  2.1171180394426E+05  1.0585590756547E+05 
 3.5138634161521E+05  7.0277268265518E+05  7.0277268075353E+05  7.0277267752544E+05  7.0277267297093E+05  7.0277266708998E+05  7.0277265988261E+05  7.0277265134880E+05  7.0277264148855E+05  3.5138631515093E+05 
 4.5724222271641E+05  9.1448444543281E+05  9.1448444543281E+05  9.1448444543281E+05  9.1448444543281E+05  9.1448444543281E+05  9.1448444543281E+05  9.1448444543281E+05  9.1448444543281E+05  4.5724222271641E+05 
 3.5000000000000E-01  3.5000000000000E-01  3.5000000000000E-01  3.5000000000000E-01  3.5000000000000E-01  3.5000000000000E-01  3.5000000000000E-01  3.5000000000000E-01  3.5000000000000E-01  3.5000000000000E-01 
 8.5301666666667E+00  1.7060333333333E+01  1.7060333333333E+01  1.7060333333333E+01  1.7060333333333E+01  1.7060333333333E+01  1.7060333333333E+01  1.7060333333333E+01  1.7060333333333E+01  8.5301666666667E+00 
 7.1373716748798E-08  6.9313477253280E-08  6.1785064584116E-08  4.8788674437389E-08  3.0324187974816E-08  6.3914702363365E-09 -2.3009477181834E-08 -5.7879116224605E-08 -9.8217032594115E-08 -1.4402363268696E-07 
 4.3744444444444E-05  8.7488888888889E-05  8.7488888888889E-05  8.7488888888889E-05  8.7488888888889E-05  8.7488888888889E-05  8.7488888888889E-05  8.7488888888889E-05  8.7488888888889E-05  4.3744444444444E-05 
 8.3253146327632E+01  8.3253146259488E+01  8.3253146034211E+01  8.3253145651799E+01  8.3253145112254E+01  8.3253144415575E+01  8.3253143561762E+01  8.3253142550814E+01  8.3253141382731E+01  8.3253140057514E+01 
 2.5080187005701E+01  2.5080187073845E+01  2.5080187299122E+01  2.5080187681534E+01  2.5080188221079E+01  2.5080188917759E+01  2.5080189771572E+01  2.5080190782520E+01  2.5080191950602E+01  2.5080193275820E+01 
 8.1137030544595E-25  3.9184684819114E-24  1.2377117727993E-23  2.3672304599750E-23  3.4073351909444E-23  3.9540237258749E-23  3.7013233337246E-23  2.6082479109812E-23  1.1039300844585E-23  3.3903990435381E-24 
 4.0581954391348E-17  1.9607578091216E-16  6.1940496418172E-16  1.1847625941335E-15  1.7055554261529E-15  1.9795043632898E-15  1.8535497083906E-15  1.3069904153051E-15  5.5392031162838E-16  1.7077646781772E-16 
 7.9792395143664E-17  3.8515895417864E-16  1.2164238960339E-15  2.3263848169379E-15  3.3484587029314E-15  3.8856653285350E-15  3.6373482527116E-15  2.5632245714069E-15  1.0849451394533E-15  3.3327703528727E-16 
 1.3446354009316E-18  6.6878940125034E-18  2.1287876765428E-17  4.0845643037153E-17  5.8876488012991E-17  6.8358397339931E-17  6.3975081013044E-17  4.5023339574283E-17  1.8984945005212E-17  5.7628690665415E-18 
 0.0000000000000E+00  0.0000000000000E+00  0.0000000000000E+00  0.0000000000000E+00  0.0000000000000E+00  0.0000000000000E+00  0.0000000000000E+00  0.0000000000000E+00  0.0000000000000E+00  0.0000000000000E+00 
 0.0000000000000E+00  0.0000000000000E+00  0.0000000000000E+00  0.0000000000000E+00  0.0000000000000E+00  0.0000000000000E+00  0.0000000000000E+00  0.0000000000000E+00  0.0000000000000E+00  0.0000000000000E+00 
 0.0000000000000E+00  0.0000000000000E+00  0.0000000000000E+00  0.0000000000000E+00  0.0000000000000E+00  0.0000000000000E+00  0.0000000000000E+00  0.0000000000000E+00  0.0000000000000E+00  0.0000000000000E+00 
ZONE T = "ANOD, 3.0000E-08", I = 10, SOLUTIONTIME = 3.000000E-08
ZONETYPE = ORDERED
DATAPACKING = BLOCK
STRANDID = 1
 0.0000000000000E+00  8.7488888888889E-05  1.7497777777778E-04  2.6246666666667E-04  3.4995555555556E-04  4.3744444444444E-04  5.2493333333333E-04  6.1242222222222E-04  6.9991111111111E-04  7.8740000000000E-04 
 5.4523475241676E-13 -1.8035878842712E-13  1.8358166611292E-13  1.8416042713137E-13  1.8452044290287E-13  9.1101238765377E-13  5.4753284216042E-13  1.8364020490008E-13  1.2721006026359E-12  1.9976633349199E-12 
 9.1999997264234E-01  9.1999997295548E-01  9.1999997389490E-01  9.1999997546059E-01  9.1999997765256E-01  9.1999998047081E-01  9.1999998391533E-01  9.1999998798613E-01  9.1999999268320E-01  9.1999999800654E-01 
 4.0000013678829E-02  4.0000013522260E-02  4.0000013052551E-02  4.0000012269705E-02  4.0000011173719E-02  4.0000009764596E-02  4.0000008042334E-02  4.0000006006935E-02  4.0000003658399E-02  4.0000000996730E-02 
 4.0000013678829E-02  4.0000013522260E-02  4.0000013052551E-02  4.0000012269705E-02  4.0000011173719E-02  4.0000009764596E-02  4.0000008042334E-02  4.0000006006935E-02  4.0000003658399E-02  4.0000000996730E-02 
 1.0307456417962E-02  1.0307456417956E-02  1.0307456417939E-02  1.0307456417912E-02  1.0307456417877E-02  1.0307456417838E-02  1.0307456417797E-02  1.0307456417760E-02  1.0307456417733E-02  1.0307456417721E-02 
 0.0000000000000E+00  9.6727560707708E-17  3.9105930786047E-16  8.6155272652911E-16  1.4711914805487E-15  2.1673849844371E-15  2.8819679690925E-15  3.5312007245880E-15  4.0157680037514E-15  4.2207791601088E-15 
-1.0307456417962E-02 -1.0307456417956E-02 -1.0307456417939E-02 -1.0307456417911E-02 -1.0307456417876E-02 -1.0307456417836E-02 -1.0307456417794E-02 -1.0307456417757E-02 -1.0307456417729E-02 -1.0307456417717E-02 
-1.0307459482524E-02 -1.0307459394141E-02 -1.0307459071169E-02 -1.0307458513629E-02 -1.0307457721508E-02 -1.0307456694808E-02 -1.0307455433533E-02 -1.0307453937676E-02 -1.0307452207240E-02 -1.0307450242233E-02 
 3.0645628135845E-09  2.9761852374938E-09  2.6532302830479E-09  2.0957181563058E-09  1.3036322438209E-09  2.7697180313146E-10 -9.8426155593911E-10 -2.4800805575875E-09 -4.2104884023786E-09 -6.1754839662115E-09 
 6.0938514535465E-07  1.1836226343702E-06  1.0551848356151E-06  8.3346192691322E-07  5.1845149278824E-07  1.1015063984260E-07 -3.9143917909773E-07 -9.8632409258914E-07 -1.6745037125760E-06 -1.2279893776296E-06 
 5.5310299703742E-11  1.6593071620718E-10  2.7655042628610E-10  3.8716893409515E-10  4.9778572629191E-10  6.0840029800347E-10  7.1901213431897E-10  8.2962074007999E-10  9.4022411001575E-10  9.4022411001575E-10 
 0.0000000000000E+00  1.2011455753353E-06  2.3205517360015E-06  3.2649729666080E-06  3.9408876192677E-06  4.2551422628646E-06  4.1145834949393E-06  3.4256897536652E-06  2.0952156670094E-06  2.9949997228939E-08 
 2.9999982048833E-08 -1.1711964991636E-06 -2.2906002713067E-06 -3.2349236902391E-06 -3.9108803657536E-06 -4.2251813248601E-06 -4.0845370210156E-06 -3.3956553511260E-06 -2.0652413415228E-06  0.0000000000000E+00 
 1.4407436557919E+04  2.8814873691066E+04  2.8814875592718E+04  2.8814878820812E+04  2.8814883375324E+04  2.8814889256269E+04  2.8814896463642E+04  2.8814904997455E+04  2.8814914857697E+04  1.4407463022191E+04 
 1.0585588110120E+05  2.1171176277763E+05  2.1171176467928E+05  2.1171176790737E+05  2.1171177246189E+05  2.1171177834283E+05  2.1171178555020E+05  2.1171179408402E+05  2.1171180394426E+05  1.0585590756547E+05 
 3.5138634161521E+05  7.0277268265518E+05  7.0277268075353E+05  7.0277267752544E+05  7.0277267297093E+05  7.0277266708998E+05  7.0277265988261E+05  7.0277265134880E+05  7.0277264148855E+05  3.5138631515093E+05 
 4.5724222271641E+05  9.1448444543281E+05  9.1448444543281E+05  9.1448444543281E+05  9.1448444543281E+05  9.1448444543281E+05  9.1448444543281E+05  9.1448444543281E+05  9.1448444543281E+05  4.5724222271641E+05 
 3.5000000000000E-01  3.5000000000000E-01  3.5000000000000E-01  3.5000000000000E-01  3.5000000000000E-01  3.5000000000000E-01  3.5000000000000E-01  3.5000000000000E-01  3.5000000000000E-01  3.5000000000000E-01 
 8.5301666666667E+00  1.7060333333333E+01  1.7060333333333E+01  1.7060333333333E+01  1.7060333333333E+01  1.7060333333333E+01  1.7060333333333E+01  1.7060333333333E+01  1.7060333333333E+01  8.5301666666667E+00 
 7.1438832225394E-08  6.9378634710356E-08  6.1850188680278E-08  4.8853789115877E-08  3.0389294432792E-08  6.4565350330746E-09 -2.2944403925152E-08 -5.7813881670296E-08 -9.8151875456281E-08 -1.4395842726359E-07 
 4.3744444444444E-05  8.7488888888889E-05  8.7488888888889E-05  8.7488888888889E-05  8.7488888888889E-05  8.7488888888889E-05  8.7488888888889E-05  8.7488888888889E-05  8.7488888888889E-05  4.3744444444444E-05 
 8.3253146327632E+01  8.3253146259488E+01  8.3253146034211E+01  8.3253145651799E+01  8.3253145112254E+01  8.3253144415575E+01  8.3253143561762E+01  8.3253142550814E+01  8.3253141382731E+01  8.3253140057514E+01 
 2.5080187005701E+01  2.5080187073845E+01  2.5080187299122E+01  2.5080187681534E+01  2.5080188221079E+01  2.5080188917759E+01  2.5080189771572E+01  2.5080190782520E+01  2.5080191950602E+01  2.5080193275820E+01 
 1.2177039259575E-24  5.8824003538320E-24  1.8582162428118E-23  3.5543633970237E-23  5.1165773204731E-23  5.9385241249748E-23  5.5607519317401E-23  3.9208489451157E-23  1.6617200055487E-23  5.1234838874851E-24 
 4.0633362051153E-17  1.9639318719206E-16  6.2050447001244E-16  1.1871329370487E-15  1.7092421295287E-15  1.9845003990999E-15  1.8594285980155E-15  1.3126010341345E-15  5.5778992109025E-16  1.7330848439470E-16 
 1.1978518998373E-16  5.7826628589131E-16  1.8263850255078E-15  3.4932172828555E-15  5.0283863045323E-15  5.8360939766147E-15  5.4648679633806E-15  3.8533587473106E-15  1.6332584012098E-15  5.0370799390024E-16 
 1.9852026120204E-18  9.9737494918937E-18  3.1831217303967E-17  6.1146114168185E-17  8.8191015940876E-17  1.0243014836004E-16  9.5883968359509E-17  6.7490197805061E-17  2.8461604338953E-17  8.6403948482729E-18 
 0.0000000000000E+00  0.0000000000000E+00  0.0000000000000E+00  0.0000000000000E+00  0.0000000000000E+00  0.0000000000000E+00  0.0000000000000E+00  0.0000000000000E+00  0.0000000000000E+00  0.0000000000000E+00 
 0.0000000000000E+00  0.0000000000000E+00  0.0000000000000E+00  0.0000000000000E+00  0.0000000000000E+00  0.0000000000000E+00  0.0000000000000E+00  0.0000000000000E+00  0.0000000000000E+00  0.0000000000000E+00 
 0.0000000000000E+00  0.0000000000000E+00  0.0000000000000E+00  0.0000000000000E+00  0.0000000000000E+00  0.0000000000000E+00  0.0000000000000E+00  0.0000000000000E+00  0.0000000000000E+00  0.0000000000000E+00 
ZONE T = "ANOD, 4.0000E-08", I = 10, SOLUTIONTIME = 4.000000E-08
ZONETYPE = ORDERED
DATAPACKING = BLOCK
STRANDID = 1
 0.0000000000000E+00  8.7488888888889E-05  1.7497777777778E-04  2.6246666666667E-04  3.4995555555556E-04  4.3744444444444E-04  5.2493333333333E-04  6.1242222222222E-04  6.9991111111111E-04  7.8740000000000E-04 
-3.6278418167957E-13 -3.6196149601814E-13 -3.6122799753646E-13 -3.6064846437653E-13 -3.6028767747505E-13 -3.6021041712661E-13  2.7262645870248E-15  1.0916653106128E-12  8.8011414596316E-16 -7.2638767929794E-13 
 9.1999997264235E-01  9.1999997295549E-01  9.1999997389490E-01  9.1999997546060E-01  9.1999997765257E-01  9.1999998047081E-01  9.1999998391534E-01  9.1999998798613E-01  9.1999999268321E-01  9.1999999800654E-01 
 4.0000013678827E-02  4.0000013522257E-02  4.0000013052549E-02  4.0000012269702E-02  4.0000011173717E-02  4.0000009764593E-02  4.0000008042332E-02  4.0000006006933E-02  4.0000003658396E-02  4.0000000996729E-02 
 4.0000013678827E-02  4.0000013522257E-02  4.0000013052549E-02  4.0000012269702E-02  4.0000011173717E-02  4.0000009764593E-02  4.0000008042332E-02  4.0000006006933E-02  4.0000003658396E-02  4.0000000996729E-02 
 1.0307456415170E-02  1.0307456415164E-02  1.0307456415147E-02  1.0307456415121E-02  1.0307456415086E-02  1.0307456415046E-02  1.0307456415006E-02  1.0307456414969E-02  1.0307456414941E-02  1.0307456414929E-02 
 0.0000000000000E+00  9.5150723905842E-17  3.8809098172331E-16  8.5737845311182E-16  1.4659968973890E-15  2.1613554860849E-15  2.8752889512519E-15  3.5240577038021E-15  4.0083466184307E-15  4.2132651198445E-15 
-1.0307456415170E-02 -1.0307456415164E-02 -1.0307456415147E-02 -1.0307456415120E-02 -1.0307456415084E-02 -1.0307456415044E-02 -1.0307456415003E-02 -1.0307456414965E-02 -1.0307456414937E-02 -1.0307456414925E-02 
-1.0307459482524E-02 -1.0307459394138E-02 -1.0307459071172E-02 -1.0307458513632E-02 -1.0307457721509E-02 -1.0307456694811E-02 -1.0307455433537E-02 -1.0307453937680E-02 -1.0307452207243E-02 -1.0307450242232E-02 
 3.0673534962000E-09  2.9789742634484E-09  2.6560251168567E-09  2.0985124315337E-09  1.3064242777860E-09  2.7976697521137E-10 -9.8146609589511E-10 -2.4772850333588E-09 -4.2076934159141E-09 -6.1726927909345E-09 
 6.0994008198462E-07  1.1847328003739E-06  1.0562963128385E-06  8.3457383167865E-07  5.1956194336609E-07  1.1126095153737E-07 -3.9032799870289E-07 -9.8521232534520E-07 -1.6733915218748E-06 -1.2274344069597E-06 