TITLE = "Solution on Domain BulkDomain1D_1"
VARIABLES = "x [m]"  
"Vel_axial" 	"MF_sp(ECDMC)" 	"MF_sp(Li+)" 	"MF_sp(PF6-)" 	"Volt(Electroly)" 	"Porosity []" 	"Control volume thickness [m]" 	"volFrac MgO(S) []" 	"qHeat_accum [J/m3]" 	"qHeat_step [W/m3]" 	"Joule_Lyte [W/m3]" 	"Joule_Solid [W/m3]" 	
ZONE T = "SEP , 0.0000E+00", I = 10, SOLUTIONTIME = 0.000000E+00
ZONETYPE = ORDERED
DATAPACKING = BLOCK
STRANDID = 2
 7.8740000000000E-04  8.4102222222222E-04  8.9464444444444E-04  9.4826666666667E-04  1.0018888888889E-03  1.0555111111111E-03  1.1091333333333E-03  1.1627555555556E-03  1.2163777777778E-03  1.2700000000000E-03 
 1.4500046074539E-10  1.4500046074539E-10  1.4500046074539E-10  1.4500046074539E-10  1.4500046074539E-10  1.4500046074539E-10  1.4500046074539E-10  1.4500046074539E-10  1.4500046074539E-10  1.3694448462157E-10 
 9.1999999800653E-01  9.1999999898939E-01  9.1999999997225E-01  9.2000000095510E-01  9.2000000193796E-01  9.2000000292081E-01  9.2000000390367E-01  9.2000000488652E-01  9.2000000586938E-01  9.2000000685223E-01 
 4.0000000996733E-02  4.0000000505305E-02  4.0000000013877E-02  3.9999999522450E-02  3.9999999031022E-02  3.9999998539594E-02  3.9999998048167E-02  3.9999997556739E-02  3.9999997065311E-02  3.9999996573884E-02 
 4.0000000996733E-02  4.0000000505305E-02  4.0000000013877E-02  3.9999999522450E-02  3.9999999031022E-02  3.9999998539594E-02  3.9999998048167E-02  3.9999997556739E-02  3.9999997065311E-02  3.9999996573884E-02 
 1.0249111342458E-02  1.0249110999359E-02  1.0249110656260E-02  1.0249110313161E-02  1.0249109970062E-02  1.0249109626963E-02  1.0249109283864E-02  1.0249108940765E-02  1.0249108597666E-02  1.0249108254567E-02 
 8.0911499769706E-01  8.0911499769706E-01  8.0911499769706E-01  8.0911499769706E-01  8.0911499769706E-01  8.0911499769706E-01  8.0911499769706E-01  8.0911499769706E-01  8.0911499769706E-01  8.0911499769706E-01 
 2.6811111111111E-05  5.3622222222222E-05  5.3622222222222E-05  5.3622222222222E-05  5.3622222222222E-05  5.3622222222222E-05  5.3622222222222E-05  5.3622222222223E-05  5.3622222222222E-05  2.6811111111111E-05 
 1.9088500230294E-01  1.9088500230294E-01  1.9088500230294E-01  1.9088500230294E-01  1.9088500230294E-01  1.9088500230294E-01  1.9088500230294E-01  1.9088500230294E-01  1.9088500230294E-01  1.9088500230294E-01 
 0.0000000000000E+00  0.0000000000000E+00  0.0000000000000E+00  0.0000000000000E+00  0.0000000000000E+00  0.0000000000000E+00  0.0000000000000E+00  0.0000000000000E+00  0.0000000000000E+00  0.0000000000000E+00 
 0.0000000000000E+00  0.0000000000000E+00  0.0000000000000E+00  0.0000000000000E+00  0.0000000000000E+00  0.0000000000000E+00  0.0000000000000E+00  0.0000000000000E+00  0.0000000000000E+00  0.0000000000000E+00 
 0.0000000000000E+00  0.0000000000000E+00  0.0000000000000E+00  0.0000000000000E+00  0.0000000000000E+00  0.0000000000000E+00  0.0000000000000E+00  0.0000000000000E+00  0.0000000000000E+00  0.0000000000000E+00 
 0.0000000000000E+00  0.0000000000000E+00  0.0000000000000E+00  0.0000000000000E+00  0.0000000000000E+00  0.0000000000000E+00  0.0000000000000E+00  0.0000000000000E+00  0.0000000000000E+00  0.0000000000000E+00 
ZONE T = "SEP , 1.0000E-08", I = 10, SOLUTIONTIME = 1.000000E-08
ZONETYPE = ORDERED
DATAPACKING = BLOCK
STRANDID = 2
 7.8740000000000E-04  8.4102222222222E-04  8.9464444444444E-04  9.4826666666667E-04  1.0018888888889E-03  1.0555111111111E-03  1.1091333333333E-03  1.1627555555556E-03  1.2163777777778E-03  1.2700000000000E-03 
-7.2640851168463E-13 -7.2640851168124E-13 -7.2640851167905E-13 -7.2640851167905E-13 -7.2640851167905E-13 -7.2640851167905E-13 -7.2640851167685E-13 -7.2640851167028E-13 -7.2640851167028E-13  1.2707057226119E-12 
 9.1999999800654E-01  9.1999999898939E-01  9.1999999997225E-01  9.2000000095510E-01  9.2000000193796E-01  9.2000000292081E-01  9.2000000390367E-01  9.2000000488652E-01  9.2000000586938E-01  9.2000000685223E-01 
 4.0000000996732E-02  4.0000000505305E-02  4.0000000013877E-02  3.9999999522450E-02  3.9999999031022E-02  3.9999998539594E-02  3.9999998048167E-02  3.9999997556739E-02  3.9999997065311E-02  3.9999996573885E-02 
 4.0000000996732E-02  4.0000000505305E-02  4.0000000013877E-02  3.9999999522450E-02  3.9999999031022E-02  3.9999998539594E-02  3.9999998048167E-02  3.9999997556739E-02  3.9999997065311E-02  3.9999996573885E-02 
 1.0307456423306E-02  1.0307456423306E-02  1.0307456423306E-02  1.0307456423306E-02  1.0307456423306E-02  1.0307456423306E-02  1.0307456423306E-02  1.0307456423306E-02  1.0307456423306E-02  1.0307456423306E-02 
 8.0911499769706E-01  8.0911499769706E-01  8.0911499769706E-01  8.0911499769706E-01  8.0911499769706E-01  8.0911499769706E-01  8.0911499769706E-01  8.0911499769706E-01  8.0911499769706E-01  8.0911499769706E-01 
 2.6811111111111E-05  5.3622222222222E-05  5.3622222222222E-05  5.3622222222222E-05  5.3622222222222E-05  5.3622222222222E-05  5.3622222222222E-05  5.3622222222223E-05  5.3622222222222E-05  2.6811111111111E-05 
 1.9088500230294E-01  1.9088500230294E-01  1.9088500230294E-01  1.9088500230294E-01  1.9088500230294E-01  1.9088500230294E-01  1.9088500230294E-01  1.9088500230294E-01  1.9088500230294E-01  1.9088500230294E-01 
 2.7665603132624E-29  3.0910334213614E-29  3.0910333894099E-29  3.0910333506807E-29  3.0910333129197E-29  2.7665601593139E-29  3.0910332338476E-29  3.0910331960867E-29  3.0910331541301E-29  3.4155062389916E-29 
 2.7665603132624E-21  3.0910334213614E-21  3.0910333894099E-21  3.0910333506807E-21  3.0910333129197E-21  2.7665601593139E-21  3.0910332338476E-21  3.0910331960867E-21  3.0910331541301E-21  3.4155062389916E-21 
 2.7665603132624E-21  3.0910334213614E-21  3.0910333894099E-21  3.0910333506807E-21  3.0910333129197E-21  2.7665601593139E-21  3.0910332338476E-21  3.0910331960867E-21  3.0910331541301E-21  3.4155062389916E-21 
 0.0000000000000E+00  0.0000000000000E+00  0.0000000000000E+00  0.0000000000000E+00  0.0000000000000E+00  0.0000000000000E+00  0.0000000000000E+00  0.0000000000000E+00  0.0000000000000E+00  0.0000000000000E+00 
ZONE T = "SEP , 2.0000E-08", I = 10, SOLUTIONTIME = 2.000000E-08
ZONETYPE = ORDERED
DATAPACKING = BLOCK
STRANDID = 2
 7.8740000000000E-04  8.4102222222222E-04  8.9464444444444E-04  9.4826666666667E-04  1.0018888888889E-03  1.0555111111111E-03  1.1091333333333E-03  1.1627555555556E-03  1.2163777777778E-03  1.2700000000000E-03 
-2.3608363424834E-12 -2.3608363424799E-12 -2.3608363424777E-12 -2.3608363424777E-12 -2.3608363424777E-12 -2.3608363424777E-12 -2.3608363424755E-12 -2.3608363424689E-12 -2.3608363424689E-12 -2.3613650040881E-12 
 9.1999999800654E-01  9.1999999898939E-01  9.1999999997225E-01  9.2000000095510E-01  9.2000000193796E-01  9.2000000292081E-01  9.2000000390367E-01  9.2000000488652E-01  9.2000000586938E-01  9.2000000685223E-01 
 4.0000000996731E-02  4.0000000505305E-02  4.0000000013877E-02  3.9999999522450E-02  3.9999999031022E-02  3.9999998539594E-02  3.9999998048167E-02  3.9999997556739E-02  3.9999997065311E-02  3.9999996573886E-02 
 4.0000000996731E-02  4.0000000505305E-02  4.0000000013877E-02  3.9999999522450E-02  3.9999999031022E-02  3.9999998539594E-02  3.9999998048167E-02  3.9999997556739E-02  3.9999997065311E-02  3.9999996573886E-02 
 1.0307456420514E-02  1.0307456420514E-02  1.0307456420514E-02  1.0307456420514E-02  1.0307456420514E-02  1.0307456420514E-02  1.0307456420514E-02  1.0307456420514E-02  1.0307456420514E-02  1.0307456420514E-02 
 8.0911499769706E-01  8.0911499769706E-01  8.0911499769706E-01  8.0911499769706E-01  8.0911499769706E-01  8.0911499769706E-01  8.0911499769706E-01  8.0911499769706E-01  8.0911499769706E-01  8.0911499769706E-01 
 2.6811111111111E-05  5.3622222222222E-05  5.3622222222222E-05  5.3622222222222E-05  5.3622222222222E-05  5.3622222222222E-05  5.3622222222222E-05  5.3622222222223E-05  5.3622222222222E-05  2.6811111111111E-05 
 1.9088500230294E-01  1.9088500230294E-01  1.9088500230294E-01  1.9088500230294E-01  1.9088500230294E-01  1.9088500230294E-01  1.9088500230294E-01  1.9088500230294E-01  1.9088500230294E-01  1.9088500230294E-01 
 1.5096539009710E-28  1.5421012056488E-28  1.5421011865101E-28  1.5421011660805E-28  1.5421011475873E-28  1.5096538162832E-28  1.5421011090195E-28  1.5421010905263E-28  1.5421010722267E-28  1.5745483745808E-28 
 1.2329978696448E-20  1.2329978635126E-20  1.2329978475691E-20  1.2329978310124E-20  1.2329978162953E-20  1.2329978003518E-20  1.2329977856347E-20  1.2329977709176E-20  1.2329977568137E-20  1.2329977506816E-20 
 1.2329978696448E-20  1.2329978635126E-20  1.2329978475691E-20  1.2329978310124E-20  1.2329978162953E-20  1.2329978003518E-20  1.2329977856347E-20  1.2329977709176E-20  1.2329977568137E-20  1.2329977506816E-20 
 0.0000000000000E+00  0.0000000000000E+00  0.0000000000000E+00  0.0000000000000E+00  0.0000000000000E+00  0.0000000000000E+00  0.0000000000000E+00  0.0000000000000E+00  0.0000000000000E+00  0.0000000000000E+00 
ZONE T = "SEP , 3.0000E-08", I = 10, SOLUTIONTIME = 3.000000E-08
ZONETYPE = ORDERED
DATAPACKING = BLOCK
STRANDID = 2
 7.8740000000000E-04  8.4102222222222E-04  8.9464444444444E-04  9.4826666666667E-04  1.0018888888889E-03  1.0555111111111E-03  1.1091333333333E-03  1.1627555555556E-03  1.2163777777778E-03  1.2700000000000E-03 
 2.0832175429625E-17  2.0832179041472E-17  2.0832181232814E-17  2.0832181232612E-17  2.0832181232006E-17  2.0832181230391E-17  2.0832183425974E-17  2.0832189998586E-17  2.0832189998586E-17 -1.4533391263413E-12 
 9.1999999800654E-01  9.1999999898939E-01  9.1999999997225E-01  9.2000000095510E-01  9.2000000193796E-01  9.2000000292081E-01  9.2000000390367E-01  9.2000000488652E-01  9.2000000586938E-01  9.2000000685223E-01 
 4.0000000996730E-02  4.0000000505305E-02  4.0000000013877E-02  3.9999999522450E-02  3.9999999031022E-02  3.9999998539594E-02  3.9999998048167E-02  3.9999997556739E-02  3.9999997065311E-02  3.9999996573887E-02 
 4.0000000996730E-02  4.0000000505305E-02  4.0000000013877E-02  3.9999999522450E-02  3.9999999031022E-02  3.9999998539594E-02  3.9999998048167E-02  3.9999997556739E-02  3.9999997065311E-02  3.9999996573887E-02 
 1.0307456417722E-02  1.0307456417722E-02  1.0307456417722E-02  1.0307456417721E-02  1.0307456417721E-02  1.0307456417721E-02  1.0307456417721E-02  1.0307456417721E-02  1.0307456417721E-02  1.0307456417721E-02 
 8.0911499769706E-01  8.0911499769706E-01  8.0911499769706E-01  8.0911499769706E-01  8.0911499769706E-01  8.0911499769706E-01  8.0911499769706E-01  8.0911499769706E-01  8.0911499769706E-01  8.0911499769706E-01 
 2.6811111111111E-05  5.3622222222222E-05  5.3622222222222E-05  5.3622222222222E-05  5.3622222222222E-05  5.3622222222222E-05  5.3622222222222E-05  5.3622222222223E-05  5.3622222222222E-05  2.6811111111111E-05 
 1.9088500230294E-01  1.9088500230294E-01  1.9088500230294E-01  1.9088500230294E-01  1.9088500230294E-01  1.9088500230294E-01  1.9088500230294E-01  1.9088500230294E-01  1.9088500230294E-01  1.9088500230294E-01 
 4.3820949188284E-28  4.3172002726801E-28  4.2198582855454E-28  4.3172001663362E-28  4.3172001135032E-28  4.2847527447609E-28  4.3172000049646E-28  4.2198580205732E-28  4.3171998976848E-28  4.4469891135235E-28 
 2.8724410178574E-20  2.7750990670313E-20  2.6777570990353E-20  2.7750990002558E-20  2.7750989659159E-20  2.7750989284777E-20  2.7750988959452E-20  2.6777569300469E-20  2.7750988254580E-20  2.8724407389427E-20 
 2.8724410178574E-20  2.7750990670313E-20  2.6777570990353E-20  2.7750990002558E-20  2.7750989659159E-20  2.7750989284777E-20  2.7750988959452E-20  2.6777569300469E-20  2.7750988254580E-20  2.8724407389427E-20 
 0.0000000000000E+00  0.0000000000000E+00  0.0000000000000E+00  0.0000000000000E+00  0.0000000000000E+00  0.0000000000000E+00  0.0000000000000E+00  0.0000000000000E+00  0.0000000000000E+00  0.0000000000000E+00 
ZONE T = "SEP , 4.0000E-08", I = 10, SOLUTIONTIME = 4.000000E-08
ZONETYPE = ORDERED
DATAPACKING = BLOCK
STRANDID = 2
 7.8740000000000E-04  8.4102222222222E-04  8.9464444444444E-04  9.4826666666667E-04  1.0018888888889E-03  1.0555111111111E-03  1.1091333333333E-03  1.1627555555556E-03  1.2163777777778E-03  1.2700000000000E-03 
 1.8163164015115E-13  1.8163164015487E-13  1.8163164015706E-13  1.8163164015706E-13  1.8163164015706E-13  1.8163164015706E-13  1.8163164015926E-13  1.8163164016583E-13  1.8163164016583E-13  7.2591379867780E-13 
 9.1999999800654E-01  9.1999999898939E-01  9.1999999997225E-01  9.2000000095510E-01  9.2000000193796E-01  9.2000000292081E-01  9.2000000390367E-01  9.2000000488652E-01  9.2000000586938E-01  9.2000000685222E-01 
 4.0000000996729E-02  4.0000000505305E-02  4.0000000013877E-02  3.9999999522450E-02  3.9999999031022E-02  3.9999998539594E-02  3.9999998048167E-02  3.9999997556739E-02  3.9999997065311E-02  3.9999996573888E-02 
 4.0000000996729E-02  4.0000000505305E-02  4.0000000013877E-02  3.9999999522450E-02  3.9999999031022E-02  3.9999998539594E-02  3.9999998048167E-02  3.9999997556739E-02  3.9999997065311E-02  3.9999996573888E-02 
 1.0307456414929E-02  1.0307456414928E-02  1.0307456414928E-02  1.0307456414928E-02  1.0307456414928E-02  1.0307456414928E-02  1.0307456414928E-02  1.0307456414928E-02  1.0307456414928E-02  1.0307456414928E-02 
 8.0911499769706E-01  8.0911499769706E-01  8.0911499769706E-01  8.0911499769706E-01  8.0911499769706E-01  8.0911499769706E-01  8.0911499769706E-01  8.0911499769706E-01  8.0911499769706E-01  8.0911499769706E-01 
 2.6811111111111E-05  5.3622222222222E-05  5.3622222222222E-05  5.3622222222222E-05  5.3622222222222E-05  5.3622222222222E-05  5.3622222222222E-05  5.3622222222223E-05  5.3622222222222E-05  2.6811111111111E-05 
 1.9088500230294E-01  1.9088500230294E-01  1.9088500230294E-01  1.9088500230294E-01  1.9088500230294E-01  1.9088500230294E-01  1.9088500230294E-01  1.9088500230294E-01  1.9088500230294E-01  1.9088500230294E-01 
 9.3140863998603E-28  9.2491917230514E-28  9.1518496733691E-28  9.2491914965180E-28  9.1211098938992E-28  9.0886624589300E-28  9.2491911511827E-28  9.1518491091494E-28  9.2491909224869E-28  9.3789801064386E-28 
 4.9319914810319E-20  4.9319914503713E-20  4.9319913878237E-20  4.9319913301817E-20  4.8039097803961E-20  4.8039097141692E-20  4.9319911462181E-20  4.9319910885761E-20  4.9319910248021E-20  4.9319909929151E-20 
 4.9319914810319E-20  4.9319914503713E-20  4.9319913878237E-20  4.9319913301817E-20  4.8039097803961E-20  4.8039097141692E-20  4.9319911462181E-20  4.9319910885761E-20  4.9319910248021E-20  4.9319909929151E-20 
 0.0000000000000E+00  0.0000000000000E+00  0.0000000000000E+00  0.0000000000000E+00  0.0000000000000E+00  0.0000000000000E+00  0.0000000000000E+00  0.0000000000000E+00  0.0000000000000E+00  0.0000000000000E+00 
ZONE T = "SEP , 5.5000E-08", I = 10, SOLUTIONTIME = 5.500000E-08
ZONETYPE = ORDERED
DATAPACKING = BLOCK
STRANDID = 2
 7.8740000000000E-04  8.4102222222222E-04  8.9464444444444E-04  9.4826666666667E-04  1.0018888888889E-03  1.0555111111111E-03  1.1091333333333E-03  1.1627555555556E-03  1.2163777777778E-03  1.2700000000000E-03 
-1.0895849909980E-12 -1.0895849909952E-12 -1.0895849909938E-12 -1.0895849909938E-12 -1.0895849909938E-12 -1.0895849909938E-12 -1.0895849909923E-12 -1.0895849909879E-12 -1.0895849909879E-12 -1.0901150028040E-12 
 9.1999999800655E-01  9.1999999898939E-01  9.1999999997225E-01  9.2000000095510E-01  9.2000000193796E-01  9.2000000292081E-01  9.2000000390367E-01  9.2000000488652E-01  9.2000000586938E-01  9.2000000685222E-01 
 4.0000000996727E-02  4.0000000505305E-02  4.0000000013877E-02  3.9999999522450E-02  3.9999999031022E-02  3.9999998539594E-02  3.9999998048167E-02  3.9999997556739E-02  3.9999997065311E-02  3.9999996573890E-02 
 4.0000000996727E-02  4.0000000505305E-02  4.0000000013877E-02  3.9999999522450E-02  3.9999999031022E-02  3.9999998539594E-02  3.9999998048167E-02  3.9999997556739E-02  3.9999997065311E-02  3.9999996573890E-02 
 1.0307456410740E-02  1.0307456410740E-02  1.0307456410739E-02  1.0307456410739E-02  1.0307456410739E-02  1.0307456410739E-02  1.0307456410739E-02  1.0307456410739E-02  1.0307456410739E-02  1.0307456410739E-02 
 8.0911499769706E-01  8.0911499769706E-01  8.0911499769706E-01  8.0911499769706E-01  8.0911499769706E-01  8.0911499769706E-01  8.0911499769706E-01  8.0911499769706E-01  8.0911499769706E-01  8.0911499769706E-01 
 2.6811111111111E-05  5.3622222222222E-05  5.3622222222222E-05  5.3622222222222E-05  5.3622222222222E-05  5.3622222222222E-05  5.3622222222222E-05  5.3622222222223E-05  5.3622222222222E-05  2.6811111111111E-05 
 1.9088500230294E-01  1.9088500230294E-01  1.9088500230294E-01  1.9088500230294E-01  1.9088500230294E-01  1.9088500230294E-01  1.9088500230294E-01  1.9088500230294E-01  1.9088500230294E-01  1.9088500230294E-01 
 2.3167381027347E-27  2.3102486267464E-27  2.3005144049116E-27  2.3102485706117E-27  2.2974403934833E-27  2.2941956323646E-27  2.3102484847233E-27  2.3005142634016E-27  2.3102484276171E-27  2.3232273379566E-27 
 9.2355297516579E-20  9.2355296962752E-20  9.2355295838315E-20  9.2355294730660E-20  9.2355293606222E-20  9.2355292431437E-20  9.2355291307000E-20  9.2355290165779E-20  9.2355289024560E-20  9.2355288487515E-20 
 9.2355297516579E-20  9.2355296962752E-20  9.2355295838315E-20  9.2355294730660E-20  9.2355293606222E-20  9.2355292431437E-20  9.2355291307000E-20  9.2355290165779E-20  9.2355289024560E-20  9.2355288487515E-20 
 0.0000000000000E+00  0.0000000000000E+00  0.0000000000000E+00  0.0000000000000E+00  0.0000000000000E+00  0.0000000000000E+00  0.0000000000000E+00  0.0000000000000E+00  0.0000000000000E+00  0.0000000000000E+00 
ZONE T = "SEP , 7.7500E-08", I = 10, SOLUTIONTIME = 7.750000E-08
ZONETYPE = ORDERED
DATAPACKING = BLOCK
STRANDID = 2
 7.8740000000000E-04  8.4102222222222E-04  8.9464444444444E-04  9.4826666666667E-04  1.0018888888889E-03  1.0555111111111E-03  1.1091333333333E-03  1.1627555555556E-03  1.2163777777778E-03  1.2700000000000E-03 
 1.2914590708229E-12  1.2914590708252E-12  1.2914590708262E-12  1.2914590708262E-12  1.2914590708262E-12  1.2914590708261E-12  1.2914590708271E-12  1.2914590708300E-12  1.2914590708300E-12  1.6944923330063E-12 
 9.1999999800655E-01  9.1999999898939E-01  9.1999999997225E-01  9.2000000095510E-01  9.2000000193796E-01  9.2000000292081E-01  9.2000000390367E-01  9.2000000488652E-01  9.2000000586938E-01  9.2000000685222E-01 
 4.0000000996725E-02  4.0000000505305E-02  4.0000000013877E-02  3.9999999522450E-02  3.9999999031022E-02  3.9999998539594E-02  3.9999998048167E-02  3.9999997556739E-02  3.9999997065311E-02  3.9999996573892E-02 
 4.0000000996725E-02  4.0000000505305E-02  4.0000000013877E-02  3.9999999522450E-02  3.9999999031022E-02  3.9999998539594E-02  3.9999998048167E-02  3.9999997556739E-02  3.9999997065311E-02  3.9999996573892E-02 
 1.0307456404456E-02  1.0307456404456E-02  1.0307456404455E-02  1.0307456404455E-02  1.0307456404455E-02  1.0307456404455E-02  1.0307456404455E-02  1.0307456404455E-02  1.0307456404455E-02  1.0307456404455E-02 
 8.0911499769706E-01  8.0911499769706E-01  8.0911499769706E-01  8.0911499769706E-01  8.0911499769706E-01  8.0911499769706E-01  8.0911499769706E-01  8.0911499769706E-01  8.0911499769706E-01  8.0911499769706E-01 
 2.6811111111111E-05  5.3622222222222E-05  5.3622222222222E-05  5.3622222222222E-05  5.3622222222222E-05  5.3622222222222E-05  5.3622222222222E-05  5.3622222222223E-05  5.3622222222222E-05  2.6811111111111E-05 
 1.9088500230294E-01  1.9088500230294E-01  1.9088500230294E-01  1.9088500230294E-01  1.9088500230294E-01  1.9088500230294E-01  1.9088500230294E-01  1.9088500230294E-01  1.9088500230294E-01  1.9088500230294E-01 
 6.5249837419621E-27  6.4620103016347E-27  6.4522760276753E-27  6.4620101419551E-27  6.3927179762770E-27  6.4459571014121E-27  6.4620099034107E-27  6.4522756299644E-27  6.4620097432897E-27  6.4185046933349E-27 
 1.8703313952122E-19  1.8452274110615E-19  1.8452273878949E-19  1.8452273650415E-19  1.8201233701305E-19  1.8452273195767E-19  1.8452272971944E-19  1.8452272740279E-19  1.8452272514101E-19  1.8201232690570E-19 
 1.8703313952122E-19  1.8452274110615E-19  1.8452273878949E-19  1.8452273650415E-19  1.8201233701305E-19  1.8452273195767E-19  1.8452272971944E-19  1.8452272740279E-19  1.8452272514101E-19  1.8201232690570E-19 
 0.0000000000000E+00  0.0000000000000E+00  0.0000000000000E+00  0.0000000000000E+00  0.0000000000000E+00  0.0000000000000E+00  0.0000000000000E+00  0.0000000000000E+00  0.0000000000000E+00  0.0000000000000E+00 
ZONE T = "SEP , 1.1125E-07", I = 10, SOLUTIONTIME = 1.112500E-07
ZONETYPE = ORDERED
DATAPACKING = BLOCK
STRANDID = 2
 7.8740000000000E-04  8.4102222222222E-04  8.9464444444444E-04  9.4826666666667E-04  1.0018888888889E-03  1.0555111111111E-03  1.1091333333333E-03  1.1627555555556E-03  1.2163777777778E-03  1.2700000000000E-03 
-6.9943392677200E-13 -6.9943392676982E-13 -6.9943392676917E-13 -6.9943392676917E-13 -6.9943392676917E-13 -6.9943392676917E-13 -6.9943392676852E-13 -6.9943392676657E-13 -6.9943392676657E-13 -1.1304345266591E-12 
 9.1999999800656E-01  9.1999999898939E-01  9.1999999997225E-01  9.2000000095510E-01  9.2000000193796E-01  9.2000000292081E-01  9.2000000390367E-01  9.2000000488652E-01  9.2000000586938E-01  9.2000000685221E-01 
 4.0000000996722E-02  4.0000000505305E-02  4.0000000013877E-02  3.9999999522450E-02  3.9999999031022E-02  3.9999998539594E-02  3.9999998048167E-02  3.9999997556739E-02  3.9999997065311E-02  3.9999996573896E-02 
 4.0000000996722E-02  4.0000000505305E-02  4.0000000013877E-02  3.9999999522450E-02  3.9999999031022E-02  3.9999998539594E-02  3.9999998048167E-02  3.9999997556739E-02  3.9999997065311E-02  3.9999996573896E-02 
 1.0307456395029E-02  1.0307456395029E-02  1.0307456395029E-02  1.0307456395028E-02  1.0307456395028E-02  1.0307456395028E-02  1.0307456395028E-02  1.0307456395028E-02  1.0307456395028E-02  1.0307456395027E-02 
 8.0911499769706E-01  8.0911499769706E-01  8.0911499769706E-01  8.0911499769706E-01  8.0911499769706E-01  8.0911499769706E-01  8.0911499769706E-01  8.0911499769706E-01  8.0911499769706E-01  8.0911499769706E-01 
 2.6811111111111E-05  5.3622222222222E-05  5.3622222222222E-05  5.3622222222222E-05  5.3622222222222E-05  5.3622222222222E-05  5.3622222222222E-05  5.3622222222223E-05  5.3622222222222E-05  2.6811111111111E-05 
 1.9088500230294E-01  1.9088500230294E-01  1.9088500230294E-01  1.9088500230294E-01  1.9088500230294E-01  1.9088500230294E-01  1.9088500230294E-01  1.9088500230294E-01  1.9088500230294E-01  1.9088500230294E-01 
 1.9233870194736E-26  1.9292510060246E-26  1.9282775634172E-26  1.9170896211582E-26  1.9223217263697E-26  1.9276456232142E-26  1.9292508874804E-26  1.9282774444668E-26  1.9170895031755E-26  1.9127389906315E-26 
 3.7655959860070E-19  3.8016295581070E-19  3.8016295130359E-19  3.7655958724821E-19  3.8016294184948E-19  3.8016293720682E-19  3.8016293248573E-19  3.8016292784306E-19  3.7655956410268E-19  3.7655956186607E-19 
 3.7655959860070E-19  3.8016295581070E-19  3.8016295130359E-19  3.7655958724821E-19  3.8016294184948E-19  3.8016293720682E-19  3.8016293248573E-19  3.8016292784306E-19  3.7655956410268E-19  3.7655956186607E-19 
 0.0000000000000E+00  0.0000000000000E+00  0.0000000000000E+00  0.0000000000000E+00  0.0000000000000E+00  0.0000000000000E+00  0.0000000000000E+00  0.0000000000000E+00  0.0000000000000E+00  0.0000000000000E+00 
ZONE T = "SEP , 1.6188E-07", I = 10, SOLUTIONTIME = 1.618750E-07
ZONETYPE = ORDERED
DATAPACKING = BLOCK
STRANDID = 2
 7.8740000000000E-04  8.4102222222222E-04  8.9464444444444E-04  9.4826666666667E-04  1.0018888888889E-03  1.0555111111111E-03  1.1091333333333E-03  1.1627555555556E-03  1.2163777777778E-03  1.2700000000000E-03 
-2.5099417026012E-13 -2.5099417025772E-13 -2.5099417025728E-13 -2.5099417025728E-13 -2.5099417025728E-13 -2.5099417025729E-13 -2.5099417025685E-13 -2.5099417025555E-13 -2.5099417025555E-13 -1.4391120047774E-13 
 9.1999999800657E-01  9.1999999898939E-01  9.1999999997225E-01  9.2000000095510E-01  9.2000000193796E-01  9.2000000292081E-01  9.2000000390367E-01  9.2000000488652E-01  9.2000000586938E-01  9.2000000685220E-01 
 4.0000000996717E-02  4.0000000505305E-02  4.0000000013877E-02  3.9999999522450E-02  3.9999999031022E-02  3.9999998539594E-02  3.9999998048167E-02  3.9999997556739E-02  3.9999997065311E-02  3.9999996573901E-02 
 4.0000000996717E-02  4.0000000505305E-02  4.0000000013877E-02  3.9999999522450E-02  3.9999999031022E-02  3.9999998539594E-02  3.9999998048167E-02  3.9999997556739E-02  3.9999997065311E-02  3.9999996573901E-02 
 1.0307456380890E-02  1.0307456380889E-02  1.0307456380889E-02  1.0307456380889E-02  1.0307456380889E-02  1.0307456380888E-02  1.0307456380888E-02  1.0307456380888E-02  1.0307456380888E-02  1.0307456380887E-02 
 8.0911499769706E-01  8.0911499769706E-01  8.0911499769706E-01  8.0911499769706E-01  8.0911499769706E-01  8.0911499769706E-01  8.0911499769706E-01  8.0911499769706E-01  8.0911499769706E-01  8.0911499769706E-01 
 2.6811111111111E-05  5.3622222222222E-05  5.3622222222222E-05  5.3622222222222E-05  5.3622222222222E-05  5.3622222222222E-05  5.3622222222222E-05  5.3622222222223E-05  5.3622222222222E-05  2.6811111111111E-05 
 1.9088500230294E-01  1.9088500230294E-01  1.9088500230294E-01  1.9088500230294E-01  1.9088500230294E-01  1.9088500230294E-01  1.9088500230294E-01  1.9088500230294E-01  1.9088500230294E-01  1.9088500230294E-01 
 5.9710376737957E-26  6.0034433230420E-26  6.0024698301877E-26  5.9647401509879E-26  5.9965138936560E-26  6.0018377402536E-26  5.9769012683191E-26  6.0024694612704E-26  5.9912814697323E-26  5.9603892464778E-26 
 7.9953593171795E-19  8.0477872928739E-19  8.0477871936207E-19  7.9953590712685E-19  8.0477869971088E-19  8.0477868978556E-19  7.9953587769654E-19  8.0477866998591E-19  8.0477866006059E-19  7.9953585300668E-19 
 7.9953593171795E-19  8.0477872928739E-19  8.0477871936207E-19  7.9953590712685E-19  8.0477869971088E-19  8.0477868978556E-19  7.9953587769654E-19  8.0477866998591E-19  8.0477866006059E-19  7.9953585300668E-19 
 0.0000000000000E+00  0.0000000000000E+00  0.0000000000000E+00  0.0000000000000E+00  0.0000000000000E+00  0.0000000000000E+00  0.0000000000000E+00  0.0000000000000E+00  0.0000000000000E+00  0.0000000000000E+00 
ZONE T = "SEP , 2.3781E-07", I = 10, SOLUTIONTIME = 2.378125E-07
ZONETYPE = ORDERED
DATAPACKING = BLOCK
STRANDID = 2
 7.8740000000000E-04  8.4102222222222E-04  8.9464444444444E-04  9.4826666666667E-04  1.0018888888889E-03  1.0555111111111E-03  1.1091333333333E-03  1.1627555555556E-03  1.2163777777778E-03  1.2700000000000E-03 
 1.6513843333481E-16  1.6513843381389E-16  1.6513843410252E-16  1.6513843410252E-16  1.6513843410177E-16  1.6513843410020E-16  1.6513843439328E-16  1.6513843525919E-16  1.6513843525919E-16  1.1920263481887E-13 
 9.1999999800658E-01  9.1999999898939E-01  9.1999999997225E-01  9.2000000095510E-01  9.2000000193796E-01  9.2000000292081E-01  9.2000000390367E-01  9.2000000488652E-01  9.2000000586938E-01  9.2000000685218E-01 
 4.0000000996709E-02  4.0000000505305E-02  4.0000000013877E-02  3.9999999522450E-02  3.9999999031022E-02  3.9999998539594E-02  3.9999998048167E-02  3.9999997556739E-02  3.9999997065311E-02  3.9999996573910E-02 
 4.0000000996709E-02  4.0000000505305E-02  4.0000000013877E-02  3.9999999522450E-02  3.9999999031022E-02  3.9999998539594E-02  3.9999998048167E-02  3.9999997556739E-02  3.9999997065311E-02  3.9999996573910E-02 
 1.0307456359681E-02  1.0307456359680E-02  1.0307456359680E-02  1.0307456359679E-02  1.0307456359679E-02  1.0307456359679E-02  1.0307456359678E-02  1.0307456359678E-02  1.0307456359677E-02  1.0307456359677E-02 
 8.0911499769706E-01  8.0911499769706E-01  8.0911499769706E-01  8.0911499769706E-01  8.0911499769706E-01  8.0911499769706E-01  8.0911499769706E-01  8.0911499769706E-01  8.0911499769706E-01  8.0911499769706E-01 
 2.6811111111111E-05  5.3622222222222E-05  5.3622222222222E-05  5.3622222222222E-05  5.3622222222222E-05  5.3622222222222E-05  5.3622222222222E-05  5.3622222222223E-05  5.3622222222222E-05  2.6811111111111E-05 
 1.9088500230294E-01  1.9088500230294E-01  1.9088500230294E-01  1.9088500230294E-01  1.9088500230294E-01  1.9088500230294E-01  1.9088500230294E-01  1.9088500230294E-01  1.9088500230294E-01  1.9088500230294E-01 
 1.9218365930799E-25  1.9192284685743E-25  1.9132824218077E-25  1.9095094378960E-25  1.9185354772416E-25  1.9190678456340E-25  1.9107255011027E-25  1.9132823042407E-25  1.9180121698008E-25  1.9207716202953E-25 
 1.7445041326095E-18  1.7368021547590E-18  1.7291001663064E-18  1.7291001452474E-18  1.7368020910301E-18  1.7368020696081E-18  1.7291000813443E-18  1.7291000600674E-18  1.7368020053696E-18  1.7445039613465E-18 
 1.7445041326095E-18  1.7368021547590E-18  1.7291001663064E-18  1.7291001452474E-18  1.7368020910301E-18  1.7368020696081E-18  1.7291000813443E-18  1.7291000600674E-18  1.7368020053696E-18  1.7445039613465E-18 
 0.0000000000000E+00  0.0000000000000E+00  0.0000000000000E+00  0.0000000000000E+00  0.0000000000000E+00  0.0000000000000E+00  0.0000000000000E+00  0.0000000000000E+00  0.0000000000000E+00  0.0000000000000E+00 
ZONE T = "SEP , 3.5172E-07", I = 10, SOLUTIONTIME = 3.517188E-07
ZONETYPE = ORDERED
DATAPACKING = BLOCK
STRANDID = 2
 7.8740000000000E-04  8.4102222222222E-04  8.9464444444444E-04  9.4826666666667E-04  1.0018888888889E-03  1.0555111111111E-03  1.1091333333333E-03  1.1627555555556E-03  1.2163777777778E-03  1.2700000000000E-03 
 1.9156353256200E-13  1.9156353256196E-13  1.9156353256215E-13  1.9156353256215E-13  1.9156353256215E-13  1.9156353256215E-13  1.9156353256234E-13  1.9156353256292E-13  1.9156353256292E-13  1.4319224995045E-13 
 9.1999999800660E-01  9.1999999898939E-01  9.1999999997225E-01  9.2000000095510E-01  9.2000000193796E-01  9.2000000292081E-01  9.2000000390367E-01  9.2000000488652E-01  9.2000000586938E-01  9.2000000685216E-01 
 4.0000000996698E-02  4.0000000505305E-02  4.0000000013877E-02  3.9999999522450E-02  3.9999999031022E-02  3.9999998539594E-02  3.9999998048167E-02  3.9999997556739E-02  3.9999997065311E-02  3.9999996573922E-02 