TITLE = "Solution on Domain BulkDomain1D_1"
VARIABLES = "x [m]"  
"Vel_axial" 	"MF_sp(ECDMC)" 	"MF_sp(Li+)" 	"MF_sp(PF6-)" 	"Volt(Electroly)" 	"Porosity []" 	"Control volume thickness [m]" 	"volFrac MgO(S) []" 	"qHeat_accum [J/m3]" 	"qHeat_step [W/m3]" 	"Joule_Lyte [W/m3]" 	"Joule_Solid [W/m3]" 	
ZONE T = "SEP , 0.0000E+00", I = 10, SOLUTIONTIME = 0.000000E+00
ZONETYPE = ORDERED
DATAPACKING = BLOCK
STRANDID = 2
 7.8740000000000E-04  8.4102222222222E-04  8.9464444444444E-04  9.4826666666667E-04  1.0018888888889E-03  1.0555111111111E-03  1.1091333333333E-03  1.1627555555556E-03  1.2163777777778E-03  1.2700000000000E-03 
 1.4500046074539E-10  1.4500046074539E-10  1.4500046074539E-10  1.4500046074539E-10  1.4500046074539E-10  1.4500046074539E-10  1.4500046074539E-10  1.4500046074539E-10  1.4500046074539E-10  1.3694448462157E-10 
 9.1999999800653E-01  9.1999999898939E-01  9.1999999997225E-01  9.2000000095510E-01  9.2000000193796E-01  9.2000000292081E-01  9.2000000390367E-01  9.2000000488652E-01  9.2000000586938E-01  9.2000000685223E-01 
 4.0000000996733E-02  4.0000000505305E-02  4.0000000013877E-02  3.9999999522450E-02  3.9999999031022E-02  3.9999998539594E-02  3.9999998048167E-02  3.9999997556739E-02  3.9999997065311E-02  3.9999996573884E-02 
 4.0000000996733E-02  4.0000000505305E-02  4.0000000013877E-02  3.9999999522450E-02  3.9999999031022E-02  3.9999998539594E-02  3.9999998048167E-02  3.9999997556739E-02  3.9999997065311E-02  3.9999996573884E-02 
 1.0249111342458E-02  1.0249110999359E-02  1.0249110656260E-02  1.0249110313161E-02  1.0249109970062E-02  1.0249109626963E-02  1.0249109283864E-02  1.0249108940765E-02  1.0249108597666E-02  1.0249108254567E-02 
 8.0911499769706E-01  8.0911499769706E-01  8.0911499769706E-01  8.0911499769706E-01  8.0911499769706E-01  8.0911499769706E-01  8.0911499769706E-01  8.0911499769706E-01  8.0911499769706E-01  8.0911499769706E-01 
 2.6811111111111E-05  5.3622222222222E-05  5.3622222222222E-05  5.3622222222222E-05  5.3622222222222E-05  5.3622222222222E-05  5.3622222222222E-05  5.3622222222223E-05  5.3622222222222E-05  2.6811111111111E-05 
 1.9088500230294E-01  1.9088500230294E-01  1.9088500230294E-01  1.9088500230294E-01  1.9088500230294E-01  1.9088500230294E-01  1.9088500230294E-01  1.9088500230294E-01  1.9088500230294E-01  1.9088500230294E-01 
 0.0000000000000E+00  0.0000000000000E+00  0.0000000000000E+00  0.0000000000000E+00  0.0000000000000E+00  0.0000000000000E+00  0.0000000000000E+00  0.0000000000000E+00  0.0000000000000E+00  0.0000000000000E+00 
 0.0000000000000E+00  0.0000000000000E+00  0.0000000000000E+00  0.0000000000000E+00  0.0000000000000E+00  0.0000000000000E+00  0.0000000000000E+00  0.0000000000000E+00  0.0000000000000E+00  0.0000000000000E+00 
 0.0000000000000E+00  0.0000000000000E+00  0.0000000000000E+00  0.0000000000000E+00  0.0000000000000E+00  0.0000000000000E+00  0.0000000000000E+00  0.0000000000000E+00  0.0000000000000E+00  0.0000000000000E+00 
 0.0000000000000E+00  0.0000000000000E+00  0.0000000000000E+00  0.0000000000000E+00  0.0000000000000E+00  0.0000000000000E+00  0.0000000000000E+00  0.0000000000000E+00  0.0000000000000E+00  0.0000000000000E+00 
ZONE T = "SEP , 1.0000E-08", I = 10, SOLUTIONTIME = 1.000000E-08
ZONETYPE = ORDERED
DATAPACKING = BLOCK
STRANDID = 2
 7.8740000000000E-04  8.4102222222222E-04  8.9464444444444E-04  9.4826666666667E-04  1.0018888888889E-03  1.0555111111111E-03  1.1091333333333E-03  1.1627555555556E-03  1.2163777777778E-03  1.2700000000000E-03 
-3.8136741978842E-12 -3.8136741978874E-12 -3.8136741978852E-12 -3.8136741978852E-12 -3.8136741978852E-12 -3.8136741978852E-12 -3.8136741978830E-12 -3.8136741978764E-12 -3.8136741978764E-12 -1.8165599635904E-12 
 9.1999999800654E-01  9.1999999898939E-01  9.1999999997225E-01  9.2000000095510E-01  9.2000000193796E-01  9.2000000292081E-01  9.2000000390367E-01  9.2000000488652E-01  9.2000000586938E-01  9.2000000685223E-01 
 4.0000000996732E-02  4.0000000505305E-02  4.0000000013877E-02  3.9999999522450E-02  3.9999999031022E-02  3.9999998539594E-02  3.9999998048167E-02  3.9999997556739E-02  3.9999997065311E-02  3.9999996573885E-02 
 4.0000000996732E-02  4.0000000505305E-02  4.0000000013877E-02  3.9999999522450E-02  3.9999999031022E-02  3.9999998539594E-02  3.9999998048167E-02  3.9999997556739E-02  3.9999997065311E-02  3.9999996573885E-02 
 1.0307456423307E-02  1.0307456423307E-02  1.0307456423307E-02  1.0307456423307E-02  1.0307456423307E-02  1.0307456423307E-02  1.0307456423307E-02  1.0307456423307E-02  1.0307456423307E-02  1.0307456423307E-02 
 8.0911499769706E-01  8.0911499769706E-01  8.0911499769706E-01  8.0911499769706E-01  8.0911499769706E-01  8.0911499769706E-01  8.0911499769706E-01  8.0911499769706E-01  8.0911499769706E-01  8.0911499769706E-01 
 2.6811111111111E-05  5.3622222222222E-05  5.3622222222222E-05  5.3622222222222E-05  5.3622222222222E-05  5.3622222222222E-05  5.3622222222222E-05  5.3622222222223E-05  5.3622222222222E-05  2.6811111111111E-05 
 1.9088500230294E-01  1.9088500230294E-01  1.9088500230294E-01  1.9088500230294E-01  1.9088500230294E-01  1.9088500230294E-01  1.9088500230294E-01  1.9088500230294E-01  1.9088500230294E-01  1.9088500230294E-01 
 2.7665603132624E-29  3.0910334181340E-29  3.0910333890871E-29  3.0910333471305E-29  3.0910333122742E-29  3.0910332703176E-29  3.0910332296520E-29  3.0910331844679E-29  3.0910331554210E-29  2.7665600460310E-29 
 2.7665603132624E-21  3.0910334181340E-21  3.0910333890871E-21  3.0910333471305E-21  3.0910333122742E-21  3.0910332703176E-21  3.0910332296520E-21  3.0910331844679E-21  3.0910331554210E-21  2.7665600460310E-21 
 2.7665603132624E-21  3.0910334181340E-21  3.0910333890871E-21  3.0910333471305E-21  3.0910333122742E-21  3.0910332703176E-21  3.0910332296520E-21  3.0910331844679E-21  3.0910331554210E-21  2.7665600460310E-21 
 0.0000000000000E+00  0.0000000000000E+00  0.0000000000000E+00  0.0000000000000E+00  0.0000000000000E+00  0.0000000000000E+00  0.0000000000000E+00  0.0000000000000E+00  0.0000000000000E+00  0.0000000000000E+00 
ZONE T = "SEP , 2.0000E-08", I = 10, SOLUTIONTIME = 2.000000E-08
ZONETYPE = ORDERED
DATAPACKING = BLOCK
STRANDID = 2
 7.8740000000000E-04  8.4102222222222E-04  8.9464444444444E-04  9.4826666666667E-04  1.0018888888889E-03  1.0555111111111E-03  1.1091333333333E-03  1.1627555555556E-03  1.2163777777778E-03  1.2700000000000E-03 
-3.6319383969806E-13 -3.6319383970111E-13 -3.6319383969892E-13 -3.6319383969892E-13 -3.6319383969892E-13 -3.6319383969892E-13 -3.6319383969673E-13 -3.6319383969016E-13 -3.6319383969016E-13 -3.6372250130925E-13 
 9.1999999800654E-01  9.1999999898939E-01  9.1999999997225E-01  9.2000000095510E-01  9.2000000193796E-01  9.2000000292081E-01  9.2000000390367E-01  9.2000000488652E-01  9.2000000586938E-01  9.2000000685223E-01 
 4.0000000996731E-02  4.0000000505305E-02  4.0000000013877E-02  3.9999999522450E-02  3.9999999031022E-02  3.9999998539594E-02  3.9999998048167E-02  3.9999997556739E-02  3.9999997065311E-02  3.9999996573886E-02 
 4.0000000996731E-02  4.0000000505305E-02  4.0000000013877E-02  3.9999999522450E-02  3.9999999031022E-02  3.9999998539594E-02  3.9999998048167E-02  3.9999997556739E-02  3.9999997065311E-02  3.9999996573886E-02 
 1.0307456420514E-02  1.0307456420514E-02  1.0307456420514E-02  1.0307456420514E-02  1.0307456420514E-02  1.0307456420514E-02  1.0307456420514E-02  1.0307456420514E-02  1.0307456420514E-02  1.0307456420514E-02 
 8.0911499769706E-01  8.0911499769706E-01  8.0911499769706E-01  8.0911499769706E-01  8.0911499769706E-01  8.0911499769706E-01  8.0911499769706E-01  8.0911499769706E-01  8.0911499769706E-01  8.0911499769706E-01 
 2.6811111111111E-05  5.3622222222222E-05  5.3622222222222E-05  5.3622222222222E-05  5.3622222222222E-05  5.3622222222222E-05  5.3622222222222E-05  5.3622222222223E-05  5.3622222222222E-05  2.6811111111111E-05 
 1.9088500230294E-01  1.9088500230294E-01  1.9088500230294E-01  1.9088500230294E-01  1.9088500230294E-01  1.9088500230294E-01  1.9088500230294E-01  1.9088500230294E-01  1.9088500230294E-01  1.9088500230294E-01 
 1.5096538997446E-28  1.5421012028732E-28  1.4789143156312E-28  1.4789142954920E-28  1.5421011469095E-28  1.5421011286100E-28  1.5421011085999E-28  1.5421010899776E-28  1.5421010729691E-28  1.5096537540583E-28 
 1.2329978684183E-20  1.2329978610598E-20  1.1698109767225E-20  1.1698109607790E-20  1.2329978156821E-20  1.2329978015782E-20  1.2329977856347E-20  1.2329977715308E-20  1.2329977574270E-20  1.2329977494552E-20 
 1.2329978684183E-20  1.2329978610598E-20  1.1698109767225E-20  1.1698109607790E-20  1.2329978156821E-20  1.2329978015782E-20  1.2329977856347E-20  1.2329977715308E-20  1.2329977574270E-20  1.2329977494552E-20 
 0.0000000000000E+00  0.0000000000000E+00  0.0000000000000E+00  0.0000000000000E+00  0.0000000000000E+00  0.0000000000000E+00  0.0000000000000E+00  0.0000000000000E+00  0.0000000000000E+00  0.0000000000000E+00 
ZONE T = "SEP , 3.0000E-08", I = 10, SOLUTIONTIME = 3.000000E-08
ZONETYPE = ORDERED
DATAPACKING = BLOCK
STRANDID = 2
 7.8740000000000E-04  8.4102222222222E-04  8.9464444444444E-04  9.4826666666667E-04  1.0018888888889E-03  1.0555111111111E-03  1.1091333333333E-03  1.1627555555556E-03  1.2163777777778E-03  1.2700000000000E-03 
 1.9976633349199E-12  1.9976633349169E-12  1.9976633349191E-12  1.9976633349191E-12  1.9976633349191E-12  1.9976633349191E-12  1.9976633349213E-12  1.9976633349279E-12  1.9976633349279E-12  5.4430337639687E-13 
 9.1999999800654E-01  9.1999999898939E-01  9.1999999997225E-01  9.2000000095510E-01  9.2000000193796E-01  9.2000000292081E-01  9.2000000390367E-01  9.2000000488652E-01  9.2000000586938E-01  9.2000000685223E-01 
 4.0000000996730E-02  4.0000000505305E-02  4.0000000013877E-02  3.9999999522450E-02  3.9999999031022E-02  3.9999998539594E-02  3.9999998048167E-02  3.9999997556739E-02  3.9999997065311E-02  3.9999996573887E-02 
 4.0000000996730E-02  4.0000000505305E-02  4.0000000013877E-02  3.9999999522450E-02  3.9999999031022E-02  3.9999998539594E-02  3.9999998048167E-02  3.9999997556739E-02  3.9999997065311E-02  3.9999996573887E-02 
 1.0307456417721E-02  1.0307456417721E-02  1.0307456417721E-02  1.0307456417721E-02  1.0307456417721E-02  1.0307456417721E-02  1.0307456417721E-02  1.0307456417721E-02  1.0307456417720E-02  1.0307456417720E-02 
 8.0911499769706E-01  8.0911499769706E-01  8.0911499769706E-01  8.0911499769706E-01  8.0911499769706E-01  8.0911499769706E-01  8.0911499769706E-01  8.0911499769706E-01  8.0911499769706E-01  8.0911499769706E-01 
 2.6811111111111E-05  5.3622222222222E-05  5.3622222222222E-05  5.3622222222222E-05  5.3622222222222E-05  5.3622222222222E-05  5.3622222222222E-05  5.3622222222223E-05  5.3622222222222E-05  2.6811111111111E-05 
 1.9088500230294E-01  1.9088500230294E-01  1.9088500230294E-01  1.9088500230294E-01  1.9088500230294E-01  1.9088500230294E-01  1.9088500230294E-01  1.9088500230294E-01  1.9088500230294E-01  1.9088500230294E-01 
 4.3820949213458E-28  4.3172002690654E-28  4.1566714110518E-28  4.2540132929722E-28  4.3172001136645E-28  4.3172000607347E-28  4.3172000045773E-28  4.2198580209282E-28  4.3171999002345E-28  4.3820944930010E-28 
 2.8724410216012E-20  2.7750990661922E-20  2.6777570954206E-20  2.7750989974802E-20  2.7750989667550E-20  2.7750989321247E-20  2.7750988959774E-20  2.6777569309506E-20  2.7750988272654E-20  2.8724407389427E-20 
 2.8724410216012E-20  2.7750990661922E-20  2.6777570954206E-20  2.7750989974802E-20  2.7750989667550E-20  2.7750989321247E-20  2.7750988959774E-20  2.6777569309506E-20  2.7750988272654E-20  2.8724407389427E-20 
 0.0000000000000E+00  0.0000000000000E+00  0.0000000000000E+00  0.0000000000000E+00  0.0000000000000E+00  0.0000000000000E+00  0.0000000000000E+00  0.0000000000000E+00  0.0000000000000E+00  0.0000000000000E+00 
ZONE T = "SEP , 4.0000E-08", I = 10, SOLUTIONTIME = 4.000000E-08
ZONETYPE = ORDERED
DATAPACKING = BLOCK
STRANDID = 2
 7.8740000000000E-04  8.4102222222222E-04  8.9464444444444E-04  9.4826666666667E-04  1.0018888888889E-03  1.0555111111111E-03  1.1091333333333E-03  1.1627555555556E-03  1.2163777777778E-03  1.2700000000000E-03 
-7.2638767929794E-13 -7.2638767930075E-13 -7.2638767929856E-13 -7.2638767929857E-13 -7.2638767929857E-13 -7.2638767929857E-13 -7.2638767929637E-13 -7.2638767928980E-13 -7.2638767928980E-13 -1.8210552077777E-13 
 9.1999999800654E-01  9.1999999898939E-01  9.1999999997225E-01  9.2000000095510E-01  9.2000000193796E-01  9.2000000292081E-01  9.2000000390367E-01  9.2000000488652E-01  9.2000000586938E-01  9.2000000685222E-01 
 4.0000000996729E-02  4.0000000505305E-02  4.0000000013877E-02  3.9999999522450E-02  3.9999999031022E-02  3.9999998539594E-02  3.9999998048167E-02  3.9999997556739E-02  3.9999997065311E-02  3.9999996573888E-02 
 4.0000000996729E-02  4.0000000505305E-02  4.0000000013877E-02  3.9999999522450E-02  3.9999999031022E-02  3.9999998539594E-02  3.9999998048167E-02  3.9999997556739E-02  3.9999997065311E-02  3.9999996573888E-02 
 1.0307456414929E-02  1.0307456414929E-02  1.0307456414929E-02  1.0307456414929E-02  1.0307456414929E-02  1.0307456414929E-02  1.0307456414928E-02  1.0307456414928E-02  1.0307456414928E-02  1.0307456414928E-02 
 8.0911499769706E-01  8.0911499769706E-01  8.0911499769706E-01  8.0911499769706E-01  8.0911499769706E-01  8.0911499769706E-01  8.0911499769706E-01  8.0911499769706E-01  8.0911499769706E-01  8.0911499769706E-01 
 2.6811111111111E-05  5.3622222222222E-05  5.3622222222222E-05  5.3622222222222E-05  5.3622222222222E-05  5.3622222222222E-05  5.3622222222222E-05  5.3622222222223E-05  5.3622222222222E-05  2.6811111111111E-05 
 1.9088500230294E-01  1.9088500230294E-01  1.9088500230294E-01  1.9088500230294E-01  1.9088500230294E-01  1.9088500230294E-01  1.9088500230294E-01  1.9088500230294E-01  1.9088500230294E-01  1.9088500230294E-01 
 9.3140863950192E-28  9.2491917145310E-28  9.0886627964226E-28  9.1860046194746E-28  9.2491913837515E-28  9.2491912695004E-28  9.2491911483426E-28  9.0237676184580E-28  9.1211094388959E-28  9.3140854859161E-28 
 4.9319914736734E-20  4.9319914454656E-20  4.9319913853708E-20  4.9319913265025E-20  4.9319912700869E-20  4.9319912087657E-20  4.9319911437653E-20  4.8039095975297E-20  4.8039095386614E-20  4.9319909929151E-20 
 4.9319914736734E-20  4.9319914454656E-20  4.9319913853708E-20  4.9319913265025E-20  4.9319912700869E-20  4.9319912087657E-20  4.9319911437653E-20  4.8039095975297E-20  4.8039095386614E-20  4.9319909929151E-20 
 0.0000000000000E+00  0.0000000000000E+00  0.0000000000000E+00  0.0000000000000E+00  0.0000000000000E+00  0.0000000000000E+00  0.0000000000000E+00  0.0000000000000E+00  0.0000000000000E+00  0.0000000000000E+00 
ZONE T = "SEP , 5.5000E-08", I = 10, SOLUTIONTIME = 5.500000E-08
ZONETYPE = ORDERED
DATAPACKING = BLOCK
STRANDID = 2
 7.8740000000000E-04  8.4102222222222E-04  8.9464444444444E-04  9.4826666666667E-04  1.0018888888889E-03  1.0555111111111E-03  1.1091333333333E-03  1.1627555555556E-03  1.2163777777778E-03  1.2700000000000E-03 
-2.1792081743477E-12 -2.1792081743492E-12 -2.1792081743478E-12 -2.1792081743478E-12 -2.1792081743478E-12 -2.1792081743478E-12 -2.1792081743463E-12 -2.1792081743419E-12 -2.1792081743419E-12 -2.1797381861591E-12 
 9.1999999800655E-01  9.1999999898939E-01  9.1999999997225E-01  9.2000000095510E-01  9.2000000193796E-01  9.2000000292081E-01  9.2000000390367E-01  9.2000000488652E-01  9.2000000586938E-01  9.2000000685222E-01 
 4.0000000996727E-02  4.0000000505305E-02  4.0000000013877E-02  3.9999999522450E-02  3.9999999031022E-02  3.9999998539594E-02  3.9999998048167E-02  3.9999997556739E-02  3.9999997065311E-02  3.9999996573890E-02 
 4.0000000996727E-02  4.0000000505305E-02  4.0000000013877E-02  3.9999999522450E-02  3.9999999031022E-02  3.9999998539594E-02  3.9999998048167E-02  3.9999997556739E-02  3.9999997065311E-02  3.9999996573890E-02 
 1.0307456410739E-02  1.0307456410739E-02  1.0307456410739E-02  1.0307456410739E-02  1.0307456410739E-02  1.0307456410739E-02  1.0307456410739E-02  1.0307456410739E-02  1.0307456410738E-02  1.0307456410738E-02 
 8.0911499769706E-01  8.0911499769706E-01  8.0911499769706E-01  8.0911499769706E-01  8.0911499769706E-01  8.0911499769706E-01  8.0911499769706E-01  8.0911499769706E-01  8.0911499769706E-01  8.0911499769706E-01 
 2.6811111111111E-05  5.3622222222222E-05  5.3622222222222E-05  5.3622222222222E-05  5.3622222222222E-05  5.3622222222222E-05  5.3622222222222E-05  5.3622222222223E-05  5.3622222222222E-05  2.6811111111111E-05 
 1.9088500230294E-01  1.9088500230294E-01  1.9088500230294E-01  1.9088500230294E-01  1.9088500230294E-01  1.9088500230294E-01  1.9088500230294E-01  1.9088500230294E-01  1.9088500230294E-01  1.9088500230294E-01 
 2.3167381007402E-27  2.3102486246357E-27  2.2941957164618E-27  2.3039298821521E-27  2.3102485419650E-27  2.3102485136733E-27  2.3102484839358E-27  2.2877061138290E-27  2.2974402790062E-27  2.3167378748974E-27 
 9.2355297415884E-20  9.2355296878838E-20  9.2355295787967E-20  9.2355294680312E-20  9.2355293572657E-20  9.2355292448220E-20  9.2355291273435E-20  9.2355290132214E-20  9.2355289007777E-20  9.2355288420385E-20 
 9.2355297415884E-20  9.2355296878838E-20  9.2355295787967E-20  9.2355294680312E-20  9.2355293572657E-20  9.2355292448220E-20  9.2355291273435E-20  9.2355290132214E-20  9.2355289007777E-20  9.2355288420385E-20 
 0.0000000000000E+00  0.0000000000000E+00  0.0000000000000E+00  0.0000000000000E+00  0.0000000000000E+00  0.0000000000000E+00  0.0000000000000E+00  0.0000000000000E+00  0.0000000000000E+00  0.0000000000000E+00 
ZONE T = "SEP , 7.7500E-08", I = 10, SOLUTIONTIME = 7.750000E-08
ZONETYPE = ORDERED
DATAPACKING = BLOCK
STRANDID = 2
 7.8740000000000E-04  8.4102222222222E-04  8.9464444444444E-04  9.4826666666667E-04  1.0018888888889E-03  1.0555111111111E-03  1.1091333333333E-03  1.1627555555556E-03  1.2163777777778E-03  1.2700000000000E-03 
 1.7757360411839E-12  1.7757360411834E-12  1.7757360411843E-12  1.7757360411843E-12  1.7757360411843E-12  1.7757360411843E-12  1.7757360411853E-12  1.7757360411882E-12  1.7757360411882E-12  2.1787693033641E-12 
 9.1999999800655E-01  9.1999999898939E-01  9.1999999997225E-01  9.2000000095510E-01  9.2000000193796E-01  9.2000000292081E-01  9.2000000390367E-01  9.2000000488652E-01  9.2000000586938E-01  9.2000000685222E-01 
 4.0000000996725E-02  4.0000000505305E-02  4.0000000013877E-02  3.9999999522450E-02  3.9999999031022E-02  3.9999998539594E-02  3.9999998048167E-02  3.9999997556739E-02  3.9999997065311E-02  3.9999996573892E-02 
 4.0000000996725E-02  4.0000000505305E-02  4.0000000013877E-02  3.9999999522450E-02  3.9999999031022E-02  3.9999998539594E-02  3.9999998048167E-02  3.9999997556739E-02  3.9999997065311E-02  3.9999996573892E-02 
 1.0307456404455E-02  1.0307456404454E-02  1.0307456404454E-02  1.0307456404454E-02  1.0307456404454E-02  1.0307456404454E-02  1.0307456404454E-02  1.0307456404454E-02  1.0307456404454E-02  1.0307456404453E-02 
 8.0911499769706E-01  8.0911499769706E-01  8.0911499769706E-01  8.0911499769706E-01  8.0911499769706E-01  8.0911499769706E-01  8.0911499769706E-01  8.0911499769706E-01  8.0911499769706E-01  8.0911499769706E-01 
 2.6811111111111E-05  5.3622222222222E-05  5.3622222222222E-05  5.3622222222222E-05  5.3622222222222E-05  5.3622222222222E-05  5.3622222222222E-05  5.3622222222223E-05  5.3622222222222E-05  2.6811111111111E-05 
 1.9088500230294E-01  1.9088500230294E-01  1.9088500230294E-01  1.9088500230294E-01  1.9088500230294E-01  1.9088500230294E-01  1.9088500230294E-01  1.9088500230294E-01  1.9088500230294E-01  1.9088500230294E-01 
 6.5249837388928E-27  6.4620102973963E-27  6.3894733989153E-27  6.4556914526168E-27  6.4620100625998E-27  6.4620099827208E-27  6.4620099015630E-27  6.3829835450124E-27  6.4492015948604E-27  6.5249830992771E-27 
 1.8703313947345E-19  1.8452274101158E-19  1.8201234144238E-19  1.8452273646510E-19  1.8452273425043E-19  1.8452273195767E-19  1.8452272967232E-19  1.8201233027482E-19  1.8452272514908E-19  1.8703312108354E-19 
 1.8703313947345E-19  1.8452274101158E-19  1.8201234144238E-19  1.8452273646510E-19  1.8452273425043E-19  1.8452273195767E-19  1.8452272967232E-19  1.8201233027482E-19  1.8452272514908E-19  1.8703312108354E-19 
 0.0000000000000E+00  0.0000000000000E+00  0.0000000000000E+00  0.0000000000000E+00  0.0000000000000E+00  0.0000000000000E+00  0.0000000000000E+00  0.0000000000000E+00  0.0000000000000E+00  0.0000000000000E+00 
ZONE T = "SEP , 1.1125E-07", I = 10, SOLUTIONTIME = 1.112500E-07
ZONETYPE = ORDERED
DATAPACKING = BLOCK
STRANDID = 2
 7.8740000000000E-04  8.4102222222222E-04  8.9464444444444E-04  9.4826666666667E-04  1.0018888888889E-03  1.0555111111111E-03  1.1091333333333E-03  1.1627555555556E-03  1.2163777777778E-03  1.2700000000000E-03 
-5.3800826997060E-13 -5.3800826997026E-13 -5.3800826996961E-13 -5.3800826996961E-13 -5.3800826996961E-13 -5.3800826996961E-13 -5.3800826996896E-13 -5.3800826996701E-13 -5.3800826996701E-13 -9.6900886986081E-13 
 9.1999999800656E-01  9.1999999898939E-01  9.1999999997225E-01  9.2000000095510E-01  9.2000000193796E-01  9.2000000292081E-01  9.2000000390367E-01  9.2000000488652E-01  9.2000000586938E-01  9.2000000685221E-01 
 4.0000000996722E-02  4.0000000505305E-02  4.0000000013877E-02  3.9999999522450E-02  3.9999999031022E-02  3.9999998539594E-02  3.9999998048167E-02  3.9999997556739E-02  3.9999997065311E-02  3.9999996573896E-02 
 4.0000000996722E-02  4.0000000505305E-02  4.0000000013877E-02  3.9999999522450E-02  3.9999999031022E-02  3.9999998539594E-02  3.9999998048167E-02  3.9999997556739E-02  3.9999997065311E-02  3.9999996573896E-02 
 1.0307456395029E-02  1.0307456395029E-02  1.0307456395029E-02  1.0307456395028E-02  1.0307456395028E-02  1.0307456395028E-02  1.0307456395028E-02  1.0307456395028E-02  1.0307456395028E-02  1.0307456395027E-02 
 8.0911499769706E-01  8.0911499769706E-01  8.0911499769706E-01  8.0911499769706E-01  8.0911499769706E-01  8.0911499769706E-01  8.0911499769706E-01  8.0911499769706E-01  8.0911499769706E-01  8.0911499769706E-01 
 2.6811111111111E-05  5.3622222222222E-05  5.3622222222222E-05  5.3622222222222E-05  5.3622222222222E-05  5.3622222222222E-05  5.3622222222222E-05  5.3622222222223E-05  5.3622222222222E-05  2.6811111111111E-05 
 1.9088500230294E-01  1.9088500230294E-01  1.9088500230294E-01  1.9088500230294E-01  1.9088500230294E-01  1.9088500230294E-01  1.9088500230294E-01  1.9088500230294E-01  1.9088500230294E-01  1.9088500230294E-01 
 1.9477096953441E-26  1.9292510054428E-26  1.9098359621801E-26  1.9286190898633E-26  1.9292509354213E-26  1.9292509113843E-26  1.9292508871421E-26  1.9091868984449E-26  1.9279700250227E-26  1.9477095046060E-26 
 3.8376631746811E-19  3.8016295576390E-19  3.7655959178921E-19  3.8016294654862E-19  3.8016294197373E-19  3.8016293721844E-19  3.8016293244022E-19  3.7655956857590E-19  3.8016292312198E-19  3.8376627990467E-19 
 3.8376631746811E-19  3.8016295576390E-19  3.7655959178921E-19  3.8016294654862E-19  3.8016294197373E-19  3.8016293721844E-19  3.8016293244022E-19  3.7655956857590E-19  3.8016292312198E-19  3.8376627990467E-19 
 0.0000000000000E+00  0.0000000000000E+00  0.0000000000000E+00  0.0000000000000E+00  0.0000000000000E+00  0.0000000000000E+00  0.0000000000000E+00  0.0000000000000E+00  0.0000000000000E+00  0.0000000000000E+00 
ZONE T = "SEP , 1.6188E-07", I = 10, SOLUTIONTIME = 1.618750E-07
ZONETYPE = ORDERED
DATAPACKING = BLOCK
STRANDID = 2
 7.8740000000000E-04  8.4102222222222E-04  8.9464444444444E-04  9.4826666666667E-04  1.0018888888889E-03  1.0555111111111E-03  1.1091333333333E-03  1.1627555555556E-03  1.2163777777778E-03  1.2700000000000E-03 
 1.1240696598208E-16  1.1240696724984E-16  1.1240696768270E-16  1.1240696768191E-16  1.1240696768115E-16  1.1240696767959E-16  1.1240696811693E-16  1.1240696941458E-16  1.1240696941458E-16 -4.2172777917976E-16 
 9.1999999800657E-01  9.1999999898939E-01  9.1999999997225E-01  9.2000000095510E-01  9.2000000193796E-01  9.2000000292081E-01  9.2000000390367E-01  9.2000000488652E-01  9.2000000586938E-01  9.2000000685220E-01 
 4.0000000996717E-02  4.0000000505305E-02  4.0000000013877E-02  3.9999999522450E-02  3.9999999031022E-02  3.9999998539594E-02  3.9999998048167E-02  3.9999997556739E-02  3.9999997065311E-02  3.9999996573901E-02 
 4.0000000996717E-02  4.0000000505305E-02  4.0000000013877E-02  3.9999999522450E-02  3.9999999031022E-02  3.9999998539594E-02  3.9999998048167E-02  3.9999997556739E-02  3.9999997065311E-02  3.9999996573901E-02 
 1.0307456380890E-02  1.0307456380890E-02  1.0307456380889E-02  1.0307456380889E-02  1.0307456380889E-02  1.0307456380889E-02  1.0307456380888E-02  1.0307456380888E-02  1.0307456380888E-02  1.0307456380888E-02 
 8.0911499769706E-01  8.0911499769706E-01  8.0911499769706E-01  8.0911499769706E-01  8.0911499769706E-01  8.0911499769706E-01  8.0911499769706E-01  8.0911499769706E-01  8.0911499769706E-01  8.0911499769706E-01 
 2.6811111111111E-05  5.3622222222222E-05  5.3622222222222E-05  5.3622222222222E-05  5.3622222222222E-05  5.3622222222222E-05  5.3622222222222E-05  5.3622222222223E-05  5.3622222222222E-05  2.6811111111111E-05 
 1.9088500230294E-01  1.9088500230294E-01  1.9088500230294E-01  1.9088500230294E-01  1.9088500230294E-01  1.9088500230294E-01  1.9088500230294E-01  1.9088500230294E-01  1.9088500230294E-01  1.9088500230294E-01 
 5.9953603486663E-26  5.9769016340165E-26  5.9840282287872E-26  6.0028113069734E-26  5.9769014157540E-26  6.0034430285103E-26  6.0034429537711E-26  5.9568372290367E-26  6.0021619919177E-26  6.0484431320526E-26 
 7.9953593152043E-19  7.9953592663183E-19  8.0477871932980E-19  8.0477870955262E-19  7.9953589734966E-19  8.0477868980267E-19  8.0477867982797E-19  7.9953586777121E-19  8.0477866012740E-19  8.1002145727341E-19 
 7.9953593152043E-19  7.9953592663183E-19  8.0477871932980E-19  8.0477870955262E-19  7.9953589734966E-19  8.0477868980267E-19  8.0477867982797E-19  7.9953586777121E-19  8.0477866012740E-19  8.1002145727341E-19 
 0.0000000000000E+00  0.0000000000000E+00  0.0000000000000E+00  0.0000000000000E+00  0.0000000000000E+00  0.0000000000000E+00  0.0000000000000E+00  0.0000000000000E+00  0.0000000000000E+00  0.0000000000000E+00 
ZONE T = "SEP , 2.3781E-07", I = 10, SOLUTIONTIME = 2.378125E-07
ZONETYPE = ORDERED
DATAPACKING = BLOCK
STRANDID = 2
 7.8740000000000E-04  8.4102222222222E-04  8.9464444444444E-04  9.4826666666667E-04  1.0018888888889E-03  1.0555111111111E-03  1.1091333333333E-03  1.1627555555556E-03  1.2163777777778E-03  1.2700000000000E-03 
-9.5494510031165E-14 -9.5494510031243E-14 -9.5494510030954E-14 -9.5494510030955E-14 -9.5494510030956E-14 -9.5494510030958E-14 -9.5494510030664E-14 -9.5494510029798E-14 -1.9115415849861E-13 -7.2116662115978E-14 
 9.1999999800658E-01  9.1999999898939E-01  9.1999999997225E-01  9.2000000095510E-01  9.2000000193796E-01  9.2000000292081E-01  9.2000000390367E-01  9.2000000488652E-01  9.2000000586938E-01  9.2000000685218E-01 
 4.0000000996709E-02  4.0000000505305E-02  4.0000000013877E-02  3.9999999522450E-02  3.9999999031022E-02  3.9999998539594E-02  3.9999998048167E-02  3.9999997556739E-02  3.9999997065311E-02  3.9999996573910E-02 
 4.0000000996709E-02  4.0000000505305E-02  4.0000000013877E-02  3.9999999522450E-02  3.9999999031022E-02  3.9999998539594E-02  3.9999998048167E-02  3.9999997556739E-02  3.9999997065311E-02  3.9999996573910E-02 
 1.0307456359680E-02  1.0307456359680E-02  1.0307456359680E-02  1.0307456359679E-02  1.0307456359679E-02  1.0307456359678E-02  1.0307456359678E-02  1.0307456359678E-02  1.0307456359677E-02  1.0307456359677E-02 
 8.0911499769706E-01  8.0911499769706E-01  8.0911499769706E-01  8.0911499769706E-01  8.0911499769706E-01  8.0911499769706E-01  8.0911499769706E-01  8.0911499769706E-01  8.0911499769706E-01  8.0911499769706E-01 
 2.6811111111111E-05  5.3622222222222E-05  5.3622222222222E-05  5.3622222222222E-05  5.3622222222222E-05  5.3622222222222E-05  5.3622222222222E-05  5.3622222222223E-05  5.3622222222222E-05  2.6811111111111E-05 
 1.9088500230294E-01  1.9088500230294E-01  1.9088500230294E-01  1.9088500230294E-01  1.9088500230294E-01  1.9088500230294E-01  1.9088500230294E-01  1.9088500230294E-01  1.9088500230294E-01  1.9088500230294E-01 
 1.9242688607886E-25  1.9165742997274E-25  1.9114382616676E-25  1.9133165534394E-25  1.9165742293411E-25  1.9192283744597E-25  1.9133796695928E-25  1.9087190810725E-25  1.9191002221850E-25  1.9295770089635E-25 
 1.7445041329013E-18  1.7368021548323E-18  1.7291001663064E-18  1.7291001451748E-18  1.7368020908849E-18  1.7368020696081E-18  1.7291000812716E-18  1.7291000601400E-18  1.7368020055878E-18  1.7445039614924E-18 
 1.7445041329013E-18  1.7368021548323E-18  1.7291001663064E-18  1.7291001451748E-18  1.7368020908849E-18  1.7368020696081E-18  1.7291000812716E-18  1.7291000601400E-18  1.7368020055878E-18  1.7445039614924E-18 
 0.0000000000000E+00  0.0000000000000E+00  0.0000000000000E+00  0.0000000000000E+00  0.0000000000000E+00  0.0000000000000E+00  0.0000000000000E+00  0.0000000000000E+00  0.0000000000000E+00  0.0000000000000E+00 
ZONE T = "SEP , 3.5172E-07", I = 10, SOLUTIONTIME = 3.517188E-07
ZONETYPE = ORDERED
DATAPACKING = BLOCK
STRANDID = 2
 7.8740000000000E-04  8.4102222222222E-04  8.9464444444444E-04  9.4826666666667E-04  1.0018888888889E-03  1.0555111111111E-03  1.1091333333333E-03  1.1627555555556E-03  1.2163777777778E-03  1.2700000000000E-03 
 3.0316645577771E-13  3.0316645577968E-13  3.0316645577987E-13  3.0316645577987E-13  3.0316645577987E-13  3.0316645577987E-13  3.0316645578006E-13  3.0316645578064E-13  3.6693955475578E-13  3.1856827214253E-13 
 9.1999999800660E-01  9.1999999898939E-01  9.1999999997225E-01  9.2000000095510E-01  9.2000000193796E-01  9.2000000292081E-01  9.2000000390367E-01  9.2000000488652E-01  9.2000000586938E-01  9.2000000685216E-01 
 4.0000000996698E-02  4.0000000505305E-02  4.0000000013877E-02  3.9999999522450E-02  3.9999999031022E-02  3.9999998539594E-02  3.9999998048167E-02  3.9999997556739E-02  3.9999997065311E-02  3.9999996573922E-02 