TITLE = "Solution on Domain BulkDomain1D_0"
VARIABLES = "x [m]"  
"Vel_axial" 
"MF_sp(ECDMC)" 
"MF_sp(Li+)" 
"MF_sp(PF6-)" 
"Volt(Electroly)" 
"Volt(AnodeVolt)" 
"Potential Drop Electrode-Electrolyte [V]" 
"Surf_0 Equilibrium Potential Drop Electrode-Electrolyte [V]" 
"Overpotential_0 [V]" 
"Current Source [A/m^2]" 
"Li+ flux [kmol/m^2/s]" 
"Electrolyte Current [A/m^2]" 
"Electrode Current [A/m^2]" 
"CV Capacity discharged [A-s/m^2]" 
"Depth of discharge in CV [A-s/m^2]" 
"CV Capacity remaining [A-s/m^2]" 
"Initial CV capacity [A-s/m^2]" 
"Porosity []" 
"Surface Area [m2/m2] (area per area)" 
"Specific current (per particle area) [A/m^2]" 
"Control volume thickness [m]" 
"MoleDens Li_C6-bulk [kmol/m^3]" 
"MoleDens V_C6-bulk [kmol/m^3]" 
"qHeat_accum [J/m3]" 
"qHeat_step [W/m3]" 
"Joule_Lyte [W/m3]" 
"Joule_Solid [W/m3]" 
"electrodHeat [W/m3]" 
"OverpotHeat [W/m3]" 
"deltaSHeat [W/m3]" 

ZONE T = "ANOD, 0.0000E+00", I = 10, SOLUTIONTIME = 0.000000E+00
ZONETYPE = ORDERED
DATAPACKING = BLOCK
STRANDID = 1
 0.0000000000000E+00  8.7488888888889E-05  1.7497777777778E-04  2.6246666666667E-04  3.4995555555556E-04  4.3744444444444E-04  5.2493333333333E-04  6.1242222222222E-04  6.9991111111111E-04  7.8740000000000E-04 
 8.0556036137532E-12  2.4166809368316E-11  4.0278010269142E-11  5.6389202940529E-11  7.2500383999613E-11  8.8611550072436E-11  1.0472269777983E-10  1.2083382374051E-10  1.3694492457746E-10  1.4500046074539E-10 
 9.1999997264233E-01  9.1999997295547E-01  9.1999997389488E-01  9.1999997546058E-01  9.1999997765255E-01  9.1999998047079E-01  9.1999998391532E-01  9.1999998798612E-01  9.1999999268319E-01  9.1999999800653E-01 
 4.0000013678836E-02  4.0000013522267E-02  4.0000013052559E-02  4.0000012269712E-02  4.0000011173727E-02  4.0000009764603E-02  4.0000008042341E-02  4.0000006006942E-02  4.0000003658406E-02  4.0000000996733E-02 
 4.0000013678836E-02  4.0000013522267E-02  4.0000013052559E-02  4.0000012269712E-02  4.0000011173727E-02  4.0000009764603E-02  4.0000008042341E-02  4.0000006006942E-02  4.0000003658406E-02  4.0000000996733E-02 
 1.0249120196691E-02  1.0249120087379E-02  1.0249119759444E-02  1.0249119212886E-02  1.0249118447705E-02  1.0249117463900E-02  1.0249116261473E-02  1.0249114840424E-02  1.0249113200752E-02  1.0249111342458E-02 
 0.0000000000000E+00 -2.6544331020875E-11 -4.9965790634587E-11 -7.0264379781945E-11 -8.7440100058081E-11 -1.0149295371383E-10 -1.1242294365402E-10 -1.2023007343846E-10 -1.2491434728237E-10 -1.2647577005553E-10 
-1.0249120196691E-02 -1.0249120113923E-02 -1.0249119809410E-02 -1.0249119283150E-02 -1.0249118535145E-02 -1.0249117565393E-02 -1.0249116373896E-02 -1.0249114960654E-02 -1.0249113325666E-02 -1.0249111468934E-02 
-1.0307459482522E-02 -1.0307459394132E-02 -1.0307459071161E-02 -1.0307458513628E-02 -1.0307457721502E-02 -1.0307456694802E-02 -1.0307455433531E-02 -1.0307453937675E-02 -1.0307452207236E-02 -1.0307450242231E-02 
 5.8339285831151E-05  5.8339280209070E-05  5.8339261751481E-05  5.8339230477975E-05  5.8339186357059E-05  5.8339129408875E-05  5.8339059634651E-05  5.8338977020997E-05  5.8338881570223E-05  5.8338773297271E-05 
 1.1600715693615E-02  2.3201429151698E-02  2.3201421826278E-02  2.3201409418922E-02  2.3201391917042E-02  2.3201369328470E-02  2.3201341653798E-02  2.3201308887954E-02  2.3201271031452E-02  1.1600614045258E-02 
 1.1542358916420E-10  3.4627074924006E-10  5.7711783342576E-10  8.0796480048364E-10  1.0388116042661E-09  1.2696581835309E-09  1.5005044938502E-09  1.7313505045102E-09  1.9621961354529E-09  1.9621961354529E-09 
 0.0000000000000E+00  2.3201420717808E-02  4.6402836656475E-02  6.9604243128906E-02  9.2805635724158E-02  1.1600700901875E-01  1.3920835740510E-01  1.6240967822121E-01  1.8561096484696E-01  2.0881221211661E-01 
 1.7059771149140E-01  1.4964420458200E-01  1.3093862496809E-01  1.1223305294917E-01  9.3527492448659E-02  7.4821947389009E-02  5.6116421690506E-02  3.7410919277691E-02  1.8705444073852E-02  0.0000000000000E+00 
 1.4407436557919E+04  2.8814873691066E+04  2.8814875592718E+04  2.8814878820812E+04  2.8814883375324E+04  2.8814889256269E+04  2.8814896463642E+04  2.8814904997455E+04  2.8814914857697E+04  1.4407463022191E+04 
 1.0585588110120E+05  2.1171176277763E+05  2.1171176467928E+05  2.1171176790737E+05  2.1171177246189E+05  2.1171177834283E+05  2.1171178555020E+05  2.1171179408402E+05  2.1171180394426E+05  1.0585590756547E+05 
 3.5138634161521E+05  7.0277268265518E+05  7.0277268075353E+05  7.0277267752544E+05  7.0277267297093E+05  7.0277266708998E+05  7.0277265988261E+05  7.0277265134880E+05  7.0277264148855E+05  3.5138631515093E+05 
 4.5724222271641E+05  9.1448444543281E+05  9.1448444543281E+05  9.1448444543281E+05  9.1448444543281E+05  9.1448444543281E+05  9.1448444543281E+05  9.1448444543281E+05  9.1448444543281E+05  4.5724222271641E+05 
 3.5000000000000E-01  3.5000000000000E-01  3.5000000000000E-01  3.5000000000000E-01  3.5000000000000E-01  3.5000000000000E-01  3.5000000000000E-01  3.5000000000000E-01  3.5000000000000E-01  3.5000000000000E-01 
 8.5301666666666E+00  1.7060333333333E+01  1.7060333333333E+01  1.7060333333333E+01  1.7060333333333E+01  1.7060333333333E+01  1.7060333333333E+01  1.7060333333333E+01  1.7060333333333E+01  8.5301666666666E+00 
 1.3599635443171E-03  1.3599634132802E-03  1.3599629838970E-03  1.3599622566337E-03  1.3599612307522E-03  1.3599599067117E-03  1.3599582845469E-03  1.3599563639605E-03  1.3599541449827E-03  1.3599516279781E-03 
 4.3744444444444E-05  8.7488888888889E-05  8.7488888888889E-05  8.7488888888889E-05  8.7488888888889E-05  8.7488888888889E-05  8.7488888888889E-05  8.7488888888889E-05  8.7488888888889E-05  4.3744444444444E-05 
 8.3253146327632E+01  8.3253146259488E+01  8.3253146034211E+01  8.3253145651799E+01  8.3253145112254E+01  8.3253144415575E+01  8.3253143561762E+01  8.3253142550814E+01  8.3253141382731E+01  8.3253140057514E+01 
 2.5080187005701E+01  2.5080187073845E+01  2.5080187299122E+01  2.5080187681534E+01  2.5080188221079E+01  2.5080188917759E+01  2.5080189771572E+01  2.5080190782520E+01  2.5080191950602E+01  2.5080193275820E+01 
 0.0000000000000E+00  0.0000000000000E+00  0.0000000000000E+00  0.0000000000000E+00  0.0000000000000E+00  0.0000000000000E+00  0.0000000000000E+00  0.0000000000000E+00  0.0000000000000E+00  0.0000000000000E+00 
 0.0000000000000E+00  0.0000000000000E+00  0.0000000000000E+00  0.0000000000000E+00  0.0000000000000E+00  0.0000000000000E+00  0.0000000000000E+00  0.0000000000000E+00  0.0000000000000E+00  0.0000000000000E+00 
 0.0000000000000E+00  0.0000000000000E+00  0.0000000000000E+00  0.0000000000000E+00  0.0000000000000E+00  0.0000000000000E+00  0.0000000000000E+00  0.0000000000000E+00  0.0000000000000E+00  0.0000000000000E+00 
 0.0000000000000E+00  0.0000000000000E+00  0.0000000000000E+00  0.0000000000000E+00  0.0000000000000E+00  0.0000000000000E+00  0.0000000000000E+00  0.0000000000000E+00  0.0000000000000E+00  0.0000000000000E+00 
 0.0000000000000E+00  0.0000000000000E+00  0.0000000000000E+00  0.0000000000000E+00  0.0000000000000E+00  0.0000000000000E+00  0.0000000000000E+00  0.0000000000000E+00  0.0000000000000E+00  0.0000000000000E+00 
 0.0000000000000E+00  0.0000000000000E+00  0.0000000000000E+00  0.0000000000000E+00  0.0000000000000E+00  0.0000000000000E+00  0.0000000000000E+00  0.0000000000000E+00  0.0000000000000E+00  0.0000000000000E+00 
 0.0000000000000E+00  0.0000000000000E+00  0.0000000000000E+00  0.0000000000000E+00  0.0000000000000E+00  0.0000000000000E+00  0.0000000000000E+00  0.0000000000000E+00  0.0000000000000E+00  0.0000000000000E+00 
ZONE T = "ANOD, 1.0000E-08", I = 10, SOLUTIONTIME = 1.000000E-08
ZONETYPE = ORDERED
DATAPACKING = BLOCK
STRANDID = 1
 0.0000000000000E+00  8.7488888888889E-05  1.7497777777778E-04  2.6246666666667E-04  3.4995555555556E-04  4.3744444444444E-04  5.2493333333333E-04  6.1242222222222E-04  6.9991111111111E-04  7.8740000000000E-04 
 4.2239306536733E-16  1.2427725469665E-15 -3.6123376428056E-13  2.5511880937772E-15 -3.6029806322993E-13 -3.6022311636368E-13  7.2912670363144E-13  7.2844024359598E-13  3.6406817513830E-13  3.6321467138185E-13 
 9.1999997264233E-01  9.1999997295547E-01  9.1999997389489E-01  9.1999997546058E-01  9.1999997765255E-01  9.1999998047080E-01  9.1999998391532E-01  9.1999998798612E-01  9.1999999268319E-01  9.1999999800654E-01 
 4.0000013678834E-02  4.0000013522264E-02  4.0000013052556E-02  4.0000012269709E-02  4.0000011173724E-02  4.0000009764601E-02  4.0000008042339E-02  4.0000006006940E-02  4.0000003658403E-02  4.0000000996732E-02 
 4.0000013678834E-02  4.0000013522264E-02  4.0000013052556E-02  4.0000012269709E-02  4.0000011173724E-02  4.0000009764601E-02  4.0000008042339E-02  4.0000006006940E-02  4.0000003658403E-02  4.0000000996732E-02 
 1.0307290113419E-02  1.0307290113413E-02  1.0307290113396E-02  1.0307290113370E-02  1.0307290113335E-02  1.0307290113296E-02  1.0307290113255E-02  1.0307290113218E-02  1.0307290113191E-02  1.0307290113179E-02 
 0.0000000000000E+00  9.9882082070126E-17  3.9699924778581E-16  8.6990885160063E-16  1.4815944039122E-15  2.1794646255899E-15  2.8953535222022E-15  3.5455205849724E-15  4.0306493872344E-15  4.2358481868412E-15 
-1.0307290113419E-02 -1.0307290113413E-02 -1.0307290113396E-02 -1.0307290113369E-02 -1.0307290113334E-02 -1.0307290113293E-02 -1.0307290113252E-02 -1.0307290113215E-02 -1.0307290113187E-02 -1.0307290113175E-02 
-1.0307459482514E-02 -1.0307459394138E-02 -1.0307459071167E-02 -1.0307458513626E-02 -1.0307457721504E-02 -1.0307456694805E-02 -1.0307455433532E-02 -1.0307453937674E-02 -1.0307452207237E-02 -1.0307450242229E-02 
 1.6936909515847E-07  1.6928072433219E-07  1.6895777128073E-07  1.6840025678436E-07  1.6760817030115E-07  1.6658151169927E-07  1.6532027954062E-07  1.6382445943569E-07  1.6209405039394E-07  1.6012905449878E-07 
 3.3678888792750E-05  6.7322630428867E-05  6.7194193355844E-05  6.6972471755639E-05  6.6657460392903E-05  6.6249159568551E-05  6.5747570631927E-05  6.5152684742169E-05  6.4464505940503E-05  3.1841515427805E-05 
 5.5310293979627E-11  1.6593070128987E-10  2.7655039992056E-10  3.8716889177132E-10  4.9778567477489E-10  6.0840022827313E-10  7.1901206571657E-10  8.2962065421829E-10  9.4022501050784E-10  9.4022501050784E-10 
 0.0000000000000E+00  1.1989364026963E-06  2.3161333907752E-06  3.2583454488956E-06  3.9320509292066E-06  4.2440964006617E-06  4.1012364120484E-06  3.4101334992135E-06  2.0775422901893E-06  3.3080676840350E-05 
 3.3080608468010E-05 -1.1889862223742E-06 -2.3061787268803E-06 -3.2482900274508E-06 -3.9220320476375E-06 -4.2341141016713E-06 -4.0912463279384E-06 -3.4001352631527E-06 -2.0674850446806E-06  0.0000000000000E+00 
 1.4407436557919E+04  2.8814873691066E+04  2.8814875592718E+04  2.8814878820812E+04  2.8814883375324E+04  2.8814889256269E+04  2.8814896463642E+04  2.8814904997455E+04  2.8814914857697E+04  1.4407463022191E+04 
 1.0585588110120E+05  2.1171176277763E+05  2.1171176467928E+05  2.1171176790737E+05  2.1171177246189E+05  2.1171177834283E+05  2.1171178555020E+05  2.1171179408402E+05  2.1171180394426E+05  1.0585590756547E+05 
 3.5138634161521E+05  7.0277268265518E+05  7.0277268075353E+05  7.0277267752544E+05  7.0277267297093E+05  7.0277266708998E+05  7.0277265988261E+05  7.0277265134880E+05  7.0277264148855E+05  3.5138631515093E+05 
 4.5724222271641E+05  9.1448444543281E+05  9.1448444543281E+05  9.1448444543281E+05  9.1448444543281E+05  9.1448444543281E+05  9.1448444543281E+05  9.1448444543281E+05  9.1448444543281E+05  4.5724222271641E+05 
 3.5000000000000E-01  3.5000000000000E-01  3.5000000000000E-01  3.5000000000000E-01  3.5000000000000E-01  3.5000000000000E-01  3.5000000000000E-01  3.5000000000000E-01  3.5000000000000E-01  3.5000000000000E-01 
 8.5301666666667E+00  1.7060333333333E+01  1.7060333333333E+01  1.7060333333333E+01  1.7060333333333E+01  1.7060333333333E+01  1.7060333333333E+01  1.7060333333333E+01  1.7060333333333E+01  8.5301666666667E+00 
 3.9482099364314E-06  3.9461497682070E-06  3.9386213647161E-06  3.9256250418498E-06  3.9071604927358E-06  3.8832277350121E-06  3.8538268477713E-06  3.8189573128018E-06  3.7786193669821E-06  3.7328128127006E-06 
 4.3744444444444E-05  8.7488888888889E-05  8.7488888888889E-05  8.7488888888889E-05  8.7488888888889E-05  8.7488888888889E-05  8.7488888888889E-05  8.7488888888889E-05  8.7488888888889E-05  4.3744444444444E-05 
 8.3253146327632E+01  8.3253146259488E+01  8.3253146034211E+01  8.3253145651799E+01  8.3253145112254E+01  8.3253144415575E+01  8.3253143561762E+01  8.3253142550814E+01  8.3253141382731E+01  8.3253140057514E+01 
 2.5080187005701E+01  2.5080187073845E+01  2.5080187299122E+01  2.5080187681534E+01  2.5080188221079E+01  2.5080188917759E+01  2.5080189771572E+01  2.5080190782520E+01  2.5080191950602E+01  2.5080193275820E+01 
 4.0530966679505E-25  1.9575907525202E-24  6.1830702558964E-24  1.1825411212792E-23  1.7018532022858E-23  1.9745200374565E-23  1.8477742573666E-23  1.3013157649273E-23  5.5006777829280E-24  1.6826349591923E-24 
 4.0530966679505E-17  1.9575907525202E-16  6.1830702558964E-16  1.1825411212792E-15  1.7018532022858E-15  1.9745200374565E-15  1.8477742573666E-15  1.3013157649273E-15  5.5006777829280E-16  1.6826349591923E-16 
 3.9847937265650E-17  1.9239559349729E-16  6.0762925985849E-16  1.1620770464348E-15  1.6723730846634E-15  1.9403043223637E-15  1.8157598627865E-15  1.2787887078964E-15  5.4056984436370E-16  1.6538070022536E-16 
 6.8302941385532E-19  3.3634817547375E-18  1.0677765731149E-17  2.0464074844413E-17  2.9480117622404E-17  3.4215715092721E-17  3.2014394580093E-17  2.2527057030870E-17  9.4979339291011E-18  2.8827956938685E-18 
 0.0000000000000E+00  0.0000000000000E+00  0.0000000000000E+00  0.0000000000000E+00  0.0000000000000E+00  0.0000000000000E+00  0.0000000000000E+00  0.0000000000000E+00  0.0000000000000E+00  0.0000000000000E+00 
 0.0000000000000E+00  0.0000000000000E+00  0.0000000000000E+00  0.0000000000000E+00  0.0000000000000E+00  0.0000000000000E+00  0.0000000000000E+00  0.0000000000000E+00  0.0000000000000E+00  0.0000000000000E+00 
 0.0000000000000E+00  0.0000000000000E+00  0.0000000000000E+00  0.0000000000000E+00  0.0000000000000E+00  0.0000000000000E+00  0.0000000000000E+00  0.0000000000000E+00  0.0000000000000E+00  0.0000000000000E+00 
ZONE T = "ANOD, 2.0000E-08", I = 10, SOLUTIONTIME = 2.000000E-08
ZONETYPE = ORDERED
DATAPACKING = BLOCK
STRANDID = 1
 0.0000000000000E+00  8.7488888888889E-05  1.7497777777778E-04  2.6246666666667E-04  3.4995555555556E-04  4.3744444444444E-04  5.2493333333333E-04  6.1242222222222E-04  6.9991111111111E-04  7.8740000000000E-04 
-1.8118108919986E-13  9.0926323659019E-13  1.2732029198103E-12  1.2737809105071E-12  1.2741401548999E-12  1.8459269011809E-13 -5.4209535457930E-13 -1.6324042197018E-12 -1.6335677774519E-12 -2.3608363424713E-12 
 9.1999997264234E-01  9.1999997295548E-01  9.1999997389489E-01  9.1999997546059E-01  9.1999997765256E-01  9.1999998047080E-01  9.1999998391533E-01  9.1999998798613E-01  9.1999999268320E-01  9.1999999800654E-01 
 4.0000013678831E-02  4.0000013522262E-02  4.0000013052554E-02  4.0000012269707E-02  4.0000011173722E-02  4.0000009764598E-02  4.0000008042337E-02  4.0000006006937E-02  4.0000003658401E-02  4.0000000996731E-02 
 4.0000013678831E-02  4.0000013522262E-02  4.0000013052554E-02  4.0000012269707E-02  4.0000011173722E-02  4.0000009764598E-02  4.0000008042337E-02  4.0000006006937E-02  4.0000003658401E-02  4.0000000996731E-02 
 1.0307453069124E-02  1.0307453069118E-02  1.0307453069101E-02  1.0307453069074E-02  1.0307453069040E-02  1.0307453069000E-02  1.0307453068960E-02  1.0307453068923E-02  1.0307453068895E-02  1.0307453068883E-02 
 0.0000000000000E+00  9.8304235684095E-17  3.9402698546576E-16  8.6572596964893E-16  1.4763850889877E-15  2.1734135040029E-15  2.8886461258379E-15  3.5383430516647E-15  4.0231888260104E-15  4.2282928277779E-15 
-1.0307453069124E-02 -1.0307453069118E-02 -1.0307453069101E-02 -1.0307453069073E-02 -1.0307453069038E-02 -1.0307453068998E-02 -1.0307453068957E-02 -1.0307453068919E-02 -1.0307453068891E-02 -1.0307453068879E-02 
-1.0307459482524E-02 -1.0307459394135E-02 -1.0307459071169E-02 -1.0307458513630E-02 -1.0307457721506E-02 -1.0307456694813E-02 -1.0307455433533E-02 -1.0307453937672E-02 -1.0307452207241E-02 -1.0307450242231E-02 
 6.4133997730587E-09  6.3250174819895E-09  6.0020683093770E-09  5.4445566562145E-09  4.6524680826637E-09  3.6258145461737E-09  2.3645766906999E-09  8.6875310070789E-10 -8.6165015053541E-10 -2.8266480024686E-09 
 1.2752975665384E-06  2.5154472003332E-06  2.3870108407880E-06  2.1652895455808E-06  1.8502773672477E-06  1.4419775382244E-06  9.4038710792616E-07  3.4550078245674E-07 -3.4267853525515E-07 -5.6207682845557E-07 
 5.5310298410402E-11  1.6593070857503E-10  2.7655041266213E-10  3.8716891467545E-10  4.9778570053340E-10  6.0840025975575E-10  7.1901210135460E-10  8.2962069646283E-10  9.4022455834993E-10  9.4022455834993E-10 
 0.0000000000000E+00  1.2001330378765E-06  2.3184346122514E-06  3.2615671588950E-06  3.9363772253903E-06  4.2496193317856E-06  4.1078639290748E-06  3.4178656020078E-06  2.0863789786018E-06  6.8647356525618E-07 
 6.8646833080907E-07 -1.1800844953117E-06 -2.2983768194116E-06 -3.2415902043648E-06 -3.9164367947525E-06 -4.2296274478505E-06 -4.0878728000940E-06 -3.3978795847195E-06 -2.0663534817865E-06  0.0000000000000E+00 
 1.4407436557919E+04  2.8814873691066E+04  2.8814875592718E+04  2.8814878820812E+04  2.8814883375324E+04  2.8814889256269E+04  2.8814896463642E+04  2.8814904997455E+04  2.8814914857697E+04  1.4407463022191E+04 
 1.0585588110120E+05  2.1171176277763E+05  2.1171176467928E+05  2.1171176790737E+05  2.1171177246189E+05  2.1171177834283E+05  2.1171178555020E+05  2.1171179408402E+05  2.1171180394426E+05  1.0585590756547E+05 
 3.5138634161521E+05  7.0277268265518E+05  7.0277268075353E+05  7.0277267752544E+05  7.0277267297093E+05  7.0277266708998E+05  7.0277265988261E+05  7.0277265134880E+05  7.0277264148855E+05  3.5138631515093E+05 
 4.5724222271641E+05  9.1448444543281E+05  9.1448444543281E+05  9.1448444543281E+05  9.1448444543281E+05  9.1448444543281E+05  9.1448444543281E+05  9.1448444543281E+05  9.1448444543281E+05  4.5724222271641E+05 
 3.5000000000000E-01  3.5000000000000E-01  3.5000000000000E-01  3.5000000000000E-01  3.5000000000000E-01  3.5000000000000E-01  3.5000000000000E-01  3.5000000000000E-01  3.5000000000000E-01  3.5000000000000E-01 
 8.5301666666667E+00  1.7060333333333E+01  1.7060333333333E+01  1.7060333333333E+01  1.7060333333333E+01  1.7060333333333E+01  1.7060333333333E+01  1.7060333333333E+01  1.7060333333333E+01  8.5301666666667E+00 
 1.4950441373225E-07  1.4744420001562E-07  1.3991583834556E-07  1.2691953335696E-07  1.0845493643624E-07  8.4522237054241E-08  5.5121262260965E-08  2.0251701752021E-08 -2.0086274315966E-08 -6.5892830752299E-08 
 4.3744444444444E-05  8.7488888888889E-05  8.7488888888889E-05  8.7488888888889E-05  8.7488888888889E-05  8.7488888888889E-05  8.7488888888889E-05  8.7488888888889E-05  8.7488888888889E-05  4.3744444444444E-05 
 8.3253146327632E+01  8.3253146259488E+01  8.3253146034211E+01  8.3253145651799E+01  8.3253145112254E+01  8.3253144415575E+01  8.3253143561762E+01  8.3253142550814E+01  8.3253141382731E+01  8.3253140057514E+01 
 2.5080187005701E+01  2.5080187073845E+01  2.5080187299122E+01  2.5080187681534E+01  2.5080188221079E+01  2.5080188917759E+01  2.5080189771572E+01  2.5080190782520E+01  2.5080191950602E+01  2.5080193275820E+01 
 8.1112919986195E-25  3.9187037117251E-24  1.2377475013913E-23  2.3673037172400E-23  3.4073254581039E-23  3.9540265719407E-23  3.7013317533686E-23  2.6082286236150E-23  1.1039880929572E-23  3.3903996369158E-24 
 4.0581953306690E-17  1.9611129592048E-16  6.1944047580163E-16  1.1847625959609E-15  1.7054722558181E-15  1.9795065344842E-15  1.8535574960020E-15  1.3069128586877E-15  5.5392031466442E-16  1.7077646777235E-16 
 7.9768270466039E-17  3.8518241085558E-16  1.2164594150489E-15  2.3264576636723E-15  3.3484483689921E-15  3.8856674894947E-15  3.6373560351066E-15  2.5632048270546E-15  1.0850029543362E-15  3.3327703527924E-16 
 1.3446495201563E-18  6.6879603169264E-18  2.1288086342370E-17  4.0846053567774E-17  5.8877089111800E-17  6.8359082445971E-17  6.3975718261967E-17  4.5023796560420E-17  1.8985138621047E-17  5.7629284123423E-18 
 0.0000000000000E+00  0.0000000000000E+00  0.0000000000000E+00  0.0000000000000E+00  0.0000000000000E+00  0.0000000000000E+00  0.0000000000000E+00  0.0000000000000E+00  0.0000000000000E+00  0.0000000000000E+00 
 0.0000000000000E+00  0.0000000000000E+00  0.0000000000000E+00  0.0000000000000E+00  0.0000000000000E+00  0.0000000000000E+00  0.0000000000000E+00  0.0000000000000E+00  0.0000000000000E+00  0.0000000000000E+00 
 0.0000000000000E+00  0.0000000000000E+00  0.0000000000000E+00  0.0000000000000E+00  0.0000000000000E+00  0.0000000000000E+00  0.0000000000000E+00  0.0000000000000E+00  0.0000000000000E+00  0.0000000000000E+00 
ZONE T = "ANOD, 3.0000E-08", I = 10, SOLUTIONTIME = 3.000000E-08
ZONETYPE = ORDERED
DATAPACKING = BLOCK
STRANDID = 1
 0.0000000000000E+00  8.7488888888889E-05  1.7497777777778E-04  2.6246666666667E-04  3.4995555555556E-04  4.3744444444444E-04  5.2493333333333E-04  6.1242222222222E-04  6.9991111111111E-04  7.8740000000000E-04 
 3.6363088862381E-13 -7.2517038198229E-13 -3.6122992792333E-13 -7.2385889441043E-13 -1.4499143343881E-12 -1.0866301168330E-12 -1.4501096608815E-12 -1.4507945697284E-12 -1.0887496273867E-12  2.0832193702319E-17 
 9.1999997264234E-01  9.1999997295548E-01  9.1999997389490E-01  9.1999997546059E-01  9.1999997765256E-01  9.1999998047081E-01  9.1999998391533E-01  9.1999998798613E-01  9.1999999268320E-01  9.1999999800654E-01 
 4.0000013678829E-02  4.0000013522260E-02  4.0000013052551E-02  4.0000012269705E-02  4.0000011173719E-02  4.0000009764596E-02  4.0000008042334E-02  4.0000006006935E-02  4.0000003658399E-02  4.0000000996730E-02 
 4.0000013678829E-02  4.0000013522260E-02  4.0000013052551E-02  4.0000012269705E-02  4.0000011173719E-02  4.0000009764596E-02  4.0000008042334E-02  4.0000006006935E-02  4.0000003658399E-02  4.0000000996730E-02 
 1.0307459634620E-02  1.0307459634614E-02  1.0307459634597E-02  1.0307459634571E-02  1.0307459634536E-02  1.0307459634496E-02  1.0307459634456E-02  1.0307459634419E-02  1.0307459634391E-02  1.0307459634379E-02 
 0.0000000000000E+00  9.6727583460128E-17  3.9105887557348E-16  8.6155172672449E-16  1.4711899796443E-15  2.1673829383477E-15  2.8819655166498E-15  3.5311982109506E-15  4.0157655805021E-15  4.2207768557011E-15 
-1.0307459634620E-02 -1.0307459634614E-02 -1.0307459634597E-02 -1.0307459634570E-02 -1.0307459634534E-02 -1.0307459634494E-02 -1.0307459634453E-02 -1.0307459634415E-02 -1.0307459634387E-02 -1.0307459634375E-02 
-1.0307459482525E-02 -1.0307459394136E-02 -1.0307459071171E-02 -1.0307458513630E-02 -1.0307457721509E-02 -1.0307456694811E-02 -1.0307455433540E-02 -1.0307453937679E-02 -1.0307452207238E-02 -1.0307450242230E-02 
-1.5209548724637E-10 -2.4047796740034E-10 -5.6342566029377E-10 -1.1209401046264E-09 -1.9130254793470E-09 -2.9396832138678E-09 -4.2009124807257E-09 -5.6967363101096E-09 -7.4271490589639E-09 -9.3921453548501E-09 
-3.0243914598876E-08 -9.5638512371038E-08 -2.2407429595988E-07 -4.4579617529304E-07 -7.6080748356449E-07 -1.1691071818743E-06 -1.6706958693260E-06 -2.2655822084114E-06 -2.9537627093527E-06 -1.8676197556108E-06 
 5.5310299703742E-11  1.6593071716120E-10  2.7655042854113E-10  3.8716893088610E-10  4.9778572950097E-10  6.0840029123838E-10  7.1901214013006E-10  8.2962073782497E-10  9.4022410645971E-10  9.4022410645971E-10 
 0.0000000000000E+00  1.2012376241977E-06  2.3206437848670E-06  3.2648809177674E-06  3.9408876192677E-06  4.2552343117027E-06  4.1144914461012E-06  3.4255977048370E-06  2.0953077158524E-06 -6.0949628307607E-07 
-6.0962921418864E-07 -1.1711952044929E-06 -2.2905972088167E-06 -3.2349204898014E-06 -3.9108772322005E-06 -4.2251784750664E-06 -4.0845356207406E-06 -3.3956554385582E-06 -2.0652419681515E-06  0.0000000000000E+00 
 1.4407436557919E+04  2.8814873691066E+04  2.8814875592718E+04  2.8814878820812E+04  2.8814883375324E+04  2.8814889256269E+04  2.8814896463642E+04  2.8814904997455E+04  2.8814914857697E+04  1.4407463022191E+04 
 1.0585588110120E+05  2.1171176277763E+05  2.1171176467928E+05  2.1171176790737E+05  2.1171177246189E+05  2.1171177834283E+05  2.1171178555020E+05  2.1171179408402E+05  2.1171180394426E+05  1.0585590756547E+05 
 3.5138634161521E+05  7.0277268265518E+05  7.0277268075353E+05  7.0277267752544E+05  7.0277267297093E+05  7.0277266708998E+05  7.0277265988261E+05  7.0277265134880E+05  7.0277264148855E+05  3.5138631515093E+05 
 4.5724222271641E+05  9.1448444543281E+05  9.1448444543281E+05  9.1448444543281E+05  9.1448444543281E+05  9.1448444543281E+05  9.1448444543281E+05  9.1448444543281E+05  9.1448444543281E+05  4.5724222271641E+05 
 3.5000000000000E-01  3.5000000000000E-01  3.5000000000000E-01  3.5000000000000E-01  3.5000000000000E-01  3.5000000000000E-01  3.5000000000000E-01  3.5000000000000E-01  3.5000000000000E-01  3.5000000000000E-01 
 8.5301666666667E+00  1.7060333333333E+01  1.7060333333333E+01  1.7060333333333E+01  1.7060333333333E+01  1.7060333333333E+01  1.7060333333333E+01  1.7060333333333E+01  1.7060333333333E+01  8.5301666666667E+00 
-3.5455244640248E-09 -5.6058993984704E-09 -1.3134227308565E-08 -2.6130566536002E-08 -4.4595112457620E-08 -6.8527804177779E-08 -9.7928676813231E-08 -1.3279823812028E-07 -1.7313628354386E-07 -2.1894293846672E-07 
 4.3744444444444E-05  8.7488888888889E-05  8.7488888888889E-05  8.7488888888889E-05  8.7488888888889E-05  8.7488888888889E-05  8.7488888888889E-05  8.7488888888889E-05  8.7488888888889E-05  4.3744444444444E-05 
 8.3253146327632E+01  8.3253146259488E+01  8.3253146034211E+01  8.3253145651799E+01  8.3253145112254E+01  8.3253144415575E+01  8.3253143561762E+01  8.3253142550814E+01  8.3253141382731E+01  8.3253140057514E+01 
 2.5080187005701E+01  2.5080187073845E+01  2.5080187299122E+01  2.5080187681534E+01  2.5080188221079E+01  2.5080188917759E+01  2.5080189771572E+01  2.5080190782520E+01  2.5080191950602E+01  2.5080193275820E+01 
 1.2174628233862E-24  5.8829910121433E-24  1.8582874958227E-23  3.5543636150467E-23  5.1165778199077E-23  5.9386102043951E-23  5.5606826271879E-23  3.9207519564361E-23  1.6618029628740E-23  5.1239833973878E-24 
 4.0633362352422E-17  1.9642873004182E-16  6.2053999443146E-16  1.1870598978067E-15  1.7092523618039E-15  1.9845836324545E-15  1.8593508738193E-15  1.3125233328211E-15  5.5781486991675E-16  1.7335837604720E-16 
 1.1976106530602E-16  5.7832529443693E-16  1.8264560963923E-15  3.4932171295439E-15  5.0283862497691E-15  5.8361794167951E-15  5.4647980441797E-15  3.8532613013663E-15  1.6333411602524E-15  5.0375788220860E-16 
 1.9852170325957E-18  9.9738067773999E-18  3.1831399430446E-17  6.1146485502794E-17  8.8191570138631E-17  1.0243078759998E-16  9.5884583008181E-17  6.7490655069814E-17  2.8461802621519E-17  8.6404575301810E-18 
 0.0000000000000E+00  0.0000000000000E+00  0.0000000000000E+00  0.0000000000000E+00  0.0000000000000E+00  0.0000000000000E+00  0.0000000000000E+00  0.0000000000000E+00  0.0000000000000E+00  0.0000000000000E+00 
 0.0000000000000E+00  0.0000000000000E+00  0.0000000000000E+00  0.0000000000000E+00  0.0000000000000E+00  0.0000000000000E+00  0.0000000000000E+00  0.0000000000000E+00  0.0000000000000E+00  0.0000000000000E+00 
 0.0000000000000E+00  0.0000000000000E+00  0.0000000000000E+00  0.0000000000000E+00  0.0000000000000E+00  0.0000000000000E+00  0.0000000000000E+00  0.0000000000000E+00  0.0000000000000E+00  0.0000000000000E+00 
ZONE T = "ANOD, 4.0000E-08", I = 10, SOLUTIONTIME = 4.000000E-08
ZONETYPE = ORDERED
DATAPACKING = BLOCK
STRANDID = 1
 0.0000000000000E+00  8.7488888888889E-05  1.7497777777778E-04  2.6246666666667E-04  3.4995555555556E-04  4.3744444444444E-04  5.2493333333333E-04  6.1242222222222E-04  6.9991111111111E-04  7.8740000000000E-04 
-1.8118031790718E-13 -1.8035763206940E-13 -5.4283186169397E-13 -9.0546005633483E-13 -1.7868381307440E-13 -1.7860655175281E-13 -1.7887759784698E-13  9.1006144806451E-13  5.4569170615080E-13  1.8163164013192E-13 
 9.1999997264235E-01  9.1999997295549E-01  9.1999997389490E-01  9.1999997546060E-01  9.1999997765257E-01  9.1999998047081E-01  9.1999998391534E-01  9.1999998798613E-01  9.1999999268321E-01  9.1999999800654E-01 
 4.0000013678827E-02  4.0000013522257E-02  4.0000013052549E-02  4.0000012269702E-02  4.0000011173717E-02  4.0000009764593E-02  4.0000008042332E-02  4.0000006006933E-02  4.0000003658396E-02  4.0000000996729E-02 
 4.0000013678827E-02  4.0000013522257E-02  4.0000013052549E-02  4.0000012269702E-02  4.0000011173717E-02  4.0000009764593E-02  4.0000008042332E-02  4.0000006006933E-02  4.0000003658396E-02  4.0000000996729E-02 
 1.0307456612372E-02  1.0307456612366E-02  1.0307456612349E-02  1.0307456612322E-02  1.0307456612287E-02  1.0307456612248E-02  1.0307456612207E-02  1.0307456612170E-02  1.0307456612142E-02  1.0307456612130E-02 
 0.0000000000000E+00  9.5150695675768E-17  3.8809096765741E-16  8.5737837398171E-16  1.4659967488733E-15  2.1613554589133E-15  2.8752892842731E-15  3.5240583898646E-15  4.0083476323999E-15  4.2132662183653E-15 
-1.0307456612372E-02 -1.0307456612366E-02 -1.0307456612349E-02 -1.0307456612321E-02 -1.0307456612286E-02 -1.0307456612246E-02 -1.0307456612204E-02 -1.0307456612167E-02 -1.0307456612138E-02 -1.0307456612126E-02 
-1.0307459482524E-02 -1.0307459394139E-02 -1.0307459071172E-02 -1.0307458513633E-02 -1.0307457721513E-02 -1.0307456694813E-02 -1.0307455433537E-02 -1.0307453937681E-02 -1.0307452207243E-02 -1.0307450242231E-02 
 2.8701521055663E-09  2.7817732197594E-09  2.4588235336687E-09  1.9013113878447E-09  1.1092270955915E-09  8.2567707879178E-11 -1.1786675246928E-09 -2.6744856503058E-09 -4.4048948447117E-09 -6.3698956092456E-09 
 5.7072683105309E-07  1.1063068880832E-06  9.7786966936916E-07  7.5614777914321E-07  4.4113676361552E-07  3.2836200690433E-08 -4.6875422688458E-07 -1.0636385262949E-06 -1.7518190354058E-06 -1.2666480200765E-06 