TITLE = "Solution on Domain BulkDomain1D_1"
VARIABLES = "x [m]"  
"Vel_axial" 	"MF_sp(ECDMC)" 	"MF_sp(Li+)" 	"MF_sp(PF6-)" 	"Volt(Electroly)" 	"Porosity []" 	"Control volume thickness [m]" 	"volFrac MgO(S) []" 	"qHeat_accum [J/m3]" 	"qHeat_step [W/m3]" 	"Joule_Lyte [W/m3]" 	"Joule_Solid [W/m3]" 	
ZONE T = "SEP , 0.0000E+00", I = 10, SOLUTIONTIME = 0.000000E+00
ZONETYPE = ORDERED
DATAPACKING = BLOCK
STRANDID = 2
 7.8740000000000E-04  8.4102222222222E-04  8.9464444444444E-04  9.4826666666667E-04  1.0018888888889E-03  1.0555111111111E-03  1.1091333333333E-03  1.1627555555556E-03  1.2163777777778E-03  1.2700000000000E-03 
 1.4500046074539E-10  1.4500046074539E-10  1.4500046074539E-10  1.4500046074539E-10  1.4500046074539E-10  1.4500046074539E-10  1.4500046074539E-10  1.4500046074539E-10  1.4500046074539E-10  1.3694448462157E-10 
 9.1999999800653E-01  9.1999999898939E-01  9.1999999997225E-01  9.2000000095510E-01  9.2000000193796E-01  9.2000000292081E-01  9.2000000390367E-01  9.2000000488652E-01  9.2000000586938E-01  9.2000000685223E-01 
 4.0000000996733E-02  4.0000000505305E-02  4.0000000013877E-02  3.9999999522450E-02  3.9999999031022E-02  3.9999998539594E-02  3.9999998048167E-02  3.9999997556739E-02  3.9999997065311E-02  3.9999996573884E-02 
 4.0000000996733E-02  4.0000000505305E-02  4.0000000013877E-02  3.9999999522450E-02  3.9999999031022E-02  3.9999998539594E-02  3.9999998048167E-02  3.9999997556739E-02  3.9999997065311E-02  3.9999996573884E-02 
 1.0249111342458E-02  1.0249110999359E-02  1.0249110656260E-02  1.0249110313161E-02  1.0249109970062E-02  1.0249109626963E-02  1.0249109283864E-02  1.0249108940765E-02  1.0249108597666E-02  1.0249108254567E-02 
 8.0911499769706E-01  8.0911499769706E-01  8.0911499769706E-01  8.0911499769706E-01  8.0911499769706E-01  8.0911499769706E-01  8.0911499769706E-01  8.0911499769706E-01  8.0911499769706E-01  8.0911499769706E-01 
 2.6811111111111E-05  5.3622222222222E-05  5.3622222222222E-05  5.3622222222222E-05  5.3622222222222E-05  5.3622222222222E-05  5.3622222222222E-05  5.3622222222223E-05  5.3622222222222E-05  2.6811111111111E-05 
 1.9088500230294E-01  1.9088500230294E-01  1.9088500230294E-01  1.9088500230294E-01  1.9088500230294E-01  1.9088500230294E-01  1.9088500230294E-01  1.9088500230294E-01  1.9088500230294E-01  1.9088500230294E-01 
 0.0000000000000E+00  0.0000000000000E+00  0.0000000000000E+00  0.0000000000000E+00  0.0000000000000E+00  0.0000000000000E+00  0.0000000000000E+00  0.0000000000000E+00  0.0000000000000E+00  0.0000000000000E+00 
 0.0000000000000E+00  0.0000000000000E+00  0.0000000000000E+00  0.0000000000000E+00  0.0000000000000E+00  0.0000000000000E+00  0.0000000000000E+00  0.0000000000000E+00  0.0000000000000E+00  0.0000000000000E+00 
 0.0000000000000E+00  0.0000000000000E+00  0.0000000000000E+00  0.0000000000000E+00  0.0000000000000E+00  0.0000000000000E+00  0.0000000000000E+00  0.0000000000000E+00  0.0000000000000E+00  0.0000000000000E+00 
 0.0000000000000E+00  0.0000000000000E+00  0.0000000000000E+00  0.0000000000000E+00  0.0000000000000E+00  0.0000000000000E+00  0.0000000000000E+00  0.0000000000000E+00  0.0000000000000E+00  0.0000000000000E+00 
ZONE T = "SEP , 1.0000E-08", I = 10, SOLUTIONTIME = 1.000000E-08
ZONETYPE = ORDERED
DATAPACKING = BLOCK
STRANDID = 2
 7.8740000000000E-04  8.4102222222222E-04  8.9464444444444E-04  9.4826666666667E-04  1.0018888888889E-03  1.0555111111111E-03  1.1091333333333E-03  1.1627555555556E-03  1.2163777777778E-03  1.2700000000000E-03 
-3.8136741976637E-12 -3.8136741976669E-12 -3.8136741976647E-12 -3.8136741976647E-12 -3.8136741976647E-12 -3.8136741976647E-12 -3.8136741976625E-12 -3.8136741976559E-12 -3.8136741976559E-12 -1.8165599634111E-12 
 9.1999999800654E-01  9.1999999898939E-01  9.1999999997225E-01  9.2000000095510E-01  9.2000000193796E-01  9.2000000292081E-01  9.2000000390367E-01  9.2000000488652E-01  9.2000000586938E-01  9.2000000685223E-01 
 4.0000000996732E-02  4.0000000505305E-02  4.0000000013877E-02  3.9999999522450E-02  3.9999999031022E-02  3.9999998539594E-02  3.9999998048167E-02  3.9999997556739E-02  3.9999997065311E-02  3.9999996573885E-02 
 4.0000000996732E-02  4.0000000505305E-02  4.0000000013877E-02  3.9999999522450E-02  3.9999999031022E-02  3.9999998539594E-02  3.9999998048167E-02  3.9999997556739E-02  3.9999997065311E-02  3.9999996573885E-02 
 1.0307456423307E-02  1.0307456423307E-02  1.0307456423307E-02  1.0307456423307E-02  1.0307456423307E-02  1.0307456423307E-02  1.0307456423307E-02  1.0307456423307E-02  1.0307456423306E-02  1.0307456423306E-02 
 8.0911499769706E-01  8.0911499769706E-01  8.0911499769706E-01  8.0911499769706E-01  8.0911499769706E-01  8.0911499769706E-01  8.0911499769706E-01  8.0911499769706E-01  8.0911499769706E-01  8.0911499769706E-01 
 2.6811111111111E-05  5.3622222222222E-05  5.3622222222222E-05  5.3622222222222E-05  5.3622222222222E-05  5.3622222222222E-05  5.3622222222222E-05  5.3622222222223E-05  5.3622222222222E-05  2.6811111111111E-05 
 1.9088500230294E-01  1.9088500230294E-01  1.9088500230294E-01  1.9088500230294E-01  1.9088500230294E-01  1.9088500230294E-01  1.9088500230294E-01  1.9088500230294E-01  1.9088500230294E-01  1.9088500230294E-01 
 3.4155065617348E-29  3.0910334171658E-29  3.0910333752092E-29  3.0910333461623E-29  2.7665601999795E-29  3.0910332638628E-29  3.0910332231971E-29  3.0910331876953E-29  3.0910331528391E-29  2.7665600344123E-29 
 3.4155065617348E-21  3.0910334171658E-21  3.0910333752092E-21  3.0910333461623E-21  2.7665601999795E-21  3.0910332638628E-21  3.0910332231971E-21  3.0910331876953E-21  3.0910331528391E-21  2.7665600344123E-21 
 3.4155065617348E-21  3.0910334171658E-21  3.0910333752092E-21  3.0910333461623E-21  2.7665601999795E-21  3.0910332638628E-21  3.0910332231971E-21  3.0910331876953E-21  3.0910331528391E-21  2.7665600344123E-21 
 0.0000000000000E+00  0.0000000000000E+00  0.0000000000000E+00  0.0000000000000E+00  0.0000000000000E+00  0.0000000000000E+00  0.0000000000000E+00  0.0000000000000E+00  0.0000000000000E+00  0.0000000000000E+00 
ZONE T = "SEP , 2.0000E-08", I = 10, SOLUTIONTIME = 2.000000E-08
ZONETYPE = ORDERED
DATAPACKING = BLOCK
STRANDID = 2
 7.8740000000000E-04  8.4102222222222E-04  8.9464444444444E-04  9.4826666666667E-04  1.0018888888889E-03  1.0555111111111E-03  1.1091333333333E-03  1.1627555555556E-03  1.2163777777778E-03  1.2700000000000E-03 
-3.6319383969806E-13 -3.6319383970111E-13 -3.6319383969892E-13 -3.6319383969892E-13 -3.6319383969892E-13 -3.6319383969892E-13 -3.6319383969673E-13 -3.6319383969016E-13 -3.6319383969016E-13 -3.6372250130941E-13 
 9.1999999800654E-01  9.1999999898939E-01  9.1999999997225E-01  9.2000000095510E-01  9.2000000193796E-01  9.2000000292081E-01  9.2000000390367E-01  9.2000000488652E-01  9.2000000586938E-01  9.2000000685223E-01 
 4.0000000996731E-02  4.0000000505305E-02  4.0000000013877E-02  3.9999999522450E-02  3.9999999031022E-02  3.9999998539594E-02  3.9999998048167E-02  3.9999997556739E-02  3.9999997065311E-02  3.9999996573886E-02 
 4.0000000996731E-02  4.0000000505305E-02  4.0000000013877E-02  3.9999999522450E-02  3.9999999031022E-02  3.9999998539594E-02  3.9999998048167E-02  3.9999997556739E-02  3.9999997065311E-02  3.9999996573886E-02 
 1.0307456420514E-02  1.0307456420514E-02  1.0307456420514E-02  1.0307456420514E-02  1.0307456420514E-02  1.0307456420514E-02  1.0307456420514E-02  1.0307456420514E-02  1.0307456420514E-02  1.0307456420514E-02 
 8.0911499769706E-01  8.0911499769706E-01  8.0911499769706E-01  8.0911499769706E-01  8.0911499769706E-01  8.0911499769706E-01  8.0911499769706E-01  8.0911499769706E-01  8.0911499769706E-01  8.0911499769706E-01 
 2.6811111111111E-05  5.3622222222222E-05  5.3622222222222E-05  5.3622222222222E-05  5.3622222222222E-05  5.3622222222222E-05  5.3622222222222E-05  5.3622222222223E-05  5.3622222222222E-05  2.6811111111111E-05 
 1.9088500230294E-01  1.9088500230294E-01  1.9088500230294E-01  1.9088500230294E-01  1.9088500230294E-01  1.9088500230294E-01  1.9088500230294E-01  1.9088500230294E-01  1.9088500230294E-01  1.9088500230294E-01 
 1.5745485258183E-28  1.5421012027764E-28  1.5421011838636E-28  1.5421011656286E-28  1.5096538356800E-28  1.5421011273513E-28  1.4789142404966E-28  1.4789142222293E-28  1.5421010708712E-28  1.5096537516700E-28 
 1.2329978696448E-20  1.2329978610598E-20  1.2329978463427E-20  1.2329978310124E-20  1.2329978156821E-20  1.2329978009650E-20  1.1698109181769E-20  1.1698109034598E-20  1.2329977555873E-20  1.2329977482288E-20 
 1.2329978696448E-20  1.2329978610598E-20  1.2329978463427E-20  1.2329978310124E-20  1.2329978156821E-20  1.2329978009650E-20  1.1698109181769E-20  1.1698109034598E-20  1.2329977555873E-20  1.2329977482288E-20 
 0.0000000000000E+00  0.0000000000000E+00  0.0000000000000E+00  0.0000000000000E+00  0.0000000000000E+00  0.0000000000000E+00  0.0000000000000E+00  0.0000000000000E+00  0.0000000000000E+00  0.0000000000000E+00 
ZONE T = "SEP , 3.0000E-08", I = 10, SOLUTIONTIME = 3.000000E-08
ZONETYPE = ORDERED
DATAPACKING = BLOCK
STRANDID = 2
 7.8740000000000E-04  8.4102222222222E-04  8.9464444444444E-04  9.4826666666667E-04  1.0018888888889E-03  1.0555111111111E-03  1.1091333333333E-03  1.1627555555556E-03  1.2163777777778E-03  1.2700000000000E-03 
 1.9976633349199E-12  1.9976633349169E-12  1.9976633349191E-12  1.9976633349191E-12  1.9976633349191E-12  1.9976633349191E-12  1.9976633349213E-12  1.9976633349279E-12  1.9976633349279E-12  5.4430337639684E-13 
 9.1999999800654E-01  9.1999999898939E-01  9.1999999997225E-01  9.2000000095510E-01  9.2000000193796E-01  9.2000000292081E-01  9.2000000390367E-01  9.2000000488652E-01  9.2000000586938E-01  9.2000000685223E-01 
 4.0000000996730E-02  4.0000000505305E-02  4.0000000013877E-02  3.9999999522450E-02  3.9999999031022E-02  3.9999998539594E-02  3.9999998048167E-02  3.9999997556739E-02  3.9999997065311E-02  3.9999996573887E-02 
 4.0000000996730E-02  4.0000000505305E-02  4.0000000013877E-02  3.9999999522450E-02  3.9999999031022E-02  3.9999998539594E-02  3.9999998048167E-02  3.9999997556739E-02  3.9999997065311E-02  3.9999996573887E-02 
 1.0307456417721E-02  1.0307456417721E-02  1.0307456417721E-02  1.0307456417721E-02  1.0307456417721E-02  1.0307456417721E-02  1.0307456417721E-02  1.0307456417721E-02  1.0307456417721E-02  1.0307456417720E-02 
 8.0911499769706E-01  8.0911499769706E-01  8.0911499769706E-01  8.0911499769706E-01  8.0911499769706E-01  8.0911499769706E-01  8.0911499769706E-01  8.0911499769706E-01  8.0911499769706E-01  8.0911499769706E-01 
 2.6811111111111E-05  5.3622222222222E-05  5.3622222222222E-05  5.3622222222222E-05  5.3622222222222E-05  5.3622222222222E-05  5.3622222222222E-05  5.3622222222223E-05  5.3622222222222E-05  2.6811111111111E-05 
 1.9088500230294E-01  1.9088500230294E-01  1.9088500230294E-01  1.9088500230294E-01  1.9088500230294E-01  1.9088500230294E-01  1.9088500230294E-01  1.9088500230294E-01  1.9088500230294E-01  1.9088500230294E-01 
 4.4469895474195E-28  4.3172002689686E-28  4.3172002144895E-28  4.3172001655294E-28  4.1874108687466E-28  4.3172000576363E-28  4.2540131346344E-28  4.2540130817367E-28  4.3171999005572E-28  4.1874106365329E-28 
 2.8724410216012E-20  2.7750990661922E-20  2.7750990306259E-20  2.7750989999007E-20  2.6777570330666E-20  2.7750989302850E-20  2.7750988941378E-20  2.7750988595074E-20  2.7750988296860E-20  2.6777568848629E-20 
 2.8724410216012E-20  2.7750990661922E-20  2.7750990306259E-20  2.7750989999007E-20  2.6777570330666E-20  2.7750989302850E-20  2.7750988941378E-20  2.7750988595074E-20  2.7750988296860E-20  2.6777568848629E-20 
 0.0000000000000E+00  0.0000000000000E+00  0.0000000000000E+00  0.0000000000000E+00  0.0000000000000E+00  0.0000000000000E+00  0.0000000000000E+00  0.0000000000000E+00  0.0000000000000E+00  0.0000000000000E+00 
ZONE T = "SEP , 4.0000E-08", I = 10, SOLUTIONTIME = 4.000000E-08
ZONETYPE = ORDERED
DATAPACKING = BLOCK
STRANDID = 2
 7.8740000000000E-04  8.4102222222222E-04  8.9464444444444E-04  9.4826666666667E-04  1.0018888888889E-03  1.0555111111111E-03  1.1091333333333E-03  1.1627555555556E-03  1.2163777777778E-03  1.2700000000000E-03 
-7.2638767929794E-13 -7.2638767930076E-13 -7.2638767929856E-13 -7.2638767929857E-13 -7.2638767929857E-13 -7.2638767929857E-13 -7.2638767929637E-13 -7.2638767928980E-13 -7.2638767928980E-13 -1.8210552077775E-13 
 9.1999999800654E-01  9.1999999898939E-01  9.1999999997225E-01  9.2000000095510E-01  9.2000000193796E-01  9.2000000292081E-01  9.2000000390367E-01  9.2000000488652E-01  9.2000000586938E-01  9.2000000685222E-01 
 4.0000000996729E-02  4.0000000505305E-02  4.0000000013877E-02  3.9999999522450E-02  3.9999999031022E-02  3.9999998539594E-02  3.9999998048167E-02  3.9999997556739E-02  3.9999997065311E-02  3.9999996573888E-02 
 4.0000000996729E-02  4.0000000505305E-02  4.0000000013877E-02  3.9999999522450E-02  3.9999999031022E-02  3.9999998539594E-02  3.9999998048167E-02  3.9999997556739E-02  3.9999997065311E-02  3.9999996573888E-02 
 1.0307456414929E-02  1.0307456414929E-02  1.0307456414929E-02  1.0307456414929E-02  1.0307456414929E-02  1.0307456414929E-02  1.0307456414928E-02  1.0307456414928E-02  1.0307456414928E-02  1.0307456414928E-02 
 8.0911499769706E-01  8.0911499769706E-01  8.0911499769706E-01  8.0911499769706E-01  8.0911499769706E-01  8.0911499769706E-01  8.0911499769706E-01  8.0911499769706E-01  8.0911499769706E-01  8.0911499769706E-01 
 2.6811111111111E-05  5.3622222222222E-05  5.3622222222222E-05  5.3622222222222E-05  5.3622222222222E-05  5.3622222222222E-05  5.3622222222222E-05  5.3622222222223E-05  5.3622222222222E-05  2.6811111111111E-05 
 1.9088500230294E-01  1.9088500230294E-01  1.9088500230294E-01  1.9088500230294E-01  1.9088500230294E-01  1.9088500230294E-01  1.9088500230294E-01  1.9088500230294E-01  1.9088500230294E-01  1.9088500230294E-01 
 9.3789810210929E-28  9.2491917132077E-28  9.2491915974075E-28  9.2491914895790E-28  8.9913206478517E-28  9.1211097754202E-28  9.1860042771732E-28  9.1860041654071E-28  9.2491909241329E-28  9.1194016269951E-28 
 4.9319914736734E-20  4.9319914442392E-20  4.9319913829180E-20  4.9319913240496E-20  4.8039097791051E-20  4.8039097177839E-20  4.9319911425388E-20  4.9319910836704E-20  4.9319910235757E-20  4.9319909904622E-20 
 4.9319914736734E-20  4.9319914442392E-20  4.9319913829180E-20  4.9319913240496E-20  4.8039097791051E-20  4.8039097177839E-20  4.9319911425388E-20  4.9319910836704E-20  4.9319910235757E-20  4.9319909904622E-20 
 0.0000000000000E+00  0.0000000000000E+00  0.0000000000000E+00  0.0000000000000E+00  0.0000000000000E+00  0.0000000000000E+00  0.0000000000000E+00  0.0000000000000E+00  0.0000000000000E+00  0.0000000000000E+00 
ZONE T = "SEP , 5.5000E-08", I = 10, SOLUTIONTIME = 5.500000E-08
ZONETYPE = ORDERED
DATAPACKING = BLOCK
STRANDID = 2
 7.8740000000000E-04  8.4102222222222E-04  8.9464444444444E-04  9.4826666666667E-04  1.0018888888889E-03  1.0555111111111E-03  1.1091333333333E-03  1.1627555555556E-03  1.2163777777778E-03  1.2700000000000E-03 
-2.1792081743477E-12 -2.1792081743492E-12 -2.1792081743478E-12 -2.1792081743478E-12 -2.1792081743478E-12 -2.1792081743478E-12 -2.1792081743463E-12 -2.1792081743419E-12 -2.1792081743419E-12 -2.1797381861592E-12 
 9.1999999800655E-01  9.1999999898939E-01  9.1999999997225E-01  9.2000000095510E-01  9.2000000193796E-01  9.2000000292081E-01  9.2000000390367E-01  9.2000000488652E-01  9.2000000586938E-01  9.2000000685222E-01 
 4.0000000996727E-02  4.0000000505305E-02  4.0000000013877E-02  3.9999999522450E-02  3.9999999031022E-02  3.9999998539594E-02  3.9999998048167E-02  3.9999997556739E-02  3.9999997065311E-02  3.9999996573890E-02 
 4.0000000996727E-02  4.0000000505305E-02  4.0000000013877E-02  3.9999999522450E-02  3.9999999031022E-02  3.9999998539594E-02  3.9999998048167E-02  3.9999997556739E-02  3.9999997065311E-02  3.9999996573890E-02 
 1.0307456410739E-02  1.0307456410739E-02  1.0307456410739E-02  1.0307456410739E-02  1.0307456410739E-02  1.0307456410739E-02  1.0307456410739E-02  1.0307456410738E-02  1.0307456410738E-02  1.0307456410738E-02 
 8.0911499769706E-01  8.0911499769706E-01  8.0911499769706E-01  8.0911499769706E-01  8.0911499769706E-01  8.0911499769706E-01  8.0911499769706E-01  8.0911499769706E-01  8.0911499769706E-01  8.0911499769706E-01 
 2.6811111111111E-05  5.3622222222222E-05  5.3622222222222E-05  5.3622222222222E-05  5.3622222222222E-05  5.3622222222222E-05  5.3622222222222E-05  5.3622222222223E-05  5.3622222222222E-05  2.6811111111111E-05 
 1.9088500230294E-01  1.9088500230294E-01  1.9088500230294E-01  1.9088500230294E-01  1.9088500230294E-01  1.9088500230294E-01  1.9088500230294E-01  1.9088500230294E-01  1.9088500230294E-01  1.9088500230294E-01 
 2.3232275638510E-27  2.3102486247551E-27  2.3102485968120E-27  2.3102485694143E-27  2.2844614683750E-27  2.2974403637618E-27  2.3039297963154E-27  2.3308268803617E-27  2.3371455393678E-27  2.2972694890053E-27 
 9.2355297449449E-20  9.2355296895621E-20  9.2355295804749E-20  9.2355294697095E-20  9.2355293572657E-20  9.2355292414655E-20  9.2355291239869E-20  9.4148430921401E-20  9.4148429796964E-20  9.2355288420385E-20 
 9.2355297449449E-20  9.2355296895621E-20  9.2355295804749E-20  9.2355294697095E-20  9.2355293572657E-20  9.2355292414655E-20  9.2355291239869E-20  9.4148430921401E-20  9.4148429796964E-20  9.2355288420385E-20 
 0.0000000000000E+00  0.0000000000000E+00  0.0000000000000E+00  0.0000000000000E+00  0.0000000000000E+00  0.0000000000000E+00  0.0000000000000E+00  0.0000000000000E+00  0.0000000000000E+00  0.0000000000000E+00 
ZONE T = "SEP , 7.7500E-08", I = 10, SOLUTIONTIME = 7.750000E-08
ZONETYPE = ORDERED
DATAPACKING = BLOCK
STRANDID = 2
 7.8740000000000E-04  8.4102222222222E-04  8.9464444444444E-04  9.4826666666667E-04  1.0018888888889E-03  1.0555111111111E-03  1.1091333333333E-03  1.1627555555556E-03  1.2163777777778E-03  1.2700000000000E-03 
 1.7757360411839E-12  1.7757360411834E-12  1.7757360411843E-12  1.7757360411843E-12  1.7757360411843E-12  1.7757360411843E-12  1.7757360411853E-12  1.7757360411882E-12  1.7757360411882E-12  2.1787693033641E-12 
 9.1999999800655E-01  9.1999999898939E-01  9.1999999997225E-01  9.2000000095510E-01  9.2000000193796E-01  9.2000000292081E-01  9.2000000390367E-01  9.2000000488652E-01  9.2000000586938E-01  9.2000000685222E-01 
 4.0000000996725E-02  4.0000000505305E-02  4.0000000013877E-02  3.9999999522450E-02  3.9999999031022E-02  3.9999998539594E-02  3.9999998048167E-02  3.9999997556739E-02  3.9999997065311E-02  3.9999996573892E-02 
 4.0000000996725E-02  4.0000000505305E-02  4.0000000013877E-02  3.9999999522450E-02  3.9999999031022E-02  3.9999998539594E-02  3.9999998048167E-02  3.9999997556739E-02  3.9999997065311E-02  3.9999996573892E-02 
 1.0307456404455E-02  1.0307456404454E-02  1.0307456404454E-02  1.0307456404454E-02  1.0307456404454E-02  1.0307456404454E-02  1.0307456404454E-02  1.0307456404454E-02  1.0307456404454E-02  1.0307456404453E-02 
 8.0911499769706E-01  8.0911499769706E-01  8.0911499769706E-01  8.0911499769706E-01  8.0911499769706E-01  8.0911499769706E-01  8.0911499769706E-01  8.0911499769706E-01  8.0911499769706E-01  8.0911499769706E-01 
 2.6811111111111E-05  5.3622222222222E-05  5.3622222222222E-05  5.3622222222222E-05  5.3622222222222E-05  5.3622222222222E-05  5.3622222222222E-05  5.3622222222223E-05  5.3622222222222E-05  2.6811111111111E-05 
 1.9088500230294E-01  1.9088500230294E-01  1.9088500230294E-01  1.9088500230294E-01  1.9088500230294E-01  1.9088500230294E-01  1.9088500230294E-01  1.9088500230294E-01  1.9088500230294E-01  1.9088500230294E-01 
 6.4185053199893E-27  6.4620102950322E-27  6.4620102172591E-27  6.4620101388115E-27  6.4362229884724E-27  6.3927178951353E-27  6.4556912119892E-27  6.4825882472658E-27  6.4889068541472E-27  6.5055147112355E-27 
 1.8201234471726E-19  1.8452274090120E-19  1.8452273868654E-19  1.8452273641765E-19  1.8452273422655E-19  1.8201233472771E-19  1.8452272958550E-19  1.8452272741796E-19  1.8452272510131E-19  1.8703312098801E-19 
 1.8201234471726E-19  1.8452274090120E-19  1.8452273868654E-19  1.8452273641765E-19  1.8452273422655E-19  1.8201233472771E-19  1.8452272958550E-19  1.8452272741796E-19  1.8452272510131E-19  1.8703312098801E-19 
 0.0000000000000E+00  0.0000000000000E+00  0.0000000000000E+00  0.0000000000000E+00  0.0000000000000E+00  0.0000000000000E+00  0.0000000000000E+00  0.0000000000000E+00  0.0000000000000E+00  0.0000000000000E+00 
ZONE T = "SEP , 1.1125E-07", I = 10, SOLUTIONTIME = 1.112500E-07
ZONETYPE = ORDERED
DATAPACKING = BLOCK
STRANDID = 2
 7.8740000000000E-04  8.4102222222222E-04  8.9464444444444E-04  9.4826666666667E-04  1.0018888888889E-03  1.0555111111111E-03  1.1091333333333E-03  1.1627555555556E-03  1.2163777777778E-03  1.2700000000000E-03 
-5.3800826997060E-13 -5.3800826997026E-13 -5.3800826996961E-13 -5.3800826996961E-13 -5.3800826996961E-13 -5.3800826996961E-13 -5.3800826996896E-13 -5.3800826996701E-13 -5.3800826996701E-13 -9.6900886986087E-13 
 9.1999999800656E-01  9.1999999898939E-01  9.1999999997225E-01  9.2000000095510E-01  9.2000000193796E-01  9.2000000292081E-01  9.2000000390367E-01  9.2000000488652E-01  9.2000000586938E-01  9.2000000685221E-01 
 4.0000000996722E-02  4.0000000505305E-02  4.0000000013877E-02  3.9999999522450E-02  3.9999999031022E-02  3.9999998539594E-02  3.9999998048167E-02  3.9999997556739E-02  3.9999997065311E-02  3.9999996573896E-02 
 4.0000000996722E-02  4.0000000505305E-02  4.0000000013877E-02  3.9999999522450E-02  3.9999999031022E-02  3.9999998539594E-02  3.9999998048167E-02  3.9999997556739E-02  3.9999997065311E-02  3.9999996573896E-02 
 1.0307456395029E-02  1.0307456395029E-02  1.0307456395029E-02  1.0307456395029E-02  1.0307456395028E-02  1.0307456395028E-02  1.0307456395028E-02  1.0307456395028E-02  1.0307456395028E-02  1.0307456395027E-02 
 8.0911499769706E-01  8.0911499769706E-01  8.0911499769706E-01  8.0911499769706E-01  8.0911499769706E-01  8.0911499769706E-01  8.0911499769706E-01  8.0911499769706E-01  8.0911499769706E-01  8.0911499769706E-01 
 2.6811111111111E-05  5.3622222222222E-05  5.3622222222222E-05  5.3622222222222E-05  5.3622222222222E-05  5.3622222222222E-05  5.3622222222222E-05  5.3622222222223E-05  5.3622222222222E-05  2.6811111111111E-05 
 1.9088500230294E-01  1.9088500230294E-01  1.9088500230294E-01  1.9088500230294E-01  1.9088500230294E-01  1.9088500230294E-01  1.9088500230294E-01  1.9088500230294E-01  1.9088500230294E-01  1.9088500230294E-01 
 1.9370618534538E-26  1.9292510050920E-26  1.9292509814965E-26  1.9292509580971E-26  1.9145108900266E-26  1.9223217023948E-26  1.9286190180681E-26  1.9191473687846E-26  1.9319405510669E-26  1.9457626660327E-26 
 3.8376631746811E-19  3.8016295573002E-19  3.8016295104314E-19  3.8016294643437E-19  3.7655958257166E-19  3.8016293715001E-19  3.8016293240569E-19  3.7655956860979E-19  3.8016292315619E-19  3.8376627997309E-19 
 3.8376631746811E-19  3.8016295573002E-19  3.8016295104314E-19  3.8016294643437E-19  3.7655958257166E-19  3.8016293715001E-19  3.8016293240569E-19  3.7655956860979E-19  3.8016292315619E-19  3.8376627997309E-19 
 0.0000000000000E+00  0.0000000000000E+00  0.0000000000000E+00  0.0000000000000E+00  0.0000000000000E+00  0.0000000000000E+00  0.0000000000000E+00  0.0000000000000E+00  0.0000000000000E+00  0.0000000000000E+00 
ZONE T = "SEP , 1.6188E-07", I = 10, SOLUTIONTIME = 1.618750E-07
ZONETYPE = ORDERED
DATAPACKING = BLOCK
STRANDID = 2
 7.8740000000000E-04  8.4102222222222E-04  8.9464444444444E-04  9.4826666666667E-04  1.0018888888889E-03  1.0555111111111E-03  1.1091333333333E-03  1.1627555555556E-03  1.2163777777778E-03  1.2700000000000E-03 
 1.1240696598198E-16  1.1240696724975E-16  1.1240696768262E-16  1.1240696768181E-16  1.1240696768105E-16  1.1240696767949E-16  1.1240696811683E-16  1.1240696941446E-16  1.1240696941448E-16 -4.2172777919668E-16 
 9.1999999800657E-01  9.1999999898939E-01  9.1999999997225E-01  9.2000000095510E-01  9.2000000193796E-01  9.2000000292081E-01  9.2000000390367E-01  9.2000000488652E-01  9.2000000586938E-01  9.2000000685220E-01 
 4.0000000996717E-02  4.0000000505305E-02  4.0000000013877E-02  3.9999999522450E-02  3.9999999031022E-02  3.9999998539594E-02  3.9999998048167E-02  3.9999997556739E-02  3.9999997065311E-02  3.9999996573901E-02 
 4.0000000996717E-02  4.0000000505305E-02  4.0000000013877E-02  3.9999999522450E-02  3.9999999031022E-02  3.9999998539594E-02  3.9999998048167E-02  3.9999997556739E-02  3.9999997065311E-02  3.9999996573901E-02 
 1.0307456380890E-02  1.0307456380890E-02  1.0307456380890E-02  1.0307456380889E-02  1.0307456380889E-02  1.0307456380889E-02  1.0307456380888E-02  1.0307456380888E-02  1.0307456380888E-02  1.0307456380888E-02 
 8.0911499769706E-01  8.0911499769706E-01  8.0911499769706E-01  8.0911499769706E-01  8.0911499769706E-01  8.0911499769706E-01  8.0911499769706E-01  8.0911499769706E-01  8.0911499769706E-01  8.0911499769706E-01 
 2.6811111111111E-05  5.3622222222222E-05  5.3622222222222E-05  5.3622222222222E-05  5.3622222222222E-05  5.3622222222222E-05  5.3622222222222E-05  5.3622222222223E-05  5.3622222222222E-05  2.6811111111111E-05 
 1.9088500230294E-01  1.9088500230294E-01  1.9088500230294E-01  1.9088500230294E-01  1.9088500230294E-01  1.9088500230294E-01  1.9088500230294E-01  1.9088500230294E-01  1.9088500230294E-01  1.9088500230294E-01 
 6.0377958839936E-26  6.0034433220245E-26  5.9769015603232E-26  6.0034431745423E-26  5.9887030572247E-26  5.9699721327306E-26  6.0028110837790E-26  5.9933393849984E-26  5.9795908319117E-26  5.9934129218791E-26 
 8.1002153689675E-19  8.0477872927061E-19  7.9953591680527E-19  8.0477870942126E-19  8.0477869969346E-19  7.9953588747372E-19  8.0477867964659E-19  8.0477866986940E-19  7.9953585794466E-19  7.9953585300668E-19 
 8.1002153689675E-19  8.0477872927061E-19  7.9953591680527E-19  8.0477870942126E-19  8.0477869969346E-19  7.9953588747372E-19  8.0477867964659E-19  8.0477866986940E-19  7.9953585794466E-19  7.9953585300668E-19 
 0.0000000000000E+00  0.0000000000000E+00  0.0000000000000E+00  0.0000000000000E+00  0.0000000000000E+00  0.0000000000000E+00  0.0000000000000E+00  0.0000000000000E+00  0.0000000000000E+00  0.0000000000000E+00 
ZONE T = "SEP , 2.3781E-07", I = 10, SOLUTIONTIME = 2.378125E-07
ZONETYPE = ORDERED
DATAPACKING = BLOCK
STRANDID = 2
 7.8740000000000E-04  8.4102222222222E-04  8.9464444444444E-04  9.4826666666667E-04  1.0018888888889E-03  1.0555111111111E-03  1.1091333333333E-03  1.1627555555556E-03  1.2163777777778E-03  1.2700000000000E-03 
-9.5494510031165E-14 -9.5494510031243E-14 -9.5494510030954E-14 -9.5494510030955E-14 -9.5494510030956E-14 -9.5494510030958E-14 -9.5494510030665E-14 -9.5494510029798E-14 -1.9115415849861E-13 -7.2116662116042E-14 
 9.1999999800658E-01  9.1999999898939E-01  9.1999999997225E-01  9.2000000095510E-01  9.2000000193796E-01  9.2000000292081E-01  9.2000000390367E-01  9.2000000488652E-01  9.2000000586938E-01  9.2000000685218E-01 
 4.0000000996709E-02  4.0000000505305E-02  4.0000000013877E-02  3.9999999522450E-02  3.9999999031022E-02  3.9999998539594E-02  3.9999998048167E-02  3.9999997556739E-02  3.9999997065311E-02  3.9999996573910E-02 
 4.0000000996709E-02  4.0000000505305E-02  4.0000000013877E-02  3.9999999522450E-02  3.9999999031022E-02  3.9999998539594E-02  3.9999998048167E-02  3.9999997556739E-02  3.9999997065311E-02  3.9999996573910E-02 
 1.0307456359680E-02  1.0307456359680E-02  1.0307456359680E-02  1.0307456359679E-02  1.0307456359679E-02  1.0307456359678E-02  1.0307456359678E-02  1.0307456359678E-02  1.0307456359677E-02  1.0307456359677E-02 
 8.0911499769706E-01  8.0911499769706E-01  8.0911499769706E-01  8.0911499769706E-01  8.0911499769706E-01  8.0911499769706E-01  8.0911499769706E-01  8.0911499769706E-01  8.0911499769706E-01  8.0911499769706E-01 
 2.6811111111111E-05  5.3622222222222E-05  5.3622222222222E-05  5.3622222222222E-05  5.3622222222222E-05  5.3622222222222E-05  5.3622222222222E-05  5.3622222222223E-05  5.3622222222222E-05  2.6811111111111E-05 
 1.9088500230294E-01  1.9088500230294E-01  1.9088500230294E-01  1.9088500230294E-01  1.9088500230294E-01  1.9088500230294E-01  1.9088500230294E-01  1.9088500230294E-01  1.9088500230294E-01  1.9088500230294E-01 
 1.9285124140997E-25  1.9192284684174E-25  1.9107255948212E-25  1.9133797401963E-25  1.9177543934882E-25  1.9158812848265E-25  1.9133164824833E-25  1.9123692965584E-25  1.9168431061292E-25  1.9240739879462E-25 
 1.7445041326095E-18  1.7368021546864E-18  1.7291001663064E-18  1.7291001451748E-18  1.7368020908849E-18  1.7368020695355E-18  1.7291000811264E-18  1.7291000599948E-18  1.7368020055151E-18  1.7445039614924E-18 
 1.7445041326095E-18  1.7368021546864E-18  1.7291001663064E-18  1.7291001451748E-18  1.7368020908849E-18  1.7368020695355E-18  1.7291000811264E-18  1.7291000599948E-18  1.7368020055151E-18  1.7445039614924E-18 
 0.0000000000000E+00  0.0000000000000E+00  0.0000000000000E+00  0.0000000000000E+00  0.0000000000000E+00  0.0000000000000E+00  0.0000000000000E+00  0.0000000000000E+00  0.0000000000000E+00  0.0000000000000E+00 
ZONE T = "SEP , 3.5172E-07", I = 10, SOLUTIONTIME = 3.517188E-07
ZONETYPE = ORDERED
DATAPACKING = BLOCK
STRANDID = 2
 7.8740000000000E-04  8.4102222222222E-04  8.9464444444444E-04  9.4826666666667E-04  1.0018888888889E-03  1.0555111111111E-03  1.1091333333333E-03  1.1627555555556E-03  1.2163777777778E-03  1.2700000000000E-03 
 3.0316645577771E-13  3.0316645577968E-13  3.0316645577987E-13  3.0316645577987E-13  3.0316645577987E-13  3.0316645577987E-13  3.0316645578006E-13  3.0316645578064E-13  3.6693955475578E-13  3.1856827214230E-13 
 9.1999999800660E-01  9.1999999898939E-01  9.1999999997225E-01  9.2000000095510E-01  9.2000000193796E-01  9.2000000292081E-01  9.2000000390367E-01  9.2000000488652E-01  9.2000000586938E-01  9.2000000685216E-01 
 4.0000000996698E-02  4.0000000505305E-02  4.0000000013877E-02  3.9999999522450E-02  3.9999999031022E-02  3.9999998539594E-02  3.9999998048167E-02  3.9999997556739E-02  3.9999997065311E-02  3.9999996573922E-02 