TITLE = "Solution on Domain BulkDomain1D_0"
VARIABLES = "x [m]"  
"Vel_axial" 
"MF_sp(ECDMC)" 
"MF_sp(Li+)" 
"MF_sp(PF6-)" 
"Volt(Electroly)" 
"Volt(AnodeVolt)" 
"Potential Drop Electrode-Electrolyte [V]" 
"Surf_0 Equilibrium Potential Drop Electrode-Electrolyte [V]" 
"Overpotential_0 [V]" 
"Current Source [A/m^2]" 
"Li+ flux [kmol/m^2/s]" 
"Electrolyte Current [A/m^2]" 
"Electrode Current [A/m^2]" 
"CV Capacity discharged [A-s/m^2]" 
"Depth of discharge in CV [A-s/m^2]" 
"CV Capacity remaining [A-s/m^2]" 
"Initial CV capacity [A-s/m^2]" 
"Porosity []" 
"Surface Area [m2/m2] (area per area)" 
"Specific current (per particle area) [A/m^2]" 
"Control volume thickness [m]" 
"MoleDens Li_C6-bulk [kmol/m^3]" 
"MoleDens V_C6-bulk [kmol/m^3]" 
"qHeat_accum [J/m3]" 
"qHeat_step [W/m3]" 
"Joule_Lyte [W/m3]" 
"Joule_Solid [W/m3]" 
"electrodHeat [W/m3]" 
"OverpotHeat [W/m3]" 
"deltaSHeat [W/m3]" 

ZONE T = "ANOD, 0.0000E+00", I = 10, SOLUTIONTIME = 0.000000E+00
ZONETYPE = ORDERED
DATAPACKING = BLOCK
STRANDID = 1
 0.0000000000000E+00  8.7488888888889E-05  1.7497777777778E-04  2.6246666666667E-04  3.4995555555556E-04  4.3744444444444E-04  5.2493333333333E-04  6.1242222222222E-04  6.9991111111111E-04  7.8740000000000E-04 
 8.0556036137532E-12  2.4166809368316E-11  4.0278010269142E-11  5.6389202940529E-11  7.2500383999613E-11  8.8611550072436E-11  1.0472269777983E-10  1.2083382374051E-10  1.3694492457746E-10  1.4500046074539E-10 
 9.1999997264233E-01  9.1999997295547E-01  9.1999997389488E-01  9.1999997546058E-01  9.1999997765255E-01  9.1999998047079E-01  9.1999998391532E-01  9.1999998798612E-01  9.1999999268319E-01  9.1999999800653E-01 
 4.0000013678836E-02  4.0000013522267E-02  4.0000013052559E-02  4.0000012269712E-02  4.0000011173727E-02  4.0000009764603E-02  4.0000008042341E-02  4.0000006006942E-02  4.0000003658406E-02  4.0000000996733E-02 
 4.0000013678836E-02  4.0000013522267E-02  4.0000013052559E-02  4.0000012269712E-02  4.0000011173727E-02  4.0000009764603E-02  4.0000008042341E-02  4.0000006006942E-02  4.0000003658406E-02  4.0000000996733E-02 
 1.0249120196691E-02  1.0249120087379E-02  1.0249119759444E-02  1.0249119212886E-02  1.0249118447705E-02  1.0249117463900E-02  1.0249116261473E-02  1.0249114840424E-02  1.0249113200752E-02  1.0249111342458E-02 
 0.0000000000000E+00 -2.6544331020875E-11 -4.9965790634587E-11 -7.0264379781945E-11 -8.7440100058081E-11 -1.0149295371383E-10 -1.1242294365402E-10 -1.2023007343846E-10 -1.2491434728237E-10 -1.2647577005553E-10 
-1.0249120196691E-02 -1.0249120113923E-02 -1.0249119809410E-02 -1.0249119283150E-02 -1.0249118535145E-02 -1.0249117565393E-02 -1.0249116373896E-02 -1.0249114960654E-02 -1.0249113325666E-02 -1.0249111468934E-02 
-1.0307459482521E-02 -1.0307459394131E-02 -1.0307459071169E-02 -1.0307458513627E-02 -1.0307457721502E-02 -1.0307456694804E-02 -1.0307455433525E-02 -1.0307453937671E-02 -1.0307452207236E-02 -1.0307450242228E-02 
 5.8339285829954E-05  5.8339280207527E-05  5.8339261759358E-05  5.8339230476507E-05  5.8339186356943E-05  5.8339129410804E-05  5.8339059628860E-05  5.8338977017290E-05  5.8338881570145E-05  5.8338773294647E-05 
 1.1600715693325E-02  2.3201429150971E-02  2.3201421829471E-02  2.3201409418344E-02  2.3201391917042E-02  2.3201369329195E-02  2.3201341651479E-02  2.3201308886361E-02  2.3201271031309E-02  1.1600614044751E-02 
 1.1542358916420E-10  3.4627074924006E-10  5.7711783342576E-10  8.0796480048363E-10  1.0388116042661E-09  1.2696581835309E-09  1.5005044938501E-09  1.7313505045102E-09  1.9621961354529E-09  1.9621961354529E-09 
 0.0000000000000E+00  2.3201420717808E-02  4.6402836656474E-02  6.9604243128905E-02  9.2805635724157E-02  1.1600700901875E-01  1.3920835740510E-01  1.6240967822120E-01  1.8561096484695E-01  2.0881221211610E-01 
 1.7059771149111E-01  1.4964420458200E-01  1.3093862496810E-01  1.1223305294917E-01  9.3527492448660E-02  7.4821947389009E-02  5.6116421690506E-02  3.7410919277692E-02  1.8705444073853E-02  0.0000000000000E+00 
 1.4407436557919E+04  2.8814873691066E+04  2.8814875592718E+04  2.8814878820812E+04  2.8814883375324E+04  2.8814889256269E+04  2.8814896463642E+04  2.8814904997455E+04  2.8814914857697E+04  1.4407463022191E+04 
 1.0585588110120E+05  2.1171176277763E+05  2.1171176467928E+05  2.1171176790737E+05  2.1171177246189E+05  2.1171177834283E+05  2.1171178555020E+05  2.1171179408402E+05  2.1171180394426E+05  1.0585590756547E+05 
 3.5138634161521E+05  7.0277268265518E+05  7.0277268075353E+05  7.0277267752544E+05  7.0277267297093E+05  7.0277266708998E+05  7.0277265988261E+05  7.0277265134880E+05  7.0277264148855E+05  3.5138631515093E+05 
 4.5724222271641E+05  9.1448444543281E+05  9.1448444543281E+05  9.1448444543281E+05  9.1448444543281E+05  9.1448444543281E+05  9.1448444543281E+05  9.1448444543281E+05  9.1448444543281E+05  4.5724222271641E+05 
 3.5000000000000E-01  3.5000000000000E-01  3.5000000000000E-01  3.5000000000000E-01  3.5000000000000E-01  3.5000000000000E-01  3.5000000000000E-01  3.5000000000000E-01  3.5000000000000E-01  3.5000000000000E-01 
 8.5301666666667E+00  1.7060333333333E+01  1.7060333333333E+01  1.7060333333333E+01  1.7060333333333E+01  1.7060333333333E+01  1.7060333333333E+01  1.7060333333333E+01  1.7060333333333E+01  8.5301666666667E+00 
 1.3599635442830E-03  1.3599634132376E-03  1.3599629840842E-03  1.3599622565997E-03  1.3599612307522E-03  1.3599599067541E-03  1.3599582844110E-03  1.3599563638671E-03  1.3599541449743E-03  1.3599516279187E-03 
 4.3744444444444E-05  8.7488888888889E-05  8.7488888888889E-05  8.7488888888889E-05  8.7488888888889E-05  8.7488888888889E-05  8.7488888888889E-05  8.7488888888889E-05  8.7488888888889E-05  4.3744444444444E-05 
 8.3253146327632E+01  8.3253146259488E+01  8.3253146034211E+01  8.3253145651799E+01  8.3253145112254E+01  8.3253144415575E+01  8.3253143561762E+01  8.3253142550814E+01  8.3253141382731E+01  8.3253140057514E+01 
 2.5080187005701E+01  2.5080187073845E+01  2.5080187299122E+01  2.5080187681534E+01  2.5080188221079E+01  2.5080188917759E+01  2.5080189771572E+01  2.5080190782520E+01  2.5080191950602E+01  2.5080193275820E+01 
 0.0000000000000E+00  0.0000000000000E+00  0.0000000000000E+00  0.0000000000000E+00  0.0000000000000E+00  0.0000000000000E+00  0.0000000000000E+00  0.0000000000000E+00  0.0000000000000E+00  0.0000000000000E+00 
 0.0000000000000E+00  0.0000000000000E+00  0.0000000000000E+00  0.0000000000000E+00  0.0000000000000E+00  0.0000000000000E+00  0.0000000000000E+00  0.0000000000000E+00  0.0000000000000E+00  0.0000000000000E+00 
 0.0000000000000E+00  0.0000000000000E+00  0.0000000000000E+00  0.0000000000000E+00  0.0000000000000E+00  0.0000000000000E+00  0.0000000000000E+00  0.0000000000000E+00  0.0000000000000E+00  0.0000000000000E+00 
 0.0000000000000E+00  0.0000000000000E+00  0.0000000000000E+00  0.0000000000000E+00  0.0000000000000E+00  0.0000000000000E+00  0.0000000000000E+00  0.0000000000000E+00  0.0000000000000E+00  0.0000000000000E+00 
 0.0000000000000E+00  0.0000000000000E+00  0.0000000000000E+00  0.0000000000000E+00  0.0000000000000E+00  0.0000000000000E+00  0.0000000000000E+00  0.0000000000000E+00  0.0000000000000E+00  0.0000000000000E+00 
 0.0000000000000E+00  0.0000000000000E+00  0.0000000000000E+00  0.0000000000000E+00  0.0000000000000E+00  0.0000000000000E+00  0.0000000000000E+00  0.0000000000000E+00  0.0000000000000E+00  0.0000000000000E+00 
 0.0000000000000E+00  0.0000000000000E+00  0.0000000000000E+00  0.0000000000000E+00  0.0000000000000E+00  0.0000000000000E+00  0.0000000000000E+00  0.0000000000000E+00  0.0000000000000E+00  0.0000000000000E+00 
ZONE T = "ANOD, 1.0000E-08", I = 10, SOLUTIONTIME = 1.000000E-08
ZONETYPE = ORDERED
DATAPACKING = BLOCK
STRANDID = 1
 0.0000000000000E+00  8.7488888888889E-05  1.7497777777778E-04  2.6246666666667E-04  3.4995555555556E-04  4.3744444444444E-04  5.2493333333333E-04  6.1242222222222E-04  6.9991111111111E-04  7.8740000000000E-04 
-1.8118147515857E-13 -9.0677655941949E-13 -1.6324608309793E-12 -1.6318836118380E-12 -2.7211483227322E-12 -2.7210733754101E-12 -2.7213467374334E-12 -2.7220331901817E-12 -3.8128207028248E-12 -3.8136741977747E-12 
 9.1999997264233E-01  9.1999997295547E-01  9.1999997389489E-01  9.1999997546058E-01  9.1999997765255E-01  9.1999998047080E-01  9.1999998391532E-01  9.1999998798612E-01  9.1999999268319E-01  9.1999999800654E-01 
 4.0000013678834E-02  4.0000013522264E-02  4.0000013052556E-02  4.0000012269709E-02  4.0000011173724E-02  4.0000009764601E-02  4.0000008042339E-02  4.0000006006940E-02  4.0000003658403E-02  4.0000000996732E-02 
 4.0000013678834E-02  4.0000013522264E-02  4.0000013052556E-02  4.0000012269709E-02  4.0000011173724E-02  4.0000009764601E-02  4.0000008042339E-02  4.0000006006940E-02  4.0000003658403E-02  4.0000000996732E-02 
 1.0307456423547E-02  1.0307456423541E-02  1.0307456423524E-02  1.0307456423497E-02  1.0307456423463E-02  1.0307456423423E-02  1.0307456423383E-02  1.0307456423346E-02  1.0307456423318E-02  1.0307456423307E-02 
 0.0000000000000E+00  9.9880947338812E-17  3.9699501299801E-16  8.6989984034892E-16  1.4815793102730E-15  2.1794424915201E-15  2.8953244609947E-15  3.5454849165123E-15  4.0306088664578E-15  4.2358055496482E-15 
-1.0307456423547E-02 -1.0307456423541E-02 -1.0307456423524E-02 -1.0307456423496E-02 -1.0307456423461E-02 -1.0307456423421E-02 -1.0307456423380E-02 -1.0307456423342E-02 -1.0307456423314E-02 -1.0307456423303E-02 
-1.0307459482516E-02 -1.0307459394137E-02 -1.0307459071168E-02 -1.0307458513630E-02 -1.0307457721504E-02 -1.0307456694803E-02 -1.0307455433531E-02 -1.0307453937673E-02 -1.0307452207237E-02 -1.0307450242230E-02 
 3.0589698014200E-09  2.9705961562126E-09  2.6476443034523E-09  2.0901333580570E-09  1.2980429734549E-09  2.7138147805361E-10 -9.8984836646721E-10 -2.4856689345709E-09 -4.2160773223304E-09 -6.1810729087147E-09 
 6.0827338355710E-07  1.1813999808368E-06  1.0529626137085E-06  8.3124145738434E-07  5.1622885014759E-07  1.0793016622892E-07 -3.9366257334093E-07 -9.8854674884577E-07 -1.6767269366193E-06 -1.2291007792843E-06 
 5.5310293979627E-11  1.6593069677980E-10  2.7655040217558E-10  3.8716889307233E-10  4.9778567121884E-10  6.0840023408419E-10  7.1901205895147E-10  8.2962065647331E-10  9.4022500955381E-10  9.4022500955381E-10 
 0.0000000000000E+00  1.1989364026978E-06  2.3161333907789E-06  3.2582534000451E-06  3.9320509292216E-06  4.2440964006916E-06  4.1011443632103E-06  3.4101334992335E-06  2.0774502413811E-06  9.8765356044774E-09 
 9.9998557059468E-09 -1.1889735394677E-06 -2.3061551372280E-06 -3.2482575059165E-06 -3.9219927456740E-06 -4.2340722697373E-06 -4.0912057933438E-06 -3.4001009425092E-06 -2.0674641737913E-06  0.0000000000000E+00 
 1.4407436557919E+04  2.8814873691066E+04  2.8814875592718E+04  2.8814878820812E+04  2.8814883375324E+04  2.8814889256269E+04  2.8814896463642E+04  2.8814904997455E+04  2.8814914857697E+04  1.4407463022191E+04 
 1.0585588110120E+05  2.1171176277763E+05  2.1171176467928E+05  2.1171176790737E+05  2.1171177246189E+05  2.1171177834283E+05  2.1171178555020E+05  2.1171179408402E+05  2.1171180394426E+05  1.0585590756547E+05 
 3.5138634161521E+05  7.0277268265518E+05  7.0277268075353E+05  7.0277267752544E+05  7.0277267297093E+05  7.0277266708998E+05  7.0277265988261E+05  7.0277265134880E+05  7.0277264148855E+05  3.5138631515093E+05 
 4.5724222271641E+05  9.1448444543281E+05  9.1448444543281E+05  9.1448444543281E+05  9.1448444543281E+05  9.1448444543281E+05  9.1448444543281E+05  9.1448444543281E+05  9.1448444543281E+05  4.5724222271641E+05 
 3.5000000000000E-01  3.5000000000000E-01  3.5000000000000E-01  3.5000000000000E-01  3.5000000000000E-01  3.5000000000000E-01  3.5000000000000E-01  3.5000000000000E-01  3.5000000000000E-01  3.5000000000000E-01 
 8.5301666666667E+00  1.7060333333333E+01  1.7060333333333E+01  1.7060333333333E+01  1.7060333333333E+01  1.7060333333333E+01  1.7060333333333E+01  1.7060333333333E+01  1.7060333333333E+01  8.5301666666667E+00 
 7.1308499274000E-08  6.9248352758063E-08  6.1719932028009E-08  4.8723635180106E-08  3.0259013118985E-08  6.3263808578721E-09 -2.3074729294519E-08 -5.7944163782211E-08 -9.8282190849299E-08 -1.4408871799507E-07 
 4.3744444444444E-05  8.7488888888889E-05  8.7488888888889E-05  8.7488888888889E-05  8.7488888888889E-05  8.7488888888889E-05  8.7488888888889E-05  8.7488888888889E-05  8.7488888888889E-05  4.3744444444444E-05 
 8.3253146327632E+01  8.3253146259488E+01  8.3253146034211E+01  8.3253145651799E+01  8.3253145112254E+01  8.3253144415575E+01  8.3253143561762E+01  8.3253142550814E+01  8.3253141382731E+01  8.3253140057514E+01 
 2.5080187005701E+01  2.5080187073845E+01  2.5080187299122E+01  2.5080187681534E+01  2.5080188221079E+01  2.5080188917759E+01  2.5080189771572E+01  2.5080190782520E+01  2.5080191950602E+01  2.5080193275820E+01 
 4.0530951160237E-25  1.9575900443185E-24  6.1830680788102E-24  1.1824678651712E-23  1.7018628465608E-23  1.9745172225084E-23  1.8476884025749E-23  1.3013153096608E-23  5.5004301922357E-24  1.6821430009639E-24 
 4.0530951160237E-17  1.9575900443185E-16  6.1830680788102E-16  1.1824678651712E-15  1.7018628465608E-15  1.9745172225084E-15  1.8476884025749E-15  1.3013153096608E-15  5.5004301922357E-16  1.6821430009639E-16 
 3.9847937265691E-17  1.9239559349755E-16  6.0762925985950E-16  1.1620041996964E-15  1.6723833200436E-15  1.9403021833172E-15  1.8156746416206E-15  1.2787887079027E-15  5.4054527619149E-16  1.6533156386841E-16 
 6.8301389454605E-19  3.3634109343058E-18  1.0677548021529E-17  2.0463665474790E-17  2.9479526517155E-17  3.4215039191211E-17  3.2013760954332E-17  2.2526601758077E-17  9.4977430320829E-18  2.8827362279777E-18 
 0.0000000000000E+00  0.0000000000000E+00  0.0000000000000E+00  0.0000000000000E+00  0.0000000000000E+00  0.0000000000000E+00  0.0000000000000E+00  0.0000000000000E+00  0.0000000000000E+00  0.0000000000000E+00 
 0.0000000000000E+00  0.0000000000000E+00  0.0000000000000E+00  0.0000000000000E+00  0.0000000000000E+00  0.0000000000000E+00  0.0000000000000E+00  0.0000000000000E+00  0.0000000000000E+00  0.0000000000000E+00 
 0.0000000000000E+00  0.0000000000000E+00  0.0000000000000E+00  0.0000000000000E+00  0.0000000000000E+00  0.0000000000000E+00  0.0000000000000E+00  0.0000000000000E+00  0.0000000000000E+00  0.0000000000000E+00 
ZONE T = "ANOD, 2.0000E-08", I = 10, SOLUTIONTIME = 2.000000E-08
ZONETYPE = ORDERED
DATAPACKING = BLOCK
STRANDID = 1
 0.0000000000000E+00  8.7488888888889E-05  1.7497777777778E-04  2.6246666666667E-04  3.4995555555556E-04  4.3744444444444E-04  5.2493333333333E-04  6.1242222222222E-04  6.9991111111111E-04  7.8740000000000E-04 
 4.2277503321710E-16  1.4540748290059E-12  2.1812222398263E-12  2.1818002294679E-12  2.1821594740558E-12  1.4558197368916E-12  3.6592396495322E-13 -3.6117717289639E-13 -3.6234073023679E-13 -3.6319383970422E-13 
 9.1999997264234E-01  9.1999997295548E-01  9.1999997389489E-01  9.1999997546059E-01  9.1999997765256E-01  9.1999998047080E-01  9.1999998391533E-01  9.1999998798613E-01  9.1999999268320E-01  9.1999999800654E-01 
 4.0000013678831E-02  4.0000013522262E-02  4.0000013052554E-02  4.0000012269707E-02  4.0000011173722E-02  4.0000009764598E-02  4.0000008042337E-02  4.0000006006937E-02  4.0000003658401E-02  4.0000000996731E-02 
 4.0000013678831E-02  4.0000013522262E-02  4.0000013052554E-02  4.0000012269707E-02  4.0000011173722E-02  4.0000009764598E-02  4.0000008042337E-02  4.0000006006937E-02  4.0000003658401E-02  4.0000000996731E-02 
 1.0307456420754E-02  1.0307456420748E-02  1.0307456420732E-02  1.0307456420705E-02  1.0307456420670E-02  1.0307456420631E-02  1.0307456420590E-02  1.0307456420553E-02  1.0307456420526E-02  1.0307456420514E-02 
 0.0000000000000E+00  9.8304318969373E-17  3.9402724800435E-16  8.6572636764258E-16  1.4763853680775E-15  2.1734137115495E-15  2.8886462233903E-15  3.5383431696683E-15  4.0231888436664E-15  4.2282928441558E-15 
-1.0307456420754E-02 -1.0307456420748E-02 -1.0307456420731E-02 -1.0307456420704E-02 -1.0307456420669E-02 -1.0307456420628E-02 -1.0307456420587E-02 -1.0307456420550E-02 -1.0307456420522E-02 -1.0307456420510E-02 
-1.0307459482524E-02 -1.0307459394140E-02 -1.0307459071170E-02 -1.0307458513626E-02 -1.0307457721508E-02 -1.0307456694809E-02 -1.0307455433536E-02 -1.0307453937671E-02 -1.0307452207240E-02 -1.0307450242229E-02 
 3.0617699695035E-09  2.9733917723818E-09  2.6504384641884E-09  2.0929225262589E-09  1.3008392800440E-09  2.7418076663233E-10 -9.8705133823318E-10 -2.4828788643128E-09 -4.2132814199319E-09 -6.1782807411759E-09 
 6.0882977301304E-07  1.1825110250718E-06  1.0540737954650E-06  8.3235104879333E-07  5.1734089924250E-07  1.0904061272198E-07 -3.9254935190942E-07 -9.8743701583051E-07 -1.6756151680138E-06 -1.2285455907585E-06 
 5.5310296841684E-11  1.6593070536597E-10  2.7655041266212E-10  3.8716891467545E-10  4.9778569923239E-10  6.0840026556682E-10  7.1901209554351E-10  8.2962069871785E-10  9.4022456060495E-10  9.4022456060495E-10 
 0.0000000000000E+00  1.2000409890175E-06  2.3183425633896E-06  3.2615671589075E-06  3.9364692742484E-06  4.2496193317656E-06  4.1078639290598E-06  3.4179576508659E-06  2.0863789786018E-06  2.0004802933287E-08 
 2.0000038416022E-08 -1.1800852815972E-06 -2.2983777619421E-06 -3.2415902539348E-06 -3.9164362243765E-06 -4.2296269041581E-06 -4.0878725319185E-06 -3.3978793454349E-06 -2.0663531774242E-06  0.0000000000000E+00 
 1.4407436557919E+04  2.8814873691066E+04  2.8814875592718E+04  2.8814878820812E+04  2.8814883375324E+04  2.8814889256269E+04  2.8814896463642E+04  2.8814904997455E+04  2.8814914857697E+04  1.4407463022191E+04 
 1.0585588110120E+05  2.1171176277763E+05  2.1171176467928E+05  2.1171176790737E+05  2.1171177246189E+05  2.1171177834283E+05  2.1171178555020E+05  2.1171179408402E+05  2.1171180394426E+05  1.0585590756547E+05 
 3.5138634161521E+05  7.0277268265518E+05  7.0277268075353E+05  7.0277267752544E+05  7.0277267297093E+05  7.0277266708998E+05  7.0277265988261E+05  7.0277265134880E+05  7.0277264148855E+05  3.5138631515093E+05 
 4.5724222271641E+05  9.1448444543281E+05  9.1448444543281E+05  9.1448444543281E+05  9.1448444543281E+05  9.1448444543281E+05  9.1448444543281E+05  9.1448444543281E+05  9.1448444543281E+05  4.5724222271641E+05 
 3.5000000000000E-01  3.5000000000000E-01  3.5000000000000E-01  3.5000000000000E-01  3.5000000000000E-01  3.5000000000000E-01  3.5000000000000E-01  3.5000000000000E-01  3.5000000000000E-01  3.5000000000000E-01 
 8.5301666666667E+00  1.7060333333333E+01  1.7060333333333E+01  1.7060333333333E+01  1.7060333333333E+01  1.7060333333333E+01  1.7060333333333E+01  1.7060333333333E+01  1.7060333333333E+01  8.5301666666667E+00 
 7.1373725368365E-08  6.9313477173469E-08  6.1785064504305E-08  4.8788674437389E-08  3.0324196434761E-08  6.3914702363365E-09 -2.3009477261645E-08 -5.7879116224605E-08 -9.8217023974548E-08 -1.4402363268696E-07 
 4.3744444444444E-05  8.7488888888889E-05  8.7488888888889E-05  8.7488888888889E-05  8.7488888888889E-05  8.7488888888889E-05  8.7488888888889E-05  8.7488888888889E-05  8.7488888888889E-05  4.3744444444444E-05 
 8.3253146327632E+01  8.3253146259488E+01  8.3253146034211E+01  8.3253145651799E+01  8.3253145112254E+01  8.3253144415575E+01  8.3253143561762E+01  8.3253142550814E+01  8.3253141382731E+01  8.3253140057514E+01 
 2.5080187005701E+01  2.5080187073845E+01  2.5080187299122E+01  2.5080187681534E+01  2.5080188221079E+01  2.5080188917759E+01  2.5080189771572E+01  2.5080190782520E+01  2.5080191950602E+01  2.5080193275820E+01 
 8.1112905588043E-25  3.9183478552663E-24  1.2377117726701E-23  2.3672304605405E-23  3.4074182746650E-23  3.9540215872213E-23  3.7012381117031E-23  2.6083057251695E-23  1.1039633305408E-23  3.3899076783016E-24 
 4.0581954427806E-17  1.9607578109478E-16  6.1940496478906E-16  1.1847625953693E-15  1.7055554281042E-15  1.9795043647129E-15  1.8535497091281E-15  1.3069904155087E-15  5.5392031131727E-16  1.7077646773377E-16 
 7.9768270466120E-17  3.8514689184035E-16  1.2164238960336E-15  2.3263848169391E-15  3.3485417850438E-15  3.8856631894771E-15  3.6372630315434E-15  2.5632823863032E-15  1.0849783861658E-15  3.3322789891960E-16 
 1.3446351219226E-18  6.6878936862775E-18  2.1287876636456E-17  4.0845643601441E-17  5.8876489621226E-17  6.8358397744122E-17  6.3975080159708E-17  4.5023338866313E-17  1.8984944375080E-17  5.7628689105557E-18 
 0.0000000000000E+00  0.0000000000000E+00  0.0000000000000E+00  0.0000000000000E+00  0.0000000000000E+00  0.0000000000000E+00  0.0000000000000E+00  0.0000000000000E+00  0.0000000000000E+00  0.0000000000000E+00 
 0.0000000000000E+00  0.0000000000000E+00  0.0000000000000E+00  0.0000000000000E+00  0.0000000000000E+00  0.0000000000000E+00  0.0000000000000E+00  0.0000000000000E+00  0.0000000000000E+00  0.0000000000000E+00 
 0.0000000000000E+00  0.0000000000000E+00  0.0000000000000E+00  0.0000000000000E+00  0.0000000000000E+00  0.0000000000000E+00  0.0000000000000E+00  0.0000000000000E+00  0.0000000000000E+00  0.0000000000000E+00 
ZONE T = "ANOD, 3.0000E-08", I = 10, SOLUTIONTIME = 3.000000E-08
ZONETYPE = ORDERED
DATAPACKING = BLOCK
STRANDID = 1
 0.0000000000000E+00  8.7488888888889E-05  1.7497777777778E-04  2.6246666666667E-04  3.4995555555556E-04  4.3744444444444E-04  5.2493333333333E-04  6.1242222222222E-04  6.9991111111111E-04  7.8740000000000E-04 
 5.4523475242286E-13 -1.8035878840905E-13  1.8358166614345E-13  1.8416042717246E-13  1.8452044295499E-13  9.1101238771739E-13  5.4753284213295E-13  1.8364020488364E-13  1.2721006026305E-12  1.9976633349123E-12 
 9.1999997264234E-01  9.1999997295548E-01  9.1999997389490E-01  9.1999997546059E-01  9.1999997765256E-01  9.1999998047081E-01  9.1999998391533E-01  9.1999998798613E-01  9.1999999268320E-01  9.1999999800654E-01 
 4.0000013678829E-02  4.0000013522260E-02  4.0000013052551E-02  4.0000012269705E-02  4.0000011173719E-02  4.0000009764596E-02  4.0000008042334E-02  4.0000006006935E-02  4.0000003658399E-02  4.0000000996730E-02 
 4.0000013678829E-02  4.0000013522260E-02  4.0000013052551E-02  4.0000012269705E-02  4.0000011173719E-02  4.0000009764596E-02  4.0000008042334E-02  4.0000006006935E-02  4.0000003658399E-02  4.0000000996730E-02 
 1.0307456417962E-02  1.0307456417956E-02  1.0307456417939E-02  1.0307456417912E-02  1.0307456417878E-02  1.0307456417838E-02  1.0307456417797E-02  1.0307456417760E-02  1.0307456417733E-02  1.0307456417721E-02 
 0.0000000000000E+00  9.6727562147077E-17  3.9105931361796E-16  8.6155273959864E-16  1.4711915034696E-15  2.1673850198609E-15  2.8819680197860E-15  3.5312007686525E-15  4.0157680438385E-15  4.2207791988702E-15 
-1.0307456417962E-02 -1.0307456417956E-02 -1.0307456417939E-02 -1.0307456417911E-02 -1.0307456417876E-02 -1.0307456417836E-02 -1.0307456417794E-02 -1.0307456417757E-02 -1.0307456417729E-02 -1.0307456417717E-02 
-1.0307459482524E-02 -1.0307459394141E-02 -1.0307459071169E-02 -1.0307458513629E-02 -1.0307457721508E-02 -1.0307456694808E-02 -1.0307455433533E-02 -1.0307453937676E-02 -1.0307452207240E-02 -1.0307450242233E-02 
 3.0645627598080E-09  2.9761851837173E-09  2.6532302292714E-09  2.0957181025294E-09  1.3036321900445E-09  2.7697174935504E-10 -9.8426160971554E-10 -2.4800806113640E-09 -4.2104884561550E-09 -6.1754840199879E-09 
 6.0938514467385E-07  1.1836226343702E-06  1.0551848356151E-06  8.3346192691322E-07  5.1845149414984E-07  1.1015064120420E-07 -3.9143917909773E-07 -9.8632423691862E-07 -1.6745038555439E-06 -1.2279894511560E-06 
 5.5310299703742E-11  1.6593071620718E-10  2.7655042628610E-10  3.8716893409515E-10  4.9778572629191E-10  6.0840029800347E-10  7.1901213431897E-10  8.2962074007999E-10  9.4022411001575E-10  9.4022411001575E-10 
 0.0000000000000E+00  1.2011455753359E-06  2.3205517360077E-06  3.2649729666154E-06  3.9408876192752E-06  4.2551422628646E-06  4.1145834949543E-06  3.4256897536652E-06  2.0952156669994E-06  2.9949923722554E-08 
 2.9999972746406E-08 -1.1711965164068E-06 -2.2906003061383E-06 -3.2349237416425E-06 -3.9108804327032E-06 -4.2251814080371E-06 -4.0845370468938E-06 -3.3956553193607E-06 -2.0652413256402E-06  0.0000000000000E+00 
 1.4407436557919E+04  2.8814873691066E+04  2.8814875592718E+04  2.8814878820812E+04  2.8814883375324E+04  2.8814889256269E+04  2.8814896463642E+04  2.8814904997455E+04  2.8814914857697E+04  1.4407463022191E+04 
 1.0585588110120E+05  2.1171176277763E+05  2.1171176467928E+05  2.1171176790737E+05  2.1171177246189E+05  2.1171177834283E+05  2.1171178555020E+05  2.1171179408402E+05  2.1171180394426E+05  1.0585590756547E+05 
 3.5138634161521E+05  7.0277268265518E+05  7.0277268075353E+05  7.0277267752544E+05  7.0277267297093E+05  7.0277266708998E+05  7.0277265988261E+05  7.0277265134880E+05  7.0277264148855E+05  3.5138631515093E+05 
 4.5724222271641E+05  9.1448444543281E+05  9.1448444543281E+05  9.1448444543281E+05  9.1448444543281E+05  9.1448444543281E+05  9.1448444543281E+05  9.1448444543281E+05  9.1448444543281E+05  4.5724222271641E+05 
 3.5000000000000E-01  3.5000000000000E-01  3.5000000000000E-01  3.5000000000000E-01  3.5000000000000E-01  3.5000000000000E-01  3.5000000000000E-01  3.5000000000000E-01  3.5000000000000E-01  3.5000000000000E-01 
 8.5301666666667E+00  1.7060333333333E+01  1.7060333333333E+01  1.7060333333333E+01  1.7060333333333E+01  1.7060333333333E+01  1.7060333333333E+01  1.7060333333333E+01  1.7060333333333E+01  8.5301666666667E+00 
 7.1438832145583E-08  6.9378634710356E-08  6.1850188680278E-08  4.8853789115877E-08  3.0389294512602E-08  6.4565351128854E-09 -2.2944403925152E-08 -5.7813890130241E-08 -9.8151883836415E-08 -1.4395843588315E-07 
 4.3744444444444E-05  8.7488888888889E-05  8.7488888888889E-05  8.7488888888889E-05  8.7488888888889E-05  8.7488888888889E-05  8.7488888888889E-05  8.7488888888889E-05  8.7488888888889E-05  4.3744444444444E-05 
 8.3253146327632E+01  8.3253146259488E+01  8.3253146034211E+01  8.3253145651799E+01  8.3253145112254E+01  8.3253144415575E+01  8.3253143561762E+01  8.3253142550814E+01  8.3253141382731E+01  8.3253140057514E+01 
 2.5080187005701E+01  2.5080187073845E+01  2.5080187299122E+01  2.5080187681534E+01  2.5080188221079E+01  2.5080188917759E+01  2.5080189771572E+01  2.5080190782520E+01  2.5080191950602E+01  2.5080193275820E+01 
 1.2174626765818E-24  5.8822797281543E-24  1.8582162430068E-23  3.5543633982384E-23  5.1166604052041E-23  5.9385219876641E-23  5.5606667101771E-23  3.9209067588796E-23  1.6617532514756E-23  5.1229925219035E-24 
 4.0633362070136E-17  1.9639318728880E-16  6.2050447033676E-16  1.1871329376979E-15  1.7092421305391E-15  1.9845004004428E-15  1.8594285984740E-15  1.3126010337100E-15  5.5778992093474E-16  1.7330848436019E-16 
 1.1976106530610E-16  5.7825422355322E-16  1.8263850255093E-15  3.4932172828593E-15  5.0284693866478E-15  5.8360918375568E-15  5.4647827422185E-15  3.8534165622091E-15  1.6332916479173E-15  5.0365885753528E-16 
 1.9852023520755E-18  9.9737492622151E-18  3.1831217497546E-17  6.1146115379192E-17  8.8191018556237E-17  1.0243015010722E-16  9.5883967958563E-17  6.7490196670485E-17  2.8461603558261E-17  8.6403946550697E-18 
 0.0000000000000E+00  0.0000000000000E+00  0.0000000000000E+00  0.0000000000000E+00  0.0000000000000E+00  0.0000000000000E+00  0.0000000000000E+00  0.0000000000000E+00  0.0000000000000E+00  0.0000000000000E+00 
 0.0000000000000E+00  0.0000000000000E+00  0.0000000000000E+00  0.0000000000000E+00  0.0000000000000E+00  0.0000000000000E+00  0.0000000000000E+00  0.0000000000000E+00  0.0000000000000E+00  0.0000000000000E+00 
 0.0000000000000E+00  0.0000000000000E+00  0.0000000000000E+00  0.0000000000000E+00  0.0000000000000E+00  0.0000000000000E+00  0.0000000000000E+00  0.0000000000000E+00  0.0000000000000E+00  0.0000000000000E+00 
ZONE T = "ANOD, 4.0000E-08", I = 10, SOLUTIONTIME = 4.000000E-08
ZONETYPE = ORDERED
DATAPACKING = BLOCK
STRANDID = 1
 0.0000000000000E+00  8.7488888888889E-05  1.7497777777778E-04  2.6246666666667E-04  3.4995555555556E-04  4.3744444444444E-04  5.2493333333333E-04  6.1242222222222E-04  6.9991111111111E-04  7.8740000000000E-04 
-3.6278418168009E-13 -3.6196149601873E-13 -3.6122799753666E-13 -3.6064846437632E-13 -3.6028767747493E-13 -3.6021041712657E-13  2.7262645860408E-15  1.0916653106127E-12  8.8011414576262E-16 -7.2638767929794E-13 
 9.1999997264235E-01  9.1999997295549E-01  9.1999997389490E-01  9.1999997546060E-01  9.1999997765257E-01  9.1999998047081E-01  9.1999998391534E-01  9.1999998798613E-01  9.1999999268321E-01  9.1999999800654E-01 
 4.0000013678827E-02  4.0000013522257E-02  4.0000013052549E-02  4.0000012269702E-02  4.0000011173717E-02  4.0000009764593E-02  4.0000008042332E-02  4.0000006006933E-02  4.0000003658396E-02  4.0000000996729E-02 
 4.0000013678827E-02  4.0000013522257E-02  4.0000013052549E-02  4.0000012269702E-02  4.0000011173717E-02  4.0000009764593E-02  4.0000008042332E-02  4.0000006006933E-02  4.0000003658396E-02  4.0000000996729E-02 
 1.0307456415170E-02  1.0307456415164E-02  1.0307456415147E-02  1.0307456415121E-02  1.0307456415086E-02  1.0307456415046E-02  1.0307456415006E-02  1.0307456414969E-02  1.0307456414941E-02  1.0307456414929E-02 
 0.0000000000000E+00  9.5150723782502E-17  3.8809098145727E-16  8.5737845279889E-16  1.4659968971250E-15  2.1613554858505E-15  2.8752889510276E-15  3.5240577033413E-15  4.0083466179414E-15  4.2132651193072E-15 
-1.0307456415170E-02 -1.0307456415164E-02 -1.0307456415147E-02 -1.0307456415120E-02 -1.0307456415084E-02 -1.0307456415044E-02 -1.0307456415003E-02 -1.0307456414965E-02 -1.0307456414937E-02 -1.0307456414925E-02 
-1.0307459482524E-02 -1.0307459394138E-02 -1.0307459071172E-02 -1.0307458513632E-02 -1.0307457721509E-02 -1.0307456694811E-02 -1.0307455433537E-02 -1.0307453937680E-02 -1.0307452207243E-02 -1.0307450242232E-02 
 3.0673535066084E-09  2.9789742755915E-09  2.6560251289998E-09  2.0985124436768E-09  1.3064242899291E-09  2.7976698561971E-10 -9.8146608548677E-10 -2.4772850212157E-09 -4.2076934037710E-09 -6.1726927787914E-09 
 6.0994008198462E-07  1.1847328003739E-06  1.0562963128385E-06  8.3457383167865E-07  5.1956194200450E-07  1.1126095153737E-07 -3.9032799870289E-07 -9.8521232670680E-07 -1.6733915205132E-06 -1.2274344069597E-06 