TITLE = "Solution on Domain BulkDomain1D_2"
VARIABLES = "x [m]"  
"Vel_axial" 	"MF_sp(ECDMC)" 	"MF_sp(Li+)" 	"MF_sp(PF6-)" 	"Volt(Electroly)" 	"Volt(CathodeVo)" 	
"Potential Drop Electrode-Electrolyte [V]" 	"Surf_0 Equilibrium Potential Drop Electrode-Electrolyte [V]" 	"Overpotential_0 [V]" 	"Current Source [A/m^2]" 	"Li+ flux [kmol/m^2/s]" 	"Electrolyte Current [A/m^2]" 	"Electrode Current [A/m^2]" 	
"CV Capacity discharged [A-s/m^2]" 	"Depth of discharge in CV [A-s/m^2]" 	"CV Capacity remaining [A-s/m^2]" 	"Initial CV capacity [A-s/m^2]" 	"Porosity []" 	"Surface Area [m2/m2] (area per area)" 	"Specific current (per particle area) [A/m^2]" 	"Control volume thickness [m]" 	
"MoleDens LiCoO2 [kmol/m^3]" 	"MoleDens CoO2 [kmol/m^3]" 	"qHeat_accum [J/m3]" 	"qHeat_step [W/m3]" 	"Joule_Lyte [W/m3]" 	"Joule_Solid [W/m3]" 	"electrodHeat [W/m3]" 	"OverpotHeat [W/m3]" 	"deltaSHeat [W/m3]" 	

ZONE T = "CATH, 0.0000E+00", I = 10, SOLUTIONTIME = 0.000000E+00
ZONETYPE = ORDERED
DATAPACKING = BLOCK
STRANDID = 3
 1.2700000000000E-03  1.3377333333333E-03  1.4054666666667E-03  1.4732000000000E-03  1.5409333333333E-03  1.6086666666667E-03  1.6764000000000E-03  1.7441333333333E-03  1.8118666666667E-03  1.8796000000000E-03 
 1.3694448462157E-10  1.2083255255886E-10  1.0472070236525E-10  8.8608995725602E-11  7.2497494325945E-11  5.6386259853968E-11  4.0275353999538E-11  2.4164838455195E-11  8.0547749166607E-12  0.0000000000000E+00 
 9.2000000685223E-01  9.2000001097352E-01  9.2000001460992E-01  9.2000001776145E-01  9.2000002042810E-01  9.2000002260988E-01  9.2000002430680E-01  9.2000002551887E-01  9.2000002624610E-01  9.2000002648851E-01 
 3.9999996573884E-02  3.9999994513240E-02  3.9999992695038E-02  3.9999991119275E-02  3.9999989785950E-02  3.9999988695059E-02  3.9999987846598E-02  3.9999987240563E-02  3.9999986876948E-02  3.9999986755745E-02 
 3.9999996573884E-02  3.9999994513240E-02  3.9999992695038E-02  3.9999991119275E-02  3.9999989785950E-02  3.9999988695059E-02  3.9999987846598E-02  3.9999987240563E-02  3.9999986876948E-02  3.9999986755745E-02 
 1.0249108254567E-02  1.0249106815892E-02  1.0249105546482E-02  1.0249104446335E-02  1.0249103515450E-02  1.0249102753825E-02  1.0249102161457E-02  1.0249101738343E-02  1.0249101484479E-02  1.0249101399859E-02 
 3.9000009791936E+00  3.9000009671045E+00  3.9000009308372E+00  3.9000008703919E+00  3.9000007857688E+00  3.9000006769682E+00  3.9000005439905E+00  3.9000003868361E+00  3.9000002055057E+00  3.9000000000000E+00 
 3.8897518709390E+00  3.8897518602886E+00  3.8897518252908E+00  3.8897517659456E+00  3.8897516822534E+00  3.8897515742144E+00  3.8897514418290E+00  3.8897512850978E+00  3.8897511040213E+00  3.8897508986001E+00 
 3.9027881867849E+00  3.9027881627299E+00  3.9027880720404E+00  3.9027879147158E+00  3.9027876907552E+00  3.9027874001572E+00  3.9027870429200E+00  3.9027866190412E+00  3.9027861285183E+00  3.9027855713482E+00 
-1.3036315845868E-02 -1.3036302441270E-02 -1.3036246749610E-02 -1.3036148770204E-02 -1.3036008501854E-02 -1.3035825942850E-02 -1.3035601090965E-02 -1.3035333943461E-02 -1.3035024497082E-02 -1.3034672748061E-02 
-1.1601247272902E-02 -2.3202465486304E-02 -2.3202347595669E-02 -2.3202140872942E-02 -2.3201845316441E-02 -2.3201460923766E-02 -2.3200987691781E-02 -2.3200425616634E-02 -2.3199774693747E-02 -1.1599517458910E-02 
 1.9621898046270E-09  1.7313322617773E-09  1.5004758943332E-09  1.2696215660171E-09  1.0387701885176E-09  8.0792262822629E-10  5.7707976208364E-10  3.4624250600702E-10  1.1541171734296E-10  1.1541171734296E-10 
 2.0881221254425E-01  1.8560973222768E-01  1.6240732598157E-01  1.3920508177187E-01  1.1600308882452E-01  9.2801435889915E-02  6.9600211005039E-02  4.6399504822627E-02  2.3199404785236E-02  0.0000000000000E+00 
 0.0000000000000E+00  1.8706437320548E-02  3.7412815543984E-02  5.6119062688652E-02  7.4825107803661E-02  9.3530878735559E-02  1.1223630333090E-01  1.3094131081058E-01  1.4964582988012E-01  1.7059747570913E-01 
 1.4407267233235E+04  2.8814543891428E+04  2.8814581009090E+04  2.8814645819682E+04  2.8814738323605E+04  2.8814858521431E+04  2.8815006413901E+04  2.8815182001933E+04  2.8815385286611E+04  1.4407808134596E+04 
 2.1651345927543E+04  4.3302701280044E+04  4.3302738397706E+04  4.3302803208298E+04  4.3302895712222E+04  4.3303015910047E+04  4.3303163802518E+04  4.3303339390549E+04  4.3303542675227E+04  2.1651886828904E+04 
 3.4852467890512E+04  6.9704926356066E+04  6.9704889238405E+04  6.9704824427812E+04  6.9704731923889E+04  6.9704611726064E+04  6.9704463833592E+04  6.9704288245562E+04  6.9704084960883E+04  3.4851926989151E+04 
 5.6503813818055E+04  1.1300762763611E+05  1.1300762763611E+05  1.1300762763611E+05  1.1300762763611E+05  1.1300762763611E+05  1.1300762763611E+05  1.1300762763611E+05  1.1300762763611E+05  5.6503813818055E+04 
 3.5000000000000E-01  3.5000000000000E-01  3.5000000000000E-01  3.5000000000000E-01  3.5000000000000E-01  3.5000000000000E-01  3.5000000000000E-01  3.5000000000000E-01  3.5000000000000E-01  3.5000000000000E-01 
 6.6040000000000E+00  1.3208000000000E+01  1.3208000000000E+01  1.3208000000000E+01  1.3208000000000E+01  1.3208000000000E+01  1.3208000000000E+01  1.3208000000000E+01  1.3208000000000E+01  6.6040000000000E+00 
-1.7567000716084E-03 -1.7566978714646E-03 -1.7566889457654E-03 -1.7566732944384E-03 -1.7566509173562E-03 -1.7566218143372E-03 -1.7565859851439E-03 -1.7565434294847E-03 -1.7564941470129E-03 -1.7564381373273E-03 
 3.3866666666667E-05  6.7733333333333E-05  6.7733333333334E-05  6.7733333333333E-05  6.7733333333334E-05  6.7733333333334E-05  6.7733333333333E-05  6.7733333333334E-05  6.7733333333333E-05  3.3866666666667E-05 
 3.1012079983381E+01  3.1012081425549E+01  3.1012087105137E+01  3.1012097022180E+01  3.1012111176741E+01  3.1012129568905E+01  3.1012152198788E+01  3.1012179066528E+01  3.1012210172293E+01  3.1012245516274E+01 
 1.3326255623713E+01  1.3326254181546E+01  1.3326248501957E+01  1.3326238584914E+01  1.3326224430353E+01  1.3326206038189E+01  1.3326183408306E+01  1.3326156540566E+01  1.3326125434801E+01  1.3326090090820E+01 
 0.0000000000000E+00  0.0000000000000E+00  0.0000000000000E+00  0.0000000000000E+00  0.0000000000000E+00  0.0000000000000E+00  0.0000000000000E+00  0.0000000000000E+00  0.0000000000000E+00  0.0000000000000E+00 
 0.0000000000000E+00  0.0000000000000E+00  0.0000000000000E+00  0.0000000000000E+00  0.0000000000000E+00  0.0000000000000E+00  0.0000000000000E+00  0.0000000000000E+00  0.0000000000000E+00  0.0000000000000E+00 
 0.0000000000000E+00  0.0000000000000E+00  0.0000000000000E+00  0.0000000000000E+00  0.0000000000000E+00  0.0000000000000E+00  0.0000000000000E+00  0.0000000000000E+00  0.0000000000000E+00  0.0000000000000E+00 
 0.0000000000000E+00  0.0000000000000E+00  0.0000000000000E+00  0.0000000000000E+00  0.0000000000000E+00  0.0000000000000E+00  0.0000000000000E+00  0.0000000000000E+00  0.0000000000000E+00  0.0000000000000E+00 
 0.0000000000000E+00  0.0000000000000E+00  0.0000000000000E+00  0.0000000000000E+00  0.0000000000000E+00  0.0000000000000E+00  0.0000000000000E+00  0.0000000000000E+00  0.0000000000000E+00  0.0000000000000E+00 
 0.0000000000000E+00  0.0000000000000E+00  0.0000000000000E+00  0.0000000000000E+00  0.0000000000000E+00  0.0000000000000E+00  0.0000000000000E+00  0.0000000000000E+00  0.0000000000000E+00  0.0000000000000E+00 
 0.0000000000000E+00  0.0000000000000E+00  0.0000000000000E+00  0.0000000000000E+00  0.0000000000000E+00  0.0000000000000E+00  0.0000000000000E+00  0.0000000000000E+00  0.0000000000000E+00  0.0000000000000E+00 
ZONE T = "CATH, 1.0000E-08", I = 10, SOLUTIONTIME = 1.000000E-08
ZONETYPE = ORDERED
DATAPACKING = BLOCK
STRANDID = 3
 1.2700000000000E-03  1.3377333333333E-03  1.4054666666667E-03  1.4732000000000E-03  1.5409333333333E-03  1.6086666666667E-03  1.6764000000000E-03  1.7441333333333E-03  1.8118666666667E-03  1.8796000000000E-03 
 1.9971211713217E-12  1.2696785767147E-12  9.0555459940790E-13 -1.8479246682507E-13 -1.8524250468692E-13 -1.8533721775849E-13  1.7821260341685E-13  5.4228071535010E-13  1.8053314929784E-13  1.8160386409453E-13 
 9.2000000685223E-01  9.2000001097351E-01  9.2000001460992E-01  9.2000001776144E-01  9.2000002042809E-01  9.2000002260988E-01  9.2000002430680E-01  9.2000002551887E-01  9.2000002624610E-01  9.2000002648850E-01 
 3.9999996573885E-02  3.9999994513243E-02  3.9999992695041E-02  3.9999991119278E-02  3.9999989785953E-02  3.9999988695062E-02  3.9999987846601E-02  3.9999987240566E-02  3.9999986876951E-02  3.9999986755748E-02 
 3.9999996573885E-02  3.9999994513243E-02  3.9999992695041E-02  3.9999991119278E-02  3.9999989785953E-02  3.9999988695062E-02  3.9999987846601E-02  3.9999987240566E-02  3.9999986876951E-02  3.9999986755748E-02 
 1.0307456423306E-02  1.0307456423312E-02  1.0307456423328E-02  1.0307456423354E-02  1.0307456423387E-02  1.0307456423426E-02  1.0307456423465E-02  1.0307456423500E-02  1.0307456423527E-02  1.0307456423538E-02 
 3.9130947791436E+00  3.9130947791426E+00  3.9130947791397E+00  3.9130947791351E+00  3.9130947791291E+00  3.9130947791223E+00  3.9130947791154E+00  3.9130947791091E+00  3.9130947791043E+00  3.9130947791023E+00 
 3.9027873227202E+00  3.9027873227193E+00  3.9027873227163E+00  3.9027873227117E+00  3.9027873227057E+00  3.9027873226989E+00  3.9027873226919E+00  3.9027873226856E+00  3.9027873226808E+00  3.9027873226788E+00 
 3.9027881867849E+00  3.9027881627299E+00  3.9027880720404E+00  3.9027879147158E+00  3.9027876907552E+00  3.9027874001572E+00  3.9027870429200E+00  3.9027866190412E+00  3.9027861285183E+00  3.9027855713482E+00 
-8.6406463983835E-07 -8.4001061217975E-07 -7.4932402105432E-07 -5.9200409818772E-07 -3.6804950553915E-07 -7.7458327307767E-08  2.7977192385009E-07  7.0364430726499E-07  1.1941624578071E-06  1.7513305845540E-06 
-7.6075929337359E-07 -1.4791619063218E-06 -1.3194723205391E-06 -1.0424489760966E-06 -6.4809037436802E-07 -1.3639437302587E-07  4.9264182156009E-07  1.2390216460214E-06  2.1027491868841E-06  1.5419145880360E-06 
 9.4021122394503E-10  8.2958524414274E-10  7.1895971577406E-10  6.0833661415756E-10  4.9771695329813E-10  3.8710178574802E-10  2.7649211306719E-10  1.6588900414471E-10  5.5293465825478E-11  5.5293465825478E-11 
 9.8096859302536E-09 -1.4903662109668E-06 -2.8896576789359E-06 -4.0706552956257E-06 -4.9158894899186E-06 -5.3081284882942E-06 -5.1300216186019E-06 -4.2642181993033E-06 -2.5932486360478E-06  0.0000000000000E+00 
 0.0000000000000E+00  1.5004481732827E-06  2.8995379286312E-06  4.0806211884569E-06  4.9260191115991E-06  5.3180528568969E-06  5.1399025528330E-06  4.2742329461040E-06  2.6033651955490E-06  1.0071763857189E-08 
 1.4407267233235E+04  2.8814543891428E+04  2.8814581009090E+04  2.8814645819682E+04  2.8814738323605E+04  2.8814858521431E+04  2.8815006413901E+04  2.8815182001933E+04  2.8815385286611E+04  1.4407808134596E+04 
 2.1651345927543E+04  4.3302701280044E+04  4.3302738397706E+04  4.3302803208298E+04  4.3302895712222E+04  4.3303015910047E+04  4.3303163802518E+04  4.3303339390549E+04  4.3303542675227E+04  2.1651886828904E+04 
 3.4852467890512E+04  6.9704926356066E+04  6.9704889238405E+04  6.9704824427812E+04  6.9704731923889E+04  6.9704611726064E+04  6.9704463833592E+04  6.9704288245562E+04  6.9704084960883E+04  3.4851926989151E+04 
 5.6503813818055E+04  1.1300762763611E+05  1.1300762763611E+05  1.1300762763611E+05  1.1300762763611E+05  1.1300762763611E+05  1.1300762763611E+05  1.1300762763611E+05  1.1300762763611E+05  5.6503813818055E+04 
 3.5000000000000E-01  3.5000000000000E-01  3.5000000000000E-01  3.5000000000000E-01  3.5000000000000E-01  3.5000000000000E-01  3.5000000000000E-01  3.5000000000000E-01  3.5000000000000E-01  3.5000000000000E-01 
 6.6040000000000E+00  1.3208000000000E+01  1.3208000000000E+01  1.3208000000000E+01  1.3208000000000E+01  1.3208000000000E+01  1.3208000000000E+01  1.3208000000000E+01  1.3208000000000E+01  6.6040000000000E+00 
-1.1519674339394E-07 -1.1198984754102E-07 -9.9899479144391E-08 -7.8925573599075E-08 -4.9068017441552E-08 -1.0326648472583E-08  3.7298744818299E-08  9.3808422624276E-08  1.5920269434314E-07  2.3348191823683E-07 
 3.3866666666667E-05  6.7733333333333E-05  6.7733333333334E-05  6.7733333333333E-05  6.7733333333334E-05  6.7733333333334E-05  6.7733333333333E-05  6.7733333333334E-05  6.7733333333333E-05  3.3866666666667E-05 
 3.1012079983381E+01  3.1012081425549E+01  3.1012087105137E+01  3.1012097022180E+01  3.1012111176741E+01  3.1012129568905E+01  3.1012152198788E+01  3.1012179066528E+01  3.1012210172293E+01  3.1012245516274E+01 
 1.3326255623713E+01  1.3326254181546E+01  1.3326248501957E+01  1.3326238584914E+01  1.3326224430353E+01  1.3326206038189E+01  1.3326183408306E+01  1.3326156540566E+01  1.3326125434801E+01  1.3326090090820E+01 
 1.1113046199247E-22  5.3691417191817E-22  1.6968135712529E-21  3.2474925719237E-21  4.6766117278473E-21  5.4280217244514E-21  5.0812419394281E-21  3.5793812562891E-21  1.5126710891546E-21  4.6218766819340E-22 
 1.1113046199247E-14  5.3691417191817E-14  1.6968135712529E-13  3.2474925719237E-13  4.6766117278473E-13  5.4280217244514E-13  5.0812419394281E-13  3.5793812562891E-13  1.5126710891546E-13  4.6218766819340E-14 
 6.0736635032851E-17  2.9811511885359E-16  9.4623376307705E-16  1.8139185504513E-15  2.6140698478613E-15  3.0351740417668E-15  2.8409724421505E-15  1.9997736824167E-15  8.4335837148551E-16  2.5604269720484E-16 
 1.1052309564214E-14  5.3393302072963E-14  1.6873512336221E-13  3.2293533864192E-13  4.6504710293687E-13  5.3976699840338E-13  5.0528322150066E-13  3.5593835194649E-13  1.5042375054397E-13  4.5962724122135E-14 
 0.0000000000000E+00  0.0000000000000E+00  0.0000000000000E+00  0.0000000000000E+00  0.0000000000000E+00  0.0000000000000E+00  0.0000000000000E+00  0.0000000000000E+00  0.0000000000000E+00  0.0000000000000E+00 
 0.0000000000000E+00  0.0000000000000E+00  0.0000000000000E+00  0.0000000000000E+00  0.0000000000000E+00  0.0000000000000E+00  0.0000000000000E+00  0.0000000000000E+00  0.0000000000000E+00  0.0000000000000E+00 
 0.0000000000000E+00  0.0000000000000E+00  0.0000000000000E+00  0.0000000000000E+00  0.0000000000000E+00  0.0000000000000E+00  0.0000000000000E+00  0.0000000000000E+00  0.0000000000000E+00  0.0000000000000E+00 
ZONE T = "CATH, 2.0000E-08", I = 10, SOLUTIONTIME = 2.000000E-08
ZONETYPE = ORDERED
DATAPACKING = BLOCK
STRANDID = 3
 1.2700000000000E-03  1.3377333333333E-03  1.4054666666667E-03  1.4732000000000E-03  1.5409333333333E-03  1.6086666666667E-03  1.6764000000000E-03  1.7441333333333E-03  1.8118666666667E-03  1.8796000000000E-03 
-2.3613650034282E-12 -2.3623929139467E-12 -2.0001022072179E-12 -1.2744114060191E-12 -2.0012776711306E-12 -2.0013731557672E-12 -2.0010318337996E-12 -2.0001722211791E-12 -1.6355051032688E-12 -1.8160386381242E-12 
 9.2000000685223E-01  9.2000001097351E-01  9.2000001460991E-01  9.2000001776144E-01  9.2000002042809E-01  9.2000002260987E-01  9.2000002430679E-01  9.2000002551886E-01  9.2000002624609E-01  9.2000002648850E-01 
 3.9999996573886E-02  3.9999994513246E-02  3.9999992695044E-02  3.9999991119281E-02  3.9999989785956E-02  3.9999988695065E-02  3.9999987846604E-02  3.9999987240569E-02  3.9999986876954E-02  3.9999986755752E-02 
 3.9999996573886E-02  3.9999994513246E-02  3.9999992695044E-02  3.9999991119281E-02  3.9999989785956E-02  3.9999988695065E-02  3.9999987846604E-02  3.9999987240569E-02  3.9999986876954E-02  3.9999986755752E-02 
 1.0307456420514E-02  1.0307456420519E-02  1.0307456420536E-02  1.0307456420561E-02  1.0307456420595E-02  1.0307456420633E-02  1.0307456420672E-02  1.0307456420708E-02  1.0307456420734E-02  1.0307456420746E-02 
 3.9130947785098E+00  3.9130947785088E+00  3.9130947785059E+00  3.9130947785013E+00  3.9130947784953E+00  3.9130947784886E+00  3.9130947784816E+00  3.9130947784752E+00  3.9130947784705E+00  3.9130947784685E+00 
 3.9027873220893E+00  3.9027873220883E+00  3.9027873220854E+00  3.9027873220807E+00  3.9027873220748E+00  3.9027873220679E+00  3.9027873220609E+00  3.9027873220545E+00  3.9027873220498E+00  3.9027873220478E+00 
 3.9027881867849E+00  3.9027881627299E+00  3.9027880720404E+00  3.9027879147158E+00  3.9027876907552E+00  3.9027874001572E+00  3.9027870429200E+00  3.9027866190413E+00  3.9027861285183E+00  3.9027855713482E+00 
-8.6469561910718E-07 -8.4064159366903E-07 -7.4995500431996E-07 -5.9263508545015E-07 -3.6868049679839E-07 -7.8089324784258E-08  2.7914091749182E-07  7.0301329113676E-07  1.1935314314648E-06  1.7506995457772E-06 
-7.6131483498856E-07 -1.4802729927389E-06 -1.3205834082492E-06 -1.0435600678914E-06 -6.4920147401950E-07 -1.3750548101989E-07  4.9153070138580E-07  1.2379105132880E-06  2.1016380398046E-06  1.5413590060137E-06 
 9.4021035391332E-10  8.2958528312731E-10  7.1895975397456E-10  6.0833664496441E-10  4.9771698332090E-10  3.8710180546441E-10  2.7649212582822E-10  1.6588900985788E-10  5.5293471202774E-11  5.5293471202774E-11 
 2.0114731592813E-08 -1.4814489818000E-06 -2.8819294140085E-06 -4.0639970984350E-06 -4.9103013603199E-06 -5.3036104261877E-06 -5.1266925202784E-06 -4.2619591683336E-06 -2.5921785687567E-06  0.0000000000000E+00 
 0.0000000000000E+00  1.5014789368549E-06  2.9017712497043E-06  4.0838852731023E-06  4.9303139598167E-06  5.3237220565441E-06  5.1467743099811E-06  4.2819636728956E-06  2.6121266859128E-06  1.9904218029430E-08 
 1.4407267233235E+04  2.8814543891428E+04  2.8814581009090E+04  2.8814645819682E+04  2.8814738323605E+04  2.8814858521431E+04  2.8815006413901E+04  2.8815182001933E+04  2.8815385286611E+04  1.4407808134596E+04 
 2.1651345927543E+04  4.3302701280044E+04  4.3302738397706E+04  4.3302803208298E+04  4.3302895712222E+04  4.3303015910047E+04  4.3303163802518E+04  4.3303339390549E+04  4.3303542675227E+04  2.1651886828904E+04 
 3.4852467890512E+04  6.9704926356066E+04  6.9704889238405E+04  6.9704824427812E+04  6.9704731923889E+04  6.9704611726064E+04  6.9704463833592E+04  6.9704288245562E+04  6.9704084960883E+04  3.4851926989151E+04 
 5.6503813818055E+04  1.1300762763611E+05  1.1300762763611E+05  1.1300762763611E+05  1.1300762763611E+05  1.1300762763611E+05  1.1300762763611E+05  1.1300762763611E+05  1.1300762763611E+05  5.6503813818055E+04 
 3.5000000000000E-01  3.5000000000000E-01  3.5000000000000E-01  3.5000000000000E-01  3.5000000000000E-01  3.5000000000000E-01  3.5000000000000E-01  3.5000000000000E-01  3.5000000000000E-01  3.5000000000000E-01 
 6.6040000000000E+00  1.3208000000000E+01  1.3208000000000E+01  1.3208000000000E+01  1.3208000000000E+01  1.3208000000000E+01  1.3208000000000E+01  1.3208000000000E+01  1.3208000000000E+01  6.6040000000000E+00 
-1.1528086538288E-07 -1.1207396977127E-07 -9.9983601472528E-08 -7.9009696236479E-08 -4.9152140673796E-08 -1.0410772336454E-08  3.7214620032238E-08  9.3724296887344E-08  1.5911856752003E-07  2.3339779012927E-07 
 3.3866666666667E-05  6.7733333333333E-05  6.7733333333334E-05  6.7733333333333E-05  6.7733333333334E-05  6.7733333333334E-05  6.7733333333333E-05  6.7733333333334E-05  6.7733333333333E-05  3.3866666666667E-05 
 3.1012079983381E+01  3.1012081425549E+01  3.1012087105137E+01  3.1012097022180E+01  3.1012111176741E+01  3.1012129568905E+01  3.1012152198788E+01  3.1012179066528E+01  3.1012210172293E+01  3.1012245516274E+01 
 1.3326255623713E+01  1.3326254181546E+01  1.3326248501957E+01  1.3326238584914E+01  1.3326224430353E+01  1.3326206038189E+01  1.3326183408306E+01  1.3326156540566E+01  1.3326125434801E+01  1.3326090090820E+01 
 2.2234507325350E-22  1.0745855901537E-21  3.3961817501317E-21  6.5001155716064E-21  9.3613061459317E-21  1.0867526756684E-20  1.0175903378075E-20  7.1712412598798E-21  3.0338478416789E-21  9.2988494824081E-22 
 1.1121461126103E-14  5.3767141823551E-14  1.6993681788788E-13  3.2526229996827E-13  4.6846944180844E-13  5.4395050322323E-13  5.0946614386469E-13  3.5918600035907E-13  1.5211767525244E-13  4.6769728004740E-14 
 5.9169797155256E-17  2.9539357741885E-16  9.4148043922878E-16  1.8081652429707E-15  2.6081807703020E-15  3.0300207827294E-15  2.8372696445563E-15  1.9976199179503E-15  8.4262615241440E-16  2.5588476801984E-16 
 1.1062291328947E-14  5.3471748246132E-14  1.6899533744865E-13  3.2345413472530E-13  4.6586126103813E-13  5.4092048244050E-13  5.0662887422013E-13  3.5718838044112E-13  1.5127504910002E-13  4.6513843236721E-14 
 0.0000000000000E+00  0.0000000000000E+00  0.0000000000000E+00  0.0000000000000E+00  0.0000000000000E+00  0.0000000000000E+00  0.0000000000000E+00  0.0000000000000E+00  0.0000000000000E+00  0.0000000000000E+00 
 0.0000000000000E+00  0.0000000000000E+00  0.0000000000000E+00  0.0000000000000E+00  0.0000000000000E+00  0.0000000000000E+00  0.0000000000000E+00  0.0000000000000E+00  0.0000000000000E+00  0.0000000000000E+00 
 0.0000000000000E+00  0.0000000000000E+00  0.0000000000000E+00  0.0000000000000E+00  0.0000000000000E+00  0.0000000000000E+00  0.0000000000000E+00  0.0000000000000E+00  0.0000000000000E+00  0.0000000000000E+00 
ZONE T = "CATH, 3.0000E-08", I = 10, SOLUTIONTIME = 3.000000E-08
ZONETYPE = ORDERED
DATAPACKING = BLOCK
STRANDID = 3
 1.2700000000000E-03  1.3377333333333E-03  1.4054666666667E-03  1.4732000000000E-03  1.5409333333333E-03  1.6086666666667E-03  1.6764000000000E-03  1.7441333333333E-03  1.8118666666667E-03  1.8796000000000E-03 
-1.0901313987517E-12 -3.6474462515025E-13 -2.4546899873116E-15 -3.1801159657869E-15  7.2278375852858E-13  1.0858952301137E-12  7.2302805261687E-13  3.6067916580281E-13  3.6213778435517E-13  5.4481159144542E-13 
 9.2000000685223E-01  9.2000001097350E-01  9.2000001460991E-01  9.2000001776143E-01  9.2000002042808E-01  9.2000002260986E-01  9.2000002430678E-01  9.2000002551885E-01  9.2000002624609E-01  9.2000002648849E-01 
 3.9999996573887E-02  3.9999994513250E-02  3.9999992695047E-02  3.9999991119284E-02  3.9999989785959E-02  3.9999988695068E-02  3.9999987846608E-02  3.9999987240573E-02  3.9999986876957E-02  3.9999986755755E-02 
 3.9999996573887E-02  3.9999994513250E-02  3.9999992695047E-02  3.9999991119284E-02  3.9999989785959E-02  3.9999988695068E-02  3.9999987846608E-02  3.9999987240573E-02  3.9999986876957E-02  3.9999986755755E-02 
 1.0307456417721E-02  1.0307456417727E-02  1.0307456417743E-02  1.0307456417769E-02  1.0307456417802E-02  1.0307456417840E-02  1.0307456417879E-02  1.0307456417915E-02  1.0307456417941E-02  1.0307456417953E-02 
 3.9130947778760E+00  3.9130947778750E+00  3.9130947778721E+00  3.9130947778675E+00  3.9130947778616E+00  3.9130947778548E+00  3.9130947778478E+00  3.9130947778414E+00  3.9130947778367E+00  3.9130947778347E+00 
 3.9027873214583E+00  3.9027873214573E+00  3.9027873214544E+00  3.9027873214498E+00  3.9027873214438E+00  3.9027873214369E+00  3.9027873214299E+00  3.9027873214235E+00  3.9027873214188E+00  3.9027873214167E+00 
 3.9027881867849E+00  3.9027881627299E+00  3.9027880720404E+00  3.9027879147158E+00  3.9027876907553E+00  3.9027874001572E+00  3.9027870429200E+00  3.9027866190413E+00  3.9027861285184E+00  3.9027855713482E+00 
-8.6532659926419E-07 -8.4127257560240E-07 -7.5058598758559E-07 -5.9326607315668E-07 -3.6931148938990E-07 -7.8720324037107E-08  2.7850991157763E-07  7.0238227589670E-07  1.1929004055666E-06  1.7500685070004E-06 
-7.6187037656235E-07 -1.4813840780030E-06 -1.3216944960416E-06 -1.0446711618522E-06 -6.5031257480747E-07 -1.3861659117984E-07  4.9041958234801E-07  1.2367993804641E-06  2.1005268927167E-06  1.5408034239955E-06 
 9.4020947647804E-10  8.2958533242818E-10  7.1895978600377E-10  6.0833667991629E-10  4.9771700796638E-10  3.8710182843933E-10  2.7649213770276E-10  1.6588901725152E-10  5.5293477812343E-11  5.5293477812343E-11 
 2.9944191682043E-08 -1.4725317526781E-06 -2.8740822527231E-06 -4.0573389012343E-06 -4.9048321270842E-06 -5.2992112604418E-06 -5.1232445255743E-06 -4.2598190337208E-06 -2.5911085014605E-06  0.0000000000000E+00 
 0.0000000000000E+00  1.5025097004271E-06  2.9041763647061E-06  4.0873211516763E-06  4.9347806019629E-06  5.3292194622626E-06  5.1533024792718E-06  4.2896943996872E-06  2.6210599702053E-06  3.0080260054957E-08 
 1.4407267233235E+04  2.8814543891428E+04  2.8814581009090E+04  2.8814645819682E+04  2.8814738323605E+04  2.8814858521431E+04  2.8815006413901E+04  2.8815182001933E+04  2.8815385286611E+04  1.4407808134596E+04 
 2.1651345927543E+04  4.3302701280044E+04  4.3302738397706E+04  4.3302803208298E+04  4.3302895712222E+04  4.3303015910047E+04  4.3303163802518E+04  4.3303339390549E+04  4.3303542675227E+04  2.1651886828904E+04 
 3.4852467890512E+04  6.9704926356066E+04  6.9704889238405E+04  6.9704824427812E+04  6.9704731923889E+04  6.9704611726064E+04  6.9704463833592E+04  6.9704288245562E+04  6.9704084960883E+04  3.4851926989151E+04 
 5.6503813818055E+04  1.1300762763611E+05  1.1300762763611E+05  1.1300762763611E+05  1.1300762763611E+05  1.1300762763611E+05  1.1300762763611E+05  1.1300762763611E+05  1.1300762763611E+05  5.6503813818055E+04 
 3.5000000000000E-01  3.5000000000000E-01  3.5000000000000E-01  3.5000000000000E-01  3.5000000000000E-01  3.5000000000000E-01  3.5000000000000E-01  3.5000000000000E-01  3.5000000000000E-01  3.5000000000000E-01 
 6.6040000000000E+00  1.3208000000000E+01  1.3208000000000E+01  1.3208000000000E+01  1.3208000000000E+01  1.3208000000000E+01  1.3208000000000E+01  1.3208000000000E+01  1.3208000000000E+01  6.6040000000000E+00 
-1.1536498736559E-07 -1.1215809191422E-07 -1.0006772380690E-07 -7.9093819037870E-08 -4.9236263992086E-08 -1.0494896364312E-08  3.7130495332224E-08  9.3640171143554E-08  1.5903444069630E-07  2.3331366202233E-07 
 3.3866666666667E-05  6.7733333333333E-05  6.7733333333334E-05  6.7733333333333E-05  6.7733333333334E-05  6.7733333333334E-05  6.7733333333333E-05  6.7733333333334E-05  6.7733333333333E-05  3.3866666666667E-05 
 3.1012079983381E+01  3.1012081425549E+01  3.1012087105137E+01  3.1012097022180E+01  3.1012111176741E+01  3.1012129568905E+01  3.1012152198788E+01  3.1012179066528E+01  3.1012210172293E+01  3.1012245516274E+01 
 1.3326255623713E+01  1.3326254181546E+01  1.3326248501957E+01  1.3326238584914E+01  1.3326224430353E+01  1.3326206038189E+01  1.3326183408306E+01  1.3326156540566E+01  1.3326125434801E+01  1.3326090090820E+01 
 3.3364483316046E-22  1.6130142542368E-21  5.0983401721509E-21  9.7581067256371E-21  1.4054436825106E-20  1.6318165912454E-20  1.5283293094988E-20  1.0775603865214E-20  4.5636631793950E-21  1.4033298613578E-21 
 1.1129975990697E-14  5.3842866408310E-14  1.7021584220192E-13  3.2579911540307E-13  4.6931306791745E-13  5.4506391557703E-13  5.1073897169133E-13  3.6043626053339E-13  1.5298153377161E-13  4.7344491311695E-14 
 5.7698391592889E-17  2.9261341851041E-16  9.3671716715686E-16  1.8023948344090E-15  2.6024490342329E-15  3.0250024169728E-15  2.8334317892399E-15  1.9955605900416E-15  8.4194805630458E-16  2.5564796559379E-16 
 1.1072277599104E-14  5.3550252989800E-14  1.6927912503476E-13  3.2399672056866E-13  4.6671061888321E-13  5.4203891316006E-13  5.0790553990209E-13  3.5844069994335E-13  1.5213958571530E-13  4.7088843346101E-14 
 0.0000000000000E+00  0.0000000000000E+00  0.0000000000000E+00  0.0000000000000E+00  0.0000000000000E+00  0.0000000000000E+00  0.0000000000000E+00  0.0000000000000E+00  0.0000000000000E+00  0.0000000000000E+00 
 0.0000000000000E+00  0.0000000000000E+00  0.0000000000000E+00  0.0000000000000E+00  0.0000000000000E+00  0.0000000000000E+00  0.0000000000000E+00  0.0000000000000E+00  0.0000000000000E+00  0.0000000000000E+00 
 0.0000000000000E+00  0.0000000000000E+00  0.0000000000000E+00  0.0000000000000E+00  0.0000000000000E+00  0.0000000000000E+00  0.0000000000000E+00  0.0000000000000E+00  0.0000000000000E+00  0.0000000000000E+00 
ZONE T = "CATH, 4.0000E-08", I = 10, SOLUTIONTIME = 4.000000E-08
ZONETYPE = ORDERED
DATAPACKING = BLOCK
STRANDID = 3
 1.2700000000000E-03  1.3377333333333E-03  1.4054666666667E-03  1.4732000000000E-03  1.5409333333333E-03  1.6086666666667E-03  1.6764000000000E-03  1.7441333333333E-03  1.8118666666667E-03  1.8796000000000E-03 
 7.2591379875352E-13 -1.5311104051477E-15 -7.2886513017192E-13 -1.0927990553616E-12 -1.0932514078898E-12 -1.0933484356539E-12 -7.2980092913560E-13 -3.6573513212848E-13 -1.0695573334962E-15  1.1533737133377E-22 
 9.2000000685222E-01  9.2000001097349E-01  9.2000001460990E-01  9.2000001776143E-01  9.2000002042808E-01  9.2000002260986E-01  9.2000002430678E-01  9.2000002551885E-01  9.2000002624608E-01  9.2000002648848E-01 
 3.9999996573888E-02  3.9999994513253E-02  3.9999992695050E-02  3.9999991119287E-02  3.9999989785962E-02  3.9999988695071E-02  3.9999987846611E-02  3.9999987240576E-02  3.9999986876960E-02  3.9999986755758E-02 
 3.9999996573888E-02  3.9999994513253E-02  3.9999992695050E-02  3.9999991119287E-02  3.9999989785962E-02  3.9999988695071E-02  3.9999987846611E-02  3.9999987240576E-02  3.9999986876960E-02  3.9999986755758E-02 
 1.0307456414928E-02  1.0307456414933E-02  1.0307456414949E-02  1.0307456414975E-02  1.0307456415008E-02  1.0307456415047E-02  1.0307456415086E-02  1.0307456415121E-02  1.0307456415148E-02  1.0307456415159E-02 
 3.9130947772422E+00  3.9130947772413E+00  3.9130947772384E+00  3.9130947772337E+00  3.9130947772278E+00  3.9130947772210E+00  3.9130947772140E+00  3.9130947772076E+00  3.9130947772029E+00  3.9130947772008E+00 
 3.9027873208273E+00  3.9027873208263E+00  3.9027873208234E+00  3.9027873208188E+00  3.9027873208128E+00  3.9027873208059E+00  3.9027873207989E+00  3.9027873207925E+00  3.9027873207877E+00  3.9027873207857E+00 
 3.9027881867849E+00  3.9027881627299E+00  3.9027880720404E+00  3.9027879147158E+00  3.9027876907553E+00  3.9027874001573E+00  3.9027870429200E+00  3.9027866190413E+00  3.9027861285184E+00  3.9027855713482E+00 
-8.6595757853303E-07 -8.4190355709168E-07 -7.5121697129532E-07 -5.9389705997503E-07 -3.6994248153732E-07 -7.9351322401777E-08  2.7787890521935E-07  7.0175125976846E-07  1.1922693778921E-06  1.7494374682236E-06 
-7.6242591765025E-07 -1.4824951643377E-06 -1.3228055858928E-06 -1.0457822547917E-06 -6.5142367447542E-07 -1.3972770028564E-07  4.8930846218196E-07  1.2356882476319E-06  2.0994157445171E-06  1.5402478420143E-06 