TITLE = "Solution on Domain BulkDomain1D_0"
VARIABLES = "x [m]"  
"Vel_axial(0)" 	"MF_sp(ECDMC)" 	"MF_sp(Li+)" 	"MF_sp(PF6-)" 	"Volt(Electroly)" 	"Volt(AnodeVolt)" 	
"Potential Drop Electrode-Electrolyte [V]" 	"Surf_0 Equilibrium Potential Drop Electrode-Electrolyte [V]" 	"Overpotential_0 [V]" 	"Current Source [A/m^2]" 	"Li+ flux [kmol/m^2/s]" 	"Electrolyte Current [A/m^2]" 	"Electrode Current [A/m^2]" 	
"Capacity discharged [A-s]" 	"Depth of discharge [-]" 	"Capacity remaining [A-s]" 	"Initial capacity [A-s]" 	"Porosity []" 	"Surface Area [m2/m2] (area per area)" 	"Specific current (per particle area) [A/m^2]" 	"Control volume thickness [m]" 	
"Moles Li_C6-bulk [mol/m^2] (per electrode area)" 	"Moles V_C6-bulk [mol/m^2] (per electrode area)" 	"qHeat_accum [J/m3]" 	"qHeat_step [W/m3]" 	"Joule_Lyte [W/m3]" 	"Joule_Solid [W/m3]" 	"electrodHeat [W/m3]" 	"OverpotHeat [W/m3]" 	"deltaSHeat [W/m3]" 	

ZONE T = "t = 0 [s]" I = 10 SOLUTIONTIME = 0.0000000000000E+00
0 	8.0556e-12 	0.92 	0.04 	0.04 	0.0102491 	0 	
0 	0 	0 	0 	0 	0.00580036 	0.203012 	
0 	0 	0 	0 	0.35 	8.53017 	0.00135996 	4.37444e-05 	
0.00364186 	0.00109712 	0 	0.0 	 0.0 	 0.0 	 0.0 	 0.0 	 0.0 	 
8.74889e-05 	2.41668e-11 	0.92 	0.04 	0.04 	0.0102491 	-2.65443e-11 	
0 	0 	0 	0 	0 	0.0232014 	0.185611 	
0 	0 	0 	0 	0.35 	17.0603 	0.00135996 	8.74889e-05 	
0.00728373 	0.00219424 	0 	0.0 	 0.0 	 0.0 	 0.0 	 0.0 	 0.0 	 
0.000174978 	4.0278e-11 	0.92 	0.04 	0.04 	0.0102491 	-4.99658e-11 	
0 	0 	0 	0 	0 	0.0464028 	0.162409 	
0 	0 	0 	0 	0.35 	17.0603 	0.00135996 	8.74889e-05 	
0.00728373 	0.00219424 	0 	0.0 	 0.0 	 0.0 	 0.0 	 0.0 	 0.0 	 
0.000262467 	5.63892e-11 	0.92 	0.04 	0.04 	0.0102491 	-7.02644e-11 	
0 	0 	0 	0 	0 	0.0696042 	0.139208 	
0 	0 	0 	0 	0.35 	17.0603 	0.00135996 	8.74889e-05 	
0.00728373 	0.00219424 	0 	0.0 	 0.0 	 0.0 	 0.0 	 0.0 	 0.0 	 
0.000349956 	7.25004e-11 	0.92 	0.04 	0.04 	0.0102491 	-8.74401e-11 	
0 	0 	0 	0 	0 	0.0928056 	0.116007 	
0 	0 	0 	0 	0.35 	17.0603 	0.00135996 	8.74889e-05 	
0.00728373 	0.00219424 	0 	0.0 	 0.0 	 0.0 	 0.0 	 0.0 	 0.0 	 
0.000437444 	8.86116e-11 	0.92 	0.04 	0.04 	0.0102491 	-1.01493e-10 	
0 	0 	0 	0 	0 	0.116007 	0.0928052 	
0 	0 	0 	0 	0.35 	17.0603 	0.00135996 	8.74889e-05 	
0.00728373 	0.00219424 	0 	0.0 	 0.0 	 0.0 	 0.0 	 0.0 	 0.0 	 
0.000524933 	1.04723e-10 	0.92 	0.04 	0.04 	0.0102491 	-1.12423e-10 	
0 	0 	0 	0 	0 	0.139208 	0.0696039 	
0 	0 	0 	0 	0.35 	17.0603 	0.00135996 	8.74889e-05 	
0.00728373 	0.00219424 	0 	0.0 	 0.0 	 0.0 	 0.0 	 0.0 	 0.0 	 
0.000612422 	1.20834e-10 	0.92 	0.04 	0.04 	0.0102491 	-1.2023e-10 	
0 	0 	0 	0 	0 	0.16241 	0.0464025 	
0 	0 	0 	0 	0.35 	17.0603 	0.00135996 	8.74889e-05 	
0.00728372 	0.00219424 	0 	0.0 	 0.0 	 0.0 	 0.0 	 0.0 	 0.0 	 
0.000699911 	1.36945e-10 	0.92 	0.04 	0.04 	0.0102491 	-1.24914e-10 	
0 	0 	0 	0 	0 	0.185611 	0.0232012 	
0 	0 	0 	0 	0.35 	17.0603 	0.00135995 	8.74889e-05 	
0.00728372 	0.00219424 	0 	0.0 	 0.0 	 0.0 	 0.0 	 0.0 	 0.0 	 
0.0007874 	1.45e-10 	0.92 	0.04 	0.04 	0.0102491 	-1.26476e-10 	
0 	0 	0 	0 	0 	0.203012 	0.00580031 	
0 	0 	0 	0 	0.35 	8.53017 	0.00135995 	4.37444e-05 	
0.00364186 	0.00109712 	0 	0.0 	 0.0 	 0.0 	 0.0 	 0.0 	 0.0 	 
ZONE T = "t = 1e-08 [s]" I = 10 SOLUTIONTIME = 1.0000000000000E-08
0 	4.22388e-16 	0.92 	0.04 	0.04 	0.0103075 	0 	
-0.0102491 	-0.0103075 	5.83393e-05 	0.0116007 	1.15424e-10 	3.04221e-07 	-2.94137e-07 	
36.1094 	105856 	880.68 	1145.99 	0.35 	8.53017 	7.13085e-08 	4.37444e-05 	
0.00364186 	0.00109712 	4.04227e-25 	4.04227e-17 	3.98721e-17 	5.50663e-19 	0 	0 	0 	
8.74889e-05 	1.24276e-15 	0.92 	0.04 	0.04 	0.0103075 	8.05266e-17 	
-0.0102491 	-0.0103075 	5.83393e-05 	0.0232014 	3.46271e-10 	1.19903e-06 	-1.18897e-06 	
72.2187 	211712 	1761.36 	2291.97 	0.35 	17.0603 	6.92483e-08 	8.74889e-05 	
0.00728373 	0.00219424 	1.95119e-24 	1.95119e-16 	1.92408e-16 	2.71167e-18 	0 	0 	0 	
0.000174978 	-3.61234e-13 	0.92 	0.04 	0.04 	0.0103075 	3.20068e-16 	
-0.0102491 	-0.0103075 	5.83393e-05 	0.0232014 	5.77118e-10 	2.31613e-06 	-2.30615e-06 	
72.2187 	211712 	1761.36 	2291.97 	0.35 	17.0603 	6.17199e-08 	8.74889e-05 	
0.00728373 	0.00219424 	6.16238e-24 	6.16238e-16 	6.07629e-16 	8.60851e-18 	0 	0 	0 	
0.000262467 	2.55116e-15 	0.92 	0.04 	0.04 	0.0103075 	7.01335e-16 	
-0.0102491 	-0.0103075 	5.83392e-05 	0.0232014 	8.07965e-10 	3.25825e-06 	-3.24826e-06 	
72.2187 	211712 	1761.36 	2291.97 	0.35 	17.0603 	4.87236e-08 	8.74889e-05 	
0.00728373 	0.00219424 	1.1785e-23 	1.1785e-15 	1.162e-15 	1.64983e-17 	0 	0 	0 	
0.000349956 	-3.60298e-13 	0.92 	0.04 	0.04 	0.0103075 	1.19449e-15 	
-0.0102491 	-0.0103075 	5.83392e-05 	0.0232014 	1.03881e-09 	3.93196e-06 	-3.92199e-06 	
72.2187 	211712 	1761.36 	2291.97 	0.35 	17.0603 	3.0259e-08 	8.74889e-05 	
0.00728373 	0.00219424 	1.69607e-23 	1.69607e-15 	1.6723e-15 	2.37671e-17 	0 	0 	0 	
0.000437444 	-3.60223e-13 	0.92 	0.04 	0.04 	0.0103075 	1.75712e-15 	
-0.0102491 	-0.0103075 	5.83391e-05 	0.0232014 	1.26966e-09 	4.2441e-06 	-4.23407e-06 	
72.2188 	211712 	1761.36 	2291.97 	0.35 	17.0603 	6.3263e-09 	8.74889e-05 	
0.00728373 	0.00219424 	1.96789e-23 	1.96789e-15 	1.9403e-15 	2.7585e-17 	0 	0 	0 	
0.000524933 	-3.60497e-13 	0.92 	0.04 	0.04 	0.0103075 	2.33428e-15 	
-0.0102491 	-0.0103075 	5.83391e-05 	0.0232013 	1.5005e-09 	4.10124e-06 	-4.0912e-06 	
72.2188 	211712 	1761.36 	2291.97 	0.35 	17.0603 	-2.30746e-08 	8.74889e-05 	
0.00728373 	0.00219424 	1.84157e-23 	1.84157e-15 	1.81576e-15 	2.58103e-17 	0 	0 	0 	
0.000612422 	-3.61183e-13 	0.92 	0.04 	0.04 	0.0103075 	2.85846e-15 	
-0.0102491 	-0.0103075 	5.8339e-05 	0.0232013 	1.73135e-09 	3.41004e-06 	-3.4001e-06 	
72.2188 	211712 	1761.36 	2291.97 	0.35 	17.0603 	-5.79442e-08 	8.74889e-05 	
0.00728372 	0.00219424 	1.29689e-23 	1.29689e-15 	1.27873e-15 	1.81615e-17 	0 	0 	0 	
0.000699911 	-7.25555e-13 	0.92 	0.04 	0.04 	0.0103075 	3.24958e-15 	
-0.0102491 	-0.0103075 	5.83389e-05 	0.0232013 	1.9622e-09 	2.07745e-06 	-2.06746e-06 	
72.2188 	211712 	1761.36 	2291.97 	0.35 	17.0603 	-9.82821e-08 	8.74889e-05 	
0.00728372 	0.00219424 	5.48169e-24 	5.48169e-16 	5.40512e-16 	7.65732e-18 	0 	0 	0 	
0.0007874 	-7.26409e-13 	0.92 	0.04 	0.04 	0.0103075 	3.41501e-15 	
-0.0102491 	-0.0103075 	5.83388e-05 	0.0116006 	1.9622e-09 	6.24611e-07 	-6.1455e-07 	
36.1094 	105856 	880.68 	1145.99 	0.35 	8.53017 	-1.44089e-07 	4.37444e-05 	
0.00364186 	0.00109712 	1.67705e-24 	1.67705e-16 	1.65381e-16 	2.32414e-18 	0 	0 	0 	
ZONE T = "t = 2e-08 [s]" I = 10 SOLUTIONTIME = 2.0000000000000E-08
0 	-1.81181e-13 	0.92 	0.04 	0.04 	0.0103075 	0 	
-0.0103075 	-0.0103075 	3.05897e-09 	6.08273e-07 	5.53103e-11 	3.04406e-07 	-2.84415e-07 	
36.1094 	105856 	880.68 	1145.99 	0.35 	8.53017 	7.13738e-08 	4.37444e-05 	
0.00364186 	0.00109712 	8.08765e-25 	4.04537e-17 	7.97924e-17 	1.08408e-18 	0 	0 	0 	
8.74889e-05 	9.09263e-13 	0.92 	0.04 	0.04 	0.0103075 	7.92555e-17 	
-0.0103075 	-0.0103075 	2.9706e-09 	1.1814e-06 	1.65931e-10 	1.20004e-06 	-1.18009e-06 	
72.2187 	211712 	1761.36 	2291.97 	0.35 	17.0603 	6.93134e-08 	8.74889e-05 	
0.00728373 	0.00219424 	3.90551e-24 	1.95432e-16 	3.85159e-16 	5.39195e-18 	0 	0 	0 	
0.000174978 	1.2732e-12 	0.92 	0.04 	0.04 	0.0103075 	3.17675e-16 	
-0.0103075 	-0.0103075 	2.64764e-09 	1.05296e-06 	2.7655e-10 	2.31834e-06 	-2.29838e-06 	
72.2187 	211712 	1761.36 	2291.97 	0.35 	17.0603 	6.17851e-08 	8.74889e-05 	
0.00728373 	0.00219424 	1.23359e-23 	6.17349e-16 	1.21642e-15 	1.71628e-17 	0 	0 	0 	
0.000262467 	1.27378e-12 	0.92 	0.04 	0.04 	0.0103075 	6.97971e-16 	
-0.0103075 	-0.0103075 	2.09013e-09 	8.31241e-07 	3.87169e-10 	3.26157e-06 	-3.24159e-06 	
72.2187 	211712 	1761.36 	2291.97 	0.35 	17.0603 	4.87887e-08 	8.74889e-05 	
0.00728373 	0.00219424 	2.35932e-23 	1.18081e-15 	2.32638e-15 	3.29308e-17 	0 	0 	0 	
0.000349956 	1.27414e-12 	0.92 	0.04 	0.04 	0.0103075 	1.1903e-15 	
-0.0103075 	-0.0103075 	1.29804e-09 	5.16229e-07 	4.97786e-10 	3.93647e-06 	-3.91644e-06 	
72.2187 	211712 	1761.36 	2291.97 	0.35 	17.0603 	3.03242e-08 	8.74889e-05 	
0.00728373 	0.00219424 	3.39593e-23 	1.69986e-15 	3.34846e-15 	4.74677e-17 	0 	0 	0 	
0.000437444 	1.84593e-13 	0.92 	0.04 	0.04 	0.0103075 	1.75226e-15 	
-0.0103075 	-0.0103075 	2.71389e-10 	1.07929e-07 	6.084e-10 	4.24971e-06 	-4.22963e-06 	
72.2188 	211712 	1761.36 	2291.97 	0.35 	17.0603 	6.39146e-09 	8.74889e-05 	
0.00728373 	0.00219424 	3.94086e-23 	1.97297e-15 	3.88575e-15 	5.51123e-17 	0 	0 	0 	
0.000524933 	-5.42095e-13 	0.92 	0.04 	0.04 	0.0103075 	2.3289e-15 	
-0.0103075 	-0.0103075 	-9.89847e-10 	-3.93661e-07 	7.19012e-10 	4.10786e-06 	-4.08787e-06 	
72.2188 	211712 	1761.36 	2291.97 	0.35 	17.0603 	-2.30095e-08 	8.74889e-05 	
0.00728373 	0.00219424 	3.68893e-23 	1.84736e-15 	3.63736e-15 	5.15783e-17 	0 	0 	0 	
0.000612422 	-1.6324e-12 	0.92 	0.04 	0.04 	0.0103075 	2.8527e-15 	
-0.0103075 	-0.0103075 	-2.48567e-09 	-9.88547e-07 	8.29621e-10 	3.41787e-06 	-3.39788e-06 	
72.2188 	211712 	1761.36 	2291.97 	0.35 	17.0603 	-5.78791e-08 	8.74889e-05 	
0.00728372 	0.00219424 	2.59945e-23 	1.30255e-15 	2.56315e-15 	3.6299e-17 	0 	0 	0 	
0.000699911 	-1.63357e-12 	0.92 	0.04 	0.04 	0.0103075 	3.2436e-15 	
-0.0103075 	-0.0103075 	-4.21608e-09 	-1.67673e-06 	9.40225e-10 	2.08638e-06 	-2.06635e-06 	
72.2188 	211712 	1761.36 	2291.97 	0.35 	17.0603 	-9.8217e-08 	8.74889e-05 	
0.00728372 	0.00219424 	1.10025e-23 	5.52082e-16 	1.08495e-15 	1.53061e-17 	0 	0 	0 	
0.0007874 	-2.36084e-12 	0.92 	0.04 	0.04 	0.0103075 	3.40896e-15 	
-0.0103075 	-0.0103075 	-6.18107e-09 	-1.2291e-06 	9.40225e-10 	6.34278e-07 	-6.14273e-07 	
36.1094 	105856 	880.68 	1145.99 	0.35 	8.53017 	-1.44024e-07 	4.37444e-05 	
0.00364186 	0.00109712 	3.37923e-24 	1.70218e-16 	3.33277e-16 	4.64617e-18 	0 	0 	0 	
ZONE T = "t = 3e-08 [s]" I = 10 SOLUTIONTIME = 3.0000000000000E-08
0 	3.63631e-13 	0.92 	0.04 	0.04 	0.0103075 	0 	
-0.0103075 	-0.0103075 	3.06177e-09 	6.0883e-07 	5.53103e-11 	3.04682e-07 	-2.74693e-07 	
36.1094 	105856 	880.68 	1145.99 	0.35 	8.53017 	7.14389e-08 	4.37444e-05 	
0.00364186 	0.00109712 	1.21386e-24 	4.05092e-17 	1.19785e-16 	1.60052e-18 	0 	0 	0 	
8.74889e-05 	-7.2517e-13 	0.92 	0.04 	0.04 	0.0103075 	7.79843e-17 	
-0.0103075 	-0.0103075 	2.97339e-09 	1.18251e-06 	1.65931e-10 	1.20115e-06 	-1.1712e-06 	
72.2187 	211712 	1761.36 	2291.97 	0.35 	17.0603 	6.93785e-08 	8.74889e-05 	
0.00728373 	0.00219424 	5.86307e-24 	1.95756e-16 	5.78266e-16 	8.04109e-18 	0 	0 	0 	
0.000174978 	-3.6123e-13 	0.92 	0.04 	0.04 	0.0103075 	3.15282e-16 	
-0.0103075 	-0.0103075 	2.65044e-09 	1.05407e-06 	2.7655e-10 	2.32064e-06 	-2.2906e-06 	
72.2187 	211712 	1761.36 	2291.97 	0.35 	17.0603 	6.18502e-08 	8.74889e-05 	
0.00728373 	0.00219424 	1.8521e-23 	6.18518e-16 	1.82644e-15 	2.56631e-17 	0 	0 	0 	
0.000262467 	-7.23859e-13 	0.92 	0.04 	0.04 	0.0103075 	6.94606e-16 	
-0.0103075 	-0.0103075 	2.09292e-09 	8.32351e-07 	3.87169e-10 	3.26497e-06 	-3.23492e-06 	
72.2187 	211712 	1761.36 	2291.97 	0.35 	17.0603 	4.88539e-08 	8.74889e-05 	
0.00728373 	0.00219424 	3.5425e-23 	1.18318e-15 	3.4932e-15 	4.92975e-17 	0 	0 	0 	
0.000349956 	-1.44991e-12 	0.92 	0.04 	0.04 	0.0103075 	1.18611e-15 	
-0.0103075 	-0.0103075 	1.30084e-09 	5.17341e-07 	4.97786e-10 	3.9408e-06 	-3.91088e-06 	
72.2187 	211712 	1761.36 	2291.97 	0.35 	17.0603 	3.03892e-08 	8.74889e-05 	
0.00728373 	0.00219424 	5.09942e-23 	1.70349e-15 	5.02831e-15 	7.11018e-17 	0 	0 	0 	
0.000437444 	-1.08663e-12 	0.92 	0.04 	0.04 	0.0103075 	1.7474e-15 	
-0.0103075 	-0.0103075 	2.7418e-10 	1.0904e-07 	6.084e-10 	4.25514e-06 	-4.22518e-06 	
72.2188 	211712 	1761.36 	2291.97 	0.35 	17.0603 	6.45659e-09 	8.74889e-05 	
0.00728373 	0.00219424 	5.91876e-23 	1.9779e-15 	5.83618e-15 	8.25818e-17 	0 	0 	0 	
0.000524933 	-1.45011e-12 	0.92 	0.04 	0.04 	0.0103075 	2.32352e-15 	
-0.0103075 	-0.0103075 	-9.87053e-10 	-3.9255e-07 	7.19012e-10 	4.11458e-06 	-4.08454e-06 	
72.2188 	211712 	1761.36 	2291.97 	0.35 	17.0603 	-2.29444e-08 	8.74889e-05 	
0.00728373 	0.00219424 	5.54218e-23 	1.85325e-15 	5.46488e-15 	7.73041e-17 	0 	0 	0 	
0.000612422 	-1.45079e-12 	0.92 	0.04 	0.04 	0.0103075 	2.84694e-15 	
-0.0103075 	-0.0103075 	-2.48288e-09 	-9.87436e-07 	8.29621e-10 	3.42569e-06 	-3.39566e-06 	
72.2188 	211712 	1761.36 	2291.97 	0.35 	17.0603 	-5.78139e-08 	8.74889e-05 	
0.00728372 	0.00219424 	3.90769e-23 	1.30825e-15 	3.85328e-15 	5.44123e-17 	0 	0 	0 	
0.000699911 	-1.08875e-12 	0.92 	0.04 	0.04 	0.0103075 	3.23762e-15 	
-0.0103075 	-0.0103075 	-4.21328e-09 	-1.67562e-06 	9.40225e-10 	2.09522e-06 	-2.06524e-06 	
72.2188 	211712 	1761.36 	2291.97 	0.35 	17.0603 	-9.81518e-08 	8.74889e-05 	
0.00728372 	0.00219424 	1.6562e-23 	5.55954e-16 	1.63326e-15 	2.29465e-17 	0 	0 	0 	
0.0007874 	2.08343e-17 	0.92 	0.04 	0.04 	0.0103075 	3.4029e-15 	
-0.0103075 	-0.0103075 	-6.17828e-09 	-1.22855e-06 	9.40225e-10 	6.43944e-07 	-6.13995e-07 	
36.1094 	105856 	880.68 	1145.99 	0.35 	8.53017 	-1.43959e-07 	4.37444e-05 	
0.00364186 	0.00109712 	5.10674e-24 	1.72751e-16 	5.03708e-16 	6.96611e-18 	0 	0 	0 	
ZONE T = "t = 4e-08 [s]" I = 10 SOLUTIONTIME = 4.0000000000000E-08
0 	-1.8118e-13 	0.92 	0.04 	0.04 	0.0103075 	0 	
-0.0103075 	-0.0103075 	3.06456e-09 	6.09386e-07 	5.53103e-11 	3.04958e-07 	-2.6497e-07 	
36.1094 	105856 	880.68 	1145.99 	0.35 	8.53017 	7.15039e-08 	4.37444e-05 	
0.00364186 	0.00109712 	1.61951e-24 	4.05651e-17 	1.59851e-16 	2.10026e-18 	0 	0 	0 	
8.74889e-05 	-1.80358e-13 	0.92 	0.04 	0.04 	0.0103075 	7.6713e-17 	
-0.0103075 	-0.0103075 	2.97618e-09 	1.18362e-06 	1.65931e-10 	1.20225e-06 	-1.16231e-06 	
72.2187 	211712 	1761.36 	2291.97 	0.35 	17.0603 	6.94436e-08 	8.74889e-05 	
0.00728373 	0.00219424 	7.82389e-24 	1.96082e-16 	7.7173e-16 	1.06593e-17 	0 	0 	0 	
0.000174978 	-5.42832e-13 	0.92 	0.04 	0.04 	0.0103075 	3.12889e-16 	
-0.0103075 	-0.0103075 	2.65323e-09 	1.05518e-06 	2.7655e-10 	2.32285e-06 	-2.28282e-06 	
72.2187 	211712 	1761.36 	2291.97 	0.35 	17.0603 	6.19153e-08 	8.74889e-05 	
0.00728373 	0.00219424 	2.47174e-23 	6.19632e-16 	2.43763e-15 	3.41096e-17 	0 	0 	0 	
0.000262467 	-9.0546e-13 	0.92 	0.04 	0.04 	0.0103075 	6.9124e-16 	
-0.0103075 	-0.0103075 	2.09572e-09 	8.33464e-07 	3.87169e-10 	3.26829e-06 	-3.22826e-06 	
72.2187 	211712 	1761.36 	2291.97 	0.35 	17.0603 	4.8919e-08 	8.74889e-05 	
0.00728373 	0.00219424 	4.728e-23 	1.1855e-15 	4.6624e-15 	6.55987e-17 	0 	0 	0 	
0.000349956 	-1.78684e-13 	0.92 	0.04 	0.04 	0.0103075 	1.18192e-15 	
-0.0103075 	-0.0103075 	1.30363e-09 	5.18451e-07 	4.97786e-10 	3.94531e-06 	-3.90533e-06 	
72.2187 	211712 	1761.36 	2291.97 	0.35 	17.0603 	3.04545e-08 	8.74889e-05 	
0.00728373 	0.00219424 	6.8067e-23 	1.70729e-15 	6.71203e-15 	9.46696e-17 	0 	0 	0 	
0.000437444 	-1.78607e-13 	0.92 	0.04 	0.04 	0.0103075 	1.74254e-15 	
-0.0103075 	-0.0103075 	2.76974e-10 	1.10152e-07 	6.084e-10 	4.26076e-06 	-4.22074e-06 	
72.2188 	211712 	1761.36 	2291.97 	0.35 	17.0603 	6.52166e-09 	8.74889e-05 	
0.00728373 	0.00219424 	7.90176e-23 	1.983e-15 	7.79176e-15 	1.09994e-16 	0 	0 	0 	
0.000524933 	-1.78878e-13 	0.92 	0.04 	0.04 	0.0103075 	2.31813e-15 	
-0.0103075 	-0.0103075 	-9.84259e-10 	-3.91439e-07 	7.19012e-10 	4.12121e-06 	-4.0812e-06 	
72.2188 	211712 	1761.36 	2291.97 	0.35 	17.0603 	-2.28793e-08 	8.74889e-05 	
0.00728373 	0.00219424 	7.40124e-23 	1.85906e-15 	7.29825e-15 	1.02988e-16 	0 	0 	0 	
0.000612422 	9.10061e-13 	0.92 	0.04 	0.04 	0.0103075 	2.84119e-15 	
-0.0103075 	-0.0103075 	-2.48008e-09 	-9.86324e-07 	8.29621e-10 	3.43342e-06 	-3.39343e-06 	
72.2188 	211712 	1761.36 	2291.97 	0.35 	17.0603 	-5.77488e-08 	8.74889e-05 	
0.00728372 	0.00219424 	5.22157e-23 	1.31388e-15 	5.14907e-15 	7.25016e-17 	0 	0 	0 	
0.000699911 	5.45692e-13 	0.92 	0.04 	0.04 	0.0103075 	3.23163e-15 	
-0.0103075 	-0.0103075 	-4.21049e-09 	-1.6745e-06 	9.40224e-10 	2.10414e-06 	-2.06413e-06 	
72.2188 	211712 	1761.36 	2291.97 	0.35 	17.0603 	-9.80867e-08 	8.74889e-05 	
0.00728372 	0.00219424 	2.21607e-23 	5.59867e-16 	2.18549e-15 	3.05783e-17 	0 	0 	0 	
0.0007874 	1.81632e-13 	0.92 	0.04 	0.04 	0.0103075 	3.39684e-15 	
-0.0103075 	-0.0103075 	-6.17549e-09 	-1.22799e-06 	9.40224e-10 	6.53795e-07 	-6.13717e-07 	
36.1094 	105856 	880.68 	1145.99 	0.35 	8.53017 	-1.43893e-07 	4.37444e-05 	
0.00364186 	0.00109712 	6.86027e-24 	1.75353e-16 	6.76743e-16 	9.28395e-18 	0 	0 	0 	
ZONE T = "t = 5.5e-08 [s]" I = 10 SOLUTIONTIME = 5.5000000000000E-08
0 	-1.20645e-13 	0.92 	0.04 	0.04 	0.0103075 	0 	
-0.0103075 	-0.0103075 	3.06735e-09 	6.0994e-07 	5.53103e-11 	3.05418e-07 	-2.50387e-07 	
36.1094 	105856 	880.68 	1145.99 	0.35 	8.53017 	7.16016e-08 	4.37444e-05 	
0.00364186 	0.00109712 	2.22943e-24 	4.06616e-17 	1.46753e-16 	1.87538e-18 	0 	0 	0 	
8.74889e-05 	-1.19821e-13 	0.92 	0.04 	0.04 	0.0103075 	7.48062e-17 	
-0.0103075 	-0.0103075 	2.97898e-09 	1.18473e-06 	1.65931e-10 	1.204e-06 	-1.14897e-06 	
72.2187 	211712 	1761.36 	2291.97 	0.35 	17.0603 	6.95414e-08 	8.74889e-05 	
0.00728373 	0.00219424 	1.07728e-23 	1.96595e-16 	7.08509e-16 	9.67856e-18 	0 	0 	0 	
0.000174978 	-8.45502e-13 	0.92 	0.04 	0.04 	0.0103075 	3.093e-16 	
-0.0103075 	-0.0103075 	2.65603e-09 	1.0563e-06 	2.7655e-10 	2.32607e-06 	-2.27115e-06 	
72.2187 	211712 	1761.36 	2291.97 	0.35 	17.0603 	6.2013e-08 	8.74889e-05 	
0.00728373 	0.00219424 	3.40359e-23 	6.21238e-16 	2.23796e-15 	3.11058e-17 	0 	0 	0 	
0.000262467 	-6.02783e-13 	0.92 	0.04 	0.04 	0.0103075 	6.86193e-16 	
-0.0103075 	-0.0103075 	2.09852e-09 	8.34575e-07 	3.87169e-10 	3.27326e-06 	-3.21826e-06 	
72.2187 	211712 	1761.36 	2291.97 	0.35 	17.0603 	4.90167e-08 	8.74889e-05 	
0.00728373 	0.00219424 	6.5115e-23 	1.189e-15 	4.28106e-15 	5.99356e-17 	0 	0 	0 	
0.000349956 	-3.60282e-13 	0.92 	0.04 	0.04 	0.0103075 	1.17564e-15 	
-0.0103075 	-0.0103075 	1.30643e-09 	5.19563e-07 	4.97786e-10 	3.95203e-06 	-3.89699e-06 	
72.2187 	211712 	1761.36 	2291.97 	0.35 	17.0603 	3.05521e-08 	8.74889e-05 	
0.00728373 	0.00219424 	9.37612e-23 	1.71294e-15 	6.16416e-15 	8.65815e-17 	0 	0 	0 	
0.000437444 	-6.02343e-13 	0.92 	0.04 	0.04 	0.0103075 	1.73525e-15 	
-0.0103075 	-0.0103075 	2.79763e-10 	1.11262e-07 	6.084e-10 	4.26904e-06 	-4.21407e-06 	
72.2188 	211712 	1761.36 	2291.97 	0.35 	17.0603 	6.61938e-09 	8.74889e-05 	
0.00728373 	0.00219424 	1.08876e-22 	1.99053e-15 	7.15772e-15 	1.00655e-16 	0 	0 	0 	
0.000524933 	-3.60474e-13 	0.92 	0.04 	0.04 	0.0103075 	2.31006e-15 	
-0.0103075 	-0.0103075 	-9.81462e-10 	-3.90328e-07 	7.19012e-10 	4.13124e-06 	-4.0762e-06 	
72.2188 	211712 	1761.36 	2291.97 	0.35 	17.0603 	-2.27816e-08 	8.74889e-05 	
0.00728373 	0.00219424 	1.02031e-22 	1.86788e-15 	6.70776e-15 	9.42788e-17 	0 	0 	0 	
0.000612422 	-1.08757e-12 	0.92 	0.04 	0.04 	0.0103075 	2.83255e-15 	
-0.0103075 	-0.0103075 	-2.47729e-09 	-9.85214e-07 	8.29621e-10 	3.44511e-06 	-3.3901e-06 	
72.2188 	211712 	1761.36 	2291.97 	0.35 	17.0603 	-5.76511e-08 	8.74889e-05 	
0.00728372 	0.00219424 	7.20519e-23 	1.32241e-15 	4.73707e-15 	6.63877e-17 	0 	0 	0 	
0.000699911 	-1.08873e-12 	0.92 	0.04 	0.04 	0.0103075 	3.22266e-15 	
-0.0103075 	-0.0103075 	-4.20769e-09 	-1.67339e-06 	9.40224e-10 	2.1174e-06 	-2.06246e-06 	
72.2188 	211712 	1761.36 	2291.97 	0.35 	17.0603 	-9.79891e-08 	8.74889e-05 	
0.00728372 	0.00219424 	3.0647e-23 	5.65749e-16 	2.01513e-15 	2.80047e-17 	0 	0 	0 	
0.0007874 	-1.08958e-12 	0.92 	0.04 	0.04 	0.0103075 	3.38776e-15 	
-0.0103075 	-0.0103075 	-6.17269e-09 	-1.22743e-06 	9.40224e-10 	6.68204e-07 	-6.133e-07 	
36.1094 	105856 	880.68 	1145.99 	0.35 	8.53017 	-1.43796e-07 	4.37444e-05 	
0.00364186 	0.00109712 	9.54813e-24 	1.79191e-16 	6.28038e-16 	8.50399e-18 	0 	0 	0 	
ZONE T = "t = 7.75e-08 [s]" I = 10 SOLUTIONTIME = 7.7500000000000E-08
0 	8.11378e-14 	0.92 	0.04 	0.04 	0.0103075 	0 	
-0.0103075 	-0.0103075 	3.07155e-09 	6.10774e-07 	5.53103e-11 	3.0597e-07 	-2.28512e-07 	
36.1094 	105856 	880.68 	1145.99 	0.35 	8.53017 	7.17482e-08 	4.37444e-05 	
0.00364186 	0.00109712 	3.14679e-24 	4.07714e-17 	1.38167e-16 	1.68982e-18 	0 	0 	0 	
8.74889e-05 	8.19634e-14 	0.92 	0.04 	0.04 	0.0103075 	7.1946e-17 	
-0.0103075 	-0.0103075 	2.98317e-09 	1.1864e-06 	1.65931e-10 	1.20648e-06 	-1.12897e-06 	
72.2187 	211712 	1761.36 	2291.97 	0.35 	17.0603 	6.96879e-08 	8.74889e-05 	
0.00728373 	0.00219424 	1.52132e-23 	1.97349e-16 	6.67184e-16 	8.95691e-18 	0 	0 	0 	
0.000174978 	4.05551e-13 	0.92 	0.04 	0.04 	0.0103075 	3.03916e-16 	
-0.0103075 	-0.0103075 	2.66022e-09 	1.05796e-06 	2.7655e-10 	2.33123e-06 	-2.25365e-06 	
72.2187 	211712 	1761.36 	2291.97 	0.35 	17.0603 	6.21596e-08 	8.74889e-05 	
0.00728373 	0.00219424 	4.80726e-23 	6.23851e-16 	2.10758e-15 	2.89835e-17 	0 	0 	0 	
0.000262467 	5.67559e-13 	0.92 	0.04 	0.04 	0.0103075 	6.78622e-16 	
-0.0103075 	-0.0103075 	2.1027e-09 	8.36241e-07 	3.87169e-10 	3.28071e-06 	-3.20326e-06 	
72.2187 	211712 	1761.36 	2291.97 	0.35 	17.0603 	4.91632e-08 	8.74889e-05 	
0.00728373 	0.00219424 	9.19847e-23 	1.19421e-15 	4.0322e-15 	5.60135e-17 	0 	0 	0 	
0.000349956 	4.06497e-13 	0.92 	0.04 	0.04 	0.0103075 	1.16622e-15 	
-0.0103075 	-0.0103075 	1.31062e-09 	5.21229e-07 	4.97786e-10 	3.96197e-06 	-3.88449e-06 	
72.2187 	211712 	1761.36 	2291.97 	0.35 	17.0603 	3.06986e-08 	8.74889e-05 	
0.00728373 	0.00219424 	1.32492e-22 	1.72135e-15 	5.80747e-15 	8.10408e-17 	0 	0 	0 	
0.000437444 	5.68003e-13 	0.92 	0.04 	0.04 	0.0103075 	1.72431e-15 	
-0.0103075 	-0.0103075 	2.8396e-10 	1.12929e-07 	6.084e-10 	4.28156e-06 	-4.20407e-06 	
72.2188 	211712 	1761.36 	2291.97 	0.35 	17.0603 	6.76589e-09 	8.74889e-05 	
0.00728373 	0.00219424 	1.53919e-22 	2.00194e-15 	6.74656e-15 	9.42993e-17 	0 	0 	0 	
0.000524933 	4.06309e-13 	0.92 	0.04 	0.04 	0.0103075 	2.29794e-15 	
-0.0103075 	-0.0103075 	-9.77271e-10 	-3.88661e-07 	7.19012e-10 	4.14616e-06 	-4.06871e-06 	
72.2188 	211712 	1761.36 	2291.97 	0.35 	17.0603 	-2.2635e-08 	8.74889e-05 	
0.00728373 	0.00219424 	1.44354e-22 	1.88102e-15 	6.32734e-15 	8.83781e-17 	0 	0 	0 	
0.000612422 	8.89905e-13 	0.92 	0.04 	0.04 	0.0103075 	2.8196e-15 	
-0.0103075 	-0.0103075 	-2.4731e-09 	-9.83547e-07 	8.29621e-10 	3.4626e-06 	-3.3851e-06 	
72.2188 	211712 	1761.36 	2291.97 	0.35 	17.0603 	-5.75046e-08 	8.74889e-05 	
0.00728372 	0.00219424 	1.02095e-22 	1.33524e-15 	4.47528e-15 	6.22577e-17 	0 	0 	0 	
0.000699911 	8.88746e-13 	0.92 	0.04 	0.04 	0.0103075 	3.2092e-15 	
-0.0103075 	-0.0103075 	-4.2035e-09 	-1.67173e-06 	9.40223e-10 	2.13747e-06 	-2.05996e-06 	
72.2188 	211712 	1761.36 	2291.97 	0.35 	17.0603 	-9.78425e-08 	8.74889e-05 	
0.00728372 	0.00219424 	4.35776e-23 	5.74693e-16 	1.91051e-15 	2.62698e-17 	0 	0 	0 	
0.0007874 	1.13003e-12 	0.92 	0.04 	0.04 	0.0103075 	3.37413e-15 	
-0.0103075 	-0.0103075 	-6.1685e-09 	-1.2266e-06 	9.40223e-10 	6.90183e-07 	-6.12676e-07 	
36.1094 	105856 	880.68 	1145.99 	0.35 	8.53017 	-1.43649e-07 	4.37444e-05 	
0.00364186 	0.00109712 	1.37136e-23 	1.8513e-16 	6.01512e-16 	7.97931e-18 	0 	0 	0 	
ZONE T = "t = 1.1125e-07 [s]" I = 10 SOLUTIONTIME = 1.1125000000000E-07
0 	4.26295e-16 	0.92 	0.04 	0.04 	0.0103075 	0 	
-0.0103075 	-0.0103075 	3.07784e-09 	6.12024e-07 	5.53103e-11 	3.06983e-07 	-1.957e-07 	
36.1094 	105856 	880.68 	1145.99 	0.35 	8.53017 	7.1968e-08 	4.37444e-05 	
0.00364186 	0.00109712 	4.53013e-24 	4.09879e-17 	1.32711e-16 	1.51525e-18 	0 	0 	0 	
8.74889e-05 	1.25448e-15 	0.92 	0.04 	0.04 	0.0103075 	6.76557e-17 	
-0.0103075 	-0.0103075 	2.98945e-09 	1.1889e-06 	1.65931e-10 	1.21026e-06 	-1.09897e-06 	
72.2187 	211712 	1761.36 	2291.97 	0.35 	17.0603 	6.99078e-08 	8.74889e-05 	
0.00728373 	0.00219424 	2.19111e-23 	1.98456e-16 	6.40841e-16 	8.37643e-18 	0 	0 	0 	
0.000174978 	2.17228e-13 	0.92 	0.04 	0.04 	0.0103075 	2.9584e-16 	
-0.0103075 	-0.0103075 	2.6665e-09 	1.06046e-06 	2.7655e-10 	2.33859e-06 	-2.22741e-06 	
72.2187 	211712 	1761.36 	2291.97 	0.35 	17.0603 	6.23794e-08 	8.74889e-05 	
0.00728373 	0.00219424 	6.92536e-23 	6.27587e-16 	2.02457e-15 	2.73908e-17 	0 	0 	0 	
0.000262467 	2.57851e-15 	0.92 	0.04 	0.04 	0.0103075 	6.67266e-16 	
-0.0103075 	-0.0103075 	2.10899e-09 	8.38741e-07 	3.87169e-10 	3.29194e-06 	-3.18076e-06 	
72.2187 	211712 	1761.36 	2291.97 	0.35 	17.0603 	4.9383e-08 	8.74889e-05 	
0.00728373 	0.00219424 	1.32556e-22 	1.20212e-15 	3.87442e-15 	5.31803e-17 	0 	0 	0 	
0.000349956 	2.94479e-15 	0.92 	0.04 	0.04 	0.0103075 	1.15209e-15 	
-0.0103075 	-0.0103075 	1.3169e-09 	5.23729e-07 	4.97786e-10 	3.97697e-06 	-3.86574e-06 	
72.2187 	211712 	1761.36 	2291.97 	0.35 	17.0603 	3.09184e-08 	8.74889e-05 	
0.00728373 	0.00219424 	1.91016e-22 	1.73406e-15 	5.58261e-15 	7.71249e-17 	0 	0 	0 	
0.000437444 	3.02755e-15 	0.92 	0.04 	0.04 	0.0103075 	1.70791e-15 	
-0.0103075 	-0.0103075 	2.90244e-10 	1.15428e-07 	6.084e-10 	4.30034e-06 	-4.18907e-06 	
72.2188 	211712 	1761.36 	2291.97 	0.35 	17.0603 	6.98578e-09 	8.74889e-05 	
0.00728373 	0.00219424 	2.22065e-22 	2.01913e-15 	6.48984e-15 	8.98691e-17 	0 	0 	0 	
0.000524933 	2.762e-15 	0.92 	0.04 	0.04 	0.0103075 	2.27977e-15 	
-0.0103075 	-0.0103075 	-9.70987e-10 	-3.8616e-07 	7.19012e-10 	4.16871e-06 	-4.05745e-06 	
72.2188 	211712 	1761.36 	2291.97 	0.35 	17.0603 	-2.24153e-08 	8.74889e-05 	
0.00728373 	0.00219424 	2.08513e-22 	1.90101e-15 	6.09385e-15 	8.43026e-17 	0 	0 	0 	
0.000612422 	-4.28385e-13 	0.92 	0.04 	0.04 	0.0103075 	2.80016e-15 	
-0.0103075 	-0.0103075 	-2.46681e-09 	-9.81047e-07 	8.29621e-10 	3.48884e-06 	-3.3776e-06 	
72.2188 	211712 	1761.36 	2291.97 	0.35 	17.0603 	-5.72847e-08 	8.74889e-05 	
0.00728372 	0.00219424 	1.47812e-22 	1.35459e-15 	4.3202e-15 	5.94236e-17 	0 	0 	0 	
0.000699911 	-4.29542e-13 	0.92 	0.04 	0.04 	0.0103075 	3.18901e-15 	
-0.0103075 	-0.0103075 	-4.19722e-09 	-1.66923e-06 	9.40222e-10 	2.16747e-06 	-2.05621e-06 	
72.2188 	211712 	1761.36 	2291.97 	0.35 	17.0603 	-9.76227e-08 	8.74889e-05 	
0.00728372 	0.00219424 	6.34309e-23 	5.88248e-16 	1.85435e-15 	2.50847e-17 	0 	0 	0 	
0.0007874 	-5.91817e-13 	0.92 	0.04 	0.04 	0.0103075 	3.35369e-15 	
-0.0103075 	-0.0103075 	-6.16222e-09 	-1.22535e-06 	9.40222e-10 	7.2297e-07 	-6.11738e-07 	
36.1094 	105856 	880.68 	1145.99 	0.35 	8.53017 	-1.43429e-07 	4.37444e-05 	
0.00364186 	0.00109712 	2.02668e-23 	1.94171e-16 	5.92876e-16 	7.62245e-18 	0 	0 	0 	
ZONE T = "t = 1.61875e-07 [s]" I = 10 SOLUTIONTIME = 1.6187500000000E-07
0 	-3.54441e-14 	0.92 	0.04 	0.04 	0.0103075 	0 	
-0.0103075 	-0.0103075 	3.08727e-09 	6.13899e-07 	5.53103e-11 	3.08364e-07 	-1.46481e-07 	
36.1094 	105856 	880.68 	1145.99 	0.35 	8.53017 	7.22977e-08 	4.37444e-05 	
0.00364186 	0.00109712 	6.62011e-24 	4.12835e-17 	1.29439e-16 	1.32844e-18 	0 	0 	0 	
8.74889e-05 	-3.4612e-14 	0.92 	0.04 	0.04 	0.0103075 	6.12202e-17 	
-0.0103075 	-0.0103075 	2.99889e-09 	1.19265e-06 	1.65931e-10 	1.21578e-06 	-1.05397e-06 	
72.2187 	211712 	1761.36 	2291.97 	0.35 	17.0603 	7.02374e-08 	8.74889e-05 	
0.00728373 	0.00219424 	3.20417e-23 	2.00111e-16 	6.25077e-16 	7.84555e-18 	0 	0 	0 	
0.000174978 	-1.05614e-13 	0.92 	0.04 	0.04 	0.0103075 	2.83726e-16 	
-0.0103075 	-0.0103075 	2.67594e-09 	1.06421e-06 	2.76551e-10 	2.34982e-06 	-2.18803e-06 	
72.2187 	211712 	1761.36 	2291.97 	0.35 	17.0603 	6.27091e-08 	8.74889e-05 	
0.00728373 	0.00219424 	1.01316e-22 	6.33333e-16 	1.97524e-15 	2.60661e-17 	0 	0 	0 	
0.000262467 	-3.32802e-14 	0.92 	0.04 	0.04 	0.0103075 	6.5023e-16 	
-0.0103075 	-0.0103075 	2.11842e-09 	8.42491e-07 	3.87169e-10 	3.30888e-06 	-3.147e-06 	
72.2187 	211712 	1761.36 	2291.97 	0.35 	17.0603 	4.97126e-08 	8.74889e-05 	
0.00728373 	0.00219424 	1.9402e-22 	1.21409e-15 	3.78152e-15 	5.09666e-17 	0 	0 	0 	
0.000349956 	-3.291e-14 	0.92 	0.04 	0.04 	0.0103075 	1.13089e-15 	
-0.0103075 	-0.0103075 	1.32633e-09 	5.27478e-07 	4.97786e-10 	3.99952e-06 	-3.83761e-06 	
72.2187 	211712 	1761.36 	2291.97 	0.35 	17.0603 	3.12482e-08 	8.74889e-05 	
0.00728373 	0.00219424 	2.79775e-22 	1.75326e-15 	5.45223e-15 	7.41833e-17 	0 	0 	0 	
0.000437444 	-1.04568e-13 	0.92 	0.04 	0.04 	0.0103075 	1.6833e-15 	
-0.0103075 	-0.0103075 	2.99682e-10 	1.1918e-07 	6.08401e-10 	4.32851e-06 	-4.16657e-06 	
72.2188 	211712 	1761.36 	2291.97 	0.35 	17.0603 	7.31542e-09 	8.74889e-05 	
0.00728373 	0.00219424 	3.25596e-22 	2.04506e-15 	6.3449e-15 	8.66268e-17 	0 	0 	0 	
0.000524933 	-3.3085e-14 	0.92 	0.04 	0.04 	0.0103075 	2.25251e-15 	
-0.0103075 	-0.0103075 	-9.61553e-10 	-3.82412e-07 	7.19012e-10 	4.20249e-06 	-4.04058e-06 	
72.2188 	211712 	1761.36 	2291.97 	0.35 	17.0603 	-2.20855e-08 	8.74889e-05 	
0.00728373 	0.00219424 	3.06276e-22 	1.93114e-15 	5.96853e-15 	8.13737e-17 	0 	0 	0 	
0.000612422 	3.7985e-14 	0.92 	0.04 	0.04 	0.0103075 	2.77101e-15 	
-0.0103075 	-0.0103075 	-2.45738e-09 	-9.77297e-07 	8.29621e-10 	3.52823e-06 	-3.36635e-06 	
72.2188 	211712 	1761.36 	2291.97 	0.35 	17.0603 	-5.6955e-08 	8.74889e-05 	
0.00728372 	0.00219424 	2.17875e-22 	1.38396e-15 	4.24629e-15 	5.74132e-17 	0 	0 	0 	
0.000699911 	-1.06657e-13 	0.92 	0.04 	0.04 	0.0103075 	3.15872e-15 	
-0.0103075 	-0.0103075 	-4.18778e-09 	-1.66548e-06 	9.4022e-10 	2.21239e-06 	-2.05059e-06 	
72.2188 	211712 	1761.36 	2291.97 	0.35 	17.0603 	-9.72929e-08 	8.74889e-05 	
0.00728372 	0.00219424 	9.42565e-23 	6.089e-16 	1.8376e-15 	2.42519e-17 	0 	0 	0 	
0.0007874 	-2.50994e-13 	0.92 	0.04 	0.04 	0.0103075 	3.32302e-15 	
-0.0103075 	-0.0103075 	-6.15279e-09 	-1.22348e-06 	9.4022e-10 	7.72057e-07 	-6.10332e-07 	
36.1094 	105856 	880.68 	1145.99 	0.35 	8.53017 	-1.431e-07 	4.37444e-05 	
0.00364186 	0.00109712 	3.08026e-23 	2.08113e-16 	6.01072e-16 	7.37397e-18 	0 	0 	0 	
ZONE T = "t = 2.37813e-07 [s]" I = 10 SOLUTIONTIME = 2.3781250000000E-07
0 	4.31177e-16 	0.92 	0.04 	0.04 	0.0103075 	0 	
-0.0103075 	-0.0103075 	3.10141e-09 	6.16712e-07 	5.53103e-11 	3.10389e-07 	-7.26523e-08 	
36.1094 	105856 	880.68 	1145.99 	0.35 	8.53017 	7.27922e-08 	4.37444e-05 	
0.00364186 	0.00109712 	9.78904e-24 	4.17309e-17 	1.27798e-16 	1.11144e-18 	0 	0 	0 	
8.74889e-05 	1.26912e-15 	0.92 	0.04 	0.04 	0.0103075 	5.15669e-17 	
-0.0103075 	-0.0103075 	3.01303e-09 	1.19827e-06 	1.65931e-10 	1.22425e-06 	-9.86472e-07 	
72.2187 	211712 	1761.36 	2291.97 	0.35 	17.0603 	7.07319e-08 	8.74889e-05 	