TITLE = "Solution on Domain BulkDomain1D_2"
VARIABLES = "x [m]"  
"Vel_axial" 	"MF_sp(ECDMC)" 	"MF_sp(Li+)" 	"MF_sp(PF6-)" 	"Volt(Electroly)" 	"Volt(CathodeVo)" 	
"Potential Drop Electrode-Electrolyte [V]" 	"Surf_0 Equilibrium Potential Drop Electrode-Electrolyte [V]" 	"Overpotential_0 [V]" 	"Current Source [A/m^2]" 	"Li+ flux [kmol/m^2/s]" 	"Electrolyte Current [A/m^2]" 	"Electrode Current [A/m^2]" 	
"CV Capacity discharged [A-s/m^2]" 	"Depth of discharge in CV [A-s/m^2]" 	"CV Capacity remaining [A-s/m^2]" 	"Initial CV capacity [A-s/m^2]" 	"Porosity []" 	"Surface Area [m2/m2] (area per area)" 	"Specific current (per particle area) [A/m^2]" 	"Control volume thickness [m]" 	
"MoleDens LiCoO2 [kmol/m^3]" 	"MoleDens CoO2 [kmol/m^3]" 	"qHeat_accum [J/m3]" 	"qHeat_step [W/m3]" 	"Joule_Lyte [W/m3]" 	"Joule_Solid [W/m3]" 	"electrodHeat [W/m3]" 	"OverpotHeat [W/m3]" 	"deltaSHeat [W/m3]" 	

ZONE T = "CATH, 0.0000E+00", I = 10, SOLUTIONTIME = 0.000000E+00
ZONETYPE = ORDERED
DATAPACKING = BLOCK
STRANDID = 3
 1.2700000000000E-03  1.3377333333333E-03  1.4054666666667E-03  1.4732000000000E-03  1.5409333333333E-03  1.6086666666667E-03  1.6764000000000E-03  1.7441333333333E-03  1.8118666666667E-03  1.8796000000000E-03 
 1.3694448462157E-10  1.2083255255886E-10  1.0472070236525E-10  8.8608995725602E-11  7.2497494325945E-11  5.6386259853968E-11  4.0275353999538E-11  2.4164838455195E-11  8.0547749166607E-12  0.0000000000000E+00 
 9.2000000685223E-01  9.2000001097352E-01  9.2000001460992E-01  9.2000001776145E-01  9.2000002042810E-01  9.2000002260988E-01  9.2000002430680E-01  9.2000002551887E-01  9.2000002624610E-01  9.2000002648851E-01 
 3.9999996573884E-02  3.9999994513240E-02  3.9999992695038E-02  3.9999991119275E-02  3.9999989785950E-02  3.9999988695059E-02  3.9999987846598E-02  3.9999987240563E-02  3.9999986876948E-02  3.9999986755745E-02 
 3.9999996573884E-02  3.9999994513240E-02  3.9999992695038E-02  3.9999991119275E-02  3.9999989785950E-02  3.9999988695059E-02  3.9999987846598E-02  3.9999987240563E-02  3.9999986876948E-02  3.9999986755745E-02 
 1.0249108254567E-02  1.0249106815892E-02  1.0249105546482E-02  1.0249104446335E-02  1.0249103515450E-02  1.0249102753825E-02  1.0249102161457E-02  1.0249101738343E-02  1.0249101484479E-02  1.0249101399859E-02 
 3.9000009791936E+00  3.9000009671045E+00  3.9000009308372E+00  3.9000008703919E+00  3.9000007857688E+00  3.9000006769682E+00  3.9000005439905E+00  3.9000003868361E+00  3.9000002055057E+00  3.9000000000000E+00 
 3.8897518709390E+00  3.8897518602886E+00  3.8897518252908E+00  3.8897517659456E+00  3.8897516822534E+00  3.8897515742144E+00  3.8897514418290E+00  3.8897512850978E+00  3.8897511040213E+00  3.8897508986001E+00 
 3.9027881867849E+00  3.9027881627299E+00  3.9027880720404E+00  3.9027879147158E+00  3.9027876907552E+00  3.9027874001572E+00  3.9027870429200E+00  3.9027866190412E+00  3.9027861285183E+00  3.9027855713482E+00 
-1.3036315845868E-02 -1.3036302441270E-02 -1.3036246749610E-02 -1.3036148770204E-02 -1.3036008501854E-02 -1.3035825942850E-02 -1.3035601090965E-02 -1.3035333943461E-02 -1.3035024497082E-02 -1.3034672748061E-02 
-1.1601247272902E-02 -2.3202465486304E-02 -2.3202347595669E-02 -2.3202140872942E-02 -2.3201845316441E-02 -2.3201460923766E-02 -2.3200987691781E-02 -2.3200425616634E-02 -2.3199774693747E-02 -1.1599517458910E-02 
 1.9621898046270E-09  1.7313322617773E-09  1.5004758943332E-09  1.2696215660171E-09  1.0387701885176E-09  8.0792262822629E-10  5.7707976208364E-10  3.4624250600702E-10  1.1541171734296E-10  1.1541171734296E-10 
 2.0881221254425E-01  1.8560973222768E-01  1.6240732598157E-01  1.3920508177187E-01  1.1600308882452E-01  9.2801435889915E-02  6.9600211005039E-02  4.6399504822627E-02  2.3199404785236E-02  0.0000000000000E+00 
 0.0000000000000E+00  1.8706437320548E-02  3.7412815543984E-02  5.6119062688652E-02  7.4825107803661E-02  9.3530878735559E-02  1.1223630333090E-01  1.3094131081058E-01  1.4964582988012E-01  1.7059747570913E-01 
 1.4407267233235E+04  2.8814543891428E+04  2.8814581009090E+04  2.8814645819682E+04  2.8814738323605E+04  2.8814858521431E+04  2.8815006413901E+04  2.8815182001933E+04  2.8815385286611E+04  1.4407808134596E+04 
 2.1651345927543E+04  4.3302701280044E+04  4.3302738397706E+04  4.3302803208298E+04  4.3302895712222E+04  4.3303015910047E+04  4.3303163802518E+04  4.3303339390549E+04  4.3303542675227E+04  2.1651886828904E+04 
 3.4852467890512E+04  6.9704926356066E+04  6.9704889238405E+04  6.9704824427812E+04  6.9704731923889E+04  6.9704611726064E+04  6.9704463833592E+04  6.9704288245562E+04  6.9704084960883E+04  3.4851926989151E+04 
 5.6503813818055E+04  1.1300762763611E+05  1.1300762763611E+05  1.1300762763611E+05  1.1300762763611E+05  1.1300762763611E+05  1.1300762763611E+05  1.1300762763611E+05  1.1300762763611E+05  5.6503813818055E+04 
 3.5000000000000E-01  3.5000000000000E-01  3.5000000000000E-01  3.5000000000000E-01  3.5000000000000E-01  3.5000000000000E-01  3.5000000000000E-01  3.5000000000000E-01  3.5000000000000E-01  3.5000000000000E-01 
 6.6040000000000E+00  1.3208000000000E+01  1.3208000000000E+01  1.3208000000000E+01  1.3208000000000E+01  1.3208000000000E+01  1.3208000000000E+01  1.3208000000000E+01  1.3208000000000E+01  6.6040000000000E+00 
-1.7567000716084E-03 -1.7566978714646E-03 -1.7566889457654E-03 -1.7566732944384E-03 -1.7566509173562E-03 -1.7566218143372E-03 -1.7565859851439E-03 -1.7565434294847E-03 -1.7564941470129E-03 -1.7564381373273E-03 
 3.3866666666667E-05  6.7733333333333E-05  6.7733333333334E-05  6.7733333333333E-05  6.7733333333334E-05  6.7733333333334E-05  6.7733333333333E-05  6.7733333333334E-05  6.7733333333333E-05  3.3866666666667E-05 
 3.1012079983381E+01  3.1012081425549E+01  3.1012087105137E+01  3.1012097022180E+01  3.1012111176741E+01  3.1012129568905E+01  3.1012152198788E+01  3.1012179066528E+01  3.1012210172293E+01  3.1012245516274E+01 
 1.3326255623713E+01  1.3326254181546E+01  1.3326248501957E+01  1.3326238584914E+01  1.3326224430353E+01  1.3326206038189E+01  1.3326183408306E+01  1.3326156540566E+01  1.3326125434801E+01  1.3326090090820E+01 
 0.0000000000000E+00  0.0000000000000E+00  0.0000000000000E+00  0.0000000000000E+00  0.0000000000000E+00  0.0000000000000E+00  0.0000000000000E+00  0.0000000000000E+00  0.0000000000000E+00  0.0000000000000E+00 
 0.0000000000000E+00  0.0000000000000E+00  0.0000000000000E+00  0.0000000000000E+00  0.0000000000000E+00  0.0000000000000E+00  0.0000000000000E+00  0.0000000000000E+00  0.0000000000000E+00  0.0000000000000E+00 
 0.0000000000000E+00  0.0000000000000E+00  0.0000000000000E+00  0.0000000000000E+00  0.0000000000000E+00  0.0000000000000E+00  0.0000000000000E+00  0.0000000000000E+00  0.0000000000000E+00  0.0000000000000E+00 
 0.0000000000000E+00  0.0000000000000E+00  0.0000000000000E+00  0.0000000000000E+00  0.0000000000000E+00  0.0000000000000E+00  0.0000000000000E+00  0.0000000000000E+00  0.0000000000000E+00  0.0000000000000E+00 
 0.0000000000000E+00  0.0000000000000E+00  0.0000000000000E+00  0.0000000000000E+00  0.0000000000000E+00  0.0000000000000E+00  0.0000000000000E+00  0.0000000000000E+00  0.0000000000000E+00  0.0000000000000E+00 
 0.0000000000000E+00  0.0000000000000E+00  0.0000000000000E+00  0.0000000000000E+00  0.0000000000000E+00  0.0000000000000E+00  0.0000000000000E+00  0.0000000000000E+00  0.0000000000000E+00  0.0000000000000E+00 
 0.0000000000000E+00  0.0000000000000E+00  0.0000000000000E+00  0.0000000000000E+00  0.0000000000000E+00  0.0000000000000E+00  0.0000000000000E+00  0.0000000000000E+00  0.0000000000000E+00  0.0000000000000E+00 
ZONE T = "CATH, 1.0000E-08", I = 10, SOLUTIONTIME = 1.000000E-08
ZONETYPE = ORDERED
DATAPACKING = BLOCK
STRANDID = 3
 1.2700000000000E-03  1.3377333333333E-03  1.4054666666667E-03  1.4732000000000E-03  1.5409333333333E-03  1.6086666666667E-03  1.6764000000000E-03  1.7441333333333E-03  1.8118666666667E-03  1.8796000000000E-03 
 1.9971207028934E-12  1.2696771990991E-12  9.0555241074021E-13 -1.8479529608121E-13 -1.8524573195894E-13 -1.8534052825715E-13  1.7820959673068E-13  5.4227847153411E-13  1.8053219974116E-13  1.8160386344100E-13 
 9.2000000685223E-01  9.2000001097351E-01  9.2000001460992E-01  9.2000001776144E-01  9.2000002042809E-01  9.2000002260988E-01  9.2000002430680E-01  9.2000002551887E-01  9.2000002624610E-01  9.2000002648850E-01 
 3.9999996573885E-02  3.9999994513243E-02  3.9999992695041E-02  3.9999991119278E-02  3.9999989785953E-02  3.9999988695062E-02  3.9999987846601E-02  3.9999987240566E-02  3.9999986876951E-02  3.9999986755748E-02 
 3.9999996573885E-02  3.9999994513243E-02  3.9999992695041E-02  3.9999991119278E-02  3.9999989785953E-02  3.9999988695062E-02  3.9999987846601E-02  3.9999987240566E-02  3.9999986876951E-02  3.9999986755748E-02 
 1.0307290113179E-02  1.0307290113185E-02  1.0307290113201E-02  1.0307290113227E-02  1.0307290113260E-02  1.0307290113298E-02  1.0307290113338E-02  1.0307290113373E-02  1.0307290113400E-02  1.0307290113411E-02 
 3.9130805843019E+00  3.9130805843010E+00  3.9130805842981E+00  3.9130805842935E+00  3.9130805842875E+00  3.9130805842807E+00  3.9130805842738E+00  3.9130805842674E+00  3.9130805842627E+00  3.9130805842607E+00 
 3.9027732941888E+00  3.9027732941878E+00  3.9027732941849E+00  3.9027732941802E+00  3.9027732941743E+00  3.9027732941674E+00  3.9027732941604E+00  3.9027732941540E+00  3.9027732941493E+00  3.9027732941473E+00 
 3.9027881867849E+00  3.9027881627299E+00  3.9027880720404E+00  3.9027879147158E+00  3.9027876907552E+00  3.9027874001572E+00  3.9027870429200E+00  3.9027866190412E+00  3.9027861285183E+00  3.9027855713482E+00 
-1.4892596118088E-05 -1.4868542091317E-05 -1.4777855502413E-05 -1.4620535584431E-05 -1.4396580996223E-05 -1.4105989823765E-05 -1.3748759579713E-05 -1.3324887201627E-05 -1.2834369055081E-05 -1.2277200930111E-05 
-1.3112075824621E-05 -2.6181789972962E-05 -2.6022082655918E-05 -2.5745028847203E-05 -2.5350627046083E-05 -2.4838875108105E-05 -2.4209770241105E-05 -2.3463309007440E-05 -2.2599487316702E-05 -1.0809150219078E-05 
 9.4021122148049E-10  8.2958523305227E-10  7.1895969975450E-10  6.0833659320890E-10  4.9771692988492E-10  3.8710175987027E-10  2.7649209088626E-10  1.6588898812515E-10  5.5293458431834E-11  5.5293458431834E-11 
 1.2360650631606E-05 -1.4916740712102E-06 -2.8922733993428E-06 -4.0742221869722E-06 -4.9201697593987E-06 -5.3128843431394E-06 -5.1346585769767E-06 -4.2679039866749E-06 -2.5955076669985E-06  0.0000000000000E+00 
 0.0000000000000E+00  1.5016507307836E-06  2.9022866314904E-06  4.0842288609597E-06  4.9301421658880E-06  5.3228630869006E-06  5.1445409889080E-06  4.2778406186068E-06  2.6055985166222E-06  1.2362510922401E-05 
 1.4407267233235E+04  2.8814543891428E+04  2.8814581009090E+04  2.8814645819682E+04  2.8814738323605E+04  2.8814858521431E+04  2.8815006413901E+04  2.8815182001933E+04  2.8815385286611E+04  1.4407808134596E+04 
 2.1651345927543E+04  4.3302701280044E+04  4.3302738397706E+04  4.3302803208298E+04  4.3302895712222E+04  4.3303015910047E+04  4.3303163802518E+04  4.3303339390549E+04  4.3303542675227E+04  2.1651886828904E+04 
 3.4852467890512E+04  6.9704926356066E+04  6.9704889238405E+04  6.9704824427812E+04  6.9704731923889E+04  6.9704611726064E+04  6.9704463833592E+04  6.9704288245562E+04  6.9704084960883E+04  3.4851926989151E+04 
 5.6503813818055E+04  1.1300762763611E+05  1.1300762763611E+05  1.1300762763611E+05  1.1300762763611E+05  1.1300762763611E+05  1.1300762763611E+05  1.1300762763611E+05  1.1300762763611E+05  5.6503813818055E+04 
 3.5000000000000E-01  3.5000000000000E-01  3.5000000000000E-01  3.5000000000000E-01  3.5000000000000E-01  3.5000000000000E-01  3.5000000000000E-01  3.5000000000000E-01  3.5000000000000E-01  3.5000000000000E-01 
 6.6040000000000E+00  1.3208000000000E+01  1.3208000000000E+01  1.3208000000000E+01  1.3208000000000E+01  1.3208000000000E+01  1.3208000000000E+01  1.3208000000000E+01  1.3208000000000E+01  6.6040000000000E+00 
-1.9854748371625E-06 -1.9822675630650E-06 -1.9701758522046E-06 -1.9491996401577E-06 -1.9193388133012E-06 -1.8805932092750E-06 -1.8329626166797E-06 -1.7764467752453E-06 -1.7110453752803E-06 -1.6367580586127E-06 
 3.3866666666667E-05  6.7733333333333E-05  6.7733333333334E-05  6.7733333333333E-05  6.7733333333334E-05  6.7733333333334E-05  6.7733333333333E-05  6.7733333333334E-05  6.7733333333333E-05  3.3866666666667E-05 
 3.1012079983381E+01  3.1012081425549E+01  3.1012087105137E+01  3.1012097022180E+01  3.1012111176741E+01  3.1012129568905E+01  3.1012152198788E+01  3.1012179066528E+01  3.1012210172293E+01  3.1012245516274E+01 
 1.3326255623713E+01  1.3326254181546E+01  1.3326248501957E+01  1.3326238584914E+01  1.3326224430353E+01  1.3326206038189E+01  1.3326183408306E+01  1.3326156540566E+01  1.3326125434801E+01  1.3326090090820E+01 
 1.1123104918848E-22  5.3785113869574E-22  1.7000467777500E-21  3.2531794789821E-21  4.6844543006709E-21  5.4378524123815E-21  5.0904448187379E-21  3.5854252872027E-21  1.5152503001390E-21  4.6300680925996E-22 
 1.1123104918848E-14  5.3785113869574E-14  1.7000467777500E-13  3.2531794789821E-13  4.6844543006709E-13  5.4378524123815E-13  5.0904448187379E-13  3.5854252872027E-13  1.5152503001390E-13  4.6300680925996E-14 
 6.0813589900613E-17  2.9866780714752E-16  9.4793028402576E-16  1.8171009468833E-15  2.6186208725497E-15  3.0406178486098E-15  2.8461177199638E-15  2.0032400703390E-15  8.4480939003291E-16  2.5651677708574E-16 
 1.1062291328947E-14  5.3486446062427E-14  1.6905674749097E-13  3.2350084695132E-13  4.6582680919454E-13  5.4074462338954E-13  5.0619836415383E-13  3.5653928864993E-13  1.5068022062387E-13  4.6044164148911E-14 
 0.0000000000000E+00  0.0000000000000E+00  0.0000000000000E+00  0.0000000000000E+00  0.0000000000000E+00  0.0000000000000E+00  0.0000000000000E+00  0.0000000000000E+00  0.0000000000000E+00  0.0000000000000E+00 
 0.0000000000000E+00  0.0000000000000E+00  0.0000000000000E+00  0.0000000000000E+00  0.0000000000000E+00  0.0000000000000E+00  0.0000000000000E+00  0.0000000000000E+00  0.0000000000000E+00  0.0000000000000E+00 
 0.0000000000000E+00  0.0000000000000E+00  0.0000000000000E+00  0.0000000000000E+00  0.0000000000000E+00  0.0000000000000E+00  0.0000000000000E+00  0.0000000000000E+00  0.0000000000000E+00  0.0000000000000E+00 
ZONE T = "CATH, 2.0000E-08", I = 10, SOLUTIONTIME = 2.000000E-08
ZONETYPE = ORDERED
DATAPACKING = BLOCK
STRANDID = 3
 1.2700000000000E-03  1.3377333333333E-03  1.4054666666667E-03  1.4732000000000E-03  1.5409333333333E-03  1.6086666666667E-03  1.6764000000000E-03  1.7441333333333E-03  1.8118666666667E-03  1.8796000000000E-03 
-2.3613650137302E-12 -2.3623929429784E-12 -2.0001022530073E-12 -1.2744114650607E-12 -2.0012777382548E-12 -2.0013732246067E-12 -2.0010318964580E-12 -2.0001722681954E-12 -1.6355051235868E-12 -1.8160386389166E-12 
 9.2000000685223E-01  9.2000001097351E-01  9.2000001460991E-01  9.2000001776144E-01  9.2000002042809E-01  9.2000002260987E-01  9.2000002430679E-01  9.2000002551886E-01  9.2000002624609E-01  9.2000002648850E-01 
 3.9999996573886E-02  3.9999994513246E-02  3.9999992695044E-02  3.9999991119281E-02  3.9999989785956E-02  3.9999988695065E-02  3.9999987846604E-02  3.9999987240569E-02  3.9999986876954E-02  3.9999986755752E-02 
 3.9999996573886E-02  3.9999994513246E-02  3.9999992695044E-02  3.9999991119281E-02  3.9999989785956E-02  3.9999988695065E-02  3.9999987846604E-02  3.9999987240569E-02  3.9999986876954E-02  3.9999986755752E-02 
 1.0307453068883E-02  1.0307453068889E-02  1.0307453068905E-02  1.0307453068931E-02  1.0307453068964E-02  1.0307453069002E-02  1.0307453069041E-02  1.0307453069077E-02  1.0307453069104E-02  1.0307453069115E-02 
 3.9130944845987E+00  3.9130944845977E+00  3.9130944845948E+00  3.9130944845902E+00  3.9130944845842E+00  3.9130944845774E+00  3.9130944845705E+00  3.9130944845641E+00  3.9130944845594E+00  3.9130944845574E+00 
 3.9027870315298E+00  3.9027870315288E+00  3.9027870315259E+00  3.9027870315212E+00  3.9027870315153E+00  3.9027870315084E+00  3.9027870315014E+00  3.9027870314950E+00  3.9027870314903E+00  3.9027870314883E+00 
 3.9027881867849E+00  3.9027881627299E+00  3.9027880720404E+00  3.9027879147158E+00  3.9027876907552E+00  3.9027874001572E+00  3.9027870429200E+00  3.9027866190413E+00  3.9027861285183E+00  3.9027855713482E+00 
-1.1552551137939E-06 -1.1312010887998E-06 -1.0405144990067E-06 -8.8319458058095E-07 -6.5923999237327E-07 -3.6864882080323E-07 -1.1418578083067E-08  4.1245379556187E-07  9.0297193588995E-07  1.4601400502023E-06 
-1.0171357841481E-06 -1.9919147875874E-06 -1.8322248359025E-06 -1.5552008656625E-06 -1.1608413772366E-06 -6.4914422688896E-07 -2.0106621252853E-08  7.2627487524090E-07  1.5900043513583E-06  1.2855432689269E-06 
 9.4021035268104E-10  8.2958528312731E-10  7.1895975397456E-10  6.0833664496441E-10  4.9771698208863E-10  3.8710180546441E-10  2.7649212459595E-10  1.6588900985788E-10  5.5293471202774E-11  5.5293471202774E-11 
 2.7569788796630E-07 -1.4815678781930E-06 -2.8819294140085E-06 -4.0639970984350E-06 -4.9104202567029E-06 -5.3037293225708E-06 -5.1268114166415E-06 -4.2620780646967E-06 -2.5921785687567E-06  0.0000000000000E+00 
 0.0000000000000E+00  1.5014789368549E-06  2.9019430436330E-06  4.0840570670310E-06  4.9304857537454E-06  5.3238938504728E-06  5.1467743099811E-06  4.2819636728956E-06  2.6121266859128E-06  2.7571995511621E-07 
 1.4407267233235E+04  2.8814543891428E+04  2.8814581009090E+04  2.8814645819682E+04  2.8814738323605E+04  2.8814858521431E+04  2.8815006413901E+04  2.8815182001933E+04  2.8815385286611E+04  1.4407808134596E+04 
 2.1651345927543E+04  4.3302701280044E+04  4.3302738397706E+04  4.3302803208298E+04  4.3302895712222E+04  4.3303015910047E+04  4.3303163802518E+04  4.3303339390549E+04  4.3303542675227E+04  2.1651886828904E+04 
 3.4852467890512E+04  6.9704926356066E+04  6.9704889238405E+04  6.9704824427812E+04  6.9704731923889E+04  6.9704611726064E+04  6.9704463833592E+04  6.9704288245562E+04  6.9704084960883E+04  3.4851926989151E+04 
 5.6503813818055E+04  1.1300762763611E+05  1.1300762763611E+05  1.1300762763611E+05  1.1300762763611E+05  1.1300762763611E+05  1.1300762763611E+05  1.1300762763611E+05  1.1300762763611E+05  5.6503813818055E+04 
 3.5000000000000E-01  3.5000000000000E-01  3.5000000000000E-01  3.5000000000000E-01  3.5000000000000E-01  3.5000000000000E-01  3.5000000000000E-01  3.5000000000000E-01  3.5000000000000E-01  3.5000000000000E-01 
 6.6040000000000E+00  1.3208000000000E+01  1.3208000000000E+01  1.3208000000000E+01  1.3208000000000E+01  1.3208000000000E+01  1.3208000000000E+01  1.3208000000000E+01  1.3208000000000E+01  6.6040000000000E+00 
-1.5401813812054E-07 -1.5081123467500E-07 -1.3872083857529E-07 -1.1774688564980E-07 -8.7889262358919E-08 -4.9147806396801E-08 -1.5223062729295E-09  5.4987498125446E-08  1.2038191636571E-07  1.9466130662128E-07 
 3.3866666666667E-05  6.7733333333333E-05  6.7733333333334E-05  6.7733333333333E-05  6.7733333333334E-05  6.7733333333334E-05  6.7733333333333E-05  6.7733333333334E-05  6.7733333333333E-05  3.3866666666667E-05 
 3.1012079983381E+01  3.1012081425549E+01  3.1012087105137E+01  3.1012097022180E+01  3.1012111176741E+01  3.1012129568905E+01  3.1012152198788E+01  3.1012179066528E+01  3.1012210172293E+01  3.1012245516274E+01 
 1.3326255623713E+01  1.3326254181546E+01  1.3326248501957E+01  1.3326238584914E+01  1.3326224430353E+01  1.3326206038189E+01  1.3326183408306E+01  1.3326156540566E+01  1.3326125434801E+01  1.3326090090820E+01 
 2.2244604016904E-22  1.0755227467910E-21  3.3996485064953E-21  6.5060360285313E-21  9.3694946004295E-21  1.0877703326288E-20  1.0185107507475E-20  7.1772865408834E-21  3.0364270526633E-21  9.3070408930737E-22 
 1.1121499098056E-14  5.3767160809527E-14  1.6996017287454E-13  3.2528565495493E-13  4.6850402997586E-13  5.4398509139066E-13  5.0946626887369E-13  3.5918612536807E-13  1.5211767525244E-13  4.6769728004740E-14 
 5.9207769108446E-17  2.9541256339544E-16  9.4148043922878E-16  1.8081652429707E-15  2.6083148414267E-15  3.0301548538541E-15  2.8373946535573E-15  1.9977449269513E-15  8.4262615241440E-16  2.5588476801984E-16 
 1.1062291328947E-14  5.3471748246132E-14  1.6901869243531E-13  3.2347748971196E-13  4.6589571513444E-13  5.4095493653680E-13  5.0662887422013E-13  3.5718838044112E-13  1.5127504910002E-13  4.6513843236721E-14 
 0.0000000000000E+00  0.0000000000000E+00  0.0000000000000E+00  0.0000000000000E+00  0.0000000000000E+00  0.0000000000000E+00  0.0000000000000E+00  0.0000000000000E+00  0.0000000000000E+00  0.0000000000000E+00 
 0.0000000000000E+00  0.0000000000000E+00  0.0000000000000E+00  0.0000000000000E+00  0.0000000000000E+00  0.0000000000000E+00  0.0000000000000E+00  0.0000000000000E+00  0.0000000000000E+00  0.0000000000000E+00 
 0.0000000000000E+00  0.0000000000000E+00  0.0000000000000E+00  0.0000000000000E+00  0.0000000000000E+00  0.0000000000000E+00  0.0000000000000E+00  0.0000000000000E+00  0.0000000000000E+00  0.0000000000000E+00 
ZONE T = "CATH, 3.0000E-08", I = 10, SOLUTIONTIME = 3.000000E-08
ZONETYPE = ORDERED
DATAPACKING = BLOCK
STRANDID = 3
 1.2700000000000E-03  1.3377333333333E-03  1.4054666666667E-03  1.4732000000000E-03  1.5409333333333E-03  1.6086666666667E-03  1.6764000000000E-03  1.7441333333333E-03  1.8118666666667E-03  1.8796000000000E-03 
-1.0901313892832E-12 -3.6474459776305E-13 -2.4546465632575E-15 -3.1800598436422E-15  7.2278382262367E-13  1.0858952958551E-12  7.2302811237708E-13  3.6067921044732E-13  3.6213780337883E-13  5.4481159168363E-13 
 9.2000000685223E-01  9.2000001097350E-01  9.2000001460991E-01  9.2000001776143E-01  9.2000002042808E-01  9.2000002260986E-01  9.2000002430678E-01  9.2000002551885E-01  9.2000002624609E-01  9.2000002648849E-01 
 3.9999996573887E-02  3.9999994513250E-02  3.9999992695047E-02  3.9999991119284E-02  3.9999989785959E-02  3.9999988695068E-02  3.9999987846608E-02  3.9999987240573E-02  3.9999986876957E-02  3.9999986755755E-02 
 3.9999996573887E-02  3.9999994513250E-02  3.9999992695047E-02  3.9999991119284E-02  3.9999989785959E-02  3.9999988695068E-02  3.9999987846608E-02  3.9999987240573E-02  3.9999986876957E-02  3.9999986755755E-02 
 1.0307459634379E-02  1.0307459634384E-02  1.0307459634400E-02  1.0307459634426E-02  1.0307459634460E-02  1.0307459634498E-02  1.0307459634537E-02  1.0307459634572E-02  1.0307459634599E-02  1.0307459634610E-02 
 3.9130950601002E+00  3.9130950600992E+00  3.9130950600963E+00  3.9130950600917E+00  3.9130950600858E+00  3.9130950600790E+00  3.9130950600720E+00  3.9130950600657E+00  3.9130950600609E+00  3.9130950600589E+00 
 3.9027876004658E+00  3.9027876004649E+00  3.9027876004619E+00  3.9027876004573E+00  3.9027876004513E+00  3.9027876004445E+00  3.9027876004375E+00  3.9027876004311E+00  3.9027876004263E+00  3.9027876004243E+00 
 3.9027881867849E+00  3.9027881627299E+00  3.9027880720404E+00  3.9027879147158E+00  3.9027876907553E+00  3.9027874001572E+00  3.9027870429200E+00  3.9027866190413E+00  3.9027861285184E+00  3.9027855713482E+00 
-5.8631904931161E-07 -5.6226502564982E-07 -4.7157843807710E-07 -3.1425852320410E-07 -9.0303939437320E-08  2.0028722591547E-07  5.5751746153021E-07  9.8138982629337E-07  1.4719079559633E-06  2.0290760573971E-06 
-5.1622025133793E-07 -9.9008392787051E-07 -8.3039469962280E-07 -5.5337197022215E-07 -1.5901424114118E-07  3.5268062906645E-07  9.8171543817342E-07  1.7280936175324E-06  2.5918192577953E-06  1.7864485439276E-06 
 9.4020947771032E-10  8.2958533119591E-10  7.1895978723605E-10  6.0833667991629E-10  4.9771700919866E-10  3.8710182843933E-10  2.7649213770276E-10  1.6588901848380E-10  5.5293477812343E-11  5.5293477812343E-11 
-2.1546814077630E-07 -1.4725317526831E-06 -2.8740822527380E-06 -4.0572200048612E-06 -4.9047132307112E-06 -5.2990923640688E-06 -5.1232445255743E-06 -4.2597001373552E-06 -2.5909896050950E-06  0.0000000000000E+00 
 0.0000000000000E+00  1.5025097004271E-06  2.9040045707774E-06  4.0871493577476E-06  4.9347806019629E-06  5.3292194622626E-06  5.1531306853431E-06  4.2895226057585E-06  2.6210599702053E-06 -2.1556485987719E-07 
 1.4407267233235E+04  2.8814543891428E+04  2.8814581009090E+04  2.8814645819682E+04  2.8814738323605E+04  2.8814858521431E+04  2.8815006413901E+04  2.8815182001933E+04  2.8815385286611E+04  1.4407808134596E+04 
 2.1651345927543E+04  4.3302701280044E+04  4.3302738397706E+04  4.3302803208298E+04  4.3302895712222E+04  4.3303015910047E+04  4.3303163802518E+04  4.3303339390549E+04  4.3303542675227E+04  2.1651886828904E+04 
 3.4852467890512E+04  6.9704926356066E+04  6.9704889238405E+04  6.9704824427812E+04  6.9704731923889E+04  6.9704611726064E+04  6.9704463833592E+04  6.9704288245562E+04  6.9704084960883E+04  3.4851926989151E+04 
 5.6503813818055E+04  1.1300762763611E+05  1.1300762763611E+05  1.1300762763611E+05  1.1300762763611E+05  1.1300762763611E+05  1.1300762763611E+05  1.1300762763611E+05  1.1300762763611E+05  5.6503813818055E+04 
 3.5000000000000E-01  3.5000000000000E-01  3.5000000000000E-01  3.5000000000000E-01  3.5000000000000E-01  3.5000000000000E-01  3.5000000000000E-01  3.5000000000000E-01  3.5000000000000E-01  3.5000000000000E-01 
 6.6040000000000E+00  1.3208000000000E+01  1.3208000000000E+01  1.3208000000000E+01  1.3208000000000E+01  1.3208000000000E+01  1.3208000000000E+01  1.3208000000000E+01  1.3208000000000E+01  6.6040000000000E+00 
-7.8167815163224E-08 -7.4960927306974E-08 -6.2870585979921E-08 -4.1896727000465E-08 -1.2039236912567E-08  2.6702046416297E-08  7.4327334810223E-08  1.3083688806272E-07  1.9623101588395E-07  2.7051007630643E-07 
 3.3866666666667E-05  6.7733333333333E-05  6.7733333333334E-05  6.7733333333333E-05  6.7733333333334E-05  6.7733333333334E-05  6.7733333333333E-05  6.7733333333334E-05  6.7733333333333E-05  3.3866666666667E-05 
 3.1012079983381E+01  3.1012081425549E+01  3.1012087105137E+01  3.1012097022180E+01  3.1012111176741E+01  3.1012129568905E+01  3.1012152198788E+01  3.1012179066528E+01  3.1012210172293E+01  3.1012245516274E+01 
 1.3326255623713E+01  1.3326254181546E+01  1.3326248501957E+01  1.3326238584914E+01  1.3326224430353E+01  1.3326206038189E+01  1.3326183408306E+01  1.3326156540566E+01  1.3326125434801E+01  1.3326090090820E+01 
 3.3374542522859E-22  1.6139517902891E-21  5.1015728599417E-21  9.7637925471505E-21  1.4062623940172E-20  1.6328341142626E-20  1.5292175435811E-20  1.0781326425029E-20  4.5662414577678E-21  1.4041490024243E-21 
 1.1129938505955E-14  5.3842904349811E-14  1.7019243534464E-13  3.2577565186192E-13  4.6931293397422E-13  5.4506378163380E-13  5.1070679283366E-13  3.6040398841456E-13  1.5298144051044E-13  4.7344491311695E-14 
 5.7660906851577E-17  2.9265136001118E-16  9.3668331823003E-16  1.8023043016107E-15  2.6023150910065E-15  3.0248684737464E-15  2.8334317892399E-15  1.9954673288745E-15  8.4185479513755E-16  2.5564796559379E-16 
 1.1072277599104E-14  5.3550252989800E-14  1.6925575202641E-13  3.2397334756031E-13  4.6671061888321E-13  5.4203891316006E-13  5.0787336104442E-13  3.5840852108568E-13  1.5213958571530E-13  4.7088843346101E-14 
 0.0000000000000E+00  0.0000000000000E+00  0.0000000000000E+00  0.0000000000000E+00  0.0000000000000E+00  0.0000000000000E+00  0.0000000000000E+00  0.0000000000000E+00  0.0000000000000E+00  0.0000000000000E+00 
 0.0000000000000E+00  0.0000000000000E+00  0.0000000000000E+00  0.0000000000000E+00  0.0000000000000E+00  0.0000000000000E+00  0.0000000000000E+00  0.0000000000000E+00  0.0000000000000E+00  0.0000000000000E+00 
 0.0000000000000E+00  0.0000000000000E+00  0.0000000000000E+00  0.0000000000000E+00  0.0000000000000E+00  0.0000000000000E+00  0.0000000000000E+00  0.0000000000000E+00  0.0000000000000E+00  0.0000000000000E+00 
ZONE T = "CATH, 4.0000E-08", I = 10, SOLUTIONTIME = 4.000000E-08
ZONETYPE = ORDERED
DATAPACKING = BLOCK
STRANDID = 3
 1.2700000000000E-03  1.3377333333333E-03  1.4054666666667E-03  1.4732000000000E-03  1.5409333333333E-03  1.6086666666667E-03  1.6764000000000E-03  1.7441333333333E-03  1.8118666666667E-03  1.8796000000000E-03 
 7.2591379923048E-13 -1.5311087914687E-15 -7.2886512752727E-13 -1.0927990520206E-12 -1.0932514040561E-12 -1.0933484317102E-12 -7.2980092555639E-13 -3.6573512934771E-13 -1.0695562137497E-15  9.9823090035391E-25 
 9.2000000685222E-01  9.2000001097349E-01  9.2000001460990E-01  9.2000001776143E-01  9.2000002042808E-01  9.2000002260986E-01  9.2000002430678E-01  9.2000002551885E-01  9.2000002624608E-01  9.2000002648848E-01 
 3.9999996573888E-02  3.9999994513253E-02  3.9999992695050E-02  3.9999991119287E-02  3.9999989785962E-02  3.9999988695071E-02  3.9999987846611E-02  3.9999987240576E-02  3.9999986876960E-02  3.9999986755758E-02 
 3.9999996573888E-02  3.9999994513253E-02  3.9999992695050E-02  3.9999991119287E-02  3.9999989785962E-02  3.9999988695071E-02  3.9999987846611E-02  3.9999987240576E-02  3.9999986876960E-02  3.9999986755758E-02 
 1.0307456612130E-02  1.0307456612135E-02  1.0307456612151E-02  1.0307456612177E-02  1.0307456612210E-02  1.0307456612248E-02  1.0307456612287E-02  1.0307456612323E-02  1.0307456612350E-02  1.0307456612361E-02 
 3.9130947950319E+00  3.9130947950309E+00  3.9130947950280E+00  3.9130947950234E+00  3.9130947950174E+00  3.9130947950106E+00  3.9130947950036E+00  3.9130947949973E+00  3.9130947949925E+00  3.9130947949905E+00 
 3.9027873384198E+00  3.9027873384188E+00  3.9027873384159E+00  3.9027873384112E+00  3.9027873384052E+00  3.9027873383984E+00  3.9027873383914E+00  3.9027873383850E+00  3.9027873383802E+00  3.9027873383781E+00 
 3.9027881867849E+00  3.9027881627299E+00  3.9027880720404E+00  3.9027879147158E+00  3.9027876907553E+00  3.9027874001573E+00  3.9027870429200E+00  3.9027866190413E+00  3.9027861285184E+00  3.9027855713482E+00 
-8.4836512836972E-07 -8.2431110648429E-07 -7.3362452113201E-07 -5.7630460981173E-07 -3.5235003137402E-07 -6.1758872238471E-08  2.9547135538266E-07  7.1934370993176E-07  1.2098618284995E-06  1.7670299183870E-06 
-7.4693677527347E-07 -1.4515168858678E-06 -1.2918273296340E-06 -1.0148040377750E-06 -6.2044551171400E-07 -1.0874960661163E-07  5.2028646870815E-07  1.2666661532240E-06  2.1303935331902E-06  1.5557366687829E-06 