TITLE = "Solution on Domain BulkDomain1D_1"
VARIABLES = "x [m]"  
"Vel_axial" 	"MF_sp(ECDMC)" 	"MF_sp(Li+)" 	"MF_sp(PF6-)" 	"Volt(Electroly)" 	"Porosity []" 	"Control volume thickness [m]" 	"volFrac MgO(S) []" 	"qHeat_accum [J/m3]" 	"qHeat_step [W/m3]" 	"Joule_Lyte [W/m3]" 	"Joule_Solid [W/m3]" 	
ZONE T = "SEP , 0.0000E+00", I = 10, SOLUTIONTIME = 0.000000E+00
ZONETYPE = ORDERED
DATAPACKING = BLOCK
STRANDID = 2
 7.8740000000000E-04  8.4102222222222E-04  8.9464444444444E-04  9.4826666666667E-04  1.0018888888889E-03  1.0555111111111E-03  1.1091333333333E-03  1.1627555555556E-03  1.2163777777778E-03  1.2700000000000E-03 
 1.4500046074539E-10  1.4500046074539E-10  1.4500046074539E-10  1.4500046074539E-10  1.4500046074539E-10  1.4500046074539E-10  1.4500046074539E-10  1.4500046074539E-10  1.4500046074539E-10  1.3694448462157E-10 
 9.1999999800653E-01  9.1999999898939E-01  9.1999999997225E-01  9.2000000095510E-01  9.2000000193796E-01  9.2000000292081E-01  9.2000000390367E-01  9.2000000488652E-01  9.2000000586938E-01  9.2000000685223E-01 
 4.0000000996733E-02  4.0000000505305E-02  4.0000000013877E-02  3.9999999522450E-02  3.9999999031022E-02  3.9999998539594E-02  3.9999998048167E-02  3.9999997556739E-02  3.9999997065311E-02  3.9999996573884E-02 
 4.0000000996733E-02  4.0000000505305E-02  4.0000000013877E-02  3.9999999522450E-02  3.9999999031022E-02  3.9999998539594E-02  3.9999998048167E-02  3.9999997556739E-02  3.9999997065311E-02  3.9999996573884E-02 
 1.0249111342458E-02  1.0249110999359E-02  1.0249110656260E-02  1.0249110313161E-02  1.0249109970062E-02  1.0249109626963E-02  1.0249109283864E-02  1.0249108940765E-02  1.0249108597666E-02  1.0249108254567E-02 
 8.0911139820575E-01  8.0911139820575E-01  8.0911139820575E-01  8.0911139820575E-01  8.0911139820575E-01  8.0911139820575E-01  8.0911139820575E-01  8.0911139820575E-01  8.0911139820575E-01  8.0911139820575E-01 
 2.6811111111111E-05  5.3622222222222E-05  5.3622222222222E-05  5.3622222222222E-05  5.3622222222222E-05  5.3622222222222E-05  5.3622222222222E-05  5.3622222222223E-05  5.3622222222222E-05  2.6811111111111E-05 
 1.9088860179425E-01  1.9088860179425E-01  1.9088860179425E-01  1.9088860179425E-01  1.9088860179425E-01  1.9088860179425E-01  1.9088860179425E-01  1.9088860179425E-01  1.9088860179425E-01  1.9088860179425E-01 
 0.0000000000000E+00  0.0000000000000E+00  0.0000000000000E+00  0.0000000000000E+00  0.0000000000000E+00  0.0000000000000E+00  0.0000000000000E+00  0.0000000000000E+00  0.0000000000000E+00  0.0000000000000E+00 
 0.0000000000000E+00  0.0000000000000E+00  0.0000000000000E+00  0.0000000000000E+00  0.0000000000000E+00  0.0000000000000E+00  0.0000000000000E+00  0.0000000000000E+00  0.0000000000000E+00  0.0000000000000E+00 
 0.0000000000000E+00  0.0000000000000E+00  0.0000000000000E+00  0.0000000000000E+00  0.0000000000000E+00  0.0000000000000E+00  0.0000000000000E+00  0.0000000000000E+00  0.0000000000000E+00  0.0000000000000E+00 
 0.0000000000000E+00  0.0000000000000E+00  0.0000000000000E+00  0.0000000000000E+00  0.0000000000000E+00  0.0000000000000E+00  0.0000000000000E+00  0.0000000000000E+00  0.0000000000000E+00  0.0000000000000E+00 
ZONE T = "SEP , 1.0000E-08", I = 10, SOLUTIONTIME = 1.000000E-08
ZONETYPE = ORDERED
DATAPACKING = BLOCK
STRANDID = 2
 7.8740000000000E-04  8.4102222222222E-04  8.9464444444444E-04  9.4826666666667E-04  1.0018888888889E-03  1.0555111111111E-03  1.1091333333333E-03  1.1627555555556E-03  1.2163777777778E-03  1.2700000000000E-03 
 3.6321467138185E-13  3.6321467138185E-13  3.6321467138196E-13  3.6321467138196E-13  3.6321467138196E-13  3.6321467138196E-13  3.6321467138196E-13  3.6321467138229E-13  3.6321467138207E-13  1.9971207028934E-12 
 9.1999999800654E-01  9.1999999898939E-01  9.1999999997225E-01  9.2000000095510E-01  9.2000000193796E-01  9.2000000292081E-01  9.2000000390367E-01  9.2000000488652E-01  9.2000000586938E-01  9.2000000685223E-01 
 4.0000000996732E-02  4.0000000505305E-02  4.0000000013877E-02  3.9999999522450E-02  3.9999999031022E-02  3.9999998539594E-02  3.9999998048167E-02  3.9999997556739E-02  3.9999997065311E-02  3.9999996573885E-02 
 4.0000000996732E-02  4.0000000505305E-02  4.0000000013877E-02  3.9999999522450E-02  3.9999999031022E-02  3.9999998539594E-02  3.9999998048167E-02  3.9999997556739E-02  3.9999997065311E-02  3.9999996573885E-02 
 1.0307290113179E-02  1.0307290113179E-02  1.0307290113179E-02  1.0307290113179E-02  1.0307290113179E-02  1.0307290113179E-02  1.0307290113179E-02  1.0307290113179E-02  1.0307290113179E-02  1.0307290113179E-02 
 8.0911139820575E-01  8.0911139820575E-01  8.0911139820575E-01  8.0911139820575E-01  8.0911139820575E-01  8.0911139820575E-01  8.0911139820575E-01  8.0911139820575E-01  8.0911139820575E-01  8.0911139820575E-01 
 2.6811111111111E-05  5.3622222222222E-05  5.3622222222222E-05  5.3622222222222E-05  5.3622222222222E-05  5.3622222222222E-05  5.3622222222222E-05  5.3622222222223E-05  5.3622222222222E-05  2.6811111111111E-05 
 1.9088860179425E-01  1.9088860179425E-01  1.9088860179425E-01  1.9088860179425E-01  1.9088860179425E-01  1.9088860179425E-01  1.9088860179425E-01  1.9088860179425E-01  1.9088860179425E-01  1.9088860179425E-01 
 2.7665418452500E-29  3.0910127945197E-29  3.0910127654728E-29  2.7665417755375E-29  3.0910126828506E-29  3.0910126392802E-29  3.0910126037785E-29  3.0910125689222E-29  3.0910125269656E-29  3.4154834468656E-29 
 2.7665418452500E-21  3.0910127945197E-21  3.0910127654728E-21  2.7665417755375E-21  3.0910126828506E-21  3.0910126392802E-21  3.0910126037785E-21  3.0910125689222E-21  3.0910125269656E-21  3.4154834468656E-21 
 2.7665418452500E-21  3.0910127945197E-21  3.0910127654728E-21  2.7665417755375E-21  3.0910126828506E-21  3.0910126392802E-21  3.0910126037785E-21  3.0910125689222E-21  3.0910125269656E-21  3.4154834468656E-21 
 0.0000000000000E+00  0.0000000000000E+00  0.0000000000000E+00  0.0000000000000E+00  0.0000000000000E+00  0.0000000000000E+00  0.0000000000000E+00  0.0000000000000E+00  0.0000000000000E+00  0.0000000000000E+00 
ZONE T = "SEP , 2.0000E-08", I = 10, SOLUTIONTIME = 2.000000E-08
ZONETYPE = ORDERED
DATAPACKING = BLOCK
STRANDID = 2
 7.8740000000000E-04  8.4102222222222E-04  8.9464444444444E-04  9.4826666666667E-04  1.0018888888889E-03  1.0555111111111E-03  1.1091333333333E-03  1.1627555555556E-03  1.2163777777778E-03  1.2700000000000E-03 
-2.3608363424713E-12 -2.3608363424713E-12 -2.3608363424712E-12 -2.3608363424712E-12 -2.3608363424712E-12 -2.3608363424712E-12 -2.3608363424712E-12 -2.3608363424709E-12 -2.3608363424711E-12 -2.3613650137302E-12 
 9.1999999800654E-01  9.1999999898939E-01  9.1999999997225E-01  9.2000000095510E-01  9.2000000193796E-01  9.2000000292081E-01  9.2000000390367E-01  9.2000000488652E-01  9.2000000586938E-01  9.2000000685223E-01 
 4.0000000996731E-02  4.0000000505305E-02  4.0000000013877E-02  3.9999999522450E-02  3.9999999031022E-02  3.9999998539594E-02  3.9999998048167E-02  3.9999997556739E-02  3.9999997065311E-02  3.9999996573886E-02 
 4.0000000996731E-02  4.0000000505305E-02  4.0000000013877E-02  3.9999999522450E-02  3.9999999031022E-02  3.9999998539594E-02  3.9999998048167E-02  3.9999997556739E-02  3.9999997065311E-02  3.9999996573886E-02 
 1.0307453068883E-02  1.0307453068883E-02  1.0307453068883E-02  1.0307453068883E-02  1.0307453068883E-02  1.0307453068883E-02  1.0307453068883E-02  1.0307453068883E-02  1.0307453068883E-02  1.0307453068883E-02 
 8.0911139820575E-01  8.0911139820575E-01  8.0911139820575E-01  8.0911139820575E-01  8.0911139820575E-01  8.0911139820575E-01  8.0911139820575E-01  8.0911139820575E-01  8.0911139820575E-01  8.0911139820575E-01 
 2.6811111111111E-05  5.3622222222222E-05  5.3622222222222E-05  5.3622222222222E-05  5.3622222222222E-05  5.3622222222222E-05  5.3622222222222E-05  5.3622222222223E-05  5.3622222222222E-05  2.6811111111111E-05 
 1.9088860179425E-01  1.9088860179425E-01  1.9088860179425E-01  1.9088860179425E-01  1.9088860179425E-01  1.9088860179425E-01  1.9088860179425E-01  1.9088860179425E-01  1.9088860179425E-01  1.9088860179425E-01 
 1.5096438273161E-28  1.5420909154977E-28  1.5420908966495E-28  1.5096437810993E-28  1.5420908565003E-28  1.5420908368129E-28  1.5420908185457E-28  1.5420907997297E-28  1.5420907814302E-28  1.5745378672881E-28 
 1.2329896427911E-20  1.2329896360457E-20  1.2329896201022E-20  1.2329896035455E-20  1.2329895882152E-20  1.2329895728849E-20  1.2329895581678E-20  1.2329895428375E-20  1.2329895287336E-20  1.2329895226015E-20 
 1.2329896427911E-20  1.2329896360457E-20  1.2329896201022E-20  1.2329896035455E-20  1.2329895882152E-20  1.2329895728849E-20  1.2329895581678E-20  1.2329895428375E-20  1.2329895287336E-20  1.2329895226015E-20 
 0.0000000000000E+00  0.0000000000000E+00  0.0000000000000E+00  0.0000000000000E+00  0.0000000000000E+00  0.0000000000000E+00  0.0000000000000E+00  0.0000000000000E+00  0.0000000000000E+00  0.0000000000000E+00 
ZONE T = "SEP , 3.0000E-08", I = 10, SOLUTIONTIME = 3.000000E-08
ZONETYPE = ORDERED
DATAPACKING = BLOCK
STRANDID = 2
 7.8740000000000E-04  8.4102222222222E-04  8.9464444444444E-04  9.4826666666667E-04  1.0018888888889E-03  1.0555111111111E-03  1.1091333333333E-03  1.1627555555556E-03  1.2163777777778E-03  1.2700000000000E-03 
 2.0832193702319E-17  2.0832193702521E-17  2.0832193812381E-17  2.0832193811977E-17  2.0832193811977E-17  2.0832193812381E-17  2.0832193811977E-17  2.0832194141153E-17  2.0832193920222E-17 -1.0901313892832E-12 
 9.1999999800654E-01  9.1999999898939E-01  9.1999999997225E-01  9.2000000095510E-01  9.2000000193796E-01  9.2000000292081E-01  9.2000000390367E-01  9.2000000488652E-01  9.2000000586938E-01  9.2000000685223E-01 
 4.0000000996730E-02  4.0000000505305E-02  4.0000000013877E-02  3.9999999522450E-02  3.9999999031022E-02  3.9999998539594E-02  3.9999998048167E-02  3.9999997556739E-02  3.9999997065311E-02  3.9999996573887E-02 
 4.0000000996730E-02  4.0000000505305E-02  4.0000000013877E-02  3.9999999522450E-02  3.9999999031022E-02  3.9999998539594E-02  3.9999998048167E-02  3.9999997556739E-02  3.9999997065311E-02  3.9999996573887E-02 
 1.0307459634379E-02  1.0307459634379E-02  1.0307459634379E-02  1.0307459634379E-02  1.0307459634379E-02  1.0307459634379E-02  1.0307459634379E-02  1.0307459634379E-02  1.0307459634379E-02  1.0307459634379E-02 
 8.0911139820575E-01  8.0911139820575E-01  8.0911139820575E-01  8.0911139820575E-01  8.0911139820575E-01  8.0911139820575E-01  8.0911139820575E-01  8.0911139820575E-01  8.0911139820575E-01  8.0911139820575E-01 
 2.6811111111111E-05  5.3622222222222E-05  5.3622222222222E-05  5.3622222222222E-05  5.3622222222222E-05  5.3622222222222E-05  5.3622222222222E-05  5.3622222222223E-05  5.3622222222222E-05  2.6811111111111E-05 
 1.9088860179425E-01  1.9088860179425E-01  1.9088860179425E-01  1.9088860179425E-01  1.9088860179425E-01  1.9088860179425E-01  1.9088860179425E-01  1.9088860179425E-01  1.9088860179425E-01  1.9088860179425E-01 
 4.1873831012435E-28  4.2198301758699E-28  4.3171714111098E-28  4.2847242630270E-28  4.3171713028617E-28  4.3171712470271E-28  4.2198299135443E-28  4.3171711421355E-28  4.3171710913035E-28  4.2522768827628E-28 
 2.6777392739275E-20  2.6777392603722E-20  2.7750805144603E-20  2.7750804819277E-20  2.7750804463614E-20  2.7750804102142E-20  2.6777390949986E-20  2.7750803424058E-20  2.7750803098733E-20  2.6777390154747E-20 
 2.6777392739275E-20  2.6777392603722E-20  2.7750805144603E-20  2.7750804819277E-20  2.7750804463614E-20  2.7750804102142E-20  2.6777390949986E-20  2.7750803424058E-20  2.7750803098733E-20  2.6777390154747E-20 
 0.0000000000000E+00  0.0000000000000E+00  0.0000000000000E+00  0.0000000000000E+00  0.0000000000000E+00  0.0000000000000E+00  0.0000000000000E+00  0.0000000000000E+00  0.0000000000000E+00  0.0000000000000E+00 
ZONE T = "SEP , 4.0000E-08", I = 10, SOLUTIONTIME = 4.000000E-08
ZONETYPE = ORDERED
DATAPACKING = BLOCK
STRANDID = 2
 7.8740000000000E-04  8.4102222222222E-04  8.9464444444444E-04  9.4826666666667E-04  1.0018888888889E-03  1.0555111111111E-03  1.1091333333333E-03  1.1627555555556E-03  1.2163777777778E-03  1.2700000000000E-03 
 1.8163164013192E-13  1.8163164013192E-13  1.8163164013203E-13  1.8163164013203E-13  1.8163164013203E-13  1.8163164013203E-13  1.8163164013203E-13  1.8163164013236E-13  1.8163164013213E-13  7.2591379923048E-13 
 9.1999999800654E-01  9.1999999898939E-01  9.1999999997225E-01  9.2000000095510E-01  9.2000000193796E-01  9.2000000292081E-01  9.2000000390367E-01  9.2000000488652E-01  9.2000000586938E-01  9.2000000685222E-01 
 4.0000000996729E-02  4.0000000505305E-02  4.0000000013877E-02  3.9999999522450E-02  3.9999999031022E-02  3.9999998539594E-02  3.9999998048167E-02  3.9999997556739E-02  3.9999997065311E-02  3.9999996573888E-02 
 4.0000000996729E-02  4.0000000505305E-02  4.0000000013877E-02  3.9999999522450E-02  3.9999999031022E-02  3.9999998539594E-02  3.9999998048167E-02  3.9999997556739E-02  3.9999997065311E-02  3.9999996573888E-02 
 1.0307456612130E-02  1.0307456612130E-02  1.0307456612130E-02  1.0307456612130E-02  1.0307456612130E-02  1.0307456612130E-02  1.0307456612130E-02  1.0307456612130E-02  1.0307456612130E-02  1.0307456612130E-02 
 8.0911139820575E-01  8.0911139820575E-01  8.0911139820575E-01  8.0911139820575E-01  8.0911139820575E-01  8.0911139820575E-01  8.0911139820575E-01  8.0911139820575E-01  8.0911139820575E-01  8.0911139820575E-01 
 2.6811111111111E-05  5.3622222222222E-05  5.3622222222222E-05  5.3622222222222E-05  5.3622222222222E-05  5.3622222222222E-05  5.3622222222222E-05  5.3622222222223E-05  5.3622222222222E-05  2.6811111111111E-05 
 1.9088860179425E-01  1.9088860179425E-01  1.9088860179425E-01  1.9088860179425E-01  1.9088860179425E-01  1.9088860179425E-01  1.9088860179425E-01  1.9088860179425E-01  1.9088860179425E-01  1.9088860179425E-01 
 9.1193416675022E-28  9.1517887139208E-28  9.2491298890658E-28  9.2166826821147E-28  9.2491296618546E-28  9.2491295422460E-28  9.1517881511212E-28  9.2491293183912E-28  9.1210485742372E-28  8.9280737067144E-28 
 4.9319585662586E-20  4.9319585380508E-20  4.9319584779561E-20  4.9319584190877E-20  4.9319583589929E-20  4.9319582952189E-20  4.9319582375769E-20  4.9319581762557E-20  4.8038774829337E-20  4.6757968239516E-20 
 4.9319585662586E-20  4.9319585380508E-20  4.9319584779561E-20  4.9319584190877E-20  4.9319583589929E-20  4.9319582952189E-20  4.9319582375769E-20  4.9319581762557E-20  4.8038774829337E-20  4.6757968239516E-20 
 0.0000000000000E+00  0.0000000000000E+00  0.0000000000000E+00  0.0000000000000E+00  0.0000000000000E+00  0.0000000000000E+00  0.0000000000000E+00  0.0000000000000E+00  0.0000000000000E+00  0.0000000000000E+00 
ZONE T = "SEP , 5.5000E-08", I = 10, SOLUTIONTIME = 5.500000E-08
ZONETYPE = ORDERED
DATAPACKING = BLOCK
STRANDID = 2
 7.8740000000000E-04  8.4102222222222E-04  8.9464444444444E-04  9.4826666666667E-04  1.0018888888889E-03  1.0555111111111E-03  1.1091333333333E-03  1.1627555555556E-03  1.2163777777778E-03  1.2700000000000E-03 
-1.0895849910157E-12 -1.0895849910157E-12 -1.0895849910156E-12 -1.0895849910156E-12 -1.0895849910156E-12 -1.0895849910156E-12 -1.0895849910156E-12 -1.0895849910154E-12 -1.0895849910156E-12 -1.0901150030891E-12 
 9.1999999800655E-01  9.1999999898939E-01  9.1999999997225E-01  9.2000000095510E-01  9.2000000193796E-01  9.2000000292081E-01  9.2000000390367E-01  9.2000000488652E-01  9.2000000586938E-01  9.2000000685222E-01 
 4.0000000996727E-02  4.0000000505305E-02  4.0000000013877E-02  3.9999999522450E-02  3.9999999031022E-02  3.9999998539594E-02  3.9999998048167E-02  3.9999997556739E-02  3.9999997065311E-02  3.9999996573890E-02 
 4.0000000996727E-02  4.0000000505305E-02  4.0000000013877E-02  3.9999999522450E-02  3.9999999031022E-02  3.9999998539594E-02  3.9999998048167E-02  3.9999997556739E-02  3.9999997065311E-02  3.9999996573890E-02 
 1.0307456323436E-02  1.0307456323436E-02  1.0307456323436E-02  1.0307456323436E-02  1.0307456323436E-02  1.0307456323435E-02  1.0307456323435E-02  1.0307456323435E-02  1.0307456323435E-02  1.0307456323435E-02 
 8.0911139820575E-01  8.0911139820575E-01  8.0911139820575E-01  8.0911139820575E-01  8.0911139820575E-01  8.0911139820575E-01  8.0911139820575E-01  8.0911139820575E-01  8.0911139820575E-01  8.0911139820575E-01 
 2.6811111111111E-05  5.3622222222222E-05  5.3622222222222E-05  5.3622222222222E-05  5.3622222222222E-05  5.3622222222222E-05  5.3622222222222E-05  5.3622222222223E-05  5.3622222222222E-05  2.6811111111111E-05 
 1.9088860179425E-01  1.9088860179425E-01  1.9088860179425E-01  1.9088860179425E-01  1.9088860179425E-01  1.9088860179425E-01  1.9088860179425E-01  1.9088860179425E-01  1.9088860179425E-01  1.9088860179425E-01 
 2.2972543846098E-27  2.3004990811960E-27  2.3102331818440E-27  2.3338853778303E-27  2.3371300591895E-27  2.3102330965623E-27  2.3004989405833E-27  2.3102330396885E-27  2.2974249481548E-27  2.2781274535986E-27 
 9.2354681190641E-20  9.2354680653596E-20  9.2354679529159E-20  9.4147807307921E-20  9.4147806200267E-20  9.2354676155847E-20  9.2354675031410E-20  9.2354673856623E-20  9.2354672715404E-20  9.2354672195142E-20 
 9.2354681190641E-20  9.2354680653596E-20  9.2354679529159E-20  9.4147807307921E-20  9.4147806200267E-20  9.2354676155847E-20  9.2354675031410E-20  9.2354673856623E-20  9.2354672715404E-20  9.2354672195142E-20 
 0.0000000000000E+00  0.0000000000000E+00  0.0000000000000E+00  0.0000000000000E+00  0.0000000000000E+00  0.0000000000000E+00  0.0000000000000E+00  0.0000000000000E+00  0.0000000000000E+00  0.0000000000000E+00 
ZONE T = "SEP , 7.7500E-08", I = 10, SOLUTIONTIME = 7.750000E-08
ZONETYPE = ORDERED
DATAPACKING = BLOCK
STRANDID = 2
 7.8740000000000E-04  8.4102222222222E-04  8.9464444444444E-04  9.4826666666667E-04  1.0018888888889E-03  1.0555111111111E-03  1.1091333333333E-03  1.1627555555556E-03  1.2163777777778E-03  1.2700000000000E-03 
 1.1300334140133E-12  1.1300334140133E-12  1.1300334140133E-12  1.1300334140133E-12  1.1300334140133E-12  1.1300334140133E-12  1.1300334140133E-12  1.1300334140135E-12  1.1300334140134E-12  1.3716410193683E-12 
 9.1999999800655E-01  9.1999999898939E-01  9.1999999997225E-01  9.2000000095510E-01  9.2000000193796E-01  9.2000000292081E-01  9.2000000390367E-01  9.2000000488652E-01  9.2000000586938E-01  9.2000000685222E-01 
 4.0000000996725E-02  4.0000000505305E-02  4.0000000013877E-02  3.9999999522450E-02  3.9999999031022E-02  3.9999998539594E-02  3.9999998048167E-02  3.9999997556739E-02  3.9999997065311E-02  3.9999996573892E-02 
 4.0000000996725E-02  4.0000000505305E-02  4.0000000013877E-02  3.9999999522450E-02  3.9999999031022E-02  3.9999998539594E-02  3.9999998048167E-02  3.9999997556739E-02  3.9999997065311E-02  3.9999996573892E-02 
 1.0307456394095E-02  1.0307456394095E-02  1.0307456394095E-02  1.0307456394095E-02  1.0307456394095E-02  1.0307456394095E-02  1.0307456394095E-02  1.0307456394095E-02  1.0307456394094E-02  1.0307456394094E-02 
 8.0911139820575E-01  8.0911139820575E-01  8.0911139820575E-01  8.0911139820575E-01  8.0911139820575E-01  8.0911139820575E-01  8.0911139820575E-01  8.0911139820575E-01  8.0911139820575E-01  8.0911139820575E-01 
 2.6811111111111E-05  5.3622222222222E-05  5.3622222222222E-05  5.3622222222222E-05  5.3622222222222E-05  5.3622222222222E-05  5.3622222222222E-05  5.3622222222223E-05  5.3622222222222E-05  2.6811111111111E-05 
 1.9088860179425E-01  1.9088860179425E-01  1.9088860179425E-01  1.9088860179425E-01  1.9088860179425E-01  1.9088860179425E-01  1.9088860179425E-01  1.9088860179425E-01  1.9088860179425E-01  1.9088860179425E-01 
 6.5054719431634E-27  6.4522330517420E-27  6.4054835378771E-27  6.4856192444901E-27  6.4888638760193E-27  6.4619668601928E-27  6.4522326538537E-27  6.4054831433913E-27  6.4491585575245E-27  6.4863445940803E-27 
 1.8703189149127E-19  1.8452150980204E-19  1.8201112693481E-19  1.8452150518488E-19  1.8452150297022E-19  1.8452150060580E-19  1.8452149836758E-19  1.8201111572012E-19  1.8452149374977E-19  1.8703187291030E-19 
 1.8703189149127E-19  1.8452150980204E-19  1.8201112693481E-19  1.8452150518488E-19  1.8452150297022E-19  1.8452150060580E-19  1.8452149836758E-19  1.8201111572012E-19  1.8452149374977E-19  1.8703187291030E-19 
 0.0000000000000E+00  0.0000000000000E+00  0.0000000000000E+00  0.0000000000000E+00  0.0000000000000E+00  0.0000000000000E+00  0.0000000000000E+00  0.0000000000000E+00  0.0000000000000E+00  0.0000000000000E+00 
ZONE T = "SEP , 1.1125E-07", I = 10, SOLUTIONTIME = 1.112500E-07
ZONETYPE = ORDERED
DATAPACKING = BLOCK
STRANDID = 2
 7.8740000000000E-04  8.4102222222222E-04  8.9464444444444E-04  9.4826666666667E-04  1.0018888888889E-03  1.0555111111111E-03  1.1091333333333E-03  1.1627555555556E-03  1.2163777777778E-03  1.2700000000000E-03 
-3.7658261317733E-13 -3.7658261317733E-13 -3.7658261317730E-13 -3.7658261317730E-13 -3.7658261317730E-13 -3.7658261317730E-13 -3.7658261317730E-13 -3.7658261317720E-13 -3.7658261317727E-13 -6.9996610853616E-13 
 9.1999999800656E-01  9.1999999898939E-01  9.1999999997225E-01  9.2000000095510E-01  9.2000000193796E-01  9.2000000292081E-01  9.2000000390367E-01  9.2000000488652E-01  9.2000000586938E-01  9.2000000685221E-01 
 4.0000000996722E-02  4.0000000505305E-02  4.0000000013877E-02  3.9999999522450E-02  3.9999999031022E-02  3.9999998539594E-02  3.9999998048167E-02  3.9999997556739E-02  3.9999997065311E-02  3.9999996573896E-02 
 4.0000000996722E-02  4.0000000505305E-02  4.0000000013877E-02  3.9999999522450E-02  3.9999999031022E-02  3.9999998539594E-02  3.9999998048167E-02  3.9999997556739E-02  3.9999997065311E-02  3.9999996573896E-02 
 1.0307456397146E-02  1.0307456397146E-02  1.0307456397146E-02  1.0307456397145E-02  1.0307456397145E-02  1.0307456397145E-02  1.0307456397145E-02  1.0307456397145E-02  1.0307456397144E-02  1.0307456397144E-02 
 8.0911139820575E-01  8.0911139820575E-01  8.0911139820575E-01  8.0911139820575E-01  8.0911139820575E-01  8.0911139820575E-01  8.0911139820575E-01  8.0911139820575E-01  8.0911139820575E-01  8.0911139820575E-01 
 2.6811111111111E-05  5.3622222222222E-05  5.3622222222222E-05  5.3622222222222E-05  5.3622222222222E-05  5.3622222222222E-05  5.3622222222222E-05  5.3622222222223E-05  5.3622222222222E-05  2.6811111111111E-05 
 1.9088860179425E-01  1.9088860179425E-01  1.9088860179425E-01  1.9088860179425E-01  1.9088860179425E-01  1.9088860179425E-01  1.9088860179425E-01  1.9088860179425E-01  1.9088860179425E-01  1.9088860179425E-01 
 1.9457498730246E-26  1.9282647193862E-26  1.9114284957262E-26  1.9316033073296E-26  1.9319277546992E-26  1.9292380369519E-26  1.9282646006490E-26  1.9114283777039E-26  1.9279571594549E-26  1.9438370113397E-26 
 3.8376375665431E-19  3.8016041902578E-19  3.7655707909287E-19  3.8016040974240E-19  3.8016040506585E-19  3.8016040027634E-19  3.8016039563368E-19  3.7655705581179E-19  3.8016038628219E-19  3.8376371909087E-19 
 3.8376375665431E-19  3.8016041902578E-19  3.7655707909287E-19  3.8016040974240E-19  3.8016040506585E-19  3.8016040027634E-19  3.8016039563368E-19  3.7655705581179E-19  3.8016038628219E-19  3.8376371909087E-19 
 0.0000000000000E+00  0.0000000000000E+00  0.0000000000000E+00  0.0000000000000E+00  0.0000000000000E+00  0.0000000000000E+00  0.0000000000000E+00  0.0000000000000E+00  0.0000000000000E+00  0.0000000000000E+00 
ZONE T = "SEP , 1.6188E-07", I = 10, SOLUTIONTIME = 1.618750E-07
ZONETYPE = ORDERED
DATAPACKING = BLOCK
STRANDID = 2
 7.8740000000000E-04  8.4102222222222E-04  8.9464444444444E-04  9.4826666666667E-04  1.0018888888889E-03  1.0555111111111E-03  1.1091333333333E-03  1.1627555555556E-03  1.2163777777778E-03  1.2700000000000E-03 
-3.9448364295978E-13 -3.9448364295979E-13 -3.9448364295976E-13 -3.9448364295976E-13 -3.9448364295976E-13 -3.9448364295976E-13 -3.9448364295976E-13 -3.9448364295970E-13 -3.9448364295975E-13 -2.8740067317893E-13 
 9.1999999800657E-01  9.1999999898939E-01  9.1999999997225E-01  9.2000000095510E-01  9.2000000193796E-01  9.2000000292081E-01  9.2000000390367E-01  9.2000000488652E-01  9.2000000586938E-01  9.2000000685220E-01 
 4.0000000996717E-02  4.0000000505305E-02  4.0000000013877E-02  3.9999999522450E-02  3.9999999031022E-02  3.9999998539594E-02  3.9999998048167E-02  3.9999997556739E-02  3.9999997065311E-02  3.9999996573901E-02 
 4.0000000996717E-02  4.0000000505305E-02  4.0000000013877E-02  3.9999999522450E-02  3.9999999031022E-02  3.9999998539594E-02  3.9999998048167E-02  3.9999997556739E-02  3.9999997065311E-02  3.9999996573901E-02 
 1.0307456381310E-02  1.0307456381309E-02  1.0307456381309E-02  1.0307456381309E-02  1.0307456381308E-02  1.0307456381308E-02  1.0307456381308E-02  1.0307456381308E-02  1.0307456381307E-02  1.0307456381307E-02 
 8.0911139820575E-01  8.0911139820575E-01  8.0911139820575E-01  8.0911139820575E-01  8.0911139820575E-01  8.0911139820575E-01  8.0911139820575E-01  8.0911139820575E-01  8.0911139820575E-01  8.0911139820575E-01 
 2.6811111111111E-05  5.3622222222222E-05  5.3622222222222E-05  5.3622222222222E-05  5.3622222222222E-05  5.3622222222222E-05  5.3622222222222E-05  5.3622222222223E-05  5.3622222222222E-05  2.6811111111111E-05 
 1.9088860179425E-01  1.9088860179425E-01  1.9088860179425E-01  1.9088860179425E-01  1.9088860179425E-01  1.9088860179425E-01  1.9088860179425E-01  1.9088860179425E-01  1.9088860179425E-01  1.9088860179425E-01 
 5.9933735179898E-26  5.9758883391029E-26  5.9855935751342E-26  6.0057683374906E-26  5.9795512254249E-26  6.0034029663789E-26  6.0024294803290E-26  5.9590516981888E-26  6.0021219389057E-26  6.0445432752549E-26 
 7.9953059653632E-19  7.9953059154897E-19  8.0477334901887E-19  8.0477333929107E-19  7.9953056211866E-19  8.0477331939298E-19  8.0477330956642E-19  7.9953053244145E-19  8.0477328976806E-19  8.1001605213139E-19 
 7.9953059653632E-19  7.9953059154897E-19  8.0477334901887E-19  8.0477333929107E-19  7.9953056211866E-19  8.0477331939298E-19  8.0477330956642E-19  7.9953053244145E-19  8.0477328976806E-19  8.1001605213139E-19 
 0.0000000000000E+00  0.0000000000000E+00  0.0000000000000E+00  0.0000000000000E+00  0.0000000000000E+00  0.0000000000000E+00  0.0000000000000E+00  0.0000000000000E+00  0.0000000000000E+00  0.0000000000000E+00 
ZONE T = "SEP , 2.3781E-07", I = 10, SOLUTIONTIME = 2.378125E-07
ZONETYPE = ORDERED
DATAPACKING = BLOCK
STRANDID = 2
 7.8740000000000E-04  8.4102222222222E-04  8.9464444444444E-04  9.4826666666667E-04  1.0018888888889E-03  1.0555111111111E-03  1.1091333333333E-03  1.1627555555556E-03  1.2163777777778E-03  1.2700000000000E-03 
 1.4365461113954E-13  1.4365461113954E-13  1.4365461113956E-13  1.4365461113956E-13  1.4365461113956E-13  1.4365461113956E-13  1.4365461113956E-13  1.4365461113960E-13  1.4365461113965E-13  2.1486228329122E-13 
 9.1999999800658E-01  9.1999999898939E-01  9.1999999997225E-01  9.2000000095510E-01  9.2000000193796E-01  9.2000000292081E-01  9.2000000390367E-01  9.2000000488652E-01  9.2000000586938E-01  9.2000000685218E-01 
 4.0000000996709E-02  4.0000000505305E-02  4.0000000013877E-02  3.9999999522450E-02  3.9999999031022E-02  3.9999998539594E-02  3.9999998048167E-02  3.9999997556739E-02  3.9999997065311E-02  3.9999996573910E-02 
 4.0000000996709E-02  4.0000000505305E-02  4.0000000013877E-02  3.9999999522450E-02  3.9999999031022E-02  3.9999998539594E-02  3.9999998048167E-02  3.9999997556739E-02  3.9999997065311E-02  3.9999996573910E-02 
 1.0307456359638E-02  1.0307456359638E-02  1.0307456359637E-02  1.0307456359637E-02  1.0307456359636E-02  1.0307456359636E-02  1.0307456359636E-02  1.0307456359635E-02  1.0307456359635E-02  1.0307456359634E-02 
 8.0911139820575E-01  8.0911139820575E-01  8.0911139820575E-01  8.0911139820575E-01  8.0911139820575E-01  8.0911139820575E-01  8.0911139820575E-01  8.0911139820575E-01  8.0911139820575E-01  8.0911139820575E-01 
 2.6811111111111E-05  5.3622222222222E-05  5.3622222222222E-05  5.3622222222222E-05  5.3622222222222E-05  5.3622222222222E-05  5.3622222222222E-05  5.3622222222223E-05  5.3622222222222E-05  2.6811111111111E-05 
 1.9088860179425E-01  1.9088860179425E-01  1.9088860179425E-01  1.9088860179425E-01  1.9088860179425E-01  1.9088860179425E-01  1.9088860179425E-01  1.9088860179425E-01  1.9088860179425E-01  1.9088860179425E-01 
 1.9123640527371E-25  1.9106155269077E-25  1.9174346768040E-25  1.9194521369928E-25  1.9109817673995E-25  1.9133669252275E-25  1.9191182023299E-25  1.9147804079587E-25  1.9132387740640E-25  1.9174808997582E-25 
 1.7290886596716E-18  1.7290886492147E-18  1.7367905439217E-18  1.7367905227901E-18  1.7290885858199E-18  1.7290885643978E-18  1.7367904583335E-18  1.7367904370566E-18  1.7290885006399E-18  1.7290884901830E-18 
 1.7290886596716E-18  1.7290886492147E-18  1.7367905439217E-18  1.7367905227901E-18  1.7290885858199E-18  1.7290885643978E-18  1.7367904583335E-18  1.7367904370566E-18  1.7290885006399E-18  1.7290884901830E-18 
 0.0000000000000E+00  0.0000000000000E+00  0.0000000000000E+00  0.0000000000000E+00  0.0000000000000E+00  0.0000000000000E+00  0.0000000000000E+00  0.0000000000000E+00  0.0000000000000E+00  0.0000000000000E+00 
ZONE T = "SEP , 3.5172E-07", I = 10, SOLUTIONTIME = 3.517188E-07
ZONETYPE = ORDERED
DATAPACKING = BLOCK
STRANDID = 2
 7.8740000000000E-04  8.4102222222222E-04  8.9464444444444E-04  9.4826666666667E-04  1.0018888888889E-03  1.0555111111111E-03  1.1091333333333E-03  1.1627555555556E-03  1.2163777777778E-03  1.2700000000000E-03 
 6.4017334602575E-14  6.4017334602575E-14  6.4017334602585E-14  6.4017334602585E-14  6.4017334602585E-14  6.4017334602585E-14  6.4017334602585E-14  6.4017334602613E-14  6.4017334602589E-14  4.7532601479540E-14 
 9.1999999800660E-01  9.1999999898939E-01  9.1999999997225E-01  9.2000000095510E-01  9.2000000193796E-01  9.2000000292081E-01  9.2000000390367E-01  9.2000000488652E-01  9.2000000586938E-01  9.2000000685216E-01 
 4.0000000996698E-02  4.0000000505305E-02  4.0000000013877E-02  3.9999999522450E-02  3.9999999031022E-02  3.9999998539594E-02  3.9999998048167E-02  3.9999997556739E-02  3.9999997065311E-02  3.9999996573922E-02 