TITLE = "Solution on Domain BulkDomain1D_2"
VARIABLES = "x [m]"  
"Vel_axial" 	"MF_sp(ECDMC)" 	"MF_sp(Li+)" 	"MF_sp(PF6-)" 	"Volt(Electroly)" 	"Volt(CathodeVo)" 	
"Potential Drop Electrode-Electrolyte [V]" 	"Surf_0 Equilibrium Potential Drop Electrode-Electrolyte [V]" 	"Overpotential_0 [V]" 	"Current Source [A/m^2]" 	"Li+ flux [kmol/m^2/s]" 	"Electrolyte Current [A/m^2]" 	"Electrode Current [A/m^2]" 	
"CV Capacity discharged [A-s/m^2]" 	"Depth of discharge in CV [A-s/m^2]" 	"CV Capacity remaining [A-s/m^2]" 	"Initial CV capacity [A-s/m^2]" 	"Porosity []" 	"Surface Area [m2/m2] (area per area)" 	"Specific current (per particle area) [A/m^2]" 	"Control volume thickness [m]" 	
"MoleDens LiCoO2 [kmol/m^3]" 	"MoleDens CoO2 [kmol/m^3]" 	"qHeat_accum [J/m3]" 	"qHeat_step [W/m3]" 	"Joule_Lyte [W/m3]" 	"Joule_Solid [W/m3]" 	"electrodHeat [W/m3]" 	"OverpotHeat [W/m3]" 	"deltaSHeat [W/m3]" 	

ZONE T = "CATH, 0.0000E+00", I = 10, SOLUTIONTIME = 0.000000E+00
ZONETYPE = ORDERED
DATAPACKING = BLOCK
STRANDID = 3
 1.2700000000000E-03  1.3377333333333E-03  1.4054666666667E-03  1.4732000000000E-03  1.5409333333333E-03  1.6086666666667E-03  1.6764000000000E-03  1.7441333333333E-03  1.8118666666667E-03  1.8796000000000E-03 
 1.3694448462157E-10  1.2083255255886E-10  1.0472070236525E-10  8.8608995725602E-11  7.2497494325945E-11  5.6386259853968E-11  4.0275353999538E-11  2.4164838455195E-11  8.0547749166607E-12  0.0000000000000E+00 
 9.2000000685223E-01  9.2000001097352E-01  9.2000001460992E-01  9.2000001776145E-01  9.2000002042810E-01  9.2000002260988E-01  9.2000002430680E-01  9.2000002551887E-01  9.2000002624610E-01  9.2000002648851E-01 
 3.9999996573884E-02  3.9999994513240E-02  3.9999992695038E-02  3.9999991119275E-02  3.9999989785950E-02  3.9999988695059E-02  3.9999987846598E-02  3.9999987240563E-02  3.9999986876948E-02  3.9999986755745E-02 
 3.9999996573884E-02  3.9999994513240E-02  3.9999992695038E-02  3.9999991119275E-02  3.9999989785950E-02  3.9999988695059E-02  3.9999987846598E-02  3.9999987240563E-02  3.9999986876948E-02  3.9999986755745E-02 
 1.0249108254567E-02  1.0249106815892E-02  1.0249105546482E-02  1.0249104446335E-02  1.0249103515450E-02  1.0249102753825E-02  1.0249102161457E-02  1.0249101738343E-02  1.0249101484479E-02  1.0249101399859E-02 
 3.9000009791936E+00  3.9000009671045E+00  3.9000009308372E+00  3.9000008703919E+00  3.9000007857688E+00  3.9000006769682E+00  3.9000005439905E+00  3.9000003868361E+00  3.9000002055057E+00  3.9000000000000E+00 
 3.8897518709390E+00  3.8897518602886E+00  3.8897518252908E+00  3.8897517659456E+00  3.8897516822534E+00  3.8897515742144E+00  3.8897514418290E+00  3.8897512850978E+00  3.8897511040213E+00  3.8897508986001E+00 
 3.9027881867849E+00  3.9027881627299E+00  3.9027880720404E+00  3.9027879147158E+00  3.9027876907552E+00  3.9027874001572E+00  3.9027870429200E+00  3.9027866190412E+00  3.9027861285183E+00  3.9027855713482E+00 
-1.3036315845868E-02 -1.3036302441270E-02 -1.3036246749610E-02 -1.3036148770204E-02 -1.3036008501854E-02 -1.3035825942850E-02 -1.3035601090966E-02 -1.3035333943461E-02 -1.3035024497082E-02 -1.3034672748061E-02 
-1.1601247272902E-02 -2.3202465486304E-02 -2.3202347595669E-02 -2.3202140872942E-02 -2.3201845316443E-02 -2.3201460923766E-02 -2.3200987691781E-02 -2.3200425616634E-02 -2.3199774693748E-02 -1.1599517458910E-02 
 1.9621898046270E-09  1.7313322617773E-09  1.5004758943332E-09  1.2696215660171E-09  1.0387701885176E-09  8.0792262822629E-10  5.7707976208364E-10  3.4624250600702E-10  1.1541171734296E-10  1.1541171734296E-10 
 2.0881221254425E-01  1.8560973222768E-01  1.6240732598157E-01  1.3920508177187E-01  1.1600308882452E-01  9.2801435889915E-02  6.9600211005039E-02  4.6399504822627E-02  2.3199404785236E-02  0.0000000000000E+00 
 0.0000000000000E+00  1.8706437320548E-02  3.7412815543984E-02  5.6119062688652E-02  7.4825107803661E-02  9.3530878735559E-02  1.1223630333090E-01  1.3094131081058E-01  1.4964582988012E-01  1.7059747570913E-01 
 1.4407267233235E+04  2.8814543891428E+04  2.8814581009090E+04  2.8814645819682E+04  2.8814738323605E+04  2.8814858521431E+04  2.8815006413901E+04  2.8815182001933E+04  2.8815385286611E+04  1.4407808134596E+04 
 2.1651345927543E+04  4.3302701280044E+04  4.3302738397706E+04  4.3302803208298E+04  4.3302895712222E+04  4.3303015910047E+04  4.3303163802518E+04  4.3303339390549E+04  4.3303542675227E+04  2.1651886828904E+04 
 3.4852467890512E+04  6.9704926356066E+04  6.9704889238405E+04  6.9704824427812E+04  6.9704731923889E+04  6.9704611726064E+04  6.9704463833592E+04  6.9704288245562E+04  6.9704084960883E+04  3.4851926989151E+04 
 5.6503813818055E+04  1.1300762763611E+05  1.1300762763611E+05  1.1300762763611E+05  1.1300762763611E+05  1.1300762763611E+05  1.1300762763611E+05  1.1300762763611E+05  1.1300762763611E+05  5.6503813818055E+04 
 3.5000000000000E-01  3.5000000000000E-01  3.5000000000000E-01  3.5000000000000E-01  3.5000000000000E-01  3.5000000000000E-01  3.5000000000000E-01  3.5000000000000E-01  3.5000000000000E-01  3.5000000000000E-01 
 6.6040000000000E+00  1.3208000000000E+01  1.3208000000000E+01  1.3208000000000E+01  1.3208000000000E+01  1.3208000000000E+01  1.3208000000000E+01  1.3208000000000E+01  1.3208000000000E+01  6.6040000000000E+00 
-1.7567000716085E-03 -1.7566978714646E-03 -1.7566889457654E-03 -1.7566732944384E-03 -1.7566509173564E-03 -1.7566218143372E-03 -1.7565859851439E-03 -1.7565434294847E-03 -1.7564941470130E-03 -1.7564381373273E-03 
 3.3866666666667E-05  6.7733333333333E-05  6.7733333333334E-05  6.7733333333333E-05  6.7733333333334E-05  6.7733333333334E-05  6.7733333333333E-05  6.7733333333334E-05  6.7733333333333E-05  3.3866666666667E-05 
 3.1012079983381E+01  3.1012081425549E+01  3.1012087105137E+01  3.1012097022180E+01  3.1012111176741E+01  3.1012129568905E+01  3.1012152198788E+01  3.1012179066528E+01  3.1012210172293E+01  3.1012245516274E+01 
 1.3326255623713E+01  1.3326254181546E+01  1.3326248501957E+01  1.3326238584914E+01  1.3326224430353E+01  1.3326206038189E+01  1.3326183408306E+01  1.3326156540566E+01  1.3326125434801E+01  1.3326090090820E+01 
 0.0000000000000E+00  0.0000000000000E+00  0.0000000000000E+00  0.0000000000000E+00  0.0000000000000E+00  0.0000000000000E+00  0.0000000000000E+00  0.0000000000000E+00  0.0000000000000E+00  0.0000000000000E+00 
 0.0000000000000E+00  0.0000000000000E+00  0.0000000000000E+00  0.0000000000000E+00  0.0000000000000E+00  0.0000000000000E+00  0.0000000000000E+00  0.0000000000000E+00  0.0000000000000E+00  0.0000000000000E+00 
 0.0000000000000E+00  0.0000000000000E+00  0.0000000000000E+00  0.0000000000000E+00  0.0000000000000E+00  0.0000000000000E+00  0.0000000000000E+00  0.0000000000000E+00  0.0000000000000E+00  0.0000000000000E+00 
 0.0000000000000E+00  0.0000000000000E+00  0.0000000000000E+00  0.0000000000000E+00  0.0000000000000E+00  0.0000000000000E+00  0.0000000000000E+00  0.0000000000000E+00  0.0000000000000E+00  0.0000000000000E+00 
 0.0000000000000E+00  0.0000000000000E+00  0.0000000000000E+00  0.0000000000000E+00  0.0000000000000E+00  0.0000000000000E+00  0.0000000000000E+00  0.0000000000000E+00  0.0000000000000E+00  0.0000000000000E+00 
 0.0000000000000E+00  0.0000000000000E+00  0.0000000000000E+00  0.0000000000000E+00  0.0000000000000E+00  0.0000000000000E+00  0.0000000000000E+00  0.0000000000000E+00  0.0000000000000E+00  0.0000000000000E+00 
 0.0000000000000E+00  0.0000000000000E+00  0.0000000000000E+00  0.0000000000000E+00  0.0000000000000E+00  0.0000000000000E+00  0.0000000000000E+00  0.0000000000000E+00  0.0000000000000E+00  0.0000000000000E+00 
ZONE T = "CATH, 1.0000E-08", I = 10, SOLUTIONTIME = 1.000000E-08
ZONETYPE = ORDERED
DATAPACKING = BLOCK
STRANDID = 3
 1.2700000000000E-03  1.3377333333333E-03  1.4054666666667E-03  1.4732000000000E-03  1.5409333333333E-03  1.6086666666667E-03  1.6764000000000E-03  1.7441333333333E-03  1.8118666666667E-03  1.8796000000000E-03 
 7.2589413087543E-13 -1.5484493815539E-15 -3.6567241399161E-13 -1.0928117423663E-12 -1.0932617739729E-12 -1.0933564857612E-12 -7.2980666924074E-13 -3.6573856924706E-13 -7.2748615558465E-13 -5.4481159172482E-13 
 9.2000000685223E-01  9.2000001097351E-01  9.2000001460992E-01  9.2000001776144E-01  9.2000002042809E-01  9.2000002260988E-01  9.2000002430680E-01  9.2000002551887E-01  9.2000002624610E-01  9.2000002648850E-01 
 3.9999996573885E-02  3.9999994513243E-02  3.9999992695041E-02  3.9999991119278E-02  3.9999989785953E-02  3.9999988695062E-02  3.9999987846601E-02  3.9999987240566E-02  3.9999986876951E-02  3.9999986755748E-02 
 3.9999996573885E-02  3.9999994513243E-02  3.9999992695041E-02  3.9999991119278E-02  3.9999989785953E-02  3.9999988695062E-02  3.9999987846601E-02  3.9999987240566E-02  3.9999986876951E-02  3.9999986755748E-02 
 1.0307456423306E-02  1.0307456423312E-02  1.0307456423328E-02  1.0307456423354E-02  1.0307456423387E-02  1.0307456423426E-02  1.0307456423465E-02  1.0307456423501E-02  1.0307456423527E-02  1.0307456423538E-02 
 3.9130947766437E+00  3.9130947766427E+00  3.9130947766398E+00  3.9130947766352E+00  3.9130947766292E+00  3.9130947766225E+00  3.9130947766155E+00  3.9130947766092E+00  3.9130947766044E+00  3.9130947766024E+00 
 3.9027873202204E+00  3.9027873202194E+00  3.9027873202165E+00  3.9027873202118E+00  3.9027873202059E+00  3.9027873201990E+00  3.9027873201920E+00  3.9027873201857E+00  3.9027873201809E+00  3.9027873201789E+00 
 3.9027881867849E+00  3.9027881627299E+00  3.9027880720404E+00  3.9027879147158E+00  3.9027876907552E+00  3.9027874001572E+00  3.9027870429200E+00  3.9027866190412E+00  3.9027861285183E+00  3.9027855713482E+00 
-8.6656452547018E-07 -8.4251049781159E-07 -7.5182390713024E-07 -5.9450398426364E-07 -3.7054939205916E-07 -7.9958213827780E-08  2.7727203644190E-07  7.0114441941271E-07  1.1916625699548E-06  1.7488306962576E-06 
-7.6296029953324E-07 -1.4835639188717E-06 -1.3238743288066E-06 -1.0468509778827E-06 -6.5249237062815E-07 -1.4079635932932E-07  4.8823984645689E-07  1.2346196843009E-06  2.0983472419228E-06  1.5397136250838E-06 
 9.4021122517731E-10  8.2958524414274E-10  7.1895971700634E-10  6.0833661415756E-10  4.9771695329813E-10  3.8710178574802E-10  2.7649211429947E-10  1.6588900414471E-10  5.5293468738226E-11  5.5293468738226E-11 
 1.2248484796129E-08 -1.4902473145987E-06 -2.8895387825479E-06 -4.0705363992576E-06 -4.9158894899336E-06 -5.3081284883067E-06 -5.1299027222363E-06 -4.2640993029352E-06 -2.5932486360466E-06  0.0000000000000E+00 
 0.0000000000000E+00  1.5006199672114E-06  2.8997097225599E-06  4.0807929823856E-06  4.9261909055278E-06  5.3183964447543E-06  5.1404179346191E-06  4.2744047400327E-06  2.6033651955490E-06  1.2272726809417E-08 
 1.4407267233235E+04  2.8814543891428E+04  2.8814581009090E+04  2.8814645819682E+04  2.8814738323605E+04  2.8814858521431E+04  2.8815006413901E+04  2.8815182001933E+04  2.8815385286611E+04  1.4407808134596E+04 
 2.1651345927543E+04  4.3302701280044E+04  4.3302738397706E+04  4.3302803208298E+04  4.3302895712222E+04  4.3303015910047E+04  4.3303163802518E+04  4.3303339390549E+04  4.3303542675227E+04  2.1651886828904E+04 
 3.4852467890512E+04  6.9704926356066E+04  6.9704889238405E+04  6.9704824427812E+04  6.9704731923889E+04  6.9704611726064E+04  6.9704463833592E+04  6.9704288245562E+04  6.9704084960883E+04  3.4851926989151E+04 
 5.6503813818055E+04  1.1300762763611E+05  1.1300762763611E+05  1.1300762763611E+05  1.1300762763611E+05  1.1300762763611E+05  1.1300762763611E+05  1.1300762763611E+05  1.1300762763611E+05  5.6503813818055E+04 
 3.5000000000000E-01  3.5000000000000E-01  3.5000000000000E-01  3.5000000000000E-01  3.5000000000000E-01  3.5000000000000E-01  3.5000000000000E-01  3.5000000000000E-01  3.5000000000000E-01  3.5000000000000E-01 
 6.6040000000000E+00  1.3208000000000E+01  1.3208000000000E+01  1.3208000000000E+01  1.3208000000000E+01  1.3208000000000E+01  1.3208000000000E+01  1.3208000000000E+01  1.3208000000000E+01  6.6040000000000E+00 
-1.1553002718553E-07 -1.1232313135007E-07 -1.0023276262921E-07 -7.9258856593180E-08 -4.9401300017274E-08 -1.0659930294467E-08  3.6965463844405E-08  9.3475142663604E-08  1.5886941565133E-07  2.3314864098786E-07 
 3.3866666666667E-05  6.7733333333333E-05  6.7733333333334E-05  6.7733333333333E-05  6.7733333333334E-05  6.7733333333334E-05  6.7733333333333E-05  6.7733333333334E-05  6.7733333333333E-05  3.3866666666667E-05 
 3.1012079983381E+01  3.1012081425549E+01  3.1012087105137E+01  3.1012097022180E+01  3.1012111176741E+01  3.1012129568905E+01  3.1012152198788E+01  3.1012179066528E+01  3.1012210172293E+01  3.1012245516274E+01 
 1.3326255623713E+01  1.3326254181546E+01  1.3326248501957E+01  1.3326238584914E+01  1.3326224430353E+01  1.3326206038189E+01  1.3326183408306E+01  1.3326156540566E+01  1.3326125434801E+01  1.3326090090820E+01 
 1.1113007740090E-22  5.3706084514972E-22  1.6969595277373E-21  3.2477934023250E-21  4.6769134672916E-21  5.4287280396207E-21  5.0822678688023E-21  3.5797008704941E-21  1.5126710891546E-21  4.6218766819340E-22 
 1.1113007740090E-14  5.3706084514972E-14  1.6969595277373E-13  3.2477934023250E-13  4.6769134672916E-13  5.4287280396207E-13  5.0822678688023E-13  3.5797008704941E-13  1.5126710891546E-13  4.6218766819340E-14 
 6.0698175875810E-17  2.9809588927148E-16  9.4614285877739E-16  1.8138276461577E-15  2.6140698478694E-15  3.0351740417739E-15  2.8408473661569E-15  1.9996486064217E-15  8.4335837148530E-16  2.5604269720443E-16 
 1.1052309564214E-14  5.3407988625700E-14  1.6874980991495E-13  3.2296551258634E-13  4.6507727688129E-13  5.3983762992029E-13  5.0538593951408E-13  3.5597043844299E-13  1.5042375054397E-13  4.5962724122135E-14 
 0.0000000000000E+00  0.0000000000000E+00  0.0000000000000E+00  0.0000000000000E+00  0.0000000000000E+00  0.0000000000000E+00  0.0000000000000E+00  0.0000000000000E+00  0.0000000000000E+00  0.0000000000000E+00 
 0.0000000000000E+00  0.0000000000000E+00  0.0000000000000E+00  0.0000000000000E+00  0.0000000000000E+00  0.0000000000000E+00  0.0000000000000E+00  0.0000000000000E+00  0.0000000000000E+00  0.0000000000000E+00 
 0.0000000000000E+00  0.0000000000000E+00  0.0000000000000E+00  0.0000000000000E+00  0.0000000000000E+00  0.0000000000000E+00  0.0000000000000E+00  0.0000000000000E+00  0.0000000000000E+00  0.0000000000000E+00 
ZONE T = "CATH, 2.0000E-08", I = 10, SOLUTIONTIME = 2.000000E-08
ZONETYPE = ORDERED
DATAPACKING = BLOCK
STRANDID = 3
 1.2700000000000E-03  1.3377333333333E-03  1.4054666666667E-03  1.4732000000000E-03  1.5409333333333E-03  1.6086666666667E-03  1.6764000000000E-03  1.7441333333333E-03  1.8118666666667E-03  1.8796000000000E-03 
-7.2693022905069E-13 -7.2795813955138E-13 -3.6566743285881E-13  3.6002336830154E-13 -3.6684289670712E-13 -7.3014610913166E-13 -7.2980478726409E-13 -7.2894517473196E-13 -3.6427805680680E-13 -5.4481159170402E-13 
 9.2000000685223E-01  9.2000001097351E-01  9.2000001460991E-01  9.2000001776144E-01  9.2000002042809E-01  9.2000002260987E-01  9.2000002430679E-01  9.2000002551886E-01  9.2000002624609E-01  9.2000002648850E-01 
 3.9999996573886E-02  3.9999994513246E-02  3.9999992695044E-02  3.9999991119281E-02  3.9999989785956E-02  3.9999988695065E-02  3.9999987846604E-02  3.9999987240569E-02  3.9999986876954E-02  3.9999986755752E-02 
 3.9999996573886E-02  3.9999994513246E-02  3.9999992695044E-02  3.9999991119281E-02  3.9999989785956E-02  3.9999988695065E-02  3.9999987846604E-02  3.9999987240569E-02  3.9999986876954E-02  3.9999986755752E-02 
 1.0307456420514E-02  1.0307456420519E-02  1.0307456420536E-02  1.0307456420561E-02  1.0307456420595E-02  1.0307456420633E-02  1.0307456420672E-02  1.0307456420708E-02  1.0307456420734E-02  1.0307456420746E-02 
 3.9130947785098E+00  3.9130947785088E+00  3.9130947785059E+00  3.9130947785013E+00  3.9130947784953E+00  3.9130947784886E+00  3.9130947784816E+00  3.9130947784752E+00  3.9130947784705E+00  3.9130947784685E+00 
 3.9027873220893E+00  3.9027873220883E+00  3.9027873220854E+00  3.9027873220807E+00  3.9027873220748E+00  3.9027873220679E+00  3.9027873220609E+00  3.9027873220545E+00  3.9027873220498E+00  3.9027873220478E+00 
 3.9027881867849E+00  3.9027881627299E+00  3.9027880720404E+00  3.9027879147158E+00  3.9027876907552E+00  3.9027874001572E+00  3.9027870429200E+00  3.9027866190413E+00  3.9027861285183E+00  3.9027855713482E+00 
-8.6469561910718E-07 -8.4064159411312E-07 -7.4995500431996E-07 -5.9263508589424E-07 -3.6868049679839E-07 -7.8089324784258E-08  2.7914091749182E-07  7.0301329113676E-07  1.1935314314648E-06  1.7506995457772E-06 
-7.6131483498856E-07 -1.4802729927389E-06 -1.3205834082492E-06 -1.0435600678914E-06 -6.4920147403597E-07 -1.3750548101989E-07  4.9153070138580E-07  1.2379105132880E-06  2.1016380398046E-06  1.5413590060219E-06 
 9.4021035391332E-10  8.2958528312731E-10  7.1895975397456E-10  6.0833664619669E-10  4.9771698208863E-10  3.8710180546441E-10  2.7649212582822E-10  1.6588900985788E-10  5.5293474115522E-11  5.5293474115522E-11 
 2.0114731572860E-08 -1.4814489818399E-06 -2.8819294140435E-06 -4.0638782020769E-06 -4.9103013603299E-06 -5.3037293225558E-06 -5.1266925202684E-06 -4.2619591683274E-06 -2.5921785687548E-06  0.0000000000000E+00 
 0.0000000000000E+00  1.5014789368549E-06  2.9017712497043E-06  4.0838852731023E-06  4.9303139598167E-06  5.3237220565441E-06  5.1467743099811E-06  4.2819636728956E-06  2.6121266859128E-06  1.9904218021194E-08 
 1.4407267233235E+04  2.8814543891428E+04  2.8814581009090E+04  2.8814645819682E+04  2.8814738323605E+04  2.8814858521431E+04  2.8815006413901E+04  2.8815182001933E+04  2.8815385286611E+04  1.4407808134596E+04 
 2.1651345927543E+04  4.3302701280044E+04  4.3302738397706E+04  4.3302803208298E+04  4.3302895712222E+04  4.3303015910047E+04  4.3303163802518E+04  4.3303339390549E+04  4.3303542675227E+04  2.1651886828904E+04 
 3.4852467890512E+04  6.9704926356066E+04  6.9704889238405E+04  6.9704824427812E+04  6.9704731923889E+04  6.9704611726064E+04  6.9704463833592E+04  6.9704288245562E+04  6.9704084960883E+04  3.4851926989151E+04 
 5.6503813818055E+04  1.1300762763611E+05  1.1300762763611E+05  1.1300762763611E+05  1.1300762763611E+05  1.1300762763611E+05  1.1300762763611E+05  1.1300762763611E+05  1.1300762763611E+05  5.6503813818055E+04 
 3.5000000000000E-01  3.5000000000000E-01  3.5000000000000E-01  3.5000000000000E-01  3.5000000000000E-01  3.5000000000000E-01  3.5000000000000E-01  3.5000000000000E-01  3.5000000000000E-01  3.5000000000000E-01 
 6.6040000000000E+00  1.3208000000000E+01  1.3208000000000E+01  1.3208000000000E+01  1.3208000000000E+01  1.3208000000000E+01  1.3208000000000E+01  1.3208000000000E+01  1.3208000000000E+01  6.6040000000000E+00 
-1.1528086538288E-07 -1.1207396977127E-07 -9.9983601472528E-08 -7.9009696236479E-08 -4.9152140675043E-08 -1.0410772336454E-08  3.7214620032238E-08  9.3724296887344E-08  1.5911856752003E-07  2.3339779013052E-07 
 3.3866666666667E-05  6.7733333333333E-05  6.7733333333334E-05  6.7733333333333E-05  6.7733333333334E-05  6.7733333333334E-05  6.7733333333333E-05  6.7733333333334E-05  6.7733333333333E-05  3.3866666666667E-05 
 3.1012079983381E+01  3.1012081425549E+01  3.1012087105137E+01  3.1012097022180E+01  3.1012111176741E+01  3.1012129568905E+01  3.1012152198788E+01  3.1012179066528E+01  3.1012210172293E+01  3.1012245516274E+01 
 1.3326255623713E+01  1.3326254181546E+01  1.3326248501957E+01  1.3326238584914E+01  1.3326224430353E+01  1.3326206038189E+01  1.3326183408306E+01  1.3326156540566E+01  1.3326125434801E+01  1.3326090090820E+01 
 2.2234468866194E-22  1.0747322633853E-21  3.3963277066162E-21  6.5004152275570E-21  9.3616080516364E-21  1.0868234412564E-20  1.0176929307449E-20  7.1715608740848E-21  3.0338478416789E-21  9.2988494824080E-22 
 1.1121461126104E-14  5.3767141823558E-14  1.6993681788789E-13  3.2526218252321E-13  4.6846945843449E-13  5.4395063729435E-13  5.0946614386468E-13  3.5918600035906E-13  1.5211767525244E-13  4.6769728004740E-14 
 5.9169797156849E-17  2.9539357742681E-16  9.4148043923784E-16  1.8080477979056E-15  2.6081973963541E-15  3.0301548538456E-15  2.8372696445508E-15  1.9976199179472E-15  8.4262615241381E-16  2.5588476801964E-16 
 1.1062291328947E-14  5.3471748246132E-14  1.6899533744865E-13  3.2345413472530E-13  4.6586126103813E-13  5.4092048244050E-13  5.0662887422013E-13  3.5718838044112E-13  1.5127504910002E-13  4.6513843236721E-14 
 0.0000000000000E+00  0.0000000000000E+00  0.0000000000000E+00  0.0000000000000E+00  0.0000000000000E+00  0.0000000000000E+00  0.0000000000000E+00  0.0000000000000E+00  0.0000000000000E+00  0.0000000000000E+00 
 0.0000000000000E+00  0.0000000000000E+00  0.0000000000000E+00  0.0000000000000E+00  0.0000000000000E+00  0.0000000000000E+00  0.0000000000000E+00  0.0000000000000E+00  0.0000000000000E+00  0.0000000000000E+00 
 0.0000000000000E+00  0.0000000000000E+00  0.0000000000000E+00  0.0000000000000E+00  0.0000000000000E+00  0.0000000000000E+00  0.0000000000000E+00  0.0000000000000E+00  0.0000000000000E+00  0.0000000000000E+00 
ZONE T = "CATH, 3.0000E-08", I = 10, SOLUTIONTIME = 3.000000E-08
ZONETYPE = ORDERED
DATAPACKING = BLOCK
STRANDID = 3
 1.2700000000000E-03  1.3377333333333E-03  1.4054666666667E-03  1.4732000000000E-03  1.5409333333333E-03  1.6086666666667E-03  1.6764000000000E-03  1.7441333333333E-03  1.8118666666667E-03  1.8796000000000E-03 
-2.1797545818934E-12 -1.4543678083637E-12 -1.0920778732224E-12 -1.0928032991825E-12 -3.6683942459437E-13 -3.7279530092508E-15 -3.6659513047713E-13 -7.2894401729947E-13 -7.2748539874710E-13 -5.4481159165486E-13 
 9.2000000685223E-01  9.2000001097350E-01  9.2000001460991E-01  9.2000001776143E-01  9.2000002042808E-01  9.2000002260986E-01  9.2000002430678E-01  9.2000002551885E-01  9.2000002624609E-01  9.2000002648849E-01 
 3.9999996573887E-02  3.9999994513250E-02  3.9999992695047E-02  3.9999991119284E-02  3.9999989785959E-02  3.9999988695068E-02  3.9999987846608E-02  3.9999987240573E-02  3.9999986876957E-02  3.9999986755755E-02 
 3.9999996573887E-02  3.9999994513250E-02  3.9999992695047E-02  3.9999991119284E-02  3.9999989785959E-02  3.9999988695068E-02  3.9999987846608E-02  3.9999987240573E-02  3.9999986876957E-02  3.9999986755755E-02 
 1.0307456417721E-02  1.0307456417726E-02  1.0307456417743E-02  1.0307456417768E-02  1.0307456417802E-02  1.0307456417840E-02  1.0307456417879E-02  1.0307456417915E-02  1.0307456417941E-02  1.0307456417953E-02 
 3.9130947778760E+00  3.9130947778750E+00  3.9130947778721E+00  3.9130947778675E+00  3.9130947778616E+00  3.9130947778548E+00  3.9130947778478E+00  3.9130947778414E+00  3.9130947778367E+00  3.9130947778347E+00 
 3.9027873214583E+00  3.9027873214573E+00  3.9027873214544E+00  3.9027873214498E+00  3.9027873214438E+00  3.9027873214369E+00  3.9027873214299E+00  3.9027873214235E+00  3.9027873214188E+00  3.9027873214167E+00 
 3.9027881867849E+00  3.9027881627299E+00  3.9027880720404E+00  3.9027879147158E+00  3.9027876907553E+00  3.9027874001572E+00  3.9027870429200E+00  3.9027866190413E+00  3.9027861285184E+00  3.9027855713482E+00 
-8.6532659882010E-07 -8.4127257515831E-07 -7.5058598758559E-07 -5.9326607315668E-07 -3.6931148938990E-07 -7.8720324037107E-08  2.7850991157763E-07  7.0238227545261E-07  1.1929004055666E-06  1.7500685070004E-06 
-7.6187037656235E-07 -1.4813840780030E-06 -1.3216944960416E-06 -1.0446711618522E-06 -6.5031257482394E-07 -1.3861659117984E-07  4.9041958234801E-07  1.2367993804641E-06  2.1005268927167E-06  1.5408034239996E-06 
 9.4020947647804E-10  8.2958533242818E-10  7.1895978600377E-10  6.0833667991629E-10  4.9771700919866E-10  3.8710182720705E-10  2.7649213770276E-10  1.6588901848380E-10  5.5293479492817E-11  5.5293479492817E-11 
 2.9944191682043E-08 -1.4725317526831E-06 -2.8740822527280E-06 -4.0573389012442E-06 -4.9047132307411E-06 -5.2992112604742E-06 -5.1233634219649E-06 -4.2597001373614E-06 -2.5911085014627E-06  0.0000000000000E+00 
 0.0000000000000E+00  1.5025097004271E-06  2.9041763647061E-06  4.0873211516763E-06  4.9347806019629E-06  5.3292194622626E-06  5.1533024792718E-06  4.2896943996872E-06  2.6210599702053E-06  3.0080260050839E-08 
 1.4407267233235E+04  2.8814543891428E+04  2.8814581009090E+04  2.8814645819682E+04  2.8814738323605E+04  2.8814858521431E+04  2.8815006413901E+04  2.8815182001933E+04  2.8815385286611E+04  1.4407808134596E+04 
 2.1651345927543E+04  4.3302701280044E+04  4.3302738397706E+04  4.3302803208298E+04  4.3302895712222E+04  4.3303015910047E+04  4.3303163802518E+04  4.3303339390549E+04  4.3303542675227E+04  2.1651886828904E+04 
 3.4852467890512E+04  6.9704926356066E+04  6.9704889238405E+04  6.9704824427812E+04  6.9704731923889E+04  6.9704611726064E+04  6.9704463833592E+04  6.9704288245562E+04  6.9704084960883E+04  3.4851926989151E+04 
 5.6503813818055E+04  1.1300762763611E+05  1.1300762763611E+05  1.1300762763611E+05  1.1300762763611E+05  1.1300762763611E+05  1.1300762763611E+05  1.1300762763611E+05  1.1300762763611E+05  5.6503813818055E+04 
 3.5000000000000E-01  3.5000000000000E-01  3.5000000000000E-01  3.5000000000000E-01  3.5000000000000E-01  3.5000000000000E-01  3.5000000000000E-01  3.5000000000000E-01  3.5000000000000E-01  3.5000000000000E-01 
 6.6040000000000E+00  1.3208000000000E+01  1.3208000000000E+01  1.3208000000000E+01  1.3208000000000E+01  1.3208000000000E+01  1.3208000000000E+01  1.3208000000000E+01  1.3208000000000E+01  6.6040000000000E+00 
-1.1536498736559E-07 -1.1215809191422E-07 -1.0006772380690E-07 -7.9093819037870E-08 -4.9236263993333E-08 -1.0494896364312E-08  3.7130495332224E-08  9.3640171143554E-08  1.5903444069630E-07  2.3331366202296E-07 
 3.3866666666667E-05  6.7733333333333E-05  6.7733333333334E-05  6.7733333333333E-05  6.7733333333334E-05  6.7733333333334E-05  6.7733333333333E-05  6.7733333333334E-05  6.7733333333333E-05  3.3866666666667E-05 
 3.1012079983381E+01  3.1012081425549E+01  3.1012087105137E+01  3.1012097022180E+01  3.1012111176741E+01  3.1012129568905E+01  3.1012152198788E+01  3.1012179066528E+01  3.1012210172293E+01  3.1012245516274E+01 
 1.3326255623713E+01  1.3326254181546E+01  1.3326248501957E+01  1.3326238584914E+01  1.3326224430353E+01  1.3326206038189E+01  1.3326183408306E+01  1.3326156540566E+01  1.3326125434801E+01  1.3326090090820E+01 
 3.3364444856891E-22  1.6131609274684E-21  5.0984861286354E-21  9.7584063815877E-21  1.4054737391379E-20  1.6318873603840E-20  1.5284320399300E-20  1.0775922546807E-20  4.5636626413932E-21  1.4033306505774E-21 
 1.1129975990697E-14  5.3842866408311E-14  1.7021584220192E-13  3.2579911540307E-13  4.6931293397423E-13  5.4506391912759E-13  5.1073910918511E-13  3.6043616727223E-13  1.5298147997142E-13  4.7344570233657E-14 
 5.7698391592889E-17  2.9261341851160E-16  9.3671716715805E-16  1.8023948344139E-15  2.6023150910227E-15  3.0250059675341E-15  2.8335692830189E-15  1.9954673288777E-15  8.4189425611902E-16  2.5572688755576E-16 
 1.1072277599104E-14  5.3550252989800E-14  1.6927912503476E-13  3.2399672056866E-13  4.6671061888321E-13  5.4203891316006E-13  5.0790553990209E-13  3.5844069994335E-13  1.5213958571530E-13  4.7088843346101E-14 
 0.0000000000000E+00  0.0000000000000E+00  0.0000000000000E+00  0.0000000000000E+00  0.0000000000000E+00  0.0000000000000E+00  0.0000000000000E+00  0.0000000000000E+00  0.0000000000000E+00  0.0000000000000E+00 
 0.0000000000000E+00  0.0000000000000E+00  0.0000000000000E+00  0.0000000000000E+00  0.0000000000000E+00  0.0000000000000E+00  0.0000000000000E+00  0.0000000000000E+00  0.0000000000000E+00  0.0000000000000E+00 
 0.0000000000000E+00  0.0000000000000E+00  0.0000000000000E+00  0.0000000000000E+00  0.0000000000000E+00  0.0000000000000E+00  0.0000000000000E+00  0.0000000000000E+00  0.0000000000000E+00  0.0000000000000E+00 
ZONE T = "CATH, 4.0000E-08", I = 10, SOLUTIONTIME = 4.000000E-08
ZONETYPE = ORDERED
DATAPACKING = BLOCK
STRANDID = 3
 1.2700000000000E-03  1.3377333333333E-03  1.4054666666667E-03  1.4732000000000E-03  1.5409333333333E-03  1.6086666666667E-03  1.6764000000000E-03  1.7441333333333E-03  1.8118666666667E-03  1.8796000000000E-03 
 1.0891215264538E-12  3.6167661729338E-13 -3.6565740245443E-13 -7.2959132774697E-13 -7.3004368027784E-13 -7.3014070803640E-13 -3.6659320150430E-13 -2.5274043422809E-15  3.6213817041231E-13  3.6320772781031E-13 
 9.2000000685222E-01  9.2000001097349E-01  9.2000001460990E-01  9.2000001776143E-01  9.2000002042808E-01  9.2000002260986E-01  9.2000002430678E-01  9.2000002551885E-01  9.2000002624608E-01  9.2000002648848E-01 
 3.9999996573888E-02  3.9999994513253E-02  3.9999992695050E-02  3.9999991119287E-02  3.9999989785962E-02  3.9999988695071E-02  3.9999987846611E-02  3.9999987240576E-02  3.9999986876960E-02  3.9999986755758E-02 
 3.9999996573888E-02  3.9999994513253E-02  3.9999992695050E-02  3.9999991119287E-02  3.9999989785962E-02  3.9999988695071E-02  3.9999987846611E-02  3.9999987240576E-02  3.9999986876960E-02  3.9999986755758E-02 
 1.0307456414928E-02  1.0307456414933E-02  1.0307456414949E-02  1.0307456414975E-02  1.0307456415008E-02  1.0307456415046E-02  1.0307456415086E-02  1.0307456415121E-02  1.0307456415148E-02  1.0307456415159E-02 
 3.9130947772422E+00  3.9130947772413E+00  3.9130947772384E+00  3.9130947772337E+00  3.9130947772278E+00  3.9130947772210E+00  3.9130947772140E+00  3.9130947772076E+00  3.9130947772029E+00  3.9130947772008E+00 
 3.9027873208273E+00  3.9027873208263E+00  3.9027873208234E+00  3.9027873208188E+00  3.9027873208128E+00  3.9027873208059E+00  3.9027873207989E+00  3.9027873207925E+00  3.9027873207877E+00  3.9027873207857E+00 
 3.9027881867849E+00  3.9027881627299E+00  3.9027880720404E+00  3.9027879147158E+00  3.9027876907553E+00  3.9027874001573E+00  3.9027870429200E+00  3.9027866190413E+00  3.9027861285184E+00  3.9027855713482E+00 
-8.6595757853303E-07 -8.4190355664759E-07 -7.5121697173941E-07 -5.9389705997503E-07 -3.6994248198141E-07 -7.9351322401777E-08  2.7787890433117E-07  7.0175125976846E-07  1.1922693783362E-06  1.7494374682236E-06 
-7.6242591765025E-07 -1.4824951643377E-06 -1.3228055858846E-06 -1.0457822547917E-06 -6.5142367447542E-07 -1.3972770028564E-07  4.8930846218196E-07  1.2356882476319E-06  2.0994157445253E-06  1.5402478420184E-06 