TITLE = "Solution on Domain BulkDomain1D_0"
VARIABLES = "x [m]"  
"Vel_axial" 	"MF_sp(ECDMC)" 	"MF_sp(Li+)" 	"MF_sp(PF6-)" 	"Volt(Electroly)" 	"Volt(AnodeVolt)" 	
"Potential Drop Electrode-Electrolyte [V]" 	"Surf_0 Equilibrium Potential Drop Electrode-Electrolyte [V]" 	"Overpotential_0 [V]" 	"Current Source [A/m^2]" 	"Li+ flux [kmol/m^2/s]" 	"Electrolyte Current [A/m^2]" 	"Electrode Current [A/m^2]" 	
"Capacity discharged [A-s]" 	"Depth of discharge [-]" 	"Capacity remaining [A-s]" 	"Initial capacity [A-s]" 	"Porosity []" 	"Surface Area [m2/m2] (area per area)" 	"Specific current (per particle area) [A/m^2]" 	"Control volume thickness [m]" 	
"Moles Li_C6-bulk [mol/m^2] (per electrode area)" 	"Moles V_C6-bulk [mol/m^2] (per electrode area)" 	"qHeat_accum [J/m3]" 	"qHeat_step [W/m3]" 	"Joule_Lyte [W/m3]" 	"Joule_Solid [W/m3]" 	"electrodHeat [W/m3]" 	"OverpotHeat [W/m3]" 	"deltaSHeat [W/m3]" 	

ZONE T = "t = 0 [s]" I = 10 SOLUTIONTIME = 0.0000000000000E+00
0 	8.0556e-12 	0.92 	0.04 	0.04 	0.0102491 	0 	
0 	0 	0 	0 	0 	0.00580036 	0.164797 	
0 	0 	0 	0 	0.35 	8.53017 	0.00135996 	4.37444e-05 	
0.00364186 	0.00109712 	0 	0.0 	 0.0 	 0.0 	 0.0 	 0.0 	 0.0 	 
8.74889e-05 	2.41668e-11 	0.92 	0.04 	0.04 	0.0102491 	-2.65443e-11 	
0 	0 	0 	0 	0 	0.0232014 	0.149644 	
0 	0 	0 	0 	0.35 	17.0603 	0.00135996 	8.74889e-05 	
0.00728373 	0.00219424 	0 	0.0 	 0.0 	 0.0 	 0.0 	 0.0 	 0.0 	 
0.000174978 	4.0278e-11 	0.92 	0.04 	0.04 	0.0102491 	-4.99658e-11 	
0 	0 	0 	0 	0 	0.0464028 	0.130939 	
0 	0 	0 	0 	0.35 	17.0603 	0.00135996 	8.74889e-05 	
0.00728373 	0.00219424 	0 	0.0 	 0.0 	 0.0 	 0.0 	 0.0 	 0.0 	 
0.000262467 	5.63892e-11 	0.92 	0.04 	0.04 	0.0102491 	-7.02644e-11 	
0 	0 	0 	0 	0 	0.0696042 	0.112233 	
0 	0 	0 	0 	0.35 	17.0603 	0.00135996 	8.74889e-05 	
0.00728373 	0.00219424 	0 	0.0 	 0.0 	 0.0 	 0.0 	 0.0 	 0.0 	 
0.000349956 	7.25004e-11 	0.92 	0.04 	0.04 	0.0102491 	-8.74401e-11 	
0 	0 	0 	0 	0 	0.0928056 	0.0935275 	
0 	0 	0 	0 	0.35 	17.0603 	0.00135996 	8.74889e-05 	
0.00728373 	0.00219424 	0 	0.0 	 0.0 	 0.0 	 0.0 	 0.0 	 0.0 	 
0.000437444 	8.86116e-11 	0.92 	0.04 	0.04 	0.0102491 	-1.01493e-10 	
0 	0 	0 	0 	0 	0.116007 	0.0748219 	
0 	0 	0 	0 	0.35 	17.0603 	0.00135996 	8.74889e-05 	
0.00728373 	0.00219424 	0 	0.0 	 0.0 	 0.0 	 0.0 	 0.0 	 0.0 	 
0.000524933 	1.04723e-10 	0.92 	0.04 	0.04 	0.0102491 	-1.12423e-10 	
0 	0 	0 	0 	0 	0.139208 	0.0561164 	
0 	0 	0 	0 	0.35 	17.0603 	0.00135996 	8.74889e-05 	
0.00728373 	0.00219424 	0 	0.0 	 0.0 	 0.0 	 0.0 	 0.0 	 0.0 	 
0.000612422 	1.20834e-10 	0.92 	0.04 	0.04 	0.0102491 	-1.2023e-10 	
0 	0 	0 	0 	0 	0.16241 	0.0374109 	
0 	0 	0 	0 	0.35 	17.0603 	0.00135996 	8.74889e-05 	
0.00728372 	0.00219424 	0 	0.0 	 0.0 	 0.0 	 0.0 	 0.0 	 0.0 	 
0.000699911 	1.36945e-10 	0.92 	0.04 	0.04 	0.0102491 	-1.24914e-10 	
0 	0 	0 	0 	0 	0.185611 	0.0187054 	
0 	0 	0 	0 	0.35 	17.0603 	0.00135995 	8.74889e-05 	
0.00728372 	0.00219424 	0 	0.0 	 0.0 	 0.0 	 0.0 	 0.0 	 0.0 	 
0.0007874 	1.45e-10 	0.92 	0.04 	0.04 	0.0102491 	-1.26476e-10 	
0 	0 	0 	0 	0 	0.203012 	0.00467636 	
0 	0 	0 	0 	0.35 	8.53017 	0.00135995 	4.37444e-05 	
0.00364186 	0.00109712 	0 	0.0 	 0.0 	 0.0 	 0.0 	 0.0 	 0.0 	 
ZONE T = "t = 1e-08 [s]" I = 10 SOLUTIONTIME = 1.0000000000000E-08
0 	4.22388e-16 	0.92 	0.04 	0.04 	0.0103075 	0 	
-0.0102491 	-0.0103075 	5.83393e-05 	0.0116007 	1.15424e-10 	3.04129e-07 	-2.94137e-07 	
36.1094 	105856 	880.68 	1145.99 	0.35 	8.53017 	7.13085e-08 	4.37444e-05 	
0.00364186 	0.00109712 	4.0531e-25 	4.0531e-17 	3.98479e-17 	6.83013e-19 	0 	0 	0 	
8.74889e-05 	1.24276e-15 	0.92 	0.04 	0.04 	0.0103075 	9.98809e-17 	
-0.0102491 	-0.0103075 	5.83393e-05 	0.0232014 	3.46271e-10 	1.19894e-06 	-1.18897e-06 	
72.2187 	211712 	1761.36 	2291.97 	0.35 	17.0603 	6.92483e-08 	8.74889e-05 	
0.00728373 	0.00219424 	1.95759e-24 	1.95759e-16 	1.92396e-16 	3.36341e-18 	0 	0 	0 	
0.000174978 	-3.61234e-13 	0.92 	0.04 	0.04 	0.0103075 	3.96995e-16 	
-0.0102491 	-0.0103075 	5.83393e-05 	0.0232014 	5.77118e-10 	2.31613e-06 	-2.30615e-06 	
72.2187 	211712 	1761.36 	2291.97 	0.35 	17.0603 	6.17199e-08 	8.74889e-05 	
0.00728373 	0.00219424 	6.18307e-24 	6.18307e-16 	6.07629e-16 	1.06775e-17 	0 	0 	0 	
0.000262467 	2.55116e-15 	0.92 	0.04 	0.04 	0.0103075 	8.69899e-16 	
-0.0102491 	-0.0103075 	5.83392e-05 	0.0232014 	8.07965e-10 	3.25825e-06 	-3.24826e-06 	
72.2187 	211712 	1761.36 	2291.97 	0.35 	17.0603 	4.87236e-08 	8.74889e-05 	
0.00728373 	0.00219424 	1.18247e-23 	1.18247e-15 	1.162e-15 	2.04636e-17 	0 	0 	0 	
0.000349956 	-3.60298e-13 	0.92 	0.04 	0.04 	0.0103075 	1.48158e-15 	
-0.0102491 	-0.0103075 	5.83392e-05 	0.0232014 	1.03881e-09 	3.93196e-06 	-3.92199e-06 	
72.2187 	211712 	1761.36 	2291.97 	0.35 	17.0603 	3.0259e-08 	8.74889e-05 	
0.00728373 	0.00219424 	1.70178e-23 	1.70178e-15 	1.6723e-15 	2.94795e-17 	0 	0 	0 	
0.000437444 	-3.60223e-13 	0.92 	0.04 	0.04 	0.0103075 	2.17944e-15 	
-0.0102491 	-0.0103075 	5.83391e-05 	0.0232014 	1.26966e-09 	4.2441e-06 	-4.23407e-06 	
72.2188 	211712 	1761.36 	2291.97 	0.35 	17.0603 	6.32631e-09 	8.74889e-05 	
0.00728373 	0.00219424 	1.97452e-23 	1.97452e-15 	1.9403e-15 	3.4215e-17 	0 	0 	0 	
0.000524933 	-3.60497e-13 	0.92 	0.04 	0.04 	0.0103075 	2.89532e-15 	
-0.0102491 	-0.0103075 	5.83391e-05 	0.0232013 	1.5005e-09 	4.10124e-06 	-4.0912e-06 	
72.2188 	211712 	1761.36 	2291.97 	0.35 	17.0603 	-2.30746e-08 	8.74889e-05 	
0.00728373 	0.00219424 	1.84777e-23 	1.84777e-15 	1.81576e-15 	3.20137e-17 	0 	0 	0 	
0.000612422 	-3.61183e-13 	0.92 	0.04 	0.04 	0.0103075 	3.54548e-15 	
-0.0102491 	-0.0103075 	5.8339e-05 	0.0232013 	1.73135e-09 	3.41013e-06 	-3.4001e-06 	
72.2188 	211712 	1761.36 	2291.97 	0.35 	17.0603 	-5.79442e-08 	8.74889e-05 	
0.00728372 	0.00219424 	1.30132e-23 	1.30132e-15 	1.27879e-15 	2.25266e-17 	0 	0 	0 	
0.000699911 	-7.25555e-13 	0.92 	0.04 	0.04 	0.0103075 	4.03061e-15 	
-0.0102491 	-0.0103075 	5.83389e-05 	0.0232013 	1.9622e-09 	2.07745e-06 	-2.06746e-06 	
72.2188 	211712 	1761.36 	2291.97 	0.35 	17.0603 	-9.82821e-08 	8.74889e-05 	
0.00728372 	0.00219424 	5.50043e-24 	5.50043e-16 	5.40545e-16 	9.49774e-18 	0 	0 	0 	
0.0007874 	-7.26409e-13 	0.92 	0.04 	0.04 	0.0103075 	4.2358e-15 	
-0.0102491 	-0.0103075 	5.83388e-05 	0.0116006 	1.9622e-09 	6.24427e-07 	-6.1455e-07 	
36.1094 	105856 	880.68 	1145.99 	0.35 	8.53017 	-1.44089e-07 	4.37444e-05 	
0.00364186 	0.00109712 	1.68214e-24 	1.68214e-16 	1.65332e-16 	2.88274e-18 	0 	0 	0 	
ZONE T = "t = 2e-08 [s]" I = 10 SOLUTIONTIME = 2.0000000000000E-08
0 	-1.81181e-13 	0.92 	0.04 	0.04 	0.0103075 	0 	
-0.0103075 	-0.0103075 	3.05897e-09 	6.08273e-07 	5.53103e-11 	3.04406e-07 	-2.84415e-07 	
36.1094 	105856 	880.68 	1145.99 	0.35 	8.53017 	7.13738e-08 	4.37444e-05 	
0.00364186 	0.00109712 	8.11129e-25 	4.0582e-17 	7.97683e-17 	1.34464e-18 	0 	0 	0 	
8.74889e-05 	9.09263e-13 	0.92 	0.04 	0.04 	0.0103075 	9.83044e-17 	
-0.0103075 	-0.0103075 	2.9706e-09 	1.1814e-06 	1.65931e-10 	1.20013e-06 	-1.18008e-06 	
72.2187 	211712 	1761.36 	2291.97 	0.35 	17.0603 	6.93134e-08 	8.74889e-05 	
0.00728373 	0.00219424 	3.9187e-24 	1.96111e-16 	3.85182e-16 	6.68789e-18 	0 	0 	0 	
0.000174978 	1.2732e-12 	0.92 	0.04 	0.04 	0.0103075 	3.94027e-16 	
-0.0103075 	-0.0103075 	2.64764e-09 	1.05296e-06 	2.7655e-10 	2.31843e-06 	-2.29838e-06 	
72.2187 	211712 	1761.36 	2291.97 	0.35 	17.0603 	6.17851e-08 	8.74889e-05 	
0.00728373 	0.00219424 	1.23775e-23 	6.1944e-16 	1.21646e-15 	2.12879e-17 	0 	0 	0 	
0.000262467 	1.27378e-12 	0.92 	0.04 	0.04 	0.0103075 	8.65726e-16 	
-0.0103075 	-0.0103075 	2.09013e-09 	8.31241e-07 	3.87169e-10 	3.26157e-06 	-3.24159e-06 	
72.2187 	211712 	1761.36 	2291.97 	0.35 	17.0603 	4.87887e-08 	8.74889e-05 	
0.00728373 	0.00219424 	2.36723e-23 	1.18476e-15 	2.32638e-15 	4.08456e-17 	0 	0 	0 	
0.000349956 	1.27414e-12 	0.92 	0.04 	0.04 	0.0103075 	1.47638e-15 	
-0.0103075 	-0.0103075 	1.29804e-09 	5.16229e-07 	4.97786e-10 	3.93638e-06 	-3.91643e-06 	
72.2187 	211712 	1761.36 	2291.97 	0.35 	17.0603 	3.03242e-08 	8.74889e-05 	
0.00728373 	0.00219424 	3.40725e-23 	1.70547e-15 	3.34838e-15 	5.88764e-17 	0 	0 	0 	
0.000437444 	1.84593e-13 	0.92 	0.04 	0.04 	0.0103075 	2.17341e-15 	
-0.0103075 	-0.0103075 	2.71389e-10 	1.07929e-07 	6.084e-10 	4.24962e-06 	-4.22963e-06 	
72.2188 	211712 	1761.36 	2291.97 	0.35 	17.0603 	6.39146e-09 	8.74889e-05 	
0.00728373 	0.00219424 	3.95403e-23 	1.97951e-15 	3.88567e-15 	6.83583e-17 	0 	0 	0 	
0.000524933 	-5.42095e-13 	0.92 	0.04 	0.04 	0.0103075 	2.88865e-15 	
-0.0103075 	-0.0103075 	-9.89847e-10 	-3.93661e-07 	7.19012e-10 	4.10786e-06 	-4.08787e-06 	
72.2188 	211712 	1761.36 	2291.97 	0.35 	17.0603 	-2.30095e-08 	8.74889e-05 	
0.00728373 	0.00219424 	3.70133e-23 	1.85356e-15 	3.63736e-15 	6.3975e-17 	0 	0 	0 	
0.000612422 	-1.6324e-12 	0.92 	0.04 	0.04 	0.0103075 	3.53834e-15 	
-0.0103075 	-0.0103075 	-2.48567e-09 	-9.88547e-07 	8.29621e-10 	3.41787e-06 	-3.39788e-06 	
72.2188 	211712 	1761.36 	2291.97 	0.35 	17.0603 	-5.78791e-08 	8.74889e-05 	
0.00728372 	0.00219424 	2.60823e-23 	1.30691e-15 	2.5632e-15 	4.50233e-17 	0 	0 	0 	
0.000699911 	-1.63357e-12 	0.92 	0.04 	0.04 	0.0103075 	4.02319e-15 	
-0.0103075 	-0.0103075 	-4.21607e-09 	-1.67673e-06 	9.40225e-10 	2.08638e-06 	-2.06635e-06 	
72.2188 	211712 	1761.36 	2291.97 	0.35 	17.0603 	-9.8217e-08 	8.74889e-05 	
0.00728372 	0.00219424 	1.10396e-23 	5.5392e-16 	1.08498e-15 	1.89849e-17 	0 	0 	0 	
0.0007874 	-2.36084e-12 	0.92 	0.04 	0.04 	0.0103075 	4.22829e-15 	
-0.0103075 	-0.0103075 	-6.18107e-09 	-1.2291e-06 	9.40225e-10 	6.34278e-07 	-6.14272e-07 	
36.1094 	105856 	880.68 	1145.99 	0.35 	8.53017 	-1.44024e-07 	4.37444e-05 	
0.00364186 	0.00109712 	3.38991e-24 	1.70776e-16 	3.33228e-16 	5.76287e-18 	0 	0 	0 	
ZONE T = "t = 3e-08 [s]" I = 10 SOLUTIONTIME = 3.0000000000000E-08
0 	3.63631e-13 	0.92 	0.04 	0.04 	0.0103075 	0 	
-0.0103075 	-0.0103075 	3.06177e-09 	6.0883e-07 	5.53103e-11 	3.04774e-07 	-2.74693e-07 	
36.1094 	105856 	880.68 	1145.99 	0.35 	8.53017 	7.14389e-08 	4.37444e-05 	
0.00364186 	0.00109712 	1.2177e-24 	4.06575e-17 	1.19785e-16 	1.9852e-18 	0 	0 	0 	
8.74889e-05 	-7.2517e-13 	0.92 	0.04 	0.04 	0.0103075 	9.67276e-17 	
-0.0103075 	-0.0103075 	2.97338e-09 	1.18251e-06 	1.65931e-10 	1.20124e-06 	-1.1712e-06 	
72.2187 	211712 	1761.36 	2291.97 	0.35 	17.0603 	6.93785e-08 	8.74889e-05 	
0.00728373 	0.00219424 	5.88276e-24 	1.96405e-16 	5.78302e-16 	9.97374e-18 	0 	0 	0 	
0.000174978 	-3.6123e-13 	0.92 	0.04 	0.04 	0.0103075 	3.91059e-16 	
-0.0103075 	-0.0103075 	2.65044e-09 	1.05407e-06 	2.7655e-10 	2.32055e-06 	-2.2906e-06 	
72.2187 	211712 	1761.36 	2291.97 	0.35 	17.0603 	6.18502e-08 	8.74889e-05 	
0.00728373 	0.00219424 	1.85825e-23 	6.20504e-16 	1.82642e-15 	3.18312e-17 	0 	0 	0 	
0.000262467 	-7.23859e-13 	0.92 	0.04 	0.04 	0.0103075 	8.61552e-16 	
-0.0103075 	-0.0103075 	2.09292e-09 	8.32351e-07 	3.87169e-10 	3.26488e-06 	-3.23492e-06 	
72.2187 	211712 	1761.36 	2291.97 	0.35 	17.0603 	4.88539e-08 	8.74889e-05 	
0.00728373 	0.00219424 	3.55429e-23 	1.18706e-15 	3.49314e-15 	6.11461e-17 	0 	0 	0 	
0.000349956 	-1.44991e-12 	0.92 	0.04 	0.04 	0.0103075 	1.47119e-15 	
-0.0103075 	-0.0103075 	1.30084e-09 	5.17341e-07 	4.97786e-10 	3.94089e-06 	-3.91088e-06 	
72.2187 	211712 	1761.36 	2291.97 	0.35 	17.0603 	3.03892e-08 	8.74889e-05 	
0.00728373 	0.00219424 	5.1165e-23 	1.70925e-15 	5.02831e-15 	8.8191e-17 	0 	0 	0 	
0.000437444 	-1.08663e-12 	0.92 	0.04 	0.04 	0.0103075 	2.16738e-15 	
-0.0103075 	-0.0103075 	2.7418e-10 	1.0904e-07 	6.084e-10 	4.25523e-06 	-4.22518e-06 	
72.2188 	211712 	1761.36 	2291.97 	0.35 	17.0603 	6.45659e-09 	8.74889e-05 	
0.00728373 	0.00219424 	5.93861e-23 	1.98458e-15 	5.83618e-15 	1.0243e-16 	0 	0 	0 	
0.000524933 	-1.45011e-12 	0.92 	0.04 	0.04 	0.0103075 	2.88197e-15 	
-0.0103075 	-0.0103075 	-9.87052e-10 	-3.9255e-07 	7.19012e-10 	4.11449e-06 	-4.08454e-06 	
72.2188 	211712 	1761.36 	2291.97 	0.35 	17.0603 	-2.29444e-08 	8.74889e-05 	
0.00728373 	0.00219424 	5.56068e-23 	1.85935e-15 	5.4648e-15 	9.58839e-17 	0 	0 	0 	
0.000612422 	-1.45079e-12 	0.92 	0.04 	0.04 	0.0103075 	3.5312e-15 	
-0.0103075 	-0.0103075 	-2.48288e-09 	-9.87436e-07 	8.29621e-10 	3.4256e-06 	-3.39566e-06 	
72.2188 	211712 	1761.36 	2291.97 	0.35 	17.0603 	-5.78139e-08 	8.74889e-05 	
0.00728372 	0.00219424 	3.92075e-23 	1.31252e-15 	3.85326e-15 	6.74902e-17 	0 	0 	0 	
0.000699911 	-1.08875e-12 	0.92 	0.04 	0.04 	0.0103075 	4.01577e-15 	
-0.0103075 	-0.0103075 	-4.21328e-09 	-1.67562e-06 	9.40225e-10 	2.09531e-06 	-2.06524e-06 	
72.2188 	211712 	1761.36 	2291.97 	0.35 	17.0603 	-9.81518e-08 	8.74889e-05 	
0.00728372 	0.00219424 	1.66178e-23 	5.57815e-16 	1.63332e-15 	2.84616e-17 	0 	0 	0 	
0.0007874 	2.0832e-17 	0.92 	0.04 	0.04 	0.0103075 	4.22078e-15 	
-0.0103075 	-0.0103075 	-6.17828e-09 	-1.22854e-06 	9.40225e-10 	6.44128e-07 	-6.13995e-07 	
36.1094 	105856 	880.68 	1145.99 	0.35 	8.53017 	-1.43959e-07 	4.37444e-05 	
0.00364186 	0.00109712 	5.12349e-24 	1.73358e-16 	5.03709e-16 	8.6404e-18 	0 	0 	0 	
ZONE T = "t = 4e-08 [s]" I = 10 SOLUTIONTIME = 4.0000000000000E-08
0 	-1.8118e-13 	0.92 	0.04 	0.04 	0.0103075 	0 	
-0.0103075 	-0.0103075 	3.06456e-09 	6.09386e-07 	5.53103e-11 	3.04958e-07 	-2.6497e-07 	
36.1094 	105856 	880.68 	1145.99 	0.35 	8.53017 	7.15039e-08 	4.37444e-05 	
0.00364186 	0.00109712 	1.62456e-24 	4.06852e-17 	1.59851e-16 	2.60506e-18 	0 	0 	0 	
8.74889e-05 	-1.80358e-13 	0.92 	0.04 	0.04 	0.0103075 	9.51507e-17 	
-0.0103075 	-0.0103075 	2.97618e-09 	1.18362e-06 	1.65931e-10 	1.20225e-06 	-1.16231e-06 	
72.2187 	211712 	1761.36 	2291.97 	0.35 	17.0603 	6.94436e-08 	8.74889e-05 	
0.00728373 	0.00219424 	7.84987e-24 	1.96711e-16 	7.71766e-16 	1.32213e-17 	0 	0 	0 	
0.000174978 	-5.42832e-13 	0.92 	0.04 	0.04 	0.0103075 	3.88091e-16 	
-0.0103075 	-0.0103075 	2.65323e-09 	1.05518e-06 	2.7655e-10 	2.32285e-06 	-2.28282e-06 	
72.2187 	211712 	1761.36 	2291.97 	0.35 	17.0603 	6.19153e-08 	8.74889e-05 	
0.00728373 	0.00219424 	2.47991e-23 	6.21662e-16 	2.43761e-15 	4.23077e-17 	0 	0 	0 	
0.000262467 	-9.0546e-13 	0.92 	0.04 	0.04 	0.0103075 	8.57378e-16 	
-0.0103075 	-0.0103075 	2.09572e-09 	8.33464e-07 	3.87169e-10 	3.26829e-06 	-3.22826e-06 	
72.2187 	211712 	1761.36 	2291.97 	0.35 	17.0603 	4.8919e-08 	8.74889e-05 	
0.00728373 	0.00219424 	4.74371e-23 	1.18942e-15 	4.66234e-15 	8.13652e-17 	0 	0 	0 	
0.000349956 	-1.78684e-13 	0.92 	0.04 	0.04 	0.0103075 	1.466e-15 	
-0.0103075 	-0.0103075 	1.30363e-09 	5.1845e-07 	4.97786e-10 	3.94531e-06 	-3.90532e-06 	
72.2187 	211712 	1761.36 	2291.97 	0.35 	17.0603 	3.04545e-08 	8.74889e-05 	
0.00728373 	0.00219424 	6.82946e-23 	1.71295e-15 	6.71203e-15 	1.17423e-16 	0 	0 	0 	
0.000437444 	-1.78607e-13 	0.92 	0.04 	0.04 	0.0103075 	2.16136e-15 	
-0.0103075 	-0.0103075 	2.76974e-10 	1.10152e-07 	6.084e-10 	4.26076e-06 	-4.22074e-06 	
72.2188 	211712 	1761.36 	2291.97 	0.35 	17.0603 	6.52166e-09 	8.74889e-05 	
0.00728373 	0.00219424 	7.92819e-23 	1.98958e-15 	7.79176e-15 	1.3643e-16 	0 	0 	0 	
0.000524933 	-1.78878e-13 	0.92 	0.04 	0.04 	0.0103075 	2.87529e-15 	
-0.0103075 	-0.0103075 	-9.84259e-10 	-3.91439e-07 	7.19012e-10 	4.12121e-06 	-4.0812e-06 	
72.2188 	211712 	1761.36 	2291.97 	0.35 	17.0603 	-2.28793e-08 	8.74889e-05 	
0.00728373 	0.00219424 	7.42591e-23 	1.86523e-15 	7.29817e-15 	1.2774e-16 	0 	0 	0 	
0.000612422 	9.10061e-13 	0.92 	0.04 	0.04 	0.0103075 	3.52406e-15 	
-0.0103075 	-0.0103075 	-2.48008e-09 	-9.86324e-07 	8.29621e-10 	3.43342e-06 	-3.39343e-06 	
72.2188 	211712 	1761.36 	2291.97 	0.35 	17.0603 	-5.77488e-08 	8.74889e-05 	
0.00728372 	0.00219424 	5.23898e-23 	1.31822e-15 	5.14905e-15 	8.99272e-17 	0 	0 	0 	
0.000699911 	5.45692e-13 	0.92 	0.04 	0.04 	0.0103075 	4.00835e-15 	
-0.0103075 	-0.0103075 	-4.21049e-09 	-1.6745e-06 	9.40224e-10 	2.10414e-06 	-2.06413e-06 	
72.2188 	211712 	1761.36 	2291.97 	0.35 	17.0603 	-9.80867e-08 	8.74889e-05 	
0.00728372 	0.00219424 	2.22348e-23 	5.61702e-16 	2.18555e-15 	3.79277e-17 	0 	0 	0 	
0.0007874 	1.81632e-13 	0.92 	0.04 	0.04 	0.0103075 	4.21327e-15 	
-0.0103075 	-0.0103075 	-6.17549e-09 	-1.22799e-06 	9.40224e-10 	6.53795e-07 	-6.13717e-07 	
36.1094 	105856 	880.68 	1145.99 	0.35 	8.53017 	-1.43893e-07 	4.37444e-05 	
0.00364186 	0.00109712 	6.88259e-24 	1.7591e-16 	6.76744e-16 	1.15153e-17 	0 	0 	0 	
ZONE T = "t = 5.5e-08 [s]" I = 10 SOLUTIONTIME = 5.5000000000000E-08
0 	-1.20645e-13 	0.92 	0.04 	0.04 	0.0103075 	0 	
-0.0103075 	-0.0103075 	3.06735e-09 	6.0994e-07 	5.53103e-11 	3.05326e-07 	-2.50387e-07 	
36.1094 	105856 	880.68 	1145.99 	0.35 	8.53017 	7.16016e-08 	4.37444e-05 	
0.00364186 	0.00109712 	2.23583e-24 	4.07515e-17 	1.46729e-16 	2.32613e-18 	0 	0 	0 	
8.74889e-05 	-1.19821e-13 	0.92 	0.04 	0.04 	0.0103075 	9.27857e-17 	
-0.0103075 	-0.0103075 	2.97898e-09 	1.18473e-06 	1.65931e-10 	1.20391e-06 	-1.14897e-06 	
72.2187 	211712 	1761.36 	2291.97 	0.35 	17.0603 	6.95414e-08 	8.74889e-05 	
0.00728373 	0.00219424 	1.08079e-23 	1.97201e-16 	7.08521e-16 	1.20048e-17 	0 	0 	0 	
0.000174978 	-8.45502e-13 	0.92 	0.04 	0.04 	0.0103075 	3.83639e-16 	
-0.0103075 	-0.0103075 	2.65603e-09 	1.0563e-06 	2.7655e-10 	2.32617e-06 	-2.27115e-06 	
72.2187 	211712 	1761.36 	2291.97 	0.35 	17.0603 	6.2013e-08 	8.74889e-05 	
0.00728373 	0.00219424 	3.41487e-23 	6.23305e-16 	2.238e-15 	3.8582e-17 	0 	0 	0 	
0.000262467 	-6.02783e-13 	0.92 	0.04 	0.04 	0.0103075 	8.51118e-16 	
-0.0103075 	-0.0103075 	2.09851e-09 	8.34575e-07 	3.87169e-10 	3.27326e-06 	-3.21826e-06 	
72.2187 	211712 	1761.36 	2291.97 	0.35 	17.0603 	4.90167e-08 	8.74889e-05 	
0.00728373 	0.00219424 	6.53303e-23 	1.19288e-15 	4.28101e-15 	7.43409e-17 	0 	0 	0 	
0.000349956 	-3.60282e-13 	0.92 	0.04 	0.04 	0.0103075 	1.45821e-15 	
-0.0103075 	-0.0103075 	1.30643e-09 	5.19563e-07 	4.97786e-10 	3.95203e-06 	-3.89699e-06 	
72.2187 	211712 	1761.36 	2291.97 	0.35 	17.0603 	3.05521e-08 	8.74889e-05 	
0.00728373 	0.00219424 	9.40735e-23 	1.71859e-15 	6.16417e-15 	1.07391e-16 	0 	0 	0 	
0.000437444 	-6.02343e-13 	0.92 	0.04 	0.04 	0.0103075 	2.15231e-15 	
-0.0103075 	-0.0103075 	2.79763e-10 	1.11262e-07 	6.084e-10 	4.26913e-06 	-4.21407e-06 	
72.2188 	211712 	1761.36 	2291.97 	0.35 	17.0603 	6.61938e-09 	8.74889e-05 	
0.00728373 	0.00219424 	1.0924e-22 	1.99718e-15 	7.1578e-15 	1.24847e-16 	0 	0 	0 	
0.000524933 	-3.60474e-13 	0.92 	0.04 	0.04 	0.0103075 	2.86527e-15 	
-0.0103075 	-0.0103075 	-9.81462e-10 	-3.90328e-07 	7.19012e-10 	4.13115e-06 	-4.0762e-06 	
72.2188 	211712 	1761.36 	2291.97 	0.35 	17.0603 	-2.27815e-08 	8.74889e-05 	
0.00728373 	0.00219424 	1.02369e-22 	1.87396e-15 	6.70763e-15 	1.16938e-16 	0 	0 	0 	
0.000612422 	-1.08757e-12 	0.92 	0.04 	0.04 	0.0103075 	3.51335e-15 	
-0.0103075 	-0.0103075 	-2.47729e-09 	-9.85214e-07 	8.29621e-10 	3.44502e-06 	-3.3901e-06 	
72.2188 	211712 	1761.36 	2291.97 	0.35 	17.0603 	-5.76511e-08 	8.74889e-05 	
0.00728372 	0.00219424 	7.22899e-23 	1.32667e-15 	4.73698e-15 	8.23438e-17 	0 	0 	0 	
0.000699911 	-1.08873e-12 	0.92 	0.04 	0.04 	0.0103075 	3.99722e-15 	
-0.0103075 	-0.0103075 	-4.20769e-09 	-1.67339e-06 	9.40224e-10 	2.11749e-06 	-2.06246e-06 	
72.2188 	211712 	1761.36 	2291.97 	0.35 	17.0603 	-9.79891e-08 	8.74889e-05 	
0.00728372 	0.00219424 	3.07489e-23 	5.67605e-16 	2.01519e-15 	3.47355e-17 	0 	0 	0 	
0.0007874 	-1.08958e-12 	0.92 	0.04 	0.04 	0.0103075 	4.202e-15 	
-0.0103075 	-0.0103075 	-6.17269e-09 	-1.22743e-06 	9.40224e-10 	6.68388e-07 	-6.133e-07 	
36.1094 	105856 	880.68 	1145.99 	0.35 	8.53017 	-1.43796e-07 	4.37444e-05 	
0.00364186 	0.00109712 	9.57956e-24 	1.79798e-16 	6.28089e-16 	1.05479e-17 	0 	0 	0 	
ZONE T = "t = 7.75e-08 [s]" I = 10 SOLUTIONTIME = 7.7500000000000E-08
0 	8.11378e-14 	0.92 	0.04 	0.04 	0.0103075 	0 	
-0.0103075 	-0.0103075 	3.07155e-09 	6.10774e-07 	5.53103e-11 	3.06062e-07 	-2.28512e-07 	
36.1094 	105856 	880.68 	1145.99 	0.35 	8.53017 	7.17482e-08 	4.37444e-05 	
0.00364186 	0.00109712 	3.15611e-24 	4.09013e-17 	1.38176e-16 	2.09596e-18 	0 	0 	0 	
8.74889e-05 	8.19634e-14 	0.92 	0.04 	0.04 	0.0103075 	8.9238e-17 	
-0.0103075 	-0.0103075 	2.98317e-09 	1.1864e-06 	1.65931e-10 	1.20648e-06 	-1.12897e-06 	
72.2187 	211712 	1761.36 	2291.97 	0.35 	17.0603 	6.96879e-08 	8.74889e-05 	
0.00728373 	0.00219424 	1.52613e-23 	1.97928e-16 	6.67168e-16 	1.11097e-17 	0 	0 	0 	
0.000174978 	4.05551e-13 	0.92 	0.04 	0.04 	0.0103075 	3.76961e-16 	
-0.0103075 	-0.0103075 	2.66022e-09 	1.05796e-06 	2.7655e-10 	2.33114e-06 	-2.25365e-06 	
72.2187 	211712 	1761.36 	2291.97 	0.35 	17.0603 	6.21596e-08 	8.74889e-05 	
0.00728373 	0.00219424 	4.82291e-23 	6.25797e-16 	2.10757e-15 	3.59496e-17 	0 	0 	0 	
0.000262467 	5.67559e-13 	0.92 	0.04 	0.04 	0.0103075 	8.41727e-16 	
-0.0103075 	-0.0103075 	2.1027e-09 	8.36241e-07 	3.87169e-10 	3.28081e-06 	-3.20326e-06 	
72.2187 	211712 	1761.36 	2291.97 	0.35 	17.0603 	4.91632e-08 	8.74889e-05 	
0.00728373 	0.00219424 	9.22885e-23 	1.19814e-15 	4.03223e-15 	6.94762e-17 	0 	0 	0 	
0.000349956 	4.06497e-13 	0.92 	0.04 	0.04 	0.0103075 	1.44652e-15 	
-0.0103075 	-0.0103075 	1.31062e-09 	5.21229e-07 	4.97786e-10 	3.96197e-06 	-3.88449e-06 	
72.2187 	211712 	1761.36 	2291.97 	0.35 	17.0603 	3.06986e-08 	8.74889e-05 	
0.00728373 	0.00219424 	1.3293e-22 	1.72694e-15 	5.80747e-15 	1.00519e-16 	0 	0 	0 	
0.000437444 	5.68003e-13 	0.92 	0.04 	0.04 	0.0103075 	2.13875e-15 	
-0.0103075 	-0.0103075 	2.8396e-10 	1.12929e-07 	6.084e-10 	4.28156e-06 	-4.20407e-06 	
72.2188 	211712 	1761.36 	2291.97 	0.35 	17.0603 	6.76589e-09 	8.74889e-05 	
0.00728373 	0.00219424 	1.54431e-22 	2.00848e-15 	6.74662e-15 	1.16964e-16 	0 	0 	0 	
0.000524933 	4.06309e-13 	0.92 	0.04 	0.04 	0.0103075 	2.85025e-15 	
-0.0103075 	-0.0103075 	-9.77271e-10 	-3.88661e-07 	7.19012e-10 	4.14625e-06 	-4.0687e-06 	
72.2188 	211712 	1761.36 	2291.97 	0.35 	17.0603 	-2.2635e-08 	8.74889e-05 	
0.00728373 	0.00219424 	1.44832e-22 	1.88725e-15 	6.32734e-15 	1.0962e-16 	0 	0 	0 	
0.000612422 	8.89905e-13 	0.92 	0.04 	0.04 	0.0103075 	3.49728e-15 	
-0.0103075 	-0.0103075 	-2.4731e-09 	-9.83547e-07 	8.29621e-10 	3.4626e-06 	-3.3851e-06 	
72.2188 	211712 	1761.36 	2291.97 	0.35 	17.0603 	-5.75046e-08 	8.74889e-05 	
0.00728372 	0.00219424 	1.0243e-22 	1.33956e-15 	4.47522e-15 	7.72212e-17 	0 	0 	0 	
0.000699911 	8.88746e-13 	0.92 	0.04 	0.04 	0.0103075 	3.98052e-15 	
-0.0103075 	-0.0103075 	-4.2035e-09 	-1.67173e-06 	9.40223e-10 	2.13747e-06 	-2.05996e-06 	
72.2188 	211712 	1761.36 	2291.97 	0.35 	17.0603 	-9.78425e-08 	8.74889e-05 	
0.00728372 	0.00219424 	4.37206e-23 	5.7652e-16 	1.91055e-15 	3.25837e-17 	0 	0 	0 	
0.0007874 	1.13003e-12 	0.92 	0.04 	0.04 	0.0103075 	4.18509e-15 	
-0.0103075 	-0.0103075 	-6.1685e-09 	-1.2266e-06 	9.40223e-10 	6.90183e-07 	-6.12676e-07 	
36.1094 	105856 	880.68 	1145.99 	0.35 	8.53017 	-1.43649e-07 	4.37444e-05 	
0.00364186 	0.00109712 	1.37575e-23 	1.85685e-16 	6.01546e-16 	9.89711e-18 	0 	0 	0 	
ZONE T = "t = 1.1125e-07 [s]" I = 10 SOLUTIONTIME = 1.1125000000000E-07
0 	4.26295e-16 	0.92 	0.04 	0.04 	0.0103075 	0 	
-0.0103075 	-0.0103075 	3.07784e-09 	6.12024e-07 	5.53103e-11 	3.06891e-07 	-1.95699e-07 	
36.1094 	105856 	880.68 	1145.99 	0.35 	8.53017 	7.1968e-08 	4.37444e-05 	
0.00364186 	0.00109712 	4.54178e-24 	4.1057e-17 	1.32692e-16 	1.87943e-18 	0 	0 	0 	
8.74889e-05 	1.25448e-15 	0.92 	0.04 	0.04 	0.0103075 	8.39166e-17 	
-0.0103075 	-0.0103075 	2.98945e-09 	1.1889e-06 	1.65931e-10 	1.21017e-06 	-1.09897e-06 	
72.2187 	211712 	1761.36 	2291.97 	0.35 	17.0603 	6.99077e-08 	8.74889e-05 	
0.00728373 	0.00219424 	2.19783e-23 	1.99022e-16 	6.40818e-16 	1.03897e-17 	0 	0 	0 	
0.000174978 	2.17228e-13 	0.92 	0.04 	0.04 	0.0103075 	3.66944e-16 	
-0.0103075 	-0.0103075 	2.6665e-09 	1.06046e-06 	2.7655e-10 	2.33869e-06 	-2.2274e-06 	
72.2187 	211712 	1761.36 	2291.97 	0.35 	17.0603 	6.23794e-08 	8.74889e-05 	
0.00728373 	0.00219424 	6.94776e-23 	6.29583e-16 	2.02462e-15 	3.39741e-17 	0 	0 	0 	
0.000262467 	2.5785e-15 	0.92 	0.04 	0.04 	0.0103075 	8.27641e-16 	
-0.0103075 	-0.0103075 	2.10899e-09 	8.38741e-07 	3.87169e-10 	3.29204e-06 	-3.18076e-06 	
72.2187 	211712 	1761.36 	2291.97 	0.35 	17.0603 	4.9383e-08 	8.74889e-05 	
0.00728373 	0.00219424 	1.32991e-22 	1.20599e-15 	3.8745e-15 	6.5962e-17 	0 	0 	0 	
0.000349956 	2.94479e-15 	0.92 	0.04 	0.04 	0.0103075 	1.42899e-15 	
-0.0103075 	-0.0103075 	1.3169e-09 	5.23729e-07 	4.97786e-10 	3.97697e-06 	-3.86574e-06 	
72.2187 	211712 	1761.36 	2291.97 	0.35 	17.0603 	3.09184e-08 	8.74889e-05 	
0.00728373 	0.00219424 	1.91641e-22 	1.73961e-15 	5.5826e-15 	9.56616e-17 	0 	0 	0 	
0.000437444 	3.02755e-15 	0.92 	0.04 	0.04 	0.0103075 	2.1184e-15 	
-0.0103075 	-0.0103075 	2.90244e-10 	1.15428e-07 	6.084e-10 	4.30034e-06 	-4.18907e-06 	
72.2188 	211712 	1761.36 	2291.97 	0.35 	17.0603 	6.98578e-09 	8.74889e-05 	
0.00728373 	0.00219424 	2.22795e-22 	2.02562e-15 	6.48987e-15 	1.11469e-16 	0 	0 	0 	
0.000524933 	2.762e-15 	0.92 	0.04 	0.04 	0.0103075 	2.82771e-15 	
-0.0103075 	-0.0103075 	-9.70987e-10 	-3.8616e-07 	7.19012e-10 	4.16871e-06 	-4.05745e-06 	
72.2188 	211712 	1761.36 	2291.97 	0.35 	17.0603 	-2.24153e-08 	8.74889e-05 	
0.00728373 	0.00219424 	2.09196e-22 	1.90711e-15 	6.09385e-15 	1.04564e-16 	0 	0 	0 	
0.000612422 	-4.28385e-13 	0.92 	0.04 	0.04 	0.0103075 	3.47317e-15 	
-0.0103075 	-0.0103075 	-2.46681e-09 	-9.81047e-07 	8.29621e-10 	3.48884e-06 	-3.3776e-06 	
72.2188 	211712 	1761.36 	2291.97 	0.35 	17.0603 	-5.72847e-08 	8.74889e-05 	
0.00728372 	0.00219424 	1.48293e-22 	1.3589e-15 	4.32016e-15 	7.37058e-17 	0 	0 	0 	
0.000699911 	-4.29542e-13 	0.92 	0.04 	0.04 	0.0103075 	3.95548e-15 	
-0.0103075 	-0.0103075 	-4.19722e-09 	-1.66923e-06 	9.40222e-10 	2.16747e-06 	-2.05621e-06 	
72.2188 	211712 	1761.36 	2291.97 	0.35 	17.0603 	-9.76227e-08 	8.74889e-05 	
0.00728372 	0.00219424 	6.36354e-23 	5.90067e-16 	1.85438e-15 	3.11137e-17 	0 	0 	0 	
0.0007874 	-5.91817e-13 	0.92 	0.04 	0.04 	0.0103075 	4.15974e-15 	
-0.0103075 	-0.0103075 	-6.16221e-09 	-1.22535e-06 	9.40222e-10 	7.2297e-07 	-6.11738e-07 	
36.1094 	105856 	880.68 	1145.99 	0.35 	8.53017 	-1.43429e-07 	4.37444e-05 	
0.00364186 	0.00109712 	2.03294e-23 	1.94724e-16 	5.92898e-16 	9.45449e-18 	0 	0 	0 	
ZONE T = "t = 1.61875e-07 [s]" I = 10 SOLUTIONTIME = 1.6187500000000E-07
0 	-3.54441e-14 	0.92 	0.04 	0.04 	0.0103075 	0 	
-0.0103075 	-0.0103075 	3.08727e-09 	6.13899e-07 	5.53103e-11 	3.08364e-07 	-1.46481e-07 	
36.1094 	105856 	880.68 	1145.99 	0.35 	8.53017 	7.22977e-08 	4.37444e-05 	
0.00364186 	0.00109712 	6.63563e-24 	4.136e-17 	1.29426e-16 	1.64772e-18 	0 	0 	0 	
8.74889e-05 	-3.4612e-14 	0.92 	0.04 	0.04 	0.0103075 	7.59343e-17 	
-0.0103075 	-0.0103075 	2.99889e-09 	1.19265e-06 	1.65931e-10 	1.21587e-06 	-1.05397e-06 	
72.2187 	211712 	1761.36 	2291.97 	0.35 	17.0603 	7.02374e-08 	8.74889e-05 	
0.00728373 	0.00219424 	3.21382e-23 	2.00691e-16 	6.25098e-16 	9.73121e-18 	0 	0 	0 	
0.000174978 	-1.05614e-13 	0.92 	0.04 	0.04 	0.0103075 	3.51919e-16 	
-0.0103075 	-0.0103075 	2.67594e-09 	1.06421e-06 	2.76551e-10 	2.34992e-06 	-2.18803e-06 	
72.2187 	211712 	1761.36 	2291.97 	0.35 	17.0603 	6.27091e-08 	8.74889e-05 	
0.00728373 	0.00219424 	1.01637e-22 	6.35245e-16 	1.97531e-15 	3.2331e-17 	0 	0 	0 	
0.000262467 	-3.32802e-14 	0.92 	0.04 	0.04 	0.0103075 	8.06511e-16 	
-0.0103075 	-0.0103075 	2.11842e-09 	8.42491e-07 	3.87169e-10 	3.30888e-06 	-3.147e-06 	
72.2187 	211712 	1761.36 	2291.97 	0.35 	17.0603 	4.97126e-08 	8.74889e-05 	
0.00728373 	0.00219424 	1.94643e-22 	1.21782e-15 	3.78158e-15 	6.32162e-17 	0 	0 	0 	
0.000349956 	-3.291e-14 	0.92 	0.04 	0.04 	0.0103075 	1.40269e-15 	
-0.0103075 	-0.0103075 	1.32633e-09 	5.27478e-07 	4.97786e-10 	3.99943e-06 	-3.83761e-06 	
72.2187 	211712 	1761.36 	2291.97 	0.35 	17.0603 	3.12482e-08 	8.74889e-05 	
0.00728373 	0.00219424 	2.80673e-22 	1.75865e-15 	5.45215e-15 	9.2013e-17 	0 	0 	0 	
0.000437444 	-1.04568e-13 	0.92 	0.04 	0.04 	0.0103075 	2.08788e-15 	
-0.0103075 	-0.0103075 	2.99682e-10 	1.1918e-07 	6.08401e-10 	4.32841e-06 	-4.16657e-06 	
72.2188 	211712 	1761.36 	2291.97 	0.35 	17.0603 	7.31542e-09 	8.74889e-05 	
0.00728373 	0.00219424 	3.26647e-22 	2.05139e-15 	6.34484e-15 	1.07447e-16 	0 	0 	0 	
0.000524933 	-3.3085e-14 	0.92 	0.04 	0.04 	0.0103075 	2.7939e-15 	
-0.0103075 	-0.0103075 	-9.61553e-10 	-3.82412e-07 	7.19012e-10 	4.20249e-06 	-4.04058e-06 	
72.2188 	211712 	1761.36 	2291.97 	0.35 	17.0603 	-2.20855e-08 	8.74889e-05 	
0.00728373 	0.00219424 	3.07266e-22 	1.93719e-15 	5.96853e-15 	1.00932e-16 	0 	0 	0 	
0.000612422 	3.7985e-14 	0.92 	0.04 	0.04 	0.0103075 	3.43702e-15 	
-0.0103075 	-0.0103075 	-2.45738e-09 	-9.77297e-07 	8.29621e-10 	3.52823e-06 	-3.36635e-06 	
72.2188 	211712 	1761.36 	2291.97 	0.35 	17.0603 	-5.6955e-08 	8.74889e-05 	
0.00728372 	0.00219424 	2.18572e-22 	1.38823e-15 	4.24626e-15 	7.12122e-17 	0 	0 	0 	
0.000699911 	-1.06657e-13 	0.92 	0.04 	0.04 	0.0103075 	3.91792e-15 	
-0.0103075 	-0.0103075 	-4.18778e-09 	-1.66548e-06 	9.4022e-10 	2.21249e-06 	-2.05059e-06 	
72.2188 	211712 	1761.36 	2291.97 	0.35 	17.0603 	-9.72929e-08 	8.74889e-05 	
0.00728372 	0.00219424 	9.45539e-23 	6.10737e-16 	1.83765e-15 	3.00808e-17 	0 	0 	0 	
0.0007874 	-2.50994e-13 	0.92 	0.04 	0.04 	0.0103075 	4.1217e-15 	
-0.0103075 	-0.0103075 	-6.15279e-09 	-1.22348e-06 	9.4022e-10 	7.72241e-07 	-6.10332e-07 	
36.1094 	105856 	880.68 	1145.99 	0.35 	8.53017 	-1.431e-07 	4.37444e-05 	
0.00364186 	0.00109712 	3.08958e-23 	2.08719e-16 	6.01142e-16 	9.14629e-18 	0 	0 	0 	
ZONE T = "t = 2.37813e-07 [s]" I = 10 SOLUTIONTIME = 2.3781250000000E-07
0 	4.31177e-16 	0.92 	0.04 	0.04 	0.0103075 	0 	
-0.0103075 	-0.0103075 	3.10141e-09 	6.16712e-07 	5.53103e-11 	3.10481e-07 	-7.26523e-08 	
36.1094 	105856 	880.68 	1145.99 	0.35 	8.53017 	7.27922e-08 	4.37444e-05 	
0.00364186 	0.00109712 	9.81056e-24 	4.18098e-17 	1.27814e-16 	1.37857e-18 	0 	0 	0 	
8.74889e-05 	1.26912e-15 	0.92 	0.04 	0.04 	0.0103075 	6.39609e-17 	
-0.0103075 	-0.0103075 	3.01303e-09 	1.19827e-06 	1.65931e-10 	1.22434e-06 	-9.86472e-07 	
72.2187 	211712 	1761.36 	2291.97 	0.35 	17.0603 	7.07319e-08 	8.74889e-05 	