TITLE = "Solution on Domain BulkDomain1D_1"
VARIABLES = "x [m]"  
"Vel_axial" 	"MF_sp(ECDMC)" 	"MF_sp(Li+)" 	"MF_sp(PF6-)" 	"Volt(Electroly)" 	"Porosity []" 	"Control volume thickness [m]" 	"volFrac MgO(S) []" 	"qHeat_accum [J/m3]" 	"qHeat_step [W/m3]" 	"Joule_Lyte [W/m3]" 	"Joule_Solid [W/m3]" 	
ZONE T = "SEP , 0.0000E+00", I = 10, SOLUTIONTIME = 0.000000E+00
ZONETYPE = ORDERED
DATAPACKING = BLOCK
STRANDID = 2
 7.8740000000000E-04  8.4102222222222E-04  8.9464444444444E-04  9.4826666666667E-04  1.0018888888889E-03  1.0555111111111E-03  1.1091333333333E-03  1.1627555555556E-03  1.2163777777778E-03  1.2700000000000E-03 
 1.4500046074539E-10  1.4500046074539E-10  1.4500046074539E-10  1.4500046074539E-10  1.4500046074539E-10  1.4500046074539E-10  1.4500046074539E-10  1.4500046074539E-10  1.4500046074539E-10  1.3694448462157E-10 
 9.1999999800653E-01  9.1999999898939E-01  9.1999999997225E-01  9.2000000095510E-01  9.2000000193796E-01  9.2000000292081E-01  9.2000000390367E-01  9.2000000488652E-01  9.2000000586938E-01  9.2000000685223E-01 
 4.0000000996733E-02  4.0000000505305E-02  4.0000000013877E-02  3.9999999522450E-02  3.9999999031022E-02  3.9999998539594E-02  3.9999998048167E-02  3.9999997556739E-02  3.9999997065311E-02  3.9999996573884E-02 
 4.0000000996733E-02  4.0000000505305E-02  4.0000000013877E-02  3.9999999522450E-02  3.9999999031022E-02  3.9999998539594E-02  3.9999998048167E-02  3.9999997556739E-02  3.9999997065311E-02  3.9999996573884E-02 
 1.0249111342458E-02  1.0249110999359E-02  1.0249110656260E-02  1.0249110313161E-02  1.0249109970062E-02  1.0249109626963E-02  1.0249109283864E-02  1.0249108940765E-02  1.0249108597666E-02  1.0249108254567E-02 
 8.0911499769706E-01  8.0911499769706E-01  8.0911499769706E-01  8.0911499769706E-01  8.0911499769706E-01  8.0911499769706E-01  8.0911499769706E-01  8.0911499769706E-01  8.0911499769706E-01  8.0911499769706E-01 
 2.6811111111111E-05  5.3622222222222E-05  5.3622222222222E-05  5.3622222222222E-05  5.3622222222222E-05  5.3622222222222E-05  5.3622222222222E-05  5.3622222222223E-05  5.3622222222222E-05  2.6811111111111E-05 
 1.9088500230294E-01  1.9088500230294E-01  1.9088500230294E-01  1.9088500230294E-01  1.9088500230294E-01  1.9088500230294E-01  1.9088500230294E-01  1.9088500230294E-01  1.9088500230294E-01  1.9088500230294E-01 
 0.0000000000000E+00  0.0000000000000E+00  0.0000000000000E+00  0.0000000000000E+00  0.0000000000000E+00  0.0000000000000E+00  0.0000000000000E+00  0.0000000000000E+00  0.0000000000000E+00  0.0000000000000E+00 
 0.0000000000000E+00  0.0000000000000E+00  0.0000000000000E+00  0.0000000000000E+00  0.0000000000000E+00  0.0000000000000E+00  0.0000000000000E+00  0.0000000000000E+00  0.0000000000000E+00  0.0000000000000E+00 
 0.0000000000000E+00  0.0000000000000E+00  0.0000000000000E+00  0.0000000000000E+00  0.0000000000000E+00  0.0000000000000E+00  0.0000000000000E+00  0.0000000000000E+00  0.0000000000000E+00  0.0000000000000E+00 
 0.0000000000000E+00  0.0000000000000E+00  0.0000000000000E+00  0.0000000000000E+00  0.0000000000000E+00  0.0000000000000E+00  0.0000000000000E+00  0.0000000000000E+00  0.0000000000000E+00  0.0000000000000E+00 
ZONE T = "SEP , 1.0000E-08", I = 10, SOLUTIONTIME = 1.000000E-08
ZONETYPE = ORDERED
DATAPACKING = BLOCK
STRANDID = 2
 7.8740000000000E-04  8.4102222222222E-04  8.9464444444444E-04  9.4826666666667E-04  1.0018888888889E-03  1.0555111111111E-03  1.1091333333333E-03  1.1627555555556E-03  1.2163777777778E-03  1.2700000000000E-03 
-1.2712201034201E-12 -1.2712201034233E-12 -1.2712201034211E-12 -1.2712201034211E-12 -1.2712201034211E-12 -1.2712201034211E-12 -1.2712201034189E-12 -1.2712201034123E-12 -1.2712201034123E-12  7.2589413087543E-13 
 9.1999999800654E-01  9.1999999898939E-01  9.1999999997225E-01  9.2000000095510E-01  9.2000000193796E-01  9.2000000292081E-01  9.2000000390367E-01  9.2000000488652E-01  9.2000000586938E-01  9.2000000685223E-01 
 4.0000000996732E-02  4.0000000505305E-02  4.0000000013877E-02  3.9999999522450E-02  3.9999999031022E-02  3.9999998539594E-02  3.9999998048167E-02  3.9999997556739E-02  3.9999997065311E-02  3.9999996573885E-02 
 4.0000000996732E-02  4.0000000505305E-02  4.0000000013877E-02  3.9999999522450E-02  3.9999999031022E-02  3.9999998539594E-02  3.9999998048167E-02  3.9999997556739E-02  3.9999997065311E-02  3.9999996573885E-02 
 1.0307456423306E-02  1.0307456423306E-02  1.0307456423306E-02  1.0307456423306E-02  1.0307456423306E-02  1.0307456423306E-02  1.0307456423306E-02  1.0307456423306E-02  1.0307456423306E-02  1.0307456423306E-02 
 8.0911499769706E-01  8.0911499769706E-01  8.0911499769706E-01  8.0911499769706E-01  8.0911499769706E-01  8.0911499769706E-01  8.0911499769706E-01  8.0911499769706E-01  8.0911499769706E-01  8.0911499769706E-01 
 2.6811111111111E-05  5.3622222222222E-05  5.3622222222222E-05  5.3622222222222E-05  5.3622222222222E-05  5.3622222222222E-05  5.3622222222222E-05  5.3622222222223E-05  5.3622222222222E-05  2.6811111111111E-05 
 1.9088500230294E-01  1.9088500230294E-01  1.9088500230294E-01  1.9088500230294E-01  1.9088500230294E-01  1.9088500230294E-01  1.9088500230294E-01  1.9088500230294E-01  1.9088500230294E-01  1.9088500230294E-01 
 3.4155065617348E-29  3.0910334171658E-29  3.0910333752092E-29  3.0910333461623E-29  3.0910333106605E-29  3.0910332787089E-29  2.7665601273623E-29  3.0910331876953E-29  3.0910331528391E-29  2.7665600344123E-29 
 3.4155065617348E-21  3.0910334171658E-21  3.0910333752092E-21  3.0910333461623E-21  3.0910333106605E-21  3.0910332787089E-21  2.7665601273623E-21  3.0910331876953E-21  3.0910331528391E-21  2.7665600344123E-21 
 3.4155065617348E-21  3.0910334171658E-21  3.0910333752092E-21  3.0910333461623E-21  3.0910333106605E-21  3.0910332787089E-21  2.7665601273623E-21  3.0910331876953E-21  3.0910331528391E-21  2.7665600344123E-21 
 0.0000000000000E+00  0.0000000000000E+00  0.0000000000000E+00  0.0000000000000E+00  0.0000000000000E+00  0.0000000000000E+00  0.0000000000000E+00  0.0000000000000E+00  0.0000000000000E+00  0.0000000000000E+00 
ZONE T = "SEP , 2.0000E-08", I = 10, SOLUTIONTIME = 2.000000E-08
ZONETYPE = ORDERED
DATAPACKING = BLOCK
STRANDID = 2
 7.8740000000000E-04  8.4102222222222E-04  8.9464444444444E-04  9.4826666666667E-04  1.0018888888889E-03  1.0555111111111E-03  1.1091333333333E-03  1.1627555555556E-03  1.2163777777778E-03  1.2700000000000E-03 
-7.2640156743939E-13 -7.2640156744244E-13 -7.2640156744025E-13 -7.2640156744025E-13 -7.2640156744025E-13 -7.2640156744025E-13 -7.2640156743806E-13 -7.2640156743148E-13 -7.2640156743148E-13 -7.2693022905069E-13 
 9.1999999800654E-01  9.1999999898939E-01  9.1999999997225E-01  9.2000000095510E-01  9.2000000193796E-01  9.2000000292081E-01  9.2000000390367E-01  9.2000000488652E-01  9.2000000586938E-01  9.2000000685223E-01 
 4.0000000996731E-02  4.0000000505305E-02  4.0000000013877E-02  3.9999999522450E-02  3.9999999031022E-02  3.9999998539594E-02  3.9999998048167E-02  3.9999997556739E-02  3.9999997065311E-02  3.9999996573886E-02 
 4.0000000996731E-02  4.0000000505305E-02  4.0000000013877E-02  3.9999999522450E-02  3.9999999031022E-02  3.9999998539594E-02  3.9999998048167E-02  3.9999997556739E-02  3.9999997065311E-02  3.9999996573886E-02 
 1.0307456420514E-02  1.0307456420514E-02  1.0307456420514E-02  1.0307456420514E-02  1.0307456420514E-02  1.0307456420514E-02  1.0307456420514E-02  1.0307456420514E-02  1.0307456420514E-02  1.0307456420514E-02 
 8.0911499769706E-01  8.0911499769706E-01  8.0911499769706E-01  8.0911499769706E-01  8.0911499769706E-01  8.0911499769706E-01  8.0911499769706E-01  8.0911499769706E-01  8.0911499769706E-01  8.0911499769706E-01 
 2.6811111111111E-05  5.3622222222222E-05  5.3622222222222E-05  5.3622222222222E-05  5.3622222222222E-05  5.3622222222222E-05  5.3622222222222E-05  5.3622222222223E-05  5.3622222222222E-05  2.6811111111111E-05 
 1.9088500230294E-01  1.9088500230294E-01  1.9088500230294E-01  1.9088500230294E-01  1.9088500230294E-01  1.9088500230294E-01  1.9088500230294E-01  1.9088500230294E-01  1.9088500230294E-01  1.9088500230294E-01 
 1.5745485258183E-28  1.5421012027764E-28  1.5421011838636E-28  1.4789142976221E-28  1.4789142787416E-28  1.5421011288359E-28  1.5096537965313E-28  1.5421010878475E-28  1.5421010708712E-28  1.5096537516700E-28 
 1.2329978696448E-20  1.2329978610598E-20  1.2329978463427E-20  1.1698109630059E-20  1.1698109476756E-20  1.2329978009650E-20  1.2329977837951E-20  1.2329977690780E-20  1.2329977555873E-20  1.2329977482288E-20 
 1.2329978696448E-20  1.2329978610598E-20  1.2329978463427E-20  1.1698109630059E-20  1.1698109476756E-20  1.2329978009650E-20  1.2329977837951E-20  1.2329977690780E-20  1.2329977555873E-20  1.2329977482288E-20 
 0.0000000000000E+00  0.0000000000000E+00  0.0000000000000E+00  0.0000000000000E+00  0.0000000000000E+00  0.0000000000000E+00  0.0000000000000E+00  0.0000000000000E+00  0.0000000000000E+00  0.0000000000000E+00 
ZONE T = "SEP , 3.0000E-08", I = 10, SOLUTIONTIME = 3.000000E-08
ZONETYPE = ORDERED
DATAPACKING = BLOCK
STRANDID = 2
 7.8740000000000E-04  8.4102222222222E-04  8.9464444444444E-04  9.4826666666667E-04  1.0018888888889E-03  1.0555111111111E-03  1.1091333333333E-03  1.1627555555556E-03  1.2163777777778E-03  1.2700000000000E-03 
-7.2639462337011E-13 -7.2639462337304E-13 -7.2639462337085E-13 -7.2639462337085E-13 -7.2639462337085E-13 -7.2639462337085E-13 -7.2639462336866E-13 -7.2639462336208E-13 -7.2639462336208E-13 -2.1797545818934E-12 
 9.1999999800654E-01  9.1999999898939E-01  9.1999999997225E-01  9.2000000095510E-01  9.2000000193796E-01  9.2000000292081E-01  9.2000000390367E-01  9.2000000488652E-01  9.2000000586938E-01  9.2000000685223E-01 
 4.0000000996730E-02  4.0000000505305E-02  4.0000000013877E-02  3.9999999522450E-02  3.9999999031022E-02  3.9999998539594E-02  3.9999998048167E-02  3.9999997556739E-02  3.9999997065311E-02  3.9999996573887E-02 
 4.0000000996730E-02  4.0000000505305E-02  4.0000000013877E-02  3.9999999522450E-02  3.9999999031022E-02  3.9999998539594E-02  3.9999998048167E-02  3.9999997556739E-02  3.9999997065311E-02  3.9999996573887E-02 
 1.0307456417722E-02  1.0307456417722E-02  1.0307456417721E-02  1.0307456417721E-02  1.0307456417721E-02  1.0307456417721E-02  1.0307456417721E-02  1.0307456417721E-02  1.0307456417721E-02  1.0307456417721E-02 
 8.0911499769706E-01  8.0911499769706E-01  8.0911499769706E-01  8.0911499769706E-01  8.0911499769706E-01  8.0911499769706E-01  8.0911499769706E-01  8.0911499769706E-01  8.0911499769706E-01  8.0911499769706E-01 
 2.6811111111111E-05  5.3622222222222E-05  5.3622222222222E-05  5.3622222222222E-05  5.3622222222222E-05  5.3622222222222E-05  5.3622222222222E-05  5.3622222222223E-05  5.3622222222222E-05  2.6811111111111E-05 
 1.9088500230294E-01  1.9088500230294E-01  1.9088500230294E-01  1.9088500230294E-01  1.9088500230294E-01  1.9088500230294E-01  1.9088500230294E-01  1.9088500230294E-01  1.9088500230294E-01  1.9088500230294E-01 
 4.4469895455476E-28  4.3172002680326E-28  4.2198582792842E-28  4.2540132951023E-28  4.2540132445930E-28  4.3172000591209E-28  4.2847526906691E-28  4.3171999473549E-28  4.3171999005572E-28  4.1874106365329E-28 
 2.8724410197293E-20  2.7750990652562E-20  2.6777570954206E-20  2.7750989974802E-20  2.7750989658513E-20  2.7750989302850E-20  2.7750988941378E-20  2.7750988595074E-20  2.7750988296860E-20  2.6777568848629E-20 
 2.8724410197293E-20  2.7750990652562E-20  2.6777570954206E-20  2.7750989974802E-20  2.7750989658513E-20  2.7750989302850E-20  2.7750988941378E-20  2.7750988595074E-20  2.7750988296860E-20  2.6777568848629E-20 
 0.0000000000000E+00  0.0000000000000E+00  0.0000000000000E+00  0.0000000000000E+00  0.0000000000000E+00  0.0000000000000E+00  0.0000000000000E+00  0.0000000000000E+00  0.0000000000000E+00  0.0000000000000E+00 
ZONE T = "SEP , 4.0000E-08", I = 10, SOLUTIONTIME = 4.000000E-08
ZONETYPE = ORDERED
DATAPACKING = BLOCK
STRANDID = 2
 7.8740000000000E-04  8.4102222222222E-04  8.9464444444444E-04  9.4826666666667E-04  1.0018888888889E-03  1.0555111111111E-03  1.1091333333333E-03  1.1627555555556E-03  1.2163777777778E-03  1.2700000000000E-03 
 5.4483936793391E-13  5.4483936793109E-13  5.4483936793328E-13  5.4483936793328E-13  5.4483936793328E-13  5.4483936793328E-13  5.4483936793548E-13  5.4483936794205E-13  5.4483936794205E-13  1.0891215264538E-12 
 9.1999999800654E-01  9.1999999898939E-01  9.1999999997225E-01  9.2000000095510E-01  9.2000000193796E-01  9.2000000292081E-01  9.2000000390367E-01  9.2000000488652E-01  9.2000000586938E-01  9.2000000685222E-01 
 4.0000000996729E-02  4.0000000505305E-02  4.0000000013877E-02  3.9999999522450E-02  3.9999999031022E-02  3.9999998539594E-02  3.9999998048167E-02  3.9999997556739E-02  3.9999997065311E-02  3.9999996573888E-02 
 4.0000000996729E-02  4.0000000505305E-02  4.0000000013877E-02  3.9999999522450E-02  3.9999999031022E-02  3.9999998539594E-02  3.9999998048167E-02  3.9999997556739E-02  3.9999997065311E-02  3.9999996573888E-02 
 1.0307456414929E-02  1.0307456414928E-02  1.0307456414928E-02  1.0307456414928E-02  1.0307456414928E-02  1.0307456414928E-02  1.0307456414928E-02  1.0307456414928E-02  1.0307456414928E-02  1.0307456414928E-02 
 8.0911499769706E-01  8.0911499769706E-01  8.0911499769706E-01  8.0911499769706E-01  8.0911499769706E-01  8.0911499769706E-01  8.0911499769706E-01  8.0911499769706E-01  8.0911499769706E-01  8.0911499769706E-01 
 2.6811111111111E-05  5.3622222222222E-05  5.3622222222222E-05  5.3622222222222E-05  5.3622222222222E-05  5.3622222222222E-05  5.3622222222222E-05  5.3622222222223E-05  5.3622222222222E-05  2.6811111111111E-05 
 1.9088500230294E-01  1.9088500230294E-01  1.9088500230294E-01  1.9088500230294E-01  1.9088500230294E-01  1.9088500230294E-01  1.9088500230294E-01  1.9088500230294E-01  1.9088500230294E-01  1.9088500230294E-01 
 9.3789810216738E-28  9.2491917134982E-28  9.1518496622022E-28  9.1860046191519E-28  9.1860045134535E-28  9.1211097765821E-28  9.0886623431298E-28  9.2491910310254E-28  9.2491909241329E-28  9.1194016269951E-28 
 4.9319914761262E-20  4.9319914454656E-20  4.9319913829180E-20  4.9319913240496E-20  4.9319912688605E-20  4.8039097174612E-20  4.8039096524607E-20  4.9319910836704E-20  4.9319910235757E-20  4.9319909904622E-20 
 4.9319914761262E-20  4.9319914454656E-20  4.9319913829180E-20  4.9319913240496E-20  4.9319912688605E-20  4.8039097174612E-20  4.8039096524607E-20  4.9319910836704E-20  4.9319910235757E-20  4.9319909904622E-20 
 0.0000000000000E+00  0.0000000000000E+00  0.0000000000000E+00  0.0000000000000E+00  0.0000000000000E+00  0.0000000000000E+00  0.0000000000000E+00  0.0000000000000E+00  0.0000000000000E+00  0.0000000000000E+00 
ZONE T = "SEP , 5.5000E-08", I = 10, SOLUTIONTIME = 5.500000E-08
ZONETYPE = ORDERED
DATAPACKING = BLOCK
STRANDID = 2
 7.8740000000000E-04  8.4102222222222E-04  8.9464444444444E-04  9.4826666666667E-04  1.0018888888889E-03  1.0555111111111E-03  1.1091333333333E-03  1.1627555555556E-03  1.2163777777778E-03  1.2700000000000E-03 
-2.3002774169762E-12 -2.3002774169777E-12 -2.3002774169762E-12 -2.3002774169762E-12 -2.3002774169762E-12 -2.3002774169762E-12 -2.3002774169748E-12 -2.3002774169704E-12 -2.3002774169704E-12 -2.3008074287875E-12 
 9.1999999800655E-01  9.1999999898939E-01  9.1999999997225E-01  9.2000000095510E-01  9.2000000193796E-01  9.2000000292081E-01  9.2000000390367E-01  9.2000000488652E-01  9.2000000586938E-01  9.2000000685222E-01 
 4.0000000996727E-02  4.0000000505305E-02  4.0000000013877E-02  3.9999999522450E-02  3.9999999031022E-02  3.9999998539594E-02  3.9999998048167E-02  3.9999997556739E-02  3.9999997065311E-02  3.9999996573890E-02 
 4.0000000996727E-02  4.0000000505305E-02  4.0000000013877E-02  3.9999999522450E-02  3.9999999031022E-02  3.9999998539594E-02  3.9999998048167E-02  3.9999997556739E-02  3.9999997065311E-02  3.9999996573890E-02 
 1.0307456410740E-02  1.0307456410740E-02  1.0307456410740E-02  1.0307456410739E-02  1.0307456410739E-02  1.0307456410739E-02  1.0307456410739E-02  1.0307456410739E-02  1.0307456410739E-02  1.0307456410739E-02 
 8.0911499769706E-01  8.0911499769706E-01  8.0911499769706E-01  8.0911499769706E-01  8.0911499769706E-01  8.0911499769706E-01  8.0911499769706E-01  8.0911499769706E-01  8.0911499769706E-01  8.0911499769706E-01 
 2.6811111111111E-05  5.3622222222222E-05  5.3622222222222E-05  5.3622222222222E-05  5.3622222222222E-05  5.3622222222222E-05  5.3622222222222E-05  5.3622222222223E-05  5.3622222222222E-05  2.6811111111111E-05 
 1.9088500230294E-01  1.9088500230294E-01  1.9088500230294E-01  1.9088500230294E-01  1.9088500230294E-01  1.9088500230294E-01  1.9088500230294E-01  1.9088500230294E-01  1.9088500230294E-01  1.9088500230294E-01 
 2.3232275639091E-27  2.3102486247841E-27  2.3005144032915E-27  2.3039298823716E-27  2.3039298549352E-27  2.2974403638780E-27  2.2941956029110E-27  2.3102484550857E-27  2.3371455386852E-27  2.3510637113157E-27 
 9.2355297449449E-20  9.2355296895621E-20  9.2355295804749E-20  9.2355294697095E-20  9.2355293572657E-20  9.2355292414655E-20  9.2355291239869E-20  9.2355290132214E-20  9.4148429751458E-20  9.5941569907745E-20 
 9.2355297449449E-20  9.2355296895621E-20  9.2355295804749E-20  9.2355294697095E-20  9.2355293572657E-20  9.2355292414655E-20  9.2355291239869E-20  9.2355290132214E-20  9.4148429751458E-20  9.5941569907745E-20 
 0.0000000000000E+00  0.0000000000000E+00  0.0000000000000E+00  0.0000000000000E+00  0.0000000000000E+00  0.0000000000000E+00  0.0000000000000E+00  0.0000000000000E+00  0.0000000000000E+00  0.0000000000000E+00 
ZONE T = "SEP , 7.7500E-08", I = 10, SOLUTIONTIME = 7.750000E-08
ZONETYPE = ORDERED
DATAPACKING = BLOCK
STRANDID = 2
 7.8740000000000E-04  8.4102222222222E-04  8.9464444444444E-04  9.4826666666667E-04  1.0018888888889E-03  1.0555111111111E-03  1.1091333333333E-03  1.1627555555556E-03  1.2163777777778E-03  1.2700000000000E-03 
 1.3721718991878E-12  1.3721718991872E-12  1.3721718991882E-12  1.3721718991882E-12  1.3721718991882E-12  1.3721718991882E-12  1.3721718991892E-12  1.3721718991921E-12  1.3721718991921E-12  1.7752051613683E-12 
 9.1999999800655E-01  9.1999999898939E-01  9.1999999997225E-01  9.2000000095510E-01  9.2000000193796E-01  9.2000000292081E-01  9.2000000390367E-01  9.2000000488652E-01  9.2000000586938E-01  9.2000000685222E-01 
 4.0000000996725E-02  4.0000000505305E-02  4.0000000013877E-02  3.9999999522450E-02  3.9999999031022E-02  3.9999998539594E-02  3.9999998048167E-02  3.9999997556739E-02  3.9999997065311E-02  3.9999996573892E-02 
 4.0000000996725E-02  4.0000000505305E-02  4.0000000013877E-02  3.9999999522450E-02  3.9999999031022E-02  3.9999998539594E-02  3.9999998048167E-02  3.9999997556739E-02  3.9999997065311E-02  3.9999996573892E-02 
 1.0307456404456E-02  1.0307456404455E-02  1.0307456404455E-02  1.0307456404455E-02  1.0307456404455E-02  1.0307456404455E-02  1.0307456404455E-02  1.0307456404455E-02  1.0307456404455E-02  1.0307456404454E-02 
 8.0911499769706E-01  8.0911499769706E-01  8.0911499769706E-01  8.0911499769706E-01  8.0911499769706E-01  8.0911499769706E-01  8.0911499769706E-01  8.0911499769706E-01  8.0911499769706E-01  8.0911499769706E-01 
 2.6811111111111E-05  5.3622222222222E-05  5.3622222222222E-05  5.3622222222222E-05  5.3622222222222E-05  5.3622222222222E-05  5.3622222222222E-05  5.3622222222223E-05  5.3622222222222E-05  2.6811111111111E-05 
 1.9088500230294E-01  1.9088500230294E-01  1.9088500230294E-01  1.9088500230294E-01  1.9088500230294E-01  1.9088500230294E-01  1.9088500230294E-01  1.9088500230294E-01  1.9088500230294E-01  1.9088500230294E-01 
 6.5314732009870E-27  6.4620102970073E-27  6.3957920852149E-27  6.4556914517688E-27  6.4556913750326E-27  6.4492018318508E-27  6.4459570184033E-27  6.4055258852090E-27  6.4889068534646E-27  6.5593089335459E-27 
 1.8703313942568E-19  1.8452274098770E-19  1.8201234141882E-19  1.8452273641765E-19  1.8452273422655E-19  1.8452273190990E-19  1.8452272957744E-19  1.8201233022770E-19  1.8452272510131E-19  1.8703312098801E-19 
 1.8703313942568E-19  1.8452274098770E-19  1.8201234141882E-19  1.8452273641765E-19  1.8452273422655E-19  1.8452273190990E-19  1.8452272957744E-19  1.8201233022770E-19  1.8452272510131E-19  1.8703312098801E-19 
 0.0000000000000E+00  0.0000000000000E+00  0.0000000000000E+00  0.0000000000000E+00  0.0000000000000E+00  0.0000000000000E+00  0.0000000000000E+00  0.0000000000000E+00  0.0000000000000E+00  0.0000000000000E+00 
ZONE T = "SEP , 1.1125E-07", I = 10, SOLUTIONTIME = 1.112500E-07
ZONETYPE = ORDERED
DATAPACKING = BLOCK
STRANDID = 2
 7.8740000000000E-04  8.4102222222222E-04  8.9464444444444E-04  9.4826666666667E-04  1.0018888888889E-03  1.0555111111111E-03  1.1091333333333E-03  1.1627555555556E-03  1.2163777777778E-03  1.2700000000000E-03 
-2.1515695638814E-13 -2.1515695638779E-13 -2.1515695638714E-13 -2.1515695638715E-13 -2.1515695638715E-13 -2.1515695638715E-13 -2.1515695638649E-13 -2.1515695638455E-13 -2.1515695638455E-13 -6.4615755627845E-13 
 9.1999999800656E-01  9.1999999898939E-01  9.1999999997225E-01  9.2000000095510E-01  9.2000000193796E-01  9.2000000292081E-01  9.2000000390367E-01  9.2000000488652E-01  9.2000000586938E-01  9.2000000685221E-01 
 4.0000000996722E-02  4.0000000505305E-02  4.0000000013877E-02  3.9999999522450E-02  3.9999999031022E-02  3.9999998539594E-02  3.9999998048167E-02  3.9999997556739E-02  3.9999997065311E-02  3.9999996573896E-02 
 4.0000000996722E-02  4.0000000505305E-02  4.0000000013877E-02  3.9999999522450E-02  3.9999999031022E-02  3.9999998539594E-02  3.9999998048167E-02  3.9999997556739E-02  3.9999997065311E-02  3.9999996573896E-02 
 1.0307456395029E-02  1.0307456395029E-02  1.0307456395029E-02  1.0307456395028E-02  1.0307456395028E-02  1.0307456395028E-02  1.0307456395028E-02  1.0307456395028E-02  1.0307456395027E-02  1.0307456395027E-02 
 8.0911499769706E-01  8.0911499769706E-01  8.0911499769706E-01  8.0911499769706E-01  8.0911499769706E-01  8.0911499769706E-01  8.0911499769706E-01  8.0911499769706E-01  8.0911499769706E-01  8.0911499769706E-01 
 2.6811111111111E-05  5.3622222222222E-05  5.3622222222222E-05  5.3622222222222E-05  5.3622222222222E-05  5.3622222222222E-05  5.3622222222222E-05  5.3622222222223E-05  5.3622222222222E-05  2.6811111111111E-05 
 1.9088500230294E-01  1.9088500230294E-01  1.9088500230294E-01  1.9088500230294E-01  1.9088500230294E-01  1.9088500230294E-01  1.9088500230294E-01  1.9088500230294E-01  1.9088500230294E-01  1.9088500230294E-01 
 1.9240359653761E-26  1.9292510051000E-26  1.9226291685949E-26  1.9164577517965E-26  1.9286190660165E-26  1.9279700960293E-26  1.9276455982891E-26  1.9236024695294E-26  1.9197792141930E-26  1.9268194146526E-26 
 3.7655959860070E-19  3.8016295567386E-19  3.8016295113286E-19  3.7655958714655E-19  3.8016294178170E-19  3.8016293713904E-19  3.8016293228111E-19  3.8016292770622E-19  3.7655956410268E-19  3.7655956186607E-19 
 3.7655959860070E-19  3.8016295567386E-19  3.8016295113286E-19  3.7655958714655E-19  3.8016294178170E-19  3.8016293713904E-19  3.8016293228111E-19  3.8016292770622E-19  3.7655956410268E-19  3.7655956186607E-19 
 0.0000000000000E+00  0.0000000000000E+00  0.0000000000000E+00  0.0000000000000E+00  0.0000000000000E+00  0.0000000000000E+00  0.0000000000000E+00  0.0000000000000E+00  0.0000000000000E+00  0.0000000000000E+00 
ZONE T = "SEP , 1.6188E-07", I = 10, SOLUTIONTIME = 1.618750E-07
ZONETYPE = ORDERED
DATAPACKING = BLOCK
STRANDID = 2
 7.8740000000000E-04  8.4102222222222E-04  8.9464444444444E-04  9.4826666666667E-04  1.0018888888889E-03  1.0555111111111E-03  1.1091333333333E-03  1.1627555555556E-03  1.2163777777778E-03  1.2700000000000E-03 
-1.0750469755897E-13 -1.0750469755771E-13 -1.0750469755727E-13 -1.0750469755728E-13 -1.0750469755728E-13 -1.0750469755728E-13 -1.0750469755684E-13 -1.0750469755554E-13 -1.0750469755554E-13 -1.0803883230424E-13 
 9.1999999800657E-01  9.1999999898939E-01  9.1999999997225E-01  9.2000000095510E-01  9.2000000193796E-01  9.2000000292081E-01  9.2000000390367E-01  9.2000000488652E-01  9.2000000586938E-01  9.2000000685220E-01 
 4.0000000996717E-02  4.0000000505305E-02  4.0000000013877E-02  3.9999999522450E-02  3.9999999031022E-02  3.9999998539594E-02  3.9999998048167E-02  3.9999997556739E-02  3.9999997065311E-02  3.9999996573901E-02 
 4.0000000996717E-02  4.0000000505305E-02  4.0000000013877E-02  3.9999999522450E-02  3.9999999031022E-02  3.9999998539594E-02  3.9999998048167E-02  3.9999997556739E-02  3.9999997065311E-02  3.9999996573901E-02 
 1.0307456380890E-02  1.0307456380889E-02  1.0307456380889E-02  1.0307456380889E-02  1.0307456380889E-02  1.0307456380888E-02  1.0307456380888E-02  1.0307456380888E-02  1.0307456380888E-02  1.0307456380887E-02 
 8.0911499769706E-01  8.0911499769706E-01  8.0911499769706E-01  8.0911499769706E-01  8.0911499769706E-01  8.0911499769706E-01  8.0911499769706E-01  8.0911499769706E-01  8.0911499769706E-01  8.0911499769706E-01 
 2.6811111111111E-05  5.3622222222222E-05  5.3622222222222E-05  5.3622222222222E-05  5.3622222222222E-05  5.3622222222222E-05  5.3622222222222E-05  5.3622222222223E-05  5.3622222222222E-05  2.6811111111111E-05 
 1.9088500230294E-01  1.9088500230294E-01  1.9088500230294E-01  1.9088500230294E-01  1.9088500230294E-01  1.9088500230294E-01  1.9088500230294E-01  1.9088500230294E-01  1.9088500230294E-01  1.9088500230294E-01 
 5.9716866196982E-26  6.0034433216142E-26  5.9968214351122E-26  5.9641082811262E-26  6.0028112328045E-26  6.0021622130704E-26  5.9752959783779E-26  5.9977944858331E-26  5.9939711807498E-26  5.9744696704989E-26 
 7.9953593171795E-19  8.0477872918799E-19  8.0477871931205E-19  7.9953590702809E-19  8.0477869961245E-19  8.0477868978589E-19  7.9953587754840E-19  8.0477866988715E-19  8.0477866006059E-19  7.9953585300668E-19 
 7.9953593171795E-19  8.0477872918799E-19  8.0477871931205E-19  7.9953590702809E-19  8.0477869961245E-19  8.0477868978589E-19  7.9953587754840E-19  8.0477866988715E-19  8.0477866006059E-19  7.9953585300668E-19 
 0.0000000000000E+00  0.0000000000000E+00  0.0000000000000E+00  0.0000000000000E+00  0.0000000000000E+00  0.0000000000000E+00  0.0000000000000E+00  0.0000000000000E+00  0.0000000000000E+00  0.0000000000000E+00 
ZONE T = "SEP , 2.3781E-07", I = 10, SOLUTIONTIME = 2.378125E-07
ZONETYPE = ORDERED
DATAPACKING = BLOCK
STRANDID = 2
 7.8740000000000E-04  8.4102222222222E-04  8.9464444444444E-04  9.4826666666667E-04  1.0018888888889E-03  1.0555111111111E-03  1.1091333333333E-03  1.1627555555556E-03  1.2163777777778E-03  1.2700000000000E-03 
-9.5494510033199E-14 -9.5494510033279E-14 -9.5494510032990E-14 -9.5494510032991E-14 -9.5494510032992E-14 -9.5494510032993E-14 -9.5494510032700E-14 -9.5494510031834E-14 -1.9115415850064E-13 -7.2116662118153E-14 
 9.1999999800658E-01  9.1999999898939E-01  9.1999999997225E-01  9.2000000095510E-01  9.2000000193796E-01  9.2000000292081E-01  9.2000000390367E-01  9.2000000488652E-01  9.2000000586938E-01  9.2000000685218E-01 
 4.0000000996709E-02  4.0000000505305E-02  4.0000000013877E-02  3.9999999522450E-02  3.9999999031022E-02  3.9999998539594E-02  3.9999998048167E-02  3.9999997556739E-02  3.9999997065311E-02  3.9999996573910E-02 
 4.0000000996709E-02  4.0000000505305E-02  4.0000000013877E-02  3.9999999522450E-02  3.9999999031022E-02  3.9999998539594E-02  3.9999998048167E-02  3.9999997556739E-02  3.9999997065311E-02  3.9999996573910E-02 
 1.0307456359681E-02  1.0307456359680E-02  1.0307456359680E-02  1.0307456359679E-02  1.0307456359679E-02  1.0307456359679E-02  1.0307456359678E-02  1.0307456359678E-02  1.0307456359677E-02  1.0307456359677E-02 
 8.0911499769706E-01  8.0911499769706E-01  8.0911499769706E-01  8.0911499769706E-01  8.0911499769706E-01  8.0911499769706E-01  8.0911499769706E-01  8.0911499769706E-01  8.0911499769706E-01  8.0911499769706E-01 
 2.6811111111111E-05  5.3622222222222E-05  5.3622222222222E-05  5.3622222222222E-05  5.3622222222222E-05  5.3622222222222E-05  5.3622222222222E-05  5.3622222222223E-05  5.3622222222222E-05  2.6811111111111E-05 
 1.9088500230294E-01  1.9088500230294E-01  1.9088500230294E-01  1.9088500230294E-01  1.9088500230294E-01  1.9088500230294E-01  1.9088500230294E-01  1.9088500230294E-01  1.9088500230294E-01  1.9088500230294E-01 
 1.9102041251323E-25  1.9133797871074E-25  1.9127175823001E-25  1.9152949320159E-25  1.9191652110817E-25  1.9132516117349E-25  1.9105649719431E-25  1.9186634875488E-25  1.9182811411591E-25  1.9104823012864E-25 
 1.7291001984032E-18  1.7291001875832E-18  1.7291001663064E-18  1.7368021121359E-18  1.7368020909317E-18  1.7291001026211E-18  1.7291000811264E-18  1.7368020266212E-18  1.7368020057075E-18  1.7291000286241E-18 
 1.7291001984032E-18  1.7291001875832E-18  1.7291001663064E-18  1.7368021121359E-18  1.7368020909317E-18  1.7291001026211E-18  1.7291000811264E-18  1.7368020266212E-18  1.7368020057075E-18  1.7291000286241E-18 
 0.0000000000000E+00  0.0000000000000E+00  0.0000000000000E+00  0.0000000000000E+00  0.0000000000000E+00  0.0000000000000E+00  0.0000000000000E+00  0.0000000000000E+00  0.0000000000000E+00  0.0000000000000E+00 
ZONE T = "SEP , 3.5172E-07", I = 10, SOLUTIONTIME = 3.517188E-07
ZONETYPE = ORDERED
DATAPACKING = BLOCK
STRANDID = 2
 7.8740000000000E-04  8.4102222222222E-04  8.9464444444444E-04  9.4826666666667E-04  1.0018888888889E-03  1.0555111111111E-03  1.1091333333333E-03  1.1627555555556E-03  1.2163777777778E-03  1.2700000000000E-03 
 2.2345008205038E-13  2.2345008205235E-13  2.2345008205254E-13  2.2345008205254E-13  2.2345008205254E-13  2.2345008205254E-13  2.2345008205273E-13  2.2345008205331E-13  2.8722318102845E-13  2.3885189841506E-13 
 9.1999999800660E-01  9.1999999898939E-01  9.1999999997225E-01  9.2000000095510E-01  9.2000000193796E-01  9.2000000292081E-01  9.2000000390367E-01  9.2000000488652E-01  9.2000000586938E-01  9.2000000685216E-01 
 4.0000000996698E-02  4.0000000505305E-02  4.0000000013877E-02  3.9999999522450E-02  3.9999999031022E-02  3.9999998539594E-02  3.9999998048167E-02  3.9999997556739E-02  3.9999997065311E-02  3.9999996573922E-02 