TITLE = "Solution on Domain BulkDomain1D_1"
VARIABLES = "x [m]"  
"Vel_axial(0)" 	"MF_sp(ECDMC)" 	"MF_sp(Li+)" 	"MF_sp(PF6-)" 	"Volt(Electroly)" 	"qHeat_accum [J/m3]" 	"qHeat_step [W/m3]" 	"Joule_Lyte [W/m3]" 	"Joule_Solid [W/m3]" 	
ZONE T = "t = 0 [s]" I = 10 SOLUTIONTIME = 0.0000000000000E+00
0.0007874 	1.45e-10 	0.92 	0.04 	0.04 	0.0102491 	
0 	0.0 	 0.0 	 0.0 	 
0.000841022 	1.45e-10 	0.92 	0.04 	0.04 	0.0102491 	
0 	0.0 	 0.0 	 0.0 	 
0.000894644 	1.45e-10 	0.92 	0.04 	0.04 	0.0102491 	
0 	0.0 	 0.0 	 0.0 	 
0.000948267 	1.45e-10 	0.92 	0.04 	0.04 	0.0102491 	
0 	0.0 	 0.0 	 0.0 	 
0.00100189 	1.45e-10 	0.92 	0.04 	0.04 	0.0102491 	
0 	0.0 	 0.0 	 0.0 	 
0.00105551 	1.45e-10 	0.92 	0.04 	0.04 	0.0102491 	
0 	0.0 	 0.0 	 0.0 	 
0.00110913 	1.45e-10 	0.92 	0.04 	0.04 	0.0102491 	
0 	0.0 	 0.0 	 0.0 	 
0.00116276 	1.45e-10 	0.92 	0.04 	0.04 	0.0102491 	
0 	0.0 	 0.0 	 0.0 	 
0.00121638 	1.45e-10 	0.92 	0.04 	0.04 	0.0102491 	
0 	0.0 	 0.0 	 0.0 	 
0.00127 	1.36944e-10 	0.92 	0.04 	0.04 	0.0102491 	
0 	0.0 	 0.0 	 0.0 	 
ZONE T = "t = 0 [s]" I = 10 SOLUTIONTIME = 0.0000000000000E+00
0.0007874 	1.45e-10 	0.92 	0.04 	0.04 	0.0102491 	
0 	0 	0 	0 	
0.000841022 	1.45e-10 	0.92 	0.04 	0.04 	0.0102491 	
0 	0 	0 	0 	
0.000894644 	1.45e-10 	0.92 	0.04 	0.04 	0.0102491 	
0 	0 	0 	0 	
0.000948267 	1.45e-10 	0.92 	0.04 	0.04 	0.0102491 	
0 	0 	0 	0 	
0.00100189 	1.45e-10 	0.92 	0.04 	0.04 	0.0102491 	
0 	0 	0 	0 	
0.00105551 	1.45e-10 	0.92 	0.04 	0.04 	0.0102491 	
0 	0 	0 	0 	
0.00110913 	1.45e-10 	0.92 	0.04 	0.04 	0.0102491 	
0 	0 	0 	0 	
0.00116276 	1.45e-10 	0.92 	0.04 	0.04 	0.0102491 	
0 	0 	0 	0 	
0.00121638 	1.45e-10 	0.92 	0.04 	0.04 	0.0102491 	
0 	0 	0 	0 	
0.00127 	1.36944e-10 	0.92 	0.04 	0.04 	0.0102491 	
0 	0 	0 	0 	
ZONE T = "t = 0 [s]" I = 10 SOLUTIONTIME = 0.0000000000000E+00
0.0007874 	1.45e-10 	0.92 	0.04 	0.04 	0.0102491 	
0 	0 	0 	0 	
0.000841022 	1.45e-10 	0.92 	0.04 	0.04 	0.0102491 	
0 	0 	0 	0 	
0.000894644 	1.45e-10 	0.92 	0.04 	0.04 	0.0102491 	
0 	0 	0 	0 	
0.000948267 	1.45e-10 	0.92 	0.04 	0.04 	0.0102491 	
0 	0 	0 	0 	
0.00100189 	1.45e-10 	0.92 	0.04 	0.04 	0.0102491 	
0 	0 	0 	0 	
0.00105551 	1.45e-10 	0.92 	0.04 	0.04 	0.0102491 	
0 	0 	0 	0 	
0.00110913 	1.45e-10 	0.92 	0.04 	0.04 	0.0102491 	
0 	0 	0 	0 	
0.00116276 	1.45e-10 	0.92 	0.04 	0.04 	0.0102491 	
0 	0 	0 	0 	
0.00121638 	1.45e-10 	0.92 	0.04 	0.04 	0.0102491 	
0 	0 	0 	0 	
0.00127 	1.36944e-10 	0.92 	0.04 	0.04 	0.0102491 	
0 	0 	0 	0 	
ZONE T = "t = 1e-08 [s]" I = 10 SOLUTIONTIME = 1.0000000000000E-08
0.0007874 	6.94383e-18 	0.92 	0.04 	0.04 	0.0103075 	
0 	0 	0 	0 	
0.000841022 	6.94383e-18 	0.92 	0.04 	0.04 	0.0103075 	
0 	0 	0 	0 	
0.000894644 	6.94383e-18 	0.92 	0.04 	0.04 	0.0103075 	
0 	0 	0 	0 	
0.000948267 	6.94383e-18 	0.92 	0.04 	0.04 	0.0103075 	
0 	0 	0 	0 	
0.00100189 	6.94383e-18 	0.92 	0.04 	0.04 	0.0103075 	
0 	0 	0 	0 	
0.00105551 	6.94383e-18 	0.92 	0.04 	0.04 	0.0103075 	
0 	0 	0 	0 	
0.00110913 	6.94383e-18 	0.92 	0.04 	0.04 	0.0103075 	
0 	0 	0 	0 	
0.00116276 	6.94383e-18 	0.92 	0.04 	0.04 	0.0103075 	
0 	0 	0 	0 	
0.00121638 	6.94383e-18 	0.92 	0.04 	0.04 	0.0103075 	
0 	0 	0 	0 	
0.00127 	-5.21334e-16 	0.92 	0.04 	0.04 	0.0103075 	
0 	0 	0 	0 	
ZONE T = "t = 2e-08 [s]" I = 10 SOLUTIONTIME = 2.0000000000000E-08
0.0007874 	1.38881e-17 	0.92 	0.04 	0.04 	0.0103075 	
0 	0 	0 	0 	
0.000841022 	1.38881e-17 	0.92 	0.04 	0.04 	0.0103075 	
0 	0 	0 	0 	
0.000894644 	1.38881e-17 	0.92 	0.04 	0.04 	0.0103075 	
0 	0 	0 	0 	
0.000948267 	1.38881e-17 	0.92 	0.04 	0.04 	0.0103075 	
0 	0 	0 	0 	
0.00100189 	1.38881e-17 	0.92 	0.04 	0.04 	0.0103075 	
0 	0 	0 	0 	
0.00105551 	1.38881e-17 	0.92 	0.04 	0.04 	0.0103075 	
0 	0 	0 	0 	
0.00110913 	1.38881e-17 	0.92 	0.04 	0.04 	0.0103075 	
0 	0 	0 	0 	
0.00116276 	1.38881e-17 	0.92 	0.04 	0.04 	0.0103075 	
0 	0 	0 	0 	
0.00121638 	1.38881e-17 	0.92 	0.04 	0.04 	0.0103075 	
0 	0 	0 	0 	
0.00127 	-5.14776e-16 	0.92 	0.04 	0.04 	0.0103075 	
0 	0 	0 	0 	
ZONE T = "t = 3e-08 [s]" I = 10 SOLUTIONTIME = 3.0000000000000E-08
0.0007874 	2.08322e-17 	0.92 	0.04 	0.04 	0.0103075 	
0 	0 	0 	0 	
0.000841022 	2.08322e-17 	0.92 	0.04 	0.04 	0.0103075 	
0 	0 	0 	0 	
0.000894644 	2.08322e-17 	0.92 	0.04 	0.04 	0.0103075 	
0 	0 	0 	0 	
0.000948267 	2.08322e-17 	0.92 	0.04 	0.04 	0.0103075 	
0 	0 	0 	0 	
0.00100189 	2.08322e-17 	0.92 	0.04 	0.04 	0.0103075 	
0 	0 	0 	0 	
0.00105551 	2.08322e-17 	0.92 	0.04 	0.04 	0.0103075 	
0 	0 	0 	0 	
0.00110913 	2.08322e-17 	0.92 	0.04 	0.04 	0.0103075 	
0 	0 	0 	0 	
0.00116276 	2.08322e-17 	0.92 	0.04 	0.04 	0.0103075 	
0 	0 	0 	0 	
0.00121638 	2.08322e-17 	0.92 	0.04 	0.04 	0.0103075 	
0 	0 	0 	0 	
0.00127 	-5.08217e-16 	0.92 	0.04 	0.04 	0.0103075 	
0 	0 	0 	0 	
ZONE T = "t = 4e-08 [s]" I = 10 SOLUTIONTIME = 4.0000000000000E-08
0.0007874 	2.77762e-17 	0.92 	0.04 	0.04 	0.0103075 	
0 	0 	0 	0 	
0.000841022 	2.77762e-17 	0.92 	0.04 	0.04 	0.0103075 	
0 	0 	0 	0 	
0.000894644 	2.77762e-17 	0.92 	0.04 	0.04 	0.0103075 	
0 	0 	0 	0 	
0.000948267 	2.77762e-17 	0.92 	0.04 	0.04 	0.0103075 	
0 	0 	0 	0 	
0.00100189 	2.77762e-17 	0.92 	0.04 	0.04 	0.0103075 	
0 	0 	0 	0 	
0.00105551 	2.77762e-17 	0.92 	0.04 	0.04 	0.0103075 	
0 	0 	0 	0 	
0.00110913 	2.77762e-17 	0.92 	0.04 	0.04 	0.0103075 	
0 	0 	0 	0 	
0.00116276 	2.77762e-17 	0.92 	0.04 	0.04 	0.0103075 	
0 	0 	0 	0 	
0.00121638 	2.77762e-17 	0.92 	0.04 	0.04 	0.0103075 	
0 	0 	0 	0 	
0.00127 	-5.01659e-16 	0.92 	0.04 	0.04 	0.0103075 	
0 	0 	0 	0 	
ZONE T = "t = 5.5e-08 [s]" I = 10 SOLUTIONTIME = 5.5000000000000E-08
0.0007874 	3.81923e-17 	0.92 	0.04 	0.04 	0.0103075 	
0 	0 	0 	0 	
0.000841022 	3.81923e-17 	0.92 	0.04 	0.04 	0.0103075 	
0 	0 	0 	0 	
0.000894644 	3.81923e-17 	0.92 	0.04 	0.04 	0.0103075 	
0 	0 	0 	0 	
0.000948267 	3.81923e-17 	0.92 	0.04 	0.04 	0.0103075 	
0 	0 	0 	0 	
0.00100189 	3.81923e-17 	0.92 	0.04 	0.04 	0.0103075 	
0 	0 	0 	0 	
0.00105551 	3.81923e-17 	0.92 	0.04 	0.04 	0.0103075 	
0 	0 	0 	0 	
0.00110913 	3.81923e-17 	0.92 	0.04 	0.04 	0.0103075 	
0 	0 	0 	0 	
0.00116276 	3.81923e-17 	0.92 	0.04 	0.04 	0.0103075 	
0 	0 	0 	0 	
0.00121638 	3.81923e-17 	0.92 	0.04 	0.04 	0.0103075 	
0 	0 	0 	0 	
0.00127 	-4.91822e-16 	0.92 	0.04 	0.04 	0.0103075 	
0 	0 	0 	0 	
ZONE T = "t = 7.75e-08 [s]" I = 10 SOLUTIONTIME = 7.7500000000000E-08
0.0007874 	5.38165e-17 	0.92 	0.04 	0.04 	0.0103075 	
0 	0 	0 	0 	
0.000841022 	5.38165e-17 	0.92 	0.04 	0.04 	0.0103075 	
0 	0 	0 	0 	
0.000894644 	5.38165e-17 	0.92 	0.04 	0.04 	0.0103075 	
0 	0 	0 	0 	
0.000948267 	5.38165e-17 	0.92 	0.04 	0.04 	0.0103075 	
0 	0 	0 	0 	
0.00100189 	5.38165e-17 	0.92 	0.04 	0.04 	0.0103075 	
0 	0 	0 	0 	
0.00105551 	5.38165e-17 	0.92 	0.04 	0.04 	0.0103075 	
0 	0 	0 	0 	
0.00110913 	5.38165e-17 	0.92 	0.04 	0.04 	0.0103075 	
0 	0 	0 	0 	
0.00116276 	5.38165e-17 	0.92 	0.04 	0.04 	0.0103075 	
0 	0 	0 	0 	
0.00121638 	5.38165e-17 	0.92 	0.04 	0.04 	0.0103075 	
0 	0 	0 	0 	
0.00127 	-4.77066e-16 	0.92 	0.04 	0.04 	0.0103075 	
0 	0 	0 	0 	
ZONE T = "t = 1.1125e-07 [s]" I = 10 SOLUTIONTIME = 1.1125000000000E-07
0.0007874 	7.72527e-17 	0.92 	0.04 	0.04 	0.0103075 	
0 	0 	0 	0 	
0.000841022 	7.72527e-17 	0.92 	0.04 	0.04 	0.0103075 	
0 	0 	0 	0 	
0.000894644 	7.72527e-17 	0.92 	0.04 	0.04 	0.0103075 	
0 	0 	0 	0 	
0.000948267 	7.72527e-17 	0.92 	0.04 	0.04 	0.0103075 	
0 	0 	0 	0 	
0.00100189 	7.72527e-17 	0.92 	0.04 	0.04 	0.0103075 	
0 	0 	0 	0 	
0.00105551 	7.72527e-17 	0.92 	0.04 	0.04 	0.0103075 	
0 	0 	0 	0 	
0.00110913 	7.72527e-17 	0.92 	0.04 	0.04 	0.0103075 	
0 	0 	0 	0 	
0.00116276 	7.72527e-17 	0.92 	0.04 	0.04 	0.0103075 	
0 	0 	0 	0 	
0.00121638 	7.72527e-17 	0.92 	0.04 	0.04 	0.0103075 	
0 	0 	0 	0 	
0.00127 	-4.54931e-16 	0.92 	0.04 	0.04 	0.0103075 	
0 	0 	0 	0 	
ZONE T = "t = 1.61875e-07 [s]" I = 10 SOLUTIONTIME = 1.6187500000000E-07
0.0007874 	1.12407e-16 	0.92 	0.04 	0.04 	0.0103075 	
0 	0 	0 	0 	
0.000841022 	1.12407e-16 	0.92 	0.04 	0.04 	0.0103075 	
0 	0 	0 	0 	
0.000894644 	1.12407e-16 	0.92 	0.04 	0.04 	0.0103075 	
0 	0 	0 	0 	
0.000948267 	1.12407e-16 	0.92 	0.04 	0.04 	0.0103075 	
0 	0 	0 	0 	
0.00100189 	1.12407e-16 	0.92 	0.04 	0.04 	0.0103075 	
0 	0 	0 	0 	
0.00105551 	1.12407e-16 	0.92 	0.04 	0.04 	0.0103075 	
0 	0 	0 	0 	
0.00110913 	1.12407e-16 	0.92 	0.04 	0.04 	0.0103075 	
0 	0 	0 	0 	
0.00116276 	1.12407e-16 	0.92 	0.04 	0.04 	0.0103075 	
0 	0 	0 	0 	
0.00121638 	1.12407e-16 	0.92 	0.04 	0.04 	0.0103075 	
0 	0 	0 	0 	
0.00127 	-4.2173e-16 	0.92 	0.04 	0.04 	0.0103075 	
0 	0 	0 	0 	
ZONE T = "t = 2.37813e-07 [s]" I = 10 SOLUTIONTIME = 2.3781250000000E-07
0.0007874 	1.65138e-16 	0.92 	0.04 	0.04 	0.0103075 	
0 	0 	0 	0 	
0.000841022 	1.65138e-16 	0.92 	0.04 	0.04 	0.0103075 	
0 	0 	0 	0 	
0.000894644 	1.65138e-16 	0.92 	0.04 	0.04 	0.0103075 	
0 	0 	0 	0 	
0.000948267 	1.65138e-16 	0.92 	0.04 	0.04 	0.0103075 	
0 	0 	0 	0 	
0.00100189 	1.65138e-16 	0.92 	0.04 	0.04 	0.0103075 	
0 	0 	0 	0 	
0.00105551 	1.65138e-16 	0.92 	0.04 	0.04 	0.0103075 	
0 	0 	0 	0 	
0.00110913 	1.65138e-16 	0.92 	0.04 	0.04 	0.0103075 	
0 	0 	0 	0 	
0.00116276 	1.65138e-16 	0.92 	0.04 	0.04 	0.0103075 	
0 	0 	0 	0 	
0.00121638 	1.65138e-16 	0.92 	0.04 	0.04 	0.0103075 	
0 	0 	0 	0 	
0.00127 	-3.71928e-16 	0.92 	0.04 	0.04 	0.0103075 	
0 	0 	0 	0 	
ZONE T = "t = 3.51719e-07 [s]" I = 10 SOLUTIONTIME = 3.5171875000000E-07
0.0007874 	2.44236e-16 	0.92 	0.04 	0.04 	0.0103075 	
0 	0 	0 	0 	
0.000841022 	2.44236e-16 	0.92 	0.04 	0.04 	0.0103075 	
0 	0 	0 	0 	
0.000894644 	2.44236e-16 	0.92 	0.04 	0.04 	0.0103075 	
0 	0 	0 	0 	
0.000948267 	2.44236e-16 	0.92 	0.04 	0.04 	0.0103075 	
0 	0 	0 	0 	
0.00100189 	2.44236e-16 	0.92 	0.04 	0.04 	0.0103075 	
0 	0 	0 	0 	
0.00105551 	2.44236e-16 	0.92 	0.04 	0.04 	0.0103075 	
0 	0 	0 	0 	
0.00110913 	2.44236e-16 	0.92 	0.04 	0.04 	0.0103075 	
0 	0 	0 	0 	
0.00116276 	2.44236e-16 	0.92 	0.04 	0.04 	0.0103075 	
0 	0 	0 	0 	
0.00121638 	2.44236e-16 	0.92 	0.04 	0.04 	0.0103075 	
0 	0 	0 	0 	
0.00127 	-2.97225e-16 	0.92 	0.04 	0.04 	0.0103075 	
0 	0 	0 	0 	
ZONE T = "t = 5.22578e-07 [s]" I = 10 SOLUTIONTIME = 5.2257812500000E-07
0.0007874 	3.62881e-16 	0.92 	0.04 	0.04 	0.0103075 	
0 	0 	0 	0 	
0.000841022 	3.62881e-16 	0.92 	0.04 	0.04 	0.0103075 	
0 	0 	0 	0 	
0.000894644 	3.62881e-16 	0.92 	0.04 	0.04 	0.0103075 	
0 	0 	0 	0 	
0.000948267 	3.62881e-16 	0.92 	0.04 	0.04 	0.0103075 	
0 	0 	0 	0 	
0.00100189 	3.62881e-16 	0.92 	0.04 	0.04 	0.0103075 	
0 	0 	0 	0 	
0.00105551 	3.62881e-16 	0.92 	0.04 	0.04 	0.0103075 	
0 	0 	0 	0 	
0.00110913 	3.62881e-16 	0.92 	0.04 	0.04 	0.0103075 	
0 	0 	0 	0 	
0.00116276 	3.62881e-16 	0.92 	0.04 	0.04 	0.0103075 	
0 	0 	0 	0 	
0.00121638 	3.62881e-16 	0.92 	0.04 	0.04 	0.0103075 	
0 	0 	0 	0 	
0.00127 	-1.85171e-16 	0.92 	0.04 	0.04 	0.0103075 	
0 	0 	0 	0 	
ZONE T = "t = 7.78867e-07 [s]" I = 10 SOLUTIONTIME = 7.7886718750000E-07
0.0007874 	5.4085e-16 	0.92 	0.04 	0.04 	0.0103075 	
0 	0 	0 	0 	
0.000841022 	5.4085e-16 	0.92 	0.04 	0.04 	0.0103075 	
0 	0 	0 	0 	
0.000894644 	5.4085e-16 	0.92 	0.04 	0.04 	0.0103075 	
0 	0 	0 	0 	
0.000948267 	5.4085e-16 	0.92 	0.04 	0.04 	0.0103075 	
0 	0 	0 	0 	
0.00100189 	5.4085e-16 	0.92 	0.04 	0.04 	0.0103075 	
0 	0 	0 	0 	
0.00105551 	5.4085e-16 	0.92 	0.04 	0.04 	0.0103075 	
0 	0 	0 	0 	
0.00110913 	5.4085e-16 	0.92 	0.04 	0.04 	0.0103075 	
0 	0 	0 	0 	
0.00116276 	5.4085e-16 	0.92 	0.04 	0.04 	0.0103075 	
0 	0 	0 	0 	
0.00121638 	5.4085e-16 	0.92 	0.04 	0.04 	0.0103075 	
0 	0 	0 	0 	
0.00127 	-1.70889e-17 	0.92 	0.04 	0.04 	0.0103075 	
0 	0 	0 	0 	
ZONE T = "t = 1.1633e-06 [s]" I = 10 SOLUTIONTIME = 1.1633007812500E-06
0.0007874 	8.07803e-16 	0.92 	0.04 	0.04 	0.0103075 	
0 	0 	0 	0 	
0.000841022 	8.07803e-16 	0.92 	0.04 	0.04 	0.0103075 	
0 	0 	0 	0 	
0.000894644 	8.07803e-16 	0.92 	0.04 	0.04 	0.0103075 	
0 	0 	0 	0 	
0.000948267 	8.07803e-16 	0.92 	0.04 	0.04 	0.0103075 	
0 	0 	0 	0 	
0.00100189 	8.07803e-16 	0.92 	0.04 	0.04 	0.0103075 	
0 	0 	0 	0 	
0.00105551 	8.07803e-16 	0.92 	0.04 	0.04 	0.0103075 	
0 	0 	0 	0 	
0.00110913 	8.07803e-16 	0.92 	0.04 	0.04 	0.0103075 	
0 	0 	0 	0 	
0.00116276 	8.07803e-16 	0.92 	0.04 	0.04 	0.0103075 	
0 	0 	0 	0 	
0.00121638 	8.07803e-16 	0.92 	0.04 	0.04 	0.0103075 	
0 	0 	0 	0 	
0.00127 	2.35034e-16 	0.92 	0.04 	0.04 	0.0103075 	
0 	0 	0 	0 	
ZONE T = "t = 1.73995e-06 [s]" I = 10 SOLUTIONTIME = 1.7399511718750E-06
0.0007874 	1.20823e-15 	0.92 	0.04 	0.04 	0.0103075 	
0 	0 	0 	0 	
0.000841022 	1.20823e-15 	0.92 	0.04 	0.04 	0.0103075 	
0 	0 	0 	0 	
0.000894644 	1.20823e-15 	0.92 	0.04 	0.04 	0.0103075 	
0 	0 	0 	0 	
0.000948267 	1.20823e-15 	0.92 	0.04 	0.04 	0.0103075 	
0 	0 	0 	0 	
0.00100189 	1.20823e-15 	0.92 	0.04 	0.04 	0.0103075 	
0 	0 	0 	0 	
0.00105551 	1.20823e-15 	0.92 	0.04 	0.04 	0.0103075 	
0 	0 	0 	0 	
0.00110913 	1.20823e-15 	0.92 	0.04 	0.04 	0.0103075 	
0 	0 	0 	0 	
0.00116276 	1.20823e-15 	0.92 	0.04 	0.04 	0.0103075 	
0 	0 	0 	0 	
0.00121638 	1.20823e-15 	0.92 	0.04 	0.04 	0.0103075 	
0 	0 	0 	0 	
0.00127 	6.13218e-16 	0.92 	0.04 	0.04 	0.0103075 	
0 	0 	0 	0 	
ZONE T = "t = 2.60493e-06 [s]" I = 10 SOLUTIONTIME = 2.6049267578125E-06
0.0007874 	1.80888e-15 	0.92 	0.04 	0.04 	0.0103075 	
0 	0 	0 	0 	
0.000841022 	1.80888e-15 	0.92 	0.04 	0.04 	0.0103075 	
0 	0 	0 	0 	
0.000894644 	1.80888e-15 	0.92 	0.04 	0.04 	0.0103075 	
0 	0 	0 	0 	
0.000948267 	1.80888e-15 	0.92 	0.04 	0.04 	0.0103075 	
0 	0 	0 	0 	
0.00100189 	1.80888e-15 	0.92 	0.04 	0.04 	0.0103075 	
0 	0 	0 	0 	
0.00105551 	1.80888e-15 	0.92 	0.04 	0.04 	0.0103075 	
0 	0 	0 	0 	
0.00110913 	1.80888e-15 	0.92 	0.04 	0.04 	0.0103075 	
0 	0 	0 	0 	
0.00116276 	1.80888e-15 	0.92 	0.04 	0.04 	0.0103075 	
0 	0 	0 	0 	
0.00121638 	1.80888e-15 	0.92 	0.04 	0.04 	0.0103075 	
0 	0 	0 	0 	
0.00127 	1.18049e-15 	0.92 	0.04 	0.04 	0.0103075 	
0 	0 	0 	0 	
ZONE T = "t = 3.90239e-06 [s]" I = 10 SOLUTIONTIME = 3.9023901367188E-06
0.0007874 	2.70984e-15 	0.92 	0.04 	0.04 	0.0103075 	
0 	0 	0 	0 	
0.000841022 	2.70984e-15 	0.92 	0.04 	0.04 	0.0103075 	
0 	0 	0 	0 	
0.000894644 	2.70984e-15 	0.92 	0.04 	0.04 	0.0103075 	
0 	0 	0 	0 	
0.000948267 	2.70984e-15 	0.92 	0.04 	0.04 	0.0103075 	
0 	0 	0 	0 	
0.00100189 	2.70984e-15 	0.92 	0.04 	0.04 	0.0103075 	
0 	0 	0 	0 	
0.00105551 	2.70984e-15 	0.92 	0.04 	0.04 	0.0103075 	
0 	0 	0 	0 	
0.00110913 	2.70984e-15 	0.92 	0.04 	0.04 	0.0103075 	
0 	0 	0 	0 	
0.00116276 	2.70984e-15 	0.92 	0.04 	0.04 	0.0103075 	
0 	0 	0 	0 	
0.00121638 	2.70984e-15 	0.92 	0.04 	0.04 	0.0103075 	
0 	0 	0 	0 	
0.00127 	2.03141e-15 	0.92 	0.04 	0.04 	0.0103075 	
0 	0 	0 	0 	
ZONE T = "t = 5.84859e-06 [s]" I = 10 SOLUTIONTIME = 5.8485852050781E-06
0.0007874 	4.06129e-15 	0.92 	0.04 	0.04 	0.0103075 	
0 	0 	0 	0 	
0.000841022 	4.06129e-15 	0.92 	0.04 	0.04 	0.0103075 	
0 	0 	0 	0 	
0.000894644 	4.06129e-15 	0.92 	0.04 	0.04 	0.0103075 	
0 	0 	0 	0 	
0.000948267 	4.06129e-15 	0.92 	0.04 	0.04 	0.0103075 	
0 	0 	0 	0 	
0.00100189 	4.06129e-15 	0.92 	0.04 	0.04 	0.0103075 	
0 	0 	0 	0 	
0.00105551 	4.06129e-15 	0.92 	0.04 	0.04 	0.0103075 	
0 	0 	0 	0 	
0.00110913 	4.06129e-15 	0.92 	0.04 	0.04 	0.0103075 	
0 	0 	0 	0 	
0.00116276 	4.06129e-15 	0.92 	0.04 	0.04 	0.0103075 	
0 	0 	0 	0 	
0.00121638 	4.06129e-15 	0.92 	0.04 	0.04 	0.0103075 	
0 	0 	0 	0 	
0.00127 	3.30778e-15 	0.92 	0.04 	0.04 	0.0103075 	
0 	0 	0 	0 	
ZONE T = "t = 8.76788e-06 [s]" I = 10 SOLUTIONTIME = 8.7678778076172E-06
0.0007874 	6.08847e-15 	0.92 	0.04 	0.04 	0.0103075 	
0 	0 	0 	0 	
0.000841022 	6.08847e-15 	0.92 	0.04 	0.04 	0.0103075 	
0 	0 	0 	0 	
0.000894644 	6.08847e-15 	0.92 	0.04 	0.04 	0.0103075 	
0 	0 	0 	0 	
0.000948267 	6.08847e-15 	0.92 	0.04 	0.04 	0.0103075 	
0 	0 	0 	0 	
0.00100189 	6.08847e-15 	0.92 	0.04 	0.04 	0.0103075 	
0 	0 	0 	0 	
0.00105551 	6.08847e-15 	0.92 	0.04 	0.04 	0.0103075 	
0 	0 	0 	0 	
0.00110913 	6.08847e-15 	0.92 	0.04 	0.04 	0.0103075 	
0 	0 	0 	0 	
0.00116276 	6.08847e-15 	0.92 	0.04 	0.04 	0.0103075 	
0 	0 	0 	0 	
0.00121638 	6.08847e-15 	0.92 	0.04 	0.04 	0.0103075 	
0 	0 	0 	0 	
0.00127 	5.22233e-15 	0.92 	0.04 	0.04 	0.0103075 	
0 	0 	0 	0 	
ZONE T = "t = 1.31468e-05 [s]" I = 10 SOLUTIONTIME = 1.3146816711426E-05
0.0007874 	9.12923e-15 	0.92 	0.04 	0.04 	0.0103075 	
0 	0 	0 	0 	
0.000841022 	9.12923e-15 	0.92 	0.04 	0.04 	0.0103075 	
0 	0 	0 	0 	
0.000894644 	9.12923e-15 	0.92 	0.04 	0.04 	0.0103075 	
0 	0 	0 	0 	
0.000948267 	9.12923e-15 	0.92 	0.04 	0.04 	0.0103075 	
0 	0 	0 	0 	
0.00100189 	9.12923e-15 	0.92 	0.04 	0.04 	0.0103075 	
0 	0 	0 	0 	
0.00105551 	9.12923e-15 	0.92 	0.04 	0.04 	0.0103075 	
0 	0 	0 	0 	
0.00110913 	9.12923e-15 	0.92 	0.04 	0.04 	0.0103075 	
0 	0 	0 	0 	
0.00116276 	9.12923e-15 	0.92 	0.04 	0.04 	0.0103075 	
0 	0 	0 	0 	
0.00121638 	9.12923e-15 	0.92 	0.04 	0.04 	0.0103075 	
0 	0 	0 	0 	
0.00127 	8.09417e-15 	0.92 	0.04 	0.04 	0.0103075 	
0 	0 	0 	0 	
ZONE T = "t = 1.97152e-05 [s]" I = 10 SOLUTIONTIME = 1.9715225067139E-05
0.0007874 	1.36904e-14 	0.92 	0.04 	0.04 	0.0103075 	
0 	0 	0 	0 	
0.000841022 	1.36904e-14 	0.92 	0.04 	0.04 	0.0103075 	
0 	0 	0 	0 	
0.000894644 	1.36904e-14 	0.92 	0.04 	0.04 	0.0103075 	
0 	0 	0 	0 	
0.000948267 	1.36904e-14 	0.92 	0.04 	0.04 	0.0103075 	
0 	0 	0 	0 	
0.00100189 	1.36904e-14 	0.92 	0.04 	0.04 	0.0103075 	
0 	0 	0 	0 	
0.00105551 	1.36904e-14 	0.92 	0.04 	0.04 	0.0103075 	
0 	0 	0 	0 	
0.00110913 	1.36904e-14 	0.92 	0.04 	0.04 	0.0103075 	
0 	0 	0 	0 	
0.00116276 	1.36904e-14 	0.92 	0.04 	0.04 	0.0103075 	
0 	0 	0 	0 	
0.00121638 	1.36904e-14 	0.92 	0.04 	0.04 	0.0103075 	
0 	0 	0 	0 	
0.00127 	1.24019e-14 	0.92 	0.04 	0.04 	0.0103075 	
0 	0 	0 	0 	
ZONE T = "t = 2.95678e-05 [s]" I = 10 SOLUTIONTIME = 2.9567837600708E-05
0.0007874 	2.05321e-14 	0.92 	0.04 	0.04 	0.0103074 	
0 	0 	0 	0 	
0.000841022 	2.05321e-14 	0.92 	0.04 	0.04 	0.0103074 	
0 	0 	0 	0 	
0.000894644 	2.05321e-14 	0.92 	0.04 	0.04 	0.0103074 	
0 	0 	0 	0 	
0.000948267 	2.05321e-14 	0.92 	0.04 	0.04 	0.0103074 	
0 	0 	0 	0 	
0.00100189 	2.05321e-14 	0.92 	0.04 	0.04 	0.0103074 	
0 	0 	0 	0 	
0.00105551 	2.05321e-14 	0.92 	0.04 	0.04 	0.0103074 	
0 	0 	0 	0 	
0.00110913 	2.05321e-14 	0.92 	0.04 	0.04 	0.0103074 	
0 	0 	0 	0 	
0.00116276 	2.05321e-14 	0.92 	0.04 	0.04 	0.0103074 	
0 	0 	0 	0 	
0.00121638 	2.05321e-14 	0.92 	0.04 	0.04 	0.0103074 	
0 	0 	0 	0 	
0.00127 	1.88635e-14 	0.92 	0.04 	0.04 	0.0103074 	
0 	0 	0 	0 	
ZONE T = "t = 4.43468e-05 [s]" I = 10 SOLUTIONTIME = 4.4346756401062E-05
0.0007874 	3.07947e-14 	0.92 	0.04 	0.04 	0.0103074 	
0 	0 	0 	0 	
0.000841022 	3.07947e-14 	0.92 	0.04 	0.04 	0.0103074 	
0 	0 	0 	0 	
0.000894644 	3.07947e-14 	0.92 	0.04 	0.04 	0.0103074 	
0 	0 	0 	0 	
0.000948267 	3.07947e-14 	0.92 	0.04 	0.04 	0.0103074 	
0 	0 	0 	0 	
0.00100189 	3.07947e-14 	0.92 	0.04 	0.04 	0.0103074 	
0 	0 	0 	0 	
0.00105551 	3.07947e-14 	0.92 	0.04 	0.04 	0.0103074 	
0 	0 	0 	0 	
0.00110913 	3.07947e-14 	0.92 	0.04 	0.04 	0.0103074 	
0 	0 	0 	0 	
0.00116276 	3.07947e-14 	0.92 	0.04 	0.04 	0.0103074 	
0 	0 	0 	0 	
0.00121638 	3.07947e-14 	0.92 	0.04 	0.04 	0.0103074 	
0 	0 	0 	0 	
0.00127 	2.8556e-14 	0.92 	0.04 	0.04 	0.0103074 	
0 	0 	0 	0 	
ZONE T = "t = 6.65151e-05 [s]" I = 10 SOLUTIONTIME = 6.6515134601593E-05
0.0007874 	4.61885e-14 	0.92 	0.04 	0.04 	0.0103074 	
0 	0 	0 	0 	
0.000841022 	4.61885e-14 	0.92 	0.04 	0.04 	0.0103074 	
0 	0 	0 	0 	
0.000894644 	4.61885e-14 	0.92 	0.04 	0.04 	0.0103074 	
0 	0 	0 	0 	
0.000948267 	4.61885e-14 	0.92 	0.04 	0.04 	0.0103074 	
0 	0 	0 	0 	
0.00100189 	4.61885e-14 	0.92 	0.04 	0.04 	0.0103074 	
0 	0 	0 	0 	
0.00105551 	4.61885e-14 	0.92 	0.04 	0.04 	0.0103074 	
0 	0 	0 	0 	
0.00110913 	4.61885e-14 	0.92 	0.04 	0.04 	0.0103074 	
0 	0 	0 	0 	
0.00116276 	4.61885e-14 	0.92 	0.04 	0.04 	0.0103074 	
0 	0 	0 	0 	
0.00121638 	4.61885e-14 	0.92 	0.04 	0.04 	0.0103074 	
0 	0 	0 	0 	
0.00127 	4.30946e-14 	0.92 	0.04 	0.04 	0.0103074 	
0 	0 	0 	0 	
ZONE T = "t = 9.97677e-05 [s]" I = 10 SOLUTIONTIME = 9.9767701902390E-05
0.0007874 	6.92793e-14 	0.92 	0.04 	0.04 	0.0103074 	
0 	0 	0 	0 	
0.000841022 	6.92793e-14 	0.92 	0.04 	0.04 	0.0103074 	
0 	0 	0 	0 	
0.000894644 	6.92793e-14 	0.92 	0.04 	0.04 	0.0103074 	
0 	0 	0 	0 	
0.000948267 	6.92793e-14 	0.92 	0.04 	0.04 	0.0103074 	
0 	0 	0 	0 	
0.00100189 	6.92793e-14 	0.92 	0.04 	0.04 	0.0103074 	
0 	0 	0 	0 	
0.00105551 	6.92793e-14 	0.92 	0.04 	0.04 	0.0103074 	
0 	0 	0 	0 	
0.00110913 	6.92793e-14 	0.92 	0.04 	0.04 	0.0103074 	
0 	0 	0 	0 	
0.00116276 	6.92793e-14 	0.92 	0.04 	0.04 	0.0103074 	
0 	0 	0 	0 	
0.00121638 	6.92793e-14 	0.92 	0.04 	0.04 	0.0103074 	
0 	0 	0 	0 	
0.00127 	6.49026e-14 	0.92 	0.04 	0.04 	0.0103074 	
0 	0 	0 	0 	
ZONE T = "t = 0.000149647 [s]" I = 10 SOLUTIONTIME = 1.4964655285358E-04
0.0007874 	1.03915e-13 	0.92 	0.04 	0.04 	0.0103074 	
0 	0 	0 	0 	
0.000841022 	1.03915e-13 	0.92 	0.04 	0.04 	0.0103074 	
0 	0 	0 	0 	
0.000894644 	1.03915e-13 	0.92 	0.04 	0.04 	0.0103074 	
0 	0 	0 	0 	
0.000948267 	1.03915e-13 	0.92 	0.04 	0.04 	0.0103074 	
0 	0 	0 	0 	
0.00100189 	1.03915e-13 	0.92 	0.04 	0.04 	0.0103074 	
0 	0 	0 	0 	
0.00105551 	1.03915e-13 	0.92 	0.04 	0.04 	0.0103074 	
0 	0 	0 	0 	
0.00110913 	1.03915e-13 	0.92 	0.04 	0.04 	0.0103074 	
0 	0 	0 	0 	
0.00116276 	1.03915e-13 	0.92 	0.04 	0.04 	0.0103074 	
0 	0 	0 	0 	
0.00121638 	1.03915e-13 	0.92 	0.04 	0.04 	0.0103074 	
0 	0 	0 	0 	
0.00127 	9.76146e-14 	0.92 	0.04 	0.04 	0.0103074 	
0 	0 	0 	0 	
ZONE T = "t = 0.000224465 [s]" I = 10 SOLUTIONTIME = 2.2446482928038E-04
0.0007874 	1.5587e-13 	0.92 	0.04 	0.04 	0.0103074 	
0 	0 	0 	0 	
0.000841022 	1.5587e-13 	0.92 	0.04 	0.04 	0.0103074 	
0 	0 	0 	0 	
0.000894644 	1.5587e-13 	0.92 	0.04 	0.04 	0.0103074 	
0 	0 	0 	0 	
0.000948267 	1.5587e-13 	0.92 	0.04 	0.04 	0.0103074 	
0 	0 	0 	0 	
0.00100189 	1.5587e-13 	0.92 	0.04 	0.04 	0.0103074 	
0 	0 	0 	0 	
0.00105551 	1.5587e-13 	0.92 	0.04 	0.04 	0.0103074 	
0 	0 	0 	0 	
0.00110913 	1.5587e-13 	0.92 	0.04 	0.04 	0.0103074 	
0 	0 	0 	0 	
0.00116276 	1.5587e-13 	0.92 	0.04 	0.04 	0.0103074 	
0 	0 	0 	0 	
0.00121638 	1.5587e-13 	0.92 	0.04 	0.04 	0.0103074 	
0 	0 	0 	0 	
0.00127 	1.46683e-13 	0.92 	0.04 	0.04 	0.0103074 	
0 	0 	0 	0 	
ZONE T = "t = 0.000336692 [s]" I = 10 SOLUTIONTIME = 3.3669224392056E-04
0.0007874 	2.33801e-13 	0.92 	0.04 	0.04 	0.0103074 	
0 	0 	0 	0 	
0.000841022 	2.33801e-13 	0.92 	0.04 	0.04 	0.0103074 	
0 	0 	0 	0 	
0.000894644 	2.33801e-13 	0.92 	0.04 	0.04 	0.0103074 	
0 	0 	0 	0 	
0.000948267 	2.33801e-13 	0.92 	0.04 	0.04 	0.0103074 	
0 	0 	0 	0 	
0.00100189 	2.33801e-13 	0.92 	0.04 	0.04 	0.0103074 	
0 	0 	0 	0 	
0.00105551 	2.33801e-13 	0.92 	0.04 	0.04 	0.0103074 	
0 	0 	0 	0 	
0.00110913 	2.33801e-13 	0.92 	0.04 	0.04 	0.0103074 	
0 	0 	0 	0 	
0.00116276 	2.33801e-13 	0.92 	0.04 	0.04 	0.0103074 	
0 	0 	0 	0 	
0.00121638 	2.33801e-13 	0.92 	0.04 	0.04 	0.0103074 	
0 	0 	0 	0 	
0.00127 	2.20285e-13 	0.92 	0.04 	0.04 	0.0103074 	
0 	0 	0 	0 	
ZONE T = "t = 0.000505033 [s]" I = 10 SOLUTIONTIME = 5.0503336588085E-04
0.0007874 	3.50698e-13 	0.92 	0.04 	0.04 	0.0103073 	
0 	0 	0 	0 	
0.000841022 	3.50698e-13 	0.92 	0.04 	0.04 	0.0103073 	
0 	0 	0 	0 	
0.000894644 	3.50698e-13 	0.92 	0.04 	0.04 	0.0103073 	
0 	0 	0 	0 	
0.000948267 	3.50698e-13 	0.92 	0.04 	0.04 	0.0103073 	
0 	0 	0 	0 	
0.00100189 	3.50698e-13 	0.92 	0.04 	0.04 	0.0103073 	
0 	0 	0 	0 	
0.00105551 	3.50698e-13 	0.92 	0.04 	0.04 	0.0103073 	
0 	0 	0 	0 	
0.00110913 	3.50698e-13 	0.92 	0.04 	0.04 	0.0103073 	
0 	0 	0 	0 	
0.00116276 	3.50698e-13 	0.92 	0.04 	0.04 	0.0103073 	
0 	0 	0 	0 	
0.00121638 	3.50698e-13 	0.92 	0.04 	0.04 	0.0103073 	
0 	0 	0 	0 	
0.00127 	3.30687e-13 	0.92 	0.04 	0.04 	0.0103073 	
0 	0 	0 	0 	
ZONE T = "t = 0.000757545 [s]" I = 10 SOLUTIONTIME = 7.5754504882127E-04
0.0007874 	5.26044e-13 	0.92 	0.04 	0.04 	0.0103072 	
0 	0 	0 	0 	
0.000841022 	5.26044e-13 	0.92 	0.04 	0.04 	0.0103072 	
0 	0 	0 	0 	
0.000894644 	5.26044e-13 	0.92 	0.04 	0.04 	0.0103072 	
0 	0 	0 	0 	
0.000948267 	5.26044e-13 	0.92 	0.04 	0.04 	0.0103072 	
0 	0 	0 	0 	
0.00100189 	5.26044e-13 	0.92 	0.04 	0.04 	0.0103072 	
0 	0 	0 	0 	
0.00105551 	5.26044e-13 	0.92 	0.04 	0.04 	0.0103072 	
0 	0 	0 	0 	
0.00110913 	5.26044e-13 	0.92 	0.04 	0.04 	0.0103072 	
0 	0 	0 	0 	
0.00116276 	5.26044e-13 	0.92 	0.04 	0.04 	0.0103072 	
0 	0 	0 	0 	
0.00121638 	5.26044e-13 	0.92 	0.04 	0.04 	0.0103072 	
0 	0 	0 	0 	
0.00127 	4.96292e-13 	0.92 	0.04 	0.04 	0.0103072 	
0 	0 	0 	0 	
ZONE T = "t = 0.00113631 [s]" I = 10 SOLUTIONTIME = 1.1363125732319E-03
0.0007874 	7.89062e-13 	0.92 	0.04 	0.04 	0.0103071 	
0 	0 	0 	0 	
0.000841022 	7.89062e-13 	0.92 	0.04 	0.04 	0.0103071 	
0 	0 	0 	0 	
0.000894644 	7.89062e-13 	0.92 	0.04 	0.04 	0.0103071 	
0 	0 	0 	0 	
0.000948267 	7.89062e-13 	0.92 	0.04 	0.04 	0.0103071 	
0 	0 	0 	0 	
0.00100189 	7.89062e-13 	0.92 	0.04 	0.04 	0.0103071 	
0 	0 	0 	0 	
0.00105551 	7.89062e-13 	0.92 	0.04 	0.04 	0.0103071 	
0 	0 	0 	0 	
0.00110913 	7.89062e-13 	0.92 	0.04 	0.04 	0.0103071 	
0 	0 	0 	0 	
0.00116276 	7.89062e-13 	0.92 	0.04 	0.04 	0.0103071 	
0 	0 	0 	0 	
0.00121638 	7.89062e-13 	0.92 	0.04 	0.04 	0.0103071 	
0 	0 	0 	0 	
0.00127 	7.44698e-13 	0.92 	0.04 	0.04 	0.0103071 	
0 	0 	0 	0 	
ZONE T = "t = 0.00170446 [s]" I = 10 SOLUTIONTIME = 1.7044638598479E-03
0.0007874 	1.18359e-12 	0.92 	0.04 	0.04 	0.010307 	
0 	0 	0 	0 	
0.000841022 	1.18359e-12 	0.92 	0.04 	0.04 	0.010307 	
0 	0 	0 	0 	
0.000894644 	1.18359e-12 	0.92 	0.04 	0.04 	0.010307 	
0 	0 	0 	0 	
0.000948267 	1.18359e-12 	0.92 	0.04 	0.04 	0.010307 	
0 	0 	0 	0 	
0.00100189 	1.18359e-12 	0.92 	0.04 	0.04 	0.010307 	
0 	0 	0 	0 	
0.00105551 	1.18359e-12 	0.92 	0.04 	0.04 	0.010307 	
0 	0 	0 	0 	
0.00110913 	1.18359e-12 	0.92 	0.04 	0.04 	0.010307 	
0 	0 	0 	0 	
0.00116276 	1.18359e-12 	0.92 	0.04 	0.04 	0.010307 	
0 	0 	0 	0 	
0.00121638 	1.18359e-12 	0.92 	0.04 	0.04 	0.010307 	
0 	0 	0 	0 	
0.00127 	1.11731e-12 	0.92 	0.04 	0.04 	0.010307 	
0 	0 	0 	0 	
ZONE T = "t = 0.00255669 [s]" I = 10 SOLUTIONTIME = 2.5566907897718E-03
0.0007874 	1.77538e-12 	0.92 	0.04 	0.04 	0.0103067 	
0 	0 	0 	0 	
0.000841022 	1.77538e-12 	0.92 	0.04 	0.04 	0.0103067 	
0 	0 	0 	0 	
0.000894644 	1.77538e-12 	0.92 	0.04 	0.04 	0.0103067 	
0 	0 	0 	0 	
0.000948267 	1.77538e-12 	0.92 	0.04 	0.04 	0.0103067 	
0 	0 	0 	0 	
0.00100189 	1.77538e-12 	0.92 	0.04 	0.04 	0.0103067 	
0 	0 	0 	0 	
0.00105551 	1.77538e-12 	0.92 	0.04 	0.04 	0.0103067 	
0 	0 	0 	0 	
0.00110913 	1.77538e-12 	0.92 	0.04 	0.04 	0.0103067 	
0 	0 	0 	0 	
0.00116276 	1.77538e-12 	0.92 	0.04 	0.04 	0.0103067 	
0 	0 	0 	0 	
0.00121638 	1.77538e-12 	0.92 	0.04 	0.04 	0.0103067 	
0 	0 	0 	0 	
0.00127 	1.67622e-12 	0.92 	0.04 	0.04 	0.0103067 	
0 	0 	0 	0 	
ZONE T = "t = 0.00383503 [s]" I = 10 SOLUTIONTIME = 3.8350311846577E-03
0.0007874 	2.66307e-12 	0.92 	0.04 	0.04 	0.0103064 	
0 	0 	0 	0 	
0.000841022 	2.66307e-12 	0.92 	0.04 	0.04 	0.0103064 	
0 	0 	0 	0 	
0.000894644 	2.66307e-12 	0.92 	0.04 	0.04 	0.0103064 	
0 	0 	0 	0 	
0.000948267 	2.66307e-12 	0.92 	0.04 	0.04 	0.0103064 	
0 	0 	0 	0 	
0.00100189 	2.66307e-12 	0.92 	0.04 	0.04 	0.0103064 	
0 	0 	0 	0 	
0.00105551 	2.66307e-12 	0.92 	0.04 	0.04 	0.0103064 	
0 	0 	0 	0 	
0.00110913 	2.66307e-12 	0.92 	0.04 	0.04 	0.0103064 	
0 	0 	0 	0 	
0.00116276 	2.66307e-12 	0.92 	0.04 	0.04 	0.0103064 	
0 	0 	0 	0 	
0.00121638 	2.66307e-12 	0.92 	0.04 	0.04 	0.0103064 	
0 	0 	0 	0 	
0.00127 	2.5146e-12 	0.92 	0.04 	0.04 	0.0103064 	
0 	0 	0 	0 	
ZONE T = "t = 0.00575254 [s]" I = 10 SOLUTIONTIME = 5.7525417769865E-03
0.0007874 	3.9946e-12 	0.92 	0.04 	0.04 	0.0103058 	
0 	0 	0 	0 	
0.000841022 	3.9946e-12 	0.92 	0.04 	0.04 	0.0103058 	
0 	0 	0 	0 	
0.000894644 	3.9946e-12 	0.92 	0.04 	0.04 	0.0103058 	
0 	0 	0 	0 	
0.000948267 	3.9946e-12 	0.92 	0.04 	0.04 	0.0103058 	
0 	0 	0 	0 	
0.00100189 	3.9946e-12 	0.92 	0.04 	0.04 	0.0103058 	
0 	0 	0 	0 	
0.00105551 	3.9946e-12 	0.92 	0.04 	0.04 	0.0103058 	
0 	0 	0 	0 	
0.00110913 	3.9946e-12 	0.92 	0.04 	0.04 	0.0103058 	
0 	0 	0 	0 	
0.00116276 	3.9946e-12 	0.92 	0.04 	0.04 	0.0103058 	
0 	0 	0 	0 	
0.00121638 	3.9946e-12 	0.92 	0.04 	0.04 	0.0103058 	
0 	0 	0 	0 	
0.00127 	3.77215e-12 	0.92 	0.04 	0.04 	0.0103058 	
0 	0 	0 	0 	
ZONE T = "t = 0.00862881 [s]" I = 10 SOLUTIONTIME = 8.6288076654798E-03
0.0007874 	5.9919e-12 	0.92 	0.04 	0.04 	0.010305 	
0 	0 	0 	0 	
0.000841022 	5.9919e-12 	0.92 	0.04 	0.04 	0.010305 	
0 	0 	0 	0 	
0.000894644 	5.9919e-12 	0.92 	0.04 	0.04 	0.010305 	
0 	0 	0 	0 	
0.000948267 	5.9919e-12 	0.92 	0.04 	0.04 	0.010305 	
0 	0 	0 	0 	
0.00100189 	5.9919e-12 	0.92 	0.04 	0.04 	0.010305 	
0 	0 	0 	0 	
0.00105551 	5.9919e-12 	0.92 	0.04 	0.04 	0.010305 	
0 	0 	0 	0 	
0.00110913 	5.9919e-12 	0.92 	0.04 	0.04 	0.010305 	
0 	0 	0 	0 	
0.00116276 	5.9919e-12 	0.92 	0.04 	0.04 	0.010305 	
0 	0 	0 	0 	
0.00121638 	5.9919e-12 	0.92 	0.04 	0.04 	0.010305 	
0 	0 	0 	0 	
0.00127 	5.65849e-12 	0.92 	0.04 	0.04 	0.010305 	
0 	0 	0 	0 	
ZONE T = "t = 0.0129432 [s]" I = 10 SOLUTIONTIME = 1.2943206498220E-02
0.0007874 	8.98784e-12 	0.92 	0.04 	0.04 	0.0103038 	
0 	0 	0 	0 	
0.000841022 	8.98784e-12 	0.92 	0.04 	0.04 	0.0103038 	
0 	0 	0 	0 	
0.000894644 	8.98784e-12 	0.92 	0.04 	0.04 	0.0103038 	
0 	0 	0 	0 	
0.000948267 	8.98784e-12 	0.92 	0.04 	0.04 	0.0103038 	
0 	0 	0 	0 	
0.00100189 	8.98784e-12 	0.92 	0.04 	0.04 	0.0103038 	
0 	0 	0 	0 	
0.00105551 	8.98784e-12 	0.92 	0.04 	0.04 	0.0103038 	
0 	0 	0 	0 	
0.00110913 	8.98784e-12 	0.92 	0.04 	0.04 	0.0103038 	
0 	0 	0 	0 	
0.00116276 	8.98784e-12 	0.92 	0.04 	0.04 	0.0103038 	
0 	0 	0 	0 	
0.00121638 	8.98784e-12 	0.92 	0.04 	0.04 	0.0103038 	
0 	0 	0 	0 	
0.00127 	8.488e-12 	0.92 	0.04 	0.04 	0.0103038 	
0 	0 	0 	0 	
ZONE T = "t = 0.0194148 [s]" I = 10 SOLUTIONTIME = 1.9414804747330E-02
0.0007874 	1.34818e-11 	0.92 	0.04 	0.04 	0.010302 	
0 	0 	0 	0 	
0.000841022 	1.34818e-11 	0.92 	0.04 	0.04 	0.010302 	
0 	0 	0 	0 	
0.000894644 	1.34818e-11 	0.92 	0.04 	0.04 	0.010302 	
0 	0 	0 	0 	
0.000948267 	1.34818e-11 	0.92 	0.04 	0.04 	0.010302 	
0 	0 	0 	0 	
0.00100189 	1.34818e-11 	0.92 	0.04 	0.04 	0.010302 	
0 	0 	0 	0 	
0.00105551 	1.34818e-11 	0.92 	0.04 	0.04 	0.010302 	
0 	0 	0 	0 	
0.00110913 	1.34818e-11 	0.92 	0.04 	0.04 	0.010302 	
0 	0 	0 	0 	