TITLE = "Solution on Domain BulkDomain1D_0"
VARIABLES = "x [m]"  
"Vel_axial" 
"MF_sp(ECDMC)" 
"MF_sp(Li+)" 
"MF_sp(PF6-)" 
"Volt(Electroly)" 
"Volt(AnodeVolt)" 
"Potential Drop Electrode-Electrolyte [V]" 
"Surf_0 Equilibrium Potential Drop Electrode-Electrolyte [V]" 
"Overpotential_0 [V]" 
"Current Source [A/m^2]" 
"Li+ flux [kmol/m^2/s]" 
"Electrolyte Current [A/m^2]" 
"Electrode Current [A/m^2]" 
"CV Capacity discharged [A-s/m^2]" 
"Depth of discharge in CV [A-s/m^2]" 
"CV Capacity remaining [A-s/m^2]" 
"Initial CV capacity [A-s/m^2]" 
"Porosity []" 
"Surface Area [m2/m2] (area per area)" 
"Specific current (per particle area) [A/m^2]" 
"Control volume thickness [m]" 
"MoleDens Li_C6-bulk [kmol/m^3]" 
"MoleDens V_C6-bulk [kmol/m^3]" 
"qHeat_accum [J/m3]" 
"qHeat_step [W/m3]" 
"Joule_Lyte [W/m3]" 
"Joule_Solid [W/m3]" 
"electrodHeat [W/m3]" 
"OverpotHeat [W/m3]" 
"deltaSHeat [W/m3]" 

ZONE T = "ANOD, 0.0000E+00", I = 10, SOLUTIONTIME = 0.000000E+00
ZONETYPE = ORDERED
DATAPACKING = BLOCK
STRANDID = 1
 0.0000000000000E+00  8.7488888888889E-05  1.7497777777778E-04  2.6246666666667E-04  3.4995555555556E-04  4.3744444444444E-04  5.2493333333333E-04  6.1242222222222E-04  6.9991111111111E-04  7.8740000000000E-04 
 8.0556036137532E-12  2.4166809368316E-11  4.0278010269142E-11  5.6389202940529E-11  7.2500383999613E-11  8.8611550072436E-11  1.0472269777983E-10  1.2083382374051E-10  1.3694492457746E-10  1.4500046074539E-10 
 9.1999997264233E-01  9.1999997295547E-01  9.1999997389488E-01  9.1999997546058E-01  9.1999997765255E-01  9.1999998047079E-01  9.1999998391532E-01  9.1999998798612E-01  9.1999999268319E-01  9.1999999800653E-01 
 4.0000013678836E-02  4.0000013522267E-02  4.0000013052559E-02  4.0000012269712E-02  4.0000011173727E-02  4.0000009764603E-02  4.0000008042341E-02  4.0000006006942E-02  4.0000003658406E-02  4.0000000996733E-02 
 4.0000013678836E-02  4.0000013522267E-02  4.0000013052559E-02  4.0000012269712E-02  4.0000011173727E-02  4.0000009764603E-02  4.0000008042341E-02  4.0000006006942E-02  4.0000003658406E-02  4.0000000996733E-02 
 1.0249120196691E-02  1.0249120087379E-02  1.0249119759444E-02  1.0249119212886E-02  1.0249118447705E-02  1.0249117463900E-02  1.0249116261473E-02  1.0249114840424E-02  1.0249113200752E-02  1.0249111342458E-02 
 0.0000000000000E+00 -2.6544331020875E-11 -4.9965790634587E-11 -7.0264379781945E-11 -8.7440100058081E-11 -1.0149295371383E-10 -1.1242294365402E-10 -1.2023007343846E-10 -1.2491434728237E-10 -1.2647577005553E-10 
-1.0249120196691E-02 -1.0249120113923E-02 -1.0249119809410E-02 -1.0249119283150E-02 -1.0249118535145E-02 -1.0249117565393E-02 -1.0249116373896E-02 -1.0249114960654E-02 -1.0249113325666E-02 -1.0249111468934E-02 
-1.0307459482522E-02 -1.0307459394132E-02 -1.0307459071161E-02 -1.0307458513628E-02 -1.0307457721502E-02 -1.0307456694802E-02 -1.0307455433531E-02 -1.0307453937675E-02 -1.0307452207236E-02 -1.0307450242231E-02 
 5.8339285831151E-05  5.8339280209070E-05  5.8339261751481E-05  5.8339230477975E-05  5.8339186357059E-05  5.8339129408875E-05  5.8339059634651E-05  5.8338977020997E-05  5.8338881570223E-05  5.8338773297271E-05 
 1.1600715693615E-02  2.3201429151698E-02  2.3201421826278E-02  2.3201409418922E-02  2.3201391917042E-02  2.3201369328470E-02  2.3201341653798E-02  2.3201308887954E-02  2.3201271031452E-02  1.1600614045258E-02 
 1.1542358916420E-10  3.4627074924006E-10  5.7711783342576E-10  8.0796480048364E-10  1.0388116042661E-09  1.2696581835309E-09  1.5005044938502E-09  1.7313505045102E-09  1.9621961354529E-09  1.9621961354529E-09 
 0.0000000000000E+00  2.3201420717808E-02  4.6402836656475E-02  6.9604243128906E-02  9.2805635724158E-02  1.1600700901875E-01  1.3920835740510E-01  1.6240967822121E-01  1.8561096484696E-01  2.0881221211661E-01 
 1.7059771149140E-01  1.4964420458200E-01  1.3093862496809E-01  1.1223305294917E-01  9.3527492448659E-02  7.4821947389009E-02  5.6116421690506E-02  3.7410919277691E-02  1.8705444073852E-02  0.0000000000000E+00 
 1.4407436557919E+04  2.8814873691066E+04  2.8814875592718E+04  2.8814878820812E+04  2.8814883375324E+04  2.8814889256269E+04  2.8814896463642E+04  2.8814904997455E+04  2.8814914857697E+04  1.4407463022191E+04 
 1.0585588110120E+05  2.1171176277763E+05  2.1171176467928E+05  2.1171176790737E+05  2.1171177246189E+05  2.1171177834283E+05  2.1171178555020E+05  2.1171179408402E+05  2.1171180394426E+05  1.0585590756547E+05 
 3.5138634161521E+05  7.0277268265518E+05  7.0277268075353E+05  7.0277267752544E+05  7.0277267297093E+05  7.0277266708998E+05  7.0277265988261E+05  7.0277265134880E+05  7.0277264148855E+05  3.5138631515093E+05 
 4.5724222271641E+05  9.1448444543281E+05  9.1448444543281E+05  9.1448444543281E+05  9.1448444543281E+05  9.1448444543281E+05  9.1448444543281E+05  9.1448444543281E+05  9.1448444543281E+05  4.5724222271641E+05 
 3.5000000000000E-01  3.5000000000000E-01  3.5000000000000E-01  3.5000000000000E-01  3.5000000000000E-01  3.5000000000000E-01  3.5000000000000E-01  3.5000000000000E-01  3.5000000000000E-01  3.5000000000000E-01 
 8.5301666666666E+00  1.7060333333333E+01  1.7060333333333E+01  1.7060333333333E+01  1.7060333333333E+01  1.7060333333333E+01  1.7060333333333E+01  1.7060333333333E+01  1.7060333333333E+01  8.5301666666666E+00 
 1.3599635443171E-03  1.3599634132802E-03  1.3599629838970E-03  1.3599622566337E-03  1.3599612307522E-03  1.3599599067117E-03  1.3599582845469E-03  1.3599563639605E-03  1.3599541449827E-03  1.3599516279781E-03 
 4.3744444444444E-05  8.7488888888889E-05  8.7488888888889E-05  8.7488888888889E-05  8.7488888888889E-05  8.7488888888889E-05  8.7488888888889E-05  8.7488888888889E-05  8.7488888888889E-05  4.3744444444444E-05 
 8.3253146327632E+01  8.3253146259488E+01  8.3253146034211E+01  8.3253145651799E+01  8.3253145112254E+01  8.3253144415575E+01  8.3253143561762E+01  8.3253142550814E+01  8.3253141382731E+01  8.3253140057514E+01 
 2.5080187005701E+01  2.5080187073845E+01  2.5080187299122E+01  2.5080187681534E+01  2.5080188221079E+01  2.5080188917759E+01  2.5080189771572E+01  2.5080190782520E+01  2.5080191950602E+01  2.5080193275820E+01 
 0.0000000000000E+00  0.0000000000000E+00  0.0000000000000E+00  0.0000000000000E+00  0.0000000000000E+00  0.0000000000000E+00  0.0000000000000E+00  0.0000000000000E+00  0.0000000000000E+00  0.0000000000000E+00 
 0.0000000000000E+00  0.0000000000000E+00  0.0000000000000E+00  0.0000000000000E+00  0.0000000000000E+00  0.0000000000000E+00  0.0000000000000E+00  0.0000000000000E+00  0.0000000000000E+00  0.0000000000000E+00 
 0.0000000000000E+00  0.0000000000000E+00  0.0000000000000E+00  0.0000000000000E+00  0.0000000000000E+00  0.0000000000000E+00  0.0000000000000E+00  0.0000000000000E+00  0.0000000000000E+00  0.0000000000000E+00 
 0.0000000000000E+00  0.0000000000000E+00  0.0000000000000E+00  0.0000000000000E+00  0.0000000000000E+00  0.0000000000000E+00  0.0000000000000E+00  0.0000000000000E+00  0.0000000000000E+00  0.0000000000000E+00 
 0.0000000000000E+00  0.0000000000000E+00  0.0000000000000E+00  0.0000000000000E+00  0.0000000000000E+00  0.0000000000000E+00  0.0000000000000E+00  0.0000000000000E+00  0.0000000000000E+00  0.0000000000000E+00 
 0.0000000000000E+00  0.0000000000000E+00  0.0000000000000E+00  0.0000000000000E+00  0.0000000000000E+00  0.0000000000000E+00  0.0000000000000E+00  0.0000000000000E+00  0.0000000000000E+00  0.0000000000000E+00 
 0.0000000000000E+00  0.0000000000000E+00  0.0000000000000E+00  0.0000000000000E+00  0.0000000000000E+00  0.0000000000000E+00  0.0000000000000E+00  0.0000000000000E+00  0.0000000000000E+00  0.0000000000000E+00 
ZONE T = "ANOD, 1.0000E-08", I = 10, SOLUTIONTIME = 1.000000E-08
ZONETYPE = ORDERED
DATAPACKING = BLOCK
STRANDID = 1
 0.0000000000000E+00  8.7488888888889E-05  1.7497777777778E-04  2.6246666666667E-04  3.4995555555556E-04  4.3744444444444E-04  5.2493333333333E-04  6.1242222222222E-04  6.9991111111111E-04  7.8740000000000E-04 
 4.2238852021145E-16  1.2427594453397E-15 -3.6123378476990E-13  2.5511615018292E-15 -3.6029809359959E-13 -3.6022314708125E-13 -3.6049650737650E-13 -3.6118296030197E-13 -7.2555501649506E-13 -7.2640851153326E-13 
 9.1999997264233E-01  9.1999997295547E-01  9.1999997389489E-01  9.1999997546058E-01  9.1999997765255E-01  9.1999998047080E-01  9.1999998391532E-01  9.1999998798612E-01  9.1999999268319E-01  9.1999999800654E-01 
 4.0000013678834E-02  4.0000013522264E-02  4.0000013052556E-02  4.0000012269709E-02  4.0000011173724E-02  4.0000009764601E-02  4.0000008042339E-02  4.0000006006940E-02  4.0000003658403E-02  4.0000000996732E-02 
 4.0000013678834E-02  4.0000013522264E-02  4.0000013052556E-02  4.0000012269709E-02  4.0000011173724E-02  4.0000009764601E-02  4.0000008042339E-02  4.0000006006940E-02  4.0000003658403E-02  4.0000000996732E-02 
 1.0307456423546E-02  1.0307456423541E-02  1.0307456423524E-02  1.0307456423497E-02  1.0307456423462E-02  1.0307456423423E-02  1.0307456423382E-02  1.0307456423346E-02  1.0307456423318E-02  1.0307456423306E-02 
 0.0000000000000E+00  9.9880878692793E-17  3.9699478394907E-16  8.6989935033899E-16  1.4815783983418E-15  2.1794412071450E-15  2.8953226127417E-15  3.5454829181051E-15  4.0306066767449E-15  4.2358033813247E-15 
-1.0307456423546E-02 -1.0307456423541E-02 -1.0307456423523E-02 -1.0307456423496E-02 -1.0307456423461E-02 -1.0307456423421E-02 -1.0307456423380E-02 -1.0307456423342E-02 -1.0307456423314E-02 -1.0307456423302E-02 
-1.0307459482516E-02 -1.0307459394136E-02 -1.0307459071168E-02 -1.0307458513626E-02 -1.0307457721505E-02 -1.0307456694810E-02 -1.0307455433533E-02 -1.0307453937674E-02 -1.0307452207239E-02 -1.0307450242229E-02 
 3.0589694822308E-09  2.9705956045706E-09  2.6476447163165E-09  2.0901294861542E-09  1.2980436950999E-09  2.7138930512594E-10 -9.8984675490910E-10 -2.4856684818081E-09 -4.2160748225939E-09 -6.1810732279038E-09 
 6.0827310987573E-07  1.1813994974692E-06  1.0529625292894E-06  8.3124069625058E-07  5.1622920552489E-07  1.0792893942836E-07 -3.9366064804016E-07 -9.8854678697054E-07 -1.6767257424971E-06 -1.2291008037930E-06 
 5.5310293979627E-11  1.6593070128987E-10  2.7655039992056E-10  3.8716889081730E-10  4.9778567347388E-10  6.0840022957414E-10  7.1901206346154E-10  8.2962065647332E-10  9.4022500955382E-10  9.4022500955382E-10 
 0.0000000000000E+00  1.1989364026963E-06  2.3161333907752E-06  3.2582534000451E-06  3.9320509292241E-06  4.2440964006866E-06  4.1011443632053E-06  3.4101334992235E-06  2.0774502413712E-06  9.8765110957019E-09 
 9.9999932050638E-09 -1.1889728534814E-06 -2.3061538752712E-06 -3.2482554607296E-06 -3.9219903666032E-06 -4.2340694655161E-06 -4.0912036548656E-06 -3.4000999198598E-06 -2.0674636649033E-06  0.0000000000000E+00 
 1.4407436557919E+04  2.8814873691066E+04  2.8814875592718E+04  2.8814878820812E+04  2.8814883375324E+04  2.8814889256269E+04  2.8814896463642E+04  2.8814904997455E+04  2.8814914857697E+04  1.4407463022191E+04 
 1.0585588110120E+05  2.1171176277763E+05  2.1171176467928E+05  2.1171176790737E+05  2.1171177246189E+05  2.1171177834283E+05  2.1171178555020E+05  2.1171179408402E+05  2.1171180394426E+05  1.0585590756547E+05 
 3.5138634161521E+05  7.0277268265518E+05  7.0277268075353E+05  7.0277267752544E+05  7.0277267297093E+05  7.0277266708998E+05  7.0277265988261E+05  7.0277265134880E+05  7.0277264148855E+05  3.5138631515093E+05 
 4.5724222271641E+05  9.1448444543281E+05  9.1448444543281E+05  9.1448444543281E+05  9.1448444543281E+05  9.1448444543281E+05  9.1448444543281E+05  9.1448444543281E+05  9.1448444543281E+05  4.5724222271641E+05 
 3.5000000000000E-01  3.5000000000000E-01  3.5000000000000E-01  3.5000000000000E-01  3.5000000000000E-01  3.5000000000000E-01  3.5000000000000E-01  3.5000000000000E-01  3.5000000000000E-01  3.5000000000000E-01 
 8.5301666666667E+00  1.7060333333333E+01  1.7060333333333E+01  1.7060333333333E+01  1.7060333333333E+01  1.7060333333333E+01  1.7060333333333E+01  1.7060333333333E+01  1.7060333333333E+01  8.5301666666667E+00 
 7.1308467190059E-08  6.9248324425229E-08  6.1719927079739E-08  4.8723590565869E-08  3.0259033949604E-08  6.3263089483415E-09 -2.3074616442049E-08 -5.7944166016913E-08 -9.8282120855228E-08 -1.4408872086826E-07 
 4.3744444444444E-05  8.7488888888889E-05  8.7488888888889E-05  8.7488888888889E-05  8.7488888888889E-05  8.7488888888889E-05  8.7488888888889E-05  8.7488888888889E-05  8.7488888888889E-05  4.3744444444444E-05 
 8.3253146327632E+01  8.3253146259488E+01  8.3253146034211E+01  8.3253145651799E+01  8.3253145112254E+01  8.3253144415575E+01  8.3253143561762E+01  8.3253142550814E+01  8.3253141382731E+01  8.3253140057514E+01 
 2.5080187005701E+01  2.5080187073845E+01  2.5080187299122E+01  2.5080187681534E+01  2.5080188221079E+01  2.5080188917759E+01  2.5080189771572E+01  2.5080190782520E+01  2.5080191950602E+01  2.5080193275820E+01 
 4.0530950221355E-25  1.9575900069930E-24  6.1830679616799E-24  1.1824678390529E-23  1.7018628110975E-23  1.9745171770742E-23  1.8476883682519E-23  1.3013152966199E-23  5.5004301316696E-24  1.6821430069737E-24 
 4.0530950221355E-17  1.9575900069930E-16  6.1830679616799E-16  1.1824678390529E-15  1.7018628110975E-15  1.9745171770742E-15  1.8476883682519E-15  1.3013152966199E-15  5.5004301316696E-16  1.6821430069737E-16 
 3.9847937265650E-17  1.9239559349729E-16  6.0762925985849E-16  1.1620041996966E-15  1.6723833200446E-15  1.9403021833149E-15  1.8156746416183E-15  1.2787887078996E-15  5.4054527618835E-16  1.6533156386841E-16 
 6.8301295570495E-19  3.3634072020165E-18  1.0677536309502E-17  2.0463639356326E-17  2.9479491052961E-17  3.4214993759343E-17  3.2013726633576E-17  2.2526588720335E-17  9.4977369786101E-18  2.8827368289620E-18 
 0.0000000000000E+00  0.0000000000000E+00  0.0000000000000E+00  0.0000000000000E+00  0.0000000000000E+00  0.0000000000000E+00  0.0000000000000E+00  0.0000000000000E+00  0.0000000000000E+00  0.0000000000000E+00 
 0.0000000000000E+00  0.0000000000000E+00  0.0000000000000E+00  0.0000000000000E+00  0.0000000000000E+00  0.0000000000000E+00  0.0000000000000E+00  0.0000000000000E+00  0.0000000000000E+00  0.0000000000000E+00 
 0.0000000000000E+00  0.0000000000000E+00  0.0000000000000E+00  0.0000000000000E+00  0.0000000000000E+00  0.0000000000000E+00  0.0000000000000E+00  0.0000000000000E+00  0.0000000000000E+00  0.0000000000000E+00 
ZONE T = "ANOD, 2.0000E-08", I = 10, SOLUTIONTIME = 2.000000E-08
ZONETYPE = ORDERED
DATAPACKING = BLOCK
STRANDID = 1
 0.0000000000000E+00  8.7488888888889E-05  1.7497777777778E-04  2.6246666666667E-04  3.4995555555556E-04  4.3744444444444E-04  5.2493333333333E-04  6.1242222222222E-04  6.9991111111111E-04  7.8740000000000E-04 
-1.8118108866831E-13  9.0926323659296E-13  1.2732029194781E-12  1.2737809090775E-12  1.2741401538326E-12  1.8459268886560E-13 -5.4209535554528E-13 -1.6324042204904E-12 -1.6335677778848E-12 -2.3608363424619E-12 
 9.1999997264234E-01  9.1999997295548E-01  9.1999997389489E-01  9.1999997546059E-01  9.1999997765256E-01  9.1999998047080E-01  9.1999998391533E-01  9.1999998798613E-01  9.1999999268320E-01  9.1999999800654E-01 
 4.0000013678831E-02  4.0000013522262E-02  4.0000013052554E-02  4.0000012269707E-02  4.0000011173722E-02  4.0000009764598E-02  4.0000008042337E-02  4.0000006006937E-02  4.0000003658401E-02  4.0000000996731E-02 
 4.0000013678831E-02  4.0000013522262E-02  4.0000013052554E-02  4.0000012269707E-02  4.0000011173722E-02  4.0000009764598E-02  4.0000008042337E-02  4.0000006006937E-02  4.0000003658401E-02  4.0000000996731E-02 
 1.0307456420755E-02  1.0307456420749E-02  1.0307456420732E-02  1.0307456420705E-02  1.0307456420671E-02  1.0307456420631E-02  1.0307456420590E-02  1.0307456420554E-02  1.0307456420526E-02  1.0307456420514E-02 
 0.0000000000000E+00  9.8304362085370E-17  3.9402710711040E-16  8.6572600894672E-16  1.4763847823372E-15  2.1734129379399E-15  2.8886452543707E-15  3.5383419437107E-15  4.0231875228071E-15  4.2282914184666E-15 
-1.0307456420755E-02 -1.0307456420749E-02 -1.0307456420732E-02 -1.0307456420704E-02 -1.0307456420669E-02 -1.0307456420629E-02 -1.0307456420588E-02 -1.0307456420550E-02 -1.0307456420522E-02 -1.0307456420510E-02 
-1.0307459482525E-02 -1.0307459394133E-02 -1.0307459071170E-02 -1.0307458513627E-02 -1.0307457721506E-02 -1.0307456694809E-02 -1.0307455433535E-02 -1.0307453937673E-02 -1.0307452207240E-02 -1.0307450242233E-02 
 3.0617706217595E-09  2.9733847016489E-09  2.6504381519382E-09  2.0929229477967E-09  1.3008368063283E-09  2.7418049254602E-10 -9.8705238427144E-10 -2.4828767444807E-09 -4.2132816940182E-09 -6.1782773862207E-09 
 6.0883005962960E-07  1.1825097233833E-06  1.0540736538587E-06  8.3235105151653E-07  5.1734119062465E-07  1.0904048064689E-07 -3.9254965963076E-07 -9.8743613351445E-07 -1.6756153137049E-06 -1.2285449331063E-06 
 5.5310298410402E-11  1.6593070762101E-10  2.7655041266213E-10  3.8716891467545E-10  4.9778569923239E-10  6.0840026105677E-10  7.1901210005359E-10  8.2962069871786E-10  9.4022455834993E-10  9.4022455834993E-10 
 0.0000000000000E+00  1.2000409890147E-06  2.3183425633896E-06  3.2615671588950E-06  3.9364692742384E-06  4.2496193317856E-06  4.1078639290698E-06  3.4179576508459E-06  2.0863789785968E-06  2.0005460605483E-08 
 2.0000066773521E-08 -1.1800848596293E-06 -2.2983765585425E-06 -3.2415889216497E-06 -3.9164349817375E-06 -4.2296257562619E-06 -4.0878711771667E-06 -3.3978782916987E-06 -2.0663525792413E-06  0.0000000000000E+00 
 1.4407436557919E+04  2.8814873691066E+04  2.8814875592718E+04  2.8814878820812E+04  2.8814883375324E+04  2.8814889256269E+04  2.8814896463642E+04  2.8814904997455E+04  2.8814914857697E+04  1.4407463022191E+04 
 1.0585588110120E+05  2.1171176277763E+05  2.1171176467928E+05  2.1171176790737E+05  2.1171177246189E+05  2.1171177834283E+05  2.1171178555020E+05  2.1171179408402E+05  2.1171180394426E+05  1.0585590756547E+05 
 3.5138634161521E+05  7.0277268265518E+05  7.0277268075353E+05  7.0277267752544E+05  7.0277267297093E+05  7.0277266708998E+05  7.0277265988261E+05  7.0277265134880E+05  7.0277264148855E+05  3.5138631515093E+05 
 4.5724222271641E+05  9.1448444543281E+05  9.1448444543281E+05  9.1448444543281E+05  9.1448444543281E+05  9.1448444543281E+05  9.1448444543281E+05  9.1448444543281E+05  9.1448444543281E+05  4.5724222271641E+05 
 3.5000000000000E-01  3.5000000000000E-01  3.5000000000000E-01  3.5000000000000E-01  3.5000000000000E-01  3.5000000000000E-01  3.5000000000000E-01  3.5000000000000E-01  3.5000000000000E-01  3.5000000000000E-01 
 8.5301666666667E+00  1.7060333333333E+01  1.7060333333333E+01  1.7060333333333E+01  1.7060333333333E+01  1.7060333333333E+01  1.7060333333333E+01  1.7060333333333E+01  1.7060333333333E+01  8.5301666666667E+00 
 7.1373758968711E-08  6.9313400874344E-08  6.1785056203982E-08  4.8788674597010E-08  3.0324213514272E-08  6.3914624946889E-09 -2.3009495298886E-08 -5.7879064507207E-08 -9.8217032514304E-08 -1.4402355558972E-07 
 4.3744444444444E-05  8.7488888888889E-05  8.7488888888889E-05  8.7488888888889E-05  8.7488888888889E-05  8.7488888888889E-05  8.7488888888889E-05  8.7488888888889E-05  8.7488888888889E-05  4.3744444444444E-05 
 8.3253146327632E+01  8.3253146259488E+01  8.3253146034211E+01  8.3253145651799E+01  8.3253145112254E+01  8.3253144415575E+01  8.3253143561762E+01  8.3253142550814E+01  8.3253141382731E+01  8.3253140057514E+01 
 2.5080187005701E+01  2.5080187073845E+01  2.5080187299122E+01  2.5080187681534E+01  2.5080188221079E+01  2.5080188917759E+01  2.5080189771572E+01  2.5080190782520E+01  2.5080191950602E+01  2.5080193275820E+01 
 8.1112905229491E-25  3.9183477835821E-24  1.2377117501980E-23  2.3672304178909E-23  3.4074182207403E-23  3.9540215232620E-23  3.7012380563872E-23  2.6083056975427E-23  1.1039633198586E-23  3.3899076548972E-24 
 4.0581955008136E-17  1.9607577765891E-16  6.1940495402998E-16  1.1847625788380E-15  1.7055554096428E-15  1.9795043461878E-15  1.8535496881353E-15  1.3069904009228E-15  5.5392030669162E-16  1.7077646479235E-16 
 7.9768270466039E-17  3.8514689183959E-16  1.2164238960329E-15  2.3263848169341E-15  3.3485417850411E-15  3.8856631894840E-15  3.6372630315459E-15  2.5632823862933E-15  1.0849783861593E-15  3.3322789892229E-16 
 1.3446347634520E-18  6.6878865186234E-18  2.1287854165064E-17  4.0845600956812E-17  5.8876435699265E-17  6.8358333778019E-17  6.3975024841269E-17  4.5023311249479E-17  1.8984933699327E-17  5.7628665674345E-18 
 0.0000000000000E+00  0.0000000000000E+00  0.0000000000000E+00  0.0000000000000E+00  0.0000000000000E+00  0.0000000000000E+00  0.0000000000000E+00  0.0000000000000E+00  0.0000000000000E+00  0.0000000000000E+00 
 0.0000000000000E+00  0.0000000000000E+00  0.0000000000000E+00  0.0000000000000E+00  0.0000000000000E+00  0.0000000000000E+00  0.0000000000000E+00  0.0000000000000E+00  0.0000000000000E+00  0.0000000000000E+00 
 0.0000000000000E+00  0.0000000000000E+00  0.0000000000000E+00  0.0000000000000E+00  0.0000000000000E+00  0.0000000000000E+00  0.0000000000000E+00  0.0000000000000E+00  0.0000000000000E+00  0.0000000000000E+00 
ZONE T = "ANOD, 3.0000E-08", I = 10, SOLUTIONTIME = 3.000000E-08
ZONETYPE = ORDERED
DATAPACKING = BLOCK
STRANDID = 1
 0.0000000000000E+00  8.7488888888889E-05  1.7497777777778E-04  2.6246666666667E-04  3.4995555555556E-04  4.3744444444444E-04  5.2493333333333E-04  6.1242222222222E-04  6.9991111111111E-04  7.8740000000000E-04 
 3.6363088874022E-13 -7.2517038132666E-13 -3.6122992704835E-13 -7.2385889264571E-13 -1.4499143329916E-12 -1.0866301152463E-12 -1.4501096606984E-12 -1.4507945702129E-12 -1.0887496274270E-12  2.0832175517675E-17 
 9.1999997264234E-01  9.1999997295548E-01  9.1999997389490E-01  9.1999997546059E-01  9.1999997765256E-01  9.1999998047081E-01  9.1999998391533E-01  9.1999998798613E-01  9.1999999268320E-01  9.1999999800654E-01 
 4.0000013678829E-02  4.0000013522260E-02  4.0000013052551E-02  4.0000012269705E-02  4.0000011173719E-02  4.0000009764596E-02  4.0000008042334E-02  4.0000006006935E-02  4.0000003658399E-02  4.0000000996730E-02 
 4.0000013678829E-02  4.0000013522260E-02  4.0000013052551E-02  4.0000012269705E-02  4.0000011173719E-02  4.0000009764596E-02  4.0000008042334E-02  4.0000006006935E-02  4.0000003658399E-02  4.0000000996730E-02 
 1.0307456417963E-02  1.0307456417957E-02  1.0307456417940E-02  1.0307456417913E-02  1.0307456417878E-02  1.0307456417839E-02  1.0307456417798E-02  1.0307456417761E-02  1.0307456417734E-02  1.0307456417722E-02 
 0.0000000000000E+00  9.6727614904860E-17  3.9105906706003E-16  8.6155213102502E-16  1.4711908112667E-15  2.1673841092675E-15  2.8819670717834E-15  3.5311998155567E-15  4.0157670740933E-15  4.2207783445834E-15 
-1.0307456417963E-02 -1.0307456417957E-02 -1.0307456417939E-02 -1.0307456417912E-02 -1.0307456417877E-02 -1.0307456417837E-02 -1.0307456417795E-02 -1.0307456417758E-02 -1.0307456417730E-02 -1.0307456417718E-02 
-1.0307459482525E-02 -1.0307459394136E-02 -1.0307459071169E-02 -1.0307458513631E-02 -1.0307457721507E-02 -1.0307456694811E-02 -1.0307455433536E-02 -1.0307453937677E-02 -1.0307452207240E-02 -1.0307450242231E-02 
 3.0645623677605E-09  2.9761795788258E-09  2.6532294920140E-09  2.0957187929493E-09  1.3036298273511E-09  2.7697433235829E-10 -9.8425891222054E-10 -2.4800808490211E-09 -4.2104893512723E-09 -6.1754860340019E-09 
 6.0938550277435E-07  1.1836206096728E-06  1.0551845455946E-06  8.3346367792934E-07  5.1845047839710E-07  1.1015166240333E-07 -3.9143919407531E-07 -9.8632422330263E-07 -1.6745029827590E-06 -1.2279901013194E-06 
 5.5310299703742E-11  1.6593071716120E-10  2.7655042854113E-10  3.8716893088610E-10  4.9778572724594E-10  6.0840029253940E-10  7.1901213882904E-10  8.2962074008000E-10  9.4022410550570E-10  9.4022410550570E-10 
 0.0000000000000E+00  1.2012376241977E-06  2.3206437848670E-06  3.2648809177674E-06  3.9408876192677E-06  4.2551422628446E-06  4.1144914460913E-06  3.4256897536851E-06  2.0952156670343E-06  2.9949273579057E-08 
 3.0000014834839E-08 -1.1711957779823E-06 -2.2905983254949E-06 -3.2349224069654E-06 -3.9108795281741E-06 -4.2251806419344E-06 -4.0845369196022E-06 -3.3956552542426E-06 -2.0652416215663E-06  0.0000000000000E+00 
 1.4407436557919E+04  2.8814873691066E+04  2.8814875592718E+04  2.8814878820812E+04  2.8814883375324E+04  2.8814889256269E+04  2.8814896463642E+04  2.8814904997455E+04  2.8814914857697E+04  1.4407463022191E+04 
 1.0585588110120E+05  2.1171176277763E+05  2.1171176467928E+05  2.1171176790737E+05  2.1171177246189E+05  2.1171177834283E+05  2.1171178555020E+05  2.1171179408402E+05  2.1171180394426E+05  1.0585590756547E+05 
 3.5138634161521E+05  7.0277268265518E+05  7.0277268075353E+05  7.0277267752544E+05  7.0277267297093E+05  7.0277266708998E+05  7.0277265988261E+05  7.0277265134880E+05  7.0277264148855E+05  3.5138631515093E+05 
 4.5724222271641E+05  9.1448444543281E+05  9.1448444543281E+05  9.1448444543281E+05  9.1448444543281E+05  9.1448444543281E+05  9.1448444543281E+05  9.1448444543281E+05  9.1448444543281E+05  4.5724222271641E+05 
 3.5000000000000E-01  3.5000000000000E-01  3.5000000000000E-01  3.5000000000000E-01  3.5000000000000E-01  3.5000000000000E-01  3.5000000000000E-01  3.5000000000000E-01  3.5000000000000E-01  3.5000000000000E-01 
 8.5301666666667E+00  1.7060333333333E+01  1.7060333333333E+01  1.7060333333333E+01  1.7060333333333E+01  1.7060333333333E+01  1.7060333333333E+01  1.7060333333333E+01  1.7060333333333E+01  8.5301666666667E+00 
 7.1438874126064E-08  6.9378516031697E-08  6.1850171680578E-08  4.8853891752565E-08  3.0389234973746E-08  6.4565949709851E-09 -2.2944404803070E-08 -5.7813889332133E-08 -9.8151832677693E-08 -1.4395851210247E-07 
 4.3744444444444E-05  8.7488888888889E-05  8.7488888888889E-05  8.7488888888889E-05  8.7488888888889E-05  8.7488888888889E-05  8.7488888888889E-05  8.7488888888889E-05  8.7488888888889E-05  4.3744444444444E-05 
 8.3253146327632E+01  8.3253146259488E+01  8.3253146034211E+01  8.3253145651799E+01  8.3253145112254E+01  8.3253144415575E+01  8.3253143561762E+01  8.3253142550814E+01  8.3253141382731E+01  8.3253140057514E+01 
 2.5080187005701E+01  2.5080187073845E+01  2.5080187299122E+01  2.5080187681534E+01  2.5080188221079E+01  2.5080188917759E+01  2.5080189771572E+01  2.5080190782520E+01  2.5080191950602E+01  2.5080193275820E+01 
 1.2174626799839E-24  5.8826351183331E-24  1.8582517547096E-23  3.5542903403885E-23  5.1166706165524E-23  5.9385197285926E-23  5.5605811907091E-23  3.9209067304798E-23  1.6617532418708E-23  5.1229925309375E-24 
 4.0633362768901E-17  1.9642873347509E-16  6.2054000451166E-16  1.1870599224976E-15  1.7092523958120E-15  1.9844982053305E-15  1.8593431343220E-15  1.3126010329370E-15  5.5778992201218E-16  1.7330848760403E-16 
 1.1976106530602E-16  5.7828977542094E-16  1.8264205773763E-15  3.4931442828058E-15  5.0284796658181E-15  5.8360896546911E-15  5.4646972801256E-15  3.8534165622049E-15  1.6332916479200E-15  5.0365885754066E-16 
 1.9852026923699E-18  9.9737364123698E-18  3.1831177333333E-17  6.1146057582753E-17  8.8190950734262E-17  1.0243007390148E-16  9.5883910583553E-17  6.7490168274904E-17  2.8461593950719E-17  8.6403955530872E-18 
 0.0000000000000E+00  0.0000000000000E+00  0.0000000000000E+00  0.0000000000000E+00  0.0000000000000E+00  0.0000000000000E+00  0.0000000000000E+00  0.0000000000000E+00  0.0000000000000E+00  0.0000000000000E+00 
 0.0000000000000E+00  0.0000000000000E+00  0.0000000000000E+00  0.0000000000000E+00  0.0000000000000E+00  0.0000000000000E+00  0.0000000000000E+00  0.0000000000000E+00  0.0000000000000E+00  0.0000000000000E+00 
 0.0000000000000E+00  0.0000000000000E+00  0.0000000000000E+00  0.0000000000000E+00  0.0000000000000E+00  0.0000000000000E+00  0.0000000000000E+00  0.0000000000000E+00  0.0000000000000E+00  0.0000000000000E+00 
ZONE T = "ANOD, 4.0000E-08", I = 10, SOLUTIONTIME = 4.000000E-08
ZONETYPE = ORDERED
DATAPACKING = BLOCK
STRANDID = 1
 0.0000000000000E+00  8.7488888888889E-05  1.7497777777778E-04  2.6246666666667E-04  3.4995555555556E-04  4.3744444444444E-04  5.2493333333333E-04  6.1242222222222E-04  6.9991111111111E-04  7.8740000000000E-04 
-1.8118031771054E-13 -1.8035763299140E-13 -5.4283186212530E-13 -9.0546005607893E-13 -1.7868381254675E-13 -1.7860655174159E-13 -1.7887759766050E-13  9.1006144733302E-13  5.4569170578621E-13  1.8163164015115E-13 
 9.1999997264235E-01  9.1999997295549E-01  9.1999997389490E-01  9.1999997546060E-01  9.1999997765257E-01  9.1999998047081E-01  9.1999998391534E-01  9.1999998798613E-01  9.1999999268321E-01  9.1999999800654E-01 
 4.0000013678827E-02  4.0000013522257E-02  4.0000013052549E-02  4.0000012269702E-02  4.0000011173717E-02  4.0000009764593E-02  4.0000008042332E-02  4.0000006006933E-02  4.0000003658396E-02  4.0000000996729E-02 
 4.0000013678827E-02  4.0000013522257E-02  4.0000013052549E-02  4.0000012269702E-02  4.0000011173717E-02  4.0000009764593E-02  4.0000008042332E-02  4.0000006006933E-02  4.0000003658396E-02  4.0000000996729E-02 
 1.0307456415170E-02  1.0307456415164E-02  1.0307456415147E-02  1.0307456415120E-02  1.0307456415086E-02  1.0307456415046E-02  1.0307456415005E-02  1.0307456414968E-02  1.0307456414941E-02  1.0307456414929E-02 
 0.0000000000000E+00  9.5150743170822E-17  3.8809079350429E-16  8.5737809548343E-16  1.4659965316311E-15  2.1613553699719E-15  2.8752891976459E-15  3.5240583478243E-15  4.0083474099209E-15  4.2132659036613E-15 
-1.0307456415170E-02 -1.0307456415164E-02 -1.0307456415147E-02 -1.0307456415119E-02 -1.0307456415084E-02 -1.0307456415044E-02 -1.0307456415002E-02 -1.0307456414965E-02 -1.0307456414937E-02 -1.0307456414924E-02 
-1.0307459482524E-02 -1.0307459394140E-02 -1.0307459071172E-02 -1.0307458513634E-02 -1.0307457721512E-02 -1.0307456694806E-02 -1.0307455433540E-02 -1.0307453937676E-02 -1.0307452207243E-02 -1.0307450242232E-02 
 3.0673544555021E-09  2.9789755696952E-09  2.6560254984959E-09  2.0985148983105E-09  1.3064282104042E-09  2.7976268350549E-10 -9.8146193255877E-10 -2.4772885132140E-09 -4.2076931123375E-09 -6.1726928724665E-09 
 6.0994022903730E-07  1.1847315027702E-06  1.0562964558064E-06  8.3457485696258E-07  5.1956340163846E-07  1.1126168680075E-07 -3.9032772774472E-07 -9.8521376591678E-07 -1.6733922462454E-06 -1.2274344042365E-06 