TITLE = "Solution on Domain BulkDomain1D_0"
VARIABLES = "x [m]"  
"Vel_axial(0)" 	"MF_sp(ECDMC)" 	"MF_sp(Li+)" 	"MF_sp(PF6-)" 	"Volt(Electroly)" 	"Volt(AnodeVolt)" 	
"Potential Drop Electrode-Electrolyte [V]" 	"Surf_0 Equilibrium Potential Drop Electrode-Electrolyte [V]" 	"Overpotential_0 [V]" 	"Current Source [A/m^2]" 	"Li+ flux [kmol/m^2/s]" 	"Electrolyte Current [A/m^2]" 	"Electrode Current [A/m^2]" 	
"Capacity discharged [A-s]" 	"Depth of discharge [-]" 	"Capacity remaining [A-s]" 	"Initial capacity [A-s]" 	"Porosity []" 	"Surface Area [m2/m2] (area per area)" 	"Specific current (per particle area) [A/m^2]" 	"Control volume thickness [m]" 	
"Moles Li_C6-bulk [mol/m^2] (per electrode area)" 	"Moles V_C6-bulk [mol/m^2] (per electrode area)" 	"qHeat_accum [J/m3]" 	"qHeat_step [W/m3]" 	"Joule_Lyte [W/m3]" 	"Joule_Solid [W/m3]" 	"electrodHeat [W/m3]" 	"OverpotHeat [W/m3]" 	"deltaSHeat [W/m3]" 	

ZONE T = "t = 0 [s]" I = 10 SOLUTIONTIME = 0.0000000000000E+00
0 	8.0556e-12 	0.92 	0.04 	0.04 	0.0102491 	0 	
0 	0 	0 	0 	0 	0.00580036 	0.203012 	
0 	0 	0 	0 	0.35 	8.53017 	0.00135996 	4.37444e-05 	
0.00364186 	0.00109712 	0 	0.0 	 0.0 	 0.0 	 0.0 	 0.0 	 0.0 	 
8.74889e-05 	2.41668e-11 	0.92 	0.04 	0.04 	0.0102491 	-2.65443e-11 	
0 	0 	0 	0 	0 	0.0232014 	0.185611 	
0 	0 	0 	0 	0.35 	17.0603 	0.00135996 	8.74889e-05 	
0.00728373 	0.00219424 	0 	0.0 	 0.0 	 0.0 	 0.0 	 0.0 	 0.0 	 
0.000174978 	4.0278e-11 	0.92 	0.04 	0.04 	0.0102491 	-4.99658e-11 	
0 	0 	0 	0 	0 	0.0464028 	0.162409 	
0 	0 	0 	0 	0.35 	17.0603 	0.00135996 	8.74889e-05 	
0.00728373 	0.00219424 	0 	0.0 	 0.0 	 0.0 	 0.0 	 0.0 	 0.0 	 
0.000262467 	5.63892e-11 	0.92 	0.04 	0.04 	0.0102491 	-7.02644e-11 	
0 	0 	0 	0 	0 	0.0696042 	0.139208 	
0 	0 	0 	0 	0.35 	17.0603 	0.00135996 	8.74889e-05 	
0.00728373 	0.00219424 	0 	0.0 	 0.0 	 0.0 	 0.0 	 0.0 	 0.0 	 
0.000349956 	7.25004e-11 	0.92 	0.04 	0.04 	0.0102491 	-8.74401e-11 	
0 	0 	0 	0 	0 	0.0928056 	0.116007 	
0 	0 	0 	0 	0.35 	17.0603 	0.00135996 	8.74889e-05 	
0.00728373 	0.00219424 	0 	0.0 	 0.0 	 0.0 	 0.0 	 0.0 	 0.0 	 
0.000437444 	8.86116e-11 	0.92 	0.04 	0.04 	0.0102491 	-1.01493e-10 	
0 	0 	0 	0 	0 	0.116007 	0.0928052 	
0 	0 	0 	0 	0.35 	17.0603 	0.00135996 	8.74889e-05 	
0.00728373 	0.00219424 	0 	0.0 	 0.0 	 0.0 	 0.0 	 0.0 	 0.0 	 
0.000524933 	1.04723e-10 	0.92 	0.04 	0.04 	0.0102491 	-1.12423e-10 	
0 	0 	0 	0 	0 	0.139208 	0.0696039 	
0 	0 	0 	0 	0.35 	17.0603 	0.00135996 	8.74889e-05 	
0.00728373 	0.00219424 	0 	0.0 	 0.0 	 0.0 	 0.0 	 0.0 	 0.0 	 
0.000612422 	1.20834e-10 	0.92 	0.04 	0.04 	0.0102491 	-1.2023e-10 	
0 	0 	0 	0 	0 	0.16241 	0.0464025 	
0 	0 	0 	0 	0.35 	17.0603 	0.00135996 	8.74889e-05 	
0.00728372 	0.00219424 	0 	0.0 	 0.0 	 0.0 	 0.0 	 0.0 	 0.0 	 
0.000699911 	1.36945e-10 	0.92 	0.04 	0.04 	0.0102491 	-1.24914e-10 	
0 	0 	0 	0 	0 	0.185611 	0.0232012 	
0 	0 	0 	0 	0.35 	17.0603 	0.00135995 	8.74889e-05 	
0.00728372 	0.00219424 	0 	0.0 	 0.0 	 0.0 	 0.0 	 0.0 	 0.0 	 
0.0007874 	1.45e-10 	0.92 	0.04 	0.04 	0.0102491 	-1.26476e-10 	
0 	0 	0 	0 	0 	0.203012 	0.00580031 	
0 	0 	0 	0 	0.35 	8.53017 	0.00135995 	4.37444e-05 	
0.00364186 	0.00109712 	0 	0.0 	 0.0 	 0.0 	 0.0 	 0.0 	 0.0 	 
ZONE T = "t = 0 [s]" I = 10 SOLUTIONTIME = 0.0000000000000E+00
0 	8.0556e-12 	0.92 	0.04 	0.04 	0.0102491 	0 	
-0.0102491 	-0.0103075 	5.83393e-05 	0.0116007 	1.15424e-10 	0.00580036 	0.203012 	
36.1094 	105856 	880.68 	1145.99 	0.35 	8.53017 	0.00135996 	4.37444e-05 	
0.00364186 	0.00109712 	0 	0 	0 	0 	0 	0 	0 	
8.74889e-05 	2.41668e-11 	0.92 	0.04 	0.04 	0.0102491 	-2.65443e-11 	
-0.0102491 	-0.0103075 	5.83393e-05 	0.0232014 	3.46271e-10 	0.0232014 	0.185611 	
72.2187 	211712 	1761.36 	2291.97 	0.35 	17.0603 	0.00135996 	8.74889e-05 	
0.00728373 	0.00219424 	0 	0 	0 	0 	0 	0 	0 	
0.000174978 	4.0278e-11 	0.92 	0.04 	0.04 	0.0102491 	-4.99658e-11 	
-0.0102491 	-0.0103075 	5.83393e-05 	0.0232014 	5.77118e-10 	0.0464028 	0.162409 	
72.2187 	211712 	1761.36 	2291.97 	0.35 	17.0603 	0.00135996 	8.74889e-05 	
0.00728373 	0.00219424 	0 	0 	0 	0 	0 	0 	0 	
0.000262467 	5.63892e-11 	0.92 	0.04 	0.04 	0.0102491 	-7.02644e-11 	
-0.0102491 	-0.0103075 	5.83392e-05 	0.0232014 	8.07965e-10 	0.0696042 	0.139208 	
72.2187 	211712 	1761.36 	2291.97 	0.35 	17.0603 	0.00135996 	8.74889e-05 	
0.00728373 	0.00219424 	0 	0 	0 	0 	0 	0 	0 	
0.000349956 	7.25004e-11 	0.92 	0.04 	0.04 	0.0102491 	-8.74401e-11 	
-0.0102491 	-0.0103075 	5.83392e-05 	0.0232014 	1.03881e-09 	0.0928056 	0.116007 	
72.2187 	211712 	1761.36 	2291.97 	0.35 	17.0603 	0.00135996 	8.74889e-05 	
0.00728373 	0.00219424 	0 	0 	0 	0 	0 	0 	0 	
0.000437444 	8.86116e-11 	0.92 	0.04 	0.04 	0.0102491 	-1.01493e-10 	
-0.0102491 	-0.0103075 	5.83391e-05 	0.0232014 	1.26966e-09 	0.116007 	0.0928052 	
72.2188 	211712 	1761.36 	2291.97 	0.35 	17.0603 	0.00135996 	8.74889e-05 	
0.00728373 	0.00219424 	0 	0 	0 	0 	0 	0 	0 	
0.000524933 	1.04723e-10 	0.92 	0.04 	0.04 	0.0102491 	-1.12423e-10 	
-0.0102491 	-0.0103075 	5.83391e-05 	0.0232013 	1.5005e-09 	0.139208 	0.0696039 	
72.2188 	211712 	1761.36 	2291.97 	0.35 	17.0603 	0.00135996 	8.74889e-05 	
0.00728373 	0.00219424 	0 	0 	0 	0 	0 	0 	0 	
0.000612422 	1.20834e-10 	0.92 	0.04 	0.04 	0.0102491 	-1.2023e-10 	
-0.0102491 	-0.0103075 	5.8339e-05 	0.0232013 	1.73135e-09 	0.16241 	0.0464025 	
72.2188 	211712 	1761.36 	2291.97 	0.35 	17.0603 	0.00135996 	8.74889e-05 	
0.00728372 	0.00219424 	0 	0 	0 	0 	0 	0 	0 	
0.000699911 	1.36945e-10 	0.92 	0.04 	0.04 	0.0102491 	-1.24914e-10 	
-0.0102491 	-0.0103075 	5.83389e-05 	0.0232013 	1.9622e-09 	0.185611 	0.0232012 	
72.2188 	211712 	1761.36 	2291.97 	0.35 	17.0603 	0.00135995 	8.74889e-05 	
0.00728372 	0.00219424 	0 	0 	0 	0 	0 	0 	0 	
0.0007874 	1.45e-10 	0.92 	0.04 	0.04 	0.0102491 	-1.26476e-10 	
-0.0102491 	-0.0103075 	5.83388e-05 	0.0116006 	1.9622e-09 	0.203012 	0.00580031 	
36.1094 	105856 	880.68 	1145.99 	0.35 	8.53017 	0.00135995 	4.37444e-05 	
0.00364186 	0.00109712 	0 	0 	0 	0 	0 	0 	0 	
ZONE T = "t = 0 [s]" I = 10 SOLUTIONTIME = 0.0000000000000E+00
0 	8.0556e-12 	0.92 	0.04 	0.04 	0.0102491 	0 	
-0.0102491 	-0.0103075 	5.83393e-05 	0.0116007 	1.15424e-10 	0.00580036 	0.203012 	
36.1094 	105856 	880.68 	1145.99 	0.35 	8.53017 	0.00135996 	4.37444e-05 	
0.00364186 	0.00109712 	0 	0 	0 	0 	0 	0 	0 	
8.74889e-05 	2.41668e-11 	0.92 	0.04 	0.04 	0.0102491 	-2.65443e-11 	
-0.0102491 	-0.0103075 	5.83393e-05 	0.0232014 	3.46271e-10 	0.0232014 	0.185611 	
72.2187 	211712 	1761.36 	2291.97 	0.35 	17.0603 	0.00135996 	8.74889e-05 	
0.00728373 	0.00219424 	0 	0 	0 	0 	0 	0 	0 	
0.000174978 	4.0278e-11 	0.92 	0.04 	0.04 	0.0102491 	-4.99658e-11 	
-0.0102491 	-0.0103075 	5.83393e-05 	0.0232014 	5.77118e-10 	0.0464028 	0.162409 	
72.2187 	211712 	1761.36 	2291.97 	0.35 	17.0603 	0.00135996 	8.74889e-05 	
0.00728373 	0.00219424 	0 	0 	0 	0 	0 	0 	0 	
0.000262467 	5.63892e-11 	0.92 	0.04 	0.04 	0.0102491 	-7.02644e-11 	
-0.0102491 	-0.0103075 	5.83392e-05 	0.0232014 	8.07965e-10 	0.0696042 	0.139208 	
72.2187 	211712 	1761.36 	2291.97 	0.35 	17.0603 	0.00135996 	8.74889e-05 	
0.00728373 	0.00219424 	0 	0 	0 	0 	0 	0 	0 	
0.000349956 	7.25004e-11 	0.92 	0.04 	0.04 	0.0102491 	-8.74401e-11 	
-0.0102491 	-0.0103075 	5.83392e-05 	0.0232014 	1.03881e-09 	0.0928056 	0.116007 	
72.2187 	211712 	1761.36 	2291.97 	0.35 	17.0603 	0.00135996 	8.74889e-05 	
0.00728373 	0.00219424 	0 	0 	0 	0 	0 	0 	0 	
0.000437444 	8.86116e-11 	0.92 	0.04 	0.04 	0.0102491 	-1.01493e-10 	
-0.0102491 	-0.0103075 	5.83391e-05 	0.0232014 	1.26966e-09 	0.116007 	0.0928052 	
72.2188 	211712 	1761.36 	2291.97 	0.35 	17.0603 	0.00135996 	8.74889e-05 	
0.00728373 	0.00219424 	0 	0 	0 	0 	0 	0 	0 	
0.000524933 	1.04723e-10 	0.92 	0.04 	0.04 	0.0102491 	-1.12423e-10 	
-0.0102491 	-0.0103075 	5.83391e-05 	0.0232013 	1.5005e-09 	0.139208 	0.0696039 	
72.2188 	211712 	1761.36 	2291.97 	0.35 	17.0603 	0.00135996 	8.74889e-05 	
0.00728373 	0.00219424 	0 	0 	0 	0 	0 	0 	0 	
0.000612422 	1.20834e-10 	0.92 	0.04 	0.04 	0.0102491 	-1.2023e-10 	
-0.0102491 	-0.0103075 	5.8339e-05 	0.0232013 	1.73135e-09 	0.16241 	0.0464025 	
72.2188 	211712 	1761.36 	2291.97 	0.35 	17.0603 	0.00135996 	8.74889e-05 	
0.00728372 	0.00219424 	0 	0 	0 	0 	0 	0 	0 	
0.000699911 	1.36945e-10 	0.92 	0.04 	0.04 	0.0102491 	-1.24914e-10 	
-0.0102491 	-0.0103075 	5.83389e-05 	0.0232013 	1.9622e-09 	0.185611 	0.0232012 	
72.2188 	211712 	1761.36 	2291.97 	0.35 	17.0603 	0.00135995 	8.74889e-05 	
0.00728372 	0.00219424 	0 	0 	0 	0 	0 	0 	0 	
0.0007874 	1.45e-10 	0.92 	0.04 	0.04 	0.0102491 	-1.26476e-10 	
-0.0102491 	-0.0103075 	5.83388e-05 	0.0116006 	1.9622e-09 	0.203012 	0.00580031 	
36.1094 	105856 	880.68 	1145.99 	0.35 	8.53017 	0.00135995 	4.37444e-05 	
0.00364186 	0.00109712 	0 	0 	0 	0 	0 	0 	0 	
ZONE T = "t = 1e-08 [s]" I = 10 SOLUTIONTIME = 1.0000000000000E-08
0 	4.21335e-16 	0.92 	0.04 	0.04 	0.0103075 	0 	
-0.0102491 	-0.0103075 	5.83393e-05 	0.0116007 	1.15424e-10 	3.03393e-07 	-2.93378e-07 	
36.1094 	105856 	880.68 	1145.99 	0.35 	8.53017 	7.11306e-08 	4.37444e-05 	
0.00364186 	0.00109712 	0 	0 	0 	0 	0 	0 	0 	
8.74889e-05 	1.23968e-15 	0.92 	0.04 	0.04 	0.0103075 	8.03223e-17 	
-0.0102491 	-0.0103075 	5.83393e-05 	0.0232014 	3.46271e-10 	1.19599e-06 	-1.18599e-06 	
72.2187 	211712 	1761.36 	2291.97 	0.35 	17.0603 	6.9077e-08 	8.74889e-05 	
0.00728373 	0.00219424 	0 	0 	0 	0 	0 	0 	0 	
0.000174978 	1.96906e-15 	0.92 	0.04 	0.04 	0.0103075 	3.19265e-16 	
-0.0102491 	-0.0103075 	5.83393e-05 	0.0232014 	5.77118e-10 	2.31043e-06 	-2.30042e-06 	
72.2187 	211712 	1761.36 	2291.97 	0.35 	17.0603 	6.15682e-08 	8.74889e-05 	
0.00728373 	0.00219424 	0 	0 	0 	0 	0 	0 	0 	
0.000262467 	2.54487e-15 	0.92 	0.04 	0.04 	0.0103075 	6.99587e-16 	
-0.0102491 	-0.0103075 	5.83392e-05 	0.0232014 	8.07965e-10 	3.25025e-06 	-3.24021e-06 	
72.2187 	211712 	1761.36 	2291.97 	0.35 	17.0603 	4.86046e-08 	8.74889e-05 	
0.00728373 	0.00219424 	0 	0 	0 	0 	0 	0 	0 	
0.000349956 	2.90248e-15 	0.92 	0.04 	0.04 	0.0103075 	1.19152e-15 	
-0.0102491 	-0.0103075 	5.83392e-05 	0.0232014 	1.03881e-09 	3.92229e-06 	-3.91231e-06 	
72.2187 	211712 	1761.36 	2291.97 	0.35 	17.0603 	3.01859e-08 	8.74889e-05 	
0.00728373 	0.00219424 	0 	0 	0 	0 	0 	0 	0 	
0.000437444 	2.97726e-15 	0.92 	0.04 	0.04 	0.0103075 	1.75277e-15 	
-0.0102491 	-0.0103075 	5.83391e-05 	0.0232014 	1.26966e-09 	4.2336e-06 	-4.22364e-06 	
72.2188 	211712 	1761.36 	2291.97 	0.35 	17.0603 	6.31211e-09 	8.74889e-05 	
0.00728373 	0.00219424 	0 	0 	0 	0 	0 	0 	0 	
0.000524933 	2.70458e-15 	0.92 	0.04 	0.04 	0.0103075 	2.32851e-15 	
-0.0102491 	-0.0103075 	5.83391e-05 	0.0232013 	1.5005e-09 	4.09111e-06 	-4.08115e-06 	
72.2188 	211712 	1761.36 	2291.97 	0.35 	17.0603 	-2.30168e-08 	8.74889e-05 	
0.00728373 	0.00219424 	0 	0 	0 	0 	0 	0 	0 	
0.000612422 	2.01982e-15 	0.92 	0.04 	0.04 	0.0103075 	2.8514e-15 	
-0.0102491 	-0.0103075 	5.8339e-05 	0.0232013 	1.73135e-09 	3.40176e-06 	-3.39176e-06 	
72.2188 	211712 	1761.36 	2291.97 	0.35 	17.0603 	-5.78012e-08 	8.74889e-05 	
0.00728372 	0.00219424 	0 	0 	0 	0 	0 	0 	0 	
0.000699911 	8.5835e-16 	0.92 	0.04 	0.04 	0.0103075 	3.24156e-15 	
-0.0102491 	-0.0103075 	5.83389e-05 	0.0232013 	1.9622e-09 	2.07239e-06 	-2.0624e-06 	
72.2188 	211712 	1761.36 	2291.97 	0.35 	17.0603 	-9.80409e-08 	8.74889e-05 	
0.00728372 	0.00219424 	0 	0 	0 	0 	0 	0 	0 	
0.0007874 	6.94383e-18 	0.92 	0.04 	0.04 	0.0103075 	3.40659e-15 	
-0.0102491 	-0.0103075 	5.83388e-05 	0.0116006 	1.9622e-09 	6.22985e-07 	-6.13047e-07 	
36.1094 	105856 	880.68 	1145.99 	0.35 	8.53017 	-1.43736e-07 	4.37444e-05 	
0.00364186 	0.00109712 	0 	0 	0 	0 	0 	0 	0 	
ZONE T = "t = 2e-08 [s]" I = 10 SOLUTIONTIME = 2.0000000000000E-08
0 	4.22775e-16 	0.92 	0.04 	0.04 	0.0103075 	0 	
-0.0103075 	-0.0103075 	3.07588e-09 	6.06755e-07 	5.53103e-11 	3.04406e-07 	-2.84415e-07 	
36.1094 	105856 	880.68 	1145.99 	0.35 	8.53017 	7.13738e-08 	4.37444e-05 	
0.00364186 	0.00109712 	0 	0 	0 	0 	0 	0 	0 	
8.74889e-05 	1.24392e-15 	0.92 	0.04 	0.04 	0.0103075 	7.92555e-17 	
-0.0103075 	-0.0103075 	2.98751e-09 	1.17848e-06 	1.65931e-10 	1.20013e-06 	-1.18009e-06 	
72.2187 	211712 	1761.36 	2291.97 	0.35 	17.0603 	6.93134e-08 	8.74889e-05 	
0.00728373 	0.00219424 	0 	0 	0 	0 	0 	0 	0 	
0.000174978 	1.97587e-15 	0.92 	0.04 	0.04 	0.0103075 	3.17675e-16 	
-0.0103075 	-0.0103075 	2.66456e-09 	1.05037e-06 	2.7655e-10 	2.31843e-06 	-2.29838e-06 	
72.2187 	211712 	1761.36 	2291.97 	0.35 	17.0603 	6.17851e-08 	8.74889e-05 	
0.00728373 	0.00219424 	0 	0 	0 	0 	0 	0 	0 	
0.000262467 	2.55386e-15 	0.92 	0.04 	0.04 	0.0103075 	6.97971e-16 	
-0.0103075 	-0.0103075 	2.10704e-09 	8.29211e-07 	3.87169e-10 	3.26157e-06 	-3.24159e-06 	
72.2187 	211712 	1761.36 	2291.97 	0.35 	17.0603 	4.87887e-08 	8.74889e-05 	
0.00728373 	0.00219424 	0 	0 	0 	0 	0 	0 	0 	
0.000349956 	2.91311e-15 	0.92 	0.04 	0.04 	0.0103075 	1.1903e-15 	
-0.0103075 	-0.0103075 	1.31496e-09 	5.14981e-07 	4.97786e-10 	3.93647e-06 	-3.91644e-06 	
72.2187 	211712 	1761.36 	2291.97 	0.35 	17.0603 	3.03242e-08 	8.74889e-05 	
0.00728373 	0.00219424 	0 	0 	0 	0 	0 	0 	0 	
0.000437444 	2.98883e-15 	0.92 	0.04 	0.04 	0.0103075 	1.75226e-15 	
-0.0103075 	-0.0103075 	2.88303e-10 	1.07687e-07 	6.084e-10 	4.24962e-06 	-4.22963e-06 	
72.2188 	211712 	1761.36 	2291.97 	0.35 	17.0603 	6.39145e-09 	8.74889e-05 	
0.00728373 	0.00219424 	0 	0 	0 	0 	0 	0 	0 	
0.000524933 	2.71624e-15 	0.92 	0.04 	0.04 	0.0103075 	2.3289e-15 	
-0.0103075 	-0.0103075 	-9.72933e-10 	-3.92674e-07 	7.19012e-10 	4.10786e-06 	-4.08787e-06 	
72.2188 	211712 	1761.36 	2291.97 	0.35 	17.0603 	-2.30095e-08 	8.74889e-05 	
0.00728373 	0.00219424 	0 	0 	0 	0 	0 	0 	0 	
0.000612422 	2.03055e-15 	0.92 	0.04 	0.04 	0.0103075 	2.8527e-15 	
-0.0103075 	-0.0103075 	-2.46875e-09 	-9.86108e-07 	8.29621e-10 	3.41787e-06 	-3.39788e-06 	
72.2188 	211712 	1761.36 	2291.97 	0.35 	17.0603 	-5.78791e-08 	8.74889e-05 	
0.00728372 	0.00219424 	0 	0 	0 	0 	0 	0 	0 	
0.000699911 	8.66997e-16 	0.92 	0.04 	0.04 	0.0103075 	3.2436e-15 	
-0.0103075 	-0.0103075 	-4.19916e-09 	-1.67261e-06 	9.40225e-10 	2.08629e-06 	-2.06635e-06 	
72.2188 	211712 	1761.36 	2291.97 	0.35 	17.0603 	-9.8217e-08 	8.74889e-05 	
0.00728372 	0.00219424 	0 	0 	0 	0 	0 	0 	0 	
0.0007874 	1.38881e-17 	0.92 	0.04 	0.04 	0.0103075 	3.40896e-15 	
-0.0103075 	-0.0103075 	-6.16416e-09 	-1.22609e-06 	9.40225e-10 	6.34278e-07 	-6.14273e-07 	
36.1094 	105856 	880.68 	1145.99 	0.35 	8.53017 	-1.44024e-07 	4.37444e-05 	
0.00364186 	0.00109712 	0 	0 	0 	0 	0 	0 	0 	
ZONE T = "t = 3e-08 [s]" I = 10 SOLUTIONTIME = 3.0000000000000E-08
0 	4.23161e-16 	0.92 	0.04 	0.04 	0.0103075 	0 	
-0.0103075 	-0.0103075 	3.06177e-09 	6.0883e-07 	5.53103e-11 	3.04682e-07 	-2.74693e-07 	
36.1094 	105856 	880.68 	1145.99 	0.35 	8.53017 	7.14389e-08 	4.37444e-05 	
0.00364186 	0.00109712 	0 	0 	0 	0 	0 	0 	0 	
8.74889e-05 	1.24507e-15 	0.92 	0.04 	0.04 	0.0103075 	7.79843e-17 	
-0.0103075 	-0.0103075 	2.97338e-09 	1.18251e-06 	1.65931e-10 	1.20124e-06 	-1.1712e-06 	
72.2187 	211712 	1761.36 	2291.97 	0.35 	17.0603 	6.93785e-08 	8.74889e-05 	
0.00728373 	0.00219424 	0 	0 	0 	0 	0 	0 	0 	
0.000174978 	1.9778e-15 	0.92 	0.04 	0.04 	0.0103075 	3.15282e-16 	
-0.0103075 	-0.0103075 	2.65044e-09 	1.05407e-06 	2.7655e-10 	2.32064e-06 	-2.2906e-06 	
72.2187 	211712 	1761.36 	2291.97 	0.35 	17.0603 	6.18502e-08 	8.74889e-05 	
0.00728373 	0.00219424 	0 	0 	0 	0 	0 	0 	0 	
0.000262467 	2.55656e-15 	0.92 	0.04 	0.04 	0.0103075 	6.94606e-16 	
-0.0103075 	-0.0103075 	2.09292e-09 	8.32351e-07 	3.87169e-10 	3.26488e-06 	-3.23492e-06 	
72.2187 	211712 	1761.36 	2291.97 	0.35 	17.0603 	4.88539e-08 	8.74889e-05 	
0.00728373 	0.00219424 	0 	0 	0 	0 	0 	0 	0 	
0.000349956 	2.91658e-15 	0.92 	0.04 	0.04 	0.0103075 	1.18611e-15 	
-0.0103075 	-0.0103075 	1.30084e-09 	5.17341e-07 	4.97786e-10 	3.94089e-06 	-3.91088e-06 	
72.2187 	211712 	1761.36 	2291.97 	0.35 	17.0603 	3.03892e-08 	8.74889e-05 	
0.00728373 	0.00219424 	0 	0 	0 	0 	0 	0 	0 	
0.000437444 	2.99307e-15 	0.92 	0.04 	0.04 	0.0103075 	1.7474e-15 	
-0.0103075 	-0.0103075 	2.7418e-10 	1.0904e-07 	6.084e-10 	4.25523e-06 	-4.22518e-06 	
72.2188 	211712 	1761.36 	2291.97 	0.35 	17.0603 	6.4566e-09 	8.74889e-05 	
0.00728373 	0.00219424 	0 	0 	0 	0 	0 	0 	0 	
0.000524933 	2.72125e-15 	0.92 	0.04 	0.04 	0.0103075 	2.32352e-15 	
-0.0103075 	-0.0103075 	-9.87053e-10 	-3.9255e-07 	7.19012e-10 	4.11449e-06 	-4.08454e-06 	
72.2188 	211712 	1761.36 	2291.97 	0.35 	17.0603 	-2.29444e-08 	8.74889e-05 	
0.00728373 	0.00219424 	0 	0 	0 	0 	0 	0 	0 	
0.000612422 	2.03634e-15 	0.92 	0.04 	0.04 	0.0103075 	2.84694e-15 	
-0.0103075 	-0.0103075 	-2.48288e-09 	-9.87436e-07 	8.29621e-10 	3.4256e-06 	-3.39566e-06 	
72.2188 	211712 	1761.36 	2291.97 	0.35 	17.0603 	-5.78139e-08 	8.74889e-05 	
0.00728372 	0.00219424 	0 	0 	0 	0 	0 	0 	0 	
0.000699911 	8.73556e-16 	0.92 	0.04 	0.04 	0.0103075 	3.23762e-15 	
-0.0103075 	-0.0103075 	-4.21328e-09 	-1.67562e-06 	9.40225e-10 	2.09522e-06 	-2.06524e-06 	
72.2188 	211712 	1761.36 	2291.97 	0.35 	17.0603 	-9.81518e-08 	8.74889e-05 	
0.00728372 	0.00219424 	0 	0 	0 	0 	0 	0 	0 	
0.0007874 	2.08322e-17 	0.92 	0.04 	0.04 	0.0103075 	3.4029e-15 	
-0.0103075 	-0.0103075 	-6.17828e-09 	-1.22855e-06 	9.40225e-10 	6.43944e-07 	-6.13995e-07 	
36.1094 	105856 	880.68 	1145.99 	0.35 	8.53017 	-1.43959e-07 	4.37444e-05 	
0.00364186 	0.00109712 	0 	0 	0 	0 	0 	0 	0 	
ZONE T = "t = 4e-08 [s]" I = 10 SOLUTIONTIME = 4.0000000000000E-08
0 	4.23546e-16 	0.92 	0.04 	0.04 	0.0103075 	0 	
-0.0103075 	-0.0103075 	3.06456e-09 	6.09386e-07 	5.53103e-11 	3.0505e-07 	-2.6497e-07 	
36.1094 	105856 	880.68 	1145.99 	0.35 	8.53017 	7.15039e-08 	4.37444e-05 	
0.00364186 	0.00109712 	0 	0 	0 	0 	0 	0 	0 	
8.74889e-05 	1.24623e-15 	0.92 	0.04 	0.04 	0.0103075 	7.6713e-17 	
-0.0103075 	-0.0103075 	2.97618e-09 	1.18362e-06 	1.65931e-10 	1.20234e-06 	-1.16231e-06 	
72.2187 	211712 	1761.36 	2291.97 	0.35 	17.0603 	6.94436e-08 	8.74889e-05 	
0.00728373 	0.00219424 	0 	0 	0 	0 	0 	0 	0 	
0.000174978 	1.97973e-15 	0.92 	0.04 	0.04 	0.0103075 	3.12889e-16 	
-0.0103075 	-0.0103075 	2.65323e-09 	1.05518e-06 	2.7655e-10 	2.32276e-06 	-2.28282e-06 	
72.2187 	211712 	1761.36 	2291.97 	0.35 	17.0603 	6.19153e-08 	8.74889e-05 	
0.00728373 	0.00219424 	0 	0 	0 	0 	0 	0 	0 	
0.000262467 	2.55926e-15 	0.92 	0.04 	0.04 	0.0103075 	6.9124e-16 	
-0.0103075 	-0.0103075 	2.09572e-09 	8.33464e-07 	3.87169e-10 	3.26829e-06 	-3.22826e-06 	
72.2187 	211712 	1761.36 	2291.97 	0.35 	17.0603 	4.8919e-08 	8.74889e-05 	
0.00728373 	0.00219424 	0 	0 	0 	0 	0 	0 	0 	
0.000349956 	2.92005e-15 	0.92 	0.04 	0.04 	0.0103075 	1.18192e-15 	
-0.0103075 	-0.0103075 	1.30363e-09 	5.18451e-07 	4.97786e-10 	3.94531e-06 	-3.90533e-06 	
72.2187 	211712 	1761.36 	2291.97 	0.35 	17.0603 	3.04545e-08 	8.74889e-05 	
0.00728373 	0.00219424 	0 	0 	0 	0 	0 	0 	0 	
0.000437444 	2.99731e-15 	0.92 	0.04 	0.04 	0.0103075 	1.74254e-15 	
-0.0103075 	-0.0103075 	2.76974e-10 	1.10152e-07 	6.084e-10 	4.26067e-06 	-4.22074e-06 	
72.2188 	211712 	1761.36 	2291.97 	0.35 	17.0603 	6.52166e-09 	8.74889e-05 	
0.00728373 	0.00219424 	0 	0 	0 	0 	0 	0 	0 	
0.000524933 	2.72627e-15 	0.92 	0.04 	0.04 	0.0103075 	2.31813e-15 	
-0.0103075 	-0.0103075 	-9.84259e-10 	-3.91439e-07 	7.19012e-10 	4.12121e-06 	-4.0812e-06 	
72.2188 	211712 	1761.36 	2291.97 	0.35 	17.0603 	-2.28793e-08 	8.74889e-05 	
0.00728373 	0.00219424 	0 	0 	0 	0 	0 	0 	0 	
0.000612422 	2.04213e-15 	0.92 	0.04 	0.04 	0.0103075 	2.84119e-15 	
-0.0103075 	-0.0103075 	-2.48008e-09 	-9.86324e-07 	8.29621e-10 	3.43351e-06 	-3.39343e-06 	
72.2188 	211712 	1761.36 	2291.97 	0.35 	17.0603 	-5.77488e-08 	8.74889e-05 	
0.00728372 	0.00219424 	0 	0 	0 	0 	0 	0 	0 	
0.000699911 	8.80114e-16 	0.92 	0.04 	0.04 	0.0103075 	3.23163e-15 	
-0.0103075 	-0.0103075 	-4.21049e-09 	-1.6745e-06 	9.40224e-10 	2.10414e-06 	-2.06413e-06 	
72.2188 	211712 	1761.36 	2291.97 	0.35 	17.0603 	-9.80867e-08 	8.74889e-05 	
0.00728372 	0.00219424 	0 	0 	0 	0 	0 	0 	0 	
0.0007874 	2.77762e-17 	0.92 	0.04 	0.04 	0.0103075 	3.39684e-15 	
-0.0103075 	-0.0103075 	-6.17549e-09 	-1.22799e-06 	9.40224e-10 	6.53611e-07 	-6.13717e-07 	
36.1094 	105856 	880.68 	1145.99 	0.35 	8.53017 	-1.43893e-07 	4.37444e-05 	
0.00364186 	0.00109712 	0 	0 	0 	0 	0 	0 	0 	
ZONE T = "t = 5.5e-08 [s]" I = 10 SOLUTIONTIME = 5.5000000000000E-08
0 	4.24125e-16 	0.92 	0.04 	0.04 	0.0103075 	0 	
-0.0103075 	-0.0103075 	3.06735e-09 	6.0994e-07 	5.53103e-11 	3.05326e-07 	-2.50387e-07 	
36.1094 	105856 	880.68 	1145.99 	0.35 	8.53017 	7.16016e-08 	4.37444e-05 	
0.00364186 	0.00109712 	0 	0 	0 	0 	0 	0 	0 	
8.74889e-05 	1.24797e-15 	0.92 	0.04 	0.04 	0.0103075 	7.48062e-17 	
-0.0103075 	-0.0103075 	2.97898e-09 	1.18473e-06 	1.65931e-10 	1.20391e-06 	-1.14897e-06 	
72.2187 	211712 	1761.36 	2291.97 	0.35 	17.0603 	6.95414e-08 	8.74889e-05 	
0.00728373 	0.00219424 	0 	0 	0 	0 	0 	0 	0 	
0.000174978 	1.98262e-15 	0.92 	0.04 	0.04 	0.0103075 	3.093e-16 	
-0.0103075 	-0.0103075 	2.65603e-09 	1.0563e-06 	2.7655e-10 	2.32617e-06 	-2.27115e-06 	
72.2187 	211712 	1761.36 	2291.97 	0.35 	17.0603 	6.2013e-08 	8.74889e-05 	
0.00728373 	0.00219424 	0 	0 	0 	0 	0 	0 	0 	
0.000262467 	2.56331e-15 	0.92 	0.04 	0.04 	0.0103075 	6.86193e-16 	
-0.0103075 	-0.0103075 	2.09852e-09 	8.34575e-07 	3.87169e-10 	3.27326e-06 	-3.21826e-06 	
72.2187 	211712 	1761.36 	2291.97 	0.35 	17.0603 	4.90167e-08 	8.74889e-05 	
0.00728373 	0.00219424 	0 	0 	0 	0 	0 	0 	0 	
0.000349956 	2.92526e-15 	0.92 	0.04 	0.04 	0.0103075 	1.17564e-15 	
-0.0103075 	-0.0103075 	1.30643e-09 	5.19563e-07 	4.97786e-10 	3.95203e-06 	-3.89699e-06 	
72.2187 	211712 	1761.36 	2291.97 	0.35 	17.0603 	3.05521e-08 	8.74889e-05 	
0.00728373 	0.00219424 	0 	0 	0 	0 	0 	0 	0 	
0.000437444 	3.00368e-15 	0.92 	0.04 	0.04 	0.0103075 	1.73525e-15 	
-0.0103075 	-0.0103075 	2.79763e-10 	1.11262e-07 	6.084e-10 	4.26913e-06 	-4.21407e-06 	
72.2188 	211712 	1761.36 	2291.97 	0.35 	17.0603 	6.61938e-09 	8.74889e-05 	
0.00728373 	0.00219424 	0 	0 	0 	0 	0 	0 	0 	
0.000524933 	2.73379e-15 	0.92 	0.04 	0.04 	0.0103075 	2.31006e-15 	
-0.0103075 	-0.0103075 	-9.81462e-10 	-3.90328e-07 	7.19012e-10 	4.13115e-06 	-4.0762e-06 	
72.2188 	211712 	1761.36 	2291.97 	0.35 	17.0603 	-2.27815e-08 	8.74889e-05 	
0.00728373 	0.00219424 	0 	0 	0 	0 	0 	0 	0 	
0.000612422 	2.05081e-15 	0.92 	0.04 	0.04 	0.0103075 	2.83255e-15 	
-0.0103075 	-0.0103075 	-2.47729e-09 	-9.85214e-07 	8.29621e-10 	3.44511e-06 	-3.3901e-06 	
72.2188 	211712 	1761.36 	2291.97 	0.35 	17.0603 	-5.76511e-08 	8.74889e-05 	
0.00728372 	0.00219424 	0 	0 	0 	0 	0 	0 	0 	
0.000699911 	8.89951e-16 	0.92 	0.04 	0.04 	0.0103075 	3.22266e-15 	
-0.0103075 	-0.0103075 	-4.20769e-09 	-1.67339e-06 	9.40224e-10 	2.11749e-06 	-2.06246e-06 	
72.2188 	211712 	1761.36 	2291.97 	0.35 	17.0603 	-9.79891e-08 	8.74889e-05 	
0.00728372 	0.00219424 	0 	0 	0 	0 	0 	0 	0 	
0.0007874 	3.81923e-17 	0.92 	0.04 	0.04 	0.0103075 	3.38776e-15 	
-0.0103075 	-0.0103075 	-6.17269e-09 	-1.22743e-06 	9.40224e-10 	6.68204e-07 	-6.133e-07 	
36.1094 	105856 	880.68 	1145.99 	0.35 	8.53017 	-1.43796e-07 	4.37444e-05 	
0.00364186 	0.00109712 	0 	0 	0 	0 	0 	0 	0 	
ZONE T = "t = 7.75e-08 [s]" I = 10 SOLUTIONTIME = 7.7500000000000E-08
0 	4.24993e-16 	0.92 	0.04 	0.04 	0.0103075 	0 	
-0.0103075 	-0.0103075 	3.07155e-09 	6.10774e-07 	5.53103e-11 	3.06062e-07 	-2.28512e-07 	
36.1094 	105856 	880.68 	1145.99 	0.35 	8.53017 	7.17482e-08 	4.37444e-05 	
0.00364186 	0.00109712 	0 	0 	0 	0 	0 	0 	0 	
8.74889e-05 	1.25057e-15 	0.92 	0.04 	0.04 	0.0103075 	7.1946e-17 	
-0.0103075 	-0.0103075 	2.98317e-09 	1.1864e-06 	1.65931e-10 	1.20648e-06 	-1.12897e-06 	
72.2187 	211712 	1761.36 	2291.97 	0.35 	17.0603 	6.96879e-08 	8.74889e-05 	
0.00728373 	0.00219424 	0 	0 	0 	0 	0 	0 	0 	
0.000174978 	1.98696e-15 	0.92 	0.04 	0.04 	0.0103075 	3.03916e-16 	
-0.0103075 	-0.0103075 	2.66022e-09 	1.05796e-06 	2.7655e-10 	2.33114e-06 	-2.25365e-06 	
72.2187 	211712 	1761.36 	2291.97 	0.35 	17.0603 	6.21596e-08 	8.74889e-05 	
0.00728373 	0.00219424 	0 	0 	0 	0 	0 	0 	0 	
0.000262467 	2.56939e-15 	0.92 	0.04 	0.04 	0.0103075 	6.78622e-16 	
-0.0103075 	-0.0103075 	2.1027e-09 	8.36241e-07 	3.87169e-10 	3.28071e-06 	-3.20326e-06 	
72.2187 	211712 	1761.36 	2291.97 	0.35 	17.0603 	4.91632e-08 	8.74889e-05 	
0.00728373 	0.00219424 	0 	0 	0 	0 	0 	0 	0 	
0.000349956 	2.93307e-15 	0.92 	0.04 	0.04 	0.0103075 	1.16622e-15 	
-0.0103075 	-0.0103075 	1.31062e-09 	5.21229e-07 	4.97786e-10 	3.96197e-06 	-3.88449e-06 	
72.2187 	211712 	1761.36 	2291.97 	0.35 	17.0603 	3.06986e-08 	8.74889e-05 	
0.00728373 	0.00219424 	0 	0 	0 	0 	0 	0 	0 	
0.000437444 	3.01323e-15 	0.92 	0.04 	0.04 	0.0103075 	1.72431e-15 	
-0.0103075 	-0.0103075 	2.8396e-10 	1.12929e-07 	6.084e-10 	4.28165e-06 	-4.20407e-06 	
72.2188 	211712 	1761.36 	2291.97 	0.35 	17.0603 	6.76589e-09 	8.74889e-05 	
0.00728373 	0.00219424 	0 	0 	0 	0 	0 	0 	0 	
0.000524933 	2.74507e-15 	0.92 	0.04 	0.04 	0.0103075 	2.29794e-15 	
-0.0103075 	-0.0103075 	-9.77271e-10 	-3.88661e-07 	7.19012e-10 	4.14625e-06 	-4.06871e-06 	
72.2188 	211712 	1761.36 	2291.97 	0.35 	17.0603 	-2.2635e-08 	8.74889e-05 	
0.00728373 	0.00219424 	0 	0 	0 	0 	0 	0 	0 	
0.000612422 	2.06383e-15 	0.92 	0.04 	0.04 	0.0103075 	2.8196e-15 	
-0.0103075 	-0.0103075 	-2.4731e-09 	-9.83547e-07 	8.29621e-10 	3.4626e-06 	-3.3851e-06 	
72.2188 	211712 	1761.36 	2291.97 	0.35 	17.0603 	-5.75046e-08 	8.74889e-05 	
0.00728372 	0.00219424 	0 	0 	0 	0 	0 	0 	0 	
0.000699911 	9.04708e-16 	0.92 	0.04 	0.04 	0.0103075 	3.2092e-15 	
-0.0103075 	-0.0103075 	-4.2035e-09 	-1.67173e-06 	9.40223e-10 	2.13747e-06 	-2.05996e-06 	
72.2188 	211712 	1761.36 	2291.97 	0.35 	17.0603 	-9.78425e-08 	8.74889e-05 	
0.00728372 	0.00219424 	0 	0 	0 	0 	0 	0 	0 	
0.0007874 	5.38165e-17 	0.92 	0.04 	0.04 	0.0103075 	3.37413e-15 	
-0.0103075 	-0.0103075 	-6.1685e-09 	-1.2266e-06 	9.40223e-10 	6.90183e-07 	-6.12676e-07 	
36.1094 	105856 	880.68 	1145.99 	0.35 	8.53017 	-1.43649e-07 	4.37444e-05 	
0.00364186 	0.00109712 	0 	0 	0 	0 	0 	0 	0 	
ZONE T = "t = 1.1125e-07 [s]" I = 10 SOLUTIONTIME = 1.1125000000000E-07
0 	4.26295e-16 	0.92 	0.04 	0.04 	0.0103075 	0 	
-0.0103075 	-0.0103075 	3.07784e-09 	6.12024e-07 	5.53103e-11 	3.06891e-07 	-1.957e-07 	
36.1094 	105856 	880.68 	1145.99 	0.35 	8.53017 	7.1968e-08 	4.37444e-05 	
0.00364186 	0.00109712 	0 	0 	0 	0 	0 	0 	0 	
8.74889e-05 	1.25448e-15 	0.92 	0.04 	0.04 	0.0103075 	6.76557e-17 	
-0.0103075 	-0.0103075 	2.98945e-09 	1.1889e-06 	1.65931e-10 	1.21017e-06 	-1.09897e-06 	
72.2187 	211712 	1761.36 	2291.97 	0.35 	17.0603 	6.99078e-08 	8.74889e-05 	
0.00728373 	0.00219424 	0 	0 	0 	0 	0 	0 	0 	
0.000174978 	1.99347e-15 	0.92 	0.04 	0.04 	0.0103075 	2.9584e-16 	
-0.0103075 	-0.0103075 	2.6665e-09 	1.06046e-06 	2.7655e-10 	2.33869e-06 	-2.22741e-06 	
72.2187 	211712 	1761.36 	2291.97 	0.35 	17.0603 	6.23794e-08 	8.74889e-05 	
0.00728373 	0.00219424 	0 	0 	0 	0 	0 	0 	0 	
0.000262467 	2.5785e-15 	0.92 	0.04 	0.04 	0.0103075 	6.67266e-16 	
-0.0103075 	-0.0103075 	2.10899e-09 	8.38741e-07 	3.87169e-10 	3.29204e-06 	-3.18076e-06 	
72.2187 	211712 	1761.36 	2291.97 	0.35 	17.0603 	4.9383e-08 	8.74889e-05 	
0.00728373 	0.00219424 	0 	0 	0 	0 	0 	0 	0 	
0.000349956 	2.94479e-15 	0.92 	0.04 	0.04 	0.0103075 	1.15209e-15 	
-0.0103075 	-0.0103075 	1.3169e-09 	5.23729e-07 	4.97786e-10 	3.97697e-06 	-3.86574e-06 	
72.2187 	211712 	1761.36 	2291.97 	0.35 	17.0603 	3.09184e-08 	8.74889e-05 	
0.00728373 	0.00219424 	0 	0 	0 	0 	0 	0 	0 	
0.000437444 	3.02755e-15 	0.92 	0.04 	0.04 	0.0103075 	1.70791e-15 	
-0.0103075 	-0.0103075 	2.90244e-10 	1.15428e-07 	6.084e-10 	4.30034e-06 	-4.18907e-06 	
72.2188 	211712 	1761.36 	2291.97 	0.35 	17.0603 	6.98578e-09 	8.74889e-05 	
0.00728373 	0.00219424 	0 	0 	0 	0 	0 	0 	0 	
0.000524933 	2.762e-15 	0.92 	0.04 	0.04 	0.0103075 	2.27977e-15 	
-0.0103075 	-0.0103075 	-9.70987e-10 	-3.8616e-07 	7.19012e-10 	4.16871e-06 	-4.05745e-06 	
72.2188 	211712 	1761.36 	2291.97 	0.35 	17.0603 	-2.24153e-08 	8.74889e-05 	
0.00728373 	0.00219424 	0 	0 	0 	0 	0 	0 	0 	
0.000612422 	2.08336e-15 	0.92 	0.04 	0.04 	0.0103075 	2.80016e-15 	
-0.0103075 	-0.0103075 	-2.46681e-09 	-9.81047e-07 	8.29621e-10 	3.48884e-06 	-3.3776e-06 	
72.2188 	211712 	1761.36 	2291.97 	0.35 	17.0603 	-5.72847e-08 	8.74889e-05 	
0.00728372 	0.00219424 	0 	0 	0 	0 	0 	0 	0 	
0.000699911 	9.26842e-16 	0.92 	0.04 	0.04 	0.0103075 	3.18901e-15 	
-0.0103075 	-0.0103075 	-4.19722e-09 	-1.66923e-06 	9.40222e-10 	2.16747e-06 	-2.05621e-06 	
72.2188 	211712 	1761.36 	2291.97 	0.35 	17.0603 	-9.76227e-08 	8.74889e-05 	
0.00728372 	0.00219424 	0 	0 	0 	0 	0 	0 	0 	
0.0007874 	7.72527e-17 	0.92 	0.04 	0.04 	0.0103075 	3.35369e-15 	
-0.0103075 	-0.0103075 	-6.16222e-09 	-1.22535e-06 	9.40222e-10 	7.2297e-07 	-6.11738e-07 	
36.1094 	105856 	880.68 	1145.99 	0.35 	8.53017 	-1.43429e-07 	4.37444e-05 	
0.00364186 	0.00109712 	0 	0 	0 	0 	0 	0 	0 	
ZONE T = "t = 1.61875e-07 [s]" I = 10 SOLUTIONTIME = 1.6187500000000E-07
0 	4.28248e-16 	0.92 	0.04 	0.04 	0.0103075 	0 	
-0.0103075 	-0.0103075 	3.08727e-09 	6.13899e-07 	5.53103e-11 	3.08364e-07 	-1.46481e-07 	
36.1094 	105856 	880.68 	1145.99 	0.35 	8.53017 	7.22977e-08 	4.37444e-05 	
0.00364186 	0.00109712 	0 	0 	0 	0 	0 	0 	0 	
8.74889e-05 	1.26034e-15 	0.92 	0.04 	0.04 	0.0103075 	6.12202e-17 	
-0.0103075 	-0.0103075 	2.99889e-09 	1.19265e-06 	1.65931e-10 	1.21578e-06 	-1.05397e-06 	
72.2187 	211712 	1761.36 	2291.97 	0.35 	17.0603 	7.02374e-08 	8.74889e-05 	
0.00728373 	0.00219424 	0 	0 	0 	0 	0 	0 	0 	
0.000174978 	2.00324e-15 	0.92 	0.04 	0.04 	0.0103075 	2.83726e-16 	
-0.0103075 	-0.0103075 	2.67594e-09 	1.06421e-06 	2.76551e-10 	2.34982e-06 	-2.18803e-06 	
72.2187 	211712 	1761.36 	2291.97 	0.35 	17.0603 	6.27091e-08 	8.74889e-05 	
0.00728373 	0.00219424 	0 	0 	0 	0 	0 	0 	0 	
0.000262467 	2.59217e-15 	0.92 	0.04 	0.04 	0.0103075 	6.5023e-16 	
-0.0103075 	-0.0103075 	2.11842e-09 	8.42491e-07 	3.87169e-10 	3.30888e-06 	-3.147e-06 	
72.2187 	211712 	1761.36 	2291.97 	0.35 	17.0603 	4.97126e-08 	8.74889e-05 	