TITLE = "Solution on Domain BulkDomain1D_2"
VARIABLES = "x [m]"  
"Vel_axial" 	"MF_sp(ECDMC)" 	"MF_sp(Li+)" 	"MF_sp(PF6-)" 	"Volt(Electroly)" 	"Volt(CathodeVo)" 	
"Potential Drop Electrode-Electrolyte [V]" 	"Surf_0 Equilibrium Potential Drop Electrode-Electrolyte [V]" 	"Overpotential_0 [V]" 	"Current Source [A/m^2]" 	"Li+ flux [kmol/m^2/s]" 	"Electrolyte Current [A/m^2]" 	"Electrode Current [A/m^2]" 	
"Capacity discharged [A-s]" 	"Depth of discharge [-]" 	"Capacity remaining [A-s]" 	"Initial capacity [A-s]" 	"Porosity []" 	"Surface Area [m2/m2] (area per area)" 	"Specific current (per particle area) [A/m^2]" 	"Control volume thickness [m]" 	
"Moles LiCoO2 [mol/m^2] (per electrode area)" 	"Moles CoO2 [mol/m^2] (per electrode area)" 	"qHeat_accum [J/m3]" 	"qHeat_step [W/m3]" 	"Joule_Lyte [W/m3]" 	"Joule_Solid [W/m3]" 	"electrodHeat [W/m3]" 	"OverpotHeat [W/m3]" 	"deltaSHeat [W/m3]" 	

ZONE T = "t = 0 [s]" I = 10 SOLUTIONTIME = 0.0000000000000E+00
0.00127 	1.36944e-10 	0.92 	0.04 	0.04 	0.0102491 	3.9 	
0 	0 	0 	0 	0 	0.203012 	0.00467661 	
0 	0 	0 	0 	0.35 	6.604 	-0.0017567 	3.38667e-05 	
0.00105028 	0.000451316 	0 	0.0 	 0.0 	 0.0 	 0.0 	 0.0 	 0.0 	 
0.00133773 	1.20833e-10 	0.92 	0.04 	0.04 	0.0102491 	3.9 	
0 	0 	0 	0 	0 	0.18561 	0.0187064 	
0 	0 	0 	0 	0.35 	13.208 	-0.0017567 	6.77333e-05 	
0.00210055 	0.000902632 	0 	0.0 	 0.0 	 0.0 	 0.0 	 0.0 	 0.0 	 
0.00140547 	1.04721e-10 	0.92 	0.04 	0.04 	0.0102491 	3.9 	
0 	0 	0 	0 	0 	0.162407 	0.0374128 	
0 	0 	0 	0 	0.35 	13.208 	-0.00175669 	6.77333e-05 	
0.00210055 	0.000902631 	0 	0.0 	 0.0 	 0.0 	 0.0 	 0.0 	 0.0 	 
0.0014732 	8.8609e-11 	0.92 	0.04 	0.04 	0.0102491 	3.9 	
0 	0 	0 	0 	0 	0.139205 	0.0561191 	
0 	0 	0 	0 	0.35 	13.208 	-0.00175667 	6.77333e-05 	
0.00210055 	0.000902631 	0 	0.0 	 0.0 	 0.0 	 0.0 	 0.0 	 0.0 	 
0.00154093 	7.24975e-11 	0.92 	0.04 	0.04 	0.0102491 	3.9 	
0 	0 	0 	0 	0 	0.116003 	0.0748251 	
0 	0 	0 	0 	0.35 	13.208 	-0.00175665 	6.77333e-05 	
0.00210055 	0.00090263 	0 	0.0 	 0.0 	 0.0 	 0.0 	 0.0 	 0.0 	 
0.00160867 	5.63863e-11 	0.92 	0.04 	0.04 	0.0102491 	3.9 	
0 	0 	0 	0 	0 	0.0928014 	0.0935309 	
0 	0 	0 	0 	0.35 	13.208 	-0.00175662 	6.77333e-05 	
0.00210055 	0.000902628 	0 	0.0 	 0.0 	 0.0 	 0.0 	 0.0 	 0.0 	 
0.0016764 	4.02754e-11 	0.92 	0.04 	0.04 	0.0102491 	3.9 	
0 	0 	0 	0 	0 	0.0696002 	0.112236 	
0 	0 	0 	0 	0.35 	13.208 	-0.00175659 	6.77333e-05 	
0.00210056 	0.000902627 	0 	0.0 	 0.0 	 0.0 	 0.0 	 0.0 	 0.0 	 
0.00174413 	2.41648e-11 	0.92 	0.04 	0.04 	0.0102491 	3.9 	
0 	0 	0 	0 	0 	0.0463995 	0.130941 	
0 	0 	0 	0 	0.35 	13.208 	-0.00175654 	6.77333e-05 	
0.00210056 	0.000902625 	0 	0.0 	 0.0 	 0.0 	 0.0 	 0.0 	 0.0 	 
0.00181187 	8.05477e-12 	0.92 	0.04 	0.04 	0.0102491 	3.9 	
0 	0 	0 	0 	0 	0.0231994 	0.149646 	
0 	0 	0 	0 	0.35 	13.208 	-0.00175649 	6.77333e-05 	
0.00210056 	0.000902623 	0 	0.0 	 0.0 	 0.0 	 0.0 	 0.0 	 0.0 	 
0.0018796 	0 	0.92 	0.04 	0.04 	0.0102491 	3.9 	
0 	0 	0 	0 	0 	0.00579976 	0.164798 	
0 	0 	0 	0 	0.35 	6.604 	-0.00175644 	3.38667e-05 	
0.00105028 	0.00045131 	0 	0.0 	 0.0 	 0.0 	 0.0 	 0.0 	 0.0 	 
ZONE T = "t = 1e-08 [s]" I = 10 SOLUTIONTIME = 1.0000000000000E-08
0.00127 	9.07498e-13 	0.92 	0.04 	0.04 	0.0103075 	3.91309 	
3.88975 	3.90279 	-0.0130363 	-0.0116012 	1.96219e-09 	-3.69469e-07 	3.80524e-07 	
-36.1089 	21651.3 	87.3507 	141.616 	0.35 	6.604 	-1.1553e-07 	3.38667e-05 	
0.00105028 	0.000451316 	1.1113e-22 	1.1113e-14 	6.07366e-17 	1.10523e-14 	0 	0 	0 	
0.00133773 	1.80055e-13 	0.92 	0.04 	0.04 	0.0103075 	3.91309 	
3.88975 	3.90279 	-0.0130363 	-0.0232025 	1.73133e-09 	-1.49037e-06 	1.50045e-06 	
-72.2179 	43302.7 	174.701 	283.231 	0.35 	13.208 	-1.12323e-07 	6.77333e-05 	
0.00210055 	0.000902632 	5.36914e-22 	5.36914e-14 	2.98115e-16 	5.33933e-14 	0 	0 	0 	
0.00140547 	-1.84069e-13 	0.92 	0.04 	0.04 	0.0103075 	3.91309 	
3.88975 	3.90279 	-0.0130362 	-0.0232023 	1.50048e-09 	-2.88954e-06 	2.89954e-06 	
-72.218 	43302.7 	174.701 	283.231 	0.35 	13.208 	-1.00233e-07 	6.77333e-05 	
0.00210055 	0.000902631 	1.69681e-21 	1.69681e-13 	9.46143e-16 	1.68735e-13 	0 	0 	0 	
0.0014732 	-1.27442e-12 	0.92 	0.04 	0.04 	0.0103075 	3.91309 	
3.88975 	3.90279 	-0.0130361 	-0.0232021 	1.26962e-09 	-4.07054e-06 	4.08045e-06 	
-72.2181 	43302.8 	174.701 	283.231 	0.35 	13.208 	-7.92589e-08 	6.77333e-05 	
0.00210055 	0.000902631 	3.24719e-21 	3.24719e-13 	1.81383e-15 	3.22905e-13 	0 	0 	0 	
0.00154093 	-1.27487e-12 	0.92 	0.04 	0.04 	0.0103075 	3.91309 	
3.88975 	3.90279 	-0.013036 	-0.0232018 	1.03877e-09 	-4.91589e-06 	4.92585e-06 	
-72.2184 	43302.9 	174.701 	283.231 	0.35 	13.208 	-4.94013e-08 	6.77333e-05 	
0.00210055 	0.00090263 	4.67631e-21 	4.67631e-13 	2.61407e-15 	4.65017e-13 	0 	0 	0 	
0.00160867 	-1.27496e-12 	0.92 	0.04 	0.04 	0.0103075 	3.91309 	
3.88975 	3.90279 	-0.0130358 	-0.0232015 	8.07923e-10 	-5.30813e-06 	5.31805e-06 	
-72.2187 	43303 	174.701 	283.231 	0.35 	13.208 	-1.066e-08 	6.77333e-05 	
0.00210055 	0.000902628 	5.42802e-21 	5.42802e-13 	3.03517e-15 	5.39767e-13 	0 	0 	0 	
0.0016764 	-9.11411e-13 	0.92 	0.04 	0.04 	0.0103075 	3.91309 	
3.88975 	3.90279 	-0.0130356 	-0.023201 	5.7708e-10 	-5.1299e-06 	5.1399e-06 	
-72.2191 	43303.2 	174.7 	283.231 	0.35 	13.208 	3.69654e-08 	6.77333e-05 	
0.00210056 	0.000902627 	5.08124e-21 	5.08124e-13 	2.84085e-15 	5.05283e-13 	0 	0 	0 	
0.00174413 	-5.47342e-13 	0.92 	0.04 	0.04 	0.0103075 	3.91309 	
3.88975 	3.90279 	-0.0130353 	-0.0232004 	3.46243e-10 	-4.2641e-06 	4.27423e-06 	
-72.2195 	43303.3 	174.7 	283.231 	0.35 	13.208 	9.34751e-08 	6.77333e-05 	
0.00210056 	0.000902625 	3.57938e-21 	3.57938e-13 	1.99965e-15 	3.55938e-13 	0 	0 	0 	
0.00181187 	-9.0909e-13 	0.92 	0.04 	0.04 	0.0103075 	3.91309 	
3.88975 	3.90279 	-0.013035 	-0.0231998 	1.15412e-10 	-2.59325e-06 	2.60319e-06 	
-72.22 	43303.5 	174.699 	283.231 	0.35 	13.208 	1.58869e-07 	6.77333e-05 	
0.00210056 	0.000902623 	1.51257e-21 	1.51257e-13 	8.43358e-16 	1.50414e-13 	0 	0 	0 	
0.0018796 	0 	0.92 	0.04 	0.04 	0.0103075 	3.91309 	
3.88975 	3.90279 	-0.0130347 	-0.0115995 	1.15412e-10 	-7.70924e-07 	7.81786e-07 	
-36.1103 	21651.9 	87.3494 	141.616 	0.35 	6.604 	2.33149e-07 	3.38667e-05 	
0.00105028 	0.00045131 	4.61984e-22 	4.61984e-14 	2.56043e-16 	4.59424e-14 	0 	0 	0 	
ZONE T = "t = 2e-08 [s]" I = 10 SOLUTIONTIME = 2.0000000000000E-08
0.00127 	-2.36137e-12 	0.92 	0.04 	0.04 	0.0103075 	3.91309 	
3.90279 	3.90279 	-8.66565e-07 	-7.6296e-07 	9.40211e-10 	-3.6078e-07 	3.80695e-07 	
-36.1089 	21651.3 	87.3507 	141.616 	0.35 	6.604 	-1.15281e-07 	3.38667e-05 	
0.00105028 	0.000451316 	2.22345e-22 	1.11215e-14 	5.92078e-17 	1.10623e-14 	0 	0 	0 	
0.00133773 	-2.36239e-12 	0.92 	0.04 	0.04 	0.0103075 	3.91309 	
3.90279 	3.90279 	-8.42511e-07 	-1.48356e-06 	8.29585e-10 	-1.48145e-06 	1.50148e-06 	
-72.2179 	43302.7 	174.701 	283.231 	0.35 	13.208 	-1.12074e-07 	6.77333e-05 	
0.00210055 	0.000902632 	1.07459e-21 	5.37671e-14 	2.95356e-16 	5.34717e-14 	0 	0 	0 	
0.00140547 	-2.0001e-12 	0.92 	0.04 	0.04 	0.0103075 	3.91309 	
3.90279 	3.90279 	-7.51824e-07 	-1.32387e-06 	7.1896e-10 	-2.88181e-06 	2.90177e-06 	
-72.218 	43302.7 	174.701 	283.231 	0.35 	13.208 	-9.99836e-08 	6.77333e-05 	
0.00210055 	0.000902631 	3.39618e-21 	1.69937e-13 	9.41424e-16 	1.68995e-13 	0 	0 	0 	
0.0014732 	-1.27441e-12 	0.92 	0.04 	0.04 	0.0103075 	3.91309 	
3.90279 	3.90279 	-5.94504e-07 	-1.04685e-06 	6.08337e-10 	-4.064e-06 	4.08389e-06 	
-72.2181 	43302.8 	174.701 	283.231 	0.35 	13.208 	-7.90097e-08 	6.77333e-05 	
0.00210055 	0.000902631 	6.49981e-21 	3.25262e-13 	1.80817e-15 	3.23454e-13 	0 	0 	0 	
0.00154093 	-2.00128e-12 	0.92 	0.04 	0.04 	0.0103075 	3.91309 	
3.90279 	3.90279 	-3.7055e-07 	-6.52493e-07 	4.97717e-10 	-4.9103e-06 	4.93031e-06 	
-72.2184 	43302.9 	174.701 	283.231 	0.35 	13.208 	-4.91521e-08 	6.77333e-05 	
0.00210055 	0.00090263 	9.361e-21 	4.68469e-13 	2.60818e-15 	4.65861e-13 	0 	0 	0 	
0.00160867 	-2.00137e-12 	0.92 	0.04 	0.04 	0.0103075 	3.91309 	
3.90279 	3.90279 	-7.99584e-08 	-1.40797e-07 	3.87102e-10 	-5.30361e-06 	5.32372e-06 	
-72.2187 	43303 	174.701 	283.231 	0.35 	13.208 	-1.04108e-08 	6.77333e-05 	
0.00210055 	0.000902628 	1.08675e-20 	5.43951e-13 	3.03002e-15 	5.4092e-13 	0 	0 	0 	
0.0016764 	-2.00103e-12 	0.92 	0.04 	0.04 	0.0103075 	3.91309 	
3.90279 	3.90279 	2.77272e-07 	4.8824e-07 	2.76492e-10 	-5.12669e-06 	5.14677e-06 	
-72.2191 	43303.2 	174.7 	283.231 	0.35 	13.208 	3.72146e-08 	6.77333e-05 	
0.00210056 	0.000902627 	1.01759e-20 	5.09466e-13 	2.83727e-15 	5.06629e-13 	0 	0 	0 	
0.00174413 	-2.00017e-12 	0.92 	0.04 	0.04 	0.0103075 	3.91309 	
3.90279 	3.90279 	7.01144e-07 	1.23462e-06 	1.65889e-10 	-4.26196e-06 	4.28196e-06 	
-72.2195 	43303.3 	174.7 	283.231 	0.35 	13.208 	9.37243e-08 	6.77333e-05 	
0.00210056 	0.000902625 	7.17124e-21 	3.59186e-13 	1.99762e-15 	3.57188e-13 	0 	0 	0 	
0.00181187 	-1.63551e-12 	0.92 	0.04 	0.04 	0.0103075 	3.91309 	
3.90279 	3.90279 	1.19166e-06 	2.09835e-06 	5.52935e-11 	-2.59218e-06 	2.61213e-06 	
-72.22 	43303.5 	174.699 	283.231 	0.35 	13.208 	1.59119e-07 	6.77333e-05 	
0.00210056 	0.000902623 	3.03375e-21 	1.52118e-13 	8.42626e-16 	1.51275e-13 	0 	0 	0 	
0.0018796 	0 	0.92 	0.04 	0.04 	0.0103075 	3.91309 	
3.90279 	3.90279 	1.74883e-06 	1.53971e-06 	5.52935e-11 	-7.70686e-07 	7.90584e-07 	
-36.1103 	21651.9 	87.3494 	141.616 	0.35 	6.604 	2.33398e-07 	3.38667e-05 	
0.00105028 	0.00045131 	9.29681e-22 	4.67697e-14 	2.55885e-16 	4.65138e-14 	0 	0 	0 	
ZONE T = "t = 3e-08 [s]" I = 10 SOLUTIONTIME = 3.0000000000000E-08
0.00127 	-1.09013e-12 	0.92 	0.04 	0.04 	0.0103075 	3.91309 	
3.90279 	3.90279 	-8.64696e-07 	-7.61315e-07 	9.4021e-10 	-3.50991e-07 	3.80867e-07 	
-36.1089 	21651.3 	87.3507 	141.616 	0.35 	6.604 	-1.15365e-07 	3.38667e-05 	
0.00105028 	0.000451316 	3.33645e-22 	1.113e-14 	5.76984e-17 	1.10723e-14 	0 	0 	0 	
0.00133773 	-3.64745e-13 	0.92 	0.04 	0.04 	0.0103075 	3.91309 	
3.90279 	3.90279 	-8.40642e-07 	-1.48027e-06 	8.29585e-10 	-1.47253e-06 	1.50251e-06 	
-72.2179 	43302.7 	174.701 	283.231 	0.35 	13.208 	-1.12158e-07 	6.77333e-05 	
0.00210055 	0.000902632 	1.61301e-21 	5.38429e-14 	2.92613e-16 	5.35503e-14 	0 	0 	0 	
0.00140547 	-2.45469e-15 	0.92 	0.04 	0.04 	0.0103075 	3.91309 	
3.90279 	3.90279 	-7.49955e-07 	-1.32058e-06 	7.1896e-10 	-2.87408e-06 	2.90418e-06 	
-72.218 	43302.7 	174.701 	283.231 	0.35 	13.208 	-1.00068e-07 	6.77333e-05 	
0.00210055 	0.000902631 	5.09834e-21 	1.70216e-13 	9.36717e-16 	1.69279e-13 	0 	0 	0 	
0.0014732 	-3.18012e-15 	0.92 	0.04 	0.04 	0.0103075 	3.91309 	
3.90279 	3.90279 	-5.92635e-07 	-1.04356e-06 	6.08337e-10 	-4.05734e-06 	4.08732e-06 	
-72.2181 	43302.8 	174.701 	283.231 	0.35 	13.208 	-7.90938e-08 	6.77333e-05 	
0.00210055 	0.000902631 	9.7578e-21 	3.25799e-13 	1.80239e-15 	3.23997e-13 	0 	0 	0 	
0.00154093 	7.22784e-13 	0.92 	0.04 	0.04 	0.0103075 	3.91309 	
3.90279 	3.90279 	-3.6868e-07 	-6.49201e-07 	4.97717e-10 	-4.90471e-06 	4.93478e-06 	
-72.2184 	43302.9 	174.701 	283.231 	0.35 	13.208 	-4.92363e-08 	6.77333e-05 	
0.00210055 	0.00090263 	1.40541e-20 	4.69313e-13 	2.60232e-15 	4.66711e-13 	0 	0 	0 	
0.00160867 	1.0859e-12 	0.92 	0.04 	0.04 	0.0103075 	3.91309 	
3.90279 	3.90279 	-7.80893e-08 	-1.37505e-07 	3.87102e-10 	-5.29921e-06 	5.32922e-06 	
-72.2187 	43303 	174.701 	283.231 	0.35 	13.208 	-1.04949e-08 	6.77333e-05 	
0.00210055 	0.000902628 	1.63182e-20 	5.45064e-13 	3.02501e-15 	5.42039e-13 	0 	0 	0 	
0.0016764 	7.23028e-13 	0.92 	0.04 	0.04 	0.0103075 	3.91309 	
3.90279 	3.90279 	2.79141e-07 	4.91531e-07 	2.76492e-10 	-5.12336e-06 	5.1533e-06 	
-72.2191 	43303.2 	174.7 	283.231 	0.35 	13.208 	3.71305e-08 	6.77333e-05 	
0.00210056 	0.000902627 	1.52833e-20 	5.10739e-13 	2.83357e-15 	5.07906e-13 	0 	0 	0 	
0.00174413 	3.60679e-13 	0.92 	0.04 	0.04 	0.0103075 	3.91309 	
3.90279 	3.90279 	7.03013e-07 	1.23791e-06 	1.65889e-10 	-4.2597e-06 	4.28969e-06 	
-72.2195 	43303.3 	174.7 	283.231 	0.35 	13.208 	9.36402e-08 	6.77333e-05 	
0.00210056 	0.000902625 	1.07756e-20 	3.60436e-13 	1.99547e-15 	3.58441e-13 	0 	0 	0 	
0.00181187 	3.62138e-13 	0.92 	0.04 	0.04 	0.0103075 	3.91309 	
3.90279 	3.90279 	1.19353e-06 	2.10164e-06 	5.52935e-11 	-2.59111e-06 	2.62106e-06 	
-72.22 	43303.5 	174.699 	283.231 	0.35 	13.208 	1.59034e-07 	6.77333e-05 	
0.00210056 	0.000902623 	4.56356e-21 	1.52981e-13 	8.41894e-16 	1.5214e-13 	0 	0 	0 	
0.0018796 	0 	0.92 	0.04 	0.04 	0.0103075 	3.91309 	
3.90279 	3.90279 	1.7507e-06 	1.54136e-06 	5.52935e-11 	-7.70448e-07 	8.00482e-07 	
-36.1103 	21651.9 	87.3494 	141.616 	0.35 	6.604 	2.33314e-07 	3.38667e-05 	
0.00105028 	0.00045131 	1.40313e-21 	4.73446e-14 	2.55727e-16 	4.70888e-14 	0 	0 	0 	
ZONE T = "t = 4e-08 [s]" I = 10 SOLUTIONTIME = 4.0000000000000E-08
0.00127 	7.25914e-13 	0.92 	0.04 	0.04 	0.0103075 	3.91309 	
3.90279 	3.90279 	-8.65327e-07 	-7.6187e-07 	9.40209e-10 	-3.41202e-07 	3.81211e-07 	
-36.1089 	21651.3 	87.3507 	141.616 	0.35 	6.604 	-1.15449e-07 	3.38667e-05 	
0.00105028 	0.000451316 	4.4513e-22 	1.11485e-14 	5.62085e-17 	1.10923e-14 	0 	0 	0 	
0.00133773 	-1.53111e-15 	0.92 	0.04 	0.04 	0.0103075 	3.91309 	
3.90279 	3.90279 	-8.41273e-07 	-1.48138e-06 	8.29585e-10 	-1.46361e-06 	1.50354e-06 	
-72.2179 	43302.7 	174.701 	283.231 	0.35 	13.208 	-1.12242e-07 	6.77333e-05 	
0.00210055 	0.000902632 	2.1521e-21 	5.3909e-14 	2.89888e-16 	5.36191e-14 	0 	0 	0 	
0.00140547 	-7.28865e-13 	0.92 	0.04 	0.04 	0.0103075 	3.91309 	
3.90279 	3.90279 	-7.50586e-07 	-1.32169e-06 	7.1896e-10 	-2.86624e-06 	2.90624e-06 	
-72.218 	43302.7 	174.701 	283.231 	0.35 	13.208 	-1.00152e-07 	6.77333e-05 	
0.00210055 	0.000902631 	6.80291e-21 	1.70457e-13 	9.31933e-16 	1.69525e-13 	0 	0 	0 	
0.0014732 	-1.0928e-12 	0.92 	0.04 	0.04 	0.0103075 	3.91309 	
3.90279 	3.90279 	-5.93266e-07 	-1.04467e-06 	6.08337e-10 	-4.05068e-06 	4.09076e-06 	
-72.2181 	43302.8 	174.701 	283.231 	0.35 	13.208 	-7.91779e-08 	6.77333e-05 	
0.00210055 	0.000902631 	1.30212e-20 	3.26343e-13 	1.79666e-15 	3.24547e-13 	0 	0 	0 	
0.00154093 	-1.09325e-12 	0.92 	0.04 	0.04 	0.0103075 	3.91309 	
3.90279 	3.90279 	-3.69311e-07 	-6.50313e-07 	4.97717e-10 	-4.89924e-06 	4.93925e-06 	
-72.2184 	43302.9 	174.701 	283.231 	0.35 	13.208 	-4.93204e-08 	6.77333e-05 	
0.00210055 	0.00090263 	1.87557e-20 	4.70153e-13 	2.59657e-15 	4.67556e-13 	0 	0 	0 	
0.00160867 	-1.09335e-12 	0.92 	0.04 	0.04 	0.0103075 	3.91309 	
3.90279 	3.90279 	-7.87203e-08 	-1.38617e-07 	3.87102e-10 	-5.29481e-06 	5.33472e-06 	
-72.2187 	43303 	174.701 	283.231 	0.35 	13.208 	-1.0579e-08 	6.77333e-05 	
0.00210055 	0.000902628 	2.178e-20 	5.46179e-13 	3.02e-15 	5.43159e-13 	0 	0 	0 	
0.0016764 	-7.29801e-13 	0.92 	0.04 	0.04 	0.0103075 	3.91309 	
3.90279 	3.90279 	2.7851e-07 	4.9042e-07 	2.76492e-10 	-5.12003e-06 	5.16e-06 	
-72.2191 	43303.2 	174.7 	283.231 	0.35 	13.208 	3.70464e-08 	6.77333e-05 	
0.00210056 	0.000902627 	2.04038e-20 	5.12049e-13 	2.82987e-15 	5.09219e-13 	0 	0 	0 	
0.00174413 	-3.65735e-13 	0.92 	0.04 	0.04 	0.0103075 	3.91309 	
3.90279 	3.90279 	7.02382e-07 	1.2368e-06 	1.65889e-10 	-4.25744e-06 	4.2976e-06 	
-72.2195 	43303.3 	174.7 	283.231 	0.35 	13.208 	9.3556e-08 	6.77333e-05 	
0.00210056 	0.000902625 	1.43927e-20 	3.61713e-13 	1.99332e-15 	3.59719e-13 	0 	0 	0 	
0.00181187 	-1.06956e-15 	0.92 	0.04 	0.04 	0.0103075 	3.91309 	
3.90279 	3.90279 	1.1929e-06 	2.10053e-06 	5.52935e-11 	-2.58992e-06 	2.62999e-06 	
-72.22 	43303.5 	174.699 	283.231 	0.35 	13.208 	1.5895e-07 	6.77333e-05 	
0.00210056 	0.000902623 	6.10218e-21 	1.53862e-13 	8.41123e-16 	1.53021e-13 	0 	0 	0 	
0.0018796 	0 	0.92 	0.04 	0.04 	0.0103075 	3.91309 	
3.90279 	3.90279 	1.75007e-06 	1.5408e-06 	5.52935e-11 	-7.70092e-07 	8.10037e-07 	
-36.1103 	21651.9 	87.3494 	141.616 	0.35 	6.604 	2.3323e-07 	3.38667e-05 	
0.00105028 	0.00045131 	1.88215e-21 	4.79021e-14 	2.5549e-16 	4.76467e-14 	0 	0 	0 	
ZONE T = "t = 5.5e-08 [s]" I = 10 SOLUTIONTIME = 5.5000000000000E-08
0.00127 	-1.09012e-12 	0.92 	0.04 	0.04 	0.0103075 	3.91309 	
3.90279 	3.90279 	-8.65958e-07 	-7.62426e-07 	9.40209e-10 	-3.26755e-07 	3.81554e-07 	
-36.1089 	21651.3 	87.3507 	141.616 	0.35 	6.604 	-1.15575e-07 	3.38667e-05 	
0.00105028 	0.000451316 	6.12625e-22 	1.11663e-14 	5.40465e-17 	1.11123e-14 	0 	0 	0 	
0.00133773 	-1.09115e-12 	0.92 	0.04 	0.04 	0.0103075 	3.91309 	
3.90279 	3.90279 	-8.41904e-07 	-1.4825e-06 	8.29585e-10 	-1.4503e-06 	1.50526e-06 	
-72.2179 	43302.7 	174.701 	283.231 	0.35 	13.208 	-1.12368e-07 	6.77333e-05 	
0.00210055 	0.000902632 	2.96259e-21 	5.40327e-14 	2.85823e-16 	5.37469e-14 	0 	0 	0 	
0.00140547 	-8.49927e-13 	0.92 	0.04 	0.04 	0.0103075 	3.91309 	
3.90279 	3.90279 	-7.51217e-07 	-1.32281e-06 	7.1896e-10 	-2.85458e-06 	2.90967e-06 	
-72.218 	43302.7 	174.701 	283.231 	0.35 	13.208 	-1.00278e-07 	6.77333e-05 	
0.00210055 	0.000902631 	9.36564e-21 	1.70849e-13 	9.2489e-16 	1.69924e-13 	0 	0 	0 	
0.0014732 	-8.50654e-13 	0.92 	0.04 	0.04 	0.0103075 	3.91309 	
3.90279 	3.90279 	-5.93897e-07 	-1.04578e-06 	6.08337e-10 	-4.04069e-06 	4.09574e-06 	
-72.2181 	43302.8 	174.701 	283.231 	0.35 	13.208 	-7.93041e-08 	6.77333e-05 	
0.00210055 	0.000902631 	1.79282e-20 	3.2713e-13 	1.78804e-15 	3.25342e-13 	0 	0 	0 	
0.00154093 	-8.51108e-13 	0.92 	0.04 	0.04 	0.0103075 	3.91309 	
3.90279 	3.90279 	-3.69942e-07 	-6.51424e-07 	4.97717e-10 	-4.89092e-06 	4.94595e-06 	
-72.2184 	43302.9 	174.701 	283.231 	0.35 	13.208 	-4.94466e-08 	6.77333e-05 	
0.00210055 	0.00090263 	2.58269e-20 	4.71419e-13 	2.58786e-15 	4.68831e-13 	0 	0 	0 	
0.00160867 	-1.09334e-12 	0.92 	0.04 	0.04 	0.0103075 	3.91309 	
3.90279 	3.90279 	-7.93513e-08 	-1.39728e-07 	3.87102e-10 	-5.28815e-06 	5.34313e-06 	
-72.2187 	43303 	174.701 	283.231 	0.35 	13.208 	-1.07052e-08 	6.77333e-05 	
0.00210055 	0.000902628 	2.99983e-20 	5.47889e-13 	3.01242e-15 	5.44877e-13 	0 	0 	0 	
0.0016764 	-1.09301e-12 	0.92 	0.04 	0.04 	0.0103075 	3.91309 	
3.90279 	3.90279 	2.77879e-07 	4.89308e-07 	2.76492e-10 	-5.11504e-06 	5.16997e-06 	
-72.2191 	43303.2 	174.7 	283.231 	0.35 	13.208 	3.69202e-08 	6.77333e-05 	
0.00210056 	0.000902627 	2.81138e-20 	5.14001e-13 	2.82432e-15 	5.11177e-13 	0 	0 	0 	
0.00174413 	-1.33429e-12 	0.92 	0.04 	0.04 	0.0103075 	3.91309 	
3.90279 	3.90279 	7.01751e-07 	1.23569e-06 	1.65889e-10 	-4.25411e-06 	4.30911e-06 	
-72.2195 	43303.3 	174.7 	283.231 	0.35 	13.208 	9.34299e-08 	6.77333e-05 	
0.00210056 	0.000902625 	1.98464e-20 	3.6358e-13 	1.99017e-15 	3.6159e-13 	0 	0 	0 	
0.00181187 	-1.57497e-12 	0.92 	0.04 	0.04 	0.0103075 	3.91309 	
3.90279 	3.90279 	1.19227e-06 	2.09942e-06 	5.52935e-11 	-2.58825e-06 	2.64322e-06 	
-72.22 	43303.5 	174.699 	283.231 	0.35 	13.208 	1.58824e-07 	6.77333e-05 	
0.00210056 	0.000902623 	8.42955e-21 	1.55158e-13 	8.3998e-16 	1.54318e-13 	0 	0 	0 	
0.0018796 	0 	0.92 	0.04 	0.04 	0.0103075 	3.91309 	
3.90279 	3.90279 	1.74944e-06 	1.54025e-06 	5.52935e-11 	-7.69735e-07 	8.2454e-07 	
-36.1103 	21651.9 	87.3494 	141.616 	0.35 	6.604 	2.33103e-07 	3.38667e-05 	
0.00105028 	0.00045131 	2.61348e-21 	4.87552e-14 	2.55254e-16 	4.85e-14 	0 	0 	0 	
ZONE T = "t = 7.75e-08 [s]" I = 10 SOLUTIONTIME = 7.7500000000000E-08
0.00127 	1.37164e-12 	0.92 	0.04 	0.04 	0.0103075 	3.91309 	
3.90279 	3.90279 	-8.66904e-07 	-7.63259e-07 	9.40207e-10 	-3.04729e-07 	3.82241e-07 	
-36.1089 	21651.3 	87.3507 	141.616 	0.35 	6.604 	-1.15765e-07 	3.38667e-05 	
0.00105028 	0.000451316 	8.64696e-22 	1.12032e-14 	5.08302e-17 	1.11523e-14 	0 	0 	0 	
0.00133773 	1.37061e-12 	0.92 	0.04 	0.04 	0.0103075 	3.91309 	
3.90279 	3.90279 	-8.4285e-07 	-1.48416e-06 	8.29585e-10 	-1.43032e-06 	1.50784e-06 	
-72.2179 	43302.7 	174.701 	283.231 	0.35 	13.208 	-1.12558e-07 	6.77333e-05 	
0.00210055 	0.000902632 	4.1823e-21 	5.4209e-14 	2.79854e-16 	5.39292e-14 	0 	0 	0 	
0.00140547 	1.20826e-12 	0.92 	0.04 	0.04 	0.0103075 	3.91309 	
3.90279 	3.90279 	-7.52163e-07 	-1.32447e-06 	7.1896e-10 	-2.83722e-06 	2.91466e-06 	
-72.218 	43302.7 	174.701 	283.231 	0.35 	13.208 	-1.00467e-07 	6.77333e-05 	
0.00210055 	0.000902631 	1.32226e-20 	1.71422e-13 	9.14418e-16 	1.70508e-13 	0 	0 	0 	
0.0014732 	1.20753e-12 	0.92 	0.04 	0.04 	0.0103075 	3.91309 	
3.90279 	3.90279 	-5.94844e-07 	-1.04745e-06 	6.08337e-10 	-4.02559e-06 	4.10313e-06 	
-72.2181 	43302.8 	174.701 	283.231 	0.35 	13.208 	-7.94934e-08 	6.77333e-05 	
0.00210055 	0.000902631 	2.53149e-20 	3.28297e-13 	1.77504e-15 	3.26522e-13 	0 	0 	0 	
0.00154093 	8.84226e-13 	0.92 	0.04 	0.04 	0.0103075 	3.91309 	
3.90279 	3.90279 	-3.70889e-07 	-6.5309e-07 	4.97717e-10 	-4.87832e-06 	4.95591e-06 	
-72.2184 	43302.9 	174.701 	283.231 	0.35 	13.208 	-4.96358e-08 	6.77333e-05 	
0.00210055 	0.00090263 	3.64763e-20 	4.73306e-13 	2.5747e-15 	4.70731e-13 	0 	0 	0 	
0.00160867 	8.84126e-13 	0.92 	0.04 	0.04 	0.0103075 	3.91309 	
3.90279 	3.90279 	-8.02978e-08 	-1.41394e-07 	3.87102e-10 	-5.27817e-06 	5.3555e-06 	
-72.2187 	43303 	174.701 	283.231 	0.35 	13.208 	-1.08945e-08 	6.77333e-05 	
0.00210055 	0.000902628 	4.23824e-20 	5.50406e-13 	3.00107e-15 	5.47405e-13 	0 	0 	0 	
0.0016764 	5.61612e-13 	0.92 	0.04 	0.04 	0.0103075 	3.91309 	
3.90279 	3.90279 	2.76932e-07 	4.87642e-07 	2.76492e-10 	-5.10755e-06 	5.18491e-06 	
-72.2191 	43303.2 	174.7 	283.231 	0.35 	13.208 	3.67309e-08 	6.77333e-05 	
0.00210056 	0.000902627 	3.97448e-20 	5.16932e-13 	2.816e-15 	5.14116e-13 	0 	0 	0 	
0.00174413 	7.23892e-13 	0.92 	0.04 	0.04 	0.0103075 	3.91309 	
3.90279 	3.90279 	7.00805e-07 	1.23402e-06 	1.65889e-10 	-4.24924e-06 	4.3268e-06 	
-72.2195 	43303.3 	174.7 	283.231 	0.35 	13.208 	9.32406e-08 	6.77333e-05 	
0.00210056 	0.000902625 	2.80918e-20 	3.66463e-13 	1.98553e-15 	3.64477e-13 	0 	0 	0 	
0.00181187 	7.25347e-13 	0.92 	0.04 	0.04 	0.0103075 	3.91309 	
3.90279 	3.90279 	1.19132e-06 	2.09775e-06 	5.52936e-11 	-2.58576e-06 	2.66332e-06 	
-72.22 	43303.5 	174.699 	283.231 	0.35 	13.208 	1.58635e-07 	6.77333e-05 	
0.00210056 	0.000902623 	1.19653e-20 	1.57143e-13 	8.38347e-16 	1.56305e-13 	0 	0 	0 	
0.0018796 	0 	0.92 	0.04 	0.04 	0.0103075 	3.91309 	
3.90279 	3.90279 	1.74849e-06 	1.53941e-06 	5.52936e-11 	-7.69022e-07 	8.46468e-07 	
-36.1103 	21651.9 	87.3494 	141.616 	0.35 	6.604 	2.32914e-07 	3.38667e-05 	
0.00105028 	0.00045131 	3.73982e-21 	5.00595e-14 	2.54781e-16 	4.98048e-14 	0 	0 	0 	
ZONE T = "t = 1.1125e-07 [s]" I = 10 SOLUTIONTIME = 1.1125000000000E-07
0.00127 	-9.152e-13 	0.92 	0.04 	0.04 	0.0103075 	3.91309 	
3.90279 	3.90279 	-8.68324e-07 	-7.64509e-07 	9.40205e-10 	-2.71927e-07 	3.83272e-07 	
-36.1089 	21651.3 	87.3507 	141.616 	0.35 	6.604 	-1.16048e-07 	3.38667e-05 	
0.00105028 	0.000451316 	1.24468e-21 	1.12588e-14 	4.62242e-17 	1.12126e-14 	0 	0 	0 	
0.00133773 	-9.16235e-13 	0.92 	0.04 	0.04 	0.0103075 	3.91309 	
3.90279 	3.90279 	-8.4427e-07 	-1.48666e-06 	8.29586e-10 	-1.40036e-06 	1.51161e-06 	
-72.2179 	43302.7 	174.701 	283.231 	0.35 	13.208 	-1.12842e-07 	6.77333e-05 	
0.00210055 	0.000902632 	6.02055e-21 	5.44667e-14 	2.71025e-16 	5.41957e-14 	0 	0 	0 	
0.00140547 	-8.09542e-13 	0.92 	0.04 	0.04 	0.0103075 	3.91309 	
3.90279 	3.90279 	-7.53583e-07 	-1.32697e-06 	7.1896e-10 	-2.81095e-06 	2.92204e-06 	
-72.218 	43302.7 	174.701 	283.231 	0.35 	13.208 	-1.00751e-07 	6.77333e-05 	
0.00210055 	0.000902631 	1.9037e-20 	1.72277e-13 	8.98689e-16 	1.71379e-13 	0 	0 	0 	
0.0014732 	-7.02657e-13 	0.92 	0.04 	0.04 	0.0103075 	3.91309 	
3.90279 	3.90279 	-5.96263e-07 	-1.04995e-06 	6.08337e-10 	-4.00312e-06 	4.11429e-06 	
-72.2181 	43302.8 	174.701 	283.231 	0.35 	13.208 	-7.97773e-08 	6.77333e-05 	
0.00210055 	0.000902631 	3.64546e-20 	3.30067e-13 	1.75584e-15 	3.28311e-13 	0 	0 	0 	
0.00154093 	-4.8788e-13 	0.92 	0.04 	0.04 	0.0103075 	3.91309 	
3.90279 	3.90279 	-3.72309e-07 	-6.5559e-07 	4.97717e-10 	-4.85965e-06 	4.97103e-06 	
-72.2184 	43302.9 	174.701 	283.231 	0.35 	13.208 	-4.99198e-08 	6.77333e-05 	
0.00210055 	0.00090263 	5.25473e-20 	4.76176e-13 	2.55525e-15 	4.7362e-13 	0 	0 	0 	
0.00160867 	-3.80366e-13 	0.92 	0.04 	0.04 	0.0103075 	3.91309 	
3.90279 	3.90279 	-8.17176e-08 	-1.43894e-07 	3.87102e-10 	-5.26307e-06 	5.3744e-06 	
-72.2187 	43303 	174.701 	283.231 	0.35 	13.208 	-1.11784e-08 	6.77333e-05 	
0.00210055 	0.000902628 	6.10888e-20 	5.54263e-13 	2.98395e-15 	5.51279e-13 	0 	0 	0 	
0.0016764 	-2.72414e-13 	0.92 	0.04 	0.04 	0.0103075 	3.91309 	
3.90279 	3.90279 	2.75513e-07 	4.85142e-07 	2.76492e-10 	-5.09626e-06 	5.20742e-06 	
-72.2191 	43303.2 	174.7 	283.231 	0.35 	13.208 	3.6447e-08 	6.77333e-05 	
0.00210056 	0.000902627 	5.73408e-20 	5.21365e-13 	2.80348e-15 	5.18561e-13 	0 	0 	0 	
0.00174413 	-3.79179e-13 	0.92 	0.04 	0.04 	0.0103075 	3.91309 	
3.90279 	3.90279 	6.99385e-07 	1.23152e-06 	1.65889e-10 	-4.24175e-06 	4.35291e-06 	
-72.2195 	43303.3 	174.7 	283.231 	0.35 	13.208 	9.29566e-08 	6.77333e-05 	
0.00210056 	0.000902625 	4.06043e-20 	3.7074e-13 	1.97844e-15 	3.68762e-13 	0 	0 	0 	
0.00181187 	-3.77727e-13 	0.92 	0.04 	0.04 	0.0103075 	3.91309 	
3.90279 	3.90279 	1.1899e-06 	2.09525e-06 	5.52935e-11 	-2.58195e-06 	2.69339e-06 	
-72.22 	43303.5 	174.699 	283.231 	0.35 	13.208 	1.58351e-07 	6.77333e-05 	
0.00210056 	0.000902623 	1.73695e-20 	1.60125e-13 	8.358e-16 	1.59289e-13 	0 	0 	0 	
0.0018796 	0 	0.92 	0.04 	0.04 	0.0103075 	3.91309 	
3.90279 	3.90279 	1.74707e-06 	1.53816e-06 	5.52935e-11 	-7.68071e-07 	8.79703e-07 	
-36.1103 	21651.9 	87.3494 	141.616 	0.35 	6.604 	2.3263e-07 	3.38667e-05 	
0.00105028 	0.00045131 	5.49718e-21 	5.20702e-14 	2.54151e-16 	5.1816e-14 	0 	0 	0 	
ZONE T = "t = 1.61875e-07 [s]" I = 10 SOLUTIONTIME = 1.6187500000000E-07
0.00127 	-1.43911e-13 	0.92 	0.04 	0.04 	0.0103075 	3.91309 	
3.90279 	3.90279 	-8.70453e-07 	-7.66384e-07 	9.40202e-10 	-2.22724e-07 	3.84647e-07 	
-36.1089 	21651.3 	87.3507 	141.616 	0.35 	6.604 	-1.16474e-07 	3.38667e-05 	
0.00105028 	0.000451316 	1.8184e-21 	1.13328e-14 	3.97254e-17 	1.12931e-14 	0 	0 	0 	
0.00133773 	-1.4495e-13 	0.92 	0.04 	0.04 	0.0103075 	3.91309 	
3.90279 	3.90279 	-8.46399e-07 	-1.49041e-06 	8.29586e-10 	-1.35542e-06 	1.51728e-06 	
-72.2179 	43302.7 	174.701 	283.231 	0.35 	13.208 	-1.13267e-07 	6.77333e-05 	
0.00210055 	0.000902632 	8.79808e-21 	5.48647e-14 	2.58144e-16 	5.46066e-14 	0 	0 	0 	
0.00140547 	-1.45878e-13 	0.92 	0.04 	0.04 	0.0103075 	3.91309 	
3.90279 	3.90279 	-7.55713e-07 	-1.33072e-06 	7.1896e-10 	-2.77159e-06 	2.93338e-06 	
-72.218 	43302.7 	174.701 	283.231 	0.35 	13.208 	-1.01177e-07 	6.77333e-05 	
0.00210055 	0.000902631 	2.7825e-20 	1.73591e-13 	8.75419e-16 	1.72715e-13 	0 	0 	0 	
0.0014732 	-2.18358e-13 	0.92 	0.04 	0.04 	0.0103075 	3.91309 	
3.90279 	3.90279 	-5.98393e-07 	-1.0537e-06 	6.08337e-10 	-3.96936e-06 	4.13113e-06 	
-72.2181 	43302.8 	174.701 	283.231 	0.35 	13.208 	-8.02032e-08 	6.77333e-05 	
0.00210055 	0.000902631 	5.32997e-20 	3.32742e-13 	1.72717e-15 	3.31015e-13 	0 	0 	0 	
0.00154093 	-3.6231e-13 	0.92 	0.04 	0.04 	0.0103075 	3.91309 	
3.90279 	3.90279 	-3.74438e-07 	-6.5934e-07 	4.97717e-10 	-4.83147e-06 	4.99336e-06 	
-72.2184 	43302.9 	174.701 	283.231 	0.35 	13.208 	-5.03456e-08 	6.77333e-05 	
0.00210055 	0.00090263 	7.68689e-20 	4.80428e-13 	2.52604e-15 	4.77902e-13 	0 	0 	0 	
0.00160867 	-4.34161e-13 	0.92 	0.04 	0.04 	0.0103075 	3.91309 	
3.90279 	3.90279 	-8.38472e-08 	-1.47644e-07 	3.87102e-10 	-5.2406e-06 	5.40258e-06 	
-72.2187 	43303 	174.701 	283.231 	0.35 	13.208 	-1.16043e-08 	6.77333e-05 	
0.00210055 	0.000902628 	8.94409e-20 	5.6004e-13 	2.95858e-15 	5.57082e-13 	0 	0 	0 	
0.0016764 	-5.05575e-13 	0.92 	0.04 	0.04 	0.0103075 	3.91309 	
3.90279 	3.90279 	2.73383e-07 	4.81392e-07 	2.76492e-10 	-5.07937e-06 	5.24126e-06 	
-72.2191 	43303.2 	174.7 	283.231 	0.35 	13.208 	3.60211e-08 	6.77333e-05 	
0.00210056 	0.000902627 	8.40744e-20 	5.28071e-13 	2.78484e-15 	5.25286e-13 	0 	0 	0 	
0.00174413 	-4.32982e-13 	0.92 	0.04 	0.04 	0.0103075 	3.91309 	
3.90279 	3.90279 	6.97255e-07 	1.22777e-06 	1.65889e-10 	-4.23045e-06 	4.39226e-06 	
-72.2195 	43303.3 	174.7 	283.231 	0.35 	13.208 	9.25308e-08 	6.77333e-05 	
0.00210056 	0.000902625 	5.97014e-20 	3.77227e-13 	1.96775e-15 	3.75259e-13 	0 	0 	0 	
0.00181187 	-4.31533e-13 	0.92 	0.04 	0.04 	0.0103075 	3.91309 	
3.90279 	3.90279 	1.18777e-06 	2.0915e-06 	5.52936e-11 	-2.57648e-06 	2.73822e-06 	
-72.22 	43303.5 	174.699 	283.231 	0.35 	13.208 	1.57925e-07 	6.77333e-05 	
0.00210056 	0.000902623 	2.57057e-20 	1.64665e-13 	8.3212e-16 	1.63833e-13 	0 	0 	0 	
0.0018796 	0 	0.92 	0.04 	0.04 	0.0103075 	3.91309 	
3.90279 	3.90279 	1.74494e-06 	1.53629e-06 	5.52936e-11 	-7.66763e-07 	9.28524e-07 	
-36.1103 	21651.9 	87.3494 	141.616 	0.35 	6.604 	2.32204e-07 	3.38667e-05 	
0.00105028 	0.00045131 	8.28632e-21 	5.50941e-14 	2.53286e-16 	5.48408e-14 	0 	0 	0 	
ZONE T = "t = 2.37813e-07 [s]" I = 10 SOLUTIONTIME = 2.3781250000000E-07
0.00127 	7.13728e-14 	0.92 	0.04 	0.04 	0.0103075 	3.91309 	
3.90279 	3.90279 	-8.73648e-07 	-7.69197e-07 	9.40198e-10 	-1.48802e-07 	3.86708e-07 	
-36.1089 	21651.3 	87.3507 	141.616 	0.35 	6.604 	-1.17113e-07 	3.38667e-05 	
0.00105028 	0.000451316 	2.68754e-21 	1.14454e-14 	3.08861e-17 	1.14145e-14 	0 	0 	0 	
0.00133773 	7.03281e-14 	0.92 	0.04 	0.04 	0.0103075 	3.91309 	
3.90279 	3.90279 	-8.49594e-07 	-1.49604e-06 	8.29586e-10 	-1.28777e-06 	1.5257e-06 	
-72.2179 	43302.7 	174.701 	283.231 	0.35 	13.208 	-1.13906e-07 	6.77333e-05 	
0.00210055 	0.000902632 	1.30094e-20 	5.54579e-14 	2.39557e-16 	5.52184e-14 	0 	0 	0 	
0.00140547 	6.93943e-14 	0.92 	0.04 	0.04 	0.0103075 	3.91309 	
3.90279 	3.90279 	-7.58907e-07 	-1.33635e-06 	7.1896e-10 	-2.7125e-06 	2.95022e-06 	
-72.218 	43302.7 	174.701 	283.231 	0.35 	13.208 	-1.01816e-07 	6.77333e-05 	
0.00210055 	0.000902631 	4.1156e-20 	1.75552e-13 	8.41152e-16 	1.74711e-13 	0 	0 	0 	
0.0014732 	2.0823e-14 	0.92 	0.04 	0.04 	0.0103075 	3.91309 	
3.90279 	3.90279 	-6.01587e-07 	-1.05932e-06 	6.08337e-10 	-3.91882e-06 	4.15655e-06 	
-72.2181 	43302.8 	174.701 	283.231 	0.35 	13.208 	-8.0842e-08 	6.77333e-05 	
0.00210055 	0.000902631 	7.88763e-20 	3.36812e-13 	1.68471e-15 	3.35127e-13 	0 	0 	0 	
0.00154093 	1.16015e-13 	0.92 	0.04 	0.04 	0.0103075 	3.91309 	