TITLE = "Solution on Domain BulkDomain1D_0"
VARIABLES = "x [m]"  
"Vel_axial" 
"MF_sp(ECDMC)" 
"MF_sp(Li+)" 
"MF_sp(PF6-)" 
"Volt(Electroly)" 
"Volt(AnodeVolt)" 
"Potential Drop Electrode-Electrolyte [V]" 
"Surf_0 Equilibrium Potential Drop Electrode-Electrolyte [V]" 
"Overpotential_0 [V]" 
"Current Source [A/m^2]" 
"Li+ flux [kmol/m^2/s]" 
"Electrolyte Current [A/m^2]" 
"Electrode Current [A/m^2]" 
"CV Capacity discharged [A-s/m^2]" 
"Depth of discharge in CV [A-s/m^2]" 
"CV Capacity remaining [A-s/m^2]" 
"Initial CV capacity [A-s/m^2]" 
"Porosity []" 
"Surface Area [m2/m2] (area per area)" 
"Specific current (per particle area) [A/m^2]" 
"Control volume thickness [m]" 
"MoleDens Li_C6-bulk [kmol/m^3]" 
"MoleDens V_C6-bulk [kmol/m^3]" 
"qHeat_accum [J/m3]" 
"qHeat_step [W/m3]" 
"Joule_Lyte [W/m3]" 
"Joule_Solid [W/m3]" 
"electrodHeat [W/m3]" 
"OverpotHeat [W/m3]" 
"deltaSHeat [W/m3]" 

ZONE T = "ANOD, 0.0000E+00", I = 10, SOLUTIONTIME = 0.000000E+00
ZONETYPE = ORDERED
DATAPACKING = BLOCK
STRANDID = 1
 0.0000000000000E+00  8.7488888888889E-05  1.7497777777778E-04  2.6246666666667E-04  3.4995555555556E-04  4.3744444444444E-04  5.2493333333333E-04  6.1242222222222E-04  6.9991111111111E-04  7.8740000000000E-04 
 8.0556036137532E-12  2.4166809368316E-11  4.0278010269142E-11  5.6389202940529E-11  7.2500383999613E-11  8.8611550072436E-11  1.0472269777983E-10  1.2083382374051E-10  1.3694492457746E-10  1.4500046074539E-10 
 9.1999997264233E-01  9.1999997295547E-01  9.1999997389488E-01  9.1999997546058E-01  9.1999997765255E-01  9.1999998047079E-01  9.1999998391532E-01  9.1999998798612E-01  9.1999999268319E-01  9.1999999800653E-01 
 4.0000013678836E-02  4.0000013522267E-02  4.0000013052559E-02  4.0000012269712E-02  4.0000011173727E-02  4.0000009764603E-02  4.0000008042341E-02  4.0000006006942E-02  4.0000003658406E-02  4.0000000996733E-02 
 4.0000013678836E-02  4.0000013522267E-02  4.0000013052559E-02  4.0000012269712E-02  4.0000011173727E-02  4.0000009764603E-02  4.0000008042341E-02  4.0000006006942E-02  4.0000003658406E-02  4.0000000996733E-02 
 1.0249120196691E-02  1.0249120087379E-02  1.0249119759444E-02  1.0249119212886E-02  1.0249118447705E-02  1.0249117463900E-02  1.0249116261473E-02  1.0249114840424E-02  1.0249113200752E-02  1.0249111342458E-02 
 0.0000000000000E+00 -2.6544331020875E-11 -4.9965790634587E-11 -7.0264379781945E-11 -8.7440100058081E-11 -1.0149295371383E-10 -1.1242294365402E-10 -1.2023007343846E-10 -1.2491434728237E-10 -1.2647577005553E-10 
-1.0249120196691E-02 -1.0249120113923E-02 -1.0249119809410E-02 -1.0249119283150E-02 -1.0249118535145E-02 -1.0249117565393E-02 -1.0249116373896E-02 -1.0249114960654E-02 -1.0249113325666E-02 -1.0249111468934E-02 
-1.0307459482522E-02 -1.0307459394132E-02 -1.0307459071161E-02 -1.0307458513628E-02 -1.0307457721502E-02 -1.0307456694802E-02 -1.0307455433531E-02 -1.0307453937675E-02 -1.0307452207236E-02 -1.0307450242231E-02 
 5.8339285831037E-05  5.8339280208994E-05  5.8339261751326E-05  5.8339230477896E-05  5.8339186356943E-05  5.8339129408719E-05  5.8339059634496E-05  5.8338977020842E-05  5.8338881570145E-05  5.8338773297155E-05 
 1.1600715693543E-02  2.3201429151550E-02  2.3201421826278E-02  2.3201409418922E-02  2.3201391917042E-02  2.3201369328323E-02  2.3201341653798E-02  2.3201308887811E-02  2.3201271031309E-02  1.1600614045258E-02 
 1.1542358916420E-10  3.4627074924006E-10  5.7711783342576E-10  8.0796480048364E-10  1.0388116042661E-09  1.2696581835309E-09  1.5005044938502E-09  1.7313505045102E-09  1.9621961354529E-09  1.9621961354529E-09 
 0.0000000000000E+00  2.3201420717808E-02  4.6402836656475E-02  6.9604243128906E-02  9.2805635724158E-02  1.1600700901875E-01  1.3920835740510E-01  1.6240967822121E-01  1.8561096484696E-01  2.0881221211661E-01 
 1.7059771149133E-01  1.4964420458200E-01  1.3093862496809E-01  1.1223305294917E-01  9.3527492448659E-02  7.4821947389009E-02  5.6116421690506E-02  3.7410919277691E-02  1.8705444073852E-02  0.0000000000000E+00 
 1.4407436557919E+04  2.8814873691066E+04  2.8814875592718E+04  2.8814878820812E+04  2.8814883375324E+04  2.8814889256269E+04  2.8814896463642E+04  2.8814904997455E+04  2.8814914857697E+04  1.4407463022191E+04 
 1.0585588110120E+05  2.1171176277763E+05  2.1171176467928E+05  2.1171176790737E+05  2.1171177246189E+05  2.1171177834283E+05  2.1171178555020E+05  2.1171179408402E+05  2.1171180394426E+05  1.0585590756547E+05 
 3.5138634161521E+05  7.0277268265518E+05  7.0277268075353E+05  7.0277267752544E+05  7.0277267297093E+05  7.0277266708998E+05  7.0277265988261E+05  7.0277265134880E+05  7.0277264148855E+05  3.5138631515093E+05 
 4.5724222271641E+05  9.1448444543281E+05  9.1448444543281E+05  9.1448444543281E+05  9.1448444543281E+05  9.1448444543281E+05  9.1448444543281E+05  9.1448444543281E+05  9.1448444543281E+05  4.5724222271641E+05 
 3.5000000000000E-01  3.5000000000000E-01  3.5000000000000E-01  3.5000000000000E-01  3.5000000000000E-01  3.5000000000000E-01  3.5000000000000E-01  3.5000000000000E-01  3.5000000000000E-01  3.5000000000000E-01 
 8.5301666666666E+00  1.7060333333333E+01  1.7060333333333E+01  1.7060333333333E+01  1.7060333333333E+01  1.7060333333333E+01  1.7060333333333E+01  1.7060333333333E+01  1.7060333333333E+01  8.5301666666666E+00 
 1.3599635443086E-03  1.3599634132716E-03  1.3599629838970E-03  1.3599622566337E-03  1.3599612307522E-03  1.3599599067031E-03  1.3599582845469E-03  1.3599563639521E-03  1.3599541449743E-03  1.3599516279781E-03 
 4.3744444444444E-05  8.7488888888889E-05  8.7488888888889E-05  8.7488888888889E-05  8.7488888888889E-05  8.7488888888889E-05  8.7488888888889E-05  8.7488888888889E-05  8.7488888888889E-05  4.3744444444444E-05 
 8.3253146327632E+01  8.3253146259488E+01  8.3253146034211E+01  8.3253145651799E+01  8.3253145112254E+01  8.3253144415575E+01  8.3253143561762E+01  8.3253142550814E+01  8.3253141382731E+01  8.3253140057514E+01 
 2.5080187005701E+01  2.5080187073845E+01  2.5080187299122E+01  2.5080187681534E+01  2.5080188221079E+01  2.5080188917759E+01  2.5080189771572E+01  2.5080190782520E+01  2.5080191950602E+01  2.5080193275820E+01 
 0.0000000000000E+00  0.0000000000000E+00  0.0000000000000E+00  0.0000000000000E+00  0.0000000000000E+00  0.0000000000000E+00  0.0000000000000E+00  0.0000000000000E+00  0.0000000000000E+00  0.0000000000000E+00 
 0.0000000000000E+00  0.0000000000000E+00  0.0000000000000E+00  0.0000000000000E+00  0.0000000000000E+00  0.0000000000000E+00  0.0000000000000E+00  0.0000000000000E+00  0.0000000000000E+00  0.0000000000000E+00 
 0.0000000000000E+00  0.0000000000000E+00  0.0000000000000E+00  0.0000000000000E+00  0.0000000000000E+00  0.0000000000000E+00  0.0000000000000E+00  0.0000000000000E+00  0.0000000000000E+00  0.0000000000000E+00 
 0.0000000000000E+00  0.0000000000000E+00  0.0000000000000E+00  0.0000000000000E+00  0.0000000000000E+00  0.0000000000000E+00  0.0000000000000E+00  0.0000000000000E+00  0.0000000000000E+00  0.0000000000000E+00 
 0.0000000000000E+00  0.0000000000000E+00  0.0000000000000E+00  0.0000000000000E+00  0.0000000000000E+00  0.0000000000000E+00  0.0000000000000E+00  0.0000000000000E+00  0.0000000000000E+00  0.0000000000000E+00 
 0.0000000000000E+00  0.0000000000000E+00  0.0000000000000E+00  0.0000000000000E+00  0.0000000000000E+00  0.0000000000000E+00  0.0000000000000E+00  0.0000000000000E+00  0.0000000000000E+00  0.0000000000000E+00 
 0.0000000000000E+00  0.0000000000000E+00  0.0000000000000E+00  0.0000000000000E+00  0.0000000000000E+00  0.0000000000000E+00  0.0000000000000E+00  0.0000000000000E+00  0.0000000000000E+00  0.0000000000000E+00 
ZONE T = "ANOD, 1.0000E-08", I = 10, SOLUTIONTIME = 1.000000E-08
ZONETYPE = ORDERED
DATAPACKING = BLOCK
STRANDID = 1
 0.0000000000000E+00  8.7488888888889E-05  1.7497777777778E-04  2.6246666666667E-04  3.4995555555556E-04  4.3744444444444E-04  5.2493333333333E-04  6.1242222222222E-04  6.9991111111111E-04  7.8740000000000E-04 
 4.2238854722594E-16  1.2427595258965E-15 -3.6123378473831E-13  2.5511614845481E-15 -3.6029809356493E-13 -3.6022314709365E-13 -3.6049650743678E-13 -3.6118296030872E-13 -7.2555501654636E-13 -7.2640851155784E-13 
 9.1999997264233E-01  9.1999997295547E-01  9.1999997389489E-01  9.1999997546058E-01  9.1999997765255E-01  9.1999998047080E-01  9.1999998391532E-01  9.1999998798612E-01  9.1999999268319E-01  9.1999999800654E-01 
 4.0000013678834E-02  4.0000013522264E-02  4.0000013052556E-02  4.0000012269709E-02  4.0000011173724E-02  4.0000009764601E-02  4.0000008042339E-02  4.0000006006940E-02  4.0000003658403E-02  4.0000000996732E-02 
 4.0000013678834E-02  4.0000013522264E-02  4.0000013052556E-02  4.0000012269709E-02  4.0000011173724E-02  4.0000009764601E-02  4.0000008042339E-02  4.0000006006940E-02  4.0000003658403E-02  4.0000000996732E-02 
 1.0307456423546E-02  1.0307456423541E-02  1.0307456423524E-02  1.0307456423497E-02  1.0307456423462E-02  1.0307456423423E-02  1.0307456423382E-02  1.0307456423346E-02  1.0307456423318E-02  1.0307456423306E-02 
 0.0000000000000E+00  9.9880891196710E-17  3.9699482182951E-16  8.6989940182357E-16  1.4815784516808E-15  2.1794412748266E-15  2.8953226834516E-15  3.5454829803318E-15  4.0306067433561E-15  4.2358034416127E-15 
-1.0307456423546E-02 -1.0307456423541E-02 -1.0307456423523E-02 -1.0307456423496E-02 -1.0307456423461E-02 -1.0307456423421E-02 -1.0307456423379E-02 -1.0307456423342E-02 -1.0307456423314E-02 -1.0307456423302E-02 
-1.0307459482516E-02 -1.0307459394136E-02 -1.0307459071168E-02 -1.0307458513626E-02 -1.0307457721505E-02 -1.0307456694810E-02 -1.0307455433533E-02 -1.0307453937673E-02 -1.0307452207239E-02 -1.0307450242229E-02 
 3.0589694093724E-09  2.9705954935483E-09  2.6476446469276E-09  2.0901294132958E-09  1.2980436638749E-09  2.7138923226755E-10 -9.8984678960357E-10 -2.4856685928304E-09 -4.2160749336162E-09 -6.1810733371914E-09 
 6.0827310987573E-07  1.1813994961076E-06  1.0529625292894E-06  8.3124069625058E-07  5.1622920552489E-07  1.0792894078996E-07 -3.9366064804016E-07 -9.8854693266161E-07 -1.6767257424971E-06 -1.2291008759578E-06 
 5.5310293979627E-11  1.6593070224388E-10  2.7655039896654E-10  3.8716889177132E-10  4.9778567251986E-10  6.0840022957414E-10  7.1901206346154E-10  8.2962065647332E-10  9.4022501050784E-10  9.4022501050784E-10 
 0.0000000000000E+00  1.1990284515568E-06  2.3161333907802E-06  3.2582534000401E-06  3.9320509292216E-06  4.2440043518335E-06  4.1011443632053E-06  3.4101334992235E-06  2.0775422901993E-06  1.0060536587207E-08 
 9.9999183082700E-09 -1.1889729669308E-06 -2.3061539920157E-06 -3.2482555070270E-06 -3.9219904151124E-06 -4.2340695175409E-06 -4.0912036385283E-06 -3.4000999075841E-06 -2.0674636590970E-06  0.0000000000000E+00 
 1.4407436557919E+04  2.8814873691066E+04  2.8814875592718E+04  2.8814878820812E+04  2.8814883375324E+04  2.8814889256269E+04  2.8814896463642E+04  2.8814904997455E+04  2.8814914857697E+04  1.4407463022191E+04 
 1.0585588110120E+05  2.1171176277763E+05  2.1171176467928E+05  2.1171176790737E+05  2.1171177246189E+05  2.1171177834283E+05  2.1171178555020E+05  2.1171179408402E+05  2.1171180394426E+05  1.0585590756547E+05 
 3.5138634161521E+05  7.0277268265518E+05  7.0277268075353E+05  7.0277267752544E+05  7.0277267297093E+05  7.0277266708998E+05  7.0277265988261E+05  7.0277265134880E+05  7.0277264148855E+05  3.5138631515093E+05 
 4.5724222271641E+05  9.1448444543281E+05  9.1448444543281E+05  9.1448444543281E+05  9.1448444543281E+05  9.1448444543281E+05  9.1448444543281E+05  9.1448444543281E+05  9.1448444543281E+05  4.5724222271641E+05 
 3.5000000000000E-01  3.5000000000000E-01  3.5000000000000E-01  3.5000000000000E-01  3.5000000000000E-01  3.5000000000000E-01  3.5000000000000E-01  3.5000000000000E-01  3.5000000000000E-01  3.5000000000000E-01 
 8.5301666666667E+00  1.7060333333333E+01  1.7060333333333E+01  1.7060333333333E+01  1.7060333333333E+01  1.7060333333333E+01  1.7060333333333E+01  1.7060333333333E+01  1.7060333333333E+01  8.5301666666667E+00 
 7.1308467190059E-08  6.9248324345419E-08  6.1719927079739E-08  4.8723590565869E-08  3.0259033949604E-08  6.3263090281523E-09 -2.3074616442049E-08 -5.7944174556668E-08 -9.8282120855228E-08 -1.4408872932820E-07 
 4.3744444444444E-05  8.7488888888889E-05  8.7488888888889E-05  8.7488888888889E-05  8.7488888888889E-05  8.7488888888889E-05  8.7488888888889E-05  8.7488888888889E-05  8.7488888888889E-05  4.3744444444444E-05 
 8.3253146327632E+01  8.3253146259488E+01  8.3253146034211E+01  8.3253145651799E+01  8.3253145112254E+01  8.3253144415575E+01  8.3253143561762E+01  8.3253142550814E+01  8.3253141382731E+01  8.3253140057514E+01 
 2.5080187005701E+01  2.5080187073845E+01  2.5080187299122E+01  2.5080187681534E+01  2.5080188221079E+01  2.5080188917759E+01  2.5080189771572E+01  2.5080190782520E+01  2.5080191950602E+01  2.5080193275820E+01 
 4.0530950392365E-25  1.9579448746427E-24  6.1828592119516E-24  1.1824843242164E-23  1.7018525764860E-23  1.9744340957953E-23  1.8476883680227E-23  1.3013152963879E-23  5.5006758140223E-24  1.6826343687666E-24 
 4.0530950392365E-17  1.9579448746427E-16  6.1828592119516E-16  1.1824843242164E-15  1.7018525764860E-15  1.9744340957953E-15  1.8476883680227E-15  1.3013152963879E-15  5.5006758140223E-16  1.6826343687666E-16 
 3.9847937265650E-17  1.9243107966055E-16  6.0760838392900E-16  1.1620206843420E-15  1.6723730846701E-15  1.9402191012023E-15  1.8156746416183E-15  1.2787887078996E-15  5.4056984436683E-16  1.6538070022536E-16 
 6.8301312671542E-19  3.3634078037233E-18  1.0677537266166E-17  2.0463639874449E-17  2.9479491815895E-17  3.4214994593040E-17  3.2013726404385E-17  2.2526588488345E-17  9.4977370354023E-18  2.8827366512990E-18 
 0.0000000000000E+00  0.0000000000000E+00  0.0000000000000E+00  0.0000000000000E+00  0.0000000000000E+00  0.0000000000000E+00  0.0000000000000E+00  0.0000000000000E+00  0.0000000000000E+00  0.0000000000000E+00 
 0.0000000000000E+00  0.0000000000000E+00  0.0000000000000E+00  0.0000000000000E+00  0.0000000000000E+00  0.0000000000000E+00  0.0000000000000E+00  0.0000000000000E+00  0.0000000000000E+00  0.0000000000000E+00 
 0.0000000000000E+00  0.0000000000000E+00  0.0000000000000E+00  0.0000000000000E+00  0.0000000000000E+00  0.0000000000000E+00  0.0000000000000E+00  0.0000000000000E+00  0.0000000000000E+00  0.0000000000000E+00 
ZONE T = "ANOD, 2.0000E-08", I = 10, SOLUTIONTIME = 2.000000E-08
ZONETYPE = ORDERED
DATAPACKING = BLOCK
STRANDID = 1
 0.0000000000000E+00  8.7488888888889E-05  1.7497777777778E-04  2.6246666666667E-04  3.4995555555556E-04  4.3744444444444E-04  5.2493333333333E-04  6.1242222222222E-04  6.9991111111111E-04  7.8740000000000E-04 
-1.8118108866876E-13  9.0926323659399E-13  1.2732029194792E-12  1.2737809090787E-12  1.2741401538328E-12  1.8459268886637E-13 -5.4209535554353E-13 -1.6324042204891E-12 -1.6335677778844E-12 -2.3608363424834E-12 
 9.1999997264234E-01  9.1999997295548E-01  9.1999997389489E-01  9.1999997546059E-01  9.1999997765256E-01  9.1999998047080E-01  9.1999998391533E-01  9.1999998798613E-01  9.1999999268320E-01  9.1999999800654E-01 
 4.0000013678831E-02  4.0000013522262E-02  4.0000013052554E-02  4.0000012269707E-02  4.0000011173722E-02  4.0000009764598E-02  4.0000008042337E-02  4.0000006006937E-02  4.0000003658401E-02  4.0000000996731E-02 
 4.0000013678831E-02  4.0000013522262E-02  4.0000013052554E-02  4.0000012269707E-02  4.0000011173722E-02  4.0000009764598E-02  4.0000008042337E-02  4.0000006006937E-02  4.0000003658401E-02  4.0000000996731E-02 
 1.0307456420754E-02  1.0307456420749E-02  1.0307456420732E-02  1.0307456420705E-02  1.0307456420670E-02  1.0307456420631E-02  1.0307456420590E-02  1.0307456420553E-02  1.0307456420526E-02  1.0307456420514E-02 
 0.0000000000000E+00  9.8304361977773E-17  3.9402710724982E-16  8.6572600934528E-16  1.4763847830071E-15  2.1734129386658E-15  2.8886452552799E-15  3.5383419450428E-15  4.0231875244620E-15  4.2282914202291E-15 
-1.0307456420754E-02 -1.0307456420749E-02 -1.0307456420731E-02 -1.0307456420704E-02 -1.0307456420669E-02 -1.0307456420629E-02 -1.0307456420587E-02 -1.0307456420550E-02 -1.0307456420522E-02 -1.0307456420510E-02 
-1.0307459482525E-02 -1.0307459394133E-02 -1.0307459071170E-02 -1.0307458513627E-02 -1.0307457721506E-02 -1.0307456694809E-02 -1.0307455433535E-02 -1.0307453937673E-02 -1.0307452207240E-02 -1.0307450242233E-02 
 3.0617705731872E-09  2.9733847311392E-09  2.6504381415299E-09  2.0929228992245E-09  1.3008367577561E-09  2.7418044397376E-10 -9.8705243110897E-10 -2.4828767149904E-09 -4.2132817425905E-09 -6.1782773948943E-09 
 6.0883005962960E-07  1.1825097247449E-06  1.0540736538587E-06  8.3235105151653E-07  5.1734119062465E-07  1.0904048064689E-07 -3.9254965826916E-07 -9.8743613215286E-07 -1.6756153150665E-06 -1.2285449337871E-06 
 5.5310298410402E-11  1.6593070762101E-10  2.7655041266213E-10  3.8716891467545E-10  4.9778569923239E-10  6.0840026201079E-10  7.1901209909957E-10  8.2962069871786E-10  9.4022455834993E-10  9.4022455834993E-10 
 0.0000000000000E+00  1.2000409890147E-06  2.3183425633896E-06  3.2615671588950E-06  3.9364692742384E-06  4.2497113806436E-06  4.1078639290848E-06  3.4178656020028E-06  2.0863789785968E-06  2.0005459924684E-08 
 2.0000067418013E-08 -1.1800848600468E-06 -2.2983765600584E-06 -3.2415889232382E-06 -3.9164349827178E-06 -4.2296257569791E-06 -4.0878711789822E-06 -3.3978782939318E-06 -2.0663525805303E-06  0.0000000000000E+00 
 1.4407436557919E+04  2.8814873691066E+04  2.8814875592718E+04  2.8814878820812E+04  2.8814883375324E+04  2.8814889256269E+04  2.8814896463642E+04  2.8814904997455E+04  2.8814914857697E+04  1.4407463022191E+04 
 1.0585588110120E+05  2.1171176277763E+05  2.1171176467928E+05  2.1171176790737E+05  2.1171177246189E+05  2.1171177834283E+05  2.1171178555020E+05  2.1171179408402E+05  2.1171180394426E+05  1.0585590756547E+05 
 3.5138634161521E+05  7.0277268265518E+05  7.0277268075353E+05  7.0277267752544E+05  7.0277267297093E+05  7.0277266708998E+05  7.0277265988261E+05  7.0277265134880E+05  7.0277264148855E+05  3.5138631515093E+05 
 4.5724222271641E+05  9.1448444543281E+05  9.1448444543281E+05  9.1448444543281E+05  9.1448444543281E+05  9.1448444543281E+05  9.1448444543281E+05  9.1448444543281E+05  9.1448444543281E+05  4.5724222271641E+05 
 3.5000000000000E-01  3.5000000000000E-01  3.5000000000000E-01  3.5000000000000E-01  3.5000000000000E-01  3.5000000000000E-01  3.5000000000000E-01  3.5000000000000E-01  3.5000000000000E-01  3.5000000000000E-01 
 8.5301666666667E+00  1.7060333333333E+01  1.7060333333333E+01  1.7060333333333E+01  1.7060333333333E+01  1.7060333333333E+01  1.7060333333333E+01  1.7060333333333E+01  1.7060333333333E+01  8.5301666666667E+00 
 7.1373758968711E-08  6.9313400954155E-08  6.1785056203982E-08  4.8788674597010E-08  3.0324213514272E-08  6.3914624946889E-09 -2.3009495219075E-08 -5.7879064427396E-08 -9.8217032594115E-08 -1.4402355566953E-07 
 4.3744444444444E-05  8.7488888888889E-05  8.7488888888889E-05  8.7488888888889E-05  8.7488888888889E-05  8.7488888888889E-05  8.7488888888889E-05  8.7488888888889E-05  8.7488888888889E-05  4.3744444444444E-05 
 8.3253146327632E+01  8.3253146259488E+01  8.3253146034211E+01  8.3253145651799E+01  8.3253145112254E+01  8.3253144415575E+01  8.3253143561762E+01  8.3253142550814E+01  8.3253141382731E+01  8.3253140057514E+01 
 2.5080187005701E+01  2.5080187073845E+01  2.5080187299122E+01  2.5080187681534E+01  2.5080188221079E+01  2.5080188917759E+01  2.5080189771572E+01  2.5080190782520E+01  2.5080191950602E+01  2.5080193275820E+01 
 8.1112905399053E-25  3.9187026512746E-24  1.2376908752385E-23  2.3672469030742E-23  3.4074079861428E-23  3.9540237836290E-23  3.7012458385829E-23  2.6082281381032E-23  1.1039878881061E-23  3.3903990167203E-24 
 4.0581955006688E-17  1.9607577766319E-16  6.1940495404335E-16  1.1847625788577E-15  1.7055554096568E-15  1.9795896878337E-15  1.8535574705602E-15  1.3069128417153E-15  5.5392030670384E-16  1.7077646479537E-16 
 7.9768270466039E-17  3.8518237800285E-16  1.2164030201034E-15  2.3264013015795E-15  3.3485315496666E-15  3.8856654490057E-15  3.6372708139430E-15  2.5632048270562E-15  1.0850029543377E-15  3.3327703527924E-16 
 1.3446349330142E-18  6.6878871246073E-18  2.1287855135099E-17  4.0845601494645E-17  5.8876436476215E-17  6.8358334623371E-17  6.3975024639864E-17  4.5023311047011E-17  1.8984933768345E-17  5.7628663927934E-18 
 0.0000000000000E+00  0.0000000000000E+00  0.0000000000000E+00  0.0000000000000E+00  0.0000000000000E+00  0.0000000000000E+00  0.0000000000000E+00  0.0000000000000E+00  0.0000000000000E+00  0.0000000000000E+00 
 0.0000000000000E+00  0.0000000000000E+00  0.0000000000000E+00  0.0000000000000E+00  0.0000000000000E+00  0.0000000000000E+00  0.0000000000000E+00  0.0000000000000E+00  0.0000000000000E+00  0.0000000000000E+00 
 0.0000000000000E+00  0.0000000000000E+00  0.0000000000000E+00  0.0000000000000E+00  0.0000000000000E+00  0.0000000000000E+00  0.0000000000000E+00  0.0000000000000E+00  0.0000000000000E+00  0.0000000000000E+00 
ZONE T = "ANOD, 3.0000E-08", I = 10, SOLUTIONTIME = 3.000000E-08
ZONETYPE = ORDERED
DATAPACKING = BLOCK
STRANDID = 1
 0.0000000000000E+00  8.7488888888889E-05  1.7497777777778E-04  2.6246666666667E-04  3.4995555555556E-04  4.3744444444444E-04  5.2493333333333E-04  6.1242222222222E-04  6.9991111111111E-04  7.8740000000000E-04 
 3.6363088874074E-13 -7.2517038132603E-13 -3.6122992704667E-13 -7.2385889264344E-13 -1.4499143329902E-12 -1.0866301152447E-12 -1.4501096606968E-12 -1.4507945702121E-12 -1.0887496274270E-12  2.0832175429221E-17 
 9.1999997264234E-01  9.1999997295548E-01  9.1999997389490E-01  9.1999997546059E-01  9.1999997765256E-01  9.1999998047081E-01  9.1999998391533E-01  9.1999998798613E-01  9.1999999268320E-01  9.1999999800654E-01 
 4.0000013678829E-02  4.0000013522260E-02  4.0000013052551E-02  4.0000012269705E-02  4.0000011173719E-02  4.0000009764596E-02  4.0000008042334E-02  4.0000006006935E-02  4.0000003658399E-02  4.0000000996730E-02 
 4.0000013678829E-02  4.0000013522260E-02  4.0000013052551E-02  4.0000012269705E-02  4.0000011173719E-02  4.0000009764596E-02  4.0000008042334E-02  4.0000006006935E-02  4.0000003658399E-02  4.0000000996730E-02 
 1.0307456417962E-02  1.0307456417957E-02  1.0307456417940E-02  1.0307456417913E-02  1.0307456417878E-02  1.0307456417839E-02  1.0307456417798E-02  1.0307456417761E-02  1.0307456417733E-02  1.0307456417722E-02 
 0.0000000000000E+00  9.6727615031059E-17  3.9105906733751E-16  8.6155213170619E-16  1.4711908124918E-15  2.1673841108344E-15  2.8819670737171E-15  3.5311998178823E-15  4.0157670766085E-15  4.2207783470860E-15 
-1.0307456417962E-02 -1.0307456417957E-02 -1.0307456417939E-02 -1.0307456417912E-02 -1.0307456417877E-02 -1.0307456417836E-02 -1.0307456417795E-02 -1.0307456417758E-02 -1.0307456417729E-02 -1.0307456417717E-02 
-1.0307459482525E-02 -1.0307459394136E-02 -1.0307459071169E-02 -1.0307458513631E-02 -1.0307457721507E-02 -1.0307456694811E-02 -1.0307455433536E-02 -1.0307453937677E-02 -1.0307452207240E-02 -1.0307450242231E-02 
 3.0645623799036E-09  2.9761795909689E-09  2.6532295041570E-09  2.0957187669285E-09  1.3036298793928E-09  2.7697430633744E-10 -9.8425889834275E-10 -2.4800808750419E-09 -4.2104893772932E-09 -6.1754860582880E-09 
 6.0938550277435E-07  1.1836206096728E-06  1.0551845455946E-06  8.3346367792934E-07  5.1845047839710E-07  1.1015166240333E-07 -3.9143919407531E-07 -9.8632422330263E-07 -1.6745029827590E-06 -1.2279901013194E-06 
 5.5310299703742E-11  1.6593071716120E-10  2.7655042854113E-10  3.8716893088610E-10  4.9778572724594E-10  6.0840029349341E-10  7.1901213787503E-10  8.2962074008000E-10  9.4022410645971E-10  9.4022410645971E-10 
 0.0000000000000E+00  1.2012376241977E-06  2.3206437848670E-06  3.2648809177674E-06  3.9408876192677E-06  4.2552343117027E-06  4.1144914460913E-06  3.4255977048271E-06  2.0953077158524E-06  3.0133371215348E-08 
 3.0000014078920E-08 -1.1711957788134E-06 -2.2905983271570E-06 -3.2349224098035E-06 -3.9108795308266E-06 -4.2251806440563E-06 -4.0845369218745E-06 -3.3956552559844E-06 -2.0652416220968E-06  0.0000000000000E+00 
 1.4407436557919E+04  2.8814873691066E+04  2.8814875592718E+04  2.8814878820812E+04  2.8814883375324E+04  2.8814889256269E+04  2.8814896463642E+04  2.8814904997455E+04  2.8814914857697E+04  1.4407463022191E+04 
 1.0585588110120E+05  2.1171176277763E+05  2.1171176467928E+05  2.1171176790737E+05  2.1171177246189E+05  2.1171177834283E+05  2.1171178555020E+05  2.1171179408402E+05  2.1171180394426E+05  1.0585590756547E+05 
 3.5138634161521E+05  7.0277268265518E+05  7.0277268075353E+05  7.0277267752544E+05  7.0277267297093E+05  7.0277266708998E+05  7.0277265988261E+05  7.0277265134880E+05  7.0277264148855E+05  3.5138631515093E+05 
 4.5724222271641E+05  9.1448444543281E+05  9.1448444543281E+05  9.1448444543281E+05  9.1448444543281E+05  9.1448444543281E+05  9.1448444543281E+05  9.1448444543281E+05  9.1448444543281E+05  4.5724222271641E+05 
 3.5000000000000E-01  3.5000000000000E-01  3.5000000000000E-01  3.5000000000000E-01  3.5000000000000E-01  3.5000000000000E-01  3.5000000000000E-01  3.5000000000000E-01  3.5000000000000E-01  3.5000000000000E-01 
 8.5301666666667E+00  1.7060333333333E+01  1.7060333333333E+01  1.7060333333333E+01  1.7060333333333E+01  1.7060333333333E+01  1.7060333333333E+01  1.7060333333333E+01  1.7060333333333E+01  8.5301666666667E+00 
 7.1438874126064E-08  6.9378516031697E-08  6.1850171680578E-08  4.8853891752565E-08  3.0389234973746E-08  6.4565949709851E-09 -2.2944404803070E-08 -5.7813889332133E-08 -9.8151832677693E-08 -1.4395851210247E-07 
 4.3744444444444E-05  8.7488888888889E-05  8.7488888888889E-05  8.7488888888889E-05  8.7488888888889E-05  8.7488888888889E-05  8.7488888888889E-05  8.7488888888889E-05  8.7488888888889E-05  4.3744444444444E-05 
 8.3253146327632E+01  8.3253146259488E+01  8.3253146034211E+01  8.3253145651799E+01  8.3253145112254E+01  8.3253144415575E+01  8.3253143561762E+01  8.3253142550814E+01  8.3253141382731E+01  8.3253140057514E+01 
 2.5080187005701E+01  2.5080187073845E+01  2.5080187299122E+01  2.5080187681534E+01  2.5080188221079E+01  2.5080188917759E+01  2.5080189771572E+01  2.5080190782520E+01  2.5080191950602E+01  2.5080193275820E+01 
 1.2174626816963E-24  5.8829899860644E-24  1.8582308797662E-23  3.5543068256075E-23  5.1166603819939E-23  5.9386074510872E-23  5.5605967334294E-23  3.9207514694598E-23  1.6618027542799E-23  5.1239827758669E-24 
 4.0633362770572E-17  1.9642873347898E-16  6.2054000452771E-16  1.1870599225333E-15  1.7092523958510E-15  1.9845836674581E-15  1.8593508948465E-15  1.3125233313566E-15  5.5781486617379E-16  1.7335837591466E-16 
 1.1976106530602E-16  5.7832526158420E-16  1.8263997014468E-15  3.4931607674512E-15  5.0284694304437E-15  5.8361773763061E-15  5.4647128230119E-15  3.8532613013636E-15  1.6333411602540E-15  5.0375788220860E-16 
 1.9852028636035E-18  9.9737370222380E-18  3.1831178319419E-17  6.1146058156293E-17  8.8190951550204E-17  1.0243007478107E-16  9.5883910417514E-17  6.7490168096149E-17  2.8461594025854E-17  8.6403953780938E-18 
 0.0000000000000E+00  0.0000000000000E+00  0.0000000000000E+00  0.0000000000000E+00  0.0000000000000E+00  0.0000000000000E+00  0.0000000000000E+00  0.0000000000000E+00  0.0000000000000E+00  0.0000000000000E+00 
 0.0000000000000E+00  0.0000000000000E+00  0.0000000000000E+00  0.0000000000000E+00  0.0000000000000E+00  0.0000000000000E+00  0.0000000000000E+00  0.0000000000000E+00  0.0000000000000E+00  0.0000000000000E+00 
 0.0000000000000E+00  0.0000000000000E+00  0.0000000000000E+00  0.0000000000000E+00  0.0000000000000E+00  0.0000000000000E+00  0.0000000000000E+00  0.0000000000000E+00  0.0000000000000E+00  0.0000000000000E+00 
ZONE T = "ANOD, 4.0000E-08", I = 10, SOLUTIONTIME = 4.000000E-08
ZONETYPE = ORDERED
DATAPACKING = BLOCK
STRANDID = 1
 0.0000000000000E+00  8.7488888888889E-05  1.7497777777778E-04  2.6246666666667E-04  3.4995555555556E-04  4.3744444444444E-04  5.2493333333333E-04  6.1242222222222E-04  6.9991111111111E-04  7.8740000000000E-04 
-1.8118031771009E-13 -1.8035763299101E-13 -5.4283186212402E-13 -9.0546005607770E-13 -1.7868381254510E-13 -1.7860655173998E-13 -1.7887759765894E-13  9.1006144733452E-13  5.4569170578671E-13  1.8163164015115E-13 
 9.1999997264235E-01  9.1999997295549E-01  9.1999997389490E-01  9.1999997546060E-01  9.1999997765257E-01  9.1999998047081E-01  9.1999998391534E-01  9.1999998798613E-01  9.1999999268321E-01  9.1999999800654E-01 
 4.0000013678827E-02  4.0000013522257E-02  4.0000013052549E-02  4.0000012269702E-02  4.0000011173717E-02  4.0000009764593E-02  4.0000008042332E-02  4.0000006006933E-02  4.0000003658396E-02  4.0000000996729E-02 
 4.0000013678827E-02  4.0000013522257E-02  4.0000013052549E-02  4.0000012269702E-02  4.0000011173717E-02  4.0000009764593E-02  4.0000008042332E-02  4.0000006006933E-02  4.0000003658396E-02  4.0000000996729E-02 
 1.0307456415170E-02  1.0307456415164E-02  1.0307456415147E-02  1.0307456415120E-02  1.0307456415085E-02  1.0307456415046E-02  1.0307456415005E-02  1.0307456414968E-02  1.0307456414940E-02  1.0307456414929E-02 
 0.0000000000000E+00  9.5150743278081E-17  3.8809079370601E-16  8.5737809599412E-16  1.4659965324380E-15  2.1613553711773E-15  2.8752891992371E-15  3.5240583497884E-15  4.0083474122452E-15  4.2132659061057E-15 
-1.0307456415170E-02 -1.0307456415164E-02 -1.0307456415147E-02 -1.0307456415119E-02 -1.0307456415084E-02 -1.0307456415044E-02 -1.0307456415002E-02 -1.0307456414965E-02 -1.0307456414936E-02 -1.0307456414924E-02 
-1.0307459482524E-02 -1.0307459394139E-02 -1.0307459071172E-02 -1.0307458513634E-02 -1.0307457721512E-02 -1.0307456694806E-02 -1.0307455433540E-02 -1.0307453937676E-02 -1.0307452207243E-02 -1.0307450242231E-02 
 3.0673545092785E-09  2.9789755454090E-09  2.6560254724750E-09  2.0985148740243E-09  1.3064281861180E-09  2.7976269738328E-10 -9.8146195684490E-10 -2.4772884993363E-09 -4.2076930602958E-09 -6.1726928186900E-09 
 6.0994022835650E-07  1.1847315027702E-06  1.0562964558064E-06  8.3457485696258E-07  5.1956340163846E-07  1.1126168680075E-07 -3.9032772774472E-07 -9.8521376591678E-07 -1.6733922462454E-06 -1.2274344042365E-06 