TITLE = "Solution on Domain BulkDomain1D_2"
VARIABLES = "x [m]"  
"Vel_axial(0)" 	"MF_sp(ECDMC)" 	"MF_sp(Li+)" 	"MF_sp(PF6-)" 	"Volt(Electroly)" 	"Volt(CathodeVo)" 	
"Potential Drop Electrode-Electrolyte [V]" 	"Surf_0 Equilibrium Potential Drop Electrode-Electrolyte [V]" 	"Overpotential_0 [V]" 	"Current Source [A/m^2]" 	"Li+ flux [kmol/m^2/s]" 	"Electrolyte Current [A/m^2]" 	"Electrode Current [A/m^2]" 	
"Capacity discharged [A-s]" 	"Depth of discharge [-]" 	"Capacity remaining [A-s]" 	"Initial capacity [A-s]" 	"Porosity []" 	"Surface Area [m2/m2] (area per area)" 	"Specific current (per particle area) [A/m^2]" 	"Control volume thickness [m]" 	
"Moles LiCoO2 [mol/m^2] (per electrode area)" 	"Moles CoO2 [mol/m^2] (per electrode area)" 	"qHeat_accum [J/m3]" 	"qHeat_step [W/m3]" 	"Joule_Lyte [W/m3]" 	"Joule_Solid [W/m3]" 	"electrodHeat [W/m3]" 	"OverpotHeat [W/m3]" 	"deltaSHeat [W/m3]" 	

ZONE T = "t = 0 [s]" I = 10 SOLUTIONTIME = 0.0000000000000E+00
0.00127 	1.36944e-10 	0.92 	0.04 	0.04 	0.0102491 	3.9 	
0 	0 	0 	0 	0 	0.203012 	0.00580062 	
0 	0 	0 	0 	0.35 	6.604 	-0.0017567 	3.38667e-05 	
0.00105028 	0.000451316 	0 	0.0 	 0.0 	 0.0 	 0.0 	 0.0 	 0.0 	 
0.00133773 	1.20833e-10 	0.92 	0.04 	0.04 	0.0102491 	3.9 	
0 	0 	0 	0 	0 	0.18561 	0.0232025 	
0 	0 	0 	0 	0.35 	13.208 	-0.0017567 	6.77333e-05 	
0.00210055 	0.000902632 	0 	0.0 	 0.0 	 0.0 	 0.0 	 0.0 	 0.0 	 
0.00140547 	1.04721e-10 	0.92 	0.04 	0.04 	0.0102491 	3.9 	
0 	0 	0 	0 	0 	0.162407 	0.0464049 	
0 	0 	0 	0 	0.35 	13.208 	-0.00175669 	6.77333e-05 	
0.00210055 	0.000902631 	0 	0.0 	 0.0 	 0.0 	 0.0 	 0.0 	 0.0 	 
0.0014732 	8.8609e-11 	0.92 	0.04 	0.04 	0.0102491 	3.9 	
0 	0 	0 	0 	0 	0.139205 	0.0696071 	
0 	0 	0 	0 	0.35 	13.208 	-0.00175667 	6.77333e-05 	
0.00210055 	0.000902631 	0 	0.0 	 0.0 	 0.0 	 0.0 	 0.0 	 0.0 	 
0.00154093 	7.24975e-11 	0.92 	0.04 	0.04 	0.0102491 	3.9 	
0 	0 	0 	0 	0 	0.116003 	0.0928091 	
0 	0 	0 	0 	0.35 	13.208 	-0.00175665 	6.77333e-05 	
0.00210055 	0.00090263 	0 	0.0 	 0.0 	 0.0 	 0.0 	 0.0 	 0.0 	 
0.00160867 	5.63863e-11 	0.92 	0.04 	0.04 	0.0102491 	3.9 	
0 	0 	0 	0 	0 	0.0928014 	0.116011 	
0 	0 	0 	0 	0.35 	13.208 	-0.00175662 	6.77333e-05 	
0.00210055 	0.000902628 	0 	0.0 	 0.0 	 0.0 	 0.0 	 0.0 	 0.0 	 
0.0016764 	4.02754e-11 	0.92 	0.04 	0.04 	0.0102491 	3.9 	
0 	0 	0 	0 	0 	0.0696002 	0.139212 	
0 	0 	0 	0 	0.35 	13.208 	-0.00175659 	6.77333e-05 	
0.00210056 	0.000902627 	0 	0.0 	 0.0 	 0.0 	 0.0 	 0.0 	 0.0 	 
0.00174413 	2.41648e-11 	0.92 	0.04 	0.04 	0.0102491 	3.9 	
0 	0 	0 	0 	0 	0.0463995 	0.162413 	
0 	0 	0 	0 	0.35 	13.208 	-0.00175654 	6.77333e-05 	
0.00210056 	0.000902625 	0 	0.0 	 0.0 	 0.0 	 0.0 	 0.0 	 0.0 	 
0.00181187 	8.05477e-12 	0.92 	0.04 	0.04 	0.0102491 	3.9 	
0 	0 	0 	0 	0 	0.0231994 	0.185613 	
0 	0 	0 	0 	0.35 	13.208 	-0.00175649 	6.77333e-05 	
0.00210056 	0.000902623 	0 	0.0 	 0.0 	 0.0 	 0.0 	 0.0 	 0.0 	 
0.0018796 	0 	0.92 	0.04 	0.04 	0.0102491 	3.9 	
0 	0 	0 	0 	0 	0.00579976 	0.203012 	
0 	0 	0 	0 	0.35 	6.604 	-0.00175644 	3.38667e-05 	
0.00105028 	0.00045131 	0 	0.0 	 0.0 	 0.0 	 0.0 	 0.0 	 0.0 	 
ZONE T = "t = 0 [s]" I = 10 SOLUTIONTIME = 0.0000000000000E+00
0.00127 	1.36944e-10 	0.92 	0.04 	0.04 	0.0102491 	3.9 	
3.88975 	3.90279 	-0.0130363 	-0.0116012 	1.96219e-09 	0.203012 	0.00580062 	
-36.1089 	21651.3 	87.3507 	141.616 	0.35 	6.604 	-0.0017567 	3.38667e-05 	
0.00105028 	0.000451316 	0 	0 	0 	0 	0 	0 	0 	
0.00133773 	1.20833e-10 	0.92 	0.04 	0.04 	0.0102491 	3.9 	
3.88975 	3.90279 	-0.0130363 	-0.0232025 	1.73133e-09 	0.18561 	0.0232025 	
-72.2179 	43302.7 	174.701 	283.231 	0.35 	13.208 	-0.0017567 	6.77333e-05 	
0.00210055 	0.000902632 	0 	0 	0 	0 	0 	0 	0 	
0.00140547 	1.04721e-10 	0.92 	0.04 	0.04 	0.0102491 	3.9 	
3.88975 	3.90279 	-0.0130362 	-0.0232023 	1.50048e-09 	0.162407 	0.0464049 	
-72.218 	43302.7 	174.701 	283.231 	0.35 	13.208 	-0.00175669 	6.77333e-05 	
0.00210055 	0.000902631 	0 	0 	0 	0 	0 	0 	0 	
0.0014732 	8.8609e-11 	0.92 	0.04 	0.04 	0.0102491 	3.9 	
3.88975 	3.90279 	-0.0130361 	-0.0232021 	1.26962e-09 	0.139205 	0.0696071 	
-72.2181 	43302.8 	174.701 	283.231 	0.35 	13.208 	-0.00175667 	6.77333e-05 	
0.00210055 	0.000902631 	0 	0 	0 	0 	0 	0 	0 	
0.00154093 	7.24975e-11 	0.92 	0.04 	0.04 	0.0102491 	3.9 	
3.88975 	3.90279 	-0.013036 	-0.0232018 	1.03877e-09 	0.116003 	0.0928091 	
-72.2184 	43302.9 	174.701 	283.231 	0.35 	13.208 	-0.00175665 	6.77333e-05 	
0.00210055 	0.00090263 	0 	0 	0 	0 	0 	0 	0 	
0.00160867 	5.63863e-11 	0.92 	0.04 	0.04 	0.0102491 	3.9 	
3.88975 	3.90279 	-0.0130358 	-0.0232015 	8.07923e-10 	0.0928014 	0.116011 	
-72.2187 	43303 	174.701 	283.231 	0.35 	13.208 	-0.00175662 	6.77333e-05 	
0.00210055 	0.000902628 	0 	0 	0 	0 	0 	0 	0 	
0.0016764 	4.02754e-11 	0.92 	0.04 	0.04 	0.0102491 	3.9 	
3.88975 	3.90279 	-0.0130356 	-0.023201 	5.7708e-10 	0.0696002 	0.139212 	
-72.2191 	43303.2 	174.7 	283.231 	0.35 	13.208 	-0.00175659 	6.77333e-05 	
0.00210056 	0.000902627 	0 	0 	0 	0 	0 	0 	0 	
0.00174413 	2.41648e-11 	0.92 	0.04 	0.04 	0.0102491 	3.9 	
3.88975 	3.90279 	-0.0130353 	-0.0232004 	3.46243e-10 	0.0463995 	0.162413 	
-72.2195 	43303.3 	174.7 	283.231 	0.35 	13.208 	-0.00175654 	6.77333e-05 	
0.00210056 	0.000902625 	0 	0 	0 	0 	0 	0 	0 	
0.00181187 	8.05477e-12 	0.92 	0.04 	0.04 	0.0102491 	3.9 	
3.88975 	3.90279 	-0.013035 	-0.0231998 	1.15412e-10 	0.0231994 	0.185613 	
-72.22 	43303.5 	174.699 	283.231 	0.35 	13.208 	-0.00175649 	6.77333e-05 	
0.00210056 	0.000902623 	0 	0 	0 	0 	0 	0 	0 	
0.0018796 	0 	0.92 	0.04 	0.04 	0.0102491 	3.9 	
3.88975 	3.90279 	-0.0130347 	-0.0115995 	1.15412e-10 	0.00579976 	0.203012 	
-36.1103 	21651.9 	87.3494 	141.616 	0.35 	6.604 	-0.00175644 	3.38667e-05 	
0.00105028 	0.00045131 	0 	0 	0 	0 	0 	0 	0 	
ZONE T = "t = 0 [s]" I = 10 SOLUTIONTIME = 0.0000000000000E+00
0.00127 	1.36944e-10 	0.92 	0.04 	0.04 	0.0102491 	3.9 	
3.88975 	3.90279 	-0.0130363 	-0.0116012 	1.96219e-09 	0.203012 	0.00580062 	
-36.1089 	21651.3 	87.3507 	141.616 	0.35 	6.604 	-0.0017567 	3.38667e-05 	
0.00105028 	0.000451316 	0 	0 	0 	0 	0 	0 	0 	
0.00133773 	1.20833e-10 	0.92 	0.04 	0.04 	0.0102491 	3.9 	
3.88975 	3.90279 	-0.0130363 	-0.0232025 	1.73133e-09 	0.18561 	0.0232025 	
-72.2179 	43302.7 	174.701 	283.231 	0.35 	13.208 	-0.0017567 	6.77333e-05 	
0.00210055 	0.000902632 	0 	0 	0 	0 	0 	0 	0 	
0.00140547 	1.04721e-10 	0.92 	0.04 	0.04 	0.0102491 	3.9 	
3.88975 	3.90279 	-0.0130362 	-0.0232023 	1.50048e-09 	0.162407 	0.0464049 	
-72.218 	43302.7 	174.701 	283.231 	0.35 	13.208 	-0.00175669 	6.77333e-05 	
0.00210055 	0.000902631 	0 	0 	0 	0 	0 	0 	0 	
0.0014732 	8.8609e-11 	0.92 	0.04 	0.04 	0.0102491 	3.9 	
3.88975 	3.90279 	-0.0130361 	-0.0232021 	1.26962e-09 	0.139205 	0.0696071 	
-72.2181 	43302.8 	174.701 	283.231 	0.35 	13.208 	-0.00175667 	6.77333e-05 	
0.00210055 	0.000902631 	0 	0 	0 	0 	0 	0 	0 	
0.00154093 	7.24975e-11 	0.92 	0.04 	0.04 	0.0102491 	3.9 	
3.88975 	3.90279 	-0.013036 	-0.0232018 	1.03877e-09 	0.116003 	0.0928091 	
-72.2184 	43302.9 	174.701 	283.231 	0.35 	13.208 	-0.00175665 	6.77333e-05 	
0.00210055 	0.00090263 	0 	0 	0 	0 	0 	0 	0 	
0.00160867 	5.63863e-11 	0.92 	0.04 	0.04 	0.0102491 	3.9 	
3.88975 	3.90279 	-0.0130358 	-0.0232015 	8.07923e-10 	0.0928014 	0.116011 	
-72.2187 	43303 	174.701 	283.231 	0.35 	13.208 	-0.00175662 	6.77333e-05 	
0.00210055 	0.000902628 	0 	0 	0 	0 	0 	0 	0 	
0.0016764 	4.02754e-11 	0.92 	0.04 	0.04 	0.0102491 	3.9 	
3.88975 	3.90279 	-0.0130356 	-0.023201 	5.7708e-10 	0.0696002 	0.139212 	
-72.2191 	43303.2 	174.7 	283.231 	0.35 	13.208 	-0.00175659 	6.77333e-05 	
0.00210056 	0.000902627 	0 	0 	0 	0 	0 	0 	0 	
0.00174413 	2.41648e-11 	0.92 	0.04 	0.04 	0.0102491 	3.9 	
3.88975 	3.90279 	-0.0130353 	-0.0232004 	3.46243e-10 	0.0463995 	0.162413 	
-72.2195 	43303.3 	174.7 	283.231 	0.35 	13.208 	-0.00175654 	6.77333e-05 	
0.00210056 	0.000902625 	0 	0 	0 	0 	0 	0 	0 	
0.00181187 	8.05477e-12 	0.92 	0.04 	0.04 	0.0102491 	3.9 	
3.88975 	3.90279 	-0.013035 	-0.0231998 	1.15412e-10 	0.0231994 	0.185613 	
-72.22 	43303.5 	174.699 	283.231 	0.35 	13.208 	-0.00175649 	6.77333e-05 	
0.00210056 	0.000902623 	0 	0 	0 	0 	0 	0 	0 	
0.0018796 	0 	0.92 	0.04 	0.04 	0.0102491 	3.9 	
3.88975 	3.90279 	-0.0130347 	-0.0115995 	1.15412e-10 	0.00579976 	0.203012 	
-36.1103 	21651.9 	87.3494 	141.616 	0.35 	6.604 	-0.00175644 	3.38667e-05 	
0.00105028 	0.00045131 	0 	0 	0 	0 	0 	0 	0 	
ZONE T = "t = 1e-08 [s]" I = 10 SOLUTIONTIME = 1.0000000000000E-08
0.00127 	9.0697e-13 	0.92 	0.04 	0.04 	0.0103075 	3.91309 	
3.88975 	3.90279 	-0.0130363 	-0.0116012 	1.96219e-09 	-3.69463e-07 	3.80355e-07 	
-36.1089 	21651.3 	87.3507 	141.616 	0.35 	6.604 	-1.15532e-07 	3.38667e-05 	
0.00105028 	0.000451316 	0 	0 	0 	0 	0 	0 	0 	
0.00133773 	1.785e-13 	0.92 	0.04 	0.04 	0.0103075 	3.91309 	
3.88975 	3.90279 	-0.0130363 	-0.0232025 	1.73133e-09 	-1.49037e-06 	1.50033e-06 	
-72.2179 	43302.7 	174.701 	283.231 	0.35 	13.208 	-1.12325e-07 	6.77333e-05 	
0.00210055 	0.000902632 	0 	0 	0 	0 	0 	0 	0 	
0.00140547 	-1.8654e-13 	0.92 	0.04 	0.04 	0.0103075 	3.91309 	
3.88975 	3.90279 	-0.0130362 	-0.0232023 	1.50048e-09 	-2.88966e-06 	2.89965e-06 	
-72.218 	43302.7 	174.701 	283.231 	0.35 	13.208 	-1.00234e-07 	6.77333e-05 	
0.00210055 	0.000902631 	0 	0 	0 	0 	0 	0 	0 	
0.0014732 	-1.27761e-12 	0.92 	0.04 	0.04 	0.0103075 	3.91309 	
3.88975 	3.90279 	-0.0130361 	-0.0232021 	1.26962e-09 	-4.07066e-06 	4.08056e-06 	
-72.2181 	43302.8 	174.701 	283.231 	0.35 	13.208 	-7.92594e-08 	6.77333e-05 	
0.00210055 	0.000902631 	0 	0 	0 	0 	0 	0 	0 	
0.00154093 	-1.27851e-12 	0.92 	0.04 	0.04 	0.0103075 	3.91309 	
3.88975 	3.90279 	-0.013036 	-0.0232018 	1.03877e-09 	-4.91577e-06 	4.92587e-06 	
-72.2184 	43302.9 	174.701 	283.231 	0.35 	13.208 	-4.94014e-08 	6.77333e-05 	
0.00210055 	0.00090263 	0 	0 	0 	0 	0 	0 	0 	
0.00160867 	-1.2787e-12 	0.92 	0.04 	0.04 	0.0103075 	3.91309 	
3.88975 	3.90279 	-0.0130358 	-0.0232015 	8.07923e-10 	-5.30813e-06 	5.31815e-06 	
-72.2187 	43303 	174.701 	283.231 	0.35 	13.208 	-1.06596e-08 	6.77333e-05 	
0.00210055 	0.000902628 	0 	0 	0 	0 	0 	0 	0 	
0.0016764 	-9.14809e-13 	0.92 	0.04 	0.04 	0.0103075 	3.91309 	
3.88975 	3.90279 	-0.0130356 	-0.023201 	5.7708e-10 	-5.13002e-06 	5.14002e-06 	
-72.2191 	43303.2 	174.7 	283.231 	0.35 	13.208 	3.69662e-08 	6.77333e-05 	
0.00210056 	0.000902627 	0 	0 	0 	0 	0 	0 	0 	
0.00174413 	-5.4988e-13 	0.92 	0.04 	0.04 	0.0103075 	3.91309 	
3.88975 	3.90279 	-0.0130353 	-0.0232004 	3.46243e-10 	-4.2641e-06 	4.27425e-06 	
-72.2195 	43303.3 	174.7 	283.231 	0.35 	13.208 	9.34762e-08 	6.77333e-05 	
0.00210056 	0.000902625 	0 	0 	0 	0 	0 	0 	0 	
0.00181187 	-9.10168e-13 	0.92 	0.04 	0.04 	0.0103075 	3.91309 	
3.88975 	3.90279 	-0.013035 	-0.0231998 	1.15412e-10 	-2.59325e-06 	2.60325e-06 	
-72.22 	43303.5 	174.699 	283.231 	0.35 	13.208 	1.58871e-07 	6.77333e-05 	
0.00210056 	0.000902623 	0 	0 	0 	0 	0 	0 	0 	
0.0018796 	0 	0.92 	0.04 	0.04 	0.0103075 	3.91309 	
3.88975 	3.90279 	-0.0130347 	-0.0115995 	1.15412e-10 	-7.70924e-07 	7.81817e-07 	
-36.1103 	21651.9 	87.3494 	141.616 	0.35 	6.604 	2.3315e-07 	3.38667e-05 	
0.00105028 	0.00045131 	0 	0 	0 	0 	0 	0 	0 	
ZONE T = "t = 2e-08 [s]" I = 10 SOLUTIONTIME = 2.0000000000000E-08
0.00127 	-2.36189e-12 	0.92 	0.04 	0.04 	0.0103075 	3.91309 	
3.90279 	3.90279 	-8.66586e-07 	-7.62974e-07 	9.40211e-10 	-3.60541e-07 	3.80568e-07 	
-36.1089 	21651.3 	87.3507 	141.616 	0.35 	6.604 	-1.15281e-07 	3.38667e-05 	
0.00105028 	0.000451316 	0 	0 	0 	0 	0 	0 	0 	
0.00133773 	-2.36395e-12 	0.92 	0.04 	0.04 	0.0103075 	3.91309 	
3.90279 	3.90279 	-8.42532e-07 	-1.48358e-06 	8.29585e-10 	-1.48145e-06 	1.50139e-06 	
-72.2179 	43302.7 	174.701 	283.231 	0.35 	13.208 	-1.12074e-07 	6.77333e-05 	
0.00210055 	0.000902632 	0 	0 	0 	0 	0 	0 	0 	
0.00140547 	-2.00258e-12 	0.92 	0.04 	0.04 	0.0103075 	3.91309 	
3.90279 	3.90279 	-7.51845e-07 	-1.32389e-06 	7.1896e-10 	-2.88193e-06 	2.90199e-06 	
-72.218 	43302.7 	174.701 	283.231 	0.35 	13.208 	-9.9984e-08 	6.77333e-05 	
0.00210055 	0.000902631 	0 	0 	0 	0 	0 	0 	0 	
0.0014732 	-1.27761e-12 	0.92 	0.04 	0.04 	0.0103075 	3.91309 	
3.90279 	3.90279 	-5.94524e-07 	-1.04686e-06 	6.08337e-10 	-4.064e-06 	4.08397e-06 	
-72.2181 	43302.8 	174.701 	283.231 	0.35 	13.208 	-7.901e-08 	6.77333e-05 	
0.00210055 	0.000902631 	0 	0 	0 	0 	0 	0 	0 	
0.00154093 	-2.00493e-12 	0.92 	0.04 	0.04 	0.0103075 	3.91309 	
3.90279 	3.90279 	-3.70568e-07 	-6.52493e-07 	4.97717e-10 	-4.91042e-06 	4.93034e-06 	
-72.2184 	43302.9 	174.701 	283.231 	0.35 	13.208 	-4.91523e-08 	6.77333e-05 	
0.00210055 	0.00090263 	0 	0 	0 	0 	0 	0 	0 	
0.00160867 	-2.00512e-12 	0.92 	0.04 	0.04 	0.0103075 	3.91309 	
3.90279 	3.90279 	-7.99758e-08 	-1.40792e-07 	3.87102e-10 	-5.30373e-06 	5.32369e-06 	
-72.2187 	43303 	174.701 	283.231 	0.35 	13.208 	-1.04107e-08 	6.77333e-05 	
0.00210055 	0.000902628 	0 	0 	0 	0 	0 	0 	0 	
0.0016764 	-2.00444e-12 	0.92 	0.04 	0.04 	0.0103075 	3.91309 	
3.90279 	3.90279 	2.77256e-07 	4.8825e-07 	2.76492e-10 	-5.12669e-06 	5.14662e-06 	
-72.2191 	43303.2 	174.7 	283.231 	0.35 	13.208 	3.72149e-08 	6.77333e-05 	
0.00210056 	0.000902627 	0 	0 	0 	0 	0 	0 	0 	
0.00174413 	-2.00272e-12 	0.92 	0.04 	0.04 	0.0103075 	3.91309 	
3.90279 	3.90279 	7.01129e-07 	1.23463e-06 	1.65889e-10 	-4.26196e-06 	4.28214e-06 	
-72.2195 	43303.3 	174.7 	283.231 	0.35 	13.208 	9.37247e-08 	6.77333e-05 	
0.00210056 	0.000902625 	0 	0 	0 	0 	0 	0 	0 	
0.00181187 	-1.63659e-12 	0.92 	0.04 	0.04 	0.0103075 	3.91309 	
3.90279 	3.90279 	1.19165e-06 	2.09836e-06 	5.52935e-11 	-2.59218e-06 	2.6122e-06 	
-72.22 	43303.5 	174.699 	283.231 	0.35 	13.208 	1.59119e-07 	6.77333e-05 	
0.00210056 	0.000902623 	0 	0 	0 	0 	0 	0 	0 	
0.0018796 	0 	0.92 	0.04 	0.04 	0.0103075 	3.91309 	
3.90279 	3.90279 	1.74882e-06 	1.53972e-06 	5.52935e-11 	-7.70686e-07 	7.90373e-07 	
-36.1103 	21651.9 	87.3494 	141.616 	0.35 	6.604 	2.33398e-07 	3.38667e-05 	
0.00105028 	0.00045131 	0 	0 	0 	0 	0 	0 	0 	
ZONE T = "t = 3e-08 [s]" I = 10 SOLUTIONTIME = 3.0000000000000E-08
0.00127 	-1.09066e-12 	0.92 	0.04 	0.04 	0.0103075 	3.91309 	
3.90279 	3.90279 	-8.64699e-07 	-7.61318e-07 	9.4021e-10 	-3.50752e-07 	3.80781e-07 	
-36.1089 	21651.3 	87.3507 	141.616 	0.35 	6.604 	-1.15365e-07 	3.38667e-05 	
0.00105028 	0.000451316 	0 	0 	0 	0 	0 	0 	0 	
0.00133773 	-3.66302e-13 	0.92 	0.04 	0.04 	0.0103075 	3.91309 	
3.90279 	3.90279 	-8.40645e-07 	-1.48028e-06 	8.29585e-10 	-1.47253e-06 	1.50246e-06 	
-72.2179 	43302.7 	174.701 	283.231 	0.35 	13.208 	-1.12159e-07 	6.77333e-05 	
0.00210055 	0.000902632 	0 	0 	0 	0 	0 	0 	0 	
0.00140547 	-4.93023e-15 	0.92 	0.04 	0.04 	0.0103075 	3.91309 	
3.90279 	3.90279 	-7.49958e-07 	-1.32059e-06 	7.1896e-10 	-2.8742e-06 	2.90412e-06 	
-72.218 	43302.7 	174.701 	283.231 	0.35 	13.208 	-1.00068e-07 	6.77333e-05 	
0.00210055 	0.000902631 	0 	0 	0 	0 	0 	0 	0 	
0.0014732 	-6.38109e-15 	0.92 	0.04 	0.04 	0.0103075 	3.91309 	
3.90279 	3.90279 	-5.92637e-07 	-1.04356e-06 	6.08337e-10 	-4.05734e-06 	4.08738e-06 	
-72.2181 	43302.8 	174.701 	283.231 	0.35 	13.208 	-7.90941e-08 	6.77333e-05 	
0.00210055 	0.000902631 	0 	0 	0 	0 	0 	0 	0 	
0.00154093 	7.19131e-13 	0.92 	0.04 	0.04 	0.0103075 	3.91309 	
3.90279 	3.90279 	-3.68681e-07 	-6.49203e-07 	4.97717e-10 	-4.90471e-06 	4.93482e-06 	
-72.2184 	43302.9 	174.701 	283.231 	0.35 	13.208 	-4.92364e-08 	6.77333e-05 	
0.00210055 	0.00090263 	0 	0 	0 	0 	0 	0 	0 	
0.00160867 	1.08215e-12 	0.92 	0.04 	0.04 	0.0103075 	3.91309 	
3.90279 	3.90279 	-7.80889e-08 	-1.37505e-07 	3.87102e-10 	-5.29921e-06 	5.32923e-06 	
-72.2187 	43303 	174.701 	283.231 	0.35 	13.208 	-1.04948e-08 	6.77333e-05 	
0.00210055 	0.000902628 	0 	0 	0 	0 	0 	0 	0 	
0.0016764 	7.1962e-13 	0.92 	0.04 	0.04 	0.0103075 	3.91309 	
3.90279 	3.90279 	2.79143e-07 	4.91534e-07 	2.76492e-10 	-5.12336e-06 	5.15344e-06 	
-72.2191 	43303.2 	174.7 	283.231 	0.35 	13.208 	3.71307e-08 	6.77333e-05 	
0.00210056 	0.000902627 	0 	0 	0 	0 	0 	0 	0 	
0.00174413 	3.5813e-13 	0.92 	0.04 	0.04 	0.0103075 	3.91309 	
3.90279 	3.90279 	7.03016e-07 	1.23792e-06 	1.65889e-10 	-4.2597e-06 	4.28981e-06 	
-72.2195 	43303.3 	174.7 	283.231 	0.35 	13.208 	9.36406e-08 	6.77333e-05 	
0.00210056 	0.000902625 	0 	0 	0 	0 	0 	0 	0 	
0.00181187 	3.61047e-13 	0.92 	0.04 	0.04 	0.0103075 	3.91309 	
3.90279 	3.90279 	1.19354e-06 	2.10164e-06 	5.52935e-11 	-2.59111e-06 	2.62115e-06 	
-72.22 	43303.5 	174.699 	283.231 	0.35 	13.208 	1.59035e-07 	6.77333e-05 	
0.00210056 	0.000902623 	0 	0 	0 	0 	0 	0 	0 	
0.0018796 	0 	0.92 	0.04 	0.04 	0.0103075 	3.91309 	
3.90279 	3.90279 	1.7507e-06 	1.54136e-06 	5.52935e-11 	-7.70448e-07 	8.00453e-07 	
-36.1103 	21651.9 	87.3494 	141.616 	0.35 	6.604 	2.33314e-07 	3.38667e-05 	
0.00105028 	0.00045131 	0 	0 	0 	0 	0 	0 	0 	
ZONE T = "t = 4e-08 [s]" I = 10 SOLUTIONTIME = 4.0000000000000E-08
0.00127 	7.25384e-13 	0.92 	0.04 	0.04 	0.0103075 	3.91309 	
3.90279 	3.90279 	-8.6533e-07 	-7.61874e-07 	9.40209e-10 	-3.412e-07 	3.81208e-07 	
-36.1089 	21651.3 	87.3507 	141.616 	0.35 	6.604 	-1.1545e-07 	3.38667e-05 	
0.00105028 	0.000451316 	0 	0 	0 	0 	0 	0 	0 	
0.00133773 	-3.09001e-15 	0.92 	0.04 	0.04 	0.0103075 	3.91309 	
3.90279 	3.90279 	-8.41276e-07 	-1.48139e-06 	8.29585e-10 	-1.46361e-06 	1.50373e-06 	
-72.2179 	43302.7 	174.701 	283.231 	0.35 	13.208 	-1.12243e-07 	6.77333e-05 	
0.00210055 	0.000902632 	0 	0 	0 	0 	0 	0 	0 	
0.00140547 	-7.31343e-13 	0.92 	0.04 	0.04 	0.0103075 	3.91309 	
3.90279 	3.90279 	-7.50589e-07 	-1.3217e-06 	7.1896e-10 	-2.86635e-06 	2.90625e-06 	
-72.218 	43302.7 	174.701 	283.231 	0.35 	13.208 	-1.00152e-07 	6.77333e-05 	
0.00210055 	0.000902631 	0 	0 	0 	0 	0 	0 	0 	
0.0014732 	-1.096e-12 	0.92 	0.04 	0.04 	0.0103075 	3.91309 	
3.90279 	3.90279 	-5.93268e-07 	-1.04467e-06 	6.08337e-10 	-4.05068e-06 	4.09058e-06 	
-72.2181 	43302.8 	174.701 	283.231 	0.35 	13.208 	-7.91782e-08 	6.77333e-05 	
0.00210055 	0.000902631 	0 	0 	0 	0 	0 	0 	0 	
0.00154093 	-1.09691e-12 	0.92 	0.04 	0.04 	0.0103075 	3.91309 	
3.90279 	3.90279 	-3.69312e-07 	-6.50314e-07 	4.97717e-10 	-4.89924e-06 	4.93929e-06 	
-72.2184 	43302.9 	174.701 	283.231 	0.35 	13.208 	-4.93205e-08 	6.77333e-05 	
0.00210055 	0.00090263 	0 	0 	0 	0 	0 	0 	0 	
0.00160867 	-1.0971e-12 	0.92 	0.04 	0.04 	0.0103075 	3.91309 	
3.90279 	3.90279 	-7.87199e-08 	-1.38616e-07 	3.87102e-10 	-5.29481e-06 	5.33477e-06 	
-72.2187 	43303 	174.701 	283.231 	0.35 	13.208 	-1.0579e-08 	6.77333e-05 	
0.00210055 	0.000902628 	0 	0 	0 	0 	0 	0 	0 	
0.0016764 	-7.33214e-13 	0.92 	0.04 	0.04 	0.0103075 	3.91309 	
3.90279 	3.90279 	2.78512e-07 	4.90423e-07 	2.76492e-10 	-5.12003e-06 	5.16005e-06 	
-72.2191 	43303.2 	174.7 	283.231 	0.35 	13.208 	3.70466e-08 	6.77333e-05 	
0.00210056 	0.000902627 	0 	0 	0 	0 	0 	0 	0 	
0.00174413 	-3.6829e-13 	0.92 	0.04 	0.04 	0.0103075 	3.91309 	
3.90279 	3.90279 	7.02385e-07 	1.2368e-06 	1.65889e-10 	-4.25756e-06 	4.29748e-06 	
-72.2195 	43303.3 	174.7 	283.231 	0.35 	13.208 	9.35564e-08 	6.77333e-05 	
0.00210056 	0.000902625 	0 	0 	0 	0 	0 	0 	0 	
0.00181187 	-2.16689e-15 	0.92 	0.04 	0.04 	0.0103075 	3.91309 	
3.90279 	3.90279 	1.1929e-06 	2.10053e-06 	5.52935e-11 	-2.58992e-06 	2.62988e-06 	
-72.22 	43303.5 	174.699 	283.231 	0.35 	13.208 	1.58951e-07 	6.77333e-05 	
0.00210056 	0.000902623 	0 	0 	0 	0 	0 	0 	0 	
0.0018796 	0 	0.92 	0.04 	0.04 	0.0103075 	3.91309 	
3.90279 	3.90279 	1.75007e-06 	1.54081e-06 	5.52935e-11 	-7.70092e-07 	8.10106e-07 	
-36.1103 	21651.9 	87.3494 	141.616 	0.35 	6.604 	2.3323e-07 	3.38667e-05 	
0.00105028 	0.00045131 	0 	0 	0 	0 	0 	0 	0 	
ZONE T = "t = 5.5e-08 [s]" I = 10 SOLUTIONTIME = 5.5000000000000E-08
0.00127 	-1.09065e-12 	0.92 	0.04 	0.04 	0.0103075 	3.91309 	
3.90279 	3.90279 	-8.65961e-07 	-7.62429e-07 	9.40209e-10 	-3.26753e-07 	3.81634e-07 	
-36.1089 	21651.3 	87.3507 	141.616 	0.35 	6.604 	-1.15576e-07 	3.38667e-05 	
0.00105028 	0.000451316 	0 	0 	0 	0 	0 	0 	0 	
0.00133773 	-1.09271e-12 	0.92 	0.04 	0.04 	0.0103075 	3.91309 	
3.90279 	3.90279 	-8.41907e-07 	-1.4825e-06 	8.29585e-10 	-1.45042e-06 	1.50523e-06 	
-72.2179 	43302.7 	174.701 	283.231 	0.35 	13.208 	-1.12369e-07 	6.77333e-05 	
0.00210055 	0.000902632 	0 	0 	0 	0 	0 	0 	0 	
0.00140547 	-8.52407e-13 	0.92 	0.04 	0.04 	0.0103075 	3.91309 	
3.90279 	3.90279 	-7.5122e-07 	-1.32281e-06 	7.1896e-10 	-2.85458e-06 	2.90966e-06 	
-72.218 	43302.7 	174.701 	283.231 	0.35 	13.208 	-1.00278e-07 	6.77333e-05 	
0.00210055 	0.000902631 	0 	0 	0 	0 	0 	0 	0 	
0.0014732 	-8.53862e-13 	0.92 	0.04 	0.04 	0.0103075 	3.91309 	
3.90279 	3.90279 	-5.93899e-07 	-1.04579e-06 	6.08337e-10 	-4.04057e-06 	4.09569e-06 	
-72.2181 	43302.8 	174.701 	283.231 	0.35 	13.208 	-7.93044e-08 	6.77333e-05 	
0.00210055 	0.000902631 	0 	0 	0 	0 	0 	0 	0 	
0.00154093 	-8.54769e-13 	0.92 	0.04 	0.04 	0.0103075 	3.91309 	
3.90279 	3.90279 	-3.69943e-07 	-6.51425e-07 	4.97717e-10 	-4.89092e-06 	4.9459e-06 	
-72.2184 	43302.9 	174.701 	283.231 	0.35 	13.208 	-4.94467e-08 	6.77333e-05 	
0.00210055 	0.00090263 	0 	0 	0 	0 	0 	0 	0 	
0.00160867 	-1.0971e-12 	0.92 	0.04 	0.04 	0.0103075 	3.91309 	
3.90279 	3.90279 	-7.93509e-08 	-1.39727e-07 	3.87102e-10 	-5.28815e-06 	5.34308e-06 	
-72.2187 	43303 	174.701 	283.231 	0.35 	13.208 	-1.07052e-08 	6.77333e-05 	
0.00210055 	0.000902628 	0 	0 	0 	0 	0 	0 	0 	
0.0016764 	-1.09643e-12 	0.92 	0.04 	0.04 	0.0103075 	3.91309 	
3.90279 	3.90279 	2.77881e-07 	4.89312e-07 	2.76492e-10 	-5.11504e-06 	5.17006e-06 	
-72.2191 	43303.2 	174.7 	283.231 	0.35 	13.208 	3.69204e-08 	6.77333e-05 	
0.00210056 	0.000902627 	0 	0 	0 	0 	0 	0 	0 	
0.00174413 	-1.33685e-12 	0.92 	0.04 	0.04 	0.0103075 	3.91309 	
3.90279 	3.90279 	7.01754e-07 	1.23569e-06 	1.65889e-10 	-4.25423e-06 	4.3092e-06 	
-72.2195 	43303.3 	174.7 	283.231 	0.35 	13.208 	9.34303e-08 	6.77333e-05 	
0.00210056 	0.000902625 	0 	0 	0 	0 	0 	0 	0 	
0.00181187 	-1.57608e-12 	0.92 	0.04 	0.04 	0.0103075 	3.91309 	
3.90279 	3.90279 	1.19227e-06 	2.09942e-06 	5.52935e-11 	-2.58825e-06 	2.6431e-06 	
-72.22 	43303.5 	174.699 	283.231 	0.35 	13.208 	1.58825e-07 	6.77333e-05 	
0.00210056 	0.000902623 	0 	0 	0 	0 	0 	0 	0 	
0.0018796 	0 	0.92 	0.04 	0.04 	0.0103075 	3.91309 	
3.90279 	3.90279 	1.74944e-06 	1.54025e-06 	5.52935e-11 	-7.69616e-07 	8.24586e-07 	
-36.1103 	21651.9 	87.3494 	141.616 	0.35 	6.604 	2.33104e-07 	3.38667e-05 	
0.00105028 	0.00045131 	0 	0 	0 	0 	0 	0 	0 	
ZONE T = "t = 7.75e-08 [s]" I = 10 SOLUTIONTIME = 7.7500000000000E-08
0.00127 	1.37111e-12 	0.92 	0.04 	0.04 	0.0103075 	3.91309 	
3.90279 	3.90279 	-8.66908e-07 	-7.63262e-07 	9.40207e-10 	-3.04727e-07 	3.82273e-07 	
-36.1089 	21651.3 	87.3507 	141.616 	0.35 	6.604 	-1.15765e-07 	3.38667e-05 	
0.00105028 	0.000451316 	0 	0 	0 	0 	0 	0 	0 	
0.00133773 	1.36905e-12 	0.92 	0.04 	0.04 	0.0103075 	3.91309 	
3.90279 	3.90279 	-8.42854e-07 	-1.48417e-06 	8.29585e-10 	-1.43032e-06 	1.50778e-06 	
-72.2179 	43302.7 	174.701 	283.231 	0.35 	13.208 	-1.12558e-07 	6.77333e-05 	
0.00210055 	0.000902632 	0 	0 	0 	0 	0 	0 	0 	
0.00140547 	1.20578e-12 	0.92 	0.04 	0.04 	0.0103075 	3.91309 	
3.90279 	3.90279 	-7.52166e-07 	-1.32448e-06 	7.1896e-10 	-2.83711e-06 	2.91478e-06 	
-72.218 	43302.7 	174.701 	283.231 	0.35 	13.208 	-1.00468e-07 	6.77333e-05 	
0.00210055 	0.000902631 	0 	0 	0 	0 	0 	0 	0 	
0.0014732 	1.20432e-12 	0.92 	0.04 	0.04 	0.0103075 	3.91309 	
3.90279 	3.90279 	-5.94846e-07 	-1.04745e-06 	6.08337e-10 	-4.02559e-06 	4.10315e-06 	
-72.2181 	43302.8 	174.701 	283.231 	0.35 	13.208 	-7.94937e-08 	6.77333e-05 	
0.00210055 	0.000902631 	0 	0 	0 	0 	0 	0 	0 	
0.00154093 	8.80557e-13 	0.92 	0.04 	0.04 	0.0103075 	3.91309 	
3.90279 	3.90279 	-3.7089e-07 	-6.53092e-07 	4.97717e-10 	-4.87844e-06 	4.95591e-06 	
-72.2184 	43302.9 	174.701 	283.231 	0.35 	13.208 	-4.9636e-08 	6.77333e-05 	
0.00210055 	0.00090263 	0 	0 	0 	0 	0 	0 	0 	
0.00160867 	8.80357e-13 	0.92 	0.04 	0.04 	0.0103075 	3.91309 	
3.90279 	3.90279 	-8.02974e-08 	-1.41394e-07 	3.87102e-10 	-5.27817e-06 	5.35566e-06 	
-72.2187 	43303 	174.701 	283.231 	0.35 	13.208 	-1.08944e-08 	6.77333e-05 	
0.00210055 	0.000902628 	0 	0 	0 	0 	0 	0 	0 	
0.0016764 	5.58179e-13 	0.92 	0.04 	0.04 	0.0103075 	3.91309 	
3.90279 	3.90279 	2.76934e-07 	4.87645e-07 	2.76492e-10 	-5.10755e-06 	5.18498e-06 	
-72.2191 	43303.2 	174.7 	283.231 	0.35 	13.208 	3.67311e-08 	6.77333e-05 	
0.00210056 	0.000902627 	0 	0 	0 	0 	0 	0 	0 	
0.00174413 	7.21315e-13 	0.92 	0.04 	0.04 	0.0103075 	3.91309 	
3.90279 	3.90279 	7.00808e-07 	1.23403e-06 	1.65889e-10 	-4.24924e-06 	4.32667e-06 	
-72.2195 	43303.3 	174.7 	283.231 	0.35 	13.208 	9.3241e-08 	6.77333e-05 	
0.00210056 	0.000902625 	0 	0 	0 	0 	0 	0 	0 	
0.00181187 	7.24225e-13 	0.92 	0.04 	0.04 	0.0103075 	3.91309 	
3.90279 	3.90279 	1.19133e-06 	2.09776e-06 	5.52936e-11 	-2.58576e-06 	2.66334e-06 	
-72.22 	43303.5 	174.699 	283.231 	0.35 	13.208 	1.58635e-07 	6.77333e-05 	
0.00210056 	0.000902623 	0 	0 	0 	0 	0 	0 	0 	
0.0018796 	0 	0.92 	0.04 	0.04 	0.0103075 	3.91309 	
3.90279 	3.90279 	1.7485e-06 	1.53942e-06 	5.52936e-11 	-7.69022e-07 	8.46946e-07 	
-36.1103 	21651.9 	87.3494 	141.616 	0.35 	6.604 	2.32915e-07 	3.38667e-05 	
0.00105028 	0.00045131 	0 	0 	0 	0 	0 	0 	0 	
ZONE T = "t = 1.1125e-07 [s]" I = 10 SOLUTIONTIME = 1.1125000000000E-07
0.00127 	-9.15733e-13 	0.92 	0.04 	0.04 	0.0103075 	3.91309 	
3.90279 	3.90279 	-8.68327e-07 	-7.64512e-07 	9.40205e-10 	-2.71925e-07 	3.83125e-07 	
-36.1089 	21651.3 	87.3507 	141.616 	0.35 	6.604 	-1.16049e-07 	3.38667e-05 	
0.00105028 	0.000451316 	0 	0 	0 	0 	0 	0 	0 	
0.00133773 	-9.17802e-13 	0.92 	0.04 	0.04 	0.0103075 	3.91309 	
3.90279 	3.90279 	-8.44273e-07 	-1.48667e-06 	8.29586e-10 	-1.40036e-06 	1.51162e-06 	
-72.2179 	43302.7 	174.701 	283.231 	0.35 	13.208 	-1.12842e-07 	6.77333e-05 	
0.00210055 	0.000902632 	0 	0 	0 	0 	0 	0 	0 	
0.00140547 	-8.12033e-13 	0.92 	0.04 	0.04 	0.0103075 	3.91309 	
3.90279 	3.90279 	-7.53586e-07 	-1.32698e-06 	7.1896e-10 	-2.81095e-06 	2.92224e-06 	
-72.218 	43302.7 	174.701 	283.231 	0.35 	13.208 	-1.00752e-07 	6.77333e-05 	
0.00210055 	0.000902631 	0 	0 	0 	0 	0 	0 	0 	
0.0014732 	-7.0588e-13 	0.92 	0.04 	0.04 	0.0103075 	3.91309 	
3.90279 	3.90279 	-5.96265e-07 	-1.04995e-06 	6.08337e-10 	-4.00312e-06 	4.11423e-06 	
-72.2181 	43302.8 	174.701 	283.231 	0.35 	13.208 	-7.97776e-08 	6.77333e-05 	
0.00210055 	0.000902631 	0 	0 	0 	0 	0 	0 	0 	
0.00154093 	-4.91561e-13 	0.92 	0.04 	0.04 	0.0103075 	3.91309 	
3.90279 	3.90279 	-3.7231e-07 	-6.55592e-07 	4.97717e-10 	-4.85965e-06 	4.97083e-06 	
-72.2184 	43302.9 	174.701 	283.231 	0.35 	13.208 	-4.99199e-08 	6.77333e-05 	
0.00210055 	0.00090263 	0 	0 	0 	0 	0 	0 	0 	
0.00160867 	-3.84149e-13 	0.92 	0.04 	0.04 	0.0103075 	3.91309 	
3.90279 	3.90279 	-8.17172e-08 	-1.43894e-07 	3.87102e-10 	-5.26319e-06 	5.37441e-06 	
-72.2187 	43303 	174.701 	283.231 	0.35 	13.208 	-1.11783e-08 	6.77333e-05 	
0.00210055 	0.000902628 	0 	0 	0 	0 	0 	0 	0 	
0.0016764 	-2.75863e-13 	0.92 	0.04 	0.04 	0.0103075 	3.91309 	
3.90279 	3.90279 	2.75514e-07 	4.85145e-07 	2.76492e-10 	-5.09626e-06 	5.20756e-06 	
-72.2191 	43303.2 	174.7 	283.231 	0.35 	13.208 	3.64472e-08 	6.77333e-05 	
0.00210056 	0.000902627 	0 	0 	0 	0 	0 	0 	0 	
0.00174413 	-3.81775e-13 	0.92 	0.04 	0.04 	0.0103075 	3.91309 	
3.90279 	3.90279 	6.99388e-07 	1.23153e-06 	1.65889e-10 	-4.24163e-06 	4.3531e-06 	
-72.2195 	43303.3 	174.7 	283.231 	0.35 	13.208 	9.29571e-08 	6.77333e-05 	
0.00210056 	0.000902625 	0 	0 	0 	0 	0 	0 	0 	
0.00181187 	-3.78871e-13 	0.92 	0.04 	0.04 	0.0103075 	3.91309 	
3.90279 	3.90279 	1.18991e-06 	2.09526e-06 	5.52935e-11 	-2.58207e-06 	2.69338e-06 	
-72.22 	43303.5 	174.699 	283.231 	0.35 	13.208 	1.58351e-07 	6.77333e-05 	
0.00210056 	0.000902623 	0 	0 	0 	0 	0 	0 	0 	
0.0018796 	0 	0.92 	0.04 	0.04 	0.0103075 	3.91309 	
3.90279 	3.90279 	1.74708e-06 	1.53817e-06 	5.52935e-11 	-7.68189e-07 	8.7942e-07 	
-36.1103 	21651.9 	87.3494 	141.616 	0.35 	6.604 	2.32631e-07 	3.38667e-05 	
0.00105028 	0.00045131 	0 	0 	0 	0 	0 	0 	0 	
ZONE T = "t = 1.61875e-07 [s]" I = 10 SOLUTIONTIME = 1.6187500000000E-07
0.00127 	-1.44445e-13 	0.92 	0.04 	0.04 	0.0103075 	3.91309 	
3.90279 	3.90279 	-8.70457e-07 	-7.66387e-07 	9.40202e-10 	-2.22723e-07 	3.84617e-07 	
-36.1089 	21651.3 	87.3507 	141.616 	0.35 	6.604 	-1.16475e-07 	3.38667e-05 	
0.00105028 	0.000451316 	0 	0 	0 	0 	0 	0 	0 	
0.00133773 	-1.46523e-13 	0.92 	0.04 	0.04 	0.0103075 	3.91309 	
3.90279 	3.90279 	-8.46403e-07 	-1.49042e-06 	8.29586e-10 	-1.3553e-06 	1.51716e-06 	
-72.2179 	43302.7 	174.701 	283.231 	0.35 	13.208 	-1.13268e-07 	6.77333e-05 	
0.00210055 	0.000902632 	0 	0 	0 	0 	0 	0 	0 	
0.00140547 	-1.48379e-13 	0.92 	0.04 	0.04 	0.0103075 	3.91309 	
3.90279 	3.90279 	-7.55716e-07 	-1.33073e-06 	7.1896e-10 	-2.77147e-06 	2.93332e-06 	
-72.218 	43302.7 	174.701 	283.231 	0.35 	13.208 	-1.01177e-07 	6.77333e-05 	
0.00210055 	0.000902631 	0 	0 	0 	0 	0 	0 	0 	
0.0014732 	-2.21595e-13 	0.92 	0.04 	0.04 	0.0103075 	3.91309 	
3.90279 	3.90279 	-5.98395e-07 	-1.0537e-06 	6.08337e-10 	-3.96936e-06 	4.13128e-06 	
-72.2181 	43302.8 	174.701 	283.231 	0.35 	13.208 	-8.02035e-08 	6.77333e-05 	
0.00210055 	0.000902631 	0 	0 	0 	0 	0 	0 	0 	
0.00154093 	-3.66008e-13 	0.92 	0.04 	0.04 	0.0103075 	3.91309 	
3.90279 	3.90279 	-3.74439e-07 	-6.59342e-07 	4.97717e-10 	-4.83159e-06 	4.99341e-06 	
-72.2184 	43302.9 	174.701 	283.231 	0.35 	13.208 	-5.03458e-08 	6.77333e-05 	
0.00210055 	0.00090263 	0 	0 	0 	0 	0 	0 	0 	
0.00160867 	-4.37966e-13 	0.92 	0.04 	0.04 	0.0103075 	3.91309 	
3.90279 	3.90279 	-8.38468e-08 	-1.47644e-07 	3.87102e-10 	-5.24071e-06 	5.40254e-06 	
-72.2187 	43303 	174.701 	283.231 	0.35 	13.208 	-1.16042e-08 	6.77333e-05 	
0.00210055 	0.000902628 	0 	0 	0 	0 	0 	0 	0 	
0.0016764 	-5.0905e-13 	0.92 	0.04 	0.04 	0.0103075 	3.91309 	
3.90279 	3.90279 	2.73385e-07 	4.81395e-07 	2.76492e-10 	-5.07937e-06 	5.24144e-06 	
-72.2191 	43303.2 	174.7 	283.231 	0.35 	13.208 	3.60213e-08 	6.77333e-05 	
0.00210056 	0.000902627 	0 	0 	0 	0 	0 	0 	0 	
0.00174413 	-4.35607e-13 	0.92 	0.04 	0.04 	0.0103075 	3.91309 	