TITLE = "Solution on Domain BulkDomain1D_0"
VARIABLES = "x [m]"  
"Vel_axial" 
"MF_sp(ECDMC)" 
"MF_sp(Li+)" 
"MF_sp(PF6-)" 
"Volt(Electroly)" 
"Volt(AnodeVolt)" 
"Potential Drop Electrode-Electrolyte [V]" 
"Surf_0 Equilibrium Potential Drop Electrode-Electrolyte [V]" 
"Overpotential_0 [V]" 
"Current Source [A/m^2]" 
"Li+ flux [kmol/m^2/s]" 
"Electrolyte Current [A/m^2]" 
"Electrode Current [A/m^2]" 
"CV Capacity discharged [A-s/m^2]" 
"Depth of discharge in CV [A-s/m^2]" 
"CV Capacity remaining [A-s/m^2]" 
"Initial CV capacity [A-s/m^2]" 
"Porosity []" 
"Surface Area [m2/m2] (area per area)" 
"Specific current (per particle area) [A/m^2]" 
"Control volume thickness [m]" 
"MoleDens Li_C6-bulk [kmol/m^3]" 
"MoleDens V_C6-bulk [kmol/m^3]" 
"qHeat_accum [J/m3]" 
"qHeat_step [W/m3]" 
"Joule_Lyte [W/m3]" 
"Joule_Solid [W/m3]" 
"electrodHeat [W/m3]" 
"OverpotHeat [W/m3]" 
"deltaSHeat [W/m3]" 

ZONE T = "ANOD, 0.0000E+00", I = 10, SOLUTIONTIME = 0.000000E+00
ZONETYPE = ORDERED
DATAPACKING = BLOCK
STRANDID = 1
 0.0000000000000E+00  8.7488888888889E-05  1.7497777777778E-04  2.6246666666667E-04  3.4995555555556E-04  4.3744444444444E-04  5.2493333333333E-04  6.1242222222222E-04  6.9991111111111E-04  7.8740000000000E-04 
 8.0556036137532E-12  2.4166809368316E-11  4.0278010269142E-11  5.6389202940529E-11  7.2500383999613E-11  8.8611550072436E-11  1.0472269777983E-10  1.2083382374051E-10  1.3694492457746E-10  1.4500046074539E-10 
 9.1999997264233E-01  9.1999997295547E-01  9.1999997389488E-01  9.1999997546058E-01  9.1999997765255E-01  9.1999998047079E-01  9.1999998391532E-01  9.1999998798612E-01  9.1999999268319E-01  9.1999999800653E-01 
 4.0000013678836E-02  4.0000013522267E-02  4.0000013052559E-02  4.0000012269712E-02  4.0000011173727E-02  4.0000009764603E-02  4.0000008042341E-02  4.0000006006942E-02  4.0000003658406E-02  4.0000000996733E-02 
 4.0000013678836E-02  4.0000013522267E-02  4.0000013052559E-02  4.0000012269712E-02  4.0000011173727E-02  4.0000009764603E-02  4.0000008042341E-02  4.0000006006942E-02  4.0000003658406E-02  4.0000000996733E-02 
 1.0249120196691E-02  1.0249120087379E-02  1.0249119759444E-02  1.0249119212886E-02  1.0249118447705E-02  1.0249117463900E-02  1.0249116261473E-02  1.0249114840424E-02  1.0249113200752E-02  1.0249111342458E-02 
 0.0000000000000E+00 -2.6544331020875E-11 -4.9965790634587E-11 -7.0264379781945E-11 -8.7440100058081E-11 -1.0149295371383E-10 -1.1242294365402E-10 -1.2023007343846E-10 -1.2491434728237E-10 -1.2647577005553E-10 
-1.0249120196691E-02 -1.0249120113923E-02 -1.0249119809410E-02 -1.0249119283150E-02 -1.0249118535145E-02 -1.0249117565393E-02 -1.0249116373896E-02 -1.0249114960654E-02 -1.0249113325666E-02 -1.0249111468934E-02 
-1.0299926022970E-02 -1.0299925934580E-02 -1.0299925611619E-02 -1.0299925054076E-02 -1.0299924261951E-02 -1.0299923235254E-02 -1.0299921973975E-02 -1.0299920478121E-02 -1.0299918747686E-02 -1.0299916782678E-02 
 5.0805826279589E-05  5.0805820657123E-05  5.0805802208953E-05  5.0805770926142E-05  5.0805726806540E-05  5.0805669860439E-05  5.0805600078495E-05  5.0805517466924E-05  5.0805422019741E-05  5.0805313744282E-05 
 1.0102693361060E-02  2.0205384486535E-02  2.0205377162925E-02  2.0205364747773E-02  2.0205347240823E-02  2.0205324645415E-02  2.0205296957932E-02  2.0205264181280E-02  2.0205226312925E-02  1.0102591677879E-02 
 1.1542358916420E-10  3.4627074924006E-10  5.7711783342576E-10  8.0796480048363E-10  1.0388116042661E-09  1.2696581835309E-09  1.5005044938501E-09  1.7313505045102E-09  1.9621961354529E-09  1.9621961354529E-09 
 0.0000000000000E+00  2.3201420717808E-02  4.6402836656474E-02  6.9604243128905E-02  9.2805635724157E-02  1.1600700901875E-01  1.3920835740510E-01  1.6240967822120E-01  1.8561096484695E-01  2.0731418974923E-01 
 1.6909968915884E-01  1.4964420458200E-01  1.3093862496810E-01  1.1223305294917E-01  9.3527492448660E-02  7.4821947389009E-02  5.6116421690506E-02  3.7410919277692E-02  1.8705444073853E-02  0.0000000000000E+00 
 1.4407436557919E+04  2.8814873691066E+04  2.8814875592718E+04  2.8814878820812E+04  2.8814883375324E+04  2.8814889256269E+04  2.8814896463642E+04  2.8814904997455E+04  2.8814914857697E+04  1.4407463022191E+04 
 1.0585588110120E+05  2.1171176277763E+05  2.1171176467928E+05  2.1171176790737E+05  2.1171177246189E+05  2.1171177834283E+05  2.1171178555020E+05  2.1171179408402E+05  2.1171180394426E+05  1.0585590756547E+05 
 3.5138634161521E+05  7.0277268265518E+05  7.0277268075353E+05  7.0277267752544E+05  7.0277267297093E+05  7.0277266708998E+05  7.0277265988261E+05  7.0277265134880E+05  7.0277264148855E+05  3.5138631515093E+05 
 4.5724222271641E+05  9.1448444543281E+05  9.1448444543281E+05  9.1448444543281E+05  9.1448444543281E+05  9.1448444543281E+05  9.1448444543281E+05  9.1448444543281E+05  9.1448444543281E+05  4.5724222271641E+05 
 3.5000000000000E-01  3.5000000000000E-01  3.5000000000000E-01  3.5000000000000E-01  3.5000000000000E-01  3.5000000000000E-01  3.5000000000000E-01  3.5000000000000E-01  3.5000000000000E-01  3.5000000000000E-01 
 8.5301666666667E+00  1.7060333333333E+01  1.7060333333333E+01  1.7060333333333E+01  1.7060333333333E+01  1.7060333333333E+01  1.7060333333333E+01  1.7060333333333E+01  1.7060333333333E+01  8.5301666666667E+00 
 1.1843488827174E-03  1.1843487516775E-03  1.1843483224004E-03  1.1843475946800E-03  1.1843465685014E-03  1.1843452440602E-03  1.1843436211445E-03  1.1843416999246E-03  1.1843394802519E-03  1.1843369622960E-03 
 4.3744444444444E-05  8.7488888888889E-05  8.7488888888889E-05  8.7488888888889E-05  8.7488888888889E-05  8.7488888888889E-05  8.7488888888889E-05  8.7488888888889E-05  8.7488888888889E-05  4.3744444444444E-05 
 8.3253146327632E+01  8.3253146259488E+01  8.3253146034211E+01  8.3253145651799E+01  8.3253145112254E+01  8.3253144415575E+01  8.3253143561762E+01  8.3253142550814E+01  8.3253141382731E+01  8.3253140057514E+01 
 2.5080187005701E+01  2.5080187073845E+01  2.5080187299122E+01  2.5080187681534E+01  2.5080188221079E+01  2.5080188917759E+01  2.5080189771572E+01  2.5080190782520E+01  2.5080191950602E+01  2.5080193275820E+01 
 0.0000000000000E+00  0.0000000000000E+00  0.0000000000000E+00  0.0000000000000E+00  0.0000000000000E+00  0.0000000000000E+00  0.0000000000000E+00  0.0000000000000E+00  0.0000000000000E+00  0.0000000000000E+00 
 0.0000000000000E+00  0.0000000000000E+00  0.0000000000000E+00  0.0000000000000E+00  0.0000000000000E+00  0.0000000000000E+00  0.0000000000000E+00  0.0000000000000E+00  0.0000000000000E+00  0.0000000000000E+00 
 0.0000000000000E+00  0.0000000000000E+00  0.0000000000000E+00  0.0000000000000E+00  0.0000000000000E+00  0.0000000000000E+00  0.0000000000000E+00  0.0000000000000E+00  0.0000000000000E+00  0.0000000000000E+00 
 0.0000000000000E+00  0.0000000000000E+00  0.0000000000000E+00  0.0000000000000E+00  0.0000000000000E+00  0.0000000000000E+00  0.0000000000000E+00  0.0000000000000E+00  0.0000000000000E+00  0.0000000000000E+00 
 0.0000000000000E+00  0.0000000000000E+00  0.0000000000000E+00  0.0000000000000E+00  0.0000000000000E+00  0.0000000000000E+00  0.0000000000000E+00  0.0000000000000E+00  0.0000000000000E+00  0.0000000000000E+00 
 0.0000000000000E+00  0.0000000000000E+00  0.0000000000000E+00  0.0000000000000E+00  0.0000000000000E+00  0.0000000000000E+00  0.0000000000000E+00  0.0000000000000E+00  0.0000000000000E+00  0.0000000000000E+00 
 0.0000000000000E+00  0.0000000000000E+00  0.0000000000000E+00  0.0000000000000E+00  0.0000000000000E+00  0.0000000000000E+00  0.0000000000000E+00  0.0000000000000E+00  0.0000000000000E+00  0.0000000000000E+00 
ZONE T = "ANOD, 1.0000E-08", I = 10, SOLUTIONTIME = 1.000000E-08
ZONETYPE = ORDERED
DATAPACKING = BLOCK
STRANDID = 1
 0.0000000000000E+00  8.7488888888889E-05  1.7497777777778E-04  2.6246666666667E-04  3.4995555555556E-04  4.3744444444444E-04  5.2493333333333E-04  6.1242222222222E-04  6.9991111111111E-04  7.8740000000000E-04 
-1.8118147517851E-13 -9.0677655947927E-13 -1.6324608309711E-12 -1.6318836117523E-12 -2.7211483226622E-12 -2.7210733752452E-12 -2.7213467371555E-12 -2.7220331898498E-12 -3.8128207025203E-12 -3.8136741974624E-12 
 9.1999997264233E-01  9.1999997295547E-01  9.1999997389489E-01  9.1999997546058E-01  9.1999997765255E-01  9.1999998047080E-01  9.1999998391532E-01  9.1999998798612E-01  9.1999999268319E-01  9.1999999800654E-01 
 4.0000013678834E-02  4.0000013522264E-02  4.0000013052556E-02  4.0000012269709E-02  4.0000011173724E-02  4.0000009764601E-02  4.0000008042339E-02  4.0000006006940E-02  4.0000003658403E-02  4.0000000996732E-02 
 4.0000013678834E-02  4.0000013522264E-02  4.0000013052556E-02  4.0000012269709E-02  4.0000011173724E-02  4.0000009764601E-02  4.0000008042339E-02  4.0000006006940E-02  4.0000003658403E-02  4.0000000996732E-02 
 1.0299922963996E-02  1.0299922963990E-02  1.0299922963974E-02  1.0299922963947E-02  1.0299922963912E-02  1.0299922963873E-02  1.0299922963832E-02  1.0299922963795E-02  1.0299922963768E-02  1.0299922963756E-02 
 0.0000000000000E+00  9.9880867464784E-17  3.9699484366857E-16  8.6989959790676E-16  1.4815790133380E-15  2.1794421363463E-15  2.8953240703893E-15  3.5454845176513E-15  4.0306084723072E-15  4.2358051536193E-15 
-1.0299922963996E-02 -1.0299922963990E-02 -1.0299922963973E-02 -1.0299922963946E-02 -1.0299922963911E-02 -1.0299922963870E-02 -1.0299922963829E-02 -1.0299922963792E-02 -1.0299922963764E-02 -1.0299922963752E-02 
-1.0299926022966E-02 -1.0299925934587E-02 -1.0299925611618E-02 -1.0299925054079E-02 -1.0299924261954E-02 -1.0299923235252E-02 -1.0299921973981E-02 -1.0299920478123E-02 -1.0299918747687E-02 -1.0299916782679E-02 
 3.0589699766270E-09  2.9705963314197E-09  2.6476444387608E-09  2.0901334951001E-09  1.2980431087634E-09  2.7138161336204E-10 -9.8984819126013E-10 -2.4856687975278E-09 -4.2160771852873E-09 -6.1810727699368E-09 
 6.0827338355710E-07  1.1813999835600E-06  1.0529627580380E-06  8.3124160307542E-07  5.1622885150919E-07  1.0793016622892E-07 -3.9366242901145E-07 -9.8854660451630E-07 -1.6767269393425E-06 -1.2291007064387E-06 
 5.5310293979627E-11  1.6593069677980E-10  2.7655040217558E-10  3.8716889307233E-10  4.9778567121884E-10  6.0840023408419E-10  7.1901205895147E-10  8.2962065647331E-10  9.4022501050783E-10  9.4022501050783E-10 
 0.0000000000000E+00  1.1989364026978E-06  2.3161333907789E-06  3.2582534000451E-06  3.9320509292216E-06  4.2440964006916E-06  4.1011443632103E-06  3.4101334992335E-06  2.0775422902292E-06  1.0060706146165E-08 
 1.0000334140703E-08 -1.1889730323374E-06 -2.3061546503473E-06 -3.2482571237462E-06 -3.9219924080501E-06 -4.2340719892008E-06 -4.0912056625036E-06 -3.4001009318916E-06 -2.0674641822733E-06  0.0000000000000E+00 
 1.4407436557919E+04  2.8814873691066E+04  2.8814875592718E+04  2.8814878820812E+04  2.8814883375324E+04  2.8814889256269E+04  2.8814896463642E+04  2.8814904997455E+04  2.8814914857697E+04  1.4407463022191E+04 
 1.0585588110120E+05  2.1171176277763E+05  2.1171176467928E+05  2.1171176790737E+05  2.1171177246189E+05  2.1171177834283E+05  2.1171178555020E+05  2.1171179408402E+05  2.1171180394426E+05  1.0585590756547E+05 
 3.5138634161521E+05  7.0277268265518E+05  7.0277268075353E+05  7.0277267752544E+05  7.0277267297093E+05  7.0277266708998E+05  7.0277265988261E+05  7.0277265134880E+05  7.0277264148855E+05  3.5138631515093E+05 
 4.5724222271641E+05  9.1448444543281E+05  9.1448444543281E+05  9.1448444543281E+05  9.1448444543281E+05  9.1448444543281E+05  9.1448444543281E+05  9.1448444543281E+05  9.1448444543281E+05  4.5724222271641E+05 
 3.5000000000000E-01  3.5000000000000E-01  3.5000000000000E-01  3.5000000000000E-01  3.5000000000000E-01  3.5000000000000E-01  3.5000000000000E-01  3.5000000000000E-01  3.5000000000000E-01  3.5000000000000E-01 
 8.5301666666667E+00  1.7060333333333E+01  1.7060333333333E+01  1.7060333333333E+01  1.7060333333333E+01  1.7060333333333E+01  1.7060333333333E+01  1.7060333333333E+01  1.7060333333333E+01  8.5301666666667E+00 
 7.1308499274000E-08  6.9248352917685E-08  6.1719940487954E-08  4.8723643719862E-08  3.0259013198796E-08  6.3263808578721E-09 -2.3074720834575E-08 -5.7944155322266E-08 -9.8282191008921E-08 -1.4408870945531E-07 
 4.3744444444444E-05  8.7488888888889E-05  8.7488888888889E-05  8.7488888888889E-05  8.7488888888889E-05  8.7488888888889E-05  8.7488888888889E-05  8.7488888888889E-05  8.7488888888889E-05  4.3744444444444E-05 
 8.3253146327632E+01  8.3253146259488E+01  8.3253146034211E+01  8.3253145651799E+01  8.3253145112254E+01  8.3253144415575E+01  8.3253143561762E+01  8.3253142550814E+01  8.3253141382731E+01  8.3253140057514E+01 
 2.5080187005701E+01  2.5080187073845E+01  2.5080187299122E+01  2.5080187681534E+01  2.5080188221079E+01  2.5080188917759E+01  2.5080189771572E+01  2.5080190782520E+01  2.5080191950602E+01  2.5080193275820E+01 
 4.0530950067835E-25  1.9575900206598E-24  6.1830680369417E-24  1.1824678605219E-23  1.7018628414961E-23  1.9745172179892E-23  1.8476884004709E-23  1.3013153094498E-23  5.5006758753477E-24  1.6826343640589E-24 
 4.0530950067835E-17  1.9575900206598E-16  6.1830680369417E-16  1.1824678605219E-15  1.7018628414961E-15  1.9745172179892E-15  1.8476884004709E-15  1.3013153094498E-15  5.5006758753477E-16  1.6826343640589E-16 
 3.9847937265691E-17  1.9239559349755E-16  6.0762925985950E-16  1.1620041996964E-15  1.6723833200436E-15  1.9403021833172E-15  1.8156746416206E-15  1.2787887079027E-15  5.4056984437263E-16  1.6538070023069E-16 
 6.8301280214453E-19  3.3634085684294E-18  1.0677543834676E-17  2.0463660825547E-17  2.9479521452515E-17  3.4215034672049E-17  3.2013758850266E-17  2.2526601547047E-17  9.4977431621453E-18  2.8827361752032E-18 
 0.0000000000000E+00  0.0000000000000E+00  0.0000000000000E+00  0.0000000000000E+00  0.0000000000000E+00  0.0000000000000E+00  0.0000000000000E+00  0.0000000000000E+00  0.0000000000000E+00  0.0000000000000E+00 
 0.0000000000000E+00  0.0000000000000E+00  0.0000000000000E+00  0.0000000000000E+00  0.0000000000000E+00  0.0000000000000E+00  0.0000000000000E+00  0.0000000000000E+00  0.0000000000000E+00  0.0000000000000E+00 
 0.0000000000000E+00  0.0000000000000E+00  0.0000000000000E+00  0.0000000000000E+00  0.0000000000000E+00  0.0000000000000E+00  0.0000000000000E+00  0.0000000000000E+00  0.0000000000000E+00  0.0000000000000E+00 
ZONE T = "ANOD, 2.0000E-08", I = 10, SOLUTIONTIME = 2.000000E-08
ZONETYPE = ORDERED
DATAPACKING = BLOCK
STRANDID = 1
 0.0000000000000E+00  8.7488888888889E-05  1.7497777777778E-04  2.6246666666667E-04  3.4995555555556E-04  4.3744444444444E-04  5.2493333333333E-04  6.1242222222222E-04  6.9991111111111E-04  7.8740000000000E-04 
 4.2277503313724E-16  1.4540748290075E-12  2.1812222398274E-12  2.1818002294693E-12  2.1821594740584E-12  1.4558197368931E-12  3.6592396495456E-13 -3.6117717289521E-13 -3.6234073023671E-13 -3.6319383970422E-13 
 9.1999997264234E-01  9.1999997295548E-01  9.1999997389489E-01  9.1999997546059E-01  9.1999997765256E-01  9.1999998047080E-01  9.1999998391533E-01  9.1999998798613E-01  9.1999999268320E-01  9.1999999800654E-01 
 4.0000013678831E-02  4.0000013522262E-02  4.0000013052554E-02  4.0000012269707E-02  4.0000011173722E-02  4.0000009764598E-02  4.0000008042337E-02  4.0000006006937E-02  4.0000003658401E-02  4.0000000996731E-02 
 4.0000013678831E-02  4.0000013522262E-02  4.0000013052554E-02  4.0000012269707E-02  4.0000011173722E-02  4.0000009764598E-02  4.0000008042337E-02  4.0000006006937E-02  4.0000003658401E-02  4.0000000996731E-02 
 1.0299922961204E-02  1.0299922961198E-02  1.0299922961181E-02  1.0299922961154E-02  1.0299922961120E-02  1.0299922961080E-02  1.0299922961040E-02  1.0299922961003E-02  1.0299922960975E-02  1.0299922960963E-02 
 0.0000000000000E+00  9.8304318950173E-17  3.9402724838218E-16  8.6572636826691E-16  1.4763853690252E-15  2.1734137131245E-15  2.8886462253270E-15  3.5383431719282E-15  4.0231888462112E-15  4.2282928467198E-15 
-1.0299922961204E-02 -1.0299922961198E-02 -1.0299922961181E-02 -1.0299922961154E-02 -1.0299922961118E-02 -1.0299922961078E-02 -1.0299922961037E-02 -1.0299922960999E-02 -1.0299922960971E-02 -1.0299922960959E-02 
-1.0299926022974E-02 -1.0299925934590E-02 -1.0299925611619E-02 -1.0299925054076E-02 -1.0299924261957E-02 -1.0299923235259E-02 -1.0299921973985E-02 -1.0299920478120E-02 -1.0299918747690E-02 -1.0299916782678E-02 
 3.0617699625646E-09  2.9733917654429E-09  2.6504384208204E-09  2.0929225210548E-09  1.3008392366759E-09  2.7418072152952E-10 -9.8705134343735E-10 -2.4828788712516E-09 -4.2132814268708E-09 -6.1782807481148E-09 
 6.0882977233225E-07  1.1825110250718E-06  1.0540737968266E-06  8.3235104879333E-07  5.1734075355142E-07  1.0904061136038E-07 -3.9254935190942E-07 -9.8743701719211E-07 -1.6756151693754E-06 -1.2285455893969E-06 
 5.5310296841684E-11  1.6593070631999E-10  2.7655041266212E-10  3.8716891467545E-10  4.9778569827837E-10  6.0840026652084E-10  7.1901209458949E-10  8.2962069871785E-10  9.4022456060495E-10  9.4022456060495E-10 
 0.0000000000000E+00  1.2001330378768E-06  2.3184346122489E-06  3.2615671589075E-06  3.9363772253953E-06  4.2496193317706E-06  4.1078639290748E-06  3.4178656020228E-06  2.0863789786018E-06  2.0004804294886E-08 
 2.0000037850227E-08 -1.1800852827288E-06 -2.2983777638695E-06 -3.2415902556412E-06 -3.9164362272237E-06 -4.2296269071202E-06 -4.0878725339699E-06 -3.3978793472563E-06 -2.0663531783350E-06  0.0000000000000E+00 
 1.4407436557919E+04  2.8814873691066E+04  2.8814875592718E+04  2.8814878820812E+04  2.8814883375324E+04  2.8814889256269E+04  2.8814896463642E+04  2.8814904997455E+04  2.8814914857697E+04  1.4407463022191E+04 
 1.0585588110120E+05  2.1171176277763E+05  2.1171176467928E+05  2.1171176790737E+05  2.1171177246189E+05  2.1171177834283E+05  2.1171178555020E+05  2.1171179408402E+05  2.1171180394426E+05  1.0585590756547E+05 
 3.5138634161521E+05  7.0277268265518E+05  7.0277268075353E+05  7.0277267752544E+05  7.0277267297093E+05  7.0277266708998E+05  7.0277265988261E+05  7.0277265134880E+05  7.0277264148855E+05  3.5138631515093E+05 
 4.5724222271641E+05  9.1448444543281E+05  9.1448444543281E+05  9.1448444543281E+05  9.1448444543281E+05  9.1448444543281E+05  9.1448444543281E+05  9.1448444543281E+05  9.1448444543281E+05  4.5724222271641E+05 
 3.5000000000000E-01  3.5000000000000E-01  3.5000000000000E-01  3.5000000000000E-01  3.5000000000000E-01  3.5000000000000E-01  3.5000000000000E-01  3.5000000000000E-01  3.5000000000000E-01  3.5000000000000E-01 
 8.5301666666667E+00  1.7060333333333E+01  1.7060333333333E+01  1.7060333333333E+01  1.7060333333333E+01  1.7060333333333E+01  1.7060333333333E+01  1.7060333333333E+01  1.7060333333333E+01  8.5301666666667E+00 
 7.1373725288554E-08  6.9313477173469E-08  6.1785064584116E-08  4.8788674437389E-08  3.0324187895005E-08  6.3914701565257E-09 -2.3009477261645E-08 -5.7879116304416E-08 -9.8217024054359E-08 -1.4402363252733E-07 
 4.3744444444444E-05  8.7488888888889E-05  8.7488888888889E-05  8.7488888888889E-05  8.7488888888889E-05  8.7488888888889E-05  8.7488888888889E-05  8.7488888888889E-05  8.7488888888889E-05  4.3744444444444E-05 
 8.3253146327632E+01  8.3253146259488E+01  8.3253146034211E+01  8.3253145651799E+01  8.3253145112254E+01  8.3253144415575E+01  8.3253143561762E+01  8.3253142550814E+01  8.3253141382731E+01  8.3253140057514E+01 
 2.5080187005701E+01  2.5080187073845E+01  2.5080187299122E+01  2.5080187681534E+01  2.5080188221079E+01  2.5080188917759E+01  2.5080189771572E+01  2.5080190782520E+01  2.5080191950602E+01  2.5080193275820E+01 
 8.1112904495383E-25  3.9187030218417E-24  1.2377472875147E-23  2.3672304559127E-23  3.4073350889737E-23  3.9540237437139E-23  3.7012458920282E-23  2.6082281657452E-23  1.1039878988618E-23  3.3903990414020E-24 
 4.0581954427548E-17  1.9611130011820E-16  6.1944048382057E-16  1.1847625953908E-15  1.7054722474776E-15  1.9795065257247E-15  1.8535574915574E-15  1.3069128562955E-15  5.5392031132700E-16  1.7077646773431E-16 
 7.9768270466120E-17  3.8518241085586E-16  1.2164594150491E-15  2.3263848169391E-15  3.3484586043737E-15  3.8856653504413E-15  3.6372708139405E-15  2.5632048270661E-15  1.0850029543469E-15  3.3327703528188E-16 
 1.3446340292626E-18  6.6878913283104E-18  2.1287872465601E-17  4.0845638973675E-17  5.8876484600041E-17  6.8358393272610E-17  6.3975078087732E-17  4.5023338679120E-17  1.8984944514869E-17  5.7628688583202E-18 
 0.0000000000000E+00  0.0000000000000E+00  0.0000000000000E+00  0.0000000000000E+00  0.0000000000000E+00  0.0000000000000E+00  0.0000000000000E+00  0.0000000000000E+00  0.0000000000000E+00  0.0000000000000E+00 
 0.0000000000000E+00  0.0000000000000E+00  0.0000000000000E+00  0.0000000000000E+00  0.0000000000000E+00  0.0000000000000E+00  0.0000000000000E+00  0.0000000000000E+00  0.0000000000000E+00  0.0000000000000E+00 
 0.0000000000000E+00  0.0000000000000E+00  0.0000000000000E+00  0.0000000000000E+00  0.0000000000000E+00  0.0000000000000E+00  0.0000000000000E+00  0.0000000000000E+00  0.0000000000000E+00  0.0000000000000E+00 
ZONE T = "ANOD, 3.0000E-08", I = 10, SOLUTIONTIME = 3.000000E-08
ZONETYPE = ORDERED
DATAPACKING = BLOCK
STRANDID = 1
 0.0000000000000E+00  8.7488888888889E-05  1.7497777777778E-04  2.6246666666667E-04  3.4995555555556E-04  4.3744444444444E-04  5.2493333333333E-04  6.1242222222222E-04  6.9991111111111E-04  7.8740000000000E-04 
 5.4523475241662E-13 -1.8035878842776E-13  1.8358166611368E-13  1.8416042713163E-13  1.8452044290263E-13  9.1101238765492E-13  5.4753284216059E-13  1.8364020490070E-13  1.2721006026370E-12  1.9976633349123E-12 
 9.1999997264234E-01  9.1999997295548E-01  9.1999997389490E-01  9.1999997546059E-01  9.1999997765256E-01  9.1999998047081E-01  9.1999998391533E-01  9.1999998798613E-01  9.1999999268320E-01  9.1999999800654E-01 
 4.0000013678829E-02  4.0000013522260E-02  4.0000013052551E-02  4.0000012269705E-02  4.0000011173719E-02  4.0000009764596E-02  4.0000008042334E-02  4.0000006006935E-02  4.0000003658399E-02  4.0000000996730E-02 
 4.0000013678829E-02  4.0000013522260E-02  4.0000013052551E-02  4.0000012269705E-02  4.0000011173719E-02  4.0000009764596E-02  4.0000008042334E-02  4.0000006006935E-02  4.0000003658399E-02  4.0000000996730E-02 
 1.0299922958411E-02  1.0299922958406E-02  1.0299922958389E-02  1.0299922958362E-02  1.0299922958327E-02  1.0299922958288E-02  1.0299922958247E-02  1.0299922958210E-02  1.0299922958182E-02  1.0299922958171E-02 
 0.0000000000000E+00  9.6727560647848E-17  3.9105930762103E-16  8.6155272644500E-16  1.4711914805002E-15  2.1673849843045E-15  2.8819679692107E-15  3.5312007247221E-15  4.0157680040090E-15  4.2207791605976E-15 
-1.0299922958411E-02 -1.0299922958405E-02 -1.0299922958388E-02 -1.0299922958361E-02 -1.0299922958326E-02 -1.0299922958285E-02 -1.0299922958244E-02 -1.0299922958206E-02 -1.0299922958178E-02 -1.0299922958166E-02 
-1.0299926022974E-02 -1.0299925934591E-02 -1.0299925611618E-02 -1.0299925054079E-02 -1.0299924261958E-02 -1.0299923235257E-02 -1.0299921973982E-02 -1.0299920478126E-02 -1.0299918747690E-02 -1.0299916782682E-02 
 3.0645627546039E-09  2.9761851785132E-09  2.6532302240673E-09  2.0957180955905E-09  1.3036322230042E-09  2.7697178231478E-10 -9.8426157675580E-10 -2.4800806165681E-09 -4.2104884630939E-09 -6.1754840269268E-09 
 6.0938514467385E-07  1.1836226343702E-06  1.0551848369767E-06  8.3346192691322E-07  5.1845149278824E-07  1.1015063984260E-07 -3.9143918045933E-07 -9.8632423691862E-07 -1.6745038569055E-06 -1.2279893783104E-06 
 5.5310299703742E-11  1.6593071620718E-10  2.7655042628610E-10  3.8716893409515E-10  4.9778572629191E-10  6.0840029800347E-10  7.1901213431897E-10  8.2962074007999E-10  9.4022411001575E-10  9.4022411001575E-10 
 0.0000000000000E+00  1.2011455753359E-06  2.3205517360077E-06  3.2649729666154E-06  3.9408876192752E-06  4.2551422628646E-06  4.1145834949543E-06  3.4256897536652E-06  2.0952156669994E-06  2.9949996568092E-08 
 2.9999981726588E-08 -1.1711964984465E-06 -2.2906002712341E-06 -3.2349236908110E-06 -3.9108803656084E-06 -4.2251813253594E-06 -4.0845370218144E-06 -3.3956553515435E-06 -2.0652413425848E-06  0.0000000000000E+00 
 1.4407436557919E+04  2.8814873691066E+04  2.8814875592718E+04  2.8814878820812E+04  2.8814883375324E+04  2.8814889256269E+04  2.8814896463642E+04  2.8814904997455E+04  2.8814914857697E+04  1.4407463022191E+04 
 1.0585588110120E+05  2.1171176277763E+05  2.1171176467928E+05  2.1171176790737E+05  2.1171177246189E+05  2.1171177834283E+05  2.1171178555020E+05  2.1171179408402E+05  2.1171180394426E+05  1.0585590756547E+05 
 3.5138634161521E+05  7.0277268265518E+05  7.0277268075353E+05  7.0277267752544E+05  7.0277267297093E+05  7.0277266708998E+05  7.0277265988261E+05  7.0277265134880E+05  7.0277264148855E+05  3.5138631515093E+05 
 4.5724222271641E+05  9.1448444543281E+05  9.1448444543281E+05  9.1448444543281E+05  9.1448444543281E+05  9.1448444543281E+05  9.1448444543281E+05  9.1448444543281E+05  9.1448444543281E+05  4.5724222271641E+05 
 3.5000000000000E-01  3.5000000000000E-01  3.5000000000000E-01  3.5000000000000E-01  3.5000000000000E-01  3.5000000000000E-01  3.5000000000000E-01  3.5000000000000E-01  3.5000000000000E-01  3.5000000000000E-01 
 8.5301666666667E+00  1.7060333333333E+01  1.7060333333333E+01  1.7060333333333E+01  1.7060333333333E+01  1.7060333333333E+01  1.7060333333333E+01  1.7060333333333E+01  1.7060333333333E+01  8.5301666666667E+00 
 7.1438832145583E-08  6.9378634710356E-08  6.1850188760089E-08  4.8853789115877E-08  3.0389294432792E-08  6.4565350330746E-09 -2.2944404004962E-08 -5.7813890130241E-08 -9.8151883916226E-08 -1.4395842734340E-07 
 4.3744444444444E-05  8.7488888888889E-05  8.7488888888889E-05  8.7488888888889E-05  8.7488888888889E-05  8.7488888888889E-05  8.7488888888889E-05  8.7488888888889E-05  8.7488888888889E-05  4.3744444444444E-05 
 8.3253146327632E+01  8.3253146259488E+01  8.3253146034211E+01  8.3253145651799E+01  8.3253145112254E+01  8.3253144415575E+01  8.3253143561762E+01  8.3253142550814E+01  8.3253141382731E+01  8.3253140057514E+01 
 2.5080187005701E+01  2.5080187073845E+01  2.5080187299122E+01  2.5080187681534E+01  2.5080188221079E+01  2.5080188917759E+01  2.5080189771572E+01  2.5080190782520E+01  2.5080191950602E+01  2.5080193275820E+01 
 1.2174626654566E-24  5.8826348937241E-24  1.8582517575303E-23  3.5543633929704E-23  5.1165772185032E-23  5.9385241428220E-23  5.5606744900628E-23  3.9208291998867E-23  1.6617778199544E-23  5.1234838854409E-24 
 4.0633362050279E-17  1.9639318718824E-16  6.2050447001559E-16  1.1871329370577E-15  1.7092421295294E-15  1.9845003991081E-15  1.8594285980346E-15  1.3126010341414E-15  5.5778992109264E-16  1.7330848440389E-16 
 1.1976106530610E-16  5.7828974256873E-16  1.8264205445248E-15  3.4932172828593E-15  5.0283862059778E-15  5.8360939985210E-15  5.4647905246157E-15  3.8533390029720E-15  1.6333162160985E-15  5.0370799389756E-16 
 1.9852012395585E-18  9.9737468036856E-18  3.1831213005525E-17  6.1146110111197E-17  8.8191012525404E-17  1.0243014430098E-16  9.5883965447175E-17  6.7490196914702E-17  2.8461603855952E-17  8.6403946465392E-18 
 0.0000000000000E+00  0.0000000000000E+00  0.0000000000000E+00  0.0000000000000E+00  0.0000000000000E+00  0.0000000000000E+00  0.0000000000000E+00  0.0000000000000E+00  0.0000000000000E+00  0.0000000000000E+00 
 0.0000000000000E+00  0.0000000000000E+00  0.0000000000000E+00  0.0000000000000E+00  0.0000000000000E+00  0.0000000000000E+00  0.0000000000000E+00  0.0000000000000E+00  0.0000000000000E+00  0.0000000000000E+00 
 0.0000000000000E+00  0.0000000000000E+00  0.0000000000000E+00  0.0000000000000E+00  0.0000000000000E+00  0.0000000000000E+00  0.0000000000000E+00  0.0000000000000E+00  0.0000000000000E+00  0.0000000000000E+00 
ZONE T = "ANOD, 4.0000E-08", I = 10, SOLUTIONTIME = 4.000000E-08
ZONETYPE = ORDERED
DATAPACKING = BLOCK
STRANDID = 1
 0.0000000000000E+00  8.7488888888889E-05  1.7497777777778E-04  2.6246666666667E-04  3.4995555555556E-04  4.3744444444444E-04  5.2493333333333E-04  6.1242222222222E-04  6.9991111111111E-04  7.8740000000000E-04 
-3.6278418167971E-13 -3.6196149601758E-13 -3.6122799753617E-13 -3.6064846437650E-13 -3.6028767747482E-13 -3.6021041712664E-13  2.7262645867341E-15  1.0916653106132E-12  8.8011414609422E-16 -7.2638767929794E-13 
 9.1999997264235E-01  9.1999997295549E-01  9.1999997389490E-01  9.1999997546060E-01  9.1999997765257E-01  9.1999998047081E-01  9.1999998391534E-01  9.1999998798613E-01  9.1999999268321E-01  9.1999999800654E-01 
 4.0000013678827E-02  4.0000013522257E-02  4.0000013052549E-02  4.0000012269702E-02  4.0000011173717E-02  4.0000009764593E-02  4.0000008042332E-02  4.0000006006933E-02  4.0000003658396E-02  4.0000000996729E-02 
 4.0000013678827E-02  4.0000013522257E-02  4.0000013052549E-02  4.0000012269702E-02  4.0000011173717E-02  4.0000009764593E-02  4.0000008042332E-02  4.0000006006933E-02  4.0000003658396E-02  4.0000000996729E-02 
 1.0299922955620E-02  1.0299922955614E-02  1.0299922955597E-02  1.0299922955570E-02  1.0299922955535E-02  1.0299922955496E-02  1.0299922955455E-02  1.0299922955418E-02  1.0299922955390E-02  1.0299922955378E-02 
 0.0000000000000E+00  9.5150723874355E-17  3.8809098182468E-16  8.5737845328307E-16  1.4659968975672E-15  2.1613554863192E-15  2.8752889514792E-15  3.5240577039595E-15  4.0083466186826E-15  4.2132651201278E-15 
-1.0299922955620E-02 -1.0299922955614E-02 -1.0299922955597E-02 -1.0299922955569E-02 -1.0299922955534E-02 -1.0299922955494E-02 -1.0299922955452E-02 -1.0299922955415E-02 -1.0299922955386E-02 -1.0299922955374E-02 
-1.0299926022973E-02 -1.0299925934588E-02 -1.0299925611622E-02 -1.0299925054082E-02 -1.0299924261958E-02 -1.0299923235261E-02 -1.0299921973986E-02 -1.0299920478130E-02 -1.0299918747693E-02 -1.0299916782681E-02 
 3.0673535031389E-09  2.9789742703873E-09  2.6560251636942E-09  2.0985124783712E-09  1.3064243228889E-09  2.7976702031418E-10 -9.8146605079230E-10 -2.4772850264199E-09 -4.2076934089752E-09 -6.1726927822608E-09 
 6.0994008198462E-07  1.1847328017355E-06  1.0562963128385E-06  8.3457383167865E-07  5.1956194200450E-07  1.1126095017577E-07 -3.9032799870289E-07 -9.8521232806840E-07 -1.6733915232364E-06 -1.2274344069597E-06 