TITLE = "Solution on Domain BulkDomain1D_1"
VARIABLES = "x [m]"  
"Vel_axial" 	"MF_sp(ECDMC)" 	"MF_sp(Li+)" 	"MF_sp(PF6-)" 	"Volt(Electroly)" 	"Porosity []" 	"Control volume thickness [m]" 	"volFrac MgO(S) []" 	"qHeat_accum [J/m3]" 	"qHeat_step [W/m3]" 	"Joule_Lyte [W/m3]" 	"Joule_Solid [W/m3]" 	
ZONE T = "SEP , 0.0000E+00", I = 10, SOLUTIONTIME = 0.000000E+00
ZONETYPE = ORDERED
DATAPACKING = BLOCK
STRANDID = 2
 7.8740000000000E-04  8.4102222222222E-04  8.9464444444444E-04  9.4826666666667E-04  1.0018888888889E-03  1.0555111111111E-03  1.1091333333333E-03  1.1627555555556E-03  1.2163777777778E-03  1.2700000000000E-03 
 1.4500046074539E-10  1.4500046074539E-10  1.4500046074539E-10  1.4500046074539E-10  1.4500046074539E-10  1.4500046074539E-10  1.4500046074539E-10  1.4500046074539E-10  1.4500046074539E-10  1.3694448462157E-10 
 9.1999999800653E-01  9.1999999898939E-01  9.1999999997225E-01  9.2000000095510E-01  9.2000000193796E-01  9.2000000292081E-01  9.2000000390367E-01  9.2000000488652E-01  9.2000000586938E-01  9.2000000685223E-01 
 4.0000000996733E-02  4.0000000505305E-02  4.0000000013877E-02  3.9999999522450E-02  3.9999999031022E-02  3.9999998539594E-02  3.9999998048167E-02  3.9999997556739E-02  3.9999997065311E-02  3.9999996573884E-02 
 4.0000000996733E-02  4.0000000505305E-02  4.0000000013877E-02  3.9999999522450E-02  3.9999999031022E-02  3.9999998539594E-02  3.9999998048167E-02  3.9999997556739E-02  3.9999997065311E-02  3.9999996573884E-02 
 1.0249111342458E-02  1.0249110999359E-02  1.0249110656260E-02  1.0249110313161E-02  1.0249109970062E-02  1.0249109626963E-02  1.0249109283864E-02  1.0249108940765E-02  1.0249108597666E-02  1.0249108254567E-02 
 8.0911499769706E-01  8.0911499769706E-01  8.0911499769706E-01  8.0911499769706E-01  8.0911499769706E-01  8.0911499769706E-01  8.0911499769706E-01  8.0911499769706E-01  8.0911499769706E-01  8.0911499769706E-01 
 2.6811111111111E-05  5.3622222222222E-05  5.3622222222222E-05  5.3622222222222E-05  5.3622222222222E-05  5.3622222222222E-05  5.3622222222222E-05  5.3622222222223E-05  5.3622222222222E-05  2.6811111111111E-05 
 1.9088500230294E-01  1.9088500230294E-01  1.9088500230294E-01  1.9088500230294E-01  1.9088500230294E-01  1.9088500230294E-01  1.9088500230294E-01  1.9088500230294E-01  1.9088500230294E-01  1.9088500230294E-01 
 0.0000000000000E+00  0.0000000000000E+00  0.0000000000000E+00  0.0000000000000E+00  0.0000000000000E+00  0.0000000000000E+00  0.0000000000000E+00  0.0000000000000E+00  0.0000000000000E+00  0.0000000000000E+00 
 0.0000000000000E+00  0.0000000000000E+00  0.0000000000000E+00  0.0000000000000E+00  0.0000000000000E+00  0.0000000000000E+00  0.0000000000000E+00  0.0000000000000E+00  0.0000000000000E+00  0.0000000000000E+00 
 0.0000000000000E+00  0.0000000000000E+00  0.0000000000000E+00  0.0000000000000E+00  0.0000000000000E+00  0.0000000000000E+00  0.0000000000000E+00  0.0000000000000E+00  0.0000000000000E+00  0.0000000000000E+00 
 0.0000000000000E+00  0.0000000000000E+00  0.0000000000000E+00  0.0000000000000E+00  0.0000000000000E+00  0.0000000000000E+00  0.0000000000000E+00  0.0000000000000E+00  0.0000000000000E+00  0.0000000000000E+00 
ZONE T = "SEP , 1.0000E-08", I = 10, SOLUTIONTIME = 1.000000E-08
ZONETYPE = ORDERED
DATAPACKING = BLOCK
STRANDID = 2
 7.8740000000000E-04  8.4102222222222E-04  8.9464444444444E-04  9.4826666666667E-04  1.0018888888889E-03  1.0555111111111E-03  1.1091333333333E-03  1.1627555555556E-03  1.2163777777778E-03  1.2700000000000E-03 
-7.2640851172248E-13 -7.2640851171909E-13 -7.2640851171689E-13 -7.2640851171689E-13 -7.2640851171689E-13 -7.2640851171690E-13 -7.2640851171470E-13 -7.2640851170813E-13 -7.2640851170813E-13  1.2707057225834E-12 
 9.1999999800654E-01  9.1999999898939E-01  9.1999999997225E-01  9.2000000095510E-01  9.2000000193796E-01  9.2000000292081E-01  9.2000000390367E-01  9.2000000488652E-01  9.2000000586938E-01  9.2000000685223E-01 
 4.0000000996732E-02  4.0000000505305E-02  4.0000000013877E-02  3.9999999522450E-02  3.9999999031022E-02  3.9999998539594E-02  3.9999998048167E-02  3.9999997556739E-02  3.9999997065311E-02  3.9999996573885E-02 
 4.0000000996732E-02  4.0000000505305E-02  4.0000000013877E-02  3.9999999522450E-02  3.9999999031022E-02  3.9999998539594E-02  3.9999998048167E-02  3.9999997556739E-02  3.9999997065311E-02  3.9999996573885E-02 
 1.0307456423307E-02  1.0307456423307E-02  1.0307456423306E-02  1.0307456423306E-02  1.0307456423306E-02  1.0307456423306E-02  1.0307456423306E-02  1.0307456423306E-02  1.0307456423306E-02  1.0307456423306E-02 
 8.0911499769706E-01  8.0911499769706E-01  8.0911499769706E-01  8.0911499769706E-01  8.0911499769706E-01  8.0911499769706E-01  8.0911499769706E-01  8.0911499769706E-01  8.0911499769706E-01  8.0911499769706E-01 
 2.6811111111111E-05  5.3622222222222E-05  5.3622222222222E-05  5.3622222222222E-05  5.3622222222222E-05  5.3622222222222E-05  5.3622222222222E-05  5.3622222222223E-05  5.3622222222222E-05  2.6811111111111E-05 
 1.9088500230294E-01  1.9088500230294E-01  1.9088500230294E-01  1.9088500230294E-01  1.9088500230294E-01  1.9088500230294E-01  1.9088500230294E-01  1.9088500230294E-01  1.9088500230294E-01  1.9088500230294E-01 
 3.4155065681897E-29  3.0910334291073E-29  3.0910333774684E-29  3.0910333455168E-29  3.0910333100150E-29  3.0910332693494E-29  3.0910332338476E-29  3.0910331960867E-29  3.0910331541301E-29  3.4155062389916E-29 
 3.4155065681897E-21  3.0910334291073E-21  3.0910333774684E-21  3.0910333455168E-21  3.0910333100150E-21  3.0910332693494E-21  3.0910332338476E-21  3.0910331960867E-21  3.0910331541301E-21  3.4155062389916E-21 
 3.4155065681897E-21  3.0910334291073E-21  3.0910333774684E-21  3.0910333455168E-21  3.0910333100150E-21  3.0910332693494E-21  3.0910332338476E-21  3.0910331960867E-21  3.0910331541301E-21  3.4155062389916E-21 
 0.0000000000000E+00  0.0000000000000E+00  0.0000000000000E+00  0.0000000000000E+00  0.0000000000000E+00  0.0000000000000E+00  0.0000000000000E+00  0.0000000000000E+00  0.0000000000000E+00  0.0000000000000E+00 
ZONE T = "SEP , 2.0000E-08", I = 10, SOLUTIONTIME = 2.000000E-08
ZONETYPE = ORDERED
DATAPACKING = BLOCK
STRANDID = 2
 7.8740000000000E-04  8.4102222222222E-04  8.9464444444444E-04  9.4826666666667E-04  1.0018888888889E-03  1.0555111111111E-03  1.1091333333333E-03  1.1627555555556E-03  1.2163777777778E-03  1.2700000000000E-03 
-2.3608363424834E-12 -2.3608363424799E-12 -2.3608363424777E-12 -2.3608363424777E-12 -2.3608363424777E-12 -2.3608363424777E-12 -2.3608363424755E-12 -2.3608363424689E-12 -2.3608363424689E-12 -2.3613650040881E-12 
 9.1999999800654E-01  9.1999999898939E-01  9.1999999997225E-01  9.2000000095510E-01  9.2000000193796E-01  9.2000000292081E-01  9.2000000390367E-01  9.2000000488652E-01  9.2000000586938E-01  9.2000000685223E-01 
 4.0000000996731E-02  4.0000000505305E-02  4.0000000013877E-02  3.9999999522450E-02  3.9999999031022E-02  3.9999998539594E-02  3.9999998048167E-02  3.9999997556739E-02  3.9999997065311E-02  3.9999996573886E-02 
 4.0000000996731E-02  4.0000000505305E-02  4.0000000013877E-02  3.9999999522450E-02  3.9999999031022E-02  3.9999998539594E-02  3.9999998048167E-02  3.9999997556739E-02  3.9999997065311E-02  3.9999996573886E-02 
 1.0307456420514E-02  1.0307456420514E-02  1.0307456420514E-02  1.0307456420514E-02  1.0307456420514E-02  1.0307456420514E-02  1.0307456420514E-02  1.0307456420514E-02  1.0307456420514E-02  1.0307456420514E-02 
 8.0911499769706E-01  8.0911499769706E-01  8.0911499769706E-01  8.0911499769706E-01  8.0911499769706E-01  8.0911499769706E-01  8.0911499769706E-01  8.0911499769706E-01  8.0911499769706E-01  8.0911499769706E-01 
 2.6811111111111E-05  5.3622222222222E-05  5.3622222222222E-05  5.3622222222222E-05  5.3622222222222E-05  5.3622222222222E-05  5.3622222222222E-05  5.3622222222223E-05  5.3622222222222E-05  2.6811111111111E-05 
 1.9088500230294E-01  1.9088500230294E-01  1.9088500230294E-01  1.9088500230294E-01  1.9088500230294E-01  1.9088500230294E-01  1.9088500230294E-01  1.9088500230294E-01  1.9088500230294E-01  1.9088500230294E-01 
 1.5745485264637E-28  1.5421012064234E-28  1.5421011853160E-28  1.5421011655641E-28  1.5421011472968E-28  1.5421011272867E-28  1.5421011090195E-28  1.5421010905263E-28  1.4789142066731E-28  1.4481746434734E-28 
 1.2329978696448E-20  1.2329978635126E-20  1.2329978475691E-20  1.2329978310124E-20  1.2329978162953E-20  1.2329978003518E-20  1.2329977856347E-20  1.2329977709176E-20  1.1698108912601E-20  1.1066240195743E-20 
 1.2329978696448E-20  1.2329978635126E-20  1.2329978475691E-20  1.2329978310124E-20  1.2329978162953E-20  1.2329978003518E-20  1.2329977856347E-20  1.2329977709176E-20  1.1698108912601E-20  1.1066240195743E-20 
 0.0000000000000E+00  0.0000000000000E+00  0.0000000000000E+00  0.0000000000000E+00  0.0000000000000E+00  0.0000000000000E+00  0.0000000000000E+00  0.0000000000000E+00  0.0000000000000E+00  0.0000000000000E+00 
ZONE T = "SEP , 3.0000E-08", I = 10, SOLUTIONTIME = 3.000000E-08
ZONETYPE = ORDERED
DATAPACKING = BLOCK
STRANDID = 2
 7.8740000000000E-04  8.4102222222222E-04  8.9464444444444E-04  9.4826666666667E-04  1.0018888888889E-03  1.0555111111111E-03  1.1091333333333E-03  1.1627555555556E-03  1.2163777777778E-03  1.2700000000000E-03 
 2.0832175430231E-17  2.0832179042280E-17  2.0832181233622E-17  2.0832181233420E-17  2.0832181232612E-17  2.0832181230997E-17  2.0832183426579E-17  2.0832189999192E-17  2.0832189998990E-17 -1.4533391263413E-12 
 9.1999999800654E-01  9.1999999898939E-01  9.1999999997225E-01  9.2000000095510E-01  9.2000000193796E-01  9.2000000292081E-01  9.2000000390367E-01  9.2000000488652E-01  9.2000000586938E-01  9.2000000685223E-01 
 4.0000000996730E-02  4.0000000505305E-02  4.0000000013877E-02  3.9999999522450E-02  3.9999999031022E-02  3.9999998539594E-02  3.9999998048167E-02  3.9999997556739E-02  3.9999997065311E-02  3.9999996573887E-02 
 4.0000000996730E-02  4.0000000505305E-02  4.0000000013877E-02  3.9999999522450E-02  3.9999999031022E-02  3.9999998539594E-02  3.9999998048167E-02  3.9999997556739E-02  3.9999997065311E-02  3.9999996573887E-02 
 1.0307456417722E-02  1.0307456417722E-02  1.0307456417722E-02  1.0307456417722E-02  1.0307456417722E-02  1.0307456417721E-02  1.0307456417721E-02  1.0307456417721E-02  1.0307456417721E-02  1.0307456417721E-02 
 8.0911499769706E-01  8.0911499769706E-01  8.0911499769706E-01  8.0911499769706E-01  8.0911499769706E-01  8.0911499769706E-01  8.0911499769706E-01  8.0911499769706E-01  8.0911499769706E-01  8.0911499769706E-01 
 2.6811111111111E-05  5.3622222222222E-05  5.3622222222222E-05  5.3622222222222E-05  5.3622222222222E-05  5.3622222222222E-05  5.3622222222222E-05  5.3622222222223E-05  5.3622222222222E-05  2.6811111111111E-05 
 1.9088500230294E-01  1.9088500230294E-01  1.9088500230294E-01  1.9088500230294E-01  1.9088500230294E-01  1.9088500230294E-01  1.9088500230294E-01  1.9088500230294E-01  1.9088500230294E-01  1.9088500230294E-01 
 4.4469895443212E-28  4.3172002734547E-28  4.3172002177169E-28  4.3172001663362E-28  4.2198581803634E-28  4.3172000557644E-28  4.3172000049646E-28  4.3171999509051E-28  4.2540130345194E-28  4.1259315265290E-28 
 2.8724410178574E-20  2.7750990670313E-20  2.7750990324010E-20  2.7750990007721E-20  2.6777570330666E-20  2.7750989284777E-20  2.7750988959452E-20  2.7750988603788E-20  2.7750988278463E-20  2.6777568830556E-20 
 2.8724410178574E-20  2.7750990670313E-20  2.7750990324010E-20  2.7750990007721E-20  2.6777570330666E-20  2.7750989284777E-20  2.7750988959452E-20  2.7750988603788E-20  2.7750988278463E-20  2.6777568830556E-20 
 0.0000000000000E+00  0.0000000000000E+00  0.0000000000000E+00  0.0000000000000E+00  0.0000000000000E+00  0.0000000000000E+00  0.0000000000000E+00  0.0000000000000E+00  0.0000000000000E+00  0.0000000000000E+00 
ZONE T = "SEP , 4.0000E-08", I = 10, SOLUTIONTIME = 4.000000E-08
ZONETYPE = ORDERED
DATAPACKING = BLOCK
STRANDID = 2
 7.8740000000000E-04  8.4102222222222E-04  8.9464444444444E-04  9.4826666666667E-04  1.0018888888889E-03  1.0555111111111E-03  1.1091333333333E-03  1.1627555555556E-03  1.2163777777778E-03  1.2700000000000E-03 
 1.8163164015115E-13  1.8163164015487E-13  1.8163164015706E-13  1.8163164015706E-13  1.8163164015706E-13  1.8163164015706E-13  1.8163164015926E-13  1.8163164016583E-13  1.8163164016583E-13  7.2591379867760E-13 
 9.1999999800654E-01  9.1999999898939E-01  9.1999999997225E-01  9.2000000095510E-01  9.2000000193796E-01  9.2000000292081E-01  9.2000000390367E-01  9.2000000488652E-01  9.2000000586938E-01  9.2000000685222E-01 
 4.0000000996729E-02  4.0000000505305E-02  4.0000000013877E-02  3.9999999522450E-02  3.9999999031022E-02  3.9999998539594E-02  3.9999998048167E-02  3.9999997556739E-02  3.9999997065311E-02  3.9999996573888E-02 
 4.0000000996729E-02  4.0000000505305E-02  4.0000000013877E-02  3.9999999522450E-02  3.9999999031022E-02  3.9999998539594E-02  3.9999998048167E-02  3.9999997556739E-02  3.9999997065311E-02  3.9999996573888E-02 
 1.0307456414929E-02  1.0307456414929E-02  1.0307456414928E-02  1.0307456414928E-02  1.0307456414928E-02  1.0307456414928E-02  1.0307456414928E-02  1.0307456414928E-02  1.0307456414928E-02  1.0307456414928E-02 
 8.0911499769706E-01  8.0911499769706E-01  8.0911499769706E-01  8.0911499769706E-01  8.0911499769706E-01  8.0911499769706E-01  8.0911499769706E-01  8.0911499769706E-01  8.0911499769706E-01  8.0911499769706E-01 
 2.6811111111111E-05  5.3622222222222E-05  5.3622222222222E-05  5.3622222222222E-05  5.3622222222222E-05  5.3622222222222E-05  5.3622222222222E-05  5.3622222222223E-05  5.3622222222222E-05  2.6811111111111E-05 
 1.9088500230294E-01  1.9088500230294E-01  1.9088500230294E-01  1.9088500230294E-01  1.9088500230294E-01  1.9088500230294E-01  1.9088500230294E-01  1.9088500230294E-01  1.9088500230294E-01  1.9088500230294E-01 
 9.3789810253531E-28  9.2491917238260E-28  9.2491916055406E-28  9.2491914965180E-28  9.1518494504503E-28  9.2491912596245E-28  9.2491911511827E-28  9.1211095521464E-28  9.0579225719867E-28  9.0579225194441E-28 
 4.9319914810319E-20  4.9319914503713E-20  4.9319913878237E-20  4.9319913301817E-20  4.9319912700869E-20  4.9319912038601E-20  4.9319911462181E-20  4.8039096012413E-20  4.8039095374673E-20  4.9319909929151E-20 
 4.9319914810319E-20  4.9319914503713E-20  4.9319913878237E-20  4.9319913301817E-20  4.9319912700869E-20  4.9319912038601E-20  4.9319911462181E-20  4.8039096012413E-20  4.8039095374673E-20  4.9319909929151E-20 
 0.0000000000000E+00  0.0000000000000E+00  0.0000000000000E+00  0.0000000000000E+00  0.0000000000000E+00  0.0000000000000E+00  0.0000000000000E+00  0.0000000000000E+00  0.0000000000000E+00  0.0000000000000E+00 
ZONE T = "SEP , 5.5000E-08", I = 10, SOLUTIONTIME = 5.500000E-08
ZONETYPE = ORDERED
DATAPACKING = BLOCK
STRANDID = 2
 7.8740000000000E-04  8.4102222222222E-04  8.9464444444444E-04  9.4826666666667E-04  1.0018888888889E-03  1.0555111111111E-03  1.1091333333333E-03  1.1627555555556E-03  1.2163777777778E-03  1.2700000000000E-03 
-1.0895849909980E-12 -1.0895849909952E-12 -1.0895849909938E-12 -1.0895849909938E-12 -1.0895849909938E-12 -1.0895849909938E-12 -1.0895849909923E-12 -1.0895849909879E-12 -1.0895849909879E-12 -1.0901150028042E-12 
 9.1999999800655E-01  9.1999999898939E-01  9.1999999997225E-01  9.2000000095510E-01  9.2000000193796E-01  9.2000000292081E-01  9.2000000390367E-01  9.2000000488652E-01  9.2000000586938E-01  9.2000000685222E-01 
 4.0000000996727E-02  4.0000000505305E-02  4.0000000013877E-02  3.9999999522450E-02  3.9999999031022E-02  3.9999998539594E-02  3.9999998048167E-02  3.9999997556739E-02  3.9999997065311E-02  3.9999996573890E-02 
 4.0000000996727E-02  4.0000000505305E-02  4.0000000013877E-02  3.9999999522450E-02  3.9999999031022E-02  3.9999998539594E-02  3.9999998048167E-02  3.9999997556739E-02  3.9999997065311E-02  3.9999996573890E-02 
 1.0307456410740E-02  1.0307456410740E-02  1.0307456410740E-02  1.0307456410740E-02  1.0307456410740E-02  1.0307456410739E-02  1.0307456410739E-02  1.0307456410739E-02  1.0307456410739E-02  1.0307456410739E-02 
 8.0911499769706E-01  8.0911499769706E-01  8.0911499769706E-01  8.0911499769706E-01  8.0911499769706E-01  8.0911499769706E-01  8.0911499769706E-01  8.0911499769706E-01  8.0911499769706E-01  8.0911499769706E-01 
 2.6811111111111E-05  5.3622222222222E-05  5.3622222222222E-05  5.3622222222222E-05  5.3622222222222E-05  5.3622222222222E-05  5.3622222222222E-05  5.3622222222223E-05  5.3622222222222E-05  2.6811111111111E-05 
 1.9088500230294E-01  1.9088500230294E-01  1.9088500230294E-01  1.9088500230294E-01  1.9088500230294E-01  1.9088500230294E-01  1.9088500230294E-01  1.9088500230294E-01  1.9088500230294E-01  1.9088500230294E-01 
 2.3232275652840E-27  2.3102486268239E-27  2.3102485981288E-27  2.3371456833693E-27  2.3274114618960E-27  2.3102485124340E-27  2.3102484847233E-27  2.2974403077013E-27  2.2911215925671E-27  2.2911215792571E-27 
 9.2355297516579E-20  9.2355296962752E-20  9.2355295838315E-20  9.4148435581168E-20  9.4148434456731E-20  9.2355292431437E-20  9.2355291307000E-20  9.2355290165779E-20  9.2355289024560E-20  9.2355288487515E-20 
 9.2355297516579E-20  9.2355296962752E-20  9.2355295838315E-20  9.4148435581168E-20  9.4148434456731E-20  9.2355292431437E-20  9.2355291307000E-20  9.2355290165779E-20  9.2355289024560E-20  9.2355288487515E-20 
 0.0000000000000E+00  0.0000000000000E+00  0.0000000000000E+00  0.0000000000000E+00  0.0000000000000E+00  0.0000000000000E+00  0.0000000000000E+00  0.0000000000000E+00  0.0000000000000E+00  0.0000000000000E+00 
ZONE T = "SEP , 7.7500E-08", I = 10, SOLUTIONTIME = 7.750000E-08
ZONETYPE = ORDERED
DATAPACKING = BLOCK
STRANDID = 2
 7.8740000000000E-04  8.4102222222222E-04  8.9464444444444E-04  9.4826666666667E-04  1.0018888888889E-03  1.0555111111111E-03  1.1091333333333E-03  1.1627555555556E-03  1.2163777777778E-03  1.2700000000000E-03 
 1.2914590708229E-12  1.2914590708252E-12  1.2914590708262E-12  1.2914590708262E-12  1.2914590708262E-12  1.2914590708261E-12  1.2914590708271E-12  1.2914590708300E-12  1.2914590708300E-12  1.6944923330062E-12 
 9.1999999800655E-01  9.1999999898939E-01  9.1999999997225E-01  9.2000000095510E-01  9.2000000193796E-01  9.2000000292081E-01  9.2000000390367E-01  9.2000000488652E-01  9.2000000586938E-01  9.2000000685222E-01 
 4.0000000996725E-02  4.0000000505305E-02  4.0000000013877E-02  3.9999999522450E-02  3.9999999031022E-02  3.9999998539594E-02  3.9999998048167E-02  3.9999997556739E-02  3.9999997065311E-02  3.9999996573892E-02 
 4.0000000996725E-02  4.0000000505305E-02  4.0000000013877E-02  3.9999999522450E-02  3.9999999031022E-02  3.9999998539594E-02  3.9999998048167E-02  3.9999997556739E-02  3.9999997065311E-02  3.9999996573892E-02 
 1.0307456404456E-02  1.0307456404456E-02  1.0307456404455E-02  1.0307456404455E-02  1.0307456404455E-02  1.0307456404455E-02  1.0307456404455E-02  1.0307456404455E-02  1.0307456404455E-02  1.0307456404455E-02 
 8.0911499769706E-01  8.0911499769706E-01  8.0911499769706E-01  8.0911499769706E-01  8.0911499769706E-01  8.0911499769706E-01  8.0911499769706E-01  8.0911499769706E-01  8.0911499769706E-01  8.0911499769706E-01 
 2.6811111111111E-05  5.3622222222222E-05  5.3622222222222E-05  5.3622222222222E-05  5.3622222222222E-05  5.3622222222222E-05  5.3622222222222E-05  5.3622222222223E-05  5.3622222222222E-05  2.6811111111111E-05 
 1.9088500230294E-01  1.9088500230294E-01  1.9088500230294E-01  1.9088500230294E-01  1.9088500230294E-01  1.9088500230294E-01  1.9088500230294E-01  1.9088500230294E-01  1.9088500230294E-01  1.9088500230294E-01 
 6.4185053235427E-27  6.4620102997733E-27  6.4620102207181E-27  6.4889072554461E-27  6.4791729841429E-27  6.4055260448677E-27  6.4620099036068E-27  6.4492016762248E-27  6.4428829068164E-27  6.4993668014874E-27 
 1.8201234481150E-19  1.8452274101997E-19  1.8452273878175E-19  1.8452273653675E-19  1.8452273432208E-19  1.8201233477483E-19  1.8452272972816E-19  1.8452272748993E-19  1.8452272507775E-19  1.8703312098801E-19 
 1.8201234481150E-19  1.8452274101997E-19  1.8452273878175E-19  1.8452273653675E-19  1.8452273432208E-19  1.8201233477483E-19  1.8452272972816E-19  1.8452272748993E-19  1.8452272507775E-19  1.8703312098801E-19 
 0.0000000000000E+00  0.0000000000000E+00  0.0000000000000E+00  0.0000000000000E+00  0.0000000000000E+00  0.0000000000000E+00  0.0000000000000E+00  0.0000000000000E+00  0.0000000000000E+00  0.0000000000000E+00 
ZONE T = "SEP , 1.1125E-07", I = 10, SOLUTIONTIME = 1.112500E-07
ZONETYPE = ORDERED
DATAPACKING = BLOCK
STRANDID = 2
 7.8740000000000E-04  8.4102222222222E-04  8.9464444444444E-04  9.4826666666667E-04  1.0018888888889E-03  1.0555111111111E-03  1.1091333333333E-03  1.1627555555556E-03  1.2163777777778E-03  1.2700000000000E-03 
-6.9943392677200E-13 -6.9943392676982E-13 -6.9943392676917E-13 -6.9943392676917E-13 -6.9943392676917E-13 -6.9943392676917E-13 -6.9943392676852E-13 -6.9943392676657E-13 -6.9943392676657E-13 -1.1304345266590E-12 
 9.1999999800656E-01  9.1999999898939E-01  9.1999999997225E-01  9.2000000095510E-01  9.2000000193796E-01  9.2000000292081E-01  9.2000000390367E-01  9.2000000488652E-01  9.2000000586938E-01  9.2000000685221E-01 
 4.0000000996722E-02  4.0000000505305E-02  4.0000000013877E-02  3.9999999522450E-02  3.9999999031022E-02  3.9999998539594E-02  3.9999998048167E-02  3.9999997556739E-02  3.9999997065311E-02  3.9999996573896E-02 
 4.0000000996722E-02  4.0000000505305E-02  4.0000000013877E-02  3.9999999522450E-02  3.9999999031022E-02  3.9999998539594E-02  3.9999998048167E-02  3.9999997556739E-02  3.9999997065311E-02  3.9999996573896E-02 
 1.0307456395029E-02  1.0307456395029E-02  1.0307456395029E-02  1.0307456395029E-02  1.0307456395028E-02  1.0307456395028E-02  1.0307456395028E-02  1.0307456395028E-02  1.0307456395028E-02  1.0307456395027E-02 
 8.0911499769706E-01  8.0911499769706E-01  8.0911499769706E-01  8.0911499769706E-01  8.0911499769706E-01  8.0911499769706E-01  8.0911499769706E-01  8.0911499769706E-01  8.0911499769706E-01  8.0911499769706E-01 
 2.6811111111111E-05  5.3622222222222E-05  5.3622222222222E-05  5.3622222222222E-05  5.3622222222222E-05  5.3622222222222E-05  5.3622222222222E-05  5.3622222222223E-05  5.3622222222222E-05  2.6811111111111E-05 
 1.9088500230294E-01  1.9088500230294E-01  1.9088500230294E-01  1.9088500230294E-01  1.9088500230294E-01  1.9088500230294E-01  1.9088500230294E-01  1.9088500230294E-01  1.9088500230294E-01  1.9088500230294E-01 
 1.9127391776316E-26  1.9292510058384E-26  1.9292509827214E-26  1.9197793325073E-26  1.9309672271563E-26  1.9236025175598E-26  1.9292508875000E-26  1.9279700490928E-26  1.9151768195282E-26  1.9208252014467E-26 
 3.7655959860070E-19  3.8016295581070E-19  3.8016295130359E-19  3.7655958724821E-19  3.8016294184948E-19  3.8016293720682E-19  3.8016293248573E-19  3.8016292784306E-19  3.7655956410268E-19  3.7655956186607E-19 
 3.7655959860070E-19  3.8016295581070E-19  3.8016295130359E-19  3.7655958724821E-19  3.8016294184948E-19  3.8016293720682E-19  3.8016293248573E-19  3.8016292784306E-19  3.7655956410268E-19  3.7655956186607E-19 
 0.0000000000000E+00  0.0000000000000E+00  0.0000000000000E+00  0.0000000000000E+00  0.0000000000000E+00  0.0000000000000E+00  0.0000000000000E+00  0.0000000000000E+00  0.0000000000000E+00  0.0000000000000E+00 
ZONE T = "SEP , 1.6188E-07", I = 10, SOLUTIONTIME = 1.618750E-07
ZONETYPE = ORDERED
DATAPACKING = BLOCK
STRANDID = 2
 7.8740000000000E-04  8.4102222222222E-04  8.9464444444444E-04  9.4826666666667E-04  1.0018888888889E-03  1.0555111111111E-03  1.1091333333333E-03  1.1627555555556E-03  1.2163777777778E-03  1.2700000000000E-03 
-2.5099417026012E-13 -2.5099417025772E-13 -2.5099417025728E-13 -2.5099417025728E-13 -2.5099417025728E-13 -2.5099417025729E-13 -2.5099417025685E-13 -2.5099417025555E-13 -2.5099417025555E-13 -1.4391120047774E-13 
 9.1999999800657E-01  9.1999999898939E-01  9.1999999997225E-01  9.2000000095510E-01  9.2000000193796E-01  9.2000000292081E-01  9.2000000390367E-01  9.2000000488652E-01  9.2000000586938E-01  9.2000000685220E-01 
 4.0000000996717E-02  4.0000000505305E-02  4.0000000013877E-02  3.9999999522450E-02  3.9999999031022E-02  3.9999998539594E-02  3.9999998048167E-02  3.9999997556739E-02  3.9999997065311E-02  3.9999996573901E-02 
 4.0000000996717E-02  4.0000000505305E-02  4.0000000013877E-02  3.9999999522450E-02  3.9999999031022E-02  3.9999998539594E-02  3.9999998048167E-02  3.9999997556739E-02  3.9999997065311E-02  3.9999996573901E-02 
 1.0307456380890E-02  1.0307456380890E-02  1.0307456380889E-02  1.0307456380889E-02  1.0307456380889E-02  1.0307456380888E-02  1.0307456380888E-02  1.0307456380888E-02  1.0307456380888E-02  1.0307456380887E-02 
 8.0911499769706E-01  8.0911499769706E-01  8.0911499769706E-01  8.0911499769706E-01  8.0911499769706E-01  8.0911499769706E-01  8.0911499769706E-01  8.0911499769706E-01  8.0911499769706E-01  8.0911499769706E-01 
 2.6811111111111E-05  5.3622222222222E-05  5.3622222222222E-05  5.3622222222222E-05  5.3622222222222E-05  5.3622222222222E-05  5.3622222222222E-05  5.3622222222223E-05  5.3622222222222E-05  2.6811111111111E-05 
 1.9088500230294E-01  1.9088500230294E-01  1.9088500230294E-01  1.9088500230294E-01  1.9088500230294E-01  1.9088500230294E-01  1.9088500230294E-01  1.9088500230294E-01  1.9088500230294E-01  1.9088500230294E-01 
 5.9603898319537E-26  6.0034433228559E-26  6.0034432494919E-26  5.9674298623370E-26  6.0051593944426E-26  5.9977946345992E-26  5.9769012683388E-26  5.9756203799346E-26  5.9893687856716E-26  6.0215588283901E-26 
 7.9953593171795E-19  8.0477872928739E-19  8.0477871936207E-19  7.9953590712685E-19  8.0477869971088E-19  8.0477868978556E-19  7.9953587769654E-19  7.9953586782059E-19  8.0477865997894E-19  8.1002145717401E-19 
 7.9953593171795E-19  8.0477872928739E-19  8.0477871936207E-19  7.9953590712685E-19  8.0477869971088E-19  8.0477868978556E-19  7.9953587769654E-19  7.9953586782059E-19  8.0477865997894E-19  8.1002145717401E-19 
 0.0000000000000E+00  0.0000000000000E+00  0.0000000000000E+00  0.0000000000000E+00  0.0000000000000E+00  0.0000000000000E+00  0.0000000000000E+00  0.0000000000000E+00  0.0000000000000E+00  0.0000000000000E+00 
ZONE T = "SEP , 2.3781E-07", I = 10, SOLUTIONTIME = 2.378125E-07
ZONETYPE = ORDERED
DATAPACKING = BLOCK
STRANDID = 2
 7.8740000000000E-04  8.4102222222222E-04  8.9464444444444E-04  9.4826666666667E-04  1.0018888888889E-03  1.0555111111111E-03  1.1091333333333E-03  1.1627555555556E-03  1.2163777777778E-03  1.2700000000000E-03 
 1.6513843333479E-16  1.6513843381387E-16  1.6513843410251E-16  1.6513843410251E-16  1.6513843410176E-16  1.6513843410019E-16  1.6513843439326E-16  1.6513843525918E-16  1.6513843525918E-16  1.1920263481887E-13 
 9.1999999800658E-01  9.1999999898939E-01  9.1999999997225E-01  9.2000000095510E-01  9.2000000193796E-01  9.2000000292081E-01  9.2000000390367E-01  9.2000000488652E-01  9.2000000586938E-01  9.2000000685218E-01 
 4.0000000996709E-02  4.0000000505305E-02  4.0000000013877E-02  3.9999999522450E-02  3.9999999031022E-02  3.9999998539594E-02  3.9999998048167E-02  3.9999997556739E-02  3.9999997065311E-02  3.9999996573910E-02 
 4.0000000996709E-02  4.0000000505305E-02  4.0000000013877E-02  3.9999999522450E-02  3.9999999031022E-02  3.9999998539594E-02  3.9999998048167E-02  3.9999997556739E-02  3.9999997065311E-02  3.9999996573910E-02 
 1.0307456359681E-02  1.0307456359680E-02  1.0307456359680E-02  1.0307456359679E-02  1.0307456359679E-02  1.0307456359679E-02  1.0307456359678E-02  1.0307456359678E-02  1.0307456359678E-02  1.0307456359677E-02 
 8.0911499769706E-01  8.0911499769706E-01  8.0911499769706E-01  8.0911499769706E-01  8.0911499769706E-01  8.0911499769706E-01  8.0911499769706E-01  8.0911499769706E-01  8.0911499769706E-01  8.0911499769706E-01 
 2.6811111111111E-05  5.3622222222222E-05  5.3622222222222E-05  5.3622222222222E-05  5.3622222222222E-05  5.3622222222222E-05  5.3622222222222E-05  5.3622222222223E-05  5.3622222222222E-05  2.6811111111111E-05 
 1.9088500230294E-01  1.9088500230294E-01  1.9088500230294E-01  1.9088500230294E-01  1.9088500230294E-01  1.9088500230294E-01  1.9088500230294E-01  1.9088500230294E-01  1.9088500230294E-01  1.9088500230294E-01 
 1.9207718088957E-25  1.9192284685557E-25  1.9133797637381E-25  1.9097784090309E-25  1.9194000273203E-25  1.9186635350686E-25  1.9107255011047E-25  1.9105973961071E-25  1.9178209013947E-25  1.9268885784865E-25 
 1.7445041326095E-18  1.7368021547590E-18  1.7291001663064E-18  1.7291001452474E-18  1.7368020910301E-18  1.7368020696081E-18  1.7291000813443E-18  1.7291000600674E-18  1.7368020053696E-18  1.7445039613465E-18 
 1.7445041326095E-18  1.7368021547590E-18  1.7291001663064E-18  1.7291001452474E-18  1.7368020910301E-18  1.7368020696081E-18  1.7291000813443E-18  1.7291000600674E-18  1.7368020053696E-18  1.7445039613465E-18 
 0.0000000000000E+00  0.0000000000000E+00  0.0000000000000E+00  0.0000000000000E+00  0.0000000000000E+00  0.0000000000000E+00  0.0000000000000E+00  0.0000000000000E+00  0.0000000000000E+00  0.0000000000000E+00 
ZONE T = "SEP , 3.5172E-07", I = 10, SOLUTIONTIME = 3.517188E-07
ZONETYPE = ORDERED
DATAPACKING = BLOCK
STRANDID = 2
 7.8740000000000E-04  8.4102222222222E-04  8.9464444444444E-04  9.4826666666667E-04  1.0018888888889E-03  1.0555111111111E-03  1.1091333333333E-03  1.1627555555556E-03  1.2163777777778E-03  1.2700000000000E-03 
 1.9156353256200E-13  1.9156353256196E-13  1.9156353256215E-13  1.9156353256215E-13  1.9156353256215E-13  1.9156353256215E-13  1.9156353256234E-13  1.9156353256292E-13  1.9156353256292E-13  1.4319224995049E-13 
 9.1999999800660E-01  9.1999999898939E-01  9.1999999997225E-01  9.2000000095510E-01  9.2000000193796E-01  9.2000000292081E-01  9.2000000390367E-01  9.2000000488652E-01  9.2000000586938E-01  9.2000000685216E-01 
 4.0000000996698E-02  4.0000000505305E-02  4.0000000013877E-02  3.9999999522450E-02  3.9999999031022E-02  3.9999998539594E-02  3.9999998048167E-02  3.9999997556739E-02  3.9999997065311E-02  3.9999996573922E-02 