TITLE = "Solution on Domain BulkDomain1D_2"
VARIABLES = "x [m]"  
"Vel_axial" 	"MF_sp(ECDMC)" 	"MF_sp(Li+)" 	"MF_sp(PF6-)" 	"Volt(Electroly)" 	"Volt(CathodeVo)" 	
"Potential Drop Electrode-Electrolyte [V]" 	"Surf_0 Equilibrium Potential Drop Electrode-Electrolyte [V]" 	"Overpotential_0 [V]" 	"Current Source [A/m^2]" 	"Li+ flux [kmol/m^2/s]" 	"Electrolyte Current [A/m^2]" 	"Electrode Current [A/m^2]" 	
"CV Capacity discharged [A-s/m^2]" 	"Depth of discharge in CV [A-s/m^2]" 	"CV Capacity remaining [A-s/m^2]" 	"Initial CV capacity [A-s/m^2]" 	"Porosity []" 	"Surface Area [m2/m2] (area per area)" 	"Specific current (per particle area) [A/m^2]" 	"Control volume thickness [m]" 	
"MoleDens LiCoO2 [kmol/m^3]" 	"MoleDens CoO2 [kmol/m^3]" 	"qHeat_accum [J/m3]" 	"qHeat_step [W/m3]" 	"Joule_Lyte [W/m3]" 	"Joule_Solid [W/m3]" 	"electrodHeat [W/m3]" 	"OverpotHeat [W/m3]" 	"deltaSHeat [W/m3]" 	

ZONE T = "CATH, 0.0000E+00", I = 10, SOLUTIONTIME = 0.000000E+00
ZONETYPE = ORDERED
DATAPACKING = BLOCK
STRANDID = 3
 1.2700000000000E-03  1.3377333333333E-03  1.4054666666667E-03  1.4732000000000E-03  1.5409333333333E-03  1.6086666666667E-03  1.6764000000000E-03  1.7441333333333E-03  1.8118666666667E-03  1.8796000000000E-03 
 1.3694448462157E-10  1.2083255255886E-10  1.0472070236525E-10  8.8608995725602E-11  7.2497494325945E-11  5.6386259853968E-11  4.0275353999538E-11  2.4164838455195E-11  8.0547749166607E-12  0.0000000000000E+00 
 9.2000000685223E-01  9.2000001097352E-01  9.2000001460992E-01  9.2000001776145E-01  9.2000002042810E-01  9.2000002260988E-01  9.2000002430680E-01  9.2000002551887E-01  9.2000002624610E-01  9.2000002648851E-01 
 3.9999996573884E-02  3.9999994513240E-02  3.9999992695038E-02  3.9999991119275E-02  3.9999989785950E-02  3.9999988695059E-02  3.9999987846598E-02  3.9999987240563E-02  3.9999986876948E-02  3.9999986755745E-02 
 3.9999996573884E-02  3.9999994513240E-02  3.9999992695038E-02  3.9999991119275E-02  3.9999989785950E-02  3.9999988695059E-02  3.9999987846598E-02  3.9999987240563E-02  3.9999986876948E-02  3.9999986755745E-02 
 1.0249108254567E-02  1.0249106815892E-02  1.0249105546482E-02  1.0249104446335E-02  1.0249103515450E-02  1.0249102753825E-02  1.0249102161457E-02  1.0249101738343E-02  1.0249101484479E-02  1.0249101399859E-02 
 3.9000009791936E+00  3.9000009671045E+00  3.9000009308372E+00  3.9000008703919E+00  3.9000007857688E+00  3.9000006769682E+00  3.9000005439905E+00  3.9000003868361E+00  3.9000002055057E+00  3.9000000000000E+00 
 3.8897518709390E+00  3.8897518602886E+00  3.8897518252908E+00  3.8897517659456E+00  3.8897516822534E+00  3.8897515742144E+00  3.8897514418290E+00  3.8897512850978E+00  3.8897511040213E+00  3.8897508986001E+00 
 3.9027881867849E+00  3.9027881627299E+00  3.9027880720404E+00  3.9027879147158E+00  3.9027876907552E+00  3.9027874001572E+00  3.9027870429200E+00  3.9027866190412E+00  3.9027861285183E+00  3.9027855713482E+00 
-1.3036315845868E-02 -1.3036302441270E-02 -1.3036246749610E-02 -1.3036148770204E-02 -1.3036008501854E-02 -1.3035825942850E-02 -1.3035601090965E-02 -1.3035333943461E-02 -1.3035024497082E-02 -1.3034672748061E-02 
-1.1601247272902E-02 -2.3202465486304E-02 -2.3202347595669E-02 -2.3202140872942E-02 -2.3201845316441E-02 -2.3201460923766E-02 -2.3200987691781E-02 -2.3200425616634E-02 -2.3199774693747E-02 -1.1599517458910E-02 
 1.9621898046270E-09  1.7313322617773E-09  1.5004758943332E-09  1.2696215660171E-09  1.0387701885176E-09  8.0792262822629E-10  5.7707976208364E-10  3.4624250600702E-10  1.1541171734296E-10  1.1541171734296E-10 
 2.0881221254425E-01  1.8560973222768E-01  1.6240732598157E-01  1.3920508177187E-01  1.1600308882452E-01  9.2801435889915E-02  6.9600211005039E-02  4.6399504822627E-02  2.3199404785236E-02  0.0000000000000E+00 
 0.0000000000000E+00  1.8706437320548E-02  3.7412815543984E-02  5.6119062688652E-02  7.4825107803661E-02  9.3530878735559E-02  1.1223630333090E-01  1.3094131081058E-01  1.4964582988012E-01  1.7059747570913E-01 
-1.4407267233235E+04 -2.8814543891428E+04 -2.8814581009090E+04 -2.8814645819682E+04 -2.8814738323605E+04 -2.8814858521431E+04 -2.8815006413901E+04 -2.8815182001933E+04 -2.8815385286611E+04 -1.4407808134596E+04 
 2.1651345927543E+04  4.3302701280044E+04  4.3302738397706E+04  4.3302803208298E+04  4.3302895712222E+04  4.3303015910047E+04  4.3303163802518E+04  4.3303339390549E+04  4.3303542675227E+04  2.1651886828904E+04 
 3.4852467890512E+04  6.9704926356066E+04  6.9704889238405E+04  6.9704824427812E+04  6.9704731923889E+04  6.9704611726064E+04  6.9704463833592E+04  6.9704288245562E+04  6.9704084960883E+04  3.4851926989151E+04 
 5.6503813818055E+04  1.1300762763611E+05  1.1300762763611E+05  1.1300762763611E+05  1.1300762763611E+05  1.1300762763611E+05  1.1300762763611E+05  1.1300762763611E+05  1.1300762763611E+05  5.6503813818055E+04 
 3.5000000000000E-01  3.5000000000000E-01  3.5000000000000E-01  3.5000000000000E-01  3.5000000000000E-01  3.5000000000000E-01  3.5000000000000E-01  3.5000000000000E-01  3.5000000000000E-01  3.5000000000000E-01 
 6.6040000000000E+00  1.3208000000000E+01  1.3208000000000E+01  1.3208000000000E+01  1.3208000000000E+01  1.3208000000000E+01  1.3208000000000E+01  1.3208000000000E+01  1.3208000000000E+01  6.6040000000000E+00 
-1.7567000716084E-03 -1.7566978714646E-03 -1.7566889457654E-03 -1.7566732944384E-03 -1.7566509173562E-03 -1.7566218143372E-03 -1.7565859851439E-03 -1.7565434294847E-03 -1.7564941470129E-03 -1.7564381373273E-03 
 3.3866666666667E-05  6.7733333333333E-05  6.7733333333334E-05  6.7733333333333E-05  6.7733333333334E-05  6.7733333333334E-05  6.7733333333333E-05  6.7733333333334E-05  6.7733333333333E-05  3.3866666666667E-05 
 3.1012079983381E+01  3.1012081425549E+01  3.1012087105137E+01  3.1012097022180E+01  3.1012111176741E+01  3.1012129568905E+01  3.1012152198788E+01  3.1012179066528E+01  3.1012210172293E+01  3.1012245516274E+01 
 1.3326255623713E+01  1.3326254181546E+01  1.3326248501957E+01  1.3326238584914E+01  1.3326224430353E+01  1.3326206038189E+01  1.3326183408306E+01  1.3326156540566E+01  1.3326125434801E+01  1.3326090090820E+01 
 0.0000000000000E+00  0.0000000000000E+00  0.0000000000000E+00  0.0000000000000E+00  0.0000000000000E+00  0.0000000000000E+00  0.0000000000000E+00  0.0000000000000E+00  0.0000000000000E+00  0.0000000000000E+00 
 0.0000000000000E+00  0.0000000000000E+00  0.0000000000000E+00  0.0000000000000E+00  0.0000000000000E+00  0.0000000000000E+00  0.0000000000000E+00  0.0000000000000E+00  0.0000000000000E+00  0.0000000000000E+00 
 0.0000000000000E+00  0.0000000000000E+00  0.0000000000000E+00  0.0000000000000E+00  0.0000000000000E+00  0.0000000000000E+00  0.0000000000000E+00  0.0000000000000E+00  0.0000000000000E+00  0.0000000000000E+00 
 0.0000000000000E+00  0.0000000000000E+00  0.0000000000000E+00  0.0000000000000E+00  0.0000000000000E+00  0.0000000000000E+00  0.0000000000000E+00  0.0000000000000E+00  0.0000000000000E+00  0.0000000000000E+00 
 0.0000000000000E+00  0.0000000000000E+00  0.0000000000000E+00  0.0000000000000E+00  0.0000000000000E+00  0.0000000000000E+00  0.0000000000000E+00  0.0000000000000E+00  0.0000000000000E+00  0.0000000000000E+00 
 0.0000000000000E+00  0.0000000000000E+00  0.0000000000000E+00  0.0000000000000E+00  0.0000000000000E+00  0.0000000000000E+00  0.0000000000000E+00  0.0000000000000E+00  0.0000000000000E+00  0.0000000000000E+00 
 0.0000000000000E+00  0.0000000000000E+00  0.0000000000000E+00  0.0000000000000E+00  0.0000000000000E+00  0.0000000000000E+00  0.0000000000000E+00  0.0000000000000E+00  0.0000000000000E+00  0.0000000000000E+00 
ZONE T = "CATH, 1.0000E-08", I = 10, SOLUTIONTIME = 1.000000E-08
ZONETYPE = ORDERED
DATAPACKING = BLOCK
STRANDID = 3
 1.2700000000000E-03  1.3377333333333E-03  1.4054666666667E-03  1.4732000000000E-03  1.5409333333333E-03  1.6086666666667E-03  1.6764000000000E-03  1.7441333333333E-03  1.8118666666667E-03  1.8796000000000E-03 
 9.0749799454995E-13  1.8005541419259E-13 -1.8406855048644E-13 -1.2744156067265E-12 -1.2748656383878E-12 -1.2749603501830E-12 -9.1141053379072E-13 -5.4734243376941E-13 -9.0909002013663E-13 -9.0801932024232E-13 
 9.2000000685223E-01  9.2000001097351E-01  9.2000001460992E-01  9.2000001776144E-01  9.2000002042809E-01  9.2000002260988E-01  9.2000002430680E-01  9.2000002551887E-01  9.2000002624610E-01  9.2000002648850E-01 
 3.9999996573885E-02  3.9999994513243E-02  3.9999992695041E-02  3.9999991119278E-02  3.9999989785953E-02  3.9999988695062E-02  3.9999987846601E-02  3.9999987240566E-02  3.9999986876951E-02  3.9999986755748E-02 
 3.9999996573885E-02  3.9999994513243E-02  3.9999992695041E-02  3.9999991119278E-02  3.9999989785953E-02  3.9999988695062E-02  3.9999987846601E-02  3.9999987240566E-02  3.9999986876951E-02  3.9999986755748E-02 
 1.0307456423306E-02  1.0307456423312E-02  1.0307456423328E-02  1.0307456423354E-02  1.0307456423387E-02  1.0307456423426E-02  1.0307456423465E-02  1.0307456423500E-02  1.0307456423527E-02  1.0307456423538E-02 
 3.9130947766435E+00  3.9130947766425E+00  3.9130947766396E+00  3.9130947766350E+00  3.9130947766291E+00  3.9130947766223E+00  3.9130947766153E+00  3.9130947766090E+00  3.9130947766043E+00  3.9130947766023E+00 
 3.9027873202202E+00  3.9027873202192E+00  3.9027873202163E+00  3.9027873202117E+00  3.9027873202057E+00  3.9027873201989E+00  3.9027873201919E+00  3.9027873201855E+00  3.9027873201808E+00  3.9027873201787E+00 
 3.9027881867849E+00  3.9027881627299E+00  3.9027880720404E+00  3.9027879147158E+00  3.9027876907552E+00  3.9027874001572E+00  3.9027870429200E+00  3.9027866190412E+00  3.9027861285183E+00  3.9027855713482E+00 
-8.6656468756274E-07 -8.4251065990415E-07 -7.5182406877872E-07 -5.9450414591211E-07 -3.7054955281945E-07 -7.9958374588074E-08  2.7727187656978E-07  7.0114425998469E-07  1.1916624105268E-06  1.7488305377178E-06 
-7.6296044205641E-07 -1.4835642027980E-06 -1.3238746127329E-06 -1.0468512628549E-06 -6.5249265350031E-07 -1.4079664212736E-07  4.8823956574243E-07  1.2346194036688E-06  2.0983469612907E-06  1.5397134852948E-06 
 9.4021122394503E-10  8.2958524414274E-10  7.1895971700634E-10  6.0833661415756E-10  4.9771695329813E-10  3.8710178574802E-10  2.7649211429947E-10  1.6588900414471E-10  5.5293468738226E-11  5.5293468738226E-11 
 1.2010834613075E-08 -1.4903662109668E-06 -2.8895387825629E-06 -4.0705363992526E-06 -4.9158894899186E-06 -5.3081284882942E-06 -5.1299027222338E-06 -4.2640993029352E-06 -2.5932486360472E-06  0.0000000000000E+00 
 0.0000000000000E+00  1.5004481732827E-06  2.8995379286312E-06  4.0804493945282E-06  4.9258473176704E-06  5.3180528568969E-06  5.1399025528330E-06  4.2742329461040E-06  2.6031934016203E-06  1.1929278740998E-08 
-1.4407267233235E+04 -2.8814543891428E+04 -2.8814581009090E+04 -2.8814645819682E+04 -2.8814738323605E+04 -2.8814858521431E+04 -2.8815006413901E+04 -2.8815182001933E+04 -2.8815385286611E+04 -1.4407808134596E+04 
 2.1651345927543E+04  4.3302701280044E+04  4.3302738397706E+04  4.3302803208298E+04  4.3302895712222E+04  4.3303015910047E+04  4.3303163802518E+04  4.3303339390549E+04  4.3303542675227E+04  2.1651886828904E+04 
 3.4852467890512E+04  6.9704926356066E+04  6.9704889238405E+04  6.9704824427812E+04  6.9704731923889E+04  6.9704611726064E+04  6.9704463833592E+04  6.9704288245562E+04  6.9704084960883E+04  3.4851926989151E+04 
 5.6503813818055E+04  1.1300762763611E+05  1.1300762763611E+05  1.1300762763611E+05  1.1300762763611E+05  1.1300762763611E+05  1.1300762763611E+05  1.1300762763611E+05  1.1300762763611E+05  5.6503813818055E+04 
 3.5000000000000E-01  3.5000000000000E-01  3.5000000000000E-01  3.5000000000000E-01  3.5000000000000E-01  3.5000000000000E-01  3.5000000000000E-01  3.5000000000000E-01  3.5000000000000E-01  3.5000000000000E-01 
 6.6040000000000E+00  1.3208000000000E+01  1.3208000000000E+01  1.3208000000000E+01  1.3208000000000E+01  1.3208000000000E+01  1.3208000000000E+01  1.3208000000000E+01  1.3208000000000E+01  6.6040000000000E+00 
-1.1553004876687E-07 -1.1232315284661E-07 -1.0023278412575E-07 -7.9258878168908E-08 -4.9401321434003E-08 -1.0659951705584E-08  3.6965442591038E-08  9.3475121416473E-08  1.5886939440420E-07  2.3314861982054E-07 
 3.3866666666667E-05  6.7733333333333E-05  6.7733333333334E-05  6.7733333333333E-05  6.7733333333334E-05  6.7733333333334E-05  6.7733333333333E-05  6.7733333333334E-05  6.7733333333333E-05  3.3866666666667E-05 
 3.1012079983381E+01  3.1012081425549E+01  3.1012087105137E+01  3.1012097022180E+01  3.1012111176741E+01  3.1012129568905E+01  3.1012152198788E+01  3.1012179066528E+01  3.1012210172293E+01  3.1012245516274E+01 
 1.3326255623713E+01  1.3326254181546E+01  1.3326248501957E+01  1.3326238584914E+01  1.3326224430353E+01  1.3326206038189E+01  1.3326183408306E+01  1.3326156540566E+01  1.3326125434801E+01  1.3326090090820E+01 
 1.1113046199247E-22  5.3691417191817E-22  1.6968126622100E-21  3.2471899459637E-21  4.6763100109302E-21  5.4280217244514E-21  5.0812406886682E-21  3.5793800055292E-21  1.5125693454389E-21  4.6198418076204E-22 
 1.1113046199247E-14  5.3691417191817E-14  1.6968126622100E-13  3.2471899459637E-13  4.6763100109302E-13  5.4280217244514E-13  5.0812406886682E-13  3.5793800055292E-13  1.5125693454389E-13  4.6198418076204E-14 
 6.0736635032851E-17  2.9811511885359E-16  9.4614285878099E-16  1.8138276461553E-15  2.6140698478613E-15  3.0351740417668E-15  2.8408473661555E-15  1.9996486064217E-15  8.4335837148540E-16  2.5604269720463E-16 
 1.1052309564214E-14  5.3393302072963E-14  1.6873512336221E-13  3.2290516695021E-13  4.6501693124516E-13  5.3976699840338E-13  5.0528322150066E-13  3.5593835194649E-13  1.5041357617240E-13  4.5942375378999E-14 
 0.0000000000000E+00  0.0000000000000E+00  0.0000000000000E+00  0.0000000000000E+00  0.0000000000000E+00  0.0000000000000E+00  0.0000000000000E+00  0.0000000000000E+00  0.0000000000000E+00  0.0000000000000E+00 
 0.0000000000000E+00  0.0000000000000E+00  0.0000000000000E+00  0.0000000000000E+00  0.0000000000000E+00  0.0000000000000E+00  0.0000000000000E+00  0.0000000000000E+00  0.0000000000000E+00  0.0000000000000E+00 
 0.0000000000000E+00  0.0000000000000E+00  0.0000000000000E+00  0.0000000000000E+00  0.0000000000000E+00  0.0000000000000E+00  0.0000000000000E+00  0.0000000000000E+00  0.0000000000000E+00  0.0000000000000E+00 
ZONE T = "CATH, 2.0000E-08", I = 10, SOLUTIONTIME = 2.000000E-08
ZONETYPE = ORDERED
DATAPACKING = BLOCK
STRANDID = 3
 1.2700000000000E-03  1.3377333333333E-03  1.4054666666667E-03  1.4732000000000E-03  1.5409333333333E-03  1.6086666666667E-03  1.6764000000000E-03  1.7441333333333E-03  1.8118666666667E-03  1.8796000000000E-03 
-2.3613650037267E-12 -2.3623929142452E-12 -2.0001022075164E-12 -1.2744114063176E-12 -2.0012776714291E-12 -2.0013731560657E-12 -2.0010318340981E-12 -2.0001722214776E-12 -1.6355051035674E-12 -1.8160386384103E-12 
 9.2000000685223E-01  9.2000001097351E-01  9.2000001460991E-01  9.2000001776144E-01  9.2000002042809E-01  9.2000002260987E-01  9.2000002430679E-01  9.2000002551886E-01  9.2000002624609E-01  9.2000002648850E-01 
 3.9999996573886E-02  3.9999994513246E-02  3.9999992695044E-02  3.9999991119281E-02  3.9999989785956E-02  3.9999988695065E-02  3.9999987846604E-02  3.9999987240569E-02  3.9999986876954E-02  3.9999986755752E-02 
 3.9999996573886E-02  3.9999994513246E-02  3.9999992695044E-02  3.9999991119281E-02  3.9999989785956E-02  3.9999988695065E-02  3.9999987846604E-02  3.9999987240569E-02  3.9999986876954E-02  3.9999986755752E-02 
 1.0307456420514E-02  1.0307456420519E-02  1.0307456420536E-02  1.0307456420561E-02  1.0307456420595E-02  1.0307456420633E-02  1.0307456420672E-02  1.0307456420708E-02  1.0307456420734E-02  1.0307456420746E-02 
 3.9130947785098E+00  3.9130947785088E+00  3.9130947785059E+00  3.9130947785013E+00  3.9130947784953E+00  3.9130947784886E+00  3.9130947784816E+00  3.9130947784752E+00  3.9130947784705E+00  3.9130947784685E+00 
 3.9027873220893E+00  3.9027873220883E+00  3.9027873220854E+00  3.9027873220807E+00  3.9027873220748E+00  3.9027873220679E+00  3.9027873220609E+00  3.9027873220545E+00  3.9027873220498E+00  3.9027873220478E+00 
 3.9027881867849E+00  3.9027881627299E+00  3.9027880720404E+00  3.9027879147158E+00  3.9027876907552E+00  3.9027874001572E+00  3.9027870429200E+00  3.9027866190413E+00  3.9027861285183E+00  3.9027855713482E+00 
-8.6469561910718E-07 -8.4064159366903E-07 -7.4995500431996E-07 -5.9263508545015E-07 -3.6868049679839E-07 -7.8089324784258E-08  2.7914091749182E-07  7.0301329113676E-07  1.1935314314648E-06  1.7506995457772E-06 
-7.6131483498856E-07 -1.4802729927389E-06 -1.3205834082492E-06 -1.0435600678914E-06 -6.4920147403597E-07 -1.3750548101989E-07  4.9153070139404E-07  1.2379105132880E-06  2.1016380398046E-06  1.5413590060137E-06 
 9.4021035268104E-10  8.2958528435958E-10  7.1895975397456E-10  6.0833664496441E-10  4.9771698332090E-10  3.8710180546441E-10  2.7649212582822E-10  1.6588900985788E-10  5.5293474115522E-11  5.5293474115522E-11 
 1.9876938806784E-08 -1.4814489818200E-06 -2.8818105176355E-06 -4.0639970984350E-06 -4.9103013603199E-06 -5.3036104261877E-06 -5.1266925202784E-06 -4.2619591683336E-06 -2.5921785687567E-06  0.0000000000000E+00 
 0.0000000000000E+00  1.5014789368549E-06  2.9017712497043E-06  4.0838852731023E-06  4.9303139598167E-06  5.3237220565441E-06  5.1467743099811E-06  4.2819636728956E-06  2.6121266859128E-06  1.9904218029430E-08 
-1.4407267233235E+04 -2.8814543891428E+04 -2.8814581009090E+04 -2.8814645819682E+04 -2.8814738323605E+04 -2.8814858521431E+04 -2.8815006413901E+04 -2.8815182001933E+04 -2.8815385286611E+04 -1.4407808134596E+04 
 2.1651345927543E+04  4.3302701280044E+04  4.3302738397706E+04  4.3302803208298E+04  4.3302895712222E+04  4.3303015910047E+04  4.3303163802518E+04  4.3303339390549E+04  4.3303542675227E+04  2.1651886828904E+04 
 3.4852467890512E+04  6.9704926356066E+04  6.9704889238405E+04  6.9704824427812E+04  6.9704731923889E+04  6.9704611726064E+04  6.9704463833592E+04  6.9704288245562E+04  6.9704084960883E+04  3.4851926989151E+04 
 5.6503813818055E+04  1.1300762763611E+05  1.1300762763611E+05  1.1300762763611E+05  1.1300762763611E+05  1.1300762763611E+05  1.1300762763611E+05  1.1300762763611E+05  1.1300762763611E+05  5.6503813818055E+04 
 3.5000000000000E-01  3.5000000000000E-01  3.5000000000000E-01  3.5000000000000E-01  3.5000000000000E-01  3.5000000000000E-01  3.5000000000000E-01  3.5000000000000E-01  3.5000000000000E-01  3.5000000000000E-01 
 6.6040000000000E+00  1.3208000000000E+01  1.3208000000000E+01  1.3208000000000E+01  1.3208000000000E+01  1.3208000000000E+01  1.3208000000000E+01  1.3208000000000E+01  1.3208000000000E+01  6.6040000000000E+00 
-1.1528086538288E-07 -1.1207396977127E-07 -9.9983601472528E-08 -7.9009696236479E-08 -4.9152140675043E-08 -1.0410772336454E-08  3.7214620032862E-08  9.3724296887344E-08  1.5911856752003E-07  2.3339779012927E-07 
 3.3866666666667E-05  6.7733333333333E-05  6.7733333333334E-05  6.7733333333333E-05  6.7733333333334E-05  6.7733333333334E-05  6.7733333333333E-05  6.7733333333334E-05  6.7733333333333E-05  3.3866666666667E-05 
 3.1012079983381E+01  3.1012081425549E+01  3.1012087105137E+01  3.1012097022180E+01  3.1012111176741E+01  3.1012129568905E+01  3.1012152198788E+01  3.1012179066528E+01  3.1012210172293E+01  3.1012245516274E+01 
 1.3326255623713E+01  1.3326254181546E+01  1.3326248501957E+01  1.3326238584914E+01  1.3326224430353E+01  1.3326206038189E+01  1.3326183408306E+01  1.3326156540566E+01  1.3326125434801E+01  1.3326090090820E+01 
 2.2234545297303E-22  1.0745852110432E-21  3.3961802721185E-21  6.4998129456464E-21  9.3610044290146E-21  1.0867526756684E-20  1.0175902127315E-20  7.1712400091198E-21  3.0337460979632E-21  9.2968146080944E-22 
 1.1121499098056E-14  5.3767103912505E-14  1.6993676099086E-13  3.2526229996827E-13  4.6846944180844E-13  5.4395050322323E-13  5.0946614386469E-13  3.5918600035907E-13  1.5211767525244E-13  4.6769728004740E-14 
 5.9207769108446E-17  2.9535566637310E-16  9.4142354220644E-16  1.8081652429707E-15  2.6081807703020E-15  3.0300207827294E-15  2.8372696445563E-15  1.9976199179503E-15  8.4262615241440E-16  2.5588476801984E-16 
 1.1062291328947E-14  5.3471748246132E-14  1.6899533744865E-13  3.2345413472530E-13  4.6586126103813E-13  5.4092048244050E-13  5.0662887422013E-13  3.5718838044112E-13  1.5127504910002E-13  4.6513843236721E-14 
 0.0000000000000E+00  0.0000000000000E+00  0.0000000000000E+00  0.0000000000000E+00  0.0000000000000E+00  0.0000000000000E+00  0.0000000000000E+00  0.0000000000000E+00  0.0000000000000E+00  0.0000000000000E+00 
 0.0000000000000E+00  0.0000000000000E+00  0.0000000000000E+00  0.0000000000000E+00  0.0000000000000E+00  0.0000000000000E+00  0.0000000000000E+00  0.0000000000000E+00  0.0000000000000E+00  0.0000000000000E+00 
 0.0000000000000E+00  0.0000000000000E+00  0.0000000000000E+00  0.0000000000000E+00  0.0000000000000E+00  0.0000000000000E+00  0.0000000000000E+00  0.0000000000000E+00  0.0000000000000E+00  0.0000000000000E+00 
ZONE T = "CATH, 3.0000E-08", I = 10, SOLUTIONTIME = 3.000000E-08
ZONETYPE = ORDERED
DATAPACKING = BLOCK
STRANDID = 3
 1.2700000000000E-03  1.3377333333333E-03  1.4054666666667E-03  1.4732000000000E-03  1.5409333333333E-03  1.6086666666667E-03  1.6764000000000E-03  1.7441333333333E-03  1.8118666666667E-03  1.8796000000000E-03 
-1.0901313987383E-12 -3.6474462513682E-13 -2.4546899738782E-15 -3.1801159523533E-15  7.2278375854200E-13  1.0858952301271E-12  7.2302805263029E-13  3.6067916581623E-13  3.6213778436860E-13  5.4481159146159E-13 
 9.2000000685223E-01  9.2000001097350E-01  9.2000001460991E-01  9.2000001776143E-01  9.2000002042808E-01  9.2000002260986E-01  9.2000002430678E-01  9.2000002551885E-01  9.2000002624609E-01  9.2000002648849E-01 
 3.9999996573887E-02  3.9999994513250E-02  3.9999992695047E-02  3.9999991119284E-02  3.9999989785959E-02  3.9999988695068E-02  3.9999987846608E-02  3.9999987240573E-02  3.9999986876957E-02  3.9999986755755E-02 
 3.9999996573887E-02  3.9999994513250E-02  3.9999992695047E-02  3.9999991119284E-02  3.9999989785959E-02  3.9999988695068E-02  3.9999987846608E-02  3.9999987240573E-02  3.9999986876957E-02  3.9999986755755E-02 
 1.0307456417721E-02  1.0307456417727E-02  1.0307456417743E-02  1.0307456417769E-02  1.0307456417802E-02  1.0307456417840E-02  1.0307456417879E-02  1.0307456417915E-02  1.0307456417941E-02  1.0307456417953E-02 
 3.9130947778760E+00  3.9130947778750E+00  3.9130947778721E+00  3.9130947778675E+00  3.9130947778616E+00  3.9130947778548E+00  3.9130947778478E+00  3.9130947778414E+00  3.9130947778367E+00  3.9130947778347E+00 
 3.9027873214583E+00  3.9027873214573E+00  3.9027873214544E+00  3.9027873214498E+00  3.9027873214438E+00  3.9027873214369E+00  3.9027873214299E+00  3.9027873214235E+00  3.9027873214188E+00  3.9027873214167E+00 
 3.9027881867849E+00  3.9027881627299E+00  3.9027880720404E+00  3.9027879147158E+00  3.9027876907553E+00  3.9027874001572E+00  3.9027870429200E+00  3.9027866190413E+00  3.9027861285184E+00  3.9027855713482E+00 
-8.6532659926419E-07 -8.4127257560240E-07 -7.5058598758559E-07 -5.9326607315668E-07 -3.6931148938990E-07 -7.8720324037107E-08  2.7850991157763E-07  7.0238227589670E-07  1.1929004055666E-06  1.7500685070004E-06 
-7.6187037656235E-07 -1.4813840780030E-06 -1.3216944960416E-06 -1.0446711618522E-06 -6.5031257482394E-07 -1.3861659117984E-07  4.9041958234801E-07  1.2367993804641E-06  2.1005268927167E-06  1.5408034239996E-06 
 9.4020947647804E-10  8.2958533242818E-10  7.1895978600377E-10  6.0833667991629E-10  4.9771700919866E-10  3.8710182720705E-10  2.7649213770276E-10  1.6588901848380E-10  5.5293479492817E-11  5.5293479492817E-11 
 2.9944191682043E-08 -1.4725317526781E-06 -2.8740822527231E-06 -4.0573389012343E-06 -4.9047132307112E-06 -5.2992112604393E-06 -5.1233634219449E-06 -4.2597001373552E-06 -2.5911085014605E-06  0.0000000000000E+00 
 0.0000000000000E+00  1.5025097004271E-06  2.9041763647061E-06  4.0873211516763E-06  4.9347806019629E-06  5.3292194622626E-06  5.1533024792718E-06  4.2896943996872E-06  2.6210599702053E-06  3.0080260050839E-08 
-1.4407267233235E+04 -2.8814543891428E+04 -2.8814581009090E+04 -2.8814645819682E+04 -2.8814738323605E+04 -2.8814858521431E+04 -2.8815006413901E+04 -2.8815182001933E+04 -2.8815385286611E+04 -1.4407808134596E+04 
 2.1651345927543E+04  4.3302701280044E+04  4.3302738397706E+04  4.3302803208298E+04  4.3302895712222E+04  4.3303015910047E+04  4.3303163802518E+04  4.3303339390549E+04  4.3303542675227E+04  2.1651886828904E+04 
 3.4852467890512E+04  6.9704926356066E+04  6.9704889238405E+04  6.9704824427812E+04  6.9704731923889E+04  6.9704611726064E+04  6.9704463833592E+04  6.9704288245562E+04  6.9704084960883E+04  3.4851926989151E+04 
 5.6503813818055E+04  1.1300762763611E+05  1.1300762763611E+05  1.1300762763611E+05  1.1300762763611E+05  1.1300762763611E+05  1.1300762763611E+05  1.1300762763611E+05  1.1300762763611E+05  5.6503813818055E+04 
 3.5000000000000E-01  3.5000000000000E-01  3.5000000000000E-01  3.5000000000000E-01  3.5000000000000E-01  3.5000000000000E-01  3.5000000000000E-01  3.5000000000000E-01  3.5000000000000E-01  3.5000000000000E-01 
 6.6040000000000E+00  1.3208000000000E+01  1.3208000000000E+01  1.3208000000000E+01  1.3208000000000E+01  1.3208000000000E+01  1.3208000000000E+01  1.3208000000000E+01  1.3208000000000E+01  6.6040000000000E+00 
-1.1536498736559E-07 -1.1215809191422E-07 -1.0006772380690E-07 -7.9093819037870E-08 -4.9236263993333E-08 -1.0494896364312E-08  3.7130495332224E-08  9.3640171143554E-08  1.5903444069630E-07  2.3331366202296E-07 
 3.3866666666667E-05  6.7733333333333E-05  6.7733333333334E-05  6.7733333333333E-05  6.7733333333334E-05  6.7733333333334E-05  6.7733333333333E-05  6.7733333333334E-05  6.7733333333333E-05  3.3866666666667E-05 
 3.1012079983381E+01  3.1012081425549E+01  3.1012087105137E+01  3.1012097022180E+01  3.1012111176741E+01  3.1012129568905E+01  3.1012152198788E+01  3.1012179066528E+01  3.1012210172293E+01  3.1012245516274E+01 
 1.3326255623713E+01  1.3326254181546E+01  1.3326248501957E+01  1.3326238584914E+01  1.3326224430353E+01  1.3326206038189E+01  1.3326183408306E+01  1.3326156540566E+01  1.3326125434801E+01  1.3326090090820E+01 
 3.3364521288000E-22  1.6130138751263E-21  5.0983386941377E-21  9.7578040996771E-21  1.4054133768757E-20  1.6318165947959E-20  1.5283293219166E-20  1.0775601681842E-20  4.5635608976775E-21  1.4031271631460E-21 
 1.1129975990697E-14  5.3842866408310E-14  1.7021584220192E-13  3.2579911540307E-13  4.6931293397422E-13  5.4506391912757E-13  5.1073910918510E-13  3.6043616727223E-13  1.5298147997142E-13  4.7344570233657E-14 
 5.7698391592889E-17  2.9261341851041E-16  9.3671716715686E-16  1.8023948344090E-15  2.6023150910065E-15  3.0250059675142E-15  2.8335692830077E-15  1.9954673288745E-15  8.4189425611838E-16  2.5572688755545E-16 
 1.1072277599104E-14  5.3550252989800E-14  1.6927912503476E-13  3.2399672056866E-13  4.6671061888321E-13  5.4203891316006E-13  5.0790553990209E-13  3.5844069994335E-13  1.5213958571530E-13  4.7088843346101E-14 
 0.0000000000000E+00  0.0000000000000E+00  0.0000000000000E+00  0.0000000000000E+00  0.0000000000000E+00  0.0000000000000E+00  0.0000000000000E+00  0.0000000000000E+00  0.0000000000000E+00  0.0000000000000E+00 
 0.0000000000000E+00  0.0000000000000E+00  0.0000000000000E+00  0.0000000000000E+00  0.0000000000000E+00  0.0000000000000E+00  0.0000000000000E+00  0.0000000000000E+00  0.0000000000000E+00  0.0000000000000E+00 
 0.0000000000000E+00  0.0000000000000E+00  0.0000000000000E+00  0.0000000000000E+00  0.0000000000000E+00  0.0000000000000E+00  0.0000000000000E+00  0.0000000000000E+00  0.0000000000000E+00  0.0000000000000E+00 
ZONE T = "CATH, 4.0000E-08", I = 10, SOLUTIONTIME = 4.000000E-08
ZONETYPE = ORDERED
DATAPACKING = BLOCK
STRANDID = 3
 1.2700000000000E-03  1.3377333333333E-03  1.4054666666667E-03  1.4732000000000E-03  1.5409333333333E-03  1.6086666666667E-03  1.6764000000000E-03  1.7441333333333E-03  1.8118666666667E-03  1.8796000000000E-03 
 7.2591379874258E-13 -1.5311104160919E-15 -7.2886513018286E-13 -1.0927990553726E-12 -1.0932514079007E-12 -1.0933484356648E-12 -7.2980092914654E-13 -3.6573513213942E-13 -1.0695573444410E-15  5.4919057339196E-23 
 9.2000000685222E-01  9.2000001097349E-01  9.2000001460990E-01  9.2000001776143E-01  9.2000002042808E-01  9.2000002260986E-01  9.2000002430678E-01  9.2000002551885E-01  9.2000002624608E-01  9.2000002648848E-01 
 3.9999996573888E-02  3.9999994513253E-02  3.9999992695050E-02  3.9999991119287E-02  3.9999989785962E-02  3.9999988695071E-02  3.9999987846611E-02  3.9999987240576E-02  3.9999986876960E-02  3.9999986755758E-02 
 3.9999996573888E-02  3.9999994513253E-02  3.9999992695050E-02  3.9999991119287E-02  3.9999989785962E-02  3.9999988695071E-02  3.9999987846611E-02  3.9999987240576E-02  3.9999986876960E-02  3.9999986755758E-02 
 1.0307456414928E-02  1.0307456414933E-02  1.0307456414949E-02  1.0307456414975E-02  1.0307456415008E-02  1.0307456415047E-02  1.0307456415086E-02  1.0307456415121E-02  1.0307456415148E-02  1.0307456415159E-02 
 3.9130947772422E+00  3.9130947772413E+00  3.9130947772384E+00  3.9130947772337E+00  3.9130947772278E+00  3.9130947772210E+00  3.9130947772140E+00  3.9130947772076E+00  3.9130947772029E+00  3.9130947772008E+00 
 3.9027873208273E+00  3.9027873208263E+00  3.9027873208234E+00  3.9027873208188E+00  3.9027873208128E+00  3.9027873208059E+00  3.9027873207989E+00  3.9027873207925E+00  3.9027873207877E+00  3.9027873207857E+00 
 3.9027881867849E+00  3.9027881627299E+00  3.9027880720404E+00  3.9027879147158E+00  3.9027876907553E+00  3.9027874001573E+00  3.9027870429200E+00  3.9027866190413E+00  3.9027861285184E+00  3.9027855713482E+00 
-8.6595757853303E-07 -8.4190355709168E-07 -7.5121697129532E-07 -5.9389705997503E-07 -3.6994248153732E-07 -7.9351322401777E-08  2.7787890521935E-07  7.0175125976846E-07  1.1922693778921E-06  1.7494374682236E-06 
-7.6242591765025E-07 -1.4824951643377E-06 -1.3228055858928E-06 -1.0457822547917E-06 -6.5142367447542E-07 -1.3972770028564E-07  4.8930846218196E-07  1.2356882476319E-06  2.0994157445171E-06  1.5402478420184E-06 