TITLE = "Solution on Domain BulkDomain1D_0"
VARIABLES = "x [m]"  
"Vel_axial" 
"MF_sp(ECDMC)" 
"MF_sp(Li+)" 
"MF_sp(PF6-)" 
"Volt(Electroly)" 
"Volt(AnodeVolt)" 
"Potential Drop Electrode-Electrolyte [V]" 
"Surf_0 Equilibrium Potential Drop Electrode-Electrolyte [V]" 
"Overpotential_0 [V]" 
"Current Source [A/m^2]" 
"Li+ flux [kmol/m^2/s]" 
"Electrolyte Current [A/m^2]" 
"Electrode Current [A/m^2]" 
"CV Capacity discharged [A-s/m^2]" 
"Depth of discharge in CV [A-s/m^2]" 
"CV Capacity remaining [A-s/m^2]" 
"Initial CV capacity [A-s/m^2]" 
"Porosity []" 
"Surface Area [m2/m2] (area per area)" 
"Specific current (per particle area) [A/m^2]" 
"Control volume thickness [m]" 
"MoleDens Li_C6-bulk [kmol/m^3]" 
"MoleDens V_C6-bulk [kmol/m^3]" 
"qHeat_accum [J/m3]" 
"qHeat_step [W/m3]" 
"Joule_Lyte [W/m3]" 
"Joule_Solid [W/m3]" 
"electrodHeat [W/m3]" 
"OverpotHeat [W/m3]" 
"deltaSHeat [W/m3]" 

ZONE T = "ANOD, 0.0000E+00", I = 10, SOLUTIONTIME = 0.000000E+00
ZONETYPE = ORDERED
DATAPACKING = BLOCK
STRANDID = 1
 0.0000000000000E+00  8.7488888888889E-05  1.7497777777778E-04  2.6246666666667E-04  3.4995555555556E-04  4.3744444444444E-04  5.2493333333333E-04  6.1242222222222E-04  6.9991111111111E-04  7.8740000000000E-04 
 8.0556036137532E-12  2.4166809368316E-11  4.0278010269142E-11  5.6389202940529E-11  7.2500383999613E-11  8.8611550072436E-11  1.0472269777983E-10  1.2083382374051E-10  1.3694492457746E-10  1.4500046074539E-10 
 9.1999997264233E-01  9.1999997295547E-01  9.1999997389488E-01  9.1999997546058E-01  9.1999997765255E-01  9.1999998047079E-01  9.1999998391532E-01  9.1999998798612E-01  9.1999999268319E-01  9.1999999800653E-01 
 4.0000013678836E-02  4.0000013522267E-02  4.0000013052559E-02  4.0000012269712E-02  4.0000011173727E-02  4.0000009764603E-02  4.0000008042341E-02  4.0000006006942E-02  4.0000003658406E-02  4.0000000996733E-02 
 4.0000013678836E-02  4.0000013522267E-02  4.0000013052559E-02  4.0000012269712E-02  4.0000011173727E-02  4.0000009764603E-02  4.0000008042341E-02  4.0000006006942E-02  4.0000003658406E-02  4.0000000996733E-02 
 1.0249120196691E-02  1.0249120087379E-02  1.0249119759444E-02  1.0249119212886E-02  1.0249118447705E-02  1.0249117463900E-02  1.0249116261473E-02  1.0249114840424E-02  1.0249113200752E-02  1.0249111342458E-02 
 0.0000000000000E+00 -2.6544331020875E-11 -4.9965790634587E-11 -7.0264379781945E-11 -8.7440100058081E-11 -1.0149295371383E-10 -1.1242294365402E-10 -1.2023007343846E-10 -1.2491434728237E-10 -1.2647577005553E-10 
-1.0249120196691E-02 -1.0249120113923E-02 -1.0249119809410E-02 -1.0249119283150E-02 -1.0249118535145E-02 -1.0249117565393E-02 -1.0249116373896E-02 -1.0249114960654E-02 -1.0249113325666E-02 -1.0249111468934E-02 
-1.0307459482522E-02 -1.0307459394132E-02 -1.0307459071161E-02 -1.0307458513628E-02 -1.0307457721502E-02 -1.0307456694802E-02 -1.0307455433531E-02 -1.0307453937675E-02 -1.0307452207236E-02 -1.0307450242231E-02 
 5.8339285831151E-05  5.8339280209070E-05  5.8339261751481E-05  5.8339230477975E-05  5.8339186357059E-05  5.8339129408875E-05  5.8339059634651E-05  5.8338977020997E-05  5.8338881570223E-05  5.8338773297271E-05 
 1.1600715693615E-02  2.3201429151698E-02  2.3201421826278E-02  2.3201409418922E-02  2.3201391917042E-02  2.3201369328470E-02  2.3201341653798E-02  2.3201308887954E-02  2.3201271031452E-02  1.1600614045258E-02 
 1.1542358916420E-10  3.4627074924006E-10  5.7711783342576E-10  8.0796480048364E-10  1.0388116042661E-09  1.2696581835309E-09  1.5005044938502E-09  1.7313505045102E-09  1.9621961354529E-09  1.9621961354529E-09 
 0.0000000000000E+00  2.3201420717808E-02  4.6402836656475E-02  6.9604243128906E-02  9.2805635724158E-02  1.1600700901875E-01  1.3920835740510E-01  1.6240967822121E-01  1.8561096484696E-01  2.0881221211661E-01 
 1.7059771149140E-01  1.4964420458200E-01  1.3093862496809E-01  1.1223305294917E-01  9.3527492448659E-02  7.4821947389009E-02  5.6116421690506E-02  3.7410919277691E-02  1.8705444073852E-02  0.0000000000000E+00 
 1.4407436557919E+04  2.8814873691066E+04  2.8814875592718E+04  2.8814878820812E+04  2.8814883375324E+04  2.8814889256269E+04  2.8814896463642E+04  2.8814904997455E+04  2.8814914857697E+04  1.4407463022191E+04 
 1.0585588110120E+05  2.1171176277763E+05  2.1171176467928E+05  2.1171176790737E+05  2.1171177246189E+05  2.1171177834283E+05  2.1171178555020E+05  2.1171179408402E+05  2.1171180394426E+05  1.0585590756547E+05 
 3.5138634161521E+05  7.0277268265518E+05  7.0277268075353E+05  7.0277267752544E+05  7.0277267297093E+05  7.0277266708998E+05  7.0277265988261E+05  7.0277265134880E+05  7.0277264148855E+05  3.5138631515093E+05 
 4.5724222271641E+05  9.1448444543281E+05  9.1448444543281E+05  9.1448444543281E+05  9.1448444543281E+05  9.1448444543281E+05  9.1448444543281E+05  9.1448444543281E+05  9.1448444543281E+05  4.5724222271641E+05 
 3.5000000000000E-01  3.5000000000000E-01  3.5000000000000E-01  3.5000000000000E-01  3.5000000000000E-01  3.5000000000000E-01  3.5000000000000E-01  3.5000000000000E-01  3.5000000000000E-01  3.5000000000000E-01 
 8.5301666666666E+00  1.7060333333333E+01  1.7060333333333E+01  1.7060333333333E+01  1.7060333333333E+01  1.7060333333333E+01  1.7060333333333E+01  1.7060333333333E+01  1.7060333333333E+01  8.5301666666666E+00 
 1.3599635443171E-03  1.3599634132802E-03  1.3599629838970E-03  1.3599622566337E-03  1.3599612307522E-03  1.3599599067117E-03  1.3599582845469E-03  1.3599563639605E-03  1.3599541449827E-03  1.3599516279781E-03 
 4.3744444444444E-05  8.7488888888889E-05  8.7488888888889E-05  8.7488888888889E-05  8.7488888888889E-05  8.7488888888889E-05  8.7488888888889E-05  8.7488888888889E-05  8.7488888888889E-05  4.3744444444444E-05 
 8.3253146327632E+01  8.3253146259488E+01  8.3253146034211E+01  8.3253145651799E+01  8.3253145112254E+01  8.3253144415575E+01  8.3253143561762E+01  8.3253142550814E+01  8.3253141382731E+01  8.3253140057514E+01 
 2.5080187005701E+01  2.5080187073845E+01  2.5080187299122E+01  2.5080187681534E+01  2.5080188221079E+01  2.5080188917759E+01  2.5080189771572E+01  2.5080190782520E+01  2.5080191950602E+01  2.5080193275820E+01 
 0.0000000000000E+00  0.0000000000000E+00  0.0000000000000E+00  0.0000000000000E+00  0.0000000000000E+00  0.0000000000000E+00  0.0000000000000E+00  0.0000000000000E+00  0.0000000000000E+00  0.0000000000000E+00 
 0.0000000000000E+00  0.0000000000000E+00  0.0000000000000E+00  0.0000000000000E+00  0.0000000000000E+00  0.0000000000000E+00  0.0000000000000E+00  0.0000000000000E+00  0.0000000000000E+00  0.0000000000000E+00 
 0.0000000000000E+00  0.0000000000000E+00  0.0000000000000E+00  0.0000000000000E+00  0.0000000000000E+00  0.0000000000000E+00  0.0000000000000E+00  0.0000000000000E+00  0.0000000000000E+00  0.0000000000000E+00 
 0.0000000000000E+00  0.0000000000000E+00  0.0000000000000E+00  0.0000000000000E+00  0.0000000000000E+00  0.0000000000000E+00  0.0000000000000E+00  0.0000000000000E+00  0.0000000000000E+00  0.0000000000000E+00 
 0.0000000000000E+00  0.0000000000000E+00  0.0000000000000E+00  0.0000000000000E+00  0.0000000000000E+00  0.0000000000000E+00  0.0000000000000E+00  0.0000000000000E+00  0.0000000000000E+00  0.0000000000000E+00 
 0.0000000000000E+00  0.0000000000000E+00  0.0000000000000E+00  0.0000000000000E+00  0.0000000000000E+00  0.0000000000000E+00  0.0000000000000E+00  0.0000000000000E+00  0.0000000000000E+00  0.0000000000000E+00 
 0.0000000000000E+00  0.0000000000000E+00  0.0000000000000E+00  0.0000000000000E+00  0.0000000000000E+00  0.0000000000000E+00  0.0000000000000E+00  0.0000000000000E+00  0.0000000000000E+00  0.0000000000000E+00 
ZONE T = "ANOD, 1.0000E-08", I = 10, SOLUTIONTIME = 1.000000E-08
ZONETYPE = ORDERED
DATAPACKING = BLOCK
STRANDID = 1
 0.0000000000000E+00  8.7488888888889E-05  1.7497777777778E-04  2.6246666666667E-04  3.4995555555556E-04  4.3744444444444E-04  5.2493333333333E-04  6.1242222222222E-04  6.9991111111111E-04  7.8740000000000E-04 
 4.2238851146485E-16  1.2427594223177E-15 -3.6123378481348E-13  2.5511615186785E-15 -3.6029809365149E-13 -3.6022314729444E-13 -3.6049650752503E-13 -3.6118296056168E-13 -7.2555501681447E-13 -7.2640851188590E-13 
 9.1999997264233E-01  9.1999997295547E-01  9.1999997389489E-01  9.1999997546058E-01  9.1999997765255E-01  9.1999998047080E-01  9.1999998391532E-01  9.1999998798612E-01  9.1999999268319E-01  9.1999999800654E-01 
 4.0000013678834E-02  4.0000013522264E-02  4.0000013052556E-02  4.0000012269709E-02  4.0000011173724E-02  4.0000009764601E-02  4.0000008042339E-02  4.0000006006940E-02  4.0000003658403E-02  4.0000000996732E-02 
 4.0000013678834E-02  4.0000013522264E-02  4.0000013052556E-02  4.0000012269709E-02  4.0000011173724E-02  4.0000009764601E-02  4.0000008042339E-02  4.0000006006940E-02  4.0000003658403E-02  4.0000000996732E-02 
 1.0307456423546E-02  1.0307456423541E-02  1.0307456423524E-02  1.0307456423497E-02  1.0307456423462E-02  1.0307456423423E-02  1.0307456423382E-02  1.0307456423346E-02  1.0307456423318E-02  1.0307456423306E-02 
 0.0000000000000E+00  9.9880870659985E-17  3.9699476819383E-16  8.6989931707638E-16  1.4815783605958E-15  2.1794411617418E-15  2.8953225500987E-15  3.5454828549199E-15  4.0306066243366E-15  4.2358033229143E-15 
-1.0307456423546E-02 -1.0307456423541E-02 -1.0307456423523E-02 -1.0307456423496E-02 -1.0307456423461E-02 -1.0307456423421E-02 -1.0307456423379E-02 -1.0307456423342E-02 -1.0307456423314E-02 -1.0307456423302E-02 
-1.0307459482516E-02 -1.0307459394136E-02 -1.0307459071168E-02 -1.0307458513626E-02 -1.0307457721505E-02 -1.0307456694810E-02 -1.0307455433533E-02 -1.0307453937674E-02 -1.0307452207239E-02 -1.0307450242229E-02 
 3.0589695134559E-09  2.9705956357956E-09  2.6476447475415E-09  2.0901295173792E-09  1.2980437263249E-09  2.7138933635096E-10 -9.8984672368407E-10 -2.4856684505831E-09 -4.2160747913689E-09 -6.1810731966788E-09 
 6.0827310987573E-07  1.1813994961076E-06  1.0529625292894E-06  8.3124069625058E-07  5.1622920552489E-07  1.0792893942836E-07 -3.9366064804016E-07 -9.8854678697054E-07 -1.6767257438587E-06 -1.2291008037930E-06 
 5.5310293979627E-11  1.6593070128987E-10  2.7655039992056E-10  3.8716889081730E-10  4.9778567347388E-10  6.0840022957414E-10  7.1901206346154E-10  8.2962065647332E-10  9.4022500955382E-10  9.4022500955382E-10 
 0.0000000000000E+00  1.1989364026963E-06  2.3161333907752E-06  3.2582534000451E-06  3.9320509292241E-06  4.2440964006866E-06  4.1011443632053E-06  3.4101334992235E-06  2.0774502413712E-06  9.8765110957019E-09 
 1.0000041320512E-08 -1.1889728062956E-06 -2.3061537997096E-06 -3.2482553948687E-06 -3.9219903302431E-06 -4.2340693909514E-06 -4.0912036016094E-06 -3.4000999505119E-06 -2.0674636792035E-06  0.0000000000000E+00 
 1.4407436557919E+04  2.8814873691066E+04  2.8814875592718E+04  2.8814878820812E+04  2.8814883375324E+04  2.8814889256269E+04  2.8814896463642E+04  2.8814904997455E+04  2.8814914857697E+04  1.4407463022191E+04 
 1.0585588110120E+05  2.1171176277763E+05  2.1171176467928E+05  2.1171176790737E+05  2.1171177246189E+05  2.1171177834283E+05  2.1171178555020E+05  2.1171179408402E+05  2.1171180394426E+05  1.0585590756547E+05 
 3.5138634161521E+05  7.0277268265518E+05  7.0277268075353E+05  7.0277267752544E+05  7.0277267297093E+05  7.0277266708998E+05  7.0277265988261E+05  7.0277265134880E+05  7.0277264148855E+05  3.5138631515093E+05 
 4.5724222271641E+05  9.1448444543281E+05  9.1448444543281E+05  9.1448444543281E+05  9.1448444543281E+05  9.1448444543281E+05  9.1448444543281E+05  9.1448444543281E+05  9.1448444543281E+05  4.5724222271641E+05 
 3.5000000000000E-01  3.5000000000000E-01  3.5000000000000E-01  3.5000000000000E-01  3.5000000000000E-01  3.5000000000000E-01  3.5000000000000E-01  3.5000000000000E-01  3.5000000000000E-01  3.5000000000000E-01 
 8.5301666666667E+00  1.7060333333333E+01  1.7060333333333E+01  1.7060333333333E+01  1.7060333333333E+01  1.7060333333333E+01  1.7060333333333E+01  1.7060333333333E+01  1.7060333333333E+01  8.5301666666667E+00 
 7.1308467190059E-08  6.9248324345419E-08  6.1719927079739E-08  4.8723590565869E-08  3.0259033949604E-08  6.3263089483415E-09 -2.3074616442049E-08 -5.7944166016913E-08 -9.8282120935039E-08 -1.4408872086826E-07 
 4.3744444444444E-05  8.7488888888889E-05  8.7488888888889E-05  8.7488888888889E-05  8.7488888888889E-05  8.7488888888889E-05  8.7488888888889E-05  8.7488888888889E-05  8.7488888888889E-05  4.3744444444444E-05 
 8.3253146327632E+01  8.3253146259488E+01  8.3253146034211E+01  8.3253145651799E+01  8.3253145112254E+01  8.3253144415575E+01  8.3253143561762E+01  8.3253142550814E+01  8.3253141382731E+01  8.3253140057514E+01 
 2.5080187005701E+01  2.5080187073845E+01  2.5080187299122E+01  2.5080187681534E+01  2.5080188221079E+01  2.5080188917759E+01  2.5080189771572E+01  2.5080190782520E+01  2.5080191950602E+01  2.5080193275820E+01 
 4.0530950111494E-25  1.9575900048728E-24  6.1830679544407E-24  1.1824678382983E-23  1.7018628105439E-23  1.9745171758634E-23  1.8476883673828E-23  1.3013152969537E-23  5.5004301344058E-24  1.6821430052873E-24 
 4.0530950111494E-17  1.9575900048728E-16  6.1830679544407E-16  1.1824678382983E-15  1.7018628105439E-15  1.9745171758634E-15  1.8476883673828E-15  1.3013152969537E-15  5.5004301344058E-16  1.6821430052873E-16 
 3.9847937265650E-17  1.9239559349729E-16  6.0762925985849E-16  1.1620041996966E-15  1.6723833200446E-15  1.9403021833149E-15  1.8156746416183E-15  1.2787887078996E-15  5.4054527618835E-16  1.6533156386841E-16 
 6.8301284584385E-19  3.3634069899986E-18  1.0677535585577E-17  2.0463638601732E-17  2.9479490499357E-17  3.4214992548532E-17  3.2013725764474E-17  2.2526589054138E-17  9.4977372522298E-18  2.8827366603179E-18 
 0.0000000000000E+00  0.0000000000000E+00  0.0000000000000E+00  0.0000000000000E+00  0.0000000000000E+00  0.0000000000000E+00  0.0000000000000E+00  0.0000000000000E+00  0.0000000000000E+00  0.0000000000000E+00 
 0.0000000000000E+00  0.0000000000000E+00  0.0000000000000E+00  0.0000000000000E+00  0.0000000000000E+00  0.0000000000000E+00  0.0000000000000E+00  0.0000000000000E+00  0.0000000000000E+00  0.0000000000000E+00 
 0.0000000000000E+00  0.0000000000000E+00  0.0000000000000E+00  0.0000000000000E+00  0.0000000000000E+00  0.0000000000000E+00  0.0000000000000E+00  0.0000000000000E+00  0.0000000000000E+00  0.0000000000000E+00 
ZONE T = "ANOD, 2.0000E-08", I = 10, SOLUTIONTIME = 2.000000E-08
ZONETYPE = ORDERED
DATAPACKING = BLOCK
STRANDID = 1
 0.0000000000000E+00  8.7488888888889E-05  1.7497777777778E-04  2.6246666666667E-04  3.4995555555556E-04  4.3744444444444E-04  5.2493333333333E-04  6.1242222222222E-04  6.9991111111111E-04  7.8740000000000E-04 
-1.8118108863334E-13  9.0926323685934E-13  1.2732029198576E-12  1.2737809095015E-12  1.2741401543263E-12  1.8459268936559E-13 -5.4209535504687E-13 -1.6324042201810E-12 -1.6335677775234E-12 -2.3608363421080E-12 
 9.1999997264234E-01  9.1999997295548E-01  9.1999997389489E-01  9.1999997546059E-01  9.1999997765256E-01  9.1999998047080E-01  9.1999998391533E-01  9.1999998798613E-01  9.1999999268320E-01  9.1999999800654E-01 
 4.0000013678831E-02  4.0000013522262E-02  4.0000013052554E-02  4.0000012269707E-02  4.0000011173722E-02  4.0000009764598E-02  4.0000008042337E-02  4.0000006006937E-02  4.0000003658401E-02  4.0000000996731E-02 
 4.0000013678831E-02  4.0000013522262E-02  4.0000013052554E-02  4.0000012269707E-02  4.0000011173722E-02  4.0000009764598E-02  4.0000008042337E-02  4.0000006006937E-02  4.0000003658401E-02  4.0000000996731E-02 
 1.0307456420755E-02  1.0307456420749E-02  1.0307456420732E-02  1.0307456420705E-02  1.0307456420671E-02  1.0307456420631E-02  1.0307456420590E-02  1.0307456420554E-02  1.0307456420526E-02  1.0307456420514E-02 
 0.0000000000000E+00  9.8304370786236E-17  3.9402714202907E-16  8.6572606338946E-16  1.4763848496104E-15  2.1734130352181E-15  2.8886453750756E-15  3.5383420811490E-15  4.0231876705126E-15  4.2282915695188E-15 
-1.0307456420755E-02 -1.0307456420749E-02 -1.0307456420732E-02 -1.0307456420704E-02 -1.0307456420669E-02 -1.0307456420629E-02 -1.0307456420588E-02 -1.0307456420550E-02 -1.0307456420522E-02 -1.0307456420510E-02 
-1.0307459482525E-02 -1.0307459394133E-02 -1.0307459071170E-02 -1.0307458513627E-02 -1.0307457721506E-02 -1.0307456694809E-02 -1.0307455433535E-02 -1.0307453937673E-02 -1.0307452207240E-02 -1.0307450242233E-02 
 3.0617705523706E-09  2.9733846322599E-09  2.6504380825493E-09  2.0929228784078E-09  1.3008367369394E-09  2.7418042315708E-10 -9.8705245366038E-10 -2.4828768138696E-09 -4.2132817651419E-09 -6.1782774573443E-09 
 6.0882998746486E-07  1.1825097233833E-06  1.0540736538587E-06  8.3235105151653E-07  5.1734104629517E-07  1.0904048064689E-07 -3.9254965963076E-07 -9.8743613079126E-07 -1.6756154593959E-06 -1.2285449344679E-06 
 5.5310298410402E-11  1.6593070762101E-10  2.7655041266213E-10  3.8716891467545E-10  4.9778569923239E-10  6.0840026105677E-10  7.1901210005359E-10  8.2962069776384E-10  9.4022455834993E-10  9.4022455834993E-10 
 0.0000000000000E+00  1.2000409890147E-06  2.3183425633896E-06  3.2615671588950E-06  3.9364692742384E-06  4.2496193317856E-06  4.1078639290698E-06  3.4178656020028E-06  2.0862869297538E-06  2.0005459243884E-08 
 1.9999942491759E-08 -1.1800849642084E-06 -2.2983766955363E-06 -3.2415890185491E-06 -3.9164351100268E-06 -4.2296259162866E-06 -4.0878712974434E-06 -3.3978783725637E-06 -2.0663526200141E-06  0.0000000000000E+00 
 1.4407436557919E+04  2.8814873691066E+04  2.8814875592718E+04  2.8814878820812E+04  2.8814883375324E+04  2.8814889256269E+04  2.8814896463642E+04  2.8814904997455E+04  2.8814914857697E+04  1.4407463022191E+04 
 1.0585588110120E+05  2.1171176277763E+05  2.1171176467928E+05  2.1171176790737E+05  2.1171177246189E+05  2.1171177834283E+05  2.1171178555020E+05  2.1171179408402E+05  2.1171180394426E+05  1.0585590756547E+05 
 3.5138634161521E+05  7.0277268265518E+05  7.0277268075353E+05  7.0277267752544E+05  7.0277267297093E+05  7.0277266708998E+05  7.0277265988261E+05  7.0277265134880E+05  7.0277264148855E+05  3.5138631515093E+05 
 4.5724222271641E+05  9.1448444543281E+05  9.1448444543281E+05  9.1448444543281E+05  9.1448444543281E+05  9.1448444543281E+05  9.1448444543281E+05  9.1448444543281E+05  9.1448444543281E+05  4.5724222271641E+05 
 3.5000000000000E-01  3.5000000000000E-01  3.5000000000000E-01  3.5000000000000E-01  3.5000000000000E-01  3.5000000000000E-01  3.5000000000000E-01  3.5000000000000E-01  3.5000000000000E-01  3.5000000000000E-01 
 8.5301666666667E+00  1.7060333333333E+01  1.7060333333333E+01  1.7060333333333E+01  1.7060333333333E+01  1.7060333333333E+01  1.7060333333333E+01  1.7060333333333E+01  1.7060333333333E+01  8.5301666666667E+00 
 7.1373750508766E-08  6.9313400874344E-08  6.1785056203982E-08  4.8788674597010E-08  3.0324205054327E-08  6.3914624946889E-09 -2.3009495298886E-08 -5.7879064347585E-08 -9.8217041054059E-08 -1.4402355574934E-07 
 4.3744444444444E-05  8.7488888888889E-05  8.7488888888889E-05  8.7488888888889E-05  8.7488888888889E-05  8.7488888888889E-05  8.7488888888889E-05  8.7488888888889E-05  8.7488888888889E-05  4.3744444444444E-05 
 8.3253146327632E+01  8.3253146259488E+01  8.3253146034211E+01  8.3253145651799E+01  8.3253145112254E+01  8.3253144415575E+01  8.3253143561762E+01  8.3253142550814E+01  8.3253141382731E+01  8.3253140057514E+01 
 2.5080187005701E+01  2.5080187073845E+01  2.5080187299122E+01  2.5080187681534E+01  2.5080188221079E+01  2.5080188917759E+01  2.5080189771572E+01  2.5080190782520E+01  2.5080191950602E+01  2.5080193275820E+01 
 8.1112905236749E-25  3.9183477873557E-24  1.2377117506354E-23  2.3672304183033E-23  3.4074182221550E-23  3.9540215246303E-23  3.7012380574095E-23  2.6082477198061E-23  1.1039053413644E-23  3.3899076541507E-24 
 4.0581955125255E-17  1.9607577824829E-16  6.1940495519132E-16  1.1847625800049E-15  1.7055554116111E-15  1.9795043487669E-15  1.8535496900268E-15  1.3069324228524E-15  5.5386232792383E-16  1.7077646488634E-16 
 7.9768270466039E-17  3.8514689183959E-16  1.2164238960329E-15  2.3263848169341E-15  3.3485417850411E-15  3.8856631894840E-15  3.6372630315459E-15  2.5632244071377E-15  1.0849204070037E-15  3.3322789892229E-16 
 1.3446347707105E-18  6.6878868959829E-18  2.1287854602478E-17  4.0845601369156E-17  5.8876437113966E-17  6.8358335146253E-17  6.3975025863640E-17  4.5023312668416E-17  1.8984934360760E-17  5.7628664927797E-18 
 0.0000000000000E+00  0.0000000000000E+00  0.0000000000000E+00  0.0000000000000E+00  0.0000000000000E+00  0.0000000000000E+00  0.0000000000000E+00  0.0000000000000E+00  0.0000000000000E+00  0.0000000000000E+00 
 0.0000000000000E+00  0.0000000000000E+00  0.0000000000000E+00  0.0000000000000E+00  0.0000000000000E+00  0.0000000000000E+00  0.0000000000000E+00  0.0000000000000E+00  0.0000000000000E+00  0.0000000000000E+00 
 0.0000000000000E+00  0.0000000000000E+00  0.0000000000000E+00  0.0000000000000E+00  0.0000000000000E+00  0.0000000000000E+00  0.0000000000000E+00  0.0000000000000E+00  0.0000000000000E+00  0.0000000000000E+00 
ZONE T = "ANOD, 3.0000E-08", I = 10, SOLUTIONTIME = 3.000000E-08
ZONETYPE = ORDERED
DATAPACKING = BLOCK
STRANDID = 1
 0.0000000000000E+00  8.7488888888889E-05  1.7497777777778E-04  2.6246666666667E-04  3.4995555555556E-04  4.3744444444444E-04  5.2493333333333E-04  6.1242222222222E-04  6.9991111111111E-04  7.8740000000000E-04 
 3.6363088873295E-13 -7.2517038122685E-13 -3.6122992692859E-13 -7.2385889248782E-13 -1.4499143329460E-12 -1.0866301151901E-12 -1.4501096609519E-12 -1.4507945704548E-12 -1.0887496276586E-12  2.0831957861333E-17 
 9.1999997264234E-01  9.1999997295548E-01  9.1999997389490E-01  9.1999997546059E-01  9.1999997765256E-01  9.1999998047081E-01  9.1999998391533E-01  9.1999998798613E-01  9.1999999268320E-01  9.1999999800654E-01 
 4.0000013678829E-02  4.0000013522260E-02  4.0000013052551E-02  4.0000012269705E-02  4.0000011173719E-02  4.0000009764596E-02  4.0000008042334E-02  4.0000006006935E-02  4.0000003658399E-02  4.0000000996730E-02 
 4.0000013678829E-02  4.0000013522260E-02  4.0000013052551E-02  4.0000012269705E-02  4.0000011173719E-02  4.0000009764596E-02  4.0000008042334E-02  4.0000006006935E-02  4.0000003658399E-02  4.0000000996730E-02 
 1.0307456417962E-02  1.0307456417957E-02  1.0307456417940E-02  1.0307456417913E-02  1.0307456417878E-02  1.0307456417839E-02  1.0307456417798E-02  1.0307456417761E-02  1.0307456417734E-02  1.0307456417722E-02 
 0.0000000000000E+00  9.6727616294263E-17  3.9105907261765E-16  8.6155214318719E-16  1.4711908330396E-15  2.1673841191071E-15  2.8819670723534E-15  3.5311998092934E-15  4.0157670637754E-15  4.2207783329898E-15 
-1.0307456417962E-02 -1.0307456417957E-02 -1.0307456417939E-02 -1.0307456417912E-02 -1.0307456417877E-02 -1.0307456417837E-02 -1.0307456417795E-02 -1.0307456417758E-02 -1.0307456417730E-02 -1.0307456417717E-02 
-1.0307459482525E-02 -1.0307459394136E-02 -1.0307459071169E-02 -1.0307458513631E-02 -1.0307457721507E-02 -1.0307456694811E-02 -1.0307455433536E-02 -1.0307453937677E-02 -1.0307452207240E-02 -1.0307450242231E-02 
 3.0645623816383E-09  2.9761795927036E-09  2.6532295058918E-09  2.0957188068271E-09  1.3036298412289E-09  2.7697434623608E-10 -9.8425889660803E-10 -2.4800808351433E-09 -4.2104893373945E-09 -6.1754860201241E-09 
 6.0938550345515E-07  1.1836206110344E-06  1.0551845415098E-06  8.3346367792934E-07  5.1845047839710E-07  1.1015166240333E-07 -3.9143904974584E-07 -9.8632422330263E-07 -1.6745029827590E-06 -1.2279901020002E-06 
 5.5310299703742E-11  1.6593071716120E-10  2.7655042854113E-10  3.8716893088610E-10  4.9778572724594E-10  6.0840029349341E-10  7.1901213787503E-10  8.2962074008000E-10  9.4022410550570E-10  9.4022410550570E-10 
 0.0000000000000E+00  1.2012376241977E-06  2.3206437848670E-06  3.2648809177674E-06  3.9408876192677E-06  4.2552343117027E-06  4.1144914460913E-06  3.4255977048271E-06  2.0952156670343E-06  2.9949272898258E-08 
 3.0000007193297E-08 -1.1711957946270E-06 -2.2905983577586E-06 -3.2349224555291E-06 -3.9108795212181E-06 -4.2251805784330E-06 -4.0845368713750E-06 -3.3956552216343E-06 -2.0652416056026E-06  0.0000000000000E+00 
 1.4407436557919E+04  2.8814873691066E+04  2.8814875592718E+04  2.8814878820812E+04  2.8814883375324E+04  2.8814889256269E+04  2.8814896463642E+04  2.8814904997455E+04  2.8814914857697E+04  1.4407463022191E+04 
 1.0585588110120E+05  2.1171176277763E+05  2.1171176467928E+05  2.1171176790737E+05  2.1171177246189E+05  2.1171177834283E+05  2.1171178555020E+05  2.1171179408402E+05  2.1171180394426E+05  1.0585590756547E+05 
 3.5138634161521E+05  7.0277268265518E+05  7.0277268075353E+05  7.0277267752544E+05  7.0277267297093E+05  7.0277266708998E+05  7.0277265988261E+05  7.0277265134880E+05  7.0277264148855E+05  3.5138631515093E+05 
 4.5724222271641E+05  9.1448444543281E+05  9.1448444543281E+05  9.1448444543281E+05  9.1448444543281E+05  9.1448444543281E+05  9.1448444543281E+05  9.1448444543281E+05  9.1448444543281E+05  4.5724222271641E+05 
 3.5000000000000E-01  3.5000000000000E-01  3.5000000000000E-01  3.5000000000000E-01  3.5000000000000E-01  3.5000000000000E-01  3.5000000000000E-01  3.5000000000000E-01  3.5000000000000E-01  3.5000000000000E-01 
 8.5301666666667E+00  1.7060333333333E+01  1.7060333333333E+01  1.7060333333333E+01  1.7060333333333E+01  1.7060333333333E+01  1.7060333333333E+01  1.7060333333333E+01  1.7060333333333E+01  8.5301666666667E+00 
 7.1438874205875E-08  6.9378516111508E-08  6.1850171441146E-08  4.8853891752565E-08  3.0389234973746E-08  6.4565949709851E-09 -2.2944396343126E-08 -5.7813889332133E-08 -9.8151832677693E-08 -1.4395851218228E-07 
 4.3744444444444E-05  8.7488888888889E-05  8.7488888888889E-05  8.7488888888889E-05  8.7488888888889E-05  8.7488888888889E-05  8.7488888888889E-05  8.7488888888889E-05  8.7488888888889E-05  4.3744444444444E-05 
 8.3253146327632E+01  8.3253146259488E+01  8.3253146034211E+01  8.3253145651799E+01  8.3253145112254E+01  8.3253144415575E+01  8.3253143561762E+01  8.3253142550814E+01  8.3253141382731E+01  8.3253140057514E+01 
 2.5080187005701E+01  2.5080187073845E+01  2.5080187299122E+01  2.5080187681534E+01  2.5080188221079E+01  2.5080188917759E+01  2.5080189771572E+01  2.5080190782520E+01  2.5080191950602E+01  2.5080193275820E+01 
 1.2174626802405E-24  5.8826351230386E-24  1.8582517554438E-23  3.5542903414148E-23  5.1166706177994E-23  5.9386051910319E-23  5.5605889514634E-23  3.9207710507007E-23  1.6616952632242E-23  5.1229925298328E-24 
 4.0633362787303E-17  1.9642873356829E-16  6.2054000480840E-16  1.1870599231115E-15  1.7092523956444E-15  1.9845836664016E-15  1.8593508940539E-15  1.3125233308946E-15  5.5778992185977E-16  1.7330848756822E-16 
 1.1976106530602E-16  5.7828977542094E-16  1.8264205773763E-15  3.4931442828058E-15  5.0284796658181E-15  5.8361751167845E-15  5.4647050406148E-15  3.8532808814451E-15  1.6332336687644E-15  5.0365885754066E-16 
 1.9852027180307E-18  9.9737368829251E-18  3.1831178067486E-17  6.1146058608980E-17  8.8190951981306E-17  1.0243007424742E-16  9.5883910848687E-17  6.7490169255596E-17  2.8461594459736E-17  8.6403954426202E-18 
 0.0000000000000E+00  0.0000000000000E+00  0.0000000000000E+00  0.0000000000000E+00  0.0000000000000E+00  0.0000000000000E+00  0.0000000000000E+00  0.0000000000000E+00  0.0000000000000E+00  0.0000000000000E+00 
 0.0000000000000E+00  0.0000000000000E+00  0.0000000000000E+00  0.0000000000000E+00  0.0000000000000E+00  0.0000000000000E+00  0.0000000000000E+00  0.0000000000000E+00  0.0000000000000E+00  0.0000000000000E+00 
 0.0000000000000E+00  0.0000000000000E+00  0.0000000000000E+00  0.0000000000000E+00  0.0000000000000E+00  0.0000000000000E+00  0.0000000000000E+00  0.0000000000000E+00  0.0000000000000E+00  0.0000000000000E+00 
ZONE T = "ANOD, 4.0000E-08", I = 10, SOLUTIONTIME = 4.000000E-08
ZONETYPE = ORDERED
DATAPACKING = BLOCK
STRANDID = 1
 0.0000000000000E+00  8.7488888888889E-05  1.7497777777778E-04  2.6246666666667E-04  3.4995555555556E-04  4.3744444444444E-04  5.2493333333333E-04  6.1242222222222E-04  6.9991111111111E-04  7.8740000000000E-04 
-1.8118031770020E-13 -1.8035763298020E-13 -5.4283186213986E-13 -9.0546005607019E-13 -1.7868381258327E-13 -1.7860655173884E-13 -1.7887759772831E-13  9.1006144744909E-13  5.4569170590209E-13  1.8163164026624E-13 
 9.1999997264235E-01  9.1999997295549E-01  9.1999997389490E-01  9.1999997546060E-01  9.1999997765257E-01  9.1999998047081E-01  9.1999998391534E-01  9.1999998798613E-01  9.1999999268321E-01  9.1999999800654E-01 
 4.0000013678827E-02  4.0000013522257E-02  4.0000013052549E-02  4.0000012269702E-02  4.0000011173717E-02  4.0000009764593E-02  4.0000008042332E-02  4.0000006006933E-02  4.0000003658396E-02  4.0000000996729E-02 
 4.0000013678827E-02  4.0000013522257E-02  4.0000013052549E-02  4.0000012269702E-02  4.0000011173717E-02  4.0000009764593E-02  4.0000008042332E-02  4.0000006006933E-02  4.0000003658396E-02  4.0000000996729E-02 
 1.0307456415170E-02  1.0307456415164E-02  1.0307456415147E-02  1.0307456415120E-02  1.0307456415086E-02  1.0307456415046E-02  1.0307456415005E-02  1.0307456414968E-02  1.0307456414941E-02  1.0307456414929E-02 
 0.0000000000000E+00  9.5150743261999E-17  3.8809079409632E-16  8.5737809664651E-16  1.4659965329808E-15  2.1613553715784E-15  2.8752891994644E-15  3.5240583498097E-15  4.0083474121435E-15  4.2132659060761E-15 
-1.0307456415170E-02 -1.0307456415164E-02 -1.0307456415147E-02 -1.0307456415119E-02 -1.0307456415084E-02 -1.0307456415044E-02 -1.0307456415002E-02 -1.0307456414965E-02 -1.0307456414937E-02 -1.0307456414924E-02 
-1.0307459482524E-02 -1.0307459394140E-02 -1.0307459071172E-02 -1.0307458513634E-02 -1.0307457721512E-02 -1.0307456694806E-02 -1.0307455433540E-02 -1.0307453937676E-02 -1.0307452207243E-02 -1.0307450242232E-02 
 3.0673544936660E-09  2.9789756078591E-09  2.6560255349251E-09  2.0985149347397E-09  1.3064282485681E-09  2.7976272166941E-10 -9.8146189439485E-10 -2.4772884767849E-09 -4.2076930741736E-09 -6.1726928360373E-09 
 6.0994022903730E-07  1.1847315054934E-06  1.0562964544448E-06  8.3457485696258E-07  5.1956340163846E-07  1.1126183113023E-07 -3.9032772774472E-07 -9.8521376591678E-07 -1.6733922448838E-06 -1.2274344049173E-06 