TITLE = "Solution on Domain BulkDomain1D_0"
VARIABLES = "x [m]"  
"Vel_axial" 
"MF_sp(ECDMC)" 
"MF_sp(Li+)" 
"MF_sp(PF6-)" 
"Volt(Electroly)" 
"Volt(AnodeVolt)" 
"Temperature" 
"Potential Drop Electrode-Electrolyte [V]" 
"Surf_0 Equilibrium Potential Drop Electrode-Electrolyte [V]" 
"Overpotential_0 [V]" 
"Current Source [A/m^2]" 
"Li+ flux [kmol/m^2/s]" 
"Electrolyte Current [A/m^2]" 
"Electrode Current [A/m^2]" 
"CV Capacity discharged [A-s/m^2]" 
"Depth of discharge in CV [A-s/m^2]" 
"CV Capacity remaining [A-s/m^2]" 
"Initial CV capacity [A-s/m^2]" 
"Porosity []" 
"Surface Area [m2/m2] (area per area)" 
"Specific current (per particle area) [A/m^2]" 
"Control volume thickness [m]" 
"volFrac AnodeBinder []" 	"volFrac ExtraStuff []" 	"MoleDens Li_C6-bulk [kmol/m^3]" 
"MoleDens V_C6-bulk [kmol/m^3]" 
"qHeat_accum [J/m3]" 
"qHeat_step [W/m3]" 
"Joule_Lyte [W/m3]" 
"Joule_Solid [W/m3]" 
"electrodHeat [W/m3]" 
"OverpotHeat [W/m3]" 
"deltaSHeat [W/m3]" 

ZONE T = "ANOD, 0.0000E+00", I = 10, SOLUTIONTIME = 0.000000E+00
ZONETYPE = ORDERED
DATAPACKING = BLOCK
STRANDID = 1
 0.0000000000000E+00  1.0666666666667E-05  2.1333333333333E-05  3.2000000000000E-05  4.2666666666667E-05  5.3333333333333E-05  6.4000000000000E-05  7.4666666666667E-05  8.5333333333333E-05  9.6000000000000E-05 
 0.0000000000000E+00  0.0000000000000E+00  0.0000000000000E+00  0.0000000000000E+00  0.0000000000000E+00  0.0000000000000E+00  0.0000000000000E+00  0.0000000000000E+00  0.0000000000000E+00  0.0000000000000E+00 
 8.4394680000000E-01  8.4394680000000E-01  8.4394680000000E-01  8.4394680000000E-01  8.4394680000000E-01  8.4394680000000E-01  8.4394680000000E-01  8.4394680000000E-01  8.4394680000000E-01  8.4394680000000E-01 
 7.8026600000000E-02  7.8026600000000E-02  7.8026600000000E-02  7.8026600000000E-02  7.8026600000000E-02  7.8026600000000E-02  7.8026600000000E-02  7.8026600000000E-02  7.8026600000000E-02  7.8026600000000E-02 
 7.8026600000000E-02  7.8026600000000E-02  7.8026600000000E-02  7.8026600000000E-02  7.8026600000000E-02  7.8026600000000E-02  7.8026600000000E-02  7.8026600000000E-02  7.8026600000000E-02  7.8026600000000E-02 
-7.0000000000000E-02 -7.0000000000000E-02 -7.0000000000000E-02 -7.0000000000000E-02 -7.0000000000000E-02 -7.0000000000000E-02 -7.0000000000000E-02 -7.0000000000000E-02 -7.0000000000000E-02 -7.0000000000000E-02 
 0.0000000000000E+00  0.0000000000000E+00  0.0000000000000E+00  0.0000000000000E+00  0.0000000000000E+00  0.0000000000000E+00  0.0000000000000E+00  0.0000000000000E+00  0.0000000000000E+00  0.0000000000000E+00 
 2.9815000000000E+02  2.9815000000000E+02  2.9815000000000E+02  2.9815000000000E+02  2.9815000000000E+02  2.9815000000000E+02  2.9815000000000E+02  2.9815000000000E+02  2.9815000000000E+02  2.9815000000000E+02 
 7.0000000000000E-02  7.0000000000000E-02  7.0000000000000E-02  7.0000000000000E-02  7.0000000000000E-02  7.0000000000000E-02  7.0000000000000E-02  7.0000000000000E-02  7.0000000000000E-02  7.0000000000000E-02 
-2.4231113980255E-02 -2.4231113980255E-02 -2.4231113980255E-02 -2.4231113980255E-02 -2.4231113980254E-02 -2.4231113980255E-02 -2.4231113980255E-02 -2.4231113980254E-02 -2.4231113980254E-02 -2.4231113980254E-02 
 9.4231113980255E-02  9.4231113980255E-02  9.4231113980255E-02  9.4231113980255E-02  9.4231113980254E-02  9.4231113980255E-02  9.4231113980255E-02  9.4231113980254E-02  9.4231113980254E-02  9.4231113980254E-02 
 5.2595956578536E+02  1.0519191315707E+03  1.0519191315707E+03  1.0519191315707E+03  1.0519191315707E+03  1.0519191315707E+03  1.0519191315707E+03  1.0519191315707E+03  1.0519191315707E+03  5.2595956578534E+02 
-0.0000000000000E+00 -0.0000000000000E+00 -0.0000000000000E+00 -0.0000000000000E+00 -0.0000000000000E+00 -0.0000000000000E+00 -0.0000000000000E+00 -0.0000000000000E+00 -0.0000000000000E+00 -0.0000000000000E+00 
 0.0000000000000E+00  0.0000000000000E+00  0.0000000000000E+00  0.0000000000000E+00  0.0000000000000E+00  0.0000000000000E+00  0.0000000000000E+00  0.0000000000000E+00  0.0000000000000E+00  5.2595956578534E+02 
 5.2595956578536E+02 -0.0000000000000E+00 -0.0000000000000E+00 -0.0000000000000E+00 -0.0000000000000E+00 -0.0000000000000E+00 -0.0000000000000E+00 -0.0000000000000E+00 -0.0000000000000E+00  0.0000000000000E+00 
 0.0000000000000E+00  0.0000000000000E+00  0.0000000000000E+00  0.0000000000000E+00  0.0000000000000E+00  0.0000000000000E+00  0.0000000000000E+00  0.0000000000000E+00  0.0000000000000E+00  0.0000000000000E+00 
 1.4095380717934E+03  2.8190761435868E+03  2.8190761435868E+03  2.8190761435868E+03  2.8190761435868E+03  2.8190761435868E+03  2.8190761435868E+03  2.8190761435868E+03  2.8190761435868E+03  1.4095380717934E+03 
 5.6381522871735E+03  1.1276304574347E+04  1.1276304574347E+04  1.1276304574347E+04  1.1276304574347E+04  1.1276304574347E+04  1.1276304574347E+04  1.1276304574347E+04  1.1276304574347E+04  5.6381522871735E+03 
 7.0476903589669E+03  1.4095380717934E+04  1.4095380717934E+04  1.4095380717934E+04  1.4095380717934E+04  1.4095380717934E+04  1.4095380717934E+04  1.4095380717934E+04  1.4095380717934E+04  7.0476903589669E+03 
 4.0000000000000E-01  4.0000000000000E-01  4.0000000000000E-01  4.0000000000000E-01  4.0000000000000E-01  4.0000000000000E-01  4.0000000000000E-01  4.0000000000000E-01  4.0000000000000E-01  4.0000000000000E-01 
 9.4000000000000E-01  1.8800000000000E+00  1.8800000000000E+00  1.8800000000000E+00  1.8800000000000E+00  1.8800000000000E+00  1.8800000000000E+00  1.8800000000000E+00  1.8800000000000E+00  9.4000000000000E-01 
 5.5953145296315E+02  5.5953145296315E+02  5.5953145296315E+02  5.5953145296315E+02  5.5953145296313E+02  5.5953145296315E+02  5.5953145296315E+02  5.5953145296313E+02  5.5953145296313E+02  5.5953145296313E+02 
 5.3333333333333E-06  1.0666666666667E-05  1.0666666666667E-05  1.0666666666667E-05  1.0666666666667E-05  1.0666666666667E-05  1.0666666666667E-05  1.0666666666667E-05  1.0666666666667E-05  5.3333333333333E-06 
 3.0000000000000E-02  3.0000000000000E-02  3.0000000000000E-02  3.0000000000000E-02  3.0000000000000E-02  3.0000000000000E-02  3.0000000000000E-02  3.0000000000000E-02  3.0000000000000E-02  3.0000000000000E-02 
 1.0000000000000E-01  1.0000000000000E-01  1.0000000000000E-01  1.0000000000000E-01  1.0000000000000E-01  1.0000000000000E-01  1.0000000000000E-01  1.0000000000000E-01  1.0000000000000E-01  1.0000000000000E-01 
 1.0956624007712E+01  1.0956624007712E+01  1.0956624007712E+01  1.0956624007712E+01  1.0956624007712E+01  1.0956624007712E+01  1.0956624007712E+01  1.0956624007712E+01  1.0956624007712E+01  1.0956624007712E+01 
 2.7391560019279E+00  2.7391560019279E+00  2.7391560019279E+00  2.7391560019279E+00  2.7391560019279E+00  2.7391560019279E+00  2.7391560019279E+00  2.7391560019279E+00  2.7391560019279E+00  2.7391560019279E+00 
 0.0000000000000E+00  0.0000000000000E+00  0.0000000000000E+00  0.0000000000000E+00  0.0000000000000E+00  0.0000000000000E+00  0.0000000000000E+00  0.0000000000000E+00  0.0000000000000E+00  0.0000000000000E+00 
 0.0000000000000E+00  0.0000000000000E+00  0.0000000000000E+00  0.0000000000000E+00  0.0000000000000E+00  0.0000000000000E+00  0.0000000000000E+00  0.0000000000000E+00  0.0000000000000E+00  0.0000000000000E+00 
 0.0000000000000E+00  0.0000000000000E+00  0.0000000000000E+00  0.0000000000000E+00  0.0000000000000E+00  0.0000000000000E+00  0.0000000000000E+00  0.0000000000000E+00  0.0000000000000E+00  0.0000000000000E+00 
 0.0000000000000E+00  0.0000000000000E+00  0.0000000000000E+00  0.0000000000000E+00  0.0000000000000E+00  0.0000000000000E+00  0.0000000000000E+00  0.0000000000000E+00  0.0000000000000E+00  0.0000000000000E+00 
 0.0000000000000E+00  0.0000000000000E+00  0.0000000000000E+00  0.0000000000000E+00  0.0000000000000E+00  0.0000000000000E+00  0.0000000000000E+00  0.0000000000000E+00  0.0000000000000E+00  0.0000000000000E+00 
 0.0000000000000E+00  0.0000000000000E+00  0.0000000000000E+00  0.0000000000000E+00  0.0000000000000E+00  0.0000000000000E+00  0.0000000000000E+00  0.0000000000000E+00  0.0000000000000E+00  0.0000000000000E+00 
 0.0000000000000E+00  0.0000000000000E+00  0.0000000000000E+00  0.0000000000000E+00  0.0000000000000E+00  0.0000000000000E+00  0.0000000000000E+00  0.0000000000000E+00  0.0000000000000E+00  0.0000000000000E+00 
ZONE T = "ANOD, 1.0000E-08", I = 10, SOLUTIONTIME = 1.000000E-08
ZONETYPE = ORDERED
DATAPACKING = BLOCK
STRANDID = 1
 0.0000000000000E+00  1.0666666666667E-05  2.1333333333333E-05  3.2000000000000E-05  4.2666666666667E-05  5.3333333333333E-05  6.4000000000000E-05  7.4666666666667E-05  8.5333333333333E-05  9.6000000000000E-05 
 1.0618275695285E-08  3.1582937846261E-08  5.2309206620314E-08  7.2829664481504E-08  9.3176792414265E-08  1.1338269636648E-07  1.3347921207077E-07  1.5349786796520E-07  1.7347556044059E-07  1.8354905439028E-07 
 8.4394679988890E-01  8.4394679989032E-01  8.4394679989157E-01  8.4394679989264E-01  8.4394679989355E-01  8.4394679989429E-01  8.4394679989486E-01  8.4394679989527E-01  8.4394679989553E-01  8.4394679992706E-01 
 7.8026600055550E-02  7.8026600054841E-02  7.8026600054217E-02  7.8026600053679E-02  7.8026600053226E-02  7.8026600052856E-02  7.8026600052570E-02  7.8026600052366E-02  7.8026600052236E-02  7.8026600036470E-02 
 7.8026600055550E-02  7.8026600054841E-02  7.8026600054217E-02  7.8026600053679E-02  7.8026600053226E-02  7.8026600052856E-02  7.8026600052570E-02  7.8026600052366E-02  7.8026600052236E-02  7.8026600036470E-02 
 1.3953354709510E-02  1.3953335213788E-02  1.3953277225163E-02  1.3953181181352E-02  1.3953047459916E-02  1.3952876379254E-02  1.3952668198554E-02  1.3952423119031E-02  1.3952141283468E-02  1.3951822777075E-02 
 0.0000000000000E+00 -1.2973559967115E-04 -2.4373406764296E-04 -3.4217435184514E-04 -4.2521084447843E-04 -4.9297365115347E-04 -5.4556881964286E-04 -5.8307852447991E-04 -6.0556120922579E-04 -6.1305168878822E-04 
 2.9814999998227E+02  2.9814999998244E+02  2.9814999998257E+02  2.9814999998268E+02  2.9814999994958E+02  2.9815000001607E+02  2.9814999998293E+02  2.9814999994977E+02  2.9815000001621E+02  2.9815000001620E+02 
-1.3953354709510E-02 -1.4083070813459E-02 -1.4197011292806E-02 -1.4295355533197E-02 -1.4378258304394E-02 -1.4445850030407E-02 -1.4498237018197E-02 -1.4535501643511E-02 -1.4557702492694E-02 -1.4564874465863E-02 
-2.4231113582293E-02 -2.4231113587362E-02 -2.4231113591800E-02 -2.4231113595640E-02 -2.4231113586417E-02 -2.4231113613951E-02 -2.4231113603547E-02 -2.4231113592544E-02 -2.4231113618318E-02 -2.4231113623766E-02 
 1.0277758872783E-02  1.0148042773903E-02  1.0034102298994E-02  9.9357580624430E-03  9.8528552820234E-03  9.7852635835440E-03  9.7328765853498E-03  9.6956119490331E-03  9.6734111256248E-03  9.6662391579028E-03 
 3.4733746731275E+01  6.8579300590531E+01  6.7799487389748E+01  6.7126683646530E+01  6.6559710750864E+01  6.6097579023622E+01  6.5739481948569E+01  6.5484797022768E+01  6.5333082246807E+01  3.2642036679358E+01 
 1.7996838820938E-07  5.3529854163862E-07  8.8658809310083E-07  1.2343923685506E-06  1.5792574746470E-06  1.9217299992920E-06  2.2623451062649E-06  2.6016422074362E-06  2.9402004627676E-06  2.9402004627676E-06 
 0.0000000000000E+00  6.9012379443722E+01  1.3719086968535E+02  2.0464322269981E+02  2.7147571044720E+02  3.3779376200100E+02  4.0370175061753E+02  4.6930335462728E+02  5.3470189276921E+02  6.0000525103078E+02 
 6.0000554078495E+02  5.3098761649757E+02  4.6280910895815E+02  3.9535680060405E+02  3.2852428584801E+02  2.6220624378473E+02  1.9629825401555E+02  1.3069660823656E+02  6.5298130987061E+01  0.0000000000000E+00 
 3.4733746731275E-07  6.8579300590531E-07  6.7799487389748E-07  6.7126683646530E-07  6.6559710750864E-07  6.6097579023622E-07  6.5739481948569E-07  6.5484797022768E-07  6.5333082246807E-07  3.2642036679358E-07 
 1.4095380721407E+03  2.8190761442726E+03  2.8190761442648E+03  2.8190761442580E+03  2.8190761442524E+03  2.8190761442477E+03  2.8190761442442E+03  2.8190761442416E+03  2.8190761442401E+03  1.4095380721198E+03 
 5.6381522868262E+03  1.1276304573661E+04  1.1276304573669E+04  1.1276304573676E+04  1.1276304573681E+04  1.1276304573686E+04  1.1276304573690E+04  1.1276304573692E+04  1.1276304573694E+04  5.6381522868471E+03 
 7.0476903589669E+03  1.4095380717934E+04  1.4095380717934E+04  1.4095380717934E+04  1.4095380717934E+04  1.4095380717934E+04  1.4095380717934E+04  1.4095380717934E+04  1.4095380717934E+04  7.0476903589669E+03 
 4.0000000000000E-01  4.0000000000000E-01  4.0000000000000E-01  4.0000000000000E-01  4.0000000000000E-01  4.0000000000000E-01  4.0000000000000E-01  4.0000000000000E-01  4.0000000000000E-01  4.0000000000000E-01 
 9.4000000000000E-01  1.8800000000000E+00  1.8800000000000E+00  1.8800000000000E+00  1.8800000000000E+00  1.8800000000000E+00  1.8800000000000E+00  1.8800000000000E+00  1.8800000000000E+00  9.4000000000000E-01 
 3.6950794394974E+01  3.6478351377942E+01  3.6063557122207E+01  3.5705682790707E+01  3.5404101463226E+01  3.5158286714693E+01  3.4967809547111E+01  3.4832338841898E+01  3.4751639492983E+01  3.4725570935488E+01 
 5.3333333333333E-06  1.0666666666667E-05  1.0666666666667E-05  1.0666666666667E-05  1.0666666666667E-05  1.0666666666667E-05  1.0666666666667E-05  1.0666666666667E-05  1.0666666666667E-05  5.3333333333333E-06 
 3.0000000000000E-02  3.0000000000000E-02  3.0000000000000E-02  3.0000000000000E-02  3.0000000000000E-02  3.0000000000000E-02  3.0000000000000E-02  3.0000000000000E-02  3.0000000000000E-02  3.0000000000000E-02 
 1.0000000000000E-01  1.0000000000000E-01  1.0000000000000E-01  1.0000000000000E-01  1.0000000000000E-01  1.0000000000000E-01  1.0000000000000E-01  1.0000000000000E-01  1.0000000000000E-01  1.0000000000000E-01 
 1.0956624007037E+01  1.0956624007045E+01  1.0956624007053E+01  1.0956624007059E+01  1.0956624007065E+01  1.0956624007069E+01  1.0956624007073E+01  1.0956624007075E+01  1.0956624007077E+01  1.0956624007077E+01 
 2.7391560026029E+00  2.7391560025942E+00  2.7391560025867E+00  2.7391560025801E+00  2.7391560025746E+00  2.7391560025701E+00  2.7391560025666E+00  2.7391560025642E+00  2.7391560025627E+00  2.7391560025622E+00 
-6.5432080335173E-03 -6.4748405774379E-03 -6.4223419191461E-03 -6.3767869487986E-03 -6.3382102233394E-03 -6.3066399508171E-03 -6.2820982924347E-03 -6.2646021329356E-03 -6.2541632741591E-03 -6.2508091566249E-03 
-6.5432080335173E+05 -6.4748405774379E+05 -6.4223419191461E+05 -6.3767869487986E+05 -6.3382102233394E+05 -6.3066399508171E+05 -6.2820982924347E+05 -6.2646021329356E+05 -6.2541632741591E+05 -6.2508091566249E+05 
 6.3473569900329E-02  3.1251921422188E-01  1.0510171092689E+00  2.2633259932018E+00  3.9370065931790E+00  6.0627206699209E+00  8.6341219879946E+00  1.1647795692455E+01  1.5103204599536E+01  1.6941451010259E+01 
 6.8752382980070E+03  6.0918424806747E+03  4.6334026788961E+03  3.3874217802143E+03  2.3460682936315E+03  1.5028033366833E+03  8.5233774808512E+02  3.9059736679248E+02  1.1469641032324E+02  2.2918631149384E+01 
-6.6119610512330E+05 -6.5357621274368E+05 -6.4686864561061E+05 -6.4106837998607E+05 -6.3617102763417E+05 -6.3217286113906E+05 -6.2907080111354E+05 -6.2686245845605E+05 -6.2554612703083E+05 -6.2512077574465E+05 
 6.6934701428946E+04  6.5244907222060E+04  6.3778780640530E+04  6.2526983384291E+04  6.1481549888252E+04  6.0635834449753E+04  5.9984462411992E+04  5.9523298277158E+04  5.9249415543885E+04  5.9161075037946E+04 
-7.2813080655225E+05 -7.1882111996574E+05 -7.1064742625114E+05 -7.0359536337036E+05 -6.9765257752242E+05 -6.9280869558881E+05 -6.8905526352553E+05 -6.8638575673321E+05 -6.8479554257472E+05 -6.8428185078259E+05 
ZONE T = "ANOD, 2.0000E-08", I = 10, SOLUTIONTIME = 2.000000E-08
ZONETYPE = ORDERED
DATAPACKING = BLOCK
STRANDID = 1
 0.0000000000000E+00  1.0666666666667E-05  2.1333333333333E-05  3.2000000000000E-05  4.2666666666667E-05  5.3333333333333E-05  6.4000000000000E-05  7.4666666666667E-05  8.5333333333333E-05  9.6000000000000E-05 
 1.0618560998892E-08  3.1583186539302E-08  5.2309346981451E-08  7.2829812802866E-08  9.3176809598475E-08  1.1338257278775E-07  1.3347904449266E-07  1.5349724263804E-07  1.7348035873422E-07  1.8364691131728E-07 
 8.4394679977780E-01  8.4394679978064E-01  8.4394679978313E-01  8.4394679978528E-01  8.4394679978710E-01  8.4394679978858E-01  8.4394679978972E-01  8.4394679979054E-01  8.4394679979107E-01  8.4394679985454E-01 
 7.8026600111100E-02  7.8026600109682E-02  7.8026600108435E-02  7.8026600107358E-02  7.8026600106452E-02  7.8026600105712E-02  7.8026600105140E-02  7.8026600104732E-02  7.8026600104463E-02  7.8026600072732E-02 
 7.8026600111100E-02  7.8026600109682E-02  7.8026600108435E-02  7.8026600107358E-02  7.8026600106452E-02  7.8026600105712E-02  7.8026600105140E-02  7.8026600104732E-02  7.8026600104463E-02  7.8026600072732E-02 
 1.3954913133388E-02  1.3954893637552E-02  1.3954835648655E-02  1.3954739604465E-02  1.3954605882678E-02  1.3954434801579E-02  1.3954226620597E-02  1.3953981540760E-02  1.3953699705041E-02  1.3953381198608E-02 
 0.0000000000000E+00 -1.2973555315144E-04 -2.4373391150425E-04 -3.4217404885090E-04 -4.2521037932616E-04 -4.9297302793901E-04 -5.4556805773958E-04 -5.8307765494318E-04 -6.0556027181609E-04 -6.1305072813073E-04 
 2.9814999996580E+02  2.9814999996615E+02  2.9814999996641E+02  2.9814999996663E+02  2.9814999993364E+02  2.9815000000018E+02  2.9814999996711E+02  2.9814999993402E+02  2.9815000000046E+02  2.9815000000048E+02 
-1.3954913133388E-02 -1.4084629190704E-02 -1.4198569560159E-02 -1.4296913653316E-02 -1.4379816262004E-02 -1.4447407829518E-02 -1.4499794678337E-02 -1.4537059195703E-02 -1.4559259976857E-02 -1.4566431926739E-02 
-2.4231113184868E-02 -2.4231113195002E-02 -2.4231113203886E-02 -2.4231113211546E-02 -2.4231113205563E-02 -2.4231113235725E-02 -2.4231113227361E-02 -2.4231113217811E-02 -2.4231113244451E-02 -2.4231113255430E-02 
 1.0276200051480E-02  1.0146484004298E-02  1.0032543643727E-02  9.9341995582304E-03  9.8512969435585E-03  9.7837054062072E-03  9.7313185490236E-03  9.6940540221079E-03  9.6718532675943E-03  9.6646813286917E-03 
 3.4728408637648E+01  6.8568630042483E+01  6.7788822210183E+01  6.7116023416218E+01  6.6549054924448E+01  6.6086926944254E+01  6.5728832870711E+01  6.5474150135173E+01  6.5322436686538E+01  3.2636714132364E+01 
 1.7997159839609E-07  5.3530294886391E-07  8.8659322958628E-07  1.2343969817848E-06  1.5792626318438E-06  1.9217334765147E-06  2.2623486325275E-06  2.6016440702377E-06  2.9402493611198E-06  2.9402493611198E-06 
 0.0000000000000E+00  6.9012723658815E+01  1.3719144978547E+02  2.0464387259946E+02  2.7147641176827E+02  3.3779440270311E+02  4.0370228261034E+02  4.6930377411278E+02  5.3470206752513E+02  6.0000000000049E+02 
 6.0000000000000E+02  5.3098727634111E+02  4.6280855021478E+02  3.9535612740157E+02  3.2852358823124E+02  2.6220559729689E+02  1.9629771738941E+02  1.3069622588648E+02  6.5297932475627E+01  0.0000000000000E+00 
 6.9462155368923E-07  1.3714793063301E-06  1.3558830959993E-06  1.3424270706275E-06  1.3310876567531E-06  1.3218450596788E-06  1.3146831481928E-06  1.3095894715794E-06  1.3065551893334E-06  6.5278750811723E-07 
 1.4095380724880E+03  2.8190761449582E+03  2.8190761449426E+03  2.8190761449292E+03  2.8190761449179E+03  2.8190761449086E+03  2.8190761449015E+03  2.8190761448964E+03  2.8190761448933E+03  1.4095380724462E+03 
 5.6381522864789E+03  1.1276304572976E+04  1.1276304572991E+04  1.1276304573005E+04  1.1276304573016E+04  1.1276304573025E+04  1.1276304573032E+04  1.1276304573037E+04  1.1276304573041E+04  5.6381522865207E+03 
 7.0476903589669E+03  1.4095380717934E+04  1.4095380717934E+04  1.4095380717934E+04  1.4095380717934E+04  1.4095380717934E+04  1.4095380717934E+04  1.4095380717934E+04  1.4095380717934E+04  7.0476903589669E+03 
 4.0000000000000E-01  4.0000000000000E-01  4.0000000000000E-01  4.0000000000000E-01  4.0000000000000E-01  4.0000000000000E-01  4.0000000000000E-01  4.0000000000000E-01  4.0000000000000E-01  4.0000000000000E-01 
 9.4000000000000E-01  1.8800000000000E+00  1.8800000000000E+00  1.8800000000000E+00  1.8800000000000E+00  1.8800000000000E+00  1.8800000000000E+00  1.8800000000000E+00  1.8800000000000E+00  9.4000000000000E-01 
 3.6945115571966E+01  3.6472675554512E+01  3.6057884154353E+01  3.5700012455435E+01  3.5398433470451E+01  3.5152620715029E+01  3.4962145143995E+01  3.4826675603815E+01  3.4745976960924E+01  3.4719908651451E+01 
 5.3333333333333E-06  1.0666666666667E-05  1.0666666666667E-05  1.0666666666667E-05  1.0666666666667E-05  1.0666666666667E-05  1.0666666666667E-05  1.0666666666667E-05  1.0666666666667E-05  5.3333333333333E-06 
 3.0000000000000E-02  3.0000000000000E-02  3.0000000000000E-02  3.0000000000000E-02  3.0000000000000E-02  3.0000000000000E-02  3.0000000000000E-02  3.0000000000000E-02  3.0000000000000E-02  3.0000000000000E-02 
 1.0000000000000E-01  1.0000000000000E-01  1.0000000000000E-01  1.0000000000000E-01  1.0000000000000E-01  1.0000000000000E-01  1.0000000000000E-01  1.0000000000000E-01  1.0000000000000E-01  1.0000000000000E-01 
 1.0956624006362E+01  1.0956624006379E+01  1.0956624006394E+01  1.0956624006407E+01  1.0956624006418E+01  1.0956624006427E+01  1.0956624006434E+01  1.0956624006439E+01  1.0956624006442E+01  1.0956624006443E+01 
 2.7391560032777E+00  2.7391560032605E+00  2.7391560032453E+00  2.7391560032323E+00  2.7391560032212E+00  2.7391560032123E+00  2.7391560032053E+00  2.7391560032004E+00  2.7391560031974E+00  2.7391560031965E+00 
-1.3085501450315E-02 -1.2948764502407E-02 -1.2843765445787E-02 -1.2752654005791E-02 -1.2675499293216E-02 -1.2612357721009E-02 -1.2563273609290E-02 -1.2528280725691E-02 -1.2507402672166E-02 -1.2500694331684E-02 
-6.5422934167982E+05 -6.4739239249696E+05 -6.4214235266410E+05 -6.3758670569919E+05 -6.3372890698763E+05 -6.3057177701922E+05 -6.2811753168550E+05 -6.2636785927558E+05 -6.2532393980068E+05 -6.2498851750590E+05 
 1.2694788466219E-01  6.2504143540664E-01  2.1020429351859E+00  4.5266658931181E+00  7.8740334935123E+00  1.2125463636697E+01  1.7268266675368E+01  2.3295611609895E+01  3.0206418668663E+01  3.3882906279887E+01 
 1.3750471665462E+04  1.2183677391564E+04  9.2667943481144E+03  6.7748321550858E+03  4.6921267119852E+03  3.0055993186758E+03  1.7046708674344E+03  7.8119246111270E+02  2.2939212619126E+02  4.5837120036433E+01 
-6.6110463852159E+05 -6.5348453993007E+05 -6.4677679535915E+05 -6.4097637941396E+05 -6.3607890243289E+05 -6.3208063574418E+05 -6.2897849894953E+05 -6.2677010218581E+05 -6.2545373873062E+05 -6.2502837745006E+05 
 6.6914264112232E+04  6.5224735233835E+04  6.3758842367881E+04  6.2507247314801E+04  6.1461984613150E+04  6.0616408647588E+04  5.9965144842956E+04  5.9504057774179E+04  5.9230220984734E+04  5.9141895392738E+04 
-7.2801890263382E+05 -7.1870927516390E+05 -7.1053563772703E+05 -7.0348362672876E+05 -6.9754088704604E+05 -6.9269704439177E+05 -6.8894364379249E+05 -6.8627415995999E+05 -6.8468395971535E+05 -6.8417027284280E+05 
ZONE T = "ANOD, 3.0000E-08", I = 10, SOLUTIONTIME = 3.000000E-08
ZONETYPE = ORDERED
DATAPACKING = BLOCK
STRANDID = 1
 0.0000000000000E+00  1.0666666666667E-05  2.1333333333333E-05  3.2000000000000E-05  4.2666666666667E-05  5.3333333333333E-05  6.4000000000000E-05  7.4666666666667E-05  8.5333333333333E-05  9.6000000000000E-05 
 1.0618781905787E-08  3.1583159799005E-08  5.2309330643790E-08  7.2829756614835E-08  9.3176927461712E-08  1.1338259237446E-07  1.3347897708929E-07  1.5349729875268E-07  1.7348604260902E-07  1.8374427089613E-07 
 8.4394679966670E-01  8.4394679967095E-01  8.4394679967470E-01  8.4394679967792E-01  8.4394679968065E-01  8.4394679968286E-01  8.4394679968458E-01  8.4394679968580E-01  8.4394679968664E-01  8.4394679978242E-01 
 7.8026600166649E-02  7.8026600164523E-02  7.8026600162652E-02  7.8026600161038E-02  7.8026600159677E-02  7.8026600158569E-02  7.8026600157710E-02  7.8026600157098E-02  7.8026600156682E-02  7.8026600108790E-02 
 7.8026600166649E-02  7.8026600164523E-02  7.8026600162652E-02  7.8026600161038E-02  7.8026600159677E-02  7.8026600158569E-02  7.8026600157710E-02  7.8026600157098E-02  7.8026600156682E-02  7.8026600108790E-02 
 1.3954912751909E-02  1.3954893256074E-02  1.3954835267176E-02  1.3954739222987E-02  1.3954605501200E-02  1.3954434420101E-02  1.3954226239120E-02  1.3953981159283E-02  1.3953699323563E-02  1.3953380817131E-02 
 0.0000000000000E+00 -1.2973555316396E-04 -2.4373391154640E-04 -3.4217404893289E-04 -4.2521037945226E-04 -4.9297302810850E-04 -5.4556805794772E-04 -5.8307765518211E-04 -6.0556027207569E-04 -6.1305072839961E-04 
 2.9814999994933E+02  2.9814999994985E+02  2.9814999995024E+02  2.9814999995058E+02  2.9814999991770E+02  2.9814999998430E+02  2.9814999995131E+02  2.9814999991826E+02  2.9814999998472E+02  2.9814999998476E+02 
-1.3954912751909E-02 -1.4084628809238E-02 -1.4198569178723E-02 -1.4296913271920E-02 -1.4379815880652E-02 -1.4447407448210E-02 -1.4499794297068E-02 -1.4537058814465E-02 -1.4559259595639E-02 -1.4566431545531E-02 
-2.4231112787440E-02 -2.4231112802639E-02 -2.4231112815963E-02 -2.4231112827465E-02 -2.4231112824713E-02 -2.4231112857497E-02 -2.4231112851175E-02 -2.4231112843092E-02 -2.4231112870591E-02 -2.4231112887168E-02 
 1.0276200035531E-02  1.0146483993402E-02  1.0032543637240E-02  9.9341995555451E-03  9.8512969440608E-03  9.7837054092871E-03  9.7313185541073E-03  9.6940540286275E-03  9.6718532749516E-03  9.6646813416379E-03 
 3.4728408583107E+01  6.8568629967916E+01  6.7788822165713E+01  6.7116023397605E+01  6.6549054927612E+01  6.6086926964875E+01  6.5728832904994E+01  6.5474150179162E+01  6.5322436736261E+01  3.2636714172779E+01 
 1.7997374971216E-07  5.3530484395284E-07  8.8659486433469E-07  1.2343983590843E-06  1.5792637543614E-06  1.9217343461889E-06  2.2623492510910E-06  2.6016445191255E-06  2.9402984837347E-06  2.9402984837347E-06 
 0.0000000000000E+00  6.9012723566652E+01  1.3719144963335E+02  2.0464387241512E+02  2.7147641157828E+02  3.3779440252510E+02  4.0370228245920E+02  4.6930377400060E+02  5.3470206745944E+02  6.0000000000226E+02 
 6.0000000000000E+02  5.3098727643293E+02  4.6280855036612E+02  3.9535612758446E+02  3.2852358842186E+02  2.6220559747562E+02  1.9629771754068E+02  1.3069622599861E+02  6.5297932540897E+01  0.0000000000000E+00 
 1.0419056395203E-06  2.0571656060093E-06  2.0337713176564E-06  2.0135873046035E-06  1.9965782060292E-06  1.9827143293275E-06  1.9719714772427E-06  1.9643309733710E-06  1.9597795566961E-06  9.7915464984502E-07 
 1.4095380728353E+03  2.8190761456439E+03  2.8190761456205E+03  2.8190761456004E+03  2.8190761455833E+03  2.8190761455695E+03  2.8190761455587E+03  2.8190761455511E+03  2.8190761455465E+03  1.4095380727725E+03 
 5.6381522861316E+03  1.1276304572290E+04  1.1276304572313E+04  1.1276304572333E+04  1.1276304572350E+04  1.1276304572364E+04  1.1276304572375E+04  1.1276304572383E+04  1.1276304572387E+04  5.6381522861944E+03 
 7.0476903589669E+03  1.4095380717934E+04  1.4095380717934E+04  1.4095380717934E+04  1.4095380717934E+04  1.4095380717934E+04  1.4095380717934E+04  1.4095380717934E+04  1.4095380717934E+04  7.0476903589669E+03 
 4.0000000000000E-01  4.0000000000000E-01  4.0000000000000E-01  4.0000000000000E-01  4.0000000000000E-01  4.0000000000000E-01  4.0000000000000E-01  4.0000000000000E-01  4.0000000000000E-01  4.0000000000000E-01 
 9.4000000000000E-01  1.8800000000000E+00  1.8800000000000E+00  1.8800000000000E+00  1.8800000000000E+00  1.8800000000000E+00  1.8800000000000E+00  1.8800000000000E+00  1.8800000000000E+00  9.4000000000000E-01 
 3.6945115513944E+01  3.6472675514849E+01  3.6057884130699E+01  3.5700012445535E+01  3.5398433472134E+01  3.5152620725997E+01  3.4962145162231E+01  3.4826675627214E+01  3.4745976987373E+01  3.4719908694446E+01 
 5.3333333333333E-06  1.0666666666667E-05  1.0666666666667E-05  1.0666666666667E-05  1.0666666666667E-05  1.0666666666667E-05  1.0666666666667E-05  1.0666666666667E-05  1.0666666666667E-05  5.3333333333333E-06 
 3.0000000000000E-02  3.0000000000000E-02  3.0000000000000E-02  3.0000000000000E-02  3.0000000000000E-02  3.0000000000000E-02  3.0000000000000E-02  3.0000000000000E-02  3.0000000000000E-02  3.0000000000000E-02 
 1.0000000000000E-01  1.0000000000000E-01  1.0000000000000E-01  1.0000000000000E-01  1.0000000000000E-01  1.0000000000000E-01  1.0000000000000E-01  1.0000000000000E-01  1.0000000000000E-01  1.0000000000000E-01 
 1.0956624005687E+01  1.0956624005713E+01  1.0956624005735E+01  1.0956624005755E+01  1.0956624005772E+01  1.0956624005785E+01  1.0956624005795E+01  1.0956624005803E+01  1.0956624005807E+01  1.0956624005809E+01 
 2.7391560039526E+00  2.7391560039267E+00  2.7391560039040E+00  2.7391560038844E+00  2.7391560038679E+00  2.7391560038544E+00  2.7391560038440E+00  2.7391560038365E+00  2.7391560038321E+00  2.7391560038307E+00 
-1.9627794854318E-02 -1.9422688417599E-02 -1.9265188965291E-02 -1.9128521057929E-02 -1.9012788360176E-02 -1.8918075489845E-02 -1.8844448926015E-02 -1.8791959319192E-02 -1.8760642071435E-02 -1.8750579510973E-02 
-6.5422934040029E+05 -6.4739239151915E+05 -6.4214235195034E+05 -6.3758670521388E+05 -6.3372890669602E+05 -6.3057177688358E+05 -6.2811753167255E+05 -6.2636785935002E+05 -6.2532393992686E+05 -6.2498851792894E+05 
 1.9042219917261E-01  9.3756365552382E-01  3.1530687579585E+00  6.7900057871714E+00  1.1811060385229E+01  1.8188206592269E+01  2.5902411349443E+01  3.4943427512529E+01  4.5309632723090E+01  5.0824361535628E+01 
 2.0625705034244E+04  1.8275512304496E+04  1.3900186020314E+04  1.0162242533055E+04  7.0381851330360E+03  4.5083953026996E+03  2.5570039880858E+03  1.1717875560945E+03  3.4408784227763E+02  6.8755608980237E+01 
-6.6110463724339E+05 -6.5348453895430E+05 -6.4677679464836E+05 -6.4097637893174E+05 -6.3607890214396E+05 -6.3208063561056E+05 -6.2897849893787E+05 -6.2677010226090E+05 -6.2545373885700E+05 -6.2502837787314E+05 
 6.6914263903269E+04  6.5224735092838E+04  6.3758842284835E+04  6.2507247280554E+04  6.1461984619227E+04  6.0616408685589E+04  5.9965144905559E+04  5.9504057854102E+04  5.9230221074888E+04  5.9141895544790E+04 