TITLE = "Solution on Domain BulkDomain1D_0"
VARIABLES = "x [m]"  
"Vel_axial" 
"MF_sp(ECDMC)" 
"MF_sp(Li+)" 
"MF_sp(PF6-)" 
"Volt(Electroly)" 
"Volt(AnodeVolt)" 
"Temperature" 
"Potential Drop Electrode-Electrolyte [V]" 
"Surf_0 Equilibrium Potential Drop Electrode-Electrolyte [V]" 
"Overpotential_0 [V]" 
"Current Source [A/m^2]" 
"Li+ flux [kmol/m^2/s]" 
"Electrolyte Current [A/m^2]" 
"Electrode Current [A/m^2]" 
"CV Capacity discharged [A-s/m^2]" 
"Depth of discharge in CV [A-s/m^2]" 
"CV Capacity remaining [A-s/m^2]" 
"Initial CV capacity [A-s/m^2]" 
"Porosity []" 
"Surface Area [m2/m2] (area per area)" 
"Specific current (per particle area) [A/m^2]" 
"Control volume thickness [m]" 
"volFrac AnodeBinder []" 	"volFrac ExtraStuff []" 	"MoleDens Li_C6-bulk [kmol/m^3]" 
"MoleDens V_C6-bulk [kmol/m^3]" 
"qHeat_accum [J/m3]" 
"qHeat_step [W/m3]" 
"Joule_Lyte [W/m3]" 
"Joule_Solid [W/m3]" 
"electrodHeat [W/m3]" 
"OverpotHeat [W/m3]" 
"deltaSHeat [W/m3]" 

ZONE T = "ANOD, 0.0000E+00", I = 10, SOLUTIONTIME = 0.000000E+00
ZONETYPE = ORDERED
DATAPACKING = BLOCK
STRANDID = 1
 0.0000000000000E+00  1.0666666666667E-05  2.1333333333333E-05  3.2000000000000E-05  4.2666666666667E-05  5.3333333333333E-05  6.4000000000000E-05  7.4666666666667E-05  8.5333333333333E-05  9.6000000000000E-05 
 0.0000000000000E+00  0.0000000000000E+00  0.0000000000000E+00  0.0000000000000E+00  0.0000000000000E+00  0.0000000000000E+00  0.0000000000000E+00  0.0000000000000E+00  0.0000000000000E+00  0.0000000000000E+00 
 8.4394680000000E-01  8.4394680000000E-01  8.4394680000000E-01  8.4394680000000E-01  8.4394680000000E-01  8.4394680000000E-01  8.4394680000000E-01  8.4394680000000E-01  8.4394680000000E-01  8.4394680000000E-01 
 7.8026600000000E-02  7.8026600000000E-02  7.8026600000000E-02  7.8026600000000E-02  7.8026600000000E-02  7.8026600000000E-02  7.8026600000000E-02  7.8026600000000E-02  7.8026600000000E-02  7.8026600000000E-02 
 7.8026600000000E-02  7.8026600000000E-02  7.8026600000000E-02  7.8026600000000E-02  7.8026600000000E-02  7.8026600000000E-02  7.8026600000000E-02  7.8026600000000E-02  7.8026600000000E-02  7.8026600000000E-02 
-7.0000000000000E-02 -7.0000000000000E-02 -7.0000000000000E-02 -7.0000000000000E-02 -7.0000000000000E-02 -7.0000000000000E-02 -7.0000000000000E-02 -7.0000000000000E-02 -7.0000000000000E-02 -7.0000000000000E-02 
 0.0000000000000E+00  0.0000000000000E+00  0.0000000000000E+00  0.0000000000000E+00  0.0000000000000E+00  0.0000000000000E+00  0.0000000000000E+00  0.0000000000000E+00  0.0000000000000E+00  0.0000000000000E+00 
 2.9815000000000E+02  2.9815000000000E+02  2.9815000000000E+02  2.9815000000000E+02  2.9815000000000E+02  2.9815000000000E+02  2.9815000000000E+02  2.9815000000000E+02  2.9815000000000E+02  2.9815000000000E+02 
 7.0000000000000E-02  7.0000000000000E-02  7.0000000000000E-02  7.0000000000000E-02  7.0000000000000E-02  7.0000000000000E-02  7.0000000000000E-02  7.0000000000000E-02  7.0000000000000E-02  7.0000000000000E-02 
-2.4231113980254E-02 -2.4231113980254E-02 -2.4231113980254E-02 -2.4231113980254E-02 -2.4231113980254E-02 -2.4231113980254E-02 -2.4231113980254E-02 -2.4231113980254E-02 -2.4231113980254E-02 -2.4231113980254E-02 
 9.4231113980254E-02  9.4231113980254E-02  9.4231113980254E-02  9.4231113980254E-02  9.4231113980254E-02  9.4231113980254E-02  9.4231113980254E-02  9.4231113980254E-02  9.4231113980254E-02  9.4231113980254E-02 
 5.2595956578534E+02  1.0519191315707E+03  1.0519191315707E+03  1.0519191315707E+03  1.0519191315707E+03  1.0519191315707E+03  1.0519191315707E+03  1.0519191315707E+03  1.0519191315707E+03  5.2595956578534E+02 
-0.0000000000000E+00 -0.0000000000000E+00 -0.0000000000000E+00 -0.0000000000000E+00 -0.0000000000000E+00 -0.0000000000000E+00 -0.0000000000000E+00 -0.0000000000000E+00 -0.0000000000000E+00 -0.0000000000000E+00 
 0.0000000000000E+00  0.0000000000000E+00  0.0000000000000E+00  0.0000000000000E+00  0.0000000000000E+00  0.0000000000000E+00  0.0000000000000E+00  0.0000000000000E+00  0.0000000000000E+00  5.2595956578534E+02 
 5.2595956578534E+02 -0.0000000000000E+00 -0.0000000000000E+00 -0.0000000000000E+00 -0.0000000000000E+00 -0.0000000000000E+00 -0.0000000000000E+00 -0.0000000000000E+00 -0.0000000000000E+00  0.0000000000000E+00 
 0.0000000000000E+00  0.0000000000000E+00  0.0000000000000E+00  0.0000000000000E+00  0.0000000000000E+00  0.0000000000000E+00  0.0000000000000E+00  0.0000000000000E+00  0.0000000000000E+00  0.0000000000000E+00 
 1.4095380717934E+03  2.8190761435868E+03  2.8190761435868E+03  2.8190761435868E+03  2.8190761435868E+03  2.8190761435868E+03  2.8190761435868E+03  2.8190761435868E+03  2.8190761435868E+03  1.4095380717934E+03 
 5.6381522871735E+03  1.1276304574347E+04  1.1276304574347E+04  1.1276304574347E+04  1.1276304574347E+04  1.1276304574347E+04  1.1276304574347E+04  1.1276304574347E+04  1.1276304574347E+04  5.6381522871735E+03 
 7.0476903589669E+03  1.4095380717934E+04  1.4095380717934E+04  1.4095380717934E+04  1.4095380717934E+04  1.4095380717934E+04  1.4095380717934E+04  1.4095380717934E+04  1.4095380717934E+04  7.0476903589669E+03 
 4.0000000000000E-01  4.0000000000000E-01  4.0000000000000E-01  4.0000000000000E-01  4.0000000000000E-01  4.0000000000000E-01  4.0000000000000E-01  4.0000000000000E-01  4.0000000000000E-01  4.0000000000000E-01 
 9.4000000000000E-01  1.8800000000000E+00  1.8800000000000E+00  1.8800000000000E+00  1.8800000000000E+00  1.8800000000000E+00  1.8800000000000E+00  1.8800000000000E+00  1.8800000000000E+00  9.4000000000000E-01 
 5.5953145296313E+02  5.5953145296313E+02  5.5953145296313E+02  5.5953145296313E+02  5.5953145296313E+02  5.5953145296313E+02  5.5953145296313E+02  5.5953145296313E+02  5.5953145296313E+02  5.5953145296313E+02 
 5.3333333333333E-06  1.0666666666667E-05  1.0666666666667E-05  1.0666666666667E-05  1.0666666666667E-05  1.0666666666667E-05  1.0666666666667E-05  1.0666666666667E-05  1.0666666666667E-05  5.3333333333333E-06 
 3.0000000000000E-02  3.0000000000000E-02  3.0000000000000E-02  3.0000000000000E-02  3.0000000000000E-02  3.0000000000000E-02  3.0000000000000E-02  3.0000000000000E-02  3.0000000000000E-02  3.0000000000000E-02 
 1.0000000000000E-01  1.0000000000000E-01  1.0000000000000E-01  1.0000000000000E-01  1.0000000000000E-01  1.0000000000000E-01  1.0000000000000E-01  1.0000000000000E-01  1.0000000000000E-01  1.0000000000000E-01 
 1.0956624007712E+01  1.0956624007712E+01  1.0956624007712E+01  1.0956624007712E+01  1.0956624007712E+01  1.0956624007712E+01  1.0956624007712E+01  1.0956624007712E+01  1.0956624007712E+01  1.0956624007712E+01 
 2.7391560019279E+00  2.7391560019279E+00  2.7391560019279E+00  2.7391560019279E+00  2.7391560019279E+00  2.7391560019279E+00  2.7391560019279E+00  2.7391560019279E+00  2.7391560019279E+00  2.7391560019279E+00 
 0.0000000000000E+00  0.0000000000000E+00  0.0000000000000E+00  0.0000000000000E+00  0.0000000000000E+00  0.0000000000000E+00  0.0000000000000E+00  0.0000000000000E+00  0.0000000000000E+00  0.0000000000000E+00 
 0.0000000000000E+00  0.0000000000000E+00  0.0000000000000E+00  0.0000000000000E+00  0.0000000000000E+00  0.0000000000000E+00  0.0000000000000E+00  0.0000000000000E+00  0.0000000000000E+00  0.0000000000000E+00 
 0.0000000000000E+00  0.0000000000000E+00  0.0000000000000E+00  0.0000000000000E+00  0.0000000000000E+00  0.0000000000000E+00  0.0000000000000E+00  0.0000000000000E+00  0.0000000000000E+00  0.0000000000000E+00 
 0.0000000000000E+00  0.0000000000000E+00  0.0000000000000E+00  0.0000000000000E+00  0.0000000000000E+00  0.0000000000000E+00  0.0000000000000E+00  0.0000000000000E+00  0.0000000000000E+00  0.0000000000000E+00 
 0.0000000000000E+00  0.0000000000000E+00  0.0000000000000E+00  0.0000000000000E+00  0.0000000000000E+00  0.0000000000000E+00  0.0000000000000E+00  0.0000000000000E+00  0.0000000000000E+00  0.0000000000000E+00 
 0.0000000000000E+00  0.0000000000000E+00  0.0000000000000E+00  0.0000000000000E+00  0.0000000000000E+00  0.0000000000000E+00  0.0000000000000E+00  0.0000000000000E+00  0.0000000000000E+00  0.0000000000000E+00 
 0.0000000000000E+00  0.0000000000000E+00  0.0000000000000E+00  0.0000000000000E+00  0.0000000000000E+00  0.0000000000000E+00  0.0000000000000E+00  0.0000000000000E+00  0.0000000000000E+00  0.0000000000000E+00 
ZONE T = "ANOD, 1.0000E-08", I = 10, SOLUTIONTIME = 1.000000E-08
ZONETYPE = ORDERED
DATAPACKING = BLOCK
STRANDID = 1
 0.0000000000000E+00  1.0666666666667E-05  2.1333333333333E-05  3.2000000000000E-05  4.2666666666667E-05  5.3333333333333E-05  6.4000000000000E-05  7.4666666666667E-05  8.5333333333333E-05  9.6000000000000E-05 
 1.0618258121463E-08  3.1581665612518E-08  5.2307926415295E-08  7.2828368367032E-08  9.3175516908534E-08  1.1338142030049E-07  1.3347783761313E-07  1.5349647081550E-07  1.7347417163207E-07  1.8354767705460E-07 
 8.4394679988890E-01  8.4394679989032E-01  8.4394679989157E-01  8.4394679989264E-01  8.4394679989355E-01  8.4394679989429E-01  8.4394679989486E-01  8.4394679989527E-01  8.4394679989553E-01  8.4394679992706E-01 
 7.8026600055550E-02  7.8026600054841E-02  7.8026600054217E-02  7.8026600053679E-02  7.8026600053226E-02  7.8026600052856E-02  7.8026600052570E-02  7.8026600052366E-02  7.8026600052236E-02  7.8026600036470E-02 
 7.8026600055550E-02  7.8026600054841E-02  7.8026600054217E-02  7.8026600053679E-02  7.8026600053226E-02  7.8026600052856E-02  7.8026600052570E-02  7.8026600052366E-02  7.8026600052236E-02  7.8026600036470E-02 
 1.3953354742416E-02  1.3953335246701E-02  1.3953277258068E-02  1.3953181214199E-02  1.3953047492818E-02  1.3952876412096E-02  1.3952668231466E-02  1.3952423151865E-02  1.3952141316375E-02  1.3951822809988E-02 
 0.0000000000000E+00 -1.2973559945310E-04 -2.4373406741281E-04 -3.4217435129185E-04 -4.2521084296323E-04 -4.9297364885929E-04 -5.4556881699089E-04 -5.8307852143463E-04 -6.0556120616254E-04 -6.1305168573617E-04 
 2.9814999998227E+02  2.9814999998244E+02  2.9814999998257E+02  2.9814999998269E+02  2.9814999998279E+02  2.9815000001606E+02  2.9814999998293E+02  2.9814999998297E+02  2.9814999998300E+02  2.9815000001621E+02 
-1.3953354742416E-02 -1.4083070846154E-02 -1.4197011325481E-02 -1.4295355565491E-02 -1.4378258335782E-02 -1.4445850060955E-02 -1.4498237048457E-02 -1.4535501673299E-02 -1.4557702522537E-02 -1.4564874495724E-02 
-2.4231113582293E-02 -2.4231113587363E-02 -2.4231113591804E-02 -2.4231113595636E-02 -2.4231113598869E-02 -2.4231113613948E-02 -2.4231113603543E-02 -2.4231113604994E-02 -2.4231113605865E-02 -2.4231113623767E-02 
 1.0277758839877E-02  1.0148042741209E-02  1.0034102266323E-02  9.9357580301448E-03  9.8528552630877E-03  9.7852635529931E-03  9.7328765550857E-03  9.6956119316950E-03  9.6734110833273E-03  9.6662391280429E-03 
 3.4733746618590E+01  6.8579300366738E+01  6.7799487166143E+01  6.7126683425634E+01  6.6559710713327E+01  6.6097578814749E+01  6.5739481741783E+01  6.5484796994729E+01  6.5333081867492E+01  3.2642036577352E+01 
 1.7996833046169E-07  5.3529861447444E-07  8.8658862800690E-07  1.2343918520733E-06  1.5792580322696E-06  1.9217293555433E-06  2.2623458333492E-06  2.6016415266611E-06  2.9402004091585E-06  2.9402004091585E-06 
 0.0000000000000E+00  6.9012380896071E+01  1.3719092832010E+02  2.0464322448389E+02  2.7147571441368E+02  3.3779375368168E+02  4.0370175865819E+02  4.6930335909887E+02  5.3470182191190E+02  6.0000524058378E+02 
 6.0000553972221E+02  5.3098761599619E+02  4.6280910822780E+02  3.9535679780448E+02  3.2852428205539E+02  2.6220624130822E+02  1.9629825237924E+02  1.3069660734055E+02  6.5298130972326E+01  0.0000000000000E+00 
 3.4733746618590E-07  6.8579300366738E-07  6.7799487166143E-07  6.7126683425634E-07  6.6559710713327E-07  6.6097578814749E-07  6.5739481741783E-07  6.5484796994729E-07  6.5333081867492E-07  3.2642036577352E-07 
 1.4095380721407E+03  2.8190761442726E+03  2.8190761442648E+03  2.8190761442580E+03  2.8190761442524E+03  2.8190761442477E+03  2.8190761442442E+03  2.8190761442416E+03  2.8190761442401E+03  1.4095380721198E+03 
 5.6381522868262E+03  1.1276304573661E+04  1.1276304573669E+04  1.1276304573676E+04  1.1276304573681E+04  1.1276304573686E+04  1.1276304573690E+04  1.1276304573692E+04  1.1276304573694E+04  5.6381522868471E+03 
 7.0476903589669E+03  1.4095380717934E+04  1.4095380717934E+04  1.4095380717934E+04  1.4095380717934E+04  1.4095380717934E+04  1.4095380717934E+04  1.4095380717934E+04  1.4095380717934E+04  7.0476903589669E+03 
 4.0000000000000E-01  4.0000000000000E-01  4.0000000000000E-01  4.0000000000000E-01  4.0000000000000E-01  4.0000000000000E-01  4.0000000000000E-01  4.0000000000000E-01  4.0000000000000E-01  4.0000000000000E-01 
 9.4000000000000E-01  1.8800000000000E+00  1.8800000000000E+00  1.8800000000000E+00  1.8800000000000E+00  1.8800000000000E+00  1.8800000000000E+00  1.8800000000000E+00  1.8800000000000E+00  9.4000000000000E-01 
 3.6950794275096E+01  3.6478351258903E+01  3.6063557003268E+01  3.5705682673210E+01  3.5404101443259E+01  3.5158286603590E+01  3.4967809437119E+01  3.4832338826983E+01  3.4751639291219E+01  3.4725570826970E+01 
 5.3333333333333E-06  1.0666666666667E-05  1.0666666666667E-05  1.0666666666667E-05  1.0666666666667E-05  1.0666666666667E-05  1.0666666666667E-05  1.0666666666667E-05  1.0666666666667E-05  5.3333333333333E-06 
 3.0000000000000E-02  3.0000000000000E-02  3.0000000000000E-02  3.0000000000000E-02  3.0000000000000E-02  3.0000000000000E-02  3.0000000000000E-02  3.0000000000000E-02  3.0000000000000E-02  3.0000000000000E-02 
 1.0000000000000E-01  1.0000000000000E-01  1.0000000000000E-01  1.0000000000000E-01  1.0000000000000E-01  1.0000000000000E-01  1.0000000000000E-01  1.0000000000000E-01  1.0000000000000E-01  1.0000000000000E-01 
 1.0956624007037E+01  1.0956624007045E+01  1.0956624007053E+01  1.0956624007059E+01  1.0956624007065E+01  1.0956624007069E+01  1.0956624007073E+01  1.0956624007075E+01  1.0956624007077E+01  1.0956624007077E+01 
 2.7391560026029E+00  2.7391560025942E+00  2.7391560025867E+00  2.7391560025801E+00  2.7391560025746E+00  2.7391560025701E+00  2.7391560025666E+00  2.7391560025642E+00  2.7391560025627E+00  2.7391560025622E+00 
-6.5432080144410E-03 -6.4748405583322E-03 -6.4223419000146E-03 -6.3767869301948E-03 -6.3382102222392E-03 -6.3066399330325E-03 -6.2820982746410E-03 -6.2646021321364E-03 -6.2541632397156E-03 -6.2508091389229E-03 
-6.5432080144410E+05 -6.4748405583322E+05 -6.4223419000146E+05 -6.3767869301948E+05 -6.3382102222392E+05 -6.3066399330325E+05 -6.2820982746410E+05 -6.2646021321364E+05 -6.2541632397156E+05 -6.2508091389229E+05 
 6.3473529190566E-02  3.1251927020235E-01  1.0510181150811E+00  2.2633256733873E+00  3.9370070696857E+00  6.0627199711005E+00  8.6341227875122E+00  1.1647795445532E+01  1.5103200819105E+01  1.6941450391514E+01 
 6.8752382748965E+03  6.0918424685563E+03  4.6334026653389E+03  3.3874217345935E+03  2.3460682394429E+03  1.5028033074347E+03  8.5233773437210E+02  3.9059736060115E+02  1.1469641019249E+02  2.2918631217969E+01 
-6.6119610319252E+05 -6.5357621082105E+05 -6.4686864368492E+05 -6.4106837807975E+05 -6.3617102747043E+05 -6.3217285933065E+05 -6.2907079932126E+05 -6.2686245836968E+05 -6.2554612358257E+05 -6.2512077397390E+05 
 6.6934700997489E+04  6.5244906798965E+04  6.3778780222474E+04  6.2526982975287E+04  6.1481549735414E+04  6.0635834068823E+04  5.9984462036838E+04  5.9523298145238E+04  5.9249414940814E+04  5.9161074670313E+04 
-7.2813080419001E+05 -7.1882111762002E+05 -7.1064742390739E+05 -7.0359536105503E+05 -6.9765257720585E+05 -6.9280869339948E+05 -6.8905526135810E+05 -6.8638575651492E+05 -6.8479553852339E+05 -6.8428184864421E+05 
ZONE T = "ANOD, 2.0000E-08", I = 10, SOLUTIONTIME = 2.000000E-08
ZONETYPE = ORDERED
DATAPACKING = BLOCK
STRANDID = 1
 0.0000000000000E+00  1.0666666666667E-05  2.1333333333333E-05  3.2000000000000E-05  4.2666666666667E-05  5.3333333333333E-05  6.4000000000000E-05  7.4666666666667E-05  8.5333333333333E-05  9.6000000000000E-05 
 1.0618565177857E-08  3.1582986048111E-08  5.2309146472400E-08  7.2829616380139E-08  9.3176562650193E-08  1.1338232582999E-07  1.3347878915153E-07  1.5349699572201E-07  1.7348011175912E-07  1.8364666433925E-07 
 8.4394679977780E-01  8.4394679978064E-01  8.4394679978313E-01  8.4394679978528E-01  8.4394679978710E-01  8.4394679978858E-01  8.4394679978972E-01  8.4394679979054E-01  8.4394679979107E-01  8.4394679985454E-01 
 7.8026600111100E-02  7.8026600109682E-02  7.8026600108435E-02  7.8026600107358E-02  7.8026600106452E-02  7.8026600105712E-02  7.8026600105140E-02  7.8026600104732E-02  7.8026600104463E-02  7.8026600072732E-02 
 7.8026600111100E-02  7.8026600109682E-02  7.8026600108435E-02  7.8026600107358E-02  7.8026600106452E-02  7.8026600105712E-02  7.8026600105140E-02  7.8026600104732E-02  7.8026600104463E-02  7.8026600072732E-02 
 1.3954913136269E-02  1.3954893640433E-02  1.3954835651536E-02  1.3954739607346E-02  1.3954605885559E-02  1.3954434804460E-02  1.3954226623478E-02  1.3953981543641E-02  1.3953699707921E-02  1.3953381201489E-02 
 0.0000000000000E+00 -1.2973555315371E-04 -2.4373391151333E-04 -3.4217404887133E-04 -4.2521037936250E-04 -4.9297302795519E-04 -5.4556805774015E-04 -5.8307765493265E-04 -6.0556027175869E-04 -6.1305072807112E-04 
 2.9814999996580E+02  2.9814999996614E+02  2.9814999996640E+02  2.9814999996664E+02  2.9814999996684E+02  2.9815000000018E+02  2.9814999996712E+02  2.9814999996720E+02  2.9814999996726E+02  2.9815000000048E+02 
-1.3954913136269E-02 -1.4084629193587E-02 -1.4198569563049E-02 -1.4296913656217E-02 -1.4379816264922E-02 -1.4447407832415E-02 -1.4499794681219E-02 -1.4537059198574E-02 -1.4559259979680E-02 -1.4566431929560E-02 
-2.4231113184868E-02 -2.4231113194998E-02 -2.4231113203879E-02 -2.4231113211547E-02 -2.4231113218013E-02 -2.4231113235726E-02 -2.4231113227361E-02 -2.4231113230261E-02 -2.4231113231999E-02 -2.4231113255435E-02 
 1.0276200048599E-02  1.0146484001411E-02  1.0032543640830E-02  9.9341995553301E-03  9.8512969530916E-03  9.7837054033106E-03  9.7313185461427E-03  9.6940540316878E-03  9.6718532523186E-03  9.6646813258750E-03 
 3.4728408627786E+01  6.8568630022693E+01  6.7788822190350E+01  6.7116023396402E+01  6.6549055081561E+01  6.6086926924453E+01  6.5728832851037E+01  6.5474150291000E+01  6.5322436491934E+01  3.2636714122743E+01 
 1.7997159828612E-07  5.3530294878173E-07  8.8659322927845E-07  1.2343969814279E-06  1.5792626323359E-06  1.9217334768670E-06  2.2623486327859E-06  2.6016440712947E-06  2.9402493611714E-06  2.9402493611714E-06 
 0.0000000000000E+00  6.9012723640275E+01  1.3719144974530E+02  2.0464387253875E+02  2.7147641177788E+02  3.3779440278114E+02  4.0370228266926E+02  4.6930377423970E+02  5.3470206763209E+02  6.0000000000083E+02 
 6.0000000000001E+02  5.3098727636087E+02  4.6280855025434E+02  3.9535612746097E+02  3.2852358822199E+02  2.6220559721897E+02  1.9629771733122E+02  1.3069622576019E+02  6.5297932368708E+01  0.0000000000000E+00 
 6.9462155246376E-07  1.3714793038943E-06  1.3558830935649E-06  1.3424270682204E-06  1.3310876579489E-06  1.3218450573920E-06  1.3146831459282E-06  1.3095894728573E-06  1.3065551835943E-06  6.5278750700095E-07 
 1.4095380724880E+03  2.8190761449582E+03  2.8190761449426E+03  2.8190761449292E+03  2.8190761449179E+03  2.8190761449086E+03  2.8190761449015E+03  2.8190761448964E+03  2.8190761448933E+03  1.4095380724462E+03 
 5.6381522864789E+03  1.1276304572976E+04  1.1276304572991E+04  1.1276304573005E+04  1.1276304573016E+04  1.1276304573025E+04  1.1276304573032E+04  1.1276304573037E+04  1.1276304573041E+04  5.6381522865207E+03 
 7.0476903589669E+03  1.4095380717934E+04  1.4095380717934E+04  1.4095380717934E+04  1.4095380717934E+04  1.4095380717934E+04  1.4095380717934E+04  1.4095380717934E+04  1.4095380717934E+04  7.0476903589669E+03 
 4.0000000000000E-01  4.0000000000000E-01  4.0000000000000E-01  4.0000000000000E-01  4.0000000000000E-01  4.0000000000000E-01  4.0000000000000E-01  4.0000000000000E-01  4.0000000000000E-01  4.0000000000000E-01 
 9.4000000000000E-01  1.8800000000000E+00  1.8800000000000E+00  1.8800000000000E+00  1.8800000000000E+00  1.8800000000000E+00  1.8800000000000E+00  1.8800000000000E+00  1.8800000000000E+00  9.4000000000000E-01 
 3.6945115561475E+01  3.6472675543986E+01  3.6057884143803E+01  3.5700012444895E+01  3.5398433554022E+01  3.5152620704496E+01  3.4962145133530E+01  3.4826675686703E+01  3.4745976857412E+01  3.4719908641216E+01 
 5.3333333333333E-06  1.0666666666667E-05  1.0666666666667E-05  1.0666666666667E-05  1.0666666666667E-05  1.0666666666667E-05  1.0666666666667E-05  1.0666666666667E-05  1.0666666666667E-05  5.3333333333333E-06 
 3.0000000000000E-02  3.0000000000000E-02  3.0000000000000E-02  3.0000000000000E-02  3.0000000000000E-02  3.0000000000000E-02  3.0000000000000E-02  3.0000000000000E-02  3.0000000000000E-02  3.0000000000000E-02 
 1.0000000000000E-01  1.0000000000000E-01  1.0000000000000E-01  1.0000000000000E-01  1.0000000000000E-01  1.0000000000000E-01  1.0000000000000E-01  1.0000000000000E-01  1.0000000000000E-01  1.0000000000000E-01 
 1.0956624006362E+01  1.0956624006379E+01  1.0956624006394E+01  1.0956624006407E+01  1.0956624006418E+01  1.0956624006427E+01  1.0956624006434E+01  1.0956624006439E+01  1.0956624006442E+01  1.0956624006443E+01 
 2.7391560032777E+00  2.7391560032605E+00  2.7391560032453E+00  2.7391560032323E+00  2.7391560032212E+00  2.7391560032123E+00  2.7391560032053E+00  2.7391560032004E+00  2.7391560031974E+00  2.7391560031965E+00 
-1.3085501429547E-02 -1.2948764481597E-02 -1.2843765424940E-02 -1.2752653985467E-02 -1.2675499307307E-02 -1.2612357701519E-02 -1.2563273589796E-02 -1.2528280739983E-02 -1.2507402619275E-02 -1.2500694312312E-02 
-6.5422934151062E+05 -6.4739239232647E+05 -6.4214235249252E+05 -6.3758670552723E+05 -6.3372890850675E+05 -6.3057177684868E+05 -6.2811753151551E+05 -6.2636786078469E+05 -6.2532393795590E+05 -6.2498851733891E+05 
 1.2694784391854E-01  6.2504149121898E-01  2.1020439403739E+00  4.5266655720501E+00  7.8740339707876E+00  1.2125462940753E+01  1.7268267477637E+01  2.3295611369786E+01  3.0206414893446E+01  3.3882905660793E+01 
 1.3750471642592E+04  1.2183677379882E+04  9.2667943353307E+03  6.7748321104612E+03  4.6921266577782E+03  3.0055992885339E+03  1.7046708532160E+03  7.8119245432088E+02  2.2939212562332E+02  4.5837120091501E+01 
-6.6110463835263E+05 -6.5348453976002E+05 -6.4677679518834E+05 -6.4097637924300E+05 -6.3607890395199E+05 -6.3208063557275E+05 -6.2897849877904E+05 -6.2677010369433E+05 -6.2545373688540E+05 -6.2502837728305E+05 
 6.6914264074475E+04  6.5224735196449E+04  6.3758842330815E+04  6.2507247278097E+04  6.1461984817735E+04  6.0616408611485E+04  5.9965144807251E+04  5.9504057974573E+04  5.9230220714742E+04  5.9141895358067E+04 
-7.2801890242710E+05 -7.1870927495646E+05 -7.1053563751916E+05 -7.0348362652109E+05 -6.9754088876973E+05 -6.9269704418423E+05 -6.8894364358630E+05 -6.8627416166890E+05 -6.8468395760015E+05 -6.8417027264112E+05 
ZONE T = "ANOD, 3.0000E-08", I = 10, SOLUTIONTIME = 3.000000E-08
ZONETYPE = ORDERED
DATAPACKING = BLOCK
STRANDID = 1
 0.0000000000000E+00  1.0666666666667E-05  2.1333333333333E-05  3.2000000000000E-05  4.2666666666667E-05  5.3333333333333E-05  6.4000000000000E-05  7.4666666666667E-05  8.5333333333333E-05  9.6000000000000E-05 
 1.0618781901308E-08  3.1583222830476E-08  5.2309393666404E-08  7.2829711472774E-08  9.3176883718601E-08  1.1338254863008E-07  1.3347893333885E-07  1.5349725505001E-07  1.7348599884672E-07  1.8374422713090E-07 
 8.4394679966670E-01  8.4394679967095E-01  8.4394679967470E-01  8.4394679967792E-01  8.4394679968065E-01  8.4394679968286E-01  8.4394679968458E-01  8.4394679968580E-01  8.4394679968664E-01  8.4394679978242E-01 
 7.8026600166649E-02  7.8026600164523E-02  7.8026600162652E-02  7.8026600161038E-02  7.8026600159677E-02  7.8026600158569E-02  7.8026600157710E-02  7.8026600157098E-02  7.8026600156682E-02  7.8026600108790E-02 
 7.8026600166649E-02  7.8026600164523E-02  7.8026600162652E-02  7.8026600161038E-02  7.8026600159677E-02  7.8026600158569E-02  7.8026600157710E-02  7.8026600157098E-02  7.8026600156682E-02  7.8026600108790E-02 
 1.3954912754791E-02  1.3954893258955E-02  1.3954835270058E-02  1.3954739225868E-02  1.3954605504082E-02  1.3954434422983E-02  1.3954226242001E-02  1.3953981162164E-02  1.3953699326445E-02  1.3953380820012E-02 
 0.0000000000000E+00 -1.2973555316622E-04 -2.4373391155545E-04 -3.4217404895327E-04 -4.2521037948851E-04 -4.9297302812456E-04 -5.4556805794815E-04 -5.8307765517142E-04 -6.0556027201814E-04 -6.1305072833984E-04 
 2.9814999994933E+02  2.9814999994984E+02  2.9814999995024E+02  2.9814999995059E+02  2.9814999995089E+02  2.9814999998430E+02  2.9814999995131E+02  2.9814999995144E+02  2.9814999995153E+02  2.9814999998475E+02 
-1.3954912754791E-02 -1.4084628812121E-02 -1.4198569181613E-02 -1.4296913274821E-02 -1.4379815883570E-02 -1.4447407451107E-02 -1.4499794299949E-02 -1.4537058817335E-02 -1.4559259598463E-02 -1.4566431548352E-02 
-2.4231112787438E-02 -2.4231112802632E-02 -2.4231112815965E-02 -2.4231112827464E-02 -2.4231112837164E-02 -2.4231112857497E-02 -2.4231112851176E-02 -2.4231112855531E-02 -2.4231112858143E-02 -2.4231112887166E-02 
 1.0276200032647E-02  1.0146483990511E-02  1.0032543634352E-02  9.9341995526423E-03  9.8512969535937E-03  9.7837054063899E-03  9.7313185512269E-03  9.6940540381958E-03  9.6718532596805E-03  9.6646813388141E-03 
 3.4728408573247E+01  6.8568629948181E+01  6.7788822145941E+01  6.7116023377821E+01  6.6549055084677E+01  6.6086926945064E+01  6.5728832885342E+01  6.5474150334932E+01  6.5322436541687E+01  3.2636714163118E+01 
 1.7997374966412E-07  5.3530484380872E-07  8.8659486407846E-07  1.2343983587630E-06  1.5792637547663E-06  1.9217343465572E-06  2.2623492513335E-06  2.6016445201984E-06  2.9402984837703E-06  2.9402984837703E-06 
 0.0000000000000E+00  6.9012723548112E+01  1.3719144959472E+02  2.0464387235595E+02  2.7147641158634E+02  3.3779440260314E+02  4.0370228251812E+02  4.6930377412752E+02  5.3470206756640E+02  5.9999999999947E+02 
 5.9999999999998E+02  5.3098727645264E+02  4.6280855040558E+02  3.9535612764371E+02  3.2852358841246E+02  2.6220559739760E+02  1.9629771748241E+02  1.3069622587228E+02  6.5297932433962E+01  0.0000000000000E+00 
 1.0419056381962E-06  2.0571656033761E-06  2.0337713150243E-06  2.0135873019986E-06  1.9965782087956E-06  1.9827143268427E-06  1.9719714747816E-06  1.9643309762066E-06  1.9597795490111E-06  9.7915464863213E-07 
 1.4095380728353E+03  2.8190761456439E+03  2.8190761456205E+03  2.8190761456004E+03  2.8190761455833E+03  2.8190761455695E+03  2.8190761455587E+03  2.8190761455511E+03  2.8190761455465E+03  1.4095380727725E+03 
 5.6381522861316E+03  1.1276304572290E+04  1.1276304572313E+04  1.1276304572333E+04  1.1276304572350E+04  1.1276304572364E+04  1.1276304572375E+04  1.1276304572383E+04  1.1276304572387E+04  5.6381522861944E+03 
 7.0476903589669E+03  1.4095380717934E+04  1.4095380717934E+04  1.4095380717934E+04  1.4095380717934E+04  1.4095380717934E+04  1.4095380717934E+04  1.4095380717934E+04  1.4095380717934E+04  7.0476903589669E+03 
 4.0000000000000E-01  4.0000000000000E-01  4.0000000000000E-01  4.0000000000000E-01  4.0000000000000E-01  4.0000000000000E-01  4.0000000000000E-01  4.0000000000000E-01  4.0000000000000E-01  4.0000000000000E-01 
 9.4000000000000E-01  1.8800000000000E+00  1.8800000000000E+00  1.8800000000000E+00  1.8800000000000E+00  1.8800000000000E+00  1.8800000000000E+00  1.8800000000000E+00  1.8800000000000E+00  9.4000000000000E-01 
 3.6945115503454E+01  3.6472675504352E+01  3.6057884120182E+01  3.5700012435011E+01  3.5398433555679E+01  3.5152620715460E+01  3.4962145151778E+01  3.4826675710070E+01  3.4745976883876E+01  3.4719908684168E+01 
 5.3333333333333E-06  1.0666666666667E-05  1.0666666666667E-05  1.0666666666667E-05  1.0666666666667E-05  1.0666666666667E-05  1.0666666666667E-05  1.0666666666667E-05  1.0666666666667E-05  5.3333333333333E-06 
 3.0000000000000E-02  3.0000000000000E-02  3.0000000000000E-02  3.0000000000000E-02  3.0000000000000E-02  3.0000000000000E-02  3.0000000000000E-02  3.0000000000000E-02  3.0000000000000E-02  3.0000000000000E-02 
 1.0000000000000E-01  1.0000000000000E-01  1.0000000000000E-01  1.0000000000000E-01  1.0000000000000E-01  1.0000000000000E-01  1.0000000000000E-01  1.0000000000000E-01  1.0000000000000E-01  1.0000000000000E-01 
 1.0956624005687E+01  1.0956624005713E+01  1.0956624005735E+01  1.0956624005755E+01  1.0956624005772E+01  1.0956624005785E+01  1.0956624005795E+01  1.0956624005803E+01  1.0956624005807E+01  1.0956624005809E+01 
 2.7391560039526E+00  2.7391560039267E+00  2.7391560039040E+00  2.7391560038844E+00  2.7391560038679E+00  2.7391560038544E+00  2.7391560038440E+00  2.7391560038365E+00  2.7391560038321E+00  2.7391560038307E+00 
-1.9627794831858E-02 -1.9422688395088E-02 -1.9265188942733E-02 -1.9128521035889E-02 -1.9012788389454E-02 -1.8918075468649E-02 -1.8844448904823E-02 -1.8791959348569E-02 -1.8760642000098E-02 -1.8750579489924E-02 
-6.5422934023110E+05 -6.4739239134912E+05 -6.4214235177930E+05 -6.3758670504222E+05 -6.3372890821469E+05 -6.3057177671296E+05 -6.2811753150272E+05 -6.2636786085860E+05 -6.2532393808235E+05 -6.2498851776120E+05 
 1.9042215839508E-01  9.3756371116803E-01  3.1530697625500E+00  6.7900054648777E+00  1.1811060863224E+01  1.8188205899211E+01  2.5902412154453E+01  3.4943427279243E+01  4.5309628953076E+01  5.0824360916001E+01 
 2.0625705011613E+04  1.8275512293251E+04  1.3900186008302E+04  1.0162242489425E+04  7.0381850788087E+03  4.5083952716633E+03  2.5570039733612E+03  1.1717875487019E+03  3.4408784127248E+02  6.8755609021740E+01 
-6.6110463707443E+05 -6.5348453878471E+05 -6.4677679447809E+05 -6.4097637876107E+05 -6.3607890366261E+05 -6.3208063543905E+05 -6.2897849876754E+05 -6.2677010376889E+05 -6.2545373701206E+05 -6.2502837770539E+05 
 6.6914263865515E+04  6.5224735055546E+04  6.3758842247872E+04  6.2507247243903E+04  6.1461984823740E+04  6.0616408649451E+04  5.9965144869893E+04  5.9504058054410E+04  5.9230220804923E+04  5.9141895509998E+04 