TITLE = "Solution on Domain BulkDomain1D_1"
VARIABLES = "x [m]"  
"Vel_axial" 	"MF_sp(ECDMC)" 	"MF_sp(Li+)" 	"MF_sp(PF6-)" 	"Volt(Electroly)" 	"Temperature" 	"Porosity []" 	"Control volume thickness [m]" 	"volFrac MgO(S) []" 	"volFrac ExtraStuff []" 	"qHeat_accum [J/m3]" 	"qHeat_step [W/m3]" 	"Joule_Lyte [W/m3]" 	"Joule_Solid [W/m3]" 	
ZONE T = "SEP , 0.0000E+00", I = 10, SOLUTIONTIME = 0.000000E+00
ZONETYPE = ORDERED
DATAPACKING = BLOCK
STRANDID = 2
 9.6000000000000E-05  9.8777777777778E-05  1.0155555555556E-04  1.0433333333333E-04  1.0711111111111E-04  1.0988888888889E-04  1.1266666666667E-04  1.1544444444444E-04  1.1822222222222E-04  1.2100000000000E-04 
 0.0000000000000E+00  0.0000000000000E+00  0.0000000000000E+00  0.0000000000000E+00  0.0000000000000E+00  0.0000000000000E+00  0.0000000000000E+00  0.0000000000000E+00  0.0000000000000E+00  0.0000000000000E+00 
 8.4394680000000E-01  8.4394680000000E-01  8.4394680000000E-01  8.4394680000000E-01  8.4394680000000E-01  8.4394680000000E-01  8.4394680000000E-01  8.4394680000000E-01  8.4394680000000E-01  8.4394680000000E-01 
 7.8026600000000E-02  7.8026600000000E-02  7.8026600000000E-02  7.8026600000000E-02  7.8026600000000E-02  7.8026600000000E-02  7.8026600000000E-02  7.8026600000000E-02  7.8026600000000E-02  7.8026600000000E-02 
 7.8026600000000E-02  7.8026600000000E-02  7.8026600000000E-02  7.8026600000000E-02  7.8026600000000E-02  7.8026600000000E-02  7.8026600000000E-02  7.8026600000000E-02  7.8026600000000E-02  7.8026600000000E-02 
-7.0000000000000E-02 -7.0000000000000E-02 -7.0000000000000E-02 -7.0000000000000E-02 -7.0000000000000E-02 -7.0000000000000E-02 -7.0000000000000E-02 -7.0000000000000E-02 -7.0000000000000E-02 -7.0000000000000E-02 
 2.9815000000000E+02  2.9815000000000E+02  2.9815000000000E+02  2.9815000000000E+02  2.9815000000000E+02  2.9815000000000E+02  2.9815000000000E+02  2.9815000000000E+02  2.9815000000000E+02  2.9815000000000E+02 
 6.5000471412550E-01  6.5000471412551E-01  6.5000471412550E-01  6.5000471412550E-01  6.5000471412551E-01  6.5000471412550E-01  6.5000471412551E-01  6.5000471412550E-01  6.5000471412550E-01  6.5000471412551E-01 
 1.3888888888889E-06  2.7777777777778E-06  2.7777777777778E-06  2.7777777777778E-06  2.7777777777778E-06  2.7777777777778E-06  2.7777777777778E-06  2.7777777777778E-06  2.7777777777778E-06  1.3888888888889E-06 
 2.4999528587450E-01  2.4999528587449E-01  2.4999528587450E-01  2.4999528587450E-01  2.4999528587449E-01  2.4999528587450E-01  2.4999528587449E-01  2.4999528587450E-01  2.4999528587450E-01  2.4999528587449E-01 
 1.0000000000000E-01  1.0000000000000E-01  1.0000000000000E-01  1.0000000000000E-01  1.0000000000000E-01  1.0000000000000E-01  1.0000000000000E-01  1.0000000000000E-01  1.0000000000000E-01  1.0000000000000E-01 
 0.0000000000000E+00  0.0000000000000E+00  0.0000000000000E+00  0.0000000000000E+00  0.0000000000000E+00  0.0000000000000E+00  0.0000000000000E+00  0.0000000000000E+00  0.0000000000000E+00  0.0000000000000E+00 
 0.0000000000000E+00  0.0000000000000E+00  0.0000000000000E+00  0.0000000000000E+00  0.0000000000000E+00  0.0000000000000E+00  0.0000000000000E+00  0.0000000000000E+00  0.0000000000000E+00  0.0000000000000E+00 
 0.0000000000000E+00  0.0000000000000E+00  0.0000000000000E+00  0.0000000000000E+00  0.0000000000000E+00  0.0000000000000E+00  0.0000000000000E+00  0.0000000000000E+00  0.0000000000000E+00  0.0000000000000E+00 
 0.0000000000000E+00  0.0000000000000E+00  0.0000000000000E+00  0.0000000000000E+00  0.0000000000000E+00  0.0000000000000E+00  0.0000000000000E+00  0.0000000000000E+00  0.0000000000000E+00  0.0000000000000E+00 
ZONE T = "SEP , 1.0000E-08", I = 10, SOLUTIONTIME = 1.000000E-08
ZONETYPE = ORDERED
DATAPACKING = BLOCK
STRANDID = 2
 9.6000000000000E-05  9.8777777777778E-05  1.0155555555556E-04  1.0433333333333E-04  1.0711111111111E-04  1.0988888888889E-04  1.1266666666667E-04  1.1544444444444E-04  1.1822222222222E-04  1.2100000000000E-04 
 1.8354902849696E-07  1.8344977729725E-07  1.8344877328163E-07  1.8344877561714E-07  1.8344877552423E-07  1.8344877553734E-07  1.8344877654973E-07  1.8344891227841E-07  1.8345839329850E-07  1.8279177980378E-07 
 8.4394679992706E-01  8.4394679999925E-01  8.4394679999999E-01  8.4394680000000E-01  8.4394680000000E-01  8.4394680000000E-01  8.4394680000000E-01  8.4394680000000E-01  8.4394680000007E-01  8.4394680000694E-01 
 7.8026600036470E-02  7.8026600000373E-02  7.8026600000004E-02  7.8026600000000E-02  7.8026600000000E-02  7.8026600000000E-02  7.8026600000000E-02  7.8026600000000E-02  7.8026599999964E-02  7.8026599996528E-02 
 7.8026600036470E-02  7.8026600000373E-02  7.8026600000004E-02  7.8026600000000E-02  7.8026600000000E-02  7.8026600000000E-02  7.8026600000000E-02  7.8026600000000E-02  7.8026599999964E-02  7.8026599996528E-02 
 1.3951960164265E-02  1.3951917820249E-02  1.3951875476176E-02  1.3951833132159E-02  1.3951790788083E-02  1.3951748444067E-02  1.3951706100061E-02  1.3951663756041E-02  1.3951621411965E-02  1.3951579067949E-02 
 2.9815000001619E+02  2.9815000000920E+02  2.9815000000452E+02  2.9815000000263E+02  2.9815000000118E+02  2.9815000000063E+02  2.9815000000126E+02  2.9815000000246E+02  2.9815000000630E+02  2.9815000001515E+02 
 6.5000471412550E-01  6.5000471412551E-01  6.5000471412550E-01  6.5000471412550E-01  6.5000471412551E-01  6.5000471412550E-01  6.5000471412551E-01  6.5000471412550E-01  6.5000471412550E-01  6.5000471412551E-01 
 1.3888888888889E-06  2.7777777777778E-06  2.7777777777778E-06  2.7777777777778E-06  2.7777777777778E-06  2.7777777777778E-06  2.7777777777778E-06  2.7777777777778E-06  2.7777777777778E-06  1.3888888888889E-06 
 2.4999528587450E-01  2.4999528587449E-01  2.4999528587450E-01  2.4999528587450E-01  2.4999528587449E-01  2.4999528587450E-01  2.4999528587449E-01  2.4999528587450E-01  2.4999528587450E-01  2.4999528587449E-01 
 1.0000000000000E-01  1.0000000000000E-01  1.0000000000000E-01  1.0000000000000E-01  1.0000000000000E-01  1.0000000000000E-01  1.0000000000000E-01  1.0000000000000E-01  1.0000000000000E-01  1.0000000000000E-01 
 9.1463037718417E-08  9.1463159893437E-08  9.1463159894040E-08  9.1463165507693E-08  9.1463165504354E-08  9.1463014946162E-08  9.1463021072362E-08  9.1463171603934E-08  9.1463165445106E-08  9.1463037647688E-08 
 9.1463037718417E+00  9.1463159893437E+00  9.1463159894040E+00  9.1463165507693E+00  9.1463165504354E+00  9.1463014946162E+00  9.1463021072362E+00  9.1463171603934E+00  9.1463165445106E+00  9.1463037647688E+00 
 9.1463037718417E+00  9.1463159893437E+00  9.1463159894040E+00  9.1463165507693E+00  9.1463165504354E+00  9.1463014946162E+00  9.1463021072362E+00  9.1463171603934E+00  9.1463165445106E+00  9.1463037647688E+00 
 0.0000000000000E+00  0.0000000000000E+00  0.0000000000000E+00  0.0000000000000E+00  0.0000000000000E+00  0.0000000000000E+00  0.0000000000000E+00  0.0000000000000E+00  0.0000000000000E+00  0.0000000000000E+00 
ZONE T = "SEP , 2.0000E-08", I = 10, SOLUTIONTIME = 2.000000E-08
ZONETYPE = ORDERED
DATAPACKING = BLOCK
STRANDID = 2
 9.6000000000000E-05  9.8777777777778E-05  1.0155555555556E-04  1.0433333333333E-04  1.0711111111111E-04  1.0988888888889E-04  1.1266666666667E-04  1.1544444444444E-04  1.1822222222222E-04  1.2100000000000E-04 
 1.8364680734072E-07  1.8345072785653E-07  1.8344773940665E-07  1.8344774102790E-07  1.8344774050402E-07  1.8344774055163E-07  1.8344774261068E-07  1.8344808748114E-07  1.8346680242665E-07  1.8279383529170E-07 
 8.4394679985454E-01  8.4394679999778E-01  8.4394679999997E-01  8.4394680000000E-01  8.4394680000000E-01  8.4394680000000E-01  8.4394680000000E-01  8.4394680000000E-01  8.4394680000021E-01  8.4394680001382E-01 
 7.8026600072732E-02  7.8026600001110E-02  7.8026600000015E-02  7.8026600000000E-02  7.8026600000000E-02  7.8026600000000E-02  7.8026600000000E-02  7.8026599999999E-02  7.8026599999894E-02  7.8026599993088E-02 
 7.8026600072732E-02  7.8026600001110E-02  7.8026600000015E-02  7.8026600000000E-02  7.8026600000000E-02  7.8026600000000E-02  7.8026600000000E-02  7.8026599999999E-02  7.8026599999894E-02  7.8026599993088E-02 
 1.3953518520977E-02  1.3953476176943E-02  1.3953433832909E-02  1.3953391488875E-02  1.3953349144840E-02  1.3953306800806E-02  1.3953264456772E-02  1.3953222112737E-02  1.3953179768703E-02  1.3953137424669E-02 
 2.9815000000046E+02  2.9815000000320E+02  2.9815000000310E+02  2.9815000000300E+02  2.9815000000368E+02  2.9815000000442E+02  2.9815000000535E+02  2.9815000000741E+02  2.9815000001115E+02  2.9815000001555E+02 
 6.5000471412550E-01  6.5000471412551E-01  6.5000471412550E-01  6.5000471412550E-01  6.5000471412551E-01  6.5000471412550E-01  6.5000471412551E-01  6.5000471412550E-01  6.5000471412550E-01  6.5000471412551E-01 
 1.3888888888889E-06  2.7777777777778E-06  2.7777777777778E-06  2.7777777777778E-06  2.7777777777778E-06  2.7777777777778E-06  2.7777777777778E-06  2.7777777777778E-06  2.7777777777778E-06  1.3888888888889E-06 
 2.4999528587450E-01  2.4999528587449E-01  2.4999528587450E-01  2.4999528587450E-01  2.4999528587449E-01  2.4999528587450E-01  2.4999528587449E-01  2.4999528587450E-01  2.4999528587450E-01  2.4999528587449E-01 
 1.0000000000000E-01  1.0000000000000E-01  1.0000000000000E-01  1.0000000000000E-01  1.0000000000000E-01  1.0000000000000E-01  1.0000000000000E-01  1.0000000000000E-01  1.0000000000000E-01  1.0000000000000E-01 
 1.8292615176829E-07  1.8292627396431E-07  1.8292627398932E-07  1.8292627961007E-07  1.8292627960657E-07  1.8292612904440E-07  1.8292613517024E-07  1.8292628570485E-07  1.8292627955015E-07  1.8292615175360E-07 
 9.1463114049876E+00  9.1463114070877E+00  9.1463114095278E+00  9.1463114102375E+00  9.1463114102216E+00  9.1463114098234E+00  9.1463114097875E+00  9.1463114100912E+00  9.1463114105044E+00  9.1463114105908E+00 
 9.1463114049876E+00  9.1463114070877E+00  9.1463114095278E+00  9.1463114102375E+00  9.1463114102216E+00  9.1463114098234E+00  9.1463114097875E+00  9.1463114100912E+00  9.1463114105044E+00  9.1463114105908E+00 
 0.0000000000000E+00  0.0000000000000E+00  0.0000000000000E+00  0.0000000000000E+00  0.0000000000000E+00  0.0000000000000E+00  0.0000000000000E+00  0.0000000000000E+00  0.0000000000000E+00  0.0000000000000E+00 
ZONE T = "SEP , 3.0000E-08", I = 10, SOLUTIONTIME = 3.000000E-08
ZONETYPE = ORDERED
DATAPACKING = BLOCK
STRANDID = 2
 9.6000000000000E-05  9.8777777777778E-05  1.0155555555556E-04  1.0433333333333E-04  1.0711111111111E-04  1.0988888888889E-04  1.1266666666667E-04  1.1544444444444E-04  1.1822222222222E-04  1.2100000000000E-04 
 1.8374432147066E-07  1.8345391370923E-07  1.8344796294333E-07  1.8344785774519E-07  1.8344785617632E-07  1.8344785629753E-07  1.8344790780958E-07  1.8344848994886E-07  1.8347600746403E-07  1.8279536178623E-07 
 8.4394679978242E-01  8.4394679999560E-01  8.4394679999993E-01  8.4394680000000E-01  8.4394680000000E-01  8.4394680000000E-01  8.4394680000000E-01  8.4394680000001E-01  8.4394680000042E-01  8.4394680002066E-01 
 7.8026600108790E-02  7.8026600002201E-02  7.8026600000037E-02  7.8026600000001E-02  7.8026600000000E-02  7.8026600000000E-02  7.8026600000000E-02  7.8026599999996E-02  7.8026599999791E-02  7.8026599989671E-02 
 7.8026600108790E-02  7.8026600002201E-02  7.8026600000037E-02  7.8026600000001E-02  7.8026600000000E-02  7.8026600000000E-02  7.8026600000000E-02  7.8026599999996E-02  7.8026599999791E-02  7.8026599989671E-02 
 1.3953518139500E-02  1.3953475795466E-02  1.3953433451432E-02  1.3953391107398E-02  1.3953348763363E-02  1.3953306419329E-02  1.3953264075295E-02  1.3953221731260E-02  1.3953179387226E-02  1.3953137043192E-02 
 2.9814999998473E+02  2.9814999999183E+02  2.9814999999660E+02  2.9814999999989E+02  2.9815000000322E+02  2.9815000000555E+02  2.9815000000758E+02  2.9815000000880E+02  2.9815000001226E+02  2.9815000001596E+02 
 6.5000471412550E-01  6.5000471412551E-01  6.5000471412550E-01  6.5000471412550E-01  6.5000471412551E-01  6.5000471412550E-01  6.5000471412551E-01  6.5000471412550E-01  6.5000471412550E-01  6.5000471412551E-01 
 1.3888888888889E-06  2.7777777777778E-06  2.7777777777778E-06  2.7777777777778E-06  2.7777777777778E-06  2.7777777777778E-06  2.7777777777778E-06  2.7777777777778E-06  2.7777777777778E-06  1.3888888888889E-06 
 2.4999528587450E-01  2.4999528587449E-01  2.4999528587450E-01  2.4999528587450E-01  2.4999528587449E-01  2.4999528587450E-01  2.4999528587449E-01  2.4999528587450E-01  2.4999528587450E-01  2.4999528587449E-01 
 1.0000000000000E-01  1.0000000000000E-01  1.0000000000000E-01  1.0000000000000E-01  1.0000000000000E-01  1.0000000000000E-01  1.0000000000000E-01  1.0000000000000E-01  1.0000000000000E-01  1.0000000000000E-01 
 2.7438926579415E-07  2.7438938802491E-07  2.7438938808333E-07  2.7438939370597E-07  2.7438939370526E-07  2.7438924314607E-07  2.7438924927132E-07  2.7438939980525E-07  2.7438939365370E-07  2.7438926585697E-07 
 9.1463114025852E+00  9.1463114060599E+00  9.1463114094009E+00  9.1463114095899E+00  9.1463114098691E+00  9.1463114101671E+00  9.1463114101085E+00  9.1463114100407E+00  9.1463114103551E+00  9.1463114103375E+00 
 9.1463114025852E+00  9.1463114060599E+00  9.1463114094009E+00  9.1463114095899E+00  9.1463114098691E+00  9.1463114101671E+00  9.1463114101085E+00  9.1463114100407E+00  9.1463114103551E+00  9.1463114103375E+00 
 0.0000000000000E+00  0.0000000000000E+00  0.0000000000000E+00  0.0000000000000E+00  0.0000000000000E+00  0.0000000000000E+00  0.0000000000000E+00  0.0000000000000E+00  0.0000000000000E+00  0.0000000000000E+00 
ZONE T = "SEP , 4.0000E-08", I = 10, SOLUTIONTIME = 4.000000E-08
ZONETYPE = ORDERED
DATAPACKING = BLOCK
STRANDID = 2
 9.6000000000000E-05  9.8777777777778E-05  1.0155555555556E-04  1.0433333333333E-04  1.0711111111111E-04  1.0988888888889E-04  1.1266666666667E-04  1.1544444444444E-04  1.1822222222222E-04  1.2100000000000E-04 
 1.8383976454381E-07  1.8345762241952E-07  1.8344792038736E-07  1.8344768370871E-07  1.8344768436615E-07  1.8344768468058E-07  1.8344771163700E-07  1.8344861331349E-07  1.8348485927377E-07  1.8279703314346E-07 
 8.4394679971071E-01  8.4394679999273E-01  8.4394679999985E-01  8.4394680000000E-01  8.4394680000000E-01  8.4394680000000E-01  8.4394680000000E-01  8.4394680000001E-01  8.4394680000069E-01  8.4394680002744E-01 
 7.8026600144646E-02  7.8026600003637E-02  7.8026600000074E-02  7.8026600000001E-02  7.8026600000000E-02  7.8026600000000E-02  7.8026600000000E-02  7.8026599999993E-02  7.8026599999655E-02  7.8026599986278E-02 
 7.8026600144646E-02  7.8026600003637E-02  7.8026600000074E-02  7.8026600000001E-02  7.8026600000000E-02  7.8026600000000E-02  7.8026600000000E-02  7.8026599999993E-02  7.8026599999655E-02  7.8026599986278E-02 
 1.3953517758026E-02  1.3953475413992E-02  1.3953433069957E-02  1.3953390725923E-02  1.3953348381889E-02  1.3953306037854E-02  1.3953263693820E-02  1.3953221349786E-02  1.3953179005751E-02  1.3953136661717E-02 
 2.9814999996900E+02  2.9814999998138E+02  2.9814999998943E+02  2.9814999999504E+02  2.9815000000034E+02  2.9815000000536E+02  2.9815000000952E+02  2.9815000001173E+02  2.9815000001374E+02  2.9815000001637E+02 
 6.5000471412550E-01  6.5000471412551E-01  6.5000471412550E-01  6.5000471412550E-01  6.5000471412551E-01  6.5000471412550E-01  6.5000471412551E-01  6.5000471412550E-01  6.5000471412550E-01  6.5000471412551E-01 
 1.3888888888889E-06  2.7777777777778E-06  2.7777777777778E-06  2.7777777777778E-06  2.7777777777778E-06  2.7777777777778E-06  2.7777777777778E-06  2.7777777777778E-06  2.7777777777778E-06  1.3888888888889E-06 
 2.4999528587450E-01  2.4999528587449E-01  2.4999528587450E-01  2.4999528587450E-01  2.4999528587449E-01  2.4999528587450E-01  2.4999528587449E-01  2.4999528587450E-01  2.4999528587450E-01  2.4999528587449E-01 
 1.0000000000000E-01  1.0000000000000E-01  1.0000000000000E-01  1.0000000000000E-01  1.0000000000000E-01  1.0000000000000E-01  1.0000000000000E-01  1.0000000000000E-01  1.0000000000000E-01  1.0000000000000E-01 
 3.6585237978843E-07  3.6585250206781E-07  3.6585250217636E-07  3.6585250780339E-07  3.6585250780478E-07  3.6585235724409E-07  3.6585236337190E-07  3.6585251390865E-07  3.6585250775932E-07  3.6585237996524E-07 
 9.1463113994285E+00  9.1463114042901E+00  9.1463114093028E+00  9.1463114097426E+00  9.1463114099521E+00  9.1463114098025E+00  9.1463114100576E+00  9.1463114103396E+00  9.1463114105617E+00  9.1463114108273E+00 
 9.1463113994285E+00  9.1463114042901E+00  9.1463114093028E+00  9.1463114097426E+00  9.1463114099521E+00  9.1463114098025E+00  9.1463114100576E+00  9.1463114103396E+00  9.1463114105617E+00  9.1463114108273E+00 
 0.0000000000000E+00  0.0000000000000E+00  0.0000000000000E+00  0.0000000000000E+00  0.0000000000000E+00  0.0000000000000E+00  0.0000000000000E+00  0.0000000000000E+00  0.0000000000000E+00  0.0000000000000E+00 
ZONE T = "SEP , 5.5000E-08", I = 10, SOLUTIONTIME = 5.500000E-08
ZONETYPE = ORDERED
DATAPACKING = BLOCK
STRANDID = 2
 9.6000000000000E-05  9.8777777777778E-05  1.0155555555556E-04  1.0433333333333E-04  1.0711111111111E-04  1.0988888888889E-04  1.1266666666667E-04  1.1544444444444E-04  1.1822222222222E-04  1.2100000000000E-04 
 1.8397989193529E-07  1.8346524367048E-07  1.8344800524811E-07  1.8344756326606E-07  1.8344756221576E-07  1.8344756300571E-07  1.8344759635330E-07  1.8344923681763E-07  1.8349800353202E-07  1.8279963115557E-07 
 8.4394679960402E-01  8.4394679998692E-01  8.4394679999966E-01  8.4394679999999E-01  8.4394680000000E-01  8.4394680000000E-01  8.4394680000000E-01  8.4394680000003E-01  8.4394680000124E-01  8.4394680003752E-01 
 7.8026600197989E-02  7.8026600006538E-02  7.8026600000171E-02  7.8026600000004E-02  7.8026600000000E-02  7.8026600000000E-02  7.8026600000000E-02  7.8026599999984E-02  7.8026599999380E-02  7.8026599981240E-02 
 7.8026600197989E-02  7.8026600006538E-02  7.8026600000171E-02  7.8026600000004E-02  7.8026600000000E-02  7.8026600000000E-02  7.8026600000000E-02  7.8026599999984E-02  7.8026599999380E-02  7.8026599981240E-02 
 1.3953517311154E-02  1.3953474967120E-02  1.3953432623085E-02  1.3953390279051E-02  1.3953347935017E-02  1.3953305590982E-02  1.3953263246948E-02  1.3953220902914E-02  1.3953178558880E-02  1.3953136214845E-02 
 2.9814999994542E+02  2.9814999996404E+02  2.9814999997790E+02  2.9814999998694E+02  2.9814999999489E+02  2.9815000000129E+02  2.9815000000631E+02  2.9815000000995E+02  2.9815000001361E+02  2.9815000001698E+02 
 6.5000471412550E-01  6.5000471412551E-01  6.5000471412550E-01  6.5000471412550E-01  6.5000471412551E-01  6.5000471412550E-01  6.5000471412551E-01  6.5000471412550E-01  6.5000471412550E-01  6.5000471412551E-01 
 1.3888888888889E-06  2.7777777777778E-06  2.7777777777778E-06  2.7777777777778E-06  2.7777777777778E-06  2.7777777777778E-06  2.7777777777778E-06  2.7777777777778E-06  2.7777777777778E-06  1.3888888888889E-06 
 2.4999528587450E-01  2.4999528587449E-01  2.4999528587450E-01  2.4999528587450E-01  2.4999528587449E-01  2.4999528587450E-01  2.4999528587449E-01  2.4999528587450E-01  2.4999528587450E-01  2.4999528587449E-01 
 1.0000000000000E-01  1.0000000000000E-01  1.0000000000000E-01  1.0000000000000E-01  1.0000000000000E-01  1.0000000000000E-01  1.0000000000000E-01  1.0000000000000E-01  1.0000000000000E-01  1.0000000000000E-01 
 5.0304705072076E-07  5.0304717309616E-07  5.0304717330614E-07  5.0304717894216E-07  5.0304717895110E-07  5.0304702839306E-07  5.0304703451855E-07  5.0304718505877E-07  5.0304717892640E-07  5.0304705114482E-07 
 9.1463113954885E+00  9.1463114018901E+00  9.1463114086520E+00  9.1463114092510E+00  9.1463114097543E+00  9.1463114099313E+00  9.1463114097768E+00  9.1463114100083E+00  9.1463114111391E+00  9.1463114119715E+00 
 9.1463113954885E+00  9.1463114018901E+00  9.1463114086520E+00  9.1463114092510E+00  9.1463114097543E+00  9.1463114099313E+00  9.1463114097768E+00  9.1463114100083E+00  9.1463114111391E+00  9.1463114119715E+00 
 0.0000000000000E+00  0.0000000000000E+00  0.0000000000000E+00  0.0000000000000E+00  0.0000000000000E+00  0.0000000000000E+00  0.0000000000000E+00  0.0000000000000E+00  0.0000000000000E+00  0.0000000000000E+00 
ZONE T = "SEP , 7.7500E-08", I = 10, SOLUTIONTIME = 7.750000E-08
ZONETYPE = ORDERED
DATAPACKING = BLOCK
STRANDID = 2
 9.6000000000000E-05  9.8777777777778E-05  1.0155555555556E-04  1.0433333333333E-04  1.0711111111111E-04  1.0988888888889E-04  1.1266666666667E-04  1.1544444444444E-04  1.1822222222222E-04  1.2100000000000E-04 
 1.8418314725855E-07  1.8348092101412E-07  1.8344868033714E-07  1.8344754121042E-07  1.8344750625853E-07  1.8344750679539E-07  1.8344760053668E-07  1.8345067928681E-07  1.8351710026052E-07  1.8280353286378E-07 
 8.4394679944590E-01  8.4394679997505E-01  8.4394679999911E-01  8.4394679999997E-01  8.4394680000000E-01  8.4394680000000E-01  8.4394680000000E-01  8.4394680000008E-01  8.4394680000236E-01  8.4394680005242E-01 
 7.8026600277050E-02  7.8026600012475E-02  7.8026600000444E-02  7.8026600000014E-02  7.8026600000000E-02  7.8026600000000E-02  7.8026599999999E-02  7.8026599999958E-02  7.8026599998818E-02  7.8026599973792E-02 
 7.8026600277050E-02  7.8026600012475E-02  7.8026600000444E-02  7.8026600000014E-02  7.8026600000000E-02  7.8026600000000E-02  7.8026599999999E-02  7.8026599999958E-02  7.8026599998818E-02  7.8026599973792E-02 
 1.3953516522513E-02  1.3953474178479E-02  1.3953431834445E-02  1.3953389490411E-02  1.3953347146376E-02  1.3953304802342E-02  1.3953262458308E-02  1.3953220114273E-02  1.3953177770239E-02  1.3953135426205E-02 
 2.9814999991006E+02  2.9814999993325E+02  2.9814999995240E+02  2.9814999996788E+02  2.9814999997949E+02  2.9814999998931E+02  2.9814999999754E+02  2.9815000000500E+02  2.9815000001179E+02  2.9815000001790E+02 
 6.5000471412550E-01  6.5000471412551E-01  6.5000471412550E-01  6.5000471412550E-01  6.5000471412551E-01  6.5000471412550E-01  6.5000471412551E-01  6.5000471412550E-01  6.5000471412550E-01  6.5000471412551E-01 
 1.3888888888889E-06  2.7777777777778E-06  2.7777777777778E-06  2.7777777777778E-06  2.7777777777778E-06  2.7777777777778E-06  2.7777777777778E-06  2.7777777777778E-06  2.7777777777778E-06  1.3888888888889E-06 
 2.4999528587450E-01  2.4999528587449E-01  2.4999528587450E-01  2.4999528587450E-01  2.4999528587449E-01  2.4999528587450E-01  2.4999528587449E-01  2.4999528587450E-01  2.4999528587450E-01  2.4999528587449E-01 
 1.0000000000000E-01  1.0000000000000E-01  1.0000000000000E-01  1.0000000000000E-01  1.0000000000000E-01  1.0000000000000E-01  1.0000000000000E-01  1.0000000000000E-01  1.0000000000000E-01  1.0000000000000E-01 
 7.0883905696355E-07  7.0883917954983E-07  7.0883917998083E-07  7.0883918563887E-07  7.0883918565596E-07  7.0883903509953E-07  7.0883904123603E-07  7.0883919178705E-07  7.0883918568047E-07  7.0883905791957E-07 
 9.1463113885686E+00  9.1463113979406E+00  9.1463114077641E+00  9.1463114087425E+00  9.1463114091049E+00  9.1463114091764E+00  9.1463114096656E+00  9.1463114101455E+00  9.1463114112919E+00  9.1463114122114E+00 
 9.1463113885686E+00  9.1463113979406E+00  9.1463114077641E+00  9.1463114087425E+00  9.1463114091049E+00  9.1463114091764E+00  9.1463114096656E+00  9.1463114101455E+00  9.1463114112919E+00  9.1463114122114E+00 
 0.0000000000000E+00  0.0000000000000E+00  0.0000000000000E+00  0.0000000000000E+00  0.0000000000000E+00  0.0000000000000E+00  0.0000000000000E+00  0.0000000000000E+00  0.0000000000000E+00  0.0000000000000E+00 
ZONE T = "SEP , 1.1125E-07", I = 10, SOLUTIONTIME = 1.112500E-07
ZONETYPE = ORDERED
DATAPACKING = BLOCK
STRANDID = 2
 9.6000000000000E-05  9.8777777777778E-05  1.0155555555556E-04  1.0433333333333E-04  1.0711111111111E-04  1.0988888888889E-04  1.1266666666667E-04  1.1544444444444E-04  1.1822222222222E-04  1.2100000000000E-04 
 1.8447334833576E-07  1.8351263984001E-07  1.8345074291531E-07  1.8344760124574E-07  1.8344746744196E-07  1.8344748308052E-07  1.8344779664181E-07  1.8345364017609E-07  1.8354429989636E-07  1.8280972870484E-07 
 8.4394679921278E-01  8.4394679995068E-01  8.4394679999754E-01  8.4394679999989E-01  8.4394680000000E-01  8.4394680000000E-01  8.4394680000001E-01  8.4394680000023E-01  8.4394680000466E-01  8.4394680007430E-01 
 7.8026600393608E-02  7.8026600024660E-02  7.8026600001229E-02  7.8026600000053E-02  7.8026600000002E-02  7.8026600000000E-02  7.8026599999995E-02  7.8026599999884E-02  7.8026599997668E-02  7.8026599962849E-02 
 7.8026600393608E-02  7.8026600024660E-02  7.8026600001229E-02  7.8026600000053E-02  7.8026600000002E-02  7.8026600000000E-02  7.8026599999995E-02  7.8026599999884E-02  7.8026599997668E-02  7.8026599962849E-02 
 1.3953515339569E-02  1.3953472995535E-02  1.3953430651501E-02  1.3953388307466E-02  1.3953345963432E-02  1.3953303619398E-02  1.3953261275363E-02  1.3953218931329E-02  1.3953176587295E-02  1.3953134243260E-02 
 2.9814999985704E+02  2.9814999988863E+02  2.9814999991501E+02  2.9814999993709E+02  2.9814999995646E+02  2.9814999997264E+02  2.9814999998627E+02  2.9814999999840E+02  2.9815000000902E+02  2.9815000001927E+02 
 6.5000471412550E-01  6.5000471412551E-01  6.5000471412550E-01  6.5000471412550E-01  6.5000471412551E-01  6.5000471412550E-01  6.5000471412551E-01  6.5000471412550E-01  6.5000471412550E-01  6.5000471412551E-01 
 1.3888888888889E-06  2.7777777777778E-06  2.7777777777778E-06  2.7777777777778E-06  2.7777777777778E-06  2.7777777777778E-06  2.7777777777778E-06  2.7777777777778E-06  2.7777777777778E-06  1.3888888888889E-06 
 2.4999528587450E-01  2.4999528587449E-01  2.4999528587450E-01  2.4999528587450E-01  2.4999528587449E-01  2.4999528587450E-01  2.4999528587449E-01  2.4999528587450E-01  2.4999528587450E-01  2.4999528587449E-01 
 1.0000000000000E-01  1.0000000000000E-01  1.0000000000000E-01  1.0000000000000E-01  1.0000000000000E-01  1.0000000000000E-01  1.0000000000000E-01  1.0000000000000E-01  1.0000000000000E-01  1.0000000000000E-01 
 1.0175270659793E-06  1.0175271890158E-06  1.0175271899458E-06  1.0175271956532E-06  1.0175271956869E-06  1.0175270451514E-06  1.0175270512987E-06  1.0175272018724E-06  1.0175271958250E-06  1.0175270681063E-06 
 9.1463113782458E+00  9.1463113915838E+00  9.1463114063691E+00  9.1463114078330E+00  9.1463114083247E+00  9.1463114089457E+00  9.1463114092647E+00  9.1463114099370E+00  9.1463114116886E+00  9.1463114129413E+00 
 9.1463113782458E+00  9.1463113915838E+00  9.1463114063691E+00  9.1463114078330E+00  9.1463114083247E+00  9.1463114089457E+00  9.1463114092647E+00  9.1463114099370E+00  9.1463114116886E+00  9.1463114129413E+00 
 0.0000000000000E+00  0.0000000000000E+00  0.0000000000000E+00  0.0000000000000E+00  0.0000000000000E+00  0.0000000000000E+00  0.0000000000000E+00  0.0000000000000E+00  0.0000000000000E+00  0.0000000000000E+00 
ZONE T = "SEP , 1.6188E-07", I = 10, SOLUTIONTIME = 1.618750E-07
ZONETYPE = ORDERED
DATAPACKING = BLOCK
STRANDID = 2
 9.6000000000000E-05  9.8777777777778E-05  1.0155555555556E-04  1.0433333333333E-04  1.0711111111111E-04  1.0988888888889E-04  1.1266666666667E-04  1.1544444444444E-04  1.1822222222222E-04  1.2100000000000E-04 
 1.8487891883073E-07  1.8357540441443E-07  1.8345668112493E-07  1.8344814359274E-07  1.8344761108149E-07  1.8344764266946E-07  1.8344844664536E-07  1.8345964842906E-07  1.8358227208412E-07  1.8281929799581E-07 
 8.4394679887155E-01  8.4394679990108E-01  8.4394679999303E-01  8.4394679999957E-01  8.4394679999998E-01  8.4394680000000E-01  8.4394680000004E-01  8.4394680000066E-01  8.4394680000933E-01  8.4394680010620E-01 
 7.8026600564226E-02  7.8026600049458E-02  7.8026600003487E-02  7.8026600000216E-02  7.8026600000012E-02  7.8026600000000E-02  7.8026599999980E-02  7.8026599999671E-02  7.8026599995336E-02  7.8026599946899E-02 
 7.8026600564226E-02  7.8026600049458E-02  7.8026600003487E-02  7.8026600000216E-02  7.8026600000012E-02  7.8026600000000E-02  7.8026599999980E-02  7.8026599999671E-02  7.8026599995336E-02  7.8026599946899E-02 
 1.3953513565189E-02  1.3953471221155E-02  1.3953428877120E-02  1.3953386533086E-02  1.3953344189052E-02  1.3953301845017E-02  1.3953259500983E-02  1.3953217156949E-02  1.3953174812915E-02  1.3953132468880E-02 
 2.9814999977754E+02  2.9814999981846E+02  2.9814999985454E+02  2.9814999988626E+02  2.9814999991411E+02  2.9814999993908E+02  2.9814999996192E+02  2.9814999998283E+02  2.9815000000238E+02  2.9815000002131E+02 
 6.5000471412550E-01  6.5000471412551E-01  6.5000471412550E-01  6.5000471412550E-01  6.5000471412551E-01  6.5000471412550E-01  6.5000471412551E-01  6.5000471412550E-01  6.5000471412550E-01  6.5000471412551E-01 
 1.3888888888889E-06  2.7777777777778E-06  2.7777777777778E-06  2.7777777777778E-06  2.7777777777778E-06  2.7777777777778E-06  2.7777777777778E-06  2.7777777777778E-06  2.7777777777778E-06  1.3888888888889E-06 
 2.4999528587450E-01  2.4999528587449E-01  2.4999528587450E-01  2.4999528587450E-01  2.4999528587449E-01  2.4999528587450E-01  2.4999528587449E-01  2.4999528587450E-01  2.4999528587450E-01  2.4999528587449E-01 
 1.0000000000000E-01  1.0000000000000E-01  1.0000000000000E-01  1.0000000000000E-01  1.0000000000000E-01  1.0000000000000E-01  1.0000000000000E-01  1.0000000000000E-01  1.0000000000000E-01  1.0000000000000E-01 
 1.4805590787482E-06  1.4805592027431E-06  1.4805592047324E-06  1.4805592105877E-06  1.4805592106855E-06  1.4805590601675E-06  1.4805590663544E-06  1.4805592169821E-06  1.4805592110556E-06  1.4805590834434E-06 
 9.1463113633358E+00  9.1463113822677E+00  9.1463114031925E+00  9.1463114061136E+00  9.1463114073792E+00  9.1463114077236E+00  9.1463114085082E+00  9.1463114095734E+00  9.1463114119631E+00  9.1463114140653E+00 
 9.1463113633358E+00  9.1463113822677E+00  9.1463114031925E+00  9.1463114061136E+00  9.1463114073792E+00  9.1463114077236E+00  9.1463114085082E+00  9.1463114095734E+00  9.1463114119631E+00  9.1463114140653E+00 
 0.0000000000000E+00  0.0000000000000E+00  0.0000000000000E+00  0.0000000000000E+00  0.0000000000000E+00  0.0000000000000E+00  0.0000000000000E+00  0.0000000000000E+00  0.0000000000000E+00  0.0000000000000E+00 
ZONE T = "SEP , 2.3781E-07", I = 10, SOLUTIONTIME = 2.378125E-07
ZONETYPE = ORDERED
DATAPACKING = BLOCK
STRANDID = 2