TITLE = "Solution on Domain BulkDomain1D_1"
VARIABLES = "x [m]"  
"Vel_axial" 	"MF_sp(ECDMC)" 	"MF_sp(Li+)" 	"MF_sp(PF6-)" 	"Volt(Electroly)" 	"Temperature" 	"Porosity []" 	"Control volume thickness [m]" 	"volFrac MgO(S) []" 	"volFrac ExtraStuff []" 	"qHeat_accum [J/m3]" 	"qHeat_step [W/m3]" 	"Joule_Lyte [W/m3]" 	"Joule_Solid [W/m3]" 	
ZONE T = "SEP , 0.0000E+00", I = 10, SOLUTIONTIME = 0.000000E+00
ZONETYPE = ORDERED
DATAPACKING = BLOCK
STRANDID = 2
 9.6000000000000E-05  9.8777777777778E-05  1.0155555555556E-04  1.0433333333333E-04  1.0711111111111E-04  1.0988888888889E-04  1.1266666666667E-04  1.1544444444444E-04  1.1822222222222E-04  1.2100000000000E-04 
 0.0000000000000E+00  0.0000000000000E+00  0.0000000000000E+00  0.0000000000000E+00  0.0000000000000E+00  0.0000000000000E+00  0.0000000000000E+00  0.0000000000000E+00  0.0000000000000E+00  0.0000000000000E+00 
 8.4394680000000E-01  8.4394680000000E-01  8.4394680000000E-01  8.4394680000000E-01  8.4394680000000E-01  8.4394680000000E-01  8.4394680000000E-01  8.4394680000000E-01  8.4394680000000E-01  8.4394680000000E-01 
 7.8026600000000E-02  7.8026600000000E-02  7.8026600000000E-02  7.8026600000000E-02  7.8026600000000E-02  7.8026600000000E-02  7.8026600000000E-02  7.8026600000000E-02  7.8026600000000E-02  7.8026600000000E-02 
 7.8026600000000E-02  7.8026600000000E-02  7.8026600000000E-02  7.8026600000000E-02  7.8026600000000E-02  7.8026600000000E-02  7.8026600000000E-02  7.8026600000000E-02  7.8026600000000E-02  7.8026600000000E-02 
-7.0000000000000E-02 -7.0000000000000E-02 -7.0000000000000E-02 -7.0000000000000E-02 -7.0000000000000E-02 -7.0000000000000E-02 -7.0000000000000E-02 -7.0000000000000E-02 -7.0000000000000E-02 -7.0000000000000E-02 
 2.9815000000000E+02  2.9815000000000E+02  2.9815000000000E+02  2.9815000000000E+02  2.9815000000000E+02  2.9815000000000E+02  2.9815000000000E+02  2.9815000000000E+02  2.9815000000000E+02  2.9815000000000E+02 
 6.5000471412550E-01  6.5000471412551E-01  6.5000471412550E-01  6.5000471412550E-01  6.5000471412551E-01  6.5000471412550E-01  6.5000471412551E-01  6.5000471412550E-01  6.5000471412550E-01  6.5000471412551E-01 
 1.3888888888889E-06  2.7777777777778E-06  2.7777777777778E-06  2.7777777777778E-06  2.7777777777778E-06  2.7777777777778E-06  2.7777777777778E-06  2.7777777777778E-06  2.7777777777778E-06  1.3888888888889E-06 
 2.4999528587450E-01  2.4999528587449E-01  2.4999528587450E-01  2.4999528587450E-01  2.4999528587449E-01  2.4999528587450E-01  2.4999528587449E-01  2.4999528587450E-01  2.4999528587450E-01  2.4999528587449E-01 
 1.0000000000000E-01  1.0000000000000E-01  1.0000000000000E-01  1.0000000000000E-01  1.0000000000000E-01  1.0000000000000E-01  1.0000000000000E-01  1.0000000000000E-01  1.0000000000000E-01  1.0000000000000E-01 
 0.0000000000000E+00  0.0000000000000E+00  0.0000000000000E+00  0.0000000000000E+00  0.0000000000000E+00  0.0000000000000E+00  0.0000000000000E+00  0.0000000000000E+00  0.0000000000000E+00  0.0000000000000E+00 
 0.0000000000000E+00  0.0000000000000E+00  0.0000000000000E+00  0.0000000000000E+00  0.0000000000000E+00  0.0000000000000E+00  0.0000000000000E+00  0.0000000000000E+00  0.0000000000000E+00  0.0000000000000E+00 
 0.0000000000000E+00  0.0000000000000E+00  0.0000000000000E+00  0.0000000000000E+00  0.0000000000000E+00  0.0000000000000E+00  0.0000000000000E+00  0.0000000000000E+00  0.0000000000000E+00  0.0000000000000E+00 
 0.0000000000000E+00  0.0000000000000E+00  0.0000000000000E+00  0.0000000000000E+00  0.0000000000000E+00  0.0000000000000E+00  0.0000000000000E+00  0.0000000000000E+00  0.0000000000000E+00  0.0000000000000E+00 
ZONE T = "SEP , 1.0000E-08", I = 10, SOLUTIONTIME = 1.000000E-08
ZONETYPE = ORDERED
DATAPACKING = BLOCK
STRANDID = 2
 9.6000000000000E-05  9.8777777777778E-05  1.0155555555556E-04  1.0433333333333E-04  1.0711111111111E-04  1.0988888888889E-04  1.1266666666667E-04  1.1544444444444E-04  1.1822222222222E-04  1.2100000000000E-04 
 1.8354896184814E-07  1.8344970832505E-07  1.8344870430149E-07  1.8344870236313E-07  1.8344870225665E-07  1.8344870225902E-07  1.8344870325773E-07  1.8344878261084E-07  1.8345826360526E-07  1.8279164338365E-07 
 8.4394679992706E-01  8.4394679999925E-01  8.4394679999999E-01  8.4394680000000E-01  8.4394680000000E-01  8.4394680000000E-01  8.4394680000000E-01  8.4394680000000E-01  8.4394680000007E-01  8.4394680000694E-01 
 7.8026600036470E-02  7.8026600000373E-02  7.8026600000004E-02  7.8026600000000E-02  7.8026600000000E-02  7.8026600000000E-02  7.8026600000000E-02  7.8026600000000E-02  7.8026599999964E-02  7.8026599996528E-02 
 7.8026600036470E-02  7.8026600000373E-02  7.8026600000004E-02  7.8026600000000E-02  7.8026600000000E-02  7.8026600000000E-02  7.8026600000000E-02  7.8026600000000E-02  7.8026599999964E-02  7.8026599996528E-02 
 1.3951822831681E-02  1.3951780487608E-02  1.3951738143589E-02  1.3951695799583E-02  1.3951653455564E-02  1.3951611111488E-02  1.3951568767471E-02  1.3951526423398E-02  1.3951484079381E-02  1.3951441735373E-02 
 2.9814999994982E+02  2.9814999997104E+02  2.9814999998191E+02  2.9814999998778E+02  2.9814999999046E+02  2.9814999999098E+02  2.9814999998762E+02  2.9814999998160E+02  2.9814999997122E+02  2.9814999995171E+02 
 6.5000471412550E-01  6.5000471412551E-01  6.5000471412550E-01  6.5000471412550E-01  6.5000471412551E-01  6.5000471412550E-01  6.5000471412551E-01  6.5000471412550E-01  6.5000471412550E-01  6.5000471412551E-01 
 1.3888888888889E-06  2.7777777777778E-06  2.7777777777778E-06  2.7777777777778E-06  2.7777777777778E-06  2.7777777777778E-06  2.7777777777778E-06  2.7777777777778E-06  2.7777777777778E-06  1.3888888888889E-06 
 2.4999528587450E-01  2.4999528587449E-01  2.4999528587450E-01  2.4999528587450E-01  2.4999528587449E-01  2.4999528587450E-01  2.4999528587449E-01  2.4999528587450E-01  2.4999528587450E-01  2.4999528587449E-01 
 1.0000000000000E-01  1.0000000000000E-01  1.0000000000000E-01  1.0000000000000E-01  1.0000000000000E-01  1.0000000000000E-01  1.0000000000000E-01  1.0000000000000E-01  1.0000000000000E-01  1.0000000000000E-01 
 9.1463281896703E-08  9.1463165358003E-08  9.1463020430619E-08  9.1463020945642E-08  9.1463171503079E-08  9.1463165376704E-08  9.1463159768372E-08  9.1463159766590E-08  9.1463020451666E-08  9.1463003310295E-08 
 9.1463281896703E+00  9.1463165358003E+00  9.1463020430619E+00  9.1463020945642E+00  9.1463171503079E+00  9.1463165376704E+00  9.1463159768372E+00  9.1463159766590E+00  9.1463020451665E+00  9.1463003310295E+00 
 9.1463281896703E+00  9.1463165358003E+00  9.1463020430619E+00  9.1463020945642E+00  9.1463171503079E+00  9.1463165376704E+00  9.1463159768372E+00  9.1463159766590E+00  9.1463020451665E+00  9.1463003310295E+00 
 0.0000000000000E+00  0.0000000000000E+00  0.0000000000000E+00  0.0000000000000E+00  0.0000000000000E+00  0.0000000000000E+00  0.0000000000000E+00  0.0000000000000E+00  0.0000000000000E+00  0.0000000000000E+00 
ZONE T = "SEP , 2.0000E-08", I = 10, SOLUTIONTIME = 2.000000E-08
ZONETYPE = ORDERED
DATAPACKING = BLOCK
STRANDID = 2
 9.6000000000000E-05  9.8777777777778E-05  1.0155555555556E-04  1.0433333333333E-04  1.0711111111111E-04  1.0988888888889E-04  1.1266666666667E-04  1.1544444444444E-04  1.1822222222222E-04  1.2100000000000E-04 
 1.8364680898104E-07  1.8345072946722E-07  1.8344774101703E-07  1.8344774263828E-07  1.8344774211439E-07  1.8344774216163E-07  1.8344774418364E-07  1.8344808855217E-07  1.8346680341576E-07  1.8279374490748E-07 
 8.4394679985454E-01  8.4394679999778E-01  8.4394679999997E-01  8.4394680000000E-01  8.4394680000000E-01  8.4394680000000E-01  8.4394680000000E-01  8.4394680000000E-01  8.4394680000021E-01  8.4394680001382E-01 
 7.8026600072732E-02  7.8026600001110E-02  7.8026600000015E-02  7.8026600000000E-02  7.8026600000000E-02  7.8026600000000E-02  7.8026600000000E-02  7.8026599999999E-02  7.8026599999894E-02  7.8026599993088E-02 
 7.8026600072732E-02  7.8026600001110E-02  7.8026600000015E-02  7.8026600000000E-02  7.8026600000000E-02  7.8026600000000E-02  7.8026600000000E-02  7.8026599999999E-02  7.8026599999894E-02  7.8026599993088E-02 
 1.3953381195644E-02  1.3953338851610E-02  1.3953296507575E-02  1.3953254163541E-02  1.3953211819507E-02  1.3953169475473E-02  1.3953127131438E-02  1.3953084787404E-02  1.3953042443370E-02  1.3953000099335E-02 
 2.9814999993412E+02  2.9814999995406E+02  2.9814999996714E+02  2.9814999997719E+02  2.9814999998039E+02  2.9814999998140E+02  2.9814999998027E+02  2.9814999997556E+02  2.9814999996623E+02  2.9814999995213E+02 
 6.5000471412550E-01  6.5000471412551E-01  6.5000471412550E-01  6.5000471412550E-01  6.5000471412551E-01  6.5000471412550E-01  6.5000471412551E-01  6.5000471412550E-01  6.5000471412550E-01  6.5000471412551E-01 
 1.3888888888889E-06  2.7777777777778E-06  2.7777777777778E-06  2.7777777777778E-06  2.7777777777778E-06  2.7777777777778E-06  2.7777777777778E-06  2.7777777777778E-06  2.7777777777778E-06  1.3888888888889E-06 
 2.4999528587450E-01  2.4999528587449E-01  2.4999528587450E-01  2.4999528587450E-01  2.4999528587449E-01  2.4999528587450E-01  2.4999528587449E-01  2.4999528587450E-01  2.4999528587450E-01  2.4999528587449E-01 
 1.0000000000000E-01  1.0000000000000E-01  1.0000000000000E-01  1.0000000000000E-01  1.0000000000000E-01  1.0000000000000E-01  1.0000000000000E-01  1.0000000000000E-01  1.0000000000000E-01  1.0000000000000E-01 
 1.8292639593432E-07  1.8292627941803E-07  1.8292613451468E-07  1.8292613503404E-07  1.8292628559762E-07  1.8292627947094E-07  1.8292627385931E-07  1.8292627385528E-07  1.8292613454093E-07  1.8292611740285E-07 
 9.1463114037613E+00  9.1463114060030E+00  9.1463114084059E+00  9.1463114088395E+00  9.1463114094546E+00  9.1463114094233E+00  9.1463114090942E+00  9.1463114088685E+00  9.1463114089265E+00  9.1463114092550E+00 
 9.1463114037613E+00  9.1463114060030E+00  9.1463114084059E+00  9.1463114088395E+00  9.1463114094546E+00  9.1463114094233E+00  9.1463114090942E+00  9.1463114088685E+00  9.1463114089265E+00  9.1463114092550E+00 
 0.0000000000000E+00  0.0000000000000E+00  0.0000000000000E+00  0.0000000000000E+00  0.0000000000000E+00  0.0000000000000E+00  0.0000000000000E+00  0.0000000000000E+00  0.0000000000000E+00  0.0000000000000E+00 
ZONE T = "SEP , 3.0000E-08", I = 10, SOLUTIONTIME = 3.000000E-08
ZONETYPE = ORDERED
DATAPACKING = BLOCK
STRANDID = 2
 9.6000000000000E-05  9.8777777777778E-05  1.0155555555556E-04  1.0433333333333E-04  1.0711111111111E-04  1.0988888888889E-04  1.1266666666667E-04  1.1544444444444E-04  1.1822222222222E-04  1.2100000000000E-04 
 1.8374416409138E-07  1.8345375633050E-07  1.8344780556460E-07  1.8344770036647E-07  1.8344769879760E-07  1.8344769891842E-07  1.8344775039343E-07  1.8344833203097E-07  1.8347584948256E-07  1.8279525723414E-07 
 8.4394679978242E-01  8.4394679999560E-01  8.4394679999993E-01  8.4394680000000E-01  8.4394680000000E-01  8.4394680000000E-01  8.4394680000000E-01  8.4394680000001E-01  8.4394680000042E-01  8.4394680002066E-01 
 7.8026600108790E-02  7.8026600002201E-02  7.8026600000037E-02  7.8026600000001E-02  7.8026600000000E-02  7.8026600000000E-02  7.8026600000000E-02  7.8026599999996E-02  7.8026599999791E-02  7.8026599989671E-02 
 7.8026600108790E-02  7.8026600002201E-02  7.8026600000037E-02  7.8026600000001E-02  7.8026600000000E-02  7.8026600000000E-02  7.8026600000000E-02  7.8026599999996E-02  7.8026599999791E-02  7.8026599989671E-02 
 1.3953380814168E-02  1.3953338470134E-02  1.3953296126099E-02  1.3953253782065E-02  1.3953211438031E-02  1.3953169093996E-02  1.3953126749962E-02  1.3953084405928E-02  1.3953042061893E-02  1.3952999717859E-02 
 2.9814999991843E+02  2.9814999993869E+02  2.9814999995358E+02  2.9814999996345E+02  2.9814999996963E+02  2.9814999997226E+02  2.9814999997237E+02  2.9814999996854E+02  2.9814999996139E+02  2.9814999995256E+02 
 6.5000471412550E-01  6.5000471412551E-01  6.5000471412550E-01  6.5000471412550E-01  6.5000471412551E-01  6.5000471412550E-01  6.5000471412551E-01  6.5000471412550E-01  6.5000471412550E-01  6.5000471412551E-01 
 1.3888888888889E-06  2.7777777777778E-06  2.7777777777778E-06  2.7777777777778E-06  2.7777777777778E-06  2.7777777777778E-06  2.7777777777778E-06  2.7777777777778E-06  2.7777777777778E-06  1.3888888888889E-06 
 2.4999528587450E-01  2.4999528587449E-01  2.4999528587450E-01  2.4999528587450E-01  2.4999528587449E-01  2.4999528587450E-01  2.4999528587449E-01  2.4999528587450E-01  2.4999528587450E-01  2.4999528587449E-01 
 1.0000000000000E-01  1.0000000000000E-01  1.0000000000000E-01  1.0000000000000E-01  1.0000000000000E-01  1.0000000000000E-01  1.0000000000000E-01  1.0000000000000E-01  1.0000000000000E-01  1.0000000000000E-01 
 2.7438950994102E-07  2.7438939346144E-07  2.7438924859593E-07  2.7438924911892E-07  2.7438939968433E-07  2.7438939356051E-07  2.7438938794896E-07  2.7438938794223E-07  2.7438924863026E-07  2.7438923149377E-07 
 9.1463114006703E+00  9.1463114043410E+00  9.1463114081248E+00  9.1463114084881E+00  9.1463114086710E+00  9.1463114089571E+00  9.1463114089644E+00  9.1463114086954E+00  9.1463114089327E+00  9.1463114090926E+00 
 9.1463114006703E+00  9.1463114043410E+00  9.1463114081248E+00  9.1463114084881E+00  9.1463114086710E+00  9.1463114089571E+00  9.1463114089644E+00  9.1463114086954E+00  9.1463114089327E+00  9.1463114090926E+00 
 0.0000000000000E+00  0.0000000000000E+00  0.0000000000000E+00  0.0000000000000E+00  0.0000000000000E+00  0.0000000000000E+00  0.0000000000000E+00  0.0000000000000E+00  0.0000000000000E+00  0.0000000000000E+00 
ZONE T = "SEP , 4.0000E-08", I = 10, SOLUTIONTIME = 4.000000E-08
ZONETYPE = ORDERED
DATAPACKING = BLOCK
STRANDID = 2
 9.6000000000000E-05  9.8777777777778E-05  1.0155555555556E-04  1.0433333333333E-04  1.0711111111111E-04  1.0988888888889E-04  1.1266666666667E-04  1.1544444444444E-04  1.1822222222222E-04  1.2100000000000E-04 
 1.8383988381206E-07  1.8345774168832E-07  1.8344803965617E-07  1.8344780297753E-07  1.8344780363496E-07  1.8344780394914E-07  1.8344783088114E-07  1.8344873017132E-07  1.8348497606447E-07  1.8279715228144E-07 
 8.4394679971071E-01  8.4394679999273E-01  8.4394679999985E-01  8.4394680000000E-01  8.4394680000000E-01  8.4394680000000E-01  8.4394680000000E-01  8.4394680000001E-01  8.4394680000069E-01  8.4394680002744E-01 
 7.8026600144646E-02  7.8026600003637E-02  7.8026600000074E-02  7.8026600000001E-02  7.8026600000000E-02  7.8026600000000E-02  7.8026600000000E-02  7.8026599999993E-02  7.8026599999655E-02  7.8026599986278E-02 
 7.8026600144646E-02  7.8026600003637E-02  7.8026600000074E-02  7.8026600000001E-02  7.8026600000000E-02  7.8026600000000E-02  7.8026600000000E-02  7.8026599999993E-02  7.8026599999655E-02  7.8026599986278E-02 
 1.3953380432694E-02  1.3953338088660E-02  1.3953295744625E-02  1.3953253400591E-02  1.3953211056557E-02  1.3953168712523E-02  1.3953126368488E-02  1.3953084024454E-02  1.3953041680420E-02  1.3952999336385E-02 
 2.9814999990273E+02  2.9814999992356E+02  2.9814999993922E+02  2.9814999994956E+02  2.9814999995753E+02  2.9814999996105E+02  2.9814999996226E+02  2.9814999996023E+02  2.9814999995768E+02  2.9814999995299E+02 
 6.5000471412550E-01  6.5000471412551E-01  6.5000471412550E-01  6.5000471412550E-01  6.5000471412551E-01  6.5000471412550E-01  6.5000471412551E-01  6.5000471412550E-01  6.5000471412550E-01  6.5000471412551E-01 
 1.3888888888889E-06  2.7777777777778E-06  2.7777777777778E-06  2.7777777777778E-06  2.7777777777778E-06  2.7777777777778E-06  2.7777777777778E-06  2.7777777777778E-06  2.7777777777778E-06  1.3888888888889E-06 
 2.4999528587450E-01  2.4999528587449E-01  2.4999528587450E-01  2.4999528587450E-01  2.4999528587449E-01  2.4999528587450E-01  2.4999528587449E-01  2.4999528587450E-01  2.4999528587450E-01  2.4999528587449E-01 
 1.0000000000000E-01  1.0000000000000E-01  1.0000000000000E-01  1.0000000000000E-01  1.0000000000000E-01  1.0000000000000E-01  1.0000000000000E-01  1.0000000000000E-01  1.0000000000000E-01  1.0000000000000E-01 
 3.6585262391687E-07  3.6585250748468E-07  3.6585236267460E-07  3.6585236320048E-07  3.6585251376733E-07  3.6585250764976E-07  3.6585250203415E-07  3.6585250202773E-07  3.6585236271956E-07  3.6585234558290E-07 
 9.1463113975849E+00  9.1463114023233E+00  9.1463114078676E+00  9.1463114081559E+00  9.1463114082996E+00  9.1463114089247E+00  9.1463114085197E+00  9.1463114085496E+00  9.1463114089303E+00  9.1463114089125E+00 
 9.1463113975849E+00  9.1463114023233E+00  9.1463114078676E+00  9.1463114081559E+00  9.1463114082996E+00  9.1463114089247E+00  9.1463114085197E+00  9.1463114085496E+00  9.1463114089303E+00  9.1463114089125E+00 
 0.0000000000000E+00  0.0000000000000E+00  0.0000000000000E+00  0.0000000000000E+00  0.0000000000000E+00  0.0000000000000E+00  0.0000000000000E+00  0.0000000000000E+00  0.0000000000000E+00  0.0000000000000E+00 
ZONE T = "SEP , 5.5000E-08", I = 10, SOLUTIONTIME = 5.500000E-08
ZONETYPE = ORDERED
DATAPACKING = BLOCK
STRANDID = 2
 9.6000000000000E-05  9.8777777777778E-05  1.0155555555556E-04  1.0433333333333E-04  1.0711111111111E-04  1.0988888888889E-04  1.1266666666667E-04  1.1544444444444E-04  1.1822222222222E-04  1.2100000000000E-04 
 1.8398003419477E-07  1.8346538593080E-07  1.8344814750844E-07  1.8344770552639E-07  1.8344770447607E-07  1.8344770526530E-07  1.8344773856468E-07  1.8344934268676E-07  1.8349810931662E-07  1.8279973652172E-07 
 8.4394679960402E-01  8.4394679998692E-01  8.4394679999966E-01  8.4394679999999E-01  8.4394680000000E-01  8.4394680000000E-01  8.4394680000000E-01  8.4394680000003E-01  8.4394680000124E-01  8.4394680003752E-01 
 7.8026600197989E-02  7.8026600006538E-02  7.8026600000171E-02  7.8026600000004E-02  7.8026600000000E-02  7.8026600000000E-02  7.8026600000000E-02  7.8026599999984E-02  7.8026599999380E-02  7.8026599981240E-02 
 7.8026600197989E-02  7.8026600006538E-02  7.8026600000171E-02  7.8026600000004E-02  7.8026600000000E-02  7.8026600000000E-02  7.8026600000000E-02  7.8026599999984E-02  7.8026599999380E-02  7.8026599981240E-02 
 1.3953379985822E-02  1.3953337641787E-02  1.3953295297753E-02  1.3953252953719E-02  1.3953210609684E-02  1.3953168265650E-02  1.3953125921616E-02  1.3953083577582E-02  1.3953041233547E-02  1.3952998889513E-02 
 2.9814999987919E+02  2.9814999990217E+02  2.9814999992034E+02  2.9814999993420E+02  2.9814999994358E+02  2.9814999994994E+02  2.9814999995219E+02  2.9814999995302E+02  2.9814999995355E+02  2.9814999995362E+02 
 6.5000471412550E-01  6.5000471412551E-01  6.5000471412550E-01  6.5000471412550E-01  6.5000471412551E-01  6.5000471412550E-01  6.5000471412551E-01  6.5000471412550E-01  6.5000471412550E-01  6.5000471412551E-01 
 1.3888888888889E-06  2.7777777777778E-06  2.7777777777778E-06  2.7777777777778E-06  2.7777777777778E-06  2.7777777777778E-06  2.7777777777778E-06  2.7777777777778E-06  2.7777777777778E-06  1.3888888888889E-06 
 2.4999528587450E-01  2.4999528587449E-01  2.4999528587450E-01  2.4999528587450E-01  2.4999528587449E-01  2.4999528587450E-01  2.4999528587449E-01  2.4999528587450E-01  2.4999528587450E-01  2.4999528587449E-01 
 1.0000000000000E-01  1.0000000000000E-01  1.0000000000000E-01  1.0000000000000E-01  1.0000000000000E-01  1.0000000000000E-01  1.0000000000000E-01  1.0000000000000E-01  1.0000000000000E-01  1.0000000000000E-01 
 5.0304729481122E-07  5.0304717847968E-07  5.0304703378023E-07  5.0304703431894E-07  5.0304718488684E-07  5.0304717877209E-07  5.0304717316075E-07  5.0304717315350E-07  5.0304703385248E-07  5.0304701672342E-07 
 9.1463113929570E+00  9.1463113996667E+00  9.1463114070416E+00  9.1463114078974E+00  9.1463114079675E+00  9.1463114081553E+00  9.1463114084397E+00  9.1463114083848E+00  9.1463114088612E+00  9.1463114093682E+00 
 9.1463113929570E+00  9.1463113996667E+00  9.1463114070416E+00  9.1463114078974E+00  9.1463114079675E+00  9.1463114081553E+00  9.1463114084397E+00  9.1463114083848E+00  9.1463114088612E+00  9.1463114093682E+00 
 0.0000000000000E+00  0.0000000000000E+00  0.0000000000000E+00  0.0000000000000E+00  0.0000000000000E+00  0.0000000000000E+00  0.0000000000000E+00  0.0000000000000E+00  0.0000000000000E+00  0.0000000000000E+00 
ZONE T = "SEP , 7.7500E-08", I = 10, SOLUTIONTIME = 7.750000E-08
ZONETYPE = ORDERED
DATAPACKING = BLOCK
STRANDID = 2
 9.6000000000000E-05  9.8777777777778E-05  1.0155555555556E-04  1.0433333333333E-04  1.0711111111111E-04  1.0988888888889E-04  1.1266666666667E-04  1.1544444444444E-04  1.1822222222222E-04  1.2100000000000E-04 
 1.8418295376985E-07  1.8348072752665E-07  1.8344848684971E-07  1.8344734772299E-07  1.8344731277133E-07  1.8344731331842E-07  1.8344743101447E-07  1.8345050855659E-07  1.8351692943677E-07  1.8280336176921E-07 
 8.4394679944590E-01  8.4394679997505E-01  8.4394679999911E-01  8.4394679999997E-01  8.4394680000000E-01  8.4394680000000E-01  8.4394680000000E-01  8.4394680000008E-01  8.4394680000236E-01  8.4394680005242E-01 
 7.8026600277050E-02  7.8026600012475E-02  7.8026600000444E-02  7.8026600000014E-02  7.8026600000000E-02  7.8026600000000E-02  7.8026599999999E-02  7.8026599999958E-02  7.8026599998818E-02  7.8026599973792E-02 
 7.8026600277050E-02  7.8026600012475E-02  7.8026600000444E-02  7.8026600000014E-02  7.8026600000000E-02  7.8026600000000E-02  7.8026599999999E-02  7.8026599999958E-02  7.8026599998818E-02  7.8026599973792E-02 
 1.3953379197182E-02  1.3953336853147E-02  1.3953294509113E-02  1.3953252165079E-02  1.3953209821045E-02  1.3953167477010E-02  1.3953125132976E-02  1.3953082788942E-02  1.3953040444907E-02  1.3952998100873E-02 
 2.9814999984388E+02  2.9814999987086E+02  2.9814999989242E+02  2.9814999990976E+02  2.9814999992272E+02  2.9814999993293E+02  2.9814999994108E+02  2.9814999994690E+02  2.9814999995144E+02  2.9814999995457E+02 
 6.5000471412550E-01  6.5000471412551E-01  6.5000471412550E-01  6.5000471412550E-01  6.5000471412551E-01  6.5000471412550E-01  6.5000471412551E-01  6.5000471412550E-01  6.5000471412550E-01  6.5000471412551E-01 
 1.3888888888889E-06  2.7777777777778E-06  2.7777777777778E-06  2.7777777777778E-06  2.7777777777778E-06  2.7777777777778E-06  2.7777777777778E-06  2.7777777777778E-06  2.7777777777778E-06  1.3888888888889E-06 
 2.4999528587450E-01  2.4999528587449E-01  2.4999528587450E-01  2.4999528587450E-01  2.4999528587449E-01  2.4999528587450E-01  2.4999528587449E-01  2.4999528587450E-01  2.4999528587450E-01  2.4999528587449E-01 
 1.0000000000000E-01  1.0000000000000E-01  1.0000000000000E-01  1.0000000000000E-01  1.0000000000000E-01  1.0000000000000E-01  1.0000000000000E-01  1.0000000000000E-01  1.0000000000000E-01  1.0000000000000E-01 
 7.0883930101408E-07  7.0883918489233E-07  7.0883904041210E-07  7.0883904097154E-07  7.0883919155517E-07  7.0883918544167E-07  7.0883917984159E-07  7.0883917983767E-07  7.0883904055559E-07  7.0883902345655E-07 
 9.1463113867935E+00  9.1463113961180E+00  9.1463114058612E+00  9.1463114067823E+00  9.1463114074814E+00  9.1463114075372E+00  9.1463114080372E+00  9.1463114081854E+00  9.1463114090271E+00  9.1463114103615E+00 
 9.1463113867935E+00  9.1463113961180E+00  9.1463114058612E+00  9.1463114067823E+00  9.1463114074814E+00  9.1463114075372E+00  9.1463114080372E+00  9.1463114081854E+00  9.1463114090271E+00  9.1463114103615E+00 
 0.0000000000000E+00  0.0000000000000E+00  0.0000000000000E+00  0.0000000000000E+00  0.0000000000000E+00  0.0000000000000E+00  0.0000000000000E+00  0.0000000000000E+00  0.0000000000000E+00  0.0000000000000E+00 
ZONE T = "SEP , 1.1125E-07", I = 10, SOLUTIONTIME = 1.112500E-07
ZONETYPE = ORDERED
DATAPACKING = BLOCK
STRANDID = 2
 9.6000000000000E-05  9.8777777777778E-05  1.0155555555556E-04  1.0433333333333E-04  1.0711111111111E-04  1.0988888888889E-04  1.1266666666667E-04  1.1544444444444E-04  1.1822222222222E-04  1.2100000000000E-04 
 1.8447335323772E-07  1.8351264474369E-07  1.8345074781905E-07  1.8344760614946E-07  1.8344747234530E-07  1.8344748797206E-07  1.8344778550931E-07  1.8345362903898E-07  1.8354428870281E-07  1.8280971733911E-07 
 8.4394679921278E-01  8.4394679995068E-01  8.4394679999754E-01  8.4394679999989E-01  8.4394680000000E-01  8.4394680000000E-01  8.4394680000001E-01  8.4394680000023E-01  8.4394680000466E-01  8.4394680007430E-01 
 7.8026600393608E-02  7.8026600024660E-02  7.8026600001229E-02  7.8026600000053E-02  7.8026600000002E-02  7.8026600000000E-02  7.8026599999995E-02  7.8026599999884E-02  7.8026599997668E-02  7.8026599962849E-02 
 7.8026600393608E-02  7.8026600024660E-02  7.8026600001229E-02  7.8026600000053E-02  7.8026600000002E-02  7.8026600000000E-02  7.8026599999995E-02  7.8026599999884E-02  7.8026599997668E-02  7.8026599962849E-02 
 1.3953378014237E-02  1.3953335670203E-02  1.3953293326169E-02  1.3953250982135E-02  1.3953208638100E-02  1.3953166294066E-02  1.3953123950032E-02  1.3953081605997E-02  1.3953039261963E-02  1.3952996917929E-02 
 2.9814999979093E+02  2.9814999982318E+02  2.9814999985052E+02  2.9814999987415E+02  2.9814999989389E+02  2.9814999991016E+02  2.9814999992363E+02  2.9814999993559E+02  2.9814999994610E+02  2.9814999995597E+02 
 6.5000471412550E-01  6.5000471412551E-01  6.5000471412550E-01  6.5000471412550E-01  6.5000471412551E-01  6.5000471412550E-01  6.5000471412551E-01  6.5000471412550E-01  6.5000471412550E-01  6.5000471412551E-01 
 1.3888888888889E-06  2.7777777777778E-06  2.7777777777778E-06  2.7777777777778E-06  2.7777777777778E-06  2.7777777777778E-06  2.7777777777778E-06  2.7777777777778E-06  2.7777777777778E-06  1.3888888888889E-06 
 2.4999528587450E-01  2.4999528587449E-01  2.4999528587450E-01  2.4999528587450E-01  2.4999528587449E-01  2.4999528587450E-01  2.4999528587449E-01  2.4999528587450E-01  2.4999528587450E-01  2.4999528587449E-01 
 1.0000000000000E-01  1.0000000000000E-01  1.0000000000000E-01  1.0000000000000E-01  1.0000000000000E-01  1.0000000000000E-01  1.0000000000000E-01  1.0000000000000E-01  1.0000000000000E-01  1.0000000000000E-01 
 1.0175273099715E-06  1.0175271942995E-06  1.0175270503046E-06  1.0175270509123E-06  1.0175272015245E-06  1.0175271954319E-06  1.0175271898427E-06  1.0175271898489E-06  1.0175270506262E-06  1.0175270335822E-06 
 9.1463113765165E+00  9.1463113898421E+00  9.1463114042210E+00  9.1463114056511E+00  9.1463114064993E+00  9.1463114071172E+00  9.1463114074393E+00  9.1463114077415E+00  9.1463114094991E+00  9.1463114111303E+00 
 9.1463113765165E+00  9.1463113898421E+00  9.1463114042210E+00  9.1463114056511E+00  9.1463114064993E+00  9.1463114071172E+00  9.1463114074393E+00  9.1463114077415E+00  9.1463114094991E+00  9.1463114111303E+00 
 0.0000000000000E+00  0.0000000000000E+00  0.0000000000000E+00  0.0000000000000E+00  0.0000000000000E+00  0.0000000000000E+00  0.0000000000000E+00  0.0000000000000E+00  0.0000000000000E+00  0.0000000000000E+00 
ZONE T = "SEP , 1.6188E-07", I = 10, SOLUTIONTIME = 1.618750E-07
ZONETYPE = ORDERED
DATAPACKING = BLOCK
STRANDID = 2
 9.6000000000000E-05  9.8777777777778E-05  1.0155555555556E-04  1.0433333333333E-04  1.0711111111111E-04  1.0988888888889E-04  1.1266666666667E-04  1.1544444444444E-04  1.1822222222222E-04  1.2100000000000E-04 
 1.8487886913711E-07  1.8357535472354E-07  1.8345663143937E-07  1.8344809923779E-07  1.8344756673174E-07  1.8344759831995E-07  1.8344840229579E-07  1.8345960407800E-07  1.8358223876156E-07  1.8281926478690E-07 
 8.4394679887155E-01  8.4394679990108E-01  8.4394679999303E-01  8.4394679999957E-01  8.4394679999998E-01  8.4394680000000E-01  8.4394680000004E-01  8.4394680000066E-01  8.4394680000933E-01  8.4394680010620E-01 
 7.8026600564226E-02  7.8026600049458E-02  7.8026600003487E-02  7.8026600000216E-02  7.8026600000012E-02  7.8026600000000E-02  7.8026599999980E-02  7.8026599999671E-02  7.8026599995336E-02  7.8026599946899E-02 
 7.8026600564226E-02  7.8026600049458E-02  7.8026600003487E-02  7.8026600000216E-02  7.8026600000012E-02  7.8026600000000E-02  7.8026599999980E-02  7.8026599999671E-02  7.8026599995336E-02  7.8026599946899E-02 
 1.3953376239857E-02  1.3953333895822E-02  1.3953291551788E-02  1.3953249207754E-02  1.3953206863720E-02  1.3953164519685E-02  1.3953122175651E-02  1.3953079831617E-02  1.3953037487583E-02  1.3952995143548E-02 
 2.9814999971155E+02  2.9814999975304E+02  2.9814999978930E+02  2.9814999982100E+02  2.9814999984944E+02  2.9814999987500E+02  2.9814999989806E+02  2.9814999991922E+02  2.9814999993903E+02  2.9814999995807E+02 
 6.5000471412550E-01  6.5000471412551E-01  6.5000471412550E-01  6.5000471412550E-01  6.5000471412551E-01  6.5000471412550E-01  6.5000471412551E-01  6.5000471412550E-01  6.5000471412550E-01  6.5000471412551E-01 
 1.3888888888889E-06  2.7777777777778E-06  2.7777777777778E-06  2.7777777777778E-06  2.7777777777778E-06  2.7777777777778E-06  2.7777777777778E-06  2.7777777777778E-06  2.7777777777778E-06  1.3888888888889E-06 
 2.4999528587450E-01  2.4999528587449E-01  2.4999528587450E-01  2.4999528587450E-01  2.4999528587449E-01  2.4999528587450E-01  2.4999528587449E-01  2.4999528587450E-01  2.4999528587450E-01  2.4999528587449E-01 
 1.0000000000000E-01  1.0000000000000E-01  1.0000000000000E-01  1.0000000000000E-01  1.0000000000000E-01  1.0000000000000E-01  1.0000000000000E-01  1.0000000000000E-01  1.0000000000000E-01  1.0000000000000E-01 
 1.4805593226527E-06  1.4805592079389E-06  1.4805590650029E-06  1.4805590657392E-06  1.4805592164149E-06  1.4805592103579E-06  1.4805592048079E-06  1.4805592048487E-06  1.4805590657466E-06  1.4805590488279E-06 
 9.1463113616045E+00  9.1463113805305E+00  9.1463114014483E+00  9.1463114039892E+00  9.1463114052414E+00  9.1463114059451E+00  9.1463114067200E+00  9.1463114074030E+00  9.1463114097859E+00  9.1463114122600E+00 
 9.1463113616045E+00  9.1463113805305E+00  9.1463114014483E+00  9.1463114039892E+00  9.1463114052414E+00  9.1463114059451E+00  9.1463114067200E+00  9.1463114074030E+00  9.1463114097859E+00  9.1463114122600E+00 
 0.0000000000000E+00  0.0000000000000E+00  0.0000000000000E+00  0.0000000000000E+00  0.0000000000000E+00  0.0000000000000E+00  0.0000000000000E+00  0.0000000000000E+00  0.0000000000000E+00  0.0000000000000E+00 
ZONE T = "SEP , 2.3781E-07", I = 10, SOLUTIONTIME = 2.378125E-07
ZONETYPE = ORDERED
DATAPACKING = BLOCK
STRANDID = 2