TITLE = "Solution on Domain BulkDomain1D_1"
VARIABLES = "x [m]"  
"Vel_axial" 	"MF_sp(ECDMC)" 	"MF_sp(Li+)" 	"MF_sp(PF6-)" 	"Volt(Electroly)" 	"Temperature" 	"Porosity []" 	"Control volume thickness [m]" 	"volFrac MgO(S) []" 	"volFrac ExtraStuff []" 	"qHeat_accum [J/m3]" 	"qHeat_step [W/m3]" 	"Joule_Lyte [W/m3]" 	"Joule_Solid [W/m3]" 	
ZONE T = "SEP , 0.0000E+00", I = 10, SOLUTIONTIME = 0.000000E+00
ZONETYPE = ORDERED
DATAPACKING = BLOCK
STRANDID = 2
 9.6000000000000E-05  9.8777777777778E-05  1.0155555555556E-04  1.0433333333333E-04  1.0711111111111E-04  1.0988888888889E-04  1.1266666666667E-04  1.1544444444444E-04  1.1822222222222E-04  1.2100000000000E-04 
 0.0000000000000E+00  0.0000000000000E+00  0.0000000000000E+00  0.0000000000000E+00  0.0000000000000E+00  0.0000000000000E+00  0.0000000000000E+00  0.0000000000000E+00  0.0000000000000E+00  0.0000000000000E+00 
 8.4394680000000E-01  8.4394680000000E-01  8.4394680000000E-01  8.4394680000000E-01  8.4394680000000E-01  8.4394680000000E-01  8.4394680000000E-01  8.4394680000000E-01  8.4394680000000E-01  8.4394680000000E-01 
 7.8026600000000E-02  7.8026600000000E-02  7.8026600000000E-02  7.8026600000000E-02  7.8026600000000E-02  7.8026600000000E-02  7.8026600000000E-02  7.8026600000000E-02  7.8026600000000E-02  7.8026600000000E-02 
 7.8026600000000E-02  7.8026600000000E-02  7.8026600000000E-02  7.8026600000000E-02  7.8026600000000E-02  7.8026600000000E-02  7.8026600000000E-02  7.8026600000000E-02  7.8026600000000E-02  7.8026600000000E-02 
-7.0000000000000E-02 -7.0000000000000E-02 -7.0000000000000E-02 -7.0000000000000E-02 -7.0000000000000E-02 -7.0000000000000E-02 -7.0000000000000E-02 -7.0000000000000E-02 -7.0000000000000E-02 -7.0000000000000E-02 
 2.9815000000000E+02  2.9815000000000E+02  2.9815000000000E+02  2.9815000000000E+02  2.9815000000000E+02  2.9815000000000E+02  2.9815000000000E+02  2.9815000000000E+02  2.9815000000000E+02  2.9815000000000E+02 
 6.5000471412550E-01  6.5000471412551E-01  6.5000471412550E-01  6.5000471412550E-01  6.5000471412551E-01  6.5000471412550E-01  6.5000471412551E-01  6.5000471412550E-01  6.5000471412550E-01  6.5000471412551E-01 
 1.3888888888889E-06  2.7777777777778E-06  2.7777777777778E-06  2.7777777777778E-06  2.7777777777778E-06  2.7777777777778E-06  2.7777777777778E-06  2.7777777777778E-06  2.7777777777778E-06  1.3888888888889E-06 
 2.4999528587450E-01  2.4999528587449E-01  2.4999528587450E-01  2.4999528587450E-01  2.4999528587449E-01  2.4999528587450E-01  2.4999528587449E-01  2.4999528587450E-01  2.4999528587450E-01  2.4999528587449E-01 
 1.0000000000000E-01  1.0000000000000E-01  1.0000000000000E-01  1.0000000000000E-01  1.0000000000000E-01  1.0000000000000E-01  1.0000000000000E-01  1.0000000000000E-01  1.0000000000000E-01  1.0000000000000E-01 
 0.0000000000000E+00  0.0000000000000E+00  0.0000000000000E+00  0.0000000000000E+00  0.0000000000000E+00  0.0000000000000E+00  0.0000000000000E+00  0.0000000000000E+00  0.0000000000000E+00  0.0000000000000E+00 
 0.0000000000000E+00  0.0000000000000E+00  0.0000000000000E+00  0.0000000000000E+00  0.0000000000000E+00  0.0000000000000E+00  0.0000000000000E+00  0.0000000000000E+00  0.0000000000000E+00  0.0000000000000E+00 
 0.0000000000000E+00  0.0000000000000E+00  0.0000000000000E+00  0.0000000000000E+00  0.0000000000000E+00  0.0000000000000E+00  0.0000000000000E+00  0.0000000000000E+00  0.0000000000000E+00  0.0000000000000E+00 
 0.0000000000000E+00  0.0000000000000E+00  0.0000000000000E+00  0.0000000000000E+00  0.0000000000000E+00  0.0000000000000E+00  0.0000000000000E+00  0.0000000000000E+00  0.0000000000000E+00  0.0000000000000E+00 
ZONE T = "SEP , 1.0000E-08", I = 10, SOLUTIONTIME = 1.000000E-08
ZONETYPE = ORDERED
DATAPACKING = BLOCK
STRANDID = 2
 9.6000000000000E-05  9.8777777777778E-05  1.0155555555556E-04  1.0433333333333E-04  1.0711111111111E-04  1.0988888888889E-04  1.1266666666667E-04  1.1544444444444E-04  1.1822222222222E-04  1.2100000000000E-04 
 1.8354904894562E-07  1.8344979542749E-07  1.8344879142096E-07  1.8344879375109E-07  1.8344879365792E-07  1.8344879367467E-07  1.8344879465880E-07  1.8344887402919E-07  1.8345835502131E-07  1.8279173468820E-07 
 8.4394679992706E-01  8.4394679999925E-01  8.4394679999999E-01  8.4394680000000E-01  8.4394680000000E-01  8.4394680000000E-01  8.4394680000000E-01  8.4394680000000E-01  8.4394680000007E-01  8.4394680000694E-01 
 7.8026600036470E-02  7.8026600000373E-02  7.8026600000004E-02  7.8026600000000E-02  7.8026600000000E-02  7.8026600000000E-02  7.8026600000000E-02  7.8026600000000E-02  7.8026599999964E-02  7.8026599996528E-02 
 7.8026600036470E-02  7.8026600000373E-02  7.8026600000004E-02  7.8026600000000E-02  7.8026600000000E-02  7.8026600000000E-02  7.8026600000000E-02  7.8026600000000E-02  7.8026599999964E-02  7.8026599996528E-02 
 1.3951822800594E-02  1.3951780456510E-02  1.3951738112502E-02  1.3951695768485E-02  1.3951653424468E-02  1.3951611080395E-02  1.3951568736384E-02  1.3951526392300E-02  1.3951484048283E-02  1.3951441704275E-02 
 2.9815000001620E+02  2.9815000000748E+02  2.9815000000251E+02  2.9814999999912E+02  2.9814999999655E+02  2.9814999999419E+02  2.9814999998962E+02  2.9814999998278E+02  2.9814999997184E+02  2.9814999995172E+02 
 6.5000471412550E-01  6.5000471412551E-01  6.5000471412550E-01  6.5000471412550E-01  6.5000471412551E-01  6.5000471412550E-01  6.5000471412551E-01  6.5000471412550E-01  6.5000471412550E-01  6.5000471412551E-01 
 1.3888888888889E-06  2.7777777777778E-06  2.7777777777778E-06  2.7777777777778E-06  2.7777777777778E-06  2.7777777777778E-06  2.7777777777778E-06  2.7777777777778E-06  2.7777777777778E-06  1.3888888888889E-06 
 2.4999528587450E-01  2.4999528587449E-01  2.4999528587450E-01  2.4999528587450E-01  2.4999528587449E-01  2.4999528587450E-01  2.4999528587449E-01  2.4999528587450E-01  2.4999528587450E-01  2.4999528587449E-01 
 1.0000000000000E-01  1.0000000000000E-01  1.0000000000000E-01  1.0000000000000E-01  1.0000000000000E-01  1.0000000000000E-01  1.0000000000000E-01  1.0000000000000E-01  1.0000000000000E-01  1.0000000000000E-01 
 9.1463327422050E-08  9.1463165345777E-08  9.1463020423793E-08  9.1463037578539E-08  9.1463159750427E-08  9.1463148727660E-08  9.1463171507118E-08  9.1463182540515E-08  9.1463020451480E-08  9.1463003302704E-08 
 9.1463327422050E+00  9.1463165345777E+00  9.1463020423793E+00  9.1463037578539E+00  9.1463159750427E+00  9.1463148727660E+00  9.1463171507118E+00  9.1463182540515E+00  9.1463020451479E+00  9.1463003302704E+00 
 9.1463327422050E+00  9.1463165345777E+00  9.1463020423793E+00  9.1463037578539E+00  9.1463159750427E+00  9.1463148727660E+00  9.1463171507118E+00  9.1463182540515E+00  9.1463020451479E+00  9.1463003302704E+00 
 0.0000000000000E+00  0.0000000000000E+00  0.0000000000000E+00  0.0000000000000E+00  0.0000000000000E+00  0.0000000000000E+00  0.0000000000000E+00  0.0000000000000E+00  0.0000000000000E+00  0.0000000000000E+00 
ZONE T = "SEP , 2.0000E-08", I = 10, SOLUTIONTIME = 2.000000E-08
ZONETYPE = ORDERED
DATAPACKING = BLOCK
STRANDID = 2
 9.6000000000000E-05  9.8777777777778E-05  1.0155555555556E-04  1.0433333333333E-04  1.0711111111111E-04  1.0988888888889E-04  1.1266666666667E-04  1.1544444444444E-04  1.1822222222222E-04  1.2100000000000E-04 
 1.8364691969625E-07  1.8345084021214E-07  1.8344785176225E-07  1.8344785338351E-07  1.8344785285962E-07  1.8344785290685E-07  1.8344785492886E-07  1.8344819929786E-07  1.8346691420690E-07  1.8279394704423E-07 
 8.4394679985454E-01  8.4394679999778E-01  8.4394679999997E-01  8.4394680000000E-01  8.4394680000000E-01  8.4394680000000E-01  8.4394680000000E-01  8.4394680000000E-01  8.4394680000021E-01  8.4394680001382E-01 
 7.8026600072732E-02  7.8026600001110E-02  7.8026600000015E-02  7.8026600000000E-02  7.8026600000000E-02  7.8026600000000E-02  7.8026600000000E-02  7.8026599999999E-02  7.8026599999894E-02  7.8026599993088E-02 
 7.8026600072732E-02  7.8026600001110E-02  7.8026600000015E-02  7.8026600000000E-02  7.8026600000000E-02  7.8026600000000E-02  7.8026600000000E-02  7.8026599999999E-02  7.8026599999894E-02  7.8026599993088E-02 
 1.3953381201408E-02  1.3953338857374E-02  1.3953296513340E-02  1.3953254169305E-02  1.3953211825271E-02  1.3953169481237E-02  1.3953127137203E-02  1.3953084793168E-02  1.3953042449134E-02  1.3953000105100E-02 
 2.9815000000047E+02  2.9815000000133E+02  2.9815000000132E+02  2.9814999999891E+02  2.9814999999587E+02  2.9814999999028E+02  2.9814999998370E+02  2.9814999997597E+02  2.9814999996576E+02  2.9814999995216E+02 
 6.5000471412550E-01  6.5000471412551E-01  6.5000471412550E-01  6.5000471412550E-01  6.5000471412551E-01  6.5000471412550E-01  6.5000471412551E-01  6.5000471412550E-01  6.5000471412550E-01  6.5000471412551E-01 
 1.3888888888889E-06  2.7777777777778E-06  2.7777777777778E-06  2.7777777777778E-06  2.7777777777778E-06  2.7777777777778E-06  2.7777777777778E-06  2.7777777777778E-06  2.7777777777778E-06  1.3888888888889E-06 
 2.4999528587450E-01  2.4999528587449E-01  2.4999528587450E-01  2.4999528587450E-01  2.4999528587449E-01  2.4999528587450E-01  2.4999528587449E-01  2.4999528587450E-01  2.4999528587450E-01  2.4999528587449E-01 
 1.0000000000000E-01  1.0000000000000E-01  1.0000000000000E-01  1.0000000000000E-01  1.0000000000000E-01  1.0000000000000E-01  1.0000000000000E-01  1.0000000000000E-01  1.0000000000000E-01  1.0000000000000E-01 
 1.8292644147221E-07  1.8292627942082E-07  1.8292613451980E-07  1.8292615167478E-07  1.8292627384775E-07  1.8292626282283E-07  1.8292628560057E-07  1.8292629662891E-07  1.8292613454078E-07  1.8292611739532E-07 
 9.1463114050161E+00  9.1463114075046E+00  9.1463114096007E+00  9.1463114096243E+00  9.1463114097318E+00  9.1463114095167E+00  9.1463114093450E+00  9.1463114088395E+00  9.1463114089303E+00  9.1463114092618E+00 
 9.1463114050161E+00  9.1463114075046E+00  9.1463114096007E+00  9.1463114096243E+00  9.1463114097318E+00  9.1463114095167E+00  9.1463114093450E+00  9.1463114088395E+00  9.1463114089303E+00  9.1463114092618E+00 
 0.0000000000000E+00  0.0000000000000E+00  0.0000000000000E+00  0.0000000000000E+00  0.0000000000000E+00  0.0000000000000E+00  0.0000000000000E+00  0.0000000000000E+00  0.0000000000000E+00  0.0000000000000E+00 
ZONE T = "SEP , 3.0000E-08", I = 10, SOLUTIONTIME = 3.000000E-08
ZONETYPE = ORDERED
DATAPACKING = BLOCK
STRANDID = 2
 9.6000000000000E-05  9.8777777777778E-05  1.0155555555556E-04  1.0433333333333E-04  1.0711111111111E-04  1.0988888888889E-04  1.1266666666667E-04  1.1544444444444E-04  1.1822222222222E-04  1.2100000000000E-04 
 1.8374427089610E-07  1.8345386313475E-07  1.8344791236885E-07  1.8344780717071E-07  1.8344780560184E-07  1.8344780572267E-07  1.8344785719768E-07  1.8344843883550E-07  1.8347595631419E-07  1.8279531060706E-07 
 8.4394679978242E-01  8.4394679999560E-01  8.4394679999993E-01  8.4394680000000E-01  8.4394680000000E-01  8.4394680000000E-01  8.4394680000000E-01  8.4394680000001E-01  8.4394680000042E-01  8.4394680002066E-01 
 7.8026600108790E-02  7.8026600002201E-02  7.8026600000037E-02  7.8026600000001E-02  7.8026600000000E-02  7.8026600000000E-02  7.8026600000000E-02  7.8026599999996E-02  7.8026599999791E-02  7.8026599989671E-02 
 7.8026600108790E-02  7.8026600002201E-02  7.8026600000037E-02  7.8026600000001E-02  7.8026600000000E-02  7.8026600000000E-02  7.8026600000000E-02  7.8026599999996E-02  7.8026599999791E-02  7.8026599989671E-02 
 1.3953380819931E-02  1.3953338475897E-02  1.3953296131862E-02  1.3953253787828E-02  1.3953211443794E-02  1.3953169099759E-02  1.3953126755725E-02  1.3953084411691E-02  1.3953042067656E-02  1.3952999723622E-02 
 2.9814999998475E+02  2.9814999999147E+02  2.9814999999393E+02  2.9814999999362E+02  2.9814999999130E+02  2.9814999998598E+02  2.9814999997961E+02  2.9814999997276E+02  2.9814999996269E+02  2.9814999995259E+02 
 6.5000471412550E-01  6.5000471412551E-01  6.5000471412550E-01  6.5000471412550E-01  6.5000471412551E-01  6.5000471412550E-01  6.5000471412551E-01  6.5000471412550E-01  6.5000471412550E-01  6.5000471412551E-01 
 1.3888888888889E-06  2.7777777777778E-06  2.7777777777778E-06  2.7777777777778E-06  2.7777777777778E-06  2.7777777777778E-06  2.7777777777778E-06  2.7777777777778E-06  2.7777777777778E-06  1.3888888888889E-06 
 2.4999528587450E-01  2.4999528587449E-01  2.4999528587450E-01  2.4999528587450E-01  2.4999528587449E-01  2.4999528587450E-01  2.4999528587449E-01  2.4999528587450E-01  2.4999528587450E-01  2.4999528587449E-01 
 1.0000000000000E-01  1.0000000000000E-01  1.0000000000000E-01  1.0000000000000E-01  1.0000000000000E-01  1.0000000000000E-01  1.0000000000000E-01  1.0000000000000E-01  1.0000000000000E-01  1.0000000000000E-01 
 2.7438955549062E-07  2.7438939347793E-07  2.7438924861473E-07  2.7438926576901E-07  2.7438938794275E-07  2.7438937691932E-07  2.7438939969147E-07  2.7438941071831E-07  2.7438924863333E-07  2.7438923148604E-07 
 9.1463114018411E+00  9.1463114057110E+00  9.1463114094926E+00  9.1463114094232E+00  9.1463114095007E+00  9.1463114096490E+00  9.1463114090905E+00  9.1463114089400E+00  9.1463114092549E+00  9.1463114090722E+00 
 9.1463114018411E+00  9.1463114057110E+00  9.1463114094926E+00  9.1463114094232E+00  9.1463114095007E+00  9.1463114096490E+00  9.1463114090905E+00  9.1463114089400E+00  9.1463114092549E+00  9.1463114090722E+00 
 0.0000000000000E+00  0.0000000000000E+00  0.0000000000000E+00  0.0000000000000E+00  0.0000000000000E+00  0.0000000000000E+00  0.0000000000000E+00  0.0000000000000E+00  0.0000000000000E+00  0.0000000000000E+00 
ZONE T = "SEP , 4.0000E-08", I = 10, SOLUTIONTIME = 4.000000E-08
ZONETYPE = ORDERED
DATAPACKING = BLOCK
STRANDID = 2
 9.6000000000000E-05  9.8777777777778E-05  1.0155555555556E-04  1.0433333333333E-04  1.0711111111111E-04  1.0988888888889E-04  1.1266666666667E-04  1.1544444444444E-04  1.1822222222222E-04  1.2100000000000E-04 
 1.8383967020406E-07  1.8345752807983E-07  1.8344782604768E-07  1.8344758936903E-07  1.8344759002647E-07  1.8344759034065E-07  1.8344761727265E-07  1.8344851656327E-07  1.8348476249968E-07  1.8279693634019E-07 
 8.4394679971071E-01  8.4394679999273E-01  8.4394679999985E-01  8.4394680000000E-01  8.4394680000000E-01  8.4394680000000E-01  8.4394680000000E-01  8.4394680000001E-01  8.4394680000069E-01  8.4394680002744E-01 
 7.8026600144646E-02  7.8026600003637E-02  7.8026600000074E-02  7.8026600000001E-02  7.8026600000000E-02  7.8026600000000E-02  7.8026600000000E-02  7.8026599999993E-02  7.8026599999655E-02  7.8026599986278E-02 
 7.8026600144646E-02  7.8026600003637E-02  7.8026600000074E-02  7.8026600000001E-02  7.8026600000000E-02  7.8026600000000E-02  7.8026600000000E-02  7.8026599999993E-02  7.8026599999655E-02  7.8026599986278E-02 
 1.3953380438456E-02  1.3953338094422E-02  1.3953295750388E-02  1.3953253406354E-02  1.3953211062319E-02  1.3953168718285E-02  1.3953126374251E-02  1.3953084030216E-02  1.3953041686182E-02  1.3952999342148E-02 
 2.9814999996903E+02  2.9814999997934E+02  2.9814999998396E+02  2.9814999998454E+02  2.9814999998380E+02  2.9814999998193E+02  2.9814999997731E+02  2.9814999997044E+02  2.9814999996290E+02  2.9814999995303E+02 
 6.5000471412550E-01  6.5000471412551E-01  6.5000471412550E-01  6.5000471412550E-01  6.5000471412551E-01  6.5000471412550E-01  6.5000471412551E-01  6.5000471412550E-01  6.5000471412550E-01  6.5000471412551E-01 
 1.3888888888889E-06  2.7777777777778E-06  2.7777777777778E-06  2.7777777777778E-06  2.7777777777778E-06  2.7777777777778E-06  2.7777777777778E-06  2.7777777777778E-06  2.7777777777778E-06  1.3888888888889E-06 
 2.4999528587450E-01  2.4999528587449E-01  2.4999528587450E-01  2.4999528587450E-01  2.4999528587449E-01  2.4999528587450E-01  2.4999528587449E-01  2.4999528587450E-01  2.4999528587450E-01  2.4999528587449E-01 
 1.0000000000000E-01  1.0000000000000E-01  1.0000000000000E-01  1.0000000000000E-01  1.0000000000000E-01  1.0000000000000E-01  1.0000000000000E-01  1.0000000000000E-01  1.0000000000000E-01  1.0000000000000E-01 
 3.6585266948522E-07  3.6585250751782E-07  3.6585236270581E-07  3.6585237986224E-07  3.6585250203617E-07  3.6585249101344E-07  3.6585251377947E-07  3.6585252480443E-07  3.6585236272479E-07  3.6585234558185E-07 
 9.1463113994595E+00  9.1463114039884E+00  9.1463114091082E+00  9.1463114093230E+00  9.1463114093419E+00  9.1463114094117E+00  9.1463114087998E+00  9.1463114086122E+00  9.1463114091463E+00  9.1463114095811E+00 
 9.1463113994595E+00  9.1463114039884E+00  9.1463114091082E+00  9.1463114093230E+00  9.1463114093419E+00  9.1463114094117E+00  9.1463114087998E+00  9.1463114086122E+00  9.1463114091463E+00  9.1463114095811E+00 
 0.0000000000000E+00  0.0000000000000E+00  0.0000000000000E+00  0.0000000000000E+00  0.0000000000000E+00  0.0000000000000E+00  0.0000000000000E+00  0.0000000000000E+00  0.0000000000000E+00  0.0000000000000E+00 
ZONE T = "SEP , 5.5000E-08", I = 10, SOLUTIONTIME = 5.500000E-08
ZONETYPE = ORDERED
DATAPACKING = BLOCK
STRANDID = 2
 9.6000000000000E-05  9.8777777777778E-05  1.0155555555556E-04  1.0433333333333E-04  1.0711111111111E-04  1.0988888888889E-04  1.1266666666667E-04  1.1544444444444E-04  1.1822222222222E-04  1.2100000000000E-04 
 1.8397989200616E-07  1.8346524374146E-07  1.8344800531910E-07  1.8344756333705E-07  1.8344756228673E-07  1.8344756307595E-07  1.8344759637534E-07  1.8344920049799E-07  1.8349796716500E-07  1.8279959475852E-07 
 8.4394679960402E-01  8.4394679998692E-01  8.4394679999966E-01  8.4394679999999E-01  8.4394680000000E-01  8.4394680000000E-01  8.4394680000000E-01  8.4394680000003E-01  8.4394680000124E-01  8.4394680003752E-01 
 7.8026600197989E-02  7.8026600006538E-02  7.8026600000171E-02  7.8026600000004E-02  7.8026600000000E-02  7.8026600000000E-02  7.8026600000000E-02  7.8026599999984E-02  7.8026599999380E-02  7.8026599981240E-02 
 7.8026600197989E-02  7.8026600006538E-02  7.8026600000171E-02  7.8026600000004E-02  7.8026600000000E-02  7.8026600000000E-02  7.8026600000000E-02  7.8026599999984E-02  7.8026599999380E-02  7.8026599981240E-02 
 1.3953379991583E-02  1.3953337647549E-02  1.3953295303515E-02  1.3953252959481E-02  1.3953210615446E-02  1.3953168271412E-02  1.3953125927378E-02  1.3953083583343E-02  1.3953041239309E-02  1.3952998895275E-02 
 2.9814999994545E+02  2.9814999995899E+02  2.9814999996837E+02  2.9814999997340E+02  2.9814999997392E+02  2.9814999997205E+02  2.9814999996898E+02  2.9814999996411E+02  2.9814999995907E+02  2.9814999995368E+02 
 6.5000471412550E-01  6.5000471412551E-01  6.5000471412550E-01  6.5000471412550E-01  6.5000471412551E-01  6.5000471412550E-01  6.5000471412551E-01  6.5000471412550E-01  6.5000471412550E-01  6.5000471412551E-01 
 1.3888888888889E-06  2.7777777777778E-06  2.7777777777778E-06  2.7777777777778E-06  2.7777777777778E-06  2.7777777777778E-06  2.7777777777778E-06  2.7777777777778E-06  2.7777777777778E-06  1.3888888888889E-06 
 2.4999528587450E-01  2.4999528587449E-01  2.4999528587450E-01  2.4999528587450E-01  2.4999528587449E-01  2.4999528587450E-01  2.4999528587449E-01  2.4999528587450E-01  2.4999528587450E-01  2.4999528587449E-01 
 1.0000000000000E-01  1.0000000000000E-01  1.0000000000000E-01  1.0000000000000E-01  1.0000000000000E-01  1.0000000000000E-01  1.0000000000000E-01  1.0000000000000E-01  1.0000000000000E-01  1.0000000000000E-01 
 5.0304734040746E-07  5.0304717854280E-07  5.0304703383430E-07  5.0304705099639E-07  5.0304717316975E-07  5.0304716214774E-07  5.0304718491525E-07  5.0304719593071E-07  5.0304703386078E-07  5.0304701673234E-07 
 9.1463113948161E+00  9.1463114016657E+00  9.1463114085660E+00  9.1463114089432E+00  9.1463114089052E+00  9.1463114089534E+00  9.1463114090516E+00  9.1463114084183E+00  9.1463114090658E+00  9.1463114100321E+00 
 9.1463113948161E+00  9.1463114016657E+00  9.1463114085660E+00  9.1463114089432E+00  9.1463114089052E+00  9.1463114089534E+00  9.1463114090516E+00  9.1463114084183E+00  9.1463114090658E+00  9.1463114100321E+00 
 0.0000000000000E+00  0.0000000000000E+00  0.0000000000000E+00  0.0000000000000E+00  0.0000000000000E+00  0.0000000000000E+00  0.0000000000000E+00  0.0000000000000E+00  0.0000000000000E+00  0.0000000000000E+00 
ZONE T = "SEP , 7.7500E-08", I = 10, SOLUTIONTIME = 7.750000E-08
ZONETYPE = ORDERED
DATAPACKING = BLOCK
STRANDID = 2
 9.6000000000000E-05  9.8777777777778E-05  1.0155555555556E-04  1.0433333333333E-04  1.0711111111111E-04  1.0988888888889E-04  1.1266666666667E-04  1.1544444444444E-04  1.1822222222222E-04  1.2100000000000E-04 
 1.8418314725866E-07  1.8348092101439E-07  1.8344868033742E-07  1.8344754121070E-07  1.8344750625878E-07  1.8344750679432E-07  1.8344760047711E-07  1.8345067800850E-07  1.8351709892491E-07  1.8280353149700E-07 
 8.4394679944590E-01  8.4394679997505E-01  8.4394679999911E-01  8.4394679999997E-01  8.4394680000000E-01  8.4394680000000E-01  8.4394680000000E-01  8.4394680000008E-01  8.4394680000236E-01  8.4394680005242E-01 
 7.8026600277050E-02  7.8026600012475E-02  7.8026600000444E-02  7.8026600000014E-02  7.8026600000000E-02  7.8026600000000E-02  7.8026599999999E-02  7.8026599999958E-02  7.8026599998818E-02  7.8026599973792E-02 
 7.8026600277050E-02  7.8026600012475E-02  7.8026600000444E-02  7.8026600000014E-02  7.8026600000000E-02  7.8026600000000E-02  7.8026599999999E-02  7.8026599999958E-02  7.8026599998818E-02  7.8026599973792E-02 
 1.3953379202943E-02  1.3953336858909E-02  1.3953294514875E-02  1.3953252170841E-02  1.3953209826806E-02  1.3953167482772E-02  1.3953125138738E-02  1.3953082794703E-02  1.3953040450669E-02  1.3952998106635E-02 
 2.9814999991009E+02  2.9814999992838E+02  2.9814999994179E+02  2.9814999995118E+02  2.9814999995688E+02  2.9814999995916E+02  2.9814999995960E+02  2.9814999995901E+02  2.9814999995712E+02  2.9814999995465E+02 
 6.5000471412550E-01  6.5000471412551E-01  6.5000471412550E-01  6.5000471412550E-01  6.5000471412551E-01  6.5000471412550E-01  6.5000471412551E-01  6.5000471412550E-01  6.5000471412550E-01  6.5000471412551E-01 
 1.3888888888889E-06  2.7777777777778E-06  2.7777777777778E-06  2.7777777777778E-06  2.7777777777778E-06  2.7777777777778E-06  2.7777777777778E-06  2.7777777777778E-06  2.7777777777778E-06  1.3888888888889E-06 
 2.4999528587450E-01  2.4999528587449E-01  2.4999528587450E-01  2.4999528587450E-01  2.4999528587449E-01  2.4999528587450E-01  2.4999528587449E-01  2.4999528587450E-01  2.4999528587450E-01  2.4999528587449E-01 
 1.0000000000000E-01  1.0000000000000E-01  1.0000000000000E-01  1.0000000000000E-01  1.0000000000000E-01  1.0000000000000E-01  1.0000000000000E-01  1.0000000000000E-01  1.0000000000000E-01  1.0000000000000E-01 
 7.0883934663506E-07  7.0883918499154E-07  7.0883904050794E-07  7.0883905767930E-07  7.0883917985677E-07  7.0883916884134E-07  7.0883919160837E-07  7.0883920262338E-07  7.0883904056825E-07  7.0883902344662E-07 
 9.1463113878933E+00  9.1463113977217E+00  9.1463114077175E+00  9.1463114081293E+00  9.1463114083122E+00  9.1463114086045E+00  9.1463114085832E+00  9.1463114085633E+00  9.1463114092211E+00  9.1463114095237E+00 
 9.1463113878933E+00  9.1463113977217E+00  9.1463114077175E+00  9.1463114081293E+00  9.1463114083122E+00  9.1463114086045E+00  9.1463114085832E+00  9.1463114085633E+00  9.1463114092211E+00  9.1463114095237E+00 
 0.0000000000000E+00  0.0000000000000E+00  0.0000000000000E+00  0.0000000000000E+00  0.0000000000000E+00  0.0000000000000E+00  0.0000000000000E+00  0.0000000000000E+00  0.0000000000000E+00  0.0000000000000E+00 
ZONE T = "SEP , 1.1125E-07", I = 10, SOLUTIONTIME = 1.112500E-07
ZONETYPE = ORDERED
DATAPACKING = BLOCK
STRANDID = 2
 9.6000000000000E-05  9.8777777777778E-05  1.0155555555556E-04  1.0433333333333E-04  1.0711111111111E-04  1.0988888888889E-04  1.1266666666667E-04  1.1544444444444E-04  1.1822222222222E-04  1.2100000000000E-04 
 1.8447335081817E-07  1.8351264232267E-07  1.8345074539798E-07  1.8344760372840E-07  1.8344746992460E-07  1.8344748556243E-07  1.8344779910144E-07  1.8345364264334E-07  1.8354430234307E-07  1.8280973112016E-07 
 8.4394679921278E-01  8.4394679995068E-01  8.4394679999754E-01  8.4394679999989E-01  8.4394680000000E-01  8.4394680000000E-01  8.4394680000001E-01  8.4394680000023E-01  8.4394680000466E-01  8.4394680007430E-01 
 7.8026600393608E-02  7.8026600024660E-02  7.8026600001229E-02  7.8026600000053E-02  7.8026600000002E-02  7.8026600000000E-02  7.8026599999995E-02  7.8026599999884E-02  7.8026599997668E-02  7.8026599962849E-02 
 7.8026600393608E-02  7.8026600024660E-02  7.8026600001229E-02  7.8026600000053E-02  7.8026600000002E-02  7.8026600000000E-02  7.8026599999995E-02  7.8026599999884E-02  7.8026599997668E-02  7.8026599962849E-02 
 1.3953378019998E-02  1.3953335675964E-02  1.3953293331930E-02  1.3953250987895E-02  1.3953208643861E-02  1.3953166299827E-02  1.3953123955793E-02  1.3953081611758E-02  1.3953039267724E-02  1.3952996923690E-02 
 2.9814999985708E+02  2.9814999988215E+02  2.9814999990206E+02  2.9814999991773E+02  2.9814999992922E+02  2.9814999993776E+02  2.9814999994398E+02  2.9814999994860E+02  2.9814999995255E+02  2.9814999995610E+02 
 6.5000471412550E-01  6.5000471412551E-01  6.5000471412550E-01  6.5000471412550E-01  6.5000471412551E-01  6.5000471412550E-01  6.5000471412551E-01  6.5000471412550E-01  6.5000471412550E-01  6.5000471412551E-01 
 1.3888888888889E-06  2.7777777777778E-06  2.7777777777778E-06  2.7777777777778E-06  2.7777777777778E-06  2.7777777777778E-06  2.7777777777778E-06  2.7777777777778E-06  2.7777777777778E-06  1.3888888888889E-06 
 2.4999528587450E-01  2.4999528587449E-01  2.4999528587450E-01  2.4999528587450E-01  2.4999528587449E-01  2.4999528587450E-01  2.4999528587449E-01  2.4999528587450E-01  2.4999528587450E-01  2.4999528587449E-01 
 1.0000000000000E-01  1.0000000000000E-01  1.0000000000000E-01  1.0000000000000E-01  1.0000000000000E-01  1.0000000000000E-01  1.0000000000000E-01  1.0000000000000E-01  1.0000000000000E-01  1.0000000000000E-01 
 1.0175273556542E-06  1.0175271944642E-06  1.0175270504610E-06  1.0175270676635E-06  1.0175271898653E-06  1.0175271788661E-06  1.0175272016263E-06  1.0175272126463E-06  1.0175270506448E-06  1.0175270335689E-06 
 9.1463113783445E+00  9.1463113917822E+00  9.1463114060165E+00  9.1463114069394E+00  9.1463114076597E+00  9.1463114081404E+00  9.1463114079400E+00  9.1463114080860E+00  9.1463114096743E+00  9.1463114110295E+00 
 9.1463113783445E+00  9.1463113917822E+00  9.1463114060165E+00  9.1463114069394E+00  9.1463114076597E+00  9.1463114081404E+00  9.1463114079400E+00  9.1463114080860E+00  9.1463114096743E+00  9.1463114110295E+00 
 0.0000000000000E+00  0.0000000000000E+00  0.0000000000000E+00  0.0000000000000E+00  0.0000000000000E+00  0.0000000000000E+00  0.0000000000000E+00  0.0000000000000E+00  0.0000000000000E+00  0.0000000000000E+00 
ZONE T = "SEP , 1.6188E-07", I = 10, SOLUTIONTIME = 1.618750E-07
ZONETYPE = ORDERED
DATAPACKING = BLOCK
STRANDID = 2
 9.6000000000000E-05  9.8777777777778E-05  1.0155555555556E-04  1.0433333333333E-04  1.0711111111111E-04  1.0988888888889E-04  1.1266666666667E-04  1.1544444444444E-04  1.1822222222222E-04  1.2100000000000E-04 
 1.8487893772635E-07  1.8357542331039E-07  1.8345670002091E-07  1.8344816248872E-07  1.8344762997747E-07  1.8344766156544E-07  1.8344846554134E-07  1.8345966732515E-07  1.8358229098242E-07  1.8281931685612E-07 
 8.4394679887155E-01  8.4394679990108E-01  8.4394679999303E-01  8.4394679999957E-01  8.4394679999998E-01  8.4394680000000E-01  8.4394680000004E-01  8.4394680000066E-01  8.4394680000933E-01  8.4394680010620E-01 
 7.8026600564226E-02  7.8026600049458E-02  7.8026600003487E-02  7.8026600000216E-02  7.8026600000012E-02  7.8026600000000E-02  7.8026599999980E-02  7.8026599999671E-02  7.8026599995336E-02  7.8026599946899E-02 
 7.8026600564226E-02  7.8026600049458E-02  7.8026600003487E-02  7.8026600000216E-02  7.8026600000012E-02  7.8026600000000E-02  7.8026599999980E-02  7.8026599999671E-02  7.8026599995336E-02  7.8026599946899E-02 
 1.3953376245618E-02  1.3953333901584E-02  1.3953291557550E-02  1.3953249213515E-02  1.3953206869481E-02  1.3953164525447E-02  1.3953122181413E-02  1.3953079837378E-02  1.3953037493344E-02  1.3952995149310E-02 
 2.9814999977759E+02  2.9814999981149E+02  2.9814999984035E+02  2.9814999986505E+02  2.9814999988628E+02  2.9814999990479E+02  2.9814999992057E+02  2.9814999993401E+02  2.9814999994626E+02  2.9814999995825E+02 
 6.5000471412550E-01  6.5000471412551E-01  6.5000471412550E-01  6.5000471412550E-01  6.5000471412551E-01  6.5000471412550E-01  6.5000471412551E-01  6.5000471412550E-01  6.5000471412550E-01  6.5000471412551E-01 
 1.3888888888889E-06  2.7777777777778E-06  2.7777777777778E-06  2.7777777777778E-06  2.7777777777778E-06  2.7777777777778E-06  2.7777777777778E-06  2.7777777777778E-06  2.7777777777778E-06  1.3888888888889E-06 
 2.4999528587450E-01  2.4999528587449E-01  2.4999528587450E-01  2.4999528587450E-01  2.4999528587449E-01  2.4999528587450E-01  2.4999528587449E-01  2.4999528587450E-01  2.4999528587450E-01  2.4999528587449E-01 
 1.0000000000000E-01  1.0000000000000E-01  1.0000000000000E-01  1.0000000000000E-01  1.0000000000000E-01  1.0000000000000E-01  1.0000000000000E-01  1.0000000000000E-01  1.0000000000000E-01  1.0000000000000E-01 
 1.4805593684284E-06  1.4805592082024E-06  1.4805590652506E-06  1.4805590825549E-06  1.4805592047932E-06  1.4805591938407E-06  1.4805592166326E-06  1.4805592276799E-06  1.4805590657727E-06  1.4805590487708E-06 
 9.1463113634420E+00  9.1463113824831E+00  9.1463114032515E+00  9.1463114052624E+00  9.1463114059836E+00  9.1463114069065E+00  9.1463114075316E+00  9.1463114080722E+00  9.1463114099349E+00  9.1463114113970E+00 
 9.1463113634420E+00  9.1463113824831E+00  9.1463114032515E+00  9.1463114052624E+00  9.1463114059836E+00  9.1463114069065E+00  9.1463114075316E+00  9.1463114080722E+00  9.1463114099349E+00  9.1463114113970E+00 
 0.0000000000000E+00  0.0000000000000E+00  0.0000000000000E+00  0.0000000000000E+00  0.0000000000000E+00  0.0000000000000E+00  0.0000000000000E+00  0.0000000000000E+00  0.0000000000000E+00  0.0000000000000E+00 
ZONE T = "SEP , 2.3781E-07", I = 10, SOLUTIONTIME = 2.378125E-07
ZONETYPE = ORDERED
DATAPACKING = BLOCK
STRANDID = 2