TITLE = "Solution on Domain BulkDomain1D_0"
VARIABLES = "x [m]"  
"Vel_axial" 
"MF_sp(ECDMC)" 
"MF_sp(Li+)" 
"MF_sp(PF6-)" 
"Volt(Electroly)" 
"Volt(AnodeVolt)" 
"Temperature" 
"Potential Drop Electrode-Electrolyte [V]" 
"Surf_0 Equilibrium Potential Drop Electrode-Electrolyte [V]" 
"Overpotential_0 [V]" 
"Current Source [A/m^2]" 
"Li+ flux [kmol/m^2/s]" 
"Electrolyte Current [A/m^2]" 
"Electrode Current [A/m^2]" 
"CV Capacity discharged [A-s/m^2]" 
"Depth of discharge in CV [A-s/m^2]" 
"CV Capacity remaining [A-s/m^2]" 
"Initial CV capacity [A-s/m^2]" 
"Porosity []" 
"Surface Area [m2/m2] (area per area)" 
"Specific current (per particle area) [A/m^2]" 
"Control volume thickness [m]" 
"volFrac AnodeBinder []" 	"volFrac ExtraStuff []" 	"MoleDens Li_C6-bulk [kmol/m^3]" 
"MoleDens V_C6-bulk [kmol/m^3]" 
"qHeat_accum [J/m3]" 
"qHeat_step [W/m3]" 
"Joule_Lyte [W/m3]" 
"Joule_Solid [W/m3]" 
"electrodHeat [W/m3]" 
"OverpotHeat [W/m3]" 
"deltaSHeat [W/m3]" 

ZONE T = "ANOD, 0.0000E+00", I = 10, SOLUTIONTIME = 0.000000E+00
ZONETYPE = ORDERED
DATAPACKING = BLOCK
STRANDID = 1
 0.0000000000000E+00  1.0666666666667E-05  2.1333333333333E-05  3.2000000000000E-05  4.2666666666667E-05  5.3333333333333E-05  6.4000000000000E-05  7.4666666666667E-05  8.5333333333333E-05  9.6000000000000E-05 
 0.0000000000000E+00  0.0000000000000E+00  0.0000000000000E+00  0.0000000000000E+00  0.0000000000000E+00  0.0000000000000E+00  0.0000000000000E+00  0.0000000000000E+00  0.0000000000000E+00  0.0000000000000E+00 
 8.4394680000000E-01  8.4394680000000E-01  8.4394680000000E-01  8.4394680000000E-01  8.4394680000000E-01  8.4394680000000E-01  8.4394680000000E-01  8.4394680000000E-01  8.4394680000000E-01  8.4394680000000E-01 
 7.8026600000000E-02  7.8026600000000E-02  7.8026600000000E-02  7.8026600000000E-02  7.8026600000000E-02  7.8026600000000E-02  7.8026600000000E-02  7.8026600000000E-02  7.8026600000000E-02  7.8026600000000E-02 
 7.8026600000000E-02  7.8026600000000E-02  7.8026600000000E-02  7.8026600000000E-02  7.8026600000000E-02  7.8026600000000E-02  7.8026600000000E-02  7.8026600000000E-02  7.8026600000000E-02  7.8026600000000E-02 
-7.0000000000000E-02 -7.0000000000000E-02 -7.0000000000000E-02 -7.0000000000000E-02 -7.0000000000000E-02 -7.0000000000000E-02 -7.0000000000000E-02 -7.0000000000000E-02 -7.0000000000000E-02 -7.0000000000000E-02 
 0.0000000000000E+00  0.0000000000000E+00  0.0000000000000E+00  0.0000000000000E+00  0.0000000000000E+00  0.0000000000000E+00  0.0000000000000E+00  0.0000000000000E+00  0.0000000000000E+00  0.0000000000000E+00 
 2.9815000000000E+02  2.9815000000000E+02  2.9815000000000E+02  2.9815000000000E+02  2.9815000000000E+02  2.9815000000000E+02  2.9815000000000E+02  2.9815000000000E+02  2.9815000000000E+02  2.9815000000000E+02 
 7.0000000000000E-02  7.0000000000000E-02  7.0000000000000E-02  7.0000000000000E-02  7.0000000000000E-02  7.0000000000000E-02  7.0000000000000E-02  7.0000000000000E-02  7.0000000000000E-02  7.0000000000000E-02 
-2.4231113980255E-02 -2.4231113980255E-02 -2.4231113980255E-02 -2.4231113980255E-02 -2.4231113980254E-02 -2.4231113980255E-02 -2.4231113980255E-02 -2.4231113980254E-02 -2.4231113980254E-02 -2.4231113980254E-02 
 9.4231113980255E-02  9.4231113980255E-02  9.4231113980255E-02  9.4231113980255E-02  9.4231113980254E-02  9.4231113980255E-02  9.4231113980255E-02  9.4231113980254E-02  9.4231113980254E-02  9.4231113980254E-02 
 5.2595956578536E+02  1.0519191315707E+03  1.0519191315707E+03  1.0519191315707E+03  1.0519191315707E+03  1.0519191315707E+03  1.0519191315707E+03  1.0519191315707E+03  1.0519191315707E+03  5.2595956578534E+02 
-0.0000000000000E+00 -0.0000000000000E+00 -0.0000000000000E+00 -0.0000000000000E+00 -0.0000000000000E+00 -0.0000000000000E+00 -0.0000000000000E+00 -0.0000000000000E+00 -0.0000000000000E+00 -0.0000000000000E+00 
 0.0000000000000E+00  0.0000000000000E+00  0.0000000000000E+00  0.0000000000000E+00  0.0000000000000E+00  0.0000000000000E+00  0.0000000000000E+00  0.0000000000000E+00  0.0000000000000E+00  5.2595956578534E+02 
 5.2595956578536E+02 -0.0000000000000E+00 -0.0000000000000E+00 -0.0000000000000E+00 -0.0000000000000E+00 -0.0000000000000E+00 -0.0000000000000E+00 -0.0000000000000E+00 -0.0000000000000E+00  0.0000000000000E+00 
 0.0000000000000E+00  0.0000000000000E+00  0.0000000000000E+00  0.0000000000000E+00  0.0000000000000E+00  0.0000000000000E+00  0.0000000000000E+00  0.0000000000000E+00  0.0000000000000E+00  0.0000000000000E+00 
 1.4095380717934E+03  2.8190761435868E+03  2.8190761435868E+03  2.8190761435868E+03  2.8190761435868E+03  2.8190761435868E+03  2.8190761435868E+03  2.8190761435868E+03  2.8190761435868E+03  1.4095380717934E+03 
 5.6381522871735E+03  1.1276304574347E+04  1.1276304574347E+04  1.1276304574347E+04  1.1276304574347E+04  1.1276304574347E+04  1.1276304574347E+04  1.1276304574347E+04  1.1276304574347E+04  5.6381522871735E+03 
 7.0476903589669E+03  1.4095380717934E+04  1.4095380717934E+04  1.4095380717934E+04  1.4095380717934E+04  1.4095380717934E+04  1.4095380717934E+04  1.4095380717934E+04  1.4095380717934E+04  7.0476903589669E+03 
 4.0000000000000E-01  4.0000000000000E-01  4.0000000000000E-01  4.0000000000000E-01  4.0000000000000E-01  4.0000000000000E-01  4.0000000000000E-01  4.0000000000000E-01  4.0000000000000E-01  4.0000000000000E-01 
 9.4000000000000E-01  1.8800000000000E+00  1.8800000000000E+00  1.8800000000000E+00  1.8800000000000E+00  1.8800000000000E+00  1.8800000000000E+00  1.8800000000000E+00  1.8800000000000E+00  9.4000000000000E-01 
 5.5953145296315E+02  5.5953145296315E+02  5.5953145296315E+02  5.5953145296315E+02  5.5953145296313E+02  5.5953145296315E+02  5.5953145296315E+02  5.5953145296313E+02  5.5953145296313E+02  5.5953145296313E+02 
 5.3333333333333E-06  1.0666666666667E-05  1.0666666666667E-05  1.0666666666667E-05  1.0666666666667E-05  1.0666666666667E-05  1.0666666666667E-05  1.0666666666667E-05  1.0666666666667E-05  5.3333333333333E-06 
 3.0000000000000E-02  3.0000000000000E-02  3.0000000000000E-02  3.0000000000000E-02  3.0000000000000E-02  3.0000000000000E-02  3.0000000000000E-02  3.0000000000000E-02  3.0000000000000E-02  3.0000000000000E-02 
 1.0000000000000E-01  1.0000000000000E-01  1.0000000000000E-01  1.0000000000000E-01  1.0000000000000E-01  1.0000000000000E-01  1.0000000000000E-01  1.0000000000000E-01  1.0000000000000E-01  1.0000000000000E-01 
 1.0956624007712E+01  1.0956624007712E+01  1.0956624007712E+01  1.0956624007712E+01  1.0956624007712E+01  1.0956624007712E+01  1.0956624007712E+01  1.0956624007712E+01  1.0956624007712E+01  1.0956624007712E+01 
 2.7391560019279E+00  2.7391560019279E+00  2.7391560019279E+00  2.7391560019279E+00  2.7391560019279E+00  2.7391560019279E+00  2.7391560019279E+00  2.7391560019279E+00  2.7391560019279E+00  2.7391560019279E+00 
 0.0000000000000E+00  0.0000000000000E+00  0.0000000000000E+00  0.0000000000000E+00  0.0000000000000E+00  0.0000000000000E+00  0.0000000000000E+00  0.0000000000000E+00  0.0000000000000E+00  0.0000000000000E+00 
 0.0000000000000E+00  0.0000000000000E+00  0.0000000000000E+00  0.0000000000000E+00  0.0000000000000E+00  0.0000000000000E+00  0.0000000000000E+00  0.0000000000000E+00  0.0000000000000E+00  0.0000000000000E+00 
 0.0000000000000E+00  0.0000000000000E+00  0.0000000000000E+00  0.0000000000000E+00  0.0000000000000E+00  0.0000000000000E+00  0.0000000000000E+00  0.0000000000000E+00  0.0000000000000E+00  0.0000000000000E+00 
 0.0000000000000E+00  0.0000000000000E+00  0.0000000000000E+00  0.0000000000000E+00  0.0000000000000E+00  0.0000000000000E+00  0.0000000000000E+00  0.0000000000000E+00  0.0000000000000E+00  0.0000000000000E+00 
 0.0000000000000E+00  0.0000000000000E+00  0.0000000000000E+00  0.0000000000000E+00  0.0000000000000E+00  0.0000000000000E+00  0.0000000000000E+00  0.0000000000000E+00  0.0000000000000E+00  0.0000000000000E+00 
 0.0000000000000E+00  0.0000000000000E+00  0.0000000000000E+00  0.0000000000000E+00  0.0000000000000E+00  0.0000000000000E+00  0.0000000000000E+00  0.0000000000000E+00  0.0000000000000E+00  0.0000000000000E+00 
 0.0000000000000E+00  0.0000000000000E+00  0.0000000000000E+00  0.0000000000000E+00  0.0000000000000E+00  0.0000000000000E+00  0.0000000000000E+00  0.0000000000000E+00  0.0000000000000E+00  0.0000000000000E+00 
ZONE T = "ANOD, 1.0000E-08", I = 10, SOLUTIONTIME = 1.000000E-08
ZONETYPE = ORDERED
DATAPACKING = BLOCK
STRANDID = 1
 0.0000000000000E+00  1.0666666666667E-05  2.1333333333333E-05  3.2000000000000E-05  4.2666666666667E-05  5.3333333333333E-05  6.4000000000000E-05  7.4666666666667E-05  8.5333333333333E-05  9.6000000000000E-05 
 1.0618274983760E-08  3.1582936825366E-08  5.2309213897004E-08  7.2829671806021E-08  9.3176799557883E-08  1.1338270336027E-07  1.3347912078609E-07  1.5349778538157E-07  1.7347547810687E-07  1.8354896184814E-07 
 8.4394679988890E-01  8.4394679989032E-01  8.4394679989157E-01  8.4394679989264E-01  8.4394679989355E-01  8.4394679989429E-01  8.4394679989486E-01  8.4394679989527E-01  8.4394679989553E-01  8.4394679992706E-01 
 7.8026600055550E-02  7.8026600054841E-02  7.8026600054217E-02  7.8026600053679E-02  7.8026600053226E-02  7.8026600052856E-02  7.8026600052570E-02  7.8026600052366E-02  7.8026600052236E-02  7.8026600036470E-02 
 7.8026600055550E-02  7.8026600054841E-02  7.8026600054217E-02  7.8026600053679E-02  7.8026600053226E-02  7.8026600052856E-02  7.8026600052570E-02  7.8026600052366E-02  7.8026600052236E-02  7.8026600036470E-02 
 1.3953354764112E-02  1.3953335268390E-02  1.3953277279757E-02  1.3953181235888E-02  1.3953047514519E-02  1.3952876433794E-02  1.3952668253160E-02  1.3952423173571E-02  1.3952141338077E-02  1.3951822831681E-02 
 0.0000000000000E+00 -1.2973559970222E-04 -2.4373406793289E-04 -3.4217435245530E-04 -4.2521084537377E-04 -4.9297365246865E-04 -5.4556882149198E-04 -5.8307852674763E-04 -6.0556121167756E-04 -6.1305169123799E-04 
 2.9814999998226E+02  2.9814999994924E+02  2.9814999998257E+02  2.9814999998268E+02  2.9814999998279E+02  2.9814999998286E+02  2.9814999998293E+02  2.9814999998297E+02  2.9815000001619E+02  2.9814999994982E+02 
-1.3953354764112E-02 -1.4083070868092E-02 -1.4197011347690E-02 -1.4295355588343E-02 -1.4378258359893E-02 -1.4445850086262E-02 -1.4498237074652E-02 -1.4535501700318E-02 -1.4557702549755E-02 -1.4564874522919E-02 
-2.4231113582289E-02 -2.4231113574914E-02 -2.4231113591798E-02 -2.4231113595642E-02 -2.4231113598867E-02 -2.4231113601499E-02 -2.4231113603544E-02 -2.4231113604994E-02 -2.4231113618311E-02 -2.4231113598870E-02 
 1.0277758818177E-02  1.0148042706822E-02  1.0034102244108E-02  9.9357580072989E-03  9.8528552389743E-03  9.7852635152371E-03  9.7328765288928E-03  9.6956119046753E-03  9.6734110685559E-03  9.6662390759511E-03 
 3.4733746544274E+01  6.8579300036638E+01  6.7799487014165E+01  6.7126683269334E+01  6.6559710548444E+01  6.6097578465344E+01  6.5739481562693E+01  6.5484796810086E+01  6.5333081856772E+01  3.2642036309205E+01 
 1.7996839049687E-07  5.3529860684630E-07  8.8658863449232E-07  1.2343917434011E-06  1.5792580595023E-06  1.9217293957317E-06  2.2623457182133E-06  2.6016415595358E-06  2.9402004910668E-06  2.9402004910668E-06 
 0.0000000000000E+00  6.9012385949146E+01  1.3719092821327E+02  2.0464321462182E+02  2.7147570655940E+02  3.3779376019280E+02  4.0370175142685E+02  4.6930335116187E+02  5.3470183299020E+02  6.0000525612840E+02 
 6.0000554073331E+02  5.3098761712919E+02  4.6280911021975E+02  3.9535680192297E+02  3.2852428738394E+02  2.6220624586259E+02  1.9629825609071E+02  1.3069660954946E+02  6.5298131383663E+01  0.0000000000000E+00 
 3.4733746544274E-07  6.8579300036638E-07  6.7799487014165E-07  6.7126683269334E-07  6.6559710548444E-07  6.6097578465344E-07  6.5739481562693E-07  6.5484796810086E-07  6.5333081856772E-07  3.2642036309205E-07 
 1.4095380721407E+03  2.8190761442726E+03  2.8190761442648E+03  2.8190761442580E+03  2.8190761442524E+03  2.8190761442477E+03  2.8190761442442E+03  2.8190761442416E+03  2.8190761442401E+03  1.4095380721198E+03 
 5.6381522868262E+03  1.1276304573661E+04  1.1276304573669E+04  1.1276304573676E+04  1.1276304573681E+04  1.1276304573686E+04  1.1276304573690E+04  1.1276304573692E+04  1.1276304573694E+04  5.6381522868471E+03 
 7.0476903589669E+03  1.4095380717934E+04  1.4095380717934E+04  1.4095380717934E+04  1.4095380717934E+04  1.4095380717934E+04  1.4095380717934E+04  1.4095380717934E+04  1.4095380717934E+04  7.0476903589669E+03 
 4.0000000000000E-01  4.0000000000000E-01  4.0000000000000E-01  4.0000000000000E-01  4.0000000000000E-01  4.0000000000000E-01  4.0000000000000E-01  4.0000000000000E-01  4.0000000000000E-01  4.0000000000000E-01 
 9.4000000000000E-01  1.8800000000000E+00  1.8800000000000E+00  1.8800000000000E+00  1.8800000000000E+00  1.8800000000000E+00  1.8800000000000E+00  1.8800000000000E+00  1.8800000000000E+00  9.4000000000000E-01 
 3.6950794196037E+01  3.6478351083318E+01  3.6063556922428E+01  3.5705682590071E+01  3.5404101355556E+01  3.5158286417736E+01  3.4967809341858E+01  3.4832338728769E+01  3.4751639285517E+01  3.4725570541708E+01 
 5.3333333333333E-06  1.0666666666667E-05  1.0666666666667E-05  1.0666666666667E-05  1.0666666666667E-05  1.0666666666667E-05  1.0666666666667E-05  1.0666666666667E-05  1.0666666666667E-05  5.3333333333333E-06 
 3.0000000000000E-02  3.0000000000000E-02  3.0000000000000E-02  3.0000000000000E-02  3.0000000000000E-02  3.0000000000000E-02  3.0000000000000E-02  3.0000000000000E-02  3.0000000000000E-02  3.0000000000000E-02 
 1.0000000000000E-01  1.0000000000000E-01  1.0000000000000E-01  1.0000000000000E-01  1.0000000000000E-01  1.0000000000000E-01  1.0000000000000E-01  1.0000000000000E-01  1.0000000000000E-01  1.0000000000000E-01 
 1.0956624007037E+01  1.0956624007045E+01  1.0956624007053E+01  1.0956624007059E+01  1.0956624007065E+01  1.0956624007069E+01  1.0956624007073E+01  1.0956624007075E+01  1.0956624007077E+01  1.0956624007077E+01 
 2.7391560026029E+00  2.7391560025942E+00  2.7391560025867E+00  2.7391560025801E+00  2.7391560025746E+00  2.7391560025701E+00  2.7391560025666E+00  2.7391560025642E+00  2.7391560025627E+00  2.7391560025622E+00 
-6.5432080014425E-03 -6.4748405280336E-03 -6.4223418865412E-03 -6.3767869160265E-03 -6.3382102072314E-03 -6.3066399006648E-03 -6.2820982588056E-03 -6.2646021159808E-03 -6.2541632403237E-03 -6.2508090892423E-03 
-6.5432080014425E+05 -6.4748405280336E+05 -6.4223418865412E+05 -6.3767869160265E+05 -6.3382102072314E+05 -6.3066399006648E+05 -6.2820982588056E+05 -6.2646021159808E+05 -6.2541632403237E+05 -6.2508090892423E+05 
 6.3473571485264E-02  3.1251928336894E-01  1.0510181183689E+00  2.2633254216974E+00  3.9370068910685E+00  6.0627202065976E+00  8.6341224281859E+00  1.1647795103037E+01  1.5103201458789E+01  1.6941451334908E+01 
 6.8752383012996E+03  6.0918424943753E+03  4.6334027038273E+03  3.3874218027640E+03  2.3460683149254E+03  1.5028033597755E+03  8.5233776597001E+02  3.9059737489650E+02  1.1469641200733E+02  2.2918631137184E+01 
-6.6119610191912E+05 -6.5357620781702E+05 -6.4686864237606E+05 -6.4106837673084E+05 -6.3617102604496E+05 -6.3217285614646E+05 -6.2907079776896E+05 -6.2686245676808E+05 -6.2554612364584E+05 -6.2512076900670E+05 
 6.6934700712968E+04  6.5244906263832E+04  6.3778779938344E+04  6.2526982685902E+04  6.1481549432656E+04  6.0635833514328E+04  5.9984461711952E+04  5.9523297811524E+04  5.9249414840625E+04  5.9161073865497E+04 
-7.2813080263208E+05 -7.1882111408085E+05 -7.1064742231441E+05 -7.0359535941674E+05 -6.9765257547762E+05 -6.9280868966079E+05 -6.8905525948091E+05 -6.8638575457960E+05 -6.8479553848646E+05 -6.8428184287220E+05 
ZONE T = "ANOD, 2.0000E-08", I = 10, SOLUTIONTIME = 2.000000E-08
ZONETYPE = ORDERED
DATAPACKING = BLOCK
STRANDID = 1
 0.0000000000000E+00  1.0666666666667E-05  2.1333333333333E-05  3.2000000000000E-05  4.2666666666667E-05  5.3333333333333E-05  6.4000000000000E-05  7.4666666666667E-05  8.5333333333333E-05  9.6000000000000E-05 
 1.0618565190974E-08  3.1583190686555E-08  5.2309244323629E-08  7.2829710154573E-08  9.3176707010464E-08  1.1338247015116E-07  1.3347893348478E-07  1.5349714006722E-07  1.7348025616614E-07  1.8364680898104E-07 
 8.4394679977780E-01  8.4394679978064E-01  8.4394679978313E-01  8.4394679978528E-01  8.4394679978710E-01  8.4394679978858E-01  8.4394679978972E-01  8.4394679979054E-01  8.4394679979107E-01  8.4394679985454E-01 
 7.8026600111100E-02  7.8026600109682E-02  7.8026600108435E-02  7.8026600107358E-02  7.8026600106452E-02  7.8026600105712E-02  7.8026600105140E-02  7.8026600104732E-02  7.8026600104463E-02  7.8026600072732E-02 
 7.8026600111100E-02  7.8026600109682E-02  7.8026600108435E-02  7.8026600107358E-02  7.8026600106452E-02  7.8026600105712E-02  7.8026600105140E-02  7.8026600104732E-02  7.8026600104463E-02  7.8026600072732E-02 
 1.3954913130424E-02  1.3954893634588E-02  1.3954835645691E-02  1.3954739601501E-02  1.3954605879714E-02  1.3954434798615E-02  1.3954226617634E-02  1.3953981537796E-02  1.3953699702077E-02  1.3953381195644E-02 
 0.0000000000000E+00 -1.2973555314912E-04 -2.4373391153624E-04 -3.4217404891259E-04 -4.2521037941300E-04 -4.9297302800585E-04 -5.4556805782236E-04 -5.8307765503738E-04 -6.0556027187692E-04 -6.1305072815367E-04 
 2.9814999996578E+02  2.9814999993295E+02  2.9814999996640E+02  2.9814999996664E+02  2.9814999996683E+02  2.9814999996699E+02  2.9814999996711E+02  2.9814999996721E+02  2.9815000000044E+02  2.9814999993412E+02 
-1.3954913130424E-02 -1.4084629187737E-02 -1.4198569557227E-02 -1.4296913650414E-02 -1.4379816259127E-02 -1.4447407826621E-02 -1.4499794675456E-02 -1.4537059192834E-02 -1.4559259973954E-02 -1.4566431923798E-02 
-2.4231113184864E-02 -2.4231113182556E-02 -2.4231113203881E-02 -2.4231113211548E-02 -2.4231113218008E-02 -2.4231113223278E-02 -2.4231113227362E-02 -2.4231113230260E-02 -2.4231113244442E-02 -2.4231113230548E-02 
 1.0276200054440E-02  1.0146483994818E-02  1.0032543646654E-02  9.9341995611347E-03  9.8512969588804E-03  9.7837053966567E-03  9.7313185519061E-03  9.6940540374263E-03  9.6718532704879E-03  9.6646813067505E-03 
 3.4728408647764E+01  6.8568629882907E+01  6.7788822230182E+01  6.7116023436107E+01  6.6549055121116E+01  6.6086926787680E+01  6.5728832890401E+01  6.5474150330279E+01  6.5322436706252E+01  3.2636713967298E+01 
 1.7997159845415E-07  5.3530294812865E-07  8.8659322887812E-07  1.2343969812037E-06  1.5792626323082E-06  1.9217334761413E-06  2.2623486322894E-06  2.6016440709897E-06  2.9402493619595E-06  2.9402493619595E-06 
 0.0000000000000E+00  6.9012723590040E+01  1.3719144964620E+02  2.0464387247849E+02  2.7147641175701E+02  3.3779440271188E+02  4.0370228255134E+02  4.6930377416238E+02  5.3470206767871E+02  5.9999999999747E+02 
 6.0000000000000E+02  5.3098727641078E+02  4.6280855035423E+02  3.9535612752107E+02  3.2852358824245E+02  2.6220559728805E+02  1.9629771744901E+02  1.3069622583867E+02  6.5297932320410E+01  0.0000000000000E+00 
 6.9462155192038E-07  1.3714792991955E-06  1.3558830924435E-06  1.3424270670544E-06  1.3310876566956E-06  1.3218450525302E-06  1.3146831445309E-06  1.3095894714037E-06  1.3065551856302E-06  6.5278750276503E-07 
 1.4095380724880E+03  2.8190761449582E+03  2.8190761449426E+03  2.8190761449292E+03  2.8190761449179E+03  2.8190761449086E+03  2.8190761449015E+03  2.8190761448964E+03  2.8190761448933E+03  1.4095380724462E+03 
 5.6381522864789E+03  1.1276304572976E+04  1.1276304572991E+04  1.1276304573005E+04  1.1276304573016E+04  1.1276304573025E+04  1.1276304573032E+04  1.1276304573037E+04  1.1276304573041E+04  5.6381522865207E+03 
 7.0476903589669E+03  1.4095380717934E+04  1.4095380717934E+04  1.4095380717934E+04  1.4095380717934E+04  1.4095380717934E+04  1.4095380717934E+04  1.4095380717934E+04  1.4095380717934E+04  7.0476903589669E+03 
 4.0000000000000E-01  4.0000000000000E-01  4.0000000000000E-01  4.0000000000000E-01  4.0000000000000E-01  4.0000000000000E-01  4.0000000000000E-01  4.0000000000000E-01  4.0000000000000E-01  4.0000000000000E-01 
 9.4000000000000E-01  1.8800000000000E+00  1.8800000000000E+00  1.8800000000000E+00  1.8800000000000E+00  1.8800000000000E+00  1.8800000000000E+00  1.8800000000000E+00  1.8800000000000E+00  9.4000000000000E-01 
 3.6945115582727E+01  3.6472675469632E+01  3.6057884164991E+01  3.5700012466014E+01  3.5398433575062E+01  3.5152620631745E+01  3.4962145154469E+01  3.4826675707596E+01  3.4745976971411E+01  3.4719908475849E+01 
 5.3333333333333E-06  1.0666666666667E-05  1.0666666666667E-05  1.0666666666667E-05  1.0666666666667E-05  1.0666666666667E-05  1.0666666666667E-05  1.0666666666667E-05  1.0666666666667E-05  5.3333333333333E-06 
 3.0000000000000E-02  3.0000000000000E-02  3.0000000000000E-02  3.0000000000000E-02  3.0000000000000E-02  3.0000000000000E-02  3.0000000000000E-02  3.0000000000000E-02  3.0000000000000E-02  3.0000000000000E-02 
 1.0000000000000E-01  1.0000000000000E-01  1.0000000000000E-01  1.0000000000000E-01  1.0000000000000E-01  1.0000000000000E-01  1.0000000000000E-01  1.0000000000000E-01  1.0000000000000E-01  1.0000000000000E-01 
 1.0956624006362E+01  1.0956624006379E+01  1.0956624006394E+01  1.0956624006407E+01  1.0956624006418E+01  1.0956624006427E+01  1.0956624006434E+01  1.0956624006439E+01  1.0956624006442E+01  1.0956624006443E+01 
 2.7391560032777E+00  2.7391560032605E+00  2.7391560032453E+00  2.7391560032323E+00  2.7391560032212E+00  2.7391560032123E+00  2.7391560032053E+00  2.7391560032004E+00  2.7391560031974E+00  2.7391560031965E+00 
-1.3085501419976E-02 -1.2948764437598E-02 -1.2843765414876E-02 -1.2752653974715E-02 -1.2675499295715E-02 -1.2612357655712E-02 -1.2563273577362E-02 -1.2528280727231E-02 -1.2507402640045E-02 -1.2500694232527E-02 
-6.5422934185335E+05 -6.4739239095642E+05 -6.4214235283350E+05 -6.3758670586883E+05 -6.3372890884837E+05 -6.3057177550475E+05 -6.2811753185566E+05 -6.2636786112499E+05 -6.2532393997209E+05 -6.2498851432849E+05 
 1.2694788628455E-01  6.2504150374808E-01  2.1020439422930E+00  4.5266653191223E+00  7.8740337915164E+00  1.2125463173203E+01  1.7268267113175E+01  2.3295611023904E+01  3.0206415536014E+01  3.3882906612327E+01 
 1.3750471668509E+04  1.2183677406739E+04  9.2667943758376E+03  6.7748321796829E+03  4.6921267335785E+03  3.0055993415569E+03  1.7046708858366E+03  7.8119246908527E+02  2.2939212745304E+02  4.5837119792401E+01 
-6.6110463869487E+05 -6.5348453839101E+05 -6.4677679553133E+05 -6.4097637958564E+05 -6.3607890429392E+05 -6.3208063422950E+05 -6.2897849912022E+05 -6.2677010403510E+05 -6.2545373890161E+05 -6.2502837427243E+05 
 6.6914264150996E+04  6.5224735021101E+04  6.3758842405290E+04  6.2507247351599E+04  6.1461984890378E+04  6.0616408444786E+04  5.9965144878675E+04  5.9504058045521E+04  5.9230221020340E+04  5.9141894959350E+04 
-7.2801890284587E+05 -7.1870927341211E+05 -7.1053563793662E+05 -7.0348362693724E+05 -6.9754088918430E+05 -6.9269704267429E+05 -6.8894364399889E+05 -6.8627416208063E+05 -6.8468395992195E+05 -6.8417026923177E+05 
ZONE T = "ANOD, 3.0000E-08", I = 10, SOLUTIONTIME = 3.000000E-08
ZONETYPE = ORDERED
DATAPACKING = BLOCK
STRANDID = 1
 0.0000000000000E+00  1.0666666666667E-05  2.1333333333333E-05  3.2000000000000E-05  4.2666666666667E-05  5.3333333333333E-05  6.4000000000000E-05  7.4666666666667E-05  8.5333333333333E-05  9.6000000000000E-05 
 1.0618781908925E-08  3.1583159758115E-08  5.2309331959892E-08  7.2829649778396E-08  9.3176820684189E-08  1.1338248554895E-07  1.3347887026979E-07  1.5349719199292E-07  1.7348593585529E-07  1.8374416409138E-07 
 8.4394679966670E-01  8.4394679967095E-01  8.4394679967470E-01  8.4394679967792E-01  8.4394679968065E-01  8.4394679968286E-01  8.4394679968458E-01  8.4394679968580E-01  8.4394679968664E-01  8.4394679978242E-01 
 7.8026600166649E-02  7.8026600164523E-02  7.8026600162652E-02  7.8026600161038E-02  7.8026600159677E-02  7.8026600158569E-02  7.8026600157710E-02  7.8026600157098E-02  7.8026600156682E-02  7.8026600108790E-02 
 7.8026600166649E-02  7.8026600164523E-02  7.8026600162652E-02  7.8026600161038E-02  7.8026600159677E-02  7.8026600158569E-02  7.8026600157710E-02  7.8026600157098E-02  7.8026600156682E-02  7.8026600108790E-02 
 1.3954912748946E-02  1.3954893253110E-02  1.3954835264213E-02  1.3954739220024E-02  1.3954605498237E-02  1.3954434417138E-02  1.3954226236157E-02  1.3953981156320E-02  1.3953699320600E-02  1.3953380814168E-02 
 0.0000000000000E+00 -1.2973555316164E-04 -2.4373391157838E-04 -3.4217404899457E-04 -4.2521037953907E-04 -4.9297302817532E-04 -5.4556805803047E-04 -5.8307765527627E-04 -6.0556027213650E-04 -6.1305072842254E-04 
 2.9814999994931E+02  2.9814999991667E+02  2.9814999995023E+02  2.9814999995058E+02  2.9814999995088E+02  2.9814999995112E+02  2.9814999995131E+02  2.9814999995145E+02  2.9814999998469E+02  2.9814999991843E+02 
-1.3954912748946E-02 -1.4084628806272E-02 -1.4198569175792E-02 -1.4296913269018E-02 -1.4379815877776E-02 -1.4447407445313E-02 -1.4499794294187E-02 -1.4537058811596E-02 -1.4559259592737E-02 -1.4566431542590E-02 
-2.4231112787434E-02 -2.4231112790191E-02 -2.4231112815959E-02 -2.4231112827464E-02 -2.4231112837156E-02 -2.4231112845055E-02 -2.4231112851172E-02 -2.4231112855537E-02 -2.4231112870578E-02 -2.4231112862292E-02 
 1.0276200038488E-02  1.0146483983920E-02  1.0032543640167E-02  9.9341995584461E-03  9.8512969593803E-03  9.7837053997416E-03  9.7313185569847E-03  9.6940540439414E-03  9.6718532778410E-03  9.6646813197018E-03 
 3.4728408593205E+01  6.8568629808410E+01  6.7788822185708E+01  6.7116023417481E+01  6.6549055124229E+01  6.6086926808391E+01  6.5728832924661E+01  6.5474150374227E+01  6.5322436755913E+01  3.2636714007763E+01 
 1.7997374975421E-07  5.3530484323358E-07  8.8659486362653E-07  1.2343983585192E-06  1.5792637548098E-06  1.9217343458155E-06  2.2623492508370E-06  2.6016445198936E-06  2.9402984845743E-06  2.9402984845743E-06 
 0.0000000000000E+00  6.9012723497876E+01  1.3719144949562E+02  2.0464387229570E+02  2.7147641156702E+02  3.3779440253233E+02  4.0370228239866E+02  4.6930377405020E+02  5.3470206761456E+02  5.9999999999927E+02 
 6.0000000000000E+02  5.3098727650259E+02  4.6280855050553E+02  3.9535612770393E+02  3.2852358843308E+02  2.6220559746677E+02  1.9629771760024E+02  1.3069622595080E+02  6.5297932385726E+01  0.0000000000000E+00 
 1.0419056378524E-06  2.0571655972795E-06  2.0337713143005E-06  2.0135873012292E-06  1.9965782079379E-06  1.9827143206141E-06  1.9719714737776E-06  1.9643309751459E-06  1.9597795531894E-06  9.7915464284265E-07 
 1.4095380728353E+03  2.8190761456439E+03  2.8190761456205E+03  2.8190761456004E+03  2.8190761455833E+03  2.8190761455695E+03  2.8190761455587E+03  2.8190761455511E+03  2.8190761455465E+03  1.4095380727725E+03 
 5.6381522861316E+03  1.1276304572290E+04  1.1276304572313E+04  1.1276304572333E+04  1.1276304572350E+04  1.1276304572364E+04  1.1276304572375E+04  1.1276304572383E+04  1.1276304572387E+04  5.6381522861944E+03 
 7.0476903589669E+03  1.4095380717934E+04  1.4095380717934E+04  1.4095380717934E+04  1.4095380717934E+04  1.4095380717934E+04  1.4095380717934E+04  1.4095380717934E+04  1.4095380717934E+04  7.0476903589669E+03 
 4.0000000000000E-01  4.0000000000000E-01  4.0000000000000E-01  4.0000000000000E-01  4.0000000000000E-01  4.0000000000000E-01  4.0000000000000E-01  4.0000000000000E-01  4.0000000000000E-01  4.0000000000000E-01 
 9.4000000000000E-01  1.8800000000000E+00  1.8800000000000E+00  1.8800000000000E+00  1.8800000000000E+00  1.8800000000000E+00  1.8800000000000E+00  1.8800000000000E+00  1.8800000000000E+00  9.4000000000000E-01 
 3.6945115524687E+01  3.6472675430005E+01  3.6057884141334E+01  3.5700012456107E+01  3.5398433576718E+01  3.5152620642761E+01  3.4962145172692E+01  3.4826675730972E+01  3.4745976997826E+01  3.4719908518897E+01 
 5.3333333333333E-06  1.0666666666667E-05  1.0666666666667E-05  1.0666666666667E-05  1.0666666666667E-05  1.0666666666667E-05  1.0666666666667E-05  1.0666666666667E-05  1.0666666666667E-05  5.3333333333333E-06 
 3.0000000000000E-02  3.0000000000000E-02  3.0000000000000E-02  3.0000000000000E-02  3.0000000000000E-02  3.0000000000000E-02  3.0000000000000E-02  3.0000000000000E-02  3.0000000000000E-02  3.0000000000000E-02 
 1.0000000000000E-01  1.0000000000000E-01  1.0000000000000E-01  1.0000000000000E-01  1.0000000000000E-01  1.0000000000000E-01  1.0000000000000E-01  1.0000000000000E-01  1.0000000000000E-01  1.0000000000000E-01 
 1.0956624005687E+01  1.0956624005713E+01  1.0956624005735E+01  1.0956624005755E+01  1.0956624005772E+01  1.0956624005785E+01  1.0956624005795E+01  1.0956624005803E+01  1.0956624005807E+01  1.0956624005809E+01 
 2.7391560039526E+00  2.7391560039267E+00  2.7391560039040E+00  2.7391560038844E+00  2.7391560038679E+00  2.7391560038544E+00  2.7391560038440E+00  2.7391560038365E+00  2.7391560038321E+00  2.7391560038307E+00 
-1.9627794825711E-02 -1.9422688337391E-02 -1.9265188936073E-02 -1.9128521028549E-02 -1.9012788381278E-02 -1.8918075409412E-02 -1.8844448895787E-02 -1.8791959339221E-02 -1.8760642041021E-02 -1.8750579380052E-02 
-6.5422934057348E+05 -6.4739238997927E+05 -6.4214235211969E+05 -6.3758670538341E+05 -6.3372890855626E+05 -6.3057177536997E+05 -6.2811753184249E+05 -6.2636786119905E+05 -6.2532394009766E+05 -6.2498851475250E+05 
 1.9042220082110E-01  9.3756372307079E-01  3.1530697630894E+00  6.7900052107229E+00  1.1811060683337E+01  1.8188206128555E+01  2.5902411784795E+01  3.4943426929975E+01  4.5309629598621E+01  5.0824361875859E+01 
 2.0625705037045E+04  1.8275512321145E+04  1.3900186050829E+04  1.0162242559699E+04  7.0381851549286E+03  4.5083953253697E+03  2.5570040070050E+03  1.1717875639356E+03  3.4408784311721E+02  6.8755608504454E+01 
-6.6110463741633E+05 -6.5348453741590E+05 -6.4677679482050E+05 -6.4097637910332E+05 -6.3607890400450E+05 -6.3208063409674E+05 -6.2897849910833E+05 -6.2677010410981E+05 -6.2545373902739E+05 -6.2502837469647E+05 
 6.6914263941983E+04  6.5224734880202E+04  6.3758842322243E+04  6.2507247317328E+04  6.1461984896390E+04  6.0616408482918E+04  5.9965144941232E+04  5.9504058125388E+04  5.9230221110388E+04  5.9141895111526E+04 