TITLE = "Solution on Domain BulkDomain1D_1"
VARIABLES = "x [m]"  
"Vel_axial" 	"MF_sp(ECDMC)" 	"MF_sp(Li+)" 	"MF_sp(PF6-)" 	"Volt(Electroly)" 	"Temperature" 	"Porosity []" 	"Control volume thickness [m]" 	"volFrac MgO(S) []" 	"volFrac ExtraStuff []" 	"qHeat_accum [J/m3]" 	"qHeat_step [W/m3]" 	"Joule_Lyte [W/m3]" 	"Joule_Solid [W/m3]" 	
ZONE T = "SEP , 0.0000E+00", I = 10, SOLUTIONTIME = 0.000000E+00
ZONETYPE = ORDERED
DATAPACKING = BLOCK
STRANDID = 2
 9.6000000000000E-05  9.8777777777778E-05  1.0155555555556E-04  1.0433333333333E-04  1.0711111111111E-04  1.0988888888889E-04  1.1266666666667E-04  1.1544444444444E-04  1.1822222222222E-04  1.2100000000000E-04 
 0.0000000000000E+00  0.0000000000000E+00  0.0000000000000E+00  0.0000000000000E+00  0.0000000000000E+00  0.0000000000000E+00  0.0000000000000E+00  0.0000000000000E+00  0.0000000000000E+00  0.0000000000000E+00 
 8.4394680000000E-01  8.4394680000000E-01  8.4394680000000E-01  8.4394680000000E-01  8.4394680000000E-01  8.4394680000000E-01  8.4394680000000E-01  8.4394680000000E-01  8.4394680000000E-01  8.4394680000000E-01 
 7.8026600000000E-02  7.8026600000000E-02  7.8026600000000E-02  7.8026600000000E-02  7.8026600000000E-02  7.8026600000000E-02  7.8026600000000E-02  7.8026600000000E-02  7.8026600000000E-02  7.8026600000000E-02 
 7.8026600000000E-02  7.8026600000000E-02  7.8026600000000E-02  7.8026600000000E-02  7.8026600000000E-02  7.8026600000000E-02  7.8026600000000E-02  7.8026600000000E-02  7.8026600000000E-02  7.8026600000000E-02 
-7.0000000000000E-02 -7.0000000000000E-02 -7.0000000000000E-02 -7.0000000000000E-02 -7.0000000000000E-02 -7.0000000000000E-02 -7.0000000000000E-02 -7.0000000000000E-02 -7.0000000000000E-02 -7.0000000000000E-02 
 2.9815000000000E+02  2.9815000000000E+02  2.9815000000000E+02  2.9815000000000E+02  2.9815000000000E+02  2.9815000000000E+02  2.9815000000000E+02  2.9815000000000E+02  2.9815000000000E+02  2.9815000000000E+02 
 6.5000471412550E-01  6.5000471412551E-01  6.5000471412550E-01  6.5000471412550E-01  6.5000471412551E-01  6.5000471412550E-01  6.5000471412551E-01  6.5000471412550E-01  6.5000471412550E-01  6.5000471412551E-01 
 1.3888888888889E-06  2.7777777777778E-06  2.7777777777778E-06  2.7777777777778E-06  2.7777777777778E-06  2.7777777777778E-06  2.7777777777778E-06  2.7777777777778E-06  2.7777777777778E-06  1.3888888888889E-06 
 2.4999528587450E-01  2.4999528587449E-01  2.4999528587450E-01  2.4999528587450E-01  2.4999528587449E-01  2.4999528587450E-01  2.4999528587449E-01  2.4999528587450E-01  2.4999528587450E-01  2.4999528587449E-01 
 1.0000000000000E-01  1.0000000000000E-01  1.0000000000000E-01  1.0000000000000E-01  1.0000000000000E-01  1.0000000000000E-01  1.0000000000000E-01  1.0000000000000E-01  1.0000000000000E-01  1.0000000000000E-01 
 0.0000000000000E+00  0.0000000000000E+00  0.0000000000000E+00  0.0000000000000E+00  0.0000000000000E+00  0.0000000000000E+00  0.0000000000000E+00  0.0000000000000E+00  0.0000000000000E+00  0.0000000000000E+00 
 0.0000000000000E+00  0.0000000000000E+00  0.0000000000000E+00  0.0000000000000E+00  0.0000000000000E+00  0.0000000000000E+00  0.0000000000000E+00  0.0000000000000E+00  0.0000000000000E+00  0.0000000000000E+00 
 0.0000000000000E+00  0.0000000000000E+00  0.0000000000000E+00  0.0000000000000E+00  0.0000000000000E+00  0.0000000000000E+00  0.0000000000000E+00  0.0000000000000E+00  0.0000000000000E+00  0.0000000000000E+00 
 0.0000000000000E+00  0.0000000000000E+00  0.0000000000000E+00  0.0000000000000E+00  0.0000000000000E+00  0.0000000000000E+00  0.0000000000000E+00  0.0000000000000E+00  0.0000000000000E+00  0.0000000000000E+00 
ZONE T = "SEP , 1.0000E-08", I = 10, SOLUTIONTIME = 1.000000E-08
ZONETYPE = ORDERED
DATAPACKING = BLOCK
STRANDID = 2
 9.6000000000000E-05  9.8777777777778E-05  1.0155555555556E-04  1.0433333333333E-04  1.0711111111111E-04  1.0988888888889E-04  1.1266666666667E-04  1.1544444444444E-04  1.1822222222222E-04  1.2100000000000E-04 
 1.8354888272811E-07  1.8344962921764E-07  1.8344862519894E-07  1.8344862753280E-07  1.8344862743993E-07  1.8344862744794E-07  1.8344862843813E-07  1.8344870781298E-07  1.8345818881093E-07  1.8279158230651E-07 
 8.4394679992706E-01  8.4394679999925E-01  8.4394679999999E-01  8.4394680000000E-01  8.4394680000000E-01  8.4394680000000E-01  8.4394680000000E-01  8.4394680000000E-01  8.4394680000007E-01  8.4394680000694E-01 
 7.8026600036470E-02  7.8026600000373E-02  7.8026600000004E-02  7.8026600000000E-02  7.8026600000000E-02  7.8026600000000E-02  7.8026600000000E-02  7.8026600000000E-02  7.8026599999964E-02  7.8026599996528E-02 
 7.8026600036470E-02  7.8026600000373E-02  7.8026600000004E-02  7.8026600000000E-02  7.8026600000000E-02  7.8026600000000E-02  7.8026600000000E-02  7.8026600000000E-02  7.8026599999964E-02  7.8026599996528E-02 
 1.3951822832495E-02  1.3951780488479E-02  1.3951738144406E-02  1.3951695800389E-02  1.3951653456377E-02  1.3951611112294E-02  1.3951568768288E-02  1.3951526424271E-02  1.3951484080195E-02  1.3951441736179E-02 
 2.9814999998301E+02  2.9814999998955E+02  2.9814999999359E+02  2.9814999999535E+02  2.9814999999749E+02  2.9814999999867E+02  2.9815000000020E+02  2.9815000000257E+02  2.9815000000645E+02  2.9815000001268E+02 
 6.5000471412550E-01  6.5000471412551E-01  6.5000471412550E-01  6.5000471412550E-01  6.5000471412551E-01  6.5000471412550E-01  6.5000471412551E-01  6.5000471412550E-01  6.5000471412550E-01  6.5000471412551E-01 
 1.3888888888889E-06  2.7777777777778E-06  2.7777777777778E-06  2.7777777777778E-06  2.7777777777778E-06  2.7777777777778E-06  2.7777777777778E-06  2.7777777777778E-06  2.7777777777778E-06  1.3888888888889E-06 
 2.4999528587450E-01  2.4999528587449E-01  2.4999528587450E-01  2.4999528587450E-01  2.4999528587449E-01  2.4999528587450E-01  2.4999528587449E-01  2.4999528587450E-01  2.4999528587450E-01  2.4999528587449E-01 
 1.0000000000000E-01  1.0000000000000E-01  1.0000000000000E-01  1.0000000000000E-01  1.0000000000000E-01  1.0000000000000E-01  1.0000000000000E-01  1.0000000000000E-01  1.0000000000000E-01  1.0000000000000E-01 
 9.1463037614110E-08  9.1463159787424E-08  9.1463159792867E-08  9.1463026593522E-08  9.1463171523338E-08  9.1463159779777E-08  9.1463014837657E-08  9.1463165387712E-08  9.1463165381565E-08  9.1463037588092E-08 
 9.1463037614110E+00  9.1463159787424E+00  9.1463159792867E+00  9.1463026593522E+00  9.1463171523338E+00  9.1463159779777E+00  9.1463014837657E+00  9.1463165387712E+00  9.1463165381565E+00  9.1463037588092E+00 
 9.1463037614110E+00  9.1463159787424E+00  9.1463159792867E+00  9.1463026593522E+00  9.1463171523338E+00  9.1463159779777E+00  9.1463014837657E+00  9.1463165387712E+00  9.1463165381565E+00  9.1463037588092E+00 
 0.0000000000000E+00  0.0000000000000E+00  0.0000000000000E+00  0.0000000000000E+00  0.0000000000000E+00  0.0000000000000E+00  0.0000000000000E+00  0.0000000000000E+00  0.0000000000000E+00  0.0000000000000E+00 
ZONE T = "SEP , 2.0000E-08", I = 10, SOLUTIONTIME = 2.000000E-08
ZONETYPE = ORDERED
DATAPACKING = BLOCK
STRANDID = 2
 9.6000000000000E-05  9.8777777777778E-05  1.0155555555556E-04  1.0433333333333E-04  1.0711111111111E-04  1.0988888888889E-04  1.1266666666667E-04  1.1544444444444E-04  1.1822222222222E-04  1.2100000000000E-04 
 1.8364666159166E-07  1.8345058210774E-07  1.8344759365786E-07  1.8344759527911E-07  1.8344759475522E-07  1.8344759480245E-07  1.8344759682447E-07  1.8344794119346E-07  1.8346665610193E-07  1.8279368897946E-07 
 8.4394679985454E-01  8.4394679999778E-01  8.4394679999997E-01  8.4394680000000E-01  8.4394680000000E-01  8.4394680000000E-01  8.4394680000000E-01  8.4394680000000E-01  8.4394680000021E-01  8.4394680001382E-01 
 7.8026600072732E-02  7.8026600001110E-02  7.8026600000015E-02  7.8026600000000E-02  7.8026600000000E-02  7.8026600000000E-02  7.8026600000000E-02  7.8026599999999E-02  7.8026599999894E-02  7.8026599993088E-02 
 7.8026600072732E-02  7.8026600001110E-02  7.8026600000015E-02  7.8026600000000E-02  7.8026600000000E-02  7.8026600000000E-02  7.8026600000000E-02  7.8026599999999E-02  7.8026599999894E-02  7.8026599993088E-02 
 1.3953381194299E-02  1.3953338850265E-02  1.3953296506231E-02  1.3953254162196E-02  1.3953211818162E-02  1.3953169474128E-02  1.3953127130094E-02  1.3953084786059E-02  1.3953042442025E-02  1.3953000097991E-02 
 2.9814999996729E+02  2.9814999997880E+02  2.9814999998638E+02  2.9814999999197E+02  2.9814999999646E+02  2.9815000000007E+02  2.9815000000302E+02  2.9815000000737E+02  2.9815000001110E+02  2.9815000001309E+02 
 6.5000471412550E-01  6.5000471412551E-01  6.5000471412550E-01  6.5000471412550E-01  6.5000471412551E-01  6.5000471412550E-01  6.5000471412551E-01  6.5000471412550E-01  6.5000471412550E-01  6.5000471412551E-01 
 1.3888888888889E-06  2.7777777777778E-06  2.7777777777778E-06  2.7777777777778E-06  2.7777777777778E-06  2.7777777777778E-06  2.7777777777778E-06  2.7777777777778E-06  2.7777777777778E-06  1.3888888888889E-06 
 2.4999528587450E-01  2.4999528587449E-01  2.4999528587450E-01  2.4999528587450E-01  2.4999528587449E-01  2.4999528587450E-01  2.4999528587449E-01  2.4999528587450E-01  2.4999528587450E-01  2.4999528587449E-01 
 1.0000000000000E-01  1.0000000000000E-01  1.0000000000000E-01  1.0000000000000E-01  1.0000000000000E-01  1.0000000000000E-01  1.0000000000000E-01  1.0000000000000E-01  1.0000000000000E-01  1.0000000000000E-01 
 1.8292615165783E-07  1.8292627385463E-07  1.8292627388593E-07  1.8292614068818E-07  1.8292628562035E-07  1.8292627387566E-07  1.8292612893623E-07  1.8292627948881E-07  1.8292627948306E-07  1.8292615169439E-07 
 9.1463114043719E+00  9.1463114067205E+00  9.1463114093066E+00  9.1463114094662E+00  9.1463114097010E+00  9.1463114095886E+00  9.1463114098568E+00  9.1463114101101E+00  9.1463114101497E+00  9.1463114106294E+00 
 9.1463114043719E+00  9.1463114067205E+00  9.1463114093066E+00  9.1463114094662E+00  9.1463114097010E+00  9.1463114095886E+00  9.1463114098568E+00  9.1463114101101E+00  9.1463114101497E+00  9.1463114106294E+00 
 0.0000000000000E+00  0.0000000000000E+00  0.0000000000000E+00  0.0000000000000E+00  0.0000000000000E+00  0.0000000000000E+00  0.0000000000000E+00  0.0000000000000E+00  0.0000000000000E+00  0.0000000000000E+00 
ZONE T = "SEP , 3.0000E-08", I = 10, SOLUTIONTIME = 3.000000E-08
ZONETYPE = ORDERED
DATAPACKING = BLOCK
STRANDID = 2
 9.6000000000000E-05  9.8777777777778E-05  1.0155555555556E-04  1.0433333333333E-04  1.0711111111111E-04  1.0988888888889E-04  1.1266666666667E-04  1.1544444444444E-04  1.1822222222222E-04  1.2100000000000E-04 
 1.8374457882702E-07  1.8345417106585E-07  1.8344822029995E-07  1.8344811510182E-07  1.8344811353295E-07  1.8344811365377E-07  1.8344816512879E-07  1.8344874676660E-07  1.8347626424472E-07  1.8279561857779E-07 
 8.4394679978242E-01  8.4394679999560E-01  8.4394679999993E-01  8.4394680000000E-01  8.4394680000000E-01  8.4394680000000E-01  8.4394680000000E-01  8.4394680000001E-01  8.4394680000042E-01  8.4394680002066E-01 
 7.8026600108790E-02  7.8026600002201E-02  7.8026600000037E-02  7.8026600000001E-02  7.8026600000000E-02  7.8026600000000E-02  7.8026600000000E-02  7.8026599999996E-02  7.8026599999791E-02  7.8026599989671E-02 
 7.8026600108790E-02  7.8026600002201E-02  7.8026600000037E-02  7.8026600000001E-02  7.8026600000000E-02  7.8026600000000E-02  7.8026600000000E-02  7.8026599999996E-02  7.8026599999791E-02  7.8026599989671E-02 
 1.3953380812823E-02  1.3953338468789E-02  1.3953296124755E-02  1.3953253780721E-02  1.3953211436686E-02  1.3953169092652E-02  1.3953126748618E-02  1.3953084404583E-02  1.3953042060549E-02  1.3952999716515E-02 
 2.9814999995158E+02  2.9814999996766E+02  2.9814999997873E+02  2.9814999998736E+02  2.9814999999391E+02  2.9814999999910E+02  2.9815000000302E+02  2.9815000000722E+02  2.9815000001023E+02  2.9815000001350E+02 
 6.5000471412550E-01  6.5000471412551E-01  6.5000471412550E-01  6.5000471412550E-01  6.5000471412551E-01  6.5000471412550E-01  6.5000471412551E-01  6.5000471412550E-01  6.5000471412550E-01  6.5000471412551E-01 
 1.3888888888889E-06  2.7777777777778E-06  2.7777777777778E-06  2.7777777777778E-06  2.7777777777778E-06  2.7777777777778E-06  2.7777777777778E-06  2.7777777777778E-06  2.7777777777778E-06  1.3888888888889E-06 
 2.4999528587450E-01  2.4999528587449E-01  2.4999528587450E-01  2.4999528587450E-01  2.4999528587449E-01  2.4999528587450E-01  2.4999528587449E-01  2.4999528587450E-01  2.4999528587450E-01  2.4999528587449E-01 
 1.0000000000000E-01  1.0000000000000E-01  1.0000000000000E-01  1.0000000000000E-01  1.0000000000000E-01  1.0000000000000E-01  1.0000000000000E-01  1.0000000000000E-01  1.0000000000000E-01  1.0000000000000E-01 
 2.7438926566999E-07  2.7438938790411E-07  2.7438938797426E-07  2.7438925478060E-07  2.7438939971818E-07  2.7438938797564E-07  2.7438924303488E-07  2.7438939358622E-07  2.7438939358724E-07  2.7438926580594E-07 
 9.1463114012163E+00  9.1463114049485E+00  9.1463114088324E+00  9.1463114092411E+00  9.1463114097829E+00  9.1463114099978E+00  9.1463114098654E+00  9.1463114097409E+00  9.1463114104174E+00  9.1463114111559E+00 
 9.1463114012163E+00  9.1463114049485E+00  9.1463114088324E+00  9.1463114092411E+00  9.1463114097829E+00  9.1463114099978E+00  9.1463114098654E+00  9.1463114097409E+00  9.1463114104174E+00  9.1463114111559E+00 
 0.0000000000000E+00  0.0000000000000E+00  0.0000000000000E+00  0.0000000000000E+00  0.0000000000000E+00  0.0000000000000E+00  0.0000000000000E+00  0.0000000000000E+00  0.0000000000000E+00  0.0000000000000E+00 
ZONE T = "SEP , 4.0000E-08", I = 10, SOLUTIONTIME = 4.000000E-08
ZONETYPE = ORDERED
DATAPACKING = BLOCK
STRANDID = 2
 9.6000000000000E-05  9.8777777777778E-05  1.0155555555556E-04  1.0433333333333E-04  1.0711111111111E-04  1.0988888888889E-04  1.1266666666667E-04  1.1544444444444E-04  1.1822222222222E-04  1.2100000000000E-04 
 1.8383951010142E-07  1.8345736797740E-07  1.8344766594524E-07  1.8344742926660E-07  1.8344742992403E-07  1.8344743023822E-07  1.8344745717021E-07  1.8344835646083E-07  1.8348460239668E-07  1.8279677627737E-07 
 8.4394679971071E-01  8.4394679999273E-01  8.4394679999985E-01  8.4394680000000E-01  8.4394680000000E-01  8.4394680000000E-01  8.4394680000000E-01  8.4394680000001E-01  8.4394680000069E-01  8.4394680002744E-01 
 7.8026600144646E-02  7.8026600003637E-02  7.8026600000074E-02  7.8026600000001E-02  7.8026600000000E-02  7.8026600000000E-02  7.8026600000000E-02  7.8026599999993E-02  7.8026599999655E-02  7.8026599986278E-02 
 7.8026600144646E-02  7.8026600003637E-02  7.8026600000074E-02  7.8026600000001E-02  7.8026600000000E-02  7.8026600000000E-02  7.8026600000000E-02  7.8026599999993E-02  7.8026599999655E-02  7.8026599986278E-02 
 1.3953380431352E-02  1.3953338087318E-02  1.3953295743284E-02  1.3953253399249E-02  1.3953211055215E-02  1.3953168711181E-02  1.3953126367147E-02  1.3953084023112E-02  1.3953041679078E-02  1.3952999335044E-02 
 2.9814999993586E+02  2.9814999995389E+02  2.9814999996851E+02  2.9814999997950E+02  2.9814999998805E+02  2.9814999999530E+02  2.9815000000092E+02  2.9815000000571E+02  2.9815000001130E+02  2.9815000001391E+02 
 6.5000471412550E-01  6.5000471412551E-01  6.5000471412550E-01  6.5000471412550E-01  6.5000471412551E-01  6.5000471412550E-01  6.5000471412551E-01  6.5000471412550E-01  6.5000471412550E-01  6.5000471412551E-01 
 1.3888888888889E-06  2.7777777777778E-06  2.7777777777778E-06  2.7777777777778E-06  2.7777777777778E-06  2.7777777777778E-06  2.7777777777778E-06  2.7777777777778E-06  2.7777777777778E-06  1.3888888888889E-06 
 2.4999528587450E-01  2.4999528587449E-01  2.4999528587450E-01  2.4999528587450E-01  2.4999528587449E-01  2.4999528587450E-01  2.4999528587449E-01  2.4999528587450E-01  2.4999528587450E-01  2.4999528587449E-01 
 1.0000000000000E-01  1.0000000000000E-01  1.0000000000000E-01  1.0000000000000E-01  1.0000000000000E-01  1.0000000000000E-01  1.0000000000000E-01  1.0000000000000E-01  1.0000000000000E-01  1.0000000000000E-01 
 3.6585237965859E-07  3.6585250194039E-07  3.6585250205881E-07  3.6585236887171E-07  3.6585251381405E-07  3.6585250207306E-07  3.6585235713426E-07  3.6585250768389E-07  3.6585250769013E-07  3.6585237991497E-07 
 9.1463113988597E+00  9.1463114036276E+00  9.1463114084550E+00  9.1463114091116E+00  9.1463114095875E+00  9.1463114097423E+00  9.1463114099381E+00  9.1463114097672E+00  9.1463114102893E+00  9.1463114109024E+00 
 9.1463113988597E+00  9.1463114036276E+00  9.1463114084550E+00  9.1463114091116E+00  9.1463114095875E+00  9.1463114097423E+00  9.1463114099381E+00  9.1463114097672E+00  9.1463114102893E+00  9.1463114109024E+00 
 0.0000000000000E+00  0.0000000000000E+00  0.0000000000000E+00  0.0000000000000E+00  0.0000000000000E+00  0.0000000000000E+00  0.0000000000000E+00  0.0000000000000E+00  0.0000000000000E+00  0.0000000000000E+00 
ZONE T = "SEP , 5.5000E-08", I = 10, SOLUTIONTIME = 5.500000E-08
ZONETYPE = ORDERED
DATAPACKING = BLOCK
STRANDID = 2
 9.6000000000000E-05  9.8777777777778E-05  1.0155555555556E-04  1.0433333333333E-04  1.0711111111111E-04  1.0988888888889E-04  1.1266666666667E-04  1.1544444444444E-04  1.1822222222222E-04  1.2100000000000E-04 
 1.8397957040404E-07  1.8346492213965E-07  1.8344768371729E-07  1.8344724173524E-07  1.8344724068492E-07  1.8344724147414E-07  1.8344727477353E-07  1.8344887889617E-07  1.8349764556235E-07  1.8279927319640E-07 
 8.4394679960402E-01  8.4394679998692E-01  8.4394679999966E-01  8.4394679999999E-01  8.4394680000000E-01  8.4394680000000E-01  8.4394680000000E-01  8.4394680000003E-01  8.4394680000124E-01  8.4394680003752E-01 
 7.8026600197989E-02  7.8026600006538E-02  7.8026600000171E-02  7.8026600000004E-02  7.8026600000000E-02  7.8026600000000E-02  7.8026600000000E-02  7.8026599999984E-02  7.8026599999380E-02  7.8026599981240E-02 
 7.8026600197989E-02  7.8026600006538E-02  7.8026600000171E-02  7.8026600000004E-02  7.8026600000000E-02  7.8026600000000E-02  7.8026600000000E-02  7.8026599999984E-02  7.8026599999380E-02  7.8026599981240E-02 
 1.3953379984477E-02  1.3953337640442E-02  1.3953295296408E-02  1.3953252952374E-02  1.3953210608340E-02  1.3953168264305E-02  1.3953125920271E-02  1.3953083576237E-02  1.3953041232202E-02  1.3952998888168E-02 
 2.9814999991229E+02  2.9814999993421E+02  2.9814999995254E+02  2.9814999996709E+02  2.9814999997901E+02  2.9814999998928E+02  2.9814999999706E+02  2.9815000000245E+02  2.9815000000841E+02  2.9815000001452E+02 
 6.5000471412550E-01  6.5000471412551E-01  6.5000471412550E-01  6.5000471412550E-01  6.5000471412551E-01  6.5000471412550E-01  6.5000471412551E-01  6.5000471412550E-01  6.5000471412550E-01  6.5000471412551E-01 
 1.3888888888889E-06  2.7777777777778E-06  2.7777777777778E-06  2.7777777777778E-06  2.7777777777778E-06  2.7777777777778E-06  2.7777777777778E-06  2.7777777777778E-06  2.7777777777778E-06  1.3888888888889E-06 
 2.4999528587450E-01  2.4999528587449E-01  2.4999528587450E-01  2.4999528587450E-01  2.4999528587449E-01  2.4999528587450E-01  2.4999528587449E-01  2.4999528587450E-01  2.4999528587450E-01  2.4999528587449E-01 
 1.0000000000000E-01  1.0000000000000E-01  1.0000000000000E-01  1.0000000000000E-01  1.0000000000000E-01  1.0000000000000E-01  1.0000000000000E-01  1.0000000000000E-01  1.0000000000000E-01  1.0000000000000E-01 
 5.0304705057168E-07  5.0304717295423E-07  5.0304717317766E-07  5.0304704000293E-07  5.0304718495644E-07  5.0304717321645E-07  5.0304702827404E-07  5.0304717883179E-07  5.0304717885394E-07  5.0304705108506E-07 
 9.1463113942060E+00  9.1463114009227E+00  9.1463114079232E+00  9.1463114087476E+00  9.1463114094928E+00  9.1463114095589E+00  9.1463114093189E+00  9.1463114098595E+00  9.1463114109206E+00  9.1463114113396E+00 
 9.1463113942060E+00  9.1463114009227E+00  9.1463114079232E+00  9.1463114087476E+00  9.1463114094928E+00  9.1463114095589E+00  9.1463114093189E+00  9.1463114098595E+00  9.1463114109206E+00  9.1463114113396E+00 
 0.0000000000000E+00  0.0000000000000E+00  0.0000000000000E+00  0.0000000000000E+00  0.0000000000000E+00  0.0000000000000E+00  0.0000000000000E+00  0.0000000000000E+00  0.0000000000000E+00  0.0000000000000E+00 
ZONE T = "SEP , 7.7500E-08", I = 10, SOLUTIONTIME = 7.750000E-08
ZONETYPE = ORDERED
DATAPACKING = BLOCK
STRANDID = 2
 9.6000000000000E-05  9.8777777777778E-05  1.0155555555556E-04  1.0433333333333E-04  1.0711111111111E-04  1.0988888888889E-04  1.1266666666667E-04  1.1544444444444E-04  1.1822222222222E-04  1.2100000000000E-04 
 1.8418300313839E-07  1.8348077689458E-07  1.8344853621762E-07  1.8344739709091E-07  1.8344736213925E-07  1.8344736268634E-07  1.8344748038241E-07  1.8345055792532E-07  1.8351697884077E-07  1.8280341145391E-07 
 8.4394679944590E-01  8.4394679997505E-01  8.4394679999911E-01  8.4394679999997E-01  8.4394680000000E-01  8.4394680000000E-01  8.4394680000000E-01  8.4394680000008E-01  8.4394680000236E-01  8.4394680005242E-01 
 7.8026600277050E-02  7.8026600012475E-02  7.8026600000444E-02  7.8026600000014E-02  7.8026600000000E-02  7.8026600000000E-02  7.8026599999999E-02  7.8026599999958E-02  7.8026599998818E-02  7.8026599973792E-02 
 7.8026600277050E-02  7.8026600012475E-02  7.8026600000444E-02  7.8026600000014E-02  7.8026600000000E-02  7.8026600000000E-02  7.8026599999999E-02  7.8026599999958E-02  7.8026599998818E-02  7.8026599973792E-02 
 1.3953379195837E-02  1.3953336851803E-02  1.3953294507769E-02  1.3953252163734E-02  1.3953209819700E-02  1.3953167475666E-02  1.3953125131631E-02  1.3953082787597E-02  1.3953040443563E-02  1.3952998099528E-02 
 2.9814999987696E+02  2.9814999990564E+02  2.9814999992952E+02  2.9814999994863E+02  2.9814999996503E+02  2.9814999997819E+02  2.9814999998925E+02  2.9814999999914E+02  2.9815000000750E+02  2.9815000001544E+02 
 6.5000471412550E-01  6.5000471412551E-01  6.5000471412550E-01  6.5000471412550E-01  6.5000471412551E-01  6.5000471412550E-01  6.5000471412551E-01  6.5000471412550E-01  6.5000471412550E-01  6.5000471412551E-01 
 1.3888888888889E-06  2.7777777777778E-06  2.7777777777778E-06  2.7777777777778E-06  2.7777777777778E-06  2.7777777777778E-06  2.7777777777778E-06  2.7777777777778E-06  2.7777777777778E-06  1.3888888888889E-06 
 2.4999528587450E-01  2.4999528587449E-01  2.4999528587450E-01  2.4999528587450E-01  2.4999528587449E-01  2.4999528587450E-01  2.4999528587449E-01  2.4999528587450E-01  2.4999528587450E-01  2.4999528587449E-01 
 1.0000000000000E-01  1.0000000000000E-01  1.0000000000000E-01  1.0000000000000E-01  1.0000000000000E-01  1.0000000000000E-01  1.0000000000000E-01  1.0000000000000E-01  1.0000000000000E-01  1.0000000000000E-01 
 7.0883905680170E-07  7.0883917938493E-07  7.0883917983460E-07  7.0883904668743E-07  7.0883919165467E-07  7.0883917992225E-07  7.0883903498045E-07  7.0883918555582E-07  7.0883918560249E-07  7.0883905784528E-07 
 9.1463113880009E+00  9.1463113969198E+00  9.1463114069755E+00  9.1463114082001E+00  9.1463114088103E+00  9.1463114091467E+00  9.1463114091735E+00  9.1463114099570E+00  9.1463114110466E+00  9.1463114115653E+00 
 9.1463113880009E+00  9.1463113969198E+00  9.1463114069755E+00  9.1463114082001E+00  9.1463114088103E+00  9.1463114091467E+00  9.1463114091735E+00  9.1463114099570E+00  9.1463114110466E+00  9.1463114115653E+00 
 0.0000000000000E+00  0.0000000000000E+00  0.0000000000000E+00  0.0000000000000E+00  0.0000000000000E+00  0.0000000000000E+00  0.0000000000000E+00  0.0000000000000E+00  0.0000000000000E+00  0.0000000000000E+00 
ZONE T = "SEP , 1.1125E-07", I = 10, SOLUTIONTIME = 1.112500E-07
ZONETYPE = ORDERED
DATAPACKING = BLOCK
STRANDID = 2
 9.6000000000000E-05  9.8777777777778E-05  1.0155555555556E-04  1.0433333333333E-04  1.0711111111111E-04  1.0988888888889E-04  1.1266666666667E-04  1.1544444444444E-04  1.1822222222222E-04  1.2100000000000E-04 
 1.8447345396471E-07  1.8351274546980E-07  1.8345084854513E-07  1.8344770687554E-07  1.8344757307138E-07  1.8344758869814E-07  1.8344788623543E-07  1.8345372976621E-07  1.8354438946380E-07  1.8280981828268E-07 
 8.4394679921278E-01  8.4394679995068E-01  8.4394679999754E-01  8.4394679999989E-01  8.4394680000000E-01  8.4394680000000E-01  8.4394680000001E-01  8.4394680000023E-01  8.4394680000466E-01  8.4394680007430E-01 
 7.8026600393608E-02  7.8026600024660E-02  7.8026600001229E-02  7.8026600000053E-02  7.8026600000002E-02  7.8026600000000E-02  7.8026599999995E-02  7.8026599999884E-02  7.8026599997668E-02  7.8026599962849E-02 
 7.8026600393608E-02  7.8026600024660E-02  7.8026600001229E-02  7.8026600000053E-02  7.8026600000002E-02  7.8026600000000E-02  7.8026599999995E-02  7.8026599999884E-02  7.8026599997668E-02  7.8026599962849E-02 
 1.3953378012894E-02  1.3953335668860E-02  1.3953293324826E-02  1.3953250980791E-02  1.3953208636757E-02  1.3953166292723E-02  1.3953123948689E-02  1.3953081604654E-02  1.3953039260620E-02  1.3952996916586E-02 
 2.9814999982397E+02  2.9814999985886E+02  2.9814999988891E+02  2.9814999991511E+02  2.9814999993728E+02  2.9814999995666E+02  2.9814999997328E+02  2.9814999998839E+02  2.9815000000292E+02  2.9815000001681E+02 
 6.5000471412550E-01  6.5000471412551E-01  6.5000471412550E-01  6.5000471412550E-01  6.5000471412551E-01  6.5000471412550E-01  6.5000471412551E-01  6.5000471412550E-01  6.5000471412550E-01  6.5000471412551E-01 
 1.3888888888889E-06  2.7777777777778E-06  2.7777777777778E-06  2.7777777777778E-06  2.7777777777778E-06  2.7777777777778E-06  2.7777777777778E-06  2.7777777777778E-06  2.7777777777778E-06  1.3888888888889E-06 
 2.4999528587450E-01  2.4999528587449E-01  2.4999528587450E-01  2.4999528587450E-01  2.4999528587449E-01  2.4999528587450E-01  2.4999528587449E-01  2.4999528587450E-01  2.4999528587450E-01  2.4999528587449E-01 
 1.0000000000000E-01  1.0000000000000E-01  1.0000000000000E-01  1.0000000000000E-01  1.0000000000000E-01  1.0000000000000E-01  1.0000000000000E-01  1.0000000000000E-01  1.0000000000000E-01  1.0000000000000E-01 
 1.0175270657994E-06  1.0175271888310E-06  1.0175271897759E-06  1.0175270566743E-06  1.0175272016675E-06  1.0175271899655E-06  1.0175270450313E-06  1.0175271956260E-06  1.0175271957281E-06  1.0175270680112E-06 
 9.1463113777108E+00  9.1463113909953E+00  9.1463114056674E+00  9.1463114070186E+00  9.1463114077860E+00  9.1463114086880E+00  9.1463114089138E+00  9.1463114094874E+00  9.1463114111283E+00  9.1463114123231E+00 
 9.1463113777108E+00  9.1463113909953E+00  9.1463114056674E+00  9.1463114070186E+00  9.1463114077860E+00  9.1463114086880E+00  9.1463114089138E+00  9.1463114094874E+00  9.1463114111283E+00  9.1463114123231E+00 
 0.0000000000000E+00  0.0000000000000E+00  0.0000000000000E+00  0.0000000000000E+00  0.0000000000000E+00  0.0000000000000E+00  0.0000000000000E+00  0.0000000000000E+00  0.0000000000000E+00  0.0000000000000E+00 
ZONE T = "SEP , 1.6188E-07", I = 10, SOLUTIONTIME = 1.618750E-07
ZONETYPE = ORDERED
DATAPACKING = BLOCK
STRANDID = 2
 9.6000000000000E-05  9.8777777777778E-05  1.0155555555556E-04  1.0433333333333E-04  1.0711111111111E-04  1.0988888888889E-04  1.1266666666667E-04  1.1544444444444E-04  1.1822222222222E-04  1.2100000000000E-04 
 1.8487902584928E-07  1.8357551143445E-07  1.8345678815021E-07  1.8344825594863E-07  1.8344772344258E-07  1.8344775503080E-07  1.8344855900671E-07  1.8345976079039E-07  1.8358238444509E-07  1.8281941036013E-07 
 8.4394679887155E-01  8.4394679990108E-01  8.4394679999303E-01  8.4394679999957E-01  8.4394679999998E-01  8.4394680000000E-01  8.4394680000004E-01  8.4394680000066E-01  8.4394680000933E-01  8.4394680010620E-01 
 7.8026600564226E-02  7.8026600049458E-02  7.8026600003487E-02  7.8026600000216E-02  7.8026600000012E-02  7.8026600000000E-02  7.8026599999980E-02  7.8026599999671E-02  7.8026599995336E-02  7.8026599946899E-02 
 7.8026600564226E-02  7.8026600049458E-02  7.8026600003487E-02  7.8026600000216E-02  7.8026600000012E-02  7.8026600000000E-02  7.8026599999980E-02  7.8026599999671E-02  7.8026599995336E-02  7.8026599946899E-02 
 1.3953376238517E-02  1.3953333894483E-02  1.3953291550449E-02  1.3953249206415E-02  1.3953206862380E-02  1.3953164518346E-02  1.3953122174312E-02  1.3953079830277E-02  1.3953037486243E-02  1.3952995142209E-02 
 2.9814999974453E+02  2.9814999978876E+02  2.9814999982835E+02  2.9814999986356E+02  2.9814999989513E+02  2.9814999992341E+02  2.9814999994939E+02  2.9814999997346E+02  2.9814999999636E+02  2.9815000001885E+02 
 6.5000471412550E-01  6.5000471412551E-01  6.5000471412550E-01  6.5000471412550E-01  6.5000471412551E-01  6.5000471412550E-01  6.5000471412551E-01  6.5000471412550E-01  6.5000471412550E-01  6.5000471412551E-01 
 1.3888888888889E-06  2.7777777777778E-06  2.7777777777778E-06  2.7777777777778E-06  2.7777777777778E-06  2.7777777777778E-06  2.7777777777778E-06  2.7777777777778E-06  2.7777777777778E-06  1.3888888888889E-06 
 2.4999528587450E-01  2.4999528587449E-01  2.4999528587450E-01  2.4999528587450E-01  2.4999528587449E-01  2.4999528587450E-01  2.4999528587449E-01  2.4999528587450E-01  2.4999528587450E-01  2.4999528587449E-01 
 1.0000000000000E-01  1.0000000000000E-01  1.0000000000000E-01  1.0000000000000E-01  1.0000000000000E-01  1.0000000000000E-01  1.0000000000000E-01  1.0000000000000E-01  1.0000000000000E-01  1.0000000000000E-01 
 1.4805590785032E-06  1.4805592025095E-06  1.4805592045463E-06  1.4805590715681E-06  1.4805592166198E-06  1.4805592049679E-06  1.4805590600685E-06  1.4805592107122E-06  1.4805592109490E-06  1.4805590833548E-06 
 9.1463113620496E+00  9.1463113813039E+00  9.1463114028720E+00  9.1463114053094E+00  9.1463114064659E+00  9.1463114074561E+00  9.1463114081430E+00  9.1463114091100E+00  9.1463114117714E+00  9.1463114141954E+00 
 9.1463113620496E+00  9.1463113813039E+00  9.1463114028720E+00  9.1463114053094E+00  9.1463114064659E+00  9.1463114074561E+00  9.1463114081430E+00  9.1463114091100E+00  9.1463114117714E+00  9.1463114141954E+00 
 0.0000000000000E+00  0.0000000000000E+00  0.0000000000000E+00  0.0000000000000E+00  0.0000000000000E+00  0.0000000000000E+00  0.0000000000000E+00  0.0000000000000E+00  0.0000000000000E+00  0.0000000000000E+00 
ZONE T = "SEP , 2.3781E-07", I = 10, SOLUTIONTIME = 2.378125E-07
ZONETYPE = ORDERED
DATAPACKING = BLOCK
STRANDID = 2