TITLE = "Solution on Domain BulkDomain1D_0"
VARIABLES = "x [m]"  
"Vel_axial" 
"MF_sp(ECDMC)" 
"MF_sp(Li+)" 
"MF_sp(PF6-)" 
"Volt(Electroly)" 
"Volt(AnodeVolt)" 
"Temperature" 
"Potential Drop Electrode-Electrolyte [V]" 
"Surf_0 Equilibrium Potential Drop Electrode-Electrolyte [V]" 
"Overpotential_0 [V]" 
"Current Source [A/m^2]" 
"Li+ flux [kmol/m^2/s]" 
"Electrolyte Current [A/m^2]" 
"Electrode Current [A/m^2]" 
"CV Capacity discharged [A-s/m^2]" 
"Depth of discharge in CV [A-s/m^2]" 
"CV Capacity remaining [A-s/m^2]" 
"Initial CV capacity [A-s/m^2]" 
"Porosity []" 
"Surface Area [m2/m2] (area per area)" 
"Specific current (per particle area) [A/m^2]" 
"Control volume thickness [m]" 
"volFrac AnodeBinder []" 	"volFrac ExtraStuff []" 	"MoleDens Li_C6-bulk [kmol/m^3]" 
"MoleDens V_C6-bulk [kmol/m^3]" 
"qHeat_accum [J/m3]" 
"qHeat_step [W/m3]" 
"Joule_Lyte [W/m3]" 
"Joule_Solid [W/m3]" 
"electrodHeat [W/m3]" 
"OverpotHeat [W/m3]" 
"deltaSHeat [W/m3]" 

ZONE T = "ANOD, 0.0000E+00", I = 10, SOLUTIONTIME = 0.000000E+00
ZONETYPE = ORDERED
DATAPACKING = BLOCK
STRANDID = 1
 0.0000000000000E+00  1.0666666666667E-05  2.1333333333333E-05  3.2000000000000E-05  4.2666666666667E-05  5.3333333333333E-05  6.4000000000000E-05  7.4666666666667E-05  8.5333333333333E-05  9.6000000000000E-05 
 0.0000000000000E+00  0.0000000000000E+00  0.0000000000000E+00  0.0000000000000E+00  0.0000000000000E+00  0.0000000000000E+00  0.0000000000000E+00  0.0000000000000E+00  0.0000000000000E+00  0.0000000000000E+00 
 8.4394680000000E-01  8.4394680000000E-01  8.4394680000000E-01  8.4394680000000E-01  8.4394680000000E-01  8.4394680000000E-01  8.4394680000000E-01  8.4394680000000E-01  8.4394680000000E-01  8.4394680000000E-01 
 7.8026600000000E-02  7.8026600000000E-02  7.8026600000000E-02  7.8026600000000E-02  7.8026600000000E-02  7.8026600000000E-02  7.8026600000000E-02  7.8026600000000E-02  7.8026600000000E-02  7.8026600000000E-02 
 7.8026600000000E-02  7.8026600000000E-02  7.8026600000000E-02  7.8026600000000E-02  7.8026600000000E-02  7.8026600000000E-02  7.8026600000000E-02  7.8026600000000E-02  7.8026600000000E-02  7.8026600000000E-02 
-7.0000000000000E-02 -7.0000000000000E-02 -7.0000000000000E-02 -7.0000000000000E-02 -7.0000000000000E-02 -7.0000000000000E-02 -7.0000000000000E-02 -7.0000000000000E-02 -7.0000000000000E-02 -7.0000000000000E-02 
 0.0000000000000E+00  0.0000000000000E+00  0.0000000000000E+00  0.0000000000000E+00  0.0000000000000E+00  0.0000000000000E+00  0.0000000000000E+00  0.0000000000000E+00  0.0000000000000E+00  0.0000000000000E+00 
 2.9815000000000E+02  2.9815000000000E+02  2.9815000000000E+02  2.9815000000000E+02  2.9815000000000E+02  2.9815000000000E+02  2.9815000000000E+02  2.9815000000000E+02  2.9815000000000E+02  2.9815000000000E+02 
 7.0000000000000E-02  7.0000000000000E-02  7.0000000000000E-02  7.0000000000000E-02  7.0000000000000E-02  7.0000000000000E-02  7.0000000000000E-02  7.0000000000000E-02  7.0000000000000E-02  7.0000000000000E-02 
-2.4231251306822E-02 -2.4231251306822E-02 -2.4231251306822E-02 -2.4231251306822E-02 -2.4231251306820E-02 -2.4231251306822E-02 -2.4231251306822E-02 -2.4231251306820E-02 -2.4231251306820E-02 -2.4231251306820E-02 
 9.4231251306822E-02  9.4231251306822E-02  9.4231251306822E-02  9.4231251306822E-02  9.4231251306820E-02  9.4231251306822E-02  9.4231251306822E-02  9.4231251306820E-02  9.4231251306820E-02  9.4231251306820E-02 
 5.2596104508283E+02  1.0519220901657E+03  1.0519220901657E+03  1.0519220901657E+03  1.0519220901656E+03  1.0519220901657E+03  1.0519220901657E+03  1.0519220901656E+03  1.0519220901656E+03  5.2596104508281E+02 
-0.0000000000000E+00 -0.0000000000000E+00 -0.0000000000000E+00 -0.0000000000000E+00 -0.0000000000000E+00 -0.0000000000000E+00 -0.0000000000000E+00 -0.0000000000000E+00 -0.0000000000000E+00 -0.0000000000000E+00 
 0.0000000000000E+00  0.0000000000000E+00  0.0000000000000E+00  0.0000000000000E+00  0.0000000000000E+00  0.0000000000000E+00  0.0000000000000E+00  0.0000000000000E+00  0.0000000000000E+00  5.2596104508281E+02 
 5.2596104508283E+02 -0.0000000000000E+00 -0.0000000000000E+00 -0.0000000000000E+00 -0.0000000000000E+00 -0.0000000000000E+00 -0.0000000000000E+00 -0.0000000000000E+00 -0.0000000000000E+00  0.0000000000000E+00 
 0.0000000000000E+00  0.0000000000000E+00  0.0000000000000E+00  0.0000000000000E+00  0.0000000000000E+00  0.0000000000000E+00  0.0000000000000E+00  0.0000000000000E+00  0.0000000000000E+00  0.0000000000000E+00 
 1.4095380717934E+03  2.8190761435868E+03  2.8190761435868E+03  2.8190761435868E+03  2.8190761435868E+03  2.8190761435868E+03  2.8190761435868E+03  2.8190761435868E+03  2.8190761435868E+03  1.4095380717934E+03 
 5.6381522871735E+03  1.1276304574347E+04  1.1276304574347E+04  1.1276304574347E+04  1.1276304574347E+04  1.1276304574347E+04  1.1276304574347E+04  1.1276304574347E+04  1.1276304574347E+04  5.6381522871735E+03 
 7.0476903589669E+03  1.4095380717934E+04  1.4095380717934E+04  1.4095380717934E+04  1.4095380717934E+04  1.4095380717934E+04  1.4095380717934E+04  1.4095380717934E+04  1.4095380717934E+04  7.0476903589669E+03 
 4.0000000000000E-01  4.0000000000000E-01  4.0000000000000E-01  4.0000000000000E-01  4.0000000000000E-01  4.0000000000000E-01  4.0000000000000E-01  4.0000000000000E-01  4.0000000000000E-01  4.0000000000000E-01 
 9.4000000000000E-01  1.8800000000000E+00  1.8800000000000E+00  1.8800000000000E+00  1.8800000000000E+00  1.8800000000000E+00  1.8800000000000E+00  1.8800000000000E+00  1.8800000000000E+00  9.4000000000000E-01 
 5.5953302668386E+02  5.5953302668386E+02  5.5953302668386E+02  5.5953302668386E+02  5.5953302668385E+02  5.5953302668386E+02  5.5953302668386E+02  5.5953302668385E+02  5.5953302668385E+02  5.5953302668385E+02 
 5.3333333333333E-06  1.0666666666667E-05  1.0666666666667E-05  1.0666666666667E-05  1.0666666666667E-05  1.0666666666667E-05  1.0666666666667E-05  1.0666666666667E-05  1.0666666666667E-05  5.3333333333333E-06 
 3.0000000000000E-02  3.0000000000000E-02  3.0000000000000E-02  3.0000000000000E-02  3.0000000000000E-02  3.0000000000000E-02  3.0000000000000E-02  3.0000000000000E-02  3.0000000000000E-02  3.0000000000000E-02 
 1.0000000000000E-01  1.0000000000000E-01  1.0000000000000E-01  1.0000000000000E-01  1.0000000000000E-01  1.0000000000000E-01  1.0000000000000E-01  1.0000000000000E-01  1.0000000000000E-01  1.0000000000000E-01 
 1.0956624007712E+01  1.0956624007712E+01  1.0956624007712E+01  1.0956624007712E+01  1.0956624007712E+01  1.0956624007712E+01  1.0956624007712E+01  1.0956624007712E+01  1.0956624007712E+01  1.0956624007712E+01 
 2.7391560019279E+00  2.7391560019279E+00  2.7391560019279E+00  2.7391560019279E+00  2.7391560019279E+00  2.7391560019279E+00  2.7391560019279E+00  2.7391560019279E+00  2.7391560019279E+00  2.7391560019279E+00 
 0.0000000000000E+00  0.0000000000000E+00  0.0000000000000E+00  0.0000000000000E+00  0.0000000000000E+00  0.0000000000000E+00  0.0000000000000E+00  0.0000000000000E+00  0.0000000000000E+00  0.0000000000000E+00 
 0.0000000000000E+00  0.0000000000000E+00  0.0000000000000E+00  0.0000000000000E+00  0.0000000000000E+00  0.0000000000000E+00  0.0000000000000E+00  0.0000000000000E+00  0.0000000000000E+00  0.0000000000000E+00 
 0.0000000000000E+00  0.0000000000000E+00  0.0000000000000E+00  0.0000000000000E+00  0.0000000000000E+00  0.0000000000000E+00  0.0000000000000E+00  0.0000000000000E+00  0.0000000000000E+00  0.0000000000000E+00 
 0.0000000000000E+00  0.0000000000000E+00  0.0000000000000E+00  0.0000000000000E+00  0.0000000000000E+00  0.0000000000000E+00  0.0000000000000E+00  0.0000000000000E+00  0.0000000000000E+00  0.0000000000000E+00 
 0.0000000000000E+00  0.0000000000000E+00  0.0000000000000E+00  0.0000000000000E+00  0.0000000000000E+00  0.0000000000000E+00  0.0000000000000E+00  0.0000000000000E+00  0.0000000000000E+00  0.0000000000000E+00 
 0.0000000000000E+00  0.0000000000000E+00  0.0000000000000E+00  0.0000000000000E+00  0.0000000000000E+00  0.0000000000000E+00  0.0000000000000E+00  0.0000000000000E+00  0.0000000000000E+00  0.0000000000000E+00 
 0.0000000000000E+00  0.0000000000000E+00  0.0000000000000E+00  0.0000000000000E+00  0.0000000000000E+00  0.0000000000000E+00  0.0000000000000E+00  0.0000000000000E+00  0.0000000000000E+00  0.0000000000000E+00 
ZONE T = "ANOD, 1.0000E-08", I = 10, SOLUTIONTIME = 1.000000E-08
ZONETYPE = ORDERED
DATAPACKING = BLOCK
STRANDID = 1
 0.0000000000000E+00  1.0666666666667E-05  2.1333333333333E-05  3.2000000000000E-05  4.2666666666667E-05  5.3333333333333E-05  6.4000000000000E-05  7.4666666666667E-05  8.5333333333333E-05  9.6000000000000E-05 
 1.0618360336246E-08  3.1582969289591E-08  5.2309180133928E-08  7.2829626864029E-08  9.3176757099905E-08  1.1338267968418E-07  1.3347897317806E-07  1.5349759100452E-07  1.7347517753919E-07  1.8354864513351E-07 
 8.4394679988890E-01  8.4394679989032E-01  8.4394679989157E-01  8.4394679989264E-01  8.4394679989355E-01  8.4394679989429E-01  8.4394679989486E-01  8.4394679989527E-01  8.4394679989553E-01  8.4394679992706E-01 
 7.8026600055551E-02  7.8026600054841E-02  7.8026600054217E-02  7.8026600053679E-02  7.8026600053226E-02  7.8026600052856E-02  7.8026600052570E-02  7.8026600052366E-02  7.8026600052236E-02  7.8026600036470E-02 
 7.8026600055551E-02  7.8026600054841E-02  7.8026600054217E-02  7.8026600053679E-02  7.8026600053226E-02  7.8026600052856E-02  7.8026600052570E-02  7.8026600052366E-02  7.8026600052236E-02  7.8026600036470E-02 
 1.3955050836884E-02  1.3955031341048E-02  1.3954973352151E-02  1.3954877307961E-02  1.3954743586174E-02  1.3954572505074E-02  1.3954364324092E-02  1.3954119244255E-02  1.3953837408535E-02  1.3953518902102E-02 
 0.0000000000000E+00 -1.2973555313834E-04 -2.4373391145971E-04 -3.4217404876349E-04 -4.2521037918921E-04 -4.9297302770936E-04 -5.4556805746041E-04 -5.8307765461930E-04 -6.0556027141443E-04 -6.1305072770119E-04 
 2.9814999998353E+02  2.9814999998370E+02  2.9814999998392E+02  2.9814999998395E+02  2.9814999998405E+02  2.9814999998413E+02  2.9814999998428E+02  2.9814999998423E+02  2.9814999998425E+02  2.9814999998427E+02 
-1.3955050836884E-02 -1.4084766894187E-02 -1.4198707263611E-02 -1.4297051356724E-02 -1.4379953965363E-02 -1.4447545532784E-02 -1.4499932381553E-02 -1.4537196898874E-02 -1.4559397679949E-02 -1.4566569629803E-02 
-2.4231250909389E-02 -2.4231250914458E-02 -2.4231250918934E-02 -2.4231250922734E-02 -2.4231250925963E-02 -2.4231250928598E-02 -2.4231250930671E-02 -2.4231250932087E-02 -2.4231250932956E-02 -2.4231250938416E-02 
 1.0276200072504E-02  1.0146484020271E-02  1.0032543655323E-02  9.9341995660096E-03  9.8512969605997E-03  9.7837053958143E-03  9.7313185491182E-03  9.6940540332136E-03  9.6718532530064E-03  9.6646813086130E-03 
 3.4728408711369E+01  6.8568630155363E+01  6.7788822293484E+01  6.7116023473176E+01  6.6549055136696E+01  6.6086926785855E+01  6.5728832875522E+01  6.5474150305369E+01  6.5322436500598E+01  3.2636714024191E+01 
 1.7996944490175E-07  5.3530105421080E-07  8.8659159503116E-07  1.2343956047655E-06  1.5792615107031E-06  1.9217326072199E-06  2.2623480143796E-06  2.6016436498926E-06  2.9402008335646E-06  2.9402008335646E-06 
 0.0000000000000E+00  6.9012723756858E+01  1.3719144994781E+02  2.0464387279946E+02  2.7147641207873E+02  3.3779440301204E+02  4.0370228281504E+02  4.6930377438075E+02  5.3470206775413E+02  6.0000000001250E+02 
 6.0000000001663E+02  5.3098727624406E+02  4.6280855005288E+02  3.9535612720027E+02  3.2852358792136E+02  2.6220559698704E+02  1.9629771718412E+02  1.3069622561966E+02  6.5297932245479E+01  0.0000000000000E+00 
 3.4728408711369E-07  6.8568630155363E-07  6.7788822293484E-07  6.7116023473176E-07  6.6549055136696E-07  6.6086926785855E-07  6.5728832875522E-07  6.5474150305369E-07  6.5322436500598E-07  3.2636714024191E-07 
 1.4095380721407E+03  2.8190761442724E+03  2.8190761442647E+03  2.8190761442579E+03  2.8190761442523E+03  2.8190761442476E+03  2.8190761442441E+03  2.8190761442415E+03  2.8190761442400E+03  1.4095380721197E+03 
 5.6381522868262E+03  1.1276304573661E+04  1.1276304573669E+04  1.1276304573676E+04  1.1276304573682E+04  1.1276304573686E+04  1.1276304573690E+04  1.1276304573692E+04  1.1276304573694E+04  5.6381522868472E+03 
 7.0476903589669E+03  1.4095380717934E+04  1.4095380717934E+04  1.4095380717934E+04  1.4095380717934E+04  1.4095380717934E+04  1.4095380717934E+04  1.4095380717934E+04  1.4095380717934E+04  7.0476903589669E+03 
 4.0000000000000E-01  4.0000000000000E-01  4.0000000000000E-01  4.0000000000000E-01  4.0000000000000E-01  4.0000000000000E-01  4.0000000000000E-01  4.0000000000000E-01  4.0000000000000E-01  4.0000000000000E-01 
 9.4000000000000E-01  1.8800000000000E+00  1.8800000000000E+00  1.8800000000000E+00  1.8800000000000E+00  1.8800000000000E+00  1.8800000000000E+00  1.8800000000000E+00  1.8800000000000E+00  9.4000000000000E-01 
 3.6945115650392E+01  3.6472675614555E+01  3.6057884198662E+01  3.5700012485732E+01  3.5398433583349E+01  3.5152620630774E+01  3.4962145146554E+01  3.4826675694345E+01  3.4745976862020E+01  3.4719908536374E+01 
 5.3333333333333E-06  1.0666666666667E-05  1.0666666666667E-05  1.0666666666667E-05  1.0666666666667E-05  1.0666666666667E-05  1.0666666666667E-05  1.0666666666667E-05  1.0666666666667E-05  5.3333333333333E-06 
 3.0000000000000E-02  3.0000000000000E-02  3.0000000000000E-02  3.0000000000000E-02  3.0000000000000E-02  3.0000000000000E-02  3.0000000000000E-02  3.0000000000000E-02  3.0000000000000E-02  3.0000000000000E-02 
 1.0000000000000E-01  1.0000000000000E-01  1.0000000000000E-01  1.0000000000000E-01  1.0000000000000E-01  1.0000000000000E-01  1.0000000000000E-01  1.0000000000000E-01  1.0000000000000E-01  1.0000000000000E-01 
 1.0956624007037E+01  1.0956624007045E+01  1.0956624007053E+01  1.0956624007059E+01  1.0956624007065E+01  1.0956624007069E+01  1.0956624007073E+01  1.0956624007075E+01  1.0956624007077E+01  1.0956624007077E+01 
 2.7391560026028E+00  2.7391560025941E+00  2.7391560025866E+00  2.7391560025800E+00  2.7391560025745E+00  2.7391560025700E+00  2.7391560025665E+00  2.7391560025641E+00  2.7391560025626E+00  2.7391560025621E+00 
-6.5422934329460E-03 -6.4739239381043E-03 -6.4214235371930E-03 -6.3758670652197E-03 -6.3372890931008E-03 -6.3057177581058E-03 -6.2811753204420E-03 -6.2636786122262E-03 -6.2532393834250E-03 -6.2498851575689E-03 
-6.5422934329460E+05 -6.4739239381043E+05 -6.4214235371930E+05 -6.3758670652197E+05 -6.3372890931008E+05 -6.3057177581058E+05 -6.2811753204420E+05 -6.2636786122262E+05 -6.2532393834250E+05 -6.2498851575689E+05 
 6.3474315024321E-02  3.1252222230703E-01  1.0510258292186E+00  2.2633399062240E+00  3.9370269128445E+00  6.0627429821468E+00  8.6341447031089E+00  1.1647815940580E+01  1.5103214091871E+01  1.6941455286596E+01 
 6.8752333660664E+03  6.0918349087306E+03  4.6333916660303E+03  3.3874103714676E+03  2.3460584141076E+03  1.5027959783626E+03  8.5233311760027E+02  3.9059509292096E+02  1.1469571506856E+02  2.2918488716445E+01 
-6.6110464013498E+05 -6.5348454124139E+05 -6.4677679641116E+05 -6.4097638023334E+05 -6.3607890475110E+05 -6.3208063453192E+05 -6.2897849930651E+05 -6.2677010413148E+05 -6.2545373727166E+05 -6.2502837570089E+05 
 6.6914264391158E+04  6.5224735443896E+04  6.3758842519973E+04  6.2507247416783E+04  6.1461984915503E+04  6.0616408437944E+04  5.9965144847936E+04  5.9504057996997E+04  5.9230220726834E+04  5.9141895074260E+04 
-7.2801890452614E+05 -7.1870927668528E+05 -7.1053563893113E+05 -7.0348362765013E+05 -6.9754088966661E+05 -6.9269704296987E+05 -6.8894364415444E+05 -6.8627416212848E+05 -6.8468395799850E+05 -6.8417027077515E+05 
ZONE T = "ANOD, 2.0000E-08", I = 10, SOLUTIONTIME = 2.000000E-08
ZONETYPE = ORDERED
DATAPACKING = BLOCK
STRANDID = 1
 0.0000000000000E+00  1.0666666666667E-05  2.1333333333333E-05  3.2000000000000E-05  4.2666666666667E-05  5.3333333333333E-05  6.4000000000000E-05  7.4666666666667E-05  8.5333333333333E-05  9.6000000000000E-05 
 1.0618617989037E-08  3.1583358718248E-08  5.2309434530738E-08  7.2829863617131E-08  9.3176877226715E-08  1.1338269931393E-07  1.3347902201246E-07  1.5349728891714E-07  1.7348032319867E-07  1.8364685676159E-07 
 8.4394679977780E-01  8.4394679978064E-01  8.4394679978313E-01  8.4394679978528E-01  8.4394679978710E-01  8.4394679978858E-01  8.4394679978972E-01  8.4394679979054E-01  8.4394679979107E-01  8.4394679985454E-01 
 7.8026600111100E-02  7.8026600109682E-02  7.8026600108435E-02  7.8026600107358E-02  7.8026600106452E-02  7.8026600105712E-02  7.8026600105140E-02  7.8026600104732E-02  7.8026600104463E-02  7.8026600072732E-02 
 7.8026600111100E-02  7.8026600109682E-02  7.8026600108435E-02  7.8026600107358E-02  7.8026600106452E-02  7.8026600105712E-02  7.8026600105140E-02  7.8026600104732E-02  7.8026600104463E-02  7.8026600072732E-02 
 1.3955050459658E-02  1.3955030963822E-02  1.3954972974925E-02  1.3954876930735E-02  1.3954743208948E-02  1.3954572127849E-02  1.3954363946867E-02  1.3954118867030E-02  1.3953837031310E-02  1.3953518524878E-02 
 0.0000000000000E+00 -1.2973555315037E-04 -2.4373391149999E-04 -3.4217404884122E-04 -4.2521037930893E-04 -4.9297302787148E-04 -5.4556805766002E-04 -5.8307765484928E-04 -6.0556027166533E-04 -6.1305072796105E-04 
 2.9814999996706E+02  2.9814999996741E+02  2.9814999996776E+02  2.9814999996790E+02  2.9814999996809E+02  2.9814999996825E+02  2.9814999996846E+02  2.9814999996846E+02  2.9814999996851E+02  2.9814999996855E+02 
-1.3955050459658E-02 -1.4084766516973E-02 -1.4198706886425E-02 -1.4297050979576E-02 -1.4379953588257E-02 -1.4447545155721E-02 -1.4499932004527E-02 -1.4537196521879E-02 -1.4559397302976E-02 -1.4566569252839E-02 
-2.4231250511964E-02 -2.4231250522097E-02 -2.4231250531012E-02 -2.4231250538648E-02 -2.4231250545109E-02 -2.4231250550372E-02 -2.4231250554486E-02 -2.4231250557357E-02 -2.4231250559093E-02 -2.4231250570086E-02 
 1.0276200052305E-02  1.0146484005124E-02  1.0032543644587E-02  9.9341995590715E-03  9.8512969568520E-03  9.7837053946514E-03  9.7313185499590E-03  9.6940540354777E-03  9.6718532561171E-03  9.6646813172470E-03 
 3.4728408642297E+01  6.8568630051730E+01  6.7788822219877E+01  6.7116023425509E+01  6.6549055110732E+01  6.6086926777503E+01  6.5728832880792E+01  6.5474150320328E+01  6.5322436521295E+01  3.2636714049915E+01 
 1.7997159882000E-07  5.3530294934102E-07  8.8659322980802E-07  1.2343969821394E-06  1.5792626332207E-06  1.9217334769318E-06  2.2623486328561E-06  2.6016440716926E-06  2.9402493608719E-06  2.9402493608719E-06 
 0.0000000000000E+00  6.9012723667785E+01  1.3719144980495E+02  2.0464387262594E+02  2.7147641189337E+02  3.3779440284021E+02  4.0370228266854E+02  4.6930377426859E+02  5.3470206769043E+02  6.0000000000044E+02 
 5.9999999999999E+02  5.3098727633182E+02  4.6280855019601E+02  3.9535612737332E+02  3.2852358810521E+02  2.6220559716110E+02  1.9629771733195E+02  1.3069622573137E+02  6.5297932310558E+01  0.0000000000000E+00 
 6.9456817353665E-07  1.3713726020709E-06  1.3557764451336E-06  1.3423204689868E-06  1.3309811024743E-06  1.3217385356336E-06  1.3145766575631E-06  1.3094830062570E-06  1.3064487302189E-06  6.5273428074106E-07 
 1.4095380724880E+03  2.8190761449581E+03  2.8190761449425E+03  2.8190761449291E+03  2.8190761449177E+03  2.8190761449085E+03  2.8190761449013E+03  2.8190761448962E+03  2.8190761448932E+03  1.4095380724461E+03 
 5.6381522864790E+03  1.1276304572976E+04  1.1276304572991E+04  1.1276304573005E+04  1.1276304573016E+04  1.1276304573025E+04  1.1276304573032E+04  1.1276304573038E+04  1.1276304573041E+04  5.6381522865208E+03 
 7.0476903589669E+03  1.4095380717934E+04  1.4095380717934E+04  1.4095380717934E+04  1.4095380717934E+04  1.4095380717934E+04  1.4095380717934E+04  1.4095380717934E+04  1.4095380717934E+04  7.0476903589669E+03 
 4.0000000000000E-01  4.0000000000000E-01  4.0000000000000E-01  4.0000000000000E-01  4.0000000000000E-01  4.0000000000000E-01  4.0000000000000E-01  4.0000000000000E-01  4.0000000000000E-01  4.0000000000000E-01 
 9.4000000000000E-01  1.8800000000000E+00  1.8800000000000E+00  1.8800000000000E+00  1.8800000000000E+00  1.8800000000000E+00  1.8800000000000E+00  1.8800000000000E+00  1.8800000000000E+00  9.4000000000000E-01 
 3.6945115576912E+01  3.6472675559431E+01  3.6057884159509E+01  3.5700012460377E+01  3.5398433569539E+01  3.5152620626332E+01  3.4962145149357E+01  3.4826675702302E+01  3.4745976873030E+01  3.4719908563740E+01 
 5.3333333333333E-06  1.0666666666667E-05  1.0666666666667E-05  1.0666666666667E-05  1.0666666666667E-05  1.0666666666667E-05  1.0666666666667E-05  1.0666666666667E-05  1.0666666666667E-05  5.3333333333333E-06 
 3.0000000000000E-02  3.0000000000000E-02  3.0000000000000E-02  3.0000000000000E-02  3.0000000000000E-02  3.0000000000000E-02  3.0000000000000E-02  3.0000000000000E-02  3.0000000000000E-02  3.0000000000000E-02 
 1.0000000000000E-01  1.0000000000000E-01  1.0000000000000E-01  1.0000000000000E-01  1.0000000000000E-01  1.0000000000000E-01  1.0000000000000E-01  1.0000000000000E-01  1.0000000000000E-01  1.0000000000000E-01 
 1.0956624006362E+01  1.0956624006379E+01  1.0956624006394E+01  1.0956624006407E+01  1.0956624006418E+01  1.0956624006427E+01  1.0956624006434E+01  1.0956624006439E+01  1.0956624006442E+01  1.0956624006443E+01 
 2.7391560032776E+00  2.7391560032604E+00  2.7391560032452E+00  2.7391560032322E+00  2.7391560032211E+00  2.7391560032122E+00  2.7391560032052E+00  2.7391560032002E+00  2.7391560031973E+00  2.7391560031963E+00 
-1.3084586850608E-02 -1.2947847863935E-02 -1.2842847064740E-02 -1.2751734123081E-02 -1.2674578180767E-02 -1.2611435512348E-02 -1.2562350638240E-02 -1.2527357222678E-02 -1.2506478765593E-02 -1.2499770316814E-02 
-6.5422934176616E+05 -6.4739239258303E+05 -6.4214235275473E+05 -6.3758670578609E+05 -6.3372890876666E+05 -6.3057177542418E+05 -6.2811753177979E+05 -6.2636786104521E+05 -6.2532393821678E+05 -6.2498851592455E+05 
 1.2694862979721E-01  6.2504444358007E-01  2.1020516554375E+00  4.5266798068125E+00  7.8740538171889E+00  1.2125485953330E+01  1.7268289393089E+01  2.3295631866363E+01  3.0206428169137E+01  3.3882910559330E+01 
 1.3750466733408E+04  1.2183669819414E+04  9.2667833348819E+03  6.7748207458651E+03  4.6921168308130E+03  3.0055919587043E+03  1.7046662364713E+03  7.8119018649926E+02  2.2939143035662E+02  4.5836977487699E+01 
-6.6110463860781E+05 -6.5348454001593E+05 -6.4677679544941E+05 -6.4097637950038E+05 -6.3607890421027E+05 -6.3208063414749E+05 -6.2897849904335E+05 -6.2677010395471E+05 -6.2545373714614E+05 -6.2502837586860E+05 
 6.6914264126557E+04  6.5224735247941E+04  6.3758842382462E+04  6.2507247328746E+04  6.1461984868133E+04  6.0616408423085E+04  5.9965144857917E+04  5.9504058024490E+04  5.9230220764634E+04  5.9141895173301E+04 
-7.2801890273437E+05 -7.1870927526387E+05 -7.1053563783187E+05 -7.0348362682913E+05 -6.9754088907841E+05 -6.9269704257057E+05 -6.8894364390126E+05 -6.8627416197920E+05 -6.8468395791078E+05 -6.8417027104190E+05 
ZONE T = "ANOD, 3.0000E-08", I = 10, SOLUTIONTIME = 3.000000E-08
ZONETYPE = ORDERED
DATAPACKING = BLOCK
STRANDID = 1
 0.0000000000000E+00  1.0666666666667E-05  2.1333333333333E-05  3.2000000000000E-05  4.2666666666667E-05  5.3333333333333E-05  6.4000000000000E-05  7.4666666666667E-05  8.5333333333333E-05  9.6000000000000E-05 
 1.0618780588073E-08  3.1583424022054E-08  5.2309496410834E-08  7.2829970253213E-08  9.3177141159968E-08  1.1338280873348E-07  1.3347898820331E-07  1.5349741946738E-07  1.7348610556310E-07  1.8374427002785E-07 
 8.4394679966670E-01  8.4394679967095E-01  8.4394679967470E-01  8.4394679967792E-01  8.4394679968065E-01  8.4394679968286E-01  8.4394679968458E-01  8.4394679968580E-01  8.4394679968664E-01  8.4394679978242E-01 
 7.8026600166649E-02  7.8026600164523E-02  7.8026600162652E-02  7.8026600161038E-02  7.8026600159677E-02  7.8026600158569E-02  7.8026600157709E-02  7.8026600157098E-02  7.8026600156681E-02  7.8026600108790E-02 
 7.8026600166649E-02  7.8026600164523E-02  7.8026600162652E-02  7.8026600161038E-02  7.8026600159677E-02  7.8026600158569E-02  7.8026600157709E-02  7.8026600157098E-02  7.8026600156681E-02  7.8026600108790E-02 
 1.3955050078182E-02  1.3955030582346E-02  1.3954972593449E-02  1.3954876549259E-02  1.3954742827472E-02  1.3954571746373E-02  1.3954363565392E-02  1.3954118485555E-02  1.3953836649835E-02  1.3953518143403E-02 
 0.0000000000000E+00 -1.2973555316289E-04 -2.4373391154213E-04 -3.4217404892318E-04 -4.2521037943498E-04 -4.9297302804091E-04 -5.4556805786810E-04 -5.8307765508812E-04 -6.0556027192486E-04 -6.1305072822985E-04 
 2.9814999995060E+02  2.9814999995111E+02  2.9814999995160E+02  2.9814999995185E+02  2.9814999995214E+02  2.9814999995238E+02  2.9814999995266E+02  2.9814999995270E+02  2.9814999995278E+02  2.9814999995284E+02 
-1.3955050078182E-02 -1.4084766135509E-02 -1.4198706504991E-02 -1.4297050598182E-02 -1.4379953206907E-02 -1.4447544774414E-02 -1.4499931623260E-02 -1.4537196140643E-02 -1.4559396921760E-02 -1.4566568871633E-02 
-2.4231250114538E-02 -2.4231250129737E-02 -2.4231250143101E-02 -2.4231250154556E-02 -2.4231250164250E-02 -2.4231250172151E-02 -2.4231250178305E-02 -2.4231250182628E-02 -2.4231250185237E-02 -2.4231250201818E-02 
 1.0276200036357E-02  1.0146483994228E-02  1.0032543638110E-02  9.9341995563745E-03  9.8512969573430E-03  9.7837053977373E-03  9.7313185550455E-03  9.6940540419849E-03  9.6718532634769E-03  9.6646813301852E-03 
 3.4728408587772E+01  6.8568629977207E+01  6.7788822175466E+01  6.7116023406864E+01  6.6549055113801E+01  6.6086926798152E+01  6.5728832915117E+01  6.5474150364279E+01  6.5322436571022E+01  3.2636714090303E+01 
 1.7997375013608E-07  5.3530484440362E-07  8.8659486453010E-07  1.2343983594973E-06  1.5792637557156E-06  1.9217343466323E-06  2.2623492513841E-06  2.6016445205804E-06  2.9402984831849E-06  2.9402984831849E-06 
 0.0000000000000E+00  6.9012723575622E+01  1.3719144965283E+02  2.0464387244469E+02  2.7147641170338E+02  3.3779440265911E+02  4.0370228251741E+02  4.6930377415641E+02  5.3470206762473E+02  6.0000000000218E+02 
 6.0000000000000E+02  5.3098727642362E+02  4.6280855034729E+02  3.9535612755613E+02  3.2852358829579E+02  2.6220559733981E+02  1.9629771748316E+02  1.3069622584346E+02  6.5297932375808E+01  0.0000000000000E+00 
 1.0418522594144E-06  2.0570589018430E-06  2.0336646668883E-06  2.0134807030555E-06  1.9964716536123E-06  1.9826078036151E-06  1.9718649867143E-06  1.9642245098998E-06  1.9596730959292E-06  9.7910142164409E-07 
 1.4095380728352E+03  2.8190761456438E+03  2.8190761456204E+03  2.8190761456002E+03  2.8190761455832E+03  2.8190761455694E+03  2.8190761455586E+03  2.8190761455510E+03  2.8190761455464E+03  1.4095380727725E+03 
 5.6381522861317E+03  1.1276304572290E+04  1.1276304572313E+04  1.1276304572334E+04  1.1276304572351E+04  1.1276304572364E+04  1.1276304572375E+04  1.1276304572383E+04  1.1276304572387E+04  5.6381522861944E+03 
 7.0476903589669E+03  1.4095380717934E+04  1.4095380717934E+04  1.4095380717934E+04  1.4095380717934E+04  1.4095380717934E+04  1.4095380717934E+04  1.4095380717934E+04  1.4095380717934E+04  7.0476903589669E+03 
 4.0000000000000E-01  4.0000000000000E-01  4.0000000000000E-01  4.0000000000000E-01  4.0000000000000E-01  4.0000000000000E-01  4.0000000000000E-01  4.0000000000000E-01  4.0000000000000E-01  4.0000000000000E-01 
 9.4000000000000E-01  1.8800000000000E+00  1.8800000000000E+00  1.8800000000000E+00  1.8800000000000E+00  1.8800000000000E+00  1.8800000000000E+00  1.8800000000000E+00  1.8800000000000E+00  9.4000000000000E-01 
 3.6945115518906E+01  3.6472675519791E+01  3.6057884135886E+01  3.5700012450460E+01  3.5398433571171E+01  3.5152620637315E+01  3.4962145167616E+01  3.4826675725680E+01  3.4745976899480E+01  3.4719908606705E+01 
 5.3333333333333E-06  1.0666666666667E-05  1.0666666666667E-05  1.0666666666667E-05  1.0666666666667E-05  1.0666666666667E-05  1.0666666666667E-05  1.0666666666667E-05  1.0666666666667E-05  5.3333333333333E-06 
 3.0000000000000E-02  3.0000000000000E-02  3.0000000000000E-02  3.0000000000000E-02  3.0000000000000E-02  3.0000000000000E-02  3.0000000000000E-02  3.0000000000000E-02  3.0000000000000E-02  3.0000000000000E-02 
 1.0000000000000E-01  1.0000000000000E-01  1.0000000000000E-01  1.0000000000000E-01  1.0000000000000E-01  1.0000000000000E-01  1.0000000000000E-01  1.0000000000000E-01  1.0000000000000E-01  1.0000000000000E-01 
 1.0956624005687E+01  1.0956624005713E+01  1.0956624005736E+01  1.0956624005755E+01  1.0956624005772E+01  1.0956624005785E+01  1.0956624005796E+01  1.0956624005803E+01  1.0956624005807E+01  1.0956624005809E+01 
 2.7391560039525E+00  2.7391560039266E+00  2.7391560039039E+00  2.7391560038843E+00  2.7391560038678E+00  2.7391560038543E+00  2.7391560038439E+00  2.7391560038364E+00  2.7391560038320E+00  2.7391560038306E+00 
-1.9626880255476E-02 -1.9421771779991E-02 -1.9264270585155E-02 -1.9127601176086E-02 -1.9011867265509E-02 -1.8917153265236E-02 -1.8843525955912E-02 -1.8791035833871E-02 -1.8759718149023E-02 -1.8749655480286E-02 
-6.5422934048689E+05 -6.4739239160561E+05 -6.4214235204146E+05 -6.3758670530053E+05 -6.3372890847419E+05 -6.3057177528882E+05 -6.2811753176718E+05 -6.2636786111929E+05 -6.2532393834301E+05 -6.2498851634715E+05 
 1.9042294431866E-01  9.3756666378553E-01  3.1530774785120E+00  6.7900197016153E+00  1.1811080712895E+01  1.8188228913210E+01  2.5902434069771E+01  3.4943447777340E+01  4.5309642231702E+01  5.0824365818177E+01 
 2.0625700102077E+04  1.8275504732141E+04  1.3900175006714E+04  1.0162231123359E+04  7.0381752502148E+03  4.5083879410772E+03  2.5569993566439E+03  1.1717852807389E+03  3.4408714586297E+02  6.8755466315672E+01 
-6.6110463732987E+05 -6.5348453904055E+05 -6.4677679473912E+05 -6.4097637901792E+05 -6.3607890392048E+05 -6.3208063401416E+05 -6.2897849903203E+05 -6.2677010402944E+05 -6.2545373727258E+05 -6.2502837629124E+05 
 6.6914263917654E+04  6.5224735107009E+04  6.3758842299530E+04  6.2507247294428E+04  6.1461984874059E+04  6.0616408461109E+04  5.9965144920597E+04  5.9504058104360E+04  5.9230220854770E+04  5.9141895325244E+04 