TITLE = "Solution on Domain BulkDomain1D_1"
VARIABLES = "x [m]"  
"Vel_axial" 	"MF_sp(ECDMC)" 	"MF_sp(Li+)" 	"MF_sp(PF6-)" 	"Volt(Electroly)" 	"Temperature" 	"Porosity []" 	"Control volume thickness [m]" 	"volFrac MgO(S) []" 	"volFrac ExtraStuff []" 	"qHeat_accum [J/m3]" 	"qHeat_step [W/m3]" 	"Joule_Lyte [W/m3]" 	"Joule_Solid [W/m3]" 	
ZONE T = "SEP , 0.0000E+00", I = 10, SOLUTIONTIME = 0.000000E+00
ZONETYPE = ORDERED
DATAPACKING = BLOCK
STRANDID = 2
 9.6000000000000E-05  9.8777777777778E-05  1.0155555555556E-04  1.0433333333333E-04  1.0711111111111E-04  1.0988888888889E-04  1.1266666666667E-04  1.1544444444444E-04  1.1822222222222E-04  1.2100000000000E-04 
 0.0000000000000E+00  0.0000000000000E+00  0.0000000000000E+00  0.0000000000000E+00  0.0000000000000E+00  0.0000000000000E+00  0.0000000000000E+00  0.0000000000000E+00  0.0000000000000E+00  0.0000000000000E+00 
 8.4394680000000E-01  8.4394680000000E-01  8.4394680000000E-01  8.4394680000000E-01  8.4394680000000E-01  8.4394680000000E-01  8.4394680000000E-01  8.4394680000000E-01  8.4394680000000E-01  8.4394680000000E-01 
 7.8026600000000E-02  7.8026600000000E-02  7.8026600000000E-02  7.8026600000000E-02  7.8026600000000E-02  7.8026600000000E-02  7.8026600000000E-02  7.8026600000000E-02  7.8026600000000E-02  7.8026600000000E-02 
 7.8026600000000E-02  7.8026600000000E-02  7.8026600000000E-02  7.8026600000000E-02  7.8026600000000E-02  7.8026600000000E-02  7.8026600000000E-02  7.8026600000000E-02  7.8026600000000E-02  7.8026600000000E-02 
-7.0000000000000E-02 -7.0000000000000E-02 -7.0000000000000E-02 -7.0000000000000E-02 -7.0000000000000E-02 -7.0000000000000E-02 -7.0000000000000E-02 -7.0000000000000E-02 -7.0000000000000E-02 -7.0000000000000E-02 
 2.9815000000000E+02  2.9815000000000E+02  2.9815000000000E+02  2.9815000000000E+02  2.9815000000000E+02  2.9815000000000E+02  2.9815000000000E+02  2.9815000000000E+02  2.9815000000000E+02  2.9815000000000E+02 
 6.5000471412550E-01  6.5000471412551E-01  6.5000471412550E-01  6.5000471412550E-01  6.5000471412551E-01  6.5000471412550E-01  6.5000471412551E-01  6.5000471412550E-01  6.5000471412550E-01  6.5000471412551E-01 
 1.3888888888889E-06  2.7777777777778E-06  2.7777777777778E-06  2.7777777777778E-06  2.7777777777778E-06  2.7777777777778E-06  2.7777777777778E-06  2.7777777777778E-06  2.7777777777778E-06  1.3888888888889E-06 
 2.4999528587450E-01  2.4999528587449E-01  2.4999528587450E-01  2.4999528587450E-01  2.4999528587449E-01  2.4999528587450E-01  2.4999528587449E-01  2.4999528587450E-01  2.4999528587450E-01  2.4999528587449E-01 
 1.0000000000000E-01  1.0000000000000E-01  1.0000000000000E-01  1.0000000000000E-01  1.0000000000000E-01  1.0000000000000E-01  1.0000000000000E-01  1.0000000000000E-01  1.0000000000000E-01  1.0000000000000E-01 
 0.0000000000000E+00  0.0000000000000E+00  0.0000000000000E+00  0.0000000000000E+00  0.0000000000000E+00  0.0000000000000E+00  0.0000000000000E+00  0.0000000000000E+00  0.0000000000000E+00  0.0000000000000E+00 
 0.0000000000000E+00  0.0000000000000E+00  0.0000000000000E+00  0.0000000000000E+00  0.0000000000000E+00  0.0000000000000E+00  0.0000000000000E+00  0.0000000000000E+00  0.0000000000000E+00  0.0000000000000E+00 
 0.0000000000000E+00  0.0000000000000E+00  0.0000000000000E+00  0.0000000000000E+00  0.0000000000000E+00  0.0000000000000E+00  0.0000000000000E+00  0.0000000000000E+00  0.0000000000000E+00  0.0000000000000E+00 
 0.0000000000000E+00  0.0000000000000E+00  0.0000000000000E+00  0.0000000000000E+00  0.0000000000000E+00  0.0000000000000E+00  0.0000000000000E+00  0.0000000000000E+00  0.0000000000000E+00  0.0000000000000E+00 
ZONE T = "SEP , 1.0000E-08", I = 10, SOLUTIONTIME = 1.000000E-08
ZONETYPE = ORDERED
DATAPACKING = BLOCK
STRANDID = 2
 9.6000000000000E-05  9.8777777777778E-05  1.0155555555556E-04  1.0433333333333E-04  1.0711111111111E-04  1.0988888888889E-04  1.1266666666667E-04  1.1544444444444E-04  1.1822222222222E-04  1.2100000000000E-04 
 1.8354792783866E-07  1.8344867435122E-07  1.8344767032816E-07  1.8344767266813E-07  1.8344767256709E-07  1.8344767256776E-07  1.8344767355898E-07  1.8344775294905E-07  1.8345723393616E-07  1.8279062743198E-07 
 8.4394679992706E-01  8.4394679999925E-01  8.4394679999999E-01  8.4394680000000E-01  8.4394680000000E-01  8.4394680000000E-01  8.4394680000000E-01  8.4394680000000E-01  8.4394680000007E-01  8.4394680000694E-01 
 7.8026600036470E-02  7.8026600000373E-02  7.8026600000004E-02  7.8026600000000E-02  7.8026600000000E-02  7.8026600000000E-02  7.8026600000000E-02  7.8026600000000E-02  7.8026599999964E-02  7.8026599996528E-02 
 7.8026600036470E-02  7.8026600000373E-02  7.8026600000004E-02  7.8026600000000E-02  7.8026600000000E-02  7.8026600000000E-02  7.8026600000000E-02  7.8026600000000E-02  7.8026599999964E-02  7.8026599996528E-02 
 1.3951822742338E-02  1.3951780398322E-02  1.3951738054238E-02  1.3951695710229E-02  1.3951653366156E-02  1.3951611022137E-02  1.3951568678131E-02  1.3951526334112E-02  1.3951483990038E-02  1.3951441646022E-02 
 2.9814999991666E+02  2.9814999995340E+02  2.9814999997325E+02  2.9814999998416E+02  2.9814999999012E+02  2.9814999999309E+02  2.9814999999687E+02  2.9815000000057E+02  2.9815000000557E+02  2.9815000001269E+02 
 6.5000471412550E-01  6.5000471412551E-01  6.5000471412550E-01  6.5000471412550E-01  6.5000471412551E-01  6.5000471412550E-01  6.5000471412551E-01  6.5000471412550E-01  6.5000471412550E-01  6.5000471412551E-01 
 1.3888888888889E-06  2.7777777777778E-06  2.7777777777778E-06  2.7777777777778E-06  2.7777777777778E-06  2.7777777777778E-06  2.7777777777778E-06  2.7777777777778E-06  2.7777777777778E-06  1.3888888888889E-06 
 2.4999528587450E-01  2.4999528587449E-01  2.4999528587450E-01  2.4999528587450E-01  2.4999528587449E-01  2.4999528587450E-01  2.4999528587449E-01  2.4999528587450E-01  2.4999528587450E-01  2.4999528587449E-01 
 1.0000000000000E-01  1.0000000000000E-01  1.0000000000000E-01  1.0000000000000E-01  1.0000000000000E-01  1.0000000000000E-01  1.0000000000000E-01  1.0000000000000E-01  1.0000000000000E-01  1.0000000000000E-01 
 9.1463037539905E-08  9.1463182502731E-08  9.1463165371441E-08  9.1463142604600E-08  9.1463165897725E-08  9.1463020962441E-08  9.1463020440516E-08  9.1463165377093E-08  9.1463159765090E-08  9.1463037595719E-08 
 9.1463037539905E+00  9.1463182502731E+00  9.1463165371441E+00  9.1463142604600E+00  9.1463165897725E+00  9.1463020962441E+00  9.1463020440516E+00  9.1463165377093E+00  9.1463159765090E+00  9.1463037595719E+00 
 9.1463037539905E+00  9.1463182502731E+00  9.1463165371441E+00  9.1463142604600E+00  9.1463165897725E+00  9.1463020962441E+00  9.1463020440516E+00  9.1463165377093E+00  9.1463159765090E+00  9.1463037595719E+00 
 0.0000000000000E+00  0.0000000000000E+00  0.0000000000000E+00  0.0000000000000E+00  0.0000000000000E+00  0.0000000000000E+00  0.0000000000000E+00  0.0000000000000E+00  0.0000000000000E+00  0.0000000000000E+00 
ZONE T = "SEP , 2.0000E-08", I = 10, SOLUTIONTIME = 2.000000E-08
ZONETYPE = ORDERED
DATAPACKING = BLOCK
STRANDID = 2
 9.6000000000000E-05  9.8777777777778E-05  1.0155555555556E-04  1.0433333333333E-04  1.0711111111111E-04  1.0988888888889E-04  1.1266666666667E-04  1.1544444444444E-04  1.1822222222222E-04  1.2100000000000E-04 
 1.8364685137242E-07  1.8345082594751E-07  1.8344783750977E-07  1.8344783913115E-07  1.8344783860726E-07  1.8344783865449E-07  1.8344784067650E-07  1.8344818504550E-07  1.8346689995415E-07  1.8279393281867E-07 
 8.4394679985454E-01  8.4394679999778E-01  8.4394679999997E-01  8.4394680000000E-01  8.4394680000000E-01  8.4394680000000E-01  8.4394680000000E-01  8.4394680000000E-01  8.4394680000021E-01  8.4394680001382E-01 
 7.8026600072732E-02  7.8026600001110E-02  7.8026600000015E-02  7.8026600000000E-02  7.8026600000000E-02  7.8026600000000E-02  7.8026600000000E-02  7.8026599999999E-02  7.8026599999894E-02  7.8026599993088E-02 
 7.8026600072732E-02  7.8026600001110E-02  7.8026600000015E-02  7.8026600000000E-02  7.8026600000000E-02  7.8026600000000E-02  7.8026600000000E-02  7.8026599999999E-02  7.8026599999894E-02  7.8026599993088E-02 
 1.3953381194275E-02  1.3953338850240E-02  1.3953296506206E-02  1.3953254162172E-02  1.3953211818137E-02  1.3953169474103E-02  1.3953127130069E-02  1.3953084786034E-02  1.3953042442000E-02  1.3953000097966E-02 
 2.9814999990098E+02  2.9814999993333E+02  2.9814999995662E+02  2.9814999997279E+02  2.9814999998464E+02  2.9814999999347E+02  2.9814999999963E+02  2.9815000000512E+02  2.9815000000946E+02  2.9815000001311E+02 
 6.5000471412550E-01  6.5000471412551E-01  6.5000471412550E-01  6.5000471412550E-01  6.5000471412551E-01  6.5000471412550E-01  6.5000471412551E-01  6.5000471412550E-01  6.5000471412550E-01  6.5000471412551E-01 
 1.3888888888889E-06  2.7777777777778E-06  2.7777777777778E-06  2.7777777777778E-06  2.7777777777778E-06  2.7777777777778E-06  2.7777777777778E-06  2.7777777777778E-06  2.7777777777778E-06  1.3888888888889E-06 
 2.4999528587450E-01  2.4999528587449E-01  2.4999528587450E-01  2.4999528587450E-01  2.4999528587449E-01  2.4999528587450E-01  2.4999528587449E-01  2.4999528587450E-01  2.4999528587450E-01  2.4999528587449E-01 
 1.0000000000000E-01  1.0000000000000E-01  1.0000000000000E-01  1.0000000000000E-01  1.0000000000000E-01  1.0000000000000E-01  1.0000000000000E-01  1.0000000000000E-01  1.0000000000000E-01  1.0000000000000E-01 
 1.8292615156330E-07  1.8292629655805E-07  1.8292627945529E-07  1.8292625669041E-07  1.8292627999103E-07  1.8292613506051E-07  1.8292613454028E-07  1.8292627947518E-07  1.8292627386701E-07  1.8292615170226E-07 
 9.1463114023394E+00  9.1463114055318E+00  9.1463114083853E+00  9.1463114085805E+00  9.1463114093306E+00  9.1463114098064E+00  9.1463114099766E+00  9.1463114098085E+00  9.1463114101920E+00  9.1463114106543E+00 
 9.1463114023394E+00  9.1463114055318E+00  9.1463114083853E+00  9.1463114085805E+00  9.1463114093306E+00  9.1463114098064E+00  9.1463114099766E+00  9.1463114098085E+00  9.1463114101920E+00  9.1463114106543E+00 
 0.0000000000000E+00  0.0000000000000E+00  0.0000000000000E+00  0.0000000000000E+00  0.0000000000000E+00  0.0000000000000E+00  0.0000000000000E+00  0.0000000000000E+00  0.0000000000000E+00  0.0000000000000E+00 
ZONE T = "SEP , 3.0000E-08", I = 10, SOLUTIONTIME = 3.000000E-08
ZONETYPE = ORDERED
DATAPACKING = BLOCK
STRANDID = 2
 9.6000000000000E-05  9.8777777777778E-05  1.0155555555556E-04  1.0433333333333E-04  1.0711111111111E-04  1.0988888888889E-04  1.1266666666667E-04  1.1544444444444E-04  1.1822222222222E-04  1.2100000000000E-04 
 1.8374414230631E-07  1.8345370982180E-07  1.8344775906213E-07  1.8344760219126E-07  1.8344760063468E-07  1.8344760075557E-07  1.8344765222452E-07  1.8344820683307E-07  1.8347572430530E-07  1.8279507862530E-07 
 8.4394679978242E-01  8.4394679999560E-01  8.4394679999993E-01  8.4394680000000E-01  8.4394680000000E-01  8.4394680000000E-01  8.4394680000000E-01  8.4394680000001E-01  8.4394680000042E-01  8.4394680002066E-01 
 7.8026600108790E-02  7.8026600002201E-02  7.8026600000037E-02  7.8026600000001E-02  7.8026600000000E-02  7.8026600000000E-02  7.8026600000000E-02  7.8026599999996E-02  7.8026599999791E-02  7.8026599989671E-02 
 7.8026600108790E-02  7.8026600002201E-02  7.8026600000037E-02  7.8026600000001E-02  7.8026600000000E-02  7.8026600000000E-02  7.8026600000000E-02  7.8026599999996E-02  7.8026599999791E-02  7.8026599989671E-02 
 1.3953380812799E-02  1.3953338468765E-02  1.3953296124731E-02  1.3953253780696E-02  1.3953211436662E-02  1.3953169092628E-02  1.3953126748593E-02  1.3953084404559E-02  1.3953042060525E-02  1.3952999716490E-02 
 2.9814999988529E+02  2.9814999991570E+02  2.9814999994137E+02  2.9814999996011E+02  2.9814999997600E+02  2.9814999998739E+02  2.9814999999721E+02  2.9815000000435E+02  2.9815000000932E+02  2.9815000001353E+02 
 6.5000471412550E-01  6.5000471412551E-01  6.5000471412550E-01  6.5000471412550E-01  6.5000471412551E-01  6.5000471412550E-01  6.5000471412551E-01  6.5000471412550E-01  6.5000471412550E-01  6.5000471412551E-01 
 1.3888888888889E-06  2.7777777777778E-06  2.7777777777778E-06  2.7777777777778E-06  2.7777777777778E-06  2.7777777777778E-06  2.7777777777778E-06  2.7777777777778E-06  2.7777777777778E-06  1.3888888888889E-06 
 2.4999528587450E-01  2.4999528587449E-01  2.4999528587450E-01  2.4999528587450E-01  2.4999528587449E-01  2.4999528587450E-01  2.4999528587449E-01  2.4999528587450E-01  2.4999528587450E-01  2.4999528587449E-01 
 1.0000000000000E-01  1.0000000000000E-01  1.0000000000000E-01  1.0000000000000E-01  1.0000000000000E-01  1.0000000000000E-01  1.0000000000000E-01  1.0000000000000E-01  1.0000000000000E-01  1.0000000000000E-01 
 2.7438926555613E-07  2.7438941058973E-07  2.7438939353294E-07  2.7438937077625E-07  2.7438939407961E-07  2.7438924915660E-07  2.7438924863720E-07  2.7438939357354E-07  2.7438938797154E-07  2.7438926580646E-07 
 9.1463113992828E+00  9.1463114031679E+00  9.1463114077647E+00  9.1463114085842E+00  9.1463114088576E+00  9.1463114096099E+00  9.1463114096916E+00  9.1463114098364E+00  9.1463114104530E+00  9.1463114104200E+00 
 9.1463113992828E+00  9.1463114031679E+00  9.1463114077647E+00  9.1463114085842E+00  9.1463114088576E+00  9.1463114096099E+00  9.1463114096916E+00  9.1463114098364E+00  9.1463114104530E+00  9.1463114104200E+00 
 0.0000000000000E+00  0.0000000000000E+00  0.0000000000000E+00  0.0000000000000E+00  0.0000000000000E+00  0.0000000000000E+00  0.0000000000000E+00  0.0000000000000E+00  0.0000000000000E+00  0.0000000000000E+00 
ZONE T = "SEP , 4.0000E-08", I = 10, SOLUTIONTIME = 4.000000E-08
ZONETYPE = ORDERED
DATAPACKING = BLOCK
STRANDID = 2
 9.6000000000000E-05  9.8777777777778E-05  1.0155555555556E-04  1.0433333333333E-04  1.0711111111111E-04  1.0988888888889E-04  1.1266666666667E-04  1.1544444444444E-04  1.1822222222222E-04  1.2100000000000E-04 
 1.8383986996631E-07  1.8345770268625E-07  1.8344805235774E-07  1.8344781428369E-07  1.8344781499065E-07  1.8344781530521E-07  1.8344784222499E-07  1.8344879319434E-07  1.8348506614734E-07  1.8279724002103E-07 
 8.4394679971071E-01  8.4394679999273E-01  8.4394679999985E-01  8.4394680000000E-01  8.4394680000000E-01  8.4394680000000E-01  8.4394680000000E-01  8.4394680000001E-01  8.4394680000069E-01  8.4394680002744E-01 
 7.8026600144646E-02  7.8026600003637E-02  7.8026600000074E-02  7.8026600000001E-02  7.8026600000000E-02  7.8026600000000E-02  7.8026600000000E-02  7.8026599999993E-02  7.8026599999655E-02  7.8026599986278E-02 
 7.8026600144646E-02  7.8026600003637E-02  7.8026600000074E-02  7.8026600000001E-02  7.8026600000000E-02  7.8026600000000E-02  7.8026600000000E-02  7.8026599999993E-02  7.8026599999655E-02  7.8026599986278E-02 
 1.3953380431327E-02  1.3953338087293E-02  1.3953295743259E-02  1.3953253399225E-02  1.3953211055190E-02  1.3953168711156E-02  1.3953126367122E-02  1.3953084023087E-02  1.3953041679053E-02  1.3952999335019E-02 
 2.9814999986961E+02  2.9814999990141E+02  2.9814999992763E+02  2.9814999994891E+02  2.9814999996706E+02  2.9814999998176E+02  2.9814999999210E+02  2.9814999999953E+02  2.9815000000701E+02  2.9815000001394E+02 
 6.5000471412550E-01  6.5000471412551E-01  6.5000471412550E-01  6.5000471412550E-01  6.5000471412551E-01  6.5000471412550E-01  6.5000471412551E-01  6.5000471412550E-01  6.5000471412550E-01  6.5000471412551E-01 
 1.3888888888889E-06  2.7777777777778E-06  2.7777777777778E-06  2.7777777777778E-06  2.7777777777778E-06  2.7777777777778E-06  2.7777777777778E-06  2.7777777777778E-06  2.7777777777778E-06  1.3888888888889E-06 
 2.4999528587450E-01  2.4999528587449E-01  2.4999528587450E-01  2.4999528587450E-01  2.4999528587449E-01  2.4999528587450E-01  2.4999528587449E-01  2.4999528587450E-01  2.4999528587450E-01  2.4999528587449E-01 
 1.0000000000000E-01  1.0000000000000E-01  1.0000000000000E-01  1.0000000000000E-01  1.0000000000000E-01  1.0000000000000E-01  1.0000000000000E-01  1.0000000000000E-01  1.0000000000000E-01  1.0000000000000E-01 
 3.6585237951797E-07  3.6585252460480E-07  3.6585250760765E-07  3.6585248485806E-07  3.6585250816710E-07  3.6585236325090E-07  3.6585236273195E-07  3.6585250766942E-07  3.6585250207556E-07  3.6585237991614E-07 
 9.1463113961845E+00  9.1463114015071E+00  9.1463114074709E+00  9.1463114081817E+00  9.1463114087491E+00  9.1463114094293E+00  9.1463114094753E+00  9.1463114095878E+00  9.1463114104023E+00  9.1463114109677E+00 
 9.1463113961845E+00  9.1463114015071E+00  9.1463114074709E+00  9.1463114081817E+00  9.1463114087491E+00  9.1463114094293E+00  9.1463114094753E+00  9.1463114095878E+00  9.1463114104023E+00  9.1463114109677E+00 
 0.0000000000000E+00  0.0000000000000E+00  0.0000000000000E+00  0.0000000000000E+00  0.0000000000000E+00  0.0000000000000E+00  0.0000000000000E+00  0.0000000000000E+00  0.0000000000000E+00  0.0000000000000E+00 
ZONE T = "SEP , 5.5000E-08", I = 10, SOLUTIONTIME = 5.500000E-08
ZONETYPE = ORDERED
DATAPACKING = BLOCK
STRANDID = 2
 9.6000000000000E-05  9.8777777777778E-05  1.0155555555556E-04  1.0433333333333E-04  1.0711111111111E-04  1.0988888888889E-04  1.1266666666667E-04  1.1544444444444E-04  1.1822222222222E-04  1.2100000000000E-04 
 1.8397967640319E-07  1.8346500852614E-07  1.8344773537987E-07  1.8344729400596E-07  1.8344732905909E-07  1.8344732986158E-07  1.8344736317948E-07  1.8344898405335E-07  1.8349775073811E-07  1.8279937835929E-07 
 8.4394679960402E-01  8.4394679998692E-01  8.4394679999966E-01  8.4394679999999E-01  8.4394680000000E-01  8.4394680000000E-01  8.4394680000000E-01  8.4394680000003E-01  8.4394680000124E-01  8.4394680003752E-01 
 7.8026600197989E-02  7.8026600006538E-02  7.8026600000171E-02  7.8026600000004E-02  7.8026600000000E-02  7.8026600000000E-02  7.8026600000000E-02  7.8026599999984E-02  7.8026599999380E-02  7.8026599981240E-02 
 7.8026600197989E-02  7.8026600006538E-02  7.8026600000171E-02  7.8026600000004E-02  7.8026600000000E-02  7.8026600000000E-02  7.8026600000000E-02  7.8026599999984E-02  7.8026599999380E-02  7.8026599981240E-02 
 1.3953379984453E-02  1.3953337640419E-02  1.3953295296384E-02  1.3953252952350E-02  1.3953210608316E-02  1.3953168264282E-02  1.3953125920247E-02  1.3953083576213E-02  1.3953041232179E-02  1.3952998888144E-02 
 2.9814999984609E+02  2.9814999987992E+02  2.9814999990897E+02  2.9814999993444E+02  2.9814999995557E+02  2.9814999997102E+02  2.9814999998359E+02  2.9814999999391E+02  2.9815000000377E+02  2.9815000001457E+02 
 6.5000471412550E-01  6.5000471412551E-01  6.5000471412550E-01  6.5000471412550E-01  6.5000471412551E-01  6.5000471412550E-01  6.5000471412551E-01  6.5000471412550E-01  6.5000471412550E-01  6.5000471412551E-01 
 1.3888888888889E-06  2.7777777777778E-06  2.7777777777778E-06  2.7777777777778E-06  2.7777777777778E-06  2.7777777777778E-06  2.7777777777778E-06  2.7777777777778E-06  2.7777777777778E-06  1.3888888888889E-06 
 2.4999528587450E-01  2.4999528587449E-01  2.4999528587450E-01  2.4999528587450E-01  2.4999528587449E-01  2.4999528587450E-01  2.4999528587449E-01  2.4999528587450E-01  2.4999528587450E-01  2.4999528587449E-01 
 1.0000000000000E-01  1.0000000000000E-01  1.0000000000000E-01  1.0000000000000E-01  1.0000000000000E-01  1.0000000000000E-01  1.0000000000000E-01  1.0000000000000E-01  1.0000000000000E-01  1.0000000000000E-01 
 5.0304705039134E-07  5.0304719558755E-07  5.0304717871280E-07  5.0304715597640E-07  5.0304717929264E-07  5.0304703438587E-07  5.0304703387230E-07  5.0304717881012E-07  5.0304717323018E-07  5.0304705108729E-07 
 9.1463113915576E+00  9.1463113988502E+00  9.1463114070101E+00  9.1463114078890E+00  9.1463114083695E+00  9.1463114089980E+00  9.1463114093563E+00  9.1463114093799E+00  9.1463114103075E+00  9.1463114114102E+00 
 9.1463113915576E+00  9.1463113988502E+00  9.1463114070101E+00  9.1463114078890E+00  9.1463114083695E+00  9.1463114089980E+00  9.1463114093563E+00  9.1463114093799E+00  9.1463114103075E+00  9.1463114114102E+00 
 0.0000000000000E+00  0.0000000000000E+00  0.0000000000000E+00  0.0000000000000E+00  0.0000000000000E+00  0.0000000000000E+00  0.0000000000000E+00  0.0000000000000E+00  0.0000000000000E+00  0.0000000000000E+00 
ZONE T = "SEP , 7.7500E-08", I = 10, SOLUTIONTIME = 7.750000E-08
ZONETYPE = ORDERED
DATAPACKING = BLOCK
STRANDID = 2
 9.6000000000000E-05  9.8777777777778E-05  1.0155555555556E-04  1.0433333333333E-04  1.0711111111111E-04  1.0988888888889E-04  1.1266666666667E-04  1.1544444444444E-04  1.1822222222222E-04  1.2100000000000E-04 
 1.8418291620273E-07  1.8348070177384E-07  1.8344846113744E-07  1.8344732134198E-07  1.8344726244753E-07  1.8344726298465E-07  1.8344738068050E-07  1.8345045822341E-07  1.8351687913925E-07  1.8280331173904E-07 
 8.4394679944590E-01  8.4394679997505E-01  8.4394679999911E-01  8.4394679999997E-01  8.4394680000000E-01  8.4394680000000E-01  8.4394680000000E-01  8.4394680000008E-01  8.4394680000236E-01  8.4394680005242E-01 
 7.8026600277050E-02  7.8026600012475E-02  7.8026600000444E-02  7.8026600000014E-02  7.8026600000000E-02  7.8026600000000E-02  7.8026599999999E-02  7.8026599999958E-02  7.8026599998818E-02  7.8026599973792E-02 
 7.8026600277050E-02  7.8026600012475E-02  7.8026600000444E-02  7.8026600000014E-02  7.8026600000000E-02  7.8026600000000E-02  7.8026599999999E-02  7.8026599999958E-02  7.8026599998818E-02  7.8026599973792E-02 
 1.3953379195814E-02  1.3953336851780E-02  1.3953294507746E-02  1.3953252163711E-02  1.3953209819677E-02  1.3953167475643E-02  1.3953125131609E-02  1.3953082787574E-02  1.3953040443540E-02  1.3952998099506E-02 
 2.9814999981083E+02  2.9814999984788E+02  2.9814999988017E+02  2.9814999990846E+02  2.9814999993265E+02  2.9814999995385E+02  2.9814999997191E+02  2.9814999998781E+02  2.9815000000211E+02  2.9815000001551E+02 
 6.5000471412550E-01  6.5000471412551E-01  6.5000471412550E-01  6.5000471412550E-01  6.5000471412551E-01  6.5000471412550E-01  6.5000471412551E-01  6.5000471412550E-01  6.5000471412550E-01  6.5000471412551E-01 
 1.3888888888889E-06  2.7777777777778E-06  2.7777777777778E-06  2.7777777777778E-06  2.7777777777778E-06  2.7777777777778E-06  2.7777777777778E-06  2.7777777777778E-06  2.7777777777778E-06  1.3888888888889E-06 
 2.4999528587450E-01  2.4999528587449E-01  2.4999528587450E-01  2.4999528587450E-01  2.4999528587449E-01  2.4999528587450E-01  2.4999528587449E-01  2.4999528587450E-01  2.4999528587450E-01  2.4999528587449E-01 
 1.0000000000000E-01  1.0000000000000E-01  1.0000000000000E-01  1.0000000000000E-01  1.0000000000000E-01  1.0000000000000E-01  1.0000000000000E-01  1.0000000000000E-01  1.0000000000000E-01  1.0000000000000E-01 
 7.0883905656295E-07  7.0883920198223E-07  7.0883918534467E-07  7.0883916262985E-07  7.0883918596259E-07  7.0883904107492E-07  7.0883904057398E-07  7.0883918551669E-07  7.0883917997410E-07  7.0883905786621E-07 
 9.1463113854048E+00  9.1463113953192E+00  9.1463114058607E+00  9.1463114068201E+00  9.1463114075533E+00  9.1463114084025E+00  9.1463114089636E+00  9.1463114091810E+00  9.1463114108410E+00  9.1463114123965E+00 
 9.1463113854048E+00  9.1463113953192E+00  9.1463114058607E+00  9.1463114068201E+00  9.1463114075533E+00  9.1463114084025E+00  9.1463114089636E+00  9.1463114091810E+00  9.1463114108410E+00  9.1463114123965E+00 
 0.0000000000000E+00  0.0000000000000E+00  0.0000000000000E+00  0.0000000000000E+00  0.0000000000000E+00  0.0000000000000E+00  0.0000000000000E+00  0.0000000000000E+00  0.0000000000000E+00  0.0000000000000E+00 
ZONE T = "SEP , 1.1125E-07", I = 10, SOLUTIONTIME = 1.112500E-07
ZONETYPE = ORDERED
DATAPACKING = BLOCK
STRANDID = 2
 9.6000000000000E-05  9.8777777777778E-05  1.0155555555556E-04  1.0433333333333E-04  1.0711111111111E-04  1.0988888888889E-04  1.1266666666667E-04  1.1544444444444E-04  1.1822222222222E-04  1.2100000000000E-04 
 1.8447350016093E-07  1.8351279158574E-07  1.8345090270689E-07  1.8344776181053E-07  1.8344762808448E-07  1.8344764370276E-07  1.8344792523842E-07  1.8345376875815E-07  1.8354442845595E-07  1.8280985726114E-07 
 8.4394679921278E-01  8.4394679995068E-01  8.4394679999754E-01  8.4394679999989E-01  8.4394680000000E-01  8.4394680000000E-01  8.4394680000001E-01  8.4394680000023E-01  8.4394680000466E-01  8.4394680007430E-01 
 7.8026600393608E-02  7.8026600024660E-02  7.8026600001229E-02  7.8026600000053E-02  7.8026600000002E-02  7.8026600000000E-02  7.8026599999995E-02  7.8026599999884E-02  7.8026599997668E-02  7.8026599962849E-02 
 7.8026600393608E-02  7.8026600024660E-02  7.8026600001229E-02  7.8026600000053E-02  7.8026600000002E-02  7.8026600000000E-02  7.8026599999995E-02  7.8026599999884E-02  7.8026599997668E-02  7.8026599962849E-02 
 1.3953378012872E-02  1.3953335668837E-02  1.3953293324803E-02  1.3953250980769E-02  1.3953208636735E-02  1.3953166292700E-02  1.3953123948666E-02  1.3953081604632E-02  1.3953039260597E-02  1.3952996916563E-02 
 2.9814999975793E+02  2.9814999980115E+02  2.9814999983884E+02  2.9814999987255E+02  2.9814999990257E+02  2.9814999992932E+02  2.9814999995312E+02  2.9814999997548E+02  2.9814999999654E+02  2.9815000001690E+02 
 6.5000471412550E-01  6.5000471412551E-01  6.5000471412550E-01  6.5000471412550E-01  6.5000471412551E-01  6.5000471412550E-01  6.5000471412551E-01  6.5000471412550E-01  6.5000471412550E-01  6.5000471412551E-01 
 1.3888888888889E-06  2.7777777777778E-06  2.7777777777778E-06  2.7777777777778E-06  2.7777777777778E-06  2.7777777777778E-06  2.7777777777778E-06  2.7777777777778E-06  2.7777777777778E-06  1.3888888888889E-06 
 2.4999528587450E-01  2.4999528587449E-01  2.4999528587450E-01  2.4999528587450E-01  2.4999528587449E-01  2.4999528587450E-01  2.4999528587449E-01  2.4999528587450E-01  2.4999528587450E-01  2.4999528587449E-01 
 1.0000000000000E-01  1.0000000000000E-01  1.0000000000000E-01  1.0000000000000E-01  1.0000000000000E-01  1.0000000000000E-01  1.0000000000000E-01  1.0000000000000E-01  1.0000000000000E-01  1.0000000000000E-01 
 1.0175270654983E-06  1.0175272113618E-06  1.0175271952240E-06  1.0175271725848E-06  1.0175271959482E-06  1.0175270510833E-06  1.0175270505951E-06  1.0175271955625E-06  1.0175271901063E-06  1.0175270680607E-06 
 9.1463113758618E+00  9.1463113890238E+00  9.1463114038320E+00  9.1463114060734E+00  9.1463114069810E+00  9.1463114076548E+00  9.1463114080330E+00  9.1463114087650E+00  9.1463114113247E+00  9.1463114131692E+00 
 9.1463113758618E+00  9.1463113890238E+00  9.1463114038320E+00  9.1463114060734E+00  9.1463114069810E+00  9.1463114076548E+00  9.1463114080330E+00  9.1463114087650E+00  9.1463114113247E+00  9.1463114131692E+00 
 0.0000000000000E+00  0.0000000000000E+00  0.0000000000000E+00  0.0000000000000E+00  0.0000000000000E+00  0.0000000000000E+00  0.0000000000000E+00  0.0000000000000E+00  0.0000000000000E+00  0.0000000000000E+00 
ZONE T = "SEP , 1.6188E-07", I = 10, SOLUTIONTIME = 1.618750E-07
ZONETYPE = ORDERED
DATAPACKING = BLOCK
STRANDID = 2
 9.6000000000000E-05  9.8777777777778E-05  1.0155555555556E-04  1.0433333333333E-04  1.0711111111111E-04  1.0988888888889E-04  1.1266666666667E-04  1.1544444444444E-04  1.1822222222222E-04  1.2100000000000E-04 
 1.8487898327310E-07  1.8357546883499E-07  1.8345674064363E-07  1.8344820806341E-07  1.8344767562055E-07  1.8344770722170E-07  1.8344852184881E-07  1.8345972281561E-07  1.8358235751266E-07  1.8281938341421E-07 
 8.4394679887155E-01  8.4394679990108E-01  8.4394679999303E-01  8.4394679999957E-01  8.4394679999998E-01  8.4394680000000E-01  8.4394680000004E-01  8.4394680000066E-01  8.4394680000933E-01  8.4394680010620E-01 
 7.8026600564226E-02  7.8026600049458E-02  7.8026600003487E-02  7.8026600000216E-02  7.8026600000012E-02  7.8026600000000E-02  7.8026599999980E-02  7.8026599999671E-02  7.8026599995336E-02  7.8026599946899E-02 
 7.8026600564226E-02  7.8026600049458E-02  7.8026600003487E-02  7.8026600000216E-02  7.8026600000012E-02  7.8026600000000E-02  7.8026599999980E-02  7.8026599999671E-02  7.8026599995336E-02  7.8026599946899E-02 
 1.3953376238494E-02  1.3953333894460E-02  1.3953291550426E-02  1.3953249206391E-02  1.3953206862357E-02  1.3953164518323E-02  1.3953122174289E-02  1.3953079830254E-02  1.3953037486220E-02  1.3952995142186E-02 
 2.9814999967864E+02  2.9814999973039E+02  2.9814999977734E+02  2.9814999982029E+02  2.9814999985965E+02  2.9814999989596E+02  2.9814999992962E+02  2.9814999996089E+02  2.9814999999049E+02  2.9815000001898E+02 
 6.5000471412550E-01  6.5000471412551E-01  6.5000471412550E-01  6.5000471412550E-01  6.5000471412551E-01  6.5000471412550E-01  6.5000471412551E-01  6.5000471412550E-01  6.5000471412550E-01  6.5000471412551E-01 
 1.3888888888889E-06  2.7777777777778E-06  2.7777777777778E-06  2.7777777777778E-06  2.7777777777778E-06  2.7777777777778E-06  2.7777777777778E-06  2.7777777777778E-06  2.7777777777778E-06  1.3888888888889E-06 
 2.4999528587450E-01  2.4999528587449E-01  2.4999528587450E-01  2.4999528587450E-01  2.4999528587449E-01  2.4999528587450E-01  2.4999528587449E-01  2.4999528587450E-01  2.4999528587450E-01  2.4999528587449E-01 
 1.0000000000000E-01  1.0000000000000E-01  1.0000000000000E-01  1.0000000000000E-01  1.0000000000000E-01  1.0000000000000E-01  1.0000000000000E-01  1.0000000000000E-01  1.0000000000000E-01  1.0000000000000E-01 
 1.4805590781468E-06  1.4805592249603E-06  1.4805592099027E-06  1.4805591874130E-06  1.4805592108417E-06  1.4805590660526E-06  1.4805590656063E-06  1.4805592106305E-06  1.4805592053177E-06  1.4805590833708E-06 
 9.1463113609579E+00  9.1463113797234E+00  9.1463114010616E+00  9.1463114040135E+00  9.1463114053042E+00  9.1463114068022E+00  9.1463114076292E+00  9.1463114087502E+00  9.1463114115823E+00  9.1463114135341E+00 
 9.1463113609579E+00  9.1463113797234E+00  9.1463114010616E+00  9.1463114040135E+00  9.1463114053042E+00  9.1463114068022E+00  9.1463114076292E+00  9.1463114087502E+00  9.1463114115823E+00  9.1463114135341E+00 
 0.0000000000000E+00  0.0000000000000E+00  0.0000000000000E+00  0.0000000000000E+00  0.0000000000000E+00  0.0000000000000E+00  0.0000000000000E+00  0.0000000000000E+00  0.0000000000000E+00  0.0000000000000E+00 
ZONE T = "SEP , 2.3781E-07", I = 10, SOLUTIONTIME = 2.378125E-07
ZONETYPE = ORDERED
DATAPACKING = BLOCK
STRANDID = 2