TITLE = "Solution on Domain BulkDomain1D_1"
VARIABLES = "x [m]"  
"Vel_axial" 	"MF_sp(ECDMC)" 	"MF_sp(Li+)" 	"MF_sp(PF6-)" 	"Volt(Electroly)" 	"Temperature" 	"Porosity []" 	"Control volume thickness [m]" 	"volFrac MgO(S) []" 	"volFrac ExtraStuff []" 	"qHeat_accum [J/m3]" 	"qHeat_step [W/m3]" 	"Joule_Lyte [W/m3]" 	"Joule_Solid [W/m3]" 	
ZONE T = "SEP , 0.0000E+00", I = 10, SOLUTIONTIME = 0.000000E+00
ZONETYPE = ORDERED
DATAPACKING = BLOCK
STRANDID = 2
 9.6000000000000E-05  9.8777777777778E-05  1.0155555555556E-04  1.0433333333333E-04  1.0711111111111E-04  1.0988888888889E-04  1.1266666666667E-04  1.1544444444444E-04  1.1822222222222E-04  1.2100000000000E-04 
 0.0000000000000E+00  0.0000000000000E+00  0.0000000000000E+00  0.0000000000000E+00  0.0000000000000E+00  0.0000000000000E+00  0.0000000000000E+00  0.0000000000000E+00  0.0000000000000E+00  0.0000000000000E+00 
 8.4394680000000E-01  8.4394680000000E-01  8.4394680000000E-01  8.4394680000000E-01  8.4394680000000E-01  8.4394680000000E-01  8.4394680000000E-01  8.4394680000000E-01  8.4394680000000E-01  8.4394680000000E-01 
 7.8026600000000E-02  7.8026600000000E-02  7.8026600000000E-02  7.8026600000000E-02  7.8026600000000E-02  7.8026600000000E-02  7.8026600000000E-02  7.8026600000000E-02  7.8026600000000E-02  7.8026600000000E-02 
 7.8026600000000E-02  7.8026600000000E-02  7.8026600000000E-02  7.8026600000000E-02  7.8026600000000E-02  7.8026600000000E-02  7.8026600000000E-02  7.8026600000000E-02  7.8026600000000E-02  7.8026600000000E-02 
-7.0000000000000E-02 -7.0000000000000E-02 -7.0000000000000E-02 -7.0000000000000E-02 -7.0000000000000E-02 -7.0000000000000E-02 -7.0000000000000E-02 -7.0000000000000E-02 -7.0000000000000E-02 -7.0000000000000E-02 
 2.9815000000000E+02  2.9815000000000E+02  2.9815000000000E+02  2.9815000000000E+02  2.9815000000000E+02  2.9815000000000E+02  2.9815000000000E+02  2.9815000000000E+02  2.9815000000000E+02  2.9815000000000E+02 
 6.5000000000000E-01  6.5000000000000E-01  6.5000000000000E-01  6.5000000000000E-01  6.5000000000000E-01  6.5000000000000E-01  6.5000000000000E-01  6.5000000000000E-01  6.5000000000000E-01  6.5000000000000E-01 
 1.3888888888889E-06  2.7777777777778E-06  2.7777777777778E-06  2.7777777777778E-06  2.7777777777778E-06  2.7777777777778E-06  2.7777777777778E-06  2.7777777777778E-06  2.7777777777778E-06  1.3888888888889E-06 
 2.5000000000000E-01  2.5000000000000E-01  2.5000000000000E-01  2.5000000000000E-01  2.5000000000000E-01  2.5000000000000E-01  2.5000000000000E-01  2.5000000000000E-01  2.5000000000000E-01  2.5000000000000E-01 
 1.0000000000000E-01  1.0000000000000E-01  1.0000000000000E-01  1.0000000000000E-01  1.0000000000000E-01  1.0000000000000E-01  1.0000000000000E-01  1.0000000000000E-01  1.0000000000000E-01  1.0000000000000E-01 
 0.0000000000000E+00  0.0000000000000E+00  0.0000000000000E+00  0.0000000000000E+00  0.0000000000000E+00  0.0000000000000E+00  0.0000000000000E+00  0.0000000000000E+00  0.0000000000000E+00  0.0000000000000E+00 
 0.0000000000000E+00  0.0000000000000E+00  0.0000000000000E+00  0.0000000000000E+00  0.0000000000000E+00  0.0000000000000E+00  0.0000000000000E+00  0.0000000000000E+00  0.0000000000000E+00  0.0000000000000E+00 
 0.0000000000000E+00  0.0000000000000E+00  0.0000000000000E+00  0.0000000000000E+00  0.0000000000000E+00  0.0000000000000E+00  0.0000000000000E+00  0.0000000000000E+00  0.0000000000000E+00  0.0000000000000E+00 
 0.0000000000000E+00  0.0000000000000E+00  0.0000000000000E+00  0.0000000000000E+00  0.0000000000000E+00  0.0000000000000E+00  0.0000000000000E+00  0.0000000000000E+00  0.0000000000000E+00  0.0000000000000E+00 
ZONE T = "SEP , 1.0000E-08", I = 10, SOLUTIONTIME = 1.000000E-08
ZONETYPE = ORDERED
DATAPACKING = BLOCK
STRANDID = 2
 9.6000000000000E-05  9.8777777777778E-05  1.0155555555556E-04  1.0433333333333E-04  1.0711111111111E-04  1.0988888888889E-04  1.1266666666667E-04  1.1544444444444E-04  1.1822222222222E-04  1.2100000000000E-04 
 1.8354869630785E-07  1.8344939971794E-07  1.8344839570178E-07  1.8344839803638E-07  1.8344839794108E-07  1.8344839795039E-07  1.8344839895573E-07  1.8344853218529E-07  1.8345796963553E-07  1.8279256593668E-07 
 8.4394679992706E-01  8.4394679999925E-01  8.4394679999999E-01  8.4394680000000E-01  8.4394680000000E-01  8.4394680000000E-01  8.4394680000000E-01  8.4394680000000E-01  8.4394680000007E-01  8.4394680000693E-01 
 7.8026600036470E-02  7.8026600000373E-02  7.8026600000004E-02  7.8026600000000E-02  7.8026600000000E-02  7.8026600000000E-02  7.8026600000000E-02  7.8026600000000E-02  7.8026599999965E-02  7.8026599996535E-02 
 7.8026600036470E-02  7.8026600000373E-02  7.8026600000004E-02  7.8026600000000E-02  7.8026600000000E-02  7.8026600000000E-02  7.8026600000000E-02  7.8026600000000E-02  7.8026599999965E-02  7.8026599996535E-02 
 1.3953518906345E-02  1.3953476561850E-02  1.3953434217355E-02  1.3953391872860E-02  1.3953349528365E-02  1.3953307183870E-02  1.3953264839375E-02  1.3953222494880E-02  1.3953180150385E-02  1.3953137805890E-02 
 2.9814999998428E+02  2.9814999999079E+02  2.9814999999444E+02  2.9814999999635E+02  2.9814999999714E+02  2.9814999999723E+02  2.9814999999842E+02  2.9815000000007E+02  2.9815000000037E+02  2.9815000000042E+02 
 6.5000000000000E-01  6.5000000000000E-01  6.5000000000000E-01  6.5000000000000E-01  6.5000000000000E-01  6.5000000000000E-01  6.5000000000000E-01  6.5000000000000E-01  6.5000000000000E-01  6.5000000000000E-01 
 1.3888888888889E-06  2.7777777777778E-06  2.7777777777778E-06  2.7777777777778E-06  2.7777777777778E-06  2.7777777777778E-06  2.7777777777778E-06  2.7777777777778E-06  2.7777777777778E-06  1.3888888888889E-06 
 2.5000000000000E-01  2.5000000000000E-01  2.5000000000000E-01  2.5000000000000E-01  2.5000000000000E-01  2.5000000000000E-01  2.5000000000000E-01  2.5000000000000E-01  2.5000000000000E-01  2.5000000000000E-01 
 1.0000000000000E-01  1.0000000000000E-01  1.0000000000000E-01  1.0000000000000E-01  1.0000000000000E-01  1.0000000000000E-01  1.0000000000000E-01  1.0000000000000E-01  1.0000000000000E-01  1.0000000000000E-01 
 9.1464109079440E-08  9.1464109089227E-08  9.1464109102213E-08  9.1464109105204E-08  9.1464109104927E-08  9.1464109101015E-08  9.1464109100698E-08  9.1464109104066E-08  9.1464109106492E-08  9.1464109109080E-08 
 9.1464109079440E+00  9.1464109089227E+00  9.1464109102213E+00  9.1464109105204E+00  9.1464109104927E+00  9.1464109101015E+00  9.1464109100698E+00  9.1464109104066E+00  9.1464109106492E+00  9.1464109109080E+00 
 9.1464109079440E+00  9.1464109089227E+00  9.1464109102213E+00  9.1464109105204E+00  9.1464109104927E+00  9.1464109101015E+00  9.1464109100698E+00  9.1464109104066E+00  9.1464109106492E+00  9.1464109109080E+00 
 0.0000000000000E+00  0.0000000000000E+00  0.0000000000000E+00  0.0000000000000E+00  0.0000000000000E+00  0.0000000000000E+00  0.0000000000000E+00  0.0000000000000E+00  0.0000000000000E+00  0.0000000000000E+00 
ZONE T = "SEP , 2.0000E-08", I = 10, SOLUTIONTIME = 2.000000E-08
ZONETYPE = ORDERED
DATAPACKING = BLOCK
STRANDID = 2
 9.6000000000000E-05  9.8777777777778E-05  1.0155555555556E-04  1.0433333333333E-04  1.0711111111111E-04  1.0988888888889E-04  1.1266666666667E-04  1.1544444444444E-04  1.1822222222222E-04  1.2100000000000E-04 
 1.8364694397506E-07  1.8345083519037E-07  1.8344787380429E-07  1.8344787543239E-07  1.8344787490858E-07  1.8344787495628E-07  1.8344787702398E-07  1.8344816987042E-07  1.8346680957301E-07  1.8279381740124E-07 
 8.4394679985454E-01  8.4394679999778E-01  8.4394679999997E-01  8.4394680000000E-01  8.4394680000000E-01  8.4394680000000E-01  8.4394680000000E-01  8.4394680000000E-01  8.4394680000021E-01  8.4394680001381E-01 
 7.8026600072732E-02  7.8026600001110E-02  7.8026600000015E-02  7.8026600000000E-02  7.8026600000000E-02  7.8026600000000E-02  7.8026600000000E-02  7.8026599999999E-02  7.8026599999895E-02  7.8026599993094E-02 
 7.8026600072732E-02  7.8026600001110E-02  7.8026600000015E-02  7.8026600000000E-02  7.8026600000000E-02  7.8026600000000E-02  7.8026600000000E-02  7.8026599999999E-02  7.8026599999895E-02  7.8026599993094E-02 
 1.3953518524864E-02  1.3953476180369E-02  1.3953433835874E-02  1.3953391491379E-02  1.3953349146884E-02  1.3953306802389E-02  1.3953264457894E-02  1.3953222113399E-02  1.3953179768904E-02  1.3953137424409E-02 
 2.9814999996855E+02  2.9814999997985E+02  2.9814999998622E+02  2.9814999999051E+02  2.9814999999422E+02  2.9814999999663E+02  2.9814999999793E+02  2.9814999999909E+02  2.9814999999934E+02  2.9815000000084E+02 
 6.5000000000000E-01  6.5000000000000E-01  6.5000000000000E-01  6.5000000000000E-01  6.5000000000000E-01  6.5000000000000E-01  6.5000000000000E-01  6.5000000000000E-01  6.5000000000000E-01  6.5000000000000E-01 
 1.3888888888889E-06  2.7777777777778E-06  2.7777777777778E-06  2.7777777777778E-06  2.7777777777778E-06  2.7777777777778E-06  2.7777777777778E-06  2.7777777777778E-06  2.7777777777778E-06  1.3888888888889E-06 
 2.5000000000000E-01  2.5000000000000E-01  2.5000000000000E-01  2.5000000000000E-01  2.5000000000000E-01  2.5000000000000E-01  2.5000000000000E-01  2.5000000000000E-01  2.5000000000000E-01  2.5000000000000E-01 
 1.0000000000000E-01  1.0000000000000E-01  1.0000000000000E-01  1.0000000000000E-01  1.0000000000000E-01  1.0000000000000E-01  1.0000000000000E-01  1.0000000000000E-01  1.0000000000000E-01  1.0000000000000E-01 
 1.8292821812720E-07  1.8292821816433E-07  1.8292821820348E-07  1.8292821820467E-07  1.8292821820705E-07  1.8292821820238E-07  1.8292821820159E-07  1.8292821820838E-07  1.8292821821576E-07  1.8292821822346E-07 
 9.1464109047758E+00  9.1464109075100E+00  9.1464109101262E+00  9.1464109099463E+00  9.1464109102121E+00  9.1464109101368E+00  9.1464109100894E+00  9.1464109104311E+00  9.1464109109272E+00  9.1464109114375E+00 
 9.1464109047758E+00  9.1464109075100E+00  9.1464109101262E+00  9.1464109099463E+00  9.1464109102121E+00  9.1464109101368E+00  9.1464109100894E+00  9.1464109104311E+00  9.1464109109272E+00  9.1464109114375E+00 
 0.0000000000000E+00  0.0000000000000E+00  0.0000000000000E+00  0.0000000000000E+00  0.0000000000000E+00  0.0000000000000E+00  0.0000000000000E+00  0.0000000000000E+00  0.0000000000000E+00  0.0000000000000E+00 
ZONE T = "SEP , 3.0000E-08", I = 10, SOLUTIONTIME = 3.000000E-08
ZONETYPE = ORDERED
DATAPACKING = BLOCK
STRANDID = 2
 9.6000000000000E-05  9.8777777777778E-05  1.0155555555556E-04  1.0433333333333E-04  1.0711111111111E-04  1.0988888888889E-04  1.1266666666667E-04  1.1544444444444E-04  1.1822222222222E-04  1.2100000000000E-04 
 1.8374419006353E-07  1.8345383674999E-07  1.8344791498960E-07  1.8344780790241E-07  1.8344780634593E-07  1.8344780644872E-07  1.8344783282950E-07  1.8344833386219E-07  1.8347588226977E-07  1.8279536488316E-07 
 8.4394679978242E-01  8.4394679999560E-01  8.4394679999993E-01  8.4394680000000E-01  8.4394680000000E-01  8.4394680000000E-01  8.4394680000000E-01  8.4394680000001E-01  8.4394680000042E-01  8.4394680002065E-01 
 7.8026600108790E-02  7.8026600002201E-02  7.8026600000037E-02  7.8026600000001E-02  7.8026600000000E-02  7.8026600000000E-02  7.8026600000000E-02  7.8026599999996E-02  7.8026599999791E-02  7.8026599989677E-02 
 7.8026600108790E-02  7.8026600002201E-02  7.8026600000037E-02  7.8026600000001E-02  7.8026600000000E-02  7.8026600000000E-02  7.8026600000000E-02  7.8026599999996E-02  7.8026599999791E-02  7.8026599989677E-02 
 1.3953518143388E-02  1.3953475798893E-02  1.3953433454398E-02  1.3953391109903E-02  1.3953348765408E-02  1.3953306420913E-02  1.3953264076418E-02  1.3953221731923E-02  1.3953179387428E-02  1.3953137042933E-02 
 2.9814999995284E+02  2.9814999996896E+02  2.9814999997818E+02  2.9814999998489E+02  2.9814999999002E+02  2.9814999999406E+02  2.9814999999705E+02  2.9814999999837E+02  2.9815000000020E+02  2.9815000000126E+02 
 6.5000000000000E-01  6.5000000000000E-01  6.5000000000000E-01  6.5000000000000E-01  6.5000000000000E-01  6.5000000000000E-01  6.5000000000000E-01  6.5000000000000E-01  6.5000000000000E-01  6.5000000000000E-01 
 1.3888888888889E-06  2.7777777777778E-06  2.7777777777778E-06  2.7777777777778E-06  2.7777777777778E-06  2.7777777777778E-06  2.7777777777778E-06  2.7777777777778E-06  2.7777777777778E-06  1.3888888888889E-06 
 2.5000000000000E-01  2.5000000000000E-01  2.5000000000000E-01  2.5000000000000E-01  2.5000000000000E-01  2.5000000000000E-01  2.5000000000000E-01  2.5000000000000E-01  2.5000000000000E-01  2.5000000000000E-01 
 1.0000000000000E-01  1.0000000000000E-01  1.0000000000000E-01  1.0000000000000E-01  1.0000000000000E-01  1.0000000000000E-01  1.0000000000000E-01  1.0000000000000E-01  1.0000000000000E-01  1.0000000000000E-01 
 2.7439232715086E-07  2.7439232722170E-07  2.7439232730011E-07  2.7439232730594E-07  2.7439232730670E-07  2.7439232730454E-07  2.7439232730662E-07  2.7439232731276E-07  2.7439232731999E-07  2.7439232732784E-07 
 9.1464109023657E+00  9.1464109057371E+00  9.1464109096638E+00  9.1464109101271E+00  9.1464109099648E+00  9.1464109102153E+00  9.1464109105028E+00  9.1464109104387E+00  9.1464109104230E+00  9.1464109104383E+00 
 9.1464109023657E+00  9.1464109057371E+00  9.1464109096638E+00  9.1464109101271E+00  9.1464109099648E+00  9.1464109102153E+00  9.1464109105028E+00  9.1464109104387E+00  9.1464109104230E+00  9.1464109104383E+00 
 0.0000000000000E+00  0.0000000000000E+00  0.0000000000000E+00  0.0000000000000E+00  0.0000000000000E+00  0.0000000000000E+00  0.0000000000000E+00  0.0000000000000E+00  0.0000000000000E+00  0.0000000000000E+00 
ZONE T = "SEP , 4.0000E-08", I = 10, SOLUTIONTIME = 4.000000E-08
ZONETYPE = ORDERED
DATAPACKING = BLOCK
STRANDID = 2
 9.6000000000000E-05  9.8777777777778E-05  1.0155555555556E-04  1.0433333333333E-04  1.0711111111111E-04  1.0988888888889E-04  1.1266666666667E-04  1.1544444444444E-04  1.1822222222222E-04  1.2100000000000E-04 
 1.8383979084038E-07  1.8345762041510E-07  1.8344786443366E-07  1.8344767991999E-07  1.8344768060194E-07  1.8344768089831E-07  1.8344768274622E-07  1.8344865874712E-07  1.8348490239279E-07  1.8279710665742E-07 
 8.4394679971071E-01  8.4394679999273E-01  8.4394679999985E-01  8.4394680000000E-01  8.4394680000000E-01  8.4394680000000E-01  8.4394680000000E-01  8.4394680000001E-01  8.4394680000069E-01  8.4394680002743E-01 
 7.8026600144646E-02  7.8026600003637E-02  7.8026600000074E-02  7.8026600000001E-02  7.8026600000000E-02  7.8026600000000E-02  7.8026600000000E-02  7.8026599999993E-02  7.8026599999655E-02  7.8026599986284E-02 
 7.8026600144646E-02  7.8026600003637E-02  7.8026600000074E-02  7.8026600000001E-02  7.8026600000000E-02  7.8026600000000E-02  7.8026600000000E-02  7.8026599999993E-02  7.8026599999655E-02  7.8026599986284E-02 
 1.3953517761913E-02  1.3953475417418E-02  1.3953433072923E-02  1.3953390728428E-02  1.3953348383933E-02  1.3953306039439E-02  1.3953263694944E-02  1.3953221350449E-02  1.3953179005954E-02  1.3953136661459E-02 
 2.9814999993712E+02  2.9814999995456E+02  2.9814999996850E+02  2.9814999997913E+02  2.9814999998571E+02  2.9814999999080E+02  2.9814999999423E+02  2.9814999999721E+02  2.9814999999991E+02  2.9815000000168E+02 
 6.5000000000000E-01  6.5000000000000E-01  6.5000000000000E-01  6.5000000000000E-01  6.5000000000000E-01  6.5000000000000E-01  6.5000000000000E-01  6.5000000000000E-01  6.5000000000000E-01  6.5000000000000E-01 
 1.3888888888889E-06  2.7777777777778E-06  2.7777777777778E-06  2.7777777777778E-06  2.7777777777778E-06  2.7777777777778E-06  2.7777777777778E-06  2.7777777777778E-06  2.7777777777778E-06  1.3888888888889E-06 
 2.5000000000000E-01  2.5000000000000E-01  2.5000000000000E-01  2.5000000000000E-01  2.5000000000000E-01  2.5000000000000E-01  2.5000000000000E-01  2.5000000000000E-01  2.5000000000000E-01  2.5000000000000E-01 
 1.0000000000000E-01  1.0000000000000E-01  1.0000000000000E-01  1.0000000000000E-01  1.0000000000000E-01  1.0000000000000E-01  1.0000000000000E-01  1.0000000000000E-01  1.0000000000000E-01  1.0000000000000E-01 
 3.6585643613606E-07  3.6585643626217E-07  3.6585643639278E-07  3.6585643640168E-07  3.6585643640770E-07  3.6585643640773E-07  3.6585643640867E-07  3.6585643641377E-07  3.6585643643062E-07  3.6585643644488E-07 
 9.1464108985202E+00  9.1464109040471E+00  9.1464109092669E+00  9.1464109095746E+00  9.1464109101001E+00  9.1464109103199E+00  9.1464109102051E+00  9.1464109101009E+00  9.1464109110627E+00  9.1464109117046E+00 
 9.1464108985202E+00  9.1464109040471E+00  9.1464109092669E+00  9.1464109095746E+00  9.1464109101001E+00  9.1464109103199E+00  9.1464109102051E+00  9.1464109101009E+00  9.1464109110627E+00  9.1464109117046E+00 
 0.0000000000000E+00  0.0000000000000E+00  0.0000000000000E+00  0.0000000000000E+00  0.0000000000000E+00  0.0000000000000E+00  0.0000000000000E+00  0.0000000000000E+00  0.0000000000000E+00  0.0000000000000E+00 
ZONE T = "SEP , 5.5000E-08", I = 10, SOLUTIONTIME = 5.500000E-08
ZONETYPE = ORDERED
DATAPACKING = BLOCK
STRANDID = 2
 9.6000000000000E-05  9.8777777777778E-05  1.0155555555556E-04  1.0433333333333E-04  1.0711111111111E-04  1.0988888888889E-04  1.1266666666667E-04  1.1544444444444E-04  1.1822222222222E-04  1.2100000000000E-04 
 1.8397956162068E-07  1.8346489508375E-07  1.8344765814622E-07  1.8344718200098E-07  1.8344718226353E-07  1.8344718304780E-07  1.8344720124058E-07  1.8344876905749E-07  1.8349744612584E-07  1.8279902951099E-07 
 8.4394679960402E-01  8.4394679998692E-01  8.4394679999966E-01  8.4394679999999E-01  8.4394680000000E-01  8.4394680000000E-01  8.4394680000000E-01  8.4394680000003E-01  8.4394680000124E-01  8.4394680003751E-01 
 7.8026600197990E-02  7.8026600006538E-02  7.8026600000171E-02  7.8026600000004E-02  7.8026600000000E-02  7.8026600000000E-02  7.8026600000000E-02  7.8026599999984E-02  7.8026599999380E-02  7.8026599981246E-02 
 7.8026600197990E-02  7.8026600006538E-02  7.8026600000171E-02  7.8026600000004E-02  7.8026600000000E-02  7.8026600000000E-02  7.8026600000000E-02  7.8026599999984E-02  7.8026599999380E-02  7.8026599981246E-02 
 1.3953517315040E-02  1.3953474970545E-02  1.3953432626050E-02  1.3953390281555E-02  1.3953347937060E-02  1.3953305592565E-02  1.3953263248070E-02  1.3953220903575E-02  1.3953178559080E-02  1.3953136214585E-02 
 2.9814999991356E+02  2.9814999993553E+02  2.9814999995241E+02  2.9814999996576E+02  2.9814999997580E+02  2.9814999998363E+02  2.9814999998898E+02  2.9814999999292E+02  2.9814999999714E+02  2.9815000000231E+02 
 6.5000000000000E-01  6.5000000000000E-01  6.5000000000000E-01  6.5000000000000E-01  6.5000000000000E-01  6.5000000000000E-01  6.5000000000000E-01  6.5000000000000E-01  6.5000000000000E-01  6.5000000000000E-01 
 1.3888888888889E-06  2.7777777777778E-06  2.7777777777778E-06  2.7777777777778E-06  2.7777777777778E-06  2.7777777777778E-06  2.7777777777778E-06  2.7777777777778E-06  2.7777777777778E-06  1.3888888888889E-06 
 2.5000000000000E-01  2.5000000000000E-01  2.5000000000000E-01  2.5000000000000E-01  2.5000000000000E-01  2.5000000000000E-01  2.5000000000000E-01  2.5000000000000E-01  2.5000000000000E-01  2.5000000000000E-01 
 1.0000000000000E-01  1.0000000000000E-01  1.0000000000000E-01  1.0000000000000E-01  1.0000000000000E-01  1.0000000000000E-01  1.0000000000000E-01  1.0000000000000E-01  1.0000000000000E-01  1.0000000000000E-01 
 5.0305259955514E-07  5.0305259978779E-07  5.0305260002387E-07  5.0305260004018E-07  5.0305260005260E-07  5.0305260005469E-07  5.0305260005865E-07  5.0305260006705E-07  5.0305260010050E-07  5.0305260012698E-07 
 9.1464108946058E+00  9.1464109017078E+00  9.1464109087393E+00  9.1464109092330E+00  9.1464109096602E+00  9.1464109097967E+00  9.1464109099985E+00  9.1464109102186E+00  9.1464109113250E+00  9.1464109121395E+00 
 9.1464108946058E+00  9.1464109017078E+00  9.1464109087393E+00  9.1464109092330E+00  9.1464109096602E+00  9.1464109097967E+00  9.1464109099985E+00  9.1464109102186E+00  9.1464109113250E+00  9.1464109121395E+00 
 0.0000000000000E+00  0.0000000000000E+00  0.0000000000000E+00  0.0000000000000E+00  0.0000000000000E+00  0.0000000000000E+00  0.0000000000000E+00  0.0000000000000E+00  0.0000000000000E+00  0.0000000000000E+00 
ZONE T = "SEP , 7.7500E-08", I = 10, SOLUTIONTIME = 7.750000E-08
ZONETYPE = ORDERED
DATAPACKING = BLOCK
STRANDID = 2
 9.6000000000000E-05  9.8777777777778E-05  1.0155555555556E-04  1.0433333333333E-04  1.0711111111111E-04  1.0988888888889E-04  1.1266666666667E-04  1.1544444444444E-04  1.1822222222222E-04  1.2100000000000E-04 
 1.8418349216173E-07  1.8348129127318E-07  1.8344906298750E-07  1.8344792319444E-07  1.8344788815415E-07  1.8344788973295E-07  1.8344799465591E-07  1.8345107319017E-07  1.8351751790169E-07  1.8280399752106E-07 
 8.4394679944590E-01  8.4394679997505E-01  8.4394679999911E-01  8.4394679999997E-01  8.4394680000000E-01  8.4394680000000E-01  8.4394680000000E-01  8.4394680000008E-01  8.4394680000236E-01  8.4394680005240E-01 
 7.8026600277050E-02  7.8026600012475E-02  7.8026600000444E-02  7.8026600000014E-02  7.8026600000000E-02  7.8026600000000E-02  7.8026599999999E-02  7.8026599999958E-02  7.8026599998819E-02  7.8026599973798E-02 
 7.8026600277050E-02  7.8026600012475E-02  7.8026600000444E-02  7.8026600000014E-02  7.8026600000000E-02  7.8026600000000E-02  7.8026599999999E-02  7.8026599999958E-02  7.8026599998819E-02  7.8026599973798E-02 
 1.3953516526401E-02  1.3953474181906E-02  1.3953431837411E-02  1.3953389492916E-02  1.3953347148421E-02  1.3953304803926E-02  1.3953262459431E-02  1.3953220114936E-02  1.3953177770441E-02  1.3953135425946E-02 
 2.9814999987822E+02  2.9814999990556E+02  2.9814999992797E+02  2.9814999994525E+02  2.9814999995984E+02  2.9814999997199E+02  2.9814999998149E+02  2.9814999999006E+02  2.9814999999730E+02  2.9815000000325E+02 
 6.5000000000000E-01  6.5000000000000E-01  6.5000000000000E-01  6.5000000000000E-01  6.5000000000000E-01  6.5000000000000E-01  6.5000000000000E-01  6.5000000000000E-01  6.5000000000000E-01  6.5000000000000E-01 
 1.3888888888889E-06  2.7777777777778E-06  2.7777777777778E-06  2.7777777777778E-06  2.7777777777778E-06  2.7777777777778E-06  2.7777777777778E-06  2.7777777777778E-06  2.7777777777778E-06  1.3888888888889E-06 
 2.5000000000000E-01  2.5000000000000E-01  2.5000000000000E-01  2.5000000000000E-01  2.5000000000000E-01  2.5000000000000E-01  2.5000000000000E-01  2.5000000000000E-01  2.5000000000000E-01  2.5000000000000E-01 
 1.0000000000000E-01  1.0000000000000E-01  1.0000000000000E-01  1.0000000000000E-01  1.0000000000000E-01  1.0000000000000E-01  1.0000000000000E-01  1.0000000000000E-01  1.0000000000000E-01  1.0000000000000E-01 
 7.0884684454465E-07  7.0884684497845E-07  7.0884684544184E-07  7.0884684548690E-07  7.0884684551416E-07  7.0884684552474E-07  7.0884684553025E-07  7.0884684554034E-07  7.0884684559927E-07  7.0884684565482E-07 
 9.1464108884224E+00  9.1464108973628E+00  9.1464109074652E+00  9.1464109087430E+00  9.1464109094026E+00  9.1464109097804E+00  9.1464109098489E+00  9.1464109099240E+00  9.1464109110564E+00  9.1464109123487E+00 
 9.1464108884224E+00  9.1464108973628E+00  9.1464109074652E+00  9.1464109087430E+00  9.1464109094026E+00  9.1464109097804E+00  9.1464109098489E+00  9.1464109099240E+00  9.1464109110564E+00  9.1464109123487E+00 
 0.0000000000000E+00  0.0000000000000E+00  0.0000000000000E+00  0.0000000000000E+00  0.0000000000000E+00  0.0000000000000E+00  0.0000000000000E+00  0.0000000000000E+00  0.0000000000000E+00  0.0000000000000E+00 
ZONE T = "SEP , 1.1125E-07", I = 10, SOLUTIONTIME = 1.112500E-07
ZONETYPE = ORDERED
DATAPACKING = BLOCK
STRANDID = 2
 9.6000000000000E-05  9.8777777777778E-05  1.0155555555556E-04  1.0433333333333E-04  1.0711111111111E-04  1.0988888888889E-04  1.1266666666667E-04  1.1544444444444E-04  1.1822222222222E-04  1.2100000000000E-04 
 1.8447327906684E-07  1.8351257877910E-07  1.8345067392975E-07  1.8344753302778E-07  1.8344740722813E-07  1.8344740696648E-07  1.8344771258997E-07  1.8345357170664E-07  1.8354420707523E-07  1.8280962802674E-07 
 8.4394679921278E-01  8.4394679995068E-01  8.4394679999754E-01  8.4394679999989E-01  8.4394680000000E-01  8.4394680000000E-01  8.4394680000001E-01  8.4394680000023E-01  8.4394680000466E-01  8.4394680007429E-01 
 7.8026600393609E-02  7.8026600024660E-02  7.8026600001229E-02  7.8026600000053E-02  7.8026600000002E-02  7.8026600000000E-02  7.8026599999995E-02  7.8026599999884E-02  7.8026599997669E-02  7.8026599962855E-02 
 7.8026600393609E-02  7.8026600024660E-02  7.8026600001229E-02  7.8026600000053E-02  7.8026600000002E-02  7.8026600000000E-02  7.8026599999995E-02  7.8026599999884E-02  7.8026599997669E-02  7.8026599962855E-02 
 1.3953515343458E-02  1.3953472998963E-02  1.3953430654468E-02  1.3953388309973E-02  1.3953345965478E-02  1.3953303620983E-02  1.3953261276489E-02  1.3953218931994E-02  1.3953176587499E-02  1.3953134243004E-02 
 2.9814999982523E+02  2.9814999985902E+02  2.9814999988780E+02  2.9814999991286E+02  2.9814999993407E+02  2.9814999995193E+02  2.9814999996758E+02  2.9814999998149E+02  2.9814999999373E+02  2.9815000000466E+02 
 6.5000000000000E-01  6.5000000000000E-01  6.5000000000000E-01  6.5000000000000E-01  6.5000000000000E-01  6.5000000000000E-01  6.5000000000000E-01  6.5000000000000E-01  6.5000000000000E-01  6.5000000000000E-01 
 1.3888888888889E-06  2.7777777777778E-06  2.7777777777778E-06  2.7777777777778E-06  2.7777777777778E-06  2.7777777777778E-06  2.7777777777778E-06  2.7777777777778E-06  2.7777777777778E-06  1.3888888888889E-06 
 2.5000000000000E-01  2.5000000000000E-01  2.5000000000000E-01  2.5000000000000E-01  2.5000000000000E-01  2.5000000000000E-01  2.5000000000000E-01  2.5000000000000E-01  2.5000000000000E-01  2.5000000000000E-01 
 1.0000000000000E-01  1.0000000000000E-01  1.0000000000000E-01  1.0000000000000E-01  1.0000000000000E-01  1.0000000000000E-01  1.0000000000000E-01  1.0000000000000E-01  1.0000000000000E-01  1.0000000000000E-01 
 1.0175382116815E-06  1.0175382125643E-06  1.0175382135241E-06  1.0175382136285E-06  1.0175382136702E-06  1.0175382136999E-06  1.0175382137269E-06  1.0175382137452E-06  1.0175382138617E-06  1.0175382139716E-06 
 9.1464108781288E+00  9.1464108914313E+00  9.1464109061398E+00  9.1464109079002E+00  9.1464109083280E+00  9.1464109088936E+00  9.1464109095299E+00  9.1464109097722E+00  9.1464109114803E+00  9.1464109130903E+00 
 9.1464108781288E+00  9.1464108914313E+00  9.1464109061398E+00  9.1464109079002E+00  9.1464109083280E+00  9.1464109088936E+00  9.1464109095299E+00  9.1464109097722E+00  9.1464109114803E+00  9.1464109130903E+00 
 0.0000000000000E+00  0.0000000000000E+00  0.0000000000000E+00  0.0000000000000E+00  0.0000000000000E+00  0.0000000000000E+00  0.0000000000000E+00  0.0000000000000E+00  0.0000000000000E+00  0.0000000000000E+00 
ZONE T = "SEP , 1.6188E-07", I = 10, SOLUTIONTIME = 1.618750E-07
ZONETYPE = ORDERED
DATAPACKING = BLOCK
STRANDID = 2
 9.6000000000000E-05  9.8777777777778E-05  1.0155555555556E-04  1.0433333333333E-04  1.0711111111111E-04  1.0988888888889E-04  1.1266666666667E-04  1.1544444444444E-04  1.1822222222222E-04  1.2100000000000E-04 
 1.8487883033666E-07  1.8357532655722E-07  1.8345660903773E-07  1.8344807658344E-07  1.8344754417483E-07  1.8344756519735E-07  1.8344836951918E-07  1.8345956004911E-07  1.8358216271086E-07  1.8281920151918E-07 
 8.4394679887155E-01  8.4394679990108E-01  8.4394679999303E-01  8.4394679999957E-01  8.4394679999998E-01  8.4394680000000E-01  8.4394680000004E-01  8.4394680000066E-01  8.4394680000933E-01  8.4394680010619E-01 
 7.8026600564227E-02  7.8026600049458E-02  7.8026600003487E-02  7.8026600000216E-02  7.8026600000012E-02  7.8026600000000E-02  7.8026599999980E-02  7.8026599999671E-02  7.8026599995336E-02  7.8026599946905E-02 
 7.8026600564227E-02  7.8026600049458E-02  7.8026600003487E-02  7.8026600000216E-02  7.8026600000012E-02  7.8026600000000E-02  7.8026599999980E-02  7.8026599999671E-02  7.8026599995336E-02  7.8026599946905E-02 
 1.3953513569078E-02  1.3953471224583E-02  1.3953428880088E-02  1.3953386535593E-02  1.3953344191098E-02  1.3953301846603E-02  1.3953259502108E-02  1.3953217157613E-02  1.3953174813118E-02  1.3953132468623E-02 
 2.9814999974578E+02  2.9814999978846E+02  2.9814999982641E+02  2.9814999985983E+02  2.9814999989001E+02  2.9814999991729E+02  2.9814999994183E+02  2.9814999996421E+02  2.9814999998532E+02  2.9815000000675E+02 
 6.5000000000000E-01  6.5000000000000E-01  6.5000000000000E-01  6.5000000000000E-01  6.5000000000000E-01  6.5000000000000E-01  6.5000000000000E-01  6.5000000000000E-01  6.5000000000000E-01  6.5000000000000E-01 
 1.3888888888889E-06  2.7777777777778E-06  2.7777777777778E-06  2.7777777777778E-06  2.7777777777778E-06  2.7777777777778E-06  2.7777777777778E-06  2.7777777777778E-06  2.7777777777778E-06  1.3888888888889E-06 
 2.5000000000000E-01  2.5000000000000E-01  2.5000000000000E-01  2.5000000000000E-01  2.5000000000000E-01  2.5000000000000E-01  2.5000000000000E-01  2.5000000000000E-01  2.5000000000000E-01  2.5000000000000E-01 
 1.0000000000000E-01  1.0000000000000E-01  1.0000000000000E-01  1.0000000000000E-01  1.0000000000000E-01  1.0000000000000E-01  1.0000000000000E-01  1.0000000000000E-01  1.0000000000000E-01  1.0000000000000E-01 
 1.4805752616322E-06  1.4805752634720E-06  1.4805752655073E-06  1.4805752657377E-06  1.4805752658401E-06  1.4805752659218E-06  1.4805752659667E-06  1.4805752660365E-06  1.4805752662903E-06  1.4805752665051E-06 
 9.1464108632242E+00  9.1464108821281E+00  9.1464109033720E+00  9.1464109058602E+00  9.1464109070593E+00  9.1464109080866E+00  9.1464109084416E+00  9.1464109094593E+00  9.1464109121694E+00  9.1464109142407E+00 
 9.1464108632242E+00  9.1464108821281E+00  9.1464109033720E+00  9.1464109058602E+00  9.1464109070593E+00  9.1464109080866E+00  9.1464109084416E+00  9.1464109094593E+00  9.1464109121694E+00  9.1464109142407E+00 
 0.0000000000000E+00  0.0000000000000E+00  0.0000000000000E+00  0.0000000000000E+00  0.0000000000000E+00  0.0000000000000E+00  0.0000000000000E+00  0.0000000000000E+00  0.0000000000000E+00  0.0000000000000E+00 
ZONE T = "SEP , 2.3781E-07", I = 10, SOLUTIONTIME = 2.378125E-07
ZONETYPE = ORDERED
DATAPACKING = BLOCK
STRANDID = 2