TITLE = "Solution on Domain BulkDomain1D_1"
VARIABLES = "x [m]"  
"Vel_axial" 	"MF_sp(ECDMC)" 	"MF_sp(Li+)" 	"MF_sp(PF6-)" 	"Volt(Electroly)" 	"Temperature" 	"Porosity []" 	"Control volume thickness [m]" 	"volFrac MgO(S) []" 	"volFrac ExtraStuff []" 	"qHeat_accum [J/m3]" 	"qHeat_step [W/m3]" 	"Joule_Lyte [W/m3]" 	"Joule_Solid [W/m3]" 	
ZONE T = "SEP , 0.0000E+00", I = 10, SOLUTIONTIME = 0.000000E+00
ZONETYPE = ORDERED
DATAPACKING = BLOCK
STRANDID = 2
 9.6000000000000E-05  9.8777777777778E-05  1.0155555555556E-04  1.0433333333333E-04  1.0711111111111E-04  1.0988888888889E-04  1.1266666666667E-04  1.1544444444444E-04  1.1822222222222E-04  1.2100000000000E-04 
 0.0000000000000E+00  0.0000000000000E+00  0.0000000000000E+00  0.0000000000000E+00  0.0000000000000E+00  0.0000000000000E+00  0.0000000000000E+00  0.0000000000000E+00  0.0000000000000E+00  0.0000000000000E+00 
 8.4394680000000E-01  8.4394680000000E-01  8.4394680000000E-01  8.4394680000000E-01  8.4394680000000E-01  8.4394680000000E-01  8.4394680000000E-01  8.4394680000000E-01  8.4394680000000E-01  8.4394680000000E-01 
 7.8026600000000E-02  7.8026600000000E-02  7.8026600000000E-02  7.8026600000000E-02  7.8026600000000E-02  7.8026600000000E-02  7.8026600000000E-02  7.8026600000000E-02  7.8026600000000E-02  7.8026600000000E-02 
 7.8026600000000E-02  7.8026600000000E-02  7.8026600000000E-02  7.8026600000000E-02  7.8026600000000E-02  7.8026600000000E-02  7.8026600000000E-02  7.8026600000000E-02  7.8026600000000E-02  7.8026600000000E-02 
-7.0000000000000E-02 -7.0000000000000E-02 -7.0000000000000E-02 -7.0000000000000E-02 -7.0000000000000E-02 -7.0000000000000E-02 -7.0000000000000E-02 -7.0000000000000E-02 -7.0000000000000E-02 -7.0000000000000E-02 
 2.9815000000000E+02  2.9815000000000E+02  2.9815000000000E+02  2.9815000000000E+02  2.9815000000000E+02  2.9815000000000E+02  2.9815000000000E+02  2.9815000000000E+02  2.9815000000000E+02  2.9815000000000E+02 
 6.5000471412550E-01  6.5000471412551E-01  6.5000471412550E-01  6.5000471412550E-01  6.5000471412551E-01  6.5000471412550E-01  6.5000471412551E-01  6.5000471412550E-01  6.5000471412550E-01  6.5000471412551E-01 
 1.3888888888889E-06  2.7777777777778E-06  2.7777777777778E-06  2.7777777777778E-06  2.7777777777778E-06  2.7777777777778E-06  2.7777777777778E-06  2.7777777777778E-06  2.7777777777778E-06  1.3888888888889E-06 
 2.4999528587450E-01  2.4999528587449E-01  2.4999528587450E-01  2.4999528587450E-01  2.4999528587449E-01  2.4999528587450E-01  2.4999528587449E-01  2.4999528587450E-01  2.4999528587450E-01  2.4999528587449E-01 
 1.0000000000000E-01  1.0000000000000E-01  1.0000000000000E-01  1.0000000000000E-01  1.0000000000000E-01  1.0000000000000E-01  1.0000000000000E-01  1.0000000000000E-01  1.0000000000000E-01  1.0000000000000E-01 
 0.0000000000000E+00  0.0000000000000E+00  0.0000000000000E+00  0.0000000000000E+00  0.0000000000000E+00  0.0000000000000E+00  0.0000000000000E+00  0.0000000000000E+00  0.0000000000000E+00  0.0000000000000E+00 
 0.0000000000000E+00  0.0000000000000E+00  0.0000000000000E+00  0.0000000000000E+00  0.0000000000000E+00  0.0000000000000E+00  0.0000000000000E+00  0.0000000000000E+00  0.0000000000000E+00  0.0000000000000E+00 
 0.0000000000000E+00  0.0000000000000E+00  0.0000000000000E+00  0.0000000000000E+00  0.0000000000000E+00  0.0000000000000E+00  0.0000000000000E+00  0.0000000000000E+00  0.0000000000000E+00  0.0000000000000E+00 
 0.0000000000000E+00  0.0000000000000E+00  0.0000000000000E+00  0.0000000000000E+00  0.0000000000000E+00  0.0000000000000E+00  0.0000000000000E+00  0.0000000000000E+00  0.0000000000000E+00  0.0000000000000E+00 
ZONE T = "SEP , 1.0000E-08", I = 10, SOLUTIONTIME = 1.000000E-08
ZONETYPE = ORDERED
DATAPACKING = BLOCK
STRANDID = 2
 9.6000000000000E-05  9.8777777777778E-05  1.0155555555556E-04  1.0433333333333E-04  1.0711111111111E-04  1.0988888888889E-04  1.1266666666667E-04  1.1544444444444E-04  1.1822222222222E-04  1.2100000000000E-04 
 1.8354767705460E-07  1.8344842354676E-07  1.8344741951449E-07  1.8344742185388E-07  1.8344742175620E-07  1.8344742177043E-07  1.8344742278178E-07  1.8344755850104E-07  1.8345703950940E-07  1.8279042619880E-07 
 8.4394679992706E-01  8.4394679999925E-01  8.4394679999999E-01  8.4394680000000E-01  8.4394680000000E-01  8.4394680000000E-01  8.4394680000000E-01  8.4394680000000E-01  8.4394680000007E-01  8.4394680000694E-01 
 7.8026600036470E-02  7.8026600000373E-02  7.8026600000004E-02  7.8026600000000E-02  7.8026600000000E-02  7.8026600000000E-02  7.8026600000000E-02  7.8026600000000E-02  7.8026599999964E-02  7.8026599996528E-02 
 7.8026600036470E-02  7.8026600000373E-02  7.8026600000004E-02  7.8026600000000E-02  7.8026600000000E-02  7.8026600000000E-02  7.8026600000000E-02  7.8026600000000E-02  7.8026599999964E-02  7.8026599996528E-02 
 1.3951822809988E-02  1.3951780465904E-02  1.3951738121898E-02  1.3951695777879E-02  1.3951653433806E-02  1.3951611089786E-02  1.3951568745780E-02  1.3951526401694E-02  1.3951484057688E-02  1.3951441713671E-02 
 2.9815000001621E+02  2.9815000000874E+02  2.9815000000364E+02  2.9815000000026E+02  2.9814999999926E+02  2.9814999999885E+02  2.9815000000020E+02  2.9815000000349E+02  2.9815000000724E+02  2.9815000001392E+02 
 6.5000471412550E-01  6.5000471412551E-01  6.5000471412550E-01  6.5000471412550E-01  6.5000471412551E-01  6.5000471412550E-01  6.5000471412551E-01  6.5000471412550E-01  6.5000471412550E-01  6.5000471412551E-01 
 1.3888888888889E-06  2.7777777777778E-06  2.7777777777778E-06  2.7777777777778E-06  2.7777777777778E-06  2.7777777777778E-06  2.7777777777778E-06  2.7777777777778E-06  2.7777777777778E-06  1.3888888888889E-06 
 2.4999528587450E-01  2.4999528587449E-01  2.4999528587450E-01  2.4999528587450E-01  2.4999528587449E-01  2.4999528587450E-01  2.4999528587449E-01  2.4999528587450E-01  2.4999528587450E-01  2.4999528587449E-01 
 1.0000000000000E-01  1.0000000000000E-01  1.0000000000000E-01  1.0000000000000E-01  1.0000000000000E-01  1.0000000000000E-01  1.0000000000000E-01  1.0000000000000E-01  1.0000000000000E-01  1.0000000000000E-01 
 9.1463327534264E-08  9.1463159829911E-08  9.1463020498376E-08  9.1463165429576E-08  9.1463165939611E-08  9.1463020998071E-08  9.1463165422179E-08  9.1463165410030E-08  9.1463014849167E-08  9.1463037617756E-08 
 9.1463327534264E+00  9.1463159829910E+00  9.1463020498376E+00  9.1463165429576E+00  9.1463165939611E+00  9.1463020998071E+00  9.1463165422179E+00  9.1463165410030E+00  9.1463014849167E+00  9.1463037617756E+00 
 9.1463327534264E+00  9.1463159829910E+00  9.1463020498376E+00  9.1463165429576E+00  9.1463165939611E+00  9.1463020998071E+00  9.1463165422179E+00  9.1463165410030E+00  9.1463014849167E+00  9.1463037617756E+00 
 0.0000000000000E+00  0.0000000000000E+00  0.0000000000000E+00  0.0000000000000E+00  0.0000000000000E+00  0.0000000000000E+00  0.0000000000000E+00  0.0000000000000E+00  0.0000000000000E+00  0.0000000000000E+00 
ZONE T = "SEP , 2.0000E-08", I = 10, SOLUTIONTIME = 2.000000E-08
ZONETYPE = ORDERED
DATAPACKING = BLOCK
STRANDID = 2
 9.6000000000000E-05  9.8777777777778E-05  1.0155555555556E-04  1.0433333333333E-04  1.0711111111111E-04  1.0988888888889E-04  1.1266666666667E-04  1.1544444444444E-04  1.1822222222222E-04  1.2100000000000E-04 
 1.8364666433925E-07  1.8345058485514E-07  1.8344759640526E-07  1.8344759802651E-07  1.8344759750262E-07  1.8344759755024E-07  1.8344759960929E-07  1.8344794447975E-07  1.8346665942557E-07  1.8279369228123E-07 
 8.4394679985454E-01  8.4394679999778E-01  8.4394679999997E-01  8.4394680000000E-01  8.4394680000000E-01  8.4394680000000E-01  8.4394680000000E-01  8.4394680000000E-01  8.4394680000021E-01  8.4394680001382E-01 
 7.8026600072732E-02  7.8026600001110E-02  7.8026600000015E-02  7.8026600000000E-02  7.8026600000000E-02  7.8026600000000E-02  7.8026600000000E-02  7.8026599999999E-02  7.8026599999894E-02  7.8026599993088E-02 
 7.8026600072732E-02  7.8026600001110E-02  7.8026600000015E-02  7.8026600000000E-02  7.8026600000000E-02  7.8026600000000E-02  7.8026600000000E-02  7.8026599999999E-02  7.8026599999894E-02  7.8026599993088E-02 
 1.3953381201489E-02  1.3953338857454E-02  1.3953296513420E-02  1.3953254169386E-02  1.3953211825351E-02  1.3953169481317E-02  1.3953127137283E-02  1.3953084793249E-02  1.3953042449214E-02  1.3953000105180E-02 
 2.9815000000048E+02  2.9815000000215E+02  2.9815000000176E+02  2.9815000000019E+02  2.9814999999989E+02  2.9815000000082E+02  2.9815000000313E+02  2.9815000000714E+02  2.9815000001087E+02  2.9815000001434E+02 
 6.5000471412550E-01  6.5000471412551E-01  6.5000471412550E-01  6.5000471412550E-01  6.5000471412551E-01  6.5000471412550E-01  6.5000471412551E-01  6.5000471412550E-01  6.5000471412550E-01  6.5000471412551E-01 
 1.3888888888889E-06  2.7777777777778E-06  2.7777777777778E-06  2.7777777777778E-06  2.7777777777778E-06  2.7777777777778E-06  2.7777777777778E-06  2.7777777777778E-06  2.7777777777778E-06  1.3888888888889E-06 
 2.4999528587450E-01  2.4999528587449E-01  2.4999528587450E-01  2.4999528587450E-01  2.4999528587449E-01  2.4999528587450E-01  2.4999528587449E-01  2.4999528587450E-01  2.4999528587450E-01  2.4999528587449E-01 
 1.0000000000000E-01  1.0000000000000E-01  1.0000000000000E-01  1.0000000000000E-01  1.0000000000000E-01  1.0000000000000E-01  1.0000000000000E-01  1.0000000000000E-01  1.0000000000000E-01  1.0000000000000E-01 
 1.8292644158430E-07  1.8292627390105E-07  1.8292613459416E-07  1.8292627952903E-07  1.8292628003915E-07  1.8292613509732E-07  1.8292627952069E-07  1.8292627950743E-07  1.8292612895062E-07  1.8292615172389E-07 
 9.1463114050034E+00  9.1463114071139E+00  9.1463114095780E+00  9.1463114099453E+00  9.1463114099543E+00  9.1463114099247E+00  9.1463114098511E+00  9.1463114097399E+00  9.1463114101455E+00  9.1463114106138E+00 
 9.1463114050034E+00  9.1463114071139E+00  9.1463114095780E+00  9.1463114099453E+00  9.1463114099543E+00  9.1463114099247E+00  9.1463114098511E+00  9.1463114097399E+00  9.1463114101455E+00  9.1463114106138E+00 
 0.0000000000000E+00  0.0000000000000E+00  0.0000000000000E+00  0.0000000000000E+00  0.0000000000000E+00  0.0000000000000E+00  0.0000000000000E+00  0.0000000000000E+00  0.0000000000000E+00  0.0000000000000E+00 
ZONE T = "SEP , 3.0000E-08", I = 10, SOLUTIONTIME = 3.000000E-08
ZONETYPE = ORDERED
DATAPACKING = BLOCK
STRANDID = 2
 9.6000000000000E-05  9.8777777777778E-05  1.0155555555556E-04  1.0433333333333E-04  1.0711111111111E-04  1.0988888888889E-04  1.1266666666667E-04  1.1544444444444E-04  1.1822222222222E-04  1.2100000000000E-04 
 1.8374422713090E-07  1.8345381936955E-07  1.8344786860365E-07  1.8344776340551E-07  1.8344776183664E-07  1.8344776195785E-07  1.8344781346990E-07  1.8344839560919E-07  1.8347591312466E-07  1.8279526743585E-07 
 8.4394679978242E-01  8.4394679999560E-01  8.4394679999993E-01  8.4394680000000E-01  8.4394680000000E-01  8.4394680000000E-01  8.4394680000000E-01  8.4394680000001E-01  8.4394680000042E-01  8.4394680002066E-01 
 7.8026600108790E-02  7.8026600002201E-02  7.8026600000037E-02  7.8026600000001E-02  7.8026600000000E-02  7.8026600000000E-02  7.8026600000000E-02  7.8026599999996E-02  7.8026599999791E-02  7.8026599989671E-02 
 7.8026600108790E-02  7.8026600002201E-02  7.8026600000037E-02  7.8026600000001E-02  7.8026600000000E-02  7.8026600000000E-02  7.8026600000000E-02  7.8026599999996E-02  7.8026599999791E-02  7.8026599989671E-02 
 1.3953380820012E-02  1.3953338475978E-02  1.3953296131944E-02  1.3953253787909E-02  1.3953211443875E-02  1.3953169099841E-02  1.3953126755807E-02  1.3953084411772E-02  1.3953042067738E-02  1.3952999723704E-02 
 2.9814999998475E+02  2.9814999999247E+02  2.9814999999688E+02  2.9814999999927E+02  2.9815000000103E+02  2.9815000000314E+02  2.9815000000787E+02  2.9815000001145E+02  2.9815000001235E+02  2.9815000001476E+02 
 6.5000471412550E-01  6.5000471412551E-01  6.5000471412550E-01  6.5000471412550E-01  6.5000471412551E-01  6.5000471412550E-01  6.5000471412551E-01  6.5000471412550E-01  6.5000471412550E-01  6.5000471412551E-01 
 1.3888888888889E-06  2.7777777777778E-06  2.7777777777778E-06  2.7777777777778E-06  2.7777777777778E-06  2.7777777777778E-06  2.7777777777778E-06  2.7777777777778E-06  2.7777777777778E-06  1.3888888888889E-06 
 2.4999528587450E-01  2.4999528587449E-01  2.4999528587450E-01  2.4999528587450E-01  2.4999528587449E-01  2.4999528587450E-01  2.4999528587449E-01  2.4999528587450E-01  2.4999528587450E-01  2.4999528587449E-01 
 1.0000000000000E-01  1.0000000000000E-01  1.0000000000000E-01  1.0000000000000E-01  1.0000000000000E-01  1.0000000000000E-01  1.0000000000000E-01  1.0000000000000E-01  1.0000000000000E-01  1.0000000000000E-01 
 2.7438955560255E-07  2.7438938795778E-07  2.7438924869187E-07  2.7438939362892E-07  2.7438939413841E-07  2.7438924919576E-07  2.7438939361797E-07  2.7438939360740E-07  2.7438924305780E-07  2.7438926583493E-07 
 9.1463114018256E+00  9.1463114056730E+00  9.1463114097711E+00  9.1463114099887E+00  9.1463114099260E+00  9.1463114098440E+00  9.1463114097276E+00  9.1463114099973E+00  9.1463114107174E+00  9.1463114111040E+00 
 9.1463114018256E+00  9.1463114056730E+00  9.1463114097711E+00  9.1463114099887E+00  9.1463114099260E+00  9.1463114098440E+00  9.1463114097276E+00  9.1463114099973E+00  9.1463114107174E+00  9.1463114111040E+00 
 0.0000000000000E+00  0.0000000000000E+00  0.0000000000000E+00  0.0000000000000E+00  0.0000000000000E+00  0.0000000000000E+00  0.0000000000000E+00  0.0000000000000E+00  0.0000000000000E+00  0.0000000000000E+00 
ZONE T = "SEP , 4.0000E-08", I = 10, SOLUTIONTIME = 4.000000E-08
ZONETYPE = ORDERED
DATAPACKING = BLOCK
STRANDID = 2
 9.6000000000000E-05  9.8777777777778E-05  1.0155555555556E-04  1.0433333333333E-04  1.0711111111111E-04  1.0988888888889E-04  1.1266666666667E-04  1.1544444444444E-04  1.1822222222222E-04  1.2100000000000E-04 
 1.8383988789810E-07  1.8345774577389E-07  1.8344804374174E-07  1.8344780706309E-07  1.8344780772053E-07  1.8344780803496E-07  1.8344783499138E-07  1.8344873666787E-07  1.8348498262845E-07  1.8279715648714E-07 
 8.4394679971071E-01  8.4394679999273E-01  8.4394679999985E-01  8.4394680000000E-01  8.4394680000000E-01  8.4394680000000E-01  8.4394680000000E-01  8.4394680000001E-01  8.4394680000069E-01  8.4394680002744E-01 
 7.8026600144646E-02  7.8026600003637E-02  7.8026600000074E-02  7.8026600000001E-02  7.8026600000000E-02  7.8026600000000E-02  7.8026600000000E-02  7.8026599999993E-02  7.8026599999655E-02  7.8026599986278E-02 
 7.8026600144646E-02  7.8026600003637E-02  7.8026600000074E-02  7.8026600000001E-02  7.8026600000000E-02  7.8026600000000E-02  7.8026600000000E-02  7.8026599999993E-02  7.8026599999655E-02  7.8026599986278E-02 
 1.3953380438540E-02  1.3953338094506E-02  1.3953295750471E-02  1.3953253406437E-02  1.3953211062403E-02  1.3953168718368E-02  1.3953126374334E-02  1.3953084030300E-02  1.3953041686265E-02  1.3952999342231E-02 
 2.9814999996902E+02  2.9814999998119E+02  2.9814999998948E+02  2.9814999999512E+02  2.9815000000133E+02  2.9815000000630E+02  2.9815000000948E+02  2.9815000001225E+02  2.9815000001385E+02  2.9815000001518E+02 
 6.5000471412550E-01  6.5000471412551E-01  6.5000471412550E-01  6.5000471412550E-01  6.5000471412551E-01  6.5000471412550E-01  6.5000471412551E-01  6.5000471412550E-01  6.5000471412550E-01  6.5000471412551E-01 
 1.3888888888889E-06  2.7777777777778E-06  2.7777777777778E-06  2.7777777777778E-06  2.7777777777778E-06  2.7777777777778E-06  2.7777777777778E-06  2.7777777777778E-06  2.7777777777778E-06  1.3888888888889E-06 
 2.4999528587450E-01  2.4999528587449E-01  2.4999528587450E-01  2.4999528587450E-01  2.4999528587449E-01  2.4999528587450E-01  2.4999528587449E-01  2.4999528587450E-01  2.4999528587450E-01  2.4999528587449E-01 
 1.0000000000000E-01  1.0000000000000E-01  1.0000000000000E-01  1.0000000000000E-01  1.0000000000000E-01  1.0000000000000E-01  1.0000000000000E-01  1.0000000000000E-01  1.0000000000000E-01  1.0000000000000E-01 
 3.6585266959687E-07  3.6585250199696E-07  3.6585236278490E-07  3.6585250772625E-07  3.6585250823396E-07  3.6585236329731E-07  3.6585250771844E-07  3.6585250770697E-07  3.6585235716719E-07  3.6585237995087E-07 
 9.1463113994312E+00  9.1463114039177E+00  9.1463114093029E+00  9.1463114097334E+00  9.1463114095543E+00  9.1463114101555E+00  9.1463114100470E+00  9.1463114099564E+00  9.1463114109398E+00  9.1463114115933E+00 
 9.1463113994312E+00  9.1463114039177E+00  9.1463114093029E+00  9.1463114097334E+00  9.1463114095543E+00  9.1463114101555E+00  9.1463114100470E+00  9.1463114099564E+00  9.1463114109398E+00  9.1463114115933E+00 
 0.0000000000000E+00  0.0000000000000E+00  0.0000000000000E+00  0.0000000000000E+00  0.0000000000000E+00  0.0000000000000E+00  0.0000000000000E+00  0.0000000000000E+00  0.0000000000000E+00  0.0000000000000E+00 
ZONE T = "SEP , 5.5000E-08", I = 10, SOLUTIONTIME = 5.500000E-08
ZONETYPE = ORDERED
DATAPACKING = BLOCK
STRANDID = 2
 9.6000000000000E-05  9.8777777777778E-05  1.0155555555556E-04  1.0433333333333E-04  1.0711111111111E-04  1.0988888888889E-04  1.1266666666667E-04  1.1544444444444E-04  1.1822222222222E-04  1.2100000000000E-04 
 1.8397956931049E-07  1.8346492104581E-07  1.8344768262345E-07  1.8344724064140E-07  1.8344723959109E-07  1.8344724038086E-07  1.8344727371655E-07  1.8344887814968E-07  1.8349764485262E-07  1.8279927246480E-07 
 8.4394679960402E-01  8.4394679998692E-01  8.4394679999966E-01  8.4394679999999E-01  8.4394680000000E-01  8.4394680000000E-01  8.4394680000000E-01  8.4394680000003E-01  8.4394680000124E-01  8.4394680003752E-01 
 7.8026600197989E-02  7.8026600006538E-02  7.8026600000171E-02  7.8026600000004E-02  7.8026600000000E-02  7.8026600000000E-02  7.8026600000000E-02  7.8026599999984E-02  7.8026599999380E-02  7.8026599981240E-02 
 7.8026600197989E-02  7.8026600006538E-02  7.8026600000171E-02  7.8026600000004E-02  7.8026600000000E-02  7.8026600000000E-02  7.8026600000000E-02  7.8026599999984E-02  7.8026599999380E-02  7.8026599981240E-02 
 1.3953379991664E-02  1.3953337647630E-02  1.3953295303596E-02  1.3953252959562E-02  1.3953210615527E-02  1.3953168271493E-02  1.3953125927459E-02  1.3953083583424E-02  1.3953041239390E-02  1.3952998895356E-02 
 2.9814999994544E+02  2.9814999996223E+02  2.9814999997541E+02  2.9814999998611E+02  2.9814999999418E+02  2.9815000000060E+02  2.9815000000585E+02  2.9815000000989E+02  2.9815000001299E+02  2.9815000001581E+02 
 6.5000471412550E-01  6.5000471412551E-01  6.5000471412550E-01  6.5000471412550E-01  6.5000471412551E-01  6.5000471412550E-01  6.5000471412551E-01  6.5000471412550E-01  6.5000471412550E-01  6.5000471412551E-01 
 1.3888888888889E-06  2.7777777777778E-06  2.7777777777778E-06  2.7777777777778E-06  2.7777777777778E-06  2.7777777777778E-06  2.7777777777778E-06  2.7777777777778E-06  2.7777777777778E-06  1.3888888888889E-06 
 2.4999528587450E-01  2.4999528587449E-01  2.4999528587450E-01  2.4999528587450E-01  2.4999528587449E-01  2.4999528587450E-01  2.4999528587449E-01  2.4999528587450E-01  2.4999528587450E-01  2.4999528587449E-01 
 1.0000000000000E-01  1.0000000000000E-01  1.0000000000000E-01  1.0000000000000E-01  1.0000000000000E-01  1.0000000000000E-01  1.0000000000000E-01  1.0000000000000E-01  1.0000000000000E-01  1.0000000000000E-01 
 5.0304734052960E-07  5.0304717302601E-07  5.0304703391555E-07  5.0304717886557E-07  5.0304717937499E-07  5.0304703444096E-07  5.0304717887090E-07  5.0304717886285E-07  5.0304702832895E-07  5.0304705111961E-07 
 9.1463113955159E+00  9.1463114019367E+00  9.1463114087103E+00  9.1463114092882E+00  9.1463114094023E+00  9.1463114095763E+00  9.1463114101643E+00  9.1463114103922E+00  9.1463114107834E+00  9.1463114112496E+00 
 9.1463113955159E+00  9.1463114019367E+00  9.1463114087103E+00  9.1463114092882E+00  9.1463114094023E+00  9.1463114095763E+00  9.1463114101643E+00  9.1463114103922E+00  9.1463114107834E+00  9.1463114112496E+00 
 0.0000000000000E+00  0.0000000000000E+00  0.0000000000000E+00  0.0000000000000E+00  0.0000000000000E+00  0.0000000000000E+00  0.0000000000000E+00  0.0000000000000E+00  0.0000000000000E+00  0.0000000000000E+00 
ZONE T = "SEP , 7.7500E-08", I = 10, SOLUTIONTIME = 7.750000E-08
ZONETYPE = ORDERED
DATAPACKING = BLOCK
STRANDID = 2
 9.6000000000000E-05  9.8777777777778E-05  1.0155555555556E-04  1.0433333333333E-04  1.0711111111111E-04  1.0988888888889E-04  1.1266666666667E-04  1.1544444444444E-04  1.1822222222222E-04  1.2100000000000E-04 
 1.8418302126865E-07  1.8348079502443E-07  1.8344855434746E-07  1.8344741522075E-07  1.8344738026912E-07  1.8344738081752E-07  1.8344749857209E-07  1.8345057733379E-07  1.8351699830841E-07  1.8280343090018E-07 
 8.4394679944590E-01  8.4394679997505E-01  8.4394679999911E-01  8.4394679999997E-01  8.4394680000000E-01  8.4394680000000E-01  8.4394680000000E-01  8.4394680000008E-01  8.4394680000236E-01  8.4394680005242E-01 
 7.8026600277050E-02  7.8026600012475E-02  7.8026600000444E-02  7.8026600000014E-02  7.8026600000000E-02  7.8026600000000E-02  7.8026599999999E-02  7.8026599999958E-02  7.8026599998818E-02  7.8026599973792E-02 
 7.8026600277050E-02  7.8026600012475E-02  7.8026600000444E-02  7.8026600000014E-02  7.8026600000000E-02  7.8026600000000E-02  7.8026599999999E-02  7.8026599999958E-02  7.8026599998818E-02  7.8026599973792E-02 
 1.3953379203025E-02  1.3953336858991E-02  1.3953294514956E-02  1.3953252170922E-02  1.3953209826888E-02  1.3953167482853E-02  1.3953125138819E-02  1.3953082794785E-02  1.3953040450750E-02  1.3952998106716E-02 
 2.9814999991008E+02  2.9814999993378E+02  2.9814999995306E+02  2.9814999996823E+02  2.9814999998000E+02  2.9814999999002E+02  2.9814999999812E+02  2.9815000000528E+02  2.9815000001153E+02  2.9815000001676E+02 
 6.5000471412550E-01  6.5000471412551E-01  6.5000471412550E-01  6.5000471412550E-01  6.5000471412551E-01  6.5000471412550E-01  6.5000471412551E-01  6.5000471412550E-01  6.5000471412550E-01  6.5000471412551E-01 
 1.3888888888889E-06  2.7777777777778E-06  2.7777777777778E-06  2.7777777777778E-06  2.7777777777778E-06  2.7777777777778E-06  2.7777777777778E-06  2.7777777777778E-06  2.7777777777778E-06  1.3888888888889E-06 
 2.4999528587450E-01  2.4999528587449E-01  2.4999528587450E-01  2.4999528587450E-01  2.4999528587449E-01  2.4999528587450E-01  2.4999528587449E-01  2.4999528587450E-01  2.4999528587450E-01  2.4999528587449E-01 
 1.0000000000000E-01  1.0000000000000E-01  1.0000000000000E-01  1.0000000000000E-01  1.0000000000000E-01  1.0000000000000E-01  1.0000000000000E-01  1.0000000000000E-01  1.0000000000000E-01  1.0000000000000E-01 
 7.0883934677221E-07  7.0883917947937E-07  7.0883904059829E-07  7.0883918556196E-07  7.0883918607949E-07  7.0883904115542E-07  7.0883918558800E-07  7.0883918559097E-07  7.0883903507482E-07  7.0883905787799E-07 
 9.1463113885600E+00  9.1463113979272E+00  9.1463114081219E+00  9.1463114087283E+00  9.1463114090890E+00  9.1463114095319E+00  9.1463114096490E+00  9.1463114101387E+00  9.1463114109278E+00  9.1463114114835E+00 
 9.1463113885600E+00  9.1463113979272E+00  9.1463114081219E+00  9.1463114087283E+00  9.1463114090890E+00  9.1463114095319E+00  9.1463114096490E+00  9.1463114101387E+00  9.1463114109278E+00  9.1463114114835E+00 
 0.0000000000000E+00  0.0000000000000E+00  0.0000000000000E+00  0.0000000000000E+00  0.0000000000000E+00  0.0000000000000E+00  0.0000000000000E+00  0.0000000000000E+00  0.0000000000000E+00  0.0000000000000E+00 
ZONE T = "SEP , 1.1125E-07", I = 10, SOLUTIONTIME = 1.112500E-07
ZONETYPE = ORDERED
DATAPACKING = BLOCK
STRANDID = 2
 9.6000000000000E-05  9.8777777777778E-05  1.0155555555556E-04  1.0433333333333E-04  1.0711111111111E-04  1.0988888888889E-04  1.1266666666667E-04  1.1544444444444E-04  1.1822222222222E-04  1.2100000000000E-04 
 1.8447345235284E-07  1.8351274385732E-07  1.8345084693264E-07  1.8344770526305E-07  1.8344757145891E-07  1.8344758708640E-07  1.8344788464597E-07  1.8345372816922E-07  1.8354438789007E-07  1.8280981668660E-07 
 8.4394679921278E-01  8.4394679995068E-01  8.4394679999754E-01  8.4394679999989E-01  8.4394680000000E-01  8.4394680000000E-01  8.4394680000001E-01  8.4394680000023E-01  8.4394680000466E-01  8.4394680007430E-01 
 7.8026600393608E-02  7.8026600024660E-02  7.8026600001229E-02  7.8026600000053E-02  7.8026600000002E-02  7.8026600000000E-02  7.8026599999995E-02  7.8026599999884E-02  7.8026599997668E-02  7.8026599962849E-02 
 7.8026600393608E-02  7.8026600024660E-02  7.8026600001229E-02  7.8026600000053E-02  7.8026600000002E-02  7.8026600000000E-02  7.8026599999995E-02  7.8026599999884E-02  7.8026599997668E-02  7.8026599962849E-02 
 1.3953378020082E-02  1.3953335676048E-02  1.3953293332014E-02  1.3953250987979E-02  1.3953208643945E-02  1.3953166299911E-02  1.3953123955877E-02  1.3953081611842E-02  1.3953039267808E-02  1.3952996923774E-02 
 2.9814999985706E+02  2.9814999988852E+02  2.9814999991479E+02  2.9814999993709E+02  2.9814999995581E+02  2.9814999997192E+02  2.9814999998522E+02  2.9814999999696E+02  2.9815000000775E+02  2.9815000001817E+02 
 6.5000471412550E-01  6.5000471412551E-01  6.5000471412550E-01  6.5000471412550E-01  6.5000471412551E-01  6.5000471412550E-01  6.5000471412551E-01  6.5000471412550E-01  6.5000471412550E-01  6.5000471412551E-01 
 1.3888888888889E-06  2.7777777777778E-06  2.7777777777778E-06  2.7777777777778E-06  2.7777777777778E-06  2.7777777777778E-06  2.7777777777778E-06  2.7777777777778E-06  2.7777777777778E-06  1.3888888888889E-06 
 2.4999528587450E-01  2.4999528587449E-01  2.4999528587450E-01  2.4999528587450E-01  2.4999528587449E-01  2.4999528587450E-01  2.4999528587449E-01  2.4999528587450E-01  2.4999528587450E-01  2.4999528587449E-01 
 1.0000000000000E-01  1.0000000000000E-01  1.0000000000000E-01  1.0000000000000E-01  1.0000000000000E-01  1.0000000000000E-01  1.0000000000000E-01  1.0000000000000E-01  1.0000000000000E-01  1.0000000000000E-01 
 1.0175273557880E-06  1.0175271889454E-06  1.0175270505634E-06  1.0175271955765E-06  1.0175271961110E-06  1.0175270512082E-06  1.0175271956518E-06  1.0175271956650E-06  1.0175270452080E-06  1.0175270680660E-06 
 9.1463113782472E+00  9.1463113915870E+00  9.1463114063733E+00  9.1463114078397E+00  9.1463114083402E+00  9.1463114089698E+00  9.1463114092974E+00  9.1463114096021E+00  9.1463114113528E+00  9.1463114129777E+00 
 9.1463113782472E+00  9.1463113915870E+00  9.1463114063733E+00  9.1463114078397E+00  9.1463114083402E+00  9.1463114089698E+00  9.1463114092974E+00  9.1463114096021E+00  9.1463114113528E+00  9.1463114129777E+00 
 0.0000000000000E+00  0.0000000000000E+00  0.0000000000000E+00  0.0000000000000E+00  0.0000000000000E+00  0.0000000000000E+00  0.0000000000000E+00  0.0000000000000E+00  0.0000000000000E+00  0.0000000000000E+00 
ZONE T = "SEP , 1.6188E-07", I = 10, SOLUTIONTIME = 1.618750E-07
ZONETYPE = ORDERED
DATAPACKING = BLOCK
STRANDID = 2
 9.6000000000000E-05  9.8777777777778E-05  1.0155555555556E-04  1.0433333333333E-04  1.0711111111111E-04  1.0988888888889E-04  1.1266666666667E-04  1.1544444444444E-04  1.1822222222222E-04  1.2100000000000E-04 
 1.8487902612360E-07  1.8357551170790E-07  1.8345678842363E-07  1.8344825622204E-07  1.8344772371599E-07  1.8344775530421E-07  1.8344855928012E-07  1.8345976106387E-07  1.8358238471997E-07  1.8281941061135E-07 
 8.4394679887155E-01  8.4394679990108E-01  8.4394679999303E-01  8.4394679999957E-01  8.4394679999998E-01  8.4394680000000E-01  8.4394680000004E-01  8.4394680000066E-01  8.4394680000933E-01  8.4394680010620E-01 
 7.8026600564226E-02  7.8026600049458E-02  7.8026600003487E-02  7.8026600000216E-02  7.8026600000012E-02  7.8026600000000E-02  7.8026599999980E-02  7.8026599999671E-02  7.8026599995336E-02  7.8026599946899E-02 
 7.8026600564226E-02  7.8026600049458E-02  7.8026600003487E-02  7.8026600000216E-02  7.8026600000012E-02  7.8026600000000E-02  7.8026599999980E-02  7.8026599999671E-02  7.8026599995336E-02  7.8026599946899E-02 
 1.3953376245702E-02  1.3953333901668E-02  1.3953291557634E-02  1.3953249213600E-02  1.3953206869565E-02  1.3953164525531E-02  1.3953122181497E-02  1.3953079837462E-02  1.3953037493428E-02  1.3952995149394E-02 
 2.9814999977756E+02  2.9814999981841E+02  2.9814999985442E+02  2.9814999988607E+02  2.9814999991411E+02  2.9814999993891E+02  2.9814999996123E+02  2.9814999998183E+02  2.9815000000126E+02  2.9815000002026E+02 
 6.5000471412550E-01  6.5000471412551E-01  6.5000471412550E-01  6.5000471412550E-01  6.5000471412551E-01  6.5000471412550E-01  6.5000471412551E-01  6.5000471412550E-01  6.5000471412550E-01  6.5000471412551E-01 
 1.3888888888889E-06  2.7777777777778E-06  2.7777777777778E-06  2.7777777777778E-06  2.7777777777778E-06  2.7777777777778E-06  2.7777777777778E-06  2.7777777777778E-06  2.7777777777778E-06  1.3888888888889E-06 
 2.4999528587450E-01  2.4999528587449E-01  2.4999528587450E-01  2.4999528587450E-01  2.4999528587449E-01  2.4999528587450E-01  2.4999528587449E-01  2.4999528587450E-01  2.4999528587450E-01  2.4999528587449E-01 
 1.0000000000000E-01  1.0000000000000E-01  1.0000000000000E-01  1.0000000000000E-01  1.0000000000000E-01  1.0000000000000E-01  1.0000000000000E-01  1.0000000000000E-01  1.0000000000000E-01  1.0000000000000E-01 
 1.4805593685569E-06  1.4805592026728E-06  1.4805590653692E-06  1.4805592105112E-06  1.4805592110907E-06  1.4805590662435E-06  1.4805592107085E-06  1.4805592107572E-06  1.4805590604403E-06  1.4805590834047E-06 
 9.1463113633363E+00  9.1463113822693E+00  9.1463114035709E+00  9.1463114061174E+00  9.1463114070072E+00  9.1463114081061E+00  9.1463114085277E+00  9.1463114092279E+00  9.1463114119960E+00  9.1463114140987E+00 
 9.1463113633363E+00  9.1463113822693E+00  9.1463114035709E+00  9.1463114061174E+00  9.1463114070072E+00  9.1463114081061E+00  9.1463114085277E+00  9.1463114092279E+00  9.1463114119960E+00  9.1463114140987E+00 
 0.0000000000000E+00  0.0000000000000E+00  0.0000000000000E+00  0.0000000000000E+00  0.0000000000000E+00  0.0000000000000E+00  0.0000000000000E+00  0.0000000000000E+00  0.0000000000000E+00  0.0000000000000E+00 
ZONE T = "SEP , 2.3781E-07", I = 10, SOLUTIONTIME = 2.378125E-07
ZONETYPE = ORDERED
DATAPACKING = BLOCK
STRANDID = 2