TITLE = "Solution on Domain BulkDomain1D_0"
VARIABLES = "x [m]"  
"Vel_axial" 
"MF_sp(ECDMC)" 
"MF_sp(Li+)" 
"MF_sp(PF6-)" 
"Volt(Electroly)" 
"Volt(AnodeVolt)" 
"Temperature" 
"Potential Drop Electrode-Electrolyte [V]" 
"Surf_0 Equilibrium Potential Drop Electrode-Electrolyte [V]" 
"Overpotential_0 [V]" 
"Current Source [A/m^2]" 
"Li+ flux [kmol/m^2/s]" 
"Electrolyte Current [A/m^2]" 
"Electrode Current [A/m^2]" 
"CV Capacity discharged [A-s/m^2]" 
"Depth of discharge in CV [A-s/m^2]" 
"CV Capacity remaining [A-s/m^2]" 
"Initial CV capacity [A-s/m^2]" 
"Porosity []" 
"Surface Area [m2/m2] (area per area)" 
"Specific current (per particle area) [A/m^2]" 
"Control volume thickness [m]" 
"volFrac AnodeBinder []" 	"volFrac ExtraStuff []" 	"MoleDens Li_C6-bulk [kmol/m^3]" 
"MoleDens V_C6-bulk [kmol/m^3]" 
"qHeat_accum [J/m3]" 
"qHeat_step [W/m3]" 
"Joule_Lyte [W/m3]" 
"Joule_Solid [W/m3]" 
"electrodHeat [W/m3]" 
"OverpotHeat [W/m3]" 
"deltaSHeat [W/m3]" 

ZONE T = "ANOD, 0.0000E+00", I = 10, SOLUTIONTIME = 0.000000E+00
ZONETYPE = ORDERED
DATAPACKING = BLOCK
STRANDID = 1
 0.0000000000000E+00  1.0666666666667E-05  2.1333333333333E-05  3.2000000000000E-05  4.2666666666667E-05  5.3333333333333E-05  6.4000000000000E-05  7.4666666666667E-05  8.5333333333333E-05  9.6000000000000E-05 
 0.0000000000000E+00  0.0000000000000E+00  0.0000000000000E+00  0.0000000000000E+00  0.0000000000000E+00  0.0000000000000E+00  0.0000000000000E+00  0.0000000000000E+00  0.0000000000000E+00  0.0000000000000E+00 
 8.4394680000000E-01  8.4394680000000E-01  8.4394680000000E-01  8.4394680000000E-01  8.4394680000000E-01  8.4394680000000E-01  8.4394680000000E-01  8.4394680000000E-01  8.4394680000000E-01  8.4394680000000E-01 
 7.8026600000000E-02  7.8026600000000E-02  7.8026600000000E-02  7.8026600000000E-02  7.8026600000000E-02  7.8026600000000E-02  7.8026600000000E-02  7.8026600000000E-02  7.8026600000000E-02  7.8026600000000E-02 
 7.8026600000000E-02  7.8026600000000E-02  7.8026600000000E-02  7.8026600000000E-02  7.8026600000000E-02  7.8026600000000E-02  7.8026600000000E-02  7.8026600000000E-02  7.8026600000000E-02  7.8026600000000E-02 
-7.0000000000000E-02 -7.0000000000000E-02 -7.0000000000000E-02 -7.0000000000000E-02 -7.0000000000000E-02 -7.0000000000000E-02 -7.0000000000000E-02 -7.0000000000000E-02 -7.0000000000000E-02 -7.0000000000000E-02 
 0.0000000000000E+00  0.0000000000000E+00  0.0000000000000E+00  0.0000000000000E+00  0.0000000000000E+00  0.0000000000000E+00  0.0000000000000E+00  0.0000000000000E+00  0.0000000000000E+00  0.0000000000000E+00 
 2.9815000000000E+02  2.9815000000000E+02  2.9815000000000E+02  2.9815000000000E+02  2.9815000000000E+02  2.9815000000000E+02  2.9815000000000E+02  2.9815000000000E+02  2.9815000000000E+02  2.9815000000000E+02 
 7.0000000000000E-02  7.0000000000000E-02  7.0000000000000E-02  7.0000000000000E-02  7.0000000000000E-02  7.0000000000000E-02  7.0000000000000E-02  7.0000000000000E-02  7.0000000000000E-02  7.0000000000000E-02 
-2.4231113980254E-02 -2.4231113980254E-02 -2.4231113980254E-02 -2.4231113980254E-02 -2.4231113980254E-02 -2.4231113980254E-02 -2.4231113980254E-02 -2.4231113980254E-02 -2.4231113980254E-02 -2.4231113980254E-02 
 9.4231113980254E-02  9.4231113980254E-02  9.4231113980254E-02  9.4231113980254E-02  9.4231113980254E-02  9.4231113980254E-02  9.4231113980254E-02  9.4231113980254E-02  9.4231113980254E-02  9.4231113980254E-02 
 5.2595956578534E+02  1.0519191315707E+03  1.0519191315707E+03  1.0519191315707E+03  1.0519191315707E+03  1.0519191315707E+03  1.0519191315707E+03  1.0519191315707E+03  1.0519191315707E+03  5.2595956578534E+02 
-0.0000000000000E+00 -0.0000000000000E+00 -0.0000000000000E+00 -0.0000000000000E+00 -0.0000000000000E+00 -0.0000000000000E+00 -0.0000000000000E+00 -0.0000000000000E+00 -0.0000000000000E+00 -0.0000000000000E+00 
 0.0000000000000E+00  0.0000000000000E+00  0.0000000000000E+00  0.0000000000000E+00  0.0000000000000E+00  0.0000000000000E+00  0.0000000000000E+00  0.0000000000000E+00  0.0000000000000E+00  5.2595956578534E+02 
 5.2595956578534E+02 -0.0000000000000E+00 -0.0000000000000E+00 -0.0000000000000E+00 -0.0000000000000E+00 -0.0000000000000E+00 -0.0000000000000E+00 -0.0000000000000E+00 -0.0000000000000E+00  0.0000000000000E+00 
 0.0000000000000E+00  0.0000000000000E+00  0.0000000000000E+00  0.0000000000000E+00  0.0000000000000E+00  0.0000000000000E+00  0.0000000000000E+00  0.0000000000000E+00  0.0000000000000E+00  0.0000000000000E+00 
 1.4095380717934E+03  2.8190761435868E+03  2.8190761435868E+03  2.8190761435868E+03  2.8190761435868E+03  2.8190761435868E+03  2.8190761435868E+03  2.8190761435868E+03  2.8190761435868E+03  1.4095380717934E+03 
 5.6381522871735E+03  1.1276304574347E+04  1.1276304574347E+04  1.1276304574347E+04  1.1276304574347E+04  1.1276304574347E+04  1.1276304574347E+04  1.1276304574347E+04  1.1276304574347E+04  5.6381522871735E+03 
 7.0476903589669E+03  1.4095380717934E+04  1.4095380717934E+04  1.4095380717934E+04  1.4095380717934E+04  1.4095380717934E+04  1.4095380717934E+04  1.4095380717934E+04  1.4095380717934E+04  7.0476903589669E+03 
 4.0000000000000E-01  4.0000000000000E-01  4.0000000000000E-01  4.0000000000000E-01  4.0000000000000E-01  4.0000000000000E-01  4.0000000000000E-01  4.0000000000000E-01  4.0000000000000E-01  4.0000000000000E-01 
 9.4000000000000E-01  1.8800000000000E+00  1.8800000000000E+00  1.8800000000000E+00  1.8800000000000E+00  1.8800000000000E+00  1.8800000000000E+00  1.8800000000000E+00  1.8800000000000E+00  9.4000000000000E-01 
 5.5953145296313E+02  5.5953145296313E+02  5.5953145296313E+02  5.5953145296313E+02  5.5953145296313E+02  5.5953145296313E+02  5.5953145296313E+02  5.5953145296313E+02  5.5953145296313E+02  5.5953145296313E+02 
 5.3333333333333E-06  1.0666666666667E-05  1.0666666666667E-05  1.0666666666667E-05  1.0666666666667E-05  1.0666666666667E-05  1.0666666666667E-05  1.0666666666667E-05  1.0666666666667E-05  5.3333333333333E-06 
 3.0000000000000E-02  3.0000000000000E-02  3.0000000000000E-02  3.0000000000000E-02  3.0000000000000E-02  3.0000000000000E-02  3.0000000000000E-02  3.0000000000000E-02  3.0000000000000E-02  3.0000000000000E-02 
 1.0000000000000E-01  1.0000000000000E-01  1.0000000000000E-01  1.0000000000000E-01  1.0000000000000E-01  1.0000000000000E-01  1.0000000000000E-01  1.0000000000000E-01  1.0000000000000E-01  1.0000000000000E-01 
 1.0956624007712E+01  1.0956624007712E+01  1.0956624007712E+01  1.0956624007712E+01  1.0956624007712E+01  1.0956624007712E+01  1.0956624007712E+01  1.0956624007712E+01  1.0956624007712E+01  1.0956624007712E+01 
 2.7391560019279E+00  2.7391560019279E+00  2.7391560019279E+00  2.7391560019279E+00  2.7391560019279E+00  2.7391560019279E+00  2.7391560019279E+00  2.7391560019279E+00  2.7391560019279E+00  2.7391560019279E+00 
 0.0000000000000E+00  0.0000000000000E+00  0.0000000000000E+00  0.0000000000000E+00  0.0000000000000E+00  0.0000000000000E+00  0.0000000000000E+00  0.0000000000000E+00  0.0000000000000E+00  0.0000000000000E+00 
 0.0000000000000E+00  0.0000000000000E+00  0.0000000000000E+00  0.0000000000000E+00  0.0000000000000E+00  0.0000000000000E+00  0.0000000000000E+00  0.0000000000000E+00  0.0000000000000E+00  0.0000000000000E+00 
 0.0000000000000E+00  0.0000000000000E+00  0.0000000000000E+00  0.0000000000000E+00  0.0000000000000E+00  0.0000000000000E+00  0.0000000000000E+00  0.0000000000000E+00  0.0000000000000E+00  0.0000000000000E+00 
 0.0000000000000E+00  0.0000000000000E+00  0.0000000000000E+00  0.0000000000000E+00  0.0000000000000E+00  0.0000000000000E+00  0.0000000000000E+00  0.0000000000000E+00  0.0000000000000E+00  0.0000000000000E+00 
 0.0000000000000E+00  0.0000000000000E+00  0.0000000000000E+00  0.0000000000000E+00  0.0000000000000E+00  0.0000000000000E+00  0.0000000000000E+00  0.0000000000000E+00  0.0000000000000E+00  0.0000000000000E+00 
 0.0000000000000E+00  0.0000000000000E+00  0.0000000000000E+00  0.0000000000000E+00  0.0000000000000E+00  0.0000000000000E+00  0.0000000000000E+00  0.0000000000000E+00  0.0000000000000E+00  0.0000000000000E+00 
 0.0000000000000E+00  0.0000000000000E+00  0.0000000000000E+00  0.0000000000000E+00  0.0000000000000E+00  0.0000000000000E+00  0.0000000000000E+00  0.0000000000000E+00  0.0000000000000E+00  0.0000000000000E+00 
ZONE T = "ANOD, 1.0000E-08", I = 10, SOLUTIONTIME = 1.000000E-08
ZONETYPE = ORDERED
DATAPACKING = BLOCK
STRANDID = 1
 0.0000000000000E+00  1.0666666666667E-05  2.1333333333333E-05  3.2000000000000E-05  4.2666666666667E-05  5.3333333333333E-05  6.4000000000000E-05  7.4666666666667E-05  8.5333333333333E-05  9.6000000000000E-05 
 1.0618316381008E-08  3.1582475413646E-08  5.2308735874019E-08  7.2829186268523E-08  9.3176401988284E-08  1.1338231423978E-07  1.3347873195286E-07  1.5349736517473E-07  1.7347504863133E-07  1.8354854771634E-07 
 8.4394679988890E-01  8.4394679989032E-01  8.4394679989157E-01  8.4394679989264E-01  8.4394679989355E-01  8.4394679989429E-01  8.4394679989486E-01  8.4394679989527E-01  8.4394679989553E-01  8.4394679992706E-01 
 7.8026600055550E-02  7.8026600054841E-02  7.8026600054217E-02  7.8026600053679E-02  7.8026600053226E-02  7.8026600052856E-02  7.8026600052570E-02  7.8026600052366E-02  7.8026600052236E-02  7.8026600036470E-02 
 7.8026600055550E-02  7.8026600054841E-02  7.8026600054217E-02  7.8026600053679E-02  7.8026600053226E-02  7.8026600052856E-02  7.8026600052570E-02  7.8026600052366E-02  7.8026600052236E-02  7.8026600036470E-02 
 1.3953354713219E-02  1.3953335217496E-02  1.3953277228870E-02  1.3953181184991E-02  1.3953047463621E-02  1.3952876382896E-02  1.3952668202260E-02  1.3952423122657E-02  1.3952141287104E-02  1.3951822780779E-02 
 0.0000000000000E+00 -1.2973559946025E-04 -2.4373406731969E-04 -3.4217435135884E-04 -4.2521084314571E-04 -4.9297364926827E-04 -5.4556881726472E-04 -5.8307852127616E-04 -6.0556120555447E-04 -6.1305168512937E-04 
 2.9814999998226E+02  2.9814999994925E+02  2.9815000001577E+02  2.9814999998269E+02  2.9814999998278E+02  2.9814999998286E+02  2.9814999998291E+02  2.9814999998297E+02  2.9814999994978E+02  2.9815000001620E+02 
-1.3953354713219E-02 -1.4083070816956E-02 -1.4197011296190E-02 -1.4295355536350E-02 -1.4378258306767E-02 -1.4445850032164E-02 -1.4498237019525E-02 -1.4535501643933E-02 -1.4557702492658E-02 -1.4564874465908E-02 
-2.4231113582290E-02 -2.4231113574915E-02 -2.4231113604249E-02 -2.4231113595636E-02 -2.4231113598867E-02 -2.4231113601499E-02 -2.4231113603539E-02 -2.4231113604994E-02 -2.4231113593407E-02 -2.4231113623767E-02 
 1.0277758869071E-02  1.0148042757959E-02  1.0034102308059E-02  9.9357580592862E-03  9.8528552921003E-03  9.7852635693352E-03  9.7328765840140E-03  9.6956119610604E-03  9.6734111007490E-03  9.6662391578583E-03 
 3.4733746718554E+01  6.8579300386706E+01  6.7799487545360E+01  6.7126683624973E+01  6.6559710911707E+01  6.6097578835179E+01  6.5739481939456E+01  6.5484797195403E+01  6.5333081896249E+01  3.2642036679207E+01 
 1.7996840157452E-07  5.3529854633410E-07  8.8658872298428E-07  1.2343917539218E-06  1.5792580562355E-06  1.9217294090868E-06  2.2623458477830E-06  2.6016421141217E-06  2.9401998368294E-06  2.9401998368294E-06 
 0.0000000000000E+00  6.9012381182872E+01  1.3719093090948E+02  2.0464322417166E+02  2.7147570725930E+02  3.3779376116618E+02  4.0370176521955E+02  4.6930341717286E+02  5.3470182336932E+02  6.0000513024290E+02 
 6.0000553985330E+02  5.3098761579331E+02  4.6280910835818E+02  3.9535679840490E+02  3.2852428280045E+02  2.6220624150722E+02  1.9629825114300E+02  1.3069660541931E+02  6.5298129995606E+01  0.0000000000000E+00 
 3.4733746718554E-07  6.8579300386706E-07  6.7799487545360E-07  6.7126683624973E-07  6.6559710911707E-07  6.6097578835179E-07  6.5739481939456E-07  6.5484797195403E-07  6.5333081896249E-07  3.2642036679207E-07 
 1.4095380721407E+03  2.8190761442726E+03  2.8190761442648E+03  2.8190761442580E+03  2.8190761442524E+03  2.8190761442477E+03  2.8190761442442E+03  2.8190761442416E+03  2.8190761442401E+03  1.4095380721198E+03 
 5.6381522868262E+03  1.1276304573661E+04  1.1276304573669E+04  1.1276304573676E+04  1.1276304573681E+04  1.1276304573686E+04  1.1276304573690E+04  1.1276304573692E+04  1.1276304573694E+04  5.6381522868471E+03 
 7.0476903589669E+03  1.4095380717934E+04  1.4095380717934E+04  1.4095380717934E+04  1.4095380717934E+04  1.4095380717934E+04  1.4095380717934E+04  1.4095380717934E+04  1.4095380717934E+04  7.0476903589669E+03 
 4.0000000000000E-01  4.0000000000000E-01  4.0000000000000E-01  4.0000000000000E-01  4.0000000000000E-01  4.0000000000000E-01  4.0000000000000E-01  4.0000000000000E-01  4.0000000000000E-01  4.0000000000000E-01 
 9.4000000000000E-01  1.8800000000000E+00  1.8800000000000E+00  1.8800000000000E+00  1.8800000000000E+00  1.8800000000000E+00  1.8800000000000E+00  1.8800000000000E+00  1.8800000000000E+00  9.4000000000000E-01 
 3.6950794381441E+01  3.6478351269525E+01  3.6063557204979E+01  3.5705682779241E+01  3.5404101548781E+01  3.5158286614457E+01  3.4967809542264E+01  3.4832338933725E+01  3.4751639306515E+01  3.4725570935327E+01 
 5.3333333333333E-06  1.0666666666667E-05  1.0666666666667E-05  1.0666666666667E-05  1.0666666666667E-05  1.0666666666667E-05  1.0666666666667E-05  1.0666666666667E-05  1.0666666666667E-05  5.3333333333333E-06 
 3.0000000000000E-02  3.0000000000000E-02  3.0000000000000E-02  3.0000000000000E-02  3.0000000000000E-02  3.0000000000000E-02  3.0000000000000E-02  3.0000000000000E-02  3.0000000000000E-02  3.0000000000000E-02 
 1.0000000000000E-01  1.0000000000000E-01  1.0000000000000E-01  1.0000000000000E-01  1.0000000000000E-01  1.0000000000000E-01  1.0000000000000E-01  1.0000000000000E-01  1.0000000000000E-01  1.0000000000000E-01 
 1.0956624007037E+01  1.0956624007045E+01  1.0956624007053E+01  1.0956624007059E+01  1.0956624007065E+01  1.0956624007069E+01  1.0956624007073E+01  1.0956624007075E+01  1.0956624007077E+01  1.0956624007077E+01 
 2.7391560026029E+00  2.7391560025942E+00  2.7391560025867E+00  2.7391560025801E+00  2.7391560025746E+00  2.7391560025701E+00  2.7391560025666E+00  2.7391560025642E+00  2.7391560025627E+00  2.7391560025622E+00 
-6.5432080315606E-03 -6.4748405584098E-03 -6.4223419343068E-03 -6.3767869472952E-03 -6.3382102392895E-03 -6.3066399331739E-03 -6.2820982918663E-03 -6.2646021496205E-03 -6.2541632406909E-03 -6.2508091566701E-03 
-6.5432080315606E+05 -6.4748405584098E+05 -6.4223419343068E+05 -6.3767869472952E+05 -6.3382102392895E+05 -6.3066399331739E+05 -6.2820982918663E+05 -6.2646021496205E+05 -6.2541632406909E+05 -6.2508091566701E+05 
 6.3473579324492E-02  3.1251922382251E-01  1.0510182086413E+00  2.2633256008872E+00  3.9370069064092E+00  6.0627202467852E+00  8.6341230530783E+00  1.1647798504418E+01  1.5103200515589E+01  1.6941443794936E+01 
 6.8752382756536E+03  6.0918424642658E+03  4.6334026671082E+03  3.3874217449491E+03  2.3460682496298E+03  1.5028033108005E+03  8.5233772484467E+02  3.9059734984859E+02  1.1469640606741E+02  2.2918631225678E+01 
-6.6119610490529E+05 -6.5357621082447E+05 -6.4686864711600E+05 -6.4106837980007E+05 -6.3617102918548E+05 -6.3217285934844E+05 -6.2907080103453E+05 -6.2686246011041E+05 -6.2554612367568E+05 -6.2512077574203E+05 
 6.6934701380257E+04  6.5244906925652E+04  6.3778780844486E+04  6.2526983344358E+04  6.1481550099705E+04  6.0635834188831E+04  5.9984462395490E+04  5.9523298507924E+04  5.9249415073600E+04  5.9161075037399E+04 
-7.2813080628555E+05 -7.1882111775012E+05 -7.1064742796049E+05 -7.0359536314443E+05 -6.9765257928519E+05 -6.9280869353727E+05 -6.8905526343002E+05 -6.8638575861833E+05 -6.8479553874928E+05 -6.8428185077943E+05 
ZONE T = "ANOD, 2.0000E-08", I = 10, SOLUTIONTIME = 2.000000E-08
ZONETYPE = ORDERED
DATAPACKING = BLOCK
STRANDID = 1
 0.0000000000000E+00  1.0666666666667E-05  2.1333333333333E-05  3.2000000000000E-05  4.2666666666667E-05  5.3333333333333E-05  6.4000000000000E-05  7.4666666666667E-05  8.5333333333333E-05  9.6000000000000E-05 
 1.0618565190031E-08  3.1583090458524E-08  5.2309250960493E-08  7.2829716787653E-08  9.3176713643382E-08  1.1338247678401E-07  1.3347894011761E-07  1.5349714670022E-07  1.7348026269574E-07  1.8364681528203E-07 
 8.4394679977780E-01  8.4394679978064E-01  8.4394679978313E-01  8.4394679978528E-01  8.4394679978710E-01  8.4394679978858E-01  8.4394679978972E-01  8.4394679979054E-01  8.4394679979107E-01  8.4394679985454E-01 
 7.8026600111100E-02  7.8026600109682E-02  7.8026600108435E-02  7.8026600107358E-02  7.8026600106452E-02  7.8026600105712E-02  7.8026600105140E-02  7.8026600104732E-02  7.8026600104463E-02  7.8026600072732E-02 
 7.8026600111100E-02  7.8026600109682E-02  7.8026600108435E-02  7.8026600107358E-02  7.8026600106452E-02  7.8026600105712E-02  7.8026600105140E-02  7.8026600104732E-02  7.8026600104463E-02  7.8026600072732E-02 
 1.3954913130583E-02  1.3954893634747E-02  1.3954835645849E-02  1.3954739601659E-02  1.3954605879873E-02  1.3954434798773E-02  1.3954226617792E-02  1.3953981537954E-02  1.3953699702234E-02  1.3953381195802E-02 
 0.0000000000000E+00 -1.2973555314924E-04 -2.4373391153672E-04 -3.4217404887266E-04 -4.2521037933282E-04 -4.9297302788555E-04 -5.4556805766199E-04 -5.8307765483696E-04 -6.0556027163639E-04 -6.1305072795336E-04 
 2.9814999996579E+02  2.9814999993296E+02  2.9814999999959E+02  2.9814999996664E+02  2.9814999996683E+02  2.9814999996699E+02  2.9814999996710E+02  2.9814999996719E+02  2.9814999993405E+02  2.9815000000046E+02 
-1.3954913130583E-02 -1.4084629187896E-02 -1.4198569557386E-02 -1.4296913650532E-02 -1.4379816259205E-02 -1.4447407826659E-02 -1.4499794675454E-02 -1.4537059192791E-02 -1.4559259973871E-02 -1.4566431923755E-02 
-2.4231113184862E-02 -2.4231113182559E-02 -2.4231113216327E-02 -2.4231113211551E-02 -2.4231113218008E-02 -2.4231113223280E-02 -2.4231113227354E-02 -2.4231113230258E-02 -2.4231113219546E-02 -2.4231113255426E-02 
 1.0276200054280E-02  1.0146483994663E-02  1.0032543658941E-02  9.9341995610186E-03  9.8512969588027E-03  9.7837053966209E-03  9.7313185519008E-03  9.6940540374674E-03  9.6718532456754E-03  9.6646813316709E-03 
 3.4728408647218E+01  6.8568629881873E+01  6.7788822407875E+01  6.7116023435338E+01  6.6549055120603E+01  6.6086926787477E+01  6.5728832890334E+01  6.5474150330482E+01  6.5322436356285E+01  3.2636714142517E+01 
 1.7997159842781E-07  5.3530294810558E-07  8.8659322982515E-07  1.2343969821164E-06  1.5792626332209E-06  1.9217334770381E-06  2.2623486331863E-06  2.6016440719040E-06  2.9402493610630E-06  2.9402493610630E-06 
 0.0000000000000E+00  6.9012723588709E+01  1.3719144973281E+02  2.0464387265450E+02  2.7147641193314E+02  3.3779440288648E+02  4.0370228272440E+02  4.6930377433712E+02  5.3470206768042E+02  5.9999999999968E+02 
 6.0000000000000E+02  5.3098727641184E+02  4.6280855026696E+02  3.9535612734535E+02  3.2852358806738E+02  2.6220559711335E+02  1.9629771727445E+02  1.3069622566404E+02  6.5297932320652E+01  0.0000000000000E+00 
 6.9462155365773E-07  1.3714793026858E-06  1.3558830995324E-06  1.3424270706031E-06  1.3310876603231E-06  1.3218450562266E-06  1.3146831482979E-06  1.3095894752589E-06  1.3065551825253E-06  6.5278750821724E-07 
 1.4095380724880E+03  2.8190761449582E+03  2.8190761449426E+03  2.8190761449292E+03  2.8190761449179E+03  2.8190761449086E+03  2.8190761449015E+03  2.8190761448964E+03  2.8190761448933E+03  1.4095380724462E+03 
 5.6381522864789E+03  1.1276304572976E+04  1.1276304572991E+04  1.1276304573005E+04  1.1276304573016E+04  1.1276304573025E+04  1.1276304573032E+04  1.1276304573037E+04  1.1276304573041E+04  5.6381522865207E+03 
 7.0476903589669E+03  1.4095380717934E+04  1.4095380717934E+04  1.4095380717934E+04  1.4095380717934E+04  1.4095380717934E+04  1.4095380717934E+04  1.4095380717934E+04  1.4095380717934E+04  7.0476903589669E+03 
 4.0000000000000E-01  4.0000000000000E-01  4.0000000000000E-01  4.0000000000000E-01  4.0000000000000E-01  4.0000000000000E-01  4.0000000000000E-01  4.0000000000000E-01  4.0000000000000E-01  4.0000000000000E-01 
 9.4000000000000E-01  1.8800000000000E+00  1.8800000000000E+00  1.8800000000000E+00  1.8800000000000E+00  1.8800000000000E+00  1.8800000000000E+00  1.8800000000000E+00  1.8800000000000E+00  9.4000000000000E-01 
 3.6945115582147E+01  3.6472675469081E+01  3.6057884259508E+01  3.5700012465605E+01  3.5398433574789E+01  3.5152620631637E+01  3.4962145154433E+01  3.4826675707703E+01  3.4745976785258E+01  3.4719908662253E+01 
 5.3333333333333E-06  1.0666666666667E-05  1.0666666666667E-05  1.0666666666667E-05  1.0666666666667E-05  1.0666666666667E-05  1.0666666666667E-05  1.0666666666667E-05  1.0666666666667E-05  5.3333333333333E-06 
 3.0000000000000E-02  3.0000000000000E-02  3.0000000000000E-02  3.0000000000000E-02  3.0000000000000E-02  3.0000000000000E-02  3.0000000000000E-02  3.0000000000000E-02  3.0000000000000E-02  3.0000000000000E-02 
 1.0000000000000E-01  1.0000000000000E-01  1.0000000000000E-01  1.0000000000000E-01  1.0000000000000E-01  1.0000000000000E-01  1.0000000000000E-01  1.0000000000000E-01  1.0000000000000E-01  1.0000000000000E-01 
 1.0956624006362E+01  1.0956624006379E+01  1.0956624006394E+01  1.0956624006407E+01  1.0956624006418E+01  1.0956624006427E+01  1.0956624006434E+01  1.0956624006439E+01  1.0956624006442E+01  1.0956624006443E+01 
 2.7391560032777E+00  2.7391560032605E+00  2.7391560032453E+00  2.7391560032323E+00  2.7391560032212E+00  2.7391560032123E+00  2.7391560032053E+00  2.7391560032004E+00  2.7391560031974E+00  2.7391560031965E+00 
-1.3085501450000E-02 -1.2948764467885E-02 -1.2843765479614E-02 -1.2752654005947E-02 -1.2675499327754E-02 -1.2612357688224E-02 -1.2563273610431E-02 -1.2528280760897E-02 -1.2507402606916E-02 -1.2500694333491E-02 
-6.5422934184399E+05 -6.4739239094756E+05 -6.4214235453070E+05 -6.3758670586522E+05 -6.3372890884641E+05 -6.3057177550501E+05 -6.2811753185649E+05 -6.2636786112765E+05 -6.2532393662251E+05 -6.2498851768206E+05 
 1.2694789412377E-01  6.2504144420282E-01  2.1020440341931E+00  4.5266655021467E+00  7.8740338118902E+00  1.2125463219593E+01  1.7268267745421E+01  2.3295614433184E+01  3.0206414591571E+01  3.3882899062022E+01 
 1.3750471642876E+04  1.2183677376653E+04  9.2667943375100E+03  6.7748321188779E+03  4.6921266658075E+03  3.0055992906106E+03  1.7046708432367E+03  7.8119244305533E+02  2.2939212126786E+02  4.5837120126988E+01 
-6.6110463868552E+05 -6.5348453838217E+05 -6.4677679722693E+05 -6.4097637957905E+05 -6.3607890428949E+05 -6.3208063422779E+05 -6.2897849911958E+05 -6.2677010403678E+05 -6.2545373555179E+05 -6.2502837762623E+05 
 6.6914264148905E+04  6.5224735019122E+04  6.3758842650509E+04  6.2507247350152E+04  6.1461984889441E+04  6.0616408444400E+04  5.9965144878583E+04  5.9504058045931E+04  5.9230220551063E+04  5.9141895429368E+04 
-7.2801890283443E+05 -7.1870927340129E+05 -7.1053563987744E+05 -7.0348362692920E+05 -6.9754088917894E+05 -6.9269704267219E+05 -6.8894364399816E+05 -6.8627416208272E+05 -6.8468395610285E+05 -6.8417027305560E+05 
ZONE T = "ANOD, 3.0000E-08", I = 10, SOLUTIONTIME = 3.000000E-08
ZONETYPE = ORDERED
DATAPACKING = BLOCK
STRANDID = 1
 0.0000000000000E+00  1.0666666666667E-05  2.1333333333333E-05  3.2000000000000E-05  4.2666666666667E-05  5.3333333333333E-05  6.4000000000000E-05  7.4666666666667E-05  8.5333333333333E-05  9.6000000000000E-05 
 1.0618781911568E-08  3.1583210324416E-08  5.2309381231250E-08  7.2829699044644E-08  9.3176869950278E-08  1.1338253481496E-07  1.3347891953579E-07  1.5349724125907E-07  1.7348598501421E-07  1.8374421330454E-07 
 8.4394679966670E-01  8.4394679967095E-01  8.4394679967470E-01  8.4394679967792E-01  8.4394679968065E-01  8.4394679968286E-01  8.4394679968458E-01  8.4394679968580E-01  8.4394679968664E-01  8.4394679978242E-01 
 7.8026600166649E-02  7.8026600164523E-02  7.8026600162652E-02  7.8026600161038E-02  7.8026600159677E-02  7.8026600158569E-02  7.8026600157710E-02  7.8026600157098E-02  7.8026600156682E-02  7.8026600108790E-02 
 7.8026600166649E-02  7.8026600164523E-02  7.8026600162652E-02  7.8026600161038E-02  7.8026600159677E-02  7.8026600158569E-02  7.8026600157710E-02  7.8026600157098E-02  7.8026600156682E-02  7.8026600108790E-02 
 1.3954912749104E-02  1.3954893253268E-02  1.3954835264371E-02  1.3954739220181E-02  1.3954605498395E-02  1.3954434417296E-02  1.3954226236314E-02  1.3953981156477E-02  1.3953699320758E-02  1.3953380814325E-02 
 0.0000000000000E+00 -1.2973555316176E-04 -2.4373391157886E-04 -3.4217404895463E-04 -4.2521037945888E-04 -4.9297302805499E-04 -5.4556805787007E-04 -5.8307765507579E-04 -6.0556027189592E-04 -6.1305072822215E-04 
 2.9814999994931E+02  2.9814999991668E+02  2.9814999998342E+02  2.9814999995060E+02  2.9814999995088E+02  2.9814999995112E+02  2.9814999995130E+02  2.9814999995142E+02  2.9814999991832E+02  2.9814999998472E+02 
-1.3954912749104E-02 -1.4084628806430E-02 -1.4198569175950E-02 -1.4296913269136E-02 -1.4379815877853E-02 -1.4447407445351E-02 -1.4499794294184E-02 -1.4537058811553E-02 -1.4559259592654E-02 -1.4566431542547E-02 
-2.4231112787434E-02 -2.4231112790196E-02 -2.4231112828404E-02 -2.4231112827469E-02 -2.4231112837159E-02 -2.4231112845054E-02 -2.4231112851170E-02 -2.4231112855526E-02 -2.4231112845693E-02 -2.4231112887155E-02 
 1.0276200038330E-02  1.0146483983766E-02  1.0032543652454E-02  9.9341995583327E-03  9.8512969593059E-03  9.7837053997029E-03  9.7313185569857E-03  9.6940540439732E-03  9.6718532530396E-03  9.6646813446081E-03 
 3.4728408592673E+01  6.8568629807408E+01  6.7788822363365E+01  6.7116023416777E+01  6.6549055123702E+01  6.6086926808172E+01  6.5728832924650E+01  6.5474150374396E+01  6.5322436406072E+01  3.2636714182876E+01 
 1.7997374978981E-07  5.3530484314859E-07  8.8659486457357E-07  1.2343983594319E-06  1.5792637557065E-06  1.9217343467442E-06  2.2623492517339E-06  2.6016445207917E-06  2.9402984836619E-06  2.9402984836619E-06 
 0.0000000000000E+00  6.9012723496545E+01  1.3719144958223E+02  2.0464387247170E+02  2.7147641174160E+02  3.3779440270847E+02  4.0370228257481E+02  4.6930377422340E+02  5.3470206761318E+02  5.9999999999831E+02 
 6.0000000000001E+02  5.3098727650363E+02  4.6280855041825E+02  3.9535612752818E+02  3.2852358825795E+02  2.6220559729203E+02  1.9629771742563E+02  1.3069622577613E+02  6.5297932385908E+01  0.0000000000000E+00 
 1.0419056395845E-06  2.0571656007599E-06  2.0337713231660E-06  2.0135873047709E-06  1.9965782115601E-06  1.9827143243083E-06  1.9719714775444E-06  1.9643309790028E-06  1.9597795465861E-06  9.7915465004600E-07 
 1.4095380728353E+03  2.8190761456439E+03  2.8190761456205E+03  2.8190761456004E+03  2.8190761455833E+03  2.8190761455695E+03  2.8190761455587E+03  2.8190761455511E+03  2.8190761455465E+03  1.4095380727725E+03 
 5.6381522861316E+03  1.1276304572290E+04  1.1276304572313E+04  1.1276304572333E+04  1.1276304572350E+04  1.1276304572364E+04  1.1276304572375E+04  1.1276304572383E+04  1.1276304572387E+04  5.6381522861944E+03 
 7.0476903589669E+03  1.4095380717934E+04  1.4095380717934E+04  1.4095380717934E+04  1.4095380717934E+04  1.4095380717934E+04  1.4095380717934E+04  1.4095380717934E+04  1.4095380717934E+04  7.0476903589669E+03 
 4.0000000000000E-01  4.0000000000000E-01  4.0000000000000E-01  4.0000000000000E-01  4.0000000000000E-01  4.0000000000000E-01  4.0000000000000E-01  4.0000000000000E-01  4.0000000000000E-01  4.0000000000000E-01 
 9.4000000000000E-01  1.8800000000000E+00  1.8800000000000E+00  1.8800000000000E+00  1.8800000000000E+00  1.8800000000000E+00  1.8800000000000E+00  1.8800000000000E+00  1.8800000000000E+00  9.4000000000000E-01 
 3.6945115524121E+01  3.6472675429472E+01  3.6057884235832E+01  3.5700012455733E+01  3.5398433576437E+01  3.5152620642645E+01  3.4962145172686E+01  3.4826675731062E+01  3.4745976811741E+01  3.4719908705187E+01 
 5.3333333333333E-06  1.0666666666667E-05  1.0666666666667E-05  1.0666666666667E-05  1.0666666666667E-05  1.0666666666667E-05  1.0666666666667E-05  1.0666666666667E-05  1.0666666666667E-05  5.3333333333333E-06 
 3.0000000000000E-02  3.0000000000000E-02  3.0000000000000E-02  3.0000000000000E-02  3.0000000000000E-02  3.0000000000000E-02  3.0000000000000E-02  3.0000000000000E-02  3.0000000000000E-02  3.0000000000000E-02 
 1.0000000000000E-01  1.0000000000000E-01  1.0000000000000E-01  1.0000000000000E-01  1.0000000000000E-01  1.0000000000000E-01  1.0000000000000E-01  1.0000000000000E-01  1.0000000000000E-01  1.0000000000000E-01 
 1.0956624005687E+01  1.0956624005713E+01  1.0956624005735E+01  1.0956624005755E+01  1.0956624005772E+01  1.0956624005785E+01  1.0956624005795E+01  1.0956624005803E+01  1.0956624005807E+01  1.0956624005809E+01 
 2.7391560039526E+00  2.7391560039267E+00  2.7391560039040E+00  2.7391560038844E+00  2.7391560038679E+00  2.7391560038544E+00  2.7391560038440E+00  2.7391560038365E+00  2.7391560038321E+00  2.7391560038307E+00 
-1.9627794855644E-02 -1.9422688367592E-02 -1.9265189017779E-02 -1.9128521059752E-02 -1.9012788413295E-02 -1.8918075441925E-02 -1.8844448928869E-02 -1.8791959372911E-02 -1.8760641974409E-02 -1.8750579514531E-02 
-6.5422934056434E+05 -6.4739238997068E+05 -6.4214235381653E+05 -6.3758670538042E+05 -6.3372890855416E+05 -6.3057177537010E+05 -6.2811753184380E+05 -6.2636786120139E+05 -6.2532393674929E+05 -6.2498851810404E+05 
 1.9042220866032E-01  9.3756366352670E-01  3.1530698566172E+00  6.7900053975820E+00  1.1811060708695E+01  1.8188206181218E+01  2.5902412424515E+01  3.4943430347073E+01  4.5309628652761E+01  5.0824354315037E+01 
 2.0625705011426E+04  1.8275512291082E+04  1.3900186010892E+04  1.0162242495904E+04  7.0381850846814E+03  4.5083952724514E+03  2.5570039629301E+03  1.1717875369234E+03  3.4408783668668E+02  6.8755609084974E+01 
-6.6110463740721E+05 -6.5348453740733E+05 -6.4677679651574E+05 -6.4097637909734E+05 -6.3607890399993E+05 -6.3208063409490E+05 -6.2897849910818E+05 -6.2677010411117E+05 -6.2545373567877E+05 -6.2502837804825E+05 
 6.6914263939948E+04  6.5224734878275E+04  6.3758842567419E+04  6.2507247315982E+04  6.1461984895421E+04  6.0616408482500E+04  5.9965144941238E+04  5.9504058125760E+04  5.9230220641286E+04  5.9141895581257E+04 