TITLE = "Solution on Domain BulkDomain1D_0"
VARIABLES = "x [m]"  
"Vel_axial" 
"MF_sp(ECDMC)" 
"MF_sp(Li+)" 
"MF_sp(PF6-)" 
"Volt(Electroly)" 
"Volt(AnodeVolt)" 
"Temperature" 
"Potential Drop Electrode-Electrolyte [V]" 
"Surf_0 Equilibrium Potential Drop Electrode-Electrolyte [V]" 
"Overpotential_0 [V]" 
"Current Source [A/m^2]" 
"Li+ flux [kmol/m^2/s]" 
"Electrolyte Current [A/m^2]" 
"Electrode Current [A/m^2]" 
"CV Capacity discharged [A-s/m^2]" 
"Depth of discharge in CV [A-s/m^2]" 
"CV Capacity remaining [A-s/m^2]" 
"Initial CV capacity [A-s/m^2]" 
"Porosity []" 
"Surface Area [m2/m2] (area per area)" 
"Specific current (per particle area) [A/m^2]" 
"Control volume thickness [m]" 
"volFrac AnodeBinder []" 	"volFrac ExtraStuff []" 	"MoleDens Li_C6-bulk [kmol/m^3]" 
"MoleDens V_C6-bulk [kmol/m^3]" 
"qHeat_accum [J/m3]" 
"qHeat_step [W/m3]" 
"Joule_Lyte [W/m3]" 
"Joule_Solid [W/m3]" 
"electrodHeat [W/m3]" 
"OverpotHeat [W/m3]" 
"deltaSHeat [W/m3]" 

ZONE T = "ANOD, 0.0000E+00", I = 10, SOLUTIONTIME = 0.000000E+00
ZONETYPE = ORDERED
DATAPACKING = BLOCK
STRANDID = 1
 0.0000000000000E+00  1.0666666666667E-05  2.1333333333333E-05  3.2000000000000E-05  4.2666666666667E-05  5.3333333333333E-05  6.4000000000000E-05  7.4666666666667E-05  8.5333333333333E-05  9.6000000000000E-05 
 0.0000000000000E+00  0.0000000000000E+00  0.0000000000000E+00  0.0000000000000E+00  0.0000000000000E+00  0.0000000000000E+00  0.0000000000000E+00  0.0000000000000E+00  0.0000000000000E+00  0.0000000000000E+00 
 8.4394680000000E-01  8.4394680000000E-01  8.4394680000000E-01  8.4394680000000E-01  8.4394680000000E-01  8.4394680000000E-01  8.4394680000000E-01  8.4394680000000E-01  8.4394680000000E-01  8.4394680000000E-01 
 7.8026600000000E-02  7.8026600000000E-02  7.8026600000000E-02  7.8026600000000E-02  7.8026600000000E-02  7.8026600000000E-02  7.8026600000000E-02  7.8026600000000E-02  7.8026600000000E-02  7.8026600000000E-02 
 7.8026600000000E-02  7.8026600000000E-02  7.8026600000000E-02  7.8026600000000E-02  7.8026600000000E-02  7.8026600000000E-02  7.8026600000000E-02  7.8026600000000E-02  7.8026600000000E-02  7.8026600000000E-02 
-7.0000000000000E-02 -7.0000000000000E-02 -7.0000000000000E-02 -7.0000000000000E-02 -7.0000000000000E-02 -7.0000000000000E-02 -7.0000000000000E-02 -7.0000000000000E-02 -7.0000000000000E-02 -7.0000000000000E-02 
 0.0000000000000E+00  0.0000000000000E+00  0.0000000000000E+00  0.0000000000000E+00  0.0000000000000E+00  0.0000000000000E+00  0.0000000000000E+00  0.0000000000000E+00  0.0000000000000E+00  0.0000000000000E+00 
 2.9815000000000E+02  2.9815000000000E+02  2.9815000000000E+02  2.9815000000000E+02  2.9815000000000E+02  2.9815000000000E+02  2.9815000000000E+02  2.9815000000000E+02  2.9815000000000E+02  2.9815000000000E+02 
 7.0000000000000E-02  7.0000000000000E-02  7.0000000000000E-02  7.0000000000000E-02  7.0000000000000E-02  7.0000000000000E-02  7.0000000000000E-02  7.0000000000000E-02  7.0000000000000E-02  7.0000000000000E-02 
-2.4231251306822E-02 -2.4231251306822E-02 -2.4231251306822E-02 -2.4231251306822E-02 -2.4231251306820E-02 -2.4231251306822E-02 -2.4231251306822E-02 -2.4231251306820E-02 -2.4231251306820E-02 -2.4231251306820E-02 
 9.4231251306822E-02  9.4231251306822E-02  9.4231251306822E-02  9.4231251306822E-02  9.4231251306820E-02  9.4231251306822E-02  9.4231251306822E-02  9.4231251306820E-02  9.4231251306820E-02  9.4231251306820E-02 
 5.2596104508283E+02  1.0519220901657E+03  1.0519220901657E+03  1.0519220901657E+03  1.0519220901656E+03  1.0519220901657E+03  1.0519220901657E+03  1.0519220901656E+03  1.0519220901656E+03  5.2596104508281E+02 
-0.0000000000000E+00 -0.0000000000000E+00 -0.0000000000000E+00 -0.0000000000000E+00 -0.0000000000000E+00 -0.0000000000000E+00 -0.0000000000000E+00 -0.0000000000000E+00 -0.0000000000000E+00 -0.0000000000000E+00 
 0.0000000000000E+00  0.0000000000000E+00  0.0000000000000E+00  0.0000000000000E+00  0.0000000000000E+00  0.0000000000000E+00  0.0000000000000E+00  0.0000000000000E+00  0.0000000000000E+00  5.2596104508281E+02 
 5.2596104508283E+02 -0.0000000000000E+00 -0.0000000000000E+00 -0.0000000000000E+00 -0.0000000000000E+00 -0.0000000000000E+00 -0.0000000000000E+00 -0.0000000000000E+00 -0.0000000000000E+00  0.0000000000000E+00 
 0.0000000000000E+00  0.0000000000000E+00  0.0000000000000E+00  0.0000000000000E+00  0.0000000000000E+00  0.0000000000000E+00  0.0000000000000E+00  0.0000000000000E+00  0.0000000000000E+00  0.0000000000000E+00 
 1.4095380717934E+03  2.8190761435868E+03  2.8190761435868E+03  2.8190761435868E+03  2.8190761435868E+03  2.8190761435868E+03  2.8190761435868E+03  2.8190761435868E+03  2.8190761435868E+03  1.4095380717934E+03 
 5.6381522871735E+03  1.1276304574347E+04  1.1276304574347E+04  1.1276304574347E+04  1.1276304574347E+04  1.1276304574347E+04  1.1276304574347E+04  1.1276304574347E+04  1.1276304574347E+04  5.6381522871735E+03 
 7.0476903589669E+03  1.4095380717934E+04  1.4095380717934E+04  1.4095380717934E+04  1.4095380717934E+04  1.4095380717934E+04  1.4095380717934E+04  1.4095380717934E+04  1.4095380717934E+04  7.0476903589669E+03 
 4.0000000000000E-01  4.0000000000000E-01  4.0000000000000E-01  4.0000000000000E-01  4.0000000000000E-01  4.0000000000000E-01  4.0000000000000E-01  4.0000000000000E-01  4.0000000000000E-01  4.0000000000000E-01 
 9.4000000000000E-01  1.8800000000000E+00  1.8800000000000E+00  1.8800000000000E+00  1.8800000000000E+00  1.8800000000000E+00  1.8800000000000E+00  1.8800000000000E+00  1.8800000000000E+00  9.4000000000000E-01 
 5.5953302668386E+02  5.5953302668386E+02  5.5953302668386E+02  5.5953302668386E+02  5.5953302668385E+02  5.5953302668386E+02  5.5953302668386E+02  5.5953302668385E+02  5.5953302668385E+02  5.5953302668385E+02 
 5.3333333333333E-06  1.0666666666667E-05  1.0666666666667E-05  1.0666666666667E-05  1.0666666666667E-05  1.0666666666667E-05  1.0666666666667E-05  1.0666666666667E-05  1.0666666666667E-05  5.3333333333333E-06 
 3.0000000000000E-02  3.0000000000000E-02  3.0000000000000E-02  3.0000000000000E-02  3.0000000000000E-02  3.0000000000000E-02  3.0000000000000E-02  3.0000000000000E-02  3.0000000000000E-02  3.0000000000000E-02 
 1.0000000000000E-01  1.0000000000000E-01  1.0000000000000E-01  1.0000000000000E-01  1.0000000000000E-01  1.0000000000000E-01  1.0000000000000E-01  1.0000000000000E-01  1.0000000000000E-01  1.0000000000000E-01 
 1.0956624007712E+01  1.0956624007712E+01  1.0956624007712E+01  1.0956624007712E+01  1.0956624007712E+01  1.0956624007712E+01  1.0956624007712E+01  1.0956624007712E+01  1.0956624007712E+01  1.0956624007712E+01 
 2.7391560019279E+00  2.7391560019279E+00  2.7391560019279E+00  2.7391560019279E+00  2.7391560019279E+00  2.7391560019279E+00  2.7391560019279E+00  2.7391560019279E+00  2.7391560019279E+00  2.7391560019279E+00 
 0.0000000000000E+00  0.0000000000000E+00  0.0000000000000E+00  0.0000000000000E+00  0.0000000000000E+00  0.0000000000000E+00  0.0000000000000E+00  0.0000000000000E+00  0.0000000000000E+00  0.0000000000000E+00 
 0.0000000000000E+00  0.0000000000000E+00  0.0000000000000E+00  0.0000000000000E+00  0.0000000000000E+00  0.0000000000000E+00  0.0000000000000E+00  0.0000000000000E+00  0.0000000000000E+00  0.0000000000000E+00 
 0.0000000000000E+00  0.0000000000000E+00  0.0000000000000E+00  0.0000000000000E+00  0.0000000000000E+00  0.0000000000000E+00  0.0000000000000E+00  0.0000000000000E+00  0.0000000000000E+00  0.0000000000000E+00 
 0.0000000000000E+00  0.0000000000000E+00  0.0000000000000E+00  0.0000000000000E+00  0.0000000000000E+00  0.0000000000000E+00  0.0000000000000E+00  0.0000000000000E+00  0.0000000000000E+00  0.0000000000000E+00 
 0.0000000000000E+00  0.0000000000000E+00  0.0000000000000E+00  0.0000000000000E+00  0.0000000000000E+00  0.0000000000000E+00  0.0000000000000E+00  0.0000000000000E+00  0.0000000000000E+00  0.0000000000000E+00 
 0.0000000000000E+00  0.0000000000000E+00  0.0000000000000E+00  0.0000000000000E+00  0.0000000000000E+00  0.0000000000000E+00  0.0000000000000E+00  0.0000000000000E+00  0.0000000000000E+00  0.0000000000000E+00 
 0.0000000000000E+00  0.0000000000000E+00  0.0000000000000E+00  0.0000000000000E+00  0.0000000000000E+00  0.0000000000000E+00  0.0000000000000E+00  0.0000000000000E+00  0.0000000000000E+00  0.0000000000000E+00 
ZONE T = "ANOD, 1.0000E-08", I = 10, SOLUTIONTIME = 1.000000E-08
ZONETYPE = ORDERED
DATAPACKING = BLOCK
STRANDID = 1
 0.0000000000000E+00  1.0666666666667E-05  2.1333333333333E-05  3.2000000000000E-05  4.2666666666667E-05  5.3333333333333E-05  6.4000000000000E-05  7.4666666666667E-05  8.5333333333333E-05  9.6000000000000E-05 
 1.0618346546329E-08  3.1582857269025E-08  5.2309233424845E-08  7.2829804278789E-08  9.3176971094719E-08  1.1338292703058E-07  1.3347940221442E-07  1.5349777406400E-07  1.7347543731919E-07  1.8354894071746E-07 
 8.4394679988890E-01  8.4394679989032E-01  8.4394679989157E-01  8.4394679989264E-01  8.4394679989355E-01  8.4394679989429E-01  8.4394679989486E-01  8.4394679989527E-01  8.4394679989553E-01  8.4394679992706E-01 
 7.8026600055550E-02  7.8026600054841E-02  7.8026600054217E-02  7.8026600053679E-02  7.8026600053226E-02  7.8026600052856E-02  7.8026600052570E-02  7.8026600052366E-02  7.8026600052236E-02  7.8026600036470E-02 
 7.8026600055550E-02  7.8026600054841E-02  7.8026600054217E-02  7.8026600053679E-02  7.8026600053226E-02  7.8026600052856E-02  7.8026600052570E-02  7.8026600052366E-02  7.8026600052236E-02  7.8026600036470E-02 
 1.3955426636067E-02  1.3955407140276E-02  1.3955349151487E-02  1.3955253107441E-02  1.3955119385814E-02  1.3954948304871E-02  1.3954740124027E-02  1.3954495044296E-02  1.3954213208644E-02  1.3953894702234E-02 
 0.0000000000000E+00 -1.2973557166241E-04 -2.4373397398660E-04 -3.4217417048122E-04 -4.2521056630882E-04 -4.9297327880539E-04 -5.4556836483273E-04 -5.8307800567769E-04 -6.0556065007366E-04 -6.1305111578601E-04 
 2.9814999998353E+02  2.9814999998370E+02  2.9814999998384E+02  2.9814999998395E+02  2.9814999998405E+02  2.9814999998413E+02  2.9814999998419E+02  2.9814999998423E+02  2.9814999998426E+02  2.9814999998428E+02 
-1.3955426636067E-02 -1.4085142711939E-02 -1.4199083125473E-02 -1.4297427277923E-02 -1.4380329952123E-02 -1.4447921583677E-02 -1.4500308488860E-02 -1.4537573049974E-02 -1.4559773858717E-02 -1.4566945818020E-02 
-2.4231250909407E-02 -2.4231250914470E-02 -2.4231250918919E-02 -2.4231250922749E-02 -2.4231250925980E-02 -2.4231250928613E-02 -2.4231250930650E-02 -2.4231250932107E-02 -2.4231250932969E-02 -2.4231250938435E-02 
 1.0275824273339E-02  1.0146108202531E-02  1.0032167793446E-02  9.9338236448262E-03  9.8509209738566E-03  9.7833293449358E-03  9.7309424417901E-03  9.6936778821327E-03  9.6714770742512E-03  9.6643051204153E-03 
 3.4727121813579E+01  6.8566057506718E+01  6.7786250448151E+01  6.7113452166776E+01  6.6546484170779E+01  6.6084356019740E+01  6.5726262215119E+01  6.5471579694398E+01  6.5319865907354E+01  3.2635428728672E+01 
 1.7996902654248E-07  5.3530006045202E-07  8.8659025852219E-07  1.2343941279404E-06  1.5792600661716E-06  1.9217313364640E-06  2.2623470279545E-06  2.6016430266497E-06  2.9402006208448E-06  2.9402006208448E-06 
 0.0000000000000E+00  6.9012587537299E+01  1.3719122513340E+02  2.0464360136771E+02  2.7147613022095E+02  3.3779414103603E+02  4.0370206504302E+02  4.6930361907826E+02  5.3470198709001E+02  5.9999867364948E+02 
 5.9999879383019E+02  5.3098741246222E+02  4.6280877486576E+02  3.9535639863212E+02  3.2852386977886E+02  2.6220585896397E+02  1.9629793495744E+02  1.3069638092197E+02  6.5298012909495E+01  0.0000000000000E+00 
 3.4727121813579E-07  6.8566057506718E-07  6.7786250448151E-07  6.7113452166776E-07  6.6546484170779E-07  6.6084356019740E-07  6.5726262215119E-07  6.5471579694398E-07  6.5319865907353E-07  3.2635428728672E-07 
 1.4095380721407E+03  2.8190761442724E+03  2.8190761442646E+03  2.8190761442579E+03  2.8190761442522E+03  2.8190761442476E+03  2.8190761442440E+03  2.8190761442415E+03  2.8190761442400E+03  1.4095380721197E+03 
 5.6381522868263E+03  1.1276304573661E+04  1.1276304573669E+04  1.1276304573676E+04  1.1276304573682E+04  1.1276304573686E+04  1.1276304573690E+04  1.1276304573692E+04  1.1276304573694E+04  5.6381522868472E+03 
 7.0476903589669E+03  1.4095380717934E+04  1.4095380717934E+04  1.4095380717934E+04  1.4095380717934E+04  1.4095380717934E+04  1.4095380717934E+04  1.4095380717934E+04  1.4095380717934E+04  7.0476903589669E+03 
 4.0000000000000E-01  4.0000000000000E-01  4.0000000000000E-01  4.0000000000000E-01  4.0000000000000E-01  4.0000000000000E-01  4.0000000000000E-01  4.0000000000000E-01  4.0000000000000E-01  4.0000000000000E-01 
 9.4000000000000E-01  1.8800000000000E+00  1.8800000000000E+00  1.8800000000000E+00  1.8800000000000E+00  1.8800000000000E+00  1.8800000000000E+00  1.8800000000000E+00  1.8800000000000E+00  9.4000000000000E-01 
 3.6943746610190E+01  3.6471307184424E+01  3.6056516195825E+01  3.5698644769562E+01  3.5397066048287E+01  3.5151253201990E+01  3.4960777774000E+01  3.4825308348084E+01  3.4744609525188E+01  3.4718541200715E+01 
 5.3333333333333E-06  1.0666666666667E-05  1.0666666666667E-05  1.0666666666667E-05  1.0666666666667E-05  1.0666666666667E-05  1.0666666666667E-05  1.0666666666667E-05  1.0666666666667E-05  5.3333333333333E-06 
 3.0000000000000E-02  3.0000000000000E-02  3.0000000000000E-02  3.0000000000000E-02  3.0000000000000E-02  3.0000000000000E-02  3.0000000000000E-02  3.0000000000000E-02  3.0000000000000E-02  3.0000000000000E-02 
 1.0000000000000E-01  1.0000000000000E-01  1.0000000000000E-01  1.0000000000000E-01  1.0000000000000E-01  1.0000000000000E-01  1.0000000000000E-01  1.0000000000000E-01  1.0000000000000E-01  1.0000000000000E-01 
 1.0956624007037E+01  1.0956624007045E+01  1.0956624007053E+01  1.0956624007059E+01  1.0956624007065E+01  1.0956624007069E+01  1.0956624007073E+01  1.0956624007075E+01  1.0956624007077E+01  1.0956624007077E+01 
 2.7391560026027E+00  2.7391560025941E+00  2.7391560025865E+00  2.7391560025800E+00  2.7391560025745E+00  2.7391560025700E+00  2.7391560025665E+00  2.7391560025640E+00  2.7391560025626E+00  2.7391560025621E+00 
-6.5420729035669E-03 -6.4737028826469E-03 -6.4212019976641E-03 -6.3756451050333E-03 -6.3370667760030E-03 -6.3054951483876E-03 -6.2809524828274E-03 -6.2634556119623E-03 -6.2530162859233E-03 -6.2496620285156E-03 
-6.5420729035669E+05 -6.4737028826469E+05 -6.4212019976641E+05 -6.3756451050333E+05 -6.3370667760030E+05 -6.3054951483876E+05 -6.2809524828274E+05 -6.2634556119623E+05 -6.2530162859233E+05 -6.2496620285156E+05 
 6.3474019990059E-02  3.1252103246581E-01  1.0510224647262E+00  2.2633340116386E+00  3.9370188695635E+00  6.0627337257276E+00  8.6341355441597E+00  1.1647808389646E+01  1.5103209688056E+01  1.6941452834047E+01 
 6.8752353294039E+03  6.0918379394308E+03  4.6333960951677E+03  3.3874149699126E+03  2.3460624032893E+03  1.5027989582428E+03  8.5233499599074E+02  3.9059601575089E+02  1.1469599738506E+02  2.2918546395260E+01 
-6.6108258916011E+05 -6.5346243872515E+05 -6.4675464688404E+05 -6.4095418880725E+05 -6.3605667702246E+05 -6.3205837653073E+05 -6.2895621741428E+05 -6.2674780502037E+05 -6.2543142779940E+05 -6.2500606285079E+05 
 6.6909337858196E+04  6.5219872473998E+04  6.3754034980729E+04  6.2502487425617E+04  6.1457264795690E+04  6.0611720684924E+04  5.9960482093813E+04  5.9499412980076E+04  5.9225586256857E+04  5.9137264005265E+04 
-7.2799192701831E+05 -7.1868231119915E+05 -7.1050868186477E+05 -7.0345667623287E+05 -6.9751394181815E+05 -6.9267009721565E+05 -6.8891669950809E+05 -6.8624721800045E+05 -6.8465701405626E+05 -6.8414332685605E+05 
ZONE T = "ANOD, 2.0000E-08", I = 10, SOLUTIONTIME = 2.000000E-08
ZONETYPE = ORDERED
DATAPACKING = BLOCK
STRANDID = 1
 0.0000000000000E+00  1.0666666666667E-05  2.1333333333333E-05  3.2000000000000E-05  4.2666666666667E-05  5.3333333333333E-05  6.4000000000000E-05  7.4666666666667E-05  8.5333333333333E-05  9.6000000000000E-05 
 1.0618585627592E-08  3.1583056538387E-08  5.2309111627535E-08  7.2829641979684E-08  9.3176650124695E-08  1.1338231775421E-07  1.3347870507905E-07  1.5349691192479E-07  1.7347999841780E-07  1.8364661349887E-07 
 8.4394679977780E-01  8.4394679978064E-01  8.4394679978313E-01  8.4394679978528E-01  8.4394679978710E-01  8.4394679978858E-01  8.4394679978972E-01  8.4394679979054E-01  8.4394679979107E-01  8.4394679985454E-01 
 7.8026600111100E-02  7.8026600109682E-02  7.8026600108435E-02  7.8026600107358E-02  7.8026600106452E-02  7.8026600105712E-02  7.8026600105140E-02  7.8026600104732E-02  7.8026600104463E-02  7.8026600072733E-02 
 7.8026600111100E-02  7.8026600109682E-02  7.8026600108435E-02  7.8026600107358E-02  7.8026600106452E-02  7.8026600105712E-02  7.8026600105140E-02  7.8026600104732E-02  7.8026600104463E-02  7.8026600072733E-02 
 1.3955051891051E-02  1.3955032395215E-02  1.3954974406318E-02  1.3954878362129E-02  1.3954744640342E-02  1.3954573559244E-02  1.3954365378263E-02  1.3954120298426E-02  1.3953838462706E-02  1.3953519956274E-02 
 0.0000000000000E+00 -1.2973555322102E-04 -2.4373391173848E-04 -3.4217404930559E-04 -4.2521038002288E-04 -4.9297302882956E-04 -5.4556805883284E-04 -5.8307765618889E-04 -6.0556027311032E-04 -6.1305072944202E-04 
 2.9814999996706E+02  2.9814999996741E+02  2.9814999996767E+02  2.9814999996790E+02  2.9814999996810E+02  2.9814999996826E+02  2.9814999996838E+02  2.9814999996846E+02  2.9814999996852E+02  2.9814999996856E+02 
-1.3955051891051E-02 -1.4084767948436E-02 -1.4198708318057E-02 -1.4297052411434E-02 -1.4379955020365E-02 -1.4447546588073E-02 -1.4499933437095E-02 -1.4537197954614E-02 -1.4559398735816E-02 -1.4566570685716E-02 
-2.4231250511974E-02 -2.4231250522111E-02 -2.4231250530996E-02 -2.4231250538665E-02 -2.4231250545121E-02 -2.4231250550392E-02 -2.4231250554469E-02 -2.4231250557372E-02 -2.4231250559109E-02 -2.4231250570102E-02 
 1.0276198620923E-02  1.0146482573675E-02  1.0032542212939E-02  9.9341981272306E-03  9.8512955247563E-03  9.7837039623189E-03  9.7313171173740E-03  9.6940526027578E-03  9.6718518232928E-03  9.6646798843864E-03 
 3.4728403740629E+01  6.8568620252788E+01  6.7788812423566E+01  6.7116013631677E+01  6.6549045318207E+01  6.6086916985717E+01  6.5728823088958E+01  6.5474140529165E+01  6.5322426730180E+01  3.2636709154366E+01 
 1.7997159704993E-07  5.3530294535762E-07  8.8659322469988E-07  1.2343969763592E-06  1.5792626276961E-06  1.9217334720352E-06  2.2623486290313E-06  2.6016440692710E-06  2.9402493601527E-06  2.9402493601527E-06 
 0.0000000000000E+00  6.9012723148654E+01  1.3719144894747E+02  2.0464387159076E+02  2.7147641081801E+02  3.3779440183904E+02  4.0370228183736E+02  4.6930377367531E+02  5.3470206738141E+02  5.9999999494729E+02 
 5.9999999540614E+02  5.3098727685137E+02  4.6280855105376E+02  3.9535612840915E+02  3.2852358918078E+02  2.6220559816078E+02  1.9629771816314E+02  1.3069622632431E+02  6.5297932618530E+01  0.0000000000000E+00 
 6.9455525554208E-07  1.3713467775951E-06  1.3557506287172E-06  1.3422946579845E-06  1.3309552948899E-06  1.3217127300546E-06  1.3145508530408E-06  1.3094572022356E-06  1.3064229263753E-06  6.5272137883038E-07 
 1.4095380724879E+03  2.8190761449581E+03  2.8190761449425E+03  2.8190761449291E+03  2.8190761449177E+03  2.8190761449085E+03  2.8190761449013E+03  2.8190761448962E+03  2.8190761448932E+03  1.4095380724461E+03 
 5.6381522864790E+03  1.1276304572976E+04  1.1276304572991E+04  1.1276304573005E+04  1.1276304573016E+04  1.1276304573025E+04  1.1276304573033E+04  1.1276304573038E+04  1.1276304573041E+04  5.6381522865208E+03 
 7.0476903589669E+03  1.4095380717934E+04  1.4095380717934E+04  1.4095380717934E+04  1.4095380717934E+04  1.4095380717934E+04  1.4095380717934E+04  1.4095380717934E+04  1.4095380717934E+04  7.0476903589669E+03 
 4.0000000000000E-01  4.0000000000000E-01  4.0000000000000E-01  4.0000000000000E-01  4.0000000000000E-01  4.0000000000000E-01  4.0000000000000E-01  4.0000000000000E-01  4.0000000000000E-01  4.0000000000000E-01 
 9.4000000000000E-01  1.8800000000000E+00  1.8800000000000E+00  1.8800000000000E+00  1.8800000000000E+00  1.8800000000000E+00  1.8800000000000E+00  1.8800000000000E+00  1.8800000000000E+00  9.4000000000000E-01 
 3.6945110362372E+01  3.6472670347228E+01  3.6057878948706E+01  3.5700007250892E+01  3.5398428360749E+01  3.5152615417935E+01  3.4962139940935E+01  3.4826670494237E+01  3.4745971664989E+01  3.4719903355708E+01 
 5.3333333333333E-06  1.0666666666667E-05  1.0666666666667E-05  1.0666666666667E-05  1.0666666666667E-05  1.0666666666667E-05  1.0666666666667E-05  1.0666666666667E-05  1.0666666666667E-05  5.3333333333333E-06 
 3.0000000000000E-02  3.0000000000000E-02  3.0000000000000E-02  3.0000000000000E-02  3.0000000000000E-02  3.0000000000000E-02  3.0000000000000E-02  3.0000000000000E-02  3.0000000000000E-02  3.0000000000000E-02 
 1.0000000000000E-01  1.0000000000000E-01  1.0000000000000E-01  1.0000000000000E-01  1.0000000000000E-01  1.0000000000000E-01  1.0000000000000E-01  1.0000000000000E-01  1.0000000000000E-01  1.0000000000000E-01 
 1.0956624006362E+01  1.0956624006379E+01  1.0956624006394E+01  1.0956624006407E+01  1.0956624006418E+01  1.0956624006427E+01  1.0956624006434E+01  1.0956624006439E+01  1.0956624006442E+01  1.0956624006443E+01 
 2.7391560032776E+00  2.7391560032604E+00  2.7391560032452E+00  2.7391560032321E+00  2.7391560032211E+00  2.7391560032121E+00  2.7391560032052E+00  2.7391560032002E+00  2.7391560031973E+00  2.7391560031963E+00 
-1.3084365481257E-02 -1.2947625966504E-02 -1.2842624681353E-02 -1.2751511317475E-02 -1.2674355016892E-02 -1.2611212054735E-02 -1.2562126951820E-02 -1.2527133373036E-02 -1.2506254818340E-02 -1.2499546337891E-02 
-6.5422925776901E+05 -6.4739230838572E+05 -6.4214226836891E+05 -6.3758662124416E+05 -6.3372882408887E+05 -6.3057169063475E+05 -6.2811744689922E+05 -6.2636777610732E+05 -6.2532385324167E+05 -6.2498843093753E+05 
 1.2694833363337E-01  6.2504324920949E-01  2.1020482781049E+00  4.5266738897540E+00  7.8740457432117E+00  1.2125476661539E+01  1.7268280199183E+01  2.3295624286580E+01  3.0206423748451E+01  3.3882908097369E+01 
 1.3750468704234E+04  1.2183672861674E+04  9.2667877809179E+03  6.7748253618586E+03  4.6921208352174E+03  3.0055949499555E+03  1.7046681220308E+03  7.8119111285250E+02  2.2939171375098E+02  4.5837035386734E+01 
-6.6110455461815E+05 -6.5348445583018E+05 -6.4677671108047E+05 -6.4097629497599E+05 -6.3607881954767E+05 -6.3208054936940E+05 -6.2897841416991E+05 -6.2677001902032E+05 -6.2545365217210E+05 -6.2502829088179E+05 
 6.6914245361542E+04  6.5224716725069E+04  6.3758824070145E+04  6.2507229198096E+04  6.1461966889373E+04  6.0616390567565E+04  5.9965127097019E+04  5.9504040331804E+04  5.9230203112085E+04  5.9141877533712E+04 
-7.2801879997969E+05 -7.1870917255524E+05 -7.1053553515062E+05 -7.0348352417409E+05 -6.9754078643705E+05 -6.9269693993697E+05 -6.8894354126693E+05 -6.8627405935212E+05 -6.8468385528419E+05 -6.8417016841550E+05 
ZONE T = "ANOD, 3.0000E-08", I = 10, SOLUTIONTIME = 3.000000E-08
ZONETYPE = ORDERED
DATAPACKING = BLOCK
STRANDID = 1
 0.0000000000000E+00  1.0666666666667E-05  2.1333333333333E-05  3.2000000000000E-05  4.2666666666667E-05  5.3333333333333E-05  6.4000000000000E-05  7.4666666666667E-05  8.5333333333333E-05  9.6000000000000E-05 
 1.0618784177178E-08  3.1583274441909E-08  5.2309292066572E-08  7.2829612632639E-08  9.3176784891890E-08  1.1338256625143E-07  1.3347878241583E-07  1.5349726416499E-07  1.7348594882379E-07  1.8374422007922E-07 
 8.4394679966670E-01  8.4394679967095E-01  8.4394679967470E-01  8.4394679967792E-01  8.4394679968065E-01  8.4394679968286E-01  8.4394679968458E-01  8.4394679968580E-01  8.4394679968664E-01  8.4394679978242E-01 
 7.8026600166649E-02  7.8026600164523E-02  7.8026600162652E-02  7.8026600161038E-02  7.8026600159677E-02  7.8026600158569E-02  7.8026600157709E-02  7.8026600157098E-02  7.8026600156682E-02  7.8026600108790E-02 
 7.8026600166649E-02  7.8026600164523E-02  7.8026600162652E-02  7.8026600161038E-02  7.8026600159677E-02  7.8026600158569E-02  7.8026600157709E-02  7.8026600157098E-02  7.8026600156682E-02  7.8026600108790E-02 
 1.3955048659257E-02  1.3955029163421E-02  1.3954971174523E-02  1.3954875130333E-02  1.3954741408546E-02  1.3954570327446E-02  1.3954362146464E-02  1.3954117066627E-02  1.3953835230907E-02  1.3953516724474E-02 
 0.0000000000000E+00 -1.2973555309284E-04 -2.4373391130564E-04 -3.4217404846286E-04 -4.2521037872729E-04 -4.9297302709119E-04 -5.4556805670543E-04 -5.8307765376024E-04 -6.0556027049259E-04 -6.1305072676193E-04 
 2.9814999995060E+02  2.9814999995112E+02  2.9814999995151E+02  2.9814999995185E+02  2.9814999995215E+02  2.9814999995239E+02  2.9814999995257E+02  2.9814999995270E+02  2.9814999995278E+02  2.9814999995285E+02 
-1.3955048659257E-02 -1.4084764716514E-02 -1.4198705085829E-02 -1.4297049178796E-02 -1.4379951787273E-02 -1.4447543354537E-02 -1.4499930203170E-02 -1.4537194720387E-02 -1.4559395501400E-02 -1.4566567451236E-02 
-2.4231250114550E-02 -2.4231250129755E-02 -2.4231250143083E-02 -2.4231250154578E-02 -2.4231250164267E-02 -2.4231250172165E-02 -2.4231250178287E-02 -2.4231250182641E-02 -2.4231250185250E-02 -2.4231250201838E-02 
 1.0276201455293E-02  1.0146485413241E-02  1.0032545057254E-02  9.9342009757818E-03  9.8512983769941E-03  9.7837068176277E-03  9.7313199751174E-03  9.6940554622544E-03  9.6718546838505E-03  9.6646827506011E-03 
 3.4728413446820E+01  6.8568639691030E+01  6.7788831885780E+01  6.7116033115640E+01  6.6549064821243E+01  6.6086936504863E+01  6.5728842620927E+01  6.5474160070404E+01  6.5322446277066E+01  3.2636718943363E+01 
 1.7997375155266E-07  5.3530484797176E-07  8.8659486960075E-07  1.2343983649884E-06  1.5792637611209E-06  1.9217343513298E-06  2.2623492551088E-06  2.6016445228792E-06  2.9402984840830E-06  2.9402984840830E-06 
 0.0000000000000E+00  6.9012724091676E+01  1.3719145050263E+02  2.0464387347061E+02  2.7147641277100E+02  3.3779440365106E+02  4.0370228333943E+02  4.6930377474356E+02  5.3470206793064E+02  6.0000000500973E+02 
 6.0000000455384E+02  5.3098727590841E+02  4.6280854949706E+02  3.9535612652959E+02  3.2852358722960E+02  2.6220559634863E+02  1.9629771665932E+02  1.3069622525612E+02  6.5297932070756E+01  0.0000000000000E+00 
 1.0418393900103E-06  2.0570331745054E-06  2.0336389475750E-06  2.0134549891409E-06  1.9964459431023E-06  1.9825820951032E-06  1.9718392792500E-06  1.9641988029397E-06  1.9596473891460E-06  9.7908856826401E-07 
 1.4095380728352E+03  2.8190761456438E+03  2.8190761456204E+03  2.8190761456002E+03  2.8190761455832E+03  2.8190761455694E+03  2.8190761455586E+03  2.8190761455510E+03  2.8190761455464E+03  1.4095380727725E+03 
 5.6381522861317E+03  1.1276304572290E+04  1.1276304572313E+04  1.1276304572334E+04  1.1276304572351E+04  1.1276304572364E+04  1.1276304572375E+04  1.1276304572383E+04  1.1276304572387E+04  5.6381522861944E+03 
 7.0476903589669E+03  1.4095380717934E+04  1.4095380717934E+04  1.4095380717934E+04  1.4095380717934E+04  1.4095380717934E+04  1.4095380717934E+04  1.4095380717934E+04  1.4095380717934E+04  7.0476903589669E+03 
 4.0000000000000E-01  4.0000000000000E-01  4.0000000000000E-01  4.0000000000000E-01  4.0000000000000E-01  4.0000000000000E-01  4.0000000000000E-01  4.0000000000000E-01  4.0000000000000E-01  4.0000000000000E-01 
 9.4000000000000E-01  1.8800000000000E+00  1.8800000000000E+00  1.8800000000000E+00  1.8800000000000E+00  1.8800000000000E+00  1.8800000000000E+00  1.8800000000000E+00  1.8800000000000E+00  9.4000000000000E-01 
 3.6945120688107E+01  3.6472680686718E+01  3.6057889300947E+01  3.5700017614702E+01  3.5398438734704E+01  3.5152625800459E+01  3.4962150330280E+01  3.4826680888513E+01  3.4745982062269E+01  3.4719913769535E+01 
 5.3333333333333E-06  1.0666666666667E-05  1.0666666666667E-05  1.0666666666667E-05  1.0666666666667E-05  1.0666666666667E-05  1.0666666666667E-05  1.0666666666667E-05  1.0666666666667E-05  5.3333333333333E-06 
 3.0000000000000E-02  3.0000000000000E-02  3.0000000000000E-02  3.0000000000000E-02  3.0000000000000E-02  3.0000000000000E-02  3.0000000000000E-02  3.0000000000000E-02  3.0000000000000E-02  3.0000000000000E-02 
 1.0000000000000E-01  1.0000000000000E-01  1.0000000000000E-01  1.0000000000000E-01  1.0000000000000E-01  1.0000000000000E-01  1.0000000000000E-01  1.0000000000000E-01  1.0000000000000E-01  1.0000000000000E-01 
 1.0956624005687E+01  1.0956624005713E+01  1.0956624005736E+01  1.0956624005755E+01  1.0956624005772E+01  1.0956624005785E+01  1.0956624005796E+01  1.0956624005803E+01  1.0956624005807E+01  1.0956624005809E+01 
 2.7391560039525E+00  2.7391560039266E+00  2.7391560039039E+00  2.7391560038843E+00  2.7391560038677E+00  2.7391560038543E+00  2.7391560038438E+00  2.7391560038364E+00  2.7391560038320E+00  2.7391560038306E+00 
-1.9626659718794E-02 -1.9421550717220E-02 -1.9264049038210E-02 -1.9127379208558E-02 -1.9011644941055E-02 -1.8916930648152E-02 -1.8843303110832E-02 -1.8790812826231E-02 -1.8759495044138E-02 -1.8749432343858E-02 
-6.5422942375371E+05 -6.4739247507159E+05 -6.4214243568568E+05 -6.3758678910831E+05 -6.3372899241629E+05 -6.3057185934164E+05 -6.2811761590122E+05 -6.2636794531952E+05 -6.2532402257981E+05 -6.2498860059667E+05 
 1.9042264927310E-01  9.3756547392194E-01  3.1530741138918E+00  6.7900138068412E+00  1.1811072669388E+01  1.8188219656462E+01  2.5902424910430E+01  3.4943440226113E+01  4.5309637827713E+01  5.0824363365443E+01 
 2.0625702065478E+04  1.8275507762938E+04  1.3900179435999E+04  1.0162235721962E+04  7.0381792395294E+03  4.5083909210543E+03  2.5570012350972E+03  1.1717862036021E+03  3.4408742818966E+02  6.8755523996596E+01 
-6.6110472058927E+05 -6.5348462249508E+05 -6.4677687836659E+05 -6.4097646280833E+05 -6.3607898784753E+05 -6.3208071805574E+05 -6.2897858315899E+05 -6.2677018822621E+05 -6.2545382150833E+05 -6.2502846054054E+05 
 6.6914282519515E+04  6.5224753468971E+04  6.3758860451530E+04  6.2507265267600E+04  6.1462002696594E+04  6.0616426161465E+04  5.9965162525889E+04  5.9504075643373E+04  5.9230238353930E+04  5.9141912811694E+04 