TITLE = "Solution on Domain BulkDomain1D_0"
VARIABLES = "x [m]"  
"Vel_axial" 
"MF_sp(ECDMC)" 
"MF_sp(Li+)" 
"MF_sp(PF6-)" 
"Volt(Electroly)" 
"Volt(AnodeVolt)" 
"Temperature" 
"Potential Drop Electrode-Electrolyte [V]" 
"Surf_0 Equilibrium Potential Drop Electrode-Electrolyte [V]" 
"Overpotential_0 [V]" 
"Current Source [A/m^2]" 
"Li+ flux [kmol/m^2/s]" 
"Electrolyte Current [A/m^2]" 
"Electrode Current [A/m^2]" 
"CV Capacity discharged [A-s/m^2]" 
"Depth of discharge in CV [A-s/m^2]" 
"CV Capacity remaining [A-s/m^2]" 
"Initial CV capacity [A-s/m^2]" 
"Porosity []" 
"Surface Area [m2/m2] (area per area)" 
"Specific current (per particle area) [A/m^2]" 
"Control volume thickness [m]" 
"volFrac AnodeBinder []" 	"volFrac ExtraStuff []" 	"MoleDens Li_C6-bulk [kmol/m^3]" 
"MoleDens V_C6-bulk [kmol/m^3]" 
"qHeat_accum [J/m3]" 
"qHeat_step [W/m3]" 
"Joule_Lyte [W/m3]" 
"Joule_Solid [W/m3]" 
"electrodHeat [W/m3]" 
"OverpotHeat [W/m3]" 
"deltaSHeat [W/m3]" 

ZONE T = "ANOD, 0.0000E+00", I = 10, SOLUTIONTIME = 0.000000E+00
ZONETYPE = ORDERED
DATAPACKING = BLOCK
STRANDID = 1
 0.0000000000000E+00  1.0666666666667E-05  2.1333333333333E-05  3.2000000000000E-05  4.2666666666667E-05  5.3333333333333E-05  6.4000000000000E-05  7.4666666666667E-05  8.5333333333333E-05  9.6000000000000E-05 
 0.0000000000000E+00  0.0000000000000E+00  0.0000000000000E+00  0.0000000000000E+00  0.0000000000000E+00  0.0000000000000E+00  0.0000000000000E+00  0.0000000000000E+00  0.0000000000000E+00  0.0000000000000E+00 
 8.4394680000000E-01  8.4394680000000E-01  8.4394680000000E-01  8.4394680000000E-01  8.4394680000000E-01  8.4394680000000E-01  8.4394680000000E-01  8.4394680000000E-01  8.4394680000000E-01  8.4394680000000E-01 
 7.8026600000000E-02  7.8026600000000E-02  7.8026600000000E-02  7.8026600000000E-02  7.8026600000000E-02  7.8026600000000E-02  7.8026600000000E-02  7.8026600000000E-02  7.8026600000000E-02  7.8026600000000E-02 
 7.8026600000000E-02  7.8026600000000E-02  7.8026600000000E-02  7.8026600000000E-02  7.8026600000000E-02  7.8026600000000E-02  7.8026600000000E-02  7.8026600000000E-02  7.8026600000000E-02  7.8026600000000E-02 
-7.0000000000000E-02 -7.0000000000000E-02 -7.0000000000000E-02 -7.0000000000000E-02 -7.0000000000000E-02 -7.0000000000000E-02 -7.0000000000000E-02 -7.0000000000000E-02 -7.0000000000000E-02 -7.0000000000000E-02 
 0.0000000000000E+00  0.0000000000000E+00  0.0000000000000E+00  0.0000000000000E+00  0.0000000000000E+00  0.0000000000000E+00  0.0000000000000E+00  0.0000000000000E+00  0.0000000000000E+00  0.0000000000000E+00 
 2.9815000000000E+02  2.9815000000000E+02  2.9815000000000E+02  2.9815000000000E+02  2.9815000000000E+02  2.9815000000000E+02  2.9815000000000E+02  2.9815000000000E+02  2.9815000000000E+02  2.9815000000000E+02 
 7.0000000000000E-02  7.0000000000000E-02  7.0000000000000E-02  7.0000000000000E-02  7.0000000000000E-02  7.0000000000000E-02  7.0000000000000E-02  7.0000000000000E-02  7.0000000000000E-02  7.0000000000000E-02 
-2.4231113980254E-02 -2.4231113980254E-02 -2.4231113980254E-02 -2.4231113980254E-02 -2.4231113980254E-02 -2.4231113980254E-02 -2.4231113980254E-02 -2.4231113980254E-02 -2.4231113980254E-02 -2.4231113980254E-02 
 9.4231113980254E-02  9.4231113980254E-02  9.4231113980254E-02  9.4231113980254E-02  9.4231113980254E-02  9.4231113980254E-02  9.4231113980254E-02  9.4231113980254E-02  9.4231113980254E-02  9.4231113980254E-02 
 5.2595956578534E+02  1.0519191315707E+03  1.0519191315707E+03  1.0519191315707E+03  1.0519191315707E+03  1.0519191315707E+03  1.0519191315707E+03  1.0519191315707E+03  1.0519191315707E+03  5.2595956578534E+02 
-0.0000000000000E+00 -0.0000000000000E+00 -0.0000000000000E+00 -0.0000000000000E+00 -0.0000000000000E+00 -0.0000000000000E+00 -0.0000000000000E+00 -0.0000000000000E+00 -0.0000000000000E+00 -0.0000000000000E+00 
 0.0000000000000E+00  0.0000000000000E+00  0.0000000000000E+00  0.0000000000000E+00  0.0000000000000E+00  0.0000000000000E+00  0.0000000000000E+00  0.0000000000000E+00  0.0000000000000E+00  5.2595956578534E+02 
 5.2595956578534E+02 -0.0000000000000E+00 -0.0000000000000E+00 -0.0000000000000E+00 -0.0000000000000E+00 -0.0000000000000E+00 -0.0000000000000E+00 -0.0000000000000E+00 -0.0000000000000E+00  0.0000000000000E+00 
 0.0000000000000E+00  0.0000000000000E+00  0.0000000000000E+00  0.0000000000000E+00  0.0000000000000E+00  0.0000000000000E+00  0.0000000000000E+00  0.0000000000000E+00  0.0000000000000E+00  0.0000000000000E+00 
 1.4095380717934E+03  2.8190761435868E+03  2.8190761435868E+03  2.8190761435868E+03  2.8190761435868E+03  2.8190761435868E+03  2.8190761435868E+03  2.8190761435868E+03  2.8190761435868E+03  1.4095380717934E+03 
 5.6381522871735E+03  1.1276304574347E+04  1.1276304574347E+04  1.1276304574347E+04  1.1276304574347E+04  1.1276304574347E+04  1.1276304574347E+04  1.1276304574347E+04  1.1276304574347E+04  5.6381522871735E+03 
 7.0476903589669E+03  1.4095380717934E+04  1.4095380717934E+04  1.4095380717934E+04  1.4095380717934E+04  1.4095380717934E+04  1.4095380717934E+04  1.4095380717934E+04  1.4095380717934E+04  7.0476903589669E+03 
 4.0000000000000E-01  4.0000000000000E-01  4.0000000000000E-01  4.0000000000000E-01  4.0000000000000E-01  4.0000000000000E-01  4.0000000000000E-01  4.0000000000000E-01  4.0000000000000E-01  4.0000000000000E-01 
 9.4000000000000E-01  1.8800000000000E+00  1.8800000000000E+00  1.8800000000000E+00  1.8800000000000E+00  1.8800000000000E+00  1.8800000000000E+00  1.8800000000000E+00  1.8800000000000E+00  9.4000000000000E-01 
 5.5953145296313E+02  5.5953145296313E+02  5.5953145296313E+02  5.5953145296313E+02  5.5953145296313E+02  5.5953145296313E+02  5.5953145296313E+02  5.5953145296313E+02  5.5953145296313E+02  5.5953145296313E+02 
 5.3333333333333E-06  1.0666666666667E-05  1.0666666666667E-05  1.0666666666667E-05  1.0666666666667E-05  1.0666666666667E-05  1.0666666666667E-05  1.0666666666667E-05  1.0666666666667E-05  5.3333333333333E-06 
 3.0000000000000E-02  3.0000000000000E-02  3.0000000000000E-02  3.0000000000000E-02  3.0000000000000E-02  3.0000000000000E-02  3.0000000000000E-02  3.0000000000000E-02  3.0000000000000E-02  3.0000000000000E-02 
 1.0000000000000E-01  1.0000000000000E-01  1.0000000000000E-01  1.0000000000000E-01  1.0000000000000E-01  1.0000000000000E-01  1.0000000000000E-01  1.0000000000000E-01  1.0000000000000E-01  1.0000000000000E-01 
 1.0956624007712E+01  1.0956624007712E+01  1.0956624007712E+01  1.0956624007712E+01  1.0956624007712E+01  1.0956624007712E+01  1.0956624007712E+01  1.0956624007712E+01  1.0956624007712E+01  1.0956624007712E+01 
 2.7391560019279E+00  2.7391560019279E+00  2.7391560019279E+00  2.7391560019279E+00  2.7391560019279E+00  2.7391560019279E+00  2.7391560019279E+00  2.7391560019279E+00  2.7391560019279E+00  2.7391560019279E+00 
 0.0000000000000E+00  0.0000000000000E+00  0.0000000000000E+00  0.0000000000000E+00  0.0000000000000E+00  0.0000000000000E+00  0.0000000000000E+00  0.0000000000000E+00  0.0000000000000E+00  0.0000000000000E+00 
 0.0000000000000E+00  0.0000000000000E+00  0.0000000000000E+00  0.0000000000000E+00  0.0000000000000E+00  0.0000000000000E+00  0.0000000000000E+00  0.0000000000000E+00  0.0000000000000E+00  0.0000000000000E+00 
 0.0000000000000E+00  0.0000000000000E+00  0.0000000000000E+00  0.0000000000000E+00  0.0000000000000E+00  0.0000000000000E+00  0.0000000000000E+00  0.0000000000000E+00  0.0000000000000E+00  0.0000000000000E+00 
 0.0000000000000E+00  0.0000000000000E+00  0.0000000000000E+00  0.0000000000000E+00  0.0000000000000E+00  0.0000000000000E+00  0.0000000000000E+00  0.0000000000000E+00  0.0000000000000E+00  0.0000000000000E+00 
 0.0000000000000E+00  0.0000000000000E+00  0.0000000000000E+00  0.0000000000000E+00  0.0000000000000E+00  0.0000000000000E+00  0.0000000000000E+00  0.0000000000000E+00  0.0000000000000E+00  0.0000000000000E+00 
 0.0000000000000E+00  0.0000000000000E+00  0.0000000000000E+00  0.0000000000000E+00  0.0000000000000E+00  0.0000000000000E+00  0.0000000000000E+00  0.0000000000000E+00  0.0000000000000E+00  0.0000000000000E+00 
 0.0000000000000E+00  0.0000000000000E+00  0.0000000000000E+00  0.0000000000000E+00  0.0000000000000E+00  0.0000000000000E+00  0.0000000000000E+00  0.0000000000000E+00  0.0000000000000E+00  0.0000000000000E+00 
ZONE T = "ANOD, 1.0000E-08", I = 10, SOLUTIONTIME = 1.000000E-08
ZONETYPE = ORDERED
DATAPACKING = BLOCK
STRANDID = 1
 0.0000000000000E+00  1.0666666666667E-05  2.1333333333333E-05  3.2000000000000E-05  4.2666666666667E-05  5.3333333333333E-05  6.4000000000000E-05  7.4666666666667E-05  8.5333333333333E-05  9.6000000000000E-05 
 1.0618258255105E-08  3.1582061028880E-08  5.2308321679391E-08  7.2828772027550E-08  9.3175912114414E-08  1.1338182393976E-07  1.3347824143326E-07  1.5349690547042E-07  1.7347447685813E-07  1.8354796451424E-07 
 8.4394679988890E-01  8.4394679989032E-01  8.4394679989157E-01  8.4394679989264E-01  8.4394679989355E-01  8.4394679989429E-01  8.4394679989486E-01  8.4394679989527E-01  8.4394679989553E-01  8.4394679992706E-01 
 7.8026600055550E-02  7.8026600054841E-02  7.8026600054217E-02  7.8026600053679E-02  7.8026600053226E-02  7.8026600052856E-02  7.8026600052570E-02  7.8026600052366E-02  7.8026600052236E-02  7.8026600036470E-02 
 7.8026600055550E-02  7.8026600054841E-02  7.8026600054217E-02  7.8026600053679E-02  7.8026600053226E-02  7.8026600052856E-02  7.8026600052570E-02  7.8026600052366E-02  7.8026600052236E-02  7.8026600036470E-02 
 1.3953354749888E-02  1.3953335254162E-02  1.3953277265535E-02  1.3953181221733E-02  1.3953047500293E-02  1.3952876419626E-02  1.3952668238934E-02  1.3952423159399E-02  1.3952141323845E-02  1.3951822817452E-02 
 0.0000000000000E+00 -1.2973559935797E-04 -2.4373406721428E-04 -3.4217435110930E-04 -4.2521084278686E-04 -4.9297364874332E-04 -5.4556881689104E-04 -5.8307852121993E-04 -6.0556120564440E-04 -6.1305168522504E-04 
 2.9815000001547E+02  2.9815000001564E+02  2.9814999998257E+02  2.9814999994948E+02  2.9814999998278E+02  2.9814999998286E+02  2.9814999994971E+02  2.9814999994975E+02  2.9814999998297E+02  2.9814999998300E+02 
-1.3953354749888E-02 -1.4083070853520E-02 -1.4197011332750E-02 -1.4295355572842E-02 -1.4378258343079E-02 -1.4445850068369E-02 -1.4498237055826E-02 -1.4535501680619E-02 -1.4557702529489E-02 -1.4564874502677E-02 
-2.4231113594743E-02 -2.4231113599813E-02 -2.4231113591803E-02 -2.4231113583185E-02 -2.4231113598865E-02 -2.4231113601499E-02 -2.4231113591085E-02 -2.4231113592539E-02 -2.4231113605857E-02 -2.4231113611313E-02 
 1.0277758844855E-02  1.0148042746293E-02  1.0034102259054E-02  9.9357580103424E-03  9.8528552557861E-03  9.7852635331299E-03  9.7328765352599E-03  9.6956119119194E-03  9.6734110763680E-03  9.6662391086364E-03 
 3.4733746683611E+01  6.8579300496257E+01  6.7799487116402E+01  6.7126683197448E+01  6.6559710663381E+01  6.6097578587659E+01  6.5739481515419E+01  6.5484796769087E+01  6.5333081819861E+01  3.2642036465936E+01 
 1.7996843016388E-07  5.3529855411523E-07  8.8658801474887E-07  1.2343924050631E-06  1.5792575148063E-06  1.9217299262486E-06  2.2623452208348E-06  2.6016421249881E-06  2.9402004658424E-06  2.9402004658424E-06 
 0.0000000000000E+00  6.9012384692092E+01  1.3719086332934E+02  2.0464321866889E+02  2.7147571784492E+02  3.3779375881876E+02  4.0370175462422E+02  4.6930335772656E+02  5.3470188511427E+02  6.0000525142443E+02 
 6.0000553937274E+02  5.3098761556368E+02  4.6280910803736E+02  3.9535679785276E+02  3.2852428220043E+02  2.6220624147492E+02  1.9629825216417E+02  1.3069660642929E+02  6.5298130326519E+01  0.0000000000000E+00 
 3.4733746683611E-07  6.8579300496257E-07  6.7799487116402E-07  6.7126683197448E-07  6.6559710663381E-07  6.6097578587659E-07  6.5739481515419E-07  6.5484796769087E-07  6.5333081819861E-07  3.2642036465936E-07 
 1.4095380721407E+03  2.8190761442726E+03  2.8190761442648E+03  2.8190761442580E+03  2.8190761442524E+03  2.8190761442477E+03  2.8190761442442E+03  2.8190761442416E+03  2.8190761442401E+03  1.4095380721198E+03 
 5.6381522868262E+03  1.1276304573661E+04  1.1276304573669E+04  1.1276304573676E+04  1.1276304573681E+04  1.1276304573686E+04  1.1276304573690E+04  1.1276304573692E+04  1.1276304573694E+04  5.6381522868471E+03 
 7.0476903589669E+03  1.4095380717934E+04  1.4095380717934E+04  1.4095380717934E+04  1.4095380717934E+04  1.4095380717934E+04  1.4095380717934E+04  1.4095380717934E+04  1.4095380717934E+04  7.0476903589669E+03 
 4.0000000000000E-01  4.0000000000000E-01  4.0000000000000E-01  4.0000000000000E-01  4.0000000000000E-01  4.0000000000000E-01  4.0000000000000E-01  4.0000000000000E-01  4.0000000000000E-01  4.0000000000000E-01 
 9.4000000000000E-01  1.8800000000000E+00  1.8800000000000E+00  1.8800000000000E+00  1.8800000000000E+00  1.8800000000000E+00  1.8800000000000E+00  1.8800000000000E+00  1.8800000000000E+00  9.4000000000000E-01 
 3.6950794344267E+01  3.6478351327796E+01  3.6063556976810E+01  3.5705682551834E+01  3.5404101416692E+01  3.5158286482798E+01  3.4967809316712E+01  3.4832338706961E+01  3.4751639265884E+01  3.4725570708442E+01 
 5.3333333333333E-06  1.0666666666667E-05  1.0666666666667E-05  1.0666666666667E-05  1.0666666666667E-05  1.0666666666667E-05  1.0666666666667E-05  1.0666666666667E-05  1.0666666666667E-05  5.3333333333333E-06 
 3.0000000000000E-02  3.0000000000000E-02  3.0000000000000E-02  3.0000000000000E-02  3.0000000000000E-02  3.0000000000000E-02  3.0000000000000E-02  3.0000000000000E-02  3.0000000000000E-02  3.0000000000000E-02 
 1.0000000000000E-01  1.0000000000000E-01  1.0000000000000E-01  1.0000000000000E-01  1.0000000000000E-01  1.0000000000000E-01  1.0000000000000E-01  1.0000000000000E-01  1.0000000000000E-01  1.0000000000000E-01 
 1.0956624007037E+01  1.0956624007045E+01  1.0956624007053E+01  1.0956624007059E+01  1.0956624007065E+01  1.0956624007069E+01  1.0956624007073E+01  1.0956624007075E+01  1.0956624007077E+01  1.0956624007077E+01 
 2.7391560026029E+00  2.7391560025942E+00  2.7391560025867E+00  2.7391560025801E+00  2.7391560025746E+00  2.7391560025701E+00  2.7391560025666E+00  2.7391560025642E+00  2.7391560025627E+00  2.7391560025622E+00 
-6.5432080273969E-03 -6.4748405712401E-03 -6.4223418957838E-03 -6.3767869088622E-03 -6.3382102179046E-03 -6.3066399117546E-03 -6.2820982534618E-03 -6.2646021110359E-03 -6.2541632355746E-03 -6.2508091180123E-03 
-6.5432080273969E+05 -6.4748405712401E+05 -6.4223418957838E+05 -6.3767869088622E+05 -6.3382102179046E+05 -6.3066399117546E+05 -6.2820982534618E+05 -6.2646021110359E+05 -6.2541632355746E+05 -6.2508091180123E+05 
 6.3473599476751E-02  3.1251924211460E-01  1.0510169861918E+00  2.2633259454995E+00  3.9370068057606E+00  6.0627205183902E+00  8.6341222202122E+00  1.1647795779377E+01  1.5103204195791E+01  1.6941451044626E+01 
 6.8752382648138E+03  6.0918424587000E+03  4.6334026611668E+03  3.3874217354459E+03  2.3460682413242E+03  1.5028033094528E+03  8.5233773295880E+02  3.9059735605476E+02  1.1469640742719E+02  2.2918631260833E+01 
-6.6119610447810E+05 -6.5357621210195E+05 -6.4686864325653E+05 -6.4106837594761E+05 -6.3617102703859E+05 -6.3217285720544E+05 -6.2907079720135E+05 -6.2686245625542E+05 -6.2554612316908E+05 -6.2512077188354E+05 
 6.6934701155210E+04  6.5244906954870E+04  6.3778780129479E+04  6.2526982638118E+04  6.1481549643721E+04  6.0635833737413E+04  5.9984461708102E+04  5.9523297818732E+04  5.9249414854992E+04  5.9161074349605E+04 
-7.2813080563331E+05 -7.1882111905682E+05 -7.1064742338601E+05 -7.0359535858573E+05 -6.9765257668231E+05 -6.9280869094285E+05 -6.8905525890946E+05 -6.8638575407416E+05 -6.8479553802408E+05 -6.8428184623314E+05 
ZONE T = "ANOD, 2.0000E-08", I = 10, SOLUTIONTIME = 2.000000E-08
ZONETYPE = ORDERED
DATAPACKING = BLOCK
STRANDID = 1
 0.0000000000000E+00  1.0666666666667E-05  2.1333333333333E-05  3.2000000000000E-05  4.2666666666667E-05  5.3333333333333E-05  6.4000000000000E-05  7.4666666666667E-05  8.5333333333333E-05  9.6000000000000E-05 
 1.0618565221134E-08  3.1583190746724E-08  5.2309351200252E-08  7.2829816975909E-08  9.3176763268642E-08  1.1338252641239E-07  1.3347898969760E-07  1.5349718785940E-07  1.7348029981495E-07  1.8364685266484E-07 
 8.4394679977780E-01  8.4394679978064E-01  8.4394679978313E-01  8.4394679978528E-01  8.4394679978710E-01  8.4394679978858E-01  8.4394679978972E-01  8.4394679979054E-01  8.4394679979107E-01  8.4394679985454E-01 
 7.8026600111100E-02  7.8026600109682E-02  7.8026600108435E-02  7.8026600107358E-02  7.8026600106452E-02  7.8026600105712E-02  7.8026600105140E-02  7.8026600104732E-02  7.8026600104463E-02  7.8026600072732E-02 
 7.8026600111100E-02  7.8026600109682E-02  7.8026600108435E-02  7.8026600107358E-02  7.8026600106452E-02  7.8026600105712E-02  7.8026600105140E-02  7.8026600104732E-02  7.8026600104463E-02  7.8026600072732E-02 
 1.3954913128042E-02  1.3954893632206E-02  1.3954835643308E-02  1.3954739599118E-02  1.3954605877331E-02  1.3954434796232E-02  1.3954226615250E-02  1.3953981535412E-02  1.3953699699693E-02  1.3953381193260E-02 
 0.0000000000000E+00 -1.2973555312644E-04 -2.4373391140453E-04 -3.4217404866791E-04 -4.2521037909203E-04 -4.9297302760435E-04 -5.4556805733598E-04 -5.8307765450199E-04 -6.0556027132825E-04 -6.1305072762737E-04 
 2.9814999999900E+02  2.9814999999934E+02  2.9814999996641E+02  2.9814999993344E+02  2.9814999996683E+02  2.9814999996698E+02  2.9814999993390E+02  2.9814999993399E+02  2.9814999996723E+02  2.9814999996728E+02 
-1.3954913128042E-02 -1.4084629185332E-02 -1.4198569554713E-02 -1.4296913647786E-02 -1.4379816256423E-02 -1.4447407823836E-02 -1.4499794672586E-02 -1.4537059189914E-02 -1.4559259971021E-02 -1.4566431920888E-02 
-2.4231113197319E-02 -2.4231113207450E-02 -2.4231113203884E-02 -2.4231113199099E-02 -2.4231113218006E-02 -2.4231113223275E-02 -2.4231113214908E-02 -2.4231113217809E-02 -2.4231113231987E-02 -2.4231113242982E-02 
 1.0276200069278E-02  1.0146484022118E-02  1.0032543649171E-02  9.9341995513127E-03  9.8512969615833E-03  9.7837053994391E-03  9.7313185423218E-03  9.6940540278945E-03  9.6718532609662E-03  9.6646813220946E-03 
 3.4728408746566E+01  6.8568630259154E+01  6.7788822247432E+01  6.7116023276231E+01  6.6549055139590E+01  6.6086926806707E+01  6.5728832734057E+01  6.5474150174607E+01  6.5322436550941E+01  3.2636714064745E+01 
 1.7997159895253E-07  5.3530295056355E-07  8.8659323146115E-07  1.2343969828862E-06  1.5792626341693E-06  1.9217334780579E-06  2.2623486333902E-06  2.6016440713152E-06  2.9402493614438E-06  2.9402493614438E-06 
 0.0000000000000E+00  6.9012723876493E+01  1.3719145013036E+02  2.0464387289005E+02  2.7147641209892E+02  3.3779440307294E+02  4.0370228284247E+02  4.6930377429655E+02  5.3470206766035E+02  6.0000000000226E+02 
 5.9999999999999E+02  5.3098727612385E+02  4.6280854987057E+02  3.9535612710875E+02  3.2852358790084E+02  2.6220559692769E+02  1.9629771715731E+02  1.3069622570298E+02  6.5297932340213E+01  0.0000000000000E+00 
 6.9462155430177E-07  1.3714793075541E-06  1.3558830936383E-06  1.3424270647368E-06  1.3310876580297E-06  1.3218450539437E-06  1.3146831424948E-06  1.3095894694369E-06  1.3065551837080E-06  6.5278750530681E-07 
 1.4095380724880E+03  2.8190761449582E+03  2.8190761449426E+03  2.8190761449292E+03  2.8190761449179E+03  2.8190761449086E+03  2.8190761449015E+03  2.8190761448964E+03  2.8190761448933E+03  1.4095380724462E+03 
 5.6381522864789E+03  1.1276304572976E+04  1.1276304572991E+04  1.1276304573005E+04  1.1276304573016E+04  1.1276304573025E+04  1.1276304573032E+04  1.1276304573037E+04  1.1276304573041E+04  5.6381522865207E+03 
 7.0476903589669E+03  1.4095380717934E+04  1.4095380717934E+04  1.4095380717934E+04  1.4095380717934E+04  1.4095380717934E+04  1.4095380717934E+04  1.4095380717934E+04  1.4095380717934E+04  7.0476903589669E+03 
 4.0000000000000E-01  4.0000000000000E-01  4.0000000000000E-01  4.0000000000000E-01  4.0000000000000E-01  4.0000000000000E-01  4.0000000000000E-01  4.0000000000000E-01  4.0000000000000E-01  4.0000000000000E-01 
 9.4000000000000E-01  1.8800000000000E+00  1.8800000000000E+00  1.8800000000000E+00  1.8800000000000E+00  1.8800000000000E+00  1.8800000000000E+00  1.8800000000000E+00  1.8800000000000E+00  9.4000000000000E-01 
 3.6945115687836E+01  3.6472675669763E+01  3.6057884174166E+01  3.5700012380974E+01  3.5398433584889E+01  3.5152620641866E+01  3.4962145071307E+01  3.4826675624791E+01  3.4745976888799E+01  3.4719908579516E+01 
 5.3333333333333E-06  1.0666666666667E-05  1.0666666666667E-05  1.0666666666667E-05  1.0666666666667E-05  1.0666666666667E-05  1.0666666666667E-05  1.0666666666667E-05  1.0666666666667E-05  5.3333333333333E-06 
 3.0000000000000E-02  3.0000000000000E-02  3.0000000000000E-02  3.0000000000000E-02  3.0000000000000E-02  3.0000000000000E-02  3.0000000000000E-02  3.0000000000000E-02  3.0000000000000E-02  3.0000000000000E-02 
 1.0000000000000E-01  1.0000000000000E-01  1.0000000000000E-01  1.0000000000000E-01  1.0000000000000E-01  1.0000000000000E-01  1.0000000000000E-01  1.0000000000000E-01  1.0000000000000E-01  1.0000000000000E-01 
 1.0956624006362E+01  1.0956624006379E+01  1.0956624006394E+01  1.0956624006407E+01  1.0956624006418E+01  1.0956624006427E+01  1.0956624006434E+01  1.0956624006439E+01  1.0956624006442E+01  1.0956624006443E+01 
 2.7391560032777E+00  2.7391560032605E+00  2.7391560032453E+00  2.7391560032323E+00  2.7391560032212E+00  2.7391560032123E+00  2.7391560032053E+00  2.7391560032004E+00  2.7391560031974E+00  2.7391560031965E+00 
-1.3085501464599E-02 -1.2948764516554E-02 -1.2843765425701E-02 -1.2752653952196E-02 -1.2675499308033E-02 -1.2612357668490E-02 -1.2563273556914E-02 -1.2528280707221E-02 -1.2507402620253E-02 -1.2500694279772E-02 
-6.5422934372023E+05 -6.4739239453138E+05 -6.4214235299176E+05 -6.3758670433338E+05 -6.3372890901286E+05 -6.3057177567354E+05 -6.2811753034522E+05 -6.2636785961852E+05 -6.2532393846789E+05 -6.2498851617598E+05 
 1.2694791463819E-01  6.2504146529784E-01  2.1020428171223E+00  4.5266658513811E+00  7.8740337159318E+00  1.2125463497663E+01  1.7268266916540E+01  2.3295611705305E+01  3.0206418270989E+01  3.3882906316510E+01 
 1.3750471629619E+04  1.2183677364785E+04  9.2667943235571E+03  6.7748321052344E+03  4.6921266551609E+03  3.0055992871816E+03  1.7046708502508E+03  7.8119244937072E+02  2.2939212281940E+02  4.5837120052921E+01 
-6.6110464055935E+05 -6.5348454195969E+05 -6.4677679567998E+05 -6.4097637804307E+05 -6.3607890445360E+05 -6.3208063439425E+05 -6.2897849760721E+05 -6.2677010252776E+05 -6.2545373739736E+05 -6.2502837612004E+05 
 6.6914264437986E+04  6.5224735554488E+04  6.3758842437514E+04  6.2507247140901E+04  6.1461984924314E+04  6.0616408479500E+04  5.9965144676963E+04  5.9504057845509E+04  5.9230220821205E+04  5.9141895229833E+04 
-7.2801890499734E+05 -7.1870927751417E+05 -7.1053563811749E+05 -7.0348362518397E+05 -6.9754088937791E+05 -6.9269704287375E+05 -6.8894364228418E+05 -6.8627416037327E+05 -6.8468395821856E+05 -6.8417027134988E+05 
ZONE T = "ANOD, 3.0000E-08", I = 10, SOLUTIONTIME = 3.000000E-08
ZONETYPE = ORDERED
DATAPACKING = BLOCK
STRANDID = 1
 0.0000000000000E+00  1.0666666666667E-05  2.1333333333333E-05  3.2000000000000E-05  4.2666666666667E-05  5.3333333333333E-05  6.4000000000000E-05  7.4666666666667E-05  8.5333333333333E-05  9.6000000000000E-05 
 1.0618781939088E-08  3.1583159898610E-08  5.2309330753440E-08  7.2829648522976E-08  9.3176820786626E-08  1.1338248566207E-07  1.3347887033508E-07  1.5349719201061E-07  1.7348593582543E-07  1.8374416409168E-07 
 8.4394679966670E-01  8.4394679967095E-01  8.4394679967470E-01  8.4394679967792E-01  8.4394679968065E-01  8.4394679968286E-01  8.4394679968458E-01  8.4394679968580E-01  8.4394679968664E-01  8.4394679978242E-01 
 7.8026600166649E-02  7.8026600164523E-02  7.8026600162652E-02  7.8026600161038E-02  7.8026600159677E-02  7.8026600158569E-02  7.8026600157710E-02  7.8026600157098E-02  7.8026600156682E-02  7.8026600108790E-02 
 7.8026600166649E-02  7.8026600164523E-02  7.8026600162652E-02  7.8026600161038E-02  7.8026600159677E-02  7.8026600158569E-02  7.8026600157710E-02  7.8026600157098E-02  7.8026600156682E-02  7.8026600108790E-02 
 1.3954912746564E-02  1.3954893250728E-02  1.3954835261831E-02  1.3954739217641E-02  1.3954605495854E-02  1.3954434414755E-02  1.3954226233773E-02  1.3953981153936E-02  1.3953699318217E-02  1.3953380811784E-02 
 0.0000000000000E+00 -1.2973555313896E-04 -2.4373391144667E-04 -3.4217404874988E-04 -4.2521037921809E-04 -4.9297302777381E-04 -5.4556805754408E-04 -5.8307765474087E-04 -6.0556027158782E-04 -6.1305072789622E-04 
 2.9814999998253E+02  2.9814999998304E+02  2.9814999995024E+02  2.9814999991740E+02  2.9814999995087E+02  2.9814999995111E+02  2.9814999991810E+02  2.9814999991822E+02  2.9814999995149E+02  2.9814999995156E+02 
-1.3954912746564E-02 -1.4084628803867E-02 -1.4198569173277E-02 -1.4296913266391E-02 -1.4379815875072E-02 -1.4447407442529E-02 -1.4499794291318E-02 -1.4537058808677E-02 -1.4559259589805E-02 -1.4566431539681E-02 
-2.4231112799892E-02 -2.4231112815084E-02 -2.4231112815961E-02 -2.4231112815017E-02 -2.4231112837156E-02 -2.4231112845046E-02 -2.4231112838722E-02 -2.4231112843078E-02 -2.4231112858132E-02 -2.4231112874720E-02 
 1.0276200053328E-02  1.0146484011217E-02  1.0032543642684E-02  9.9341995486268E-03  9.8512969620840E-03  9.7837054025175E-03  9.7313185474043E-03  9.6940540344007E-03  9.6718532683270E-03  9.6646813350396E-03 
 3.4728408692030E+01  6.8568630184629E+01  6.7788822202960E+01  6.7116023257676E+01  6.6549055142673E+01  6.6086926827336E+01  6.5728832768384E+01  6.5474150218517E+01  6.5322436600670E+01  3.2636714105159E+01 
 1.7997375028462E-07  5.3530484563647E-07  8.8659486622556E-07  1.2343983602729E-06  1.5792637565837E-06  1.9217343477480E-06  2.2623492519378E-06  2.6016445201994E-06  2.9402984840622E-06  2.9402984840622E-06 
 0.0000000000000E+00  6.9012723784331E+01  1.3719144997823E+02  2.0464387270880E+02  2.7147641190738E+02  3.3779440289339E+02  4.0370228269133E+02  4.6930377418592E+02  5.3470206759465E+02  5.9999999999784E+02 
 6.0000000000000E+02  5.3098727621567E+02  4.6280855002188E+02  3.9535612729158E+02  3.2852358809142E+02  2.6220559710642E+02  1.9629771730855E+02  1.3069622581509E+02  6.5297932405489E+01  0.0000000000000E+00 
 1.0419056412221E-06  2.0571656094004E-06  2.0337713156679E-06  2.0135872973136E-06  1.9965782094564E-06  1.9827143222170E-06  1.9719714701786E-06  1.9643309716221E-06  1.9597795497147E-06  9.7915464635839E-07 
 1.4095380728353E+03  2.8190761456439E+03  2.8190761456205E+03  2.8190761456004E+03  2.8190761455833E+03  2.8190761455695E+03  2.8190761455587E+03  2.8190761455511E+03  2.8190761455465E+03  1.4095380727725E+03 
 5.6381522861316E+03  1.1276304572290E+04  1.1276304572313E+04  1.1276304572333E+04  1.1276304572350E+04  1.1276304572364E+04  1.1276304572375E+04  1.1276304572383E+04  1.1276304572387E+04  5.6381522861944E+03 
 7.0476903589669E+03  1.4095380717934E+04  1.4095380717934E+04  1.4095380717934E+04  1.4095380717934E+04  1.4095380717934E+04  1.4095380717934E+04  1.4095380717934E+04  1.4095380717934E+04  7.0476903589669E+03 
 4.0000000000000E-01  4.0000000000000E-01  4.0000000000000E-01  4.0000000000000E-01  4.0000000000000E-01  4.0000000000000E-01  4.0000000000000E-01  4.0000000000000E-01  4.0000000000000E-01  4.0000000000000E-01 
 9.4000000000000E-01  1.8800000000000E+00  1.8800000000000E+00  1.8800000000000E+00  1.8800000000000E+00  1.8800000000000E+00  1.8800000000000E+00  1.8800000000000E+00  1.8800000000000E+00  9.4000000000000E-01 
 3.6945115629820E+01  3.6472675630122E+01  3.6057884150511E+01  3.5700012371104E+01  3.5398433586528E+01  3.5152620652839E+01  3.4962145089566E+01  3.4826675648148E+01  3.4745976915250E+01  3.4719908622509E+01 
 5.3333333333333E-06  1.0666666666667E-05  1.0666666666667E-05  1.0666666666667E-05  1.0666666666667E-05  1.0666666666667E-05  1.0666666666667E-05  1.0666666666667E-05  1.0666666666667E-05  5.3333333333333E-06 
 3.0000000000000E-02  3.0000000000000E-02  3.0000000000000E-02  3.0000000000000E-02  3.0000000000000E-02  3.0000000000000E-02  3.0000000000000E-02  3.0000000000000E-02  3.0000000000000E-02  3.0000000000000E-02 
 1.0000000000000E-01  1.0000000000000E-01  1.0000000000000E-01  1.0000000000000E-01  1.0000000000000E-01  1.0000000000000E-01  1.0000000000000E-01  1.0000000000000E-01  1.0000000000000E-01  1.0000000000000E-01 
 1.0956624005687E+01  1.0956624005713E+01  1.0956624005735E+01  1.0956624005755E+01  1.0956624005772E+01  1.0956624005785E+01  1.0956624005795E+01  1.0956624005803E+01  1.0956624005807E+01  1.0956624005809E+01 
 2.7391560039526E+00  2.7391560039267E+00  2.7391560039040E+00  2.7391560038844E+00  2.7391560038679E+00  2.7391560038544E+00  2.7391560038440E+00  2.7391560038365E+00  2.7391560038321E+00  2.7391560038307E+00 
-1.9627794889007E-02 -1.9422688452093E-02 -1.9265188948481E-02 -1.9128520990682E-02 -1.9012788395238E-02 -1.8918075423870E-02 -1.8844448860241E-02 -1.8791959304143E-02 -1.8760642006195E-02 -1.8750579445762E-02 
-6.5422934244079E+05 -6.4739239355392E+05 -6.4214235227792E+05 -6.3758670384862E+05 -6.3372890872047E+05 -6.3057177553797E+05 -6.2811753033266E+05 -6.2636785969224E+05 -6.2532393859412E+05 -6.2498851659904E+05 
 1.9042222955949E-01  9.3756368740234E-01  3.1530686449193E+00  6.7900057514661E+00  1.1811060617426E+01  1.8188206465692E+01  2.5902411599558E+01  3.4943427616518E+01  4.5309632331464E+01  5.0824361574138E+01 
 2.0625704995752E+04  1.8275512272912E+04  1.3900185988928E+04  1.0162242478120E+04  7.0381850716941E+03  4.5083952669418E+03  2.5570039688447E+03  1.1717875433481E+03  3.4408783842999E+02  6.8755608901766E+01 
-6.6110463928124E+05 -6.5348454098427E+05 -6.4677679496912E+05 -6.4097637756140E+05 -6.3607890416391E+05 -6.3208063426070E+05 -6.2897849759594E+05 -6.2677010260212E+05 -6.2545373752379E+05 -6.2502837654314E+05 
 6.6914264229048E+04  6.5224735413567E+04  6.3758842354467E+04  6.2507247106737E+04  6.1461984930274E+04  6.0616408517489E+04  5.9965144739630E+04  5.9504057925308E+04  5.9230220911355E+04  5.9141895381871E+04 