TITLE = "Solution on Domain BulkDomain1D_1"
VARIABLES = "x [m]"  
"Vel_axial" 	"MF_sp(ECDMC)" 	"MF_sp(Li+)" 	"MF_sp(PF6-)" 	"Volt(Electroly)" 	"Temperature" 	"Porosity []" 	"Control volume thickness [m]" 	"volFrac MgO(S) []" 	"volFrac ExtraStuff []" 	"qHeat_accum [J/m3]" 	"qHeat_step [W/m3]" 	"Joule_Lyte [W/m3]" 	"Joule_Solid [W/m3]" 	
ZONE T = "SEP , 0.0000E+00", I = 10, SOLUTIONTIME = 0.000000E+00
ZONETYPE = ORDERED
DATAPACKING = BLOCK
STRANDID = 2
 9.6000000000000E-05  9.8777777777778E-05  1.0155555555556E-04  1.0433333333333E-04  1.0711111111111E-04  1.0988888888889E-04  1.1266666666667E-04  1.1544444444444E-04  1.1822222222222E-04  1.2100000000000E-04 
 0.0000000000000E+00  0.0000000000000E+00  0.0000000000000E+00  0.0000000000000E+00  0.0000000000000E+00  0.0000000000000E+00  0.0000000000000E+00  0.0000000000000E+00  0.0000000000000E+00  0.0000000000000E+00 
 8.4394680000000E-01  8.4394680000000E-01  8.4394680000000E-01  8.4394680000000E-01  8.4394680000000E-01  8.4394680000000E-01  8.4394680000000E-01  8.4394680000000E-01  8.4394680000000E-01  8.4394680000000E-01 
 7.8026600000000E-02  7.8026600000000E-02  7.8026600000000E-02  7.8026600000000E-02  7.8026600000000E-02  7.8026600000000E-02  7.8026600000000E-02  7.8026600000000E-02  7.8026600000000E-02  7.8026600000000E-02 
 7.8026600000000E-02  7.8026600000000E-02  7.8026600000000E-02  7.8026600000000E-02  7.8026600000000E-02  7.8026600000000E-02  7.8026600000000E-02  7.8026600000000E-02  7.8026600000000E-02  7.8026600000000E-02 
-7.0000000000000E-02 -7.0000000000000E-02 -7.0000000000000E-02 -7.0000000000000E-02 -7.0000000000000E-02 -7.0000000000000E-02 -7.0000000000000E-02 -7.0000000000000E-02 -7.0000000000000E-02 -7.0000000000000E-02 
 2.9815000000000E+02  2.9815000000000E+02  2.9815000000000E+02  2.9815000000000E+02  2.9815000000000E+02  2.9815000000000E+02  2.9815000000000E+02  2.9815000000000E+02  2.9815000000000E+02  2.9815000000000E+02 
 6.5000471412550E-01  6.5000471412551E-01  6.5000471412550E-01  6.5000471412550E-01  6.5000471412551E-01  6.5000471412550E-01  6.5000471412551E-01  6.5000471412550E-01  6.5000471412550E-01  6.5000471412551E-01 
 1.3888888888889E-06  2.7777777777778E-06  2.7777777777778E-06  2.7777777777778E-06  2.7777777777778E-06  2.7777777777778E-06  2.7777777777778E-06  2.7777777777778E-06  2.7777777777778E-06  1.3888888888889E-06 
 2.4999528587450E-01  2.4999528587449E-01  2.4999528587450E-01  2.4999528587450E-01  2.4999528587449E-01  2.4999528587450E-01  2.4999528587449E-01  2.4999528587450E-01  2.4999528587450E-01  2.4999528587449E-01 
 1.0000000000000E-01  1.0000000000000E-01  1.0000000000000E-01  1.0000000000000E-01  1.0000000000000E-01  1.0000000000000E-01  1.0000000000000E-01  1.0000000000000E-01  1.0000000000000E-01  1.0000000000000E-01 
 0.0000000000000E+00  0.0000000000000E+00  0.0000000000000E+00  0.0000000000000E+00  0.0000000000000E+00  0.0000000000000E+00  0.0000000000000E+00  0.0000000000000E+00  0.0000000000000E+00  0.0000000000000E+00 
 0.0000000000000E+00  0.0000000000000E+00  0.0000000000000E+00  0.0000000000000E+00  0.0000000000000E+00  0.0000000000000E+00  0.0000000000000E+00  0.0000000000000E+00  0.0000000000000E+00  0.0000000000000E+00 
 0.0000000000000E+00  0.0000000000000E+00  0.0000000000000E+00  0.0000000000000E+00  0.0000000000000E+00  0.0000000000000E+00  0.0000000000000E+00  0.0000000000000E+00  0.0000000000000E+00  0.0000000000000E+00 
 0.0000000000000E+00  0.0000000000000E+00  0.0000000000000E+00  0.0000000000000E+00  0.0000000000000E+00  0.0000000000000E+00  0.0000000000000E+00  0.0000000000000E+00  0.0000000000000E+00  0.0000000000000E+00 
ZONE T = "SEP , 1.0000E-08", I = 10, SOLUTIONTIME = 1.000000E-08
ZONETYPE = ORDERED
DATAPACKING = BLOCK
STRANDID = 2
 9.6000000000000E-05  9.8777777777778E-05  1.0155555555556E-04  1.0433333333333E-04  1.0711111111111E-04  1.0988888888889E-04  1.1266666666667E-04  1.1544444444444E-04  1.1822222222222E-04  1.2100000000000E-04 
 1.8354905439028E-07  1.8344980088187E-07  1.8344879685247E-07  1.8344879491384E-07  1.8344879481462E-07  1.8344879481762E-07  1.8344879581399E-07  1.8344887518028E-07  1.8345835618168E-07  1.8279174005970E-07 
 8.4394679992706E-01  8.4394679999925E-01  8.4394679999999E-01  8.4394680000000E-01  8.4394680000000E-01  8.4394680000000E-01  8.4394680000000E-01  8.4394680000000E-01  8.4394680000007E-01  8.4394680000694E-01 
 7.8026600036470E-02  7.8026600000373E-02  7.8026600000004E-02  7.8026600000000E-02  7.8026600000000E-02  7.8026600000000E-02  7.8026600000000E-02  7.8026600000000E-02  7.8026599999964E-02  7.8026599996528E-02 
 7.8026600036470E-02  7.8026600000373E-02  7.8026600000004E-02  7.8026600000000E-02  7.8026600000000E-02  7.8026600000000E-02  7.8026600000000E-02  7.8026600000000E-02  7.8026599999964E-02  7.8026599996528E-02 
 1.3951822777075E-02  1.3951780433069E-02  1.3951738088990E-02  1.3951695744974E-02  1.3951653400968E-02  1.3951611056881E-02  1.3951568712875E-02  1.3951526368859E-02  1.3951484024783E-02  1.3951441680764E-02 
 2.9815000001620E+02  2.9815000000857E+02  2.9815000000401E+02  2.9815000000170E+02  2.9815000000112E+02  2.9815000000350E+02  2.9815000000950E+02  2.9815000002075E+02  2.9815000004079E+02  2.9815000007612E+02 
 6.5000471412550E-01  6.5000471412551E-01  6.5000471412550E-01  6.5000471412550E-01  6.5000471412551E-01  6.5000471412550E-01  6.5000471412551E-01  6.5000471412550E-01  6.5000471412550E-01  6.5000471412551E-01 
 1.3888888888889E-06  2.7777777777778E-06  2.7777777777778E-06  2.7777777777778E-06  2.7777777777778E-06  2.7777777777778E-06  2.7777777777778E-06  2.7777777777778E-06  2.7777777777778E-06  1.3888888888889E-06 
 2.4999528587450E-01  2.4999528587449E-01  2.4999528587450E-01  2.4999528587450E-01  2.4999528587449E-01  2.4999528587450E-01  2.4999528587449E-01  2.4999528587450E-01  2.4999528587450E-01  2.4999528587449E-01 
 1.0000000000000E-01  1.0000000000000E-01  1.0000000000000E-01  1.0000000000000E-01  1.0000000000000E-01  1.0000000000000E-01  1.0000000000000E-01  1.0000000000000E-01  1.0000000000000E-01  1.0000000000000E-01 
 9.1462992050067E-08  9.1463148735022E-08  9.1463171502464E-08  9.1463014818395E-08  9.1463165373107E-08  9.1463165376074E-08  9.1463014830718E-08  9.1463165902410E-08  9.1463171533855E-08  9.1463048866555E-08 
 9.1462992050067E+00  9.1463148735022E+00  9.1463171502464E+00  9.1463014818395E+00  9.1463165373107E+00  9.1463165376074E+00  9.1463014830718E+00  9.1463165902410E+00  9.1463171533855E+00  9.1463048866555E+00 
 9.1462992050067E+00  9.1463148735022E+00  9.1463171502464E+00  9.1463014818395E+00  9.1463165373107E+00  9.1463165376074E+00  9.1463014830718E+00  9.1463165902410E+00  9.1463171533855E+00  9.1463048866555E+00 
 0.0000000000000E+00  0.0000000000000E+00  0.0000000000000E+00  0.0000000000000E+00  0.0000000000000E+00  0.0000000000000E+00  0.0000000000000E+00  0.0000000000000E+00  0.0000000000000E+00  0.0000000000000E+00 
ZONE T = "SEP , 2.0000E-08", I = 10, SOLUTIONTIME = 2.000000E-08
ZONETYPE = ORDERED
DATAPACKING = BLOCK
STRANDID = 2
 9.6000000000000E-05  9.8777777777778E-05  1.0155555555556E-04  1.0433333333333E-04  1.0711111111111E-04  1.0988888888889E-04  1.1266666666667E-04  1.1544444444444E-04  1.1822222222222E-04  1.2100000000000E-04 
 1.8364691131728E-07  1.8345083183313E-07  1.8344784338325E-07  1.8344784500451E-07  1.8344784448061E-07  1.8344784452785E-07  1.8344784654986E-07  1.8344819091885E-07  1.8346690582720E-07  1.8279393871348E-07 
 8.4394679985454E-01  8.4394679999778E-01  8.4394679999997E-01  8.4394680000000E-01  8.4394680000000E-01  8.4394680000000E-01  8.4394680000000E-01  8.4394680000000E-01  8.4394680000021E-01  8.4394680001382E-01 
 7.8026600072732E-02  7.8026600001110E-02  7.8026600000015E-02  7.8026600000000E-02  7.8026600000000E-02  7.8026600000000E-02  7.8026600000000E-02  7.8026599999999E-02  7.8026599999894E-02  7.8026599993088E-02 
 7.8026600072732E-02  7.8026600001110E-02  7.8026600000015E-02  7.8026600000000E-02  7.8026600000000E-02  7.8026600000000E-02  7.8026600000000E-02  7.8026599999999E-02  7.8026599999894E-02  7.8026599993088E-02 
 1.3953381198608E-02  1.3953338854574E-02  1.3953296510539E-02  1.3953254166505E-02  1.3953211822471E-02  1.3953169478436E-02  1.3953127134402E-02  1.3953084790368E-02  1.3953042446333E-02  1.3953000102299E-02 
 2.9815000000048E+02  2.9815000000420E+02  2.9815000000624E+02  2.9815000000788E+02  2.9815000001097E+02  2.9815000001566E+02  2.9815000002480E+02  2.9815000003760E+02  2.9815000005555E+02  2.9815000007653E+02 
 6.5000471412550E-01  6.5000471412551E-01  6.5000471412550E-01  6.5000471412550E-01  6.5000471412551E-01  6.5000471412550E-01  6.5000471412551E-01  6.5000471412550E-01  6.5000471412550E-01  6.5000471412551E-01 
 1.3888888888889E-06  2.7777777777778E-06  2.7777777777778E-06  2.7777777777778E-06  2.7777777777778E-06  2.7777777777778E-06  2.7777777777778E-06  2.7777777777778E-06  2.7777777777778E-06  1.3888888888889E-06 
 2.4999528587450E-01  2.4999528587449E-01  2.4999528587450E-01  2.4999528587450E-01  2.4999528587449E-01  2.4999528587450E-01  2.4999528587449E-01  2.4999528587450E-01  2.4999528587450E-01  2.4999528587449E-01 
 1.0000000000000E-01  1.0000000000000E-01  1.0000000000000E-01  1.0000000000000E-01  1.0000000000000E-01  1.0000000000000E-01  1.0000000000000E-01  1.0000000000000E-01  1.0000000000000E-01  1.0000000000000E-01 
 1.8292610609979E-07  1.8292626280925E-07  1.8292628560056E-07  1.8292612891922E-07  1.8292627947672E-07  1.8292627947803E-07  1.8292612893367E-07  1.8292628001253E-07  1.8292628565133E-07  1.8292616298628E-07 
 9.1463114049721E+00  9.1463114074229E+00  9.1463114098093E+00  9.1463114100828E+00  9.1463114103610E+00  9.1463114101953E+00  9.1463114102955E+00  9.1463114110120E+00  9.1463114117472E+00  9.1463114119722E+00 
 9.1463114049721E+00  9.1463114074229E+00  9.1463114098093E+00  9.1463114100828E+00  9.1463114103610E+00  9.1463114101953E+00  9.1463114102955E+00  9.1463114110120E+00  9.1463114117472E+00  9.1463114119722E+00 
 0.0000000000000E+00  0.0000000000000E+00  0.0000000000000E+00  0.0000000000000E+00  0.0000000000000E+00  0.0000000000000E+00  0.0000000000000E+00  0.0000000000000E+00  0.0000000000000E+00  0.0000000000000E+00 
ZONE T = "SEP , 3.0000E-08", I = 10, SOLUTIONTIME = 3.000000E-08
ZONETYPE = ORDERED
DATAPACKING = BLOCK
STRANDID = 2
 9.6000000000000E-05  9.8777777777778E-05  1.0155555555556E-04  1.0433333333333E-04  1.0711111111111E-04  1.0988888888889E-04  1.1266666666667E-04  1.1544444444444E-04  1.1822222222222E-04  1.2100000000000E-04 
 1.8374427089613E-07  1.8345386313475E-07  1.8344791236885E-07  1.8344780717071E-07  1.8344780560184E-07  1.8344780572267E-07  1.8344785719768E-07  1.8344843883549E-07  1.8347595631349E-07  1.8279531065530E-07 
 8.4394679978242E-01  8.4394679999560E-01  8.4394679999993E-01  8.4394680000000E-01  8.4394680000000E-01  8.4394680000000E-01  8.4394680000000E-01  8.4394680000001E-01  8.4394680000042E-01  8.4394680002066E-01 
 7.8026600108790E-02  7.8026600002201E-02  7.8026600000037E-02  7.8026600000001E-02  7.8026600000000E-02  7.8026600000000E-02  7.8026600000000E-02  7.8026599999996E-02  7.8026599999791E-02  7.8026599989671E-02 
 7.8026600108790E-02  7.8026600002201E-02  7.8026600000037E-02  7.8026600000001E-02  7.8026600000000E-02  7.8026600000000E-02  7.8026600000000E-02  7.8026599999996E-02  7.8026599999791E-02  7.8026599989671E-02 
 1.3953380817131E-02  1.3953338473097E-02  1.3953296129062E-02  1.3953253785028E-02  1.3953211440994E-02  1.3953169096960E-02  1.3953126752925E-02  1.3953084408891E-02  1.3953042064857E-02  1.3952999720822E-02 
 2.9814999998476E+02  2.9814999999607E+02  2.9815000000262E+02  2.9815000000872E+02  2.9815000001578E+02  2.9815000002377E+02  2.9815000003365E+02  2.9815000004569E+02  2.9815000006021E+02  2.9815000007693E+02 
 6.5000471412550E-01  6.5000471412551E-01  6.5000471412550E-01  6.5000471412550E-01  6.5000471412551E-01  6.5000471412550E-01  6.5000471412551E-01  6.5000471412550E-01  6.5000471412550E-01  6.5000471412551E-01 
 1.3888888888889E-06  2.7777777777778E-06  2.7777777777778E-06  2.7777777777778E-06  2.7777777777778E-06  2.7777777777778E-06  2.7777777777778E-06  2.7777777777778E-06  2.7777777777778E-06  1.3888888888889E-06 
 2.4999528587450E-01  2.4999528587449E-01  2.4999528587450E-01  2.4999528587450E-01  2.4999528587449E-01  2.4999528587450E-01  2.4999528587449E-01  2.4999528587450E-01  2.4999528587450E-01  2.4999528587449E-01 
 1.0000000000000E-01  1.0000000000000E-01  1.0000000000000E-01  1.0000000000000E-01  1.0000000000000E-01  1.0000000000000E-01  1.0000000000000E-01  1.0000000000000E-01  1.0000000000000E-01  1.0000000000000E-01 
 2.7438922011749E-07  2.7438937686874E-07  2.7438939970014E-07  2.7438924301984E-07  2.7438939357890E-07  2.7438939358143E-07  2.7438924304152E-07  2.7438939412409E-07  2.7438939977374E-07  2.7438927711791E-07 
 9.1463114017704E+00  9.1463114059485E+00  9.1463114099579E+00  9.1463114100615E+00  9.1463114102185E+00  9.1463114103407E+00  9.1463114107848E+00  9.1463114111555E+00  9.1463114122414E+00  9.1463114131632E+00 
 9.1463114017704E+00  9.1463114059485E+00  9.1463114099579E+00  9.1463114100615E+00  9.1463114102185E+00  9.1463114103407E+00  9.1463114107848E+00  9.1463114111555E+00  9.1463114122414E+00  9.1463114131632E+00 
 0.0000000000000E+00  0.0000000000000E+00  0.0000000000000E+00  0.0000000000000E+00  0.0000000000000E+00  0.0000000000000E+00  0.0000000000000E+00  0.0000000000000E+00  0.0000000000000E+00  0.0000000000000E+00 
ZONE T = "SEP , 4.0000E-08", I = 10, SOLUTIONTIME = 4.000000E-08
ZONETYPE = ORDERED
DATAPACKING = BLOCK
STRANDID = 2
 9.6000000000000E-05  9.8777777777778E-05  1.0155555555556E-04  1.0433333333333E-04  1.0711111111111E-04  1.0988888888889E-04  1.1266666666667E-04  1.1544444444444E-04  1.1822222222222E-04  1.2100000000000E-04 
 1.8383967020409E-07  1.8345752807983E-07  1.8344782604768E-07  1.8344758936903E-07  1.8344759002647E-07  1.8344759034065E-07  1.8344761727265E-07  1.8344851656326E-07  1.8348476249899E-07  1.8279693638842E-07 
 8.4394679971071E-01  8.4394679999273E-01  8.4394679999985E-01  8.4394680000000E-01  8.4394680000000E-01  8.4394680000000E-01  8.4394680000000E-01  8.4394680000001E-01  8.4394680000069E-01  8.4394680002744E-01 
 7.8026600144646E-02  7.8026600003637E-02  7.8026600000074E-02  7.8026600000001E-02  7.8026600000000E-02  7.8026600000000E-02  7.8026600000000E-02  7.8026599999993E-02  7.8026599999655E-02  7.8026599986278E-02 
 7.8026600144646E-02  7.8026600003637E-02  7.8026600000074E-02  7.8026600000001E-02  7.8026600000000E-02  7.8026600000000E-02  7.8026600000000E-02  7.8026599999993E-02  7.8026599999655E-02  7.8026599986278E-02 
 1.3953380435657E-02  1.3953338091623E-02  1.3953295747589E-02  1.3953253403554E-02  1.3953211059520E-02  1.3953168715486E-02  1.3953126371451E-02  1.3953084027417E-02  1.3953041683383E-02  1.3952999339349E-02 
 2.9814999996905E+02  2.9814999998602E+02  2.9814999999745E+02  2.9815000000686E+02  2.9815000001841E+02  2.9815000002916E+02  2.9815000004225E+02  2.9815000005350E+02  2.9815000006545E+02  2.9815000007734E+02 
 6.5000471412550E-01  6.5000471412551E-01  6.5000471412550E-01  6.5000471412550E-01  6.5000471412551E-01  6.5000471412550E-01  6.5000471412551E-01  6.5000471412550E-01  6.5000471412550E-01  6.5000471412551E-01 
 1.3888888888889E-06  2.7777777777778E-06  2.7777777777778E-06  2.7777777777778E-06  2.7777777777778E-06  2.7777777777778E-06  2.7777777777778E-06  2.7777777777778E-06  2.7777777777778E-06  1.3888888888889E-06 
 2.4999528587450E-01  2.4999528587449E-01  2.4999528587450E-01  2.4999528587450E-01  2.4999528587449E-01  2.4999528587450E-01  2.4999528587449E-01  2.4999528587450E-01  2.4999528587450E-01  2.4999528587449E-01 
 1.0000000000000E-01  1.0000000000000E-01  1.0000000000000E-01  1.0000000000000E-01  1.0000000000000E-01  1.0000000000000E-01  1.0000000000000E-01  1.0000000000000E-01  1.0000000000000E-01  1.0000000000000E-01 
 3.6585233411106E-07  3.6585249091031E-07  3.6585251379442E-07  3.6585235712094E-07  3.6585250768416E-07  3.6585250769065E-07  3.6585235715078E-07  3.6585250823708E-07  3.6585251389727E-07  3.6585239124637E-07 
 9.1463113993567E+00  9.1463114041570E+00  9.1463114094283E+00  9.1463114101106E+00  9.1463114105258E+00  9.1463114109215E+00  9.1463114109263E+00  9.1463114112995E+00  9.1463114123529E+00  9.1463114128460E+00 
 9.1463113993567E+00  9.1463114041570E+00  9.1463114094283E+00  9.1463114101106E+00  9.1463114105258E+00  9.1463114109215E+00  9.1463114109263E+00  9.1463114112995E+00  9.1463114123529E+00  9.1463114128460E+00 
 0.0000000000000E+00  0.0000000000000E+00  0.0000000000000E+00  0.0000000000000E+00  0.0000000000000E+00  0.0000000000000E+00  0.0000000000000E+00  0.0000000000000E+00  0.0000000000000E+00  0.0000000000000E+00 
ZONE T = "SEP , 5.5000E-08", I = 10, SOLUTIONTIME = 5.500000E-08
ZONETYPE = ORDERED
DATAPACKING = BLOCK
STRANDID = 2
 9.6000000000000E-05  9.8777777777778E-05  1.0155555555556E-04  1.0433333333333E-04  1.0711111111111E-04  1.0988888888889E-04  1.1266666666667E-04  1.1544444444444E-04  1.1822222222222E-04  1.2100000000000E-04 
 1.8397989200621E-07  1.8346524374146E-07  1.8344800531910E-07  1.8344756333705E-07  1.8344756228673E-07  1.8344756307595E-07  1.8344759637534E-07  1.8344920049798E-07  1.8349796716397E-07  1.8279959480681E-07 
 8.4394679960402E-01  8.4394679998692E-01  8.4394679999966E-01  8.4394679999999E-01  8.4394680000000E-01  8.4394680000000E-01  8.4394680000000E-01  8.4394680000003E-01  8.4394680000124E-01  8.4394680003752E-01 
 7.8026600197989E-02  7.8026600006538E-02  7.8026600000171E-02  7.8026600000004E-02  7.8026600000000E-02  7.8026600000000E-02  7.8026600000000E-02  7.8026599999984E-02  7.8026599999380E-02  7.8026599981240E-02 
 7.8026600197989E-02  7.8026600006538E-02  7.8026600000171E-02  7.8026600000004E-02  7.8026600000000E-02  7.8026600000000E-02  7.8026600000000E-02  7.8026599999984E-02  7.8026599999380E-02  7.8026599981240E-02 
 1.3953379988785E-02  1.3953337644751E-02  1.3953295300716E-02  1.3953252956682E-02  1.3953210612648E-02  1.3953168268613E-02  1.3953125924579E-02  1.3953083580545E-02  1.3953041236510E-02  1.3952998892476E-02 
 2.9814999994548E+02  2.9814999996776E+02  2.9814999998709E+02  2.9815000000195E+02  2.9815000001476E+02  2.9815000002699E+02  2.9815000003965E+02  2.9815000005156E+02  2.9815000006441E+02  2.9815000007795E+02 
 6.5000471412550E-01  6.5000471412551E-01  6.5000471412550E-01  6.5000471412550E-01  6.5000471412551E-01  6.5000471412550E-01  6.5000471412551E-01  6.5000471412550E-01  6.5000471412550E-01  6.5000471412551E-01 
 1.3888888888889E-06  2.7777777777778E-06  2.7777777777778E-06  2.7777777777778E-06  2.7777777777778E-06  2.7777777777778E-06  2.7777777777778E-06  2.7777777777778E-06  2.7777777777778E-06  1.3888888888889E-06 
 2.4999528587450E-01  2.4999528587449E-01  2.4999528587450E-01  2.4999528587450E-01  2.4999528587449E-01  2.4999528587450E-01  2.4999528587449E-01  2.4999528587450E-01  2.4999528587450E-01  2.4999528587449E-01 
 1.0000000000000E-01  1.0000000000000E-01  1.0000000000000E-01  1.0000000000000E-01  1.0000000000000E-01  1.0000000000000E-01  1.0000000000000E-01  1.0000000000000E-01  1.0000000000000E-01  1.0000000000000E-01 
 5.0304700503127E-07  5.0304716193674E-07  5.0304718493117E-07  5.0304702826977E-07  5.0304717883808E-07  5.0304717885007E-07  5.0304702831574E-07  5.0304717940729E-07  5.0304718508583E-07  5.0304706244519E-07 
 9.1463113946811E+00  9.1463114017620E+00  9.1463114091167E+00  9.1463114099221E+00  9.1463114102615E+00  9.1463114106279E+00  9.1463114109974E+00  9.1463114113476E+00  9.1463114125708E+00  9.1463114132547E+00 
 9.1463113946811E+00  9.1463114017620E+00  9.1463114091167E+00  9.1463114099221E+00  9.1463114102615E+00  9.1463114106279E+00  9.1463114109974E+00  9.1463114113476E+00  9.1463114125708E+00  9.1463114132547E+00 
 0.0000000000000E+00  0.0000000000000E+00  0.0000000000000E+00  0.0000000000000E+00  0.0000000000000E+00  0.0000000000000E+00  0.0000000000000E+00  0.0000000000000E+00  0.0000000000000E+00  0.0000000000000E+00 
ZONE T = "SEP , 7.7500E-08", I = 10, SOLUTIONTIME = 7.750000E-08
ZONETYPE = ORDERED
DATAPACKING = BLOCK
STRANDID = 2
 9.6000000000000E-05  9.8777777777778E-05  1.0155555555556E-04  1.0433333333333E-04  1.0711111111111E-04  1.0988888888889E-04  1.1266666666667E-04  1.1544444444444E-04  1.1822222222222E-04  1.2100000000000E-04 
 1.8418314725873E-07  1.8348092101439E-07  1.8344868033742E-07  1.8344754121070E-07  1.8344750625878E-07  1.8344750679432E-07  1.8344760047711E-07  1.8345067800847E-07  1.8351709892339E-07  1.8280353154538E-07 
 8.4394679944590E-01  8.4394679997505E-01  8.4394679999911E-01  8.4394679999997E-01  8.4394680000000E-01  8.4394680000000E-01  8.4394680000000E-01  8.4394680000008E-01  8.4394680000236E-01  8.4394680005242E-01 
 7.8026600277050E-02  7.8026600012475E-02  7.8026600000444E-02  7.8026600000014E-02  7.8026600000000E-02  7.8026600000000E-02  7.8026599999999E-02  7.8026599999958E-02  7.8026599998818E-02  7.8026599973792E-02 
 7.8026600277050E-02  7.8026600012475E-02  7.8026600000444E-02  7.8026600000014E-02  7.8026600000000E-02  7.8026600000000E-02  7.8026599999999E-02  7.8026599999958E-02  7.8026599998818E-02  7.8026599973792E-02 
 1.3953379200146E-02  1.3953336856111E-02  1.3953294512077E-02  1.3953252168043E-02  1.3953209824008E-02  1.3953167479974E-02  1.3953125135940E-02  1.3953082791906E-02  1.3953040447871E-02  1.3952998103837E-02 
 2.9814999991015E+02  2.9814999993981E+02  2.9814999996459E+02  2.9814999998615E+02  2.9815000000445E+02  2.9815000002023E+02  2.9815000003545E+02  2.9815000005046E+02  2.9815000006498E+02  2.9815000007886E+02 
 6.5000471412550E-01  6.5000471412551E-01  6.5000471412550E-01  6.5000471412550E-01  6.5000471412551E-01  6.5000471412550E-01  6.5000471412551E-01  6.5000471412550E-01  6.5000471412550E-01  6.5000471412551E-01 
 1.3888888888889E-06  2.7777777777778E-06  2.7777777777778E-06  2.7777777777778E-06  2.7777777777778E-06  2.7777777777778E-06  2.7777777777778E-06  2.7777777777778E-06  2.7777777777778E-06  1.3888888888889E-06 
 2.4999528587450E-01  2.4999528587449E-01  2.4999528587450E-01  2.4999528587450E-01  2.4999528587449E-01  2.4999528587450E-01  2.4999528587449E-01  2.4999528587450E-01  2.4999528587450E-01  2.4999528587449E-01 
 1.0000000000000E-01  1.0000000000000E-01  1.0000000000000E-01  1.0000000000000E-01  1.0000000000000E-01  1.0000000000000E-01  1.0000000000000E-01  1.0000000000000E-01  1.0000000000000E-01  1.0000000000000E-01 
 7.0883901127177E-07  7.0883916838602E-07  7.0883919161423E-07  7.0883903498749E-07  7.0883918555956E-07  7.0883918557717E-07  7.0883903506597E-07  7.0883918616317E-07  7.0883919187062E-07  7.0883906926486E-07 
 9.1463113884665E+00  9.1463113977458E+00  9.1463114081361E+00  9.1463114096762E+00  9.1463114098435E+00  9.1463114100934E+00  9.1463114111212E+00  9.1463114113724E+00  9.1463114126574E+00  9.1463114142075E+00 
 9.1463113884665E+00  9.1463113977458E+00  9.1463114081361E+00  9.1463114096762E+00  9.1463114098435E+00  9.1463114100934E+00  9.1463114111212E+00  9.1463114113724E+00  9.1463114126574E+00  9.1463114142075E+00 
 0.0000000000000E+00  0.0000000000000E+00  0.0000000000000E+00  0.0000000000000E+00  0.0000000000000E+00  0.0000000000000E+00  0.0000000000000E+00  0.0000000000000E+00  0.0000000000000E+00  0.0000000000000E+00 
ZONE T = "SEP , 1.1125E-07", I = 10, SOLUTIONTIME = 1.112500E-07
ZONETYPE = ORDERED
DATAPACKING = BLOCK
STRANDID = 2
 9.6000000000000E-05  9.8777777777778E-05  1.0155555555556E-04  1.0433333333333E-04  1.0711111111111E-04  1.0988888888889E-04  1.1266666666667E-04  1.1544444444444E-04  1.1822222222222E-04  1.2100000000000E-04 
 1.8447335081827E-07  1.8351264232267E-07  1.8345074539798E-07  1.8344760372840E-07  1.8344746992460E-07  1.8344748556243E-07  1.8344779910144E-07  1.8345364264327E-07  1.8354430234084E-07  1.8280973116870E-07 
 8.4394679921278E-01  8.4394679995068E-01  8.4394679999754E-01  8.4394679999989E-01  8.4394680000000E-01  8.4394680000000E-01  8.4394680000001E-01  8.4394680000023E-01  8.4394680000466E-01  8.4394680007430E-01 
 7.8026600393608E-02  7.8026600024660E-02  7.8026600001229E-02  7.8026600000053E-02  7.8026600000002E-02  7.8026600000000E-02  7.8026599999995E-02  7.8026599999884E-02  7.8026599997668E-02  7.8026599962849E-02 
 7.8026600393608E-02  7.8026600024660E-02  7.8026600001229E-02  7.8026600000053E-02  7.8026600000002E-02  7.8026600000000E-02  7.8026599999995E-02  7.8026599999884E-02  7.8026599997668E-02  7.8026599962849E-02 
 1.3953378017202E-02  1.3953335673168E-02  1.3953293329134E-02  1.3953250985100E-02  1.3953208641065E-02  1.3953166297031E-02  1.3953123952997E-02  1.3953081608962E-02  1.3953039264928E-02  1.3952996920894E-02 
 2.9814999985716E+02  2.9814999989431E+02  2.9814999992684E+02  2.9814999995537E+02  2.9814999998117E+02  2.9815000000436E+02  2.9815000002532E+02  2.9815000004451E+02  2.9815000006281E+02  2.9815000008023E+02 
 6.5000471412550E-01  6.5000471412551E-01  6.5000471412550E-01  6.5000471412550E-01  6.5000471412551E-01  6.5000471412550E-01  6.5000471412551E-01  6.5000471412550E-01  6.5000471412550E-01  6.5000471412551E-01 
 1.3888888888889E-06  2.7777777777778E-06  2.7777777777778E-06  2.7777777777778E-06  2.7777777777778E-06  2.7777777777778E-06  2.7777777777778E-06  2.7777777777778E-06  2.7777777777778E-06  1.3888888888889E-06 
 2.4999528587450E-01  2.4999528587449E-01  2.4999528587450E-01  2.4999528587450E-01  2.4999528587449E-01  2.4999528587450E-01  2.4999528587449E-01  2.4999528587450E-01  2.4999528587450E-01  2.4999528587449E-01 
 1.0000000000000E-01  1.0000000000000E-01  1.0000000000000E-01  1.0000000000000E-01  1.0000000000000E-01  1.0000000000000E-01  1.0000000000000E-01  1.0000000000000E-01  1.0000000000000E-01  1.0000000000000E-01 
 1.0175270203099E-06  1.0175271778712E-06  1.0175272015795E-06  1.0175270450082E-06  1.0175271956280E-06  1.0175271956720E-06  1.0175270451642E-06  1.0175271962892E-06  1.0175272020607E-06  1.0175270794934E-06 
 9.1463113789061E+00  9.1463113921543E+00  9.1463114063785E+00  9.1463114080218E+00  9.1463114094358E+00  9.1463114102184E+00  9.1463114103171E+00  9.1463114111407E+00  9.1463114130401E+00  9.1463114141790E+00 
 9.1463113789061E+00  9.1463113921543E+00  9.1463114063785E+00  9.1463114080218E+00  9.1463114094358E+00  9.1463114102184E+00  9.1463114103171E+00  9.1463114111407E+00  9.1463114130401E+00  9.1463114141790E+00 
 0.0000000000000E+00  0.0000000000000E+00  0.0000000000000E+00  0.0000000000000E+00  0.0000000000000E+00  0.0000000000000E+00  0.0000000000000E+00  0.0000000000000E+00  0.0000000000000E+00  0.0000000000000E+00 
ZONE T = "SEP , 1.6188E-07", I = 10, SOLUTIONTIME = 1.618750E-07
ZONETYPE = ORDERED
DATAPACKING = BLOCK
STRANDID = 2
 9.6000000000000E-05  9.8777777777778E-05  1.0155555555556E-04  1.0433333333333E-04  1.0711111111111E-04  1.0988888888889E-04  1.1266666666667E-04  1.1544444444444E-04  1.1822222222222E-04  1.2100000000000E-04 
 1.8487893772650E-07  1.8357542331040E-07  1.8345670002091E-07  1.8344816248872E-07  1.8344762997747E-07  1.8344766156544E-07  1.8344846554134E-07  1.8345966732500E-07  1.8358229097919E-07  1.8281931690489E-07 
 8.4394679887155E-01  8.4394679990108E-01  8.4394679999303E-01  8.4394679999957E-01  8.4394679999998E-01  8.4394680000000E-01  8.4394680000004E-01  8.4394680000066E-01  8.4394680000933E-01  8.4394680010620E-01 
 7.8026600564226E-02  7.8026600049458E-02  7.8026600003487E-02  7.8026600000216E-02  7.8026600000012E-02  7.8026600000000E-02  7.8026599999980E-02  7.8026599999671E-02  7.8026599995336E-02  7.8026599946899E-02 
 7.8026600564226E-02  7.8026600049458E-02  7.8026600003487E-02  7.8026600000216E-02  7.8026600000012E-02  7.8026600000000E-02  7.8026599999980E-02  7.8026599999671E-02  7.8026599995336E-02  7.8026599946899E-02 
 1.3953376242824E-02  1.3953333898790E-02  1.3953291554756E-02  1.3953249210722E-02  1.3953206866687E-02  1.3953164522653E-02  1.3953122178619E-02  1.3953079834585E-02  1.3953037490550E-02  1.3952995146516E-02 
 2.9814999977774E+02  2.9814999982499E+02  2.9814999986764E+02  2.9814999990599E+02  2.9814999994073E+02  2.9814999997284E+02  2.9815000000231E+02  2.9815000002972E+02  2.9815000005619E+02  2.9815000008225E+02 
 6.5000471412550E-01  6.5000471412551E-01  6.5000471412550E-01  6.5000471412550E-01  6.5000471412551E-01  6.5000471412550E-01  6.5000471412551E-01  6.5000471412550E-01  6.5000471412550E-01  6.5000471412551E-01 
 1.3888888888889E-06  2.7777777777778E-06  2.7777777777778E-06  2.7777777777778E-06  2.7777777777778E-06  2.7777777777778E-06  2.7777777777778E-06  2.7777777777778E-06  2.7777777777778E-06  1.3888888888889E-06 
 2.4999528587450E-01  2.4999528587449E-01  2.4999528587450E-01  2.4999528587450E-01  2.4999528587449E-01  2.4999528587450E-01  2.4999528587449E-01  2.4999528587450E-01  2.4999528587450E-01  2.4999528587449E-01 
 1.0000000000000E-01  1.0000000000000E-01  1.0000000000000E-01  1.0000000000000E-01  1.0000000000000E-01  1.0000000000000E-01  1.0000000000000E-01  1.0000000000000E-01  1.0000000000000E-01  1.0000000000000E-01 
 1.4805590330735E-06  1.4805591916073E-06  1.4805592164027E-06  1.4805590599879E-06  1.4805592106610E-06  1.4805592107496E-06  1.4805590602900E-06  1.4805592114586E-06  1.4805592173595E-06  1.4805590948931E-06 
 9.1463113632327E+00  9.1463113824403E+00  9.1463114039142E+00  9.1463114070052E+00  9.1463114080595E+00  9.1463114089400E+00  9.1463114098931E+00  9.1463114107546E+00  9.1463114133083E+00  9.1463114153028E+00 
 9.1463113632327E+00  9.1463113824403E+00  9.1463114039142E+00  9.1463114070052E+00  9.1463114080595E+00  9.1463114089400E+00  9.1463114098931E+00  9.1463114107546E+00  9.1463114133083E+00  9.1463114153028E+00 
 0.0000000000000E+00  0.0000000000000E+00  0.0000000000000E+00  0.0000000000000E+00  0.0000000000000E+00  0.0000000000000E+00  0.0000000000000E+00  0.0000000000000E+00  0.0000000000000E+00  0.0000000000000E+00 
ZONE T = "SEP , 2.3781E-07", I = 10, SOLUTIONTIME = 2.378125E-07
ZONETYPE = ORDERED
DATAPACKING = BLOCK
STRANDID = 2