TITLE = "Solution on Domain BulkDomain1D_1"
VARIABLES = "x [m]"  
"Vel_axial" 	"MF_sp(ECDMC)" 	"MF_sp(Li+)" 	"MF_sp(PF6-)" 	"Volt(Electroly)" 	"Temperature" 	"Porosity []" 	"Control volume thickness [m]" 	"volFrac MgO(S) []" 	"volFrac ExtraStuff []" 	"qHeat_accum [J/m3]" 	"qHeat_step [W/m3]" 	"Joule_Lyte [W/m3]" 	"Joule_Solid [W/m3]" 	
ZONE T = "SEP , 0.0000E+00", I = 10, SOLUTIONTIME = 0.000000E+00
ZONETYPE = ORDERED
DATAPACKING = BLOCK
STRANDID = 2
 9.6000000000000E-05  9.8777777777778E-05  1.0155555555556E-04  1.0433333333333E-04  1.0711111111111E-04  1.0988888888889E-04  1.1266666666667E-04  1.1544444444444E-04  1.1822222222222E-04  1.2100000000000E-04 
 0.0000000000000E+00  0.0000000000000E+00  0.0000000000000E+00  0.0000000000000E+00  0.0000000000000E+00  0.0000000000000E+00  0.0000000000000E+00  0.0000000000000E+00  0.0000000000000E+00  0.0000000000000E+00 
 8.4394680000000E-01  8.4394680000000E-01  8.4394680000000E-01  8.4394680000000E-01  8.4394680000000E-01  8.4394680000000E-01  8.4394680000000E-01  8.4394680000000E-01  8.4394680000000E-01  8.4394680000000E-01 
 7.8026600000000E-02  7.8026600000000E-02  7.8026600000000E-02  7.8026600000000E-02  7.8026600000000E-02  7.8026600000000E-02  7.8026600000000E-02  7.8026600000000E-02  7.8026600000000E-02  7.8026600000000E-02 
 7.8026600000000E-02  7.8026600000000E-02  7.8026600000000E-02  7.8026600000000E-02  7.8026600000000E-02  7.8026600000000E-02  7.8026600000000E-02  7.8026600000000E-02  7.8026600000000E-02  7.8026600000000E-02 
-7.0000000000000E-02 -7.0000000000000E-02 -7.0000000000000E-02 -7.0000000000000E-02 -7.0000000000000E-02 -7.0000000000000E-02 -7.0000000000000E-02 -7.0000000000000E-02 -7.0000000000000E-02 -7.0000000000000E-02 
 2.9815000000000E+02  2.9815000000000E+02  2.9815000000000E+02  2.9815000000000E+02  2.9815000000000E+02  2.9815000000000E+02  2.9815000000000E+02  2.9815000000000E+02  2.9815000000000E+02  2.9815000000000E+02 
 6.5000471412550E-01  6.5000471412551E-01  6.5000471412550E-01  6.5000471412550E-01  6.5000471412551E-01  6.5000471412550E-01  6.5000471412551E-01  6.5000471412550E-01  6.5000471412550E-01  6.5000471412551E-01 
 1.3888888888889E-06  2.7777777777778E-06  2.7777777777778E-06  2.7777777777778E-06  2.7777777777778E-06  2.7777777777778E-06  2.7777777777778E-06  2.7777777777778E-06  2.7777777777778E-06  1.3888888888889E-06 
 2.4999528587450E-01  2.4999528587449E-01  2.4999528587450E-01  2.4999528587450E-01  2.4999528587449E-01  2.4999528587450E-01  2.4999528587449E-01  2.4999528587450E-01  2.4999528587450E-01  2.4999528587449E-01 
 1.0000000000000E-01  1.0000000000000E-01  1.0000000000000E-01  1.0000000000000E-01  1.0000000000000E-01  1.0000000000000E-01  1.0000000000000E-01  1.0000000000000E-01  1.0000000000000E-01  1.0000000000000E-01 
 0.0000000000000E+00  0.0000000000000E+00  0.0000000000000E+00  0.0000000000000E+00  0.0000000000000E+00  0.0000000000000E+00  0.0000000000000E+00  0.0000000000000E+00  0.0000000000000E+00  0.0000000000000E+00 
 0.0000000000000E+00  0.0000000000000E+00  0.0000000000000E+00  0.0000000000000E+00  0.0000000000000E+00  0.0000000000000E+00  0.0000000000000E+00  0.0000000000000E+00  0.0000000000000E+00  0.0000000000000E+00 
 0.0000000000000E+00  0.0000000000000E+00  0.0000000000000E+00  0.0000000000000E+00  0.0000000000000E+00  0.0000000000000E+00  0.0000000000000E+00  0.0000000000000E+00  0.0000000000000E+00  0.0000000000000E+00 
 0.0000000000000E+00  0.0000000000000E+00  0.0000000000000E+00  0.0000000000000E+00  0.0000000000000E+00  0.0000000000000E+00  0.0000000000000E+00  0.0000000000000E+00  0.0000000000000E+00  0.0000000000000E+00 
ZONE T = "SEP , 1.0000E-08", I = 10, SOLUTIONTIME = 1.000000E-08
ZONETYPE = ORDERED
DATAPACKING = BLOCK
STRANDID = 2
 9.6000000000000E-05  9.8777777777778E-05  1.0155555555556E-04  1.0433333333333E-04  1.0711111111111E-04  1.0988888888889E-04  1.1266666666667E-04  1.1544444444444E-04  1.1822222222222E-04  1.2100000000000E-04 
 1.8354854771634E-07  1.8344929650230E-07  1.8344829248415E-07  1.8344829053880E-07  1.8344829043130E-07  1.8344829044493E-07  1.8344829143912E-07  1.8344837078786E-07  1.8345784751914E-07  1.8279123418368E-07 
 8.4394679992706E-01  8.4394679999925E-01  8.4394679999999E-01  8.4394680000000E-01  8.4394680000000E-01  8.4394680000000E-01  8.4394680000000E-01  8.4394680000000E-01  8.4394680000007E-01  8.4394680000694E-01 
 7.8026600036470E-02  7.8026600000373E-02  7.8026600000004E-02  7.8026600000000E-02  7.8026600000000E-02  7.8026600000000E-02  7.8026600000000E-02  7.8026600000000E-02  7.8026599999964E-02  7.8026599996528E-02 
 7.8026600036470E-02  7.8026600000373E-02  7.8026600000004E-02  7.8026600000000E-02  7.8026600000000E-02  7.8026600000000E-02  7.8026600000000E-02  7.8026600000000E-02  7.8026599999964E-02  7.8026599996528E-02 
 1.3951822780779E-02  1.3951780436695E-02  1.3951738092689E-02  1.3951695748678E-02  1.3951653404594E-02  1.3951611060588E-02  1.3951568716571E-02  1.3951526372496E-02  1.3951484028479E-02  1.3951441684470E-02 
 2.9815000001620E+02  2.9815000000870E+02  2.9815000000446E+02  2.9815000000037E+02  2.9814999999769E+02  2.9814999999471E+02  2.9814999999009E+02  2.9814999998283E+02  2.9814999997143E+02  2.9814999995172E+02 
 6.5000471412550E-01  6.5000471412551E-01  6.5000471412550E-01  6.5000471412550E-01  6.5000471412551E-01  6.5000471412550E-01  6.5000471412551E-01  6.5000471412550E-01  6.5000471412550E-01  6.5000471412551E-01 
 1.3888888888889E-06  2.7777777777778E-06  2.7777777777778E-06  2.7777777777778E-06  2.7777777777778E-06  2.7777777777778E-06  2.7777777777778E-06  2.7777777777778E-06  2.7777777777778E-06  1.3888888888889E-06 
 2.4999528587450E-01  2.4999528587449E-01  2.4999528587450E-01  2.4999528587450E-01  2.4999528587449E-01  2.4999528587450E-01  2.4999528587449E-01  2.4999528587450E-01  2.4999528587450E-01  2.4999528587449E-01 
 1.0000000000000E-01  1.0000000000000E-01  1.0000000000000E-01  1.0000000000000E-01  1.0000000000000E-01  1.0000000000000E-01  1.0000000000000E-01  1.0000000000000E-01  1.0000000000000E-01  1.0000000000000E-01 
 9.1463327504295E-08  9.1463159803626E-08  9.1463003842827E-08  9.1463171544756E-08  9.1463159802609E-08  9.1463014862014E-08  9.1463165406859E-08  9.1463165401695E-08  9.1463020968625E-08  9.1463004321952E-08 
 9.1463327504295E+00  9.1463159803626E+00  9.1463003842827E+00  9.1463171544756E+00  9.1463159802609E+00  9.1463014862014E+00  9.1463165406859E+00  9.1463165401695E+00  9.1463020968625E+00  9.1463004321952E+00 
 9.1463327504295E+00  9.1463159803626E+00  9.1463003842827E+00  9.1463171544756E+00  9.1463159802609E+00  9.1463014862014E+00  9.1463165406859E+00  9.1463165401695E+00  9.1463020968625E+00  9.1463004321952E+00 
 0.0000000000000E+00  0.0000000000000E+00  0.0000000000000E+00  0.0000000000000E+00  0.0000000000000E+00  0.0000000000000E+00  0.0000000000000E+00  0.0000000000000E+00  0.0000000000000E+00  0.0000000000000E+00 
ZONE T = "SEP , 2.0000E-08", I = 10, SOLUTIONTIME = 2.000000E-08
ZONETYPE = ORDERED
DATAPACKING = BLOCK
STRANDID = 2
 9.6000000000000E-05  9.8777777777778E-05  1.0155555555556E-04  1.0433333333333E-04  1.0711111111111E-04  1.0988888888889E-04  1.1266666666667E-04  1.1544444444444E-04  1.1822222222222E-04  1.2100000000000E-04 
 1.8364681528203E-07  1.8345073579786E-07  1.8344774734798E-07  1.8344774896923E-07  1.8344774844534E-07  1.8344774849257E-07  1.8344775051459E-07  1.8344809488358E-07  1.8346680979261E-07  1.8279384263037E-07 
 8.4394679985454E-01  8.4394679999778E-01  8.4394679999997E-01  8.4394680000000E-01  8.4394680000000E-01  8.4394680000000E-01  8.4394680000000E-01  8.4394680000000E-01  8.4394680000021E-01  8.4394680001382E-01 
 7.8026600072732E-02  7.8026600001110E-02  7.8026600000015E-02  7.8026600000000E-02  7.8026600000000E-02  7.8026600000000E-02  7.8026600000000E-02  7.8026599999999E-02  7.8026599999894E-02  7.8026599993088E-02 
 7.8026600072732E-02  7.8026600001110E-02  7.8026600000015E-02  7.8026600000000E-02  7.8026600000000E-02  7.8026600000000E-02  7.8026600000000E-02  7.8026599999999E-02  7.8026599999894E-02  7.8026599993088E-02 
 1.3953381195802E-02  1.3953338851768E-02  1.3953296507733E-02  1.3953254163699E-02  1.3953211819665E-02  1.3953169475630E-02  1.3953127131596E-02  1.3953084787562E-02  1.3953042443527E-02  1.3953000099493E-02 
 2.9815000000046E+02  2.9815000000009E+02  2.9815000000026E+02  2.9814999999936E+02  2.9814999999665E+02  2.9814999999240E+02  2.9814999998567E+02  2.9814999997934E+02  2.9814999996762E+02  2.9814999995216E+02 
 6.5000471412550E-01  6.5000471412551E-01  6.5000471412550E-01  6.5000471412550E-01  6.5000471412551E-01  6.5000471412550E-01  6.5000471412551E-01  6.5000471412550E-01  6.5000471412550E-01  6.5000471412551E-01 
 1.3888888888889E-06  2.7777777777778E-06  2.7777777777778E-06  2.7777777777778E-06  2.7777777777778E-06  2.7777777777778E-06  2.7777777777778E-06  2.7777777777778E-06  2.7777777777778E-06  1.3888888888889E-06 
 2.4999528587450E-01  2.4999528587449E-01  2.4999528587450E-01  2.4999528587450E-01  2.4999528587449E-01  2.4999528587450E-01  2.4999528587449E-01  2.4999528587450E-01  2.4999528587450E-01  2.4999528587449E-01 
 1.0000000000000E-01  1.0000000000000E-01  1.0000000000000E-01  1.0000000000000E-01  1.0000000000000E-01  1.0000000000000E-01  1.0000000000000E-01  1.0000000000000E-01  1.0000000000000E-01  1.0000000000000E-01 
 1.8292644155465E-07  1.8292627387520E-07  1.8292611793906E-07  1.8292628564095E-07  1.8292627389961E-07  1.8292612896039E-07  1.8292627949959E-07  1.8292627949303E-07  1.8292613505739E-07  1.8292611840679E-07 
 9.1463114050353E+00  9.1463114071571E+00  9.1463114096231E+00  9.1463114096197E+00  9.1463114097002E+00  9.1463114098379E+00  9.1463114092727E+00  9.1463114091331E+00  9.1463114088760E+00  9.1463114084840E+00 
 9.1463114050353E+00  9.1463114071571E+00  9.1463114096231E+00  9.1463114096197E+00  9.1463114097002E+00  9.1463114098379E+00  9.1463114092727E+00  9.1463114091331E+00  9.1463114088760E+00  9.1463114084840E+00 
 0.0000000000000E+00  0.0000000000000E+00  0.0000000000000E+00  0.0000000000000E+00  0.0000000000000E+00  0.0000000000000E+00  0.0000000000000E+00  0.0000000000000E+00  0.0000000000000E+00  0.0000000000000E+00 
ZONE T = "SEP , 3.0000E-08", I = 10, SOLUTIONTIME = 3.000000E-08
ZONETYPE = ORDERED
DATAPACKING = BLOCK
STRANDID = 2
 9.6000000000000E-05  9.8777777777778E-05  1.0155555555556E-04  1.0433333333333E-04  1.0711111111111E-04  1.0988888888889E-04  1.1266666666667E-04  1.1544444444444E-04  1.1822222222222E-04  1.2100000000000E-04 
 1.8374421330454E-07  1.8345380554313E-07  1.8344785477722E-07  1.8344774957909E-07  1.8344774801022E-07  1.8344774813104E-07  1.8344779960606E-07  1.8344838124387E-07  1.8347589872256E-07  1.8279525301586E-07 
 8.4394679978242E-01  8.4394679999560E-01  8.4394679999993E-01  8.4394680000000E-01  8.4394680000000E-01  8.4394680000000E-01  8.4394680000000E-01  8.4394680000001E-01  8.4394680000042E-01  8.4394680002066E-01 
 7.8026600108790E-02  7.8026600002201E-02  7.8026600000037E-02  7.8026600000001E-02  7.8026600000000E-02  7.8026600000000E-02  7.8026600000000E-02  7.8026599999996E-02  7.8026599999791E-02  7.8026599989671E-02 
 7.8026600108790E-02  7.8026600002201E-02  7.8026600000037E-02  7.8026600000001E-02  7.8026600000000E-02  7.8026600000000E-02  7.8026600000000E-02  7.8026599999996E-02  7.8026599999791E-02  7.8026599989671E-02 
 1.3953380814325E-02  1.3953338470291E-02  1.3953296126257E-02  1.3953253782222E-02  1.3953211438188E-02  1.3953169094154E-02  1.3953126750119E-02  1.3953084406085E-02  1.3953042062051E-02  1.3952999718017E-02 
 2.9814999998472E+02  2.9814999999196E+02  2.9814999999457E+02  2.9814999999491E+02  2.9814999999309E+02  2.9814999998908E+02  2.9814999998281E+02  2.9814999997483E+02  2.9814999996423E+02  2.9814999995260E+02 
 6.5000471412550E-01  6.5000471412551E-01  6.5000471412550E-01  6.5000471412550E-01  6.5000471412551E-01  6.5000471412550E-01  6.5000471412551E-01  6.5000471412550E-01  6.5000471412550E-01  6.5000471412551E-01 
 1.3888888888889E-06  2.7777777777778E-06  2.7777777777778E-06  2.7777777777778E-06  2.7777777777778E-06  2.7777777777778E-06  2.7777777777778E-06  2.7777777777778E-06  2.7777777777778E-06  1.3888888888889E-06 
 2.4999528587450E-01  2.4999528587449E-01  2.4999528587450E-01  2.4999528587450E-01  2.4999528587449E-01  2.4999528587450E-01  2.4999528587449E-01  2.4999528587450E-01  2.4999528587450E-01  2.4999528587449E-01 
 1.0000000000000E-01  1.0000000000000E-01  1.0000000000000E-01  1.0000000000000E-01  1.0000000000000E-01  1.0000000000000E-01  1.0000000000000E-01  1.0000000000000E-01  1.0000000000000E-01  1.0000000000000E-01 
 2.7438955558048E-07  2.7438938793593E-07  2.7438923203375E-07  2.7438939973480E-07  2.7438938799401E-07  2.7438924305603E-07  2.7438939359335E-07  2.7438939358175E-07  2.7438924914954E-07  2.7438923250477E-07 
 9.1463114025833E+00  9.1463114060735E+00  9.1463114094693E+00  9.1463114093849E+00  9.1463114094397E+00  9.1463114095633E+00  9.1463114093765E+00  9.1463114088719E+00  9.1463114092155E+00  9.1463114097981E+00 
 9.1463114025833E+00  9.1463114060735E+00  9.1463114094693E+00  9.1463114093849E+00  9.1463114094397E+00  9.1463114095633E+00  9.1463114093765E+00  9.1463114088719E+00  9.1463114092155E+00  9.1463114097981E+00 
 0.0000000000000E+00  0.0000000000000E+00  0.0000000000000E+00  0.0000000000000E+00  0.0000000000000E+00  0.0000000000000E+00  0.0000000000000E+00  0.0000000000000E+00  0.0000000000000E+00  0.0000000000000E+00 
ZONE T = "SEP , 4.0000E-08", I = 10, SOLUTIONTIME = 4.000000E-08
ZONETYPE = ORDERED
DATAPACKING = BLOCK
STRANDID = 2
 9.6000000000000E-05  9.8777777777778E-05  1.0155555555556E-04  1.0433333333333E-04  1.0711111111111E-04  1.0988888888889E-04  1.1266666666667E-04  1.1544444444444E-04  1.1822222222222E-04  1.2100000000000E-04 
 1.8383993847264E-07  1.8345779634837E-07  1.8344809431621E-07  1.8344785763757E-07  1.8344785829500E-07  1.8344785860919E-07  1.8344788554118E-07  1.8344878483181E-07  1.8348503076821E-07  1.8279720460915E-07 
 8.4394679971071E-01  8.4394679999273E-01  8.4394679999985E-01  8.4394680000000E-01  8.4394680000000E-01  8.4394680000000E-01  8.4394680000000E-01  8.4394680000001E-01  8.4394680000069E-01  8.4394680002744E-01 
 7.8026600144646E-02  7.8026600003637E-02  7.8026600000074E-02  7.8026600000001E-02  7.8026600000000E-02  7.8026600000000E-02  7.8026600000000E-02  7.8026599999993E-02  7.8026599999655E-02  7.8026599986278E-02 
 7.8026600144646E-02  7.8026600003637E-02  7.8026600000074E-02  7.8026600000001E-02  7.8026600000000E-02  7.8026600000000E-02  7.8026600000000E-02  7.8026599999993E-02  7.8026599999655E-02  7.8026599986278E-02 
 1.3953380432853E-02  1.3953338088819E-02  1.3953295744785E-02  1.3953253400750E-02  1.3953211056716E-02  1.3953168712682E-02  1.3953126368647E-02  1.3953084024613E-02  1.3953041680579E-02  1.3952999336544E-02 
 2.9814999996899E+02  2.9814999997963E+02  2.9814999998447E+02  2.9814999998619E+02  2.9814999998636E+02  2.9814999998423E+02  2.9814999997924E+02  2.9814999997197E+02  2.9814999996311E+02  2.9814999995303E+02 
 6.5000471412550E-01  6.5000471412551E-01  6.5000471412550E-01  6.5000471412550E-01  6.5000471412551E-01  6.5000471412550E-01  6.5000471412551E-01  6.5000471412550E-01  6.5000471412550E-01  6.5000471412551E-01 
 1.3888888888889E-06  2.7777777777778E-06  2.7777777777778E-06  2.7777777777778E-06  2.7777777777778E-06  2.7777777777778E-06  2.7777777777778E-06  2.7777777777778E-06  2.7777777777778E-06  1.3888888888889E-06 
 2.4999528587450E-01  2.4999528587449E-01  2.4999528587450E-01  2.4999528587450E-01  2.4999528587449E-01  2.4999528587450E-01  2.4999528587449E-01  2.4999528587450E-01  2.4999528587450E-01  2.4999528587449E-01 
 1.0000000000000E-01  1.0000000000000E-01  1.0000000000000E-01  1.0000000000000E-01  1.0000000000000E-01  1.0000000000000E-01  1.0000000000000E-01  1.0000000000000E-01  1.0000000000000E-01  1.0000000000000E-01 
 3.6585266957504E-07  3.6585250197948E-07  3.6585234612461E-07  3.6585251382754E-07  3.6585250208673E-07  3.6585235714945E-07  3.6585250768451E-07  3.6585250767122E-07  3.6585236324085E-07  3.6585234659306E-07 
 9.1463113994556E+00  9.1463114043551E+00  9.1463114090855E+00  9.1463114092742E+00  9.1463114092723E+00  9.1463114093420E+00  9.1463114091156E+00  9.1463114089471E+00  9.1463114091313E+00  9.1463114088284E+00 
 9.1463113994556E+00  9.1463114043551E+00  9.1463114090855E+00  9.1463114092742E+00  9.1463114092723E+00  9.1463114093420E+00  9.1463114091156E+00  9.1463114089471E+00  9.1463114091313E+00  9.1463114088284E+00 
 0.0000000000000E+00  0.0000000000000E+00  0.0000000000000E+00  0.0000000000000E+00  0.0000000000000E+00  0.0000000000000E+00  0.0000000000000E+00  0.0000000000000E+00  0.0000000000000E+00  0.0000000000000E+00 
ZONE T = "SEP , 5.5000E-08", I = 10, SOLUTIONTIME = 5.500000E-08
ZONETYPE = ORDERED
DATAPACKING = BLOCK
STRANDID = 2
 9.6000000000000E-05  9.8777777777778E-05  1.0155555555556E-04  1.0433333333333E-04  1.0711111111111E-04  1.0988888888889E-04  1.1266666666667E-04  1.1544444444444E-04  1.1822222222222E-04  1.2100000000000E-04 
 1.8397953119922E-07  1.8346488293446E-07  1.8344764451209E-07  1.8344720253004E-07  1.8344720147972E-07  1.8344720226894E-07  1.8344723556833E-07  1.8344883969099E-07  1.8349760635799E-07  1.8279923395194E-07 
 8.4394679960402E-01  8.4394679998692E-01  8.4394679999966E-01  8.4394679999999E-01  8.4394680000000E-01  8.4394680000000E-01  8.4394680000000E-01  8.4394680000003E-01  8.4394680000124E-01  8.4394680003752E-01 
 7.8026600197989E-02  7.8026600006538E-02  7.8026600000171E-02  7.8026600000004E-02  7.8026600000000E-02  7.8026600000000E-02  7.8026600000000E-02  7.8026599999984E-02  7.8026599999380E-02  7.8026599981240E-02 
 7.8026600197989E-02  7.8026600006538E-02  7.8026600000171E-02  7.8026600000004E-02  7.8026600000000E-02  7.8026600000000E-02  7.8026600000000E-02  7.8026599999984E-02  7.8026599999380E-02  7.8026599981240E-02 
 1.3953379985978E-02  1.3953337641944E-02  1.3953295297910E-02  1.3953252953876E-02  1.3953210609841E-02  1.3953168265807E-02  1.3953125921773E-02  1.3953083577738E-02  1.3953041233704E-02  1.3952998889670E-02 
 2.9814999994539E+02  2.9814999995955E+02  2.9814999996901E+02  2.9814999997423E+02  2.9814999997561E+02  2.9814999997467E+02  2.9814999997188E+02  2.9814999996681E+02  2.9814999996066E+02  2.9814999995369E+02 
 6.5000471412550E-01  6.5000471412551E-01  6.5000471412550E-01  6.5000471412550E-01  6.5000471412551E-01  6.5000471412550E-01  6.5000471412551E-01  6.5000471412550E-01  6.5000471412550E-01  6.5000471412551E-01 
 1.3888888888889E-06  2.7777777777778E-06  2.7777777777778E-06  2.7777777777778E-06  2.7777777777778E-06  2.7777777777778E-06  2.7777777777778E-06  2.7777777777778E-06  2.7777777777778E-06  1.3888888888889E-06 
 2.4999528587450E-01  2.4999528587449E-01  2.4999528587450E-01  2.4999528587450E-01  2.4999528587449E-01  2.4999528587450E-01  2.4999528587449E-01  2.4999528587450E-01  2.4999528587450E-01  2.4999528587449E-01 
 1.0000000000000E-01  1.0000000000000E-01  1.0000000000000E-01  1.0000000000000E-01  1.0000000000000E-01  1.0000000000000E-01  1.0000000000000E-01  1.0000000000000E-01  1.0000000000000E-01  1.0000000000000E-01 
 5.0304734049716E-07  5.0304717300427E-07  5.0304701725279E-07  5.0304718496123E-07  5.0304717322515E-07  5.0304702828262E-07  5.0304717881900E-07  5.0304717880197E-07  5.0304703437616E-07  5.0304701774317E-07 
 9.1463113948083E+00  9.1463114016526E+00  9.1463114085455E+00  9.1463114089127E+00  9.1463114092277E+00  9.1463114088781E+00  9.1463114089664E+00  9.1463114087172E+00  9.1463114090206E+00  9.1463114100075E+00 
 9.1463113948083E+00  9.1463114016526E+00  9.1463114085455E+00  9.1463114089127E+00  9.1463114092277E+00  9.1463114088781E+00  9.1463114089664E+00  9.1463114087172E+00  9.1463114090206E+00  9.1463114100075E+00 
 0.0000000000000E+00  0.0000000000000E+00  0.0000000000000E+00  0.0000000000000E+00  0.0000000000000E+00  0.0000000000000E+00  0.0000000000000E+00  0.0000000000000E+00  0.0000000000000E+00  0.0000000000000E+00 
ZONE T = "SEP , 7.7500E-08", I = 10, SOLUTIONTIME = 7.750000E-08
ZONETYPE = ORDERED
DATAPACKING = BLOCK
STRANDID = 2
 9.6000000000000E-05  9.8777777777778E-05  1.0155555555556E-04  1.0433333333333E-04  1.0711111111111E-04  1.0988888888889E-04  1.1266666666667E-04  1.1544444444444E-04  1.1822222222222E-04  1.2100000000000E-04 
 1.8418302127770E-07  1.8348079503334E-07  1.8344855435638E-07  1.8344741522966E-07  1.8344738027800E-07  1.8344738082509E-07  1.8344749852116E-07  1.8345057606410E-07  1.8351699698076E-07  1.8280342955330E-07 
 8.4394679944590E-01  8.4394679997505E-01  8.4394679999911E-01  8.4394679999997E-01  8.4394680000000E-01  8.4394680000000E-01  8.4394680000000E-01  8.4394680000008E-01  8.4394680000236E-01  8.4394680005242E-01 
 7.8026600277050E-02  7.8026600012475E-02  7.8026600000444E-02  7.8026600000014E-02  7.8026600000000E-02  7.8026600000000E-02  7.8026599999999E-02  7.8026599999958E-02  7.8026599998818E-02  7.8026599973792E-02 
 7.8026600277050E-02  7.8026600012475E-02  7.8026600000444E-02  7.8026600000014E-02  7.8026600000000E-02  7.8026600000000E-02  7.8026599999999E-02  7.8026599999958E-02  7.8026599998818E-02  7.8026599973792E-02 
 1.3953379197339E-02  1.3953336853305E-02  1.3953294509270E-02  1.3953252165236E-02  1.3953209821202E-02  1.3953167477168E-02  1.3953125133133E-02  1.3953082789099E-02  1.3953040445065E-02  1.3952998101030E-02 
 2.9814999991000E+02  2.9814999992888E+02  2.9814999994294E+02  2.9814999995299E+02  2.9814999995891E+02  2.9814999996144E+02  2.9814999996166E+02  2.9814999996094E+02  2.9814999995851E+02  2.9814999995466E+02 
 6.5000471412550E-01  6.5000471412551E-01  6.5000471412550E-01  6.5000471412550E-01  6.5000471412551E-01  6.5000471412550E-01  6.5000471412551E-01  6.5000471412550E-01  6.5000471412550E-01  6.5000471412551E-01 
 1.3888888888889E-06  2.7777777777778E-06  2.7777777777778E-06  2.7777777777778E-06  2.7777777777778E-06  2.7777777777778E-06  2.7777777777778E-06  2.7777777777778E-06  2.7777777777778E-06  1.3888888888889E-06 
 2.4999528587450E-01  2.4999528587449E-01  2.4999528587450E-01  2.4999528587450E-01  2.4999528587449E-01  2.4999528587450E-01  2.4999528587449E-01  2.4999528587450E-01  2.4999528587450E-01  2.4999528587449E-01 
 1.0000000000000E-01  1.0000000000000E-01  1.0000000000000E-01  1.0000000000000E-01  1.0000000000000E-01  1.0000000000000E-01  1.0000000000000E-01  1.0000000000000E-01  1.0000000000000E-01  1.0000000000000E-01 
 7.0883934674148E-07  7.0883917945265E-07  7.0883902392564E-07  7.0883919165140E-07  7.0883917991076E-07  7.0883903497472E-07  7.0883918551912E-07  7.0883918549339E-07  7.0883904108282E-07  7.0883902447383E-07 
 9.1463113886364E+00  9.1463113977058E+00  9.1463114076821E+00  9.1463114084519E+00  9.1463114082497E+00  9.1463114085381E+00  9.1463114088940E+00  9.1463114085074E+00  9.1463114091848E+00  9.1463114102515E+00 
 9.1463113886364E+00  9.1463113977058E+00  9.1463114076821E+00  9.1463114084519E+00  9.1463114082497E+00  9.1463114085381E+00  9.1463114088940E+00  9.1463114085074E+00  9.1463114091848E+00  9.1463114102515E+00 
 0.0000000000000E+00  0.0000000000000E+00  0.0000000000000E+00  0.0000000000000E+00  0.0000000000000E+00  0.0000000000000E+00  0.0000000000000E+00  0.0000000000000E+00  0.0000000000000E+00  0.0000000000000E+00 
ZONE T = "SEP , 1.1125E-07", I = 10, SOLUTIONTIME = 1.112500E-07
ZONETYPE = ORDERED
DATAPACKING = BLOCK
STRANDID = 2
 9.6000000000000E-05  9.8777777777778E-05  1.0155555555556E-04  1.0433333333333E-04  1.0711111111111E-04  1.0988888888889E-04  1.1266666666667E-04  1.1544444444444E-04  1.1822222222222E-04  1.2100000000000E-04 
 1.8447344987200E-07  1.8351274137630E-07  1.8345084445161E-07  1.8344770278202E-07  1.8344756897786E-07  1.8344758460461E-07  1.8344788214191E-07  1.8345372567274E-07  1.8354438537209E-07  1.8280981414963E-07 
 8.4394679921278E-01  8.4394679995068E-01  8.4394679999754E-01  8.4394679999989E-01  8.4394680000000E-01  8.4394680000000E-01  8.4394680000001E-01  8.4394680000023E-01  8.4394680000466E-01  8.4394680007430E-01 
 7.8026600393608E-02  7.8026600024660E-02  7.8026600001229E-02  7.8026600000053E-02  7.8026600000002E-02  7.8026600000000E-02  7.8026599999995E-02  7.8026599999884E-02  7.8026599997668E-02  7.8026599962849E-02 
 7.8026600393608E-02  7.8026600024660E-02  7.8026600001229E-02  7.8026600000053E-02  7.8026600000002E-02  7.8026600000000E-02  7.8026599999995E-02  7.8026599999884E-02  7.8026599997668E-02  7.8026599962849E-02 
 1.3953378014394E-02  1.3953335670360E-02  1.3953293326325E-02  1.3953250982291E-02  1.3953208638257E-02  1.3953166294223E-02  1.3953123950188E-02  1.3953081606154E-02  1.3953039262120E-02  1.3952996918085E-02 
 2.9814999985694E+02  2.9814999988301E+02  2.9814999990333E+02  2.9814999991946E+02  2.9814999993150E+02  2.9814999994069E+02  2.9814999994645E+02  2.9814999995092E+02  2.9814999995386E+02  2.9814999995612E+02 
 6.5000471412550E-01  6.5000471412551E-01  6.5000471412550E-01  6.5000471412550E-01  6.5000471412551E-01  6.5000471412550E-01  6.5000471412551E-01  6.5000471412550E-01  6.5000471412550E-01  6.5000471412551E-01 
 1.3888888888889E-06  2.7777777777778E-06  2.7777777777778E-06  2.7777777777778E-06  2.7777777777778E-06  2.7777777777778E-06  2.7777777777778E-06  2.7777777777778E-06  2.7777777777778E-06  1.3888888888889E-06 
 2.4999528587450E-01  2.4999528587449E-01  2.4999528587450E-01  2.4999528587450E-01  2.4999528587449E-01  2.4999528587450E-01  2.4999528587449E-01  2.4999528587450E-01  2.4999528587450E-01  2.4999528587449E-01 
 1.0000000000000E-01  1.0000000000000E-01  1.0000000000000E-01  1.0000000000000E-01  1.0000000000000E-01  1.0000000000000E-01  1.0000000000000E-01  1.0000000000000E-01  1.0000000000000E-01  1.0000000000000E-01 
 1.0175273557855E-06  1.0175271889246E-06  1.0175270338647E-06  1.0175272016464E-06  1.0175271899169E-06  1.0175270449967E-06  1.0175271955471E-06  1.0175271955268E-06  1.0175270511580E-06  1.0175270345701E-06 
 9.1463113790829E+00  9.1463113917603E+00  9.1463114056023E+00  9.1463114072603E+00  9.1463114075891E+00  9.1463114080591E+00  9.1463114082365E+00  9.1463114083961E+00  9.1463114096362E+00  9.1463114102597E+00 
 9.1463113790829E+00  9.1463113917603E+00  9.1463114056023E+00  9.1463114072603E+00  9.1463114075891E+00  9.1463114080591E+00  9.1463114082365E+00  9.1463114083961E+00  9.1463114096362E+00  9.1463114102597E+00 
 0.0000000000000E+00  0.0000000000000E+00  0.0000000000000E+00  0.0000000000000E+00  0.0000000000000E+00  0.0000000000000E+00  0.0000000000000E+00  0.0000000000000E+00  0.0000000000000E+00  0.0000000000000E+00 
ZONE T = "SEP , 1.6188E-07", I = 10, SOLUTIONTIME = 1.618750E-07
ZONETYPE = ORDERED
DATAPACKING = BLOCK
STRANDID = 2
 9.6000000000000E-05  9.8777777777778E-05  1.0155555555556E-04  1.0433333333333E-04  1.0711111111111E-04  1.0988888888889E-04  1.1266666666667E-04  1.1544444444444E-04  1.1822222222222E-04  1.2100000000000E-04 
 1.8487899370806E-07  1.8357547929209E-07  1.8345675600781E-07  1.8344822380622E-07  1.8344769130017E-07  1.8344772288838E-07  1.8344852686430E-07  1.8345972864811E-07  1.8358235230529E-07  1.8281937817789E-07 
 8.4394679887155E-01  8.4394679990108E-01  8.4394679999303E-01  8.4394679999957E-01  8.4394679999998E-01  8.4394680000000E-01  8.4394680000004E-01  8.4394680000066E-01  8.4394680000933E-01  8.4394680010620E-01 
 7.8026600564226E-02  7.8026600049458E-02  7.8026600003487E-02  7.8026600000216E-02  7.8026600000012E-02  7.8026600000000E-02  7.8026599999980E-02  7.8026599999671E-02  7.8026599995336E-02  7.8026599946899E-02 
 7.8026600564226E-02  7.8026600049458E-02  7.8026600003487E-02  7.8026600000216E-02  7.8026600000012E-02  7.8026600000000E-02  7.8026599999980E-02  7.8026599999671E-02  7.8026599995336E-02  7.8026599946899E-02 
 1.3953376240014E-02  1.3953333895980E-02  1.3953291551946E-02  1.3953249207911E-02  1.3953206863877E-02  1.3953164519843E-02  1.3953122175808E-02  1.3953079831774E-02  1.3953037487740E-02  1.3952995143705E-02 
 2.9814999977738E+02  2.9814999981142E+02  2.9814999984063E+02  2.9814999986550E+02  2.9814999988695E+02  2.9814999990533E+02  2.9814999992102E+02  2.9814999993418E+02  2.9814999994634E+02  2.9814999995827E+02 
 6.5000471412550E-01  6.5000471412551E-01  6.5000471412550E-01  6.5000471412550E-01  6.5000471412551E-01  6.5000471412550E-01  6.5000471412551E-01  6.5000471412550E-01  6.5000471412550E-01  6.5000471412551E-01 
 1.3888888888889E-06  2.7777777777778E-06  2.7777777777778E-06  2.7777777777778E-06  2.7777777777778E-06  2.7777777777778E-06  2.7777777777778E-06  2.7777777777778E-06  2.7777777777778E-06  1.3888888888889E-06 
 2.4999528587450E-01  2.4999528587449E-01  2.4999528587450E-01  2.4999528587450E-01  2.4999528587449E-01  2.4999528587450E-01  2.4999528587449E-01  2.4999528587450E-01  2.4999528587450E-01  2.4999528587449E-01 
 1.0000000000000E-01  1.0000000000000E-01  1.0000000000000E-01  1.0000000000000E-01  1.0000000000000E-01  1.0000000000000E-01  1.0000000000000E-01  1.0000000000000E-01  1.0000000000000E-01  1.0000000000000E-01 
 1.4805593685600E-06  1.4805592026438E-06  1.4805590486350E-06  1.4805592165561E-06  1.4805592048629E-06  1.4805590599705E-06  1.4805592105528E-06  1.4805592105411E-06  1.4805590662859E-06  1.4805590498099E-06 
 9.1463113634463E+00  9.1463113821089E+00  9.1463114028696E+00  9.1463114056229E+00  9.1463114063404E+00  9.1463114068897E+00  9.1463114075194E+00  9.1463114076908E+00  9.1463114099321E+00  9.1463114121447E+00 
 9.1463113634463E+00  9.1463113821089E+00  9.1463114028696E+00  9.1463114056229E+00  9.1463114063404E+00  9.1463114068897E+00  9.1463114075194E+00  9.1463114076908E+00  9.1463114099321E+00  9.1463114121447E+00 
 0.0000000000000E+00  0.0000000000000E+00  0.0000000000000E+00  0.0000000000000E+00  0.0000000000000E+00  0.0000000000000E+00  0.0000000000000E+00  0.0000000000000E+00  0.0000000000000E+00  0.0000000000000E+00 
ZONE T = "SEP , 2.3781E-07", I = 10, SOLUTIONTIME = 2.378125E-07
ZONETYPE = ORDERED
DATAPACKING = BLOCK
STRANDID = 2