TITLE = "Solution on Domain BulkDomain1D_1"
VARIABLES = "x [m]"  
"Vel_axial" 	"MF_sp(ECDMC)" 	"MF_sp(Li+)" 	"MF_sp(PF6-)" 	"Volt(Electroly)" 	"Temperature" 	"Porosity []" 	"Control volume thickness [m]" 	"volFrac MgO(S) []" 	"volFrac ExtraStuff []" 	"qHeat_accum [J/m3]" 	"qHeat_step [W/m3]" 	"Joule_Lyte [W/m3]" 	"Joule_Solid [W/m3]" 	
ZONE T = "SEP , 0.0000E+00", I = 10, SOLUTIONTIME = 0.000000E+00
ZONETYPE = ORDERED
DATAPACKING = BLOCK
STRANDID = 2
 9.6000000000000E-05  9.8777777777778E-05  1.0155555555556E-04  1.0433333333333E-04  1.0711111111111E-04  1.0988888888889E-04  1.1266666666667E-04  1.1544444444444E-04  1.1822222222222E-04  1.2100000000000E-04 
 0.0000000000000E+00  0.0000000000000E+00  0.0000000000000E+00  0.0000000000000E+00  0.0000000000000E+00  0.0000000000000E+00  0.0000000000000E+00  0.0000000000000E+00  0.0000000000000E+00  0.0000000000000E+00 
 8.4394680000000E-01  8.4394680000000E-01  8.4394680000000E-01  8.4394680000000E-01  8.4394680000000E-01  8.4394680000000E-01  8.4394680000000E-01  8.4394680000000E-01  8.4394680000000E-01  8.4394680000000E-01 
 7.8026600000000E-02  7.8026600000000E-02  7.8026600000000E-02  7.8026600000000E-02  7.8026600000000E-02  7.8026600000000E-02  7.8026600000000E-02  7.8026600000000E-02  7.8026600000000E-02  7.8026600000000E-02 
 7.8026600000000E-02  7.8026600000000E-02  7.8026600000000E-02  7.8026600000000E-02  7.8026600000000E-02  7.8026600000000E-02  7.8026600000000E-02  7.8026600000000E-02  7.8026600000000E-02  7.8026600000000E-02 
-7.0000000000000E-02 -7.0000000000000E-02 -7.0000000000000E-02 -7.0000000000000E-02 -7.0000000000000E-02 -7.0000000000000E-02 -7.0000000000000E-02 -7.0000000000000E-02 -7.0000000000000E-02 -7.0000000000000E-02 
 2.9815000000000E+02  2.9815000000000E+02  2.9815000000000E+02  2.9815000000000E+02  2.9815000000000E+02  2.9815000000000E+02  2.9815000000000E+02  2.9815000000000E+02  2.9815000000000E+02  2.9815000000000E+02 
 6.5000471412550E-01  6.5000471412551E-01  6.5000471412550E-01  6.5000471412550E-01  6.5000471412551E-01  6.5000471412550E-01  6.5000471412551E-01  6.5000471412550E-01  6.5000471412550E-01  6.5000471412551E-01 
 1.3888888888889E-06  2.7777777777778E-06  2.7777777777778E-06  2.7777777777778E-06  2.7777777777778E-06  2.7777777777778E-06  2.7777777777778E-06  2.7777777777778E-06  2.7777777777778E-06  1.3888888888889E-06 
 2.4999528587450E-01  2.4999528587449E-01  2.4999528587450E-01  2.4999528587450E-01  2.4999528587449E-01  2.4999528587450E-01  2.4999528587449E-01  2.4999528587450E-01  2.4999528587450E-01  2.4999528587449E-01 
 1.0000000000000E-01  1.0000000000000E-01  1.0000000000000E-01  1.0000000000000E-01  1.0000000000000E-01  1.0000000000000E-01  1.0000000000000E-01  1.0000000000000E-01  1.0000000000000E-01  1.0000000000000E-01 
 0.0000000000000E+00  0.0000000000000E+00  0.0000000000000E+00  0.0000000000000E+00  0.0000000000000E+00  0.0000000000000E+00  0.0000000000000E+00  0.0000000000000E+00  0.0000000000000E+00  0.0000000000000E+00 
 0.0000000000000E+00  0.0000000000000E+00  0.0000000000000E+00  0.0000000000000E+00  0.0000000000000E+00  0.0000000000000E+00  0.0000000000000E+00  0.0000000000000E+00  0.0000000000000E+00  0.0000000000000E+00 
 0.0000000000000E+00  0.0000000000000E+00  0.0000000000000E+00  0.0000000000000E+00  0.0000000000000E+00  0.0000000000000E+00  0.0000000000000E+00  0.0000000000000E+00  0.0000000000000E+00  0.0000000000000E+00 
 0.0000000000000E+00  0.0000000000000E+00  0.0000000000000E+00  0.0000000000000E+00  0.0000000000000E+00  0.0000000000000E+00  0.0000000000000E+00  0.0000000000000E+00  0.0000000000000E+00  0.0000000000000E+00 
ZONE T = "SEP , 1.0000E-08", I = 10, SOLUTIONTIME = 1.000000E-08
ZONETYPE = ORDERED
DATAPACKING = BLOCK
STRANDID = 2
 9.6000000000000E-05  9.8777777777778E-05  1.0155555555556E-04  1.0433333333333E-04  1.0711111111111E-04  1.0988888888889E-04  1.1266666666667E-04  1.1544444444444E-04  1.1822222222222E-04  1.2100000000000E-04 
 1.8354876173412E-07  1.8344950823952E-07  1.8344850420855E-07  1.8344850227510E-07  1.8344850216766E-07  1.8344850216689E-07  1.8344850316991E-07  1.8344858254032E-07  1.8345806353268E-07  1.8279146290274E-07 
 8.4394679992706E-01  8.4394679999925E-01  8.4394679999999E-01  8.4394680000000E-01  8.4394680000000E-01  8.4394680000000E-01  8.4394680000000E-01  8.4394680000000E-01  8.4394680000007E-01  8.4394680000694E-01 
 7.8026600036470E-02  7.8026600000373E-02  7.8026600000004E-02  7.8026600000000E-02  7.8026600000000E-02  7.8026600000000E-02  7.8026600000000E-02  7.8026600000000E-02  7.8026599999964E-02  7.8026599996528E-02 
 7.8026600036470E-02  7.8026600000373E-02  7.8026600000004E-02  7.8026600000000E-02  7.8026600000000E-02  7.8026600000000E-02  7.8026600000000E-02  7.8026600000000E-02  7.8026599999964E-02  7.8026599996528E-02 
 1.3944291311212E-02  1.3944248967208E-02  1.3944206623189E-02  1.3944164279107E-02  1.3944121935104E-02  1.3944079591020E-02  1.3944037247006E-02  1.3943994902991E-02  1.3943952558921E-02  1.3943910214904E-02 
 2.9814999998303E+02  2.9814999999067E+02  2.9814999999465E+02  2.9814999999592E+02  2.9814999999647E+02  2.9814999999729E+02  2.9814999999959E+02  2.9815000000292E+02  2.9815000000752E+02  2.9815000001392E+02 
 6.5000471412550E-01  6.5000471412551E-01  6.5000471412550E-01  6.5000471412550E-01  6.5000471412551E-01  6.5000471412550E-01  6.5000471412551E-01  6.5000471412550E-01  6.5000471412550E-01  6.5000471412551E-01 
 1.3888888888889E-06  2.7777777777778E-06  2.7777777777778E-06  2.7777777777778E-06  2.7777777777778E-06  2.7777777777778E-06  2.7777777777778E-06  2.7777777777778E-06  2.7777777777778E-06  1.3888888888889E-06 
 2.4999528587450E-01  2.4999528587449E-01  2.4999528587450E-01  2.4999528587450E-01  2.4999528587449E-01  2.4999528587450E-01  2.4999528587449E-01  2.4999528587450E-01  2.4999528587450E-01  2.4999528587449E-01 
 1.0000000000000E-01  1.0000000000000E-01  1.0000000000000E-01  1.0000000000000E-01  1.0000000000000E-01  1.0000000000000E-01  1.0000000000000E-01  1.0000000000000E-01  1.0000000000000E-01  1.0000000000000E-01 
 9.1462981716182E-08  9.1463016175781E-08  9.1463183818371E-08  9.1463149364035E-08  9.1463154988046E-08  9.1463177735742E-08  9.1463027229160E-08  9.1463149384167E-08  9.1463155005818E-08  9.1463038479524E-08 
 9.1462981716182E+00  9.1463016175781E+00  9.1463183818371E+00  9.1463149364035E+00  9.1463154988046E+00  9.1463177735742E+00  9.1463027229160E+00  9.1463149384167E+00  9.1463155005818E+00  9.1463038479524E+00 
 9.1462981716182E+00  9.1463016175781E+00  9.1463183818371E+00  9.1463149364035E+00  9.1463154988046E+00  9.1463177735742E+00  9.1463027229160E+00  9.1463149384167E+00  9.1463155005818E+00  9.1463038479524E+00 
 0.0000000000000E+00  0.0000000000000E+00  0.0000000000000E+00  0.0000000000000E+00  0.0000000000000E+00  0.0000000000000E+00  0.0000000000000E+00  0.0000000000000E+00  0.0000000000000E+00  0.0000000000000E+00 
ZONE T = "SEP , 2.0000E-08", I = 10, SOLUTIONTIME = 2.000000E-08
ZONETYPE = ORDERED
DATAPACKING = BLOCK
STRANDID = 2
 9.6000000000000E-05  9.8777777777778E-05  1.0155555555556E-04  1.0433333333333E-04  1.0711111111111E-04  1.0988888888889E-04  1.1266666666667E-04  1.1544444444444E-04  1.1822222222222E-04  1.2100000000000E-04 
 1.8364641073215E-07  1.8345038530677E-07  1.8344739686902E-07  1.8344739849040E-07  1.8344739796651E-07  1.8344739801374E-07  1.8344740003576E-07  1.8344774440475E-07  1.8346645931332E-07  1.8279349219442E-07 
 8.4394679985454E-01  8.4394679999778E-01  8.4394679999997E-01  8.4394680000000E-01  8.4394680000000E-01  8.4394680000000E-01  8.4394680000000E-01  8.4394680000000E-01  8.4394680000021E-01  8.4394680001382E-01 
 7.8026600072732E-02  7.8026600001110E-02  7.8026600000015E-02  7.8026600000000E-02  7.8026600000000E-02  7.8026600000000E-02  7.8026600000000E-02  7.8026599999999E-02  7.8026599999894E-02  7.8026599993088E-02 
 7.8026600072732E-02  7.8026600001110E-02  7.8026600000015E-02  7.8026600000000E-02  7.8026600000000E-02  7.8026600000000E-02  7.8026600000000E-02  7.8026599999999E-02  7.8026599999894E-02  7.8026599993088E-02 
 1.3945847740534E-02  1.3945805396500E-02  1.3945763052466E-02  1.3945720708432E-02  1.3945678364397E-02  1.3945636020363E-02  1.3945593676329E-02  1.3945551332294E-02  1.3945508988260E-02  1.3945466644226E-02 
 2.9814999996731E+02  2.9814999997989E+02  2.9814999998704E+02  2.9814999999231E+02  2.9814999999554E+02  2.9814999999868E+02  2.9815000000180E+02  2.9815000000593E+02  2.9815000000984E+02  2.9815000001433E+02 
 6.5000471412550E-01  6.5000471412551E-01  6.5000471412550E-01  6.5000471412550E-01  6.5000471412551E-01  6.5000471412550E-01  6.5000471412551E-01  6.5000471412550E-01  6.5000471412550E-01  6.5000471412551E-01 
 1.3888888888889E-06  2.7777777777778E-06  2.7777777777778E-06  2.7777777777778E-06  2.7777777777778E-06  2.7777777777778E-06  2.7777777777778E-06  2.7777777777778E-06  2.7777777777778E-06  1.3888888888889E-06 
 2.4999528587450E-01  2.4999528587449E-01  2.4999528587450E-01  2.4999528587450E-01  2.4999528587449E-01  2.4999528587450E-01  2.4999528587449E-01  2.4999528587450E-01  2.4999528587450E-01  2.4999528587449E-01 
 1.0000000000000E-01  1.0000000000000E-01  1.0000000000000E-01  1.0000000000000E-01  1.0000000000000E-01  1.0000000000000E-01  1.0000000000000E-01  1.0000000000000E-01  1.0000000000000E-01  1.0000000000000E-01 
 1.8292609575973E-07  1.8292613024277E-07  1.8292629791123E-07  1.8292626345866E-07  1.8292626908528E-07  1.8292629183575E-07  1.8292614132813E-07  1.8292626348193E-07  1.8292626910752E-07  1.8292615258582E-07 
 9.1463114043548E+00  9.1463114066985E+00  9.1463114092854E+00  9.1463114094629E+00  9.1463114097230E+00  9.1463114100010E+00  9.1463114098973E+00  9.1463114097765E+00  9.1463114101706E+00  9.1463114106298E+00 
 9.1463114043548E+00  9.1463114066985E+00  9.1463114092854E+00  9.1463114094629E+00  9.1463114097230E+00  9.1463114100010E+00  9.1463114098973E+00  9.1463114097765E+00  9.1463114101706E+00  9.1463114106298E+00 
 0.0000000000000E+00  0.0000000000000E+00  0.0000000000000E+00  0.0000000000000E+00  0.0000000000000E+00  0.0000000000000E+00  0.0000000000000E+00  0.0000000000000E+00  0.0000000000000E+00  0.0000000000000E+00 
ZONE T = "SEP , 3.0000E-08", I = 10, SOLUTIONTIME = 3.000000E-08
ZONETYPE = ORDERED
DATAPACKING = BLOCK
STRANDID = 2
 9.6000000000000E-05  9.8777777777778E-05  1.0155555555556E-04  1.0433333333333E-04  1.0711111111111E-04  1.0988888888889E-04  1.1266666666667E-04  1.1544444444444E-04  1.1822222222222E-04  1.2100000000000E-04 
 1.8374403414068E-07  1.8345360165570E-07  1.8344765089603E-07  1.8344749402516E-07  1.8344749246858E-07  1.8344749258947E-07  1.8344754405842E-07  1.8344809866696E-07  1.8347561613912E-07  1.8279497047569E-07 
 8.4394679978242E-01  8.4394679999560E-01  8.4394679999993E-01  8.4394680000000E-01  8.4394680000000E-01  8.4394680000000E-01  8.4394680000000E-01  8.4394680000001E-01  8.4394680000042E-01  8.4394680002066E-01 
 7.8026600108790E-02  7.8026600002201E-02  7.8026600000037E-02  7.8026600000001E-02  7.8026600000000E-02  7.8026600000000E-02  7.8026600000000E-02  7.8026599999996E-02  7.8026599999791E-02  7.8026599989671E-02 
 7.8026600108790E-02  7.8026600002201E-02  7.8026600000037E-02  7.8026600000001E-02  7.8026600000000E-02  7.8026600000000E-02  7.8026600000000E-02  7.8026599999996E-02  7.8026599999791E-02  7.8026599989671E-02 
 1.3945847359057E-02  1.3945805015023E-02  1.3945762670989E-02  1.3945720326955E-02  1.3945677982920E-02  1.3945635638886E-02  1.3945593294852E-02  1.3945550950817E-02  1.3945508606783E-02  1.3945466262749E-02 
 2.9814999995160E+02  2.9814999996672E+02  2.9814999997741E+02  2.9814999998621E+02  2.9814999999218E+02  2.9814999999861E+02  2.9815000000378E+02  2.9815000000830E+02  2.9815000001143E+02  2.9815000001474E+02 
 6.5000471412550E-01  6.5000471412551E-01  6.5000471412550E-01  6.5000471412550E-01  6.5000471412551E-01  6.5000471412550E-01  6.5000471412551E-01  6.5000471412550E-01  6.5000471412550E-01  6.5000471412551E-01 
 1.3888888888889E-06  2.7777777777778E-06  2.7777777777778E-06  2.7777777777778E-06  2.7777777777778E-06  2.7777777777778E-06  2.7777777777778E-06  2.7777777777778E-06  2.7777777777778E-06  1.3888888888889E-06 
 2.4999528587450E-01  2.4999528587449E-01  2.4999528587450E-01  2.4999528587450E-01  2.4999528587449E-01  2.4999528587450E-01  2.4999528587449E-01  2.4999528587450E-01  2.4999528587450E-01  2.4999528587449E-01 
 1.0000000000000E-01  1.0000000000000E-01  1.0000000000000E-01  1.0000000000000E-01  1.0000000000000E-01  1.0000000000000E-01  1.0000000000000E-01  1.0000000000000E-01  1.0000000000000E-01  1.0000000000000E-01 
 2.7438920977203E-07  2.7438924429249E-07  2.7438941199991E-07  2.7438937755149E-07  2.7438938317975E-07  2.7438940593213E-07  2.7438925542662E-07  2.7438937758277E-07  2.7438938321508E-07  2.7438926669701E-07 
 9.1463114012303E+00  9.1463114049728E+00  9.1463114088686E+00  9.1463114092822E+00  9.1463114094472E+00  9.1463114096379E+00  9.1463114098492E+00  9.1463114100840E+00  9.1463114107559E+00  9.1463114111185E+00 
 9.1463114012303E+00  9.1463114049728E+00  9.1463114088686E+00  9.1463114092822E+00  9.1463114094472E+00  9.1463114096379E+00  9.1463114098492E+00  9.1463114100840E+00  9.1463114107559E+00  9.1463114111185E+00 
 0.0000000000000E+00  0.0000000000000E+00  0.0000000000000E+00  0.0000000000000E+00  0.0000000000000E+00  0.0000000000000E+00  0.0000000000000E+00  0.0000000000000E+00  0.0000000000000E+00  0.0000000000000E+00 
ZONE T = "SEP , 4.0000E-08", I = 10, SOLUTIONTIME = 4.000000E-08
ZONETYPE = ORDERED
DATAPACKING = BLOCK
STRANDID = 2
 9.6000000000000E-05  9.8777777777778E-05  1.0155555555556E-04  1.0433333333333E-04  1.0711111111111E-04  1.0988888888889E-04  1.1266666666667E-04  1.1544444444444E-04  1.1822222222222E-04  1.2100000000000E-04 
 1.8383982620159E-07  1.8345765892105E-07  1.8344800859253E-07  1.8344777051849E-07  1.8344777122544E-07  1.8344777154001E-07  1.8344779845979E-07  1.8344874942914E-07  1.8348502238206E-07  1.8279719627231E-07 
 8.4394679971071E-01  8.4394679999273E-01  8.4394679999985E-01  8.4394680000000E-01  8.4394680000000E-01  8.4394680000000E-01  8.4394680000000E-01  8.4394680000001E-01  8.4394680000069E-01  8.4394680002744E-01 
 7.8026600144646E-02  7.8026600003637E-02  7.8026600000074E-02  7.8026600000001E-02  7.8026600000000E-02  7.8026600000000E-02  7.8026600000000E-02  7.8026599999993E-02  7.8026599999655E-02  7.8026599986278E-02 
 7.8026600144646E-02  7.8026600003637E-02  7.8026600000074E-02  7.8026600000001E-02  7.8026600000000E-02  7.8026600000000E-02  7.8026600000000E-02  7.8026599999993E-02  7.8026599999655E-02  7.8026599986278E-02 
 1.3945846977587E-02  1.3945804633553E-02  1.3945762289519E-02  1.3945719945485E-02  1.3945677601450E-02  1.3945635257416E-02  1.3945592913382E-02  1.3945550569347E-02  1.3945508225313E-02  1.3945465881279E-02 
 2.9814999993589E+02  2.9814999995467E+02  2.9814999996954E+02  2.9814999998110E+02  2.9814999998948E+02  2.9814999999642E+02  2.9815000000296E+02  2.9815000000667E+02  2.9815000001106E+02  2.9815000001515E+02 
 6.5000471412550E-01  6.5000471412551E-01  6.5000471412550E-01  6.5000471412550E-01  6.5000471412551E-01  6.5000471412550E-01  6.5000471412551E-01  6.5000471412550E-01  6.5000471412550E-01  6.5000471412551E-01 
 1.3888888888889E-06  2.7777777777778E-06  2.7777777777778E-06  2.7777777777778E-06  2.7777777777778E-06  2.7777777777778E-06  2.7777777777778E-06  2.7777777777778E-06  2.7777777777778E-06  1.3888888888889E-06 
 2.4999528587450E-01  2.4999528587449E-01  2.4999528587450E-01  2.4999528587450E-01  2.4999528587449E-01  2.4999528587450E-01  2.4999528587449E-01  2.4999528587450E-01  2.4999528587450E-01  2.4999528587449E-01 
 1.0000000000000E-01  1.0000000000000E-01  1.0000000000000E-01  1.0000000000000E-01  1.0000000000000E-01  1.0000000000000E-01  1.0000000000000E-01  1.0000000000000E-01  1.0000000000000E-01  1.0000000000000E-01 
 3.6585232375301E-07  3.6585235832482E-07  3.6585252608787E-07  3.6585249164217E-07  3.6585249727520E-07  3.6585252002912E-07  3.6585236952553E-07  3.6585249168391E-07  3.6585249731784E-07  3.6585238080588E-07 
 9.1463113980980E+00  9.1463114032328E+00  9.1463114087956E+00  9.1463114090682E+00  9.1463114095448E+00  9.1463114096986E+00  9.1463114098909E+00  9.1463114101133E+00  9.1463114102762E+00  9.1463114108872E+00 
 9.1463113980980E+00  9.1463114032328E+00  9.1463114087956E+00  9.1463114090682E+00  9.1463114095448E+00  9.1463114096986E+00  9.1463114098909E+00  9.1463114101133E+00  9.1463114102762E+00  9.1463114108872E+00 
 0.0000000000000E+00  0.0000000000000E+00  0.0000000000000E+00  0.0000000000000E+00  0.0000000000000E+00  0.0000000000000E+00  0.0000000000000E+00  0.0000000000000E+00  0.0000000000000E+00  0.0000000000000E+00 
ZONE T = "SEP , 5.5000E-08", I = 10, SOLUTIONTIME = 5.500000E-08
ZONETYPE = ORDERED
DATAPACKING = BLOCK
STRANDID = 2
 9.6000000000000E-05  9.8777777777778E-05  1.0155555555556E-04  1.0433333333333E-04  1.0711111111111E-04  1.0988888888889E-04  1.1266666666667E-04  1.1544444444444E-04  1.1822222222222E-04  1.2100000000000E-04 
 1.8397938811143E-07  1.8346472023369E-07  1.8344744708741E-07  1.8344700571350E-07  1.8344704076663E-07  1.8344704156912E-07  1.8344707488702E-07  1.8344869576089E-07  1.8349746244557E-07  1.8279909008661E-07 
 8.4394679960402E-01  8.4394679998692E-01  8.4394679999966E-01  8.4394679999999E-01  8.4394680000000E-01  8.4394680000000E-01  8.4394680000000E-01  8.4394680000003E-01  8.4394680000124E-01  8.4394680003752E-01 
 7.8026600197989E-02  7.8026600006538E-02  7.8026600000171E-02  7.8026600000004E-02  7.8026600000000E-02  7.8026600000000E-02  7.8026600000000E-02  7.8026599999984E-02  7.8026599999380E-02  7.8026599981240E-02 
 7.8026600197989E-02  7.8026600006538E-02  7.8026600000171E-02  7.8026600000004E-02  7.8026600000000E-02  7.8026600000000E-02  7.8026600000000E-02  7.8026599999984E-02  7.8026599999380E-02  7.8026599981240E-02 
 1.3945846530713E-02  1.3945804186678E-02  1.3945761842644E-02  1.3945719498610E-02  1.3945677154576E-02  1.3945634810541E-02  1.3945592466507E-02  1.3945550122473E-02  1.3945507778438E-02  1.3945465434404E-02 
 2.9814999991232E+02  2.9814999993435E+02  2.9814999995223E+02  2.9814999996703E+02  2.9814999997922E+02  2.9814999998872E+02  2.9814999999697E+02  2.9815000000349E+02  2.9815000000945E+02  2.9815000001576E+02 
 6.5000471412550E-01  6.5000471412551E-01  6.5000471412550E-01  6.5000471412550E-01  6.5000471412551E-01  6.5000471412550E-01  6.5000471412551E-01  6.5000471412550E-01  6.5000471412550E-01  6.5000471412551E-01 
 1.3888888888889E-06  2.7777777777778E-06  2.7777777777778E-06  2.7777777777778E-06  2.7777777777778E-06  2.7777777777778E-06  2.7777777777778E-06  2.7777777777778E-06  2.7777777777778E-06  1.3888888888889E-06 
 2.4999528587450E-01  2.4999528587449E-01  2.4999528587450E-01  2.4999528587450E-01  2.4999528587449E-01  2.4999528587450E-01  2.4999528587449E-01  2.4999528587450E-01  2.4999528587450E-01  2.4999528587449E-01 
 1.0000000000000E-01  1.0000000000000E-01  1.0000000000000E-01  1.0000000000000E-01  1.0000000000000E-01  1.0000000000000E-01  1.0000000000000E-01  1.0000000000000E-01  1.0000000000000E-01  1.0000000000000E-01 
 5.0304699466606E-07  5.0304702933866E-07  5.0304719720678E-07  5.0304716277341E-07  5.0304716841199E-07  5.0304719117262E-07  5.0304704067090E-07  5.0304716283145E-07  5.0304716848115E-07  5.0304705197545E-07 
 9.1463113942034E+00  9.1463114009227E+00  9.1463114079274E+00  9.1463114087494E+00  9.1463114091197E+00  9.1463114095667E+00  9.1463114096913E+00  9.1463114098362E+00  9.1463114108872E+00  9.1463114113047E+00 
 9.1463113942034E+00  9.1463114009227E+00  9.1463114079274E+00  9.1463114087494E+00  9.1463114091197E+00  9.1463114095667E+00  9.1463114096913E+00  9.1463114098362E+00  9.1463114108872E+00  9.1463114113047E+00 
 0.0000000000000E+00  0.0000000000000E+00  0.0000000000000E+00  0.0000000000000E+00  0.0000000000000E+00  0.0000000000000E+00  0.0000000000000E+00  0.0000000000000E+00  0.0000000000000E+00  0.0000000000000E+00 
ZONE T = "SEP , 7.7500E-08", I = 10, SOLUTIONTIME = 7.750000E-08
ZONETYPE = ORDERED
DATAPACKING = BLOCK
STRANDID = 2
 9.6000000000000E-05  9.8777777777778E-05  1.0155555555556E-04  1.0433333333333E-04  1.0711111111111E-04  1.0988888888889E-04  1.1266666666667E-04  1.1544444444444E-04  1.1822222222222E-04  1.2100000000000E-04 
 1.8418322590511E-07  1.8348101147519E-07  1.8344877083877E-07  1.8344763104331E-07  1.8344757214886E-07  1.8344757268599E-07  1.8344769038183E-07  1.8345076792474E-07  1.8351718884035E-07  1.8280362145372E-07 
 8.4394679944590E-01  8.4394679997505E-01  8.4394679999911E-01  8.4394679999997E-01  8.4394680000000E-01  8.4394680000000E-01  8.4394680000000E-01  8.4394680000008E-01  8.4394680000236E-01  8.4394680005242E-01 
 7.8026600277050E-02  7.8026600012475E-02  7.8026600000444E-02  7.8026600000014E-02  7.8026600000000E-02  7.8026600000000E-02  7.8026599999999E-02  7.8026599999958E-02  7.8026599998818E-02  7.8026599973792E-02 
 7.8026600277050E-02  7.8026600012475E-02  7.8026600000444E-02  7.8026600000014E-02  7.8026600000000E-02  7.8026600000000E-02  7.8026599999999E-02  7.8026599999958E-02  7.8026599998818E-02  7.8026599973792E-02 
 1.3945845742073E-02  1.3945803398039E-02  1.3945761054004E-02  1.3945718709970E-02  1.3945676365936E-02  1.3945634021901E-02  1.3945591677867E-02  1.3945549333833E-02  1.3945506989799E-02  1.3945464645764E-02 
 2.9814999987698E+02  2.9814999990530E+02  2.9814999992889E+02  2.9814999994811E+02  2.9814999996373E+02  2.9814999997727E+02  2.9814999998857E+02  2.9814999999954E+02  2.9815000000854E+02  2.9815000001667E+02 
 6.5000471412550E-01  6.5000471412551E-01  6.5000471412550E-01  6.5000471412550E-01  6.5000471412551E-01  6.5000471412550E-01  6.5000471412551E-01  6.5000471412550E-01  6.5000471412550E-01  6.5000471412551E-01 
 1.3888888888889E-06  2.7777777777778E-06  2.7777777777778E-06  2.7777777777778E-06  2.7777777777778E-06  2.7777777777778E-06  2.7777777777778E-06  2.7777777777778E-06  2.7777777777778E-06  1.3888888888889E-06 
 2.4999528587450E-01  2.4999528587449E-01  2.4999528587450E-01  2.4999528587450E-01  2.4999528587449E-01  2.4999528587450E-01  2.4999528587449E-01  2.4999528587450E-01  2.4999528587450E-01  2.4999528587449E-01 
 1.0000000000000E-01  1.0000000000000E-01  1.0000000000000E-01  1.0000000000000E-01  1.0000000000000E-01  1.0000000000000E-01  1.0000000000000E-01  1.0000000000000E-01  1.0000000000000E-01  1.0000000000000E-01 
 7.0883900087933E-07  7.0883903576958E-07  7.0883920387253E-07  7.0883916945842E-07  7.0883917510249E-07  7.0883919787908E-07  7.0883904738606E-07  7.0883916954685E-07  7.0883917522906E-07  7.0883905875175E-07 
 9.1463113872564E+00  9.1463113969298E+00  9.1463114073665E+00  9.1463114082228E+00  9.1463114084664E+00  9.1463114091759E+00  9.1463114095625E+00  9.1463114095734E+00  9.1463114110182E+00  9.1463114122800E+00 
 9.1463113872564E+00  9.1463113969298E+00  9.1463114073665E+00  9.1463114082228E+00  9.1463114084664E+00  9.1463114091759E+00  9.1463114095625E+00  9.1463114095734E+00  9.1463114110182E+00  9.1463114122800E+00 
 0.0000000000000E+00  0.0000000000000E+00  0.0000000000000E+00  0.0000000000000E+00  0.0000000000000E+00  0.0000000000000E+00  0.0000000000000E+00  0.0000000000000E+00  0.0000000000000E+00  0.0000000000000E+00 
ZONE T = "SEP , 1.1125E-07", I = 10, SOLUTIONTIME = 1.112500E-07
ZONETYPE = ORDERED
DATAPACKING = BLOCK
STRANDID = 2
 9.6000000000000E-05  9.8777777777778E-05  1.0155555555556E-04  1.0433333333333E-04  1.0711111111111E-04  1.0988888888889E-04  1.1266666666667E-04  1.1544444444444E-04  1.1822222222222E-04  1.2100000000000E-04 
 1.8447333074585E-07  1.8351262216916E-07  1.8345073329027E-07  1.8344759239391E-07  1.8344745866786E-07  1.8344747428614E-07  1.8344775582180E-07  1.8345359934152E-07  1.8354425903906E-07  1.8280968786119E-07 
 8.4394679921278E-01  8.4394679995068E-01  8.4394679999754E-01  8.4394679999989E-01  8.4394680000000E-01  8.4394680000000E-01  8.4394680000001E-01  8.4394680000023E-01  8.4394680000466E-01  8.4394680007430E-01 
 7.8026600393608E-02  7.8026600024660E-02  7.8026600001229E-02  7.8026600000053E-02  7.8026600000002E-02  7.8026600000000E-02  7.8026599999995E-02  7.8026599999884E-02  7.8026599997668E-02  7.8026599962849E-02 
 7.8026600393608E-02  7.8026600024660E-02  7.8026600001229E-02  7.8026600000053E-02  7.8026600000002E-02  7.8026600000000E-02  7.8026599999995E-02  7.8026599999884E-02  7.8026599997668E-02  7.8026599962849E-02 
 1.3945844559130E-02  1.3945802215095E-02  1.3945759871061E-02  1.3945717527027E-02  1.3945675182993E-02  1.3945632838958E-02  1.3945590494924E-02  1.3945548150890E-02  1.3945505806855E-02  1.3945463462821E-02 
 2.9814999982399E+02  2.9814999985932E+02  2.9814999988981E+02  2.9814999991557E+02  2.9814999993784E+02  2.9814999995730E+02  2.9814999997369E+02  2.9814999998908E+02  2.9815000000388E+02  2.9815000001804E+02 
 6.5000471412550E-01  6.5000471412551E-01  6.5000471412550E-01  6.5000471412550E-01  6.5000471412551E-01  6.5000471412550E-01  6.5000471412551E-01  6.5000471412550E-01  6.5000471412550E-01  6.5000471412551E-01 
 1.3888888888889E-06  2.7777777777778E-06  2.7777777777778E-06  2.7777777777778E-06  2.7777777777778E-06  2.7777777777778E-06  2.7777777777778E-06  2.7777777777778E-06  2.7777777777778E-06  1.3888888888889E-06 
 2.4999528587450E-01  2.4999528587449E-01  2.4999528587450E-01  2.4999528587450E-01  2.4999528587449E-01  2.4999528587450E-01  2.4999528587449E-01  2.4999528587450E-01  2.4999528587450E-01  2.4999528587449E-01 
 1.0000000000000E-01  1.0000000000000E-01  1.0000000000000E-01  1.0000000000000E-01  1.0000000000000E-01  1.0000000000000E-01  1.0000000000000E-01  1.0000000000000E-01  1.0000000000000E-01  1.0000000000000E-01 
 1.0175270098768E-06  1.0175270452152E-06  1.0175272138005E-06  1.0175271794447E-06  1.0175271851273E-06  1.0175272079217E-06  1.0175270574363E-06  1.0175271796163E-06  1.0175271853536E-06  1.0175270689165E-06 
 9.1463113777034E+00  9.1463113909812E+00  9.1463114052719E+00  9.1463114070004E+00  9.1463114081436E+00  9.1463114086708E+00  9.1463114088973E+00  9.1463114094663E+00  9.1463114110989E+00  9.1463114122896E+00 
 9.1463113777034E+00  9.1463113909812E+00  9.1463114052719E+00  9.1463114070004E+00  9.1463114081436E+00  9.1463114086708E+00  9.1463114088973E+00  9.1463114094663E+00  9.1463114110989E+00  9.1463114122896E+00 
 0.0000000000000E+00  0.0000000000000E+00  0.0000000000000E+00  0.0000000000000E+00  0.0000000000000E+00  0.0000000000000E+00  0.0000000000000E+00  0.0000000000000E+00  0.0000000000000E+00  0.0000000000000E+00 
ZONE T = "SEP , 1.6188E-07", I = 10, SOLUTIONTIME = 1.618750E-07
ZONETYPE = ORDERED
DATAPACKING = BLOCK
STRANDID = 2
 9.6000000000000E-05  9.8777777777778E-05  1.0155555555556E-04  1.0433333333333E-04  1.0711111111111E-04  1.0988888888889E-04  1.1266666666667E-04  1.1544444444444E-04  1.1822222222222E-04  1.2100000000000E-04 
 1.8487894259419E-07  1.8357542812012E-07  1.8345669992703E-07  1.8344816734674E-07  1.8344763490387E-07  1.8344766650502E-07  1.8344848113213E-07  1.8345968209891E-07  1.8358231679561E-07  1.8281934271432E-07 
 8.4394679887155E-01  8.4394679990108E-01  8.4394679999303E-01  8.4394679999957E-01  8.4394679999998E-01  8.4394680000000E-01  8.4394680000004E-01  8.4394680000066E-01  8.4394680000933E-01  8.4394680010620E-01 
 7.8026600564226E-02  7.8026600049458E-02  7.8026600003487E-02  7.8026600000216E-02  7.8026600000012E-02  7.8026600000000E-02  7.8026599999980E-02  7.8026599999671E-02  7.8026599995336E-02  7.8026599946899E-02 
 7.8026600564226E-02  7.8026600049458E-02  7.8026600003487E-02  7.8026600000216E-02  7.8026600000012E-02  7.8026600000000E-02  7.8026599999980E-02  7.8026599999671E-02  7.8026599995336E-02  7.8026599946899E-02 
 1.3945842784750E-02  1.3945800440715E-02  1.3945758096681E-02  1.3945715752647E-02  1.3945673408613E-02  1.3945631064578E-02  1.3945588720544E-02  1.3945546376510E-02  1.3945504032475E-02  1.3945461688441E-02 
 2.9814999974455E+02  2.9814999978847E+02  2.9814999982776E+02  2.9814999986301E+02  2.9814999989481E+02  2.9814999992347E+02  2.9814999994980E+02  2.9814999997401E+02  2.9814999999724E+02  2.9815000002008E+02 
 6.5000471412550E-01  6.5000471412551E-01  6.5000471412550E-01  6.5000471412550E-01  6.5000471412551E-01  6.5000471412550E-01  6.5000471412551E-01  6.5000471412550E-01  6.5000471412550E-01  6.5000471412551E-01 
 1.3888888888889E-06  2.7777777777778E-06  2.7777777777778E-06  2.7777777777778E-06  2.7777777777778E-06  2.7777777777778E-06  2.7777777777778E-06  2.7777777777778E-06  2.7777777777778E-06  1.3888888888889E-06 
 2.4999528587450E-01  2.4999528587449E-01  2.4999528587450E-01  2.4999528587450E-01  2.4999528587449E-01  2.4999528587450E-01  2.4999528587449E-01  2.4999528587450E-01  2.4999528587450E-01  2.4999528587449E-01 
 1.0000000000000E-01  1.0000000000000E-01  1.0000000000000E-01  1.0000000000000E-01  1.0000000000000E-01  1.0000000000000E-01  1.0000000000000E-01  1.0000000000000E-01  1.0000000000000E-01  1.0000000000000E-01 
 1.4805590225808E-06  1.4805590588942E-06  1.4805592285716E-06  1.4805591943393E-06  1.4805592000801E-06  1.4805592229241E-06  1.4805590724730E-06  1.4805591947016E-06  1.4805592005732E-06  1.4805590842585E-06 
 9.1463113620537E+00  9.1463113813127E+00  9.1463114028874E+00  9.1463114053248E+00  9.1463114064745E+00  9.1463114074545E+00  9.1463114081321E+00  9.1463114090917E+00  9.1463114117443E+00  9.1463114141631E+00 
 9.1463113620537E+00  9.1463113813127E+00  9.1463114028874E+00  9.1463114053248E+00  9.1463114064745E+00  9.1463114074545E+00  9.1463114081321E+00  9.1463114090917E+00  9.1463114117443E+00  9.1463114141631E+00 
 0.0000000000000E+00  0.0000000000000E+00  0.0000000000000E+00  0.0000000000000E+00  0.0000000000000E+00  0.0000000000000E+00  0.0000000000000E+00  0.0000000000000E+00  0.0000000000000E+00  0.0000000000000E+00 
ZONE T = "SEP , 2.3781E-07", I = 10, SOLUTIONTIME = 2.378125E-07
ZONETYPE = ORDERED
DATAPACKING = BLOCK
STRANDID = 2