TITLE = "Solution on Domain BulkDomain1D_0"
VARIABLES = "x [m]"  
"Vel_axial" 
"MF_sp(ECDMC)" 
"MF_sp(Li+)" 
"MF_sp(PF6-)" 
"Volt(Electroly)" 
"Volt(AnodeVolt)" 
"Temperature" 
"Potential Drop Electrode-Electrolyte [V]" 
"Surf_0 Equilibrium Potential Drop Electrode-Electrolyte [V]" 
"Overpotential_0 [V]" 
"Current Source [A/m^2]" 
"Li+ flux [kmol/m^2/s]" 
"Electrolyte Current [A/m^2]" 
"Electrode Current [A/m^2]" 
"CV Capacity discharged [A-s/m^2]" 
"Depth of discharge in CV [A-s/m^2]" 
"CV Capacity remaining [A-s/m^2]" 
"Initial CV capacity [A-s/m^2]" 
"Porosity []" 
"Surface Area [m2/m2] (area per area)" 
"Specific current (per particle area) [A/m^2]" 
"Control volume thickness [m]" 
"volFrac AnodeBinder []" 	"volFrac ExtraStuff []" 	"MoleDens Li_C6-bulk [kmol/m^3]" 
"MoleDens V_C6-bulk [kmol/m^3]" 
"qHeat_accum [J/m3]" 
"qHeat_step [W/m3]" 
"Joule_Lyte [W/m3]" 
"Joule_Solid [W/m3]" 
"electrodHeat [W/m3]" 
"OverpotHeat [W/m3]" 
"deltaSHeat [W/m3]" 

ZONE T = "ANOD, 0.0000E+00", I = 10, SOLUTIONTIME = 0.000000E+00
ZONETYPE = ORDERED
DATAPACKING = BLOCK
STRANDID = 1
 0.0000000000000E+00  1.0666666666667E-05  2.1333333333333E-05  3.2000000000000E-05  4.2666666666667E-05  5.3333333333333E-05  6.4000000000000E-05  7.4666666666667E-05  8.5333333333333E-05  9.6000000000000E-05 
 0.0000000000000E+00  0.0000000000000E+00  0.0000000000000E+00  0.0000000000000E+00  0.0000000000000E+00  0.0000000000000E+00  0.0000000000000E+00  0.0000000000000E+00  0.0000000000000E+00  0.0000000000000E+00 
 8.4394680000000E-01  8.4394680000000E-01  8.4394680000000E-01  8.4394680000000E-01  8.4394680000000E-01  8.4394680000000E-01  8.4394680000000E-01  8.4394680000000E-01  8.4394680000000E-01  8.4394680000000E-01 
 7.8026600000000E-02  7.8026600000000E-02  7.8026600000000E-02  7.8026600000000E-02  7.8026600000000E-02  7.8026600000000E-02  7.8026600000000E-02  7.8026600000000E-02  7.8026600000000E-02  7.8026600000000E-02 
 7.8026600000000E-02  7.8026600000000E-02  7.8026600000000E-02  7.8026600000000E-02  7.8026600000000E-02  7.8026600000000E-02  7.8026600000000E-02  7.8026600000000E-02  7.8026600000000E-02  7.8026600000000E-02 
-7.0000000000000E-02 -7.0000000000000E-02 -7.0000000000000E-02 -7.0000000000000E-02 -7.0000000000000E-02 -7.0000000000000E-02 -7.0000000000000E-02 -7.0000000000000E-02 -7.0000000000000E-02 -7.0000000000000E-02 
 0.0000000000000E+00  0.0000000000000E+00  0.0000000000000E+00  0.0000000000000E+00  0.0000000000000E+00  0.0000000000000E+00  0.0000000000000E+00  0.0000000000000E+00  0.0000000000000E+00  0.0000000000000E+00 
 2.9815000000000E+02  2.9815000000000E+02  2.9815000000000E+02  2.9815000000000E+02  2.9815000000000E+02  2.9815000000000E+02  2.9815000000000E+02  2.9815000000000E+02  2.9815000000000E+02  2.9815000000000E+02 
 7.0000000000000E-02  7.0000000000000E-02  7.0000000000000E-02  7.0000000000000E-02  7.0000000000000E-02  7.0000000000000E-02  7.0000000000000E-02  7.0000000000000E-02  7.0000000000000E-02  7.0000000000000E-02 
-2.4231251306822E-02 -2.4231251306822E-02 -2.4231251306822E-02 -2.4231251306822E-02 -2.4231251306820E-02 -2.4231251306822E-02 -2.4231251306822E-02 -2.4231251306820E-02 -2.4231251306820E-02 -2.4231251306820E-02 
 9.4231251306822E-02  9.4231251306822E-02  9.4231251306822E-02  9.4231251306822E-02  9.4231251306820E-02  9.4231251306822E-02  9.4231251306822E-02  9.4231251306820E-02  9.4231251306820E-02  9.4231251306820E-02 
 5.2596104508283E+02  1.0519220901657E+03  1.0519220901657E+03  1.0519220901657E+03  1.0519220901656E+03  1.0519220901657E+03  1.0519220901657E+03  1.0519220901656E+03  1.0519220901656E+03  5.2596104508281E+02 
-0.0000000000000E+00 -0.0000000000000E+00 -0.0000000000000E+00 -0.0000000000000E+00 -0.0000000000000E+00 -0.0000000000000E+00 -0.0000000000000E+00 -0.0000000000000E+00 -0.0000000000000E+00 -0.0000000000000E+00 
 0.0000000000000E+00  0.0000000000000E+00  0.0000000000000E+00  0.0000000000000E+00  0.0000000000000E+00  0.0000000000000E+00  0.0000000000000E+00  0.0000000000000E+00  0.0000000000000E+00  5.2596104508281E+02 
 5.2596104508283E+02 -0.0000000000000E+00 -0.0000000000000E+00 -0.0000000000000E+00 -0.0000000000000E+00 -0.0000000000000E+00 -0.0000000000000E+00 -0.0000000000000E+00 -0.0000000000000E+00  0.0000000000000E+00 
 0.0000000000000E+00  0.0000000000000E+00  0.0000000000000E+00  0.0000000000000E+00  0.0000000000000E+00  0.0000000000000E+00  0.0000000000000E+00  0.0000000000000E+00  0.0000000000000E+00  0.0000000000000E+00 
 1.4095380717934E+03  2.8190761435868E+03  2.8190761435868E+03  2.8190761435868E+03  2.8190761435868E+03  2.8190761435868E+03  2.8190761435868E+03  2.8190761435868E+03  2.8190761435868E+03  1.4095380717934E+03 
 5.6381522871735E+03  1.1276304574347E+04  1.1276304574347E+04  1.1276304574347E+04  1.1276304574347E+04  1.1276304574347E+04  1.1276304574347E+04  1.1276304574347E+04  1.1276304574347E+04  5.6381522871735E+03 
 7.0476903589669E+03  1.4095380717934E+04  1.4095380717934E+04  1.4095380717934E+04  1.4095380717934E+04  1.4095380717934E+04  1.4095380717934E+04  1.4095380717934E+04  1.4095380717934E+04  7.0476903589669E+03 
 4.0000000000000E-01  4.0000000000000E-01  4.0000000000000E-01  4.0000000000000E-01  4.0000000000000E-01  4.0000000000000E-01  4.0000000000000E-01  4.0000000000000E-01  4.0000000000000E-01  4.0000000000000E-01 
 9.4000000000000E-01  1.8800000000000E+00  1.8800000000000E+00  1.8800000000000E+00  1.8800000000000E+00  1.8800000000000E+00  1.8800000000000E+00  1.8800000000000E+00  1.8800000000000E+00  9.4000000000000E-01 
 5.5953302668386E+02  5.5953302668386E+02  5.5953302668386E+02  5.5953302668386E+02  5.5953302668385E+02  5.5953302668386E+02  5.5953302668386E+02  5.5953302668385E+02  5.5953302668385E+02  5.5953302668385E+02 
 5.3333333333333E-06  1.0666666666667E-05  1.0666666666667E-05  1.0666666666667E-05  1.0666666666667E-05  1.0666666666667E-05  1.0666666666667E-05  1.0666666666667E-05  1.0666666666667E-05  5.3333333333333E-06 
 3.0000000000000E-02  3.0000000000000E-02  3.0000000000000E-02  3.0000000000000E-02  3.0000000000000E-02  3.0000000000000E-02  3.0000000000000E-02  3.0000000000000E-02  3.0000000000000E-02  3.0000000000000E-02 
 1.0000000000000E-01  1.0000000000000E-01  1.0000000000000E-01  1.0000000000000E-01  1.0000000000000E-01  1.0000000000000E-01  1.0000000000000E-01  1.0000000000000E-01  1.0000000000000E-01  1.0000000000000E-01 
 1.0956624007712E+01  1.0956624007712E+01  1.0956624007712E+01  1.0956624007712E+01  1.0956624007712E+01  1.0956624007712E+01  1.0956624007712E+01  1.0956624007712E+01  1.0956624007712E+01  1.0956624007712E+01 
 2.7391560019279E+00  2.7391560019279E+00  2.7391560019279E+00  2.7391560019279E+00  2.7391560019279E+00  2.7391560019279E+00  2.7391560019279E+00  2.7391560019279E+00  2.7391560019279E+00  2.7391560019279E+00 
 0.0000000000000E+00  0.0000000000000E+00  0.0000000000000E+00  0.0000000000000E+00  0.0000000000000E+00  0.0000000000000E+00  0.0000000000000E+00  0.0000000000000E+00  0.0000000000000E+00  0.0000000000000E+00 
 0.0000000000000E+00  0.0000000000000E+00  0.0000000000000E+00  0.0000000000000E+00  0.0000000000000E+00  0.0000000000000E+00  0.0000000000000E+00  0.0000000000000E+00  0.0000000000000E+00  0.0000000000000E+00 
 0.0000000000000E+00  0.0000000000000E+00  0.0000000000000E+00  0.0000000000000E+00  0.0000000000000E+00  0.0000000000000E+00  0.0000000000000E+00  0.0000000000000E+00  0.0000000000000E+00  0.0000000000000E+00 
 0.0000000000000E+00  0.0000000000000E+00  0.0000000000000E+00  0.0000000000000E+00  0.0000000000000E+00  0.0000000000000E+00  0.0000000000000E+00  0.0000000000000E+00  0.0000000000000E+00  0.0000000000000E+00 
 0.0000000000000E+00  0.0000000000000E+00  0.0000000000000E+00  0.0000000000000E+00  0.0000000000000E+00  0.0000000000000E+00  0.0000000000000E+00  0.0000000000000E+00  0.0000000000000E+00  0.0000000000000E+00 
 0.0000000000000E+00  0.0000000000000E+00  0.0000000000000E+00  0.0000000000000E+00  0.0000000000000E+00  0.0000000000000E+00  0.0000000000000E+00  0.0000000000000E+00  0.0000000000000E+00  0.0000000000000E+00 
 0.0000000000000E+00  0.0000000000000E+00  0.0000000000000E+00  0.0000000000000E+00  0.0000000000000E+00  0.0000000000000E+00  0.0000000000000E+00  0.0000000000000E+00  0.0000000000000E+00  0.0000000000000E+00 
ZONE T = "ANOD, 1.0000E-08", I = 10, SOLUTIONTIME = 1.000000E-08
ZONETYPE = ORDERED
DATAPACKING = BLOCK
STRANDID = 1
 0.0000000000000E+00  1.0666666666667E-05  2.1333333333333E-05  3.2000000000000E-05  4.2666666666667E-05  5.3333333333333E-05  6.4000000000000E-05  7.4666666666667E-05  8.5333333333333E-05  9.6000000000000E-05 
 1.0618257980535E-08  3.1582952044489E-08  5.2309136164300E-08  7.2829594464663E-08  9.3176730852677E-08  1.1338263461898E-07  1.3347915886875E-07  1.5349779277869E-07  1.7347548507608E-07  1.8354898406354E-07 
 8.4394679988890E-01  8.4394679989032E-01  8.4394679989157E-01  8.4394679989264E-01  8.4394679989355E-01  8.4394679989429E-01  8.4394679989486E-01  8.4394679989527E-01  8.4394679989553E-01  8.4394679992706E-01 
 7.8026600055550E-02  7.8026600054841E-02  7.8026600054217E-02  7.8026600053679E-02  7.8026600053226E-02  7.8026600052856E-02  7.8026600052570E-02  7.8026600052366E-02  7.8026600052236E-02  7.8026600036470E-02 
 7.8026600055550E-02  7.8026600054841E-02  7.8026600054217E-02  7.8026600053679E-02  7.8026600053226E-02  7.8026600052856E-02  7.8026600052570E-02  7.8026600052366E-02  7.8026600052236E-02  7.8026600036470E-02 
 1.3953492039249E-02  1.3953472543524E-02  1.3953414554902E-02  1.3953318511024E-02  1.3953184789655E-02  1.3953013708933E-02  1.3952805528304E-02  1.3952560448703E-02  1.3952278613212E-02  1.3951960106825E-02 
 0.0000000000000E+00 -1.2973559955982E-04 -2.4373406783295E-04 -3.4217435236804E-04 -4.2521084501027E-04 -4.9297365163708E-04 -5.4556882021428E-04 -5.8307852501663E-04 -6.0556120956728E-04 -6.1305168906522E-04 
 2.9814999994907E+02  2.9814999998243E+02  2.9814999998257E+02  2.9814999998269E+02  2.9814999998279E+02  2.9815000001607E+02  2.9814999994972E+02  2.9815000001616E+02  2.9814999994978E+02  2.9814999998300E+02 
-1.3953492039249E-02 -1.4083208143084E-02 -1.4197148622735E-02 -1.4295492863392E-02 -1.4378395634665E-02 -1.4445987360570E-02 -1.4498374348518E-02 -1.4535638973720E-02 -1.4557839822779E-02 -1.4565011795890E-02 
-2.4231250896410E-02 -2.4231250913925E-02 -2.4231250918369E-02 -2.4231250922211E-02 -2.4231250925436E-02 -2.4231250940516E-02 -2.4231250917656E-02 -2.4231250944003E-02 -2.4231250919973E-02 -2.4231250937881E-02 
 1.0277758857161E-02  1.0148042770841E-02  1.0034102295634E-02  9.9357580588186E-03  9.8528552907704E-03  9.7852635799466E-03  9.7328765691380E-03  9.6956119702830E-03  9.6734110971938E-03  9.6662391419906E-03 
 3.4733746629816E+01  6.8579300569593E+01  6.7799487366727E+01  6.7126683621731E+01  6.6559710902616E+01  6.6097578999041E+01  6.5739481746975E+01  6.5484797348858E+01  6.5333081871965E+01  3.2642036579906E+01 
 1.7996842524224E-07  5.3529850784160E-07  8.8658871576001E-07  1.2343917451945E-06  1.5792580284125E-06  1.9217293462469E-06  2.2623458288588E-06  2.6016415356710E-06  2.9402004131531E-06  2.9402004131531E-06 
 0.0000000000000E+00  6.9012379749064E+01  1.3719092649848E+02  2.0464322263601E+02  2.7147570373273E+02  3.3779375242197E+02  4.0370175733051E+02  4.6930335953151E+02  5.3470182316410E+02  6.0000524135718E+02 
 6.0000554019843E+02  5.3098761691148E+02  4.6280911033985E+02  3.9535680134877E+02  3.2852428576241E+02  2.6220624387097E+02  1.9629825413126E+02  1.3069660773564E+02  6.5298130421266E+01  0.0000000000000E+00 
 3.4733746629816E-07  6.8579300569593E-07  6.7799487366727E-07  6.7126683621731E-07  6.6559710902616E-07  6.6097578999041E-07  6.5739481746975E-07  6.5484797348858E-07  6.5333081871965E-07  3.2642036579906E-07 
 1.4095380721407E+03  2.8190761442726E+03  2.8190761442648E+03  2.8190761442580E+03  2.8190761442524E+03  2.8190761442477E+03  2.8190761442442E+03  2.8190761442416E+03  2.8190761442401E+03  1.4095380721198E+03 
 5.6381522868262E+03  1.1276304573661E+04  1.1276304573669E+04  1.1276304573676E+04  1.1276304573681E+04  1.1276304573686E+04  1.1276304573690E+04  1.1276304573692E+04  1.1276304573694E+04  5.6381522868471E+03 
 7.0476903589669E+03  1.4095380717934E+04  1.4095380717934E+04  1.4095380717934E+04  1.4095380717934E+04  1.4095380717934E+04  1.4095380717934E+04  1.4095380717934E+04  1.4095380717934E+04  7.0476903589669E+03 
 4.0000000000000E-01  4.0000000000000E-01  4.0000000000000E-01  4.0000000000000E-01  4.0000000000000E-01  4.0000000000000E-01  4.0000000000000E-01  4.0000000000000E-01  4.0000000000000E-01  4.0000000000000E-01 
 9.4000000000000E-01  1.8800000000000E+00  1.8800000000000E+00  1.8800000000000E+00  1.8800000000000E+00  1.8800000000000E+00  1.8800000000000E+00  1.8800000000000E+00  1.8800000000000E+00  9.4000000000000E-01 
 3.6950794287038E+01  3.6478351366805E+01  3.6063557109961E+01  3.5705682777517E+01  3.5404101543945E+01  3.5158286701618E+01  3.4967809439881E+01  3.4832339015350E+01  3.4751639293599E+01  3.4725570829687E+01 
 5.3333333333333E-06  1.0666666666667E-05  1.0666666666667E-05  1.0666666666667E-05  1.0666666666667E-05  1.0666666666667E-05  1.0666666666667E-05  1.0666666666667E-05  1.0666666666667E-05  5.3333333333333E-06 
 3.0000000000000E-02  3.0000000000000E-02  3.0000000000000E-02  3.0000000000000E-02  3.0000000000000E-02  3.0000000000000E-02  3.0000000000000E-02  3.0000000000000E-02  3.0000000000000E-02  3.0000000000000E-02 
 1.0000000000000E-01  1.0000000000000E-01  1.0000000000000E-01  1.0000000000000E-01  1.0000000000000E-01  1.0000000000000E-01  1.0000000000000E-01  1.0000000000000E-01  1.0000000000000E-01  1.0000000000000E-01 
 1.0956624007037E+01  1.0956624007045E+01  1.0956624007053E+01  1.0956624007059E+01  1.0956624007065E+01  1.0956624007069E+01  1.0956624007073E+01  1.0956624007075E+01  1.0956624007077E+01  1.0956624007077E+01 
 2.7391560026029E+00  2.7391560025942E+00  2.7391560025867E+00  2.7391560025801E+00  2.7391560025746E+00  2.7391560025701E+00  2.7391560025666E+00  2.7391560025642E+00  2.7391560025627E+00  2.7391560025622E+00 
-6.5432080145362E-03 -6.4748405755579E-03 -6.4223419168785E-03 -6.3767869465261E-03 -6.3382102380751E-03 -6.3066399486910E-03 -6.2820982733623E-03 -6.2646021643843E-03 -6.2541632385572E-03 -6.2508091378083E-03 
-6.5432080145362E+05 -6.4748405755579E+05 -6.4223419168785E+05 -6.3767869465261E+05 -6.3382102380751E+05 -6.3066399486910E+05 -6.2820982733623E+05 -6.2646021643843E+05 -6.2541632385572E+05 -6.2508091378083E+05 
 6.3473596019567E-02  3.1251919175130E-01  1.0510181556892E+00  2.2633255672411E+00  3.9370067993198E+00  6.0627199242749E+00  8.6341227324822E+00  1.1647795471386E+01  1.5103200886983E+01  1.6941450435661E+01 
 6.8752382862075E+03  6.0918424888063E+03  4.6334027063139E+03  3.3874217939038E+03  2.3460682925996E+03  1.5028033372349E+03  8.5233774944000E+02  3.9059736446785E+02  1.1469640833301E+02  2.2918630754795E+01 
-6.6119610321342E+05 -6.5357621256379E+05 -6.4686864541232E+05 -6.4106837977208E+05 -6.3617102910691E+05 -6.3217286092626E+05 -6.2907079920840E+05 -6.2686246159837E+05 -6.2554612346494E+05 -6.2512077386202E+05 
 6.6934701131696E+04  6.5244907182489E+04  6.3778780597487E+04  6.2526983338365E+04  6.1481550083003E+04  6.0635834404921E+04  5.9984462128160E+04  5.9523298704020E+04  5.9249415029812E+04  5.9161074760307E+04 
-7.2813080434511E+05 -7.1882111974628E+05 -7.1064742600981E+05 -7.0359536311045E+05 -6.9765257918991E+05 -6.9280869533118E+05 -6.8905526133656E+05 -6.8638576030239E+05 -6.8479553849476E+05 -6.8428184862233E+05 
ZONE T = "ANOD, 2.0000E-08", I = 10, SOLUTIONTIME = 2.000000E-08
ZONETYPE = ORDERED
DATAPACKING = BLOCK
STRANDID = 1
 0.0000000000000E+00  1.0666666666667E-05  2.1333333333333E-05  3.2000000000000E-05  4.2666666666667E-05  5.3333333333333E-05  6.4000000000000E-05  7.4666666666667E-05  8.5333333333333E-05  9.6000000000000E-05 
 1.0618565162302E-08  3.1583090927205E-08  5.2309144563234E-08  7.2829610393994E-08  9.3176607249704E-08  1.1338237044493E-07  1.3347884210249E-07  1.5349704873942E-07  1.7348016473496E-07  1.8364671729420E-07 
 8.4394679977780E-01  8.4394679978064E-01  8.4394679978313E-01  8.4394679978528E-01  8.4394679978710E-01  8.4394679978858E-01  8.4394679978972E-01  8.4394679979054E-01  8.4394679979107E-01  8.4394679985454E-01 
 7.8026600111100E-02  7.8026600109682E-02  7.8026600108435E-02  7.8026600107358E-02  7.8026600106452E-02  7.8026600105712E-02  7.8026600105140E-02  7.8026600104732E-02  7.8026600104463E-02  7.8026600072732E-02 
 7.8026600111100E-02  7.8026600109682E-02  7.8026600108435E-02  7.8026600107358E-02  7.8026600106452E-02  7.8026600105712E-02  7.8026600105140E-02  7.8026600104732E-02  7.8026600104463E-02  7.8026600072732E-02 
 1.3955050457099E-02  1.3955030961263E-02  1.3954972972366E-02  1.3954876928176E-02  1.3954743206389E-02  1.3954572125290E-02  1.3954363944308E-02  1.3954118864471E-02  1.3953837028751E-02  1.3953518522319E-02 
 0.0000000000000E+00 -1.2973555316998E-04 -2.4373391153689E-04 -3.4217404889320E-04 -4.2521037937370E-04 -4.9297302794674E-04 -5.4556805770304E-04 -5.8307765489819E-04 -6.0556027167756E-04 -6.1305072797445E-04 
 2.9814999993261E+02  2.9814999996613E+02  2.9814999996641E+02  2.9814999996664E+02  2.9814999996684E+02  2.9815000000018E+02  2.9814999993393E+02  2.9815000000038E+02  2.9814999993405E+02  2.9814999996727E+02 
-1.3955050457099E-02 -1.4084766514433E-02 -1.4198706883903E-02 -1.4297050977069E-02 -1.4379953585763E-02 -1.4447545153237E-02 -1.4499932002011E-02 -1.4537196519369E-02 -1.4559397300429E-02 -1.4566569250293E-02 
-2.4231250498990E-02 -2.4231250521565E-02 -2.4231250530451E-02 -2.4231250538118E-02 -2.4231250544579E-02 -2.4231250562290E-02 -2.4231250541480E-02 -2.4231250569268E-02 -2.4231250546114E-02 -2.4231250569545E-02 
 1.0276200041891E-02  1.0146484007132E-02  1.0032543646548E-02  9.9341995610491E-03  9.8512969588164E-03  9.7837054090536E-03  9.7313185394688E-03  9.6940540498986E-03  9.6718532456849E-03  9.6646813192516E-03 
 3.4728408556859E+01  6.8568630061851E+01  6.7788822229487E+01  6.7116023435529E+01  6.6549055120690E+01  6.6086926963723E+01  6.5728832714642E+01  6.5474150505866E+01  6.5322436356330E+01  3.2636714055024E+01 
 1.7997159794742E-07  5.3530294860558E-07  8.8659322932648E-07  1.2343969816681E-06  1.5792626327487E-06  1.9217334775024E-06  2.2623486327379E-06  2.6016440723357E-06  2.9402493615149E-06  2.9402493615149E-06 
 0.0000000000000E+00  6.9012723587165E+01  1.3719144973294E+02  2.0464387256656E+02  2.7147641184432E+02  3.3779440288571E+02  4.0370228272593E+02  4.6930377433551E+02  5.3470206776567E+02  5.9999999999939E+02 
 6.0000000000000E+02  5.3098727641221E+02  4.6280855026653E+02  3.9535612743403E+02  3.2852358815593E+02  2.6220559711372E+02  1.9629771727454E+02  1.3069622566430E+02  6.5297932233205E+01  0.0000000000000E+00 
 6.9462155186675E-07  1.3714793063144E-06  1.3558830959621E-06  1.3424270705726E-06  1.3310876602331E-06  1.3218450596276E-06  1.3146831446162E-06  1.3095894785472E-06  1.3065551822829E-06  6.5278750634930E-07 
 1.4095380724880E+03  2.8190761449582E+03  2.8190761449426E+03  2.8190761449292E+03  2.8190761449179E+03  2.8190761449086E+03  2.8190761449015E+03  2.8190761448964E+03  2.8190761448933E+03  1.4095380724462E+03 
 5.6381522864789E+03  1.1276304572976E+04  1.1276304572991E+04  1.1276304573005E+04  1.1276304573016E+04  1.1276304573025E+04  1.1276304573032E+04  1.1276304573037E+04  1.1276304573041E+04  5.6381522865207E+03 
 7.0476903589669E+03  1.4095380717934E+04  1.4095380717934E+04  1.4095380717934E+04  1.4095380717934E+04  1.4095380717934E+04  1.4095380717934E+04  1.4095380717934E+04  1.4095380717934E+04  7.0476903589669E+03 
 4.0000000000000E-01  4.0000000000000E-01  4.0000000000000E-01  4.0000000000000E-01  4.0000000000000E-01  4.0000000000000E-01  4.0000000000000E-01  4.0000000000000E-01  4.0000000000000E-01  4.0000000000000E-01 
 9.4000000000000E-01  1.8800000000000E+00  1.8800000000000E+00  1.8800000000000E+00  1.8800000000000E+00  1.8800000000000E+00  1.8800000000000E+00  1.8800000000000E+00  1.8800000000000E+00  9.4000000000000E-01 
 3.6945115486021E+01  3.6472675564814E+01  3.6057884164621E+01  3.5700012465707E+01  3.5398433574835E+01  3.5152620725385E+01  3.4962145060980E+01  3.4826675800992E+01  3.4745976785282E+01  3.4719908569175E+01 
 5.3333333333333E-06  1.0666666666667E-05  1.0666666666667E-05  1.0666666666667E-05  1.0666666666667E-05  1.0666666666667E-05  1.0666666666667E-05  1.0666666666667E-05  1.0666666666667E-05  5.3333333333333E-06 
 3.0000000000000E-02  3.0000000000000E-02  3.0000000000000E-02  3.0000000000000E-02  3.0000000000000E-02  3.0000000000000E-02  3.0000000000000E-02  3.0000000000000E-02  3.0000000000000E-02  3.0000000000000E-02 
 1.0000000000000E-01  1.0000000000000E-01  1.0000000000000E-01  1.0000000000000E-01  1.0000000000000E-01  1.0000000000000E-01  1.0000000000000E-01  1.0000000000000E-01  1.0000000000000E-01  1.0000000000000E-01 
 1.0956624006362E+01  1.0956624006379E+01  1.0956624006394E+01  1.0956624006407E+01  1.0956624006418E+01  1.0956624006427E+01  1.0956624006434E+01  1.0956624006439E+01  1.0956624006442E+01  1.0956624006443E+01 
 2.7391560032777E+00  2.7391560032605E+00  2.7391560032453E+00  2.7391560032323E+00  2.7391560032212E+00  2.7391560032123E+00  2.7391560032053E+00  2.7391560032004E+00  2.7391560031974E+00  2.7391560031965E+00 
-1.3085501415758E-02 -1.2948764502175E-02 -1.2843765445172E-02 -1.2752654005179E-02 -1.2675499326534E-02 -1.2612357720589E-02 -1.2563273575123E-02 -1.2528280792442E-02 -1.2507402604789E-02 -1.2500694297880E-02 
-6.5422934012219E+05 -6.4739239266168E+05 -6.4214235282933E+05 -6.3758670586533E+05 -6.3372890884593E+05 -6.3057177718983E+05 -6.2811753017608E+05 -6.2636786280572E+05 -6.2532393662314E+05 -6.2498851600721E+05 
 1.2694791047997E-01  6.2504141244935E-01  2.1020439808806E+00  4.5266654665686E+00  7.8740337023906E+00  1.2125462897506E+01  1.7268267424586E+01  2.3295611400734E+01  3.0206414967667E+01  3.3882905707012E+01 
 1.3750471655628E+04  1.2183677401334E+04  9.2667943765771E+03  6.7748321693414E+03  4.6921267100292E+03  3.0055993171745E+03  1.7046708677086E+03  7.8119245779960E+02  2.2939212328779E+02  4.5837119533242E+01 
-6.6110463696592E+05 -6.5348454009643E+05 -6.4677679552541E+05 -6.4097637958067E+05 -6.3607890429027E+05 -6.3208063591275E+05 -6.2897849743904E+05 -6.2677010571498E+05 -6.2545373555217E+05 -6.2502837595126E+05 
 6.6914263894132E+04  6.5224735270476E+04  6.3758842403967E+04  6.2507247350522E+04  6.1461984889585E+04  6.0616408683087E+04  5.9965144641689E+04  5.9504058281654E+04  5.9230220551148E+04  5.9141895194821E+04 
-7.2801890086005E+05 -7.1870927536690E+05 -7.1053563792938E+05 -7.0348362693119E+05 -6.9754088917985E+05 -6.9269704459583E+05 -6.8894364208073E+05 -6.8627416399664E+05 -6.8468395610332E+05 -6.8417027114608E+05 
ZONE T = "ANOD, 3.0000E-08", I = 10, SOLUTIONTIME = 3.000000E-08
ZONETYPE = ORDERED
DATAPACKING = BLOCK
STRANDID = 1
 0.0000000000000E+00  1.0666666666667E-05  2.1333333333333E-05  3.2000000000000E-05  4.2666666666667E-05  5.3333333333333E-05  6.4000000000000E-05  7.4666666666667E-05  8.5333333333333E-05  9.6000000000000E-05 
 1.0618781883846E-08  3.1583210356735E-08  5.2309382562408E-08  7.2829808544153E-08  9.3176979451121E-08  1.1338264436983E-07  1.3347902903677E-07  1.5349735081379E-07  1.7348609456894E-07  1.8374432283223E-07 
 8.4394679966670E-01  8.4394679967095E-01  8.4394679967470E-01  8.4394679967792E-01  8.4394679968065E-01  8.4394679968286E-01  8.4394679968458E-01  8.4394679968580E-01  8.4394679968664E-01  8.4394679978242E-01 
 7.8026600166649E-02  7.8026600164523E-02  7.8026600162652E-02  7.8026600161038E-02  7.8026600159677E-02  7.8026600158569E-02  7.8026600157710E-02  7.8026600157098E-02  7.8026600156682E-02  7.8026600108790E-02 
 7.8026600166649E-02  7.8026600164523E-02  7.8026600162652E-02  7.8026600161038E-02  7.8026600159677E-02  7.8026600158569E-02  7.8026600157710E-02  7.8026600157098E-02  7.8026600156682E-02  7.8026600108790E-02 
 1.3955050075621E-02  1.3955030579785E-02  1.3954972590888E-02  1.3954876546698E-02  1.3954742824912E-02  1.3954571743813E-02  1.3954363562831E-02  1.3954118482994E-02  1.3953836647275E-02  1.3953518140842E-02 
 0.0000000000000E+00 -1.2973555318250E-04 -2.4373391157904E-04 -3.4217404897519E-04 -4.2521037949979E-04 -4.9297302811622E-04 -5.4556805791117E-04 -5.8307765513707E-04 -6.0556027193715E-04 -6.1305072824331E-04 
 2.9814999991614E+02  2.9814999994984E+02  2.9814999995025E+02  2.9814999995059E+02  2.9814999995089E+02  2.9814999998430E+02  2.9814999991813E+02  2.9814999998460E+02  2.9814999991832E+02  2.9814999995155E+02 
-1.3955050075621E-02 -1.4084766132968E-02 -1.4198706502467E-02 -1.4297050595673E-02 -1.4379953204411E-02 -1.4447544771929E-02 -1.4499931620742E-02 -1.4537196138131E-02 -1.4559396919212E-02 -1.4566568869085E-02 
-2.4231250101564E-02 -2.4231250129198E-02 -2.4231250142533E-02 -2.4231250154033E-02 -2.4231250163725E-02 -2.4231250184066E-02 -2.4231250165299E-02 -2.4231250194533E-02 -2.4231250172261E-02 -2.4231250201280E-02 
 1.0276200025943E-02  1.0146483996231E-02  1.0032543640066E-02  9.9341995583598E-03  9.8512969593141E-03  9.7837054121373E-03  9.7313185445571E-03  9.6940540564023E-03  9.6718532530490E-03  9.6646813321945E-03 
 3.4728408502321E+01  6.8568629987268E+01  6.7788822185033E+01  6.7116023416902E+01  6.6549055123834E+01  6.6086926984372E+01  6.5728832749004E+01  6.5474150549680E+01  6.5322436406137E+01  3.2636714095432E+01 
 1.7997374932542E-07  5.3530484364859E-07  8.8659486407488E-07  1.2343983589836E-06  1.5792637552503E-06  1.9217343471926E-06  2.2623492512695E-06  2.6016445212555E-06  2.9402984841137E-06  2.9402984841137E-06 
 0.0000000000000E+00  6.9012723496547E+01  1.3719144958236E+02  2.0464387238376E+02  2.7147641165432E+02  3.3779440270771E+02  4.0370228257325E+02  4.6930377422333E+02  5.3470206770152E+02  5.9999999999805E+02 
 6.0000000000001E+02  5.3098727650404E+02  4.6280855041787E+02  3.9535612761689E+02  3.2852358834653E+02  2.6220559729244E+02  1.9629771742576E+02  1.3069622577641E+02  6.5297932298499E+01  0.0000000000000E+00 
 1.0419056368900E-06  2.0571656061871E-06  2.0337713178125E-06  2.0135873047416E-06  1.9965782114714E-06  1.9827143294714E-06  1.9719714721062E-06  1.9643309840440E-06  1.9597795463443E-06  9.7915464730362E-07 
 1.4095380728353E+03  2.8190761456439E+03  2.8190761456205E+03  2.8190761456004E+03  2.8190761455833E+03  2.8190761455695E+03  2.8190761455587E+03  2.8190761455511E+03  2.8190761455465E+03  1.4095380727725E+03 
 5.6381522861316E+03  1.1276304572290E+04  1.1276304572313E+04  1.1276304572333E+04  1.1276304572350E+04  1.1276304572364E+04  1.1276304572375E+04  1.1276304572383E+04  1.1276304572387E+04  5.6381522861944E+03 
 7.0476903589669E+03  1.4095380717934E+04  1.4095380717934E+04  1.4095380717934E+04  1.4095380717934E+04  1.4095380717934E+04  1.4095380717934E+04  1.4095380717934E+04  1.4095380717934E+04  7.0476903589669E+03 
 4.0000000000000E-01  4.0000000000000E-01  4.0000000000000E-01  4.0000000000000E-01  4.0000000000000E-01  4.0000000000000E-01  4.0000000000000E-01  4.0000000000000E-01  4.0000000000000E-01  4.0000000000000E-01 
 9.4000000000000E-01  1.8800000000000E+00  1.8800000000000E+00  1.8800000000000E+00  1.8800000000000E+00  1.8800000000000E+00  1.8800000000000E+00  1.8800000000000E+00  1.8800000000000E+00  9.4000000000000E-01 
 3.6945115428001E+01  3.6472675525143E+01  3.6057884140975E+01  3.5700012455799E+01  3.5398433576508E+01  3.5152620736368E+01  3.4962145079258E+01  3.4826675824298E+01  3.4745976811775E+01  3.4719908612162E+01 
 5.3333333333333E-06  1.0666666666667E-05  1.0666666666667E-05  1.0666666666667E-05  1.0666666666667E-05  1.0666666666667E-05  1.0666666666667E-05  1.0666666666667E-05  1.0666666666667E-05  5.3333333333333E-06 
 3.0000000000000E-02  3.0000000000000E-02  3.0000000000000E-02  3.0000000000000E-02  3.0000000000000E-02  3.0000000000000E-02  3.0000000000000E-02  3.0000000000000E-02  3.0000000000000E-02  3.0000000000000E-02 
 1.0000000000000E-01  1.0000000000000E-01  1.0000000000000E-01  1.0000000000000E-01  1.0000000000000E-01  1.0000000000000E-01  1.0000000000000E-01  1.0000000000000E-01  1.0000000000000E-01  1.0000000000000E-01 
 1.0956624005687E+01  1.0956624005713E+01  1.0956624005735E+01  1.0956624005755E+01  1.0956624005772E+01  1.0956624005785E+01  1.0956624005795E+01  1.0956624005803E+01  1.0956624005807E+01  1.0956624005809E+01 
 2.7391560039526E+00  2.7391560039267E+00  2.7391560039040E+00  2.7391560038844E+00  2.7391560038679E+00  2.7391560038544E+00  2.7391560038440E+00  2.7391560038365E+00  2.7391560038321E+00  2.7391560038307E+00 
-1.9627794804185E-02 -1.9422688419012E-02 -1.9265188966329E-02 -1.9128521058979E-02 -1.9012788412076E-02 -1.8918075491134E-02 -1.8844448876762E-02 -1.8791959421227E-02 -1.8760641972289E-02 -1.8750579462182E-02 
-6.5422933884270E+05 -6.4739239168370E+05 -6.4214235211568E+05 -6.3758670537992E+05 -6.3372890855413E+05 -6.3057177705447E+05 -6.2811753016388E+05 -6.2636786287852E+05 -6.2532393675008E+05 -6.2498851643012E+05 
 1.9042222468895E-01  9.3756363209662E-01  3.1530698029444E+00  6.7900053600716E+00  1.1811060596834E+01  1.8188205859544E+01  2.5902412103309E+01  3.4943427315297E+01  4.5309629033722E+01  5.0824360964291E+01 
 2.0625705026375E+04  1.8275512315906E+04  1.3900186049822E+04  1.0162242547877E+04  7.0381851301555E+03  4.5083952991453E+03  2.5570039872788E+03  1.1717875517928E+03  3.4408783846104E+02  6.8755608368419E+01 
-6.6110463568776E+05 -6.5348453912049E+05 -6.4677679481475E+05 -6.4097637909835E+05 -6.3607890400115E+05 -6.3208063577941E+05 -6.2897849742812E+05 -6.2677010578842E+05 -6.2545373567932E+05 -6.2502837637421E+05 
 6.6914263685165E+04  6.5224735129446E+04  6.3758842320942E+04  6.2507247316242E+04  6.1461984895637E+04  6.0616408721132E+04  5.9965144704399E+04  5.9504058361327E+04  5.9230220641402E+04  5.9141895346857E+04 