TITLE = "Solution on Domain BulkDomain1D_0"
VARIABLES = "x [m]"  
"Vel_axial" 
"MF_sp(ECDMC)" 
"MF_sp(Li+)" 
"MF_sp(PF6-)" 
"Volt(Electroly)" 
"Volt(AnodeVolt)" 
"Temperature" 
"Potential Drop Electrode-Electrolyte [V]" 
"Surf_0 Equilibrium Potential Drop Electrode-Electrolyte [V]" 
"Overpotential_0 [V]" 
"Current Source [A/m^2]" 
"Li+ flux [kmol/m^2/s]" 
"Electrolyte Current [A/m^2]" 
"Electrode Current [A/m^2]" 
"CV Capacity discharged [A-s/m^2]" 
"Depth of discharge in CV [A-s/m^2]" 
"CV Capacity remaining [A-s/m^2]" 
"Initial CV capacity [A-s/m^2]" 
"Porosity []" 
"Surface Area [m2/m2] (area per area)" 
"Specific current (per particle area) [A/m^2]" 
"Control volume thickness [m]" 
"volFrac AnodeBinder []" 	"volFrac ExtraStuff []" 	"MoleDens Li_C6-bulk [kmol/m^3]" 
"MoleDens V_C6-bulk [kmol/m^3]" 
"qHeat_accum [J/m3]" 
"qHeat_step [W/m3]" 
"Joule_Lyte [W/m3]" 
"Joule_Solid [W/m3]" 
"electrodHeat [W/m3]" 
"OverpotHeat [W/m3]" 
"deltaSHeat [W/m3]" 

ZONE T = "ANOD, 0.0000E+00", I = 10, SOLUTIONTIME = 0.000000E+00
ZONETYPE = ORDERED
DATAPACKING = BLOCK
STRANDID = 1
 0.0000000000000E+00  1.0666666666667E-05  2.1333333333333E-05  3.2000000000000E-05  4.2666666666667E-05  5.3333333333333E-05  6.4000000000000E-05  7.4666666666667E-05  8.5333333333333E-05  9.6000000000000E-05 
 0.0000000000000E+00  0.0000000000000E+00  0.0000000000000E+00  0.0000000000000E+00  0.0000000000000E+00  0.0000000000000E+00  0.0000000000000E+00  0.0000000000000E+00  0.0000000000000E+00  0.0000000000000E+00 
 8.4394680000000E-01  8.4394680000000E-01  8.4394680000000E-01  8.4394680000000E-01  8.4394680000000E-01  8.4394680000000E-01  8.4394680000000E-01  8.4394680000000E-01  8.4394680000000E-01  8.4394680000000E-01 
 7.8026600000000E-02  7.8026600000000E-02  7.8026600000000E-02  7.8026600000000E-02  7.8026600000000E-02  7.8026600000000E-02  7.8026600000000E-02  7.8026600000000E-02  7.8026600000000E-02  7.8026600000000E-02 
 7.8026600000000E-02  7.8026600000000E-02  7.8026600000000E-02  7.8026600000000E-02  7.8026600000000E-02  7.8026600000000E-02  7.8026600000000E-02  7.8026600000000E-02  7.8026600000000E-02  7.8026600000000E-02 
-7.0000000000000E-02 -7.0000000000000E-02 -7.0000000000000E-02 -7.0000000000000E-02 -7.0000000000000E-02 -7.0000000000000E-02 -7.0000000000000E-02 -7.0000000000000E-02 -7.0000000000000E-02 -7.0000000000000E-02 
 0.0000000000000E+00  0.0000000000000E+00  0.0000000000000E+00  0.0000000000000E+00  0.0000000000000E+00  0.0000000000000E+00  0.0000000000000E+00  0.0000000000000E+00  0.0000000000000E+00  0.0000000000000E+00 
 2.9815000000000E+02  2.9815000000000E+02  2.9815000000000E+02  2.9815000000000E+02  2.9815000000000E+02  2.9815000000000E+02  2.9815000000000E+02  2.9815000000000E+02  2.9815000000000E+02  2.9815000000000E+02 
 7.0000000000000E-02  7.0000000000000E-02  7.0000000000000E-02  7.0000000000000E-02  7.0000000000000E-02  7.0000000000000E-02  7.0000000000000E-02  7.0000000000000E-02  7.0000000000000E-02  7.0000000000000E-02 
-2.4231251306822E-02 -2.4231251306822E-02 -2.4231251306822E-02 -2.4231251306822E-02 -2.4231251306820E-02 -2.4231251306822E-02 -2.4231251306822E-02 -2.4231251306820E-02 -2.4231251306820E-02 -2.4231251306820E-02 
 9.4231251306822E-02  9.4231251306822E-02  9.4231251306822E-02  9.4231251306822E-02  9.4231251306820E-02  9.4231251306822E-02  9.4231251306822E-02  9.4231251306820E-02  9.4231251306820E-02  9.4231251306820E-02 
 5.2596104508283E+02  1.0519220901657E+03  1.0519220901657E+03  1.0519220901657E+03  1.0519220901656E+03  1.0519220901657E+03  1.0519220901657E+03  1.0519220901656E+03  1.0519220901656E+03  5.2596104508281E+02 
-0.0000000000000E+00 -0.0000000000000E+00 -0.0000000000000E+00 -0.0000000000000E+00 -0.0000000000000E+00 -0.0000000000000E+00 -0.0000000000000E+00 -0.0000000000000E+00 -0.0000000000000E+00 -0.0000000000000E+00 
 0.0000000000000E+00  0.0000000000000E+00  0.0000000000000E+00  0.0000000000000E+00  0.0000000000000E+00  0.0000000000000E+00  0.0000000000000E+00  0.0000000000000E+00  0.0000000000000E+00  5.2596104508281E+02 
 5.2596104508283E+02 -0.0000000000000E+00 -0.0000000000000E+00 -0.0000000000000E+00 -0.0000000000000E+00 -0.0000000000000E+00 -0.0000000000000E+00 -0.0000000000000E+00 -0.0000000000000E+00  0.0000000000000E+00 
 0.0000000000000E+00  0.0000000000000E+00  0.0000000000000E+00  0.0000000000000E+00  0.0000000000000E+00  0.0000000000000E+00  0.0000000000000E+00  0.0000000000000E+00  0.0000000000000E+00  0.0000000000000E+00 
 1.4095380717934E+03  2.8190761435868E+03  2.8190761435868E+03  2.8190761435868E+03  2.8190761435868E+03  2.8190761435868E+03  2.8190761435868E+03  2.8190761435868E+03  2.8190761435868E+03  1.4095380717934E+03 
 5.6381522871735E+03  1.1276304574347E+04  1.1276304574347E+04  1.1276304574347E+04  1.1276304574347E+04  1.1276304574347E+04  1.1276304574347E+04  1.1276304574347E+04  1.1276304574347E+04  5.6381522871735E+03 
 7.0476903589669E+03  1.4095380717934E+04  1.4095380717934E+04  1.4095380717934E+04  1.4095380717934E+04  1.4095380717934E+04  1.4095380717934E+04  1.4095380717934E+04  1.4095380717934E+04  7.0476903589669E+03 
 4.0000000000000E-01  4.0000000000000E-01  4.0000000000000E-01  4.0000000000000E-01  4.0000000000000E-01  4.0000000000000E-01  4.0000000000000E-01  4.0000000000000E-01  4.0000000000000E-01  4.0000000000000E-01 
 9.4000000000000E-01  1.8800000000000E+00  1.8800000000000E+00  1.8800000000000E+00  1.8800000000000E+00  1.8800000000000E+00  1.8800000000000E+00  1.8800000000000E+00  1.8800000000000E+00  9.4000000000000E-01 
 5.5953302668386E+02  5.5953302668386E+02  5.5953302668386E+02  5.5953302668386E+02  5.5953302668385E+02  5.5953302668386E+02  5.5953302668386E+02  5.5953302668385E+02  5.5953302668385E+02  5.5953302668385E+02 
 5.3333333333333E-06  1.0666666666667E-05  1.0666666666667E-05  1.0666666666667E-05  1.0666666666667E-05  1.0666666666667E-05  1.0666666666667E-05  1.0666666666667E-05  1.0666666666667E-05  5.3333333333333E-06 
 3.0000000000000E-02  3.0000000000000E-02  3.0000000000000E-02  3.0000000000000E-02  3.0000000000000E-02  3.0000000000000E-02  3.0000000000000E-02  3.0000000000000E-02  3.0000000000000E-02  3.0000000000000E-02 
 1.0000000000000E-01  1.0000000000000E-01  1.0000000000000E-01  1.0000000000000E-01  1.0000000000000E-01  1.0000000000000E-01  1.0000000000000E-01  1.0000000000000E-01  1.0000000000000E-01  1.0000000000000E-01 
 1.0956624007712E+01  1.0956624007712E+01  1.0956624007712E+01  1.0956624007712E+01  1.0956624007712E+01  1.0956624007712E+01  1.0956624007712E+01  1.0956624007712E+01  1.0956624007712E+01  1.0956624007712E+01 
 2.7391560019279E+00  2.7391560019279E+00  2.7391560019279E+00  2.7391560019279E+00  2.7391560019279E+00  2.7391560019279E+00  2.7391560019279E+00  2.7391560019279E+00  2.7391560019279E+00  2.7391560019279E+00 
 0.0000000000000E+00  0.0000000000000E+00  0.0000000000000E+00  0.0000000000000E+00  0.0000000000000E+00  0.0000000000000E+00  0.0000000000000E+00  0.0000000000000E+00  0.0000000000000E+00  0.0000000000000E+00 
 0.0000000000000E+00  0.0000000000000E+00  0.0000000000000E+00  0.0000000000000E+00  0.0000000000000E+00  0.0000000000000E+00  0.0000000000000E+00  0.0000000000000E+00  0.0000000000000E+00  0.0000000000000E+00 
 0.0000000000000E+00  0.0000000000000E+00  0.0000000000000E+00  0.0000000000000E+00  0.0000000000000E+00  0.0000000000000E+00  0.0000000000000E+00  0.0000000000000E+00  0.0000000000000E+00  0.0000000000000E+00 
 0.0000000000000E+00  0.0000000000000E+00  0.0000000000000E+00  0.0000000000000E+00  0.0000000000000E+00  0.0000000000000E+00  0.0000000000000E+00  0.0000000000000E+00  0.0000000000000E+00  0.0000000000000E+00 
 0.0000000000000E+00  0.0000000000000E+00  0.0000000000000E+00  0.0000000000000E+00  0.0000000000000E+00  0.0000000000000E+00  0.0000000000000E+00  0.0000000000000E+00  0.0000000000000E+00  0.0000000000000E+00 
 0.0000000000000E+00  0.0000000000000E+00  0.0000000000000E+00  0.0000000000000E+00  0.0000000000000E+00  0.0000000000000E+00  0.0000000000000E+00  0.0000000000000E+00  0.0000000000000E+00  0.0000000000000E+00 
 0.0000000000000E+00  0.0000000000000E+00  0.0000000000000E+00  0.0000000000000E+00  0.0000000000000E+00  0.0000000000000E+00  0.0000000000000E+00  0.0000000000000E+00  0.0000000000000E+00  0.0000000000000E+00 
ZONE T = "ANOD, 1.0000E-08", I = 10, SOLUTIONTIME = 1.000000E-08
ZONETYPE = ORDERED
DATAPACKING = BLOCK
STRANDID = 1
 0.0000000000000E+00  1.0666666666667E-05  2.1333333333333E-05  3.2000000000000E-05  4.2666666666667E-05  5.3333333333333E-05  6.4000000000000E-05  7.4666666666667E-05  8.5333333333333E-05  9.6000000000000E-05 
 1.0618246757699E-08  3.1582869295376E-08  5.2309051985959E-08  7.2829510251619E-08  9.3176651717410E-08  1.1338263362953E-07  1.3347915769356E-07  1.5349783051126E-07  1.7347552318443E-07  1.8354902849696E-07 
 8.4394679988890E-01  8.4394679989032E-01  8.4394679989157E-01  8.4394679989264E-01  8.4394679989355E-01  8.4394679989429E-01  8.4394679989486E-01  8.4394679989527E-01  8.4394679989553E-01  8.4394679992706E-01 
 7.8026600055550E-02  7.8026600054841E-02  7.8026600054217E-02  7.8026600053679E-02  7.8026600053226E-02  7.8026600052856E-02  7.8026600052570E-02  7.8026600052366E-02  7.8026600052236E-02  7.8026600036470E-02 
 7.8026600055550E-02  7.8026600054841E-02  7.8026600054217E-02  7.8026600053679E-02  7.8026600053226E-02  7.8026600052856E-02  7.8026600052570E-02  7.8026600052366E-02  7.8026600052236E-02  7.8026600036470E-02 
 1.3953492096686E-02  1.3953472600963E-02  1.3953414612340E-02  1.3953318568531E-02  1.3953184847096E-02  1.3953013766366E-02  1.3952805585743E-02  1.3952560506212E-02  1.3952278670653E-02  1.3951960164265E-02 
 0.0000000000000E+00 -1.2973559964801E-04 -2.4373406808197E-04 -3.4217435283787E-04 -4.2521084572410E-04 -4.9297365286962E-04 -5.4556882154610E-04 -5.8307852658547E-04 -6.0556121141384E-04 -6.1305169091242E-04 
 2.9815000001546E+02  2.9814999994924E+02  2.9814999998256E+02  2.9814999998268E+02  2.9814999998279E+02  2.9815000001606E+02  2.9814999998292E+02  2.9814999991656E+02  2.9814999998299E+02  2.9815000001619E+02 
-1.3953492096686E-02 -1.4083208200611E-02 -1.4197148680422E-02 -1.4295492921369E-02 -1.4378395692821E-02 -1.4445987419236E-02 -1.4498374407289E-02 -1.4535639032798E-02 -1.4557839882066E-02 -1.4565011855178E-02 
-2.4231250921305E-02 -2.4231250901483E-02 -2.4231250918366E-02 -2.4231250922207E-02 -2.4231250925434E-02 -2.4231250940517E-02 -2.4231250930108E-02 -2.4231250906657E-02 -2.4231250932428E-02 -2.4231250950329E-02 
 1.0277758824619E-02  1.0148042700871E-02  1.0034102237944E-02  9.9357580008386E-03  9.8528552326134E-03  9.7852635212815E-03  9.7328765228187E-03  9.6956118738589E-03  9.6734110503619E-03  9.6662390951509E-03 
 3.4733746614305E+01  6.8579299995909E+01  6.7799486971955E+01  6.7126683225133E+01  6.6559710504949E+01  6.6097578597948E+01  6.5739481521175E+01  6.5484796418526E+01  6.5333081642204E+01  3.2642036464944E+01 
 1.7996839419837E-07  5.3529852144714E-07  8.8658808259609E-07  1.2343923481609E-06  1.5792581032749E-06  1.9217292938759E-06  2.2623451799206E-06  2.6016421720804E-06  2.9402004114005E-06  2.9402004114005E-06 
 0.0000000000000E+00  6.9012378069956E+01  1.3719086672018E+02  2.0464321971895E+02  2.7147576913327E+02  3.3779375458863E+02  4.0370168966191E+02  4.6930335832609E+02  5.3470188440172E+02  6.0000524090402E+02 
 6.0000554056717E+02  5.3098761745399E+02  4.6280911117127E+02  3.9535680236138E+02  3.2852428742401E+02  2.6220624521729E+02  1.9629825486391E+02  1.3069660885702E+02  6.5298131027670E+01  0.0000000000000E+00 
 3.4733746614305E-07  6.8579299995909E-07  6.7799486971955E-07  6.7126683225133E-07  6.6559710504949E-07  6.6097578597948E-07  6.5739481521175E-07  6.5484796418526E-07  6.5333081642204E-07  3.2642036464944E-07 
 1.4095380721407E+03  2.8190761442726E+03  2.8190761442648E+03  2.8190761442580E+03  2.8190761442524E+03  2.8190761442477E+03  2.8190761442442E+03  2.8190761442416E+03  2.8190761442401E+03  1.4095380721198E+03 
 5.6381522868262E+03  1.1276304573661E+04  1.1276304573669E+04  1.1276304573676E+04  1.1276304573681E+04  1.1276304573686E+04  1.1276304573690E+04  1.1276304573692E+04  1.1276304573694E+04  5.6381522868471E+03 
 7.0476903589669E+03  1.4095380717934E+04  1.4095380717934E+04  1.4095380717934E+04  1.4095380717934E+04  1.4095380717934E+04  1.4095380717934E+04  1.4095380717934E+04  1.4095380717934E+04  7.0476903589669E+03 
 4.0000000000000E-01  4.0000000000000E-01  4.0000000000000E-01  4.0000000000000E-01  4.0000000000000E-01  4.0000000000000E-01  4.0000000000000E-01  4.0000000000000E-01  4.0000000000000E-01  4.0000000000000E-01 
 9.4000000000000E-01  1.8800000000000E+00  1.8800000000000E+00  1.8800000000000E+00  1.8800000000000E+00  1.8800000000000E+00  1.8800000000000E+00  1.8800000000000E+00  1.8800000000000E+00  9.4000000000000E-01 
 3.6950794270538E+01  3.6478351061654E+01  3.6063556899976E+01  3.5705682566560E+01  3.5404101332420E+01  3.5158286488271E+01  3.4967809319774E+01  3.4832338520493E+01  3.4751639171385E+01  3.4725570707388E+01 
 5.3333333333333E-06  1.0666666666667E-05  1.0666666666667E-05  1.0666666666667E-05  1.0666666666667E-05  1.0666666666667E-05  1.0666666666667E-05  1.0666666666667E-05  1.0666666666667E-05  5.3333333333333E-06 
 3.0000000000000E-02  3.0000000000000E-02  3.0000000000000E-02  3.0000000000000E-02  3.0000000000000E-02  3.0000000000000E-02  3.0000000000000E-02  3.0000000000000E-02  3.0000000000000E-02  3.0000000000000E-02 
 1.0000000000000E-01  1.0000000000000E-01  1.0000000000000E-01  1.0000000000000E-01  1.0000000000000E-01  1.0000000000000E-01  1.0000000000000E-01  1.0000000000000E-01  1.0000000000000E-01  1.0000000000000E-01 
 1.0956624007037E+01  1.0956624007045E+01  1.0956624007053E+01  1.0956624007059E+01  1.0956624007065E+01  1.0956624007069E+01  1.0956624007073E+01  1.0956624007075E+01  1.0956624007077E+01  1.0956624007077E+01 
 2.7391560026029E+00  2.7391560025942E+00  2.7391560025867E+00  2.7391560025801E+00  2.7391560025746E+00  2.7391560025701E+00  2.7391560025666E+00  2.7391560025642E+00  2.7391560025627E+00  2.7391560025622E+00 
-6.5432080152140E-03 -6.4748405244697E-03 -6.4223418827277E-03 -6.3767869121239E-03 -6.3382102034519E-03 -6.3066399137996E-03 -6.2820982553425E-03 -6.2646020789121E-03 -6.2541632201237E-03 -6.2508091194132E-03 
-6.5432080152140E+05 -6.4748405244697E+05 -6.4223418827277E+05 -6.3767869121239E+05 -6.3382102034519E+05 -6.3066399137996E+05 -6.2820982553425E+05 -6.2646020789121E+05 -6.2541632201237E+05 -6.2508091194132E+05 
 6.3473574124928E-02  3.1251919509889E-01  1.0510170697814E+00  2.2633259257069E+00  3.9370084896889E+00  6.0627199588037E+00  8.6341196575731E+00  1.1647795837896E+01  1.5103204122075E+01  1.6941450417350E+01 
 6.8752382955548E+03  6.0918425009692E+03  4.6334027226821E+03  3.3874218110588E+03  2.3460683152334E+03  1.5028033537256E+03  8.5233775520455E+02  3.9059737064995E+02  1.1469641088540E+02  2.2918630758707E+01 
-6.6119610329053E+05 -6.5357620746713E+05 -6.4686864201252E+05 -6.4106837634937E+05 -6.3617102566891E+05 -6.3217285745365E+05 -6.2907079740912E+05 -6.2686245305769E+05 -6.2554612162738E+05 -6.2512077202249E+05 
 6.6934700889881E+04  6.5244906186820E+04  6.3778779859435E+04  6.2526982604075E+04  6.1481549352786E+04  6.0635833673421E+04  5.9984461636644E+04  5.9523297266411E+04  5.9249414534600E+04  5.9161074265272E+04 
-7.2813080418041E+05 -7.1882111365395E+05 -7.1064742187195E+05 -7.0359535895345E+05 -6.9765257502170E+05 -6.9280869112707E+05 -6.8905525904576E+05 -6.8638575032410E+05 -6.8479553616198E+05 -6.8428184628777E+05 
ZONE T = "ANOD, 2.0000E-08", I = 10, SOLUTIONTIME = 2.000000E-08
ZONETYPE = ORDERED
DATAPACKING = BLOCK
STRANDID = 1
 0.0000000000000E+00  1.0666666666667E-05  2.1333333333333E-05  3.2000000000000E-05  4.2666666666667E-05  5.3333333333333E-05  6.4000000000000E-05  7.4666666666667E-05  8.5333333333333E-05  9.6000000000000E-05 
 1.0618565219227E-08  3.1583090928356E-08  5.2309251378567E-08  7.2829717208734E-08  9.3176714067372E-08  1.1338247726493E-07  1.3347894060102E-07  1.5349713870126E-07  1.7348025475298E-07  1.8364680734072E-07 
 8.4394679977780E-01  8.4394679978064E-01  8.4394679978313E-01  8.4394679978528E-01  8.4394679978710E-01  8.4394679978858E-01  8.4394679978972E-01  8.4394679979054E-01  8.4394679979107E-01  8.4394679985454E-01 
 7.8026600111100E-02  7.8026600109682E-02  7.8026600108435E-02  7.8026600107358E-02  7.8026600106452E-02  7.8026600105712E-02  7.8026600105140E-02  7.8026600104732E-02  7.8026600104463E-02  7.8026600072732E-02 
 7.8026600111100E-02  7.8026600109682E-02  7.8026600108435E-02  7.8026600107358E-02  7.8026600106452E-02  7.8026600105712E-02  7.8026600105140E-02  7.8026600104732E-02  7.8026600104463E-02  7.8026600072732E-02 
 1.3955050455758E-02  1.3955030959922E-02  1.3954972971025E-02  1.3954876926835E-02  1.3954743205048E-02  1.3954572123949E-02  1.3954363942967E-02  1.3954118863130E-02  1.3953837027410E-02  1.3953518520977E-02 
 0.0000000000000E+00 -1.2973555312736E-04 -2.4373391149074E-04 -3.4217404884136E-04 -4.2521037931398E-04 -4.9297302787695E-04 -5.4556805762096E-04 -5.8307765476125E-04 -6.0556027160426E-04 -6.1305072792234E-04 
 2.9814999999898E+02  2.9814999993296E+02  2.9814999996640E+02  2.9814999996663E+02  2.9814999996684E+02  2.9815000000018E+02  2.9814999996711E+02  2.9814999990081E+02  2.9814999996725E+02  2.9815000000046E+02 
-1.3955050455758E-02 -1.4084766513050E-02 -1.4198706882516E-02 -1.4297050975676E-02 -1.4379953584362E-02 -1.4447545151826E-02 -1.4499932000588E-02 -1.4537196517891E-02 -1.4559397299014E-02 -1.4566569248900E-02 
-2.4231250523877E-02 -2.4231250509127E-02 -2.4231250530449E-02 -2.4231250538115E-02 -2.4231250544581E-02 -2.4231250562291E-02 -2.4231250553924E-02 -2.4231250531926E-02 -2.4231250558559E-02 -2.4231250581988E-02 
 1.0276200068119E-02  1.0146483996078E-02  1.0032543647934E-02  9.9341995624387E-03  9.8512969602186E-03  9.7837054104655E-03  9.7313185533357E-03  9.6940540140350E-03  9.6718532595449E-03  9.6646813330887E-03 
 3.4728408742559E+01  6.8568629891549E+01  6.7788822238937E+01  6.7116023445017E+01  6.6549055130281E+01  6.6086926973350E+01  6.5728832900162E+01  6.5474149989532E+01  6.5322436541254E+01  3.2636714147360E+01 
 1.7997159891421E-07  5.3530294866383E-07  8.8659322949021E-07  1.2343969818282E-06  1.5792626329889E-06  1.9217334777798E-06  2.2623486339666E-06  2.6016440709119E-06  2.9402493610435E-06  2.9402493610435E-06 
 0.0000000000000E+00  6.9012723689501E+01  1.3719144975435E+02  2.0464387259437E+02  2.7147641188294E+02  3.3779440293566E+02  4.0370228287125E+02  4.6930377431668E+02  5.3470206758281E+02  6.0000000000076E+02 
 6.0000000000000E+02  5.3098727631167E+02  4.6280855024644E+02  3.9535612740446E+02  3.2852358811683E+02  2.6220559706502E+02  1.9629771712826E+02  1.3069622568341E+02  6.5297932418006E+01  0.0000000000000E+00 
 6.9462155356864E-07  1.3714792988746E-06  1.3558830921089E-06  1.3424270667015E-06  1.3310876563523E-06  1.3218450557130E-06  1.3146831442134E-06  1.3095894640806E-06  1.3065551818346E-06  6.5278750612304E-07 
 1.4095380724880E+03  2.8190761449582E+03  2.8190761449426E+03  2.8190761449292E+03  2.8190761449179E+03  2.8190761449086E+03  2.8190761449015E+03  2.8190761448964E+03  2.8190761448933E+03  1.4095380724462E+03 
 5.6381522864789E+03  1.1276304572976E+04  1.1276304572991E+04  1.1276304573005E+04  1.1276304573016E+04  1.1276304573025E+04  1.1276304573032E+04  1.1276304573037E+04  1.1276304573041E+04  5.6381522865207E+03 
 7.0476903589669E+03  1.4095380717934E+04  1.4095380717934E+04  1.4095380717934E+04  1.4095380717934E+04  1.4095380717934E+04  1.4095380717934E+04  1.4095380717934E+04  1.4095380717934E+04  7.0476903589669E+03 
 4.0000000000000E-01  4.0000000000000E-01  4.0000000000000E-01  4.0000000000000E-01  4.0000000000000E-01  4.0000000000000E-01  4.0000000000000E-01  4.0000000000000E-01  4.0000000000000E-01  4.0000000000000E-01 
 9.4000000000000E-01  1.8800000000000E+00  1.8800000000000E+00  1.8800000000000E+00  1.8800000000000E+00  1.8800000000000E+00  1.8800000000000E+00  1.8800000000000E+00  1.8800000000000E+00  9.4000000000000E-01 
 3.6945115683573E+01  3.6472675474228E+01  3.6057884169647E+01  3.5700012470754E+01  3.5398433579937E+01  3.5152620730505E+01  3.4962145159661E+01  3.4826675526347E+01  3.4745976883646E+01  3.4719908667404E+01 
 5.3333333333333E-06  1.0666666666667E-05  1.0666666666667E-05  1.0666666666667E-05  1.0666666666667E-05  1.0666666666667E-05  1.0666666666667E-05  1.0666666666667E-05  1.0666666666667E-05  5.3333333333333E-06 
 3.0000000000000E-02  3.0000000000000E-02  3.0000000000000E-02  3.0000000000000E-02  3.0000000000000E-02  3.0000000000000E-02  3.0000000000000E-02  3.0000000000000E-02  3.0000000000000E-02  3.0000000000000E-02 
 1.0000000000000E-01  1.0000000000000E-01  1.0000000000000E-01  1.0000000000000E-01  1.0000000000000E-01  1.0000000000000E-01  1.0000000000000E-01  1.0000000000000E-01  1.0000000000000E-01  1.0000000000000E-01 
 1.0956624006362E+01  1.0956624006379E+01  1.0956624006394E+01  1.0956624006407E+01  1.0956624006418E+01  1.0956624006427E+01  1.0956624006434E+01  1.0956624006439E+01  1.0956624006442E+01  1.0956624006443E+01 
 2.7391560032777E+00  2.7391560032605E+00  2.7391560032453E+00  2.7391560032323E+00  2.7391560032212E+00  2.7391560032123E+00  2.7391560032053E+00  2.7391560032004E+00  2.7391560031974E+00  2.7391560031965E+00 
-1.3085501451728E-02 -1.2948764434799E-02 -1.2843765411838E-02 -1.2752653971601E-02 -1.2675499292746E-02 -1.2612357686537E-02 -1.2563273574772E-02 -1.2528280657477E-02 -1.2507402603960E-02 -1.2500694297074E-02 
-6.5422934365136E+05 -6.4739239103297E+05 -6.4214235291105E+05 -6.3758670594767E+05 -6.3372890892942E+05 -6.3057177727371E+05 -6.2811753194290E+05 -6.2636785785652E+05 -6.2532393838364E+05 -6.2498851776609E+05 
 1.2694788927085E-01  6.2504141622252E-01  2.1020428952783E+00  4.5266658256443E+00  7.8740353938905E+00  1.2125462934025E+01  1.7268264355812E+01  2.3295611764136E+01  3.0206418192988E+01  3.3882905685155E+01 
 1.3750471660458E+04  1.2183677411074E+04  9.2667943925520E+03  6.7748321860003E+03  4.6921267321169E+03  3.0055993331224E+03  1.7046708723686E+03  7.8119246372548E+02  2.2939212648942E+02  4.5837119666840E+01 
-6.6110464049057E+05 -6.5348453846530E+05 -6.4677679560675E+05 -6.4097637966251E+05 -6.3607890437321E+05 -6.3208063599608E+05 -6.2897849920477E+05 -6.2677010076553E+05 -6.2545373731332E+05 -6.2502837771026E+05 
 6.6914264422721E+04  6.5224735037417E+04  6.3758842421659E+04  6.2507247368102E+04  6.1461984907191E+04  6.0616408700650E+04  5.9965144896396E+04  5.9504057592264E+04  5.9230220803704E+04  5.9141895446818E+04 
-7.2801890491329E+05 -7.1870927350271E+05 -7.1053563802841E+05 -7.0348362703061E+05 -6.9754088928040E+05 -6.9269704469673E+05 -6.8894364410116E+05 -6.8627415835779E+05 -6.8468395811702E+05 -6.8417027315708E+05 
ZONE T = "ANOD, 3.0000E-08", I = 10, SOLUTIONTIME = 3.000000E-08
ZONETYPE = ORDERED
DATAPACKING = BLOCK
STRANDID = 1
 0.0000000000000E+00  1.0666666666667E-05  2.1333333333333E-05  3.2000000000000E-05  4.2666666666667E-05  5.3333333333333E-05  6.4000000000000E-05  7.4666666666667E-05  8.5333333333333E-05  9.6000000000000E-05 
 1.0618781940757E-08  3.1583210356555E-08  5.2309381212985E-08  7.2829807192791E-08  9.3176978102685E-08  1.1338264302429E-07  1.3347902774817E-07  1.5349734936699E-07  1.7348609317887E-07  1.8374432147066E-07 
 8.4394679966670E-01  8.4394679967095E-01  8.4394679967470E-01  8.4394679967792E-01  8.4394679968065E-01  8.4394679968286E-01  8.4394679968458E-01  8.4394679968580E-01  8.4394679968664E-01  8.4394679978242E-01 
 7.8026600166649E-02  7.8026600164523E-02  7.8026600162652E-02  7.8026600161038E-02  7.8026600159677E-02  7.8026600158569E-02  7.8026600157710E-02  7.8026600157098E-02  7.8026600156682E-02  7.8026600108790E-02 
 7.8026600166649E-02  7.8026600164523E-02  7.8026600162652E-02  7.8026600161038E-02  7.8026600159677E-02  7.8026600158569E-02  7.8026600157710E-02  7.8026600157098E-02  7.8026600156682E-02  7.8026600108790E-02 
 1.3955050074279E-02  1.3955030578443E-02  1.3954972589546E-02  1.3954876545357E-02  1.3954742823570E-02  1.3954571742471E-02  1.3954363561489E-02  1.3954118481652E-02  1.3953836645933E-02  1.3953518139500E-02 
 0.0000000000000E+00 -1.2973555313989E-04 -2.4373391153290E-04 -3.4217404892335E-04 -4.2521037944007E-04 -4.9297302804643E-04 -5.4556805782909E-04 -5.8307765500015E-04 -6.0556027186384E-04 -6.1305072819120E-04 
 2.9814999998249E+02  2.9814999991667E+02  2.9814999995023E+02  2.9814999995058E+02  2.9814999995089E+02  2.9814999998430E+02  2.9814999995129E+02  2.9814999988505E+02  2.9814999995151E+02  2.9814999998473E+02 
-1.3955050074279E-02 -1.4084766131583E-02 -1.4198706501079E-02 -1.4297050594280E-02 -1.4379953203010E-02 -1.4447544770517E-02 -1.4499931619319E-02 -1.4537196136652E-02 -1.4559396917797E-02 -1.4566568867692E-02 
-2.4231250126443E-02 -2.4231250116762E-02 -2.4231250142524E-02 -2.4231250154032E-02 -2.4231250163725E-02 -2.4231250184064E-02 -2.4231250177734E-02 -2.4231250157205E-02 -2.4231250184700E-02 -2.4231250213722E-02 
 1.0276200052164E-02  1.0146483985178E-02  1.0032543641444E-02  9.9341995597523E-03  9.8512969607154E-03  9.7837054135466E-03  9.7313185584158E-03  9.6940540205528E-03  9.6718532669037E-03  9.6646813460307E-03 
 3.4728408687966E+01  6.8568629817055E+01  6.7788822194450E+01  6.7116023426404E+01  6.6549055133385E+01  6.6086926994003E+01  6.5728832934413E+01  6.5474150033535E+01  6.5322436591016E+01  3.2636714187752E+01 
 1.7997375029222E-07  5.3530484367480E-07  8.8659486425464E-07  1.2343983591437E-06  1.5792637554745E-06  1.9217343474700E-06  2.2623492525302E-06  2.6016445197996E-06  2.9402984836424E-06  2.9402984836424E-06 
 0.0000000000000E+00  6.9012723595792E+01  1.3719144960223E+02  2.0464387241312E+02  2.7147641169141E+02  3.3779440275611E+02  4.0370228272166E+02  4.6930377420450E+02  5.3470206751557E+02  5.9999999999942E+02 
 6.0000000000000E+02  5.3098727640351E+02  4.6280855039776E+02  3.9535612758733E+02  3.2852358830743E+02  2.6220559724373E+02  1.9629771727951E+02  1.3069622579553E+02  6.5297932483252E+01  0.0000000000000E+00 
 1.0419056404483E-06  2.0571655970451E-06  2.0337713140534E-06  2.0135873009655E-06  1.9965782076861E-06  1.9827143256530E-06  1.9719714735575E-06  1.9643309644159E-06  1.9597795477447E-06  9.7915464800056E-07 
 1.4095380728353E+03  2.8190761456439E+03  2.8190761456205E+03  2.8190761456004E+03  2.8190761455833E+03  2.8190761455695E+03  2.8190761455587E+03  2.8190761455511E+03  2.8190761455465E+03  1.4095380727725E+03 
 5.6381522861316E+03  1.1276304572290E+04  1.1276304572313E+04  1.1276304572333E+04  1.1276304572350E+04  1.1276304572364E+04  1.1276304572375E+04  1.1276304572383E+04  1.1276304572387E+04  5.6381522861944E+03 
 7.0476903589669E+03  1.4095380717934E+04  1.4095380717934E+04  1.4095380717934E+04  1.4095380717934E+04  1.4095380717934E+04  1.4095380717934E+04  1.4095380717934E+04  1.4095380717934E+04  7.0476903589669E+03 
 4.0000000000000E-01  4.0000000000000E-01  4.0000000000000E-01  4.0000000000000E-01  4.0000000000000E-01  4.0000000000000E-01  4.0000000000000E-01  4.0000000000000E-01  4.0000000000000E-01  4.0000000000000E-01 
 9.4000000000000E-01  1.8800000000000E+00  1.8800000000000E+00  1.8800000000000E+00  1.8800000000000E+00  1.8800000000000E+00  1.8800000000000E+00  1.8800000000000E+00  1.8800000000000E+00  9.4000000000000E-01 
 3.6945115625496E+01  3.6472675434604E+01  3.6057884145984E+01  3.5700012460853E+01  3.5398433581588E+01  3.5152620741491E+01  3.4962145177880E+01  3.4826675549753E+01  3.4745976910115E+01  3.4719908710375E+01 
 5.3333333333333E-06  1.0666666666667E-05  1.0666666666667E-05  1.0666666666667E-05  1.0666666666667E-05  1.0666666666667E-05  1.0666666666667E-05  1.0666666666667E-05  1.0666666666667E-05  5.3333333333333E-06 
 3.0000000000000E-02  3.0000000000000E-02  3.0000000000000E-02  3.0000000000000E-02  3.0000000000000E-02  3.0000000000000E-02  3.0000000000000E-02  3.0000000000000E-02  3.0000000000000E-02  3.0000000000000E-02 
 1.0000000000000E-01  1.0000000000000E-01  1.0000000000000E-01  1.0000000000000E-01  1.0000000000000E-01  1.0000000000000E-01  1.0000000000000E-01  1.0000000000000E-01  1.0000000000000E-01  1.0000000000000E-01 
 1.0956624005687E+01  1.0956624005713E+01  1.0956624005735E+01  1.0956624005755E+01  1.0956624005772E+01  1.0956624005785E+01  1.0956624005795E+01  1.0956624005803E+01  1.0956624005807E+01  1.0956624005809E+01 
 2.7391560039526E+00  2.7391560039267E+00  2.7391560039040E+00  2.7391560038844E+00  2.7391560038679E+00  2.7391560038544E+00  2.7391560038440E+00  2.7391560038365E+00  2.7391560038321E+00  2.7391560038307E+00 
-1.9627794875436E-02 -1.9422688335358E-02 -1.9265188933809E-02 -1.9128521026224E-02 -1.9012788379119E-02 -1.8918075457920E-02 -1.8844448894068E-02 -1.8791959236788E-02 -1.8760641989062E-02 -1.8750579478961E-02 
-6.5422934237082E+05 -6.4739239005585E+05 -6.4214235219711E+05 -6.3758670546239E+05 -6.3372890863724E+05 -6.3057177713836E+05 -6.2811753192964E+05 -6.2636785793111E+05 -6.2532393851020E+05 -6.2498851818872E+05 
 1.9042220416533E-01  9.3756363626177E-01  3.1530687176417E+00  6.7900057197852E+00  1.1811062289415E+01  1.8188205898002E+01  2.5902409040813E+01  3.4943427675569E+01  4.5309632249109E+01  5.0824360938887E+01 
 2.0625705026689E+04  1.8275512323223E+04  1.3900186065403E+04  1.0162242564040E+04  7.0381851516974E+03  4.5083953145504E+03  2.5570039908346E+03  1.1717875574626E+03  3.4408784231174E+02  6.8755608631677E+01 
-6.6110463921137E+05 -6.5348453749022E+05 -6.4677679489578E+05 -6.4097637918032E+05 -6.3607890408372E+05 -6.3208063586275E+05 -6.2897849919279E+05 -6.2677010084076E+05 -6.2545373744008E+05 -6.2502837813294E+05 
 6.6914264213605E+04  6.5224734896519E+04  6.3758842338595E+04  6.2507247333851E+04  6.1461984913176E+04  6.0616408738696E+04  5.9965144958948E+04  5.9504057672205E+04  5.9230220893909E+04  5.9141895598816E+04 