TITLE = "Solution on Domain BulkDomain1D_1"
VARIABLES = "x [m]"  
"Vel_axial" 	"MF_sp(ECDMC)" 	"MF_sp(Li+)" 	"MF_sp(PF6-)" 	"Volt(Electroly)" 	"Temperature" 	"Porosity []" 	"Control volume thickness [m]" 	"volFrac MgO(S) []" 	"volFrac ExtraStuff []" 	"qHeat_accum [J/m3]" 	"qHeat_step [W/m3]" 	"Joule_Lyte [W/m3]" 	"Joule_Solid [W/m3]" 	
ZONE T = "SEP , 0.0000E+00", I = 10, SOLUTIONTIME = 0.000000E+00
ZONETYPE = ORDERED
DATAPACKING = BLOCK
STRANDID = 2
 9.6000000000000E-05  9.8777777777778E-05  1.0155555555556E-04  1.0433333333333E-04  1.0711111111111E-04  1.0988888888889E-04  1.1266666666667E-04  1.1544444444444E-04  1.1822222222222E-04  1.2100000000000E-04 
 0.0000000000000E+00  0.0000000000000E+00  0.0000000000000E+00  0.0000000000000E+00  0.0000000000000E+00  0.0000000000000E+00  0.0000000000000E+00  0.0000000000000E+00  0.0000000000000E+00  0.0000000000000E+00 
 8.4394680000000E-01  8.4394680000000E-01  8.4394680000000E-01  8.4394680000000E-01  8.4394680000000E-01  8.4394680000000E-01  8.4394680000000E-01  8.4394680000000E-01  8.4394680000000E-01  8.4394680000000E-01 
 7.8026600000000E-02  7.8026600000000E-02  7.8026600000000E-02  7.8026600000000E-02  7.8026600000000E-02  7.8026600000000E-02  7.8026600000000E-02  7.8026600000000E-02  7.8026600000000E-02  7.8026600000000E-02 
 7.8026600000000E-02  7.8026600000000E-02  7.8026600000000E-02  7.8026600000000E-02  7.8026600000000E-02  7.8026600000000E-02  7.8026600000000E-02  7.8026600000000E-02  7.8026600000000E-02  7.8026600000000E-02 
-7.0000000000000E-02 -7.0000000000000E-02 -7.0000000000000E-02 -7.0000000000000E-02 -7.0000000000000E-02 -7.0000000000000E-02 -7.0000000000000E-02 -7.0000000000000E-02 -7.0000000000000E-02 -7.0000000000000E-02 
 2.9815000000000E+02  2.9815000000000E+02  2.9815000000000E+02  2.9815000000000E+02  2.9815000000000E+02  2.9815000000000E+02  2.9815000000000E+02  2.9815000000000E+02  2.9815000000000E+02  2.9815000000000E+02 
 6.5000471412550E-01  6.5000471412551E-01  6.5000471412550E-01  6.5000471412550E-01  6.5000471412551E-01  6.5000471412550E-01  6.5000471412551E-01  6.5000471412550E-01  6.5000471412550E-01  6.5000471412551E-01 
 1.3888888888889E-06  2.7777777777778E-06  2.7777777777778E-06  2.7777777777778E-06  2.7777777777778E-06  2.7777777777778E-06  2.7777777777778E-06  2.7777777777778E-06  2.7777777777778E-06  1.3888888888889E-06 
 2.4999528587450E-01  2.4999528587449E-01  2.4999528587450E-01  2.4999528587450E-01  2.4999528587449E-01  2.4999528587450E-01  2.4999528587449E-01  2.4999528587450E-01  2.4999528587450E-01  2.4999528587449E-01 
 1.0000000000000E-01  1.0000000000000E-01  1.0000000000000E-01  1.0000000000000E-01  1.0000000000000E-01  1.0000000000000E-01  1.0000000000000E-01  1.0000000000000E-01  1.0000000000000E-01  1.0000000000000E-01 
 0.0000000000000E+00  0.0000000000000E+00  0.0000000000000E+00  0.0000000000000E+00  0.0000000000000E+00  0.0000000000000E+00  0.0000000000000E+00  0.0000000000000E+00  0.0000000000000E+00  0.0000000000000E+00 
 0.0000000000000E+00  0.0000000000000E+00  0.0000000000000E+00  0.0000000000000E+00  0.0000000000000E+00  0.0000000000000E+00  0.0000000000000E+00  0.0000000000000E+00  0.0000000000000E+00  0.0000000000000E+00 
 0.0000000000000E+00  0.0000000000000E+00  0.0000000000000E+00  0.0000000000000E+00  0.0000000000000E+00  0.0000000000000E+00  0.0000000000000E+00  0.0000000000000E+00  0.0000000000000E+00  0.0000000000000E+00 
 0.0000000000000E+00  0.0000000000000E+00  0.0000000000000E+00  0.0000000000000E+00  0.0000000000000E+00  0.0000000000000E+00  0.0000000000000E+00  0.0000000000000E+00  0.0000000000000E+00  0.0000000000000E+00 
ZONE T = "SEP , 1.0000E-08", I = 10, SOLUTIONTIME = 1.000000E-08
ZONETYPE = ORDERED
DATAPACKING = BLOCK
STRANDID = 2
 9.6000000000000E-05  9.8777777777778E-05  1.0155555555556E-04  1.0433333333333E-04  1.0711111111111E-04  1.0988888888889E-04  1.1266666666667E-04  1.1544444444444E-04  1.1822222222222E-04  1.2100000000000E-04 
 1.8354796451424E-07  1.8344871328641E-07  1.8344770928285E-07  1.8344771160674E-07  1.8344771150922E-07  1.8344771152132E-07  1.8344771252589E-07  1.8344779188553E-07  1.8345726859084E-07  1.8279065542338E-07 
 8.4394679992706E-01  8.4394679999925E-01  8.4394679999999E-01  8.4394680000000E-01  8.4394680000000E-01  8.4394680000000E-01  8.4394680000000E-01  8.4394680000000E-01  8.4394680000007E-01  8.4394680000694E-01 
 7.8026600036470E-02  7.8026600000373E-02  7.8026600000004E-02  7.8026600000000E-02  7.8026600000000E-02  7.8026600000000E-02  7.8026600000000E-02  7.8026600000000E-02  7.8026599999964E-02  7.8026599996528E-02 
 7.8026600036470E-02  7.8026600000373E-02  7.8026600000004E-02  7.8026600000000E-02  7.8026600000000E-02  7.8026600000000E-02  7.8026600000000E-02  7.8026600000000E-02  7.8026599999964E-02  7.8026599996528E-02 
 1.3951822817452E-02  1.3951780473435E-02  1.3951738129356E-02  1.3951695785340E-02  1.3951653441334E-02  1.3951611097250E-02  1.3951568753241E-02  1.3951526409225E-02  1.3951484065152E-02  1.3951441721140E-02 
 2.9814999998300E+02  2.9814999999026E+02  2.9814999999354E+02  2.9814999999558E+02  2.9814999999667E+02  2.9814999999846E+02  2.9814999999956E+02  2.9815000000172E+02  2.9815000000653E+02  2.9815000001391E+02 
 6.5000471412550E-01  6.5000471412551E-01  6.5000471412550E-01  6.5000471412550E-01  6.5000471412551E-01  6.5000471412550E-01  6.5000471412551E-01  6.5000471412550E-01  6.5000471412550E-01  6.5000471412551E-01 
 1.3888888888889E-06  2.7777777777778E-06  2.7777777777778E-06  2.7777777777778E-06  2.7777777777778E-06  2.7777777777778E-06  2.7777777777778E-06  2.7777777777778E-06  2.7777777777778E-06  1.3888888888889E-06 
 2.4999528587450E-01  2.4999528587449E-01  2.4999528587450E-01  2.4999528587450E-01  2.4999528587449E-01  2.4999528587450E-01  2.4999528587449E-01  2.4999528587450E-01  2.4999528587450E-01  2.4999528587449E-01 
 1.0000000000000E-01  1.0000000000000E-01  1.0000000000000E-01  1.0000000000000E-01  1.0000000000000E-01  1.0000000000000E-01  1.0000000000000E-01  1.0000000000000E-01  1.0000000000000E-01  1.0000000000000E-01 
 9.1463037599015E-08  9.1463171519198E-08  9.1463171528426E-08  9.1463014850454E-08  9.1463159787858E-08  9.1463165400422E-08  9.1463020462083E-08  9.1463159786111E-08  9.1463148759819E-08  9.1463015563018E-08 
 9.1463037599015E+00  9.1463171519198E+00  9.1463171528426E+00  9.1463014850454E+00  9.1463159787858E+00  9.1463165400422E+00  9.1463020462083E+00  9.1463159786111E+00  9.1463148759819E+00  9.1463015563018E+00 
 9.1463037599015E+00  9.1463171519198E+00  9.1463171528426E+00  9.1463014850454E+00  9.1463159787858E+00  9.1463165400422E+00  9.1463020462083E+00  9.1463159786111E+00  9.1463148759819E+00  9.1463015563018E+00 
 0.0000000000000E+00  0.0000000000000E+00  0.0000000000000E+00  0.0000000000000E+00  0.0000000000000E+00  0.0000000000000E+00  0.0000000000000E+00  0.0000000000000E+00  0.0000000000000E+00  0.0000000000000E+00 
ZONE T = "SEP , 2.0000E-08", I = 10, SOLUTIONTIME = 2.000000E-08
ZONETYPE = ORDERED
DATAPACKING = BLOCK
STRANDID = 2
 9.6000000000000E-05  9.8777777777778E-05  1.0155555555556E-04  1.0433333333333E-04  1.0711111111111E-04  1.0988888888889E-04  1.1266666666667E-04  1.1544444444444E-04  1.1822222222222E-04  1.2100000000000E-04 
 1.8364685266484E-07  1.8345077315075E-07  1.8344778470056E-07  1.8344778632181E-07  1.8344778579792E-07  1.8344778584515E-07  1.8344778786717E-07  1.8344813223616E-07  1.8346684714472E-07  1.8279388001619E-07 
 8.4394679985454E-01  8.4394679999778E-01  8.4394679999997E-01  8.4394680000000E-01  8.4394680000000E-01  8.4394680000000E-01  8.4394680000000E-01  8.4394680000000E-01  8.4394680000021E-01  8.4394680001382E-01 
 7.8026600072732E-02  7.8026600001110E-02  7.8026600000015E-02  7.8026600000000E-02  7.8026600000000E-02  7.8026600000000E-02  7.8026600000000E-02  7.8026599999999E-02  7.8026599999894E-02  7.8026599993088E-02 
 7.8026600072732E-02  7.8026600001110E-02  7.8026600000015E-02  7.8026600000000E-02  7.8026600000000E-02  7.8026600000000E-02  7.8026600000000E-02  7.8026599999999E-02  7.8026599999894E-02  7.8026599993088E-02 
 1.3953381193260E-02  1.3953338849226E-02  1.3953296505192E-02  1.3953254161157E-02  1.3953211817123E-02  1.3953169473089E-02  1.3953127129054E-02  1.3953084785020E-02  1.3953042440986E-02  1.3953000096952E-02 
 2.9814999996728E+02  2.9814999997749E+02  2.9814999998531E+02  2.9814999999078E+02  2.9814999999475E+02  2.9814999999734E+02  2.9815000000041E+02  2.9815000000506E+02  2.9815000001029E+02  2.9815000001432E+02 
 6.5000471412550E-01  6.5000471412551E-01  6.5000471412550E-01  6.5000471412550E-01  6.5000471412551E-01  6.5000471412550E-01  6.5000471412551E-01  6.5000471412550E-01  6.5000471412550E-01  6.5000471412551E-01 
 1.3888888888889E-06  2.7777777777778E-06  2.7777777777778E-06  2.7777777777778E-06  2.7777777777778E-06  2.7777777777778E-06  2.7777777777778E-06  2.7777777777778E-06  2.7777777777778E-06  1.3888888888889E-06 
 2.4999528587450E-01  2.4999528587449E-01  2.4999528587450E-01  2.4999528587450E-01  2.4999528587449E-01  2.4999528587450E-01  2.4999528587449E-01  2.4999528587450E-01  2.4999528587450E-01  2.4999528587449E-01 
 1.0000000000000E-01  1.0000000000000E-01  1.0000000000000E-01  1.0000000000000E-01  1.0000000000000E-01  1.0000000000000E-01  1.0000000000000E-01  1.0000000000000E-01  1.0000000000000E-01  1.0000000000000E-01 
 1.8292615163544E-07  1.8292628558294E-07  1.8292628562185E-07  1.8292612894551E-07  1.8292627388543E-07  1.8292627949706E-07  1.8292613455769E-07  1.8292627388783E-07  1.8292626286527E-07  1.8292612966925E-07 
 9.1463114036427E+00  9.1463114063741E+00  9.1463114093421E+00  9.1463114095058E+00  9.1463114097573E+00  9.1463114096636E+00  9.1463114095608E+00  9.1463114101718E+00  9.1463114105451E+00  9.1463114106229E+00 
 9.1463114036427E+00  9.1463114063741E+00  9.1463114093421E+00  9.1463114095058E+00  9.1463114097573E+00  9.1463114096636E+00  9.1463114095608E+00  9.1463114101718E+00  9.1463114105451E+00  9.1463114106229E+00 
 0.0000000000000E+00  0.0000000000000E+00  0.0000000000000E+00  0.0000000000000E+00  0.0000000000000E+00  0.0000000000000E+00  0.0000000000000E+00  0.0000000000000E+00  0.0000000000000E+00  0.0000000000000E+00 
ZONE T = "SEP , 3.0000E-08", I = 10, SOLUTIONTIME = 3.000000E-08
ZONETYPE = ORDERED
DATAPACKING = BLOCK
STRANDID = 2
 9.6000000000000E-05  9.8777777777778E-05  1.0155555555556E-04  1.0433333333333E-04  1.0711111111111E-04  1.0988888888889E-04  1.1266666666667E-04  1.1544444444444E-04  1.1822222222222E-04  1.2100000000000E-04 
 1.8374416409168E-07  1.8345375633050E-07  1.8344780556460E-07  1.8344770036647E-07  1.8344769879760E-07  1.8344769891842E-07  1.8344775039343E-07  1.8344833203125E-07  1.8347584950946E-07  1.8279520383646E-07 
 8.4394679978242E-01  8.4394679999560E-01  8.4394679999993E-01  8.4394680000000E-01  8.4394680000000E-01  8.4394680000000E-01  8.4394680000000E-01  8.4394680000001E-01  8.4394680000042E-01  8.4394680002066E-01 
 7.8026600108790E-02  7.8026600002201E-02  7.8026600000037E-02  7.8026600000001E-02  7.8026600000000E-02  7.8026600000000E-02  7.8026600000000E-02  7.8026599999996E-02  7.8026599999791E-02  7.8026599989671E-02 
 7.8026600108790E-02  7.8026600002201E-02  7.8026600000037E-02  7.8026600000001E-02  7.8026600000000E-02  7.8026600000000E-02  7.8026600000000E-02  7.8026599999996E-02  7.8026599999791E-02  7.8026599989671E-02 
 1.3953380811784E-02  1.3953338467750E-02  1.3953296123716E-02  1.3953253779682E-02  1.3953211435647E-02  1.3953169091613E-02  1.3953126747579E-02  1.3953084403544E-02  1.3953042059510E-02  1.3952999715476E-02 
 2.9814999995156E+02  2.9814999996566E+02  2.9814999997658E+02  2.9814999998502E+02  2.9814999999153E+02  2.9814999999743E+02  2.9815000000285E+02  2.9815000000747E+02  2.9815000001045E+02  2.9815000001473E+02 
 6.5000471412550E-01  6.5000471412551E-01  6.5000471412550E-01  6.5000471412550E-01  6.5000471412551E-01  6.5000471412550E-01  6.5000471412551E-01  6.5000471412550E-01  6.5000471412550E-01  6.5000471412551E-01 
 1.3888888888889E-06  2.7777777777778E-06  2.7777777777778E-06  2.7777777777778E-06  2.7777777777778E-06  2.7777777777778E-06  2.7777777777778E-06  2.7777777777778E-06  2.7777777777778E-06  1.3888888888889E-06 
 2.4999528587450E-01  2.4999528587449E-01  2.4999528587450E-01  2.4999528587450E-01  2.4999528587449E-01  2.4999528587450E-01  2.4999528587449E-01  2.4999528587450E-01  2.4999528587450E-01  2.4999528587449E-01 
 1.0000000000000E-01  1.0000000000000E-01  1.0000000000000E-01  1.0000000000000E-01  1.0000000000000E-01  1.0000000000000E-01  1.0000000000000E-01  1.0000000000000E-01  1.0000000000000E-01  1.0000000000000E-01 
 2.7438926564791E-07  2.7438939963289E-07  2.7438939971458E-07  2.7438924303863E-07  2.7438938798018E-07  2.7438939359374E-07  2.7438924865648E-07  2.7438938798894E-07  2.7438937696930E-07  2.7438924378058E-07 
 9.1463114012470E+00  9.1463114049956E+00  9.1463114092733E+00  9.1463114093118E+00  9.1463114094754E+00  9.1463114096682E+00  9.1463114098788E+00  9.1463114101113E+00  9.1463114104026E+00  9.1463114111336E+00 
 9.1463114012470E+00  9.1463114049956E+00  9.1463114092733E+00  9.1463114093118E+00  9.1463114094754E+00  9.1463114096682E+00  9.1463114098788E+00  9.1463114101113E+00  9.1463114104026E+00  9.1463114111336E+00 
 0.0000000000000E+00  0.0000000000000E+00  0.0000000000000E+00  0.0000000000000E+00  0.0000000000000E+00  0.0000000000000E+00  0.0000000000000E+00  0.0000000000000E+00  0.0000000000000E+00  0.0000000000000E+00 
ZONE T = "SEP , 4.0000E-08", I = 10, SOLUTIONTIME = 4.000000E-08
ZONETYPE = ORDERED
DATAPACKING = BLOCK
STRANDID = 2
 9.6000000000000E-05  9.8777777777778E-05  1.0155555555556E-04  1.0433333333333E-04  1.0711111111111E-04  1.0988888888889E-04  1.1266666666667E-04  1.1544444444444E-04  1.1822222222222E-04  1.2100000000000E-04 
 1.8383988789793E-07  1.8345774577389E-07  1.8344804374174E-07  1.8344780706309E-07  1.8344780772053E-07  1.8344780803471E-07  1.8344783496671E-07  1.8344873425733E-07  1.8348498019326E-07  1.8279715406789E-07 
 8.4394679971071E-01  8.4394679999273E-01  8.4394679999985E-01  8.4394680000000E-01  8.4394680000000E-01  8.4394680000000E-01  8.4394680000000E-01  8.4394680000001E-01  8.4394680000069E-01  8.4394680002744E-01 
 7.8026600144646E-02  7.8026600003637E-02  7.8026600000074E-02  7.8026600000001E-02  7.8026600000000E-02  7.8026600000000E-02  7.8026600000000E-02  7.8026599999993E-02  7.8026599999655E-02  7.8026599986278E-02 
 7.8026600144646E-02  7.8026600003637E-02  7.8026600000074E-02  7.8026600000001E-02  7.8026600000000E-02  7.8026600000000E-02  7.8026600000000E-02  7.8026599999993E-02  7.8026599999655E-02  7.8026599986278E-02 
 1.3953380430312E-02  1.3953338086278E-02  1.3953295742244E-02  1.3953253398209E-02  1.3953211054175E-02  1.3953168710141E-02  1.3953126366107E-02  1.3953084022072E-02  1.3953041678038E-02  1.3952999334004E-02 
 2.9814999993585E+02  2.9814999995508E+02  2.9814999996931E+02  2.9814999998025E+02  2.9814999999012E+02  2.9814999999714E+02  2.9815000000284E+02  2.9815000000708E+02  2.9815000001123E+02  2.9815000001515E+02 
 6.5000471412550E-01  6.5000471412551E-01  6.5000471412550E-01  6.5000471412550E-01  6.5000471412551E-01  6.5000471412550E-01  6.5000471412551E-01  6.5000471412550E-01  6.5000471412550E-01  6.5000471412551E-01 
 1.3888888888889E-06  2.7777777777778E-06  2.7777777777778E-06  2.7777777777778E-06  2.7777777777778E-06  2.7777777777778E-06  2.7777777777778E-06  2.7777777777778E-06  2.7777777777778E-06  1.3888888888889E-06 
 2.4999528587450E-01  2.4999528587449E-01  2.4999528587450E-01  2.4999528587450E-01  2.4999528587449E-01  2.4999528587450E-01  2.4999528587449E-01  2.4999528587450E-01  2.4999528587450E-01  2.4999528587449E-01 
 1.0000000000000E-01  1.0000000000000E-01  1.0000000000000E-01  1.0000000000000E-01  1.0000000000000E-01  1.0000000000000E-01  1.0000000000000E-01  1.0000000000000E-01  1.0000000000000E-01  1.0000000000000E-01 
 3.6585237962884E-07  3.6585251366893E-07  3.6585251380261E-07  3.6585235712941E-07  3.6585250207554E-07  3.6585250769058E-07  3.6585236275532E-07  3.6585250209001E-07  3.6585249107575E-07  3.6585235788943E-07 
 9.1463113980923E+00  9.1463114036033E+00  9.1463114088025E+00  9.1463114090780E+00  9.1463114095358E+00  9.1463114096835E+00  9.1463114098841E+00  9.1463114101068E+00  9.1463114106453E+00  9.1463114108847E+00 
 9.1463113980923E+00  9.1463114036033E+00  9.1463114088025E+00  9.1463114090780E+00  9.1463114095358E+00  9.1463114096835E+00  9.1463114098841E+00  9.1463114101068E+00  9.1463114106453E+00  9.1463114108847E+00 
 0.0000000000000E+00  0.0000000000000E+00  0.0000000000000E+00  0.0000000000000E+00  0.0000000000000E+00  0.0000000000000E+00  0.0000000000000E+00  0.0000000000000E+00  0.0000000000000E+00  0.0000000000000E+00 
ZONE T = "SEP , 5.5000E-08", I = 10, SOLUTIONTIME = 5.500000E-08
ZONETYPE = ORDERED
DATAPACKING = BLOCK
STRANDID = 2
 9.6000000000000E-05  9.8777777777778E-05  1.0155555555556E-04  1.0433333333333E-04  1.0711111111111E-04  1.0988888888889E-04  1.1266666666667E-04  1.1544444444444E-04  1.1822222222222E-04  1.2100000000000E-04 
 1.8397956930907E-07  1.8346492104465E-07  1.8344768262229E-07  1.8344724064024E-07  1.8344723958992E-07  1.8344724037915E-07  1.8344727367853E-07  1.8344887780118E-07  1.8349764446748E-07  1.8279927209544E-07 
 8.4394679960402E-01  8.4394679998692E-01  8.4394679999966E-01  8.4394679999999E-01  8.4394680000000E-01  8.4394680000000E-01  8.4394680000000E-01  8.4394680000003E-01  8.4394680000124E-01  8.4394680003752E-01 
 7.8026600197989E-02  7.8026600006538E-02  7.8026600000171E-02  7.8026600000004E-02  7.8026600000000E-02  7.8026600000000E-02  7.8026600000000E-02  7.8026599999984E-02  7.8026599999380E-02  7.8026599981240E-02 
 7.8026600197989E-02  7.8026600006538E-02  7.8026600000171E-02  7.8026600000004E-02  7.8026600000000E-02  7.8026600000000E-02  7.8026600000000E-02  7.8026599999984E-02  7.8026599999380E-02  7.8026599981240E-02 
 1.3953379983437E-02  1.3953337639403E-02  1.3953295295368E-02  1.3953252951334E-02  1.3953210607300E-02  1.3953168263265E-02  1.3953125919231E-02  1.3953083575197E-02  1.3953041231162E-02  1.3952998887128E-02 
 2.9814999991229E+02  2.9814999993590E+02  2.9814999995470E+02  2.9814999996978E+02  2.9814999998107E+02  2.9814999999008E+02  2.9814999999716E+02  2.9815000000300E+02  2.9815000000928E+02  2.9815000001576E+02 
 6.5000471412550E-01  6.5000471412551E-01  6.5000471412550E-01  6.5000471412550E-01  6.5000471412551E-01  6.5000471412550E-01  6.5000471412551E-01  6.5000471412550E-01  6.5000471412550E-01  6.5000471412551E-01 
 1.3888888888889E-06  2.7777777777778E-06  2.7777777777778E-06  2.7777777777778E-06  2.7777777777778E-06  2.7777777777778E-06  2.7777777777778E-06  2.7777777777778E-06  2.7777777777778E-06  1.3888888888889E-06 
 2.4999528587450E-01  2.4999528587449E-01  2.4999528587450E-01  2.4999528587450E-01  2.4999528587449E-01  2.4999528587450E-01  2.4999528587449E-01  2.4999528587450E-01  2.4999528587450E-01  2.4999528587449E-01 
 1.0000000000000E-01  1.0000000000000E-01  1.0000000000000E-01  1.0000000000000E-01  1.0000000000000E-01  1.0000000000000E-01  1.0000000000000E-01  1.0000000000000E-01  1.0000000000000E-01  1.0000000000000E-01 
 5.0304705054154E-07  5.0304718468213E-07  5.0304718492607E-07  5.0304702826514E-07  5.0304717321144E-07  5.0304717883353E-07  5.0304703390055E-07  5.0304717323766E-07  5.0304716223915E-07  5.0304702905904E-07 
 9.1463113941802E+00  9.1463114008803E+00  9.1463114082312E+00  9.1463114090488E+00  9.1463114090598E+00  9.1463114095301E+00  9.1463114096816E+00  9.1463114098436E+00  9.1463114108936E+00  9.1463114113074E+00 
 9.1463113941802E+00  9.1463114008803E+00  9.1463114082312E+00  9.1463114090488E+00  9.1463114090598E+00  9.1463114095301E+00  9.1463114096816E+00  9.1463114098436E+00  9.1463114108936E+00  9.1463114113074E+00 
 0.0000000000000E+00  0.0000000000000E+00  0.0000000000000E+00  0.0000000000000E+00  0.0000000000000E+00  0.0000000000000E+00  0.0000000000000E+00  0.0000000000000E+00  0.0000000000000E+00  0.0000000000000E+00 
ZONE T = "SEP , 7.7500E-08", I = 10, SOLUTIONTIME = 7.750000E-08
ZONETYPE = ORDERED
DATAPACKING = BLOCK
STRANDID = 2
 9.6000000000000E-05  9.8777777777778E-05  1.0155555555556E-04  1.0433333333333E-04  1.0711111111111E-04  1.0988888888889E-04  1.1266666666667E-04  1.1544444444444E-04  1.1822222222222E-04  1.2100000000000E-04 
 1.8418302126826E-07  1.8348079502442E-07  1.8344855434746E-07  1.8344741522075E-07  1.8344738026909E-07  1.8344738081618E-07  1.8344749851225E-07  1.8345057605516E-07  1.8351699697080E-07  1.8280342957780E-07 
 8.4394679944590E-01  8.4394679997505E-01  8.4394679999911E-01  8.4394679999997E-01  8.4394680000000E-01  8.4394680000000E-01  8.4394680000000E-01  8.4394680000008E-01  8.4394680000236E-01  8.4394680005242E-01 
 7.8026600277050E-02  7.8026600012475E-02  7.8026600000444E-02  7.8026600000014E-02  7.8026600000000E-02  7.8026600000000E-02  7.8026599999999E-02  7.8026599999958E-02  7.8026599998818E-02  7.8026599973792E-02 
 7.8026600277050E-02  7.8026600012475E-02  7.8026600000444E-02  7.8026600000014E-02  7.8026600000000E-02  7.8026600000000E-02  7.8026599999999E-02  7.8026599999958E-02  7.8026599998818E-02  7.8026599973792E-02 
 1.3953379194797E-02  1.3953336850763E-02  1.3953294506729E-02  1.3953252162694E-02  1.3953209818660E-02  1.3953167474626E-02  1.3953125130591E-02  1.3953082786557E-02  1.3953040442523E-02  1.3952998098488E-02 
 2.9814999987695E+02  2.9814999990530E+02  2.9814999992923E+02  2.9814999994909E+02  2.9814999996522E+02  2.9814999997804E+02  2.9814999998954E+02  2.9814999999935E+02  2.9815000000846E+02  2.9815000001667E+02 
 6.5000471412550E-01  6.5000471412551E-01  6.5000471412550E-01  6.5000471412550E-01  6.5000471412551E-01  6.5000471412550E-01  6.5000471412551E-01  6.5000471412550E-01  6.5000471412550E-01  6.5000471412551E-01 
 1.3888888888889E-06  2.7777777777778E-06  2.7777777777778E-06  2.7777777777778E-06  2.7777777777778E-06  2.7777777777778E-06  2.7777777777778E-06  2.7777777777778E-06  2.7777777777778E-06  1.3888888888889E-06 
 2.4999528587450E-01  2.4999528587449E-01  2.4999528587450E-01  2.4999528587450E-01  2.4999528587449E-01  2.4999528587450E-01  2.4999528587449E-01  2.4999528587450E-01  2.4999528587450E-01  2.4999528587449E-01 
 1.0000000000000E-01  1.0000000000000E-01  1.0000000000000E-01  1.0000000000000E-01  1.0000000000000E-01  1.0000000000000E-01  1.0000000000000E-01  1.0000000000000E-01  1.0000000000000E-01  1.0000000000000E-01 
 7.0883905677168E-07  7.0883919111300E-07  7.0883919158310E-07  7.0883903494950E-07  7.0883917990955E-07  7.0883918553929E-07  7.0883904060684E-07  7.0883917996141E-07  7.0883916898712E-07  7.0883903581851E-07 
 9.1463113880062E+00  9.1463113969273E+00  9.1463114069791E+00  9.1463114081938E+00  9.1463114088048E+00  9.1463114091453E+00  9.1463114091686E+00  9.1463114099442E+00  9.1463114110209E+00  9.1463114115318E+00 
 9.1463113880062E+00  9.1463113969273E+00  9.1463114069791E+00  9.1463114081938E+00  9.1463114088048E+00  9.1463114091453E+00  9.1463114091686E+00  9.1463114099442E+00  9.1463114110209E+00  9.1463114115318E+00 
 0.0000000000000E+00  0.0000000000000E+00  0.0000000000000E+00  0.0000000000000E+00  0.0000000000000E+00  0.0000000000000E+00  0.0000000000000E+00  0.0000000000000E+00  0.0000000000000E+00  0.0000000000000E+00 
ZONE T = "SEP , 1.1125E-07", I = 10, SOLUTIONTIME = 1.112500E-07
ZONETYPE = ORDERED
DATAPACKING = BLOCK
STRANDID = 2
 9.6000000000000E-05  9.8777777777778E-05  1.0155555555556E-04  1.0433333333333E-04  1.0711111111111E-04  1.0988888888889E-04  1.1266666666667E-04  1.1544444444444E-04  1.1822222222222E-04  1.2100000000000E-04 
 1.8447344987218E-07  1.8351274137722E-07  1.8345084445255E-07  1.8344770278296E-07  1.8344756897880E-07  1.8344758460556E-07  1.8344788214285E-07  1.8345372567364E-07  1.8354438537151E-07  1.8280981418417E-07 
 8.4394679921278E-01  8.4394679995068E-01  8.4394679999754E-01  8.4394679999989E-01  8.4394680000000E-01  8.4394680000000E-01  8.4394680000001E-01  8.4394680000023E-01  8.4394680000466E-01  8.4394680007430E-01 
 7.8026600393608E-02  7.8026600024660E-02  7.8026600001229E-02  7.8026600000053E-02  7.8026600000002E-02  7.8026600000000E-02  7.8026599999995E-02  7.8026599999884E-02  7.8026599997668E-02  7.8026599962849E-02 
 7.8026600393608E-02  7.8026600024660E-02  7.8026600001229E-02  7.8026600000053E-02  7.8026600000002E-02  7.8026600000000E-02  7.8026599999995E-02  7.8026599999884E-02  7.8026599997668E-02  7.8026599962849E-02 
 1.3953378011854E-02  1.3953335667820E-02  1.3953293323786E-02  1.3953250979751E-02  1.3953208635717E-02  1.3953166291683E-02  1.3953123947649E-02  1.3953081603614E-02  1.3953039259580E-02  1.3952996915546E-02 
 2.9814999982396E+02  2.9814999985922E+02  2.9814999988929E+02  2.9814999991566E+02  2.9814999993841E+02  2.9814999995857E+02  2.9814999997534E+02  2.9814999999058E+02  2.9815000000464E+02  2.9815000001805E+02 
 6.5000471412550E-01  6.5000471412551E-01  6.5000471412550E-01  6.5000471412550E-01  6.5000471412551E-01  6.5000471412550E-01  6.5000471412551E-01  6.5000471412550E-01  6.5000471412550E-01  6.5000471412551E-01 
 1.3888888888889E-06  2.7777777777778E-06  2.7777777777778E-06  2.7777777777778E-06  2.7777777777778E-06  2.7777777777778E-06  2.7777777777778E-06  2.7777777777778E-06  2.7777777777778E-06  1.3888888888889E-06 
 2.4999528587450E-01  2.4999528587449E-01  2.4999528587450E-01  2.4999528587450E-01  2.4999528587449E-01  2.4999528587450E-01  2.4999528587449E-01  2.4999528587450E-01  2.4999528587450E-01  2.4999528587449E-01 
 1.0000000000000E-01  1.0000000000000E-01  1.0000000000000E-01  1.0000000000000E-01  1.0000000000000E-01  1.0000000000000E-01  1.0000000000000E-01  1.0000000000000E-01  1.0000000000000E-01  1.0000000000000E-01 
 1.0175270657692E-06  1.0175272005588E-06  1.0175272015239E-06  1.0175270449484E-06  1.0175271899211E-06  1.0175271955681E-06  1.0175270506556E-06  1.0175271900295E-06  1.0175271791236E-06  1.0175270460082E-06 
 9.1463113777054E+00  9.1463113909869E+00  9.1463114056546E+00  9.1463114073733E+00  9.1463114077497E+00  9.1463114082595E+00  9.1463114088509E+00  9.1463114094250E+00  9.1463114114505E+00  9.1463114130273E+00 
 9.1463113777054E+00  9.1463113909869E+00  9.1463114056546E+00  9.1463114073733E+00  9.1463114077497E+00  9.1463114082595E+00  9.1463114088509E+00  9.1463114094250E+00  9.1463114114505E+00  9.1463114130273E+00 
 0.0000000000000E+00  0.0000000000000E+00  0.0000000000000E+00  0.0000000000000E+00  0.0000000000000E+00  0.0000000000000E+00  0.0000000000000E+00  0.0000000000000E+00  0.0000000000000E+00  0.0000000000000E+00 
ZONE T = "SEP , 1.6188E-07", I = 10, SOLUTIONTIME = 1.618750E-07
ZONETYPE = ORDERED
DATAPACKING = BLOCK
STRANDID = 2
 9.6000000000000E-05  9.8777777777778E-05  1.0155555555556E-04  1.0433333333333E-04  1.0711111111111E-04  1.0988888888889E-04  1.1266666666667E-04  1.1544444444444E-04  1.1822222222222E-04  1.2100000000000E-04 
 1.8487902504673E-07  1.8357551063183E-07  1.8345678734759E-07  1.8344825514600E-07  1.8344772263995E-07  1.8344775422817E-07  1.8344855820409E-07  1.8345975998779E-07  1.8358238364288E-07  1.8281940955161E-07 
 8.4394679887155E-01  8.4394679990108E-01  8.4394679999303E-01  8.4394679999957E-01  8.4394679999998E-01  8.4394680000000E-01  8.4394680000004E-01  8.4394680000066E-01  8.4394680000933E-01  8.4394680010620E-01 
 7.8026600564226E-02  7.8026600049458E-02  7.8026600003487E-02  7.8026600000216E-02  7.8026600000012E-02  7.8026600000000E-02  7.8026599999980E-02  7.8026599999671E-02  7.8026599995336E-02  7.8026599946899E-02 
 7.8026600564226E-02  7.8026600049458E-02  7.8026600003487E-02  7.8026600000216E-02  7.8026600000012E-02  7.8026600000000E-02  7.8026599999980E-02  7.8026599999671E-02  7.8026599995336E-02  7.8026599946899E-02 
 1.3953376237476E-02  1.3953333893442E-02  1.3953291549408E-02  1.3953249205373E-02  1.3953206861339E-02  1.3953164517305E-02  1.3953122173271E-02  1.3953079829236E-02  1.3953037485202E-02  1.3952995141168E-02 
 2.9814999974452E+02  2.9814999978950E+02  2.9814999982930E+02  2.9814999986458E+02  2.9814999989630E+02  2.9814999992479E+02  2.9814999995100E+02  2.9814999997508E+02  2.9814999999780E+02  2.9815000002008E+02 
 6.5000471412550E-01  6.5000471412551E-01  6.5000471412550E-01  6.5000471412550E-01  6.5000471412551E-01  6.5000471412550E-01  6.5000471412551E-01  6.5000471412550E-01  6.5000471412550E-01  6.5000471412551E-01 
 1.3888888888889E-06  2.7777777777778E-06  2.7777777777778E-06  2.7777777777778E-06  2.7777777777778E-06  2.7777777777778E-06  2.7777777777778E-06  2.7777777777778E-06  2.7777777777778E-06  1.3888888888889E-06 
 2.4999528587450E-01  2.4999528587449E-01  2.4999528587450E-01  2.4999528587450E-01  2.4999528587449E-01  2.4999528587450E-01  2.4999528587449E-01  2.4999528587450E-01  2.4999528587450E-01  2.4999528587449E-01 
 1.0000000000000E-01  1.0000000000000E-01  1.0000000000000E-01  1.0000000000000E-01  1.0000000000000E-01  1.0000000000000E-01  1.0000000000000E-01  1.0000000000000E-01  1.0000000000000E-01  1.0000000000000E-01 
 1.4805590785104E-06  1.4805592142553E-06  1.4805592162739E-06  1.4805590598405E-06  1.4805592048906E-06  1.4805592105684E-06  1.4805590656904E-06  1.4805592051322E-06  1.4805591943423E-06  1.4805590613118E-06 
 9.1463113627877E+00  9.1463113816599E+00  9.1463114024692E+00  9.1463114052775E+00  9.1463114068041E+00  9.1463114074137E+00  9.1463114080954E+00  9.1463114094365E+00  9.1463114117275E+00  9.1463114134051E+00 
 9.1463113627877E+00  9.1463113816599E+00  9.1463114024692E+00  9.1463114052775E+00  9.1463114068041E+00  9.1463114074137E+00  9.1463114080954E+00  9.1463114094365E+00  9.1463114117275E+00  9.1463114134051E+00 
 0.0000000000000E+00  0.0000000000000E+00  0.0000000000000E+00  0.0000000000000E+00  0.0000000000000E+00  0.0000000000000E+00  0.0000000000000E+00  0.0000000000000E+00  0.0000000000000E+00  0.0000000000000E+00 
ZONE T = "SEP , 2.3781E-07", I = 10, SOLUTIONTIME = 2.378125E-07
ZONETYPE = ORDERED
DATAPACKING = BLOCK
STRANDID = 2