TITLE = "Solution on Domain BulkDomain1D_1"
VARIABLES = "x [m]"  
"Vel_axial" 	"MF_sp(ECDMC)" 	"MF_sp(Li+)" 	"MF_sp(PF6-)" 	"Volt(Electroly)" 	"Temperature" 	"Porosity []" 	"Control volume thickness [m]" 	"volFrac MgO(S) []" 	"volFrac ExtraStuff []" 	"qHeat_accum [J/m3]" 	"qHeat_step [W/m3]" 	"Joule_Lyte [W/m3]" 	"Joule_Solid [W/m3]" 	
ZONE T = "SEP , 0.0000E+00", I = 10, SOLUTIONTIME = 0.000000E+00
ZONETYPE = ORDERED
DATAPACKING = BLOCK
STRANDID = 2
 9.6000000000000E-05  9.8777777777778E-05  1.0155555555556E-04  1.0433333333333E-04  1.0711111111111E-04  1.0988888888889E-04  1.1266666666667E-04  1.1544444444444E-04  1.1822222222222E-04  1.2100000000000E-04 
 0.0000000000000E+00  0.0000000000000E+00  0.0000000000000E+00  0.0000000000000E+00  0.0000000000000E+00  0.0000000000000E+00  0.0000000000000E+00  0.0000000000000E+00  0.0000000000000E+00  0.0000000000000E+00 
 8.4394680000000E-01  8.4394680000000E-01  8.4394680000000E-01  8.4394680000000E-01  8.4394680000000E-01  8.4394680000000E-01  8.4394680000000E-01  8.4394680000000E-01  8.4394680000000E-01  8.4394680000000E-01 
 7.8026600000000E-02  7.8026600000000E-02  7.8026600000000E-02  7.8026600000000E-02  7.8026600000000E-02  7.8026600000000E-02  7.8026600000000E-02  7.8026600000000E-02  7.8026600000000E-02  7.8026600000000E-02 
 7.8026600000000E-02  7.8026600000000E-02  7.8026600000000E-02  7.8026600000000E-02  7.8026600000000E-02  7.8026600000000E-02  7.8026600000000E-02  7.8026600000000E-02  7.8026600000000E-02  7.8026600000000E-02 
-7.0000000000000E-02 -7.0000000000000E-02 -7.0000000000000E-02 -7.0000000000000E-02 -7.0000000000000E-02 -7.0000000000000E-02 -7.0000000000000E-02 -7.0000000000000E-02 -7.0000000000000E-02 -7.0000000000000E-02 
 2.9815000000000E+02  2.9815000000000E+02  2.9815000000000E+02  2.9815000000000E+02  2.9815000000000E+02  2.9815000000000E+02  2.9815000000000E+02  2.9815000000000E+02  2.9815000000000E+02  2.9815000000000E+02 
 6.5000000000000E-01  6.5000000000000E-01  6.5000000000000E-01  6.5000000000000E-01  6.5000000000000E-01  6.5000000000000E-01  6.5000000000000E-01  6.5000000000000E-01  6.5000000000000E-01  6.5000000000000E-01 
 1.3888888888889E-06  2.7777777777778E-06  2.7777777777778E-06  2.7777777777778E-06  2.7777777777778E-06  2.7777777777778E-06  2.7777777777778E-06  2.7777777777778E-06  2.7777777777778E-06  1.3888888888889E-06 
 2.5000000000000E-01  2.5000000000000E-01  2.5000000000000E-01  2.5000000000000E-01  2.5000000000000E-01  2.5000000000000E-01  2.5000000000000E-01  2.5000000000000E-01  2.5000000000000E-01  2.5000000000000E-01 
 1.0000000000000E-01  1.0000000000000E-01  1.0000000000000E-01  1.0000000000000E-01  1.0000000000000E-01  1.0000000000000E-01  1.0000000000000E-01  1.0000000000000E-01  1.0000000000000E-01  1.0000000000000E-01 
 0.0000000000000E+00  0.0000000000000E+00  0.0000000000000E+00  0.0000000000000E+00  0.0000000000000E+00  0.0000000000000E+00  0.0000000000000E+00  0.0000000000000E+00  0.0000000000000E+00  0.0000000000000E+00 
 0.0000000000000E+00  0.0000000000000E+00  0.0000000000000E+00  0.0000000000000E+00  0.0000000000000E+00  0.0000000000000E+00  0.0000000000000E+00  0.0000000000000E+00  0.0000000000000E+00  0.0000000000000E+00 
 0.0000000000000E+00  0.0000000000000E+00  0.0000000000000E+00  0.0000000000000E+00  0.0000000000000E+00  0.0000000000000E+00  0.0000000000000E+00  0.0000000000000E+00  0.0000000000000E+00  0.0000000000000E+00 
 0.0000000000000E+00  0.0000000000000E+00  0.0000000000000E+00  0.0000000000000E+00  0.0000000000000E+00  0.0000000000000E+00  0.0000000000000E+00  0.0000000000000E+00  0.0000000000000E+00  0.0000000000000E+00 
ZONE T = "SEP , 1.0000E-08", I = 10, SOLUTIONTIME = 1.000000E-08
ZONETYPE = ORDERED
DATAPACKING = BLOCK
STRANDID = 2
 9.6000000000000E-05  9.8777777777778E-05  1.0155555555556E-04  1.0433333333333E-04  1.0711111111111E-04  1.0988888888889E-04  1.1266666666667E-04  1.1544444444444E-04  1.1822222222222E-04  1.2100000000000E-04 
 1.8354914426975E-07  1.8344991624328E-07  1.8344891222400E-07  1.8344891455420E-07  1.8344891447089E-07  1.8344891447808E-07  1.8344891548867E-07  1.8344904892974E-07  1.8345857965108E-07  1.8279197798410E-07 
 8.4394679992706E-01  8.4394679999925E-01  8.4394679999999E-01  8.4394680000000E-01  8.4394680000000E-01  8.4394680000000E-01  8.4394680000000E-01  8.4394680000000E-01  8.4394680000007E-01  8.4394680000694E-01 
 7.8026600036470E-02  7.8026600000373E-02  7.8026600000004E-02  7.8026600000000E-02  7.8026600000000E-02  7.8026600000000E-02  7.8026600000000E-02  7.8026600000000E-02  7.8026599999964E-02  7.8026599996528E-02 
 7.8026600036470E-02  7.8026600000373E-02  7.8026600000004E-02  7.8026600000000E-02  7.8026600000000E-02  7.8026600000000E-02  7.8026600000000E-02  7.8026600000000E-02  7.8026599999964E-02  7.8026599996528E-02 
 1.3951960102084E-02  1.3951917757587E-02  1.3951875413103E-02  1.3951833068609E-02  1.3951790724055E-02  1.3951748379561E-02  1.3951706035066E-02  1.3951663690577E-02  1.3951621346083E-02  1.3951579001599E-02 
 2.9814999998302E+02  2.9814999999126E+02  2.9814999999542E+02  2.9814999999742E+02  2.9815000000035E+02  2.9815000000121E+02  2.9815000000288E+02  2.9815000000516E+02  2.9815000000821E+02  2.9815000001391E+02 
 6.5000000000000E-01  6.5000000000000E-01  6.5000000000000E-01  6.5000000000000E-01  6.5000000000000E-01  6.5000000000000E-01  6.5000000000000E-01  6.5000000000000E-01  6.5000000000000E-01  6.5000000000000E-01 
 1.3888888888889E-06  2.7777777777778E-06  2.7777777777778E-06  2.7777777777778E-06  2.7777777777778E-06  2.7777777777778E-06  2.7777777777778E-06  2.7777777777778E-06  2.7777777777778E-06  1.3888888888889E-06 
 2.5000000000000E-01  2.5000000000000E-01  2.5000000000000E-01  2.5000000000000E-01  2.5000000000000E-01  2.5000000000000E-01  2.5000000000000E-01  2.5000000000000E-01  2.5000000000000E-01  2.5000000000000E-01 
 1.0000000000000E-01  1.0000000000000E-01  1.0000000000000E-01  1.0000000000000E-01  1.0000000000000E-01  1.0000000000000E-01  1.0000000000000E-01  1.0000000000000E-01  1.0000000000000E-01  1.0000000000000E-01 
 9.1464117810078E-08  9.1464089436150E-08  9.1464083828414E-08  9.1464234385841E-08  9.1464234388918E-08  9.1464106600566E-08  9.1464095565146E-08  9.1464095549434E-08  9.1464083781621E-08  9.1464060994296E-08 
 9.1464117810078E+00  9.1464089436150E+00  9.1464083828414E+00  9.1464234385841E+00  9.1464234388918E+00  9.1464106600566E+00  9.1464095565146E+00  9.1464095549434E+00  9.1464083781621E+00  9.1464060994296E+00 
 9.1464117810078E+00  9.1464089436150E+00  9.1464083828414E+00  9.1464234385841E+00  9.1464234388918E+00  9.1464106600566E+00  9.1464095565146E+00  9.1464095549434E+00  9.1464083781621E+00  9.1464060994296E+00 
 0.0000000000000E+00  0.0000000000000E+00  0.0000000000000E+00  0.0000000000000E+00  0.0000000000000E+00  0.0000000000000E+00  0.0000000000000E+00  0.0000000000000E+00  0.0000000000000E+00  0.0000000000000E+00 
ZONE T = "SEP , 2.0000E-08", I = 10, SOLUTIONTIME = 2.000000E-08
ZONETYPE = ORDERED
DATAPACKING = BLOCK
STRANDID = 2
 9.6000000000000E-05  9.8777777777778E-05  1.0155555555556E-04  1.0433333333333E-04  1.0711111111111E-04  1.0988888888889E-04  1.1266666666667E-04  1.1544444444444E-04  1.1822222222222E-04  1.2100000000000E-04 
 1.8364685579185E-07  1.8345074665422E-07  1.8344778526453E-07  1.8344778689260E-07  1.8344778636879E-07  1.8344778641652E-07  1.8344778848770E-07  1.8344808167476E-07  1.8346676944388E-07  1.8279380314123E-07 
 8.4394679985453E-01  8.4394679999778E-01  8.4394679999997E-01  8.4394680000000E-01  8.4394680000000E-01  8.4394680000000E-01  8.4394680000000E-01  8.4394680000000E-01  8.4394680000021E-01  8.4394680001382E-01 
 7.8026600072733E-02  7.8026600001110E-02  7.8026600000015E-02  7.8026600000000E-02  7.8026600000000E-02  7.8026600000000E-02  7.8026600000000E-02  7.8026599999999E-02  7.8026599999894E-02  7.8026599993088E-02 
 7.8026600072733E-02  7.8026600001110E-02  7.8026600000015E-02  7.8026600000000E-02  7.8026600000000E-02  7.8026600000000E-02  7.8026600000000E-02  7.8026599999999E-02  7.8026599999894E-02  7.8026599993088E-02 
 1.3953518528118E-02  1.3953476183623E-02  1.3953433839128E-02  1.3953391494633E-02  1.3953349150138E-02  1.3953306805643E-02  1.3953264461148E-02  1.3953222116653E-02  1.3953179772158E-02  1.3953137427663E-02 
 2.9814999996731E+02  2.9814999998103E+02  2.9814999998924E+02  2.9814999999508E+02  2.9814999999823E+02  2.9815000000039E+02  2.9815000000222E+02  2.9815000000545E+02  2.9815000000938E+02  2.9815000001433E+02 
 6.5000000000000E-01  6.5000000000000E-01  6.5000000000000E-01  6.5000000000000E-01  6.5000000000000E-01  6.5000000000000E-01  6.5000000000000E-01  6.5000000000000E-01  6.5000000000000E-01  6.5000000000000E-01 
 1.3888888888889E-06  2.7777777777778E-06  2.7777777777778E-06  2.7777777777778E-06  2.7777777777778E-06  2.7777777777778E-06  2.7777777777778E-06  2.7777777777778E-06  2.7777777777778E-06  1.3888888888889E-06 
 2.5000000000000E-01  2.5000000000000E-01  2.5000000000000E-01  2.5000000000000E-01  2.5000000000000E-01  2.5000000000000E-01  2.5000000000000E-01  2.5000000000000E-01  2.5000000000000E-01  2.5000000000000E-01 
 1.0000000000000E-01  1.0000000000000E-01  1.0000000000000E-01  1.0000000000000E-01  1.0000000000000E-01  1.0000000000000E-01  1.0000000000000E-01  1.0000000000000E-01  1.0000000000000E-01  1.0000000000000E-01 
 1.8292822685785E-07  1.8292819850719E-07  1.8292819292503E-07  1.8292834348781E-07  1.8292834349353E-07  1.8292821570447E-07  1.8292820467210E-07  1.8292820465542E-07  1.8292819288783E-07  1.8292817010506E-07 
 9.1464109047769E+00  9.1464109071036E+00  9.1464109096611E+00  9.1464109101970E+00  9.1464109104614E+00  9.1464109103902E+00  9.1464109106954E+00  9.1464109105983E+00  9.1464109106207E+00  9.1464109110762E+00 
 9.1464109047769E+00  9.1464109071036E+00  9.1464109096611E+00  9.1464109101970E+00  9.1464109104614E+00  9.1464109103902E+00  9.1464109106954E+00  9.1464109105983E+00  9.1464109106207E+00  9.1464109110762E+00 
 0.0000000000000E+00  0.0000000000000E+00  0.0000000000000E+00  0.0000000000000E+00  0.0000000000000E+00  0.0000000000000E+00  0.0000000000000E+00  0.0000000000000E+00  0.0000000000000E+00  0.0000000000000E+00 
ZONE T = "SEP , 3.0000E-08", I = 10, SOLUTIONTIME = 3.000000E-08
ZONETYPE = ORDERED
DATAPACKING = BLOCK
STRANDID = 2
 9.6000000000000E-05  9.8777777777778E-05  1.0155555555556E-04  1.0433333333333E-04  1.0711111111111E-04  1.0988888888889E-04  1.1266666666667E-04  1.1544444444444E-04  1.1822222222222E-04  1.2100000000000E-04 
 1.8374431073894E-07  1.8345395939978E-07  1.8344803763600E-07  1.8344793054878E-07  1.8344792899230E-07  1.8344792909515E-07  1.8344795548109E-07  1.8344845701875E-07  1.8347597858521E-07  1.8279538225196E-07 
 8.4394679978242E-01  8.4394679999560E-01  8.4394679999993E-01  8.4394680000000E-01  8.4394680000000E-01  8.4394680000000E-01  8.4394680000000E-01  8.4394680000001E-01  8.4394680000042E-01  8.4394680002066E-01 
 7.8026600108790E-02  7.8026600002201E-02  7.8026600000037E-02  7.8026600000001E-02  7.8026600000000E-02  7.8026600000000E-02  7.8026600000000E-02  7.8026599999996E-02  7.8026599999791E-02  7.8026599989671E-02 
 7.8026600108790E-02  7.8026600002201E-02  7.8026600000037E-02  7.8026600000001E-02  7.8026600000000E-02  7.8026600000000E-02  7.8026600000000E-02  7.8026599999996E-02  7.8026599999791E-02  7.8026599989671E-02 
 1.3953518146641E-02  1.3953475802146E-02  1.3953433457651E-02  1.3953391113156E-02  1.3953348768661E-02  1.3953306424166E-02  1.3953264079671E-02  1.3953221735176E-02  1.3953179390681E-02  1.3953137046186E-02 
 2.9814999995160E+02  2.9814999996837E+02  2.9814999997955E+02  2.9814999998838E+02  2.9814999999381E+02  2.9814999999762E+02  2.9815000000165E+02  2.9815000000452E+02  2.9815000000897E+02  2.9815000001473E+02 
 6.5000000000000E-01  6.5000000000000E-01  6.5000000000000E-01  6.5000000000000E-01  6.5000000000000E-01  6.5000000000000E-01  6.5000000000000E-01  6.5000000000000E-01  6.5000000000000E-01  6.5000000000000E-01 
 1.3888888888889E-06  2.7777777777778E-06  2.7777777777778E-06  2.7777777777778E-06  2.7777777777778E-06  2.7777777777778E-06  2.7777777777778E-06  2.7777777777778E-06  2.7777777777778E-06  1.3888888888889E-06 
 2.5000000000000E-01  2.5000000000000E-01  2.5000000000000E-01  2.5000000000000E-01  2.5000000000000E-01  2.5000000000000E-01  2.5000000000000E-01  2.5000000000000E-01  2.5000000000000E-01  2.5000000000000E-01 
 1.0000000000000E-01  1.0000000000000E-01  1.0000000000000E-01  1.0000000000000E-01  1.0000000000000E-01  1.0000000000000E-01  1.0000000000000E-01  1.0000000000000E-01  1.0000000000000E-01  1.0000000000000E-01 
 2.7439233587429E-07  2.7439230756464E-07  2.7439230202498E-07  2.7439245258815E-07  2.7439245259206E-07  2.7439232480543E-07  2.7439231377942E-07  2.7439231376158E-07  2.7439230199670E-07  2.7439227922101E-07 
 9.1464109016445E+00  9.1464109057452E+00  9.1464109099953E+00  9.1464109100340E+00  9.1464109098526E+00  9.1464109100963E+00  9.1464109107325E+00  9.1464109106165E+00  9.1464109108871E+00  9.1464109115955E+00 
 9.1464109016445E+00  9.1464109057452E+00  9.1464109099953E+00  9.1464109100340E+00  9.1464109098526E+00  9.1464109100963E+00  9.1464109107325E+00  9.1464109106165E+00  9.1464109108871E+00  9.1464109115955E+00 
 0.0000000000000E+00  0.0000000000000E+00  0.0000000000000E+00  0.0000000000000E+00  0.0000000000000E+00  0.0000000000000E+00  0.0000000000000E+00  0.0000000000000E+00  0.0000000000000E+00  0.0000000000000E+00 
ZONE T = "SEP , 4.0000E-08", I = 10, SOLUTIONTIME = 4.000000E-08
ZONETYPE = ORDERED
DATAPACKING = BLOCK
STRANDID = 2
 9.6000000000000E-05  9.8777777777778E-05  1.0155555555556E-04  1.0433333333333E-04  1.0711111111111E-04  1.0988888888889E-04  1.1266666666667E-04  1.1544444444444E-04  1.1822222222222E-04  1.2100000000000E-04 
 1.8383965883349E-07  1.8345749236683E-07  1.8344773639401E-07  1.8344755188043E-07  1.8344755256237E-07  1.8344755285881E-07  1.8344755471346E-07  1.8344853137242E-07  1.8348477710267E-07  1.8279688419002E-07 
 8.4394679971071E-01  8.4394679999273E-01  8.4394679999985E-01  8.4394680000000E-01  8.4394680000000E-01  8.4394680000000E-01  8.4394680000000E-01  8.4394680000001E-01  8.4394680000069E-01  8.4394680002744E-01 
 7.8026600144646E-02  7.8026600003637E-02  7.8026600000074E-02  7.8026600000001E-02  7.8026600000000E-02  7.8026600000000E-02  7.8026600000000E-02  7.8026599999993E-02  7.8026599999655E-02  7.8026599986278E-02 
 7.8026600144646E-02  7.8026600003637E-02  7.8026600000074E-02  7.8026600000001E-02  7.8026600000000E-02  7.8026600000000E-02  7.8026600000000E-02  7.8026599999993E-02  7.8026599999655E-02  7.8026599986278E-02 
 1.3953517765166E-02  1.3953475420671E-02  1.3953433076176E-02  1.3953390731681E-02  1.3953348387187E-02  1.3953306042692E-02  1.3953263698197E-02  1.3953221353702E-02  1.3953179009207E-02  1.3953136664712E-02 
 2.9814999993589E+02  2.9814999995378E+02  2.9814999996789E+02  2.9814999998003E+02  2.9814999998856E+02  2.9814999999527E+02  2.9815000000040E+02  2.9815000000521E+02  2.9815000001049E+02  2.9815000001514E+02 
 6.5000000000000E-01  6.5000000000000E-01  6.5000000000000E-01  6.5000000000000E-01  6.5000000000000E-01  6.5000000000000E-01  6.5000000000000E-01  6.5000000000000E-01  6.5000000000000E-01  6.5000000000000E-01 
 1.3888888888889E-06  2.7777777777778E-06  2.7777777777778E-06  2.7777777777778E-06  2.7777777777778E-06  2.7777777777778E-06  2.7777777777778E-06  2.7777777777778E-06  2.7777777777778E-06  1.3888888888889E-06 
 2.5000000000000E-01  2.5000000000000E-01  2.5000000000000E-01  2.5000000000000E-01  2.5000000000000E-01  2.5000000000000E-01  2.5000000000000E-01  2.5000000000000E-01  2.5000000000000E-01  2.5000000000000E-01 
 1.0000000000000E-01  1.0000000000000E-01  1.0000000000000E-01  1.0000000000000E-01  1.0000000000000E-01  1.0000000000000E-01  1.0000000000000E-01  1.0000000000000E-01  1.0000000000000E-01  1.0000000000000E-01 
 3.6585644485980E-07  3.6585641660162E-07  3.6585641111773E-07  3.6585656168733E-07  3.6585656169221E-07  3.6585643390725E-07  3.6585642288332E-07  3.6585642286757E-07  3.6585641111155E-07  3.6585638834186E-07 
 9.1464108985511E+00  9.1464109036986E+00  9.1464109092754E+00  9.1464109099184E+00  9.1464109100152E+00  9.1464109101822E+00  9.1464109103895E+00  9.1464109105990E+00  9.1464109114849E+00  9.1464109120847E+00 
 9.1464108985511E+00  9.1464109036986E+00  9.1464109092754E+00  9.1464109099184E+00  9.1464109100152E+00  9.1464109101822E+00  9.1464109103895E+00  9.1464109105990E+00  9.1464109114849E+00  9.1464109120847E+00 
 0.0000000000000E+00  0.0000000000000E+00  0.0000000000000E+00  0.0000000000000E+00  0.0000000000000E+00  0.0000000000000E+00  0.0000000000000E+00  0.0000000000000E+00  0.0000000000000E+00  0.0000000000000E+00 
ZONE T = "SEP , 5.5000E-08", I = 10, SOLUTIONTIME = 5.500000E-08
ZONETYPE = ORDERED
DATAPACKING = BLOCK
STRANDID = 2
 9.6000000000000E-05  9.8777777777778E-05  1.0155555555556E-04  1.0433333333333E-04  1.0711111111111E-04  1.0988888888889E-04  1.1266666666667E-04  1.1544444444444E-04  1.1822222222222E-04  1.2100000000000E-04 
 1.8397992026709E-07  1.8346525347396E-07  1.8344801653253E-07  1.8344754038723E-07  1.8344754064979E-07  1.8344754143426E-07  1.8344755964041E-07  1.8344912833742E-07  1.8349789441764E-07  1.8279952236966E-07 
 8.4394679960402E-01  8.4394679998692E-01  8.4394679999966E-01  8.4394679999999E-01  8.4394680000000E-01  8.4394680000000E-01  8.4394680000000E-01  8.4394680000003E-01  8.4394680000124E-01  8.4394680003752E-01 
 7.8026600197990E-02  7.8026600006538E-02  7.8026600000171E-02  7.8026600000004E-02  7.8026600000000E-02  7.8026600000000E-02  7.8026600000000E-02  7.8026599999984E-02  7.8026599999380E-02  7.8026599981240E-02 
 7.8026600197990E-02  7.8026600006538E-02  7.8026600000171E-02  7.8026600000004E-02  7.8026600000000E-02  7.8026600000000E-02  7.8026600000000E-02  7.8026599999984E-02  7.8026599999380E-02  7.8026599981240E-02 
 1.3953517318294E-02  1.3953474973799E-02  1.3953432629304E-02  1.3953390284809E-02  1.3953347940314E-02  1.3953305595819E-02  1.3953263251324E-02  1.3953220906830E-02  1.3953178562335E-02  1.3953136217840E-02 
 2.9814999991234E+02  2.9814999993580E+02  2.9814999995443E+02  2.9814999996873E+02  2.9814999998021E+02  2.9814999998932E+02  2.9814999999623E+02  2.9815000000248E+02  2.9815000000892E+02  2.9815000001575E+02 
 6.5000000000000E-01  6.5000000000000E-01  6.5000000000000E-01  6.5000000000000E-01  6.5000000000000E-01  6.5000000000000E-01  6.5000000000000E-01  6.5000000000000E-01  6.5000000000000E-01  6.5000000000000E-01 
 1.3888888888889E-06  2.7777777777778E-06  2.7777777777778E-06  2.7777777777778E-06  2.7777777777778E-06  2.7777777777778E-06  2.7777777777778E-06  2.7777777777778E-06  2.7777777777778E-06  1.3888888888889E-06 
 2.5000000000000E-01  2.5000000000000E-01  2.5000000000000E-01  2.5000000000000E-01  2.5000000000000E-01  2.5000000000000E-01  2.5000000000000E-01  2.5000000000000E-01  2.5000000000000E-01  2.5000000000000E-01 
 1.0000000000000E-01  1.0000000000000E-01  1.0000000000000E-01  1.0000000000000E-01  1.0000000000000E-01  1.0000000000000E-01  1.0000000000000E-01  1.0000000000000E-01  1.0000000000000E-01  1.0000000000000E-01 
 5.0305260827911E-07  5.0305258012147E-07  5.0305257474798E-07  5.0305272533003E-07  5.0305272534072E-07  5.0305259755717E-07  5.0305258653550E-07  5.0305258652770E-07  5.0305257478169E-07  5.0305255201814E-07 
 9.1464108946203E+00  9.1464109013228E+00  9.1464109086835E+00  9.1464109095129E+00  9.1464109099009E+00  9.1464109099948E+00  9.1464109101451E+00  9.1464109106755E+00  9.1464109113425E+00  9.1464109117522E+00 
 9.1464108946203E+00  9.1464109013228E+00  9.1464109086835E+00  9.1464109095129E+00  9.1464109099009E+00  9.1464109099948E+00  9.1464109101451E+00  9.1464109106755E+00  9.1464109113425E+00  9.1464109117522E+00 
 0.0000000000000E+00  0.0000000000000E+00  0.0000000000000E+00  0.0000000000000E+00  0.0000000000000E+00  0.0000000000000E+00  0.0000000000000E+00  0.0000000000000E+00  0.0000000000000E+00  0.0000000000000E+00 
ZONE T = "SEP , 7.7500E-08", I = 10, SOLUTIONTIME = 7.750000E-08
ZONETYPE = ORDERED
DATAPACKING = BLOCK
STRANDID = 2
 9.6000000000000E-05  9.8777777777778E-05  1.0155555555556E-04  1.0433333333333E-04  1.0711111111111E-04  1.0988888888889E-04  1.1266666666667E-04  1.1544444444444E-04  1.1822222222222E-04  1.2100000000000E-04 
 1.8418315303851E-07  1.8348095185095E-07  1.8344872355855E-07  1.8344758376535E-07  1.8344754872505E-07  1.8344755030423E-07  1.8344765524350E-07  1.8345073311880E-07  1.8351715362421E-07  1.8280358555062E-07 
 8.4394679944590E-01  8.4394679997505E-01  8.4394679999911E-01  8.4394679999997E-01  8.4394680000000E-01  8.4394680000000E-01  8.4394680000000E-01  8.4394680000008E-01  8.4394680000236E-01  8.4394680005242E-01 
 7.8026600277050E-02  7.8026600012475E-02  7.8026600000444E-02  7.8026600000014E-02  7.8026600000000E-02  7.8026600000000E-02  7.8026599999999E-02  7.8026599999958E-02  7.8026599998818E-02  7.8026599973792E-02 
 7.8026600277050E-02  7.8026600012475E-02  7.8026600000444E-02  7.8026600000014E-02  7.8026600000000E-02  7.8026600000000E-02  7.8026599999999E-02  7.8026599999958E-02  7.8026599998818E-02  7.8026599973792E-02 
 1.3953516529654E-02  1.3953474185159E-02  1.3953431840664E-02  1.3953389496169E-02  1.3953347151674E-02  1.3953304807179E-02  1.3953262462684E-02  1.3953220118190E-02  1.3953177773695E-02  1.3953135429200E-02 
 2.9814999987702E+02  2.9814999990541E+02  2.9814999992872E+02  2.9814999994798E+02  2.9814999996379E+02  2.9814999997728E+02  2.9814999998910E+02  2.9814999999894E+02  2.9815000000830E+02  2.9815000001666E+02 
 6.5000000000000E-01  6.5000000000000E-01  6.5000000000000E-01  6.5000000000000E-01  6.5000000000000E-01  6.5000000000000E-01  6.5000000000000E-01  6.5000000000000E-01  6.5000000000000E-01  6.5000000000000E-01 
 1.3888888888889E-06  2.7777777777778E-06  2.7777777777778E-06  2.7777777777778E-06  2.7777777777778E-06  2.7777777777778E-06  2.7777777777778E-06  2.7777777777778E-06  2.7777777777778E-06  1.3888888888889E-06 
 2.5000000000000E-01  2.5000000000000E-01  2.5000000000000E-01  2.5000000000000E-01  2.5000000000000E-01  2.5000000000000E-01  2.5000000000000E-01  2.5000000000000E-01  2.5000000000000E-01  2.5000000000000E-01 
 1.0000000000000E-01  1.0000000000000E-01  1.0000000000000E-01  1.0000000000000E-01  1.0000000000000E-01  1.0000000000000E-01  1.0000000000000E-01  1.0000000000000E-01  1.0000000000000E-01  1.0000000000000E-01 
 7.0884685325222E-07  7.0884682531226E-07  7.0884682017368E-07  7.0884697078342E-07  7.0884697079954E-07  7.0884684302341E-07  7.0884683201046E-07  7.0884683201158E-07  7.0884682029810E-07  7.0884679755442E-07 
 9.1464108876937E+00  9.1464108973686E+00  9.1464109078087E+00  9.1464109090398E+00  9.1464109092805E+00  9.1464109096107E+00  9.1464109099983E+00  9.1464109103945E+00  9.1464109118407E+00  9.1464109127232E+00 
 9.1464108876937E+00  9.1464108973686E+00  9.1464109078087E+00  9.1464109090398E+00  9.1464109092805E+00  9.1464109096107E+00  9.1464109099983E+00  9.1464109103945E+00  9.1464109118407E+00  9.1464109127232E+00 
 0.0000000000000E+00  0.0000000000000E+00  0.0000000000000E+00  0.0000000000000E+00  0.0000000000000E+00  0.0000000000000E+00  0.0000000000000E+00  0.0000000000000E+00  0.0000000000000E+00  0.0000000000000E+00 
ZONE T = "SEP , 1.1125E-07", I = 10, SOLUTIONTIME = 1.112500E-07
ZONETYPE = ORDERED
DATAPACKING = BLOCK
STRANDID = 2
 9.6000000000000E-05  9.8777777777778E-05  1.0155555555556E-04  1.0433333333333E-04  1.0711111111111E-04  1.0988888888889E-04  1.1266666666667E-04  1.1544444444444E-04  1.1822222222222E-04  1.2100000000000E-04 
 1.8447336910323E-07  1.8351266772548E-07  1.8345076280973E-07  1.8344762190557E-07  1.8344749610596E-07  1.8344749584755E-07  1.8344780156959E-07  1.8345366114481E-07  1.8354432089340E-07  1.8280975015426E-07 
 8.4394679921278E-01  8.4394679995068E-01  8.4394679999754E-01  8.4394679999989E-01  8.4394680000000E-01  8.4394680000000E-01  8.4394680000001E-01  8.4394680000023E-01  8.4394680000466E-01  8.4394680007430E-01 
 7.8026600393609E-02  7.8026600024660E-02  7.8026600001229E-02  7.8026600000053E-02  7.8026600000002E-02  7.8026600000000E-02  7.8026599999995E-02  7.8026599999884E-02  7.8026599997668E-02  7.8026599962849E-02 
 7.8026600393609E-02  7.8026600024660E-02  7.8026600001229E-02  7.8026600000053E-02  7.8026600000002E-02  7.8026600000000E-02  7.8026599999995E-02  7.8026599999884E-02  7.8026599997668E-02  7.8026599962849E-02 
 1.3953515346711E-02  1.3953473002216E-02  1.3953430657721E-02  1.3953388313226E-02  1.3953345968731E-02  1.3953303624236E-02  1.3953261279741E-02  1.3953218935246E-02  1.3953176590751E-02  1.3953134246256E-02 
 2.9814999982406E+02  2.9814999985946E+02  2.9814999988964E+02  2.9814999991585E+02  2.9814999993818E+02  2.9814999995802E+02  2.9814999997502E+02  2.9814999999086E+02  2.9815000000446E+02  2.9815000001803E+02 
 6.5000000000000E-01  6.5000000000000E-01  6.5000000000000E-01  6.5000000000000E-01  6.5000000000000E-01  6.5000000000000E-01  6.5000000000000E-01  6.5000000000000E-01  6.5000000000000E-01  6.5000000000000E-01 
 1.3888888888889E-06  2.7777777777778E-06  2.7777777777778E-06  2.7777777777778E-06  2.7777777777778E-06  2.7777777777778E-06  2.7777777777778E-06  2.7777777777778E-06  2.7777777777778E-06  1.3888888888889E-06 
 2.5000000000000E-01  2.5000000000000E-01  2.5000000000000E-01  2.5000000000000E-01  2.5000000000000E-01  2.5000000000000E-01  2.5000000000000E-01  2.5000000000000E-01  2.5000000000000E-01  2.5000000000000E-01 
 1.0000000000000E-01  1.0000000000000E-01  1.0000000000000E-01  1.0000000000000E-01  1.0000000000000E-01  1.0000000000000E-01  1.0000000000000E-01  1.0000000000000E-01  1.0000000000000E-01  1.0000000000000E-01 
 1.0175382203894E-06  1.0175381929103E-06  1.0175381882541E-06  1.0175383389093E-06  1.0175383389638E-06  1.0175382112051E-06  1.0175382002119E-06  1.0175382002321E-06  1.0175381885744E-06  1.0175381658840E-06 
 9.1464108781400E+00  9.1464108917941E+00  9.1464109060852E+00  9.1464109074340E+00  9.1464109085700E+00  9.1464109090863E+00  9.1464109096719E+00  9.1464109102385E+00  9.1464109118905E+00  9.1464109134696E+00 
 9.1464108781400E+00  9.1464108917941E+00  9.1464109060852E+00  9.1464109074340E+00  9.1464109085700E+00  9.1464109090863E+00  9.1464109096719E+00  9.1464109102385E+00  9.1464109118905E+00  9.1464109134696E+00 
 0.0000000000000E+00  0.0000000000000E+00  0.0000000000000E+00  0.0000000000000E+00  0.0000000000000E+00  0.0000000000000E+00  0.0000000000000E+00  0.0000000000000E+00  0.0000000000000E+00  0.0000000000000E+00 
ZONE T = "SEP , 1.6188E-07", I = 10, SOLUTIONTIME = 1.618750E-07
ZONETYPE = ORDERED
DATAPACKING = BLOCK
STRANDID = 2
 9.6000000000000E-05  9.8777777777778E-05  1.0155555555556E-04  1.0433333333333E-04  1.0711111111111E-04  1.0988888888889E-04  1.1266666666667E-04  1.1544444444444E-04  1.1822222222222E-04  1.2100000000000E-04 
 1.8487892064867E-07  1.8357541646206E-07  1.8345669886402E-07  1.8344816640598E-07  1.8344763399764E-07  1.8344765502962E-07  1.8344845909347E-07  1.8345964975102E-07  1.8358228416199E-07  1.8281930490738E-07 
 8.4394679887155E-01  8.4394679990108E-01  8.4394679999303E-01  8.4394679999957E-01  8.4394679999998E-01  8.4394680000000E-01  8.4394680000004E-01  8.4394680000066E-01  8.4394680000933E-01  8.4394680010620E-01 
 7.8026600564227E-02  7.8026600049458E-02  7.8026600003487E-02  7.8026600000216E-02  7.8026600000012E-02  7.8026600000000E-02  7.8026599999980E-02  7.8026599999671E-02  7.8026599995336E-02  7.8026599946899E-02 
 7.8026600564227E-02  7.8026600049458E-02  7.8026600003487E-02  7.8026600000216E-02  7.8026600000012E-02  7.8026600000000E-02  7.8026599999980E-02  7.8026599999671E-02  7.8026599995336E-02  7.8026599946899E-02 
 1.3953513572332E-02  1.3953471227838E-02  1.3953428883343E-02  1.3953386538848E-02  1.3953344194353E-02  1.3953301849858E-02  1.3953259505363E-02  1.3953217160868E-02  1.3953174816373E-02  1.3953132471878E-02 
 2.9814999974465E+02  2.9814999978883E+02  2.9814999982830E+02  2.9814999986325E+02  2.9814999989493E+02  2.9814999992330E+02  2.9814999994947E+02  2.9814999997385E+02  2.9814999999737E+02  2.9815000002006E+02 
 6.5000000000000E-01  6.5000000000000E-01  6.5000000000000E-01  6.5000000000000E-01  6.5000000000000E-01  6.5000000000000E-01  6.5000000000000E-01  6.5000000000000E-01  6.5000000000000E-01  6.5000000000000E-01 
 1.3888888888889E-06  2.7777777777778E-06  2.7777777777778E-06  2.7777777777778E-06  2.7777777777778E-06  2.7777777777778E-06  2.7777777777778E-06  2.7777777777778E-06  2.7777777777778E-06  1.3888888888889E-06 
 2.5000000000000E-01  2.5000000000000E-01  2.5000000000000E-01  2.5000000000000E-01  2.5000000000000E-01  2.5000000000000E-01  2.5000000000000E-01  2.5000000000000E-01  2.5000000000000E-01  2.5000000000000E-01 
 1.0000000000000E-01  1.0000000000000E-01  1.0000000000000E-01  1.0000000000000E-01  1.0000000000000E-01  1.0000000000000E-01  1.0000000000000E-01  1.0000000000000E-01  1.0000000000000E-01  1.0000000000000E-01 
 1.4805752703408E-06  1.4805752438175E-06  1.4805752402343E-06  1.4805753910322E-06  1.4805753911262E-06  1.4805752634174E-06  1.4805752524777E-06  1.4805752525463E-06  1.4805752410037E-06  1.4805752183977E-06 
 9.1464108632358E+00  9.1464108821165E+00  9.1464109033139E+00  9.1464109061302E+00  9.1464109069115E+00  9.1464109078982E+00  9.1464109089538E+00  9.1464109099098E+00  9.1464109121830E+00  9.1464109138512E+00 
 9.1464108632358E+00  9.1464108821165E+00  9.1464109033139E+00  9.1464109061302E+00  9.1464109069115E+00  9.1464109078982E+00  9.1464109089538E+00  9.1464109099098E+00  9.1464109121830E+00  9.1464109138512E+00 
 0.0000000000000E+00  0.0000000000000E+00  0.0000000000000E+00  0.0000000000000E+00  0.0000000000000E+00  0.0000000000000E+00  0.0000000000000E+00  0.0000000000000E+00  0.0000000000000E+00  0.0000000000000E+00 
ZONE T = "SEP , 2.3781E-07", I = 10, SOLUTIONTIME = 2.378125E-07
ZONETYPE = ORDERED
DATAPACKING = BLOCK
STRANDID = 2