TITLE = "Solution on Domain BulkDomain1D_1"
VARIABLES = "x [m]"  
"Vel_axial" 	"MF_sp(ECDMC)" 	"MF_sp(Li+)" 	"MF_sp(PF6-)" 	"Volt(Electroly)" 	"Temperature" 	"Porosity []" 	"Control volume thickness [m]" 	"volFrac MgO(S) []" 	"volFrac ExtraStuff []" 	"qHeat_accum [J/m3]" 	"qHeat_step [W/m3]" 	"Joule_Lyte [W/m3]" 	"Joule_Solid [W/m3]" 	
ZONE T = "SEP , 0.0000E+00", I = 10, SOLUTIONTIME = 0.000000E+00
ZONETYPE = ORDERED
DATAPACKING = BLOCK
STRANDID = 2
 9.6000000000000E-05  9.8777777777778E-05  1.0155555555556E-04  1.0433333333333E-04  1.0711111111111E-04  1.0988888888889E-04  1.1266666666667E-04  1.1544444444444E-04  1.1822222222222E-04  1.2100000000000E-04 
 0.0000000000000E+00  0.0000000000000E+00  0.0000000000000E+00  0.0000000000000E+00  0.0000000000000E+00  0.0000000000000E+00  0.0000000000000E+00  0.0000000000000E+00  0.0000000000000E+00  0.0000000000000E+00 
 8.4394680000000E-01  8.4394680000000E-01  8.4394680000000E-01  8.4394680000000E-01  8.4394680000000E-01  8.4394680000000E-01  8.4394680000000E-01  8.4394680000000E-01  8.4394680000000E-01  8.4394680000000E-01 
 7.8026600000000E-02  7.8026600000000E-02  7.8026600000000E-02  7.8026600000000E-02  7.8026600000000E-02  7.8026600000000E-02  7.8026600000000E-02  7.8026600000000E-02  7.8026600000000E-02  7.8026600000000E-02 
 7.8026600000000E-02  7.8026600000000E-02  7.8026600000000E-02  7.8026600000000E-02  7.8026600000000E-02  7.8026600000000E-02  7.8026600000000E-02  7.8026600000000E-02  7.8026600000000E-02  7.8026600000000E-02 
-7.0000000000000E-02 -7.0000000000000E-02 -7.0000000000000E-02 -7.0000000000000E-02 -7.0000000000000E-02 -7.0000000000000E-02 -7.0000000000000E-02 -7.0000000000000E-02 -7.0000000000000E-02 -7.0000000000000E-02 
 2.9815000000000E+02  2.9815000000000E+02  2.9815000000000E+02  2.9815000000000E+02  2.9815000000000E+02  2.9815000000000E+02  2.9815000000000E+02  2.9815000000000E+02  2.9815000000000E+02  2.9815000000000E+02 
 6.5000000000000E-01  6.5000000000000E-01  6.5000000000000E-01  6.5000000000000E-01  6.5000000000000E-01  6.5000000000000E-01  6.5000000000000E-01  6.5000000000000E-01  6.5000000000000E-01  6.5000000000000E-01 
 1.3888888888889E-06  2.7777777777778E-06  2.7777777777778E-06  2.7777777777778E-06  2.7777777777778E-06  2.7777777777778E-06  2.7777777777778E-06  2.7777777777778E-06  2.7777777777778E-06  1.3888888888889E-06 
 2.5000000000000E-01  2.5000000000000E-01  2.5000000000000E-01  2.5000000000000E-01  2.5000000000000E-01  2.5000000000000E-01  2.5000000000000E-01  2.5000000000000E-01  2.5000000000000E-01  2.5000000000000E-01 
 1.0000000000000E-01  1.0000000000000E-01  1.0000000000000E-01  1.0000000000000E-01  1.0000000000000E-01  1.0000000000000E-01  1.0000000000000E-01  1.0000000000000E-01  1.0000000000000E-01  1.0000000000000E-01 
 0.0000000000000E+00  0.0000000000000E+00  0.0000000000000E+00  0.0000000000000E+00  0.0000000000000E+00  0.0000000000000E+00  0.0000000000000E+00  0.0000000000000E+00  0.0000000000000E+00  0.0000000000000E+00 
 0.0000000000000E+00  0.0000000000000E+00  0.0000000000000E+00  0.0000000000000E+00  0.0000000000000E+00  0.0000000000000E+00  0.0000000000000E+00  0.0000000000000E+00  0.0000000000000E+00  0.0000000000000E+00 
 0.0000000000000E+00  0.0000000000000E+00  0.0000000000000E+00  0.0000000000000E+00  0.0000000000000E+00  0.0000000000000E+00  0.0000000000000E+00  0.0000000000000E+00  0.0000000000000E+00  0.0000000000000E+00 
 0.0000000000000E+00  0.0000000000000E+00  0.0000000000000E+00  0.0000000000000E+00  0.0000000000000E+00  0.0000000000000E+00  0.0000000000000E+00  0.0000000000000E+00  0.0000000000000E+00  0.0000000000000E+00 
ZONE T = "SEP , 1.0000E-08", I = 10, SOLUTIONTIME = 1.000000E-08
ZONETYPE = ORDERED
DATAPACKING = BLOCK
STRANDID = 2
 9.6000000000000E-05  9.8777777777778E-05  1.0155555555556E-04  1.0433333333333E-04  1.0711111111111E-04  1.0988888888889E-04  1.1266666666667E-04  1.1544444444444E-04  1.1822222222222E-04  1.2100000000000E-04 
 1.8354864513351E-07  1.8344934854334E-07  1.8344834452717E-07  1.8344834686179E-07  1.8344834676648E-07  1.8344834677568E-07  1.8344834776942E-07  1.8344847674896E-07  1.8345792471497E-07  1.8279245853924E-07 
 8.4394679992706E-01  8.4394679999925E-01  8.4394679999999E-01  8.4394680000000E-01  8.4394680000000E-01  8.4394680000000E-01  8.4394680000000E-01  8.4394680000000E-01  8.4394680000007E-01  8.4394680000693E-01 
 7.8026600036470E-02  7.8026600000373E-02  7.8026600000004E-02  7.8026600000000E-02  7.8026600000000E-02  7.8026600000000E-02  7.8026600000000E-02  7.8026600000000E-02  7.8026599999965E-02  7.8026599996535E-02 
 7.8026600036470E-02  7.8026600000373E-02  7.8026600000004E-02  7.8026600000000E-02  7.8026600000000E-02  7.8026600000000E-02  7.8026600000000E-02  7.8026600000000E-02  7.8026599999965E-02  7.8026599996535E-02 
 1.3953518902102E-02  1.3953476557607E-02  1.3953434213112E-02  1.3953391868617E-02  1.3953349524122E-02  1.3953307179627E-02  1.3953264835132E-02  1.3953222490637E-02  1.3953180146142E-02  1.3953137801647E-02 
 2.9814999998427E+02  2.9814999999119E+02  2.9814999999519E+02  2.9814999999768E+02  2.9814999999890E+02  2.9814999999877E+02  2.9814999999939E+02  2.9815000000023E+02  2.9815000000087E+02  2.9815000000067E+02 
 6.5000000000000E-01  6.5000000000000E-01  6.5000000000000E-01  6.5000000000000E-01  6.5000000000000E-01  6.5000000000000E-01  6.5000000000000E-01  6.5000000000000E-01  6.5000000000000E-01  6.5000000000000E-01 
 1.3888888888889E-06  2.7777777777778E-06  2.7777777777778E-06  2.7777777777778E-06  2.7777777777778E-06  2.7777777777778E-06  2.7777777777778E-06  2.7777777777778E-06  2.7777777777778E-06  1.3888888888889E-06 
 2.5000000000000E-01  2.5000000000000E-01  2.5000000000000E-01  2.5000000000000E-01  2.5000000000000E-01  2.5000000000000E-01  2.5000000000000E-01  2.5000000000000E-01  2.5000000000000E-01  2.5000000000000E-01 
 1.0000000000000E-01  1.0000000000000E-01  1.0000000000000E-01  1.0000000000000E-01  1.0000000000000E-01  1.0000000000000E-01  1.0000000000000E-01  1.0000000000000E-01  1.0000000000000E-01  1.0000000000000E-01 
 9.1464109079381E-08  9.1464109089109E-08  9.1464109101966E-08  9.1464109104807E-08  9.1464109104437E-08  9.1464109104316E-08  9.1464109104166E-08  9.1464109103929E-08  9.1464109106384E-08  9.1464109108965E-08 
 9.1464109079380E+00  9.1464109089109E+00  9.1464109101966E+00  9.1464109104807E+00  9.1464109104437E+00  9.1464109104316E+00  9.1464109104166E+00  9.1464109103929E+00  9.1464109106384E+00  9.1464109108965E+00 
 9.1464109079380E+00  9.1464109089109E+00  9.1464109101966E+00  9.1464109104807E+00  9.1464109104437E+00  9.1464109104316E+00  9.1464109104166E+00  9.1464109103929E+00  9.1464109106384E+00  9.1464109108965E+00 
 0.0000000000000E+00  0.0000000000000E+00  0.0000000000000E+00  0.0000000000000E+00  0.0000000000000E+00  0.0000000000000E+00  0.0000000000000E+00  0.0000000000000E+00  0.0000000000000E+00  0.0000000000000E+00 
ZONE T = "SEP , 2.0000E-08", I = 10, SOLUTIONTIME = 2.000000E-08
ZONETYPE = ORDERED
DATAPACKING = BLOCK
STRANDID = 2
 9.6000000000000E-05  9.8777777777778E-05  1.0155555555556E-04  1.0433333333333E-04  1.0711111111111E-04  1.0988888888889E-04  1.1266666666667E-04  1.1544444444444E-04  1.1822222222222E-04  1.2100000000000E-04 
 1.8364685676159E-07  1.8345074793683E-07  1.8344778655034E-07  1.8344778817845E-07  1.8344778765463E-07  1.8344778770170E-07  1.8344778970795E-07  1.8344807966697E-07  1.8346671930054E-07  1.8279365654523E-07 
 8.4394679985454E-01  8.4394679999778E-01  8.4394679999997E-01  8.4394680000000E-01  8.4394680000000E-01  8.4394680000000E-01  8.4394680000000E-01  8.4394680000000E-01  8.4394680000021E-01  8.4394680001381E-01 
 7.8026600072732E-02  7.8026600001110E-02  7.8026600000015E-02  7.8026600000000E-02  7.8026600000000E-02  7.8026600000000E-02  7.8026600000000E-02  7.8026599999999E-02  7.8026599999895E-02  7.8026599993094E-02 
 7.8026600072732E-02  7.8026600001110E-02  7.8026600000015E-02  7.8026600000000E-02  7.8026600000000E-02  7.8026600000000E-02  7.8026600000000E-02  7.8026599999999E-02  7.8026599999895E-02  7.8026599993094E-02 
 1.3953518524878E-02  1.3953476180383E-02  1.3953433835888E-02  1.3953391491393E-02  1.3953349146898E-02  1.3953306802403E-02  1.3953264457908E-02  1.3953222113413E-02  1.3953179768918E-02  1.3953137424423E-02 
 2.9814999996855E+02  2.9814999998191E+02  2.9814999998992E+02  2.9814999999388E+02  2.9814999999505E+02  2.9814999999684E+02  2.9814999999824E+02  2.9814999999932E+02  2.9815000000047E+02  2.9815000000109E+02 
 6.5000000000000E-01  6.5000000000000E-01  6.5000000000000E-01  6.5000000000000E-01  6.5000000000000E-01  6.5000000000000E-01  6.5000000000000E-01  6.5000000000000E-01  6.5000000000000E-01  6.5000000000000E-01 
 1.3888888888889E-06  2.7777777777778E-06  2.7777777777778E-06  2.7777777777778E-06  2.7777777777778E-06  2.7777777777778E-06  2.7777777777778E-06  2.7777777777778E-06  2.7777777777778E-06  1.3888888888889E-06 
 2.5000000000000E-01  2.5000000000000E-01  2.5000000000000E-01  2.5000000000000E-01  2.5000000000000E-01  2.5000000000000E-01  2.5000000000000E-01  2.5000000000000E-01  2.5000000000000E-01  2.5000000000000E-01 
 1.0000000000000E-01  1.0000000000000E-01  1.0000000000000E-01  1.0000000000000E-01  1.0000000000000E-01  1.0000000000000E-01  1.0000000000000E-01  1.0000000000000E-01  1.0000000000000E-01  1.0000000000000E-01 
 1.8292821812682E-07  1.8292821815986E-07  1.8292821820224E-07  1.8292821820715E-07  1.8292821820616E-07  1.8292821820931E-07  1.8292821820873E-07  1.8292821820809E-07  1.8292821821170E-07  1.8292821821563E-07 
 9.1464109047442E+00  9.1464109070752E+00  9.1464109100277E+00  9.1464109102346E+00  9.1464109101720E+00  9.1464109104996E+00  9.1464109104560E+00  9.1464109104165E+00  9.1464109105314E+00  9.1464109106669E+00 
 9.1464109047442E+00  9.1464109070752E+00  9.1464109100277E+00  9.1464109102346E+00  9.1464109101720E+00  9.1464109104996E+00  9.1464109104560E+00  9.1464109104165E+00  9.1464109105314E+00  9.1464109106669E+00 
 0.0000000000000E+00  0.0000000000000E+00  0.0000000000000E+00  0.0000000000000E+00  0.0000000000000E+00  0.0000000000000E+00  0.0000000000000E+00  0.0000000000000E+00  0.0000000000000E+00  0.0000000000000E+00 
ZONE T = "SEP , 3.0000E-08", I = 10, SOLUTIONTIME = 3.000000E-08
ZONETYPE = ORDERED
DATAPACKING = BLOCK
STRANDID = 2
 9.6000000000000E-05  9.8777777777778E-05  1.0155555555556E-04  1.0433333333333E-04  1.0711111111111E-04  1.0988888888889E-04  1.1266666666667E-04  1.1544444444444E-04  1.1822222222222E-04  1.2100000000000E-04 
 1.8374427002785E-07  1.8345391668415E-07  1.8344799492345E-07  1.8344788783625E-07  1.8344788627977E-07  1.8344788638199E-07  1.8344791270689E-07  1.8344849382396E-07  1.8347604213002E-07  1.8279546071638E-07 
 8.4394679978242E-01  8.4394679999560E-01  8.4394679999993E-01  8.4394680000000E-01  8.4394680000000E-01  8.4394680000000E-01  8.4394680000000E-01  8.4394680000001E-01  8.4394680000042E-01  8.4394680002065E-01 
 7.8026600108790E-02  7.8026600002201E-02  7.8026600000037E-02  7.8026600000001E-02  7.8026600000000E-02  7.8026600000000E-02  7.8026600000000E-02  7.8026599999996E-02  7.8026599999791E-02  7.8026599989677E-02 
 7.8026600108790E-02  7.8026600002201E-02  7.8026600000037E-02  7.8026600000001E-02  7.8026600000000E-02  7.8026600000000E-02  7.8026600000000E-02  7.8026599999996E-02  7.8026599999791E-02  7.8026599989677E-02 
 1.3953518143403E-02  1.3953475798908E-02  1.3953433454413E-02  1.3953391109918E-02  1.3953348765423E-02  1.3953306420928E-02  1.3953264076433E-02  1.3953221731938E-02  1.3953179387443E-02  1.3953137042948E-02 
 2.9814999995284E+02  2.9814999996987E+02  2.9814999998042E+02  2.9814999998790E+02  2.9814999999237E+02  2.9814999999615E+02  2.9814999999942E+02  2.9815000000064E+02  2.9815000000131E+02  2.9815000000152E+02 
 6.5000000000000E-01  6.5000000000000E-01  6.5000000000000E-01  6.5000000000000E-01  6.5000000000000E-01  6.5000000000000E-01  6.5000000000000E-01  6.5000000000000E-01  6.5000000000000E-01  6.5000000000000E-01 
 1.3888888888889E-06  2.7777777777778E-06  2.7777777777778E-06  2.7777777777778E-06  2.7777777777778E-06  2.7777777777778E-06  2.7777777777778E-06  2.7777777777778E-06  2.7777777777778E-06  1.3888888888889E-06 
 2.5000000000000E-01  2.5000000000000E-01  2.5000000000000E-01  2.5000000000000E-01  2.5000000000000E-01  2.5000000000000E-01  2.5000000000000E-01  2.5000000000000E-01  2.5000000000000E-01  2.5000000000000E-01 
 1.0000000000000E-01  1.0000000000000E-01  1.0000000000000E-01  1.0000000000000E-01  1.0000000000000E-01  1.0000000000000E-01  1.0000000000000E-01  1.0000000000000E-01  1.0000000000000E-01  1.0000000000000E-01 
 2.7439232714285E-07  2.7439232721692E-07  2.7439232730198E-07  2.7439232730761E-07  2.7439232730505E-07  2.7439232731078E-07  2.7439232731306E-07  2.7439232731186E-07  2.7439232731931E-07  2.7439232732730E-07 
 9.1464109016025E+00  9.1464109057060E+00  9.1464109099742E+00  9.1464109100458E+00  9.1464109098896E+00  9.1464109101470E+00  9.1464109104330E+00  9.1464109103771E+00  9.1464109107612E+00  9.1464109111667E+00 
 9.1464109016025E+00  9.1464109057060E+00  9.1464109099742E+00  9.1464109100458E+00  9.1464109098896E+00  9.1464109101470E+00  9.1464109104330E+00  9.1464109103771E+00  9.1464109107612E+00  9.1464109111667E+00 
 0.0000000000000E+00  0.0000000000000E+00  0.0000000000000E+00  0.0000000000000E+00  0.0000000000000E+00  0.0000000000000E+00  0.0000000000000E+00  0.0000000000000E+00  0.0000000000000E+00  0.0000000000000E+00 
ZONE T = "SEP , 4.0000E-08", I = 10, SOLUTIONTIME = 4.000000E-08
ZONETYPE = ORDERED
DATAPACKING = BLOCK
STRANDID = 2
 9.6000000000000E-05  9.8777777777778E-05  1.0155555555556E-04  1.0433333333333E-04  1.0711111111111E-04  1.0988888888889E-04  1.1266666666667E-04  1.1544444444444E-04  1.1822222222222E-04  1.2100000000000E-04 
 1.8383986506235E-07  1.8345769459956E-07  1.8344793861774E-07  1.8344775410407E-07  1.8344775478600E-07  1.8344775508162E-07  1.8344775685513E-07  1.8344868436955E-07  1.8348492789274E-07  1.8279713031672E-07 
 8.4394679971071E-01  8.4394679999273E-01  8.4394679999985E-01  8.4394680000000E-01  8.4394680000000E-01  8.4394680000000E-01  8.4394680000000E-01  8.4394680000001E-01  8.4394680000069E-01  8.4394680002743E-01 
 7.8026600144646E-02  7.8026600003637E-02  7.8026600000074E-02  7.8026600000001E-02  7.8026600000000E-02  7.8026600000000E-02  7.8026600000000E-02  7.8026599999993E-02  7.8026599999655E-02  7.8026599986284E-02 
 7.8026600144646E-02  7.8026600003637E-02  7.8026600000074E-02  7.8026600000001E-02  7.8026600000000E-02  7.8026600000000E-02  7.8026600000000E-02  7.8026599999993E-02  7.8026599999655E-02  7.8026599986284E-02 
 1.3953517761928E-02  1.3953475417433E-02  1.3953433072938E-02  1.3953390728443E-02  1.3953348383948E-02  1.3953306039453E-02  1.3953263694958E-02  1.3953221350463E-02  1.3953179005968E-02  1.3953136661473E-02 
 2.9814999993712E+02  2.9814999995475E+02  2.9814999996865E+02  2.9814999997956E+02  2.9814999998659E+02  2.9814999999217E+02  2.9814999999740E+02  2.9814999999987E+02  2.9815000000141E+02  2.9815000000194E+02 
 6.5000000000000E-01  6.5000000000000E-01  6.5000000000000E-01  6.5000000000000E-01  6.5000000000000E-01  6.5000000000000E-01  6.5000000000000E-01  6.5000000000000E-01  6.5000000000000E-01  6.5000000000000E-01 
 1.3888888888889E-06  2.7777777777778E-06  2.7777777777778E-06  2.7777777777778E-06  2.7777777777778E-06  2.7777777777778E-06  2.7777777777778E-06  2.7777777777778E-06  2.7777777777778E-06  1.3888888888889E-06 
 2.5000000000000E-01  2.5000000000000E-01  2.5000000000000E-01  2.5000000000000E-01  2.5000000000000E-01  2.5000000000000E-01  2.5000000000000E-01  2.5000000000000E-01  2.5000000000000E-01  2.5000000000000E-01 
 1.0000000000000E-01  1.0000000000000E-01  1.0000000000000E-01  1.0000000000000E-01  1.0000000000000E-01  1.0000000000000E-01  1.0000000000000E-01  1.0000000000000E-01  1.0000000000000E-01  1.0000000000000E-01 
 3.6585643613551E-07  3.6585643625735E-07  3.6585643639458E-07  3.6585643640696E-07  3.6585643640578E-07  3.6585643640971E-07  3.6585643641431E-07  3.6585643641586E-07  3.6585643642948E-07  3.6585643644408E-07 
 9.1464108992666E+00  9.1464109040430E+00  9.1464109092598E+00  9.1464109099349E+00  9.1464109100728E+00  9.1464109098932E+00  9.1464109101256E+00  9.1464109103991E+00  9.1464109110173E+00  9.1464109116776E+00 
 9.1464108992666E+00  9.1464109040430E+00  9.1464109092598E+00  9.1464109099349E+00  9.1464109100728E+00  9.1464109098932E+00  9.1464109101256E+00  9.1464109103991E+00  9.1464109110173E+00  9.1464109116776E+00 
 0.0000000000000E+00  0.0000000000000E+00  0.0000000000000E+00  0.0000000000000E+00  0.0000000000000E+00  0.0000000000000E+00  0.0000000000000E+00  0.0000000000000E+00  0.0000000000000E+00  0.0000000000000E+00 
ZONE T = "SEP , 5.5000E-08", I = 10, SOLUTIONTIME = 5.500000E-08
ZONETYPE = ORDERED
DATAPACKING = BLOCK
STRANDID = 2
 9.6000000000000E-05  9.8777777777778E-05  1.0155555555556E-04  1.0433333333333E-04  1.0711111111111E-04  1.0988888888889E-04  1.1266666666667E-04  1.1544444444444E-04  1.1822222222222E-04  1.2100000000000E-04 
 1.8397945457129E-07  1.8346478799809E-07  1.8344755106000E-07  1.8344707491475E-07  1.8344707517663E-07  1.8344707591740E-07  1.8344714773556E-07  1.8344875373242E-07  1.8349743352159E-07  1.8279898947682E-07 
 8.4394679960402E-01  8.4394679998692E-01  8.4394679999966E-01  8.4394679999999E-01  8.4394680000000E-01  8.4394680000000E-01  8.4394680000000E-01  8.4394680000003E-01  8.4394680000124E-01  8.4394680003751E-01 
 7.8026600197990E-02  7.8026600006538E-02  7.8026600000171E-02  7.8026600000004E-02  7.8026600000000E-02  7.8026600000000E-02  7.8026600000000E-02  7.8026599999984E-02  7.8026599999380E-02  7.8026599981246E-02 
 7.8026600197990E-02  7.8026600006538E-02  7.8026600000171E-02  7.8026600000004E-02  7.8026600000000E-02  7.8026600000000E-02  7.8026600000000E-02  7.8026599999984E-02  7.8026599999380E-02  7.8026599981246E-02 
 1.3953517315054E-02  1.3953474970559E-02  1.3953432626064E-02  1.3953390281569E-02  1.3953347937074E-02  1.3953305592579E-02  1.3953263248084E-02  1.3953220903589E-02  1.3953178559094E-02  1.3953136214599E-02 
 2.9814999991356E+02  2.9814999993503E+02  2.9814999995262E+02  2.9814999996595E+02  2.9814999997717E+02  2.9814999998477E+02  2.9814999999041E+02  2.9814999999460E+02  2.9814999999822E+02  2.9815000000257E+02 
 6.5000000000000E-01  6.5000000000000E-01  6.5000000000000E-01  6.5000000000000E-01  6.5000000000000E-01  6.5000000000000E-01  6.5000000000000E-01  6.5000000000000E-01  6.5000000000000E-01  6.5000000000000E-01 
 1.3888888888889E-06  2.7777777777778E-06  2.7777777777778E-06  2.7777777777778E-06  2.7777777777778E-06  2.7777777777778E-06  2.7777777777778E-06  2.7777777777778E-06  2.7777777777778E-06  1.3888888888889E-06 
 2.5000000000000E-01  2.5000000000000E-01  2.5000000000000E-01  2.5000000000000E-01  2.5000000000000E-01  2.5000000000000E-01  2.5000000000000E-01  2.5000000000000E-01  2.5000000000000E-01  2.5000000000000E-01 
 1.0000000000000E-01  1.0000000000000E-01  1.0000000000000E-01  1.0000000000000E-01  1.0000000000000E-01  1.0000000000000E-01  1.0000000000000E-01  1.0000000000000E-01  1.0000000000000E-01  1.0000000000000E-01 
 5.0305259956596E-07  5.0305259978306E-07  5.0305260002004E-07  5.0305260004523E-07  5.0305260005584E-07  5.0305260006170E-07  5.0305260006364E-07  5.0305260006846E-07  5.0305260009327E-07  5.0305260011462E-07 
 9.1464108953629E+00  9.1464109017139E+00  9.1464109083637E+00  9.1464109092179E+00  9.1464109100037E+00  9.1464109101325E+00  9.1464109099549E+00  9.1464109101736E+00  9.1464109109189E+00  9.1464109113696E+00 
 9.1464108953629E+00  9.1464109017139E+00  9.1464109083637E+00  9.1464109092179E+00  9.1464109100037E+00  9.1464109101325E+00  9.1464109099549E+00  9.1464109101736E+00  9.1464109109189E+00  9.1464109113696E+00 
 0.0000000000000E+00  0.0000000000000E+00  0.0000000000000E+00  0.0000000000000E+00  0.0000000000000E+00  0.0000000000000E+00  0.0000000000000E+00  0.0000000000000E+00  0.0000000000000E+00  0.0000000000000E+00 
ZONE T = "SEP , 7.7500E-08", I = 10, SOLUTIONTIME = 7.750000E-08
ZONETYPE = ORDERED
DATAPACKING = BLOCK
STRANDID = 2
 9.6000000000000E-05  9.8777777777778E-05  1.0155555555556E-04  1.0433333333333E-04  1.0711111111111E-04  1.0988888888889E-04  1.1266666666667E-04  1.1544444444444E-04  1.1822222222222E-04  1.2100000000000E-04 
 1.8418368002679E-07  1.8348147909058E-07  1.8344925080383E-07  1.8344811101071E-07  1.8344807596866E-07  1.8344807746950E-07  1.8344817096711E-07  1.8345123812164E-07  1.8351768206235E-07  1.8280416199588E-07 
 8.4394679944590E-01  8.4394679997505E-01  8.4394679999911E-01  8.4394679999997E-01  8.4394680000000E-01  8.4394680000000E-01  8.4394680000000E-01  8.4394680000008E-01  8.4394680000236E-01  8.4394680005240E-01 
 7.8026600277050E-02  7.8026600012475E-02  7.8026600000444E-02  7.8026600000014E-02  7.8026600000000E-02  7.8026600000000E-02  7.8026599999999E-02  7.8026599999958E-02  7.8026599998819E-02  7.8026599973798E-02 
 7.8026600277050E-02  7.8026600012475E-02  7.8026600000444E-02  7.8026600000014E-02  7.8026600000000E-02  7.8026600000000E-02  7.8026599999999E-02  7.8026599999958E-02  7.8026599998819E-02  7.8026599973798E-02 
 1.3953516526414E-02  1.3953474181919E-02  1.3953431837424E-02  1.3953389492929E-02  1.3953347148434E-02  1.3953304803939E-02  1.3953262459444E-02  1.3953220114949E-02  1.3953177770454E-02  1.3953135425959E-02 
 2.9814999987822E+02  2.9814999990474E+02  2.9814999992700E+02  2.9814999994474E+02  2.9814999995955E+02  2.9814999997119E+02  2.9814999998118E+02  2.9814999998951E+02  2.9814999999672E+02  2.9815000000352E+02 
 6.5000000000000E-01  6.5000000000000E-01  6.5000000000000E-01  6.5000000000000E-01  6.5000000000000E-01  6.5000000000000E-01  6.5000000000000E-01  6.5000000000000E-01  6.5000000000000E-01  6.5000000000000E-01 
 1.3888888888889E-06  2.7777777777778E-06  2.7777777777778E-06  2.7777777777778E-06  2.7777777777778E-06  2.7777777777778E-06  2.7777777777778E-06  2.7777777777778E-06  2.7777777777778E-06  1.3888888888889E-06 
 2.5000000000000E-01  2.5000000000000E-01  2.5000000000000E-01  2.5000000000000E-01  2.5000000000000E-01  2.5000000000000E-01  2.5000000000000E-01  2.5000000000000E-01  2.5000000000000E-01  2.5000000000000E-01 
 1.0000000000000E-01  1.0000000000000E-01  1.0000000000000E-01  1.0000000000000E-01  1.0000000000000E-01  1.0000000000000E-01  1.0000000000000E-01  1.0000000000000E-01  1.0000000000000E-01  1.0000000000000E-01 
 7.0884684453888E-07  7.0884684497417E-07  7.0884684544700E-07  7.0884684549234E-07  7.0884684550929E-07  7.0884684552371E-07  7.0884684553558E-07  7.0884684555052E-07  7.0884684560072E-07  7.0884684564257E-07 
 9.1464108876855E+00  9.1464108973828E+00  9.1464109078650E+00  9.1464109087604E+00  9.1464109090424E+00  9.1464109094227E+00  9.1464109098642E+00  9.1464109103140E+00  9.1464109114422E+00  9.1464109123535E+00 
 9.1464108876855E+00  9.1464108973828E+00  9.1464109078650E+00  9.1464109087604E+00  9.1464109090424E+00  9.1464109094227E+00  9.1464109098642E+00  9.1464109103140E+00  9.1464109114422E+00  9.1464109123535E+00 
 0.0000000000000E+00  0.0000000000000E+00  0.0000000000000E+00  0.0000000000000E+00  0.0000000000000E+00  0.0000000000000E+00  0.0000000000000E+00  0.0000000000000E+00  0.0000000000000E+00  0.0000000000000E+00 
ZONE T = "SEP , 1.1125E-07", I = 10, SOLUTIONTIME = 1.112500E-07
ZONETYPE = ORDERED
DATAPACKING = BLOCK
STRANDID = 2
 9.6000000000000E-05  9.8777777777778E-05  1.0155555555556E-04  1.0433333333333E-04  1.0711111111111E-04  1.0988888888889E-04  1.1266666666667E-04  1.1544444444444E-04  1.1822222222222E-04  1.2100000000000E-04 
 1.8447318263739E-07  1.8351248226193E-07  1.8345057740967E-07  1.8344743650753E-07  1.8344731070559E-07  1.8344731037454E-07  1.8344761574062E-07  1.8345345928398E-07  1.8354409526920E-07  1.8280951623552E-07 
 8.4394679921278E-01  8.4394679995068E-01  8.4394679999754E-01  8.4394679999989E-01  8.4394680000000E-01  8.4394680000000E-01  8.4394680000001E-01  8.4394680000023E-01  8.4394680000466E-01  8.4394680007429E-01 
 7.8026600393609E-02  7.8026600024660E-02  7.8026600001229E-02  7.8026600000053E-02  7.8026600000002E-02  7.8026600000000E-02  7.8026599999995E-02  7.8026599999884E-02  7.8026599997669E-02  7.8026599962855E-02 
 7.8026600393609E-02  7.8026600024660E-02  7.8026600001229E-02  7.8026600000053E-02  7.8026600000002E-02  7.8026600000000E-02  7.8026599999995E-02  7.8026599999884E-02  7.8026599997669E-02  7.8026599962855E-02 
 1.3953515343473E-02  1.3953472998978E-02  1.3953430654483E-02  1.3953388309988E-02  1.3953345965493E-02  1.3953303620998E-02  1.3953261276503E-02  1.3953218932008E-02  1.3953176587513E-02  1.3953134243018E-02 
 2.9814999982523E+02  2.9814999985868E+02  2.9814999988746E+02  2.9814999991227E+02  2.9814999993325E+02  2.9814999995093E+02  2.9814999996614E+02  2.9814999997992E+02  2.9814999999280E+02  2.9815000000492E+02 
 6.5000000000000E-01  6.5000000000000E-01  6.5000000000000E-01  6.5000000000000E-01  6.5000000000000E-01  6.5000000000000E-01  6.5000000000000E-01  6.5000000000000E-01  6.5000000000000E-01  6.5000000000000E-01 
 1.3888888888889E-06  2.7777777777778E-06  2.7777777777778E-06  2.7777777777778E-06  2.7777777777778E-06  2.7777777777778E-06  2.7777777777778E-06  2.7777777777778E-06  2.7777777777778E-06  1.3888888888889E-06 
 2.5000000000000E-01  2.5000000000000E-01  2.5000000000000E-01  2.5000000000000E-01  2.5000000000000E-01  2.5000000000000E-01  2.5000000000000E-01  2.5000000000000E-01  2.5000000000000E-01  2.5000000000000E-01 
 1.0000000000000E-01  1.0000000000000E-01  1.0000000000000E-01  1.0000000000000E-01  1.0000000000000E-01  1.0000000000000E-01  1.0000000000000E-01  1.0000000000000E-01  1.0000000000000E-01  1.0000000000000E-01 
 1.0175382116759E-06  1.0175382125602E-06  1.0175382135170E-06  1.0175382136219E-06  1.0175382136662E-06  1.0175382137000E-06  1.0175382137336E-06  1.0175382137568E-06  1.0175382138640E-06  1.0175382139597E-06 
 9.1464108781339E+00  9.1464108914390E+00  9.1464109057775E+00  9.1464109075435E+00  9.1464109083527E+00  9.1464109089262E+00  9.1464109095717E+00  9.1464109098145E+00  9.1464109115046E+00  9.1464109131005E+00 
 9.1464108781339E+00  9.1464108914390E+00  9.1464109057775E+00  9.1464109075435E+00  9.1464109083527E+00  9.1464109089262E+00  9.1464109095717E+00  9.1464109098145E+00  9.1464109115046E+00  9.1464109131005E+00 
 0.0000000000000E+00  0.0000000000000E+00  0.0000000000000E+00  0.0000000000000E+00  0.0000000000000E+00  0.0000000000000E+00  0.0000000000000E+00  0.0000000000000E+00  0.0000000000000E+00  0.0000000000000E+00 
ZONE T = "SEP , 1.6188E-07", I = 10, SOLUTIONTIME = 1.618750E-07
ZONETYPE = ORDERED
DATAPACKING = BLOCK
STRANDID = 2
 9.6000000000000E-05  9.8777777777778E-05  1.0155555555556E-04  1.0433333333333E-04  1.0711111111111E-04  1.0988888888889E-04  1.1266666666667E-04  1.1544444444444E-04  1.1822222222222E-04  1.2100000000000E-04 
 1.8487887125065E-07  1.8357536741193E-07  1.8345664988959E-07  1.8344811743500E-07  1.8344758502296E-07  1.8344760597397E-07  1.8344840481368E-07  1.8345960053222E-07  1.8358220356899E-07  1.8281924239009E-07 
 8.4394679887155E-01  8.4394679990108E-01  8.4394679999303E-01  8.4394679999957E-01  8.4394679999998E-01  8.4394680000000E-01  8.4394680000004E-01  8.4394680000066E-01  8.4394680000933E-01  8.4394680010619E-01 
 7.8026600564227E-02  7.8026600049458E-02  7.8026600003487E-02  7.8026600000216E-02  7.8026600000012E-02  7.8026600000000E-02  7.8026599999980E-02  7.8026599999671E-02  7.8026599995336E-02  7.8026599946905E-02 
 7.8026600564227E-02  7.8026600049458E-02  7.8026600003487E-02  7.8026600000216E-02  7.8026600000012E-02  7.8026600000000E-02  7.8026599999980E-02  7.8026599999671E-02  7.8026599995336E-02  7.8026599946905E-02 
 1.3953513569092E-02  1.3953471224598E-02  1.3953428880103E-02  1.3953386535608E-02  1.3953344191113E-02  1.3953301846618E-02  1.3953259502123E-02  1.3953217157628E-02  1.3953174813133E-02  1.3953132468638E-02 
 2.9814999974578E+02  2.9814999978827E+02  2.9814999982624E+02  2.9814999985968E+02  2.9814999988970E+02  2.9814999991665E+02  2.9814999994124E+02  2.9814999996407E+02  2.9814999998567E+02  2.9815000000701E+02 
 6.5000000000000E-01  6.5000000000000E-01  6.5000000000000E-01  6.5000000000000E-01  6.5000000000000E-01  6.5000000000000E-01  6.5000000000000E-01  6.5000000000000E-01  6.5000000000000E-01  6.5000000000000E-01 
 1.3888888888889E-06  2.7777777777778E-06  2.7777777777778E-06  2.7777777777778E-06  2.7777777777778E-06  2.7777777777778E-06  2.7777777777778E-06  2.7777777777778E-06  2.7777777777778E-06  1.3888888888889E-06 
 2.5000000000000E-01  2.5000000000000E-01  2.5000000000000E-01  2.5000000000000E-01  2.5000000000000E-01  2.5000000000000E-01  2.5000000000000E-01  2.5000000000000E-01  2.5000000000000E-01  2.5000000000000E-01 
 1.0000000000000E-01  1.0000000000000E-01  1.0000000000000E-01  1.0000000000000E-01  1.0000000000000E-01  1.0000000000000E-01  1.0000000000000E-01  1.0000000000000E-01  1.0000000000000E-01  1.0000000000000E-01 
 1.4805752616268E-06  1.4805752634682E-06  1.4805752655005E-06  1.4805752657314E-06  1.4805752658366E-06  1.4805752659227E-06  1.4805752659742E-06  1.4805752660483E-06  1.4805752662923E-06  1.4805752664927E-06 
 9.1464108632271E+00  9.1464108821322E+00  9.1464109033772E+00  9.1464109058661E+00  9.1464109070700E+00  9.1464109081033E+00  9.1464109084566E+00  9.1464109094631E+00  9.1464109121630E+00  9.1464109142312E+00 
 9.1464108632271E+00  9.1464108821322E+00  9.1464109033772E+00  9.1464109058661E+00  9.1464109070700E+00  9.1464109081033E+00  9.1464109084566E+00  9.1464109094631E+00  9.1464109121630E+00  9.1464109142312E+00 
 0.0000000000000E+00  0.0000000000000E+00  0.0000000000000E+00  0.0000000000000E+00  0.0000000000000E+00  0.0000000000000E+00  0.0000000000000E+00  0.0000000000000E+00  0.0000000000000E+00  0.0000000000000E+00 
ZONE T = "SEP , 2.3781E-07", I = 10, SOLUTIONTIME = 2.378125E-07
ZONETYPE = ORDERED
DATAPACKING = BLOCK
STRANDID = 2