TITLE = "Solution on Domain BulkDomain1D_0"
VARIABLES = "x [m]"  
"Vel_axial" 
"MF_sp(ECDMC)" 
"MF_sp(Li+)" 
"MF_sp(PF6-)" 
"Volt(Electroly)" 
"Volt(AnodeVolt)" 
"Temperature" 
"Potential Drop Electrode-Electrolyte [V]" 
"Surf_0 Equilibrium Potential Drop Electrode-Electrolyte [V]" 
"Overpotential_0 [V]" 
"Current Source [A/m^2]" 
"Li+ flux [kmol/m^2/s]" 
"Electrolyte Current [A/m^2]" 
"Electrode Current [A/m^2]" 
"CV Capacity discharged [A-s/m^2]" 
"Depth of discharge in CV [A-s/m^2]" 
"CV Capacity remaining [A-s/m^2]" 
"Initial CV capacity [A-s/m^2]" 
"Porosity []" 
"Surface Area [m2/m2] (area per area)" 
"Specific current (per particle area) [A/m^2]" 
"Control volume thickness [m]" 
"volFrac AnodeBinder []" 	"volFrac ExtraStuff []" 	"MoleDens Li_C6-bulk [kmol/m^3]" 
"MoleDens V_C6-bulk [kmol/m^3]" 
"qHeat_accum [J/m3]" 
"qHeat_step [W/m3]" 
"Joule_Lyte [W/m3]" 
"Joule_Solid [W/m3]" 
"electrodHeat [W/m3]" 
"OverpotHeat [W/m3]" 
"deltaSHeat [W/m3]" 

ZONE T = "ANOD, 0.0000E+00", I = 10, SOLUTIONTIME = 0.000000E+00
ZONETYPE = ORDERED
DATAPACKING = BLOCK
STRANDID = 1
 0.0000000000000E+00  1.0666666666667E-05  2.1333333333333E-05  3.2000000000000E-05  4.2666666666667E-05  5.3333333333333E-05  6.4000000000000E-05  7.4666666666667E-05  8.5333333333333E-05  9.6000000000000E-05 
 0.0000000000000E+00  0.0000000000000E+00  0.0000000000000E+00  0.0000000000000E+00  0.0000000000000E+00  0.0000000000000E+00  0.0000000000000E+00  0.0000000000000E+00  0.0000000000000E+00  0.0000000000000E+00 
 8.4394680000000E-01  8.4394680000000E-01  8.4394680000000E-01  8.4394680000000E-01  8.4394680000000E-01  8.4394680000000E-01  8.4394680000000E-01  8.4394680000000E-01  8.4394680000000E-01  8.4394680000000E-01 
 7.8026600000000E-02  7.8026600000000E-02  7.8026600000000E-02  7.8026600000000E-02  7.8026600000000E-02  7.8026600000000E-02  7.8026600000000E-02  7.8026600000000E-02  7.8026600000000E-02  7.8026600000000E-02 
 7.8026600000000E-02  7.8026600000000E-02  7.8026600000000E-02  7.8026600000000E-02  7.8026600000000E-02  7.8026600000000E-02  7.8026600000000E-02  7.8026600000000E-02  7.8026600000000E-02  7.8026600000000E-02 
-7.0000000000000E-02 -7.0000000000000E-02 -7.0000000000000E-02 -7.0000000000000E-02 -7.0000000000000E-02 -7.0000000000000E-02 -7.0000000000000E-02 -7.0000000000000E-02 -7.0000000000000E-02 -7.0000000000000E-02 
 0.0000000000000E+00  0.0000000000000E+00  0.0000000000000E+00  0.0000000000000E+00  0.0000000000000E+00  0.0000000000000E+00  0.0000000000000E+00  0.0000000000000E+00  0.0000000000000E+00  0.0000000000000E+00 
 2.9815000000000E+02  2.9815000000000E+02  2.9815000000000E+02  2.9815000000000E+02  2.9815000000000E+02  2.9815000000000E+02  2.9815000000000E+02  2.9815000000000E+02  2.9815000000000E+02  2.9815000000000E+02 
 7.0000000000000E-02  7.0000000000000E-02  7.0000000000000E-02  7.0000000000000E-02  7.0000000000000E-02  7.0000000000000E-02  7.0000000000000E-02  7.0000000000000E-02  7.0000000000000E-02  7.0000000000000E-02 
-2.4223580520703E-02 -2.4223580520703E-02 -2.4223580520703E-02 -2.4223580520703E-02 -2.4223580520703E-02 -2.4223580520703E-02 -2.4223580520703E-02 -2.4223580520703E-02 -2.4223580520703E-02 -2.4223580520703E-02 
 9.4223580520703E-02  9.4223580520703E-02  9.4223580520703E-02  9.4223580520703E-02  9.4223580520703E-02  9.4223580520703E-02  9.4223580520703E-02  9.4223580520703E-02  9.4223580520703E-02  9.4223580520703E-02 
 5.2587842025318E+02  1.0517568405064E+03  1.0517568405064E+03  1.0517568405064E+03  1.0517568405064E+03  1.0517568405064E+03  1.0517568405064E+03  1.0517568405064E+03  1.0517568405064E+03  5.2587842025318E+02 
-0.0000000000000E+00 -0.0000000000000E+00 -0.0000000000000E+00 -0.0000000000000E+00 -0.0000000000000E+00 -0.0000000000000E+00 -0.0000000000000E+00 -0.0000000000000E+00 -0.0000000000000E+00 -0.0000000000000E+00 
 0.0000000000000E+00  0.0000000000000E+00  0.0000000000000E+00  0.0000000000000E+00  0.0000000000000E+00  0.0000000000000E+00  0.0000000000000E+00  0.0000000000000E+00  0.0000000000000E+00  5.2587842025318E+02 
 5.2587842025318E+02 -0.0000000000000E+00 -0.0000000000000E+00 -0.0000000000000E+00 -0.0000000000000E+00 -0.0000000000000E+00 -0.0000000000000E+00 -0.0000000000000E+00 -0.0000000000000E+00  0.0000000000000E+00 
 0.0000000000000E+00  0.0000000000000E+00  0.0000000000000E+00  0.0000000000000E+00  0.0000000000000E+00  0.0000000000000E+00  0.0000000000000E+00  0.0000000000000E+00  0.0000000000000E+00  0.0000000000000E+00 
 1.4095380717934E+03  2.8190761435868E+03  2.8190761435868E+03  2.8190761435868E+03  2.8190761435868E+03  2.8190761435868E+03  2.8190761435868E+03  2.8190761435868E+03  2.8190761435868E+03  1.4095380717934E+03 
 5.6381522871735E+03  1.1276304574347E+04  1.1276304574347E+04  1.1276304574347E+04  1.1276304574347E+04  1.1276304574347E+04  1.1276304574347E+04  1.1276304574347E+04  1.1276304574347E+04  5.6381522871735E+03 
 7.0476903589669E+03  1.4095380717934E+04  1.4095380717934E+04  1.4095380717934E+04  1.4095380717934E+04  1.4095380717934E+04  1.4095380717934E+04  1.4095380717934E+04  1.4095380717934E+04  7.0476903589669E+03 
 4.0000000000000E-01  4.0000000000000E-01  4.0000000000000E-01  4.0000000000000E-01  4.0000000000000E-01  4.0000000000000E-01  4.0000000000000E-01  4.0000000000000E-01  4.0000000000000E-01  4.0000000000000E-01 
 9.4000000000000E-01  1.8800000000000E+00  1.8800000000000E+00  1.8800000000000E+00  1.8800000000000E+00  1.8800000000000E+00  1.8800000000000E+00  1.8800000000000E+00  1.8800000000000E+00  9.4000000000000E-01 
 5.5944512792892E+02  5.5944512792892E+02  5.5944512792892E+02  5.5944512792892E+02  5.5944512792892E+02  5.5944512792892E+02  5.5944512792892E+02  5.5944512792892E+02  5.5944512792892E+02  5.5944512792892E+02 
 5.3333333333333E-06  1.0666666666667E-05  1.0666666666667E-05  1.0666666666667E-05  1.0666666666667E-05  1.0666666666667E-05  1.0666666666667E-05  1.0666666666667E-05  1.0666666666667E-05  5.3333333333333E-06 
 3.0000000000000E-02  3.0000000000000E-02  3.0000000000000E-02  3.0000000000000E-02  3.0000000000000E-02  3.0000000000000E-02  3.0000000000000E-02  3.0000000000000E-02  3.0000000000000E-02  3.0000000000000E-02 
 1.0000000000000E-01  1.0000000000000E-01  1.0000000000000E-01  1.0000000000000E-01  1.0000000000000E-01  1.0000000000000E-01  1.0000000000000E-01  1.0000000000000E-01  1.0000000000000E-01  1.0000000000000E-01 
 1.0956624007712E+01  1.0956624007712E+01  1.0956624007712E+01  1.0956624007712E+01  1.0956624007712E+01  1.0956624007712E+01  1.0956624007712E+01  1.0956624007712E+01  1.0956624007712E+01  1.0956624007712E+01 
 2.7391560019279E+00  2.7391560019279E+00  2.7391560019279E+00  2.7391560019279E+00  2.7391560019279E+00  2.7391560019279E+00  2.7391560019279E+00  2.7391560019279E+00  2.7391560019279E+00  2.7391560019279E+00 
 0.0000000000000E+00  0.0000000000000E+00  0.0000000000000E+00  0.0000000000000E+00  0.0000000000000E+00  0.0000000000000E+00  0.0000000000000E+00  0.0000000000000E+00  0.0000000000000E+00  0.0000000000000E+00 
 0.0000000000000E+00  0.0000000000000E+00  0.0000000000000E+00  0.0000000000000E+00  0.0000000000000E+00  0.0000000000000E+00  0.0000000000000E+00  0.0000000000000E+00  0.0000000000000E+00  0.0000000000000E+00 
 0.0000000000000E+00  0.0000000000000E+00  0.0000000000000E+00  0.0000000000000E+00  0.0000000000000E+00  0.0000000000000E+00  0.0000000000000E+00  0.0000000000000E+00  0.0000000000000E+00  0.0000000000000E+00 
 0.0000000000000E+00  0.0000000000000E+00  0.0000000000000E+00  0.0000000000000E+00  0.0000000000000E+00  0.0000000000000E+00  0.0000000000000E+00  0.0000000000000E+00  0.0000000000000E+00  0.0000000000000E+00 
 0.0000000000000E+00  0.0000000000000E+00  0.0000000000000E+00  0.0000000000000E+00  0.0000000000000E+00  0.0000000000000E+00  0.0000000000000E+00  0.0000000000000E+00  0.0000000000000E+00  0.0000000000000E+00 
 0.0000000000000E+00  0.0000000000000E+00  0.0000000000000E+00  0.0000000000000E+00  0.0000000000000E+00  0.0000000000000E+00  0.0000000000000E+00  0.0000000000000E+00  0.0000000000000E+00  0.0000000000000E+00 
 0.0000000000000E+00  0.0000000000000E+00  0.0000000000000E+00  0.0000000000000E+00  0.0000000000000E+00  0.0000000000000E+00  0.0000000000000E+00  0.0000000000000E+00  0.0000000000000E+00  0.0000000000000E+00 
ZONE T = "ANOD, 1.0000E-08", I = 10, SOLUTIONTIME = 1.000000E-08
ZONETYPE = ORDERED
DATAPACKING = BLOCK
STRANDID = 1
 0.0000000000000E+00  1.0666666666667E-05  2.1333333333333E-05  3.2000000000000E-05  4.2666666666667E-05  5.3333333333333E-05  6.4000000000000E-05  7.4666666666667E-05  8.5333333333333E-05  9.6000000000000E-05 
 1.0618251298430E-08  3.1582701833250E-08  5.2308993431912E-08  7.2829434915338E-08  9.3176575012886E-08  1.1338247868951E-07  1.3347891263008E-07  1.5349754594396E-07  1.7347523861443E-07  1.8354876173412E-07 
 8.4394679988890E-01  8.4394679989032E-01  8.4394679989157E-01  8.4394679989264E-01  8.4394679989355E-01  8.4394679989429E-01  8.4394679989486E-01  8.4394679989527E-01  8.4394679989553E-01  8.4394679992706E-01 
 7.8026600055550E-02  7.8026600054841E-02  7.8026600054217E-02  7.8026600053679E-02  7.8026600053226E-02  7.8026600052856E-02  7.8026600052570E-02  7.8026600052366E-02  7.8026600052236E-02  7.8026600036470E-02 
 7.8026600055550E-02  7.8026600054841E-02  7.8026600054217E-02  7.8026600053679E-02  7.8026600053226E-02  7.8026600052856E-02  7.8026600052570E-02  7.8026600052366E-02  7.8026600052236E-02  7.8026600036470E-02 
 1.3945823243656E-02  1.3945803747935E-02  1.3945745759303E-02  1.3945649715498E-02  1.3945515994118E-02  1.3945344913402E-02  1.3945136732700E-02  1.3944891653161E-02  1.3944609817608E-02  1.3944291311212E-02 
 0.0000000000000E+00 -1.2973559938970E-04 -2.4373406725304E-04 -3.4217435087983E-04 -4.2521084265354E-04 -4.9297364869935E-04 -5.4556881676569E-04 -5.8307852124007E-04 -6.0556120591720E-04 -6.1305168526490E-04 
 2.9814999998227E+02  2.9814999998244E+02  2.9814999994939E+02  2.9815000001588E+02  2.9815000001598E+02  2.9814999998287E+02  2.9814999998293E+02  2.9814999998299E+02  2.9814999998300E+02  2.9814999998303E+02 
-1.3945823243656E-02 -1.4075539347325E-02 -1.4189479826556E-02 -1.4287824066378E-02 -1.4370726836772E-02 -1.4438318562101E-02 -1.4490705549466E-02 -1.4527970174401E-02 -1.4550171023525E-02 -1.4557342996477E-02 
-2.4223580122742E-02 -2.4223580127812E-02 -2.4223580119810E-02 -2.4223580148538E-02 -2.4223580151769E-02 -2.4223580141953E-02 -2.4223580143992E-02 -2.4223580145449E-02 -2.4223580146312E-02 -2.4223580151775E-02 
 1.0277756879086E-02  1.0148040780487E-02  1.0034100293254E-02  9.9357560821600E-03  9.8528533149977E-03  9.7852615798524E-03  9.7328745945262E-03  9.6956099710484E-03  9.6734091227874E-03  9.6662371552982E-03 
 3.4733739903954E+01  6.8579286944572E+01  6.7799473571691E+01  6.7126670194001E+01  6.6559697484304E+01  6.6097565234572E+01  6.5739468341438E+01  6.5484783595665E+01  6.5333068470172E+01  3.2642029792107E+01 
 1.7996838296057E-07  5.3529860132167E-07  8.8658804131008E-07  1.2343918475766E-06  1.5792579749418E-06  1.9217300168731E-06  2.2623452598371E-06  2.6016421102456E-06  2.9402004931520E-06  2.9402004931520E-06 
 0.0000000000000E+00  6.9012384688959E+01  1.3719087044684E+02  2.0464316744582E+02  2.7147570845197E+02  3.3779381195902E+02  4.0370176713385E+02  4.6930336007070E+02  5.3470188632084E+02  6.0000525000682E+02 
 6.0000553273131E+02  5.3098761564810E+02  4.6280910746833E+02  3.9535679747788E+02  3.2852428260457E+02  2.6220624149228E+02  1.9629825230383E+02  1.3069660729669E+02  6.5298130369480E+01  0.0000000000000E+00 
 3.4733739903954E-07  6.8579286944572E-07  6.7799473571691E-07  6.7126670194001E-07  6.6559697484304E-07  6.6097565234572E-07  6.5739468341438E-07  6.5484783595665E-07  6.5333068470172E-07  3.2642029792107E-07 
 1.4095380721407E+03  2.8190761442726E+03  2.8190761442648E+03  2.8190761442580E+03  2.8190761442524E+03  2.8190761442477E+03  2.8190761442442E+03  2.8190761442416E+03  2.8190761442401E+03  1.4095380721198E+03 
 5.6381522868262E+03  1.1276304573661E+04  1.1276304573669E+04  1.1276304573676E+04  1.1276304573681E+04  1.1276304573686E+04  1.1276304573690E+04  1.1276304573692E+04  1.1276304573694E+04  5.6381522868471E+03 
 7.0476903589669E+03  1.4095380717934E+04  1.4095380717934E+04  1.4095380717934E+04  1.4095380717934E+04  1.4095380717934E+04  1.4095380717934E+04  1.4095380717934E+04  1.4095380717934E+04  7.0476903589669E+03 
 4.0000000000000E-01  4.0000000000000E-01  4.0000000000000E-01  4.0000000000000E-01  4.0000000000000E-01  4.0000000000000E-01  4.0000000000000E-01  4.0000000000000E-01  4.0000000000000E-01  4.0000000000000E-01 
 9.4000000000000E-01  1.8800000000000E+00  1.8800000000000E+00  1.8800000000000E+00  1.8800000000000E+00  1.8800000000000E+00  1.8800000000000E+00  1.8800000000000E+00  1.8800000000000E+00  9.4000000000000E-01 
 3.6950787131866E+01  3.6478344119453E+01  3.6063549772176E+01  3.5705675635107E+01  3.5404094406545E+01  3.5158279380092E+01  3.4967802309276E+01  3.4832331699822E+01  3.4751632164985E+01  3.4725563608625E+01 
 5.3333333333333E-06  1.0666666666667E-05  1.0666666666667E-05  1.0666666666667E-05  1.0666666666667E-05  1.0666666666667E-05  1.0666666666667E-05  1.0666666666667E-05  1.0666666666667E-05  5.3333333333333E-06 
 3.0000000000000E-02  3.0000000000000E-02  3.0000000000000E-02  3.0000000000000E-02  3.0000000000000E-02  3.0000000000000E-02  3.0000000000000E-02  3.0000000000000E-02  3.0000000000000E-02  3.0000000000000E-02 
 1.0000000000000E-01  1.0000000000000E-01  1.0000000000000E-01  1.0000000000000E-01  1.0000000000000E-01  1.0000000000000E-01  1.0000000000000E-01  1.0000000000000E-01  1.0000000000000E-01  1.0000000000000E-01 
 1.0956624007037E+01  1.0956624007045E+01  1.0956624007053E+01  1.0956624007059E+01  1.0956624007065E+01  1.0956624007069E+01  1.0956624007073E+01  1.0956624007075E+01  1.0956624007077E+01  1.0956624007077E+01 
 2.7391560026029E+00  2.7391560025942E+00  2.7391560025867E+00  2.7391560025801E+00  2.7391560025746E+00  2.7391560025701E+00  2.7391560025666E+00  2.7391560025642E+00  2.7391560025627E+00  2.7391560025622E+00 
-6.5432068639991E-03 -6.4748394053090E-03 -6.4223407277667E-03 -6.3767857899985E-03 -6.3382090800770E-03 -6.3066387556470E-03 -6.2820971131829E-03 -6.2646009698562E-03 -6.2541620770189E-03 -6.2508079594853E-03 
-6.5432068639991E+05 -6.4748394053090E+05 -6.4223407277667E+05 -6.3767857899985E+05 -6.3382090800770E+05 -6.3066387556470E+05 -6.2820971131829E+05 -6.2646009698562E+05 -6.2541620770189E+05 -6.2508079594853E+05 
 6.3473566172742E-02  3.1251927491696E-01  1.0510170819018E+00  2.2633246433588E+00  3.9370068816293E+00  6.0627222841666E+00  8.6341227353250E+00  1.1647795878228E+01  1.5103204277992E+01  1.6941451358529E+01 
 6.8752382681762E+03  6.0918424607084E+03  4.6334026507084E+03  3.3874217279216E+03  2.3460682470589E+03  1.5028033101776E+03  8.5233773343951E+02  3.9059736060436E+02  1.1469640903479E+02  2.2918629835408E+01 
-6.6119598814165E+05 -6.5357609551088E+05 -6.4686852644446E+05 -6.4106826405242E+05 -6.3617091326165E+05 -6.3217274159716E+05 -6.2907068317447E+05 -6.2686234214210E+05 -6.2554600731520E+05 -6.2512065602973E+05 
 6.6934675288048E+04  6.5244881423298E+04  6.3778754892990E+04  6.2526958391408E+04  6.1481525359689E+04  6.0635809383946E+04  5.9984437726520E+04  5.9523273929179E+04  5.9249390782763E+04  5.9161050298653E+04 
-7.2813066342969E+05 -7.1882097693418E+05 -7.1064728133745E+05 -7.0359522244383E+05 -6.9765243862133E+05 -6.9280855098111E+05 -6.8905512090099E+05 -6.8638561607128E+05 -6.8479539809797E+05 -6.8428170632838E+05 
ZONE T = "ANOD, 2.0000E-08", I = 10, SOLUTIONTIME = 2.000000E-08
ZONETYPE = ORDERED
DATAPACKING = BLOCK
STRANDID = 1
 0.0000000000000E+00  1.0666666666667E-05  2.1333333333333E-05  3.2000000000000E-05  4.2666666666667E-05  5.3333333333333E-05  6.4000000000000E-05  7.4666666666667E-05  8.5333333333333E-05  9.6000000000000E-05 
 1.0618560322379E-08  3.1582794106029E-08  5.2308847680166E-08  7.2829313556858E-08  9.3176318832894E-08  1.1338186563817E-07  1.3347832895737E-07  1.5349674212771E-07  1.7347985816521E-07  1.8364641073215E-07 
 8.4394679977780E-01  8.4394679978064E-01  8.4394679978313E-01  8.4394679978528E-01  8.4394679978710E-01  8.4394679978858E-01  8.4394679978972E-01  8.4394679979054E-01  8.4394679979107E-01  8.4394679985454E-01 
 7.8026600111100E-02  7.8026600109682E-02  7.8026600108435E-02  7.8026600107358E-02  7.8026600106452E-02  7.8026600105712E-02  7.8026600105140E-02  7.8026600104732E-02  7.8026600104463E-02  7.8026600072732E-02 
 7.8026600111100E-02  7.8026600109682E-02  7.8026600108435E-02  7.8026600107358E-02  7.8026600106452E-02  7.8026600105712E-02  7.8026600105140E-02  7.8026600104732E-02  7.8026600104463E-02  7.8026600072732E-02 
 1.3947379675315E-02  1.3947360179479E-02  1.3947302190582E-02  1.3947206146392E-02  1.3947072424605E-02  1.3946901343506E-02  1.3946693162524E-02  1.3946448082687E-02  1.3946166246967E-02  1.3945847740534E-02 
 0.0000000000000E+00 -1.2973555315260E-04 -2.4373391150891E-04 -3.4217404890239E-04 -4.2521037938607E-04 -4.9297302792849E-04 -5.4556805770140E-04 -5.8307765487959E-04 -6.0556027168900E-04 -6.1305072798252E-04 
 2.9814999996580E+02  2.9814999996614E+02  2.9814999993324E+02  2.9814999999982E+02  2.9815000000003E+02  2.9814999996700E+02  2.9814999996712E+02  2.9814999996722E+02  2.9814999996726E+02  2.9814999996731E+02 
-1.3947379675315E-02 -1.4077095732632E-02 -1.4191036102091E-02 -1.4289380195294E-02 -1.4372282803991E-02 -1.4439874371434E-02 -1.4492261220226E-02 -1.4529525737566E-02 -1.4551726518656E-02 -1.4558898468517E-02 
-2.4223579725320E-02 -2.4223579735450E-02 -2.4223579731894E-02 -2.4223579764442E-02 -2.4223579770908E-02 -2.4223579763732E-02 -2.4223579767811E-02 -2.4223579770716E-02 -2.4223579772448E-02 -2.4223579783443E-02 
 1.0276200050005E-02  1.0146484002819E-02  1.0032543629804E-02  9.9341995691476E-03  9.8512969669165E-03  9.7837053922976E-03  9.7313185475849E-03  9.6940540331499E-03  9.6718532537922E-03  9.6646813149261E-03 
 3.4728408632599E+01  6.8568630032329E+01  6.7788822021373E+01  6.7116023583583E+01  6.6549055267975E+01  6.6086926757914E+01  6.5728832860877E+01  6.5474150301054E+01  6.5322436501992E+01  3.2636714040300E+01 
 1.7997159842599E-07  5.3530294883321E-07  8.8659322849376E-07  1.2343969815787E-06  1.5792626334533E-06  1.9217334771181E-06  2.2623486330865E-06  2.6016440716985E-06  2.9402493615912E-06  2.9402493615912E-06 
 0.0000000000000E+00  6.9012723649328E+01  1.3719144967710E+02  2.0464387247759E+02  2.7147641190367E+02  3.3779440291661E+02  4.0370228272592E+02  4.6930377430767E+02  5.3470206770812E+02  5.9999999999938E+02 
 6.0000000000000E+02  5.3098727635125E+02  4.6280855032440E+02  3.9535612752193E+02  3.2852358809615E+02  2.6220559708320E+02  1.9629771727379E+02  1.3069622569282E+02  6.5297932291294E+01  0.0000000000000E+00 
 6.9462148536553E-07  1.3714791697690E-06  1.3558829559306E-06  1.3424269377758E-06  1.3310875275228E-06  1.3218449199249E-06  1.3146830120231E-06  1.3095893389672E-06  1.3065550497216E-06  6.5278743832407E-07 
 1.4095380724880E+03  2.8190761449582E+03  2.8190761449426E+03  2.8190761449292E+03  2.8190761449179E+03  2.8190761449086E+03  2.8190761449015E+03  2.8190761448964E+03  2.8190761448933E+03  1.4095380724462E+03 
 5.6381522864789E+03  1.1276304572976E+04  1.1276304572991E+04  1.1276304573005E+04  1.1276304573016E+04  1.1276304573025E+04  1.1276304573032E+04  1.1276304573037E+04  1.1276304573041E+04  5.6381522865207E+03 
 7.0476903589669E+03  1.4095380717934E+04  1.4095380717934E+04  1.4095380717934E+04  1.4095380717934E+04  1.4095380717934E+04  1.4095380717934E+04  1.4095380717934E+04  1.4095380717934E+04  7.0476903589669E+03 
 4.0000000000000E-01  4.0000000000000E-01  4.0000000000000E-01  4.0000000000000E-01  4.0000000000000E-01  4.0000000000000E-01  4.0000000000000E-01  4.0000000000000E-01  4.0000000000000E-01  4.0000000000000E-01 
 9.4000000000000E-01  1.8800000000000E+00  1.8800000000000E+00  1.8800000000000E+00  1.8800000000000E+00  1.8800000000000E+00  1.8800000000000E+00  1.8800000000000E+00  1.8800000000000E+00  9.4000000000000E-01 
 3.6945115566595E+01  3.6472675549111E+01  3.6057884053922E+01  3.5700012544459E+01  3.5398433653178E+01  3.5152620615912E+01  3.4962145138765E+01  3.4826675692050E+01  3.4745976862762E+01  3.4719908553511E+01 
 5.3333333333333E-06  1.0666666666667E-05  1.0666666666667E-05  1.0666666666667E-05  1.0666666666667E-05  1.0666666666667E-05  1.0666666666667E-05  1.0666666666667E-05  1.0666666666667E-05  5.3333333333333E-06 
 3.0000000000000E-02  3.0000000000000E-02  3.0000000000000E-02  3.0000000000000E-02  3.0000000000000E-02  3.0000000000000E-02  3.0000000000000E-02  3.0000000000000E-02  3.0000000000000E-02  3.0000000000000E-02 
 1.0000000000000E-01  1.0000000000000E-01  1.0000000000000E-01  1.0000000000000E-01  1.0000000000000E-01  1.0000000000000E-01  1.0000000000000E-01  1.0000000000000E-01  1.0000000000000E-01  1.0000000000000E-01 
 1.0956624006362E+01  1.0956624006379E+01  1.0956624006394E+01  1.0956624006407E+01  1.0956624006418E+01  1.0956624006427E+01  1.0956624006434E+01  1.0956624006439E+01  1.0956624006442E+01  1.0956624006443E+01 
 2.7391560032777E+00  2.7391560032605E+00  2.7391560032453E+00  2.7391560032323E+00  2.7391560032212E+00  2.7391560032123E+00  2.7391560032053E+00  2.7391560032004E+00  2.7391560031974E+00  2.7391560031965E+00 
-1.3085500279931E-02 -1.2948763329404E-02 -1.2843764236476E-02 -1.2752652863041E-02 -1.2675498182885E-02 -1.2612356508141E-02 -1.2563272429195E-02 -1.2528279578580E-02 -1.2507401457453E-02 -1.2500693117003E-02 
-6.5422934159321E+05 -6.4739239240948E+05 -6.4214235087089E+05 -6.3758670730423E+05 -6.3372891028075E+05 -6.3057177524944E+05 -6.2811753160125E+05 -6.2636786087238E+05 -6.2532393804337E+05 -6.2498851575180E+05 
 1.2694788091201E-01  6.2504149600525E-01  2.1020429058972E+00  4.5266645411893E+00  7.8740337868308E+00  1.2125465258131E+01  1.7268267427685E+01  2.3295611805851E+01  3.0206418356159E+01  3.3882906631703E+01 
 1.3750471635754E+04  1.2183677371822E+04  9.2667943219724E+03  6.7748321049616E+03  4.6921266637488E+03  3.0055992896265E+03  1.7046708518051E+03  7.8119245395221E+02  2.2939212425515E+02  4.5837118593158E+01 
-6.6110463843510E+05 -6.5348453984281E+05 -6.4677679356798E+05 -6.4097638102117E+05 -6.3607890572435E+05 -6.3208063397186E+05 -6.2897849886431E+05 -6.2677010378165E+05 -6.2545373697267E+05 -6.2502837569583E+05 
 6.6914264092901E+04  6.5224735214658E+04  6.3758842101809E+04  6.2507247539366E+04  6.1461985076148E+04  6.0616408390480E+04  5.9965144825113E+04  5.9504057992689E+04  5.9230220732887E+04  5.9141895141668E+04 
-7.2801890252801E+05 -7.1870927505747E+05 -7.1053563566979E+05 -7.0348362856053E+05 -6.9754089080049E+05 -6.9269704236234E+05 -6.8894364368942E+05 -6.8627416177434E+05 -6.8468395770556E+05 -6.8417027083750E+05 
ZONE T = "ANOD, 3.0000E-08", I = 10, SOLUTIONTIME = 3.000000E-08
ZONETYPE = ORDERED
DATAPACKING = BLOCK
STRANDID = 1
 0.0000000000000E+00  1.0666666666667E-05  2.1333333333333E-05  3.2000000000000E-05  4.2666666666667E-05  5.3333333333333E-05  6.4000000000000E-05  7.4666666666667E-05  8.5333333333333E-05  9.6000000000000E-05 
 1.0618751756826E-08  3.1583080426929E-08  5.2309252566716E-08  7.2829570430396E-08  9.3176741381133E-08  1.1338240623674E-07  1.3347879094575E-07  1.5349706209114E-07  1.7348580588814E-07  1.8374403414068E-07 
 8.4394679966670E-01  8.4394679967095E-01  8.4394679967470E-01  8.4394679967792E-01  8.4394679968065E-01  8.4394679968286E-01  8.4394679968458E-01  8.4394679968580E-01  8.4394679968664E-01  8.4394679978242E-01 
 7.8026600166649E-02  7.8026600164523E-02  7.8026600162652E-02  7.8026600161038E-02  7.8026600159677E-02  7.8026600158569E-02  7.8026600157710E-02  7.8026600157098E-02  7.8026600156682E-02  7.8026600108790E-02 
 7.8026600166649E-02  7.8026600164523E-02  7.8026600162652E-02  7.8026600161038E-02  7.8026600159677E-02  7.8026600158569E-02  7.8026600157710E-02  7.8026600157098E-02  7.8026600156682E-02  7.8026600108790E-02 
 1.3947379293836E-02  1.3947359798000E-02  1.3947301809103E-02  1.3947205764914E-02  1.3947072043127E-02  1.3946900962028E-02  1.3946692781047E-02  1.3946447701209E-02  1.3946165865490E-02  1.3945847359057E-02 
 0.0000000000000E+00 -1.2973555316512E-04 -2.4373391155105E-04 -3.4217404898435E-04 -4.2521037951212E-04 -4.9297302809794E-04 -5.4556805790949E-04 -5.8307765511846E-04 -6.0556027194857E-04 -6.1305072825135E-04 
 2.9814999994933E+02  2.9814999994984E+02  2.9814999991709E+02  2.9814999998377E+02  2.9814999998407E+02  2.9814999995113E+02  2.9814999995131E+02  2.9814999995145E+02  2.9814999995152E+02  2.9814999995160E+02 
-1.3947379293836E-02 -1.4077095351165E-02 -1.4191035720654E-02 -1.4289379813898E-02 -1.4372282422639E-02 -1.4439873990126E-02 -1.4492260838956E-02 -1.4529525356328E-02 -1.4551726137438E-02 -1.4558898087309E-02 
-2.4223579327890E-02 -2.4223579343081E-02 -2.4223579343978E-02 -2.4223579380357E-02 -2.4223579390051E-02 -2.4223579385505E-02 -2.4223579391624E-02 -2.4223579395987E-02 -2.4223579398594E-02 -2.4223579415182E-02 
 1.0276200034054E-02  1.0146483991916E-02  1.0032543623324E-02  9.9341995664594E-03  9.8512969674118E-03  9.7837053953794E-03  9.7313185526678E-03  9.6940540396591E-03  9.6718532611560E-03  9.6646813278736E-03 
 3.4728408578064E+01  6.8568629957744E+01  6.7788821976997E+01  6.7116023564940E+01  6.6549055271046E+01  6.6086926778615E+01  6.5728832895187E+01  6.5474150344995E+01  6.5322436551753E+01  3.2636714080720E+01 
 1.7997374980295E-07  5.3530484387052E-07  8.8659486324216E-07  1.2343983589102E-06  1.5792637559389E-06  1.9217343468082E-06  2.2623492516697E-06  2.6016445205667E-06  2.9402984842060E-06  2.9402984842060E-06 
 0.0000000000000E+00  6.9012723557164E+01  1.3719144952343E+02  2.0464387229634E+02  2.7147641171368E+02  3.3779440273706E+02  4.0370228257479E+02  4.6930377419549E+02  5.3470206764397E+02  6.0000000000115E+02 
 6.0000000000000E+02  5.3098727644306E+02  4.6280855047570E+02  3.9535612770474E+02  3.2852358828676E+02  2.6220559726192E+02  1.9629771742502E+02  1.3069622580494E+02  6.5297932356578E+01  0.0000000000000E+00 
 1.0419055711462E-06  2.0571654693464E-06  2.0337711757006E-06  2.0135871734252E-06  1.9965780802333E-06  1.9827141877110E-06  1.9719713409750E-06  1.9643308424171E-06  1.9597794152392E-06  9.7915457913127E-07 
 1.4095380728353E+03  2.8190761456439E+03  2.8190761456205E+03  2.8190761456004E+03  2.8190761455833E+03  2.8190761455695E+03  2.8190761455587E+03  2.8190761455511E+03  2.8190761455465E+03  1.4095380727725E+03 
 5.6381522861316E+03  1.1276304572290E+04  1.1276304572313E+04  1.1276304572333E+04  1.1276304572350E+04  1.1276304572364E+04  1.1276304572375E+04  1.1276304572383E+04  1.1276304572387E+04  5.6381522861944E+03 
 7.0476903589669E+03  1.4095380717934E+04  1.4095380717934E+04  1.4095380717934E+04  1.4095380717934E+04  1.4095380717934E+04  1.4095380717934E+04  1.4095380717934E+04  1.4095380717934E+04  7.0476903589669E+03 
 4.0000000000000E-01  4.0000000000000E-01  4.0000000000000E-01  4.0000000000000E-01  4.0000000000000E-01  4.0000000000000E-01  4.0000000000000E-01  4.0000000000000E-01  4.0000000000000E-01  4.0000000000000E-01 
 9.4000000000000E-01  1.8800000000000E+00  1.8800000000000E+00  1.8800000000000E+00  1.8800000000000E+00  1.8800000000000E+00  1.8800000000000E+00  1.8800000000000E+00  1.8800000000000E+00  9.4000000000000E-01 
 3.6945115508579E+01  3.6472675509438E+01  3.6057884030318E+01  3.5700012534542E+01  3.5398433654812E+01  3.5152620626923E+01  3.4962145157015E+01  3.4826675715423E+01  3.4745976889231E+01  3.4719908596511E+01 
 5.3333333333333E-06  1.0666666666667E-05  1.0666666666667E-05  1.0666666666667E-05  1.0666666666667E-05  1.0666666666667E-05  1.0666666666667E-05  1.0666666666667E-05  1.0666666666667E-05  5.3333333333333E-06 
 3.0000000000000E-02  3.0000000000000E-02  3.0000000000000E-02  3.0000000000000E-02  3.0000000000000E-02  3.0000000000000E-02  3.0000000000000E-02  3.0000000000000E-02  3.0000000000000E-02  3.0000000000000E-02 
 1.0000000000000E-01  1.0000000000000E-01  1.0000000000000E-01  1.0000000000000E-01  1.0000000000000E-01  1.0000000000000E-01  1.0000000000000E-01  1.0000000000000E-01  1.0000000000000E-01  1.0000000000000E-01 
 1.0956624005687E+01  1.0956624005713E+01  1.0956624005735E+01  1.0956624005755E+01  1.0956624005772E+01  1.0956624005785E+01  1.0956624005795E+01  1.0956624005803E+01  1.0956624005807E+01  1.0956624005809E+01 
 2.7391560039526E+00  2.7391560039267E+00  2.7391560039040E+00  2.7391560038844E+00  2.7391560038679E+00  2.7391560038544E+00  2.7391560038440E+00  2.7391560038365E+00  2.7391560038321E+00  2.7391560038307E+00 
-1.9627793683069E-02 -1.9422687243719E-02 -1.9265187738055E-02 -1.9128519931227E-02 -1.9012787282767E-02 -1.8918074259287E-02 -1.8844447745081E-02 -1.8791958188044E-02 -1.8760640839152E-02 -1.8750578278753E-02 
-6.5422934031376E+05 -6.4739239143148E+05 -6.4214235015797E+05 -6.3758670681865E+05 -6.3372890998825E+05 -6.3057177511456E+05 -6.2811753158854E+05 -6.2636786094636E+05 -6.2532393816991E+05 -6.2498851617497E+05 
 1.9042219541114E-01  9.3756371601481E-01  3.1530687267313E+00  6.7900044332343E+00  1.1811060683394E+01  1.8188208220853E+01  2.5902412106736E+01  3.4943427718677E+01  4.5309632419706E+01  5.0824361890990E+01 
 2.0625705004659E+04  1.8275512284978E+04  1.3900185996217E+04  1.0162242485098E+04  7.0381850831355E+03  4.5083952711066E+03  2.5570039714725E+03  1.1717875479616E+03  3.4408783969393E+02  6.8755607407656E+01 
-6.6110463715698E+05 -6.5348453886686E+05 -6.4677679285804E+05 -6.4097638053868E+05 -6.3607890543454E+05 -6.3208063383900E+05 -6.2897849885288E+05 -6.2677010385628E+05 -6.2545373709941E+05 -6.2502837611905E+05 
 6.6914263883962E+04  6.5224735073632E+04  6.3758842018910E+04  6.2507247505071E+04  6.1461985082087E+04  6.0616408428587E+04  5.9965144887766E+04  5.9504058072555E+04  5.9230220823086E+04  5.9141895293733E+04 