TITLE = "Solution on Domain BulkDomain1D_1"
VARIABLES = "x [m]"  
"Vel_axial" 	"MF_sp(ECDMC)" 	"MF_sp(Li+)" 	"MF_sp(PF6-)" 	"Volt(Electroly)" 	"Temperature" 	"Porosity []" 	"Control volume thickness [m]" 	"volFrac MgO(S) []" 	"volFrac ExtraStuff []" 	"qHeat_accum [J/m3]" 	"qHeat_step [W/m3]" 	"Joule_Lyte [W/m3]" 	"Joule_Solid [W/m3]" 	
ZONE T = "SEP , 0.0000E+00", I = 10, SOLUTIONTIME = 0.000000E+00
ZONETYPE = ORDERED
DATAPACKING = BLOCK
STRANDID = 2
 9.6000000000000E-05  9.8777777777778E-05  1.0155555555556E-04  1.0433333333333E-04  1.0711111111111E-04  1.0988888888889E-04  1.1266666666667E-04  1.1544444444444E-04  1.1822222222222E-04  1.2100000000000E-04 
 0.0000000000000E+00  0.0000000000000E+00  0.0000000000000E+00  0.0000000000000E+00  0.0000000000000E+00  0.0000000000000E+00  0.0000000000000E+00  0.0000000000000E+00  0.0000000000000E+00  0.0000000000000E+00 
 8.4394680000000E-01  8.4394680000000E-01  8.4394680000000E-01  8.4394680000000E-01  8.4394680000000E-01  8.4394680000000E-01  8.4394680000000E-01  8.4394680000000E-01  8.4394680000000E-01  8.4394680000000E-01 
 7.8026600000000E-02  7.8026600000000E-02  7.8026600000000E-02  7.8026600000000E-02  7.8026600000000E-02  7.8026600000000E-02  7.8026600000000E-02  7.8026600000000E-02  7.8026600000000E-02  7.8026600000000E-02 
 7.8026600000000E-02  7.8026600000000E-02  7.8026600000000E-02  7.8026600000000E-02  7.8026600000000E-02  7.8026600000000E-02  7.8026600000000E-02  7.8026600000000E-02  7.8026600000000E-02  7.8026600000000E-02 
-7.0000000000000E-02 -7.0000000000000E-02 -7.0000000000000E-02 -7.0000000000000E-02 -7.0000000000000E-02 -7.0000000000000E-02 -7.0000000000000E-02 -7.0000000000000E-02 -7.0000000000000E-02 -7.0000000000000E-02 
 2.9815000000000E+02  2.9815000000000E+02  2.9815000000000E+02  2.9815000000000E+02  2.9815000000000E+02  2.9815000000000E+02  2.9815000000000E+02  2.9815000000000E+02  2.9815000000000E+02  2.9815000000000E+02 
 6.5000000000000E-01  6.5000000000000E-01  6.5000000000000E-01  6.5000000000000E-01  6.5000000000000E-01  6.5000000000000E-01  6.5000000000000E-01  6.5000000000000E-01  6.5000000000000E-01  6.5000000000000E-01 
 1.3888888888889E-06  2.7777777777778E-06  2.7777777777778E-06  2.7777777777778E-06  2.7777777777778E-06  2.7777777777778E-06  2.7777777777778E-06  2.7777777777778E-06  2.7777777777778E-06  1.3888888888889E-06 
 2.5000000000000E-01  2.5000000000000E-01  2.5000000000000E-01  2.5000000000000E-01  2.5000000000000E-01  2.5000000000000E-01  2.5000000000000E-01  2.5000000000000E-01  2.5000000000000E-01  2.5000000000000E-01 
 1.0000000000000E-01  1.0000000000000E-01  1.0000000000000E-01  1.0000000000000E-01  1.0000000000000E-01  1.0000000000000E-01  1.0000000000000E-01  1.0000000000000E-01  1.0000000000000E-01  1.0000000000000E-01 
 0.0000000000000E+00  0.0000000000000E+00  0.0000000000000E+00  0.0000000000000E+00  0.0000000000000E+00  0.0000000000000E+00  0.0000000000000E+00  0.0000000000000E+00  0.0000000000000E+00  0.0000000000000E+00 
 0.0000000000000E+00  0.0000000000000E+00  0.0000000000000E+00  0.0000000000000E+00  0.0000000000000E+00  0.0000000000000E+00  0.0000000000000E+00  0.0000000000000E+00  0.0000000000000E+00  0.0000000000000E+00 
 0.0000000000000E+00  0.0000000000000E+00  0.0000000000000E+00  0.0000000000000E+00  0.0000000000000E+00  0.0000000000000E+00  0.0000000000000E+00  0.0000000000000E+00  0.0000000000000E+00  0.0000000000000E+00 
 0.0000000000000E+00  0.0000000000000E+00  0.0000000000000E+00  0.0000000000000E+00  0.0000000000000E+00  0.0000000000000E+00  0.0000000000000E+00  0.0000000000000E+00  0.0000000000000E+00  0.0000000000000E+00 
ZONE T = "SEP , 1.0000E-08", I = 10, SOLUTIONTIME = 1.000000E-08
ZONETYPE = ORDERED
DATAPACKING = BLOCK
STRANDID = 2
 9.6000000000000E-05  9.8777777777778E-05  1.0155555555556E-04  1.0433333333333E-04  1.0711111111111E-04  1.0988888888889E-04  1.1266666666667E-04  1.1544444444444E-04  1.1822222222222E-04  1.2100000000000E-04 
 1.8354894071746E-07  1.8344964589321E-07  1.8344864186317E-07  1.8344864419755E-07  1.8344864410223E-07  1.8344864411148E-07  1.8344864510948E-07  1.8344877450679E-07  1.8345830372278E-07  1.8279004095949E-07 
 8.4394679992706E-01  8.4394679999925E-01  8.4394679999999E-01  8.4394680000000E-01  8.4394680000000E-01  8.4394680000000E-01  8.4394680000000E-01  8.4394680000000E-01  8.4394680000007E-01  8.4394680000696E-01 
 7.8026600036470E-02  7.8026600000373E-02  7.8026600000004E-02  7.8026600000000E-02  7.8026600000000E-02  7.8026600000000E-02  7.8026600000000E-02  7.8026600000000E-02  7.8026599999964E-02  7.8026599996520E-02 
 7.8026600036470E-02  7.8026600000373E-02  7.8026600000004E-02  7.8026600000000E-02  7.8026600000000E-02  7.8026600000000E-02  7.8026600000000E-02  7.8026600000000E-02  7.8026599999964E-02  7.8026599996520E-02 
 1.3953894702234E-02  1.3953852357739E-02  1.3953810013244E-02  1.3953767668749E-02  1.3953725324254E-02  1.3953682979759E-02  1.3953640635264E-02  1.3953598290769E-02  1.3953555946274E-02  1.3953513601779E-02 
 2.9814999998428E+02  2.9814999999179E+02  2.9814999999645E+02  2.9814999999809E+02  2.9814999999912E+02  2.9814999999910E+02  2.9814999999982E+02  2.9815000000120E+02  2.9815000000095E+02  2.9815000000093E+02 
 6.5000000000000E-01  6.5000000000000E-01  6.5000000000000E-01  6.5000000000000E-01  6.5000000000000E-01  6.5000000000000E-01  6.5000000000000E-01  6.5000000000000E-01  6.5000000000000E-01  6.5000000000000E-01 
 1.3888888888889E-06  2.7777777777778E-06  2.7777777777778E-06  2.7777777777778E-06  2.7777777777778E-06  2.7777777777778E-06  2.7777777777778E-06  2.7777777777778E-06  2.7777777777778E-06  1.3888888888889E-06 
 2.5000000000000E-01  2.5000000000000E-01  2.5000000000000E-01  2.5000000000000E-01  2.5000000000000E-01  2.5000000000000E-01  2.5000000000000E-01  2.5000000000000E-01  2.5000000000000E-01  2.5000000000000E-01 
 1.0000000000000E-01  1.0000000000000E-01  1.0000000000000E-01  1.0000000000000E-01  1.0000000000000E-01  1.0000000000000E-01  1.0000000000000E-01  1.0000000000000E-01  1.0000000000000E-01  1.0000000000000E-01 
 9.1464109079287E-08  9.1464109088920E-08  9.1464109101695E-08  9.1464109104631E-08  9.1464109104347E-08  9.1464109104216E-08  9.1464109104000E-08  9.1464109103741E-08  9.1464109106273E-08  9.1464109108904E-08 
 9.1464109079287E+00  9.1464109088920E+00  9.1464109101695E+00  9.1464109104631E+00  9.1464109104347E+00  9.1464109104216E+00  9.1464109104000E+00  9.1464109103741E+00  9.1464109106273E+00  9.1464109108904E+00 
 9.1464109079287E+00  9.1464109088920E+00  9.1464109101695E+00  9.1464109104631E+00  9.1464109104347E+00  9.1464109104216E+00  9.1464109104000E+00  9.1464109103741E+00  9.1464109106273E+00  9.1464109108904E+00 
 0.0000000000000E+00  0.0000000000000E+00  0.0000000000000E+00  0.0000000000000E+00  0.0000000000000E+00  0.0000000000000E+00  0.0000000000000E+00  0.0000000000000E+00  0.0000000000000E+00  0.0000000000000E+00 
ZONE T = "SEP , 2.0000E-08", I = 10, SOLUTIONTIME = 2.000000E-08
ZONETYPE = ORDERED
DATAPACKING = BLOCK
STRANDID = 2
 9.6000000000000E-05  9.8777777777778E-05  1.0155555555556E-04  1.0433333333333E-04  1.0711111111111E-04  1.0988888888889E-04  1.1266666666667E-04  1.1544444444444E-04  1.1822222222222E-04  1.2100000000000E-04 
 1.8364661349887E-07  1.8345056239765E-07  1.8344760099702E-07  1.8344760262487E-07  1.8344760210106E-07  1.8344760214822E-07  1.8344760416276E-07  1.8344789494083E-07  1.8346660526430E-07  1.8279344999445E-07 
 8.4394679985454E-01  8.4394679999778E-01  8.4394679999997E-01  8.4394680000000E-01  8.4394680000000E-01  8.4394680000000E-01  8.4394680000000E-01  8.4394680000000E-01  8.4394680000021E-01  8.4394680001384E-01 
 7.8026600072733E-02  7.8026600001110E-02  7.8026600000015E-02  7.8026600000000E-02  7.8026600000000E-02  7.8026600000000E-02  7.8026600000000E-02  7.8026599999999E-02  7.8026599999894E-02  7.8026599993079E-02 
 7.8026600072733E-02  7.8026600001110E-02  7.8026600000015E-02  7.8026600000000E-02  7.8026600000000E-02  7.8026600000000E-02  7.8026600000000E-02  7.8026599999999E-02  7.8026599999894E-02  7.8026599993079E-02 
 1.3953519956274E-02  1.3953477611779E-02  1.3953435267284E-02  1.3953392922789E-02  1.3953350578294E-02  1.3953308233799E-02  1.3953265889304E-02  1.3953223544809E-02  1.3953181200314E-02  1.3953138855819E-02 
 2.9814999996856E+02  2.9814999998254E+02  2.9814999999146E+02  2.9814999999667E+02  2.9814999999789E+02  2.9814999999855E+02  2.9814999999926E+02  2.9815000000086E+02  2.9815000000189E+02  2.9815000000136E+02 
 6.5000000000000E-01  6.5000000000000E-01  6.5000000000000E-01  6.5000000000000E-01  6.5000000000000E-01  6.5000000000000E-01  6.5000000000000E-01  6.5000000000000E-01  6.5000000000000E-01  6.5000000000000E-01 
 1.3888888888889E-06  2.7777777777778E-06  2.7777777777778E-06  2.7777777777778E-06  2.7777777777778E-06  2.7777777777778E-06  2.7777777777778E-06  2.7777777777778E-06  2.7777777777778E-06  1.3888888888889E-06 
 2.5000000000000E-01  2.5000000000000E-01  2.5000000000000E-01  2.5000000000000E-01  2.5000000000000E-01  2.5000000000000E-01  2.5000000000000E-01  2.5000000000000E-01  2.5000000000000E-01  2.5000000000000E-01 
 1.0000000000000E-01  1.0000000000000E-01  1.0000000000000E-01  1.0000000000000E-01  1.0000000000000E-01  1.0000000000000E-01  1.0000000000000E-01  1.0000000000000E-01  1.0000000000000E-01  1.0000000000000E-01 
 1.8292821812663E-07  1.8292821816320E-07  1.8292821820147E-07  1.8292821820621E-07  1.8292821820903E-07  1.8292821820865E-07  1.8292821820815E-07  1.8292821820748E-07  1.8292821821497E-07  1.8292821822280E-07 
 9.1464109047344E+00  9.1464109074284E+00  9.1464109099779E+00  9.1464109101582E+00  9.1464109104687E+00  9.1464109104438E+00  9.1464109104154E+00  9.1464109103740E+00  9.1464109108698E+00  9.1464109113892E+00 
 9.1464109047344E+00  9.1464109074284E+00  9.1464109099779E+00  9.1464109101582E+00  9.1464109104687E+00  9.1464109104438E+00  9.1464109104154E+00  9.1464109103740E+00  9.1464109108698E+00  9.1464109113892E+00 
 0.0000000000000E+00  0.0000000000000E+00  0.0000000000000E+00  0.0000000000000E+00  0.0000000000000E+00  0.0000000000000E+00  0.0000000000000E+00  0.0000000000000E+00  0.0000000000000E+00  0.0000000000000E+00 
ZONE T = "SEP , 3.0000E-08", I = 10, SOLUTIONTIME = 3.000000E-08
ZONETYPE = ORDERED
DATAPACKING = BLOCK
STRANDID = 2
 9.6000000000000E-05  9.8777777777778E-05  1.0155555555556E-04  1.0433333333333E-04  1.0711111111111E-04  1.0988888888889E-04  1.1266666666667E-04  1.1544444444444E-04  1.1822222222222E-04  1.2100000000000E-04 
 1.8374422007922E-07  1.8345386892016E-07  1.8344794715830E-07  1.8344784007116E-07  1.8344783851471E-07  1.8344783861719E-07  1.8344786496727E-07  1.8344844542371E-07  1.8347602467188E-07  1.8279545481188E-07 
 8.4394679978242E-01  8.4394679999560E-01  8.4394679999993E-01  8.4394680000000E-01  8.4394680000000E-01  8.4394680000000E-01  8.4394680000000E-01  8.4394680000001E-01  8.4394680000042E-01  8.4394680002067E-01 
 7.8026600108790E-02  7.8026600002201E-02  7.8026600000037E-02  7.8026600000001E-02  7.8026600000000E-02  7.8026600000000E-02  7.8026600000000E-02  7.8026599999996E-02  7.8026599999791E-02  7.8026599989663E-02 
 7.8026600108790E-02  7.8026600002201E-02  7.8026600000037E-02  7.8026600000001E-02  7.8026600000000E-02  7.8026600000000E-02  7.8026600000000E-02  7.8026599999996E-02  7.8026599999791E-02  7.8026599989663E-02 
 1.3953516724474E-02  1.3953474379980E-02  1.3953432035485E-02  1.3953389690990E-02  1.3953347346495E-02  1.3953305002000E-02  1.3953262657505E-02  1.3953220313010E-02  1.3953177968515E-02  1.3953135624020E-02 
 2.9814999995285E+02  2.9814999997225E+02  2.9814999998316E+02  2.9814999998990E+02  2.9814999999463E+02  2.9814999999768E+02  2.9815000000001E+02  2.9815000000089E+02  2.9815000000084E+02  2.9815000000178E+02 
 6.5000000000000E-01  6.5000000000000E-01  6.5000000000000E-01  6.5000000000000E-01  6.5000000000000E-01  6.5000000000000E-01  6.5000000000000E-01  6.5000000000000E-01  6.5000000000000E-01  6.5000000000000E-01 
 1.3888888888889E-06  2.7777777777778E-06  2.7777777777778E-06  2.7777777777778E-06  2.7777777777778E-06  2.7777777777778E-06  2.7777777777778E-06  2.7777777777778E-06  2.7777777777778E-06  1.3888888888889E-06 
 2.5000000000000E-01  2.5000000000000E-01  2.5000000000000E-01  2.5000000000000E-01  2.5000000000000E-01  2.5000000000000E-01  2.5000000000000E-01  2.5000000000000E-01  2.5000000000000E-01  2.5000000000000E-01 
 1.0000000000000E-01  1.0000000000000E-01  1.0000000000000E-01  1.0000000000000E-01  1.0000000000000E-01  1.0000000000000E-01  1.0000000000000E-01  1.0000000000000E-01  1.0000000000000E-01  1.0000000000000E-01 
 2.7439232714229E-07  2.7439232721969E-07  2.7439232730046E-07  2.7439232730598E-07  2.7439232731106E-07  2.7439232731342E-07  2.7439232731226E-07  2.7439232731120E-07  2.7439232732261E-07  2.7439232733449E-07 
 9.1464109015657E+00  9.1464109056484E+00  9.1464109098985E+00  9.1464109099767E+00  9.1464109102025E+00  9.1464109104763E+00  9.1464109104102E+00  9.1464109103723E+00  9.1464109107641E+00  9.1464109111691E+00 
 9.1464109015657E+00  9.1464109056484E+00  9.1464109098985E+00  9.1464109099767E+00  9.1464109102025E+00  9.1464109104763E+00  9.1464109104102E+00  9.1464109103723E+00  9.1464109107641E+00  9.1464109111691E+00 
 0.0000000000000E+00  0.0000000000000E+00  0.0000000000000E+00  0.0000000000000E+00  0.0000000000000E+00  0.0000000000000E+00  0.0000000000000E+00  0.0000000000000E+00  0.0000000000000E+00  0.0000000000000E+00 
ZONE T = "SEP , 4.0000E-08", I = 10, SOLUTIONTIME = 4.000000E-08
ZONETYPE = ORDERED
DATAPACKING = BLOCK
STRANDID = 2
 9.6000000000000E-05  9.8777777777778E-05  1.0155555555556E-04  1.0433333333333E-04  1.0711111111111E-04  1.0988888888889E-04  1.1266666666667E-04  1.1544444444444E-04  1.1822222222222E-04  1.2100000000000E-04 
 1.8384009821021E-07  1.8345792762011E-07  1.8344817163692E-07  1.8344798712319E-07  1.8344798780515E-07  1.8344798810112E-07  1.8344798991011E-07  1.8344888822403E-07  1.8348518364852E-07  1.8279727480490E-07 
 8.4394679971071E-01  8.4394679999273E-01  8.4394679999985E-01  8.4394680000000E-01  8.4394680000000E-01  8.4394680000000E-01  8.4394680000000E-01  8.4394680000001E-01  8.4394680000069E-01  8.4394680002746E-01 
 7.8026600144646E-02  7.8026600003637E-02  7.8026600000074E-02  7.8026600000001E-02  7.8026600000000E-02  7.8026600000000E-02  7.8026600000000E-02  7.8026599999993E-02  7.8026599999654E-02  7.8026599986270E-02 
 7.8026600144646E-02  7.8026600003637E-02  7.8026600000074E-02  7.8026600000001E-02  7.8026600000000E-02  7.8026600000000E-02  7.8026600000000E-02  7.8026599999993E-02  7.8026599999654E-02  7.8026599986270E-02 
 1.3953517745685E-02  1.3953475401191E-02  1.3953433056696E-02  1.3953390712201E-02  1.3953348367706E-02  1.3953306023211E-02  1.3953263678716E-02  1.3953221334221E-02  1.3953178989726E-02  1.3953136645231E-02 
 2.9814999993714E+02  2.9814999995527E+02  2.9814999996906E+02  2.9814999997997E+02  2.9814999998699E+02  2.9814999999286E+02  2.9814999999760E+02  2.9814999999969E+02  2.9815000000086E+02  2.9815000000220E+02 
 6.5000000000000E-01  6.5000000000000E-01  6.5000000000000E-01  6.5000000000000E-01  6.5000000000000E-01  6.5000000000000E-01  6.5000000000000E-01  6.5000000000000E-01  6.5000000000000E-01  6.5000000000000E-01 
 1.3888888888889E-06  2.7777777777778E-06  2.7777777777778E-06  2.7777777777778E-06  2.7777777777778E-06  2.7777777777778E-06  2.7777777777778E-06  2.7777777777778E-06  2.7777777777778E-06  1.3888888888889E-06 
 2.5000000000000E-01  2.5000000000000E-01  2.5000000000000E-01  2.5000000000000E-01  2.5000000000000E-01  2.5000000000000E-01  2.5000000000000E-01  2.5000000000000E-01  2.5000000000000E-01  2.5000000000000E-01 
 1.0000000000000E-01  1.0000000000000E-01  1.0000000000000E-01  1.0000000000000E-01  1.0000000000000E-01  1.0000000000000E-01  1.0000000000000E-01  1.0000000000000E-01  1.0000000000000E-01  1.0000000000000E-01 
 3.6585643613487E-07  3.6585643626001E-07  3.6585643639292E-07  3.6585643640520E-07  3.6585643641164E-07  3.6585643641594E-07  3.6585643641719E-07  3.6585643641525E-07  3.6585643642911E-07  3.6585643644380E-07 
 9.1464108992585E+00  9.1464109040318E+00  9.1464109092464E+00  9.1464109099223E+00  9.1464109100582E+00  9.1464109102527E+00  9.1464109104933E+00  9.1464109104043E+00  9.1464109106498E+00  9.1464109109316E+00 
 9.1464108992585E+00  9.1464109040318E+00  9.1464109092464E+00  9.1464109099223E+00  9.1464109100582E+00  9.1464109102527E+00  9.1464109104933E+00  9.1464109104043E+00  9.1464109106498E+00  9.1464109109316E+00 
 0.0000000000000E+00  0.0000000000000E+00  0.0000000000000E+00  0.0000000000000E+00  0.0000000000000E+00  0.0000000000000E+00  0.0000000000000E+00  0.0000000000000E+00  0.0000000000000E+00  0.0000000000000E+00 
ZONE T = "SEP , 5.5000E-08", I = 10, SOLUTIONTIME = 5.500000E-08
ZONETYPE = ORDERED
DATAPACKING = BLOCK
STRANDID = 2
 9.6000000000000E-05  9.8777777777778E-05  1.0155555555556E-04  1.0433333333333E-04  1.0711111111111E-04  1.0988888888889E-04  1.1266666666667E-04  1.1544444444444E-04  1.1822222222222E-04  1.2100000000000E-04 
 1.8397985686643E-07  1.8346519021451E-07  1.8344795327526E-07  1.8344747712997E-07  1.8344747739192E-07  1.8344747813372E-07  1.8344755002103E-07  1.8344915280062E-07  1.8349790216142E-07  1.8279947160132E-07 
 8.4394679960402E-01  8.4394679998692E-01  8.4394679999966E-01  8.4394679999999E-01  8.4394680000000E-01  8.4394680000000E-01  8.4394680000000E-01  8.4394680000003E-01  8.4394680000124E-01  8.4394680003754E-01 
 7.8026600197990E-02  7.8026600006538E-02  7.8026600000171E-02  7.8026600000004E-02  7.8026600000000E-02  7.8026600000000E-02  7.8026600000000E-02  7.8026599999984E-02  7.8026599999379E-02  7.8026599981231E-02 
 7.8026600197990E-02  7.8026600006538E-02  7.8026600000171E-02  7.8026600000004E-02  7.8026600000000E-02  7.8026600000000E-02  7.8026600000000E-02  7.8026599999984E-02  7.8026599999379E-02  7.8026599981231E-02 
 1.3953517322525E-02  1.3953474978030E-02  1.3953432633535E-02  1.3953390289040E-02  1.3953347944545E-02  1.3953305600050E-02  1.3953263255555E-02  1.3953220911060E-02  1.3953178566565E-02  1.3953136222070E-02 
 2.9814999991357E+02  2.9814999993540E+02  2.9814999995340E+02  2.9814999996668E+02  2.9814999997672E+02  2.9814999998452E+02  2.9814999999048E+02  2.9814999999548E+02  2.9814999999946E+02  2.9815000000283E+02 
 6.5000000000000E-01  6.5000000000000E-01  6.5000000000000E-01  6.5000000000000E-01  6.5000000000000E-01  6.5000000000000E-01  6.5000000000000E-01  6.5000000000000E-01  6.5000000000000E-01  6.5000000000000E-01 
 1.3888888888889E-06  2.7777777777778E-06  2.7777777777778E-06  2.7777777777778E-06  2.7777777777778E-06  2.7777777777778E-06  2.7777777777778E-06  2.7777777777778E-06  2.7777777777778E-06  1.3888888888889E-06 
 2.5000000000000E-01  2.5000000000000E-01  2.5000000000000E-01  2.5000000000000E-01  2.5000000000000E-01  2.5000000000000E-01  2.5000000000000E-01  2.5000000000000E-01  2.5000000000000E-01  2.5000000000000E-01 
 1.0000000000000E-01  1.0000000000000E-01  1.0000000000000E-01  1.0000000000000E-01  1.0000000000000E-01  1.0000000000000E-01  1.0000000000000E-01  1.0000000000000E-01  1.0000000000000E-01  1.0000000000000E-01 
 5.0305259955399E-07  5.0305259977992E-07  5.0305260002369E-07  5.0305260004889E-07  5.0305260005612E-07  5.0305260006241E-07  5.0305260007205E-07  5.0305260007312E-07  5.0305260009247E-07  5.0305260011399E-07 
 9.1464108946076E+00  9.1464109013274E+00  9.1464109087180E+00  9.1464109095790E+00  9.1464109096323E+00  9.1464109097645E+00  9.1464109103237E+00  9.1464109105247E+00  9.1464109108906E+00  9.1464109113455E+00 
 9.1464108946076E+00  9.1464109013274E+00  9.1464109087180E+00  9.1464109095790E+00  9.1464109096323E+00  9.1464109097645E+00  9.1464109103237E+00  9.1464109105247E+00  9.1464109108906E+00  9.1464109113455E+00 
 0.0000000000000E+00  0.0000000000000E+00  0.0000000000000E+00  0.0000000000000E+00  0.0000000000000E+00  0.0000000000000E+00  0.0000000000000E+00  0.0000000000000E+00  0.0000000000000E+00  0.0000000000000E+00 
ZONE T = "SEP , 7.7500E-08", I = 10, SOLUTIONTIME = 7.750000E-08
ZONETYPE = ORDERED
DATAPACKING = BLOCK
STRANDID = 2
 9.6000000000000E-05  9.8777777777778E-05  1.0155555555556E-04  1.0433333333333E-04  1.0711111111111E-04  1.0988888888889E-04  1.1266666666667E-04  1.1544444444444E-04  1.1822222222222E-04  1.2100000000000E-04 
 1.8418318805607E-07  1.8348098514020E-07  1.8344875684006E-07  1.8344761704666E-07  1.8344758200467E-07  1.8344758350861E-07  1.8344767714655E-07  1.8345075573121E-07  1.8351721109504E-07  1.8280366428987E-07 
 8.4394679944590E-01  8.4394679997505E-01  8.4394679999911E-01  8.4394679999997E-01  8.4394680000000E-01  8.4394680000000E-01  8.4394680000000E-01  8.4394680000008E-01  8.4394680000236E-01  8.4394680005243E-01 
 7.8026600277050E-02  7.8026600012475E-02  7.8026600000444E-02  7.8026600000014E-02  7.8026600000000E-02  7.8026600000000E-02  7.8026599999999E-02  7.8026599999958E-02  7.8026599998818E-02  7.8026599973783E-02 
 7.8026600277050E-02  7.8026600012475E-02  7.8026600000444E-02  7.8026600000014E-02  7.8026600000000E-02  7.8026600000000E-02  7.8026599999999E-02  7.8026599999958E-02  7.8026599998818E-02  7.8026599973783E-02 
 1.3953516527029E-02  1.3953474182534E-02  1.3953431838039E-02  1.3953389493544E-02  1.3953347149049E-02  1.3953304804554E-02  1.3953262460059E-02  1.3953220115564E-02  1.3953177771069E-02  1.3953135426574E-02 
 2.9814999987823E+02  2.9814999990489E+02  2.9814999992704E+02  2.9814999994485E+02  2.9814999995986E+02  2.9814999997234E+02  2.9814999998204E+02  2.9814999999020E+02  2.9814999999743E+02  2.9815000000377E+02 
 6.5000000000000E-01  6.5000000000000E-01  6.5000000000000E-01  6.5000000000000E-01  6.5000000000000E-01  6.5000000000000E-01  6.5000000000000E-01  6.5000000000000E-01  6.5000000000000E-01  6.5000000000000E-01 
 1.3888888888889E-06  2.7777777777778E-06  2.7777777777778E-06  2.7777777777778E-06  2.7777777777778E-06  2.7777777777778E-06  2.7777777777778E-06  2.7777777777778E-06  2.7777777777778E-06  1.3888888888889E-06 
 2.5000000000000E-01  2.5000000000000E-01  2.5000000000000E-01  2.5000000000000E-01  2.5000000000000E-01  2.5000000000000E-01  2.5000000000000E-01  2.5000000000000E-01  2.5000000000000E-01  2.5000000000000E-01 
 1.0000000000000E-01  1.0000000000000E-01  1.0000000000000E-01  1.0000000000000E-01  1.0000000000000E-01  1.0000000000000E-01  1.0000000000000E-01  1.0000000000000E-01  1.0000000000000E-01  1.0000000000000E-01 
 7.0884684454372E-07  7.0884684497940E-07  7.0884684545060E-07  7.0884684549590E-07  7.0884684550925E-07  7.0884684552382E-07  7.0884684554337E-07  7.0884684555467E-07  7.0884684559107E-07  7.0884684562472E-07 
 9.1464108884325E+00  9.1464108977548E+00  9.1464109078624E+00  9.1464109087560E+00  9.1464109090279E+00  9.1464109093960E+00  9.1464109098368E+00  9.1464109102912E+00  9.1464109110487E+00  9.1464109115882E+00 
 9.1464108884325E+00  9.1464108977548E+00  9.1464109078624E+00  9.1464109087560E+00  9.1464109090279E+00  9.1464109093960E+00  9.1464109098368E+00  9.1464109102912E+00  9.1464109110487E+00  9.1464109115882E+00 
 0.0000000000000E+00  0.0000000000000E+00  0.0000000000000E+00  0.0000000000000E+00  0.0000000000000E+00  0.0000000000000E+00  0.0000000000000E+00  0.0000000000000E+00  0.0000000000000E+00  0.0000000000000E+00 
ZONE T = "SEP , 1.1125E-07", I = 10, SOLUTIONTIME = 1.112500E-07
ZONETYPE = ORDERED
DATAPACKING = BLOCK
STRANDID = 2
 9.6000000000000E-05  9.8777777777778E-05  1.0155555555556E-04  1.0433333333333E-04  1.0711111111111E-04  1.0988888888889E-04  1.1266666666667E-04  1.1544444444444E-04  1.1822222222222E-04  1.2100000000000E-04 
 1.8447318541970E-07  1.8351248364635E-07  1.8345057874802E-07  1.8344743784438E-07  1.8344731204267E-07  1.8344731171985E-07  1.8344761733565E-07  1.8345346130333E-07  1.8354413735975E-07  1.8280953868819E-07 
 8.4394679921278E-01  8.4394679995068E-01  8.4394679999754E-01  8.4394679999989E-01  8.4394680000000E-01  8.4394680000000E-01  8.4394680000001E-01  8.4394680000023E-01  8.4394680000466E-01  8.4394680007432E-01 
 7.8026600393609E-02  7.8026600024660E-02  7.8026600001229E-02  7.8026600000053E-02  7.8026600000002E-02  7.8026600000000E-02  7.8026599999995E-02  7.8026599999884E-02  7.8026599997668E-02  7.8026599962841E-02 
 7.8026600393609E-02  7.8026600024660E-02  7.8026600001229E-02  7.8026600000053E-02  7.8026600000002E-02  7.8026600000000E-02  7.8026599999995E-02  7.8026599999884E-02  7.8026599997668E-02  7.8026599962841E-02 
 1.3953515343436E-02  1.3953472998941E-02  1.3953430654446E-02  1.3953388309951E-02  1.3953345965456E-02  1.3953303620961E-02  1.3953261276466E-02  1.3953218931971E-02  1.3953176587476E-02  1.3953134242981E-02 
 2.9814999982523E+02  2.9814999985858E+02  2.9814999988697E+02  2.9814999991193E+02  2.9814999993299E+02  2.9814999995094E+02  2.9814999996662E+02  2.9814999998054E+02  2.9814999999337E+02  2.9815000000518E+02 
 6.5000000000000E-01  6.5000000000000E-01  6.5000000000000E-01  6.5000000000000E-01  6.5000000000000E-01  6.5000000000000E-01  6.5000000000000E-01  6.5000000000000E-01  6.5000000000000E-01  6.5000000000000E-01 
 1.3888888888889E-06  2.7777777777778E-06  2.7777777777778E-06  2.7777777777778E-06  2.7777777777778E-06  2.7777777777778E-06  2.7777777777778E-06  2.7777777777778E-06  2.7777777777778E-06  1.3888888888889E-06 
 2.5000000000000E-01  2.5000000000000E-01  2.5000000000000E-01  2.5000000000000E-01  2.5000000000000E-01  2.5000000000000E-01  2.5000000000000E-01  2.5000000000000E-01  2.5000000000000E-01  2.5000000000000E-01 
 1.0000000000000E-01  1.0000000000000E-01  1.0000000000000E-01  1.0000000000000E-01  1.0000000000000E-01  1.0000000000000E-01  1.0000000000000E-01  1.0000000000000E-01  1.0000000000000E-01  1.0000000000000E-01 
 1.0175382116808E-06  1.0175382125656E-06  1.0175382135336E-06  1.0175382136259E-06  1.0175382136664E-06  1.0175382137000E-06  1.0175382137284E-06  1.0175382137730E-06  1.0175382138538E-06  1.0175382139161E-06 
 9.1464108781354E+00  9.1464108914444E+00  9.1464109061631E+00  9.1464109075545E+00  9.1464109083594E+00  9.1464109089245E+00  9.1464109091848E+00  9.1464109101715E+00  9.1464109114886E+00  9.1464109123375E+00 
 9.1464108781354E+00  9.1464108914444E+00  9.1464109061631E+00  9.1464109075545E+00  9.1464109083594E+00  9.1464109089245E+00  9.1464109091848E+00  9.1464109101715E+00  9.1464109114886E+00  9.1464109123375E+00 
 0.0000000000000E+00  0.0000000000000E+00  0.0000000000000E+00  0.0000000000000E+00  0.0000000000000E+00  0.0000000000000E+00  0.0000000000000E+00  0.0000000000000E+00  0.0000000000000E+00  0.0000000000000E+00 
ZONE T = "SEP , 1.6188E-07", I = 10, SOLUTIONTIME = 1.618750E-07
ZONETYPE = ORDERED
DATAPACKING = BLOCK
STRANDID = 2
 9.6000000000000E-05  9.8777777777778E-05  1.0155555555556E-04  1.0433333333333E-04  1.0711111111111E-04  1.0988888888889E-04  1.1266666666667E-04  1.1544444444444E-04  1.1822222222222E-04  1.2100000000000E-04 
 1.8487902344655E-07  1.8357552276659E-07  1.8345680522619E-07  1.8344827277076E-07  1.8344774035946E-07  1.8344776132701E-07  1.8344856511813E-07  1.8345976602277E-07  1.8358240596828E-07  1.8281941601975E-07 
 8.4394679887155E-01  8.4394679990108E-01  8.4394679999303E-01  8.4394679999957E-01  8.4394679999998E-01  8.4394680000000E-01  8.4394680000004E-01  8.4394680000066E-01  8.4394680000933E-01  8.4394680010622E-01 
 7.8026600564227E-02  7.8026600049458E-02  7.8026600003487E-02  7.8026600000216E-02  7.8026600000012E-02  7.8026600000000E-02  7.8026599999980E-02  7.8026599999671E-02  7.8026599995334E-02  7.8026599946891E-02 
 7.8026600564227E-02  7.8026600049458E-02  7.8026600003487E-02  7.8026600000216E-02  7.8026600000012E-02  7.8026600000000E-02  7.8026599999980E-02  7.8026599999671E-02  7.8026599995334E-02  7.8026599946891E-02 
 1.3953513569090E-02  1.3953471224595E-02  1.3953428880100E-02  1.3953386535605E-02  1.3953344191110E-02  1.3953301846615E-02  1.3953259502120E-02  1.3953217157625E-02  1.3953174813130E-02  1.3953132468635E-02 
 2.9814999974578E+02  2.9814999978820E+02  2.9814999982614E+02  2.9814999985975E+02  2.9814999988996E+02  2.9814999991712E+02  2.9814999994199E+02  2.9814999996481E+02  2.9814999998642E+02  2.9815000000727E+02 
 6.5000000000000E-01  6.5000000000000E-01  6.5000000000000E-01  6.5000000000000E-01  6.5000000000000E-01  6.5000000000000E-01  6.5000000000000E-01  6.5000000000000E-01  6.5000000000000E-01  6.5000000000000E-01 
 1.3888888888889E-06  2.7777777777778E-06  2.7777777777778E-06  2.7777777777778E-06  2.7777777777778E-06  2.7777777777778E-06  2.7777777777778E-06  2.7777777777778E-06  2.7777777777778E-06  1.3888888888889E-06 
 2.5000000000000E-01  2.5000000000000E-01  2.5000000000000E-01  2.5000000000000E-01  2.5000000000000E-01  2.5000000000000E-01  2.5000000000000E-01  2.5000000000000E-01  2.5000000000000E-01  2.5000000000000E-01 
 1.0000000000000E-01  1.0000000000000E-01  1.0000000000000E-01  1.0000000000000E-01  1.0000000000000E-01  1.0000000000000E-01  1.0000000000000E-01  1.0000000000000E-01  1.0000000000000E-01  1.0000000000000E-01 
 1.4805752616317E-06  1.4805752634737E-06  1.4805752654982E-06  1.4805752657352E-06  1.4805752658364E-06  1.4805752659030E-06  1.4805752659679E-06  1.4805752660634E-06  1.4805752662811E-06  1.4805752664482E-06 
 9.1464108632283E+00  9.1464108821342E+00  9.1464109030041E+00  9.1464109058638E+00  9.1464109070620E+00  9.1464109077137E+00  9.1464109084358E+00  9.1464109094403E+00  9.1464109121434E+00  9.1464109142149E+00 
 9.1464108632283E+00  9.1464108821342E+00  9.1464109030041E+00  9.1464109058638E+00  9.1464109070620E+00  9.1464109077137E+00  9.1464109084358E+00  9.1464109094403E+00  9.1464109121434E+00  9.1464109142149E+00 
 0.0000000000000E+00  0.0000000000000E+00  0.0000000000000E+00  0.0000000000000E+00  0.0000000000000E+00  0.0000000000000E+00  0.0000000000000E+00  0.0000000000000E+00  0.0000000000000E+00  0.0000000000000E+00 
ZONE T = "SEP , 2.3781E-07", I = 10, SOLUTIONTIME = 2.378125E-07
ZONETYPE = ORDERED
DATAPACKING = BLOCK
STRANDID = 2