TITLE = "Solution on Domain BulkDomain1D_0"
VARIABLES = "x [m]"  
"Vel_axial" 
"MF_sp(ECDMC)" 
"MF_sp(Li+)" 
"MF_sp(PF6-)" 
"Volt(Electroly)" 
"Volt(AnodeVolt)" 
"Temperature" 
"Potential Drop Electrode-Electrolyte [V]" 
"Surf_0 Equilibrium Potential Drop Electrode-Electrolyte [V]" 
"Overpotential_0 [V]" 
"Current Source [A/m^2]" 
"Li+ flux [kmol/m^2/s]" 
"Electrolyte Current [A/m^2]" 
"Electrode Current [A/m^2]" 
"CV Capacity discharged [A-s/m^2]" 
"Depth of discharge in CV [A-s/m^2]" 
"CV Capacity remaining [A-s/m^2]" 
"Initial CV capacity [A-s/m^2]" 
"Porosity []" 
"Surface Area [m2/m2] (area per area)" 
"Specific current (per particle area) [A/m^2]" 
"Control volume thickness [m]" 
"volFrac AnodeBinder []" 	"volFrac ExtraStuff []" 	"MoleDens Li_C6-bulk [kmol/m^3]" 
"MoleDens V_C6-bulk [kmol/m^3]" 
"qHeat_accum [J/m3]" 
"qHeat_step [W/m3]" 
"Joule_Lyte [W/m3]" 
"Joule_Solid [W/m3]" 
"electrodHeat [W/m3]" 
"OverpotHeat [W/m3]" 
"deltaSHeat [W/m3]" 

ZONE T = "ANOD, 0.0000E+00", I = 10, SOLUTIONTIME = 0.000000E+00
ZONETYPE = ORDERED
DATAPACKING = BLOCK
STRANDID = 1
 0.0000000000000E+00  1.0666666666667E-05  2.1333333333333E-05  3.2000000000000E-05  4.2666666666667E-05  5.3333333333333E-05  6.4000000000000E-05  7.4666666666667E-05  8.5333333333333E-05  9.6000000000000E-05 
 0.0000000000000E+00  0.0000000000000E+00  0.0000000000000E+00  0.0000000000000E+00  0.0000000000000E+00  0.0000000000000E+00  0.0000000000000E+00  0.0000000000000E+00  0.0000000000000E+00  0.0000000000000E+00 
 8.4394680000000E-01  8.4394680000000E-01  8.4394680000000E-01  8.4394680000000E-01  8.4394680000000E-01  8.4394680000000E-01  8.4394680000000E-01  8.4394680000000E-01  8.4394680000000E-01  8.4394680000000E-01 
 7.8026600000000E-02  7.8026600000000E-02  7.8026600000000E-02  7.8026600000000E-02  7.8026600000000E-02  7.8026600000000E-02  7.8026600000000E-02  7.8026600000000E-02  7.8026600000000E-02  7.8026600000000E-02 
 7.8026600000000E-02  7.8026600000000E-02  7.8026600000000E-02  7.8026600000000E-02  7.8026600000000E-02  7.8026600000000E-02  7.8026600000000E-02  7.8026600000000E-02  7.8026600000000E-02  7.8026600000000E-02 
-7.0000000000000E-02 -7.0000000000000E-02 -7.0000000000000E-02 -7.0000000000000E-02 -7.0000000000000E-02 -7.0000000000000E-02 -7.0000000000000E-02 -7.0000000000000E-02 -7.0000000000000E-02 -7.0000000000000E-02 
 0.0000000000000E+00  0.0000000000000E+00  0.0000000000000E+00  0.0000000000000E+00  0.0000000000000E+00  0.0000000000000E+00  0.0000000000000E+00  0.0000000000000E+00  0.0000000000000E+00  0.0000000000000E+00 
 2.9815000000000E+02  2.9815000000000E+02  2.9815000000000E+02  2.9815000000000E+02  2.9815000000000E+02  2.9815000000000E+02  2.9815000000000E+02  2.9815000000000E+02  2.9815000000000E+02  2.9815000000000E+02 
 7.0000000000000E-02  7.0000000000000E-02  7.0000000000000E-02  7.0000000000000E-02  7.0000000000000E-02  7.0000000000000E-02  7.0000000000000E-02  7.0000000000000E-02  7.0000000000000E-02  7.0000000000000E-02 
-2.4231113980254E-02 -2.4231113980254E-02 -2.4231113980254E-02 -2.4231113980254E-02 -2.4231113980254E-02 -2.4231113980254E-02 -2.4231113980254E-02 -2.4231113980254E-02 -2.4231113980254E-02 -2.4231113980254E-02 
 9.4231113980254E-02  9.4231113980254E-02  9.4231113980254E-02  9.4231113980254E-02  9.4231113980254E-02  9.4231113980254E-02  9.4231113980254E-02  9.4231113980254E-02  9.4231113980254E-02  9.4231113980254E-02 
 5.2595956578534E+02  1.0519191315707E+03  1.0519191315707E+03  1.0519191315707E+03  1.0519191315707E+03  1.0519191315707E+03  1.0519191315707E+03  1.0519191315707E+03  1.0519191315707E+03  5.2595956578534E+02 
-0.0000000000000E+00 -0.0000000000000E+00 -0.0000000000000E+00 -0.0000000000000E+00 -0.0000000000000E+00 -0.0000000000000E+00 -0.0000000000000E+00 -0.0000000000000E+00 -0.0000000000000E+00 -0.0000000000000E+00 
 0.0000000000000E+00  0.0000000000000E+00  0.0000000000000E+00  0.0000000000000E+00  0.0000000000000E+00  0.0000000000000E+00  0.0000000000000E+00  0.0000000000000E+00  0.0000000000000E+00  5.2595956578534E+02 
 5.2595956578534E+02 -0.0000000000000E+00 -0.0000000000000E+00 -0.0000000000000E+00 -0.0000000000000E+00 -0.0000000000000E+00 -0.0000000000000E+00 -0.0000000000000E+00 -0.0000000000000E+00  0.0000000000000E+00 
 0.0000000000000E+00  0.0000000000000E+00  0.0000000000000E+00  0.0000000000000E+00  0.0000000000000E+00  0.0000000000000E+00  0.0000000000000E+00  0.0000000000000E+00  0.0000000000000E+00  0.0000000000000E+00 
 1.4095380717934E+03  2.8190761435868E+03  2.8190761435868E+03  2.8190761435868E+03  2.8190761435868E+03  2.8190761435868E+03  2.8190761435868E+03  2.8190761435868E+03  2.8190761435868E+03  1.4095380717934E+03 
 5.6381522871735E+03  1.1276304574347E+04  1.1276304574347E+04  1.1276304574347E+04  1.1276304574347E+04  1.1276304574347E+04  1.1276304574347E+04  1.1276304574347E+04  1.1276304574347E+04  5.6381522871735E+03 
 7.0476903589669E+03  1.4095380717934E+04  1.4095380717934E+04  1.4095380717934E+04  1.4095380717934E+04  1.4095380717934E+04  1.4095380717934E+04  1.4095380717934E+04  1.4095380717934E+04  7.0476903589669E+03 
 4.0000000000000E-01  4.0000000000000E-01  4.0000000000000E-01  4.0000000000000E-01  4.0000000000000E-01  4.0000000000000E-01  4.0000000000000E-01  4.0000000000000E-01  4.0000000000000E-01  4.0000000000000E-01 
 9.4000000000000E-01  1.8800000000000E+00  1.8800000000000E+00  1.8800000000000E+00  1.8800000000000E+00  1.8800000000000E+00  1.8800000000000E+00  1.8800000000000E+00  1.8800000000000E+00  9.4000000000000E-01 
 5.5953145296313E+02  5.5953145296313E+02  5.5953145296313E+02  5.5953145296313E+02  5.5953145296313E+02  5.5953145296313E+02  5.5953145296313E+02  5.5953145296313E+02  5.5953145296313E+02  5.5953145296313E+02 
 5.3333333333333E-06  1.0666666666667E-05  1.0666666666667E-05  1.0666666666667E-05  1.0666666666667E-05  1.0666666666667E-05  1.0666666666667E-05  1.0666666666667E-05  1.0666666666667E-05  5.3333333333333E-06 
 3.0000000000000E-02  3.0000000000000E-02  3.0000000000000E-02  3.0000000000000E-02  3.0000000000000E-02  3.0000000000000E-02  3.0000000000000E-02  3.0000000000000E-02  3.0000000000000E-02  3.0000000000000E-02 
 1.0000000000000E-01  1.0000000000000E-01  1.0000000000000E-01  1.0000000000000E-01  1.0000000000000E-01  1.0000000000000E-01  1.0000000000000E-01  1.0000000000000E-01  1.0000000000000E-01  1.0000000000000E-01 
 1.0956624007712E+01  1.0956624007712E+01  1.0956624007712E+01  1.0956624007712E+01  1.0956624007712E+01  1.0956624007712E+01  1.0956624007712E+01  1.0956624007712E+01  1.0956624007712E+01  1.0956624007712E+01 
 2.7391560019279E+00  2.7391560019279E+00  2.7391560019279E+00  2.7391560019279E+00  2.7391560019279E+00  2.7391560019279E+00  2.7391560019279E+00  2.7391560019279E+00  2.7391560019279E+00  2.7391560019279E+00 
 0.0000000000000E+00  0.0000000000000E+00  0.0000000000000E+00  0.0000000000000E+00  0.0000000000000E+00  0.0000000000000E+00  0.0000000000000E+00  0.0000000000000E+00  0.0000000000000E+00  0.0000000000000E+00 
 0.0000000000000E+00  0.0000000000000E+00  0.0000000000000E+00  0.0000000000000E+00  0.0000000000000E+00  0.0000000000000E+00  0.0000000000000E+00  0.0000000000000E+00  0.0000000000000E+00  0.0000000000000E+00 
 0.0000000000000E+00  0.0000000000000E+00  0.0000000000000E+00  0.0000000000000E+00  0.0000000000000E+00  0.0000000000000E+00  0.0000000000000E+00  0.0000000000000E+00  0.0000000000000E+00  0.0000000000000E+00 
 0.0000000000000E+00  0.0000000000000E+00  0.0000000000000E+00  0.0000000000000E+00  0.0000000000000E+00  0.0000000000000E+00  0.0000000000000E+00  0.0000000000000E+00  0.0000000000000E+00  0.0000000000000E+00 
 0.0000000000000E+00  0.0000000000000E+00  0.0000000000000E+00  0.0000000000000E+00  0.0000000000000E+00  0.0000000000000E+00  0.0000000000000E+00  0.0000000000000E+00  0.0000000000000E+00  0.0000000000000E+00 
 0.0000000000000E+00  0.0000000000000E+00  0.0000000000000E+00  0.0000000000000E+00  0.0000000000000E+00  0.0000000000000E+00  0.0000000000000E+00  0.0000000000000E+00  0.0000000000000E+00  0.0000000000000E+00 
 0.0000000000000E+00  0.0000000000000E+00  0.0000000000000E+00  0.0000000000000E+00  0.0000000000000E+00  0.0000000000000E+00  0.0000000000000E+00  0.0000000000000E+00  0.0000000000000E+00  0.0000000000000E+00 
ZONE T = "ANOD, 1.0000E-08", I = 10, SOLUTIONTIME = 1.000000E-08
ZONETYPE = ORDERED
DATAPACKING = BLOCK
STRANDID = 1
 0.0000000000000E+00  1.0666666666667E-05  2.1333333333333E-05  3.2000000000000E-05  4.2666666666667E-05  5.3333333333333E-05  6.4000000000000E-05  7.4666666666667E-05  8.5333333333333E-05  9.6000000000000E-05 
 1.0618316583998E-08  3.1581803594734E-08  5.2308114796838E-08  7.2828565305267E-08  9.3175705754615E-08  1.1338162301083E-07  1.3347804887531E-07  1.5349671247914E-07  1.7347440455592E-07  1.8354792783866E-07 
 8.4394679988890E-01  8.4394679989032E-01  8.4394679989157E-01  8.4394679989264E-01  8.4394679989355E-01  8.4394679989429E-01  8.4394679989486E-01  8.4394679989527E-01  8.4394679989553E-01  8.4394679992706E-01 
 7.8026600055550E-02  7.8026600054841E-02  7.8026600054217E-02  7.8026600053679E-02  7.8026600053226E-02  7.8026600052856E-02  7.8026600052570E-02  7.8026600052366E-02  7.8026600052236E-02  7.8026600036470E-02 
 7.8026600055550E-02  7.8026600054841E-02  7.8026600054217E-02  7.8026600053679E-02  7.8026600053226E-02  7.8026600052856E-02  7.8026600052570E-02  7.8026600052366E-02  7.8026600052236E-02  7.8026600036470E-02 
 1.3953354674774E-02  1.3953335179048E-02  1.3953277190424E-02  1.3953181146612E-02  1.3953047425174E-02  1.3952876344451E-02  1.3952668163813E-02  1.3952423084285E-02  1.3952141248726E-02  1.3951822742338E-02 
 0.0000000000000E+00 -1.2973559931279E-04 -2.4373406713398E-04 -3.4217435100852E-04 -4.2521084254435E-04 -4.9297364808929E-04 -5.4556881583666E-04 -5.8307851977530E-04 -6.0556120412892E-04 -6.1305168360418E-04 
 2.9814999998226E+02  2.9814999994924E+02  2.9814999998257E+02  2.9814999998268E+02  2.9814999998279E+02  2.9815000001606E+02  2.9814999994972E+02  2.9814999998296E+02  2.9815000001619E+02  2.9814999991666E+02 
-1.3953354674774E-02 -1.4083070778361E-02 -1.4197011257558E-02 -1.4295355497620E-02 -1.4378258267718E-02 -1.4445849992540E-02 -1.4498236979649E-02 -1.4535501604060E-02 -1.4557702452855E-02 -1.4564874425943E-02 
-2.4231113582291E-02 -2.4231113574914E-02 -2.4231113591803E-02 -2.4231113595638E-02 -2.4231113598870E-02 -2.4231113613950E-02 -2.4231113591089E-02 -2.4231113604989E-02 -2.4231113618308E-02 -2.4231113586435E-02 
 1.0277758907517E-02  1.0148042796553E-02  1.0034102334245E-02  9.9357580980179E-03  9.8528553311515E-03  9.7852636214098E-03  9.7328766114400E-03  9.6956120009291E-03  9.6734111654532E-03  9.6662391604925E-03 
 3.4733746850209E+01  6.8579300650891E+01  6.7799487630906E+01  6.7126683889879E+01  6.6559711178726E+01  6.6097579282454E+01  6.5739482036123E+01  6.5484797467841E+01  6.5333082518899E+01  3.2642036553014E+01 
 1.7996842958543E-07  5.3529852849301E-07  8.8658810963903E-07  1.2343923786204E-06  1.5792580395076E-06  1.9217294324663E-06  2.2623451541253E-06  2.6016421627905E-06  2.9402004144659E-06  2.9402004144659E-06 
 0.0000000000000E+00  6.9012382160676E+01  1.3719087001268E+02  2.0464322527650E+02  2.7147576591956E+02  3.3779376180199E+02  4.0370170054498E+02  4.6930335494088E+02  5.3470188380114E+02  6.0000524158362E+02 
 6.0000553934249E+02  5.3098761538873E+02  4.6280910791624E+02  3.9535679749938E+02  3.2852428099514E+02  2.6220623970623E+02  1.9629825044181E+02  1.3069660542476E+02  6.5298129942580E+01  0.0000000000000E+00 
 3.4733746850209E-07  6.8579300650891E-07  6.7799487630906E-07  6.7126683889879E-07  6.6559711178726E-07  6.6097579282454E-07  6.5739482036123E-07  6.5484797467841E-07  6.5333082518899E-07  3.2642036553014E-07 
 1.4095380721407E+03  2.8190761442726E+03  2.8190761442648E+03  2.8190761442580E+03  2.8190761442524E+03  2.8190761442477E+03  2.8190761442442E+03  2.8190761442416E+03  2.8190761442401E+03  1.4095380721198E+03 
 5.6381522868262E+03  1.1276304573661E+04  1.1276304573669E+04  1.1276304573676E+04  1.1276304573681E+04  1.1276304573686E+04  1.1276304573690E+04  1.1276304573692E+04  1.1276304573694E+04  5.6381522868471E+03 
 7.0476903589669E+03  1.4095380717934E+04  1.4095380717934E+04  1.4095380717934E+04  1.4095380717934E+04  1.4095380717934E+04  1.4095380717934E+04  1.4095380717934E+04  1.4095380717934E+04  7.0476903589669E+03 
 4.0000000000000E-01  4.0000000000000E-01  4.0000000000000E-01  4.0000000000000E-01  4.0000000000000E-01  4.0000000000000E-01  4.0000000000000E-01  4.0000000000000E-01  4.0000000000000E-01  4.0000000000000E-01 
 9.4000000000000E-01  1.8800000000000E+00  1.8800000000000E+00  1.8800000000000E+00  1.8800000000000E+00  1.8800000000000E+00  1.8800000000000E+00  1.8800000000000E+00  1.8800000000000E+00  9.4000000000000E-01 
 3.6950794521499E+01  3.6478351410049E+01  3.6063557250482E+01  3.5705682920149E+01  3.5404101690812E+01  3.5158286852369E+01  3.4967809593683E+01  3.4832339078639E+01  3.4751639637713E+01  3.4725570801079E+01 
 5.3333333333333E-06  1.0666666666667E-05  1.0666666666667E-05  1.0666666666667E-05  1.0666666666667E-05  1.0666666666667E-05  1.0666666666667E-05  1.0666666666667E-05  1.0666666666667E-05  5.3333333333333E-06 
 3.0000000000000E-02  3.0000000000000E-02  3.0000000000000E-02  3.0000000000000E-02  3.0000000000000E-02  3.0000000000000E-02  3.0000000000000E-02  3.0000000000000E-02  3.0000000000000E-02  3.0000000000000E-02 
 1.0000000000000E-01  1.0000000000000E-01  1.0000000000000E-01  1.0000000000000E-01  1.0000000000000E-01  1.0000000000000E-01  1.0000000000000E-01  1.0000000000000E-01  1.0000000000000E-01  1.0000000000000E-01 
 1.0956624007037E+01  1.0956624007045E+01  1.0956624007053E+01  1.0956624007059E+01  1.0956624007065E+01  1.0956624007069E+01  1.0956624007073E+01  1.0956624007075E+01  1.0956624007077E+01  1.0956624007077E+01 
 2.7391560026029E+00  2.7391560025942E+00  2.7391560025867E+00  2.7391560025801E+00  2.7391560025746E+00  2.7391560025701E+00  2.7391560025666E+00  2.7391560025642E+00  2.7391560025627E+00  2.7391560025622E+00 
-6.5432080542748E-03 -6.4748405812018E-03 -6.4223419401162E-03 -6.3767869703035E-03 -6.3382102626047E-03 -6.3066399737020E-03 -6.2820982987613E-03 -6.2646021732843E-03 -6.2541632978147E-03 -6.2508091300203E-03 
-6.5432080542748E+05 -6.4748405812018E+05 -6.4223419401162E+05 -6.3767869703035E+05 -6.3382102626047E+05 -6.3066399737020E+05 -6.2820982987613E+05 -6.2646021732843E+05 -6.2541632978147E+05 -6.2508091300203E+05 
 6.3473599058116E-02  3.1251921495710E-01  1.0510171242227E+00  2.2633260465927E+00  3.9370083659723E+00  6.0627202830080E+00  8.6341200652397E+00  1.1647795677547E+01  1.5103204092537E+01  1.6941450450792E+01 
 6.8752382600253E+03  6.0918424546701E+03  4.6334026587078E+03  3.3874217298151E+03  2.3460682251261E+03  1.5028032894611E+03  8.5233771837837E+02  3.9059734942474E+02  1.1469640645406E+02  2.2918630615951E+01 
-6.6119610716111E+05 -6.5357621309407E+05 -6.4686864768745E+05 -6.4106838208621E+05 -6.3617103149396E+05 -6.3217286337994E+05 -6.2907080171457E+05 -6.2686246247354E+05 -6.2554612939201E+05 -6.2512077308309E+05 
 6.6934701884345E+04  6.5244907425126E+04  6.3778781091400E+04  6.2526983834857E+04  6.1481550590005E+04  6.0635834921835E+04  5.9984462652719E+04  5.9523299000322E+04  5.9249416034582E+04  5.9161074824807E+04 
-7.2813080904545E+05 -7.1882112051920E+05 -7.1064742877885E+05 -7.0359536592107E+05 -6.9765258208397E+05 -6.9280869830178E+05 -6.8905526436729E+05 -6.8638576147386E+05 -6.8479554542660E+05 -6.8428184790790E+05 
ZONE T = "ANOD, 2.0000E-08", I = 10, SOLUTIONTIME = 2.000000E-08
ZONETYPE = ORDERED
DATAPACKING = BLOCK
STRANDID = 1
 0.0000000000000E+00  1.0666666666667E-05  2.1333333333333E-05  3.2000000000000E-05  4.2666666666667E-05  5.3333333333333E-05  6.4000000000000E-05  7.4666666666667E-05  8.5333333333333E-05  9.6000000000000E-05 
 1.0618560325351E-08  3.1583234713087E-08  5.2309288351000E-08  7.2829754185376E-08  9.3176759419331E-08  1.1338230629074E-07  1.3347876956807E-07  1.5349718275037E-07  1.7348029885357E-07  1.8364685137242E-07 
 8.4394679977780E-01  8.4394679978064E-01  8.4394679978313E-01  8.4394679978528E-01  8.4394679978710E-01  8.4394679978858E-01  8.4394679978972E-01  8.4394679979054E-01  8.4394679979107E-01  8.4394679985454E-01 
 7.8026600111100E-02  7.8026600109682E-02  7.8026600108435E-02  7.8026600107358E-02  7.8026600106452E-02  7.8026600105712E-02  7.8026600105140E-02  7.8026600104732E-02  7.8026600104463E-02  7.8026600072732E-02 
 7.8026600111100E-02  7.8026600109682E-02  7.8026600108435E-02  7.8026600107358E-02  7.8026600106452E-02  7.8026600105712E-02  7.8026600105140E-02  7.8026600104732E-02  7.8026600104463E-02  7.8026600072732E-02 
 1.3954913129055E-02  1.3954893633219E-02  1.3954835644322E-02  1.3954739600132E-02  1.3954605878345E-02  1.3954434797246E-02  1.3954226616264E-02  1.3953981536427E-02  1.3953699700707E-02  1.3953381194275E-02 
 0.0000000000000E+00 -1.2973555314804E-04 -2.4373391153193E-04 -3.4217404890290E-04 -4.2521037939576E-04 -4.9297302797888E-04 -5.4556805774299E-04 -5.8307765494369E-04 -6.0556027176665E-04 -6.1305072802451E-04 
 2.9814999996579E+02  2.9814999993296E+02  2.9814999996641E+02  2.9814999996663E+02  2.9814999996684E+02  2.9815000000018E+02  2.9814999993392E+02  2.9814999996719E+02  2.9815000000043E+02  2.9814999990098E+02 
-1.3954913129055E-02 -1.4084629186367E-02 -1.4198569555854E-02 -1.4296913649035E-02 -1.4379816257741E-02 -1.4447407825225E-02 -1.4499794674007E-02 -1.4537059191371E-02 -1.4559259972474E-02 -1.4566431922299E-02 
-2.4231113184860E-02 -2.4231113182552E-02 -2.4231113203879E-02 -2.4231113211547E-02 -2.4231113218015E-02 -2.4231113235722E-02 -2.4231113214915E-02 -2.4231113230257E-02 -2.4231113244437E-02 -2.4231113218120E-02 
 1.0276200055805E-02  1.0146483996185E-02  1.0032543648025E-02  9.9341995625118E-03  9.8512969602741E-03  9.7837054104972E-03  9.7313185409074E-03  9.6940540388868E-03  9.6718532719629E-03  9.6646812958208E-03 
 3.4728408652440E+01  6.8568629892267E+01  6.7788822239594E+01  6.7116023445517E+01  6.6549055130640E+01  6.6086926973566E+01  6.5728832724448E+01  6.5474150340164E+01  6.5322436716323E+01  3.2636713884949E+01 
 1.7997159850576E-07  5.3530294821902E-07  8.8659322900622E-07  1.2343969813798E-06  1.5792626325245E-06  1.9217334773263E-06  2.2623486325720E-06  2.6016440713938E-06  2.9402493623952E-06  2.9402493623952E-06 
 0.0000000000000E+00  6.9012723597764E+01  1.3719144966474E+02  2.0464387250785E+02  2.7147641179488E+02  3.3779440284709E+02  4.0370228269637E+02  4.6930377422863E+02  5.3470206775630E+02  5.9999999999919E+02 
 5.9999999999999E+02  5.3098727640140E+02  4.6280855033545E+02  3.9535612749290E+02  3.2852358820481E+02  2.6220559715268E+02  1.9629771730367E+02  1.3069622577136E+02  6.5297932243111E+01  0.0000000000000E+00 
 6.9462155502649E-07  1.3714793054316E-06  1.3558830987050E-06  1.3424270733540E-06  1.3310876630937E-06  1.3218450625602E-06  1.3146831476057E-06  1.3095894780800E-06  1.3065551923522E-06  6.5278750437963E-07 
 1.4095380724880E+03  2.8190761449582E+03  2.8190761449426E+03  2.8190761449292E+03  2.8190761449179E+03  2.8190761449086E+03  2.8190761449015E+03  2.8190761448964E+03  2.8190761448933E+03  1.4095380724462E+03 
 5.6381522864789E+03  1.1276304572976E+04  1.1276304572991E+04  1.1276304573005E+04  1.1276304573016E+04  1.1276304573025E+04  1.1276304573032E+04  1.1276304573037E+04  1.1276304573041E+04  5.6381522865207E+03 
 7.0476903589669E+03  1.4095380717934E+04  1.4095380717934E+04  1.4095380717934E+04  1.4095380717934E+04  1.4095380717934E+04  1.4095380717934E+04  1.4095380717934E+04  1.4095380717934E+04  7.0476903589669E+03 
 4.0000000000000E-01  4.0000000000000E-01  4.0000000000000E-01  4.0000000000000E-01  4.0000000000000E-01  4.0000000000000E-01  4.0000000000000E-01  4.0000000000000E-01  4.0000000000000E-01  4.0000000000000E-01 
 9.4000000000000E-01  1.8800000000000E+00  1.8800000000000E+00  1.8800000000000E+00  1.8800000000000E+00  1.8800000000000E+00  1.8800000000000E+00  1.8800000000000E+00  1.8800000000000E+00  9.4000000000000E-01 
 3.6945115587702E+01  3.6472675474610E+01  3.6057884169997E+01  3.5700012471020E+01  3.5398433580128E+01  3.5152620730620E+01  3.4962145066196E+01  3.4826675712853E+01  3.4745976976768E+01  3.4719908388244E+01 
 5.3333333333333E-06  1.0666666666667E-05  1.0666666666667E-05  1.0666666666667E-05  1.0666666666667E-05  1.0666666666667E-05  1.0666666666667E-05  1.0666666666667E-05  1.0666666666667E-05  5.3333333333333E-06 
 3.0000000000000E-02  3.0000000000000E-02  3.0000000000000E-02  3.0000000000000E-02  3.0000000000000E-02  3.0000000000000E-02  3.0000000000000E-02  3.0000000000000E-02  3.0000000000000E-02  3.0000000000000E-02 
 1.0000000000000E-01  1.0000000000000E-01  1.0000000000000E-01  1.0000000000000E-01  1.0000000000000E-01  1.0000000000000E-01  1.0000000000000E-01  1.0000000000000E-01  1.0000000000000E-01  1.0000000000000E-01 
 1.0956624006362E+01  1.0956624006379E+01  1.0956624006394E+01  1.0956624006407E+01  1.0956624006418E+01  1.0956624006427E+01  1.0956624006434E+01  1.0956624006439E+01  1.0956624006442E+01  1.0956624006443E+01 
 2.7391560032777E+00  2.7391560032605E+00  2.7391560032453E+00  2.7391560032323E+00  2.7391560032212E+00  2.7391560032123E+00  2.7391560032053E+00  2.7391560032004E+00  2.7391560031974E+00  2.7391560031965E+00 
-1.3085501473610E-02 -1.2948764491572E-02 -1.2843765469266E-02 -1.2752654029808E-02 -1.2675499351917E-02 -1.2612357746448E-02 -1.2563273601369E-02 -1.2528280785394E-02 -1.2507402698411E-02 -1.2500694257452E-02 
-6.5422934193356E+05 -6.4739239103704E+05 -6.4214235291497E+05 -6.3758670595050E+05 -6.3372890893125E+05 -6.3057177727456E+05 -6.2811753026081E+05 -6.2636786121100E+05 -6.2532394005967E+05 -6.2498851274313E+05 
 1.2694791386869E-01  6.2504143540909E-01  2.1020429484366E+00  4.5266659446664E+00  7.8740352676519E+00  1.2125463254882E+01  1.7268264755823E+01  2.3295611601424E+01  3.0206418173680E+01  3.3882905732290E+01 
 1.3750471627121E+04  1.2183677366826E+04  9.2667943303510E+03  6.7748321062615E+03  4.6921266432538E+03  3.0055992698473E+03  1.7046708368999E+03  7.8119244324189E+02  2.2939212168966E+02  4.5837119155520E+01 
-6.6110463877497E+05 -6.5348453847142E+05 -6.4677679561244E+05 -6.4097637966684E+05 -6.3607890437628E+05 -6.3208063599792E+05 -6.2897849752403E+05 -6.2677010412074E+05 -6.2545373898899E+05 -6.2502837268695E+05 
 6.6914264168898E+04  6.5224735038790E+04  6.3758842422859E+04  6.2507247369034E+04  6.1461984907843E+04  6.0616408701057E+04  5.9965144659487E+04  5.9504058063443E+04  5.9230221038506E+04  5.9141894743240E+04 
-7.2801890294387E+05 -7.1870927351021E+05 -7.1053563803530E+05 -7.0348362703588E+05 -6.9754088928412E+05 -6.9269704469898E+05 -6.8894364218351E+05 -6.8627416218419E+05 -6.8468396002750E+05 -6.8417026743019E+05 
ZONE T = "ANOD, 3.0000E-08", I = 10, SOLUTIONTIME = 3.000000E-08
ZONETYPE = ORDERED
DATAPACKING = BLOCK
STRANDID = 1
 0.0000000000000E+00  1.0666666666667E-05  2.1333333333333E-05  3.2000000000000E-05  4.2666666666667E-05  5.3333333333333E-05  6.4000000000000E-05  7.4666666666667E-05  8.5333333333333E-05  9.6000000000000E-05 
 1.0618751764279E-08  3.1583188554867E-08  5.2309360762898E-08  7.2829678584268E-08  9.3176849492937E-08  1.1338251441464E-07  1.3347889908182E-07  1.5349717023915E-07  1.7348591410183E-07  1.8374414230631E-07 
 8.4394679966670E-01  8.4394679967095E-01  8.4394679967470E-01  8.4394679967792E-01  8.4394679968065E-01  8.4394679968286E-01  8.4394679968458E-01  8.4394679968580E-01  8.4394679968664E-01  8.4394679978242E-01 
 7.8026600166649E-02  7.8026600164523E-02  7.8026600162652E-02  7.8026600161038E-02  7.8026600159677E-02  7.8026600158569E-02  7.8026600157710E-02  7.8026600157098E-02  7.8026600156682E-02  7.8026600108790E-02 
 7.8026600166649E-02  7.8026600164523E-02  7.8026600162652E-02  7.8026600161038E-02  7.8026600159677E-02  7.8026600158569E-02  7.8026600157710E-02  7.8026600157098E-02  7.8026600156682E-02  7.8026600108790E-02 
 1.3954912747578E-02  1.3954893251742E-02  1.3954835262845E-02  1.3954739218655E-02  1.3954605496868E-02  1.3954434415770E-02  1.3954226234788E-02  1.3953981154951E-02  1.3953699319232E-02  1.3953380812799E-02 
 0.0000000000000E+00 -1.2973555316057E-04 -2.4373391157407E-04 -3.4217404898486E-04 -4.2521037952181E-04 -4.9297302814831E-04 -5.4556805795108E-04 -5.8307765518256E-04 -6.0556027202621E-04 -6.1305072829336E-04 
 2.9814999994931E+02  2.9814999991667E+02  2.9814999995024E+02  2.9814999995058E+02  2.9814999995089E+02  2.9814999998429E+02  2.9814999991813E+02  2.9814999995142E+02  2.9814999998468E+02  2.9814999988529E+02 
-1.3954912747578E-02 -1.4084628804902E-02 -1.4198569174419E-02 -1.4296913267640E-02 -1.4379815876390E-02 -1.4447407443918E-02 -1.4499794292739E-02 -1.4537058810134E-02 -1.4559259591258E-02 -1.4566431541092E-02 
-2.4231112787432E-02 -2.4231112790193E-02 -2.4231112815961E-02 -2.4231112827462E-02 -2.4231112837165E-02 -2.4231112857489E-02 -2.4231112838731E-02 -2.4231112855523E-02 -2.4231112870579E-02 -2.4231112849870E-02 
 1.0276200039854E-02  1.0146483985291E-02  1.0032543641542E-02  9.9341995598218E-03  9.8512969607750E-03  9.7837054135713E-03  9.7313185459915E-03  9.6940540453897E-03  9.6718532793208E-03  9.6646813087780E-03 
 3.4728408597891E+01  6.8568629817814E+01  6.7788822195142E+01  6.7116023426888E+01  6.6549055133785E+01  6.6086926994167E+01  6.5728832758820E+01  6.5474150384084E+01  6.5322436765999E+01  3.2636713925450E+01 
 1.7997374989304E-07  5.3530484326202E-07  8.8659486373862E-07  1.2343983586953E-06  1.5792637550261E-06  1.9217343470165E-06  2.2623492511552E-06  2.6016445202620E-06  2.9402984850100E-06  2.9402984850100E-06 
 0.0000000000000E+00  6.9012723507145E+01  1.3719144951262E+02  2.0464387232351E+02  2.7147641160488E+02  3.3779440266909E+02  4.0370228254523E+02  4.6930377411645E+02  5.3470206769214E+02  6.0000000000102E+02 
 6.0000000000001E+02  5.3098727649320E+02  4.6280855048671E+02  3.9535612767571E+02  3.2852358839539E+02  2.6220559733142E+02  1.9629771745492E+02  1.3069622588349E+02  6.5297932308450E+01  0.0000000000000E+00 
 1.0419056410054E-06  2.0571656036097E-06  2.0337713206564E-06  2.0135873076228E-06  1.9965782144315E-06  1.9827143325019E-06  1.9719714751939E-06  1.9643309819209E-06  1.9597795600122E-06  9.7915464363413E-07 
 1.4095380728353E+03  2.8190761456439E+03  2.8190761456205E+03  2.8190761456004E+03  2.8190761455833E+03  2.8190761455695E+03  2.8190761455587E+03  2.8190761455511E+03  2.8190761455465E+03  1.4095380727725E+03 
 5.6381522861316E+03  1.1276304572290E+04  1.1276304572313E+04  1.1276304572333E+04  1.1276304572350E+04  1.1276304572364E+04  1.1276304572375E+04  1.1276304572383E+04  1.1276304572387E+04  5.6381522861944E+03 
 7.0476903589669E+03  1.4095380717934E+04  1.4095380717934E+04  1.4095380717934E+04  1.4095380717934E+04  1.4095380717934E+04  1.4095380717934E+04  1.4095380717934E+04  1.4095380717934E+04  7.0476903589669E+03 
 4.0000000000000E-01  4.0000000000000E-01  4.0000000000000E-01  4.0000000000000E-01  4.0000000000000E-01  4.0000000000000E-01  4.0000000000000E-01  4.0000000000000E-01  4.0000000000000E-01  4.0000000000000E-01 
 9.4000000000000E-01  1.8800000000000E+00  1.8800000000000E+00  1.8800000000000E+00  1.8800000000000E+00  1.8800000000000E+00  1.8800000000000E+00  1.8800000000000E+00  1.8800000000000E+00  9.4000000000000E-01 
 3.6945115529672E+01  3.6472675435008E+01  3.6057884146352E+01  3.5700012461111E+01  3.5398433581801E+01  3.5152620741578E+01  3.4962145084479E+01  3.4826675736215E+01  3.4745977003191E+01  3.4719908431330E+01 
 5.3333333333333E-06  1.0666666666667E-05  1.0666666666667E-05  1.0666666666667E-05  1.0666666666667E-05  1.0666666666667E-05  1.0666666666667E-05  1.0666666666667E-05  1.0666666666667E-05  5.3333333333333E-06 
 3.0000000000000E-02  3.0000000000000E-02  3.0000000000000E-02  3.0000000000000E-02  3.0000000000000E-02  3.0000000000000E-02  3.0000000000000E-02  3.0000000000000E-02  3.0000000000000E-02  3.0000000000000E-02 
 1.0000000000000E-01  1.0000000000000E-01  1.0000000000000E-01  1.0000000000000E-01  1.0000000000000E-01  1.0000000000000E-01  1.0000000000000E-01  1.0000000000000E-01  1.0000000000000E-01  1.0000000000000E-01 
 1.0956624005687E+01  1.0956624005713E+01  1.0956624005735E+01  1.0956624005755E+01  1.0956624005772E+01  1.0956624005785E+01  1.0956624005795E+01  1.0956624005803E+01  1.0956624005807E+01  1.0956624005809E+01 
 2.7391560039526E+00  2.7391560039267E+00  2.7391560039040E+00  2.7391560038844E+00  2.7391560038679E+00  2.7391560038544E+00  2.7391560038440E+00  2.7391560038365E+00  2.7391560038321E+00  2.7391560038307E+00 
-1.9627794880149E-02 -1.9422688392175E-02 -1.9265188991279E-02 -1.9128521084459E-02 -1.9012788438312E-02 -1.8918075517835E-02 -1.8844448903856E-02 -1.8791959398243E-02 -1.8760642100265E-02 -1.8750579389130E-02 
-6.5422934065385E+05 -6.4739239006029E+05 -6.4214235220134E+05 -6.3758670546507E+05 -6.3372890863948E+05 -6.3057177713877E+05 -6.2811753024868E+05 -6.2636786128482E+05 -6.2532394018538E+05 -6.2498851316787E+05 
 1.9042222842784E-01  9.3756365481029E-01  3.1530687694949E+00  6.7900058368878E+00  1.1811062160704E+01  1.8188206215563E+01  2.5902409433098E+01  3.4943427510505E+01  4.5309632240205E+01  5.0824360999900E+01 
 2.0625704995543E+04  1.8275512281025E+04  1.3900186004974E+04  1.0162242485805E+04  7.0381850640781E+03  4.5083952522649E+03  2.5570039567235E+03  1.1717875377206E+03  3.4408783714376E+02  6.8755607751973E+01 
-6.6110463749659E+05 -6.5348453749671E+05 -6.4677679490178E+05 -6.4097637918451E+05 -6.3607890408720E+05 -6.3208063586415E+05 -6.2897849751318E+05 -6.2677010419520E+05 -6.2545373911491E+05 -6.2502837311174E+05 
 6.6914263959927E+04  6.5224734897969E+04  6.3758842339853E+04  6.2507247334752E+04  6.1461984913900E+04  6.0616408739013E+04  5.9965144722219E+04  5.9504058143264E+04  5.9230221128591E+04  5.9141894895512E+04 