TITLE = "Solution on Domain BulkDomain1D_0"
VARIABLES = "x [m]"  
"Vel_axial" 
"MF_sp(ECDMC)" 
"MF_sp(Li+)" 
"MF_sp(PF6-)" 
"Volt(Electroly)" 
"Volt(AnodeVolt)" 
"Temperature" 
"Potential Drop Electrode-Electrolyte [V]" 
"Surf_0 Equilibrium Potential Drop Electrode-Electrolyte [V]" 
"Overpotential_0 [V]" 
"Current Source [A/m^2]" 
"Li+ flux [kmol/m^2/s]" 
"Electrolyte Current [A/m^2]" 
"Electrode Current [A/m^2]" 
"CV Capacity discharged [A-s/m^2]" 
"Depth of discharge in CV [A-s/m^2]" 
"CV Capacity remaining [A-s/m^2]" 
"Initial CV capacity [A-s/m^2]" 
"Porosity []" 
"Surface Area [m2/m2] (area per area)" 
"Specific current (per particle area) [A/m^2]" 
"Control volume thickness [m]" 
"volFrac AnodeBinder []" 	"volFrac ExtraStuff []" 	"MoleDens Li_C6-bulk [kmol/m^3]" 
"MoleDens V_C6-bulk [kmol/m^3]" 
"qHeat_accum [J/m3]" 
"qHeat_step [W/m3]" 
"Joule_Lyte [W/m3]" 
"Joule_Solid [W/m3]" 
"electrodHeat [W/m3]" 
"OverpotHeat [W/m3]" 
"deltaSHeat [W/m3]" 

ZONE T = "ANOD, 0.0000E+00", I = 10, SOLUTIONTIME = 0.000000E+00
ZONETYPE = ORDERED
DATAPACKING = BLOCK
STRANDID = 1
 0.0000000000000E+00  1.0666666666667E-05  2.1333333333333E-05  3.2000000000000E-05  4.2666666666667E-05  5.3333333333333E-05  6.4000000000000E-05  7.4666666666667E-05  8.5333333333333E-05  9.6000000000000E-05 
 0.0000000000000E+00  0.0000000000000E+00  0.0000000000000E+00  0.0000000000000E+00  0.0000000000000E+00  0.0000000000000E+00  0.0000000000000E+00  0.0000000000000E+00  0.0000000000000E+00  0.0000000000000E+00 
 8.4394680000000E-01  8.4394680000000E-01  8.4394680000000E-01  8.4394680000000E-01  8.4394680000000E-01  8.4394680000000E-01  8.4394680000000E-01  8.4394680000000E-01  8.4394680000000E-01  8.4394680000000E-01 
 7.8026600000000E-02  7.8026600000000E-02  7.8026600000000E-02  7.8026600000000E-02  7.8026600000000E-02  7.8026600000000E-02  7.8026600000000E-02  7.8026600000000E-02  7.8026600000000E-02  7.8026600000000E-02 
 7.8026600000000E-02  7.8026600000000E-02  7.8026600000000E-02  7.8026600000000E-02  7.8026600000000E-02  7.8026600000000E-02  7.8026600000000E-02  7.8026600000000E-02  7.8026600000000E-02  7.8026600000000E-02 
-7.0000000000000E-02 -7.0000000000000E-02 -7.0000000000000E-02 -7.0000000000000E-02 -7.0000000000000E-02 -7.0000000000000E-02 -7.0000000000000E-02 -7.0000000000000E-02 -7.0000000000000E-02 -7.0000000000000E-02 
 0.0000000000000E+00  0.0000000000000E+00  0.0000000000000E+00  0.0000000000000E+00  0.0000000000000E+00  0.0000000000000E+00  0.0000000000000E+00  0.0000000000000E+00  0.0000000000000E+00  0.0000000000000E+00 
 2.9815000000000E+02  2.9815000000000E+02  2.9815000000000E+02  2.9815000000000E+02  2.9815000000000E+02  2.9815000000000E+02  2.9815000000000E+02  2.9815000000000E+02  2.9815000000000E+02  2.9815000000000E+02 
 7.0000000000000E-02  7.0000000000000E-02  7.0000000000000E-02  7.0000000000000E-02  7.0000000000000E-02  7.0000000000000E-02  7.0000000000000E-02  7.0000000000000E-02  7.0000000000000E-02  7.0000000000000E-02 
-2.4231113980254E-02 -2.4231113980254E-02 -2.4231113980254E-02 -2.4231113980254E-02 -2.4231113980254E-02 -2.4231113980254E-02 -2.4231113980254E-02 -2.4231113980254E-02 -2.4231113980254E-02 -2.4231113980254E-02 
 9.4231113980254E-02  9.4231113980254E-02  9.4231113980254E-02  9.4231113980254E-02  9.4231113980254E-02  9.4231113980254E-02  9.4231113980254E-02  9.4231113980254E-02  9.4231113980254E-02  9.4231113980254E-02 
 5.2595956578534E+02  1.0519191315707E+03  1.0519191315707E+03  1.0519191315707E+03  1.0519191315707E+03  1.0519191315707E+03  1.0519191315707E+03  1.0519191315707E+03  1.0519191315707E+03  5.2595956578534E+02 
-0.0000000000000E+00 -0.0000000000000E+00 -0.0000000000000E+00 -0.0000000000000E+00 -0.0000000000000E+00 -0.0000000000000E+00 -0.0000000000000E+00 -0.0000000000000E+00 -0.0000000000000E+00 -0.0000000000000E+00 
 0.0000000000000E+00  0.0000000000000E+00  0.0000000000000E+00  0.0000000000000E+00  0.0000000000000E+00  0.0000000000000E+00  0.0000000000000E+00  0.0000000000000E+00  0.0000000000000E+00  5.2595956578534E+02 
 5.2595956578534E+02 -0.0000000000000E+00 -0.0000000000000E+00 -0.0000000000000E+00 -0.0000000000000E+00 -0.0000000000000E+00 -0.0000000000000E+00 -0.0000000000000E+00 -0.0000000000000E+00  0.0000000000000E+00 
 0.0000000000000E+00  0.0000000000000E+00  0.0000000000000E+00  0.0000000000000E+00  0.0000000000000E+00  0.0000000000000E+00  0.0000000000000E+00  0.0000000000000E+00  0.0000000000000E+00  0.0000000000000E+00 
 1.4095380717934E+03  2.8190761435868E+03  2.8190761435868E+03  2.8190761435868E+03  2.8190761435868E+03  2.8190761435868E+03  2.8190761435868E+03  2.8190761435868E+03  2.8190761435868E+03  1.4095380717934E+03 
 5.6381522871735E+03  1.1276304574347E+04  1.1276304574347E+04  1.1276304574347E+04  1.1276304574347E+04  1.1276304574347E+04  1.1276304574347E+04  1.1276304574347E+04  1.1276304574347E+04  5.6381522871735E+03 
 7.0476903589669E+03  1.4095380717934E+04  1.4095380717934E+04  1.4095380717934E+04  1.4095380717934E+04  1.4095380717934E+04  1.4095380717934E+04  1.4095380717934E+04  1.4095380717934E+04  7.0476903589669E+03 
 4.0000000000000E-01  4.0000000000000E-01  4.0000000000000E-01  4.0000000000000E-01  4.0000000000000E-01  4.0000000000000E-01  4.0000000000000E-01  4.0000000000000E-01  4.0000000000000E-01  4.0000000000000E-01 
 9.4000000000000E-01  1.8800000000000E+00  1.8800000000000E+00  1.8800000000000E+00  1.8800000000000E+00  1.8800000000000E+00  1.8800000000000E+00  1.8800000000000E+00  1.8800000000000E+00  9.4000000000000E-01 
 5.5953145296313E+02  5.5953145296313E+02  5.5953145296313E+02  5.5953145296313E+02  5.5953145296313E+02  5.5953145296313E+02  5.5953145296313E+02  5.5953145296313E+02  5.5953145296313E+02  5.5953145296313E+02 
 5.3333333333333E-06  1.0666666666667E-05  1.0666666666667E-05  1.0666666666667E-05  1.0666666666667E-05  1.0666666666667E-05  1.0666666666667E-05  1.0666666666667E-05  1.0666666666667E-05  5.3333333333333E-06 
 3.0000000000000E-02  3.0000000000000E-02  3.0000000000000E-02  3.0000000000000E-02  3.0000000000000E-02  3.0000000000000E-02  3.0000000000000E-02  3.0000000000000E-02  3.0000000000000E-02  3.0000000000000E-02 
 1.0000000000000E-01  1.0000000000000E-01  1.0000000000000E-01  1.0000000000000E-01  1.0000000000000E-01  1.0000000000000E-01  1.0000000000000E-01  1.0000000000000E-01  1.0000000000000E-01  1.0000000000000E-01 
 1.0956624007712E+01  1.0956624007712E+01  1.0956624007712E+01  1.0956624007712E+01  1.0956624007712E+01  1.0956624007712E+01  1.0956624007712E+01  1.0956624007712E+01  1.0956624007712E+01  1.0956624007712E+01 
 2.7391560019279E+00  2.7391560019279E+00  2.7391560019279E+00  2.7391560019279E+00  2.7391560019279E+00  2.7391560019279E+00  2.7391560019279E+00  2.7391560019279E+00  2.7391560019279E+00  2.7391560019279E+00 
 0.0000000000000E+00  0.0000000000000E+00  0.0000000000000E+00  0.0000000000000E+00  0.0000000000000E+00  0.0000000000000E+00  0.0000000000000E+00  0.0000000000000E+00  0.0000000000000E+00  0.0000000000000E+00 
 0.0000000000000E+00  0.0000000000000E+00  0.0000000000000E+00  0.0000000000000E+00  0.0000000000000E+00  0.0000000000000E+00  0.0000000000000E+00  0.0000000000000E+00  0.0000000000000E+00  0.0000000000000E+00 
 0.0000000000000E+00  0.0000000000000E+00  0.0000000000000E+00  0.0000000000000E+00  0.0000000000000E+00  0.0000000000000E+00  0.0000000000000E+00  0.0000000000000E+00  0.0000000000000E+00  0.0000000000000E+00 
 0.0000000000000E+00  0.0000000000000E+00  0.0000000000000E+00  0.0000000000000E+00  0.0000000000000E+00  0.0000000000000E+00  0.0000000000000E+00  0.0000000000000E+00  0.0000000000000E+00  0.0000000000000E+00 
 0.0000000000000E+00  0.0000000000000E+00  0.0000000000000E+00  0.0000000000000E+00  0.0000000000000E+00  0.0000000000000E+00  0.0000000000000E+00  0.0000000000000E+00  0.0000000000000E+00  0.0000000000000E+00 
 0.0000000000000E+00  0.0000000000000E+00  0.0000000000000E+00  0.0000000000000E+00  0.0000000000000E+00  0.0000000000000E+00  0.0000000000000E+00  0.0000000000000E+00  0.0000000000000E+00  0.0000000000000E+00 
 0.0000000000000E+00  0.0000000000000E+00  0.0000000000000E+00  0.0000000000000E+00  0.0000000000000E+00  0.0000000000000E+00  0.0000000000000E+00  0.0000000000000E+00  0.0000000000000E+00  0.0000000000000E+00 
ZONE T = "ANOD, 1.0000E-08", I = 10, SOLUTIONTIME = 1.000000E-08
ZONETYPE = ORDERED
DATAPACKING = BLOCK
STRANDID = 1
 0.0000000000000E+00  1.0666666666667E-05  2.1333333333333E-05  3.2000000000000E-05  4.2666666666667E-05  5.3333333333333E-05  6.4000000000000E-05  7.4666666666667E-05  8.5333333333333E-05  9.6000000000000E-05 
 1.0618255426873E-08  3.1582690566332E-08  5.2308967686420E-08  7.2829453195827E-08  9.3176592946914E-08  1.1338249653520E-07  1.3347905796616E-07  1.5349769115437E-07  1.7347538379445E-07  1.8354888272811E-07 
 8.4394679988890E-01  8.4394679989032E-01  8.4394679989157E-01  8.4394679989264E-01  8.4394679989355E-01  8.4394679989429E-01  8.4394679989486E-01  8.4394679989527E-01  8.4394679989553E-01  8.4394679992706E-01 
 7.8026600055550E-02  7.8026600054841E-02  7.8026600054217E-02  7.8026600053679E-02  7.8026600053226E-02  7.8026600052856E-02  7.8026600052570E-02  7.8026600052366E-02  7.8026600052236E-02  7.8026600036470E-02 
 7.8026600055550E-02  7.8026600054841E-02  7.8026600054217E-02  7.8026600053679E-02  7.8026600053226E-02  7.8026600052856E-02  7.8026600052570E-02  7.8026600052366E-02  7.8026600052236E-02  7.8026600036470E-02 
 1.3953354764926E-02  1.3953335269211E-02  1.3953277280576E-02  1.3953181236770E-02  1.3953047515333E-02  1.3952876434670E-02  1.3952668253974E-02  1.3952423174440E-02  1.3952141338882E-02  1.3951822832495E-02 
 0.0000000000000E+00 -1.2973559942588E-04 -2.4373406719312E-04 -3.4217435121259E-04 -4.2521084318390E-04 -4.9297364968615E-04 -5.4556881827051E-04 -5.8307852275432E-04 -6.0556120752727E-04 -6.1305168699032E-04 
 2.9814999998227E+02  2.9814999998244E+02  2.9814999994937E+02  2.9814999998268E+02  2.9814999998279E+02  2.9814999998286E+02  2.9814999998293E+02  2.9814999998297E+02  2.9814999998300E+02  2.9814999998301E+02 
-1.3953354764926E-02 -1.4083070868637E-02 -1.4197011347769E-02 -1.4295355587983E-02 -1.4378258358517E-02 -1.4445850084356E-02 -1.4498237072244E-02 -1.4535501697194E-02 -1.4557702546410E-02 -1.4564874519486E-02 
-2.4231113582293E-02 -2.4231113587358E-02 -2.4231113579352E-02 -2.4231113595637E-02 -2.4231113598870E-02 -2.4231113601500E-02 -2.4231113603540E-02 -2.4231113604995E-02 -2.4231113605863E-02 -2.4231113611318E-02 
 1.0277758817367E-02  1.0148042718721E-02  1.0034102231583E-02  9.9357580076543E-03  9.8528552403532E-03  9.7852635171439E-03  9.7328765312955E-03  9.6956119078014E-03  9.6734110594535E-03  9.6662390918327E-03 
 3.4733746541505E+01  6.8579300212788E+01  6.7799486834795E+01  6.7126683271786E+01  6.6559710557836E+01  6.6097578478381E+01  6.5739481579177E+01  6.5484796831442E+01  6.5333081704337E+01  3.2642036408545E+01 
 1.7996832969663E-07  5.3529863117413E-07  8.8658804521511E-07  1.2343923782397E-06  1.5792574785681E-06  1.9217299702263E-06  2.2623452140012E-06  2.6016421469859E-06  2.9402004113880E-06  2.9402004113880E-06 
 0.0000000000000E+00  6.9012382430094E+01  1.3719087370394E+02  2.0464321902380E+02  2.7147571175695E+02  3.3779375956550E+02  4.0370175820809E+02  4.6930335919312E+02  5.3470188197926E+02  6.0000524084520E+02 
 6.0000553952651E+02  5.3098761551756E+02  4.6280910811444E+02  3.9535679876385E+02  3.2852428402943E+02  2.6220624361518E+02  1.9629825345289E+02  1.3069660752599E+02  6.5298130829529E+01  0.0000000000000E+00 
 3.4733746541505E-07  6.8579300212788E-07  6.7799486834795E-07  6.7126683271786E-07  6.6559710557836E-07  6.6097578478381E-07  6.5739481579177E-07  6.5484796831442E-07  6.5333081704337E-07  3.2642036408545E-07 
 1.4095380721407E+03  2.8190761442726E+03  2.8190761442648E+03  2.8190761442580E+03  2.8190761442524E+03  2.8190761442477E+03  2.8190761442442E+03  2.8190761442416E+03  2.8190761442401E+03  1.4095380721198E+03 
 5.6381522868262E+03  1.1276304573661E+04  1.1276304573669E+04  1.1276304573676E+04  1.1276304573681E+04  1.1276304573686E+04  1.1276304573690E+04  1.1276304573692E+04  1.1276304573694E+04  5.6381522868471E+03 
 7.0476903589669E+03  1.4095380717934E+04  1.4095380717934E+04  1.4095380717934E+04  1.4095380717934E+04  1.4095380717934E+04  1.4095380717934E+04  1.4095380717934E+04  1.4095380717934E+04  7.0476903589669E+03 
 4.0000000000000E-01  4.0000000000000E-01  4.0000000000000E-01  4.0000000000000E-01  4.0000000000000E-01  4.0000000000000E-01  4.0000000000000E-01  4.0000000000000E-01  4.0000000000000E-01  4.0000000000000E-01 
 9.4000000000000E-01  1.8800000000000E+00  1.8800000000000E+00  1.8800000000000E+00  1.8800000000000E+00  1.8800000000000E+00  1.8800000000000E+00  1.8800000000000E+00  1.8800000000000E+00  9.4000000000000E-01 
 3.6950794193091E+01  3.6478351177015E+01  3.6063556827019E+01  3.5705682591375E+01  3.5404101360551E+01  3.5158286424671E+01  3.4967809350626E+01  3.4832338740129E+01  3.4751639204434E+01  3.4725570647389E+01 
 5.3333333333333E-06  1.0666666666667E-05  1.0666666666667E-05  1.0666666666667E-05  1.0666666666667E-05  1.0666666666667E-05  1.0666666666667E-05  1.0666666666667E-05  1.0666666666667E-05  5.3333333333333E-06 
 3.0000000000000E-02  3.0000000000000E-02  3.0000000000000E-02  3.0000000000000E-02  3.0000000000000E-02  3.0000000000000E-02  3.0000000000000E-02  3.0000000000000E-02  3.0000000000000E-02  3.0000000000000E-02 
 1.0000000000000E-01  1.0000000000000E-01  1.0000000000000E-01  1.0000000000000E-01  1.0000000000000E-01  1.0000000000000E-01  1.0000000000000E-01  1.0000000000000E-01  1.0000000000000E-01  1.0000000000000E-01 
 1.0956624007037E+01  1.0956624007045E+01  1.0956624007053E+01  1.0956624007059E+01  1.0956624007065E+01  1.0956624007069E+01  1.0956624007073E+01  1.0956624007075E+01  1.0956624007077E+01  1.0956624007077E+01 
 2.7391560026029E+00  2.7391560025942E+00  2.7391560025867E+00  2.7391560025801E+00  2.7391560025746E+00  2.7391560025701E+00  2.7391560025666E+00  2.7391560025642E+00  2.7391560025627E+00  2.7391560025622E+00 
-6.5432080012620E-03 -6.4748405452103E-03 -6.4223418698689E-03 -6.3767869167566E-03 -6.3382102085311E-03 -6.3066399020484E-03 -6.2820982604479E-03 -6.2646021179581E-03 -6.2541632255234E-03 -6.2508091080638E-03 
-6.5432080012620E+05 -6.4748405452103E+05 -6.4223418698689E+05 -6.3767869167566E+05 -6.3382102085311E+05 -6.3066399020484E+05 -6.2820982604479E+05 -6.2646021179581E+05 -6.2541632255234E+05 -6.2508091080638E+05 
 6.3473528625780E-02  3.1251928742351E-01  1.0510171199859E+00  2.2633259336661E+00  3.9370066287095E+00  6.0627205720624E+00  8.6341223563031E+00  1.1647795862349E+01  1.5103203994321E+01  1.6941450416263E+01 
 6.8752382720110E+03  6.0918424581508E+03  4.6334026620234E+03  3.3874217504140E+03  2.3460682663954E+03  1.5028033339408E+03  8.5233774471304E+02  3.9059736162890E+02  1.1469641026776E+02  2.2918630541248E+01 
-6.6119610187174E+05 -6.5357620949847E+05 -6.4686864066604E+05 -6.4106837675200E+05 -6.3617102612613E+05 -6.3217285625936E+05 -6.2907079791186E+05 -6.2686245695330E+05 -6.2554612216660E+05 -6.2512077088733E+05 
 6.6934700702340E+04  6.5244906507915E+04  6.3778779689962E+04  6.2526982690445E+04  6.1481549449901E+04  6.0635833538105E+04  5.9984461741849E+04  5.9523297850129E+04  5.9249414646624E+04  5.9161074142745E+04 
-7.2813080257408E+05 -7.1882111600638E+05 -7.1064742035600E+05 -7.0359535944245E+05 -6.9765257557603E+05 -6.9280868979746E+05 -6.8905525965371E+05 -6.8638575480343E+05 -6.8479553681323E+05 -6.8428184503008E+05 
ZONE T = "ANOD, 2.0000E-08", I = 10, SOLUTIONTIME = 2.000000E-08
ZONETYPE = ORDERED
DATAPACKING = BLOCK
STRANDID = 1
 0.0000000000000E+00  1.0666666666667E-05  2.1333333333333E-05  3.2000000000000E-05  4.2666666666667E-05  5.3333333333333E-05  6.4000000000000E-05  7.4666666666667E-05  8.5333333333333E-05  9.6000000000000E-05 
 1.0618565191569E-08  3.1583090124903E-08  5.2309143704467E-08  7.2829613630808E-08  9.3176559915950E-08  1.1338232305679E-07  1.3347878639338E-07  1.5349699297888E-07  1.7348010903102E-07  1.8364666159166E-07 
 8.4394679977780E-01  8.4394679978064E-01  8.4394679978313E-01  8.4394679978528E-01  8.4394679978710E-01  8.4394679978858E-01  8.4394679978972E-01  8.4394679979054E-01  8.4394679979107E-01  8.4394679985454E-01 
 7.8026600111100E-02  7.8026600109682E-02  7.8026600108435E-02  7.8026600107358E-02  7.8026600106452E-02  7.8026600105712E-02  7.8026600105140E-02  7.8026600104732E-02  7.8026600104463E-02  7.8026600072732E-02 
 7.8026600111100E-02  7.8026600109682E-02  7.8026600108435E-02  7.8026600107358E-02  7.8026600106452E-02  7.8026600105712E-02  7.8026600105140E-02  7.8026600104732E-02  7.8026600104463E-02  7.8026600072732E-02 
 1.3954913129080E-02  1.3954893633244E-02  1.3954835644347E-02  1.3954739600157E-02  1.3954605878370E-02  1.3954434797271E-02  1.3954226616289E-02  1.3953981536452E-02  1.3953699700732E-02  1.3953381194299E-02 
 0.0000000000000E+00 -1.2973555314806E-04 -2.4373391149073E-04 -3.4217404886148E-04 -4.2521037935409E-04 -4.9297302793695E-04 -5.4556805774124E-04 -5.8307765494180E-04 -6.0556027176463E-04 -6.1305072806261E-04 
 2.9814999996580E+02  2.9814999996614E+02  2.9814999993322E+02  2.9814999996663E+02  2.9814999996683E+02  2.9814999996699E+02  2.9814999996712E+02  2.9814999996721E+02  2.9814999996725E+02  2.9814999996729E+02 
-1.3954913129080E-02 -1.4084629186392E-02 -1.4198569555837E-02 -1.4296913649018E-02 -1.4379816257724E-02 -1.4447407825208E-02 -1.4499794674030E-02 -1.4537059191393E-02 -1.4559259972497E-02 -1.4566431922362E-02 
-2.4231113184867E-02 -2.4231113194997E-02 -2.4231113191435E-02 -2.4231113211547E-02 -2.4231113218011E-02 -2.4231113223279E-02 -2.4231113227361E-02 -2.4231113230265E-02 -2.4231113231998E-02 -2.4231113242986E-02 
 1.0276200055788E-02  1.0146484008605E-02  1.0032543635597E-02  9.9341995625287E-03  9.8512969602874E-03  9.7837053980711E-03  9.7313185533302E-03  9.6940540388721E-03  9.6718532595013E-03  9.6646813206240E-03 
 3.4728408652398E+01  6.8568630071937E+01  6.7788822060954E+01  6.7116023445627E+01  6.6549055130736E+01  6.6086926797373E+01  6.5728832900127E+01  6.5474150340113E+01  6.5322436540994E+01  3.2636714059738E+01 
 1.7997159844983E-07  5.3530294914780E-07  8.8659322897193E-07  1.2343969813798E-06  1.5792626325680E-06  1.9217334764295E-06  2.2623486326097E-06  2.6016440713587E-06  2.9402493614952E-06  2.9402493614952E-06 
 0.0000000000000E+00  6.9012723687956E+01  1.3719144975448E+02  2.0464387250797E+02  2.7147641179563E+02  3.3779440276132E+02  4.0370228261005E+02  4.6930377422888E+02  5.3470206766951E+02  6.0000000000031E+02 
 6.0000000000000E+02  5.3098727631163E+02  4.6280855024518E+02  3.9535612749189E+02  3.2852358820371E+02  2.6220559723965E+02  1.9629771739090E+02  1.3069622577078E+02  6.5297932330229E+01  0.0000000000000E+00 
 6.9462155193904E-07  1.3714793028472E-06  1.3558830889575E-06  1.3424270671741E-06  1.3310876568857E-06  1.3218450527575E-06  1.3146831447930E-06  1.3095894717155E-06  1.3065551824533E-06  6.5278750468283E-07 
 1.4095380724880E+03  2.8190761449582E+03  2.8190761449426E+03  2.8190761449292E+03  2.8190761449179E+03  2.8190761449086E+03  2.8190761449015E+03  2.8190761448964E+03  2.8190761448933E+03  1.4095380724462E+03 
 5.6381522864789E+03  1.1276304572976E+04  1.1276304572991E+04  1.1276304573005E+04  1.1276304573016E+04  1.1276304573025E+04  1.1276304573032E+04  1.1276304573037E+04  1.1276304573041E+04  5.6381522865207E+03 
 7.0476903589669E+03  1.4095380717934E+04  1.4095380717934E+04  1.4095380717934E+04  1.4095380717934E+04  1.4095380717934E+04  1.4095380717934E+04  1.4095380717934E+04  1.4095380717934E+04  7.0476903589669E+03 
 4.0000000000000E-01  4.0000000000000E-01  4.0000000000000E-01  4.0000000000000E-01  4.0000000000000E-01  4.0000000000000E-01  4.0000000000000E-01  4.0000000000000E-01  4.0000000000000E-01  4.0000000000000E-01 
 9.4000000000000E-01  1.8800000000000E+00  1.8800000000000E+00  1.8800000000000E+00  1.8800000000000E+00  1.8800000000000E+00  1.8800000000000E+00  1.8800000000000E+00  1.8800000000000E+00  9.4000000000000E-01 
 3.6945115587658E+01  3.6472675570179E+01  3.6057884074976E+01  3.5700012471079E+01  3.5398433580179E+01  3.5152620636900E+01  3.4962145159642E+01  3.4826675712826E+01  3.4745976883507E+01  3.4719908574189E+01 
 5.3333333333333E-06  1.0666666666667E-05  1.0666666666667E-05  1.0666666666667E-05  1.0666666666667E-05  1.0666666666667E-05  1.0666666666667E-05  1.0666666666667E-05  1.0666666666667E-05  5.3333333333333E-06 
 3.0000000000000E-02  3.0000000000000E-02  3.0000000000000E-02  3.0000000000000E-02  3.0000000000000E-02  3.0000000000000E-02  3.0000000000000E-02  3.0000000000000E-02  3.0000000000000E-02  3.0000000000000E-02 
 1.0000000000000E-01  1.0000000000000E-01  1.0000000000000E-01  1.0000000000000E-01  1.0000000000000E-01  1.0000000000000E-01  1.0000000000000E-01  1.0000000000000E-01  1.0000000000000E-01  1.0000000000000E-01 
 1.0956624006362E+01  1.0956624006379E+01  1.0956624006394E+01  1.0956624006407E+01  1.0956624006418E+01  1.0956624006427E+01  1.0956624006434E+01  1.0956624006439E+01  1.0956624006442E+01  1.0956624006443E+01 
 2.7391560032777E+00  2.7391560032605E+00  2.7391560032453E+00  2.7391560032323E+00  2.7391560032212E+00  2.7391560032123E+00  2.7391560032053E+00  2.7391560032004E+00  2.7391560031974E+00  2.7391560031965E+00 
-1.3085501420591E-02 -1.2948764472716E-02 -1.2843765382001E-02 -1.2752653976271E-02 -1.2675499297852E-02 -1.2612357657941E-02 -1.2563273579852E-02 -1.2528280730065E-02 -1.2507402609340E-02 -1.2500694268955E-02 
-6.5422934193294E+05 -6.4739239275060E+05 -6.4214235121319E+05 -6.3758670595148E+05 -6.3372890893209E+05 -6.3057177558922E+05 -6.2811753194044E+05 -6.2636786121066E+05 -6.2532393838171E+05 -6.2498851608912E+05 
 1.2694784344412E-01  6.2504150885374E-01  2.1020429451335E+00  4.5266658316991E+00  7.8740335302774E+00  1.2125463540448E+01  1.7268267043798E+01  2.3295611786149E+01  3.0206418070384E+01  3.3882905688331E+01 
 1.3750471639107E+04  1.2183677368388E+04  9.2667943317384E+03  6.7748321268433E+03  4.6921266845076E+03  3.0055993151830E+03  1.7046708640957E+03  7.8119245544278E+02  2.2939212562492E+02  4.5837119326304E+01 
-6.6110463877436E+05 -6.5348454018306E+05 -6.4677679390873E+05 -6.4097637966781E+05 -6.3607890437710E+05 -6.3208063431344E+05 -6.2897849920451E+05 -6.2677010412040E+05 -6.2545373731114E+05 -6.2502837603318E+05 
 6.6914264168704E+04  6.5224735289539E+04  6.3758842175858E+04  6.2507247369237E+04  6.1461984908035E+04  6.0616408462462E+04  5.9965144896309E+04  5.9504058063306E+04  5.9230220803214E+04  5.9141895211760E+04 
-7.2801890294306E+05 -7.1870927547260E+05 -7.1053563608459E+05 -7.0348362703705E+05 -6.9754088928514E+05 -6.9269704277590E+05 -6.8894364410082E+05 -6.8627416218370E+05 -6.8468395811435E+05 -6.8417027124494E+05 
ZONE T = "ANOD, 3.0000E-08", I = 10, SOLUTIONTIME = 3.000000E-08
ZONETYPE = ORDERED
DATAPACKING = BLOCK
STRANDID = 1
 0.0000000000000E+00  1.0666666666667E-05  2.1333333333333E-05  3.2000000000000E-05  4.2666666666667E-05  5.3333333333333E-05  6.4000000000000E-05  7.4666666666667E-05  8.5333333333333E-05  9.6000000000000E-05 
 1.0618781909716E-08  3.1583573191504E-08  5.2309745340826E-08  7.2830063167130E-08  9.3177235428034E-08  1.1338290030057E-07  1.3347928502441E-07  1.5349760675058E-07  1.7348635056231E-07  1.8374457882702E-07 
 8.4394679966670E-01  8.4394679967095E-01  8.4394679967470E-01  8.4394679967792E-01  8.4394679968065E-01  8.4394679968286E-01  8.4394679968458E-01  8.4394679968580E-01  8.4394679968664E-01  8.4394679978242E-01 
 7.8026600166649E-02  7.8026600164523E-02  7.8026600162652E-02  7.8026600161038E-02  7.8026600159677E-02  7.8026600158569E-02  7.8026600157710E-02  7.8026600157098E-02  7.8026600156682E-02  7.8026600108790E-02 
 7.8026600166649E-02  7.8026600164523E-02  7.8026600162652E-02  7.8026600161038E-02  7.8026600159677E-02  7.8026600158569E-02  7.8026600157710E-02  7.8026600157098E-02  7.8026600156682E-02  7.8026600108790E-02 
 1.3954912747602E-02  1.3954893251766E-02  1.3954835262869E-02  1.3954739218679E-02  1.3954605496893E-02  1.3954434415794E-02  1.3954226234812E-02  1.3953981154975E-02  1.3953699319256E-02  1.3953380812823E-02 
 0.0000000000000E+00 -1.2973555316057E-04 -2.4373391153286E-04 -3.4217404894343E-04 -4.2521037948014E-04 -4.9297302810637E-04 -5.4556805794931E-04 -5.8307765518064E-04 -6.0556027202416E-04 -6.1305072833141E-04 
 2.9814999994933E+02  2.9814999994984E+02  2.9814999991706E+02  2.9814999995058E+02  2.9814999995088E+02  2.9814999995112E+02  2.9814999995131E+02  2.9814999995144E+02  2.9814999995152E+02  2.9814999995158E+02 
-1.3954912747602E-02 -1.4084628804927E-02 -1.4198569174402E-02 -1.4296913267623E-02 -1.4379815876373E-02 -1.4447407443900E-02 -1.4499794292762E-02 -1.4537058810156E-02 -1.4559259591280E-02 -1.4566431541155E-02 
-2.4231112787441E-02 -2.4231112802632E-02 -2.4231112803522E-02 -2.4231112827459E-02 -2.4231112837158E-02 -2.4231112845051E-02 -2.4231112851174E-02 -2.4231112855531E-02 -2.4231112858141E-02 -2.4231112874728E-02 
 1.0276200039839E-02  1.0146483997705E-02  1.0032543629120E-02  9.9341995598368E-03  9.8512969607852E-03  9.7837054011504E-03  9.7313185584127E-03  9.6940540453754E-03  9.6718532668612E-03  9.6646813335730E-03 
 3.4728408597871E+01  6.8568629997371E+01  6.7788822016545E+01  6.7116023427004E+01  6.6549055133819E+01  6.6086926818029E+01  6.5728832934432E+01  6.5474150384029E+01  6.5322436590725E+01  3.2636714100168E+01 
 1.7997374977622E-07  5.3530484422641E-07  8.8659486375593E-07  1.2343983587310E-06  1.5792637549984E-06  1.9217343461037E-06  2.2623492511573E-06  2.6016445202625E-06  2.9402984841101E-06  2.9402984841101E-06 
 0.0000000000000E+00  6.9012723595793E+01  1.3719144960390E+02  2.0464387232518E+02  2.7147641160564E+02  3.3779440258177E+02  4.0370228245737E+02  4.6930377411671E+02  5.3470206760536E+02  6.0000000000208E+02 
 6.0000000000000E+02  5.3098727640344E+02  4.6280855039647E+02  3.9535612767469E+02  3.2852358839427E+02  2.6220559741834E+02  1.9629771754211E+02  1.3069622588288E+02  6.5297932395512E+01  0.0000000000000E+00 
 1.0419056379177E-06  2.0571656028210E-06  2.0337713091229E-06  2.0135873014442E-06  1.9965782082239E-06  1.9827143209378E-06  1.9719714741373E-06  1.9643309755558E-06  1.9597795483606E-06  9.7915464568451E-07 
 1.4095380728353E+03  2.8190761456439E+03  2.8190761456205E+03  2.8190761456004E+03  2.8190761455833E+03  2.8190761455695E+03  2.8190761455587E+03  2.8190761455511E+03  2.8190761455465E+03  1.4095380727725E+03 
 5.6381522861316E+03  1.1276304572290E+04  1.1276304572313E+04  1.1276304572333E+04  1.1276304572350E+04  1.1276304572364E+04  1.1276304572375E+04  1.1276304572383E+04  1.1276304572387E+04  5.6381522861944E+03 
 7.0476903589669E+03  1.4095380717934E+04  1.4095380717934E+04  1.4095380717934E+04  1.4095380717934E+04  1.4095380717934E+04  1.4095380717934E+04  1.4095380717934E+04  1.4095380717934E+04  7.0476903589669E+03 
 4.0000000000000E-01  4.0000000000000E-01  4.0000000000000E-01  4.0000000000000E-01  4.0000000000000E-01  4.0000000000000E-01  4.0000000000000E-01  4.0000000000000E-01  4.0000000000000E-01  4.0000000000000E-01 
 9.4000000000000E-01  1.8800000000000E+00  1.8800000000000E+00  1.8800000000000E+00  1.8800000000000E+00  1.8800000000000E+00  1.8800000000000E+00  1.8800000000000E+00  1.8800000000000E+00  9.4000000000000E-01 
 3.6945115529650E+01  3.6472675530517E+01  3.6057884051354E+01  3.5700012461172E+01  3.5398433581819E+01  3.5152620647888E+01  3.4962145177889E+01  3.4826675736186E+01  3.4745976909960E+01  3.4719908617200E+01 
 5.3333333333333E-06  1.0666666666667E-05  1.0666666666667E-05  1.0666666666667E-05  1.0666666666667E-05  1.0666666666667E-05  1.0666666666667E-05  1.0666666666667E-05  1.0666666666667E-05  5.3333333333333E-06 
 3.0000000000000E-02  3.0000000000000E-02  3.0000000000000E-02  3.0000000000000E-02  3.0000000000000E-02  3.0000000000000E-02  3.0000000000000E-02  3.0000000000000E-02  3.0000000000000E-02  3.0000000000000E-02 
 1.0000000000000E-01  1.0000000000000E-01  1.0000000000000E-01  1.0000000000000E-01  1.0000000000000E-01  1.0000000000000E-01  1.0000000000000E-01  1.0000000000000E-01  1.0000000000000E-01  1.0000000000000E-01 
 1.0956624005687E+01  1.0956624005713E+01  1.0956624005735E+01  1.0956624005755E+01  1.0956624005772E+01  1.0956624005785E+01  1.0956624005795E+01  1.0956624005803E+01  1.0956624005807E+01  1.0956624005809E+01 
 2.7391560039526E+00  2.7391560039267E+00  2.7391560039040E+00  2.7391560038844E+00  2.7391560038679E+00  2.7391560038544E+00  2.7391560038440E+00  2.7391560038365E+00  2.7391560038321E+00  2.7391560038307E+00 
-1.9627794827128E-02 -1.9422688390444E-02 -1.9265188887001E-02 -1.9128521030932E-02 -1.9012788384249E-02 -1.8918075412480E-02 -1.8844448899129E-02 -1.8791959342909E-02 -1.8760641994420E-02 -1.8750579434080E-02 
-6.5422934065362E+05 -6.4739239177280E+05 -6.4214235049999E+05 -6.3758670546604E+05 -6.3372890863970E+05 -6.3057177545397E+05 -6.2811753192766E+05 -6.2636786128444E+05 -6.2532393850795E+05 -6.2498851651246E+05 
 1.9042215799973E-01  9.3756372922753E-01  3.1530687671534E+00  6.7900057239079E+00  1.1811060423218E+01  1.8188206497579E+01  2.5902411717923E+01  3.4943427695152E+01  4.5309632131827E+01  5.0824360946511E+01 
 2.0625705007530E+04  1.8275512280668E+04  1.3900186004434E+04  1.0162242506369E+04  7.0381851053160E+03  4.5083952984561E+03  2.5570039847800E+03  1.1717875499180E+03  3.4408784120049E+02  6.8755608168117E+01 
-6.6110463749636E+05 -6.5348453920730E+05 -6.4677679319851E+05 -6.4097637918546E+05 -6.3607890408740E+05 -6.3208063418020E+05 -6.2897849919302E+05 -6.2677010419483E+05 -6.2545373743759E+05 -6.2502837645656E+05 
 6.6914263959792E+04  6.5224735148540E+04  6.3758842092908E+04  6.2507247334972E+04  6.1461984913993E+04  6.0616408500493E+04  5.9965144958950E+04  5.9504058143120E+04  5.9230220893361E+04  5.9141895363852E+04 