TITLE = "Solution on Domain BulkDomain1D_0"
VARIABLES = "x [m]"  
"Vel_axial" 
"MF_sp(ECDMC)" 
"MF_sp(Li+)" 
"MF_sp(PF6-)" 
"Volt(Electroly)" 
"Volt(AnodeVolt)" 
"Temperature" 
"Potential Drop Electrode-Electrolyte [V]" 
"Surf_0 Equilibrium Potential Drop Electrode-Electrolyte [V]" 
"Overpotential_0 [V]" 
"Current Source [A/m^2]" 
"Li+ flux [kmol/m^2/s]" 
"Electrolyte Current [A/m^2]" 
"Electrode Current [A/m^2]" 
"CV Capacity discharged [A-s/m^2]" 
"Depth of discharge in CV [A-s/m^2]" 
"CV Capacity remaining [A-s/m^2]" 
"Initial CV capacity [A-s/m^2]" 
"Porosity []" 
"Surface Area [m2/m2] (area per area)" 
"Specific current (per particle area) [A/m^2]" 
"Control volume thickness [m]" 
"MoleDens Li_C6-bulk [kmol/m^3]" 
"MoleDens V_C6-bulk [kmol/m^3]" 
"qHeat_accum [J/m3]" 
"qHeat_step [W/m3]" 
"Joule_Lyte [W/m3]" 
"Joule_Solid [W/m3]" 
"electrodHeat [W/m3]" 
"OverpotHeat [W/m3]" 
"deltaSHeat [W/m3]" 

ZONE T = "ANOD, 0.0000E+00", I = 10, SOLUTIONTIME = 0.000000E+00
ZONETYPE = ORDERED
DATAPACKING = BLOCK
STRANDID = 1
 0.0000000000000E+00  1.0666666666667E-05  2.1333333333333E-05  3.2000000000000E-05  4.2666666666667E-05  5.3333333333333E-05  6.4000000000000E-05  7.4666666666667E-05  8.5333333333333E-05  9.6000000000000E-05 
 0.0000000000000E+00  0.0000000000000E+00  0.0000000000000E+00  0.0000000000000E+00  0.0000000000000E+00  0.0000000000000E+00  0.0000000000000E+00  0.0000000000000E+00  0.0000000000000E+00  0.0000000000000E+00 
 8.4394680000000E-01  8.4394680000000E-01  8.4394680000000E-01  8.4394680000000E-01  8.4394680000000E-01  8.4394680000000E-01  8.4394680000000E-01  8.4394680000000E-01  8.4394680000000E-01  8.4394680000000E-01 
 7.8026600000000E-02  7.8026600000000E-02  7.8026600000000E-02  7.8026600000000E-02  7.8026600000000E-02  7.8026600000000E-02  7.8026600000000E-02  7.8026600000000E-02  7.8026600000000E-02  7.8026600000000E-02 
 7.8026600000000E-02  7.8026600000000E-02  7.8026600000000E-02  7.8026600000000E-02  7.8026600000000E-02  7.8026600000000E-02  7.8026600000000E-02  7.8026600000000E-02  7.8026600000000E-02  7.8026600000000E-02 
-7.0000000000000E-02 -7.0000000000000E-02 -7.0000000000000E-02 -7.0000000000000E-02 -7.0000000000000E-02 -7.0000000000000E-02 -7.0000000000000E-02 -7.0000000000000E-02 -7.0000000000000E-02 -7.0000000000000E-02 
 0.0000000000000E+00  0.0000000000000E+00  0.0000000000000E+00  0.0000000000000E+00  0.0000000000000E+00  0.0000000000000E+00  0.0000000000000E+00  0.0000000000000E+00  0.0000000000000E+00  0.0000000000000E+00 
 2.9815000000000E+02  2.9815000000000E+02  2.9815000000000E+02  2.9815000000000E+02  2.9815000000000E+02  2.9815000000000E+02  2.9815000000000E+02  2.9815000000000E+02  2.9815000000000E+02  2.9815000000000E+02 
 7.0000000000000E-02  7.0000000000000E-02  7.0000000000000E-02  7.0000000000000E-02  7.0000000000000E-02  7.0000000000000E-02  7.0000000000000E-02  7.0000000000000E-02  7.0000000000000E-02  7.0000000000000E-02 
-2.4231251306822E-02 -2.4231251306822E-02 -2.4231251306822E-02 -2.4231251306822E-02 -2.4231251306820E-02 -2.4231251306822E-02 -2.4231251306822E-02 -2.4231251306820E-02 -2.4231251306820E-02 -2.4231251306820E-02 
 9.4231251306822E-02  9.4231251306822E-02  9.4231251306822E-02  9.4231251306822E-02  9.4231251306820E-02  9.4231251306822E-02  9.4231251306822E-02  9.4231251306820E-02  9.4231251306820E-02  9.4231251306820E-02 
 5.2596104508283E+02  1.0519220901657E+03  1.0519220901657E+03  1.0519220901657E+03  1.0519220901656E+03  1.0519220901657E+03  1.0519220901657E+03  1.0519220901656E+03  1.0519220901656E+03  5.2596104508281E+02 
-0.0000000000000E+00 -0.0000000000000E+00 -0.0000000000000E+00 -0.0000000000000E+00 -0.0000000000000E+00 -0.0000000000000E+00 -0.0000000000000E+00 -0.0000000000000E+00 -0.0000000000000E+00 -0.0000000000000E+00 
 0.0000000000000E+00  0.0000000000000E+00  0.0000000000000E+00  0.0000000000000E+00  0.0000000000000E+00  0.0000000000000E+00  0.0000000000000E+00  0.0000000000000E+00  0.0000000000000E+00  5.2596104508281E+02 
 5.2596104508283E+02 -0.0000000000000E+00 -0.0000000000000E+00 -0.0000000000000E+00 -0.0000000000000E+00 -0.0000000000000E+00 -0.0000000000000E+00 -0.0000000000000E+00 -0.0000000000000E+00  0.0000000000000E+00 
 0.0000000000000E+00  0.0000000000000E+00  0.0000000000000E+00  0.0000000000000E+00  0.0000000000000E+00  0.0000000000000E+00  0.0000000000000E+00  0.0000000000000E+00  0.0000000000000E+00  0.0000000000000E+00 
 1.4095380717934E+03  2.8190761435868E+03  2.8190761435868E+03  2.8190761435868E+03  2.8190761435868E+03  2.8190761435868E+03  2.8190761435868E+03  2.8190761435868E+03  2.8190761435868E+03  1.4095380717934E+03 
 5.6381522871735E+03  1.1276304574347E+04  1.1276304574347E+04  1.1276304574347E+04  1.1276304574347E+04  1.1276304574347E+04  1.1276304574347E+04  1.1276304574347E+04  1.1276304574347E+04  5.6381522871735E+03 
 7.0476903589669E+03  1.4095380717934E+04  1.4095380717934E+04  1.4095380717934E+04  1.4095380717934E+04  1.4095380717934E+04  1.4095380717934E+04  1.4095380717934E+04  1.4095380717934E+04  7.0476903589669E+03 
 4.0000000000000E-01  4.0000000000000E-01  4.0000000000000E-01  4.0000000000000E-01  4.0000000000000E-01  4.0000000000000E-01  4.0000000000000E-01  4.0000000000000E-01  4.0000000000000E-01  4.0000000000000E-01 
 9.4000000000000E-01  1.8800000000000E+00  1.8800000000000E+00  1.8800000000000E+00  1.8800000000000E+00  1.8800000000000E+00  1.8800000000000E+00  1.8800000000000E+00  1.8800000000000E+00  9.4000000000000E-01 
 5.5953302668386E+02  5.5953302668386E+02  5.5953302668386E+02  5.5953302668386E+02  5.5953302668385E+02  5.5953302668386E+02  5.5953302668386E+02  5.5953302668385E+02  5.5953302668385E+02  5.5953302668385E+02 
 5.3333333333333E-06  1.0666666666667E-05  1.0666666666667E-05  1.0666666666667E-05  1.0666666666667E-05  1.0666666666667E-05  1.0666666666667E-05  1.0666666666667E-05  1.0666666666667E-05  5.3333333333333E-06 
 1.0956624007712E+01  1.0956624007712E+01  1.0956624007712E+01  1.0956624007712E+01  1.0956624007712E+01  1.0956624007712E+01  1.0956624007712E+01  1.0956624007712E+01  1.0956624007712E+01  1.0956624007712E+01 
 2.7391560019279E+00  2.7391560019279E+00  2.7391560019279E+00  2.7391560019279E+00  2.7391560019279E+00  2.7391560019279E+00  2.7391560019279E+00  2.7391560019279E+00  2.7391560019279E+00  2.7391560019279E+00 
 0.0000000000000E+00  0.0000000000000E+00  0.0000000000000E+00  0.0000000000000E+00  0.0000000000000E+00  0.0000000000000E+00  0.0000000000000E+00  0.0000000000000E+00  0.0000000000000E+00  0.0000000000000E+00 
 0.0000000000000E+00  0.0000000000000E+00  0.0000000000000E+00  0.0000000000000E+00  0.0000000000000E+00  0.0000000000000E+00  0.0000000000000E+00  0.0000000000000E+00  0.0000000000000E+00  0.0000000000000E+00 
 0.0000000000000E+00  0.0000000000000E+00  0.0000000000000E+00  0.0000000000000E+00  0.0000000000000E+00  0.0000000000000E+00  0.0000000000000E+00  0.0000000000000E+00  0.0000000000000E+00  0.0000000000000E+00 
 0.0000000000000E+00  0.0000000000000E+00  0.0000000000000E+00  0.0000000000000E+00  0.0000000000000E+00  0.0000000000000E+00  0.0000000000000E+00  0.0000000000000E+00  0.0000000000000E+00  0.0000000000000E+00 
 0.0000000000000E+00  0.0000000000000E+00  0.0000000000000E+00  0.0000000000000E+00  0.0000000000000E+00  0.0000000000000E+00  0.0000000000000E+00  0.0000000000000E+00  0.0000000000000E+00  0.0000000000000E+00 
 0.0000000000000E+00  0.0000000000000E+00  0.0000000000000E+00  0.0000000000000E+00  0.0000000000000E+00  0.0000000000000E+00  0.0000000000000E+00  0.0000000000000E+00  0.0000000000000E+00  0.0000000000000E+00 
 0.0000000000000E+00  0.0000000000000E+00  0.0000000000000E+00  0.0000000000000E+00  0.0000000000000E+00  0.0000000000000E+00  0.0000000000000E+00  0.0000000000000E+00  0.0000000000000E+00  0.0000000000000E+00 
ZONE T = "ANOD, 1.0000E-08", I = 10, SOLUTIONTIME = 1.000000E-08
ZONETYPE = ORDERED
DATAPACKING = BLOCK
STRANDID = 1
 0.0000000000000E+00  1.0666666666667E-05  2.1333333333333E-05  3.2000000000000E-05  4.2666666666667E-05  5.3333333333333E-05  6.4000000000000E-05  7.4666666666667E-05  8.5333333333333E-05  9.6000000000000E-05 
 1.0618292661281E-08  3.1582907192142E-08  5.2309090029927E-08  7.2829686667702E-08  9.3176940948656E-08  1.1338290667035E-07  1.3347943072913E-07  1.5349811818387E-07  1.7347589918882E-07  1.8354937611729E-07 
 8.4394679988890E-01  8.4394679989032E-01  8.4394679989157E-01  8.4394679989264E-01  8.4394679989355E-01  8.4394679989429E-01  8.4394679989486E-01  8.4394679989527E-01  8.4394679989553E-01  8.4394679992706E-01 
 7.8026600055550E-02  7.8026600054841E-02  7.8026600054217E-02  7.8026600053679E-02  7.8026600053226E-02  7.8026600052856E-02  7.8026600052570E-02  7.8026600052366E-02  7.8026600052236E-02  7.8026600036470E-02 
 7.8026600055550E-02  7.8026600054841E-02  7.8026600054217E-02  7.8026600053679E-02  7.8026600053226E-02  7.8026600052856E-02  7.8026600052570E-02  7.8026600052366E-02  7.8026600052236E-02  7.8026600036470E-02 
 1.3953491978306E-02  1.3953472482584E-02  1.3953414493955E-02  1.3953318450125E-02  1.3953184728734E-02  1.3953013648022E-02  1.3952805467381E-02  1.3952560387808E-02  1.3952278552254E-02  1.3951960045877E-02 
 0.0000000000000E+00 -1.2973559947177E-04 -2.4373406765972E-04 -3.4217435203583E-04 -4.2521084455166E-04 -4.9297365145259E-04 -5.4556882048301E-04 -5.8307852591167E-04 -6.0556121054566E-04 -6.1305168973918E-04 
 2.9814999992782E+02  2.9814999998242E+02  2.9814999998257E+02  2.9814999998269E+02  2.9814999998279E+02  2.9814999998286E+02  2.9814999998292E+02  2.9814999998287E+02  2.9815000003744E+02  2.9814999998303E+02 
-1.3953491978306E-02 -1.4083208082056E-02 -1.4197148561615E-02 -1.4295492802161E-02 -1.4378395573286E-02 -1.4445987299475E-02 -1.4498374287864E-02 -1.4535638913720E-02 -1.4557839762800E-02 -1.4565011735616E-02 
-2.4231250888442E-02 -2.4231250913921E-02 -2.4231250918369E-02 -2.4231250922207E-02 -2.4231250925436E-02 -2.4231250928065E-02 -2.4231250930112E-02 -2.4231250931520E-02 -2.4231250952846E-02 -2.4231250937888E-02 
 1.0277758910136E-02  1.0148042831865E-02  1.0034102356754E-02  9.9357581200468E-03  9.8528553521503E-03  9.7852636285898E-03  9.7328766422479E-03  9.6956120178005E-03  9.6734111900467E-03  9.6662392022723E-03 
 3.4733746780526E+01  6.8579300987295E+01  6.7799487784943E+01  6.7126684040531E+01  6.6559711322318E+01  6.6097579240272E+01  6.5739482337462E+01  6.5484797582903E+01  6.5333082744745E+01  3.2642036785896E+01 
 1.7996839842988E-07  5.3529857321694E-07  8.8658827411206E-07  1.2343919447848E-06  1.5792579345253E-06  1.9217294622315E-06  2.2623455696900E-06  2.6016421181170E-06  2.9402003165346E-06  2.9402003165346E-06 
 0.0000000000000E+00  6.9012383473261E+01  1.3719089020056E+02  2.0464319928099E+02  2.7147571392466E+02  3.3779375454718E+02  4.0370174351622E+02  4.6930339072644E+02  5.3470187006756E+02  6.0000522297001E+02 
 6.0000553996550E+02  5.3098761653408E+02  4.6280910980794E+02  3.9535680072705E+02  3.2852428608423E+02  2.6220624545553E+02  1.9629825648307E+02  1.3069660928164E+02  6.5298129939613E+01  0.0000000000000E+00 
 3.4733746780526E-07  6.8579300987295E-07  6.7799487784943E-07  6.7126684040531E-07  6.6559711322318E-07  6.6097579240272E-07  6.5739482337462E-07  6.5484797582903E-07  6.5333082744745E-07  3.2642036785896E-07 
 1.4095380721407E+03  2.8190761442726E+03  2.8190761442648E+03  2.8190761442580E+03  2.8190761442524E+03  2.8190761442477E+03  2.8190761442442E+03  2.8190761442416E+03  2.8190761442401E+03  1.4095380721198E+03 
 5.6381522868262E+03  1.1276304573661E+04  1.1276304573669E+04  1.1276304573676E+04  1.1276304573681E+04  1.1276304573686E+04  1.1276304573690E+04  1.1276304573692E+04  1.1276304573694E+04  5.6381522868471E+03 
 7.0476903589669E+03  1.4095380717934E+04  1.4095380717934E+04  1.4095380717934E+04  1.4095380717934E+04  1.4095380717934E+04  1.4095380717934E+04  1.4095380717934E+04  1.4095380717934E+04  7.0476903589669E+03 
 4.0000000000000E-01  4.0000000000000E-01  4.0000000000000E-01  4.0000000000000E-01  4.0000000000000E-01  4.0000000000000E-01  4.0000000000000E-01  4.0000000000000E-01  4.0000000000000E-01  4.0000000000000E-01 
 9.4000000000000E-01  1.8800000000000E+00  1.8800000000000E+00  1.8800000000000E+00  1.8800000000000E+00  1.8800000000000E+00  1.8800000000000E+00  1.8800000000000E+00  1.8800000000000E+00  9.4000000000000E-01 
 3.6950794447368E+01  3.6478351588987E+01  3.6063557332417E+01  3.5705683000282E+01  3.5404101767191E+01  3.5158286829932E+01  3.4967809753969E+01  3.4832339139842E+01  3.4751639757843E+01  3.4725571048825E+01 
 5.3333333333333E-06  1.0666666666667E-05  1.0666666666667E-05  1.0666666666667E-05  1.0666666666667E-05  1.0666666666667E-05  1.0666666666667E-05  1.0666666666667E-05  1.0666666666667E-05  5.3333333333333E-06 
 1.0956624007037E+01  1.0956624007045E+01  1.0956624007053E+01  1.0956624007059E+01  1.0956624007065E+01  1.0956624007069E+01  1.0956624007073E+01  1.0956624007075E+01  1.0956624007077E+01  1.0956624007077E+01 
 2.7391560026029E+00  2.7391560025942E+00  2.7391560025867E+00  2.7391560025801E+00  2.7391560025746E+00  2.7391560025701E+00  2.7391560025666E+00  2.7391560025642E+00  2.7391560025627E+00  2.7391560025622E+00 
-6.5432080393554E-03 -6.4748406115278E-03 -6.4223419530059E-03 -6.3767869827782E-03 -6.3382102743246E-03 -6.3066399678102E-03 -6.2820983259344E-03 -6.2646021829910E-03 -6.2541633184064E-03 -6.2508091735977E-03 
-6.5432080393554E+05 -6.4748406115278E+05 -6.4223419530059E+05 -6.3767869827782E+05 -6.3382102743246E+05 -6.3066399678102E+05 -6.2820983259344E+05 -6.2646021829910E+05 -6.2541633184064E+05 -6.2508091735977E+05 
 6.3473577078907E-02  3.1251925093911E-01  1.0510174569710E+00  2.2633252827044E+00  3.9370069912200E+00  6.0627200701564E+00  8.6341220202573E+00  1.1647797292788E+01  1.5103203303485E+01  1.6941449327770E+01 
 6.8752382768754E+03  6.0918424801736E+03  4.6334026959549E+03  3.3874217832238E+03  2.3460682958998E+03  1.5028033545596E+03  8.5233776877322E+02  3.9059737482952E+02  1.1469640816687E+02  2.2918628891931E+01 
-6.6119610568599E+05 -6.5357621615220E+05 -6.4686864901400E+05 -6.4106838338633E+05 -6.3617103273535E+05 -6.3217286285565E+05 -6.2907080448424E+05 -6.2686246347122E+05 -6.2554613145211E+05 -6.2512077743799E+05 
 6.6934701767128E+04  6.5244907972212E+04  6.3778781379395E+04  6.2526984113780E+04  6.1481550853686E+04  6.0635834927651E+04  5.9984463117507E+04  5.9523299208480E+04  5.9249416390037E+04  5.9161075502595E+04 
-7.2813080745312E+05 -7.1882112412441E+05 -7.1064743039340E+05 -7.0359536750011E+05 -6.9765258358904E+05 -6.9280869778330E+05 -6.8905526760174E+05 -6.8638576267970E+05 -6.8479554784215E+05 -6.8428185294058E+05 
ZONE T = "ANOD, 2.0000E-08", I = 10, SOLUTIONTIME = 2.000000E-08
ZONETYPE = ORDERED
DATAPACKING = BLOCK
STRANDID = 1
 0.0000000000000E+00  1.0666666666667E-05  2.1333333333333E-05  3.2000000000000E-05  4.2666666666667E-05  5.3333333333333E-05  6.4000000000000E-05  7.4666666666667E-05  8.5333333333333E-05  9.6000000000000E-05 
 1.0618598128942E-08  3.1583240422466E-08  5.2309306516877E-08  7.2829783449667E-08  9.3176736748848E-08  1.1338255882246E-07  1.3347903890787E-07  1.5349725386431E-07  1.7348033747614E-07  1.8364693649358E-07 
 8.4394679977780E-01  8.4394679978064E-01  8.4394679978313E-01  8.4394679978528E-01  8.4394679978710E-01  8.4394679978858E-01  8.4394679978972E-01  8.4394679979054E-01  8.4394679979107E-01  8.4394679985453E-01 
 7.8026600111100E-02  7.8026600109682E-02  7.8026600108435E-02  7.8026600107358E-02  7.8026600106452E-02  7.8026600105712E-02  7.8026600105140E-02  7.8026600104732E-02  7.8026600104463E-02  7.8026600072733E-02 
 7.8026600111100E-02  7.8026600109682E-02  7.8026600108435E-02  7.8026600107358E-02  7.8026600106452E-02  7.8026600105712E-02  7.8026600105140E-02  7.8026600104732E-02  7.8026600104463E-02  7.8026600072733E-02 
 1.3955050460653E-02  1.3955030964817E-02  1.3954972975920E-02  1.3954876931730E-02  1.3954743209943E-02  1.3954572128844E-02  1.3954363947863E-02  1.3954118868026E-02  1.3953837032306E-02  1.3953518525873E-02 
 0.0000000000000E+00 -1.2973555318608E-04 -2.4373391157472E-04 -3.4217404895841E-04 -4.2521037947196E-04 -4.9297302808380E-04 -5.4556805792517E-04 -5.8307765517096E-04 -6.0556027204733E-04 -6.1305072834118E-04 
 2.9814999991137E+02  2.9814999996612E+02  2.9814999996640E+02  2.9814999996664E+02  2.9814999996683E+02  2.9814999996698E+02  2.9814999996711E+02  2.9814999996711E+02  2.9815000002169E+02  2.9814999996732E+02 
-1.3955050460653E-02 -1.4084766518003E-02 -1.4198706887495E-02 -1.4297050980689E-02 -1.4379953589415E-02 -1.4447545156928E-02 -1.4499932005788E-02 -1.4537196523196E-02 -1.4559397304353E-02 -1.4566569254214E-02 
-2.4231250491022E-02 -2.4231250521557E-02 -2.4231250530449E-02 -2.4231250538121E-02 -2.4231250544577E-02 -2.4231250549841E-02 -2.4231250553926E-02 -2.4231250556790E-02 -2.4231250578977E-02 -2.4231250569566E-02 
 1.0276200030369E-02  1.0146484003554E-02  1.0032543642954E-02  9.9341995574319E-03  9.8512969551617E-03  9.7837053929127E-03  9.7313185481382E-03  9.6940540335931E-03  9.6718532746239E-03  9.6646813153513E-03 
 3.4728408486716E+01  6.8568630037314E+01  6.7788822204885E+01  6.7116023410787E+01  6.6549055095680E+01  6.6086926762104E+01  6.5728832864652E+01  6.5474150303808E+01  6.5322436792274E+01  3.2636714041764E+01 
 1.7997159761186E-07  5.3530294804725E-07  8.8659322868237E-07  1.2343969808891E-06  1.5792626320353E-06  1.9217334755189E-06  2.2623486315852E-06  2.6016440701964E-06  2.9402493610727E-06  2.9402493610727E-06 
 0.0000000000000E+00  6.9012723504353E+01  1.3719144962633E+02  2.0464387243523E+02  2.7147641168748E+02  3.3779440261609E+02  4.0370228242932E+02  4.6930377401445E+02  5.3470206756201E+02  5.9999999999849E+02 
 5.9999999999999E+02  5.3098727649462E+02  4.6280855037351E+02  3.9535612756568E+02  3.2852358831247E+02  2.6220559738358E+02  1.9629771757019E+02  1.3069622598595E+02  6.5297932437899E+01  0.0000000000000E+00 
 6.9462155267242E-07  1.3714793102461E-06  1.3558830998983E-06  1.3424270745132E-06  1.3310876641800E-06  1.3218450600238E-06  1.3146831520211E-06  1.3095894788671E-06  1.3065551953702E-06  6.5278750827660E-07 
 1.4095380724880E+03  2.8190761449582E+03  2.8190761449426E+03  2.8190761449292E+03  2.8190761449179E+03  2.8190761449086E+03  2.8190761449015E+03  2.8190761448964E+03  2.8190761448933E+03  1.4095380724462E+03 
 5.6381522864789E+03  1.1276304572976E+04  1.1276304572991E+04  1.1276304573005E+04  1.1276304573016E+04  1.1276304573025E+04  1.1276304573032E+04  1.1276304573037E+04  1.1276304573041E+04  5.6381522865207E+03 
 7.0476903589669E+03  1.4095380717934E+04  1.4095380717934E+04  1.4095380717934E+04  1.4095380717934E+04  1.4095380717934E+04  1.4095380717934E+04  1.4095380717934E+04  1.4095380717934E+04  7.0476903589669E+03 
 4.0000000000000E-01  4.0000000000000E-01  4.0000000000000E-01  4.0000000000000E-01  4.0000000000000E-01  4.0000000000000E-01  4.0000000000000E-01  4.0000000000000E-01  4.0000000000000E-01  4.0000000000000E-01 
 9.4000000000000E-01  1.8800000000000E+00  1.8800000000000E+00  1.8800000000000E+00  1.8800000000000E+00  1.8800000000000E+00  1.8800000000000E+00  1.8800000000000E+00  1.8800000000000E+00  9.4000000000000E-01 
 3.6945115411400E+01  3.6472675551763E+01  3.6057884151535E+01  3.5700012452546E+01  3.5398433561532E+01  3.5152620618140E+01  3.4962145140772E+01  3.4826675693515E+01  3.4745977017167E+01  3.4719908555069E+01 
 5.3333333333333E-06  1.0666666666667E-05  1.0666666666667E-05  1.0666666666667E-05  1.0666666666667E-05  1.0666666666667E-05  1.0666666666667E-05  1.0666666666667E-05  1.0666666666667E-05  5.3333333333333E-06 
 1.0956624006362E+01  1.0956624006379E+01  1.0956624006394E+01  1.0956624006407E+01  1.0956624006418E+01  1.0956624006427E+01  1.0956624006434E+01  1.0956624006439E+01  1.0956624006442E+01  1.0956624006443E+01 
 2.7391560032777E+00  2.7391560032605E+00  2.7391560032453E+00  2.7391560032323E+00  2.7391560032212E+00  2.7391560032123E+00  2.7391560032053E+00  2.7391560032004E+00  2.7391560031974E+00  2.7391560031965E+00 
-1.3085501427444E-02 -1.2948764536017E-02 -1.2843765479159E-02 -1.2752654039274E-02 -1.2675499360600E-02 -1.2612357720633E-02 -1.2563273642249E-02 -1.2528280791932E-02 -1.2507402726590E-02 -1.2500694331370E-02 
-6.5422933880888E+05 -6.4739239244892E+05 -6.4214235261530E+05 -6.3758670564958E+05 -6.3372890862750E+05 -6.3057177528225E+05 -6.2811753163145E+05 -6.2636786089408E+05 -6.2532394081831E+05 -6.2498851577726E+05 
 1.2694789128177E-01  6.2504147098762E-01  2.1020432805844E+00  4.5266651791538E+00  7.8740338896324E+00  1.2125463033313E+01  1.7268266700013E+01  2.3295613206541E+01  3.0206417375300E+01  3.3882904602350E+01 
 1.3750471648002E+04  1.2183677394567E+04  9.2667943683308E+03  6.7748321608835E+03  4.6921267155244E+03  3.0055993374008E+03  1.7046708896453E+03  7.8119246982800E+02  2.2939212400319E+02  4.5837117651734E+01 
-6.6110463565432E+05 -6.5348453988553E+05 -6.4677679531350E+05 -6.4097637936713E+05 -6.3607890407402E+05 -6.3208063400806E+05 -6.2897849889700E+05 -6.2677010380500E+05 -6.2545373974822E+05 -6.2502837572130E+05 
 6.6914263683954E+04  6.5224735224133E+04  6.3758842357984E+04  6.2507247304719E+04  6.1461984843686E+04  6.0616408398157E+04  5.9965144831968E+04  5.9504057997932E+04  5.9230221123661E+04  5.9141895146925E+04 
-7.2801889933827E+05 -7.1870927510966E+05 -7.1053563767148E+05 -7.0348362667185E+05 -6.9754088891771E+05 -6.9269704240622E+05 -6.8894364372897E+05 -6.8627416180293E+05 -6.8468396087188E+05 -6.8417027086822E+05 
ZONE T = "ANOD, 3.0000E-08", I = 10, SOLUTIONTIME = 3.000000E-08
ZONETYPE = ORDERED
DATAPACKING = BLOCK
STRANDID = 1
 0.0000000000000E+00  1.0666666666667E-05  2.1333333333333E-05  3.2000000000000E-05  4.2666666666667E-05  5.3333333333333E-05  6.4000000000000E-05  7.4666666666667E-05  8.5333333333333E-05  9.6000000000000E-05 
 1.0618781859574E-08  3.1583159751288E-08  5.2309330588246E-08  7.2829652479886E-08  9.3176660368416E-08  1.1338233629801E-07  1.3347872102123E-07  1.5349704273563E-07  1.7348577816381E-07  1.8374399577365E-07 
 8.4394679966670E-01  8.4394679967095E-01  8.4394679967470E-01  8.4394679967792E-01  8.4394679968065E-01  8.4394679968286E-01  8.4394679968458E-01  8.4394679968580E-01  8.4394679968664E-01  8.4394679978242E-01 
 7.8026600166649E-02  7.8026600164523E-02  7.8026600162652E-02  7.8026600161038E-02  7.8026600159677E-02  7.8026600158569E-02  7.8026600157710E-02  7.8026600157098E-02  7.8026600156682E-02  7.8026600108790E-02 
 7.8026600166649E-02  7.8026600164523E-02  7.8026600162652E-02  7.8026600161038E-02  7.8026600159677E-02  7.8026600158569E-02  7.8026600157710E-02  7.8026600157098E-02  7.8026600156682E-02  7.8026600108790E-02 
 1.3955050079176E-02  1.3955030583340E-02  1.3954972594443E-02  1.3954876550253E-02  1.3954742828467E-02  1.3954571747368E-02  1.3954363566387E-02  1.3954118486550E-02  1.3953836650830E-02  1.3953518144398E-02 
 0.0000000000000E+00 -1.2973555319859E-04 -2.4373391161686E-04 -3.4217404904038E-04 -4.2521037959803E-04 -4.9297302825326E-04 -5.4556805813327E-04 -5.8307765540983E-04 -6.0556027230689E-04 -6.1305072861002E-04 
 2.9814999989491E+02  2.9814999994982E+02  2.9814999995024E+02  2.9814999995059E+02  2.9814999995088E+02  2.9814999995111E+02  2.9814999995131E+02  2.9814999995135E+02  2.9815000000594E+02  2.9814999995162E+02 
-1.3955050079176E-02 -1.4084766136539E-02 -1.4198706506060E-02 -1.4297050599294E-02 -1.4379953208065E-02 -1.4447544775621E-02 -1.4499931624520E-02 -1.4537196141959E-02 -1.4559396923137E-02 -1.4566568873008E-02 
-2.4231250093599E-02 -2.4231250129194E-02 -2.4231250142527E-02 -2.4231250154032E-02 -2.4231250163724E-02 -2.4231250171622E-02 -2.4231250177741E-02 -2.4231250182065E-02 -2.4231250205115E-02 -2.4231250201304E-02 
 1.0276200014423E-02  1.0146483992656E-02  1.0032543636467E-02  9.9341995547387E-03  9.8512969556590E-03  9.7837053960010E-03  9.7313185532215E-03  9.6940540401057E-03  9.6718532819781E-03  9.6646813282960E-03 
 3.4728408432193E+01  6.8568629962762E+01  6.7788822160424E+01  6.7116023392162E+01  6.6549055098773E+01  6.6086926782809E+01  6.5728832898947E+01  6.5474150347764E+01  6.5322436841957E+01  3.2636714082215E+01 
 1.7997374891192E-07  5.3530484315220E-07  8.8659486344005E-07  1.2343983581954E-06  1.5792637545462E-06  1.9217343451998E-06  2.2623492501328E-06  2.6016445190486E-06  2.9402984834569E-06  2.9402984834569E-06 
 0.0000000000000E+00  6.9012723412190E+01  1.3719144947575E+02  2.0464387225244E+02  2.7147641149749E+02  3.3779440243808E+02  4.0370228227818E+02  4.6930377390073E+02  5.3470206749632E+02  6.0000000000029E+02 
 6.0000000000000E+02  5.3098727658642E+02  4.6280855052483E+02  3.9535612774854E+02  3.2852358850307E+02  2.6220559756228E+02  1.9629771772141E+02  1.3069622609805E+02  6.5297932503187E+01  0.0000000000000E+00 
 1.0419056369943E-06  2.0571656098737E-06  2.0337713215025E-06  2.0135873084348E-06  1.9965782151677E-06  1.9827143278518E-06  1.9719714810106E-06  1.9643309823448E-06  1.9597795637898E-06  9.7915464909875E-07 
 1.4095380728353E+03  2.8190761456439E+03  2.8190761456205E+03  2.8190761456004E+03  2.8190761455833E+03  2.8190761455695E+03  2.8190761455587E+03  2.8190761455511E+03  2.8190761455465E+03  1.4095380727725E+03 
 5.6381522861316E+03  1.1276304572290E+04  1.1276304572313E+04  1.1276304572333E+04  1.1276304572350E+04  1.1276304572364E+04  1.1276304572375E+04  1.1276304572383E+04  1.1276304572387E+04  5.6381522861944E+03 
 7.0476903589669E+03  1.4095380717934E+04  1.4095380717934E+04  1.4095380717934E+04  1.4095380717934E+04  1.4095380717934E+04  1.4095380717934E+04  1.4095380717934E+04  1.4095380717934E+04  7.0476903589669E+03 
 4.0000000000000E-01  4.0000000000000E-01  4.0000000000000E-01  4.0000000000000E-01  4.0000000000000E-01  4.0000000000000E-01  4.0000000000000E-01  4.0000000000000E-01  4.0000000000000E-01  4.0000000000000E-01 
 9.4000000000000E-01  1.8800000000000E+00  1.8800000000000E+00  1.8800000000000E+00  1.8800000000000E+00  1.8800000000000E+00  1.8800000000000E+00  1.8800000000000E+00  1.8800000000000E+00  9.4000000000000E-01 
 3.6945115353396E+01  3.6472675512107E+01  3.6057884127885E+01  3.5700012442639E+01  3.5398433563177E+01  3.5152620629154E+01  3.4962145159015E+01  3.4826675716896E+01  3.4745977043594E+01  3.4719908598101E+01 
 5.3333333333333E-06  1.0666666666667E-05  1.0666666666667E-05  1.0666666666667E-05  1.0666666666667E-05  1.0666666666667E-05  1.0666666666667E-05  1.0666666666667E-05  1.0666666666667E-05  5.3333333333333E-06 
 1.0956624005687E+01  1.0956624005713E+01  1.0956624005735E+01  1.0956624005755E+01  1.0956624005772E+01  1.0956624005785E+01  1.0956624005795E+01  1.0956624005803E+01  1.0956624005807E+01  1.0956624005809E+01 
 2.7391560039526E+00  2.7391560039267E+00  2.7391560039040E+00  2.7391560038844E+00  2.7391560038679E+00  2.7391560038544E+00  2.7391560038440E+00  2.7391560038365E+00  2.7391560038321E+00  2.7391560038307E+00 
-1.9627794802741E-02 -1.9422688450729E-02 -1.9265188998175E-02 -1.9128521090916E-02 -1.9012788443952E-02 -1.8918075472107E-02 -1.8844448958435E-02 -1.8791959401614E-02 -1.8760642136031E-02 -1.8750579493380E-02 
-6.5422933752968E+05 -6.4739239147125E+05 -6.4214235190162E+05 -6.3758670516420E+05 -6.3372890833520E+05 -6.3057177514742E+05 -6.2811753161860E+05 -6.2636786096825E+05 -6.2532394094411E+05 -6.2498851620102E+05 
 1.9042220522191E-01  9.3756368997971E-01  3.1530691010701E+00  6.7900050697788E+00  1.1811060779418E+01  1.8188205985276E+01  2.5902411366459E+01  3.4943429105417E+01  4.5309631432415E+01  5.0824359863043E+01 
 2.0625705020455E+04  1.8275512311002E+04  1.3900186043688E+04  1.0162242541641E+04  7.0381851378459E+03  4.5083953222730E+03  2.5570040118191E+03  1.1717875654879E+03  3.4408784005787E+02  6.8755606468350E+01 
-6.6110463437644E+05 -6.5348453890991E+05 -6.4677679460280E+05 -6.4097637888484E+05 -6.3607890378441E+05 -6.3208063387524E+05 -6.2897849888544E+05 -6.2677010387981E+05 -6.2545373987422E+05 -6.2502837614510E+05 
 6.6914263475029E+04  6.5224735083162E+04  6.3758842274957E+04  6.2507247270440E+04  6.1461984849651E+04  6.0616408436278E+04  5.9965144894584E+04  5.9504058077807E+04  5.9230221213753E+04  5.9141895299058E+04 
-7.2801889785147E+05 -7.1870927399307E+05 -7.1053563687776E+05 -7.0348362615528E+05 -6.9754088863406E+05 -6.9269704231152E+05 -6.8894364378002E+05 -6.8627416195762E+05 -6.8468396108798E+05 -6.8417027144415E+05 
ZONE T = "ANOD, 4.0000E-08", I = 10, SOLUTIONTIME = 4.000000E-08
ZONETYPE = ORDERED
DATAPACKING = BLOCK
STRANDID = 1
 0.0000000000000E+00  1.0666666666667E-05  2.1333333333333E-05  3.2000000000000E-05  4.2666666666667E-05  5.3333333333333E-05  6.4000000000000E-05  7.4666666666667E-05  8.5333333333333E-05  9.6000000000000E-05 
 1.0619124828566E-08  3.1583456296126E-08  5.2309473138204E-08  7.2829783559891E-08  9.3176797003281E-08  1.1338251119962E-07  1.3347863071228E-07  1.5349727165872E-07  1.7349150842542E-07  1.8383959851819E-07 
 8.4394679955561E-01  8.4394679956127E-01  8.4394679956626E-01  8.4394679957057E-01  8.4394679957419E-01  8.4394679957715E-01  8.4394679957944E-01  8.4394679958107E-01  8.4394679958222E-01  8.4394679971071E-01 
 7.8026600222197E-02  7.8026600219364E-02  7.8026600216870E-02  7.8026600214717E-02  7.8026600212903E-02  7.8026600211425E-02  7.8026600210279E-02  7.8026600209465E-02  7.8026600208891E-02  7.8026600144646E-02 
 7.8026600222197E-02  7.8026600219364E-02  7.8026600216870E-02  7.8026600214717E-02  7.8026600212903E-02  7.8026600211425E-02  7.8026600210279E-02  7.8026600209465E-02  7.8026600208891E-02  7.8026600144646E-02 
 1.3955049697701E-02  1.3955030201865E-02  1.3954972212968E-02  1.3954876168779E-02  1.3954742446992E-02  1.3954571365894E-02  1.3954363184913E-02  1.3954118105076E-02  1.3953836269357E-02  1.3953517762925E-02 
 0.0000000000000E+00 -1.2973555321110E-04 -2.4373391165898E-04 -3.4217404912232E-04 -4.2521037972407E-04 -4.9297302842271E-04 -5.4556805834141E-04 -5.8307765564877E-04 -6.0556027256655E-04 -6.1305072887900E-04 