TITLE = "Solution on Domain BulkDomain1D_0"
VARIABLES = "x [m]"  
"Vel_axial" 
"MF_sp(ECDMC)" 
"MF_sp(Li+)" 
"MF_sp(PF6-)" 
"Volt(Electroly)" 
"Volt(AnodeVolt)" 
"Potential Drop Electrode-Electrolyte [V]" 
"Surf_0 Equilibrium Potential Drop Electrode-Electrolyte [V]" 
"Overpotential_0 [V]" 
"Current Source [A/m^2]" 
"Li+ flux [kmol/m^2/s]" 
"Electrolyte Current [A/m^2]" 
"Electrode Current [A/m^2]" 
"CV Capacity discharged [A-s/m^2]" 
"Depth of discharge in CV [A-s/m^2]" 
"CV Capacity remaining [A-s/m^2]" 
"Initial CV capacity [A-s/m^2]" 
"Porosity []" 
"Surface Area [m2/m2] (area per area)" 
"Specific current (per particle area) [A/m^2]" 
"Control volume thickness [m]" 
"MoleDens Li_C6-bulk [kmol/m^3]" 
"MoleDens V_C6-bulk [kmol/m^3]" 
"qHeat_accum [J/m3]" 
"qHeat_step [W/m3]" 
"Joule_Lyte [W/m3]" 
"Joule_Solid [W/m3]" 
"electrodHeat [W/m3]" 
"OverpotHeat [W/m3]" 
"deltaSHeat [W/m3]" 

ZONE T = "ANOD, 0.0000E+00", I = 10, SOLUTIONTIME = 0.000000E+00
ZONETYPE = ORDERED
DATAPACKING = BLOCK
STRANDID = 1
 0.0000000000000E+00  8.7488888888889E-05  1.7497777777778E-04  2.6246666666667E-04  3.4995555555556E-04  4.3744444444444E-04  5.2493333333333E-04  6.1242222222222E-04  6.9991111111111E-04  7.8740000000000E-04 
 0.0000000000000E+00  0.0000000000000E+00  0.0000000000000E+00  0.0000000000000E+00  0.0000000000000E+00  0.0000000000000E+00  0.0000000000000E+00  0.0000000000000E+00  0.0000000000000E+00  0.0000000000000E+00 
 9.2000000000000E-01  9.2000000000000E-01  9.2000000000000E-01  9.2000000000000E-01  9.2000000000000E-01  9.2000000000000E-01  9.2000000000000E-01  9.2000000000000E-01  9.2000000000000E-01  9.2000000000000E-01 
 4.0000000000000E-02  4.0000000000000E-02  4.0000000000000E-02  4.0000000000000E-02  4.0000000000000E-02  4.0000000000000E-02  4.0000000000000E-02  4.0000000000000E-02  4.0000000000000E-02  4.0000000000000E-02 
 4.0000000000000E-02  4.0000000000000E-02  4.0000000000000E-02  4.0000000000000E-02  4.0000000000000E-02  4.0000000000000E-02  4.0000000000000E-02  4.0000000000000E-02  4.0000000000000E-02  4.0000000000000E-02 
-7.0000000000000E-02 -7.0000000000000E-02 -7.0000000000000E-02 -7.0000000000000E-02 -7.0000000000000E-02 -7.0000000000000E-02 -7.0000000000000E-02 -7.0000000000000E-02 -7.0000000000000E-02 -7.0000000000000E-02 
 0.0000000000000E+00  0.0000000000000E+00  0.0000000000000E+00  0.0000000000000E+00  0.0000000000000E+00  0.0000000000000E+00  0.0000000000000E+00  0.0000000000000E+00  0.0000000000000E+00  0.0000000000000E+00 
 7.0000000000000E-02  7.0000000000000E-02  7.0000000000000E-02  7.0000000000000E-02  7.0000000000000E-02  7.0000000000000E-02  7.0000000000000E-02  7.0000000000000E-02  7.0000000000000E-02  7.0000000000000E-02 
-4.0899179293840E-02 -4.0899179293840E-02 -4.0899179293840E-02 -4.0899179293840E-02 -4.0899179293840E-02 -4.0899179293840E-02 -4.0899179293840E-02 -4.0899179293840E-02 -4.0899179293840E-02 -4.0899179293840E-02 
 1.1089917929384E-01  1.1089917929384E-01  1.1089917929384E-01  1.1089917929384E-01  1.1089917929384E-01  1.1089917929384E-01  1.1089917929384E-01  1.1089917929384E-01  1.1089917929384E-01  1.1089917929384E-01 
 3.0925583987519E+01  6.1851167975038E+01  6.1851167975038E+01  6.1851167975038E+01  6.1851167975038E+01  6.1851167975038E+01  6.1851167975038E+01  6.1851167975038E+01  6.1851167975038E+01  3.0925583987519E+01 
-0.0000000000000E+00 -0.0000000000000E+00 -0.0000000000000E+00 -0.0000000000000E+00 -0.0000000000000E+00 -0.0000000000000E+00 -0.0000000000000E+00 -0.0000000000000E+00 -0.0000000000000E+00 -0.0000000000000E+00 
 0.0000000000000E+00  0.0000000000000E+00  0.0000000000000E+00  0.0000000000000E+00  0.0000000000000E+00  0.0000000000000E+00  0.0000000000000E+00  0.0000000000000E+00  0.0000000000000E+00  3.0925583987519E+01 
 3.0925583987519E+01 -0.0000000000000E+00 -0.0000000000000E+00 -0.0000000000000E+00 -0.0000000000000E+00 -0.0000000000000E+00 -0.0000000000000E+00 -0.0000000000000E+00 -0.0000000000000E+00  0.0000000000000E+00 
 0.0000000000000E+00  0.0000000000000E+00  0.0000000000000E+00  0.0000000000000E+00  0.0000000000000E+00  0.0000000000000E+00  0.0000000000000E+00  0.0000000000000E+00  0.0000000000000E+00  0.0000000000000E+00 
 9.1448444543281E+04  1.8289688908656E+05  1.8289688908656E+05  1.8289688908656E+05  1.8289688908656E+05  1.8289688908656E+05  1.8289688908656E+05  1.8289688908656E+05  1.8289688908656E+05  9.1448444543281E+04 
 3.6579377817312E+05  7.3158755634625E+05  7.3158755634625E+05  7.3158755634625E+05  7.3158755634625E+05  7.3158755634625E+05  7.3158755634625E+05  7.3158755634625E+05  7.3158755634625E+05  3.6579377817312E+05 
 4.5724222271640E+05  9.1448444543281E+05  9.1448444543281E+05  9.1448444543281E+05  9.1448444543281E+05  9.1448444543281E+05  9.1448444543281E+05  9.1448444543281E+05  9.1448444543281E+05  4.5724222271640E+05 
 3.5000000000000E-01  3.5000000000000E-01  3.5000000000000E-01  3.5000000000000E-01  3.5000000000000E-01  3.5000000000000E-01  3.5000000000000E-01  3.5000000000000E-01  3.5000000000000E-01  3.5000000000000E-01 
 8.5301666666666E+00  1.7060333333333E+01  1.7060333333333E+01  1.7060333333333E+01  1.7060333333333E+01  1.7060333333333E+01  1.7060333333333E+01  1.7060333333333E+01  1.7060333333333E+01  8.5301666666666E+00 
 3.6254372506421E+00  3.6254372506421E+00  3.6254372506421E+00  3.6254372506421E+00  3.6254372506421E+00  3.6254372506421E+00  3.6254372506421E+00  3.6254372506421E+00  3.6254372506421E+00  3.6254372506421E+00 
 4.3744444444444E-05  8.7488888888889E-05  8.7488888888889E-05  8.7488888888889E-05  8.7488888888889E-05  8.7488888888889E-05  8.7488888888889E-05  8.7488888888889E-05  8.7488888888889E-05  4.3744444444444E-05 
 8.6666666666666E+01  8.6666666666666E+01  8.6666666666666E+01  8.6666666666666E+01  8.6666666666666E+01  8.6666666666666E+01  8.6666666666666E+01  8.6666666666666E+01  8.6666666666666E+01  8.6666666666666E+01 
 2.1666666666667E+01  2.1666666666667E+01  2.1666666666667E+01  2.1666666666667E+01  2.1666666666667E+01  2.1666666666667E+01  2.1666666666667E+01  2.1666666666667E+01  2.1666666666667E+01  2.1666666666667E+01 
 0.0000000000000E+00  0.0000000000000E+00  0.0000000000000E+00  0.0000000000000E+00  0.0000000000000E+00  0.0000000000000E+00  0.0000000000000E+00  0.0000000000000E+00  0.0000000000000E+00  0.0000000000000E+00 
 0.0000000000000E+00  0.0000000000000E+00  0.0000000000000E+00  0.0000000000000E+00  0.0000000000000E+00  0.0000000000000E+00  0.0000000000000E+00  0.0000000000000E+00  0.0000000000000E+00  0.0000000000000E+00 
 0.0000000000000E+00  0.0000000000000E+00  0.0000000000000E+00  0.0000000000000E+00  0.0000000000000E+00  0.0000000000000E+00  0.0000000000000E+00  0.0000000000000E+00  0.0000000000000E+00  0.0000000000000E+00 
 0.0000000000000E+00  0.0000000000000E+00  0.0000000000000E+00  0.0000000000000E+00  0.0000000000000E+00  0.0000000000000E+00  0.0000000000000E+00  0.0000000000000E+00  0.0000000000000E+00  0.0000000000000E+00 
 0.0000000000000E+00  0.0000000000000E+00  0.0000000000000E+00  0.0000000000000E+00  0.0000000000000E+00  0.0000000000000E+00  0.0000000000000E+00  0.0000000000000E+00  0.0000000000000E+00  0.0000000000000E+00 
 0.0000000000000E+00  0.0000000000000E+00  0.0000000000000E+00  0.0000000000000E+00  0.0000000000000E+00  0.0000000000000E+00  0.0000000000000E+00  0.0000000000000E+00  0.0000000000000E+00  0.0000000000000E+00 
 0.0000000000000E+00  0.0000000000000E+00  0.0000000000000E+00  0.0000000000000E+00  0.0000000000000E+00  0.0000000000000E+00  0.0000000000000E+00  0.0000000000000E+00  0.0000000000000E+00  0.0000000000000E+00 
ZONE T = "ANOD, 1.0000E-08", I = 10, SOLUTIONTIME = 1.000000E-08
ZONETYPE = ORDERED
DATAPACKING = BLOCK
STRANDID = 1
 0.0000000000000E+00  8.7488888888889E-05  1.7497777777778E-04  2.6246666666667E-04  3.4995555555556E-04  4.3744444444444E-04  5.2493333333333E-04  6.1242222222222E-04  6.9991111111111E-04  7.8740000000000E-04 
 5.7645287051073E-10  1.7293596883771E-09  2.8822707208398E-09  4.0351891033470E-09  5.1881179737236E-09  6.3410604685996E-09  7.4940197235334E-09  8.6469988753023E-09  9.8000010618671E-09  1.0376515241544E-08 
 9.1999999999965E-01  9.1999999999965E-01  9.1999999999965E-01  9.1999999999965E-01  9.1999999999965E-01  9.1999999999965E-01  9.1999999999965E-01  9.1999999999965E-01  9.1999999999965E-01  9.1999999999986E-01 
 4.0000000000173E-02  4.0000000000173E-02  4.0000000000173E-02  4.0000000000173E-02  4.0000000000173E-02  4.0000000000173E-02  4.0000000000173E-02  4.0000000000173E-02  4.0000000000173E-02  4.0000000000072E-02 
 4.0000000000173E-02  4.0000000000173E-02  4.0000000000173E-02  4.0000000000173E-02  4.0000000000173E-02  4.0000000000173E-02  4.0000000000173E-02  4.0000000000173E-02  4.0000000000173E-02  4.0000000000072E-02 
 3.5021199497668E-02  3.5021191675319E-02  3.5021168208557E-02  3.5021129097153E-02  3.5021074341046E-02  3.5021003940179E-02  3.5020917894232E-02  3.5020816203006E-02  3.5020698866355E-02  3.5020565883828E-02 
-2.5574474404339E-07 -2.5810086845340E-07 -2.6017981178096E-07 -2.6198157301280E-07 -2.6350615038184E-07 -2.6475354136658E-07 -2.6572374269143E-07 -2.6641675032696E-07 -2.6683255948957E-07 -2.6697116464126E-07 
-3.5021455242412E-02 -3.5021449776188E-02 -3.5021428388368E-02 -3.5021391078726E-02 -3.5021337847197E-02 -3.5021268693720E-02 -3.5021183617975E-02 -3.5021082619756E-02 -3.5020965698915E-02 -3.5020832854993E-02 
-4.0899179293591E-02 -4.0899179293596E-02 -4.0899179293591E-02 -4.0899179293591E-02 -4.0899179293591E-02 -4.0899179293592E-02 -4.0899179293592E-02 -4.0899179293591E-02 -4.0899179293591E-02 -4.0899179293657E-02 
 5.8777240511796E-03  5.8777295174079E-03  5.8777509052231E-03  5.8777882148657E-03  5.8778414463948E-03  5.8779105998719E-03  5.8779956756166E-03  5.8780966738350E-03  5.8782135946767E-03  5.8783464386636E-03 
 8.3025195449726E-01  1.6605054599757E+00  1.6605115285347E+00  1.6605221147372E+00  1.6605372186018E+00  1.6605568401483E+00  1.6605809794687E+00  1.6606096366245E+00  1.6606428116611E+00  8.3034025235578E-01 
 4.3019351743555E-09  1.2905649926409E-08  2.1509489441231E-08  3.0113362903859E-08  3.8717268453611E-08  4.7321348501735E-08  5.5925539578565E-08  6.4529809973405E-08  7.3134364466218E-08  7.3134364466218E-08 
 0.0000000000000E+00  1.6602796381039E+00  3.3205563011897E+00  4.9808482775187E+00  6.6411466254676E+00  8.3014649056701E+00  9.9618107349826E+00  1.1622174930246E+01  1.3282570728440E+01  1.4943120854889E+01 
 1.4943122330549E+01  1.3282731553452E+01  1.1622450873575E+01  9.9621618666967E+00  8.3018600158119E+00  6.6415408030612E+00  4.9811997122203E+00  3.3208322269541E+00  1.6604338292000E+00  0.0000000000000E+00 
 8.3025195449726E-09  1.6605054599757E-08  1.6605115285347E-08  1.6605221147372E-08  1.6605372186018E-08  1.6605568401483E-08  1.6605809794687E-08  1.6606096366245E-08  1.6606428116611E-08  8.3034025235578E-09 
 9.1448444543289E+04  1.8289688908658E+05  1.8289688908658E+05  1.8289688908658E+05  1.8289688908658E+05  1.8289688908658E+05  1.8289688908658E+05  1.8289688908658E+05  1.8289688908658E+05  9.1448444543289E+04 
 3.6579377817311E+05  7.3158755634623E+05  7.3158755634623E+05  7.3158755634623E+05  7.3158755634623E+05  7.3158755634623E+05  7.3158755634623E+05  7.3158755634623E+05  7.3158755634623E+05  3.6579377817311E+05 
 4.5724222271640E+05  9.1448444543281E+05  9.1448444543281E+05  9.1448444543281E+05  9.1448444543281E+05  9.1448444543281E+05  9.1448444543281E+05  9.1448444543281E+05  9.1448444543281E+05  4.5724222271640E+05 
 3.5000000000000E-01  3.5000000000000E-01  3.5000000000000E-01  3.5000000000000E-01  3.5000000000000E-01  3.5000000000000E-01  3.5000000000000E-01  3.5000000000000E-01  3.5000000000000E-01  3.5000000000000E-01 
 8.5301666666666E+00  1.7060333333333E+01  1.7060333333333E+01  1.7060333333333E+01  1.7060333333333E+01  1.7060333333333E+01  1.7060333333333E+01  1.7060333333333E+01  1.7060333333333E+01  8.5301666666666E+00 
 9.7331269943604E-02  9.7331360855142E-02  9.7331716566775E-02  9.7332337082346E-02  9.7333222402951E-02  9.7334372529745E-02  9.7335787468127E-02  9.7337467221695E-02  9.7339411793114E-02  9.7341621190182E-02 
 4.3744444444444E-05  8.7488888888889E-05  8.7488888888889E-05  8.7488888888889E-05  8.7488888888889E-05  8.7488888888889E-05  8.7488888888889E-05  8.7488888888889E-05  8.7488888888889E-05  4.3744444444444E-05 
 8.6666666666664E+01  8.6666666666664E+01  8.6666666666664E+01  8.6666666666664E+01  8.6666666666664E+01  8.6666666666664E+01  8.6666666666664E+01  8.6666666666664E+01  8.6666666666664E+01  8.6666666666664E+01 
 2.1666666666669E+01  2.1666666666669E+01  2.1666666666669E+01  2.1666666666669E+01  2.1666666666669E+01  2.1666666666669E+01  2.1666666666669E+01  2.1666666666669E+01  2.1666666666669E+01  2.1666666666669E+01 
 4.5429060333882E-12  7.0909302096829E-12  1.5208504613078E-11  2.9369150382434E-11  4.9572919401085E-11  7.5820148708161E-11  1.0811118253110E-10  1.4644609562150E-10  1.9082550311672E-10  2.1452647551382E-10 
 4.5429060333882E-04  7.0909302096829E-04  1.5208504613078E-03  2.9369150382434E-03  4.9572919401085E-03  7.5820148708161E-03  1.0811118253110E-02  1.4644609562150E-02  1.9082550311672E-02  2.1452647551382E-02 
 7.4223159226223E-05  3.7110774244917E-04  1.2617695703969E-03  2.7462186687797E-03  4.8244602107509E-03  7.4965277705837E-03  1.0762455526838E-02  1.4622250596011E-02  1.9075974018705E-02  2.1451332256961E-02 
 3.8006744411260E-04  3.3798527851912E-04  2.5908089091091E-04  1.9069636946367E-04  1.3283172935768E-04  8.5487100232382E-05  4.8662726271770E-05  2.2358966138860E-05  6.5762929676817E-06  1.3152944206280E-06 
 0.0000000000000E+00  0.0000000000000E+00  0.0000000000000E+00  0.0000000000000E+00  0.0000000000000E+00  0.0000000000000E+00  0.0000000000000E+00  0.0000000000000E+00  0.0000000000000E+00  0.0000000000000E+00 
 0.0000000000000E+00  0.0000000000000E+00  0.0000000000000E+00  0.0000000000000E+00  0.0000000000000E+00  0.0000000000000E+00  0.0000000000000E+00  0.0000000000000E+00  0.0000000000000E+00  0.0000000000000E+00 
 0.0000000000000E+00  0.0000000000000E+00  0.0000000000000E+00  0.0000000000000E+00  0.0000000000000E+00  0.0000000000000E+00  0.0000000000000E+00  0.0000000000000E+00  0.0000000000000E+00  0.0000000000000E+00 
ZONE T = "ANOD, 2.0000E-08", I = 10, SOLUTIONTIME = 2.000000E-08
ZONETYPE = ORDERED
DATAPACKING = BLOCK
STRANDID = 1
 0.0000000000000E+00  8.7488888888889E-05  1.7497777777778E-04  2.6246666666667E-04  3.4995555555556E-04  4.3744444444444E-04  5.2493333333333E-04  6.1242222222222E-04  6.9991111111111E-04  7.8740000000000E-04 
 5.7609501514933E-10  1.7286493301781E-09  2.8808446515616E-09  4.0330473241216E-09  5.1856236927010E-09  6.3393033098979E-09  7.4929996897120E-09  8.6470791771013E-09  9.8011817016235E-09  1.0377701239541E-08 
 9.1999999999931E-01  9.1999999999931E-01  9.1999999999931E-01  9.1999999999931E-01  9.1999999999931E-01  9.1999999999931E-01  9.1999999999931E-01  9.1999999999931E-01  9.1999999999931E-01  9.1999999999971E-01 
 4.0000000000346E-02  4.0000000000346E-02  4.0000000000346E-02  4.0000000000346E-02  4.0000000000346E-02  4.0000000000346E-02  4.0000000000346E-02  4.0000000000346E-02  4.0000000000346E-02  4.0000000000143E-02 
 4.0000000000346E-02  4.0000000000346E-02  4.0000000000346E-02  4.0000000000346E-02  4.0000000000346E-02  4.0000000000346E-02  4.0000000000346E-02  4.0000000000346E-02  4.0000000000346E-02  4.0000000000143E-02 
 3.5021948066930E-02  3.5021940244597E-02  3.5021916777581E-02  3.5021877665826E-02  3.5021822909231E-02  3.5021752507656E-02  3.5021666460914E-02  3.5021564768778E-02  3.5021447430979E-02  3.5021314447203E-02 
-2.5574711934447E-07 -2.5810326563803E-07 -2.6018222827547E-07 -2.6198400624367E-07 -2.6350859777524E-07 -2.6475600034861E-07 -2.6572621068796E-07 -2.6641922476322E-07 -2.6683503779009E-07 -2.6697364423000E-07 
-3.5022203814050E-02 -3.5022198347862E-02 -3.5022176959809E-02 -3.5022139649832E-02 -3.5022086417829E-02 -3.5022017263656E-02 -3.5021932187124E-02 -3.5021831188003E-02 -3.5021714266016E-02 -3.5021581420847E-02 
-4.0899179293344E-02 -4.0899179293348E-02 -4.0899179293344E-02 -4.0899179293344E-02 -4.0899179293348E-02 -4.0899179293345E-02 -4.0899179293345E-02 -4.0899179293348E-02 -4.0899179293348E-02 -4.0899179293479E-02 
 5.8769754792945E-03  5.8769809454859E-03  5.8770023335352E-03  5.8770396435125E-03  5.8770928755190E-03  5.8771620296892E-03  5.8772471062207E-03  5.8773481053453E-03  5.8774650273317E-03  5.8775978726315E-03 
 8.3014575506243E-01  1.6602930610940E+00  1.6602991297083E+00  1.6603097159881E+00  1.6603248199634E+00  1.6603444416740E+00  1.6603685811777E+00  1.6603972385430E+00  1.6604304138493E+00  8.3023405360381E-01 
 4.3019270407565E-09  1.2905789142272E-08  2.1509682706462E-08  3.0113631122225E-08  3.8717657806381E-08  4.7321786182890E-08  5.5926039648088E-08  6.4530441618114E-08  7.3135087248392E-08  7.3135087248392E-08 
 0.0000000000000E+00  1.6602922856203E+00  3.3205883809574E+00  4.9808928041363E+00  6.6412100718089E+00  8.3015447024680E+00  9.9619012142384E+00  1.1622284124140E+01  1.3282697949912E+01  1.4943147210177E+01 
 1.4943147210664E+01  1.3282854925055E+01  1.1622558829654E+01  9.9622544068054E+00  8.3019371388295E+00  6.6416025080108E+00  4.9812459965852E+00  3.3208630867247E+00  1.6604492605284E+00  0.0000000000000E+00 
 1.6603977095597E-08  3.3207985210697E-08  3.3208106582430E-08  3.3208318307253E-08  3.3208620385652E-08  3.3209012818223E-08  3.3209495606465E-08  3.3210068751675E-08  3.3210732255105E-08  1.6605743059596E-08 
 9.1448444543297E+04  1.8289688908659E+05  1.8289688908659E+05  1.8289688908659E+05  1.8289688908659E+05  1.8289688908659E+05  1.8289688908659E+05  1.8289688908659E+05  1.8289688908659E+05  9.1448444543297E+04 
 3.6579377817311E+05  7.3158755634621E+05  7.3158755634621E+05  7.3158755634621E+05  7.3158755634621E+05  7.3158755634621E+05  7.3158755634621E+05  7.3158755634621E+05  7.3158755634621E+05  3.6579377817311E+05 
 4.5724222271640E+05  9.1448444543281E+05  9.1448444543281E+05  9.1448444543281E+05  9.1448444543281E+05  9.1448444543281E+05  9.1448444543281E+05  9.1448444543281E+05  9.1448444543281E+05  4.5724222271640E+05 
 3.5000000000000E-01  3.5000000000000E-01  3.5000000000000E-01  3.5000000000000E-01  3.5000000000000E-01  3.5000000000000E-01  3.5000000000000E-01  3.5000000000000E-01  3.5000000000000E-01  3.5000000000000E-01 
 8.5301666666666E+00  1.7060333333333E+01  1.7060333333333E+01  1.7060333333333E+01  1.7060333333333E+01  1.7060333333333E+01  1.7060333333333E+01  1.7060333333333E+01  1.7060333333333E+01  8.5301666666666E+00 
 9.7318820077266E-02  9.7318910988104E-02  9.7319266702976E-02  9.7319887223080E-02  9.7320772550171E-02  9.7321922686583E-02  9.7323337635710E-02  9.7325017401556E-02  9.7326961988785E-02  9.7329171403898E-02 
 4.3744444444444E-05  8.7488888888889E-05  8.7488888888889E-05  8.7488888888889E-05  8.7488888888889E-05  8.7488888888889E-05  8.7488888888889E-05  8.7488888888889E-05  8.7488888888889E-05  4.3744444444444E-05 
 8.6666666666662E+01  8.6666666666662E+01  8.6666666666662E+01  8.6666666666662E+01  8.6666666666662E+01  8.6666666666662E+01  8.6666666666662E+01  8.6666666666662E+01  8.6666666666662E+01  8.6666666666662E+01 
 2.1666666666671E+01  2.1666666666671E+01  2.1666666666671E+01  2.1666666666671E+01  2.1666666666671E+01  2.1666666666671E+01  2.1666666666671E+01  2.1666666666671E+01  2.1666666666671E+01  2.1666666666671E+01 
 9.0858798605782E-12  1.4181993860048E-11  3.0417296139101E-11  5.8738826857124E-11  9.9146792015779E-11  1.5164174856477E-10  2.1622432641873E-10  2.9289495177528E-10  3.8165465701107E-10  4.2905698091549E-10 
 4.5429738271900E-04  7.0910636503652E-04  1.5208791526024E-03  2.9369676474690E-03  4.9573872614693E-03  7.5821599856605E-03  1.0811314388762E-02  1.4644885615378E-02  1.9082915389434E-02  2.1453050540167E-02 
 1.4844603770953E-04  7.4222255044971E-04  2.5235630190885E-03  5.4924864039601E-03  9.6490132748884E-03  1.4993199067536E-02  2.1525106285004E-02  2.9244776829699E-02  3.8152312992938E-02  4.2903067478258E-02 
 7.6014194834829E-04  6.7597683555510E-04  5.1816659482162E-04  3.8139628175228E-04  2.6566592668948E-04  1.7097578894104E-04  9.7326356869097E-05  4.4718347829209E-05  1.3152708168547E-05  2.6306132905118E-06 
 0.0000000000000E+00  0.0000000000000E+00  0.0000000000000E+00  0.0000000000000E+00  0.0000000000000E+00  0.0000000000000E+00  0.0000000000000E+00  0.0000000000000E+00  0.0000000000000E+00  0.0000000000000E+00 
 0.0000000000000E+00  0.0000000000000E+00  0.0000000000000E+00  0.0000000000000E+00  0.0000000000000E+00  0.0000000000000E+00  0.0000000000000E+00  0.0000000000000E+00  0.0000000000000E+00  0.0000000000000E+00 
 0.0000000000000E+00  0.0000000000000E+00  0.0000000000000E+00  0.0000000000000E+00  0.0000000000000E+00  0.0000000000000E+00  0.0000000000000E+00  0.0000000000000E+00  0.0000000000000E+00  0.0000000000000E+00 
ZONE T = "ANOD, 3.0000E-08", I = 10, SOLUTIONTIME = 3.000000E-08
ZONETYPE = ORDERED
DATAPACKING = BLOCK
STRANDID = 1
 0.0000000000000E+00  8.7488888888889E-05  1.7497777777778E-04  2.6246666666667E-04  3.4995555555556E-04  4.3744444444444E-04  5.2493333333333E-04  6.1242222222222E-04  6.9991111111111E-04  7.8740000000000E-04 
 5.7682143060161E-10  1.7301021610787E-09  2.8837503133667E-09  4.0374058168314E-09  5.1892557699480E-09  6.3403929330432E-09  7.4915468587557E-09  8.6434470997710E-09  9.7953703779192E-09  1.0371889915838E-08 
 9.1999999999896E-01  9.1999999999896E-01  9.1999999999896E-01  9.1999999999896E-01  9.1999999999896E-01  9.1999999999896E-01  9.1999999999896E-01  9.1999999999896E-01  9.1999999999896E-01  9.1999999999957E-01 
 4.0000000000520E-02  4.0000000000520E-02  4.0000000000520E-02  4.0000000000520E-02  4.0000000000520E-02  4.0000000000520E-02  4.0000000000520E-02  4.0000000000520E-02  4.0000000000520E-02  4.0000000000215E-02 
 4.0000000000520E-02  4.0000000000520E-02  4.0000000000520E-02  4.0000000000520E-02  4.0000000000520E-02  4.0000000000520E-02  4.0000000000520E-02  4.0000000000520E-02  4.0000000000520E-02  4.0000000000215E-02 
 3.5021948066736E-02  3.5021940244402E-02  3.5021916777386E-02  3.5021877665631E-02  3.5021822909037E-02  3.5021752507461E-02  3.5021666460719E-02  3.5021564768584E-02  3.5021447430784E-02  3.5021314447009E-02 
-2.5574711934305E-07 -2.5810326563659E-07 -2.6018222827403E-07 -2.6198400624221E-07 -2.6350859777378E-07 -2.6475600034714E-07 -2.6572621068648E-07 -2.6641922476174E-07 -2.6683503778861E-07 -2.6697364422852E-07 
-3.5022203813855E-02 -3.5022198347668E-02 -3.5022176959615E-02 -3.5022139649638E-02 -3.5022086417635E-02 -3.5022017263462E-02 -3.5021932186930E-02 -3.5021831187809E-02 -3.5021714265822E-02 -3.5021581420653E-02 
-4.0899179293095E-02 -4.0899179293095E-02 -4.0899179293095E-02 -4.0899179293095E-02 -4.0899179293095E-02 -4.0899179293095E-02 -4.0899179293095E-02 -4.0899179293095E-02 -4.0899179293095E-02 -4.0899179293291E-02 
 5.8769754792395E-03  5.8769809454269E-03  5.8770023334802E-03  5.8770396434574E-03  5.8770928754601E-03  5.8771620296332E-03  5.8772471061648E-03  5.8773481052863E-03  5.8774650272727E-03  5.8775978726378E-03 
 8.3014575505772E-01  1.6602930610837E+00  1.6602991296989E+00  1.6603097159787E+00  1.6603248199529E+00  1.6603444416636E+00  1.6603685811674E+00  1.6603972385325E+00  1.6604304138388E+00  8.3023405360677E-01 
 4.3019270369590E-09  1.2905789146144E-08  2.1509682700484E-08  3.0113631124611E-08  3.8717657806549E-08  4.7321786180840E-08  5.5926039644514E-08  6.4530441618393E-08  7.3135123119478E-08  7.3135123119478E-08 
 0.0000000000000E+00  1.6602922856274E+00  3.3205883809718E+00  4.9808928037897E+00  6.6412100718376E+00  8.3015447025039E+00  9.9619012139134E+00  1.1622284123822E+01  1.3282697950329E+01  1.4943147210959E+01 
 1.4943147210581E+01  1.3282854924982E+01  1.1622558829590E+01  9.9622544067515E+00  8.3019371387856E+00  6.6416025079775E+00  4.9812459965619E+00  3.3208630867119E+00  1.6604492605262E+00  0.0000000000000E+00 
 2.4905434646174E-08  4.9810915821534E-08  4.9811097879420E-08  4.9811415467041E-08  4.9811868585182E-08  4.9812457234859E-08  4.9813181418139E-08  4.9814041137000E-08  4.9815036393493E-08  2.4908083595664E-08 
 9.1448444543306E+04  1.8289688908661E+05  1.8289688908661E+05  1.8289688908661E+05  1.8289688908661E+05  1.8289688908661E+05  1.8289688908661E+05  1.8289688908661E+05  1.8289688908661E+05  9.1448444543306E+04 
 3.6579377817310E+05  7.3158755634620E+05  7.3158755634620E+05  7.3158755634620E+05  7.3158755634620E+05  7.3158755634620E+05  7.3158755634620E+05  7.3158755634620E+05  7.3158755634620E+05  3.6579377817310E+05 
 4.5724222271640E+05  9.1448444543281E+05  9.1448444543281E+05  9.1448444543281E+05  9.1448444543281E+05  9.1448444543281E+05  9.1448444543281E+05  9.1448444543281E+05  9.1448444543281E+05  4.5724222271640E+05 
 3.5000000000000E-01  3.5000000000000E-01  3.5000000000000E-01  3.5000000000000E-01  3.5000000000000E-01  3.5000000000000E-01  3.5000000000000E-01  3.5000000000000E-01  3.5000000000000E-01  3.5000000000000E-01 
 8.5301666666666E+00  1.7060333333333E+01  1.7060333333333E+01  1.7060333333333E+01  1.7060333333333E+01  1.7060333333333E+01  1.7060333333333E+01  1.7060333333333E+01  1.7060333333333E+01  8.5301666666666E+00 
 9.7318820076715E-02  9.7318910987495E-02  9.7319266702424E-02  9.7319887222529E-02  9.7320772549556E-02  9.7321922685975E-02  9.7323337635102E-02  9.7325017400941E-02  9.7326961988171E-02  9.7329171404245E-02 
 4.3744444444444E-05  8.7488888888889E-05  8.7488888888889E-05  8.7488888888889E-05  8.7488888888889E-05  8.7488888888889E-05  8.7488888888889E-05  8.7488888888889E-05  8.7488888888889E-05  4.3744444444444E-05 
 8.6666666666660E+01  8.6666666666660E+01  8.6666666666660E+01  8.6666666666660E+01  8.6666666666660E+01  8.6666666666660E+01  8.6666666666660E+01  8.6666666666660E+01  8.6666666666660E+01  8.6666666666660E+01 
 2.1666666666672E+01  2.1666666666672E+01  2.1666666666672E+01  2.1666666666672E+01  2.1666666666672E+01  2.1666666666672E+01  2.1666666666672E+01  2.1666666666672E+01  2.1666666666672E+01  2.1666666666672E+01 
 1.3628853686412E-11  2.1273057511709E-11  4.5626087663835E-11  8.8108503328620E-11  1.4872066463067E-10  2.2746334842169E-10  3.2433747029825E-10  4.3934380792113E-10  5.7248381091729E-10  6.4358748634020E-10 
 4.5429738258342E-04  7.0910636516608E-04  1.5208791524733E-03  2.9369676471496E-03  4.9573872614888E-03  7.5821599856921E-03  1.0811314387953E-02  1.4644885614585E-02  1.9082915390622E-02  2.1453050542471E-02 
 2.2266891606148E-04  1.1133373585835E-03  3.7853564676539E-03  8.2387541388232E-03  1.4473566339047E-02  2.2489870364520E-02  3.2287757042359E-02  4.3867303062594E-02  5.7228651968360E-02  6.4354802701860E-02 
 1.1402164525798E-03  1.0139683925874E-03  7.7725229872952E-04  5.7209619403882E-04  3.9850012401986E-04  2.5646447764885E-04  1.4598998746596E-04  6.7077729519376E-05  1.9729123369382E-05  3.9459321604045E-06 
 0.0000000000000E+00  0.0000000000000E+00  0.0000000000000E+00  0.0000000000000E+00  0.0000000000000E+00  0.0000000000000E+00  0.0000000000000E+00  0.0000000000000E+00  0.0000000000000E+00  0.0000000000000E+00 
 0.0000000000000E+00  0.0000000000000E+00  0.0000000000000E+00  0.0000000000000E+00  0.0000000000000E+00  0.0000000000000E+00  0.0000000000000E+00  0.0000000000000E+00  0.0000000000000E+00  0.0000000000000E+00 
 0.0000000000000E+00  0.0000000000000E+00  0.0000000000000E+00  0.0000000000000E+00  0.0000000000000E+00  0.0000000000000E+00  0.0000000000000E+00  0.0000000000000E+00  0.0000000000000E+00  0.0000000000000E+00 
ZONE T = "ANOD, 4.0000E-08", I = 10, SOLUTIONTIME = 4.000000E-08
ZONETYPE = ORDERED
DATAPACKING = BLOCK
STRANDID = 1
 0.0000000000000E+00  8.7488888888889E-05  1.7497777777778E-04  2.6246666666667E-04  3.4995555555556E-04  4.3744444444444E-04  5.2493333333333E-04  6.1242222222222E-04  6.9991111111111E-04  7.8740000000000E-04 
 5.7645822287019E-10  1.7293757456123E-09  2.8822974824375E-09  4.0352265704393E-09  5.1881661467324E-09  6.3422089716431E-09  7.4962685591709E-09  8.6492584233627E-09  9.8022713246875E-09  1.0378427654881E-08 
 9.1999999999861E-01  9.1999999999861E-01  9.1999999999861E-01  9.1999999999861E-01  9.1999999999861E-01  9.1999999999861E-01  9.1999999999861E-01  9.1999999999861E-01  9.1999999999861E-01  9.1999999999943E-01 
 4.0000000000693E-02  4.0000000000693E-02  4.0000000000693E-02  4.0000000000693E-02  4.0000000000693E-02  4.0000000000693E-02  4.0000000000693E-02  4.0000000000693E-02  4.0000000000693E-02  4.0000000000287E-02 
 4.0000000000693E-02  4.0000000000693E-02  4.0000000000693E-02  4.0000000000693E-02  4.0000000000693E-02  4.0000000000693E-02  4.0000000000693E-02  4.0000000000693E-02  4.0000000000693E-02  4.0000000000287E-02 
 3.5021948066546E-02  3.5021940244213E-02  3.5021916777197E-02  3.5021877665442E-02  3.5021822908847E-02  3.5021752507272E-02  3.5021666460530E-02  3.5021564768394E-02  3.5021447430595E-02  3.5021314446819E-02 
-2.5574711934163E-07 -2.5810326563516E-07 -2.6018222827259E-07 -2.6198400624077E-07 -2.6350859777233E-07 -2.6475600034568E-07 -2.6572621068502E-07 -2.6641922476027E-07 -2.6683503778714E-07 -2.6697364422705E-07 
-3.5022203813666E-02 -3.5022198347478E-02 -3.5022176959425E-02 -3.5022139649448E-02 -3.5022086417445E-02 -3.5022017263272E-02 -3.5021932186740E-02 -3.5021831187619E-02 -3.5021714265633E-02 -3.5021581420463E-02 
-4.0899179292846E-02 -4.0899179292846E-02 -4.0899179292846E-02 -4.0899179292846E-02 -4.0899179292849E-02 -4.0899179292846E-02 -4.0899179292846E-02 -4.0899179292849E-02 -4.0899179292849E-02 -4.0899179293110E-02 
 5.8769754791801E-03  5.8769809453680E-03  5.8770023334208E-03  5.8770396433980E-03  5.8770928754039E-03  5.8771620295738E-03  5.8772471061054E-03  5.8773481052301E-03  5.8774650272165E-03  5.8775978726468E-03 
 8.3014575505247E-01  1.6602930610732E+00  1.6602991296885E+00  1.6603097159683E+00  1.6603248199431E+00  1.6603444416537E+00  1.6603685811575E+00  1.6603972385228E+00  1.6604304138290E+00  8.3023405361009E-01 