TITLE = "Solution on Domain BulkDomain1D_0"
VARIABLES = "x [m]"  
"Vel_axial" 
"MF_sp(ECDMC)" 
"MF_sp(Li+)" 
"MF_sp(PF6-)" 
"Volt(Electroly)" 
"Volt(AnodeVolt)" 
"Potential Drop Electrode-Electrolyte [V]" 
"Surf_0 Equilibrium Potential Drop Electrode-Electrolyte [V]" 
"Overpotential_0 [V]" 
"Current Source [A/m^2]" 
"Li+ flux [kmol/m^2/s]" 
"Electrolyte Current [A/m^2]" 
"Electrode Current [A/m^2]" 
"CV Capacity discharged [A-s/m^2]" 
"Depth of discharge in CV [A-s/m^2]" 
"CV Capacity remaining [A-s/m^2]" 
"Initial CV capacity [A-s/m^2]" 
"Porosity []" 
"Surface Area [m2/m2] (area per area)" 
"Specific current (per particle area) [A/m^2]" 
"Control volume thickness [m]" 
"MoleDens Li_C6-bulk [kmol/m^3]" 
"MoleDens V_C6-bulk [kmol/m^3]" 
"qHeat_accum [J/m3]" 
"qHeat_step [W/m3]" 
"Joule_Lyte [W/m3]" 
"Joule_Solid [W/m3]" 
"electrodHeat [W/m3]" 
"OverpotHeat [W/m3]" 
"deltaSHeat [W/m3]" 

ZONE T = "ANOD, 0.0000E+00", I = 10, SOLUTIONTIME = 0.000000E+00
ZONETYPE = ORDERED
DATAPACKING = BLOCK
STRANDID = 1
 0.0000000000000E+00  8.7488888888889E-05  1.7497777777778E-04  2.6246666666667E-04  3.4995555555556E-04  4.3744444444444E-04  5.2493333333333E-04  6.1242222222222E-04  6.9991111111111E-04  7.8740000000000E-04 
 0.0000000000000E+00  0.0000000000000E+00  0.0000000000000E+00  0.0000000000000E+00  0.0000000000000E+00  0.0000000000000E+00  0.0000000000000E+00  0.0000000000000E+00  0.0000000000000E+00  0.0000000000000E+00 
 9.2000000000000E-01  9.2000000000000E-01  9.2000000000000E-01  9.2000000000000E-01  9.2000000000000E-01  9.2000000000000E-01  9.2000000000000E-01  9.2000000000000E-01  9.2000000000000E-01  9.2000000000000E-01 
 4.0000000000000E-02  4.0000000000000E-02  4.0000000000000E-02  4.0000000000000E-02  4.0000000000000E-02  4.0000000000000E-02  4.0000000000000E-02  4.0000000000000E-02  4.0000000000000E-02  4.0000000000000E-02 
 4.0000000000000E-02  4.0000000000000E-02  4.0000000000000E-02  4.0000000000000E-02  4.0000000000000E-02  4.0000000000000E-02  4.0000000000000E-02  4.0000000000000E-02  4.0000000000000E-02  4.0000000000000E-02 
-7.0000000000000E-02 -7.0000000000000E-02 -7.0000000000000E-02 -7.0000000000000E-02 -7.0000000000000E-02 -7.0000000000000E-02 -7.0000000000000E-02 -7.0000000000000E-02 -7.0000000000000E-02 -7.0000000000000E-02 
 0.0000000000000E+00  0.0000000000000E+00  0.0000000000000E+00  0.0000000000000E+00  0.0000000000000E+00  0.0000000000000E+00  0.0000000000000E+00  0.0000000000000E+00  0.0000000000000E+00  0.0000000000000E+00 
 7.0000000000000E-02  7.0000000000000E-02  7.0000000000000E-02  7.0000000000000E-02  7.0000000000000E-02  7.0000000000000E-02  7.0000000000000E-02  7.0000000000000E-02  7.0000000000000E-02  7.0000000000000E-02 
-4.0906712753390E-02 -4.0906712753390E-02 -4.0906712753390E-02 -4.0906712753390E-02 -4.0906712753390E-02 -4.0906712753390E-02 -4.0906712753390E-02 -4.0906712753390E-02 -4.0906712753390E-02 -4.0906712753390E-02 
 1.1090671275339E-01  1.1090671275339E-01  1.1090671275339E-01  1.1090671275339E-01  1.1090671275339E-01  1.1090671275339E-01  1.1090671275339E-01  1.1090671275339E-01  1.1090671275339E-01  1.1090671275339E-01 
 3.0930240924008E+01  6.1860481848016E+01  6.1860481848016E+01  6.1860481848016E+01  6.1860481848016E+01  6.1860481848016E+01  6.1860481848016E+01  6.1860481848016E+01  6.1860481848016E+01  3.0930240924008E+01 
-0.0000000000000E+00 -0.0000000000000E+00 -0.0000000000000E+00 -0.0000000000000E+00 -0.0000000000000E+00 -0.0000000000000E+00 -0.0000000000000E+00 -0.0000000000000E+00 -0.0000000000000E+00 -0.0000000000000E+00 
 0.0000000000000E+00  0.0000000000000E+00  0.0000000000000E+00  0.0000000000000E+00  0.0000000000000E+00  0.0000000000000E+00  0.0000000000000E+00  0.0000000000000E+00  0.0000000000000E+00  3.0930240924008E+01 
 3.0930240924008E+01 -0.0000000000000E+00 -0.0000000000000E+00 -0.0000000000000E+00 -0.0000000000000E+00 -0.0000000000000E+00 -0.0000000000000E+00 -0.0000000000000E+00 -0.0000000000000E+00  0.0000000000000E+00 
 0.0000000000000E+00  0.0000000000000E+00  0.0000000000000E+00  0.0000000000000E+00  0.0000000000000E+00  0.0000000000000E+00  0.0000000000000E+00  0.0000000000000E+00  0.0000000000000E+00  0.0000000000000E+00 
 9.1448444543281E+04  1.8289688908656E+05  1.8289688908656E+05  1.8289688908656E+05  1.8289688908656E+05  1.8289688908656E+05  1.8289688908656E+05  1.8289688908656E+05  1.8289688908656E+05  9.1448444543281E+04 
 3.6579377817312E+05  7.3158755634625E+05  7.3158755634625E+05  7.3158755634625E+05  7.3158755634625E+05  7.3158755634625E+05  7.3158755634625E+05  7.3158755634625E+05  7.3158755634625E+05  3.6579377817312E+05 
 4.5724222271640E+05  9.1448444543281E+05  9.1448444543281E+05  9.1448444543281E+05  9.1448444543281E+05  9.1448444543281E+05  9.1448444543281E+05  9.1448444543281E+05  9.1448444543281E+05  4.5724222271640E+05 
 3.5000000000000E-01  3.5000000000000E-01  3.5000000000000E-01  3.5000000000000E-01  3.5000000000000E-01  3.5000000000000E-01  3.5000000000000E-01  3.5000000000000E-01  3.5000000000000E-01  3.5000000000000E-01 
 8.5301666666666E+00  1.7060333333333E+01  1.7060333333333E+01  1.7060333333333E+01  1.7060333333333E+01  1.7060333333333E+01  1.7060333333333E+01  1.7060333333333E+01  1.7060333333333E+01  8.5301666666666E+00 
 3.6259831879809E+00  3.6259831879809E+00  3.6259831879809E+00  3.6259831879809E+00  3.6259831879809E+00  3.6259831879809E+00  3.6259831879809E+00  3.6259831879809E+00  3.6259831879809E+00  3.6259831879809E+00 
 4.3744444444444E-05  8.7488888888889E-05  8.7488888888889E-05  8.7488888888889E-05  8.7488888888889E-05  8.7488888888889E-05  8.7488888888889E-05  8.7488888888889E-05  8.7488888888889E-05  4.3744444444444E-05 
 8.6666666666666E+01  8.6666666666666E+01  8.6666666666666E+01  8.6666666666666E+01  8.6666666666666E+01  8.6666666666666E+01  8.6666666666666E+01  8.6666666666666E+01  8.6666666666666E+01  8.6666666666666E+01 
 2.1666666666667E+01  2.1666666666667E+01  2.1666666666667E+01  2.1666666666667E+01  2.1666666666667E+01  2.1666666666667E+01  2.1666666666667E+01  2.1666666666667E+01  2.1666666666667E+01  2.1666666666667E+01 
 0.0000000000000E+00  0.0000000000000E+00  0.0000000000000E+00  0.0000000000000E+00  0.0000000000000E+00  0.0000000000000E+00  0.0000000000000E+00  0.0000000000000E+00  0.0000000000000E+00  0.0000000000000E+00 
 0.0000000000000E+00  0.0000000000000E+00  0.0000000000000E+00  0.0000000000000E+00  0.0000000000000E+00  0.0000000000000E+00  0.0000000000000E+00  0.0000000000000E+00  0.0000000000000E+00  0.0000000000000E+00 
 0.0000000000000E+00  0.0000000000000E+00  0.0000000000000E+00  0.0000000000000E+00  0.0000000000000E+00  0.0000000000000E+00  0.0000000000000E+00  0.0000000000000E+00  0.0000000000000E+00  0.0000000000000E+00 
 0.0000000000000E+00  0.0000000000000E+00  0.0000000000000E+00  0.0000000000000E+00  0.0000000000000E+00  0.0000000000000E+00  0.0000000000000E+00  0.0000000000000E+00  0.0000000000000E+00  0.0000000000000E+00 
 0.0000000000000E+00  0.0000000000000E+00  0.0000000000000E+00  0.0000000000000E+00  0.0000000000000E+00  0.0000000000000E+00  0.0000000000000E+00  0.0000000000000E+00  0.0000000000000E+00  0.0000000000000E+00 
 0.0000000000000E+00  0.0000000000000E+00  0.0000000000000E+00  0.0000000000000E+00  0.0000000000000E+00  0.0000000000000E+00  0.0000000000000E+00  0.0000000000000E+00  0.0000000000000E+00  0.0000000000000E+00 
 0.0000000000000E+00  0.0000000000000E+00  0.0000000000000E+00  0.0000000000000E+00  0.0000000000000E+00  0.0000000000000E+00  0.0000000000000E+00  0.0000000000000E+00  0.0000000000000E+00  0.0000000000000E+00 
ZONE T = "ANOD, 1.0000E-08", I = 10, SOLUTIONTIME = 1.000000E-08
ZONETYPE = ORDERED
DATAPACKING = BLOCK
STRANDID = 1
 0.0000000000000E+00  8.7488888888889E-05  1.7497777777778E-04  2.6246666666667E-04  3.4995555555556E-04  4.3744444444444E-04  5.2493333333333E-04  6.1242222222222E-04  6.9991111111111E-04  7.8740000000000E-04 
 5.7645286436693E-10  1.7293596710890E-09  2.8822706911999E-09  4.0351890625501E-09  5.1881179205970E-09  6.3410604031357E-09  7.4940196457785E-09  8.6469987875742E-09  9.8000009641446E-09  1.0376515137689E-08 
 9.1999999999965E-01  9.1999999999965E-01  9.1999999999965E-01  9.1999999999965E-01  9.1999999999965E-01  9.1999999999965E-01  9.1999999999965E-01  9.1999999999965E-01  9.1999999999965E-01  9.1999999999986E-01 
 4.0000000000173E-02  4.0000000000173E-02  4.0000000000173E-02  4.0000000000173E-02  4.0000000000173E-02  4.0000000000173E-02  4.0000000000173E-02  4.0000000000173E-02  4.0000000000173E-02  4.0000000000072E-02 
 4.0000000000173E-02  4.0000000000173E-02  4.0000000000173E-02  4.0000000000173E-02  4.0000000000173E-02  4.0000000000173E-02  4.0000000000173E-02  4.0000000000173E-02  4.0000000000173E-02  4.0000000000072E-02 
 3.5028732241067E-02  3.5028724418890E-02  3.5028700952107E-02  3.5028661840688E-02  3.5028607084597E-02  3.5028536683725E-02  3.5028450637688E-02  3.5028348946478E-02  3.5028231609845E-02  3.5028098627342E-02 
-2.5574474148372E-07 -2.5810086587023E-07 -2.6017980917697E-07 -2.6198157039097E-07 -2.6350614774485E-07 -2.6475353871739E-07 -2.6572374003302E-07 -2.6641674766226E-07 -2.6683255682099E-07 -2.6697116197120E-07 
-3.5028987985808E-02 -3.5028982519756E-02 -3.5028961131917E-02 -3.5028923822259E-02 -3.5028870590744E-02 -3.5028801437264E-02 -3.5028716361428E-02 -3.5028615363226E-02 -3.5028498442402E-02 -3.5028365598504E-02 
-4.0906712753142E-02 -4.0906712753146E-02 -4.0906712753142E-02 -4.0906712753142E-02 -4.0906712753142E-02 -4.0906712753142E-02 -4.0906712753142E-02 -4.0906712753142E-02 -4.0906712753142E-02 -4.0906712753207E-02 
 5.8777247673336E-03  5.8777302333897E-03  5.8777516212251E-03  5.8777889308831E-03  5.8778421623973E-03  5.8779113158781E-03  5.8779963917140E-03  5.8780973899160E-03  5.8782143107395E-03  5.8783471547026E-03 
 8.3025205609768E-01  1.6605056631275E+00  1.6605117316924E+00  1.6605223178993E+00  1.6605374217597E+00  1.6605570433071E+00  1.6605811826536E+00  1.6606098398048E+00  1.6606430148363E+00  8.3034035394002E-01 
 4.3018404364680E-09  1.2905661042636E-08  2.1509497928182E-08  3.0113354649688E-08  3.8717270444041E-08  4.7321398635079E-08  5.5925530618420E-08  6.4529799956207E-08  7.3134351399976E-08  7.3134351399976E-08 
 0.0000000000000E+00  1.6602715698399E+00  3.3205581926090E+00  4.9808482999786E+00  6.6411460208909E+00  8.3014699348499E+00  9.9618147078101E+00  1.1622173099210E+01  1.3282568501227E+01  1.4943118435072E+01 
 1.4943122291427E+01  1.3282731420756E+01  1.1622450757797E+01  9.9621617678457E+00  8.3018599338718E+00  6.6415407388773E+00  4.9811996657632E+00  3.3208321965248E+00  1.6604338131484E+00  0.0000000000000E+00 
 8.3025205609768E-09  1.6605056631275E-08  1.6605117316924E-08  1.6605223178993E-08  1.6605374217597E-08  1.6605570433071E-08  1.6605811826536E-08  1.6606098398048E-08  1.6606430148363E-08  8.3034035394002E-09 
 9.1448444543289E+04  1.8289688908658E+05  1.8289688908658E+05  1.8289688908658E+05  1.8289688908658E+05  1.8289688908658E+05  1.8289688908658E+05  1.8289688908658E+05  1.8289688908658E+05  9.1448444543289E+04 
 3.6579377817311E+05  7.3158755634623E+05  7.3158755634623E+05  7.3158755634623E+05  7.3158755634623E+05  7.3158755634623E+05  7.3158755634623E+05  7.3158755634623E+05  7.3158755634623E+05  3.6579377817311E+05 
 4.5724222271640E+05  9.1448444543281E+05  9.1448444543281E+05  9.1448444543281E+05  9.1448444543281E+05  9.1448444543281E+05  9.1448444543281E+05  9.1448444543281E+05  9.1448444543281E+05  4.5724222271640E+05 
 3.5000000000000E-01  3.5000000000000E-01  3.5000000000000E-01  3.5000000000000E-01  3.5000000000000E-01  3.5000000000000E-01  3.5000000000000E-01  3.5000000000000E-01  3.5000000000000E-01  3.5000000000000E-01 
 8.5301666666666E+00  1.7060333333333E+01  1.7060333333333E+01  1.7060333333333E+01  1.7060333333333E+01  1.7060333333333E+01  1.7060333333333E+01  1.7060333333333E+01  1.7060333333333E+01  8.5301666666666E+00 
 9.7331281854323E-02  9.7331372762990E-02  9.7331728474968E-02  9.7332348990796E-02  9.7333234311153E-02  9.7334384438003E-02  9.7335799377912E-02  9.7337479131209E-02  9.7339423702328E-02  9.7341633099004E-02 
 4.3744444444444E-05  8.7488888888889E-05  8.7488888888889E-05  8.7488888888889E-05  8.7488888888889E-05  8.7488888888889E-05  8.7488888888889E-05  8.7488888888889E-05  8.7488888888889E-05  4.3744444444444E-05 
 8.6666666666664E+01  8.6666666666664E+01  8.6666666666664E+01  8.6666666666664E+01  8.6666666666664E+01  8.6666666666664E+01  8.6666666666664E+01  8.6666666666664E+01  8.6666666666664E+01  8.6666666666664E+01 
 2.1666666666669E+01  2.1666666666669E+01  2.1666666666669E+01  2.1666666666669E+01  2.1666666666669E+01  2.1666666666669E+01  2.1666666666669E+01  2.1666666666669E+01  2.1666666666669E+01  2.1666666666669E+01 
 4.5428732668741E-12  7.0909195505276E-12  1.5208517636559E-11  2.9369147697153E-11  4.9572912493253E-11  7.5820246930272E-11  1.0811125757614E-10  1.4644604959518E-10  1.9082543886537E-10  2.1452639886328E-10 
 4.5428732668741E-04  7.0909195505276E-04  1.5208517636559E-03  2.9369147697153E-03  4.9572912493253E-03  7.5820246930272E-03  1.0811125757614E-02  1.4644604959518E-02  1.9082543886537E-02  2.1452639886328E-02 
 7.4219890154238E-05  3.7110668328582E-04  1.2617708779087E-03  2.7462184040355E-03  4.8244595225919E-03  7.4965375944499E-03  1.0762463032254E-02  1.4622245993787E-02  1.9075967593694E-02  2.1451324591935E-02 
 3.8006743653317E-04  3.3798527176694E-04  2.5908088574721E-04  1.9069636567989E-04  1.3283172673340E-04  8.5487098577368E-05  4.8662725360570E-05  2.2358965730452E-05  6.5762928431618E-06  1.3152943925697E-06 
 0.0000000000000E+00  0.0000000000000E+00  0.0000000000000E+00  0.0000000000000E+00  0.0000000000000E+00  0.0000000000000E+00  0.0000000000000E+00  0.0000000000000E+00  0.0000000000000E+00  0.0000000000000E+00 
 0.0000000000000E+00  0.0000000000000E+00  0.0000000000000E+00  0.0000000000000E+00  0.0000000000000E+00  0.0000000000000E+00  0.0000000000000E+00  0.0000000000000E+00  0.0000000000000E+00  0.0000000000000E+00 
 0.0000000000000E+00  0.0000000000000E+00  0.0000000000000E+00  0.0000000000000E+00  0.0000000000000E+00  0.0000000000000E+00  0.0000000000000E+00  0.0000000000000E+00  0.0000000000000E+00  0.0000000000000E+00 
ZONE T = "ANOD, 2.0000E-08", I = 10, SOLUTIONTIME = 2.000000E-08
ZONETYPE = ORDERED
DATAPACKING = BLOCK
STRANDID = 1
 0.0000000000000E+00  8.7488888888889E-05  1.7497777777778E-04  2.6246666666667E-04  3.4995555555556E-04  4.3744444444444E-04  5.2493333333333E-04  6.1242222222222E-04  6.9991111111111E-04  7.8740000000000E-04 
 5.7609501514935E-10  1.7286493301782E-09  2.8808446515616E-09  4.0330473241216E-09  5.1856236927010E-09  6.3393033098979E-09  7.4929996897120E-09  8.6470791771013E-09  9.8011817016235E-09  1.0377701239541E-08 
 9.1999999999931E-01  9.1999999999931E-01  9.1999999999931E-01  9.1999999999931E-01  9.1999999999931E-01  9.1999999999931E-01  9.1999999999931E-01  9.1999999999931E-01  9.1999999999931E-01  9.1999999999971E-01 
 4.0000000000346E-02  4.0000000000346E-02  4.0000000000346E-02  4.0000000000346E-02  4.0000000000346E-02  4.0000000000346E-02  4.0000000000346E-02  4.0000000000346E-02  4.0000000000346E-02  4.0000000000143E-02 
 4.0000000000346E-02  4.0000000000346E-02  4.0000000000346E-02  4.0000000000346E-02  4.0000000000346E-02  4.0000000000346E-02  4.0000000000346E-02  4.0000000000346E-02  4.0000000000346E-02  4.0000000000143E-02 
 3.5029481526481E-02  3.5029473704147E-02  3.5029450237131E-02  3.5029411125376E-02  3.5029356368782E-02  3.5029285967206E-02  3.5029199920464E-02  3.5029098228328E-02  3.5028980890529E-02  3.5028847906753E-02 
-2.5574711934447E-07 -2.5810326563803E-07 -2.6018222827547E-07 -2.6198400624367E-07 -2.6350859777525E-07 -2.6475600034861E-07 -2.6572621068796E-07 -2.6641922476322E-07 -2.6683503779009E-07 -2.6697364423000E-07 
-3.5029737273600E-02 -3.5029731807413E-02 -3.5029710419359E-02 -3.5029673109382E-02 -3.5029619877379E-02 -3.5029550723206E-02 -3.5029465646675E-02 -3.5029364647553E-02 -3.5029247725567E-02 -3.5029114880397E-02 
-4.0906712752895E-02 -4.0906712752899E-02 -4.0906712752895E-02 -4.0906712752895E-02 -4.0906712752898E-02 -4.0906712752896E-02 -4.0906712752896E-02 -4.0906712752898E-02 -4.0906712752898E-02 -4.0906712753029E-02 
 5.8769754792946E-03  5.8769809454860E-03  5.8770023335353E-03  5.8770396435125E-03  5.8770928755191E-03  5.8771620296892E-03  5.8772471062208E-03  5.8773481053453E-03  5.8774650273317E-03  5.8775978726316E-03 
 8.3014575506247E-01  1.6602930610940E+00  1.6602991297083E+00  1.6603097159881E+00  1.6603248199635E+00  1.6603444416740E+00  1.6603685811777E+00  1.6603972385430E+00  1.6604304138493E+00  8.3023405360381E-01 
 4.3019270407565E-09  1.2905789142272E-08  2.1509682706462E-08  3.0113631122225E-08  3.8717657808636E-08  4.7321786180635E-08  5.5926039648088E-08  6.4530441618114E-08  7.3135087248392E-08  7.3135087248392E-08 
 0.0000000000000E+00  1.6602922856203E+00  3.3205883809574E+00  4.9808928041363E+00  6.6412100718089E+00  8.3015447024680E+00  9.9619012142384E+00  1.1622284124140E+01  1.3282697949912E+01  1.4943147210177E+01 
 1.4943147210664E+01  1.3282854925055E+01  1.1622558829654E+01  9.9622544068054E+00  8.3019371388295E+00  6.6416025080109E+00  4.9812459965850E+00  3.3208630867247E+00  1.6604492605285E+00  0.0000000000000E+00 
 1.6603978111601E-08  3.3207987242216E-08  3.3208108614008E-08  3.3208320338874E-08  3.3208622417232E-08  3.3209014849811E-08  3.3209497638314E-08  3.3210070783478E-08  3.3210734286856E-08  1.6605744075438E-08 
 9.1448444543297E+04  1.8289688908659E+05  1.8289688908659E+05  1.8289688908659E+05  1.8289688908659E+05  1.8289688908659E+05  1.8289688908659E+05  1.8289688908659E+05  1.8289688908659E+05  9.1448444543297E+04 
 3.6579377817311E+05  7.3158755634621E+05  7.3158755634621E+05  7.3158755634621E+05  7.3158755634621E+05  7.3158755634621E+05  7.3158755634621E+05  7.3158755634621E+05  7.3158755634621E+05  3.6579377817311E+05 
 4.5724222271640E+05  9.1448444543281E+05  9.1448444543281E+05  9.1448444543281E+05  9.1448444543281E+05  9.1448444543281E+05  9.1448444543281E+05  9.1448444543281E+05  9.1448444543281E+05  4.5724222271640E+05 
 3.5000000000000E-01  3.5000000000000E-01  3.5000000000000E-01  3.5000000000000E-01  3.5000000000000E-01  3.5000000000000E-01  3.5000000000000E-01  3.5000000000000E-01  3.5000000000000E-01  3.5000000000000E-01 
 8.5301666666666E+00  1.7060333333333E+01  1.7060333333333E+01  1.7060333333333E+01  1.7060333333333E+01  1.7060333333333E+01  1.7060333333333E+01  1.7060333333333E+01  1.7060333333333E+01  8.5301666666666E+00 
 9.7318820077271E-02  9.7318910988104E-02  9.7319266702975E-02  9.7319887223080E-02  9.7320772550176E-02  9.7321922686583E-02  9.7323337635709E-02  9.7325017401555E-02  9.7326961988785E-02  9.7329171403898E-02 
 4.3744444444444E-05  8.7488888888889E-05  8.7488888888889E-05  8.7488888888889E-05  8.7488888888889E-05  8.7488888888889E-05  8.7488888888889E-05  8.7488888888889E-05  8.7488888888889E-05  4.3744444444444E-05 
 8.6666666666662E+01  8.6666666666662E+01  8.6666666666662E+01  8.6666666666662E+01  8.6666666666662E+01  8.6666666666662E+01  8.6666666666662E+01  8.6666666666662E+01  8.6666666666662E+01  8.6666666666662E+01 
 2.1666666666671E+01  2.1666666666671E+01  2.1666666666671E+01  2.1666666666671E+01  2.1666666666671E+01  2.1666666666671E+01  2.1666666666671E+01  2.1666666666671E+01  2.1666666666671E+01  2.1666666666671E+01 
 9.0858470940641E-12  1.4181983200893E-11  3.0417309162582E-11  5.8738824171843E-11  9.9146785107946E-11  1.5164184678688E-10  2.1622440146377E-10  2.9289490574896E-10  3.8165459275972E-10  4.2905690426495E-10 
 4.5429738271900E-04  7.0910636503652E-04  1.5208791526024E-03  2.9369676474690E-03  4.9573872614693E-03  7.5821599856605E-03  1.0811314388762E-02  1.4644885615378E-02  1.9082915389434E-02  2.1453050540167E-02 
 1.4844276863755E-04  7.4222149128636E-04  2.5235643266003E-03  5.4924861392158E-03  9.6490125867295E-03  1.4993208891402E-02  2.1525113790419E-02  2.9244772227475E-02  3.8152306567928E-02  4.2903059813232E-02 
 7.6014194076886E-04  6.7597682880291E-04  5.1816658965793E-04  3.8139627796850E-04  2.6566592406519E-04  1.7097578728603E-04  9.7326355957894E-05  4.4718347420799E-05  1.3152708044029E-05  2.6306132624534E-06 
 0.0000000000000E+00  0.0000000000000E+00  0.0000000000000E+00  0.0000000000000E+00  0.0000000000000E+00  0.0000000000000E+00  0.0000000000000E+00  0.0000000000000E+00  0.0000000000000E+00  0.0000000000000E+00 
 0.0000000000000E+00  0.0000000000000E+00  0.0000000000000E+00  0.0000000000000E+00  0.0000000000000E+00  0.0000000000000E+00  0.0000000000000E+00  0.0000000000000E+00  0.0000000000000E+00  0.0000000000000E+00 
 0.0000000000000E+00  0.0000000000000E+00  0.0000000000000E+00  0.0000000000000E+00  0.0000000000000E+00  0.0000000000000E+00  0.0000000000000E+00  0.0000000000000E+00  0.0000000000000E+00  0.0000000000000E+00 
ZONE T = "ANOD, 3.0000E-08", I = 10, SOLUTIONTIME = 3.000000E-08
ZONETYPE = ORDERED
DATAPACKING = BLOCK
STRANDID = 1
 0.0000000000000E+00  8.7488888888889E-05  1.7497777777778E-04  2.6246666666667E-04  3.4995555555556E-04  4.3744444444444E-04  5.2493333333333E-04  6.1242222222222E-04  6.9991111111111E-04  7.8740000000000E-04 
 5.7682143060163E-10  1.7301021610787E-09  2.8837503133667E-09  4.0374058168314E-09  5.1892557699480E-09  6.3414825562266E-09  7.4926364819390E-09  8.6445367229544E-09  9.7964600011026E-09  1.0372979539022E-08 
 9.1999999999896E-01  9.1999999999896E-01  9.1999999999896E-01  9.1999999999896E-01  9.1999999999896E-01  9.1999999999896E-01  9.1999999999896E-01  9.1999999999896E-01  9.1999999999896E-01  9.1999999999957E-01 
 4.0000000000520E-02  4.0000000000520E-02  4.0000000000520E-02  4.0000000000520E-02  4.0000000000520E-02  4.0000000000520E-02  4.0000000000520E-02  4.0000000000520E-02  4.0000000000520E-02  4.0000000000215E-02 
 4.0000000000520E-02  4.0000000000520E-02  4.0000000000520E-02  4.0000000000520E-02  4.0000000000520E-02  4.0000000000520E-02  4.0000000000520E-02  4.0000000000520E-02  4.0000000000520E-02  4.0000000000215E-02 
 3.5029481526286E-02  3.5029473703953E-02  3.5029450236937E-02  3.5029411125182E-02  3.5029356368587E-02  3.5029285967012E-02  3.5029199920270E-02  3.5029098228134E-02  3.5028980890335E-02  3.5028847906559E-02 
-2.5574711934305E-07 -2.5810326563659E-07 -2.6018222827403E-07 -2.6198400624221E-07 -2.6350859777378E-07 -2.6475600034714E-07 -2.6572621068648E-07 -2.6641922476174E-07 -2.6683503778861E-07 -2.6697364422852E-07 
-3.5029737273406E-02 -3.5029731807218E-02 -3.5029710419165E-02 -3.5029673109188E-02 -3.5029619877185E-02 -3.5029550723012E-02 -3.5029465646480E-02 -3.5029364647359E-02 -3.5029247725372E-02 -3.5029114880203E-02 
-4.0906712752645E-02 -4.0906712752645E-02 -4.0906712752645E-02 -4.0906712752645E-02 -4.0906712752645E-02 -4.0906712752645E-02 -4.0906712752645E-02 -4.0906712752645E-02 -4.0906712752645E-02 -4.0906712752841E-02 
 5.8769754792396E-03  5.8769809454270E-03  5.8770023334803E-03  5.8770396434575E-03  5.8770928754602E-03  5.8771620296333E-03  5.8772471061649E-03  5.8773481052864E-03  5.8774650272728E-03  5.8775978726378E-03 
 8.3014575505777E-01  1.6602930610836E+00  1.6602991296989E+00  1.6603097159787E+00  1.6603248199530E+00  1.6603444416636E+00  1.6603685811674E+00  1.6603972385325E+00  1.6604304138389E+00  8.3023405360677E-01 
 4.3019270407751E-09  1.2905789142328E-08  2.1509682704300E-08  3.0113631120795E-08  3.8717657810365E-08  4.7321786180840E-08  5.5926039644514E-08  6.4530441618393E-08  7.3135123115662E-08  7.3135123115662E-08 
 0.0000000000000E+00  1.6602922856274E+00  3.3205883809718E+00  4.9808928037897E+00  6.6412100718376E+00  8.3015447028721E+00  9.9619012139134E+00  1.1622284123822E+01  1.3282697949961E+01  1.4943147210223E+01 
 1.4943147210581E+01  1.3282854924982E+01  1.1622558829590E+01  9.9622544067517E+00  8.3019371387856E+00  6.6416025079773E+00  4.9812459965620E+00  3.3208630867119E+00  1.6604492605262E+00  0.0000000000000E+00 
 2.4905435662179E-08  4.9810917853052E-08  4.9811099910997E-08  4.9811417498662E-08  4.9811870616762E-08  4.9812459266447E-08  4.9813183449987E-08  4.9814043168803E-08  4.9815038425245E-08  2.4908084611506E-08 
 9.1448444543306E+04  1.8289688908661E+05  1.8289688908661E+05  1.8289688908661E+05  1.8289688908661E+05  1.8289688908661E+05  1.8289688908661E+05  1.8289688908661E+05  1.8289688908661E+05  9.1448444543306E+04 
 3.6579377817310E+05  7.3158755634620E+05  7.3158755634620E+05  7.3158755634620E+05  7.3158755634620E+05  7.3158755634620E+05  7.3158755634620E+05  7.3158755634620E+05  7.3158755634620E+05  3.6579377817310E+05 
 4.5724222271640E+05  9.1448444543281E+05  9.1448444543281E+05  9.1448444543281E+05  9.1448444543281E+05  9.1448444543281E+05  9.1448444543281E+05  9.1448444543281E+05  9.1448444543281E+05  4.5724222271640E+05 
 3.5000000000000E-01  3.5000000000000E-01  3.5000000000000E-01  3.5000000000000E-01  3.5000000000000E-01  3.5000000000000E-01  3.5000000000000E-01  3.5000000000000E-01  3.5000000000000E-01  3.5000000000000E-01 
 8.5301666666666E+00  1.7060333333333E+01  1.7060333333333E+01  1.7060333333333E+01  1.7060333333333E+01  1.7060333333333E+01  1.7060333333333E+01  1.7060333333333E+01  1.7060333333333E+01  8.5301666666666E+00 
 9.7318820076720E-02  9.7318910987495E-02  9.7319266702424E-02  9.7319887222528E-02  9.7320772549561E-02  9.7321922685975E-02  9.7323337635101E-02  9.7325017400941E-02  9.7326961988176E-02  9.7329171404244E-02 
 4.3744444444444E-05  8.7488888888889E-05  8.7488888888889E-05  8.7488888888889E-05  8.7488888888889E-05  8.7488888888889E-05  8.7488888888889E-05  8.7488888888889E-05  8.7488888888889E-05  4.3744444444444E-05 
 8.6666666666660E+01  8.6666666666660E+01  8.6666666666660E+01  8.6666666666660E+01  8.6666666666660E+01  8.6666666666660E+01  8.6666666666660E+01  8.6666666666660E+01  8.6666666666660E+01  8.6666666666660E+01 
 2.1666666666672E+01  2.1666666666672E+01  2.1666666666672E+01  2.1666666666672E+01  2.1666666666672E+01  2.1666666666672E+01  2.1666666666672E+01  2.1666666666672E+01  2.1666666666672E+01  2.1666666666672E+01 
 1.3628820921215E-11  2.1273046851237E-11  4.5626100688632E-11  8.8108500642022E-11  1.4872065772415E-10  2.2746344664972E-10  3.2433754534329E-10  4.3934376189481E-10  5.7248374665475E-10  6.4358740966727E-10 
 4.5429738271509E-04  7.0910636503439E-04  1.5208791526050E-03  2.9369676470179E-03  4.9573872616205E-03  7.5821599862846E-03  1.0811314387953E-02  1.4644885614585E-02  1.9082915389503E-02  2.1453050540233E-02 
 2.2266564712117E-04  1.1133362992885E-03  3.7853577752974E-03  8.2387538739472E-03  1.4473565651020E-02  2.2489880188979E-02  3.2287764547775E-02  4.3867298460370E-02  5.7228645542230E-02  6.4354795034595E-02 
 1.1402164450003E-03  1.0139683858352E-03  7.7725229356582E-04  5.7209619025505E-04  3.9850012139558E-04  2.5646447599383E-04  1.4598998655476E-04  6.7077729110968E-05  1.9729123244863E-05  3.9459321323471E-06 
 0.0000000000000E+00  0.0000000000000E+00  0.0000000000000E+00  0.0000000000000E+00  0.0000000000000E+00  0.0000000000000E+00  0.0000000000000E+00  0.0000000000000E+00  0.0000000000000E+00  0.0000000000000E+00 
 0.0000000000000E+00  0.0000000000000E+00  0.0000000000000E+00  0.0000000000000E+00  0.0000000000000E+00  0.0000000000000E+00  0.0000000000000E+00  0.0000000000000E+00  0.0000000000000E+00  0.0000000000000E+00 
 0.0000000000000E+00  0.0000000000000E+00  0.0000000000000E+00  0.0000000000000E+00  0.0000000000000E+00  0.0000000000000E+00  0.0000000000000E+00  0.0000000000000E+00  0.0000000000000E+00  0.0000000000000E+00 
ZONE T = "ANOD, 4.0000E-08", I = 10, SOLUTIONTIME = 4.000000E-08
ZONETYPE = ORDERED
DATAPACKING = BLOCK
STRANDID = 1
 0.0000000000000E+00  8.7488888888889E-05  1.7497777777778E-04  2.6246666666667E-04  3.4995555555556E-04  4.3744444444444E-04  5.2493333333333E-04  6.1242222222222E-04  6.9991111111111E-04  7.8740000000000E-04 
 5.7645822287019E-10  1.7293757456123E-09  2.8822974824375E-09  4.0352265704393E-09  5.1881661467324E-09  6.3422089716431E-09  7.4962685591709E-09  8.6492584233628E-09  9.8022713246875E-09  1.0378427654881E-08 
 9.1999999999861E-01  9.1999999999861E-01  9.1999999999861E-01  9.1999999999861E-01  9.1999999999861E-01  9.1999999999861E-01  9.1999999999861E-01  9.1999999999861E-01  9.1999999999861E-01  9.1999999999943E-01 
 4.0000000000693E-02  4.0000000000693E-02  4.0000000000693E-02  4.0000000000693E-02  4.0000000000693E-02  4.0000000000693E-02  4.0000000000693E-02  4.0000000000693E-02  4.0000000000693E-02  4.0000000000287E-02 
 4.0000000000693E-02  4.0000000000693E-02  4.0000000000693E-02  4.0000000000693E-02  4.0000000000693E-02  4.0000000000693E-02  4.0000000000693E-02  4.0000000000693E-02  4.0000000000693E-02  4.0000000000287E-02 
 3.5029481526097E-02  3.5029473703763E-02  3.5029450236747E-02  3.5029411124992E-02  3.5029356368398E-02  3.5029285966822E-02  3.5029199920080E-02  3.5029098227944E-02  3.5028980890145E-02  3.5028847906369E-02 
-2.5574711934163E-07 -2.5810326563517E-07 -2.6018222827259E-07 -2.6198400624077E-07 -2.6350859777233E-07 -2.6475600034568E-07 -2.6572621068502E-07 -2.6641922476027E-07 -2.6683503778714E-07 -2.6697364422705E-07 
-3.5029737273216E-02 -3.5029731807029E-02 -3.5029710418975E-02 -3.5029673108998E-02 -3.5029619876995E-02 -3.5029550722822E-02 -3.5029465646291E-02 -3.5029364647169E-02 -3.5029247725183E-02 -3.5029114880013E-02 
-4.0906712752396E-02 -4.0906712752397E-02 -4.0906712752396E-02 -4.0906712752396E-02 -4.0906712752399E-02 -4.0906712752396E-02 -4.0906712752396E-02 -4.0906712752399E-02 -4.0906712752399E-02 -4.0906712752660E-02 
 5.8769754791802E-03  5.8769809453680E-03  5.8770023334209E-03  5.8770396433981E-03  5.8770928754039E-03  5.8771620295739E-03  5.8772471061055E-03  5.8773481052302E-03  5.8774650272166E-03  5.8775978726468E-03 
 8.3014575505251E-01  1.6602930610732E+00  1.6602991296885E+00  1.6603097159683E+00  1.6603248199432E+00  1.6603444416537E+00  1.6603685811575E+00  1.6603972385228E+00  1.6604304138291E+00  8.3023405361009E-01 