TITLE = "Solution on Domain BulkDomain1D_1"
VARIABLES = "x [m]"  
"Vel_axial" 	"MF_sp(ECDMC)" 	"MF_sp(Li+)" 	"MF_sp(PF6-)" 	"Volt(Electroly)" 	"Porosity []" 	"Control volume thickness [m]" 	"volFrac MgO(S) []" 	"qHeat_accum [J/m3]" 	"qHeat_step [W/m3]" 	"Joule_Lyte [W/m3]" 	"Joule_Solid [W/m3]" 	
ZONE T = "SEP , 0.0000E+00", I = 10, SOLUTIONTIME = 0.000000E+00
ZONETYPE = ORDERED
DATAPACKING = BLOCK
STRANDID = 2
 7.8740000000000E-04  8.4102222222222E-04  8.9464444444444E-04  9.4826666666667E-04  1.0018888888889E-03  1.0555111111111E-03  1.1091333333333E-03  1.1627555555556E-03  1.2163777777778E-03  1.2700000000000E-03 
 0.0000000000000E+00  0.0000000000000E+00  0.0000000000000E+00  0.0000000000000E+00  0.0000000000000E+00  0.0000000000000E+00  0.0000000000000E+00  0.0000000000000E+00  0.0000000000000E+00  0.0000000000000E+00 
 9.2000000000000E-01  9.2000000000000E-01  9.2000000000000E-01  9.2000000000000E-01  9.2000000000000E-01  9.2000000000000E-01  9.2000000000000E-01  9.2000000000000E-01  9.2000000000000E-01  9.2000000000000E-01 
 4.0000000000000E-02  4.0000000000000E-02  4.0000000000000E-02  4.0000000000000E-02  4.0000000000000E-02  4.0000000000000E-02  4.0000000000000E-02  4.0000000000000E-02  4.0000000000000E-02  4.0000000000000E-02 
 4.0000000000000E-02  4.0000000000000E-02  4.0000000000000E-02  4.0000000000000E-02  4.0000000000000E-02  4.0000000000000E-02  4.0000000000000E-02  4.0000000000000E-02  4.0000000000000E-02  4.0000000000000E-02 
-7.0000000000000E-02 -7.0000000000000E-02 -7.0000000000000E-02 -7.0000000000000E-02 -7.0000000000000E-02 -7.0000000000000E-02 -7.0000000000000E-02 -7.0000000000000E-02 -7.0000000000000E-02 -7.0000000000000E-02 
 8.0911499769706E-01  8.0911499769706E-01  8.0911499769706E-01  8.0911499769706E-01  8.0911499769706E-01  8.0911499769706E-01  8.0911499769706E-01  8.0911499769706E-01  8.0911499769706E-01  8.0911499769706E-01 
 2.6811111111111E-05  5.3622222222222E-05  5.3622222222222E-05  5.3622222222222E-05  5.3622222222222E-05  5.3622222222222E-05  5.3622222222222E-05  5.3622222222223E-05  5.3622222222222E-05  2.6811111111111E-05 
 1.9088500230294E-01  1.9088500230294E-01  1.9088500230294E-01  1.9088500230294E-01  1.9088500230294E-01  1.9088500230294E-01  1.9088500230294E-01  1.9088500230294E-01  1.9088500230294E-01  1.9088500230294E-01 
 0.0000000000000E+00  0.0000000000000E+00  0.0000000000000E+00  0.0000000000000E+00  0.0000000000000E+00  0.0000000000000E+00  0.0000000000000E+00  0.0000000000000E+00  0.0000000000000E+00  0.0000000000000E+00 
 0.0000000000000E+00  0.0000000000000E+00  0.0000000000000E+00  0.0000000000000E+00  0.0000000000000E+00  0.0000000000000E+00  0.0000000000000E+00  0.0000000000000E+00  0.0000000000000E+00  0.0000000000000E+00 
 0.0000000000000E+00  0.0000000000000E+00  0.0000000000000E+00  0.0000000000000E+00  0.0000000000000E+00  0.0000000000000E+00  0.0000000000000E+00  0.0000000000000E+00  0.0000000000000E+00  0.0000000000000E+00 
 0.0000000000000E+00  0.0000000000000E+00  0.0000000000000E+00  0.0000000000000E+00  0.0000000000000E+00  0.0000000000000E+00  0.0000000000000E+00  0.0000000000000E+00  0.0000000000000E+00  0.0000000000000E+00 
ZONE T = "SEP , 1.0000E-08", I = 10, SOLUTIONTIME = 1.000000E-08
ZONETYPE = ORDERED
DATAPACKING = BLOCK
STRANDID = 2
 7.8740000000000E-04  8.4102222222222E-04  8.9464444444444E-04  9.4826666666667E-04  1.0018888888889E-03  1.0555111111111E-03  1.1091333333333E-03  1.1627555555556E-03  1.2163777777778E-03  1.2700000000000E-03 
 1.0376515137689E-08  1.0376515137689E-08  1.0376515137689E-08  1.0376515137689E-08  1.0376515137689E-08  1.0376515137689E-08  1.0376515137689E-08  1.0376515137689E-08  1.0376515137689E-08  9.8003663459263E-09 
 9.1999999999986E-01  9.2000000000000E-01  9.2000000000000E-01  9.2000000000000E-01  9.2000000000000E-01  9.2000000000000E-01  9.2000000000000E-01  9.2000000000000E-01  9.2000000000000E-01  9.2000000000016E-01 
 4.0000000000072E-02  4.0000000000000E-02  4.0000000000000E-02  4.0000000000000E-02  4.0000000000000E-02  4.0000000000000E-02  4.0000000000000E-02  4.0000000000000E-02  4.0000000000000E-02  3.9999999999921E-02 
 4.0000000000072E-02  4.0000000000000E-02  4.0000000000000E-02  4.0000000000000E-02  4.0000000000000E-02  4.0000000000000E-02  4.0000000000000E-02  4.0000000000000E-02  4.0000000000000E-02  3.9999999999921E-02 
 3.5028098627342E-02  3.5028074074576E-02  3.5028049521933E-02  3.5028024969326E-02  3.5028000416687E-02  3.5027975863957E-02  3.5027951311310E-02  3.5027926758577E-02  3.5027902205934E-02  3.5027877653295E-02 
 8.0911499769706E-01  8.0911499769706E-01  8.0911499769706E-01  8.0911499769706E-01  8.0911499769706E-01  8.0911499769706E-01  8.0911499769706E-01  8.0911499769706E-01  8.0911499769706E-01  8.0911499769706E-01 
 2.6811111111111E-05  5.3622222222222E-05  5.3622222222222E-05  5.3622222222222E-05  5.3622222222222E-05  5.3622222222222E-05  5.3622222222222E-05  5.3622222222223E-05  5.3622222222222E-05  2.6811111111111E-05 
 1.9088500230294E-01  1.9088500230294E-01  1.9088500230294E-01  1.9088500230294E-01  1.9088500230294E-01  1.9088500230294E-01  1.9088500230294E-01  1.9088500230294E-01  1.9088500230294E-01  1.9088500230294E-01 
 6.8421954653228E-11  6.8421609994400E-11  6.8421165616113E-11  6.8421153994738E-11  6.8421495075724E-11  6.8421517583681E-11  6.8421527832186E-11  6.8421516945604E-11  6.8421255551153E-11  6.8421245766733E-11 
 6.8421954653228E-03  6.8421609994400E-03  6.8421165616113E-03  6.8421153994738E-03  6.8421495075724E-03  6.8421517583681E-03  6.8421527832186E-03  6.8421516945604E-03  6.8421255551153E-03  6.8421245766733E-03 
 6.8421954653228E-03  6.8421609994400E-03  6.8421165616113E-03  6.8421153994738E-03  6.8421495075724E-03  6.8421517583681E-03  6.8421527832186E-03  6.8421516945604E-03  6.8421255551153E-03  6.8421245766733E-03 
 0.0000000000000E+00  0.0000000000000E+00  0.0000000000000E+00  0.0000000000000E+00  0.0000000000000E+00  0.0000000000000E+00  0.0000000000000E+00  0.0000000000000E+00  0.0000000000000E+00  0.0000000000000E+00 
ZONE T = "SEP , 2.0000E-08", I = 10, SOLUTIONTIME = 2.000000E-08
ZONETYPE = ORDERED
DATAPACKING = BLOCK
STRANDID = 2
 7.8740000000000E-04  8.4102222222222E-04  8.9464444444444E-04  9.4826666666667E-04  1.0018888888889E-03  1.0555111111111E-03  1.1091333333333E-03  1.1627555555556E-03  1.2163777777778E-03  1.2700000000000E-03 
 1.0377701239541E-08  1.0377701239541E-08  1.0377701239541E-08  1.0377701239541E-08  1.0377701239541E-08  1.0377701239541E-08  1.0377701239541E-08  1.0377701239541E-08  1.0377701239541E-08  9.8015471065183E-09 
 9.1999999999971E-01  9.2000000000000E-01  9.2000000000000E-01  9.2000000000000E-01  9.2000000000000E-01  9.2000000000000E-01  9.2000000000000E-01  9.2000000000000E-01  9.2000000000000E-01  9.2000000000032E-01 
 4.0000000000143E-02  4.0000000000000E-02  4.0000000000000E-02  4.0000000000000E-02  4.0000000000000E-02  4.0000000000000E-02  4.0000000000000E-02  4.0000000000000E-02  4.0000000000000E-02  3.9999999999842E-02 
 4.0000000000143E-02  4.0000000000000E-02  4.0000000000000E-02  4.0000000000000E-02  4.0000000000000E-02  4.0000000000000E-02  4.0000000000000E-02  4.0000000000000E-02  4.0000000000000E-02  3.9999999999842E-02 
 3.5028847906753E-02  3.5028823353861E-02  3.5028798800968E-02  3.5028774248076E-02  3.5028749695183E-02  3.5028725142291E-02  3.5028700589398E-02  3.5028676036506E-02  3.5028651483613E-02  3.5028626930721E-02 
 8.0911499769706E-01  8.0911499769706E-01  8.0911499769706E-01  8.0911499769706E-01  8.0911499769706E-01  8.0911499769706E-01  8.0911499769706E-01  8.0911499769706E-01  8.0911499769706E-01  8.0911499769706E-01 
 2.6811111111111E-05  5.3622222222222E-05  5.3622222222222E-05  5.3622222222222E-05  5.3622222222222E-05  5.3622222222222E-05  5.3622222222222E-05  5.3622222222223E-05  5.3622222222222E-05  2.6811111111111E-05 
 1.9088500230294E-01  1.9088500230294E-01  1.9088500230294E-01  1.9088500230294E-01  1.9088500230294E-01  1.9088500230294E-01  1.9088500230294E-01  1.9088500230294E-01  1.9088500230294E-01  1.9088500230294E-01 
 1.3684461073250E-10  1.3684426607361E-10  1.3684382169526E-10  1.3684381007389E-10  1.3684415115487E-10  1.3684417366283E-10  1.3684418391134E-10  1.3684417302475E-10  1.3684391163023E-10  1.3684390184575E-10 
 6.8422656079272E-03  6.8422656079210E-03  6.8422656079149E-03  6.8422656079149E-03  6.8422656079149E-03  6.8422656079149E-03  6.8422656079149E-03  6.8422656079149E-03  6.8422656079082E-03  6.8422656079014E-03 
 6.8422656079272E-03  6.8422656079210E-03  6.8422656079149E-03  6.8422656079149E-03  6.8422656079149E-03  6.8422656079149E-03  6.8422656079149E-03  6.8422656079149E-03  6.8422656079082E-03  6.8422656079014E-03 
 0.0000000000000E+00  0.0000000000000E+00  0.0000000000000E+00  0.0000000000000E+00  0.0000000000000E+00  0.0000000000000E+00  0.0000000000000E+00  0.0000000000000E+00  0.0000000000000E+00  0.0000000000000E+00 
ZONE T = "SEP , 3.0000E-08", I = 10, SOLUTIONTIME = 3.000000E-08
ZONETYPE = ORDERED
DATAPACKING = BLOCK
STRANDID = 2
 7.8740000000000E-04  8.4102222222222E-04  8.9464444444444E-04  9.4826666666667E-04  1.0018888888889E-03  1.0555111111111E-03  1.1091333333333E-03  1.1627555555556E-03  1.2163777777778E-03  1.2700000000000E-03 
 1.0372979539022E-08  1.0371526708111E-08  1.0371526708111E-08  1.0371526708111E-08  1.0371526708111E-08  1.0371526708111E-08  1.0371526708111E-08  1.0371526708111E-08  1.0371526708111E-08  9.7948277634979E-09 
 9.1999999999957E-01  9.2000000000000E-01  9.2000000000000E-01  9.2000000000000E-01  9.2000000000000E-01  9.2000000000000E-01  9.2000000000000E-01  9.2000000000000E-01  9.2000000000000E-01  9.2000000000047E-01 
 4.0000000000215E-02  4.0000000000000E-02  4.0000000000000E-02  4.0000000000000E-02  4.0000000000000E-02  4.0000000000000E-02  4.0000000000000E-02  4.0000000000000E-02  4.0000000000000E-02  3.9999999999763E-02 
 4.0000000000215E-02  4.0000000000000E-02  4.0000000000000E-02  4.0000000000000E-02  4.0000000000000E-02  4.0000000000000E-02  4.0000000000000E-02  4.0000000000000E-02  4.0000000000000E-02  3.9999999999763E-02 
 3.5028847906559E-02  3.5028823353666E-02  3.5028798800774E-02  3.5028774247881E-02  3.5028749694989E-02  3.5028725142096E-02  3.5028700589204E-02  3.5028676036311E-02  3.5028651483419E-02  3.5028626930526E-02 
 8.0911499769706E-01  8.0911499769706E-01  8.0911499769706E-01  8.0911499769706E-01  8.0911499769706E-01  8.0911499769706E-01  8.0911499769706E-01  8.0911499769706E-01  8.0911499769706E-01  8.0911499769706E-01 
 2.6811111111111E-05  5.3622222222222E-05  5.3622222222222E-05  5.3622222222222E-05  5.3622222222222E-05  5.3622222222222E-05  5.3622222222222E-05  5.3622222222223E-05  5.3622222222222E-05  2.6811111111111E-05 
 1.9088500230294E-01  1.9088500230294E-01  1.9088500230294E-01  1.9088500230294E-01  1.9088500230294E-01  1.9088500230294E-01  1.9088500230294E-01  1.9088500230294E-01  1.9088500230294E-01  1.9088500230294E-01 
 2.0526726681183E-10  2.0526692215285E-10  2.0526647777441E-10  2.0526646615304E-10  2.0526680723402E-10  2.0526682974198E-10  2.0526683999049E-10  2.0526682910390E-10  2.0526656770928E-10  2.0526655792469E-10 
 6.8422656079333E-03  6.8422656079241E-03  6.8422656079149E-03  6.8422656079149E-03  6.8422656079149E-03  6.8422656079149E-03  6.8422656079149E-03  6.8422656079149E-03  6.8422656079048E-03  6.8422656078947E-03 
 6.8422656079333E-03  6.8422656079241E-03  6.8422656079149E-03  6.8422656079149E-03  6.8422656079149E-03  6.8422656079149E-03  6.8422656079149E-03  6.8422656079149E-03  6.8422656079048E-03  6.8422656078947E-03 
 0.0000000000000E+00  0.0000000000000E+00  0.0000000000000E+00  0.0000000000000E+00  0.0000000000000E+00  0.0000000000000E+00  0.0000000000000E+00  0.0000000000000E+00  0.0000000000000E+00  0.0000000000000E+00 
ZONE T = "SEP , 4.0000E-08", I = 10, SOLUTIONTIME = 4.000000E-08
ZONETYPE = ORDERED
DATAPACKING = BLOCK
STRANDID = 2
 7.8740000000000E-04  8.4102222222222E-04  8.9464444444444E-04  9.4826666666667E-04  1.0018888888889E-03  1.0555111111111E-03  1.1091333333333E-03  1.1627555555556E-03  1.2163777777778E-03  1.2700000000000E-03 
 1.0378427654881E-08  1.0379880485792E-08  1.0379880485792E-08  1.0379880485792E-08  1.0379880485792E-08  1.0379880485792E-08  1.0379880485792E-08  1.0379880485792E-08  1.0379880485792E-08  9.8037263527725E-09 
 9.1999999999943E-01  9.2000000000000E-01  9.2000000000000E-01  9.2000000000000E-01  9.2000000000000E-01  9.2000000000000E-01  9.2000000000000E-01  9.2000000000000E-01  9.2000000000000E-01  9.2000000000063E-01 
 4.0000000000287E-02  4.0000000000000E-02  4.0000000000000E-02  4.0000000000000E-02  4.0000000000000E-02  4.0000000000000E-02  4.0000000000000E-02  4.0000000000000E-02  4.0000000000000E-02  3.9999999999684E-02 
 4.0000000000287E-02  4.0000000000000E-02  4.0000000000000E-02  4.0000000000000E-02  4.0000000000000E-02  4.0000000000000E-02  4.0000000000000E-02  4.0000000000000E-02  4.0000000000000E-02  3.9999999999684E-02 
 3.5028847906369E-02  3.5028823353477E-02  3.5028798800584E-02  3.5028774247692E-02  3.5028749694799E-02  3.5028725141907E-02  3.5028700589014E-02  3.5028676036122E-02  3.5028651483229E-02  3.5028626930337E-02 
 8.0911499769706E-01  8.0911499769706E-01  8.0911499769706E-01  8.0911499769706E-01  8.0911499769706E-01  8.0911499769706E-01  8.0911499769706E-01  8.0911499769706E-01  8.0911499769706E-01  8.0911499769706E-01 
 2.6811111111111E-05  5.3622222222222E-05  5.3622222222222E-05  5.3622222222222E-05  5.3622222222222E-05  5.3622222222222E-05  5.3622222222222E-05  5.3622222222223E-05  5.3622222222222E-05  2.6811111111111E-05 
 1.9088500230294E-01  1.9088500230294E-01  1.9088500230294E-01  1.9088500230294E-01  1.9088500230294E-01  1.9088500230294E-01  1.9088500230294E-01  1.9088500230294E-01  1.9088500230294E-01  1.9088500230294E-01 
 2.7368992289123E-10  2.7368957823212E-10  2.7368913385356E-10  2.7368912223219E-10  2.7368946331317E-10  2.7368948580179E-10  2.7368949605030E-10  2.7368948518305E-10  2.7368922378830E-10  2.7368921400357E-10 
 6.8422656079395E-03  6.8422656079272E-03  6.8422656079149E-03  6.8422656079149E-03  6.8422656079149E-03  6.8422656059812E-03  6.8422656059812E-03  6.8422656079149E-03  6.8422656079014E-03  6.8422656078879E-03 
 6.8422656079395E-03  6.8422656079272E-03  6.8422656079149E-03  6.8422656079149E-03  6.8422656079149E-03  6.8422656059812E-03  6.8422656059812E-03  6.8422656079149E-03  6.8422656079014E-03  6.8422656078879E-03 
 0.0000000000000E+00  0.0000000000000E+00  0.0000000000000E+00  0.0000000000000E+00  0.0000000000000E+00  0.0000000000000E+00  0.0000000000000E+00  0.0000000000000E+00  0.0000000000000E+00  0.0000000000000E+00 
ZONE T = "SEP , 5.5000E-08", I = 10, SOLUTIONTIME = 5.500000E-08
ZONETYPE = ORDERED
DATAPACKING = BLOCK
STRANDID = 2
 7.8740000000000E-04  8.4102222222222E-04  8.9464444444444E-04  9.4826666666667E-04  1.0018888888889E-03  1.0555111111111E-03  1.1091333333333E-03  1.1627555555556E-03  1.2163777777778E-03  1.2700000000000E-03 
 1.0376853754667E-08  1.0376853754667E-08  1.0376853754667E-08  1.0376853754667E-08  1.0376853754667E-08  1.0376853754667E-08  1.0376853754667E-08  1.0376853754667E-08  1.0376853754667E-08  9.8010628293763E-09 
 9.1999999999921E-01  9.2000000000000E-01  9.2000000000000E-01  9.2000000000000E-01  9.2000000000000E-01  9.2000000000000E-01  9.2000000000000E-01  9.2000000000000E-01  9.2000000000000E-01  9.2000000000087E-01 
 4.0000000000394E-02  4.0000000000000E-02  4.0000000000000E-02  4.0000000000000E-02  4.0000000000000E-02  4.0000000000000E-02  4.0000000000000E-02  4.0000000000000E-02  4.0000000000000E-02  3.9999999999566E-02 
 4.0000000000394E-02  4.0000000000000E-02  4.0000000000000E-02  4.0000000000000E-02  4.0000000000000E-02  4.0000000000000E-02  4.0000000000000E-02  4.0000000000000E-02  4.0000000000000E-02  3.9999999999566E-02 
 3.5028847906158E-02  3.5028823353265E-02  3.5028798800373E-02  3.5028774247480E-02  3.5028749694588E-02  3.5028725141696E-02  3.5028700588803E-02  3.5028676035911E-02  3.5028651483018E-02  3.5028626930126E-02 
 8.0911499769706E-01  8.0911499769706E-01  8.0911499769706E-01  8.0911499769706E-01  8.0911499769706E-01  8.0911499769706E-01  8.0911499769706E-01  8.0911499769706E-01  8.0911499769706E-01  8.0911499769706E-01 
 2.6811111111111E-05  5.3622222222222E-05  5.3622222222222E-05  5.3622222222222E-05  5.3622222222222E-05  5.3622222222222E-05  5.3622222222222E-05  5.3622222222223E-05  5.3622222222222E-05  2.6811111111111E-05 
 1.9088500230294E-01  1.9088500230294E-01  1.9088500230294E-01  1.9088500230294E-01  1.9088500230294E-01  1.9088500230294E-01  1.9088500230294E-01  1.9088500230294E-01  1.9088500230294E-01  1.9088500230294E-01 
 3.7632390701046E-10  3.7632356235110E-10  3.7632311797228E-10  3.7632310635091E-10  3.7632344743189E-10  3.7632346989151E-10  3.7632348014002E-10  3.7632346930177E-10  3.7632320790674E-10  3.7632319812174E-10 
 6.8422656079486E-03  6.8422656079318E-03  6.8422656079149E-03  6.8422656079149E-03  6.8422656079149E-03  6.8422656059812E-03  6.8422656059812E-03  6.8422656079149E-03  6.8422656078963E-03  6.8422656078778E-03 
 6.8422656079486E-03  6.8422656079318E-03  6.8422656079149E-03  6.8422656079149E-03  6.8422656079149E-03  6.8422656059812E-03  6.8422656059812E-03  6.8422656079149E-03  6.8422656078963E-03  6.8422656078778E-03 
 0.0000000000000E+00  0.0000000000000E+00  0.0000000000000E+00  0.0000000000000E+00  0.0000000000000E+00  0.0000000000000E+00  0.0000000000000E+00  0.0000000000000E+00  0.0000000000000E+00  0.0000000000000E+00 
ZONE T = "SEP , 7.7500E-08", I = 10, SOLUTIONTIME = 7.750000E-08
ZONETYPE = ORDERED
DATAPACKING = BLOCK
STRANDID = 2
 7.8740000000000E-04  8.4102222222222E-04  8.9464444444444E-04  9.4826666666667E-04  1.0018888888889E-03  1.0555111111111E-03  1.1091333333333E-03  1.1627555555556E-03  1.2163777777778E-03  1.2700000000000E-03 
 1.0376127339115E-08  1.0376127339115E-08  1.0376127339115E-08  1.0376127339115E-08  1.0376127339115E-08  1.0376127339115E-08  1.0376127339115E-08  1.0376127339115E-08  1.0376127339115E-08  9.7999732060986E-09 
 9.1999999999889E-01  9.2000000000000E-01  9.2000000000000E-01  9.2000000000000E-01  9.2000000000000E-01  9.2000000000000E-01  9.2000000000000E-01  9.2000000000000E-01  9.2000000000000E-01  9.2000000000122E-01 
 4.0000000000555E-02  4.0000000000000E-02  4.0000000000000E-02  4.0000000000000E-02  4.0000000000000E-02  4.0000000000000E-02  4.0000000000000E-02  4.0000000000000E-02  4.0000000000000E-02  3.9999999999388E-02 
 4.0000000000555E-02  4.0000000000000E-02  4.0000000000000E-02  4.0000000000000E-02  4.0000000000000E-02  4.0000000000000E-02  4.0000000000000E-02  4.0000000000000E-02  4.0000000000000E-02  3.9999999999388E-02 
 3.5028847905803E-02  3.5028823352910E-02  3.5028798800018E-02  3.5028774247125E-02  3.5028749694233E-02  3.5028725141340E-02  3.5028700588448E-02  3.5028676035555E-02  3.5028651482663E-02  3.5028626929771E-02 
 8.0911499769706E-01  8.0911499769706E-01  8.0911499769706E-01  8.0911499769706E-01  8.0911499769706E-01  8.0911499769706E-01  8.0911499769706E-01  8.0911499769706E-01  8.0911499769706E-01  8.0911499769706E-01 
 2.6811111111111E-05  5.3622222222222E-05  5.3622222222222E-05  5.3622222222222E-05  5.3622222222222E-05  5.3622222222222E-05  5.3622222222222E-05  5.3622222222223E-05  5.3622222222222E-05  2.6811111111111E-05 
 1.9088500230294E-01  1.9088500230294E-01  1.9088500230294E-01  1.9088500230294E-01  1.9088500230294E-01  1.9088500230294E-01  1.9088500230294E-01  1.9088500230294E-01  1.9088500230294E-01  1.9088500230294E-01 
 5.3027488318961E-10  5.3027453852972E-10  5.3027409410686E-10  5.3027408248549E-10  5.3027442360998E-10  5.3027444606960E-10  5.3027445631810E-10  5.3027444547986E-10  5.3027418408424E-10  5.3027417429865E-10 
 6.8422656079624E-03  6.8422656079387E-03  6.8422656059812E-03  6.8422656059812E-03  6.8422656079149E-03  6.8422656079149E-03  6.8422656079149E-03  6.8422656079149E-03  6.8422656078887E-03  6.8422656078626E-03 
 6.8422656079624E-03  6.8422656079387E-03  6.8422656059812E-03  6.8422656059812E-03  6.8422656079149E-03  6.8422656079149E-03  6.8422656079149E-03  6.8422656079149E-03  6.8422656078887E-03  6.8422656078626E-03 
 0.0000000000000E+00  0.0000000000000E+00  0.0000000000000E+00  0.0000000000000E+00  0.0000000000000E+00  0.0000000000000E+00  0.0000000000000E+00  0.0000000000000E+00  0.0000000000000E+00  0.0000000000000E+00 
ZONE T = "SEP , 1.1125E-07", I = 10, SOLUTIONTIME = 1.112500E-07
ZONETYPE = ORDERED
DATAPACKING = BLOCK
STRANDID = 2
 7.8740000000000E-04  8.4102222222222E-04  8.9464444444444E-04  9.4826666666667E-04  1.0018888888889E-03  1.0555111111111E-03  1.1091333333333E-03  1.1627555555556E-03  1.2163777777778E-03  1.2700000000000E-03 
 1.0376826850149E-08  1.0376826850149E-08  1.0376826850149E-08  1.0376826850149E-08  1.0376826850149E-08  1.0376826850149E-08  1.0376826850149E-08  1.0376826850149E-08  1.0376826850149E-08  9.8009417598978E-09 
 9.1999999999841E-01  9.2000000000000E-01  9.2000000000000E-01  9.2000000000000E-01  9.2000000000000E-01  9.2000000000000E-01  9.2000000000000E-01  9.2000000000000E-01  9.2000000000000E-01  9.2000000000176E-01 
 4.0000000000797E-02  4.0000000000000E-02  4.0000000000000E-02  4.0000000000000E-02  4.0000000000000E-02  4.0000000000000E-02  4.0000000000000E-02  4.0000000000000E-02  4.0000000000000E-02  3.9999999999121E-02 
 4.0000000000797E-02  4.0000000000000E-02  4.0000000000000E-02  4.0000000000000E-02  4.0000000000000E-02  4.0000000000000E-02  4.0000000000000E-02  4.0000000000000E-02  4.0000000000000E-02  3.9999999999121E-02 
 3.5028847905271E-02  3.5028823352378E-02  3.5028798799486E-02  3.5028774246593E-02  3.5028749693701E-02  3.5028725140808E-02  3.5028700587916E-02  3.5028676035023E-02  3.5028651482131E-02  3.5028626929239E-02 
 8.0911499769706E-01  8.0911499769706E-01  8.0911499769706E-01  8.0911499769706E-01  8.0911499769706E-01  8.0911499769706E-01  8.0911499769706E-01  8.0911499769706E-01  8.0911499769706E-01  8.0911499769706E-01 
 2.6811111111111E-05  5.3622222222222E-05  5.3622222222222E-05  5.3622222222222E-05  5.3622222222222E-05  5.3622222222222E-05  5.3622222222222E-05  5.3622222222223E-05  5.3622222222222E-05  2.6811111111111E-05 
 1.9088500230294E-01  1.9088500230294E-01  1.9088500230294E-01  1.9088500230294E-01  1.9088500230294E-01  1.9088500230294E-01  1.9088500230294E-01  1.9088500230294E-01  1.9088500230294E-01  1.9088500230294E-01 
 7.6120134745904E-10  7.6120100279800E-10  7.6120055837399E-10  7.6120054675262E-10  7.6120088781185E-10  7.6120091027146E-10  7.6120092058523E-10  7.6120090974698E-10  7.6120064835010E-10  7.6120063856324E-10 
 6.8422656079831E-03  6.8422656079490E-03  6.8422656079149E-03  6.8422656079149E-03  6.8422656059812E-03  6.8422656059812E-03  6.8422656079149E-03  6.8422656079149E-03  6.8422656078773E-03  6.8422656078398E-03 
 6.8422656079831E-03  6.8422656079490E-03  6.8422656079149E-03  6.8422656079149E-03  6.8422656059812E-03  6.8422656059812E-03  6.8422656079149E-03  6.8422656079149E-03  6.8422656078773E-03  6.8422656078398E-03 
 0.0000000000000E+00  0.0000000000000E+00  0.0000000000000E+00  0.0000000000000E+00  0.0000000000000E+00  0.0000000000000E+00  0.0000000000000E+00  0.0000000000000E+00  0.0000000000000E+00  0.0000000000000E+00 
ZONE T = "SEP , 1.6188E-07", I = 10, SOLUTIONTIME = 1.618750E-07
ZONETYPE = ORDERED
DATAPACKING = BLOCK
STRANDID = 2
 7.8740000000000E-04  8.4102222222222E-04  8.9464444444444E-04  9.4826666666667E-04  1.0018888888889E-03  1.0555111111111E-03  1.1091333333333E-03  1.1627555555556E-03  1.2163777777778E-03  1.2700000000000E-03 
 1.0375858295990E-08  1.0375858295990E-08  1.0375858295990E-08  1.0375858295990E-08  1.0375858295990E-08  1.0375858295990E-08  1.0375858295990E-08  1.0375858295990E-08  1.0375858295990E-08  9.7994171840377E-09 
 9.1999999999768E-01  9.2000000000000E-01  9.2000000000000E-01  9.2000000000000E-01  9.2000000000000E-01  9.2000000000000E-01  9.2000000000000E-01  9.2000000000000E-01  9.2000000000000E-01  9.2000000000256E-01 
 4.0000000001160E-02  4.0000000000000E-02  4.0000000000000E-02  4.0000000000000E-02  4.0000000000000E-02  4.0000000000000E-02  4.0000000000000E-02  4.0000000000000E-02  4.0000000000000E-02  3.9999999998721E-02 
 4.0000000001160E-02  4.0000000000000E-02  4.0000000000000E-02  4.0000000000000E-02  4.0000000000000E-02  4.0000000000000E-02  4.0000000000000E-02  4.0000000000000E-02  4.0000000000000E-02  3.9999999998721E-02 
 3.5028847904471E-02  3.5028823351578E-02  3.5028798798686E-02  3.5028774245793E-02  3.5028749692901E-02  3.5028725140008E-02  3.5028700587116E-02  3.5028676034223E-02  3.5028651481331E-02  3.5028626928438E-02 
 8.0911499769706E-01  8.0911499769706E-01  8.0911499769706E-01  8.0911499769706E-01  8.0911499769706E-01  8.0911499769706E-01  8.0911499769706E-01  8.0911499769706E-01  8.0911499769706E-01  8.0911499769706E-01 
 2.6811111111111E-05  5.3622222222222E-05  5.3622222222222E-05  5.3622222222222E-05  5.3622222222222E-05  5.3622222222222E-05  5.3622222222222E-05  5.3622222222223E-05  5.3622222222222E-05  2.6811111111111E-05 
 1.9088500230294E-01  1.9088500230294E-01  1.9088500230294E-01  1.9088500230294E-01  1.9088500230294E-01  1.9088500230294E-01  1.9088500230294E-01  1.9088500230294E-01  1.9088500230294E-01  1.9088500230294E-01 
 1.1075910436690E-09  1.1075906991033E-09  1.1075902547747E-09  1.1075902431533E-09  1.1075905841146E-09  1.1075906065743E-09  1.1075906169859E-09  1.1075906061477E-09  1.1075903446501E-09  1.1075903347626E-09 
 6.8422656041468E-03  6.8422656060308E-03  6.8422656079149E-03  6.8422656079149E-03  6.8422656059812E-03  6.8422656059812E-03  6.8422656079149E-03  6.8422656079148E-03  6.8422656059265E-03  6.8422656039382E-03 
 6.8422656041468E-03  6.8422656060308E-03  6.8422656079149E-03  6.8422656079149E-03  6.8422656059812E-03  6.8422656059812E-03  6.8422656079149E-03  6.8422656079148E-03  6.8422656059265E-03  6.8422656039382E-03 
 0.0000000000000E+00  0.0000000000000E+00  0.0000000000000E+00  0.0000000000000E+00  0.0000000000000E+00  0.0000000000000E+00  0.0000000000000E+00  0.0000000000000E+00  0.0000000000000E+00  0.0000000000000E+00 
ZONE T = "SEP , 2.3781E-07", I = 10, SOLUTIONTIME = 2.378125E-07
ZONETYPE = ORDERED
DATAPACKING = BLOCK
STRANDID = 2
 7.8740000000000E-04  8.4102222222222E-04  8.9464444444444E-04  9.4826666666667E-04  1.0018888888889E-03  1.0555111111111E-03  1.1091333333333E-03  1.1627555555556E-03  1.2163777777778E-03  1.2700000000000E-03 
 1.0377329062759E-08  1.0377329062759E-08  1.0377329062759E-08  1.0377329062759E-08  1.0377329062759E-08  1.0377329062759E-08  1.0377329062759E-08  1.0377329062759E-08  1.0377329062759E-08  9.8012466744961E-09 
 9.1999999999659E-01  9.2000000000000E-01  9.2000000000000E-01  9.2000000000000E-01  9.2000000000000E-01  9.2000000000000E-01  9.2000000000000E-01  9.2000000000000E-01  9.2000000000000E-01  9.2000000000376E-01 
 4.0000000001704E-02  4.0000000000001E-02  4.0000000000000E-02  4.0000000000000E-02  4.0000000000000E-02  4.0000000000000E-02  4.0000000000000E-02  4.0000000000000E-02  3.9999999999999E-02  3.9999999998122E-02 
 4.0000000001704E-02  4.0000000000001E-02  4.0000000000000E-02  4.0000000000000E-02  4.0000000000000E-02  4.0000000000000E-02  4.0000000000000E-02  4.0000000000000E-02  3.9999999999999E-02  3.9999999998122E-02 
 3.5028847903272E-02  3.5028823350380E-02  3.5028798797487E-02  3.5028774244595E-02  3.5028749691702E-02  3.5028725138810E-02  3.5028700585917E-02  3.5028676033025E-02  3.5028651480132E-02  3.5028626927240E-02 
 8.0911499769706E-01  8.0911499769706E-01  8.0911499769706E-01  8.0911499769706E-01  8.0911499769706E-01  8.0911499769706E-01  8.0911499769706E-01  8.0911499769706E-01  8.0911499769706E-01  8.0911499769706E-01 
 2.6811111111111E-05  5.3622222222222E-05  5.3622222222222E-05  5.3622222222222E-05  5.3622222222222E-05  5.3622222222222E-05  5.3622222222222E-05  5.3622222222223E-05  5.3622222222222E-05  2.6811111111111E-05 
 1.9088500230294E-01  1.9088500230294E-01  1.9088500230294E-01  1.9088500230294E-01  1.9088500230294E-01  1.9088500230294E-01  1.9088500230294E-01  1.9088500230294E-01  1.9088500230294E-01  1.9088500230294E-01 
 1.6271755882811E-09  1.6271752437099E-09  1.6271747992289E-09  1.6271747876075E-09  1.6271751285688E-09  1.6271751510285E-09  1.6271751615870E-09  1.6271751506019E-09  1.6271748890982E-09  1.6271748793514E-09 
 6.8422656080607E-03  6.8422656079878E-03  6.8422656059813E-03  6.8422656059812E-03  6.8422656059812E-03  6.8422656059812E-03  6.8422656079149E-03  6.8422656059811E-03  6.8422656059009E-03  6.8422656077542E-03 
 6.8422656080607E-03  6.8422656079878E-03  6.8422656059813E-03  6.8422656059812E-03  6.8422656059812E-03  6.8422656059812E-03  6.8422656079149E-03  6.8422656059811E-03  6.8422656059009E-03  6.8422656077542E-03 
 0.0000000000000E+00  0.0000000000000E+00  0.0000000000000E+00  0.0000000000000E+00  0.0000000000000E+00  0.0000000000000E+00  0.0000000000000E+00  0.0000000000000E+00  0.0000000000000E+00  0.0000000000000E+00 
ZONE T = "SEP , 3.5172E-07", I = 10, SOLUTIONTIME = 3.517188E-07
ZONETYPE = ORDERED
DATAPACKING = BLOCK
STRANDID = 2
 7.8740000000000E-04  8.4102222222222E-04  8.9464444444444E-04  9.4826666666667E-04  1.0018888888889E-03  1.0555111111111E-03  1.1091333333333E-03  1.1627555555556E-03  1.2163777777778E-03  1.2700000000000E-03 
 1.0376786990927E-08  1.0376786990927E-08  1.0376786990927E-08  1.0376786990927E-08  1.0376786990927E-08  1.0376786990927E-08  1.0376786990927E-08  1.0376786990927E-08  1.0376723217828E-08  9.8005690848415E-09 
 9.1999999999496E-01  9.2000000000000E-01  9.2000000000000E-01  9.2000000000000E-01  9.2000000000000E-01  9.2000000000000E-01  9.2000000000000E-01  9.2000000000000E-01  9.2000000000000E-01  9.2000000000555E-01 
 4.0000000002519E-02  4.0000000000002E-02  4.0000000000000E-02  4.0000000000000E-02  4.0000000000000E-02  4.0000000000000E-02  4.0000000000000E-02  4.0000000000000E-02  3.9999999999998E-02  3.9999999997223E-02 