TITLE = "Solution on Domain BulkDomain1D_0"
VARIABLES = "x [m]"  
"Vel_axial" 
"MF_sp(ECDMC)" 
"MF_sp(Li+)" 
"MF_sp(PF6-)" 
"Volt(Electroly)" 
"Volt(AnodeVolt)" 
"Potential Drop Electrode-Electrolyte [V]" 
"Surf_0 Equilibrium Potential Drop Electrode-Electrolyte [V]" 
"Overpotential_0 [V]" 
"Current Source [A/m^2]" 
"Li+ flux [kmol/m^2/s]" 
"Electrolyte Current [A/m^2]" 
"Electrode Current [A/m^2]" 
"CV Capacity discharged [A-s/m^2]" 
"Depth of discharge in CV [A-s/m^2]" 
"CV Capacity remaining [A-s/m^2]" 
"Initial CV capacity [A-s/m^2]" 
"Porosity []" 
"Surface Area [m2/m2] (area per area)" 
"Specific current (per particle area) [A/m^2]" 
"Control volume thickness [m]" 
"MoleDens Li_C6-bulk [kmol/m^3]" 
"MoleDens V_C6-bulk [kmol/m^3]" 
"qHeat_accum [J/m3]" 
"qHeat_step [W/m3]" 
"Joule_Lyte [W/m3]" 
"Joule_Solid [W/m3]" 
"electrodHeat [W/m3]" 
"OverpotHeat [W/m3]" 
"deltaSHeat [W/m3]" 

ZONE T = "ANOD, 0.0000E+00", I = 10, SOLUTIONTIME = 0.000000E+00
ZONETYPE = ORDERED
DATAPACKING = BLOCK
STRANDID = 1
 0.0000000000000E+00  8.7488888888889E-05  1.7497777777778E-04  2.6246666666667E-04  3.4995555555556E-04  4.3744444444444E-04  5.2493333333333E-04  6.1242222222222E-04  6.9991111111111E-04  7.8740000000000E-04 
 0.0000000000000E+00  0.0000000000000E+00  0.0000000000000E+00  0.0000000000000E+00  0.0000000000000E+00  0.0000000000000E+00  0.0000000000000E+00  0.0000000000000E+00  0.0000000000000E+00  0.0000000000000E+00 
 9.2000000000000E-01  9.2000000000000E-01  9.2000000000000E-01  9.2000000000000E-01  9.2000000000000E-01  9.2000000000000E-01  9.2000000000000E-01  9.2000000000000E-01  9.2000000000000E-01  9.2000000000000E-01 
 4.0000000000000E-02  4.0000000000000E-02  4.0000000000000E-02  4.0000000000000E-02  4.0000000000000E-02  4.0000000000000E-02  4.0000000000000E-02  4.0000000000000E-02  4.0000000000000E-02  4.0000000000000E-02 
 4.0000000000000E-02  4.0000000000000E-02  4.0000000000000E-02  4.0000000000000E-02  4.0000000000000E-02  4.0000000000000E-02  4.0000000000000E-02  4.0000000000000E-02  4.0000000000000E-02  4.0000000000000E-02 
-7.0000000000000E-02 -7.0000000000000E-02 -7.0000000000000E-02 -7.0000000000000E-02 -7.0000000000000E-02 -7.0000000000000E-02 -7.0000000000000E-02 -7.0000000000000E-02 -7.0000000000000E-02 -7.0000000000000E-02 
 0.0000000000000E+00  0.0000000000000E+00  0.0000000000000E+00  0.0000000000000E+00  0.0000000000000E+00  0.0000000000000E+00  0.0000000000000E+00  0.0000000000000E+00  0.0000000000000E+00  0.0000000000000E+00 
 7.0000000000000E-02  7.0000000000000E-02  7.0000000000000E-02  7.0000000000000E-02  7.0000000000000E-02  7.0000000000000E-02  7.0000000000000E-02  7.0000000000000E-02  7.0000000000000E-02  7.0000000000000E-02 
-4.0906712753390E-02 -4.0906712753390E-02 -4.0906712753390E-02 -4.0906712753390E-02 -4.0906712753390E-02 -4.0906712753390E-02 -4.0906712753390E-02 -4.0906712753390E-02 -4.0906712753390E-02 -4.0906712753390E-02 
 1.1090671275339E-01  1.1090671275339E-01  1.1090671275339E-01  1.1090671275339E-01  1.1090671275339E-01  1.1090671275339E-01  1.1090671275339E-01  1.1090671275339E-01  1.1090671275339E-01  1.1090671275339E-01 
 3.0930240924008E+01  6.1860481848016E+01  6.1860481848016E+01  6.1860481848016E+01  6.1860481848016E+01  6.1860481848016E+01  6.1860481848016E+01  6.1860481848016E+01  6.1860481848016E+01  3.0930240924008E+01 
-0.0000000000000E+00 -0.0000000000000E+00 -0.0000000000000E+00 -0.0000000000000E+00 -0.0000000000000E+00 -0.0000000000000E+00 -0.0000000000000E+00 -0.0000000000000E+00 -0.0000000000000E+00 -0.0000000000000E+00 
 0.0000000000000E+00  0.0000000000000E+00  0.0000000000000E+00  0.0000000000000E+00  0.0000000000000E+00  0.0000000000000E+00  0.0000000000000E+00  0.0000000000000E+00  0.0000000000000E+00  3.0930240924008E+01 
 3.0930240924008E+01 -0.0000000000000E+00 -0.0000000000000E+00 -0.0000000000000E+00 -0.0000000000000E+00 -0.0000000000000E+00 -0.0000000000000E+00 -0.0000000000000E+00 -0.0000000000000E+00  0.0000000000000E+00 
 0.0000000000000E+00  0.0000000000000E+00  0.0000000000000E+00  0.0000000000000E+00  0.0000000000000E+00  0.0000000000000E+00  0.0000000000000E+00  0.0000000000000E+00  0.0000000000000E+00  0.0000000000000E+00 
 9.1448444543281E+04  1.8289688908656E+05  1.8289688908656E+05  1.8289688908656E+05  1.8289688908656E+05  1.8289688908656E+05  1.8289688908656E+05  1.8289688908656E+05  1.8289688908656E+05  9.1448444543281E+04 
 3.6579377817312E+05  7.3158755634625E+05  7.3158755634625E+05  7.3158755634625E+05  7.3158755634625E+05  7.3158755634625E+05  7.3158755634625E+05  7.3158755634625E+05  7.3158755634625E+05  3.6579377817312E+05 
 4.5724222271640E+05  9.1448444543281E+05  9.1448444543281E+05  9.1448444543281E+05  9.1448444543281E+05  9.1448444543281E+05  9.1448444543281E+05  9.1448444543281E+05  9.1448444543281E+05  4.5724222271640E+05 
 3.5000000000000E-01  3.5000000000000E-01  3.5000000000000E-01  3.5000000000000E-01  3.5000000000000E-01  3.5000000000000E-01  3.5000000000000E-01  3.5000000000000E-01  3.5000000000000E-01  3.5000000000000E-01 
 8.5301666666666E+00  1.7060333333333E+01  1.7060333333333E+01  1.7060333333333E+01  1.7060333333333E+01  1.7060333333333E+01  1.7060333333333E+01  1.7060333333333E+01  1.7060333333333E+01  8.5301666666666E+00 
 3.6259831879809E+00  3.6259831879809E+00  3.6259831879809E+00  3.6259831879809E+00  3.6259831879809E+00  3.6259831879809E+00  3.6259831879809E+00  3.6259831879809E+00  3.6259831879809E+00  3.6259831879809E+00 
 4.3744444444444E-05  8.7488888888889E-05  8.7488888888889E-05  8.7488888888889E-05  8.7488888888889E-05  8.7488888888889E-05  8.7488888888889E-05  8.7488888888889E-05  8.7488888888889E-05  4.3744444444444E-05 
 8.6666666666666E+01  8.6666666666666E+01  8.6666666666666E+01  8.6666666666666E+01  8.6666666666666E+01  8.6666666666666E+01  8.6666666666666E+01  8.6666666666666E+01  8.6666666666666E+01  8.6666666666666E+01 
 2.1666666666667E+01  2.1666666666667E+01  2.1666666666667E+01  2.1666666666667E+01  2.1666666666667E+01  2.1666666666667E+01  2.1666666666667E+01  2.1666666666667E+01  2.1666666666667E+01  2.1666666666667E+01 
 0.0000000000000E+00  0.0000000000000E+00  0.0000000000000E+00  0.0000000000000E+00  0.0000000000000E+00  0.0000000000000E+00  0.0000000000000E+00  0.0000000000000E+00  0.0000000000000E+00  0.0000000000000E+00 
 0.0000000000000E+00  0.0000000000000E+00  0.0000000000000E+00  0.0000000000000E+00  0.0000000000000E+00  0.0000000000000E+00  0.0000000000000E+00  0.0000000000000E+00  0.0000000000000E+00  0.0000000000000E+00 
 0.0000000000000E+00  0.0000000000000E+00  0.0000000000000E+00  0.0000000000000E+00  0.0000000000000E+00  0.0000000000000E+00  0.0000000000000E+00  0.0000000000000E+00  0.0000000000000E+00  0.0000000000000E+00 
 0.0000000000000E+00  0.0000000000000E+00  0.0000000000000E+00  0.0000000000000E+00  0.0000000000000E+00  0.0000000000000E+00  0.0000000000000E+00  0.0000000000000E+00  0.0000000000000E+00  0.0000000000000E+00 
 0.0000000000000E+00  0.0000000000000E+00  0.0000000000000E+00  0.0000000000000E+00  0.0000000000000E+00  0.0000000000000E+00  0.0000000000000E+00  0.0000000000000E+00  0.0000000000000E+00  0.0000000000000E+00 
 0.0000000000000E+00  0.0000000000000E+00  0.0000000000000E+00  0.0000000000000E+00  0.0000000000000E+00  0.0000000000000E+00  0.0000000000000E+00  0.0000000000000E+00  0.0000000000000E+00  0.0000000000000E+00 
 0.0000000000000E+00  0.0000000000000E+00  0.0000000000000E+00  0.0000000000000E+00  0.0000000000000E+00  0.0000000000000E+00  0.0000000000000E+00  0.0000000000000E+00  0.0000000000000E+00  0.0000000000000E+00 
ZONE T = "ANOD, 1.0000E-08", I = 10, SOLUTIONTIME = 1.000000E-08
ZONETYPE = ORDERED
DATAPACKING = BLOCK
STRANDID = 1
 0.0000000000000E+00  8.7488888888889E-05  1.7497777777778E-04  2.6246666666667E-04  3.4995555555556E-04  4.3744444444444E-04  5.2493333333333E-04  6.1242222222222E-04  6.9991111111111E-04  7.8740000000000E-04 
 5.7608965671831E-10  1.7286332570135E-09  2.8808178618436E-09  4.0330098178844E-09  5.1859386760551E-09  6.3385179499050E-09  7.4914771938298E-09  8.6444563345895E-09  9.7974585101640E-09  1.0373972684378E-08 
 9.1999999999965E-01  9.1999999999965E-01  9.1999999999965E-01  9.1999999999965E-01  9.1999999999965E-01  9.1999999999965E-01  9.1999999999965E-01  9.1999999999965E-01  9.1999999999965E-01  9.1999999999986E-01 
 4.0000000000173E-02  4.0000000000173E-02  4.0000000000173E-02  4.0000000000173E-02  4.0000000000173E-02  4.0000000000173E-02  4.0000000000173E-02  4.0000000000173E-02  4.0000000000173E-02  4.0000000000072E-02 
 4.0000000000173E-02  4.0000000000173E-02  4.0000000000173E-02  4.0000000000173E-02  4.0000000000173E-02  4.0000000000173E-02  4.0000000000173E-02  4.0000000000173E-02  4.0000000000173E-02  4.0000000000072E-02 
 3.5028732240300E-02  3.5028724418086E-02  3.5028700951300E-02  3.5028661839915E-02  3.5028607083795E-02  3.5028536682794E-02  3.5028450636889E-02  3.5028348945671E-02  3.5028231609042E-02  3.5028098626408E-02 
-2.5574474150077E-07 -2.5810086588743E-07 -2.6017980919402E-07 -2.6198157040782E-07 -2.6350614776146E-07 -2.6475353873374E-07 -2.6572374004933E-07 -2.6641674767824E-07 -2.6683255683689E-07 -2.6697116198726E-07 
-3.5028987985041E-02 -3.5028982518951E-02 -3.5028961131109E-02 -3.5028923821485E-02 -3.5028870589943E-02 -3.5028801436333E-02 -3.5028716360629E-02 -3.5028615362418E-02 -3.5028498441599E-02 -3.5028365597570E-02 
-4.0906712753142E-02 -4.0906712753146E-02 -4.0906712753142E-02 -4.0906712753142E-02 -4.0906712753142E-02 -4.0906712753142E-02 -4.0906712753142E-02 -4.0906712753142E-02 -4.0906712753142E-02 -4.0906712753207E-02 
 5.8777247681008E-03  5.8777302341945E-03  5.8777516220324E-03  5.8777889316564E-03  5.8778421631986E-03  5.8779113168094E-03  5.8779963925132E-03  5.8780973907234E-03  5.8782143115426E-03  5.8783471556372E-03 
 8.3025205620651E-01  1.6605056633559E+00  1.6605117319215E+00  1.6605223181186E+00  1.6605374219871E+00  1.6605570435714E+00  1.6605811828805E+00  1.6606098400339E+00  1.6606430150642E+00  8.3034035407257E-01 
 4.3018611790928E-09  1.2905662376008E-08  2.1509479217965E-08  3.0113370039920E-08  3.8717341949662E-08  4.7321326038060E-08  5.5925535079412E-08  6.4529797578792E-08  7.3134423737501E-08  7.3134423737501E-08 
 0.0000000000000E+00  1.6602736998498E+00  3.3205565162157E+00  4.9808479796486E+00  6.6411544050665E+00  8.3014698295461E+00  9.9618081336827E+00  1.1622173300245E+01  1.3282575251352E+01  1.4943132394226E+01 
 1.4943122292435E+01  1.3282731420722E+01  1.1622450756714E+01  9.9621617665461E+00  8.3018599323865E+00  6.6415407380019E+00  4.9811996646718E+00  3.3208321952679E+00  1.6604338133667E+00  0.0000000000000E+00 
 8.3025205620651E-09  1.6605056633559E-08  1.6605117319215E-08  1.6605223181186E-08  1.6605374219871E-08  1.6605570435714E-08  1.6605811828805E-08  1.6606098400339E-08  1.6606430150642E-08  8.3034035407257E-09 
 9.1448444543289E+04  1.8289688908658E+05  1.8289688908658E+05  1.8289688908658E+05  1.8289688908658E+05  1.8289688908658E+05  1.8289688908658E+05  1.8289688908658E+05  1.8289688908658E+05  9.1448444543289E+04 
 3.6579377817311E+05  7.3158755634623E+05  7.3158755634623E+05  7.3158755634623E+05  7.3158755634623E+05  7.3158755634623E+05  7.3158755634623E+05  7.3158755634623E+05  7.3158755634623E+05  3.6579377817311E+05 
 4.5724222271640E+05  9.1448444543281E+05  9.1448444543281E+05  9.1448444543281E+05  9.1448444543281E+05  9.1448444543281E+05  9.1448444543281E+05  9.1448444543281E+05  9.1448444543281E+05  4.5724222271640E+05 
 3.5000000000000E-01  3.5000000000000E-01  3.5000000000000E-01  3.5000000000000E-01  3.5000000000000E-01  3.5000000000000E-01  3.5000000000000E-01  3.5000000000000E-01  3.5000000000000E-01  3.5000000000000E-01 
 8.5301666666666E+00  1.7060333333333E+01  1.7060333333333E+01  1.7060333333333E+01  1.7060333333333E+01  1.7060333333333E+01  1.7060333333333E+01  1.7060333333333E+01  1.7060333333333E+01  8.5301666666666E+00 
 9.7331281867081E-02  9.7331372776379E-02  9.7331728488394E-02  9.7332349003651E-02  9.7333234324481E-02  9.7334384453494E-02  9.7335799391210E-02  9.7337479144635E-02  9.7339423715687E-02  9.7341633114544E-02 
 4.3744444444444E-05  8.7488888888889E-05  8.7488888888889E-05  8.7488888888889E-05  8.7488888888889E-05  8.7488888888889E-05  8.7488888888889E-05  8.7488888888889E-05  8.7488888888889E-05  4.3744444444444E-05 
 8.6666666666664E+01  8.6666666666664E+01  8.6666666666664E+01  8.6666666666664E+01  8.6666666666664E+01  8.6666666666664E+01  8.6666666666664E+01  8.6666666666664E+01  8.6666666666664E+01  8.6666666666664E+01 
 2.1666666666669E+01  2.1666666666669E+01  2.1666666666669E+01  2.1666666666669E+01  2.1666666666669E+01  2.1666666666669E+01  2.1666666666669E+01  2.1666666666669E+01  2.1666666666669E+01  2.1666666666669E+01 
 4.5428804240700E-12  7.0909238202125E-12  1.5208502186763E-11  2.9369150143319E-11  4.9573042114344E-11  7.5820220183801E-11  1.0811112980131E-10  1.4644605344797E-10  1.9082564488876E-10  2.1452682321581E-10 
 4.5428804240700E-04  7.0909238202125E-04  1.5208502186763E-03  2.9369150143319E-03  4.9573042114344E-03  7.5820220183801E-03  1.0811112980131E-02  1.4644605344797E-02  1.9082564488876E-02  2.1452682321581E-02 
 7.4220605825447E-05  3.7110711025309E-04  1.2617693329768E-03  2.7462186487011E-03  4.8244724847478E-03  7.4965349198272E-03  1.0762450254788E-02  1.4622246379085E-02  1.9075988196034E-02  2.1451367027185E-02 
 3.8006743658155E-04  3.3798527176817E-04  2.5908088569954E-04  1.9069636563079E-04  1.3283172668661E-04  8.5487098552975E-05  4.8662725342710E-05  2.2358965712157E-05  6.5762928422370E-06  1.3152943955698E-06 
 0.0000000000000E+00  0.0000000000000E+00  0.0000000000000E+00  0.0000000000000E+00  0.0000000000000E+00  0.0000000000000E+00  0.0000000000000E+00  0.0000000000000E+00  0.0000000000000E+00  0.0000000000000E+00 
 0.0000000000000E+00  0.0000000000000E+00  0.0000000000000E+00  0.0000000000000E+00  0.0000000000000E+00  0.0000000000000E+00  0.0000000000000E+00  0.0000000000000E+00  0.0000000000000E+00  0.0000000000000E+00 
 0.0000000000000E+00  0.0000000000000E+00  0.0000000000000E+00  0.0000000000000E+00  0.0000000000000E+00  0.0000000000000E+00  0.0000000000000E+00  0.0000000000000E+00  0.0000000000000E+00  0.0000000000000E+00 
ZONE T = "ANOD, 2.0000E-08", I = 10, SOLUTIONTIME = 2.000000E-08
ZONETYPE = ORDERED
DATAPACKING = BLOCK
STRANDID = 1
 0.0000000000000E+00  8.7488888888889E-05  1.7497777777778E-04  2.6246666666667E-04  3.4995555555556E-04  4.3744444444444E-04  5.2493333333333E-04  6.1242222222222E-04  6.9991111111111E-04  7.8740000000000E-04 
 5.7609501514935E-10  1.7290125379059E-09  2.8812078592894E-09  4.0334105318494E-09  5.1859869004288E-09  6.3396665176257E-09  7.4933628974398E-09  8.6474423848291E-09  9.8015449093513E-09  1.0378064447268E-08 
 9.1999999999931E-01  9.1999999999931E-01  9.1999999999931E-01  9.1999999999931E-01  9.1999999999931E-01  9.1999999999931E-01  9.1999999999931E-01  9.1999999999931E-01  9.1999999999931E-01  9.1999999999971E-01 
 4.0000000000346E-02  4.0000000000346E-02  4.0000000000346E-02  4.0000000000346E-02  4.0000000000346E-02  4.0000000000346E-02  4.0000000000346E-02  4.0000000000346E-02  4.0000000000346E-02  4.0000000000143E-02 
 4.0000000000346E-02  4.0000000000346E-02  4.0000000000346E-02  4.0000000000346E-02  4.0000000000346E-02  4.0000000000346E-02  4.0000000000346E-02  4.0000000000346E-02  4.0000000000346E-02  4.0000000000143E-02 
 3.5029481526481E-02  3.5029473704147E-02  3.5029450237131E-02  3.5029411125376E-02  3.5029356368782E-02  3.5029285967206E-02  3.5029199920464E-02  3.5029098228328E-02  3.5028980890529E-02  3.5028847906753E-02 
-2.5574711934447E-07 -2.5810326563803E-07 -2.6018222827547E-07 -2.6198400624367E-07 -2.6350859777525E-07 -2.6475600034861E-07 -2.6572621068796E-07 -2.6641922476322E-07 -2.6683503779009E-07 -2.6697364423000E-07 
-3.5029737273600E-02 -3.5029731807413E-02 -3.5029710419359E-02 -3.5029673109382E-02 -3.5029619877379E-02 -3.5029550723206E-02 -3.5029465646675E-02 -3.5029364647553E-02 -3.5029247725567E-02 -3.5029114880397E-02 
-4.0906712752895E-02 -4.0906712752899E-02 -4.0906712752895E-02 -4.0906712752895E-02 -4.0906712752898E-02 -4.0906712752896E-02 -4.0906712752896E-02 -4.0906712752898E-02 -4.0906712752898E-02 -4.0906712753029E-02 
 5.8769754792946E-03  5.8769809454859E-03  5.8770023335353E-03  5.8770396435125E-03  5.8770928755190E-03  5.8771620296892E-03  5.8772471062208E-03  5.8773481053453E-03  5.8774650273317E-03  5.8775978726316E-03 
 8.3014575506247E-01  1.6602930610940E+00  1.6602991297083E+00  1.6603097159881E+00  1.6603248199635E+00  1.6603444416740E+00  1.6603685811777E+00  1.6603972385430E+00  1.6604304138493E+00  8.3023405360381E-01 
 4.3019270369404E-09  1.2905789146088E-08  2.1509682706462E-08  3.0113631118409E-08  3.8717657812452E-08  4.7321786180635E-08  5.5926039644272E-08  6.4530441618114E-08  7.3135087252208E-08  7.3135087252208E-08 
 0.0000000000000E+00  1.6602922856203E+00  3.3205883813256E+00  4.9808928037681E+00  6.6412100718089E+00  8.3015447028362E+00  9.9619012138702E+00  1.1622284123772E+01  1.3282697950281E+01  1.4943147210913E+01 
 1.4943147210664E+01  1.3282854925055E+01  1.1622558829654E+01  9.9622544068054E+00  8.3019371388295E+00  6.6416025080108E+00  4.9812459965852E+00  3.3208630867247E+00  1.6604492605284E+00  0.0000000000000E+00 
 1.6603978112690E-08  3.3207987244500E-08  3.3208108616298E-08  3.3208320341068E-08  3.3208622419506E-08  3.3209014852454E-08  3.3209497640582E-08  3.3210070785768E-08  3.3210734289135E-08  1.6605744076764E-08 
 9.1448444543297E+04  1.8289688908659E+05  1.8289688908659E+05  1.8289688908659E+05  1.8289688908659E+05  1.8289688908659E+05  1.8289688908659E+05  1.8289688908659E+05  1.8289688908659E+05  9.1448444543297E+04 
 3.6579377817311E+05  7.3158755634621E+05  7.3158755634621E+05  7.3158755634621E+05  7.3158755634621E+05  7.3158755634621E+05  7.3158755634621E+05  7.3158755634621E+05  7.3158755634621E+05  3.6579377817311E+05 
 4.5724222271640E+05  9.1448444543281E+05  9.1448444543281E+05  9.1448444543281E+05  9.1448444543281E+05  9.1448444543281E+05  9.1448444543281E+05  9.1448444543281E+05  9.1448444543281E+05  4.5724222271640E+05 
 3.5000000000000E-01  3.5000000000000E-01  3.5000000000000E-01  3.5000000000000E-01  3.5000000000000E-01  3.5000000000000E-01  3.5000000000000E-01  3.5000000000000E-01  3.5000000000000E-01  3.5000000000000E-01 
 8.5301666666666E+00  1.7060333333333E+01  1.7060333333333E+01  1.7060333333333E+01  1.7060333333333E+01  1.7060333333333E+01  1.7060333333333E+01  1.7060333333333E+01  1.7060333333333E+01  8.5301666666666E+00 
 9.7318820077271E-02  9.7318910988104E-02  9.7319266702975E-02  9.7319887223080E-02  9.7320772550176E-02  9.7321922686583E-02  9.7323337635709E-02  9.7325017401555E-02  9.7326961988785E-02  9.7329171403898E-02 
 4.3744444444444E-05  8.7488888888889E-05  8.7488888888889E-05  8.7488888888889E-05  8.7488888888889E-05  8.7488888888889E-05  8.7488888888889E-05  8.7488888888889E-05  8.7488888888889E-05  4.3744444444444E-05 
 8.6666666666662E+01  8.6666666666662E+01  8.6666666666662E+01  8.6666666666662E+01  8.6666666666662E+01  8.6666666666662E+01  8.6666666666662E+01  8.6666666666662E+01  8.6666666666662E+01  8.6666666666662E+01 
 2.1666666666671E+01  2.1666666666671E+01  2.1666666666671E+01  2.1666666666671E+01  2.1666666666671E+01  2.1666666666671E+01  2.1666666666671E+01  2.1666666666671E+01  2.1666666666671E+01  2.1666666666671E+01 
 9.0858542499432E-12  1.4181987471895E-11  3.0417293714762E-11  5.8738826613400E-11  9.9146914730354E-11  1.5164182004633E-10  2.1622427368037E-10  2.9289490959319E-10  3.8165479879429E-10  4.2905732863987E-10 
 4.5429738258732E-04  7.0910636516820E-04  1.5208791527999E-03  2.9369676470081E-03  4.9573872616010E-03  7.5821599862530E-03  1.0811314387906E-02  1.4644885614522E-02  1.9082915390553E-02  2.1453050542406E-02 
 1.4844348417707E-04  7.4222191838530E-04  2.5235627818659E-03  5.4924863834206E-03  9.6490255490169E-03  1.4993206217372E-02  2.1525101012097E-02  2.9244772611917E-02  3.8152327171386E-02  4.2903102250721E-02 
 7.6014194081725E-04  6.7597682880415E-04  5.1816658961025E-04  3.8139627791940E-04  2.6566592401840E-04  1.7097578726164E-04  9.7326355940037E-05  4.4718347402506E-05  1.3152708043102E-05  2.6306132654535E-06 
 0.0000000000000E+00  0.0000000000000E+00  0.0000000000000E+00  0.0000000000000E+00  0.0000000000000E+00  0.0000000000000E+00  0.0000000000000E+00  0.0000000000000E+00  0.0000000000000E+00  0.0000000000000E+00 
 0.0000000000000E+00  0.0000000000000E+00  0.0000000000000E+00  0.0000000000000E+00  0.0000000000000E+00  0.0000000000000E+00  0.0000000000000E+00  0.0000000000000E+00  0.0000000000000E+00  0.0000000000000E+00 
 0.0000000000000E+00  0.0000000000000E+00  0.0000000000000E+00  0.0000000000000E+00  0.0000000000000E+00  0.0000000000000E+00  0.0000000000000E+00  0.0000000000000E+00  0.0000000000000E+00  0.0000000000000E+00 
ZONE T = "ANOD, 3.0000E-08", I = 10, SOLUTIONTIME = 3.000000E-08
ZONETYPE = ORDERED
DATAPACKING = BLOCK
STRANDID = 1
 0.0000000000000E+00  8.7488888888889E-05  1.7497777777778E-04  2.6246666666667E-04  3.4995555555556E-04  4.3744444444444E-04  5.2493333333333E-04  6.1242222222222E-04  6.9991111111111E-04  7.8740000000000E-04 
 5.7682143060164E-10  1.7301021610787E-09  2.8837503133668E-09  4.0374058168314E-09  5.1892557699480E-09  6.3414825562266E-09  7.4926364819391E-09  8.6445367229544E-09  9.7964600011026E-09  1.0372616331294E-08 
 9.1999999999896E-01  9.1999999999896E-01  9.1999999999896E-01  9.1999999999896E-01  9.1999999999896E-01  9.1999999999896E-01  9.1999999999896E-01  9.1999999999896E-01  9.1999999999896E-01  9.1999999999957E-01 
 4.0000000000520E-02  4.0000000000520E-02  4.0000000000520E-02  4.0000000000520E-02  4.0000000000520E-02  4.0000000000520E-02  4.0000000000520E-02  4.0000000000520E-02  4.0000000000520E-02  4.0000000000215E-02 
 4.0000000000520E-02  4.0000000000520E-02  4.0000000000520E-02  4.0000000000520E-02  4.0000000000520E-02  4.0000000000520E-02  4.0000000000520E-02  4.0000000000520E-02  4.0000000000520E-02  4.0000000000215E-02 
 3.5029481526286E-02  3.5029473703953E-02  3.5029450236937E-02  3.5029411125182E-02  3.5029356368587E-02  3.5029285967012E-02  3.5029199920270E-02  3.5029098228134E-02  3.5028980890335E-02  3.5028847906559E-02 
-2.5574711934305E-07 -2.5810326563659E-07 -2.6018222827403E-07 -2.6198400624221E-07 -2.6350859777378E-07 -2.6475600034714E-07 -2.6572621068648E-07 -2.6641922476174E-07 -2.6683503778861E-07 -2.6697364422852E-07 
-3.5029737273406E-02 -3.5029731807218E-02 -3.5029710419165E-02 -3.5029673109188E-02 -3.5029619877185E-02 -3.5029550723012E-02 -3.5029465646481E-02 -3.5029364647359E-02 -3.5029247725373E-02 -3.5029114880203E-02 
-4.0906712752645E-02 -4.0906712752645E-02 -4.0906712752645E-02 -4.0906712752645E-02 -4.0906712752645E-02 -4.0906712752645E-02 -4.0906712752645E-02 -4.0906712752645E-02 -4.0906712752645E-02 -4.0906712752841E-02 
 5.8769754792395E-03  5.8769809454270E-03  5.8770023334802E-03  5.8770396434575E-03  5.8770928754602E-03  5.8771620296333E-03  5.8772471061648E-03  5.8773481052864E-03  5.8774650272727E-03  5.8775978726378E-03 
 8.3014575505772E-01  1.6602930610836E+00  1.6602991296989E+00  1.6603097159787E+00  1.6603248199529E+00  1.6603444416636E+00  1.6603685811674E+00  1.6603972385325E+00  1.6604304138389E+00  8.3023405360677E-01 
 4.3019270407751E-09  1.2905789142328E-08  2.1509682704300E-08  3.0113631124611E-08  3.8717657806549E-08  4.7321786180840E-08  5.5926039644514E-08  6.4530441618393E-08  7.3135123115662E-08  7.3135123115662E-08 
 0.0000000000000E+00  1.6602922856274E+00  3.3205883809718E+00  4.9808928041579E+00  6.6412100718376E+00  8.3015447025039E+00  9.9619012139134E+00  1.1622284123822E+01  1.3282697949961E+01  1.4943147210223E+01 
 1.4943147210581E+01  1.3282854924982E+01  1.1622558829590E+01  9.9622544067517E+00  8.3019371387857E+00  6.6416025079773E+00  4.9812459965618E+00  3.3208630867119E+00  1.6604492605262E+00  0.0000000000000E+00 
 2.4905435663267E-08  4.9810917855336E-08  4.9811099913287E-08  4.9811417500855E-08  4.9811870619035E-08  4.9812459269090E-08  4.9813183452256E-08  4.9814043171094E-08  4.9815038427524E-08  2.4908084612832E-08 
 9.1448444543306E+04  1.8289688908661E+05  1.8289688908661E+05  1.8289688908661E+05  1.8289688908661E+05  1.8289688908661E+05  1.8289688908661E+05  1.8289688908661E+05  1.8289688908661E+05  9.1448444543306E+04 
 3.6579377817310E+05  7.3158755634620E+05  7.3158755634620E+05  7.3158755634620E+05  7.3158755634620E+05  7.3158755634620E+05  7.3158755634620E+05  7.3158755634620E+05  7.3158755634620E+05  3.6579377817310E+05 
 4.5724222271640E+05  9.1448444543281E+05  9.1448444543281E+05  9.1448444543281E+05  9.1448444543281E+05  9.1448444543281E+05  9.1448444543281E+05  9.1448444543281E+05  9.1448444543281E+05  4.5724222271640E+05 
 3.5000000000000E-01  3.5000000000000E-01  3.5000000000000E-01  3.5000000000000E-01  3.5000000000000E-01  3.5000000000000E-01  3.5000000000000E-01  3.5000000000000E-01  3.5000000000000E-01  3.5000000000000E-01 
 8.5301666666666E+00  1.7060333333333E+01  1.7060333333333E+01  1.7060333333333E+01  1.7060333333333E+01  1.7060333333333E+01  1.7060333333333E+01  1.7060333333333E+01  1.7060333333333E+01  8.5301666666666E+00 
 9.7318820076715E-02  9.7318910987495E-02  9.7319266702424E-02  9.7319887222528E-02  9.7320772549556E-02  9.7321922685975E-02  9.7323337635101E-02  9.7325017400941E-02  9.7326961988176E-02  9.7329171404244E-02 
 4.3744444444444E-05  8.7488888888889E-05  8.7488888888889E-05  8.7488888888889E-05  8.7488888888889E-05  8.7488888888889E-05  8.7488888888889E-05  8.7488888888889E-05  8.7488888888889E-05  4.3744444444444E-05 
 8.6666666666660E+01  8.6666666666660E+01  8.6666666666660E+01  8.6666666666660E+01  8.6666666666660E+01  8.6666666666660E+01  8.6666666666660E+01  8.6666666666660E+01  8.6666666666660E+01  8.6666666666660E+01 
 2.1666666666672E+01  2.1666666666672E+01  2.1666666666672E+01  2.1666666666672E+01  2.1666666666672E+01  2.1666666666672E+01  2.1666666666672E+01  2.1666666666672E+01  2.1666666666672E+01  2.1666666666672E+01 
 1.3628828077094E-11  2.1273051122238E-11  4.5626085240812E-11  8.8108503088188E-11  1.4872078734524E-10  2.2746341990325E-10  3.2433741755990E-10  4.3934376573905E-10  5.7248395268932E-10  6.4358783404219E-10 
 4.5429738271509E-04  7.0910636503439E-04  1.5208791526050E-03  2.9369676474788E-03  4.9573872614888E-03  7.5821599856921E-03  1.0811314387953E-02  1.4644885614585E-02  1.9082915389503E-02  2.1453050540233E-02 
 2.2266636266070E-04  1.1133367263874E-03  3.7853562305630E-03  8.2387541186129E-03  1.4473578613175E-02  2.2489877514356E-02  3.2287751769453E-02  4.3867298844812E-02  5.7228666145688E-02  6.4354837472084E-02 
 1.1402164450487E-03  1.0139683858364E-03  7.7725229351814E-04  5.7209619020595E-04  3.9850012134880E-04  2.5646447596944E-04  1.4598998653690E-04  6.7077729092675E-05  1.9729123243937E-05  3.9459321353473E-06 
 0.0000000000000E+00  0.0000000000000E+00  0.0000000000000E+00  0.0000000000000E+00  0.0000000000000E+00  0.0000000000000E+00  0.0000000000000E+00  0.0000000000000E+00  0.0000000000000E+00  0.0000000000000E+00 
 0.0000000000000E+00  0.0000000000000E+00  0.0000000000000E+00  0.0000000000000E+00  0.0000000000000E+00  0.0000000000000E+00  0.0000000000000E+00  0.0000000000000E+00  0.0000000000000E+00  0.0000000000000E+00 
 0.0000000000000E+00  0.0000000000000E+00  0.0000000000000E+00  0.0000000000000E+00  0.0000000000000E+00  0.0000000000000E+00  0.0000000000000E+00  0.0000000000000E+00  0.0000000000000E+00  0.0000000000000E+00 
ZONE T = "ANOD, 4.0000E-08", I = 10, SOLUTIONTIME = 4.000000E-08
ZONETYPE = ORDERED
DATAPACKING = BLOCK
STRANDID = 1
 0.0000000000000E+00  8.7488888888889E-05  1.7497777777778E-04  2.6246666666667E-04  3.4995555555556E-04  4.3744444444444E-04  5.2493333333333E-04  6.1242222222222E-04  6.9991111111111E-04  7.8740000000000E-04 
 5.7645822287019E-10  1.7293757456123E-09  2.8822974824375E-09  4.0352265704393E-09  5.1881661467324E-09  6.3422089716431E-09  7.4962685591709E-09  8.6492584233628E-09  9.8022713246875E-09  1.0378790862609E-08 
 9.1999999999861E-01  9.1999999999861E-01  9.1999999999861E-01  9.1999999999861E-01  9.1999999999861E-01  9.1999999999861E-01  9.1999999999861E-01  9.1999999999861E-01  9.1999999999861E-01  9.1999999999943E-01 
 4.0000000000693E-02  4.0000000000693E-02  4.0000000000693E-02  4.0000000000693E-02  4.0000000000693E-02  4.0000000000693E-02  4.0000000000693E-02  4.0000000000693E-02  4.0000000000693E-02  4.0000000000287E-02 
 4.0000000000693E-02  4.0000000000693E-02  4.0000000000693E-02  4.0000000000693E-02  4.0000000000693E-02  4.0000000000693E-02  4.0000000000693E-02  4.0000000000693E-02  4.0000000000693E-02  4.0000000000287E-02 
 3.5029481526097E-02  3.5029473703763E-02  3.5029450236747E-02  3.5029411124992E-02  3.5029356368398E-02  3.5029285966822E-02  3.5029199920080E-02  3.5029098227944E-02  3.5028980890145E-02  3.5028847906369E-02 
-2.5574711934163E-07 -2.5810326563517E-07 -2.6018222827259E-07 -2.6198400624077E-07 -2.6350859777233E-07 -2.6475600034568E-07 -2.6572621068502E-07 -2.6641922476027E-07 -2.6683503778714E-07 -2.6697364422705E-07 
-3.5029737273216E-02 -3.5029731807029E-02 -3.5029710418975E-02 -3.5029673108998E-02 -3.5029619876995E-02 -3.5029550722822E-02 -3.5029465646291E-02 -3.5029364647169E-02 -3.5029247725183E-02 -3.5029114880013E-02 
-4.0906712752396E-02 -4.0906712752397E-02 -4.0906712752396E-02 -4.0906712752396E-02 -4.0906712752399E-02 -4.0906712752396E-02 -4.0906712752396E-02 -4.0906712752399E-02 -4.0906712752399E-02 -4.0906712752660E-02 
 5.8769754791802E-03  5.8769809453681E-03  5.8770023334209E-03  5.8770396433981E-03  5.8770928754040E-03  5.8771620295739E-03  5.8772471061055E-03  5.8773481052302E-03  5.8774650272166E-03  5.8775978726468E-03 
 8.3014575505251E-01  1.6602930610732E+00  1.6602991296885E+00  1.6603097159683E+00  1.6603248199432E+00  1.6603444416537E+00  1.6603685811575E+00  1.6603972385228E+00  1.6604304138291E+00  8.3023405361009E-01 