TITLE = "Solution on Domain BulkDomain1D_2"
VARIABLES = "x [m]"  
"Vel_axial" 	"MF_sp(ECDMC)" 	"MF_sp(Li+)" 	"MF_sp(PF6-)" 	"Volt(Electroly)" 	"Volt(CathodeVo)" 	
"Potential Drop Electrode-Electrolyte [V]" 	"Surf_0 Equilibrium Potential Drop Electrode-Electrolyte [V]" 	"Overpotential_0 [V]" 	"Current Source [A/m^2]" 	"Li+ flux [kmol/m^2/s]" 	"Electrolyte Current [A/m^2]" 	"Electrode Current [A/m^2]" 	
"CV Capacity discharged [A-s/m^2]" 	"Depth of discharge in CV [A-s/m^2]" 	"CV Capacity remaining [A-s/m^2]" 	"Initial CV capacity [A-s/m^2]" 	"Porosity []" 	"Surface Area [m2/m2] (area per area)" 	"Specific current (per particle area) [A/m^2]" 	"Control volume thickness [m]" 	
"MoleDens LiCoO2 [kmol/m^3]" 	"MoleDens CoO2 [kmol/m^3]" 	"qHeat_accum [J/m3]" 	"qHeat_step [W/m3]" 	"Joule_Lyte [W/m3]" 	"Joule_Solid [W/m3]" 	"electrodHeat [W/m3]" 	"OverpotHeat [W/m3]" 	"deltaSHeat [W/m3]" 	

ZONE T = "CATH, 0.0000E+00", I = 10, SOLUTIONTIME = 0.000000E+00
ZONETYPE = ORDERED
DATAPACKING = BLOCK
STRANDID = 3
 1.2700000000000E-03  1.3377333333333E-03  1.4054666666667E-03  1.4732000000000E-03  1.5409333333333E-03  1.6086666666667E-03  1.6764000000000E-03  1.7441333333333E-03  1.8118666666667E-03  1.8796000000000E-03 
 0.0000000000000E+00  0.0000000000000E+00  0.0000000000000E+00  0.0000000000000E+00  0.0000000000000E+00  0.0000000000000E+00  0.0000000000000E+00  0.0000000000000E+00  0.0000000000000E+00  0.0000000000000E+00 
 9.2000000000000E-01  9.2000000000000E-01  9.2000000000000E-01  9.2000000000000E-01  9.2000000000000E-01  9.2000000000000E-01  9.2000000000000E-01  9.2000000000000E-01  9.2000000000000E-01  9.2000000000000E-01 
 4.0000000000000E-02  4.0000000000000E-02  4.0000000000000E-02  4.0000000000000E-02  4.0000000000000E-02  4.0000000000000E-02  4.0000000000000E-02  4.0000000000000E-02  4.0000000000000E-02  4.0000000000000E-02 
 4.0000000000000E-02  4.0000000000000E-02  4.0000000000000E-02  4.0000000000000E-02  4.0000000000000E-02  4.0000000000000E-02  4.0000000000000E-02  4.0000000000000E-02  4.0000000000000E-02  4.0000000000000E-02 
-7.0000000000000E-02 -7.0000000000000E-02 -7.0000000000000E-02 -7.0000000000000E-02 -7.0000000000000E-02 -7.0000000000000E-02 -7.0000000000000E-02 -7.0000000000000E-02 -7.0000000000000E-02 -7.0000000000000E-02 
 3.8000000000000E+00  3.8000000000000E+00  3.8000000000000E+00  3.8000000000000E+00  3.8000000000000E+00  3.8000000000000E+00  3.8000000000000E+00  3.8000000000000E+00  3.8000000000000E+00  3.8000000000000E+00 
 3.8700000000000E+00  3.8700000000000E+00  3.8700000000000E+00  3.8700000000000E+00  3.8700000000000E+00  3.8700000000000E+00  3.8700000000000E+00  3.8700000000000E+00  3.8700000000000E+00  3.8700000000000E+00 
 3.9714218047884E+00  3.9714218047884E+00  3.9714218047884E+00  3.9714218047884E+00  3.9714218047884E+00  3.9714218047884E+00  3.9714218047884E+00  3.9714218047884E+00  3.9714218047884E+00  3.9714218047884E+00 
-1.0142180478844E-01 -1.0142180478844E-01 -1.0142180478844E-01 -1.0142180478844E-01 -1.0142180478844E-01 -1.0142180478844E-01 -1.0142180478844E-01 -1.0142180478844E-01 -1.0142180478844E-01 -1.0142180478844E-01 
-2.3829988127905E-01 -4.7659976255810E-01 -4.7659976255810E-01 -4.7659976255810E-01 -4.7659976255810E-01 -4.7659976255810E-01 -4.7659976255810E-01 -4.7659976255810E-01 -4.7659976255810E-01 -2.3829988127905E-01 
-0.0000000000000E+00 -0.0000000000000E+00 -0.0000000000000E+00 -0.0000000000000E+00 -0.0000000000000E+00 -0.0000000000000E+00 -0.0000000000000E+00 -0.0000000000000E+00 -0.0000000000000E+00 -0.0000000000000E+00 
 2.3829988127905E-01  0.0000000000000E+00  0.0000000000000E+00  0.0000000000000E+00  0.0000000000000E+00  0.0000000000000E+00  0.0000000000000E+00  0.0000000000000E+00  0.0000000000000E+00  0.0000000000000E+00 
 0.0000000000000E+00 -0.0000000000000E+00 -0.0000000000000E+00 -0.0000000000000E+00 -0.0000000000000E+00 -0.0000000000000E+00 -0.0000000000000E+00 -0.0000000000000E+00 -0.0000000000000E+00  2.3829988127905E-01 
-0.0000000000000E+00 -0.0000000000000E+00 -0.0000000000000E+00 -0.0000000000000E+00 -0.0000000000000E+00 -0.0000000000000E+00 -0.0000000000000E+00 -0.0000000000000E+00 -0.0000000000000E+00 -0.0000000000000E+00 
 7.2440786946225E+03  1.4488157389245E+04  1.4488157389245E+04  1.4488157389245E+04  1.4488157389245E+04  1.4488157389245E+04  1.4488157389245E+04  1.4488157389245E+04  1.4488157389245E+04  7.2440786946225E+03 
 4.9259735123433E+04  9.8519470246865E+04  9.8519470246866E+04  9.8519470246865E+04  9.8519470246866E+04  9.8519470246866E+04  9.8519470246865E+04  9.8519470246866E+04  9.8519470246865E+04  4.9259735123433E+04 
 5.6503813818055E+04  1.1300762763611E+05  1.1300762763611E+05  1.1300762763611E+05  1.1300762763611E+05  1.1300762763611E+05  1.1300762763611E+05  1.1300762763611E+05  1.1300762763611E+05  5.6503813818055E+04 
 3.5000000000000E-01  3.5000000000000E-01  3.5000000000000E-01  3.5000000000000E-01  3.5000000000000E-01  3.5000000000000E-01  3.5000000000000E-01  3.5000000000000E-01  3.5000000000000E-01  3.5000000000000E-01 
 6.6040000000000E+00  1.3208000000000E+01  1.3208000000000E+01  1.3208000000000E+01  1.3208000000000E+01  1.3208000000000E+01  1.3208000000000E+01  1.3208000000000E+01  1.3208000000000E+01  6.6040000000000E+00 
-3.6084173422024E-02 -3.6084173422024E-02 -3.6084173422024E-02 -3.6084173422024E-02 -3.6084173422024E-02 -3.6084173422024E-02 -3.6084173422024E-02 -3.6084173422024E-02 -3.6084173422024E-02 -3.6084173422024E-02 
 3.3866666666667E-05  6.7733333333333E-05  6.7733333333334E-05  6.7733333333333E-05  6.7733333333334E-05  6.7733333333334E-05  6.7733333333333E-05  6.7733333333334E-05  6.7733333333333E-05  3.3866666666667E-05 
 2.6603001364256E+01  2.6603001364256E+01  2.6603001364256E+01  2.6603001364256E+01  2.6603001364256E+01  2.6603001364256E+01  2.6603001364256E+01  2.6603001364256E+01  2.6603001364256E+01  2.6603001364256E+01 
 1.7735334242838E+01  1.7735334242838E+01  1.7735334242838E+01  1.7735334242838E+01  1.7735334242838E+01  1.7735334242838E+01  1.7735334242838E+01  1.7735334242838E+01  1.7735334242838E+01  1.7735334242838E+01 
 0.0000000000000E+00  0.0000000000000E+00  0.0000000000000E+00  0.0000000000000E+00  0.0000000000000E+00  0.0000000000000E+00  0.0000000000000E+00  0.0000000000000E+00  0.0000000000000E+00  0.0000000000000E+00 
 0.0000000000000E+00  0.0000000000000E+00  0.0000000000000E+00  0.0000000000000E+00  0.0000000000000E+00  0.0000000000000E+00  0.0000000000000E+00  0.0000000000000E+00  0.0000000000000E+00  0.0000000000000E+00 
 0.0000000000000E+00  0.0000000000000E+00  0.0000000000000E+00  0.0000000000000E+00  0.0000000000000E+00  0.0000000000000E+00  0.0000000000000E+00  0.0000000000000E+00  0.0000000000000E+00  0.0000000000000E+00 
 0.0000000000000E+00  0.0000000000000E+00  0.0000000000000E+00  0.0000000000000E+00  0.0000000000000E+00  0.0000000000000E+00  0.0000000000000E+00  0.0000000000000E+00  0.0000000000000E+00  0.0000000000000E+00 
 0.0000000000000E+00  0.0000000000000E+00  0.0000000000000E+00  0.0000000000000E+00  0.0000000000000E+00  0.0000000000000E+00  0.0000000000000E+00  0.0000000000000E+00  0.0000000000000E+00  0.0000000000000E+00 
 0.0000000000000E+00  0.0000000000000E+00  0.0000000000000E+00  0.0000000000000E+00  0.0000000000000E+00  0.0000000000000E+00  0.0000000000000E+00  0.0000000000000E+00  0.0000000000000E+00  0.0000000000000E+00 
 0.0000000000000E+00  0.0000000000000E+00  0.0000000000000E+00  0.0000000000000E+00  0.0000000000000E+00  0.0000000000000E+00  0.0000000000000E+00  0.0000000000000E+00  0.0000000000000E+00  0.0000000000000E+00 
ZONE T = "CATH, 1.0000E-08", I = 10, SOLUTIONTIME = 1.000000E-08
ZONETYPE = ORDERED
DATAPACKING = BLOCK
STRANDID = 3
 1.2700000000000E-03  1.3377333333333E-03  1.4054666666667E-03  1.4732000000000E-03  1.5409333333333E-03  1.6086666666667E-03  1.6764000000000E-03  1.7441333333333E-03  1.8118666666667E-03  1.8796000000000E-03 
 9.8003664442187E-09  8.6476838307907E-09  7.4949308770433E-09  6.3420590415970E-09  5.1890197626150E-09  4.0357644500854E-09  2.8822444790432E-09  1.7284111788796E-09  5.7421582761320E-10 -3.2688695701503E-12 
 9.2000000000016E-01  9.2000000000045E-01  9.2000000000045E-01  9.2000000000045E-01  9.2000000000045E-01  9.2000000000045E-01  9.2000000000045E-01  9.2000000000045E-01  9.2000000000045E-01  9.2000000000045E-01 
 3.9999999999921E-02  3.9999999999776E-02  3.9999999999776E-02  3.9999999999776E-02  3.9999999999776E-02  3.9999999999776E-02  3.9999999999776E-02  3.9999999999776E-02  3.9999999999776E-02  3.9999999999776E-02 
 3.9999999999921E-02  3.9999999999776E-02  3.9999999999776E-02  3.9999999999776E-02  3.9999999999776E-02  3.9999999999776E-02  3.9999999999776E-02  3.9999999999776E-02  3.9999999999776E-02  3.9999999999776E-02 
 3.5020344909792E-02  3.5020241951748E-02  3.5020151099439E-02  3.5020072353521E-02  3.5020005715372E-02  3.5019951186696E-02  3.5019908769844E-02  3.5019878467372E-02  3.5019860282785E-02  3.5019854219768E-02 
 3.8418321844473E+00  3.8418311120552E+00  3.8418278948385E+00  3.8418225326662E+00  3.8418150253169E+00  3.8418053724790E+00  3.8417935737505E+00  3.8417796286387E+00  3.8417635365604E+00  3.8417452968418E+00 
 3.8068118395376E+00  3.8068108701035E+00  3.8068077437391E+00  3.8068024603127E+00  3.8067950196015E+00  3.8067854212923E+00  3.8067736649807E+00  3.8067597501713E+00  3.8067436762776E+00  3.8067254426220E+00 
 3.9714218047883E+00  3.9714218047883E+00  3.9714218047883E+00  3.9714218047883E+00  3.9714218047883E+00  3.9714218047883E+00  3.9714218047883E+00  3.9714218047883E+00  3.9714218047883E+00  3.9714218047883E+00 
-1.6460996525079E-01 -1.6461093468477E-01 -1.6461406104918E-01 -1.6461934447560E-01 -1.6462678518674E-01 -1.6463638349592E-01 -1.6464813980760E-01 -1.6466205461694E-01 -1.6467812851068E-01 -1.6469636216626E-01 
-8.2970200883985E-01 -1.6594354278381E+00 -1.6595367276630E+00 -1.6597079341367E+00 -1.6599490759692E+00 -1.6602601935948E+00 -1.6606413392003E+00 -1.6610925767290E+00 -1.6616139819279E+00 -8.3110282117210E-01 
 7.3137115010805E-08  6.4537645245194E-08  5.5937777141727E-08  4.7336928446774E-08  3.8734869739066E-08  3.0131141532412E-08  2.1525597274664E-08  1.2917563524085E-08  4.3069109835066E-09  4.3069109835066E-09 
 1.4943007576183E+01  1.3283589199181E+01  1.1624111662706E+01  9.9644947140256E+00  8.3046664041585E+00  6.6445602638315E+00  4.9841178193171E+00  3.3232599526676E+00  1.6619092119115E+00  0.0000000000000E+00 
 0.0000000000000E+00  1.6594160313468E+00  3.3188983643271E+00  4.9785169991258E+00  6.6383418034748E+00  8.2984427112465E+00  9.9588897334489E+00  1.1619752938469E+01  1.3281102402941E+01  1.4943010277762E+01 
 8.2970200883985E-09  1.6594354278381E-08  1.6595367276630E-08  1.6597079341367E-08  1.6599490759692E-08  1.6602601935948E-08  1.6606413392003E-08  1.6610925767290E-08  1.6616139819279E-08  8.3110282117210E-09 
 7.2440786946308E+03  1.4488157389261E+04  1.4488157389262E+04  1.4488157389261E+04  1.4488157389262E+04  1.4488157389262E+04  1.4488157389261E+04  1.4488157389262E+04  1.4488157389262E+04  7.2440786946308E+03 
 4.9259735123425E+04  9.8519470246849E+04  9.8519470246849E+04  9.8519470246849E+04  9.8519470246849E+04  9.8519470246849E+04  9.8519470246849E+04  9.8519470246849E+04  9.8519470246848E+04  4.9259735123425E+04 
 5.6503813818055E+04  1.1300762763611E+05  1.1300762763611E+05  1.1300762763611E+05  1.1300762763611E+05  1.1300762763611E+05  1.1300762763611E+05  1.1300762763611E+05  1.1300762763611E+05  5.6503813818055E+04 
 3.5000000000000E-01  3.5000000000000E-01  3.5000000000000E-01  3.5000000000000E-01  3.5000000000000E-01  3.5000000000000E-01  3.5000000000000E-01  3.5000000000000E-01  3.5000000000000E-01  3.5000000000000E-01 
 6.6040000000000E+00  1.3208000000000E+01  1.3208000000000E+01  1.3208000000000E+01  1.3208000000000E+01  1.3208000000000E+01  1.3208000000000E+01  1.3208000000000E+01  1.3208000000000E+01  6.6040000000000E+00 
-1.2563628238035E-01 -1.2563866049652E-01 -1.2564633007745E-01 -1.2565929240890E-01 -1.2567754966453E-01 -1.2570110490572E-01 -1.2572996208361E-01 -1.2576412603945E-01 -1.2580360250817E-01 -1.2584839811813E-01 
 3.3866666666667E-05  6.7733333333333E-05  6.7733333333334E-05  6.7733333333333E-05  6.7733333333334E-05  6.7733333333334E-05  6.7733333333333E-05  6.7733333333334E-05  6.7733333333333E-05  3.3866666666667E-05 
 2.6603001364259E+01  2.6603001364259E+01  2.6603001364259E+01  2.6603001364259E+01  2.6603001364259E+01  2.6603001364259E+01  2.6603001364259E+01  2.6603001364259E+01  2.6603001364259E+01  2.6603001364259E+01 
 1.7735334242835E+01  1.7735334242835E+01  1.7735334242835E+01  1.7735334242835E+01  1.7735334242835E+01  1.7735334242835E+01  1.7735334242835E+01  1.7735334242835E+01  1.7735334242835E+01  1.7735334242835E+01 
 3.4589207165919E-10  8.4761678152845E-10  2.3795821945269E-09  4.9687528268197E-09  8.6155648481637E-09  1.3320632922538E-08  1.9084750249599E-08  2.5908888706574E-08  3.3794198982588E-08  3.8002302146493E-08 
 3.4589207165919E-02  8.4761678152845E-02  2.3795821945269E-01  4.9687528268197E-01  8.6155648481637E-01  1.3320632922538E+00  1.9084750249599E+00  2.5908888706574E+00  3.3794198982588E+00  3.8002302146493E+00 
 2.1452928172797E-02  1.9078799903359E-02  1.4627023658938E-02  1.0768158034356E-02  7.5022188926305E-03  4.8293417764411E-03  2.7497565668715E-03  1.2637765805466E-03  3.7181056833831E-04  7.4394956948028E-05 
 1.3136278993122E-02  6.5682878249485E-02  2.2333119579375E-01  4.8610712464761E-01  8.5405426592373E-01  1.3272339504774E+00  1.9057252683930E+00  2.5896250940768E+00  3.3790480876905E+00  3.8001558196924E+00 
 0.0000000000000E+00  0.0000000000000E+00  0.0000000000000E+00  0.0000000000000E+00  0.0000000000000E+00  0.0000000000000E+00  0.0000000000000E+00  0.0000000000000E+00  0.0000000000000E+00  0.0000000000000E+00 
 0.0000000000000E+00  0.0000000000000E+00  0.0000000000000E+00  0.0000000000000E+00  0.0000000000000E+00  0.0000000000000E+00  0.0000000000000E+00  0.0000000000000E+00  0.0000000000000E+00  0.0000000000000E+00 
 0.0000000000000E+00  0.0000000000000E+00  0.0000000000000E+00  0.0000000000000E+00  0.0000000000000E+00  0.0000000000000E+00  0.0000000000000E+00  0.0000000000000E+00  0.0000000000000E+00  0.0000000000000E+00 
ZONE T = "CATH, 2.0000E-08", I = 10, SOLUTIONTIME = 2.000000E-08
ZONETYPE = ORDERED
DATAPACKING = BLOCK
STRANDID = 3
 1.2700000000000E-03  1.3377333333333E-03  1.4054666666667E-03  1.4732000000000E-03  1.5409333333333E-03  1.6086666666667E-03  1.6764000000000E-03  1.7441333333333E-03  1.8118666666667E-03  1.8796000000000E-03 
 9.8015471065183E-09  8.6484906132664E-09  7.4953637756618E-09  6.3421180493149E-09  5.1890680776309E-09  4.0358020604785E-09  2.8819081614879E-09  1.7277009153357E-09  5.7422121955835E-10 -3.0872656862914E-12 
 9.2000000000032E-01  9.2000000000089E-01  9.2000000000089E-01  9.2000000000089E-01  9.2000000000089E-01  9.2000000000089E-01  9.2000000000089E-01  9.2000000000090E-01  9.2000000000090E-01  9.2000000000090E-01 
 3.9999999999842E-02  3.9999999999553E-02  3.9999999999553E-02  3.9999999999553E-02  3.9999999999553E-02  3.9999999999553E-02  3.9999999999552E-02  3.9999999999552E-02  3.9999999999552E-02  3.9999999999552E-02 
 3.9999999999842E-02  3.9999999999553E-02  3.9999999999553E-02  3.9999999999553E-02  3.9999999999553E-02  3.9999999999553E-02  3.9999999999552E-02  3.9999999999552E-02  3.9999999999552E-02  3.9999999999552E-02 
 3.5021093471170E-02  3.5020990512150E-02  3.5020899658971E-02  3.5020820912371E-02  3.5020754273600E-02  3.5020699744416E-02  3.5020657327090E-02  3.5020627024401E-02  3.5020608839643E-02  3.5020602776618E-02 
 3.8418325729744E+00  3.8418315005724E+00  3.8418282833258E+00  3.8418229211038E+00  3.8418154136850E+00  3.8418057607577E+00  3.8417939619198E+00  3.8417800166786E+00  3.8417639244510E+00  3.8417456845630E+00 
 3.8068114795032E+00  3.8068105100602E+00  3.8068073836669E+00  3.8068021001914E+00  3.8067946594114E+00  3.8067850610133E+00  3.8067733045927E+00  3.8067593896542E+00  3.8067433156114E+00  3.8067250817864E+00 
 3.9714218047883E+00  3.9714218047881E+00  3.9714218047881E+00  3.9714218047881E+00  3.9714218047881E+00  3.9714218047881E+00  3.9714218047881E+00  3.9714218047881E+00  3.9714218047881E+00  3.9714218047881E+00 
-1.6461032528505E-01 -1.6461129472783E-01 -1.6461442112119E-01 -1.6461970459664E-01 -1.6462714537670E-01 -1.6463674377482E-01 -1.6464850019539E-01 -1.6466241513384E-01 -1.6467848917669E-01 -1.6469672300168E-01 
-8.2970784145120E-01 -1.6594470935621E+00 -1.6595483950328E+00 -1.6597196042910E+00 -1.6599607500420E+00 -1.6602718727242E+00 -1.6606530245241E+00 -1.6611042693944E+00 -1.6616256830772E+00 -8.3110867656544E-01 
 7.3137874360901E-08  6.4538264234832E-08  5.5938261090958E-08  4.7337370719406E-08  3.8735230701366E-08  3.0131478397288E-08  2.1525750920130E-08  1.2917685020000E-08  4.3069171029778E-09  4.3069171029778E-09 
 1.4943147209998E+01  1.3283715822364E+01  1.1624218078252E+01  9.9645840784099E+00  8.3047439012642E+00  6.6446275900723E+00  4.9841651414850E+00  3.3232864941312E+00  1.6619215181556E+00  0.0000000000000E+00 
 0.0000000000000E+00  1.6594313881779E+00  3.3189291326198E+00  4.9785631323239E+00  6.6384033093089E+00  8.2985196206397E+00  9.9589820694215E+00  1.1619860716311E+01  1.3281225692571E+01  1.4943147210893E+01 
 1.6594098502910E-08  3.3188825214001E-08  3.3190851226958E-08  3.3194275384277E-08  3.3199098260111E-08  3.3205320663190E-08  3.3212943637244E-08  3.3221968461235E-08  3.3232396650051E-08  1.6622114977375E-08 
 7.2440786946391E+03  1.4488157389278E+04  1.4488157389278E+04  1.4488157389278E+04  1.4488157389278E+04  1.4488157389278E+04  1.4488157389278E+04  1.4488157389278E+04  1.4488157389278E+04  7.2440786946391E+03 
 4.9259735123416E+04  9.8519470246832E+04  9.8519470246833E+04  9.8519470246832E+04  9.8519470246833E+04  9.8519470246833E+04  9.8519470246832E+04  9.8519470246833E+04  9.8519470246832E+04  4.9259735123416E+04 
 5.6503813818055E+04  1.1300762763611E+05  1.1300762763611E+05  1.1300762763611E+05  1.1300762763611E+05  1.1300762763611E+05  1.1300762763611E+05  1.1300762763611E+05  1.1300762763611E+05  5.6503813818055E+04 
 3.5000000000000E-01  3.5000000000000E-01  3.5000000000000E-01  3.5000000000000E-01  3.5000000000000E-01  3.5000000000000E-01  3.5000000000000E-01  3.5000000000000E-01  3.5000000000000E-01  3.5000000000000E-01 
 6.6040000000000E+00  1.3208000000000E+01  1.3208000000000E+01  1.3208000000000E+01  1.3208000000000E+01  1.3208000000000E+01  1.3208000000000E+01  1.3208000000000E+01  1.3208000000000E+01  6.6040000000000E+00 
-1.2563716557408E-01 -1.2563954372820E-01 -1.2564721343374E-01 -1.2566017597600E-01 -1.2567843352831E-01 -1.2570198915234E-01 -1.2573084679922E-01 -1.2576501131090E-01 -1.2580448842196E-01 -1.2584928476157E-01 
 3.3866666666667E-05  6.7733333333333E-05  6.7733333333334E-05  6.7733333333333E-05  6.7733333333334E-05  6.7733333333334E-05  6.7733333333333E-05  6.7733333333334E-05  6.7733333333333E-05  3.3866666666667E-05 
 2.6603001364262E+01  2.6603001364262E+01  2.6603001364262E+01  2.6603001364262E+01  2.6603001364262E+01  2.6603001364262E+01  2.6603001364262E+01  2.6603001364262E+01  2.6603001364262E+01  2.6603001364262E+01 
 1.7735334242833E+01  1.7735334242833E+01  1.7735334242833E+01  1.7735334242833E+01  1.7735334242833E+01  1.7735334242833E+01  1.7735334242833E+01  1.7735334242833E+01  1.7735334242833E+01  1.7735334242833E+01 
 6.9179062797639E-10  1.6952493706009E-09  4.7592084839423E-09  9.9375976652725E-09  1.7231289359459E-08  2.6641512832954E-08  3.8169854433535E-08  5.1818258013385E-08  6.7589025416018E-08  7.6005310249457E-08 
 3.4589855631720E-02  8.4763258907249E-02  2.3796262894154E-01  4.9688448384528E-01  8.6157245112955E-01  1.3320879910415E+00  1.9085104183936E+00  2.5909369306812E+00  3.3794826433429E+00  3.8003008102964E+00 
 2.1453334943811E-02  1.9079163504276E-02  1.4627292444158E-02  1.0768350567507E-02  7.5023589290425E-03  4.8294385555921E-03  2.7498105347620E-03  1.2637961353209E-03  3.7181696628191E-04  7.4395166908490E-05 
 1.3136520687908E-02  6.5684095402974E-02  2.2333533649738E-01  4.8611613327777E-01  8.5407009220050E-01  1.3272585524859E+00  1.9057606078588E+00  2.5896731345459E+00  3.3791108263767E+00  3.8002264151295E+00 
 0.0000000000000E+00  0.0000000000000E+00  0.0000000000000E+00  0.0000000000000E+00  0.0000000000000E+00  0.0000000000000E+00  0.0000000000000E+00  0.0000000000000E+00  0.0000000000000E+00  0.0000000000000E+00 
 0.0000000000000E+00  0.0000000000000E+00  0.0000000000000E+00  0.0000000000000E+00  0.0000000000000E+00  0.0000000000000E+00  0.0000000000000E+00  0.0000000000000E+00  0.0000000000000E+00  0.0000000000000E+00 
 0.0000000000000E+00  0.0000000000000E+00  0.0000000000000E+00  0.0000000000000E+00  0.0000000000000E+00  0.0000000000000E+00  0.0000000000000E+00  0.0000000000000E+00  0.0000000000000E+00  0.0000000000000E+00 
ZONE T = "CATH, 3.0000E-08", I = 10, SOLUTIONTIME = 3.000000E-08
ZONETYPE = ORDERED
DATAPACKING = BLOCK
STRANDID = 3
 1.2700000000000E-03  1.3377333333333E-03  1.4054666666667E-03  1.4732000000000E-03  1.5409333333333E-03  1.6086666666667E-03  1.6764000000000E-03  1.7441333333333E-03  1.8118666666667E-03  1.8796000000000E-03 
 9.7937381403145E-09  8.6417712702526E-09  7.4897340558380E-09  6.3375779526811E-09  5.1852543964593E-09  4.0327147947691E-09  2.8802737266962E-09  1.7271561037340E-09  5.7367640796341E-10 -3.2688695501109E-12 
 9.2000000000047E-01  9.2000000000134E-01  9.2000000000134E-01  9.2000000000134E-01  9.2000000000134E-01  9.2000000000134E-01  9.2000000000134E-01  9.2000000000134E-01  9.2000000000134E-01  9.2000000000134E-01 
 3.9999999999763E-02  3.9999999999329E-02  3.9999999999329E-02  3.9999999999329E-02  3.9999999999329E-02  3.9999999999329E-02  3.9999999999329E-02  3.9999999999329E-02  3.9999999999328E-02  3.9999999999328E-02 
 3.9999999999763E-02  3.9999999999329E-02  3.9999999999329E-02  3.9999999999329E-02  3.9999999999329E-02  3.9999999999329E-02  3.9999999999329E-02  3.9999999999329E-02  3.9999999999328E-02  3.9999999999328E-02 
 3.5021093470976E-02  3.5020990511956E-02  3.5020899658777E-02  3.5020820912177E-02  3.5020754273405E-02  3.5020699744222E-02  3.5020657326895E-02  3.5020627024207E-02  3.5020608839448E-02  3.5020602776423E-02 
 3.8418325729741E+00  3.8418315005722E+00  3.8418282833256E+00  3.8418229211036E+00  3.8418154136847E+00  3.8418057607574E+00  3.8417939619195E+00  3.8417800166784E+00  3.8417639244508E+00  3.8417456845628E+00 
 3.8068114795032E+00  3.8068105100602E+00  3.8068073836668E+00  3.8068021001914E+00  3.8067946594113E+00  3.8067850610132E+00  3.8067733045926E+00  3.8067593896542E+00  3.8067433156113E+00  3.8067250817864E+00 
 3.9714218047882E+00  3.9714218047879E+00  3.9714218047879E+00  3.9714218047879E+00  3.9714218047879E+00  3.9714218047879E+00  3.9714218047879E+00  3.9714218047879E+00  3.9714218047879E+00  3.9714218047879E+00 
-1.6461032528500E-01 -1.6461129472768E-01 -1.6461442112105E-01 -1.6461970459650E-01 -1.6462714537656E-01 -1.6463674377467E-01 -1.6464850019525E-01 -1.6466241513369E-01 -1.6467848917655E-01 -1.6469672300153E-01 
-8.2970784144940E-01 -1.6594470935525E+00 -1.6595483950233E+00 -1.6597196042814E+00 -1.6599607500323E+00 -1.6602718727146E+00 -1.6606530245145E+00 -1.6611042693849E+00 -1.6616256830676E+00 -8.3110867656063E-01 
 7.3137940337772E-08  6.4538264240307E-08  5.5938261101410E-08  4.7337370733705E-08  3.8735230720652E-08  3.0131478419535E-08  2.1525750948251E-08  1.2917685051082E-08  4.3069171419592E-09  4.3069171419592E-09 
 1.4943147210894E+01  1.3283715822302E+01  1.1624218077711E+01  9.9645840783542E+00  8.3047439012177E+00  6.6446275900352E+00  4.9841651414571E+00  3.3232864941126E+00  1.6619215181463E+00  0.0000000000000E+00 
 0.0000000000000E+00  1.6594313881779E+00  3.3189291326198E+00  4.9785631321521E+00  6.6384033093089E+00  8.2985196208115E+00  9.9589820692497E+00  1.1619860716139E+01  1.3281225692571E+01  1.4943147210888E+01 
 2.4891176917404E-08  4.9783296149526E-08  4.9786335177191E-08  4.9791471427092E-08  4.9798705760434E-08  4.9808039390335E-08  4.9819473882389E-08  4.9833011155083E-08  4.9848653480727E-08  2.4933201742982E-08 
 7.2440786946474E+03  1.4488157389295E+04  1.4488157389295E+04  1.4488157389295E+04  1.4488157389295E+04  1.4488157389295E+04  1.4488157389295E+04  1.4488157389295E+04  1.4488157389295E+04  7.2440786946474E+03 
 4.9259735123408E+04  9.8519470246815E+04  9.8519470246816E+04  9.8519470246815E+04  9.8519470246816E+04  9.8519470246816E+04  9.8519470246815E+04  9.8519470246816E+04  9.8519470246815E+04  4.9259735123408E+04 
 5.6503813818055E+04  1.1300762763611E+05  1.1300762763611E+05  1.1300762763611E+05  1.1300762763611E+05  1.1300762763611E+05  1.1300762763611E+05  1.1300762763611E+05  1.1300762763611E+05  5.6503813818055E+04 
 3.5000000000000E-01  3.5000000000000E-01  3.5000000000000E-01  3.5000000000000E-01  3.5000000000000E-01  3.5000000000000E-01  3.5000000000000E-01  3.5000000000000E-01  3.5000000000000E-01  3.5000000000000E-01 
 6.6040000000000E+00  1.3208000000000E+01  1.3208000000000E+01  1.3208000000000E+01  1.3208000000000E+01  1.3208000000000E+01  1.3208000000000E+01  1.3208000000000E+01  1.3208000000000E+01  6.6040000000000E+00 
-1.2563716557380E-01 -1.2563954372748E-01 -1.2564721343301E-01 -1.2566017597528E-01 -1.2567843352758E-01 -1.2570198915162E-01 -1.2573084679849E-01 -1.2576501131018E-01 -1.2580448842123E-01 -1.2584928476085E-01 
 3.3866666666667E-05  6.7733333333333E-05  6.7733333333334E-05  6.7733333333333E-05  6.7733333333334E-05  6.7733333333334E-05  6.7733333333333E-05  6.7733333333334E-05  6.7733333333333E-05  3.3866666666667E-05 
 2.6603001364264E+01  2.6603001364264E+01  2.6603001364264E+01  2.6603001364264E+01  2.6603001364264E+01  2.6603001364264E+01  2.6603001364264E+01  2.6603001364264E+01  2.6603001364264E+01  2.6603001364264E+01 
 1.7735334242830E+01  1.7735334242830E+01  1.7735334242830E+01  1.7735334242830E+01  1.7735334242830E+01  1.7735334242830E+01  1.7735334242830E+01  1.7735334242830E+01  1.7735334242830E+01  1.7735334242830E+01 
 1.0376891843217E-09  2.5428819596743E-09  7.1388347733441E-09  1.4906442503344E-08  2.5847013870863E-08  3.9962392743858E-08  5.7254958616763E-08  7.7727627319490E-08  1.0138385184945E-07  1.1400831835242E-07 
 3.4589855634530E-02  8.4763258907332E-02  2.3796262894018E-01  4.9688448380714E-01  8.6157245114039E-01  1.3320879910905E+00  1.9085104183228E+00  2.5909369306104E+00  3.3794826433429E+00  3.8003008102964E+00 
 2.1453334946622E-02  1.9079163504359E-02  1.4627292442801E-02  1.0768350567447E-02  7.5023589290005E-03  4.8294385555650E-03  2.7498105347466E-03  1.2637961353138E-03  3.7181696627983E-04  7.4395166908073E-05 
 1.3136520687908E-02  6.5684095402974E-02  2.2333533649738E-01  4.8611613323969E-01  8.5407009221139E-01  1.3272585525349E+00  1.9057606077881E+00  2.5896731344751E+00  3.3791108263767E+00  3.8002264151295E+00 
 0.0000000000000E+00  0.0000000000000E+00  0.0000000000000E+00  0.0000000000000E+00  0.0000000000000E+00  0.0000000000000E+00  0.0000000000000E+00  0.0000000000000E+00  0.0000000000000E+00  0.0000000000000E+00 
 0.0000000000000E+00  0.0000000000000E+00  0.0000000000000E+00  0.0000000000000E+00  0.0000000000000E+00  0.0000000000000E+00  0.0000000000000E+00  0.0000000000000E+00  0.0000000000000E+00  0.0000000000000E+00 
 0.0000000000000E+00  0.0000000000000E+00  0.0000000000000E+00  0.0000000000000E+00  0.0000000000000E+00  0.0000000000000E+00  0.0000000000000E+00  0.0000000000000E+00  0.0000000000000E+00  0.0000000000000E+00 
ZONE T = "CATH, 4.0000E-08", I = 10, SOLUTIONTIME = 4.000000E-08
ZONETYPE = ORDERED
DATAPACKING = BLOCK
STRANDID = 3
 1.2700000000000E-03  1.3377333333333E-03  1.4054666666667E-03  1.4732000000000E-03  1.5409333333333E-03  1.6086666666667E-03  1.6764000000000E-03  1.7441333333333E-03  1.8118666666667E-03  1.8796000000000E-03 
 9.8037263527725E-09  8.6510330672616E-09  7.4986326451258E-09  6.3461133342477E-09  5.1934265703047E-09  4.0394341377099E-09  2.8859034464604E-09  1.7324226157770E-09  5.7857971228520E-10  1.4528309110938E-12 
 9.2000000000063E-01  9.2000000000179E-01  9.2000000000179E-01  9.2000000000179E-01  9.2000000000179E-01  9.2000000000179E-01  9.2000000000179E-01  9.2000000000179E-01  9.2000000000179E-01  9.2000000000179E-01 
 3.9999999999684E-02  3.9999999999106E-02  3.9999999999106E-02  3.9999999999105E-02  3.9999999999105E-02  3.9999999999105E-02  3.9999999999105E-02  3.9999999999105E-02  3.9999999999104E-02  3.9999999999104E-02 
 3.9999999999684E-02  3.9999999999106E-02  3.9999999999106E-02  3.9999999999105E-02  3.9999999999105E-02  3.9999999999105E-02  3.9999999999105E-02  3.9999999999105E-02  3.9999999999104E-02  3.9999999999104E-02 
 3.5021093470787E-02  3.5020990511766E-02  3.5020899658587E-02  3.5020820911987E-02  3.5020754273216E-02  3.5020699744032E-02  3.5020657326706E-02  3.5020627024017E-02  3.5020608839259E-02  3.5020602776234E-02 
 3.8418325729739E+00  3.8418315005719E+00  3.8418282833254E+00  3.8418229211033E+00  3.8418154136845E+00  3.8418057607572E+00  3.8417939619193E+00  3.8417800166782E+00  3.8417639244506E+00  3.8417456845625E+00 
 3.8068114795031E+00  3.8068105100602E+00  3.8068073836668E+00  3.8068021001914E+00  3.8067946594113E+00  3.8067850610132E+00  3.8067733045926E+00  3.8067593896542E+00  3.8067433156113E+00  3.8067250817863E+00 
 3.9714218047881E+00  3.9714218047877E+00  3.9714218047877E+00  3.9714218047877E+00  3.9714218047877E+00  3.9714218047877E+00  3.9714218047877E+00  3.9714218047877E+00  3.9714218047877E+00  3.9714218047877E+00 
-1.6461032528495E-01 -1.6461129472754E-01 -1.6461442112091E-01 -1.6461970459636E-01 -1.6462714537642E-01 -1.6463674377453E-01 -1.6464850019511E-01 -1.6466241513355E-01 -1.6467848917640E-01 -1.6469672300139E-01 
-8.2970784144766E-01 -1.6594470935431E+00 -1.6595483950138E+00 -1.6597196042720E+00 -1.6599607500228E+00 -1.6602718727051E+00 -1.6606530245050E+00 -1.6611042693754E+00 -1.6616256830581E+00 -8.3110867655586E-01 