TITLE = "Solution on Domain BulkDomain1D_1"
VARIABLES = "x [m]"  
"Vel_axial(0)" 	"MF_sp(ECDMC)" 	"MF_sp(Li+)" 	"MF_sp(PF6-)" 	"Volt(Electroly)" 	
ZONE T = "t = 0 [s]" I = 10 SOLUTIONTIME = 0.0000000000000E+00
0.0007874 	0 	0.92 	0.04 	0.04 	-0.07 	
0.000841022 	0 	0.92 	0.04 	0.04 	-0.07 	
0.000894644 	0 	0.92 	0.04 	0.04 	-0.07 	
0.000948267 	0 	0.92 	0.04 	0.04 	-0.07 	
0.00100189 	0 	0.92 	0.04 	0.04 	-0.07 	
0.00105551 	0 	0.92 	0.04 	0.04 	-0.07 	
0.00110913 	0 	0.92 	0.04 	0.04 	-0.07 	
0.00116276 	0 	0.92 	0.04 	0.04 	-0.07 	
0.00121638 	0 	0.92 	0.04 	0.04 	-0.07 	
0.00127 	0 	0.92 	0.04 	0.04 	-0.07 	
ZONE T = "t = 1e-08 [s]" I = 10 SOLUTIONTIME = 1.0000000000000E-08
0.0007874 	2.08809e-08 	0.92 	0.04 	0.04 	0.029156 	
0.000841022 	2.08809e-08 	0.92 	0.04 	0.04 	0.0291559 	
0.000894644 	2.08809e-08 	0.92 	0.04 	0.04 	0.0291559 	
0.000948267 	2.08809e-08 	0.92 	0.04 	0.04 	0.0291558 	
0.00100189 	2.08809e-08 	0.92 	0.04 	0.04 	0.0291558 	
0.00105551 	2.08809e-08 	0.92 	0.04 	0.04 	0.0291557 	
0.00110913 	2.08809e-08 	0.92 	0.04 	0.04 	0.0291557 	
0.00116276 	2.08809e-08 	0.92 	0.04 	0.04 	0.0291556 	
0.00121638 	2.08809e-08 	0.92 	0.04 	0.04 	0.0291556 	
0.00127 	1.97215e-08 	0.92 	0.04 	0.04 	0.0291555 	
ZONE T = "t = 2e-08 [s]" I = 10 SOLUTIONTIME = 2.0000000000000E-08
0.0007874 	2.0881e-08 	0.92 	0.04 	0.04 	0.029156 	
0.000841022 	2.0881e-08 	0.92 	0.04 	0.04 	0.0291559 	
0.000894644 	2.0881e-08 	0.92 	0.04 	0.04 	0.0291559 	
0.000948267 	2.0881e-08 	0.92 	0.04 	0.04 	0.0291558 	
0.00100189 	2.0881e-08 	0.92 	0.04 	0.04 	0.0291558 	
0.00105551 	2.0881e-08 	0.92 	0.04 	0.04 	0.0291557 	
0.00110913 	2.0881e-08 	0.92 	0.04 	0.04 	0.0291557 	
0.00116276 	2.0881e-08 	0.92 	0.04 	0.04 	0.0291556 	
0.00121638 	2.0881e-08 	0.92 	0.04 	0.04 	0.0291556 	
0.00127 	1.97216e-08 	0.92 	0.04 	0.04 	0.0291555 	
ZONE T = "t = 3e-08 [s]" I = 10 SOLUTIONTIME = 3.0000000000000E-08
0.0007874 	2.0881e-08 	0.92 	0.04 	0.04 	0.029156 	
0.000841022 	2.0881e-08 	0.92 	0.04 	0.04 	0.0291559 	
0.000894644 	2.0881e-08 	0.92 	0.04 	0.04 	0.0291559 	
0.000948267 	2.0881e-08 	0.92 	0.04 	0.04 	0.0291558 	
0.00100189 	2.0881e-08 	0.92 	0.04 	0.04 	0.0291558 	
0.00105551 	2.0881e-08 	0.92 	0.04 	0.04 	0.0291557 	
0.00110913 	2.0881e-08 	0.92 	0.04 	0.04 	0.0291557 	
0.00116276 	2.0881e-08 	0.92 	0.04 	0.04 	0.0291556 	
0.00121638 	2.0881e-08 	0.92 	0.04 	0.04 	0.0291556 	
0.00127 	1.97216e-08 	0.92 	0.04 	0.04 	0.0291555 	
ZONE T = "t = 4e-08 [s]" I = 10 SOLUTIONTIME = 4.0000000000000E-08
0.0007874 	2.0881e-08 	0.92 	0.04 	0.04 	0.029156 	
0.000841022 	2.0881e-08 	0.92 	0.04 	0.04 	0.0291559 	
0.000894644 	2.0881e-08 	0.92 	0.04 	0.04 	0.0291559 	
0.000948267 	2.0881e-08 	0.92 	0.04 	0.04 	0.0291558 	
0.00100189 	2.0881e-08 	0.92 	0.04 	0.04 	0.0291558 	
0.00105551 	2.0881e-08 	0.92 	0.04 	0.04 	0.0291557 	
0.00110913 	2.0881e-08 	0.92 	0.04 	0.04 	0.0291557 	
0.00116276 	2.0881e-08 	0.92 	0.04 	0.04 	0.0291556 	
0.00121638 	2.0881e-08 	0.92 	0.04 	0.04 	0.0291556 	
0.00127 	1.97216e-08 	0.92 	0.04 	0.04 	0.0291555 	
ZONE T = "t = 5.5e-08 [s]" I = 10 SOLUTIONTIME = 5.5000000000000E-08
0.0007874 	2.0881e-08 	0.92 	0.04 	0.04 	0.029156 	
0.000841022 	2.0881e-08 	0.92 	0.04 	0.04 	0.0291559 	
0.000894644 	2.0881e-08 	0.92 	0.04 	0.04 	0.0291559 	
0.000948267 	2.0881e-08 	0.92 	0.04 	0.04 	0.0291558 	
0.00100189 	2.0881e-08 	0.92 	0.04 	0.04 	0.0291558 	
0.00105551 	2.0881e-08 	0.92 	0.04 	0.04 	0.0291557 	
0.00110913 	2.0881e-08 	0.92 	0.04 	0.04 	0.0291557 	
0.00116276 	2.0881e-08 	0.92 	0.04 	0.04 	0.0291556 	
0.00121638 	2.0881e-08 	0.92 	0.04 	0.04 	0.0291556 	
0.00127 	1.97216e-08 	0.92 	0.04 	0.04 	0.0291555 	
ZONE T = "t = 7.75e-08 [s]" I = 10 SOLUTIONTIME = 7.7500000000000E-08
0.0007874 	2.0881e-08 	0.92 	0.04 	0.04 	0.029156 	
0.000841022 	2.0881e-08 	0.92 	0.04 	0.04 	0.0291559 	
0.000894644 	2.0881e-08 	0.92 	0.04 	0.04 	0.0291559 	
0.000948267 	2.0881e-08 	0.92 	0.04 	0.04 	0.0291558 	
0.00100189 	2.0881e-08 	0.92 	0.04 	0.04 	0.0291558 	
0.00105551 	2.0881e-08 	0.92 	0.04 	0.04 	0.0291557 	
0.00110913 	2.0881e-08 	0.92 	0.04 	0.04 	0.0291557 	
0.00116276 	2.0881e-08 	0.92 	0.04 	0.04 	0.0291556 	
0.00121638 	2.0881e-08 	0.92 	0.04 	0.04 	0.0291556 	
0.00127 	1.97216e-08 	0.92 	0.04 	0.04 	0.0291555 	
ZONE T = "t = 1.1125e-07 [s]" I = 10 SOLUTIONTIME = 1.1125000000000E-07
0.0007874 	2.0881e-08 	0.92 	0.04 	0.04 	0.029156 	
0.000841022 	2.0881e-08 	0.92 	0.04 	0.04 	0.0291559 	
0.000894644 	2.0881e-08 	0.92 	0.04 	0.04 	0.0291559 	
0.000948267 	2.0881e-08 	0.92 	0.04 	0.04 	0.0291558 	
0.00100189 	2.0881e-08 	0.92 	0.04 	0.04 	0.0291558 	
0.00105551 	2.0881e-08 	0.92 	0.04 	0.04 	0.0291557 	
0.00110913 	2.0881e-08 	0.92 	0.04 	0.04 	0.0291557 	
0.00116276 	2.0881e-08 	0.92 	0.04 	0.04 	0.0291556 	
0.00121638 	2.0881e-08 	0.92 	0.04 	0.04 	0.0291556 	
0.00127 	1.97216e-08 	0.92 	0.04 	0.04 	0.0291555 	
ZONE T = "t = 1.61875e-07 [s]" I = 10 SOLUTIONTIME = 1.6187500000000E-07
0.0007874 	2.0881e-08 	0.92 	0.04 	0.04 	0.029156 	
0.000841022 	2.0881e-08 	0.92 	0.04 	0.04 	0.0291559 	
0.000894644 	2.0881e-08 	0.92 	0.04 	0.04 	0.0291559 	
0.000948267 	2.0881e-08 	0.92 	0.04 	0.04 	0.0291558 	
0.00100189 	2.0881e-08 	0.92 	0.04 	0.04 	0.0291558 	
0.00105551 	2.0881e-08 	0.92 	0.04 	0.04 	0.0291557 	
0.00110913 	2.0881e-08 	0.92 	0.04 	0.04 	0.0291557 	
0.00116276 	2.0881e-08 	0.92 	0.04 	0.04 	0.0291556 	
0.00121638 	2.0881e-08 	0.92 	0.04 	0.04 	0.0291556 	
0.00127 	1.97216e-08 	0.92 	0.04 	0.04 	0.0291555 	
ZONE T = "t = 2.37813e-07 [s]" I = 10 SOLUTIONTIME = 2.3781250000000E-07
0.0007874 	2.0881e-08 	0.92 	0.04 	0.04 	0.029156 	
0.000841022 	2.0881e-08 	0.92 	0.04 	0.04 	0.0291559 	
0.000894644 	2.0881e-08 	0.92 	0.04 	0.04 	0.0291559 	
0.000948267 	2.0881e-08 	0.92 	0.04 	0.04 	0.0291558 	
0.00100189 	2.0881e-08 	0.92 	0.04 	0.04 	0.0291558 	
0.00105551 	2.0881e-08 	0.92 	0.04 	0.04 	0.0291557 	
0.00110913 	2.0881e-08 	0.92 	0.04 	0.04 	0.0291557 	
0.00116276 	2.0881e-08 	0.92 	0.04 	0.04 	0.0291556 	
0.00121638 	2.0881e-08 	0.92 	0.04 	0.04 	0.0291556 	
0.00127 	1.97216e-08 	0.92 	0.04 	0.04 	0.0291555 	
ZONE T = "t = 3.51719e-07 [s]" I = 10 SOLUTIONTIME = 3.5171875000000E-07
0.0007874 	2.0881e-08 	0.92 	0.04 	0.04 	0.029156 	
0.000841022 	2.0881e-08 	0.92 	0.04 	0.04 	0.0291559 	
0.000894644 	2.0881e-08 	0.92 	0.04 	0.04 	0.0291559 	
0.000948267 	2.0881e-08 	0.92 	0.04 	0.04 	0.0291558 	
0.00100189 	2.0881e-08 	0.92 	0.04 	0.04 	0.0291558 	
0.00105551 	2.0881e-08 	0.92 	0.04 	0.04 	0.0291557 	
0.00110913 	2.0881e-08 	0.92 	0.04 	0.04 	0.0291557 	
0.00116276 	2.0881e-08 	0.92 	0.04 	0.04 	0.0291556 	
0.00121638 	2.0881e-08 	0.92 	0.04 	0.04 	0.0291556 	
0.00127 	1.97216e-08 	0.92 	0.04 	0.04 	0.0291555 	
ZONE T = "t = 5.22578e-07 [s]" I = 10 SOLUTIONTIME = 5.2257812500000E-07
0.0007874 	2.0881e-08 	0.92 	0.04 	0.04 	0.029156 	
0.000841022 	2.0881e-08 	0.92 	0.04 	0.04 	0.0291559 	
0.000894644 	2.0881e-08 	0.92 	0.04 	0.04 	0.0291559 	
0.000948267 	2.0881e-08 	0.92 	0.04 	0.04 	0.0291558 	
0.00100189 	2.0881e-08 	0.92 	0.04 	0.04 	0.0291558 	
0.00105551 	2.0881e-08 	0.92 	0.04 	0.04 	0.0291557 	
0.00110913 	2.0881e-08 	0.92 	0.04 	0.04 	0.0291557 	
0.00116276 	2.0881e-08 	0.92 	0.04 	0.04 	0.0291556 	
0.00121638 	2.0881e-08 	0.92 	0.04 	0.04 	0.0291556 	
0.00127 	1.97216e-08 	0.92 	0.04 	0.04 	0.0291555 	
ZONE T = "t = 7.78867e-07 [s]" I = 10 SOLUTIONTIME = 7.7886718750000E-07
0.0007874 	2.0881e-08 	0.92 	0.04 	0.04 	0.029156 	
0.000841022 	2.0881e-08 	0.92 	0.04 	0.04 	0.0291559 	
0.000894644 	2.0881e-08 	0.92 	0.04 	0.04 	0.0291559 	
0.000948267 	2.0881e-08 	0.92 	0.04 	0.04 	0.0291558 	
0.00100189 	2.0881e-08 	0.92 	0.04 	0.04 	0.0291558 	
0.00105551 	2.0881e-08 	0.92 	0.04 	0.04 	0.0291557 	
0.00110913 	2.0881e-08 	0.92 	0.04 	0.04 	0.0291557 	
0.00116276 	2.0881e-08 	0.92 	0.04 	0.04 	0.0291556 	
0.00121638 	2.0881e-08 	0.92 	0.04 	0.04 	0.0291556 	
0.00127 	1.97216e-08 	0.92 	0.04 	0.04 	0.0291555 	
ZONE T = "t = 1.1633e-06 [s]" I = 10 SOLUTIONTIME = 1.1633007812500E-06
0.0007874 	2.0881e-08 	0.92 	0.04 	0.04 	0.029156 	
0.000841022 	2.0881e-08 	0.92 	0.04 	0.04 	0.0291559 	
0.000894644 	2.0881e-08 	0.92 	0.04 	0.04 	0.0291559 	
0.000948267 	2.0881e-08 	0.92 	0.04 	0.04 	0.0291558 	
0.00100189 	2.0881e-08 	0.92 	0.04 	0.04 	0.0291558 	
0.00105551 	2.0881e-08 	0.92 	0.04 	0.04 	0.0291557 	
0.00110913 	2.0881e-08 	0.92 	0.04 	0.04 	0.0291557 	
0.00116276 	2.0881e-08 	0.92 	0.04 	0.04 	0.0291556 	
0.00121638 	2.0881e-08 	0.92 	0.04 	0.04 	0.0291556 	
0.00127 	1.97216e-08 	0.92 	0.04 	0.04 	0.0291555 	
ZONE T = "t = 1.73995e-06 [s]" I = 10 SOLUTIONTIME = 1.7399511718750E-06
0.0007874 	2.0881e-08 	0.92 	0.04 	0.04 	0.0291559 	
0.000841022 	2.0881e-08 	0.92 	0.04 	0.04 	0.0291559 	
0.000894644 	2.0881e-08 	0.92 	0.04 	0.04 	0.0291558 	
0.000948267 	2.0881e-08 	0.92 	0.04 	0.04 	0.0291558 	
0.00100189 	2.0881e-08 	0.92 	0.04 	0.04 	0.0291557 	
0.00105551 	2.0881e-08 	0.92 	0.04 	0.04 	0.0291557 	
0.00110913 	2.0881e-08 	0.92 	0.04 	0.04 	0.0291557 	
0.00116276 	2.0881e-08 	0.92 	0.04 	0.04 	0.0291556 	
0.00121638 	2.0881e-08 	0.92 	0.04 	0.04 	0.0291556 	
0.00127 	1.97216e-08 	0.92 	0.04 	0.04 	0.0291555 	
ZONE T = "t = 2.60493e-06 [s]" I = 10 SOLUTIONTIME = 2.6049267578125E-06
0.0007874 	2.0881e-08 	0.92 	0.04 	0.04 	0.0291559 	
0.000841022 	2.0881e-08 	0.92 	0.04 	0.04 	0.0291559 	
0.000894644 	2.0881e-08 	0.92 	0.04 	0.04 	0.0291558 	
0.000948267 	2.0881e-08 	0.92 	0.04 	0.04 	0.0291558 	
0.00100189 	2.0881e-08 	0.92 	0.04 	0.04 	0.0291557 	
0.00105551 	2.0881e-08 	0.92 	0.04 	0.04 	0.0291557 	
0.00110913 	2.0881e-08 	0.92 	0.04 	0.04 	0.0291556 	
0.00116276 	2.0881e-08 	0.92 	0.04 	0.04 	0.0291556 	
0.00121638 	2.0881e-08 	0.92 	0.04 	0.04 	0.0291555 	
0.00127 	1.97216e-08 	0.92 	0.04 	0.04 	0.0291555 	
ZONE T = "t = 3.90239e-06 [s]" I = 10 SOLUTIONTIME = 3.9023901367188E-06
0.0007874 	2.0881e-08 	0.92 	0.04 	0.04 	0.0291559 	
0.000841022 	2.0881e-08 	0.92 	0.04 	0.04 	0.0291559 	
0.000894644 	2.0881e-08 	0.92 	0.04 	0.04 	0.0291558 	
0.000948267 	2.0881e-08 	0.92 	0.04 	0.04 	0.0291558 	
0.00100189 	2.0881e-08 	0.92 	0.04 	0.04 	0.0291557 	
0.00105551 	2.0881e-08 	0.92 	0.04 	0.04 	0.0291557 	
0.00110913 	2.0881e-08 	0.92 	0.04 	0.04 	0.0291556 	
0.00116276 	2.0881e-08 	0.92 	0.04 	0.04 	0.0291556 	
0.00121638 	2.0881e-08 	0.92 	0.04 	0.04 	0.0291555 	
0.00127 	1.97216e-08 	0.92 	0.04 	0.04 	0.0291555 	
ZONE T = "t = 5.84859e-06 [s]" I = 10 SOLUTIONTIME = 5.8485852050781E-06
0.0007874 	2.08809e-08 	0.92 	0.04 	0.04 	0.0291559 	
0.000841022 	2.08809e-08 	0.92 	0.04 	0.04 	0.0291558 	
0.000894644 	2.08809e-08 	0.92 	0.04 	0.04 	0.0291558 	
0.000948267 	2.08809e-08 	0.92 	0.04 	0.04 	0.0291557 	
0.00100189 	2.08809e-08 	0.92 	0.04 	0.04 	0.0291557 	
0.00105551 	2.08809e-08 	0.92 	0.04 	0.04 	0.0291556 	
0.00110913 	2.08809e-08 	0.92 	0.04 	0.04 	0.0291556 	
0.00116276 	2.08809e-08 	0.92 	0.04 	0.04 	0.0291555 	
0.00121638 	2.08809e-08 	0.92 	0.04 	0.04 	0.0291555 	
0.00127 	1.97216e-08 	0.92 	0.04 	0.04 	0.0291554 	
ZONE T = "t = 8.76788e-06 [s]" I = 10 SOLUTIONTIME = 8.7678778076172E-06
0.0007874 	2.08809e-08 	0.92 	0.04 	0.04 	0.0291558 	
0.000841022 	2.08809e-08 	0.92 	0.04 	0.04 	0.0291558 	
0.000894644 	2.08809e-08 	0.92 	0.04 	0.04 	0.0291557 	
0.000948267 	2.08809e-08 	0.92 	0.04 	0.04 	0.0291557 	
0.00100189 	2.08809e-08 	0.92 	0.04 	0.04 	0.0291556 	
0.00105551 	2.08809e-08 	0.92 	0.04 	0.04 	0.0291556 	
0.00110913 	2.08809e-08 	0.92 	0.04 	0.04 	0.0291555 	
0.00116276 	2.08809e-08 	0.92 	0.04 	0.04 	0.0291555 	
0.00121638 	2.08809e-08 	0.92 	0.04 	0.04 	0.0291554 	
0.00127 	1.97215e-08 	0.92 	0.04 	0.04 	0.0291554 	
ZONE T = "t = 1.31468e-05 [s]" I = 10 SOLUTIONTIME = 1.3146816711426E-05
0.0007874 	2.08808e-08 	0.92 	0.04 	0.04 	0.0291557 	
0.000841022 	2.08808e-08 	0.92 	0.04 	0.04 	0.0291557 	
0.000894644 	2.08808e-08 	0.92 	0.04 	0.04 	0.0291556 	
0.000948267 	2.08808e-08 	0.92 	0.04 	0.04 	0.0291556 	
0.00100189 	2.08808e-08 	0.92 	0.04 	0.04 	0.0291555 	
0.00105551 	2.08808e-08 	0.92 	0.04 	0.04 	0.0291555 	
0.00110913 	2.08808e-08 	0.92 	0.04 	0.04 	0.0291554 	
0.00116276 	2.08808e-08 	0.92 	0.04 	0.04 	0.0291554 	
0.00121638 	2.08808e-08 	0.92 	0.04 	0.04 	0.0291553 	
0.00127 	1.97215e-08 	0.92 	0.04 	0.04 	0.0291553 	
ZONE T = "t = 1.97152e-05 [s]" I = 10 SOLUTIONTIME = 1.9715225067139E-05
0.0007874 	2.08808e-08 	0.92 	0.04 	0.04 	0.0291556 	
0.000841022 	2.08808e-08 	0.92 	0.04 	0.04 	0.0291556 	
0.000894644 	2.08808e-08 	0.92 	0.04 	0.04 	0.0291555 	
0.000948267 	2.08808e-08 	0.92 	0.04 	0.04 	0.0291555 	
0.00100189 	2.08808e-08 	0.92 	0.04 	0.04 	0.0291554 	
0.00105551 	2.08808e-08 	0.92 	0.04 	0.04 	0.0291554 	
0.00110913 	2.08808e-08 	0.92 	0.04 	0.04 	0.0291553 	
0.00116276 	2.08808e-08 	0.92 	0.04 	0.04 	0.0291553 	
0.00121638 	2.08808e-08 	0.92 	0.04 	0.04 	0.0291552 	
0.00127 	1.97214e-08 	0.92 	0.04 	0.04 	0.0291552 	
ZONE T = "t = 2.95678e-05 [s]" I = 10 SOLUTIONTIME = 2.9567837600708E-05
0.0007874 	2.08806e-08 	0.92 	0.04 	0.04 	0.0291555 	
0.000841022 	2.08806e-08 	0.92 	0.04 	0.04 	0.0291554 	
0.000894644 	2.08806e-08 	0.92 	0.04 	0.04 	0.0291554 	
0.000948267 	2.08806e-08 	0.92 	0.04 	0.04 	0.0291553 	
0.00100189 	2.08806e-08 	0.92 	0.04 	0.04 	0.0291553 	
0.00105551 	2.08806e-08 	0.92 	0.04 	0.04 	0.0291552 	
0.00110913 	2.08806e-08 	0.92 	0.04 	0.04 	0.0291552 	
0.00116276 	2.08806e-08 	0.92 	0.04 	0.04 	0.0291551 	
0.00121638 	2.08806e-08 	0.92 	0.04 	0.04 	0.0291551 	
0.00127 	1.97213e-08 	0.92 	0.04 	0.04 	0.029155 	
ZONE T = "t = 4.43468e-05 [s]" I = 10 SOLUTIONTIME = 4.4346756401062E-05
0.0007874 	2.08804e-08 	0.92 	0.04 	0.04 	0.0291552 	
0.000841022 	2.08804e-08 	0.92 	0.04 	0.04 	0.0291551 	
0.000894644 	2.08804e-08 	0.92 	0.04 	0.04 	0.0291551 	
0.000948267 	2.08804e-08 	0.92 	0.04 	0.04 	0.029155 	
0.00100189 	2.08804e-08 	0.92 	0.04 	0.04 	0.029155 	
0.00105551 	2.08804e-08 	0.92 	0.04 	0.04 	0.0291549 	
0.00110913 	2.08804e-08 	0.92 	0.04 	0.04 	0.0291549 	
0.00116276 	2.08804e-08 	0.92 	0.04 	0.04 	0.0291548 	
0.00121638 	2.08804e-08 	0.92 	0.04 	0.04 	0.0291548 	
0.00127 	1.97211e-08 	0.92 	0.04 	0.04 	0.0291547 	
ZONE T = "t = 6.65151e-05 [s]" I = 10 SOLUTIONTIME = 6.6515134601593E-05
0.0007874 	2.08801e-08 	0.92 	0.04 	0.04 	0.0291548 	
0.000841022 	2.08801e-08 	0.92 	0.04 	0.04 	0.0291547 	
0.000894644 	2.08801e-08 	0.92 	0.04 	0.04 	0.0291547 	
0.000948267 	2.08801e-08 	0.92 	0.04 	0.04 	0.0291546 	
0.00100189 	2.08801e-08 	0.92 	0.04 	0.04 	0.0291546 	
0.00105551 	2.08801e-08 	0.92 	0.04 	0.04 	0.0291545 	
0.00110913 	2.08801e-08 	0.92 	0.04 	0.04 	0.0291545 	
0.00116276 	2.08801e-08 	0.92 	0.04 	0.04 	0.0291544 	
0.00121638 	2.08801e-08 	0.92 	0.04 	0.04 	0.0291544 	
0.00127 	1.97208e-08 	0.92 	0.04 	0.04 	0.0291543 	
ZONE T = "t = 9.97677e-05 [s]" I = 10 SOLUTIONTIME = 9.9767701902390E-05
0.0007874 	2.08797e-08 	0.92 	0.04 	0.04 	0.0291542 	
0.000841022 	2.08797e-08 	0.92 	0.04 	0.04 	0.0291541 	
0.000894644 	2.08797e-08 	0.92 	0.04 	0.04 	0.0291541 	
0.000948267 	2.08797e-08 	0.92 	0.04 	0.04 	0.029154 	
0.00100189 	2.08797e-08 	0.92 	0.04 	0.04 	0.029154 	
0.00105551 	2.08797e-08 	0.92 	0.04 	0.04 	0.0291539 	
0.00110913 	2.08797e-08 	0.92 	0.04 	0.04 	0.0291539 	
0.00116276 	2.08797e-08 	0.92 	0.04 	0.04 	0.0291539 	
0.00121638 	2.08797e-08 	0.92 	0.04 	0.04 	0.0291538 	
0.00127 	1.97204e-08 	0.92 	0.04 	0.04 	0.0291538 	
ZONE T = "t = 0.000149647 [s]" I = 10 SOLUTIONTIME = 1.4964655285358E-04
0.0007874 	2.0879e-08 	0.92 	0.04 	0.04 	0.0291533 	
0.000841022 	2.0879e-08 	0.92 	0.04 	0.04 	0.0291533 	
0.000894644 	2.0879e-08 	0.92 	0.04 	0.04 	0.0291532 	
0.000948267 	2.0879e-08 	0.92 	0.04 	0.04 	0.0291532 	
0.00100189 	2.0879e-08 	0.92 	0.04 	0.04 	0.0291531 	
0.00105551 	2.0879e-08 	0.92 	0.04 	0.04 	0.0291531 	
0.00110913 	2.0879e-08 	0.92 	0.04 	0.04 	0.029153 	
0.00116276 	2.0879e-08 	0.92 	0.04 	0.04 	0.029153 	
0.00121638 	2.0879e-08 	0.92 	0.04 	0.04 	0.0291529 	
0.00127 	1.97198e-08 	0.92 	0.04 	0.04 	0.0291529 	
ZONE T = "t = 0.000224465 [s]" I = 10 SOLUTIONTIME = 2.2446482928038E-04
0.0007874 	2.0878e-08 	0.92 	0.04 	0.04 	0.029152 	
0.000841022 	2.0878e-08 	0.92 	0.04 	0.04 	0.0291519 	
0.000894644 	2.0878e-08 	0.92 	0.04 	0.04 	0.0291519 	
0.000948267 	2.0878e-08 	0.92 	0.04 	0.04 	0.0291518 	
0.00100189 	2.0878e-08 	0.92 	0.04 	0.04 	0.0291518 	
0.00105551 	2.0878e-08 	0.92 	0.04 	0.04 	0.0291517 	
0.00110913 	2.0878e-08 	0.92 	0.04 	0.04 	0.0291517 	
0.00116276 	2.0878e-08 	0.92 	0.04 	0.04 	0.0291516 	
0.00121638 	2.0878e-08 	0.92 	0.04 	0.04 	0.0291516 	
0.00127 	1.97188e-08 	0.92 	0.04 	0.04 	0.0291515 	
ZONE T = "t = 0.000336692 [s]" I = 10 SOLUTIONTIME = 3.3669224392056E-04
0.0007874 	2.08766e-08 	0.92 	0.04 	0.04 	0.02915 	
0.000841022 	2.08766e-08 	0.92 	0.04 	0.04 	0.0291499 	
0.000894644 	2.08766e-08 	0.92 	0.04 	0.04 	0.0291499 	
0.000948267 	2.08766e-08 	0.92 	0.04 	0.04 	0.0291498 	
0.00100189 	2.08766e-08 	0.92 	0.04 	0.04 	0.0291498 	
0.00105551 	2.08766e-08 	0.92 	0.04 	0.04 	0.0291497 	
0.00110913 	2.08766e-08 	0.92 	0.04 	0.04 	0.0291497 	
0.00116276 	2.08766e-08 	0.92 	0.04 	0.04 	0.0291496 	
0.00121638 	2.08766e-08 	0.92 	0.04 	0.04 	0.0291496 	
0.00127 	1.97174e-08 	0.92 	0.04 	0.04 	0.0291495 	
ZONE T = "t = 0.000505033 [s]" I = 10 SOLUTIONTIME = 5.0503336588085E-04
0.0007874 	2.08743e-08 	0.92 	0.04 	0.04 	0.029147 	
0.000841022 	2.08743e-08 	0.92 	0.04 	0.04 	0.0291469 	
0.000894644 	2.08743e-08 	0.92 	0.04 	0.04 	0.0291469 	
0.000948267 	2.08743e-08 	0.92 	0.04 	0.04 	0.0291468 	
0.00100189 	2.08743e-08 	0.92 	0.04 	0.04 	0.0291468 	
0.00105551 	2.08743e-08 	0.92 	0.04 	0.04 	0.0291467 	
0.00110913 	2.08743e-08 	0.92 	0.04 	0.04 	0.0291467 	
0.00116276 	2.08743e-08 	0.92 	0.04 	0.04 	0.0291466 	
0.00121638 	2.08743e-08 	0.92 	0.04 	0.04 	0.0291466 	
0.00127 	1.97153e-08 	0.92 	0.04 	0.04 	0.0291465 	
ZONE T = "t = 0.000757545 [s]" I = 10 SOLUTIONTIME = 7.5754504882127E-04
0.0007874 	2.0871e-08 	0.92 	0.04 	0.04 	0.0291424 	
0.000841022 	2.0871e-08 	0.92 	0.04 	0.04 	0.0291424 	
0.000894644 	2.0871e-08 	0.92 	0.04 	0.04 	0.0291423 	
0.000948267 	2.0871e-08 	0.92 	0.04 	0.04 	0.0291423 	
0.00100189 	2.0871e-08 	0.92 	0.04 	0.04 	0.0291423 	
0.00105551 	2.0871e-08 	0.92 	0.04 	0.04 	0.0291422 	
0.00110913 	2.0871e-08 	0.92 	0.04 	0.04 	0.0291422 	
0.00116276 	2.0871e-08 	0.92 	0.04 	0.04 	0.0291421 	
0.00121638 	2.0871e-08 	0.92 	0.04 	0.04 	0.0291421 	
0.00127 	1.97122e-08 	0.92 	0.04 	0.04 	0.029142 	
ZONE T = "t = 0.00113631 [s]" I = 10 SOLUTIONTIME = 1.1363125732319E-03
0.0007874 	2.0866e-08 	0.92 	0.04 	0.04 	0.0291357 	
0.000841022 	2.0866e-08 	0.92 	0.04 	0.04 	0.0291356 	
0.000894644 	2.0866e-08 	0.92 	0.04 	0.04 	0.0291356 	
0.000948267 	2.0866e-08 	0.92 	0.04 	0.04 	0.0291355 	
0.00100189 	2.0866e-08 	0.92 	0.04 	0.04 	0.0291355 	
0.00105551 	2.0866e-08 	0.92 	0.04 	0.04 	0.0291354 	
0.00110913 	2.0866e-08 	0.92 	0.04 	0.04 	0.0291354 	
0.00116276 	2.0866e-08 	0.92 	0.04 	0.04 	0.0291353 	
0.00121638 	2.0866e-08 	0.92 	0.04 	0.04 	0.0291353 	
0.00127 	1.97075e-08 	0.92 	0.04 	0.04 	0.0291352 	
ZONE T = "t = 0.00170446 [s]" I = 10 SOLUTIONTIME = 1.7044638598479E-03
0.0007874 	2.08585e-08 	0.92 	0.04 	0.04 	0.0291256 	
0.000841022 	2.08585e-08 	0.92 	0.04 	0.04 	0.0291255 	
0.000894644 	2.08585e-08 	0.92 	0.04 	0.04 	0.0291255 	
0.000948267 	2.08585e-08 	0.92 	0.04 	0.04 	0.0291254 	
0.00100189 	2.08585e-08 	0.92 	0.04 	0.04 	0.0291254 	
0.00105551 	2.08585e-08 	0.92 	0.04 	0.04 	0.0291253 	
0.00110913 	2.08585e-08 	0.92 	0.04 	0.04 	0.0291253 	
0.00116276 	2.08585e-08 	0.92 	0.04 	0.04 	0.0291252 	
0.00121638 	2.08585e-08 	0.92 	0.04 	0.04 	0.0291252 	
0.00127 	1.97004e-08 	0.92 	0.04 	0.04 	0.0291251 	
ZONE T = "t = 0.00255669 [s]" I = 10 SOLUTIONTIME = 2.5566907897718E-03
0.0007874 	2.08473e-08 	0.92 	0.04 	0.04 	0.0291104 	
0.000841022 	2.08473e-08 	0.92 	0.04 	0.04 	0.0291103 	
0.000894644 	2.08473e-08 	0.92 	0.04 	0.04 	0.0291103 	
0.000948267 	2.08473e-08 	0.92 	0.04 	0.04 	0.0291102 	
0.00100189 	2.08473e-08 	0.92 	0.04 	0.04 	0.0291102 	
0.00105551 	2.08473e-08 	0.92 	0.04 	0.04 	0.0291101 	
0.00110913 	2.08473e-08 	0.92 	0.04 	0.04 	0.0291101 	
0.00116276 	2.08473e-08 	0.92 	0.04 	0.04 	0.02911 	
0.00121638 	2.08473e-08 	0.92 	0.04 	0.04 	0.02911 	
0.00127 	1.96898e-08 	0.92 	0.04 	0.04 	0.0291099 	
ZONE T = "t = 0.00383503 [s]" I = 10 SOLUTIONTIME = 3.8350311846577E-03
0.0007874 	2.08306e-08 	0.92 	0.04 	0.04 	0.0290876 	
0.000841022 	2.08306e-08 	0.92 	0.04 	0.04 	0.0290875 	
0.000894644 	2.08306e-08 	0.92 	0.04 	0.04 	0.0290875 	
0.000948267 	2.08306e-08 	0.92 	0.04 	0.04 	0.0290874 	
0.00100189 	2.08306e-08 	0.92 	0.04 	0.04 	0.0290874 	
0.00105551 	2.08306e-08 	0.92 	0.04 	0.04 	0.0290873 	
0.00110913 	2.08306e-08 	0.92 	0.04 	0.04 	0.0290873 	
0.00116276 	2.08306e-08 	0.92 	0.04 	0.04 	0.0290872 	
0.00121638 	2.08306e-08 	0.92 	0.04 	0.04 	0.0290872 	
0.00127 	1.9674e-08 	0.92 	0.04 	0.04 	0.0290871 	
ZONE T = "t = 0.00575254 [s]" I = 10 SOLUTIONTIME = 5.7525417769865E-03
0.0007874 	2.08054e-08 	0.92 	0.04 	0.04 	0.0290535 	
0.000841022 	2.08054e-08 	0.92 	0.04 	0.04 	0.0290535 	
0.000894644 	2.08054e-08 	0.92 	0.04 	0.04 	0.0290534 	
0.000948267 	2.08054e-08 	0.92 	0.04 	0.04 	0.0290534 	
0.00100189 	2.08054e-08 	0.92 	0.04 	0.04 	0.0290533 	
0.00105551 	2.08054e-08 	0.92 	0.04 	0.04 	0.0290533 	
0.00110913 	2.08054e-08 	0.92 	0.04 	0.04 	0.0290532 	
0.00116276 	2.08054e-08 	0.92 	0.04 	0.04 	0.0290532 	
0.00121638 	2.08054e-08 	0.92 	0.04 	0.04 	0.0290531 	
0.00127 	1.96502e-08 	0.92 	0.0399999 	0.0399999 	0.0290531 	
ZONE T = "t = 0.00862881 [s]" I = 10 SOLUTIONTIME = 8.6288076654798E-03
0.0007874 	2.07679e-08 	0.92 	0.0400001 	0.0400001 	0.0290025 	
0.000841022 	2.07679e-08 	0.92 	0.04 	0.04 	0.0290024 	
0.000894644 	2.07679e-08 	0.92 	0.04 	0.04 	0.0290024 	
0.000948267 	2.07679e-08 	0.92 	0.04 	0.04 	0.0290023 	
0.00100189 	2.07679e-08 	0.92 	0.04 	0.04 	0.0290023 	
0.00105551 	2.07679e-08 	0.92 	0.04 	0.04 	0.0290022 	
0.00110913 	2.07679e-08 	0.92 	0.04 	0.04 	0.0290022 	
0.00116276 	2.07679e-08 	0.92 	0.04 	0.04 	0.0290022 	
0.00121638 	2.07679e-08 	0.92 	0.0399999 	0.0399999 	0.0290021 	
0.00127 	1.96148e-08 	0.92 	0.0399999 	0.0399999 	0.0290021 	
ZONE T = "t = 0.0129432 [s]" I = 10 SOLUTIONTIME = 1.2943206498220E-02
0.0007874 	2.07119e-08 	0.92 	0.0400001 	0.0400001 	0.0289263 	
0.000841022 	2.07119e-08 	0.92 	0.0400001 	0.0400001 	0.0289262 	
0.000894644 	2.07119e-08 	0.92 	0.04 	0.04 	0.0289262 	
0.000948267 	2.07119e-08 	0.92 	0.04 	0.04 	0.0289261 	
0.00100189 	2.07119e-08 	0.92 	0.04 	0.04 	0.0289261 	
0.00105551 	2.07119e-08 	0.92 	0.04 	0.04 	0.028926 	
0.00110913 	2.07119e-08 	0.92 	0.04 	0.04 	0.028926 	
0.00116276 	2.07119e-08 	0.92 	0.0399999 	0.0399999 	0.0289259 	
0.00121638 	2.07119e-08 	0.92 	0.0399999 	0.0399999 	0.0289259 	
0.00127 	1.95619e-08 	0.92 	0.0399999 	0.0399999 	0.0289258 	
ZONE T = "t = 0.0194148 [s]" I = 10 SOLUTIONTIME = 1.9414804747330E-02
0.0007874 	2.06285e-08 	0.92 	0.0400001 	0.0400001 	0.0288126 	
0.000841022 	2.06285e-08 	0.92 	0.0400001 	0.0400001 	0.0288125 	
0.000894644 	2.06285e-08 	0.92 	0.04 	0.04 	0.0288125 	
0.000948267 	2.06285e-08 	0.92 	0.04 	0.04 	0.0288124 	
0.00100189 	2.06285e-08 	0.92 	0.04 	0.04 	0.0288124 	
0.00105551 	2.06285e-08 	0.92 	0.04 	0.04 	0.0288123 	
0.00110913 	2.06285e-08 	0.92 	0.0399999 	0.0399999 	0.0288123 	
0.00116276 	2.06285e-08 	0.92 	0.0399999 	0.0399999 	0.0288122 	
0.00121638 	2.06285e-08 	0.92 	0.0399999 	0.0399999 	0.0288122 	
0.00127 	1.94832e-08 	0.92 	0.0399998 	0.0399998 	0.0288121 	
ZONE T = "t = 0.0291222 [s]" I = 10 SOLUTIONTIME = 2.9122202120994E-02
0.0007874 	2.0505e-08 	0.92 	0.0400001 	0.0400001 	0.0286435 	
0.000841022 	2.0505e-08 	0.92 	0.0400001 	0.0400001 	0.0286434 	
0.000894644 	2.0505e-08 	0.92 	0.04 	0.04 	0.0286434 	
0.000948267 	2.0505e-08 	0.92 	0.04 	0.04 	0.0286433 	
0.00100189 	2.0505e-08 	0.92 	0.04 	0.04 	0.0286433 	
0.00105551 	2.0505e-08 	0.92 	0.0399999 	0.0399999 	0.0286432 	
0.00110913 	2.0505e-08 	0.92 	0.0399999 	0.0399999 	0.0286432 	
0.00116276 	2.0505e-08 	0.92 	0.0399999 	0.0399999 	0.0286432 	
0.00121638 	2.0505e-08 	0.92 	0.0399998 	0.0399998 	0.0286431 	
0.00127 	1.93665e-08 	0.92 	0.0399998 	0.0399998 	0.0286431 	
ZONE T = "t = 0.0436833 [s]" I = 10 SOLUTIONTIME = 4.3683298181491E-02
0.0007874 	2.03231e-08 	0.92 	0.0400001 	0.0400001 	0.028393 	
0.000841022 	2.03231e-08 	0.92 	0.0400001 	0.0400001 	0.028393 	
0.000894644 	2.03231e-08 	0.92 	0.04 	0.04 	0.0283929 	
0.000948267 	2.03231e-08 	0.92 	0.04 	0.04 	0.0283929 	
0.00100189 	2.03231e-08 	0.92 	0.04 	0.04 	0.0283928 	
0.00105551 	2.03231e-08 	0.92 	0.0399999 	0.0399999 	0.0283928 	
0.00110913 	2.03231e-08 	0.92 	0.0399999 	0.0399999 	0.0283927 	
0.00116276 	2.03231e-08 	0.92 	0.0399998 	0.0399998 	0.0283927 	
0.00121638 	2.03231e-08 	0.92 	0.0399998 	0.0399998 	0.0283927 	
0.00127 	1.91947e-08 	0.920001 	0.0399997 	0.0399997 	0.0283926 	
ZONE T = "t = 0.0655249 [s]" I = 10 SOLUTIONTIME = 6.5524942272237E-02
0.0007874 	2.00574e-08 	0.92 	0.0400001 	0.0400001 	0.0280244 	
0.000841022 	2.00574e-08 	0.92 	0.0400001 	0.0400001 	0.0280243 	
0.000894644 	2.00574e-08 	0.92 	0.04 	0.04 	0.0280243 	
0.000948267 	2.00574e-08 	0.92 	0.04 	0.04 	0.0280242 	
0.00100189 	2.00574e-08 	0.92 	0.0399999 	0.0399999 	0.0280242 	
0.00105551 	2.00574e-08 	0.92 	0.0399999 	0.0399999 	0.0280241 	
0.00110913 	2.00574e-08 	0.92 	0.0399998 	0.0399998 	0.0280241 	
0.00116276 	2.00574e-08 	0.92 	0.0399998 	0.0399998 	0.0280241 	
0.00121638 	2.00574e-08 	0.920001 	0.0399997 	0.0399997 	0.028024 	
0.00127 	1.89437e-08 	0.920001 	0.0399997 	0.0399997 	0.028024 	
ZONE T = "t = 0.0982874 [s]" I = 10 SOLUTIONTIME = 9.8287408408356E-02
0.0007874 	1.96742e-08 	0.92 	0.0400001 	0.0400001 	0.0274867 	
0.000841022 	1.96742e-08 	0.92 	0.0400001 	0.0400001 	0.0274867 	
0.000894644 	1.96742e-08 	0.92 	0.04 	0.04 	0.0274866 	
0.000948267 	1.96742e-08 	0.92 	0.04 	0.04 	0.0274866 	
0.00100189 	1.96742e-08 	0.92 	0.0399999 	0.0399999 	0.0274865 	
0.00105551 	1.96742e-08 	0.92 	0.0399998 	0.0399998 	0.0274865 	
0.00110913 	1.96742e-08 	0.92 	0.0399998 	0.0399998 	0.0274865 	
0.00116276 	1.96742e-08 	0.920001 	0.0399997 	0.0399997 	0.0274864 	
0.00121638 	1.96742e-08 	0.920001 	0.0399997 	0.0399997 	0.0274864 	
0.00127 	1.85817e-08 	0.920001 	0.0399996 	0.0399996 	0.0274863 	
ZONE T = "t = 0.147431 [s]" I = 10 SOLUTIONTIME = 1.4743110761253E-01
0.0007874 	1.91315e-08 	0.92 	0.0400001 	0.0400001 	0.0267132 	
0.000841022 	1.91315e-08 	0.92 	0.0400001 	0.0400001 	0.0267131 	
0.000894644 	1.91315e-08 	0.92 	0.04 	0.04 	0.0267131 	
0.000948267 	1.91315e-08 	0.92 	0.0399999 	0.0399999 	0.026713 	
0.00100189 	1.91315e-08 	0.92 	0.0399999 	0.0399999 	0.026713 	
0.00105551 	1.91315e-08 	0.92 	0.0399998 	0.0399998 	0.0267129 	
0.00110913 	1.91315e-08 	0.92 	0.0399998 	0.0399998 	0.0267129 	
0.00116276 	1.91315e-08 	0.920001 	0.0399997 	0.0399997 	0.0267128 	
0.00121638 	1.91315e-08 	0.920001 	0.0399996 	0.0399996 	0.0267128 	
0.00127 	1.80692e-08 	0.920001 	0.0399996 	0.0399996 	0.0267127 	
ZONE T = "t = 0.213663 [s]" I = 10 SOLUTIONTIME = 2.1366300297349E-01
0.0007874 	1.8448e-08 	0.92 	0.0400001 	0.0400001 	0.0257533 	
0.000841022 	1.8448e-08 	0.92 	0.0400001 	0.0400001 	0.0257533 	
0.000894644 	1.8448e-08 	0.92 	0.04 	0.04 	0.0257532 	
0.000948267 	1.8448e-08 	0.92 	0.0399999 	0.0399999 	0.0257532 	
0.00100189 	1.8448e-08 	0.92 	0.0399999 	0.0399999 	0.0257531 	
0.00105551 	1.8448e-08 	0.92 	0.0399998 	0.0399998 	0.0257531 	
0.00110913 	1.8448e-08 	0.92 	0.0399998 	0.0399998 	0.025753 	
0.00116276 	1.8448e-08 	0.920001 	0.0399997 	0.0399997 	0.025753 	
0.00121638 	1.8448e-08 	0.920001 	0.0399996 	0.0399996 	0.025753 	
0.00127 	1.74236e-08 	0.920001 	0.0399996 	0.0399996 	0.0257529 	
ZONE T = "t = 0.269956 [s]" I = 10 SOLUTIONTIME = 2.6995596678512E-01
0.0007874 	1.78071e-08 	0.92 	0.0400001 	0.0400001 	0.0248776 	
0.000841022 	1.78071e-08 	0.92 	0.0400001 	0.0400001 	0.0248775 	
0.000894644 	1.78071e-08 	0.92 	0.04 	0.04 	0.0248775 	
0.000948267 	1.78071e-08 	0.92 	0.0399999 	0.0399999 	0.0248774 	
0.00100189 	1.78071e-08 	0.92 	0.0399999 	0.0399999 	0.0248774 	
0.00105551 	1.78071e-08 	0.92 	0.0399998 	0.0399998 	0.0248774 	
0.00110913 	1.78071e-08 	0.92 	0.0399998 	0.0399998 	0.0248773 	
0.00116276 	1.78071e-08 	0.920001 	0.0399997 	0.0399997 	0.0248773 	
0.00121638 	1.78071e-08 	0.920001 	0.0399996 	0.0399996 	0.0248772 	
0.00127 	1.68183e-08 	0.920001 	0.0399996 	0.0399996 	0.0248772 	
ZONE T = "t = 0.336088 [s]" I = 10 SOLUTIONTIME = 3.3608757944688E-01
0.0007874 	1.72389e-08 	0.92 	0.0400001 	0.0400001 	0.0239712 	
0.000841022 	1.72389e-08 	0.92 	0.0400001 	0.0400001 	0.0239711 	
0.000894644 	1.72389e-08 	0.92 	0.04 	0.04 	0.0239711 	
0.000948267 	1.72389e-08 	0.92 	0.0399999 	0.0399999 	0.0239711 	
0.00100189 	1.72389e-08 	0.92 	0.0399999 	0.0399999 	0.023971 	
0.00105551 	1.72389e-08 	0.92 	0.0399998 	0.0399998 	0.023971 	
0.00110913 	1.72389e-08 	0.92 	0.0399998 	0.0399998 	0.0239709 	
0.00116276 	1.72389e-08 	0.920001 	0.0399997 	0.0399997 	0.0239709 	
0.00121638 	1.72389e-08 	0.920001 	0.0399996 	0.0399996 	0.0239709 	
0.00127 	1.62816e-08 	0.920001 	0.0399996 	0.0399996 	0.0239708 	
ZONE T = "t = 0.382363 [s]" I = 10 SOLUTIONTIME = 3.8236296576364E-01
0.0007874 	1.67702e-08 	0.92 	0.0400001 	0.0400001 	0.0232584 	
0.000841022 	1.67702e-08 	0.92 	0.0400001 	0.0400001 	0.0232584 	
0.000894644 	1.67702e-08 	0.92 	0.04 	0.04 	0.0232583 	
0.000948267 	1.67702e-08 	0.92 	0.0399999 	0.0399999 	0.0232583 	
0.00100189 	1.67702e-08 	0.92 	0.0399999 	0.0399999 	0.0232582 	
0.00105551 	1.67702e-08 	0.92 	0.0399998 	0.0399998 	0.0232582 	
0.00110913 	1.67702e-08 	0.92 	0.0399998 	0.0399998 	0.0232582 	
0.00116276 	1.67702e-08 	0.920001 	0.0399997 	0.0399997 	0.0232581 	
0.00121638 	1.67702e-08 	0.920001 	0.0399997 	0.0399997 	0.0232581 	
0.00127 	1.58389e-08 	0.920001 	0.0399996 	0.0399996 	0.023258 	
ZONE T = "t = 0.440051 [s]" I = 10 SOLUTIONTIME = 4.4005095732883E-01