TITLE = "Solution on Domain BulkDomain1D_2"
VARIABLES = "x [m]"  
"Vel_axial" 	"MF_sp(ECDMC)" 	"MF_sp(Li+)" 	"MF_sp(PF6-)" 	"Volt(Electroly)" 	"Volt(CathodeVo)" 	
"Potential Drop Electrode-Electrolyte [V]" 	"Surf_0 Equilibrium Potential Drop Electrode-Electrolyte [V]" 	"Overpotential_0 [V]" 	"Current Source [A/m^2]" 	"Li+ flux [kmol/m^2/s]" 	"Electrolyte Current [A/m^2]" 	"Electrode Current [A/m^2]" 	
"CV Capacity discharged [A-s/m^2]" 	"Depth of discharge in CV [A-s/m^2]" 	"CV Capacity remaining [A-s/m^2]" 	"Initial CV capacity [A-s/m^2]" 	"Porosity []" 	"Surface Area [m2/m2] (area per area)" 	"Specific current (per particle area) [A/m^2]" 	"Control volume thickness [m]" 	
"MoleDens LiCoO2 [kmol/m^3]" 	"MoleDens CoO2 [kmol/m^3]" 	"qHeat_accum [J/m3]" 	"qHeat_step [W/m3]" 	"Joule_Lyte [W/m3]" 	"Joule_Solid [W/m3]" 	"electrodHeat [W/m3]" 	"OverpotHeat [W/m3]" 	"deltaSHeat [W/m3]" 	

ZONE T = "CATH, 0.0000E+00", I = 10, SOLUTIONTIME = 0.000000E+00
ZONETYPE = ORDERED
DATAPACKING = BLOCK
STRANDID = 3
 1.2700000000000E-03  1.3377333333333E-03  1.4054666666667E-03  1.4732000000000E-03  1.5409333333333E-03  1.6086666666667E-03  1.6764000000000E-03  1.7441333333333E-03  1.8118666666667E-03  1.8796000000000E-03 
 0.0000000000000E+00  0.0000000000000E+00  0.0000000000000E+00  0.0000000000000E+00  0.0000000000000E+00  0.0000000000000E+00  0.0000000000000E+00  0.0000000000000E+00  0.0000000000000E+00  0.0000000000000E+00 
 9.2000000000000E-01  9.2000000000000E-01  9.2000000000000E-01  9.2000000000000E-01  9.2000000000000E-01  9.2000000000000E-01  9.2000000000000E-01  9.2000000000000E-01  9.2000000000000E-01  9.2000000000000E-01 
 4.0000000000000E-02  4.0000000000000E-02  4.0000000000000E-02  4.0000000000000E-02  4.0000000000000E-02  4.0000000000000E-02  4.0000000000000E-02  4.0000000000000E-02  4.0000000000000E-02  4.0000000000000E-02 
 4.0000000000000E-02  4.0000000000000E-02  4.0000000000000E-02  4.0000000000000E-02  4.0000000000000E-02  4.0000000000000E-02  4.0000000000000E-02  4.0000000000000E-02  4.0000000000000E-02  4.0000000000000E-02 
-7.0000000000000E-02 -7.0000000000000E-02 -7.0000000000000E-02 -7.0000000000000E-02 -7.0000000000000E-02 -7.0000000000000E-02 -7.0000000000000E-02 -7.0000000000000E-02 -7.0000000000000E-02 -7.0000000000000E-02 
 3.8000000000000E+00  3.8000000000000E+00  3.8000000000000E+00  3.8000000000000E+00  3.8000000000000E+00  3.8000000000000E+00  3.8000000000000E+00  3.8000000000000E+00  3.8000000000000E+00  3.8000000000000E+00 
 3.8700000000000E+00  3.8700000000000E+00  3.8700000000000E+00  3.8700000000000E+00  3.8700000000000E+00  3.8700000000000E+00  3.8700000000000E+00  3.8700000000000E+00  3.8700000000000E+00  3.8700000000000E+00 
 3.9714142503926E+00  3.9714142503926E+00  3.9714142503926E+00  3.9714142503926E+00  3.9714142503926E+00  3.9714142503926E+00  3.9714142503926E+00  3.9714142503926E+00  3.9714142503926E+00  3.9714142503926E+00 
-1.0141425039263E-01 -1.0141425039263E-01 -1.0141425039263E-01 -1.0141425039263E-01 -1.0141425039263E-01 -1.0141425039263E-01 -1.0141425039263E-01 -1.0141425039263E-01 -1.0141425039263E-01 -1.0141425039263E-01 
-2.3826347105691E-01 -4.7652694211382E-01 -4.7652694211382E-01 -4.7652694211382E-01 -4.7652694211382E-01 -4.7652694211382E-01 -4.7652694211382E-01 -4.7652694211382E-01 -4.7652694211382E-01 -2.3826347105691E-01 
-0.0000000000000E+00 -0.0000000000000E+00 -0.0000000000000E+00 -0.0000000000000E+00 -0.0000000000000E+00 -0.0000000000000E+00 -0.0000000000000E+00 -0.0000000000000E+00 -0.0000000000000E+00 -0.0000000000000E+00 
 2.3826347105691E-01  0.0000000000000E+00  0.0000000000000E+00  0.0000000000000E+00  0.0000000000000E+00  0.0000000000000E+00  0.0000000000000E+00  0.0000000000000E+00  0.0000000000000E+00  0.0000000000000E+00 
 0.0000000000000E+00 -0.0000000000000E+00 -0.0000000000000E+00 -0.0000000000000E+00 -0.0000000000000E+00 -0.0000000000000E+00 -0.0000000000000E+00 -0.0000000000000E+00 -0.0000000000000E+00  2.3826347105691E-01 
-0.0000000000000E+00 -0.0000000000000E+00 -0.0000000000000E+00 -0.0000000000000E+00 -0.0000000000000E+00 -0.0000000000000E+00 -0.0000000000000E+00 -0.0000000000000E+00 -0.0000000000000E+00 -0.0000000000000E+00 
 5.2083019618450E+03  1.0416603923690E+04  1.0416603923690E+04  1.0416603923690E+04  1.0416603923690E+04  1.0416603923690E+04  1.0416603923690E+04  1.0416603923690E+04  1.0416603923690E+04  5.2083019618450E+03 
 3.5416453340546E+04  7.0832906681092E+04  7.0832906681093E+04  7.0832906681092E+04  7.0832906681093E+04  7.0832906681093E+04  7.0832906681092E+04  7.0832906681093E+04  7.0832906681092E+04  3.5416453340546E+04 
 4.0624755302391E+04  8.1249510604782E+04  8.1249510604783E+04  8.1249510604782E+04  8.1249510604783E+04  8.1249510604783E+04  8.1249510604782E+04  8.1249510604783E+04  8.1249510604782E+04  4.0624755302391E+04 
 3.5000000000000E-01  3.5000000000000E-01  3.5000000000000E-01  3.5000000000000E-01  3.5000000000000E-01  3.5000000000000E-01  3.5000000000000E-01  3.5000000000000E-01  3.5000000000000E-01  3.5000000000000E-01 
 6.6040000000000E+00  1.3208000000000E+01  1.3208000000000E+01  1.3208000000000E+01  1.3208000000000E+01  1.3208000000000E+01  1.3208000000000E+01  1.3208000000000E+01  1.3208000000000E+01  6.6040000000000E+00 
-3.6078660063130E-02 -3.6078660063130E-02 -3.6078660063130E-02 -3.6078660063130E-02 -3.6078660063130E-02 -3.6078660063130E-02 -3.6078660063130E-02 -3.6078660063130E-02 -3.6078660063130E-02 -3.6078660063130E-02 
 3.3866666666667E-05  6.7733333333333E-05  6.7733333333334E-05  6.7733333333333E-05  6.7733333333334E-05  6.7733333333334E-05  6.7733333333333E-05  6.7733333333334E-05  6.7733333333333E-05  3.3866666666667E-05 
 1.9126857953556E+01  1.9126857953556E+01  1.9126857953556E+01  1.9126857953556E+01  1.9126857953556E+01  1.9126857953556E+01  1.9126857953556E+01  1.9126857953556E+01  1.9126857953556E+01  1.9126857953556E+01 
 1.2751238635704E+01  1.2751238635704E+01  1.2751238635704E+01  1.2751238635704E+01  1.2751238635704E+01  1.2751238635704E+01  1.2751238635704E+01  1.2751238635704E+01  1.2751238635704E+01  1.2751238635704E+01 
 0.0000000000000E+00  0.0000000000000E+00  0.0000000000000E+00  0.0000000000000E+00  0.0000000000000E+00  0.0000000000000E+00  0.0000000000000E+00  0.0000000000000E+00  0.0000000000000E+00  0.0000000000000E+00 
 0.0000000000000E+00  0.0000000000000E+00  0.0000000000000E+00  0.0000000000000E+00  0.0000000000000E+00  0.0000000000000E+00  0.0000000000000E+00  0.0000000000000E+00  0.0000000000000E+00  0.0000000000000E+00 
 0.0000000000000E+00  0.0000000000000E+00  0.0000000000000E+00  0.0000000000000E+00  0.0000000000000E+00  0.0000000000000E+00  0.0000000000000E+00  0.0000000000000E+00  0.0000000000000E+00  0.0000000000000E+00 
 0.0000000000000E+00  0.0000000000000E+00  0.0000000000000E+00  0.0000000000000E+00  0.0000000000000E+00  0.0000000000000E+00  0.0000000000000E+00  0.0000000000000E+00  0.0000000000000E+00  0.0000000000000E+00 
 0.0000000000000E+00  0.0000000000000E+00  0.0000000000000E+00  0.0000000000000E+00  0.0000000000000E+00  0.0000000000000E+00  0.0000000000000E+00  0.0000000000000E+00  0.0000000000000E+00  0.0000000000000E+00 
 0.0000000000000E+00  0.0000000000000E+00  0.0000000000000E+00  0.0000000000000E+00  0.0000000000000E+00  0.0000000000000E+00  0.0000000000000E+00  0.0000000000000E+00  0.0000000000000E+00  0.0000000000000E+00 
 0.0000000000000E+00  0.0000000000000E+00  0.0000000000000E+00  0.0000000000000E+00  0.0000000000000E+00  0.0000000000000E+00  0.0000000000000E+00  0.0000000000000E+00  0.0000000000000E+00  0.0000000000000E+00 
ZONE T = "CATH, 1.0000E-08", I = 10, SOLUTIONTIME = 1.000000E-08
ZONETYPE = ORDERED
DATAPACKING = BLOCK
STRANDID = 3
 1.2700000000000E-03  1.3377333333333E-03  1.4054666666667E-03  1.4732000000000E-03  1.5409333333333E-03  1.6086666666667E-03  1.6764000000000E-03  1.7441333333333E-03  1.8118666666667E-03  1.8796000000000E-03 
 1.9704888830013E-08  1.7389346406829E-08  1.5073520664417E-08  1.2757216029436E-08  1.0440236766141E-08  8.1223869114986E-09  5.8031070009268E-09  3.4825636250340E-09  1.1609229472545E-09 -7.2641561888598E-13 
 9.2000000000032E-01  9.2000000000090E-01  9.2000000000090E-01  9.2000000000090E-01  9.2000000000090E-01  9.2000000000090E-01  9.2000000000090E-01  9.2000000000090E-01  9.2000000000090E-01  9.2000000000090E-01 
 3.9999999999841E-02  3.9999999999551E-02  3.9999999999551E-02  3.9999999999551E-02  3.9999999999550E-02  3.9999999999550E-02  3.9999999999550E-02  3.9999999999550E-02  3.9999999999550E-02  3.9999999999549E-02 
 3.9999999999841E-02  3.9999999999551E-02  3.9999999999551E-02  3.9999999999551E-02  3.9999999999550E-02  3.9999999999550E-02  3.9999999999550E-02  3.9999999999550E-02  3.9999999999550E-02  3.9999999999549E-02 
 2.9165720850641E-02  2.9165513840304E-02  2.9165331155963E-02  2.9165172800618E-02  2.9165038779264E-02  2.9164929099033E-02  2.9164843769031E-02  2.9164782800489E-02  2.9164746206671E-02  2.9164734002924E-02 
 3.8001746422252E+00  3.8001724873347E+00  3.8001660224999E+00  3.8001552471932E+00  3.8001401605235E+00  3.8001207612349E+00  3.8000970477071E+00  3.8000690179542E+00  3.8000366696247E+00  3.8000000000000E+00 
 3.7710089213746E+00  3.7710069734944E+00  3.7710006913439E+00  3.7709900743926E+00  3.7709751217442E+00  3.7709558321359E+00  3.7709322039380E+00  3.7709042351537E+00  3.7708719234180E+00  3.7708352659971E+00 
 3.9714142503924E+00  3.9714142503922E+00  3.9714142503922E+00  3.9714142503922E+00  3.9714142503922E+00  3.9714142503922E+00  3.9714142503922E+00  3.9714142503922E+00  3.9714142503922E+00  3.9714142503922E+00 
-2.0040532901786E-01 -2.0040727689780E-01 -2.0041355904833E-01 -2.0042417599961E-01 -2.0043912864802E-01 -2.0045841825636E-01 -2.0048204645420E-01 -2.0051001523849E-01 -2.0054232697421E-01 -2.0057898439516E-01 
-1.6672275927460E+00 -3.3345816921927E+00 -3.3349897243524E+00 -3.3356794196033E+00 -3.3366510106377E+00 -3.3379048253837E+00 -3.3394412872297E+00 -3.3412609153388E+00 -3.3433643250155E+00 -1.6728761140758E+00 
 1.4705153906464E-07  1.2977124548083E-07  1.1248895408952E-07  9.5203113406674E-08  7.7912206844882E-08  6.0614831989255E-08  4.3309479383280E-08  2.5994703697496E-08  8.6690270581426E-09  8.6690270581426E-09 
 3.0043836457151E+01  2.6709326712754E+01  2.3374556859733E+01  2.0039239002298E+01  1.6703089907520E+01  1.3365827934310E+01  1.0027172129277E+01  6.6868373992903E+00  3.3445416983009E+00  0.0000000000000E+00 
 0.0000000000000E+00  3.3345022706385E+00  6.6692717911279E+00  1.0004590134122E+01  1.3340739058329E+01  1.6678000602135E+01  2.0016657179643E+01  2.3356991675667E+01  2.6699287542116E+01  3.0043837402014E+01 
 1.6672275927460E-08  3.3345816921927E-08  3.3349897243524E-08  3.3356794196033E-08  3.3366510106377E-08  3.3379048253837E-08  3.3394412872297E-08  3.3412609153388E-08  3.3433643250155E-08  1.6728761140758E-08 
 5.2083019618617E+03  1.0416603923723E+04  1.0416603923723E+04  1.0416603923723E+04  1.0416603923723E+04  1.0416603923723E+04  1.0416603923723E+04  1.0416603923723E+04  1.0416603923723E+04  5.2083019618618E+03 
 3.5416453340530E+04  7.0832906681059E+04  7.0832906681059E+04  7.0832906681059E+04  7.0832906681059E+04  7.0832906681059E+04  7.0832906681059E+04  7.0832906681059E+04  7.0832906681059E+04  3.5416453340530E+04 
 4.0624755302391E+04  8.1249510604782E+04  8.1249510604783E+04  8.1249510604782E+04  8.1249510604783E+04  8.1249510604783E+04  8.1249510604782E+04  8.1249510604783E+04  8.1249510604782E+04  4.0624755302391E+04 
 3.5000000000000E-01  3.5000000000000E-01  3.5000000000000E-01  3.5000000000000E-01  3.5000000000000E-01  3.5000000000000E-01  3.5000000000000E-01  3.5000000000000E-01  3.5000000000000E-01  3.5000000000000E-01 
 6.6040000000001E+00  1.3208000000000E+01  1.3208000000000E+01  1.3208000000000E+01  1.3208000000000E+01  1.3208000000000E+01  1.3208000000000E+01  1.3208000000000E+01  1.3208000000000E+01  6.6040000000001E+00 
-2.5245723693912E-01 -2.5246681497522E-01 -2.5249770777955E-01 -2.5254992577251E-01 -2.5262348657160E-01 -2.5271841500482E-01 -2.5283474312763E-01 -2.5297251024673E-01 -2.5313176294787E-01 -2.5331255512958E-01 
 3.3866666666667E-05  6.7733333333333E-05  6.7733333333334E-05  6.7733333333333E-05  6.7733333333334E-05  6.7733333333334E-05  6.7733333333333E-05  6.7733333333334E-05  6.7733333333333E-05  3.3866666666667E-05 
 1.9126857953561E+01  1.9126857953561E+01  1.9126857953561E+01  1.9126857953561E+01  1.9126857953561E+01  1.9126857953561E+01  1.9126857953561E+01  1.9126857953561E+01  1.9126857953561E+01  1.9126857953561E+01 
 1.2751238635699E+01  1.2751238635699E+01  1.2751238635699E+01  1.2751238635699E+01  1.2751238635699E+01  1.2751238635699E+01  1.2751238635699E+01  1.2751238635699E+01  1.2751238635699E+01  1.2751238635699E+01 
 1.3976761977494E-09  3.4235307926409E-09  9.6096749870302E-09  2.0066094457828E-08  3.4796321331774E-08  5.3805333298405E-08  7.7099557248996E-08  1.0468687364500E-07  1.3657662246223E-07  1.5359836387005E-07 
 1.3976761977494E-01  3.4235307926409E-01  9.6096749870302E-01  2.0066094457828E+00  3.4796321331774E+00  5.3805333298405E+00  7.7099557248996E+00  1.0468687364500E+01  1.3657662246223E+01  1.5359836387005E+01 
 8.6726152055997E-02  7.7133667099464E-02  5.9145323637216E-02  4.3550134281297E-02  3.0348264520752E-02  1.9540691616847E-02  1.1129212532632E-02  5.1164216604905E-03  1.5057411203251E-03  3.0140636165168E-04 
 5.3041467718947E-02  2.6521941216462E-01  9.0182217506580E-01  1.9630593115015E+00  3.4492838686567E+00  5.3609926382236E+00  7.6988265123670E+00  1.0463570942840E+01  1.3656156505102E+01  1.5359534980643E+01 
 0.0000000000000E+00  0.0000000000000E+00  0.0000000000000E+00  0.0000000000000E+00  0.0000000000000E+00  0.0000000000000E+00  0.0000000000000E+00  0.0000000000000E+00  0.0000000000000E+00  0.0000000000000E+00 
 0.0000000000000E+00  0.0000000000000E+00  0.0000000000000E+00  0.0000000000000E+00  0.0000000000000E+00  0.0000000000000E+00  0.0000000000000E+00  0.0000000000000E+00  0.0000000000000E+00  0.0000000000000E+00 
 0.0000000000000E+00  0.0000000000000E+00  0.0000000000000E+00  0.0000000000000E+00  0.0000000000000E+00  0.0000000000000E+00  0.0000000000000E+00  0.0000000000000E+00  0.0000000000000E+00  0.0000000000000E+00 
ZONE T = "CATH, 2.0000E-08", I = 10, SOLUTIONTIME = 2.000000E-08
ZONETYPE = ORDERED
DATAPACKING = BLOCK
STRANDID = 3
 1.2700000000000E-03  1.3377333333333E-03  1.4054666666667E-03  1.4732000000000E-03  1.5409333333333E-03  1.6086666666667E-03  1.6764000000000E-03  1.7441333333333E-03  1.8118666666667E-03  1.8796000000000E-03 
 1.9701717754323E-08  1.7386164040199E-08  1.5069600569236E-08  1.2752558167379E-08  1.0435567498984E-08  8.1180693775044E-09  5.7991411146513E-09  3.4782228693455E-09  1.1565704118633E-09 -5.0849081889618E-12 
 9.2000000000063E-01  9.2000000000180E-01  9.2000000000180E-01  9.2000000000180E-01  9.2000000000180E-01  9.2000000000180E-01  9.2000000000180E-01  9.2000000000180E-01  9.2000000000180E-01  9.2000000000180E-01 
 3.9999999999683E-02  3.9999999999101E-02  3.9999999999101E-02  3.9999999999101E-02  3.9999999999101E-02  3.9999999999100E-02  3.9999999999100E-02  3.9999999999100E-02  3.9999999999099E-02  3.9999999999098E-02 
 3.9999999999683E-02  3.9999999999101E-02  3.9999999999101E-02  3.9999999999101E-02  3.9999999999101E-02  3.9999999999100E-02  3.9999999999100E-02  3.9999999999100E-02  3.9999999999099E-02  3.9999999999098E-02 
 2.9165723037780E-02  2.9165516026412E-02  2.9165333341167E-02  2.9165174985023E-02  2.9165040963011E-02  2.9164931282218E-02  2.9164845951792E-02  2.9164784982941E-02  2.9164748388939E-02  2.9164736185132E-02 
 3.8001746430835E+00  3.8001724881825E+00  3.8001660233161E+00  3.8001552479569E+00  3.8001401612135E+00  3.8001207618299E+00  3.8000970481858E+00  3.8000690182952E+00  3.8000366698061E+00  3.8000000000000E+00 
 3.7710089200457E+00  3.7710069721561E+00  3.7710006899750E+00  3.7709900729719E+00  3.7709751202504E+00  3.7709558305477E+00  3.7709322022340E+00  3.7709042333122E+00  3.7708719214172E+00  3.7708352638149E+00 
 3.9714142503922E+00  3.9714142503918E+00  3.9714142503918E+00  3.9714142503918E+00  3.9714142503918E+00  3.9714142503918E+00  3.9714142503918E+00  3.9714142503918E+00  3.9714142503918E+00  3.9714142503918E+00 
-2.0040533034652E-01 -2.0040727823574E-01 -2.0041356041688E-01 -2.0042417741994E-01 -2.0043913014139E-01 -2.0045841984410E-01 -2.0048204815780E-01 -2.0051001707959E-01 -2.0054232897464E-01 -2.0057898657696E-01 
-1.6672276358864E+00 -3.3345817790677E+00 -3.3349898132265E+00 -3.3356795118596E+00 -3.3366511076677E+00 -3.3379049285852E+00 -3.3394413980147E+00 -3.3412610351320E+00 -3.3433644552590E+00 -1.6728761851536E+00 
 1.4705240412834E-07  1.2977188743584E-07  1.1248952139043E-07  9.5203581224017E-08  7.7912606117728E-08  6.0615133550569E-08  4.3309698783009E-08  2.5994834420728E-08  8.6690698462585E-09  8.6690698462585E-09 
 3.0043977850305E+01  2.6709459324561E+01  2.3374673528232E+01  2.0039338865778E+01  1.6703173555946E+01  1.3365895537705E+01  1.0027222374547E+01  6.6868711581846E+00  3.3445584127198E+00  0.0000000000000E+00 
 0.0000000000000E+00  3.3345185254365E+00  6.6693043216827E+00  1.0004638984070E+01  1.3340804293809E+01  1.6678082312138E+01  2.0016755475318E+01  2.3357106691874E+01  2.6699419437076E+01  3.0043977849691E+01 
 3.3344552286324E-08  6.6691634712605E-08  6.6699795375789E-08  6.6713589314629E-08  6.6733021183054E-08  6.6758097539689E-08  6.6788826852445E-08  6.6825219504708E-08  6.6867287802745E-08  3.3457522992294E-08 
 5.2083019618784E+03  1.0416603923757E+04  1.0416603923757E+04  1.0416603923757E+04  1.0416603923757E+04  1.0416603923757E+04  1.0416603923757E+04  1.0416603923757E+04  1.0416603923757E+04  5.2083019618785E+03 
 3.5416453340513E+04  7.0832906681025E+04  7.0832906681026E+04  7.0832906681025E+04  7.0832906681026E+04  7.0832906681026E+04  7.0832906681025E+04  7.0832906681026E+04  7.0832906681025E+04  3.5416453340513E+04 
 4.0624755302391E+04  8.1249510604782E+04  8.1249510604783E+04  8.1249510604782E+04  8.1249510604783E+04  8.1249510604783E+04  8.1249510604782E+04  8.1249510604783E+04  8.1249510604782E+04  4.0624755302391E+04 
 3.5000000000000E-01  3.5000000000000E-01  3.5000000000000E-01  3.5000000000000E-01  3.5000000000000E-01  3.5000000000000E-01  3.5000000000000E-01  3.5000000000000E-01  3.5000000000000E-01  3.5000000000000E-01 
 6.6040000000001E+00  1.3208000000000E+01  1.3208000000000E+01  1.3208000000000E+01  1.3208000000000E+01  1.3208000000000E+01  1.3208000000000E+01  1.3208000000000E+01  1.3208000000000E+01  6.6040000000001E+00 
-2.5245724347159E-01 -2.5246682155267E-01 -2.5249771450836E-01 -2.5254993275738E-01 -2.5262349391790E-01 -2.5271842281838E-01 -2.5283475151535E-01 -2.5297251931647E-01 -2.5313177280883E-01 -2.5331256589243E-01 
 3.3866666666667E-05  6.7733333333333E-05  6.7733333333334E-05  6.7733333333333E-05  6.7733333333334E-05  6.7733333333334E-05  6.7733333333333E-05  6.7733333333334E-05  6.7733333333333E-05  3.3866666666667E-05 
 1.9126857953566E+01  1.9126857953566E+01  1.9126857953566E+01  1.9126857953566E+01  1.9126857953566E+01  1.9126857953566E+01  1.9126857953566E+01  1.9126857953566E+01  1.9126857953566E+01  1.9126857953566E+01 
 1.2751238635694E+01  1.2751238635694E+01  1.2751238635694E+01  1.2751238635694E+01  1.2751238635694E+01  1.2751238635694E+01  1.2751238635694E+01  1.2751238635694E+01  1.2751238635694E+01  1.2751238635694E+01 
 2.7953662055068E-09  6.8470951051797E-09  1.9219443858483E-08  4.0132384982891E-08  6.9592983068524E-08  1.0761119393177E-07  1.5419987182423E-07  2.0937477842795E-07  2.7315459445455E-07  3.0719824772149E-07 
 1.3976900077574E-01  3.4235643125388E-01  9.6097688714524E-01  2.0066290525064E+00  3.4796661736749E+00  5.3805860633361E+00  7.7100314575232E+00  1.0468790478295E+01  1.3657797199232E+01  1.5359988385145E+01 
 8.6727016062168E-02  7.7134433204651E-02  5.9145913657284E-02  4.3550568800968E-02  3.0348567862511E-02  1.9540889643754E-02  1.1129323910296E-02  5.1164733663846E-03  1.5057562178969E-03  3.0140932662805E-04 
 5.3041984713571E-02  2.6522199804923E-01  9.0183097348795E-01  1.9630784837054E+00  3.4493176058124E+00  5.3610451736924E+00  7.6989021336129E+00  1.0463674004928E+01  1.3656291443015E+01  1.5359686975818E+01 
 0.0000000000000E+00  0.0000000000000E+00  0.0000000000000E+00  0.0000000000000E+00  0.0000000000000E+00  0.0000000000000E+00  0.0000000000000E+00  0.0000000000000E+00  0.0000000000000E+00  0.0000000000000E+00 
 0.0000000000000E+00  0.0000000000000E+00  0.0000000000000E+00  0.0000000000000E+00  0.0000000000000E+00  0.0000000000000E+00  0.0000000000000E+00  0.0000000000000E+00  0.0000000000000E+00  0.0000000000000E+00 
 0.0000000000000E+00  0.0000000000000E+00  0.0000000000000E+00  0.0000000000000E+00  0.0000000000000E+00  0.0000000000000E+00  0.0000000000000E+00  0.0000000000000E+00  0.0000000000000E+00  0.0000000000000E+00 
ZONE T = "CATH, 3.0000E-08", I = 10, SOLUTIONTIME = 3.000000E-08
ZONETYPE = ORDERED
DATAPACKING = BLOCK
STRANDID = 3
 1.2700000000000E-03  1.3377333333333E-03  1.4054666666667E-03  1.4732000000000E-03  1.5409333333333E-03  1.6086666666667E-03  1.6764000000000E-03  1.7441333333333E-03  1.8118666666667E-03  1.8796000000000E-03 
 1.9708255493013E-08  1.7392701778936E-08  1.5077591138932E-08  1.2762001568035E-08  1.0445010899689E-08  8.1267863628017E-09  5.8078580999969E-09  3.4876662701951E-09  1.1660138127614E-09  4.3584927333862E-12 
 9.2000000000095E-01  9.2000000000270E-01  9.2000000000270E-01  9.2000000000270E-01  9.2000000000270E-01  9.2000000000270E-01  9.2000000000270E-01  9.2000000000270E-01  9.2000000000270E-01  9.2000000000270E-01 
 3.9999999999524E-02  3.9999999998652E-02  3.9999999998652E-02  3.9999999998652E-02  3.9999999998651E-02  3.9999999998651E-02  3.9999999998650E-02  3.9999999998649E-02  3.9999999998649E-02  3.9999999998648E-02 
 3.9999999999524E-02  3.9999999998652E-02  3.9999999998652E-02  3.9999999998652E-02  3.9999999998651E-02  3.9999999998651E-02  3.9999999998650E-02  3.9999999998649E-02  3.9999999998649E-02  3.9999999998648E-02 
 2.9165723037416E-02  2.9165516026048E-02  2.9165333340803E-02  2.9165174984659E-02  2.9165040962647E-02  2.9164931281854E-02  2.9164845951428E-02  2.9164784982577E-02  2.9164748388576E-02  2.9164736184768E-02 
 3.8001746430835E+00  3.8001724881825E+00  3.8001660233161E+00  3.8001552479569E+00  3.8001401612135E+00  3.8001207618299E+00  3.8000970481858E+00  3.8000690182952E+00  3.8000366698061E+00  3.8000000000000E+00 
 3.7710089200460E+00  3.7710069721565E+00  3.7710006899753E+00  3.7709900729723E+00  3.7709751202508E+00  3.7709558305481E+00  3.7709322022344E+00  3.7709042333126E+00  3.7708719214176E+00  3.7708352638152E+00 
 3.9714142503920E+00  3.9714142503914E+00  3.9714142503914E+00  3.9714142503914E+00  3.9714142503914E+00  3.9714142503914E+00  3.9714142503914E+00  3.9714142503914E+00  3.9714142503914E+00  3.9714142503914E+00 
-2.0040533034595E-01 -2.0040727823498E-01 -2.0041356041612E-01 -2.0042417741918E-01 -2.0043913014063E-01 -2.0045841984334E-01 -2.0048204815704E-01 -2.0051001707883E-01 -2.0054232897388E-01 -2.0057898657620E-01 
-1.6672276358639E+00 -3.3345817789984E+00 -3.3349898131572E+00 -3.3356795117901E+00 -3.3366511075983E+00 -3.3379049285157E+00 -3.3394413979451E+00 -3.3412610350623E+00 -3.3433644551892E+00 -1.6728761851187E+00 
 1.4705253669613E-07  1.2977188746262E-07  1.1248952143153E-07  9.5203581282341E-08  7.7912606192837E-08  6.0615133645374E-08  4.3309698890108E-08  2.5994834549989E-08  8.6690699976820E-09  8.6690699976820E-09 
 3.0043977849115E+01  2.6709459323837E+01  2.3374673527732E+01  2.0039338865315E+01  1.6703173555758E+01  1.3365895537554E+01  1.0027222374196E+01  6.6868711578716E+00  3.3445584129199E+00  0.0000000000000E+00 
 0.0000000000000E+00  3.3345185254365E+00  6.6693043215109E+00  1.0004638983898E+01  1.3340804293638E+01  1.6678082311623E+01  2.0016755474803E+01  2.3357106691358E+01  2.6699419436561E+01  3.0043977849312E+01 
 5.0016828644963E-08  1.0003745250259E-07  1.0004969350736E-07  1.0007038443253E-07  1.0009953225904E-07  1.0013714682485E-07  1.0018324083190E-07  1.0023782985533E-07  1.0030093235464E-07  5.0186284843481E-08 
 5.2083019618950E+03  1.0416603923790E+04  1.0416603923790E+04  1.0416603923790E+04  1.0416603923790E+04  1.0416603923790E+04  1.0416603923790E+04  1.0416603923790E+04  1.0416603923790E+04  5.2083019618952E+03 
 3.5416453340496E+04  7.0832906680992E+04  7.0832906680993E+04  7.0832906680992E+04  7.0832906680992E+04  7.0832906680992E+04  7.0832906680992E+04  7.0832906680992E+04  7.0832906680992E+04  3.5416453340496E+04 
 4.0624755302391E+04  8.1249510604782E+04  8.1249510604783E+04  8.1249510604782E+04  8.1249510604783E+04  8.1249510604783E+04  8.1249510604782E+04  8.1249510604783E+04  8.1249510604782E+04  4.0624755302391E+04 
 3.5000000000000E-01  3.5000000000000E-01  3.5000000000000E-01  3.5000000000000E-01  3.5000000000000E-01  3.5000000000000E-01  3.5000000000000E-01  3.5000000000000E-01  3.5000000000000E-01  3.5000000000000E-01 
 6.6040000000002E+00  1.3208000000000E+01  1.3208000000000E+01  1.3208000000000E+01  1.3208000000000E+01  1.3208000000000E+01  1.3208000000000E+01  1.3208000000000E+01  1.3208000000000E+01  6.6040000000002E+00 
-2.5245724346818E-01 -2.5246682154742E-01 -2.5249771450311E-01 -2.5254993275212E-01 -2.5262349391264E-01 -2.5271842281312E-01 -2.5283475151007E-01 -2.5297251931119E-01 -2.5313177280354E-01 -2.5331256588713E-01 
 3.3866666666667E-05  6.7733333333333E-05  6.7733333333334E-05  6.7733333333333E-05  6.7733333333334E-05  6.7733333333334E-05  6.7733333333333E-05  6.7733333333334E-05  6.7733333333333E-05  3.3866666666667E-05 
 1.9126857953571E+01  1.9126857953571E+01  1.9126857953571E+01  1.9126857953571E+01  1.9126857953571E+01  1.9126857953571E+01  1.9126857953571E+01  1.9126857953571E+01  1.9126857953571E+01  1.9126857953571E+01 
 1.2751238635688E+01  1.2751238635688E+01  1.2751238635688E+01  1.2751238635688E+01  1.2751238635688E+01  1.2751238635688E+01  1.2751238635688E+01  1.2751238635688E+01  1.2751238635688E+01  1.2751238635688E+01 
 4.1930562131995E-09  1.0270659417682E-08  2.8829212729371E-08  6.0198675507392E-08  1.0438964480429E-07  1.6141705456174E-07  2.3130018639563E-07  3.1406268320619E-07  4.0973256644173E-07  4.6079813156922E-07 
 1.3976900076926E-01  3.4235643125026E-01  9.6097688708880E-01  2.0066290524501E+00  3.4796661735762E+00  5.3805860629969E+00  7.7100314571399E+00  1.0468790477824E+01  1.3657797198718E+01  1.5359988384773E+01 
 8.6727016055694E-02  7.7134433201035E-02  5.9145913655507E-02  4.3550568799367E-02  3.0348567862170E-02  1.9540889643535E-02  1.1129323909743E-02  5.1164733658989E-03  1.5057562179656E-03  3.0140932679603E-04 
 5.3041984713571E-02  2.6522199804923E-01  9.0183097343329E-01  1.9630784836507E+00  3.4493176057140E+00  5.3610451733534E+00  7.6989021332301E+00  1.0463674004458E+01  1.3656291442500E+01  1.5359686975446E+01 
 0.0000000000000E+00  0.0000000000000E+00  0.0000000000000E+00  0.0000000000000E+00  0.0000000000000E+00  0.0000000000000E+00  0.0000000000000E+00  0.0000000000000E+00  0.0000000000000E+00  0.0000000000000E+00 
 0.0000000000000E+00  0.0000000000000E+00  0.0000000000000E+00  0.0000000000000E+00  0.0000000000000E+00  0.0000000000000E+00  0.0000000000000E+00  0.0000000000000E+00  0.0000000000000E+00  0.0000000000000E+00 
 0.0000000000000E+00  0.0000000000000E+00  0.0000000000000E+00  0.0000000000000E+00  0.0000000000000E+00  0.0000000000000E+00  0.0000000000000E+00  0.0000000000000E+00  0.0000000000000E+00  0.0000000000000E+00 
ZONE T = "CATH, 4.0000E-08", I = 10, SOLUTIONTIME = 4.000000E-08
ZONETYPE = ORDERED
DATAPACKING = BLOCK
STRANDID = 3
 1.2700000000000E-03  1.3377333333333E-03  1.4054666666667E-03  1.4732000000000E-03  1.5409333333333E-03  1.6086666666667E-03  1.6764000000000E-03  1.7441333333333E-03  1.8118666666667E-03  1.8796000000000E-03 
 1.9702807376685E-08  1.7387253662656E-08  1.5070690191790E-08  1.2754010997757E-08  1.0437020329459E-08  8.1191590003484E-09  5.7998675298643E-09  3.4800389078387E-09  1.1591128659092E-09 -2.1792463666904E-12 
 9.2000000000127E-01  9.2000000000359E-01  9.2000000000359E-01  9.2000000000360E-01  9.2000000000360E-01  9.2000000000360E-01  9.2000000000360E-01  9.2000000000360E-01  9.2000000000360E-01  9.2000000000361E-01 
 3.9999999999365E-02  3.9999999998203E-02  3.9999999998203E-02  3.9999999998202E-02  3.9999999998202E-02  3.9999999998201E-02  3.9999999998200E-02  3.9999999998199E-02  3.9999999998198E-02  3.9999999998197E-02 
 3.9999999999365E-02  3.9999999998203E-02  3.9999999998203E-02  3.9999999998202E-02  3.9999999998202E-02  3.9999999998201E-02  3.9999999998200E-02  3.9999999998199E-02  3.9999999998198E-02  3.9999999998197E-02 
 2.9165723037051E-02  2.9165516025682E-02  2.9165333340438E-02  2.9165174984294E-02  2.9165040962282E-02  2.9164931281489E-02  2.9164845951063E-02  2.9164784982212E-02  2.9164748388210E-02  2.9164736184403E-02 
 3.8001746430835E+00  3.8001724881825E+00  3.8001660233161E+00  3.8001552479569E+00  3.8001401612135E+00  3.8001207618299E+00  3.8000970481858E+00  3.8000690182952E+00  3.8000366698061E+00  3.8000000000000E+00 
 3.7710089200464E+00  3.7710069721568E+00  3.7710006899757E+00  3.7709900729726E+00  3.7709751202512E+00  3.7709558305485E+00  3.7709322022348E+00  3.7709042333130E+00  3.7708719214179E+00  3.7708352638156E+00 
 3.9714142503918E+00  3.9714142503910E+00  3.9714142503910E+00  3.9714142503910E+00  3.9714142503910E+00  3.9714142503910E+00  3.9714142503910E+00  3.9714142503910E+00  3.9714142503910E+00  3.9714142503910E+00 
-2.0040533034537E-01 -2.0040727823422E-01 -2.0041356041536E-01 -2.0042417741842E-01 -2.0043913013987E-01 -2.0045841984258E-01 -2.0048204815628E-01 -2.0051001707807E-01 -2.0054232897311E-01 -2.0057898657544E-01 
-1.6672276358412E+00 -3.3345817789290E+00 -3.3349898130877E+00 -3.3356795117206E+00 -3.3366511075287E+00 -3.3379049284460E+00 -3.3394413978754E+00 -3.3412610349924E+00 -3.3433644551192E+00 -1.6728761850836E+00 