TITLE = "Solution on Domain BulkDomain1D_2"
VARIABLES = "x [m]"  
"Vel_axial(0)" 	"MF_sp(ECDMC)" 	"MF_sp(Li+)" 	"MF_sp(PF6-)" 	"Volt(Electroly)" 	"Volt(CathodeVo)" 	
"Potential Drop Electrode-Electrolyte [V]" 	"Surf_0 Equilibrium Potential Drop Electrode-Electrolyte [V]" 	"Overpotential_0 [V]" 	"Current Source [A/m^2]" 	"Li+ flux [kmol/m^2/s]" 	"Electrolyte Current [A/m^2]" 	"Electrode Current [A/m^2]" 	
"Capacity discharged [A-s]" 	"Depth of discharge [-]" 	"Capacity remaining [A-s]" 	"Initial capacity [A-s]" 	"Porosity []" 	"Surface Area [m2/m2] (area per area)" 	"Specific current (per particle area) [A/m^2]" 	"Control volume thickness [m]" 	
"Moles LiCoO2 [mol/m^2] (per electrode area)" 	"Moles CoO2 [mol/m^2] (per electrode area)" 	

ZONE T = "t = 0 [s]" I = 10 SOLUTIONTIME = 0.0000000000000E+00
0.00127 	0 	0.92 	0.04 	0.04 	-0.07 	3.8 	
0 	0 	0 	0 	0 	0.119132 	0 	
0 	0 	0 	0 	0.35 	6.604 	-0.0360787 	3.38667e-05 	
5.39864e-07 	3.5991e-07 	
0.00133773 	0 	0.92 	0.04 	0.04 	-0.07 	3.8 	
0 	0 	0 	0 	0 	0 	-0 	
0 	0 	0 	0 	0.35 	13.208 	-0.0360787 	6.77333e-05 	
1.07973e-06 	7.19819e-07 	
0.00140547 	0 	0.92 	0.04 	0.04 	-0.07 	3.8 	
0 	0 	0 	0 	0 	0 	-0 	
0 	0 	0 	0 	0.35 	13.208 	-0.0360787 	6.77333e-05 	
1.07973e-06 	7.19819e-07 	
0.0014732 	0 	0.92 	0.04 	0.04 	-0.07 	3.8 	
0 	0 	0 	0 	0 	0 	-0 	
0 	0 	0 	0 	0.35 	13.208 	-0.0360787 	6.77333e-05 	
1.07973e-06 	7.19819e-07 	
0.00154093 	0 	0.92 	0.04 	0.04 	-0.07 	3.8 	
0 	0 	0 	0 	0 	0 	-0 	
0 	0 	0 	0 	0.35 	13.208 	-0.0360787 	6.77333e-05 	
1.07973e-06 	7.19819e-07 	
0.00160867 	0 	0.92 	0.04 	0.04 	-0.07 	3.8 	
0 	0 	0 	0 	0 	0 	-0 	
0 	0 	0 	0 	0.35 	13.208 	-0.0360787 	6.77333e-05 	
1.07973e-06 	7.19819e-07 	
0.0016764 	0 	0.92 	0.04 	0.04 	-0.07 	3.8 	
0 	0 	0 	0 	0 	0 	-0 	
0 	0 	0 	0 	0.35 	13.208 	-0.0360787 	6.77333e-05 	
1.07973e-06 	7.19819e-07 	
0.00174413 	0 	0.92 	0.04 	0.04 	-0.07 	3.8 	
0 	0 	0 	0 	0 	0 	-0 	
0 	0 	0 	0 	0.35 	13.208 	-0.0360787 	6.77333e-05 	
1.07973e-06 	7.19819e-07 	
0.00181187 	0 	0.92 	0.04 	0.04 	-0.07 	3.8 	
0 	0 	0 	0 	0 	0 	-0 	
0 	0 	0 	0 	0.35 	13.208 	-0.0360787 	6.77333e-05 	
1.07973e-06 	7.19819e-07 	
0.0018796 	0 	0.92 	0.04 	0.04 	-0.07 	3.8 	
0 	0 	0 	0 	0 	0 	0.119132 	
0 	0 	0 	0 	0.35 	6.604 	-0.0360787 	3.38667e-05 	
5.39864e-07 	3.5991e-07 	
ZONE T = "t = 1e-08 [s]" I = 10 SOLUTIONTIME = 1.0000000000000E-08
0.00127 	1.97215e-08 	0.92 	0.04 	0.04 	0.0291555 	3.80009 	
3.87 	3.97141 	-0.101414 	-0.238264 	-0 	29.2353 	0.834792 	
-5.97803e-12 	4.34075 	0.0740584 	0.0849493 	0.35 	6.604 	-0.252816 	3.38667e-05 	
5.39864e-07 	3.5991e-07 	
0.00133773 	1.74027e-08 	0.92 	0.04 	0.04 	0.0291553 	3.80009 	
3.87 	3.97141 	-0.101414 	-0.476527 	-0 	26.7309 	3.3392 	
-1.19561e-11 	8.6815 	0.148117 	0.169899 	0.35 	13.208 	-0.25282 	6.77333e-05 	
1.07973e-06 	7.19819e-07 	
0.00140547 	1.50838e-08 	0.92 	0.04 	0.04 	0.0291551 	3.80009 	
3.87 	3.97141 	-0.101414 	-0.476527 	-0 	23.3916 	6.67853 	
-1.19561e-11 	8.6815 	0.148117 	0.169899 	0.35 	13.208 	-0.252836 	6.77333e-05 	
1.07973e-06 	7.19819e-07 	
0.0014732 	1.27646e-08 	0.92 	0.04 	0.04 	0.029155 	3.80008 	
3.87 	3.97141 	-0.101414 	-0.476527 	-0 	20.052 	10.0181 	
-1.19561e-11 	8.6815 	0.148117 	0.169899 	0.35 	13.208 	-0.252863 	6.77333e-05 	
1.07973e-06 	7.19819e-07 	
0.00154093 	1.04451e-08 	0.92 	0.04 	0.04 	0.0291548 	3.80007 	
3.87 	3.97141 	-0.101414 	-0.476527 	-0 	16.7119 	13.3582 	
-1.19561e-11 	8.6815 	0.148117 	0.169899 	0.35 	13.208 	-0.252901 	6.77333e-05 	
1.07973e-06 	7.19819e-07 	
0.00160867 	8.12512e-09 	0.92 	0.04 	0.04 	0.0291547 	3.80006 	
3.87 	3.97141 	-0.101414 	-0.476527 	-0 	13.3713 	16.6988 	
-1.19561e-11 	8.6815 	0.148117 	0.169899 	0.35 	13.208 	-0.252951 	6.77333e-05 	
1.07973e-06 	7.19819e-07 	
0.0016764 	5.80458e-09 	0.92 	0.04 	0.04 	0.0291547 	3.80005 	
3.87 	3.97141 	-0.101414 	-0.476527 	-0 	10.0299 	20.0402 	
-1.19561e-11 	8.6815 	0.148117 	0.169899 	0.35 	13.208 	-0.253012 	6.77333e-05 	
1.07973e-06 	7.19819e-07 	
0.00174413 	3.48338e-09 	0.92 	0.04 	0.04 	0.0291546 	3.80004 	
3.87 	3.97141 	-0.101414 	-0.476527 	-0 	6.68771 	23.3824 	
-1.19561e-11 	8.6815 	0.148117 	0.169899 	0.35 	13.208 	-0.253084 	6.77333e-05 	
1.07973e-06 	7.19819e-07 	
0.00181187 	1.16142e-09 	0.92 	0.04 	0.04 	0.0291546 	3.80002 	
3.87 	3.97141 	-0.101414 	-0.476527 	-0 	3.34444 	26.7257 	
-1.19561e-11 	8.6815 	0.148117 	0.169899 	0.35 	13.208 	-0.253168 	6.77333e-05 	
1.07973e-06 	7.19819e-07 	
0.0018796 	0 	0.92 	0.04 	0.04 	0.0291545 	3.8 	
3.87 	3.97141 	-0.101414 	-0.238264 	-0 	0.836267 	29.2339 	
-5.97803e-12 	4.34075 	0.0740584 	0.0849493 	0.35 	6.604 	-0.253262 	3.38667e-05 	
5.39864e-07 	3.5991e-07 	
ZONE T = "t = 2e-08 [s]" I = 10 SOLUTIONTIME = 2.0000000000000E-08
0.00127 	1.97216e-08 	0.92 	0.04 	0.04 	0.0291555 	3.80009 	
3.77094 	3.97141 	-0.200478 	-1.66959 	1.47176e-07 	29.2355 	0.834797 	
-4.18901e-11 	4.34075 	0.0740584 	0.0849493 	0.35 	6.604 	-0.252816 	3.38667e-05 	
5.39864e-07 	3.5991e-07 	
0.00133773 	1.74028e-08 	0.92 	0.04 	0.04 	0.0291553 	3.80009 	
3.77094 	3.97141 	-0.200479 	-3.33925 	1.29871e-07 	26.7311 	3.33922 	
-8.37818e-11 	8.6815 	0.148117 	0.169899 	0.35 	13.208 	-0.25282 	6.77333e-05 	
1.07973e-06 	7.19819e-07 	
0.00140547 	1.50839e-08 	0.92 	0.04 	0.04 	0.0291551 	3.80009 	
3.77093 	3.97141 	-0.200482 	-3.33946 	1.12566e-07 	23.3917 	6.67857 	
-8.3787e-11 	8.6815 	0.148117 	0.169899 	0.35 	13.208 	-0.252836 	6.77333e-05 	
1.07973e-06 	7.19819e-07 	
0.0014732 	1.27647e-08 	0.92 	0.04 	0.04 	0.029155 	3.80008 	
3.77093 	3.97141 	-0.200488 	-3.33982 	9.52584e-08 	20.0521 	10.0182 	
-8.3796e-11 	8.6815 	0.148117 	0.169899 	0.35 	13.208 	-0.252863 	6.77333e-05 	
1.07973e-06 	7.19819e-07 	
0.00154093 	1.04452e-08 	0.92 	0.04 	0.04 	0.0291549 	3.80007 	
3.77092 	3.97141 	-0.200496 	-3.34032 	7.79485e-08 	16.712 	13.3583 	
-8.38087e-11 	8.6815 	0.148117 	0.169899 	0.35 	13.208 	-0.252901 	6.77333e-05 	
1.07973e-06 	7.19819e-07 	
0.00160867 	8.12517e-09 	0.92 	0.04 	0.04 	0.0291547 	3.80006 	
3.77091 	3.97141 	-0.200506 	-3.34098 	6.06352e-08 	13.3714 	16.6989 	
-8.38251e-11 	8.6815 	0.148117 	0.169899 	0.35 	13.208 	-0.252951 	6.77333e-05 	
1.07973e-06 	7.19819e-07 	
0.0016764 	5.80462e-09 	0.92 	0.04 	0.04 	0.0291547 	3.80005 	
3.7709 	3.97141 	-0.200518 	-3.34178 	4.33178e-08 	10.03 	20.0403 	
-8.38453e-11 	8.6815 	0.148117 	0.169899 	0.35 	13.208 	-0.253012 	6.77333e-05 	
1.07973e-06 	7.19819e-07 	
0.00174413 	3.48341e-09 	0.92 	0.04 	0.04 	0.0291546 	3.80004 	
3.77088 	3.97141 	-0.200533 	-3.34273 	2.59954e-08 	6.68775 	23.3826 	
-8.38692e-11 	8.6815 	0.148117 	0.169899 	0.35 	13.208 	-0.253084 	6.77333e-05 	
1.07973e-06 	7.19819e-07 	
0.00181187 	1.16143e-09 	0.92 	0.04 	0.04 	0.0291546 	3.80002 	
3.77086 	3.97141 	-0.20055 	-3.34384 	8.6673e-09 	3.34446 	26.7259 	
-8.38969e-11 	8.6815 	0.148117 	0.169899 	0.35 	13.208 	-0.253168 	6.77333e-05 	
1.07973e-06 	7.19819e-07 	
0.0018796 	0 	0.92 	0.04 	0.04 	0.0291545 	3.8 	
3.77085 	3.97141 	-0.200569 	-1.67254 	8.6673e-09 	0.836272 	29.234 	
-4.19641e-11 	4.34075 	0.0740584 	0.0849493 	0.35 	6.604 	-0.253262 	3.38667e-05 	
5.39864e-07 	3.5991e-07 	
ZONE T = "t = 3e-08 [s]" I = 10 SOLUTIONTIME = 3.0000000000000E-08
0.00127 	1.97216e-08 	0.92 	0.04 	0.04 	0.0291555 	3.80009 	
3.77094 	3.97141 	-0.200478 	-1.66959 	1.47177e-07 	29.2355 	0.834797 	
-8.37803e-11 	4.34075 	0.0740584 	0.0849493 	0.35 	6.604 	-0.252816 	3.38667e-05 	
5.39864e-07 	3.5991e-07 	
0.00133773 	1.74028e-08 	0.92 	0.04 	0.04 	0.0291553 	3.80009 	
3.77094 	3.97141 	-0.200479 	-3.33925 	1.29872e-07 	26.7311 	3.33922 	
-1.67564e-10 	8.6815 	0.148117 	0.169899 	0.35 	13.208 	-0.25282 	6.77333e-05 	
1.07973e-06 	7.19819e-07 	
0.00140547 	1.50839e-08 	0.92 	0.04 	0.04 	0.0291551 	3.80009 	
3.77093 	3.97141 	-0.200482 	-3.33946 	1.12566e-07 	23.3917 	6.67857 	
-1.67574e-10 	8.6815 	0.148117 	0.169899 	0.35 	13.208 	-0.252836 	6.77333e-05 	
1.07973e-06 	7.19819e-07 	
0.0014732 	1.27647e-08 	0.92 	0.04 	0.04 	0.029155 	3.80008 	
3.77093 	3.97141 	-0.200488 	-3.33982 	9.5259e-08 	20.0521 	10.0182 	
-1.67592e-10 	8.6815 	0.148117 	0.169899 	0.35 	13.208 	-0.252863 	6.77333e-05 	
1.07973e-06 	7.19819e-07 	
0.00154093 	1.04452e-08 	0.92 	0.04 	0.04 	0.0291549 	3.80007 	
3.77092 	3.97141 	-0.200496 	-3.34032 	7.7949e-08 	16.712 	13.3583 	
-1.67617e-10 	8.6815 	0.148117 	0.169899 	0.35 	13.208 	-0.252901 	6.77333e-05 	
1.07973e-06 	7.19819e-07 	
0.00160867 	8.12517e-09 	0.92 	0.04 	0.04 	0.0291547 	3.80006 	
3.77091 	3.97141 	-0.200506 	-3.34098 	6.06356e-08 	13.3714 	16.6989 	
-1.6765e-10 	8.6815 	0.148117 	0.169899 	0.35 	13.208 	-0.252951 	6.77333e-05 	
1.07973e-06 	7.19819e-07 	
0.0016764 	5.80462e-09 	0.92 	0.04 	0.04 	0.0291547 	3.80005 	
3.7709 	3.97141 	-0.200518 	-3.34178 	4.33181e-08 	10.03 	20.0403 	
-1.67691e-10 	8.6815 	0.148117 	0.169899 	0.35 	13.208 	-0.253012 	6.77333e-05 	
1.07973e-06 	7.19819e-07 	
0.00174413 	3.48341e-09 	0.92 	0.04 	0.04 	0.0291546 	3.80004 	
3.77088 	3.97141 	-0.200533 	-3.34273 	2.59956e-08 	6.68775 	23.3826 	
-1.67738e-10 	8.6815 	0.148117 	0.169899 	0.35 	13.208 	-0.253084 	6.77333e-05 	
1.07973e-06 	7.19819e-07 	
0.00181187 	1.16143e-09 	0.92 	0.04 	0.04 	0.0291546 	3.80002 	
3.77086 	3.97141 	-0.20055 	-3.34384 	8.66735e-09 	3.34446 	26.7259 	
-1.67794e-10 	8.6815 	0.148117 	0.169899 	0.35 	13.208 	-0.253168 	6.77333e-05 	
1.07973e-06 	7.19819e-07 	
0.0018796 	0 	0.92 	0.04 	0.04 	0.0291545 	3.8 	
3.77085 	3.97141 	-0.200569 	-1.67254 	8.66735e-09 	0.836272 	29.234 	
-8.39283e-11 	4.34075 	0.0740584 	0.0849493 	0.35 	6.604 	-0.253262 	3.38667e-05 	
5.39864e-07 	3.5991e-07 	
ZONE T = "t = 4e-08 [s]" I = 10 SOLUTIONTIME = 4.0000000000000E-08
0.00127 	1.97216e-08 	0.92 	0.04 	0.04 	0.0291555 	3.80009 	
3.77094 	3.97141 	-0.200478 	-1.66959 	1.47177e-07 	29.2355 	0.834797 	
-1.2567e-10 	4.34075 	0.0740584 	0.0849493 	0.35 	6.604 	-0.252816 	3.38667e-05 	
5.39864e-07 	3.5991e-07 	
0.00133773 	1.74028e-08 	0.92 	0.04 	0.04 	0.0291553 	3.80009 	
3.77094 	3.97141 	-0.200479 	-3.33925 	1.29872e-07 	26.7311 	3.33922 	
-2.51345e-10 	8.6815 	0.148117 	0.169899 	0.35 	13.208 	-0.25282 	6.77333e-05 	
1.07973e-06 	7.19819e-07 	
0.00140547 	1.50839e-08 	0.92 	0.04 	0.04 	0.0291551 	3.80009 	
3.77093 	3.97141 	-0.200482 	-3.33946 	1.12566e-07 	23.3917 	6.67857 	
-2.51361e-10 	8.6815 	0.148117 	0.169899 	0.35 	13.208 	-0.252836 	6.77333e-05 	
1.07973e-06 	7.19819e-07 	
0.0014732 	1.27647e-08 	0.92 	0.04 	0.04 	0.029155 	3.80008 	
3.77093 	3.97141 	-0.200488 	-3.33982 	9.5259e-08 	20.0521 	10.0182 	
-2.51388e-10 	8.6815 	0.148117 	0.169899 	0.35 	13.208 	-0.252863 	6.77333e-05 	
1.07973e-06 	7.19819e-07 	
0.00154093 	1.04452e-08 	0.92 	0.04 	0.04 	0.0291549 	3.80007 	
3.77092 	3.97141 	-0.200496 	-3.34032 	7.7949e-08 	16.712 	13.3583 	
-2.51426e-10 	8.6815 	0.148117 	0.169899 	0.35 	13.208 	-0.252901 	6.77333e-05 	
1.07973e-06 	7.19819e-07 	
0.00160867 	8.12517e-09 	0.92 	0.04 	0.04 	0.0291547 	3.80006 	
3.77091 	3.97141 	-0.200506 	-3.34098 	6.06356e-08 	13.3714 	16.6989 	
-2.51475e-10 	8.6815 	0.148117 	0.169899 	0.35 	13.208 	-0.252951 	6.77333e-05 	
1.07973e-06 	7.19819e-07 	
0.0016764 	5.80462e-09 	0.92 	0.04 	0.04 	0.0291547 	3.80005 	
3.7709 	3.97141 	-0.200518 	-3.34178 	4.33181e-08 	10.03 	20.0403 	
-2.51536e-10 	8.6815 	0.148117 	0.169899 	0.35 	13.208 	-0.253012 	6.77333e-05 	
1.07973e-06 	7.19819e-07 	
0.00174413 	3.48341e-09 	0.92 	0.04 	0.04 	0.0291546 	3.80004 	
3.77088 	3.97141 	-0.200533 	-3.34273 	2.59956e-08 	6.68775 	23.3826 	
-2.51608e-10 	8.6815 	0.148117 	0.169899 	0.35 	13.208 	-0.253084 	6.77333e-05 	
1.07973e-06 	7.19819e-07 	
0.00181187 	1.16143e-09 	0.92 	0.04 	0.04 	0.0291546 	3.80002 	
3.77086 	3.97141 	-0.20055 	-3.34384 	8.66735e-09 	3.34446 	26.7259 	
-2.51691e-10 	8.6815 	0.148117 	0.169899 	0.35 	13.208 	-0.253168 	6.77333e-05 	
1.07973e-06 	7.19819e-07 	
0.0018796 	0 	0.92 	0.04 	0.04 	0.0291545 	3.8 	
3.77085 	3.97141 	-0.200569 	-1.67254 	8.66735e-09 	0.836272 	29.234 	
-1.25892e-10 	4.34075 	0.0740584 	0.0849493 	0.35 	6.604 	-0.253262 	3.38667e-05 	
5.39864e-07 	3.5991e-07 	
ZONE T = "t = 5.5e-08 [s]" I = 10 SOLUTIONTIME = 5.5000000000000E-08
0.00127 	1.97216e-08 	0.92 	0.04 	0.04 	0.0291555 	3.80009 	
3.77094 	3.97141 	-0.200478 	-1.66959 	1.47177e-07 	29.2355 	0.834797 	
-1.67561e-10 	4.34075 	0.0740584 	0.0849493 	0.35 	6.604 	-0.252816 	3.38667e-05 	
5.39864e-07 	3.5991e-07 	
0.00133773 	1.74028e-08 	0.92 	0.04 	0.04 	0.0291553 	3.80009 	
3.77094 	3.97141 	-0.200479 	-3.33925 	1.29872e-07 	26.7311 	3.33922 	
-3.35127e-10 	8.6815 	0.148117 	0.169899 	0.35 	13.208 	-0.25282 	6.77333e-05 	
1.07973e-06 	7.19819e-07 	
0.00140547 	1.50839e-08 	0.92 	0.04 	0.04 	0.0291551 	3.80009 	
3.77093 	3.97141 	-0.200482 	-3.33946 	1.12566e-07 	23.3917 	6.67857 	
-3.35148e-10 	8.6815 	0.148117 	0.169899 	0.35 	13.208 	-0.252836 	6.77333e-05 	
1.07973e-06 	7.19819e-07 	
0.0014732 	1.27647e-08 	0.92 	0.04 	0.04 	0.029155 	3.80008 	
3.77093 	3.97141 	-0.200488 	-3.33982 	9.5259e-08 	20.0521 	10.0182 	
-3.35184e-10 	8.6815 	0.148117 	0.169899 	0.35 	13.208 	-0.252863 	6.77333e-05 	
1.07973e-06 	7.19819e-07 	
0.00154093 	1.04452e-08 	0.92 	0.04 	0.04 	0.0291549 	3.80007 	
3.77092 	3.97141 	-0.200496 	-3.34032 	7.7949e-08 	16.712 	13.3583 	
-3.35235e-10 	8.6815 	0.148117 	0.169899 	0.35 	13.208 	-0.252901 	6.77333e-05 	
1.07973e-06 	7.19819e-07 	
0.00160867 	8.12517e-09 	0.92 	0.04 	0.04 	0.0291547 	3.80006 	
3.77091 	3.97141 	-0.200506 	-3.34098 	6.06356e-08 	13.3714 	16.6989 	
-3.353e-10 	8.6815 	0.148117 	0.169899 	0.35 	13.208 	-0.252951 	6.77333e-05 	
1.07973e-06 	7.19819e-07 	
0.0016764 	5.80462e-09 	0.92 	0.04 	0.04 	0.0291547 	3.80005 	
3.7709 	3.97141 	-0.200518 	-3.34178 	4.33181e-08 	10.03 	20.0403 	
-3.35381e-10 	8.6815 	0.148117 	0.169899 	0.35 	13.208 	-0.253012 	6.77333e-05 	
1.07973e-06 	7.19819e-07 	
0.00174413 	3.48341e-09 	0.92 	0.04 	0.04 	0.0291546 	3.80004 	
3.77088 	3.97141 	-0.200533 	-3.34273 	2.59956e-08 	6.68775 	23.3826 	
-3.35477e-10 	8.6815 	0.148117 	0.169899 	0.35 	13.208 	-0.253084 	6.77333e-05 	
1.07973e-06 	7.19819e-07 	
0.00181187 	1.16143e-09 	0.92 	0.04 	0.04 	0.0291546 	3.80002 	
3.77086 	3.97141 	-0.20055 	-3.34384 	8.66735e-09 	3.34446 	26.7259 	
-3.35588e-10 	8.6815 	0.148117 	0.169899 	0.35 	13.208 	-0.253168 	6.77333e-05 	
1.07973e-06 	7.19819e-07 	
0.0018796 	0 	0.92 	0.04 	0.04 	0.0291545 	3.8 	
3.77085 	3.97141 	-0.200569 	-1.67254 	8.66735e-09 	0.836272 	29.234 	
-1.67857e-10 	4.34075 	0.0740584 	0.0849493 	0.35 	6.604 	-0.253262 	3.38667e-05 	
5.39864e-07 	3.5991e-07 	
ZONE T = "t = 7.75e-08 [s]" I = 10 SOLUTIONTIME = 7.7500000000000E-08
0.00127 	1.97216e-08 	0.92 	0.04 	0.04 	0.0291555 	3.80009 	
3.77094 	3.97141 	-0.200478 	-1.66959 	1.47177e-07 	29.2355 	0.834797 	
-2.30396e-10 	4.34075 	0.0740584 	0.0849493 	0.35 	6.604 	-0.252816 	3.38667e-05 	
5.39864e-07 	3.5991e-07 	
0.00133773 	1.74028e-08 	0.92 	0.04 	0.04 	0.0291553 	3.80009 	
3.77094 	3.97141 	-0.200479 	-3.33925 	1.29872e-07 	26.7311 	3.33922 	
-4.608e-10 	8.6815 	0.148117 	0.169899 	0.35 	13.208 	-0.25282 	6.77333e-05 	
1.07973e-06 	7.19819e-07 	
0.00140547 	1.50839e-08 	0.92 	0.04 	0.04 	0.0291551 	3.80009 	
3.77093 	3.97141 	-0.200482 	-3.33946 	1.12566e-07 	23.3917 	6.67857 	
-4.60829e-10 	8.6815 	0.148117 	0.169899 	0.35 	13.208 	-0.252836 	6.77333e-05 	
1.07973e-06 	7.19819e-07 	
0.0014732 	1.27647e-08 	0.92 	0.04 	0.04 	0.029155 	3.80008 	
3.77093 	3.97141 	-0.200488 	-3.33982 	9.5259e-08 	20.0521 	10.0182 	
-4.60878e-10 	8.6815 	0.148117 	0.169899 	0.35 	13.208 	-0.252863 	6.77333e-05 	
1.07973e-06 	7.19819e-07 	
0.00154093 	1.04452e-08 	0.92 	0.04 	0.04 	0.0291549 	3.80007 	
3.77092 	3.97141 	-0.200496 	-3.34032 	7.7949e-08 	16.712 	13.3583 	
-4.60948e-10 	8.6815 	0.148117 	0.169899 	0.35 	13.208 	-0.252901 	6.77333e-05 	
1.07973e-06 	7.19819e-07 	
0.00160867 	8.12517e-09 	0.92 	0.04 	0.04 	0.0291547 	3.80006 	
3.77091 	3.97141 	-0.200506 	-3.34098 	6.06356e-08 	13.3714 	16.6989 	
-4.61038e-10 	8.6815 	0.148117 	0.169899 	0.35 	13.208 	-0.252951 	6.77333e-05 	
1.07973e-06 	7.19819e-07 	
0.0016764 	5.80462e-09 	0.92 	0.04 	0.04 	0.0291547 	3.80005 	
3.7709 	3.97141 	-0.200518 	-3.34178 	4.33181e-08 	10.03 	20.0403 	
-4.61149e-10 	8.6815 	0.148117 	0.169899 	0.35 	13.208 	-0.253012 	6.77333e-05 	
1.07973e-06 	7.19819e-07 	
0.00174413 	3.48341e-09 	0.92 	0.04 	0.04 	0.0291546 	3.80004 	
3.77088 	3.97141 	-0.200533 	-3.34273 	2.59956e-08 	6.68775 	23.3826 	
-4.61281e-10 	8.6815 	0.148117 	0.169899 	0.35 	13.208 	-0.253084 	6.77333e-05 	
1.07973e-06 	7.19819e-07 	
0.00181187 	1.16143e-09 	0.92 	0.04 	0.04 	0.0291546 	3.80002 	
3.77086 	3.97141 	-0.20055 	-3.34384 	8.66735e-09 	3.34446 	26.7259 	
-4.61433e-10 	8.6815 	0.148117 	0.169899 	0.35 	13.208 	-0.253168 	6.77333e-05 	
1.07973e-06 	7.19819e-07 	
0.0018796 	0 	0.92 	0.04 	0.04 	0.0291545 	3.8 	
3.77085 	3.97141 	-0.200569 	-1.67254 	8.66735e-09 	0.836272 	29.234 	
-2.30803e-10 	4.34075 	0.0740584 	0.0849493 	0.35 	6.604 	-0.253262 	3.38667e-05 	
5.39864e-07 	3.5991e-07 	
ZONE T = "t = 1.1125e-07 [s]" I = 10 SOLUTIONTIME = 1.1125000000000E-07
0.00127 	1.97216e-08 	0.92 	0.04 	0.04 	0.0291555 	3.80009 	
3.77094 	3.97141 	-0.200478 	-1.66959 	1.47177e-07 	29.2355 	0.834797 	
-3.24649e-10 	4.34075 	0.0740584 	0.0849493 	0.35 	6.604 	-0.252816 	3.38667e-05 	
5.39864e-07 	3.5991e-07 	
0.00133773 	1.74028e-08 	0.92 	0.04 	0.04 	0.0291553 	3.80009 	
3.77094 	3.97141 	-0.200479 	-3.33925 	1.29872e-07 	26.7311 	3.33922 	
-6.49309e-10 	8.6815 	0.148117 	0.169899 	0.35 	13.208 	-0.25282 	6.77333e-05 	
1.07973e-06 	7.19819e-07 	
0.00140547 	1.50839e-08 	0.92 	0.04 	0.04 	0.0291551 	3.80009 	
3.77093 	3.97141 	-0.200482 	-3.33946 	1.12566e-07 	23.3917 	6.67857 	
-6.49349e-10 	8.6815 	0.148117 	0.169899 	0.35 	13.208 	-0.252836 	6.77333e-05 	
1.07973e-06 	7.19819e-07 	
0.0014732 	1.27647e-08 	0.92 	0.04 	0.04 	0.029155 	3.80008 	
3.77093 	3.97141 	-0.200488 	-3.33982 	9.5259e-08 	20.0521 	10.0182 	
-6.49419e-10 	8.6815 	0.148117 	0.169899 	0.35 	13.208 	-0.252863 	6.77333e-05 	
1.07973e-06 	7.19819e-07 	
0.00154093 	1.04452e-08 	0.92 	0.04 	0.04 	0.0291548 	3.80007 	
3.77092 	3.97141 	-0.200496 	-3.34032 	7.7949e-08 	16.712 	13.3583 	
-6.49517e-10 	8.6815 	0.148117 	0.169899 	0.35 	13.208 	-0.252901 	6.77333e-05 	
1.07973e-06 	7.19819e-07 	
0.00160867 	8.12517e-09 	0.92 	0.04 	0.04 	0.0291547 	3.80006 	
3.77091 	3.97141 	-0.200506 	-3.34098 	6.06356e-08 	13.3714 	16.6989 	
-6.49645e-10 	8.6815 	0.148117 	0.169899 	0.35 	13.208 	-0.252951 	6.77333e-05 	
1.07973e-06 	7.19819e-07 	
0.0016764 	5.80462e-09 	0.92 	0.04 	0.04 	0.0291547 	3.80005 	
3.7709 	3.97141 	-0.200518 	-3.34178 	4.33181e-08 	10.03 	20.0403 	
-6.49801e-10 	8.6815 	0.148117 	0.169899 	0.35 	13.208 	-0.253012 	6.77333e-05 	
1.07973e-06 	7.19819e-07 	
0.00174413 	3.48341e-09 	0.92 	0.04 	0.04 	0.0291546 	3.80004 	
3.77088 	3.97141 	-0.200533 	-3.34273 	2.59956e-08 	6.68775 	23.3826 	
-6.49986e-10 	8.6815 	0.148117 	0.169899 	0.35 	13.208 	-0.253084 	6.77333e-05 	
1.07973e-06 	7.19819e-07 	
0.00181187 	1.16143e-09 	0.92 	0.04 	0.04 	0.0291546 	3.80002 	
3.77086 	3.97141 	-0.20055 	-3.34384 	8.66735e-09 	3.34446 	26.7259 	
-6.50201e-10 	8.6815 	0.148117 	0.169899 	0.35 	13.208 	-0.253168 	6.77333e-05 	
1.07973e-06 	7.19819e-07 	
0.0018796 	0 	0.92 	0.04 	0.04 	0.0291545 	3.8 	
3.77085 	3.97141 	-0.200569 	-1.67254 	8.66735e-09 	0.836272 	29.234 	
-3.25222e-10 	4.34075 	0.0740584 	0.0849493 	0.35 	6.604 	-0.253262 	3.38667e-05 	
5.39864e-07 	3.5991e-07 	
ZONE T = "t = 1.61875e-07 [s]" I = 10 SOLUTIONTIME = 1.6187500000000E-07
0.00127 	1.97216e-08 	0.92 	0.04 	0.04 	0.0291555 	3.80009 	
3.77094 	3.97141 	-0.200478 	-1.66959 	1.47178e-07 	29.2355 	0.834797 	
-4.66028e-10 	4.34075 	0.0740584 	0.0849493 	0.35 	6.604 	-0.252816 	3.38667e-05 	
5.39864e-07 	3.5991e-07 	
0.00133773 	1.74028e-08 	0.92 	0.04 	0.04 	0.0291553 	3.80009 	
3.77094 	3.97141 	-0.200479 	-3.33925 	1.29872e-07 	26.7311 	3.33922 	
-9.32072e-10 	8.6815 	0.148117 	0.169899 	0.35 	13.208 	-0.25282 	6.77333e-05 	
1.07973e-06 	7.19819e-07 	
0.00140547 	1.50839e-08 	0.92 	0.04 	0.04 	0.0291551 	3.80009 	
3.77093 	3.97141 	-0.200482 	-3.33946 	1.12566e-07 	23.3917 	6.67857 	
-9.32131e-10 	8.6815 	0.148117 	0.169899 	0.35 	13.208 	-0.252836 	6.77333e-05 	
1.07973e-06 	7.19819e-07 	
0.0014732 	1.27647e-08 	0.92 	0.04 	0.04 	0.029155 	3.80008 	
3.77093 	3.97141 	-0.200488 	-3.33982 	9.5259e-08 	20.0521 	10.0182 	
-9.3223e-10 	8.6815 	0.148117 	0.169899 	0.35 	13.208 	-0.252863 	6.77333e-05 	
1.07973e-06 	7.19819e-07 	
0.00154093 	1.04452e-08 	0.92 	0.04 	0.04 	0.0291548 	3.80007 	
3.77092 	3.97141 	-0.200496 	-3.34032 	7.7949e-08 	16.712 	13.3583 	
-9.32372e-10 	8.6815 	0.148117 	0.169899 	0.35 	13.208 	-0.252901 	6.77333e-05 	
1.07973e-06 	7.19819e-07 	
0.00160867 	8.12517e-09 	0.92 	0.04 	0.04 	0.0291547 	3.80006 	
3.77091 	3.97141 	-0.200506 	-3.34098 	6.06356e-08 	13.3714 	16.6989 	
-9.32554e-10 	8.6815 	0.148117 	0.169899 	0.35 	13.208 	-0.252951 	6.77333e-05 	
1.07973e-06 	7.19819e-07 	
0.0016764 	5.80462e-09 	0.92 	0.04 	0.04 	0.0291547 	3.80005 	
3.7709 	3.97141 	-0.200518 	-3.34178 	4.33181e-08 	10.03 	20.0403 	
-9.32779e-10 	8.6815 	0.148117 	0.169899 	0.35 	13.208 	-0.253012 	6.77333e-05 	
1.07973e-06 	7.19819e-07 	
0.00174413 	3.48341e-09 	0.92 	0.04 	0.04 	0.0291546 	3.80004 	
3.77088 	3.97141 	-0.200533 	-3.34273 	2.59956e-08 	6.68775 	23.3826 	
-9.33045e-10 	8.6815 	0.148117 	0.169899 	0.35 	13.208 	-0.253084 	6.77333e-05 	
1.07973e-06 	7.19819e-07 	
0.00181187 	1.16143e-09 	0.92 	0.04 	0.04 	0.0291546 	3.80002 	
3.77086 	3.97141 	-0.20055 	-3.34384 	8.66735e-09 	3.34446 	26.7259 	
-9.33353e-10 	8.6815 	0.148117 	0.169899 	0.35 	13.208 	-0.253168 	6.77333e-05 	
1.07973e-06 	7.19819e-07 	
0.0018796 	0 	0.92 	0.04 	0.04 	0.0291545 	3.8 	
3.77085 	3.97141 	-0.200569 	-1.67254 	8.66735e-09 	0.836272 	29.234 	
-4.66851e-10 	4.34075 	0.0740584 	0.0849493 	0.35 	6.604 	-0.253262 	3.38667e-05 	
5.39864e-07 	3.5991e-07 	
ZONE T = "t = 2.37813e-07 [s]" I = 10 SOLUTIONTIME = 2.3781250000000E-07
0.00127 	1.97216e-08 	0.92 	0.04 	0.04 	0.0291555 	3.80009 	
3.77094 	3.97141 	-0.200478 	-1.66959 	1.47179e-07 	29.2355 	0.834797 	
-6.78097e-10 	4.34075 	0.0740584 	0.0849493 	0.35 	6.604 	-0.252816 	3.38667e-05 	
5.39864e-07 	3.5991e-07 	
0.00133773 	1.74028e-08 	0.92 	0.04 	0.04 	0.0291553 	3.80009 	
3.77094 	3.97141 	-0.200479 	-3.33925 	1.29872e-07 	26.7311 	3.33922 	
-1.35622e-09 	8.6815 	0.148117 	0.169899 	0.35 	13.208 	-0.25282 	6.77333e-05 	
1.07973e-06 	7.19819e-07 	
0.00140547 	1.50839e-08 	0.92 	0.04 	0.04 	0.0291551 	3.80009 	
3.77093 	3.97141 	-0.200482 	-3.33946 	1.12566e-07 	23.3917 	6.67857 	
-1.3563e-09 	8.6815 	0.148117 	0.169899 	0.35 	13.208 	-0.252836 	6.77333e-05 	
1.07973e-06 	7.19819e-07 	
0.0014732 	1.27647e-08 	0.92 	0.04 	0.04 	0.029155 	3.80008 	
3.77093 	3.97141 	-0.200488 	-3.33982 	9.5259e-08 	20.0521 	10.0182 	
-1.35645e-09 	8.6815 	0.148117 	0.169899 	0.35 	13.208 	-0.252863 	6.77333e-05 	
1.07973e-06 	7.19819e-07 	
0.00154093 	1.04452e-08 	0.92 	0.04 	0.04 	0.0291548 	3.80007 	
3.77092 	3.97141 	-0.200496 	-3.34032 	7.7949e-08 	16.712 	13.3583 	
-1.35665e-09 	8.6815 	0.148117 	0.169899 	0.35 	13.208 	-0.252901 	6.77333e-05 	
1.07973e-06 	7.19819e-07 	
0.00160867 	8.12517e-09 	0.92 	0.04 	0.04 	0.0291547 	3.80006 	
3.77091 	3.97141 	-0.200506 	-3.34098 	6.06356e-08 	13.3714 	16.6989 	
-1.35692e-09 	8.6815 	0.148117 	0.169899 	0.35 	13.208 	-0.252951 	6.77333e-05 	
1.07973e-06 	7.19819e-07 	
0.0016764 	5.80462e-09 	0.92 	0.04 	0.04 	0.0291547 	3.80005 	
3.7709 	3.97141 	-0.200518 	-3.34178 	4.33181e-08 	10.03 	20.0403 	
-1.35725e-09 	8.6815 	0.148117 	0.169899 	0.35 	13.208 	-0.253012 	6.77333e-05 	
1.07973e-06 	7.19819e-07 	
0.00174413 	3.48341e-09 	0.92 	0.04 	0.04 	0.0291546 	3.80004 	
3.77088 	3.97141 	-0.200533 	-3.34273 	2.59956e-08 	6.68775 	23.3826 	
-1.35763e-09 	8.6815 	0.148117 	0.169899 	0.35 	13.208 	-0.253084 	6.77333e-05 	
1.07973e-06 	7.19819e-07 	
0.00181187 	1.16143e-09 	0.92 	0.04 	0.04 	0.0291546 	3.80002 	
3.77086 	3.97141 	-0.20055 	-3.34384 	8.66735e-09 	3.34446 	26.7259 	
-1.35808e-09 	8.6815 	0.148117 	0.169899 	0.35 	13.208 	-0.253168 	6.77333e-05 	
1.07973e-06 	7.19819e-07 	
0.0018796 	0 	0.92 	0.04 	0.04 	0.0291545 	3.8 	
3.77085 	3.97141 	-0.200569 	-1.67254 	8.66735e-09 	0.836272 	29.234 	
-6.79295e-10 	4.34075 	0.0740584 	0.0849493 	0.35 	6.604 	-0.253262 	3.38667e-05 	
5.39864e-07 	3.5991e-07 	
ZONE T = "t = 3.51719e-07 [s]" I = 10 SOLUTIONTIME = 3.5171875000000E-07
0.00127 	1.97216e-08 	0.92 	0.04 	0.04 	0.0291555 	3.80009 	
3.77094 	3.97141 	-0.200478 	-1.66959 	1.4718e-07 	29.2355 	0.834797 	
-9.962e-10 	4.34075 	0.0740584 	0.0849493 	0.35 	6.604 	-0.252816 	3.38667e-05 	
5.39864e-07 	3.5991e-07 	
0.00133773 	1.74028e-08 	0.92 	0.04 	0.04 	0.0291553 	3.80009 	
3.77094 	3.97141 	-0.200479 	-3.33925 	1.29872e-07 	26.7311 	3.33922 	
-1.99244e-09 	8.6815 	0.148117 	0.169899 	0.35 	13.208 	-0.25282 	6.77333e-05 	
1.07973e-06 	7.19819e-07 	
0.00140547 	1.50839e-08 	0.92 	0.04 	0.04 	0.0291551 	3.80009 	
3.77093 	3.97141 	-0.200482 	-3.33946 	1.12566e-07 	23.3917 	6.67857 	
-1.99256e-09 	8.6815 	0.148117 	0.169899 	0.35 	13.208 	-0.252836 	6.77333e-05 	
1.07973e-06 	7.19819e-07 	
0.0014732 	1.27647e-08 	0.92 	0.04 	0.04 	0.029155 	3.80008 	
3.77093 	3.97141 	-0.200488 	-3.33982 	9.5259e-08 	20.0521 	10.0182 	
-1.99277e-09 	8.6815 	0.148117 	0.169899 	0.35 	13.208 	-0.252863 	6.77333e-05 	
1.07973e-06 	7.19819e-07 	
0.00154093 	1.04452e-08 	0.92 	0.04 	0.04 	0.0291548 	3.80007 	
3.77092 	3.97141 	-0.200496 	-3.34032 	7.7949e-08 	16.712 	13.3583 	
-1.99308e-09 	8.6815 	0.148117 	0.169899 	0.35 	13.208 	-0.252901 	6.77333e-05 	
1.07973e-06 	7.19819e-07 	
0.00160867 	8.12517e-09 	0.92 	0.04 	0.04 	0.0291547 	3.80006 	
3.77091 	3.97141 	-0.200506 	-3.34098 	6.06356e-08 	13.3714 	16.6989 	
-1.99347e-09 	8.6815 	0.148117 	0.169899 	0.35 	13.208 	-0.252951 	6.77333e-05 	
1.07973e-06 	7.19819e-07 	
0.0016764 	5.80462e-09 	0.92 	0.04 	0.04 	0.0291547 	3.80005 	
3.7709 	3.97141 	-0.200518 	-3.34178 	4.33181e-08 	10.03 	20.0403 	
-1.99395e-09 	8.6815 	0.148117 	0.169899 	0.35 	13.208 	-0.253012 	6.77333e-05 	
1.07973e-06 	7.19819e-07 	
0.00174413 	3.48341e-09 	0.92 	0.04 	0.04 	0.0291546 	3.80004 	
3.77088 	3.97141 	-0.200533 	-3.34273 	2.59956e-08 	6.68775 	23.3826 	
-1.99451e-09 	8.6815 	0.148117 	0.169899 	0.35 	13.208 	-0.253084 	6.77333e-05 	
1.07973e-06 	7.19819e-07 	
0.00181187 	1.16143e-09 	0.92 	0.04 	0.04 	0.0291546 	3.80002 	
3.77086 	3.97141 	-0.20055 	-3.34384 	8.66735e-09 	3.34446 	26.7258 	
-1.99517e-09 	8.6815 	0.148117 	0.169899 	0.35 	13.208 	-0.253168 	6.77333e-05 	
1.07973e-06 	7.19819e-07 	
0.0018796 	0 	0.92 	0.04 	0.04 	0.0291545 	3.8 	
3.77085 	3.97141 	-0.200569 	-1.67254 	8.66735e-09 	0.836272 	29.234 	
-9.9796e-10 	4.34075 	0.0740584 	0.0849493 	0.35 	6.604 	-0.253262 	3.38667e-05 	
5.39864e-07 	3.5991e-07 	
ZONE T = "t = 5.22578e-07 [s]" I = 10 SOLUTIONTIME = 5.2257812500000E-07
0.00127 	1.97216e-08 	0.92 	0.04 	0.04 	0.0291555 	3.80009 	
3.77094 	3.97141 	-0.200478 	-1.66959 	1.47181e-07 	29.2355 	0.834797 	
-1.47335e-09 	4.34075 	0.0740584 	0.0849493 	0.35 	6.604 	-0.252816 	3.38667e-05 	
5.39864e-07 	3.5991e-07 	
0.00133773 	1.74028e-08 	0.92 	0.04 	0.04 	0.0291553 	3.80009 	
3.77094 	3.97141 	-0.200479 	-3.33925 	1.29872e-07 	26.7311 	3.33922 	
-2.94676e-09 	8.6815 	0.148117 	0.169899 	0.35 	13.208 	-0.25282 	6.77333e-05 	
1.07973e-06 	7.19819e-07 	
0.00140547 	1.50839e-08 	0.92 	0.04 	0.04 	0.0291551 	3.80009 	
3.77093 	3.97141 	-0.200482 	-3.33946 	1.12566e-07 	23.3917 	6.67857 	
-2.94695e-09 	8.6815 	0.148117 	0.169899 	0.35 	13.208 	-0.252836 	6.77333e-05 	
1.07973e-06 	7.19819e-07 	
0.0014732 	1.27647e-08 	0.92 	0.04 	0.04 	0.029155 	3.80008 	
3.77093 	3.97141 	-0.200488 	-3.33982 	9.5259e-08 	20.0521 	10.0182 	
-2.94726e-09 	8.6815 	0.148117 	0.169899 	0.35 	13.208 	-0.252863 	6.77333e-05 	
1.07973e-06 	7.19819e-07 	
0.00154093 	1.04452e-08 	0.92 	0.04 	0.04 	0.0291548 	3.80007 	
3.77092 	3.97141 	-0.200496 	-3.34032 	7.7949e-08 	16.712 	13.3583 	
-2.94771e-09 	8.6815 	0.148117 	0.169899 	0.35 	13.208 	-0.252901 	6.77333e-05 	
1.07973e-06 	7.19819e-07 	
0.00160867 	8.12517e-09 	0.92 	0.04 	0.04 	0.0291547 	3.80006 	
3.77091 	3.97141 	-0.200506 	-3.34098 	6.06356e-08 	13.3714 	16.6989 	
-2.94829e-09 	8.6815 	0.148117 	0.169899 	0.35 	13.208 	-0.252951 	6.77333e-05 	
1.07973e-06 	7.19819e-07 	
0.0016764 	5.80462e-09 	0.92 	0.04 	0.04 	0.0291546 	3.80005 	
3.7709 	3.97141 	-0.200518 	-3.34178 	4.33181e-08 	10.03 	20.0403 	
-2.949e-09 	8.6815 	0.148117 	0.169899 	0.35 	13.208 	-0.253012 	6.77333e-05 	
1.07973e-06 	7.19819e-07 	
0.00174413 	3.48341e-09 	0.92 	0.04 	0.04 	0.0291546 	3.80004 	
3.77088 	3.97141 	-0.200533 	-3.34273 	2.59956e-08 	6.68775 	23.3826 	
-2.94984e-09 	8.6815 	0.148117 	0.169899 	0.35 	13.208 	-0.253084 	6.77333e-05 	
1.07973e-06 	7.19819e-07 	
0.00181187 	1.16142e-09 	0.92 	0.04 	0.04 	0.0291545 	3.80002 	
3.77086 	3.97141 	-0.20055 	-3.34384 	8.66735e-09 	3.34446 	26.7258 	
-2.95081e-09 	8.6815 	0.148117 	0.169899 	0.35 	13.208 	-0.253168 	6.77333e-05 	
1.07973e-06 	7.19819e-07 	
0.0018796 	0 	0.92 	0.04 	0.04 	0.0291545 	3.8 	
3.77085 	3.97141 	-0.200569 	-1.67254 	8.66735e-09 	0.836272 	29.234 	
-1.47596e-09 	4.34075 	0.0740584 	0.0849493 	0.35 	6.604 	-0.253262 	3.38667e-05 	
5.39864e-07 	3.5991e-07 	
ZONE T = "t = 7.78867e-07 [s]" I = 10 SOLUTIONTIME = 7.7886718750000E-07
0.00127 	1.97216e-08 	0.92 	0.04 	0.04 	0.0291555 	3.80009 	
3.77094 	3.97141 	-0.200478 	-1.66959 	1.47183e-07 	29.2355 	0.834797 	
-2.18909e-09 	4.34075 	0.0740584 	0.0849493 	0.35 	6.604 	-0.252816 	3.38667e-05 	
5.39864e-07 	3.5991e-07 	
0.00133773 	1.74028e-08 	0.92 	0.04 	0.04 	0.0291553 	3.80009 	
3.77094 	3.97141 	-0.200479 	-3.33925 	1.29872e-07 	26.7311 	3.33922 	
-4.37825e-09 	8.6815 	0.148117 	0.169899 	0.35 	13.208 	-0.25282 	6.77333e-05 	
1.07973e-06 	7.19819e-07 	