TITLE = "Solution on Domain BulkDomain1D_0"
VARIABLES = "x [m]"  
"Vel_axial" 
"MF_sp(ECDMC)" 
"MF_sp(Li+)" 
"MF_sp(PF6-)" 
"Volt(Electroly)" 
"Volt(AnodeVolt)" 
"Potential Drop Electrode-Electrolyte [V]" 
"Surf_0 Equilibrium Potential Drop Electrode-Electrolyte [V]" 
"Overpotential_0 [V]" 
"Current Source [A/m^2]" 
"Li+ flux [kmol/m^2/s]" 
"Electrolyte Current [A/m^2]" 
"Electrode Current [A/m^2]" 
"CV Capacity discharged [A-s/m^2]" 
"Depth of discharge in CV [A-s/m^2]" 
"CV Capacity remaining [A-s/m^2]" 
"Initial CV capacity [A-s/m^2]" 
"Porosity []" 
"Surface Area [m2/m2] (area per area)" 
"Specific current (per particle area) [A/m^2]" 
"Control volume thickness [m]" 
"MoleDens Li_C6-bulk [kmol/m^3]" 
"MoleDens V_C6-bulk [kmol/m^3]" 
"qHeat_accum [J/m3]" 
"qHeat_step [W/m3]" 
"Joule_Lyte [W/m3]" 
"Joule_Solid [W/m3]" 
"electrodHeat [W/m3]" 
"OverpotHeat [W/m3]" 
"deltaSHeat [W/m3]" 

ZONE T = "ANOD, 0.0000E+00", I = 10, SOLUTIONTIME = 0.000000E+00
ZONETYPE = ORDERED
DATAPACKING = BLOCK
STRANDID = 1
 0.0000000000000E+00  8.7488888888889E-05  1.7497777777778E-04  2.6246666666667E-04  3.4995555555556E-04  4.3744444444444E-04  5.2493333333333E-04  6.1242222222222E-04  6.9991111111111E-04  7.8740000000000E-04 
 0.0000000000000E+00  0.0000000000000E+00  0.0000000000000E+00  0.0000000000000E+00  0.0000000000000E+00  0.0000000000000E+00  0.0000000000000E+00  0.0000000000000E+00  0.0000000000000E+00  0.0000000000000E+00 
 9.2000000000000E-01  9.2000000000000E-01  9.2000000000000E-01  9.2000000000000E-01  9.2000000000000E-01  9.2000000000000E-01  9.2000000000000E-01  9.2000000000000E-01  9.2000000000000E-01  9.2000000000000E-01 
 4.0000000000000E-02  4.0000000000000E-02  4.0000000000000E-02  4.0000000000000E-02  4.0000000000000E-02  4.0000000000000E-02  4.0000000000000E-02  4.0000000000000E-02  4.0000000000000E-02  4.0000000000000E-02 
 4.0000000000000E-02  4.0000000000000E-02  4.0000000000000E-02  4.0000000000000E-02  4.0000000000000E-02  4.0000000000000E-02  4.0000000000000E-02  4.0000000000000E-02  4.0000000000000E-02  4.0000000000000E-02 
-7.0000000000000E-02 -7.0000000000000E-02 -7.0000000000000E-02 -7.0000000000000E-02 -7.0000000000000E-02 -7.0000000000000E-02 -7.0000000000000E-02 -7.0000000000000E-02 -7.0000000000000E-02 -7.0000000000000E-02 
 0.0000000000000E+00  0.0000000000000E+00  0.0000000000000E+00  0.0000000000000E+00  0.0000000000000E+00  0.0000000000000E+00  0.0000000000000E+00  0.0000000000000E+00  0.0000000000000E+00  0.0000000000000E+00 
 7.0000000000000E-02  7.0000000000000E-02  7.0000000000000E-02  7.0000000000000E-02  7.0000000000000E-02  7.0000000000000E-02  7.0000000000000E-02  7.0000000000000E-02  7.0000000000000E-02  7.0000000000000E-02 
-4.0899257334605E-02 -4.0899257334605E-02 -4.0899257334605E-02 -4.0899257334605E-02 -4.0899257334605E-02 -4.0899257334605E-02 -4.0899257334605E-02 -4.0899257334605E-02 -4.0899257334605E-02 -4.0899257334605E-02 
 1.1089925733461E-01  1.1089925733461E-01  1.1089925733461E-01  1.1089925733461E-01  1.1089925733461E-01  1.1089925733461E-01  1.1089925733461E-01  1.1089925733461E-01  1.1089925733461E-01  1.1089925733461E-01 
 3.0925632226341E+01  6.1851264452683E+01  6.1851264452683E+01  6.1851264452683E+01  6.1851264452683E+01  6.1851264452683E+01  6.1851264452683E+01  6.1851264452683E+01  6.1851264452683E+01  3.0925632226341E+01 
-0.0000000000000E+00 -0.0000000000000E+00 -0.0000000000000E+00 -0.0000000000000E+00 -0.0000000000000E+00 -0.0000000000000E+00 -0.0000000000000E+00 -0.0000000000000E+00 -0.0000000000000E+00 -0.0000000000000E+00 
 0.0000000000000E+00  0.0000000000000E+00  0.0000000000000E+00  0.0000000000000E+00  0.0000000000000E+00  0.0000000000000E+00  0.0000000000000E+00  0.0000000000000E+00  0.0000000000000E+00  3.0925632226341E+01 
 3.0925632226341E+01 -0.0000000000000E+00 -0.0000000000000E+00 -0.0000000000000E+00 -0.0000000000000E+00 -0.0000000000000E+00 -0.0000000000000E+00 -0.0000000000000E+00 -0.0000000000000E+00  0.0000000000000E+00 
 0.0000000000000E+00  0.0000000000000E+00  0.0000000000000E+00  0.0000000000000E+00  0.0000000000000E+00  0.0000000000000E+00  0.0000000000000E+00  0.0000000000000E+00  0.0000000000000E+00  0.0000000000000E+00 
 7.0592160225764E+03  1.4118432045153E+04  1.4118432045153E+04  1.4118432045153E+04  1.4118432045153E+04  1.4118432045153E+04  1.4118432045153E+04  1.4118432045153E+04  1.4118432045153E+04  7.0592160225764E+03 
 5.2238198567065E+04  1.0447639713413E+05  1.0447639713413E+05  1.0447639713413E+05  1.0447639713413E+05  1.0447639713413E+05  1.0447639713413E+05  1.0447639713413E+05  1.0447639713413E+05  5.2238198567065E+04 
 5.9297414589642E+04  1.1859482917928E+05  1.1859482917928E+05  1.1859482917928E+05  1.1859482917928E+05  1.1859482917928E+05  1.1859482917928E+05  1.1859482917928E+05  1.1859482917928E+05  5.9297414589642E+04 
 3.5000000000000E-01  3.5000000000000E-01  3.5000000000000E-01  3.5000000000000E-01  3.5000000000000E-01  3.5000000000000E-01  3.5000000000000E-01  3.5000000000000E-01  3.5000000000000E-01  3.5000000000000E-01 
 8.5301666666667E+00  1.7060333333333E+01  1.7060333333333E+01  1.7060333333333E+01  1.7060333333333E+01  1.7060333333333E+01  1.7060333333333E+01  1.7060333333333E+01  1.7060333333333E+01  8.5301666666667E+00 
 3.6254429057277E+00  3.6254429057277E+00  3.6254429057277E+00  3.6254429057277E+00  3.6254429057277E+00  3.6254429057277E+00  3.6254429057277E+00  3.6254429057277E+00  3.6254429057277E+00  3.6254429057277E+00 
 4.3744444444444E-05  8.7488888888889E-05  8.7488888888889E-05  8.7488888888889E-05  8.7488888888889E-05  8.7488888888889E-05  8.7488888888889E-05  8.7488888888889E-05  8.7488888888889E-05  4.3744444444444E-05 
 1.3380188695655E+01  1.3380188695655E+01  1.3380188695655E+01  1.3380188695655E+01  1.3380188695655E+01  1.3380188695655E+01  1.3380188695655E+01  1.3380188695655E+01  1.3380188695655E+01  1.3380188695655E+01 
 3.3450471739137E+00  3.3450471739137E+00  3.3450471739137E+00  3.3450471739137E+00  3.3450471739137E+00  3.3450471739137E+00  3.3450471739137E+00  3.3450471739137E+00  3.3450471739137E+00  3.3450471739137E+00 
 0.0000000000000E+00  0.0000000000000E+00  0.0000000000000E+00  0.0000000000000E+00  0.0000000000000E+00  0.0000000000000E+00  0.0000000000000E+00  0.0000000000000E+00  0.0000000000000E+00  0.0000000000000E+00 
 0.0000000000000E+00  0.0000000000000E+00  0.0000000000000E+00  0.0000000000000E+00  0.0000000000000E+00  0.0000000000000E+00  0.0000000000000E+00  0.0000000000000E+00  0.0000000000000E+00  0.0000000000000E+00 
 0.0000000000000E+00  0.0000000000000E+00  0.0000000000000E+00  0.0000000000000E+00  0.0000000000000E+00  0.0000000000000E+00  0.0000000000000E+00  0.0000000000000E+00  0.0000000000000E+00  0.0000000000000E+00 
 0.0000000000000E+00  0.0000000000000E+00  0.0000000000000E+00  0.0000000000000E+00  0.0000000000000E+00  0.0000000000000E+00  0.0000000000000E+00  0.0000000000000E+00  0.0000000000000E+00  0.0000000000000E+00 
 0.0000000000000E+00  0.0000000000000E+00  0.0000000000000E+00  0.0000000000000E+00  0.0000000000000E+00  0.0000000000000E+00  0.0000000000000E+00  0.0000000000000E+00  0.0000000000000E+00  0.0000000000000E+00 
 0.0000000000000E+00  0.0000000000000E+00  0.0000000000000E+00  0.0000000000000E+00  0.0000000000000E+00  0.0000000000000E+00  0.0000000000000E+00  0.0000000000000E+00  0.0000000000000E+00  0.0000000000000E+00 
 0.0000000000000E+00  0.0000000000000E+00  0.0000000000000E+00  0.0000000000000E+00  0.0000000000000E+00  0.0000000000000E+00  0.0000000000000E+00  0.0000000000000E+00  0.0000000000000E+00  0.0000000000000E+00 
ZONE T = "ANOD, 1.0000E-08", I = 10, SOLUTIONTIME = 1.000000E-08
ZONETYPE = ORDERED
DATAPACKING = BLOCK
STRANDID = 1
 0.0000000000000E+00  8.7488888888889E-05  1.7497777777778E-04  2.6246666666667E-04  3.4995555555556E-04  4.3744444444444E-04  5.2493333333333E-04  6.1242222222222E-04  6.9991111111111E-04  7.8740000000000E-04 
 1.1589928282787E-09  3.4769806922473E-09  5.7949771945577E-09  8.1129887657016E-09  1.0431021835969E-08  1.2749082836195E-08  1.5067178197306E-08  1.7385314349873E-08  1.9703497725056E-08  2.0862979447216E-08 
 9.1999999999930E-01  9.1999999999930E-01  9.1999999999930E-01  9.1999999999930E-01  9.1999999999930E-01  9.1999999999930E-01  9.1999999999930E-01  9.1999999999930E-01  9.1999999999930E-01  9.1999999999971E-01 
 4.0000000000348E-02  4.0000000000348E-02  4.0000000000348E-02  4.0000000000348E-02  4.0000000000348E-02  4.0000000000348E-02  4.0000000000348E-02  4.0000000000348E-02  4.0000000000348E-02  4.0000000000144E-02 
 4.0000000000348E-02  4.0000000000348E-02  4.0000000000348E-02  4.0000000000348E-02  4.0000000000348E-02  4.0000000000348E-02  4.0000000000348E-02  4.0000000000348E-02  4.0000000000348E-02  4.0000000000144E-02 
 2.9159905594003E-02  2.9159889866891E-02  2.9159842685487E-02  2.9159764049705E-02  2.9159653959314E-02  2.9159512414046E-02  2.9159339413524E-02  2.9159134957244E-02  2.9158899044691E-02  2.9158631675223E-02 
 0.0000000000000E+00 -4.7371319004922E-09 -8.9169747163227E-09 -1.2539526370667E-08 -1.5604783240686E-08 -1.8112740157575E-08 -2.0063390406433E-08 -2.1456725726237E-08 -2.2292736309935E-08 -2.2571410804296E-08 
-2.9159905594003E-02 -2.9159894604022E-02 -2.9159851602462E-02 -2.9159776589232E-02 -2.9159669564098E-02 -2.9159530526786E-02 -2.9159359476914E-02 -2.9159156413969E-02 -2.9158921337427E-02 -2.9158654246633E-02 
-4.0899257333888E-02 -4.0899257333888E-02 -4.0899257333888E-02 -4.0899257333888E-02 -4.0899257333886E-02 -4.0899257333888E-02 -4.0899257333888E-02 -4.0899257333886E-02 -4.0899257333886E-02 -4.0899257334018E-02 
 1.1739351739885E-02  1.1739362729865E-02  1.1739405731426E-02  1.1739480744656E-02  1.1739587769789E-02  1.1739726807101E-02  1.1739897856974E-02  1.1740100919917E-02  1.1740335996459E-02  1.1740603087384E-02 
 1.6690505683707E+00  3.3381043159377E+00  3.3381167554882E+00  3.3381384554242E+00  3.3381694158219E+00  3.3382096367747E+00  3.3382591184095E+00  3.3383178608947E+00  3.3383858644079E+00  1.6692315645831E+00 
 8.6491949388552E-09  2.5947621412729E-08  4.3246095938623E-08  6.0544697223094E-08  7.7843446029399E-08  9.5142402445137E-08  1.1244163522937E-07  1.2974115152858E-07  1.4704109333962E-07  1.4704109333962E-07 
 0.0000000000000E+00  3.3380854661125E+00  6.6761790995335E+00  1.0014289599614E+01  1.3352426564101E+01  1.6690597793396E+01  2.0028815718879E+01  2.3367087665058E+01  2.6705421064103E+01  3.0043836377015E+01 
 3.0043837647532E+01  2.6705743504802E+01  2.3367650136133E+01  2.0029539697353E+01  1.6691402928187E+01  1.3353230568114E+01  1.0015013356153E+01  6.6767420315133E+00  3.3384073332375E+00  0.0000000000000E+00 
 1.6690505683707E-08  3.3381043159377E-08  3.3381167554882E-08  3.3381384554242E-08  3.3381694158219E-08  3.3382096367747E-08  3.3382591184095E-08  3.3383178608947E-08  3.3383858644079E-08  1.6692315645831E-08 
 7.0592160225931E+03  1.4118432045186E+04  1.4118432045186E+04  1.4118432045186E+04  1.4118432045186E+04  1.4118432045186E+04  1.4118432045186E+04  1.4118432045186E+04  1.4118432045186E+04  7.0592160225931E+03 
 5.2238198567049E+04  1.0447639713410E+05  1.0447639713410E+05  1.0447639713410E+05  1.0447639713410E+05  1.0447639713410E+05  1.0447639713410E+05  1.0447639713410E+05  1.0447639713410E+05  5.2238198567049E+04 
 5.9297414589642E+04  1.1859482917928E+05  1.1859482917928E+05  1.1859482917928E+05  1.1859482917928E+05  1.1859482917928E+05  1.1859482917928E+05  1.1859482917928E+05  1.1859482917928E+05  5.9297414589642E+04 
 3.5000000000000E-01  3.5000000000000E-01  3.5000000000000E-01  3.5000000000000E-01  3.5000000000000E-01  3.5000000000000E-01  3.5000000000000E-01  3.5000000000000E-01  3.5000000000000E-01  3.5000000000000E-01 
 8.5301666666665E+00  1.7060333333333E+01  1.7060333333333E+01  1.7060333333333E+01  1.7060333333333E+01  1.7060333333333E+01  1.7060333333333E+01  1.7060333333333E+01  1.7060333333333E+01  8.5301666666665E+00 
 1.9566447334410E-01  1.9566465969429E-01  1.9566538884479E-01  1.9566666079742E-01  1.9566847555667E-01  1.9567083312800E-01  1.9567373351886E-01  1.9567717673911E-01  1.9568116279916E-01  1.9568569171174E-01 
 4.3744444444444E-05  8.7488888888889E-05  8.7488888888889E-05  8.7488888888889E-05  8.7488888888889E-05  8.7488888888889E-05  8.7488888888889E-05  8.7488888888889E-05  8.7488888888889E-05  4.3744444444444E-05 
 1.3380188695651E+01  1.3380188695651E+01  1.3380188695651E+01  1.3380188695651E+01  1.3380188695651E+01  1.3380188695651E+01  1.3380188695651E+01  1.3380188695651E+01  1.3380188695651E+01  1.3380188695651E+01 
 3.3450471739177E+00  3.3450471739177E+00  3.3450471739177E+00  3.3450471739177E+00  3.3450471739177E+00  3.3450471739177E+00  3.3450471739177E+00  3.3450471739177E+00  3.3450471739177E+00  3.3450471739177E+00 
 1.8363966645812E-11  2.8664050895373E-11  6.1478134561118E-11  1.1872033882153E-10  2.0039128409358E-10  3.0649184068599E-10  4.3702329716533E-10  5.9198702295547E-10  7.7138465222536E-10  8.6719219601988E-10 
 1.8363966645812E-03  2.8664050895373E-03  6.1478134561118E-03  1.1872033882153E-02  2.0039128409358E-02  3.0649184068599E-02  4.3702329716533E-02  5.9198702295547E-02  7.7138465222536E-02  8.6719219601988E-02 
 3.0002889549142E-04  1.5001482858743E-03  5.1005160608144E-03  1.1101170936972E-02  1.9502174893538E-02  3.0303614426978E-02  4.3505617387638E-02  5.9108319239625E-02  7.7111881449579E-02  8.6713902699732E-02 
 1.5363677690898E-03  1.3662568036631E-03  1.0472973952974E-03  7.7086294518048E-04  5.3695351582073E-04  3.4556964162166E-04  1.9671232889522E-04  9.0383055921726E-05  2.6583772957061E-05  5.3169022566820E-06 
 0.0000000000000E+00  0.0000000000000E+00  0.0000000000000E+00  0.0000000000000E+00  0.0000000000000E+00  0.0000000000000E+00  0.0000000000000E+00  0.0000000000000E+00  0.0000000000000E+00  0.0000000000000E+00 
 0.0000000000000E+00  0.0000000000000E+00  0.0000000000000E+00  0.0000000000000E+00  0.0000000000000E+00  0.0000000000000E+00  0.0000000000000E+00  0.0000000000000E+00  0.0000000000000E+00  0.0000000000000E+00 
 0.0000000000000E+00  0.0000000000000E+00  0.0000000000000E+00  0.0000000000000E+00  0.0000000000000E+00  0.0000000000000E+00  0.0000000000000E+00  0.0000000000000E+00  0.0000000000000E+00  0.0000000000000E+00 
ZONE T = "ANOD, 2.0000E-08", I = 10, SOLUTIONTIME = 2.000000E-08
ZONETYPE = ORDERED
DATAPACKING = BLOCK
STRANDID = 1
 0.0000000000000E+00  8.7488888888889E-05  1.7497777777778E-04  2.6246666666667E-04  3.4995555555556E-04  4.3744444444444E-04  5.2493333333333E-04  6.1242222222222E-04  6.9991111111111E-04  7.8740000000000E-04 
 1.1589985683254E-09  3.4769979126421E-09  5.7950058950989E-09  8.1130289461977E-09  1.0431073496488E-08  1.2748419561134E-08  1.5065799986297E-08  1.7383584410524E-08  1.9701416057034E-08  2.0860903518583E-08 
 9.1999999999861E-01  9.1999999999861E-01  9.1999999999861E-01  9.1999999999861E-01  9.1999999999861E-01  9.1999999999861E-01  9.1999999999861E-01  9.1999999999861E-01  9.1999999999861E-01  9.1999999999942E-01 
 4.0000000000696E-02  4.0000000000696E-02  4.0000000000696E-02  4.0000000000696E-02  4.0000000000696E-02  4.0000000000696E-02  4.0000000000696E-02  4.0000000000696E-02  4.0000000000696E-02  4.0000000000288E-02 
 4.0000000000696E-02  4.0000000000696E-02  4.0000000000696E-02  4.0000000000696E-02  4.0000000000696E-02  4.0000000000696E-02  4.0000000000696E-02  4.0000000000696E-02  4.0000000000696E-02  4.0000000000288E-02 
 2.9159907787183E-02  2.9159892059983E-02  2.9159844878354E-02  2.9159766242178E-02  2.9159656151251E-02  2.9159514605281E-02  2.9159341603889E-02  2.9159137146609E-02  2.9158901232887E-02  2.9158633862083E-02 
 0.0000000000000E+00 -4.7371553600525E-09 -8.9170188753455E-09 -1.2539588469103E-08 -1.5604860518533E-08 -1.8112829854813E-08 -2.0063489763078E-08 -2.1456831982394E-08 -2.2292846705737E-08 -2.2571522579956E-08 
-2.9159907787183E-02 -2.9159896797138E-02 -2.9159853795373E-02 -2.9159778781766E-02 -2.9159671756111E-02 -2.9159532718111E-02 -2.9159361667379E-02 -2.9159158603441E-02 -2.9158923525734E-02 -2.9158656433605E-02 
-4.0899257333166E-02 -4.0899257333166E-02 -4.0899257333166E-02 -4.0899257333166E-02 -4.0899257333166E-02 -4.0899257333166E-02 -4.0899257333166E-02 -4.0899257333166E-02 -4.0899257333166E-02 -4.0899257333428E-02 
 1.1739349545983E-02  1.1739360536027E-02  1.1739403537793E-02  1.1739478551399E-02  1.1739585577054E-02  1.1739724615055E-02  1.1739895665787E-02  1.1740098729725E-02  1.1740333807432E-02  1.1740600899823E-02 
 1.6690502510602E+00  3.3381036813352E+00  3.3381161209450E+00  3.3381378209895E+00  3.3381687815381E+00  3.3382090026896E+00  3.3382584845725E+00  3.3383172273448E+00  3.3383852311942E+00  1.6692312481837E+00 
 8.6492430504479E-09  2.5947745614413E-08  4.3246312650105E-08  6.0544992133396E-08  7.7843832058538E-08  9.5142880418601E-08  1.1244218520088E-07  1.2974179439497E-07  1.4704190022851E-07  1.4704190022851E-07 
 0.0000000000000E+00  3.3381020918170E+00  6.6762119928726E+00  1.0014338963831E+01  1.3352492264989E+01  1.6690681157196E+01  2.0028914900930E+01  2.3367202756858E+01  2.6705553986123E+01  3.0043977849861E+01 
 3.0043977849853E+01  2.6705875758125E+01  2.3367765856985E+01  2.0029638886018E+01  1.6691485584754E+01  1.3353296692640E+01  1.0015062949009E+01  6.6767750930503E+00  3.3384238637808E+00  0.0000000000000E+00 
 3.3381008194310E-08  6.6762079972729E-08  6.6762328764332E-08  6.6762762764136E-08  6.6763381973600E-08  6.6764186394643E-08  6.6765176029820E-08  6.6766350882395E-08  6.6767710956021E-08  3.3384628127667E-08 
 7.0592160226098E+03  1.4118432045220E+04  1.4118432045220E+04  1.4118432045220E+04  1.4118432045220E+04  1.4118432045220E+04  1.4118432045220E+04  1.4118432045220E+04  1.4118432045220E+04  7.0592160226098E+03 
 5.2238198567032E+04  1.0447639713406E+05  1.0447639713406E+05  1.0447639713406E+05  1.0447639713406E+05  1.0447639713406E+05  1.0447639713406E+05  1.0447639713406E+05  1.0447639713406E+05  5.2238198567032E+04 
 5.9297414589642E+04  1.1859482917928E+05  1.1859482917928E+05  1.1859482917928E+05  1.1859482917928E+05  1.1859482917928E+05  1.1859482917928E+05  1.1859482917928E+05  1.1859482917928E+05  5.9297414589642E+04 
 3.5000000000000E-01  3.5000000000000E-01  3.5000000000000E-01  3.5000000000000E-01  3.5000000000000E-01  3.5000000000000E-01  3.5000000000000E-01  3.5000000000000E-01  3.5000000000000E-01  3.5000000000000E-01 
 8.5301666666663E+00  1.7060333333333E+01  1.7060333333333E+01  1.7060333333333E+01  1.7060333333333E+01  1.7060333333333E+01  1.7060333333333E+01  1.7060333333333E+01  1.7060333333333E+01  8.5301666666663E+00 
 1.9566443614548E-01  1.9566462249675E-01  1.9566535165072E-01  1.9566662360972E-01  1.9566843837781E-01  1.9567079596079E-01  1.9567369636619E-01  1.9567713960327E-01  1.9568112568303E-01  1.9568565461993E-01 
 4.3744444444444E-05  8.7488888888889E-05  8.7488888888889E-05  8.7488888888889E-05  8.7488888888889E-05  8.7488888888889E-05  8.7488888888889E-05  8.7488888888889E-05  8.7488888888889E-05  4.3744444444444E-05 
 1.3380188695647E+01  1.3380188695647E+01  1.3380188695647E+01  1.3380188695647E+01  1.3380188695647E+01  1.3380188695647E+01  1.3380188695647E+01  1.3380188695647E+01  1.3380188695647E+01  1.3380188695647E+01 
 3.3450471739216E+00  3.3450471739216E+00  3.3450471739216E+00  3.3450471739216E+00  3.3450471739216E+00  3.3450471739216E+00  3.3450471739216E+00  3.3450471739216E+00  3.3450471739216E+00  3.3450471739216E+00 
 3.6728118839214E-11  5.7328383054734E-11  1.2295687797817E-10  2.3744184597782E-10  4.0078454266834E-10  6.1298674464798E-10  8.7405091784658E-10  1.1839798801578E-09  1.5427769853517E-09  1.7343930588523E-09 
 1.8364152193402E-03  2.8664332159361E-03  6.1478743417051E-03  1.1872150715629E-02  2.0039325857475E-02  3.0649490396198E-02  4.3702762068125E-02  5.9199285720228E-02  7.7139233312636E-02  8.6720086283241E-02 
 6.0006112868547E-04  3.0003111660382E-03  1.0201082634378E-02  2.2202451072588E-02  3.9004541917139E-02  6.0607531759054E-02  8.7011665178680E-02  1.1821722100882E-01  1.5422453072599E-01  1.7342867202806E-01 
 3.0727507552359E-03  2.7325271394353E-03  2.0946051634393E-03  1.5417335251941E-03  1.0739123496945E-03  6.9114270574313E-04  3.9342660597859E-04  1.8076700695630E-04  5.3167809181835E-05  1.0633857166835E-05 
 0.0000000000000E+00  0.0000000000000E+00  0.0000000000000E+00  0.0000000000000E+00  0.0000000000000E+00  0.0000000000000E+00  0.0000000000000E+00  0.0000000000000E+00  0.0000000000000E+00  0.0000000000000E+00 
 0.0000000000000E+00  0.0000000000000E+00  0.0000000000000E+00  0.0000000000000E+00  0.0000000000000E+00  0.0000000000000E+00  0.0000000000000E+00  0.0000000000000E+00  0.0000000000000E+00  0.0000000000000E+00 
 0.0000000000000E+00  0.0000000000000E+00  0.0000000000000E+00  0.0000000000000E+00  0.0000000000000E+00  0.0000000000000E+00  0.0000000000000E+00  0.0000000000000E+00  0.0000000000000E+00  0.0000000000000E+00 
ZONE T = "ANOD, 3.0000E-08", I = 10, SOLUTIONTIME = 3.000000E-08
ZONETYPE = ORDERED
DATAPACKING = BLOCK
STRANDID = 1
 0.0000000000000E+00  8.7488888888889E-05  1.7497777777778E-04  2.6246666666667E-04  3.4995555555556E-04  4.3744444444444E-04  5.2493333333333E-04  6.1242222222222E-04  6.9991111111111E-04  7.8740000000000E-04 
 1.1589985683010E-09  3.4769979125690E-09  5.7950058949770E-09  8.1130289460270E-09  1.0431799911725E-08  1.2750598807233E-08  1.5069432063259E-08  1.7388669318349E-08  1.9707227380266E-08  2.0865988426345E-08 
 9.1999999999791E-01  9.1999999999791E-01  9.1999999999791E-01  9.1999999999791E-01  9.1999999999791E-01  9.1999999999791E-01  9.1999999999791E-01  9.1999999999791E-01  9.1999999999791E-01  9.1999999999914E-01 
 4.0000000001045E-02  4.0000000001045E-02  4.0000000001045E-02  4.0000000001045E-02  4.0000000001045E-02  4.0000000001045E-02  4.0000000001045E-02  4.0000000001045E-02  4.0000000001045E-02  4.0000000000432E-02 
 4.0000000001045E-02  4.0000000001045E-02  4.0000000001045E-02  4.0000000001045E-02  4.0000000001045E-02  4.0000000001045E-02  4.0000000001045E-02  4.0000000001045E-02  4.0000000001045E-02  4.0000000000432E-02 
 2.9159907786819E-02  2.9159892059619E-02  2.9159844877990E-02  2.9159766241814E-02  2.9159656150887E-02  2.9159514604917E-02  2.9159341603525E-02  2.9159137146245E-02  2.9158901232523E-02  2.9158633861719E-02 
 0.0000000000000E+00 -4.7371553599559E-09 -8.9170188751640E-09 -1.2539588468849E-08 -1.5604860518217E-08 -1.8112829854447E-08 -2.0063489762674E-08 -2.1456831981964E-08 -2.2292846705291E-08 -2.2571522579507E-08 
-2.9159907786819E-02 -2.9159896796775E-02 -2.9159853795009E-02 -2.9159778781402E-02 -2.9159671755747E-02 -2.9159532717747E-02 -2.9159361667015E-02 -2.9159158603077E-02 -2.9158923525370E-02 -2.9158656433242E-02 
-4.0899257332442E-02 -4.0899257332442E-02 -4.0899257332442E-02 -4.0899257332442E-02 -4.0899257332444E-02 -4.0899257332444E-02 -4.0899257332444E-02 -4.0899257332446E-02 -4.0899257332446E-02 -4.0899257332839E-02 
 1.1739349545623E-02  1.1739360535667E-02  1.1739403537433E-02  1.1739478551039E-02  1.1739585576696E-02  1.1739724614697E-02  1.1739895665429E-02  1.1740098729369E-02  1.1740333807076E-02  1.1740600899598E-02 
 1.6690502510251E+00  3.3381036812650E+00  3.3381161208747E+00  3.3381378209192E+00  3.3381687814682E+00  3.3382090026198E+00  3.3382584845027E+00  3.3383172272755E+00  3.3383852311249E+00  1.6692312481637E+00 
 8.6492430486152E-09  2.5947745614639E-08  4.3246312648573E-08  6.0544992130446E-08  7.7843832058530E-08  9.5142880413358E-08  1.1244218519804E-07  1.2974179439228E-07  1.4704197234285E-07  1.4704197234285E-07 
 0.0000000000000E+00  3.3381020916619E+00  6.6762119927466E+00  1.0014338963550E+01  1.3352492264922E+01  1.6690681156973E+01  2.0028914900368E+01  2.3367202756325E+01  2.6705553985583E+01  3.0043977849280E+01 
 3.0043977849239E+01  2.6705875757581E+01  2.3367765856511E+01  2.0029638885614E+01  1.6691485584421E+01  1.3353296692377E+01  1.0015062948815E+01  6.6767750929263E+00  3.3384238637261E+00  0.0000000000000E+00 
 5.0071510704561E-08  1.0014311678538E-07  1.0014348997308E-07  1.0014414097333E-07  1.0014506978828E-07  1.0014627642084E-07  1.0014776087485E-07  1.0014952315515E-07  1.0015156326727E-07  5.0076940609305E-08 
 7.0592160226264E+03  1.4118432045253E+04  1.4118432045253E+04  1.4118432045253E+04  1.4118432045253E+04  1.4118432045253E+04  1.4118432045253E+04  1.4118432045253E+04  1.4118432045253E+04  7.0592160226265E+03 
 5.2238198567015E+04  1.0447639713403E+05  1.0447639713403E+05  1.0447639713403E+05  1.0447639713403E+05  1.0447639713403E+05  1.0447639713403E+05  1.0447639713403E+05  1.0447639713403E+05  5.2238198567015E+04 
 5.9297414589642E+04  1.1859482917928E+05  1.1859482917928E+05  1.1859482917928E+05  1.1859482917928E+05  1.1859482917928E+05  1.1859482917928E+05  1.1859482917928E+05  1.1859482917928E+05  5.9297414589642E+04 
 3.5000000000000E-01  3.5000000000000E-01  3.5000000000000E-01  3.5000000000000E-01  3.5000000000000E-01  3.5000000000000E-01  3.5000000000000E-01  3.5000000000000E-01  3.5000000000000E-01  3.5000000000000E-01 
 8.5301666666661E+00  1.7060333333332E+01  1.7060333333332E+01  1.7060333333332E+01  1.7060333333332E+01  1.7060333333332E+01  1.7060333333332E+01  1.7060333333332E+01  1.7060333333332E+01  8.5301666666661E+00 
 1.9566443614137E-01  1.9566462249264E-01  1.9566535164661E-01  1.9566662360560E-01  1.9566843837372E-01  1.9567079595670E-01  1.9567369636210E-01  1.9567713959921E-01  1.9568112567897E-01  1.9568565461759E-01 
 4.3744444444444E-05  8.7488888888889E-05  8.7488888888889E-05  8.7488888888889E-05  8.7488888888889E-05  8.7488888888889E-05  8.7488888888889E-05  8.7488888888889E-05  8.7488888888889E-05  4.3744444444444E-05 
 1.3380188695643E+01  1.3380188695643E+01  1.3380188695643E+01  1.3380188695643E+01  1.3380188695643E+01  1.3380188695643E+01  1.3380188695643E+01  1.3380188695643E+01  1.3380188695643E+01  1.3380188695643E+01 
 3.3450471739256E+00  3.3450471739256E+00  3.3450471739256E+00  3.3450471739256E+00  3.3450471739256E+00  3.3450471739256E+00  3.3450471739256E+00  3.3450471739256E+00  3.3450471739256E+00  3.3450471739256E+00 
 5.5092271030692E-11  8.5992715213008E-11  1.8443562139193E-10  3.5616335312683E-10  6.0117780123994E-10  9.1948164859790E-10  1.3110785384998E-09  1.7759727373281E-09  2.3141693184413E-09  2.6015939216450E-09 
 1.8364152191478E-03  2.8664332158273E-03  6.1478743413762E-03  1.1872150714901E-02  2.0039325857160E-02  3.0649490394992E-02  4.3702762065319E-02  5.9199285717033E-02  7.7139233308960E-02  8.6720086279273E-02 
 9.0009336174974E-04  4.5004740461490E-03  1.5301649207654E-02  3.3303731207506E-02  5.8506908940447E-02  9.0911449089939E-02  1.3051771296692E-01  1.7732612277482E-01  2.3133717999873E-01  2.6014344135243E-01 
 4.6091337413194E-03  4.0987974751518E-03  3.1419129315387E-03  2.3126041051766E-03  1.6108711835468E-03  1.0367157698510E-03  5.9014088305436E-04  2.7115095798750E-04  7.9751845405691E-05  1.5950812076861E-05 
 0.0000000000000E+00  0.0000000000000E+00  0.0000000000000E+00  0.0000000000000E+00  0.0000000000000E+00  0.0000000000000E+00  0.0000000000000E+00  0.0000000000000E+00  0.0000000000000E+00  0.0000000000000E+00 
 0.0000000000000E+00  0.0000000000000E+00  0.0000000000000E+00  0.0000000000000E+00  0.0000000000000E+00  0.0000000000000E+00  0.0000000000000E+00  0.0000000000000E+00  0.0000000000000E+00  0.0000000000000E+00 
 0.0000000000000E+00  0.0000000000000E+00  0.0000000000000E+00  0.0000000000000E+00  0.0000000000000E+00  0.0000000000000E+00  0.0000000000000E+00  0.0000000000000E+00  0.0000000000000E+00  0.0000000000000E+00 
ZONE T = "ANOD, 4.0000E-08", I = 10, SOLUTIONTIME = 4.000000E-08
ZONETYPE = ORDERED
DATAPACKING = BLOCK
STRANDID = 1
 0.0000000000000E+00  8.7488888888889E-05  1.7497777777778E-04  2.6246666666667E-04  3.4995555555556E-04  4.3744444444444E-04  5.2493333333333E-04  6.1242222222222E-04  6.9991111111111E-04  7.8740000000000E-04 
 1.1589985682768E-09  3.4759082893130E-09  5.7939162716727E-09  8.1119393226742E-09  1.0428167834229E-08  1.2745150691049E-08  1.5063257531571E-08  1.7381405163429E-08  1.9699600017570E-08  2.0858724271362E-08 
 9.1999999999721E-01  9.1999999999721E-01  9.1999999999721E-01  9.1999999999721E-01  9.1999999999721E-01  9.1999999999721E-01  9.1999999999721E-01  9.1999999999721E-01  9.1999999999721E-01  9.1999999999885E-01 
 4.0000000001393E-02  4.0000000001393E-02  4.0000000001393E-02  4.0000000001393E-02  4.0000000001393E-02  4.0000000001393E-02  4.0000000001393E-02  4.0000000001393E-02  4.0000000001393E-02  4.0000000000576E-02 
 4.0000000001393E-02  4.0000000001393E-02  4.0000000001393E-02  4.0000000001393E-02  4.0000000001393E-02  4.0000000001393E-02  4.0000000001393E-02  4.0000000001393E-02  4.0000000001393E-02  4.0000000000576E-02 
 2.9159907786454E-02  2.9159892059254E-02  2.9159844877625E-02  2.9159766241449E-02  2.9159656150522E-02  2.9159514604552E-02  2.9159341603160E-02  2.9159137145880E-02  2.9158901232158E-02  2.9158633861354E-02 
 0.0000000000000E+00 -4.7371553598590E-09 -8.9170188749819E-09 -1.2539588468593E-08 -1.5604860517899E-08 -1.8112829854079E-08 -2.0063489762267E-08 -2.1456831981531E-08 -2.2292846704843E-08 -2.2571522579056E-08 
-2.9159907786454E-02 -2.9159896796409E-02 -2.9159853794643E-02 -2.9159778781037E-02 -2.9159671755382E-02 -2.9159532717381E-02 -2.9159361666649E-02 -2.9159158602712E-02 -2.9158923525005E-02 -2.9158656432876E-02 
-4.0899257331718E-02 -4.0899257331718E-02 -4.0899257331718E-02 -4.0899257331718E-02 -4.0899257331717E-02 -4.0899257331717E-02 -4.0899257331717E-02 -4.0899257331721E-02 -4.0899257331721E-02 -4.0899257332245E-02 
 1.1739349545264E-02  1.1739360535309E-02  1.1739403537074E-02  1.1739478550681E-02  1.1739585576335E-02  1.1739724614336E-02  1.1739895665068E-02  1.1740098729009E-02  1.1740333806716E-02  1.1740600899369E-02 
 1.6690502509902E+00  3.3381036811953E+00  3.3381161208051E+00  3.3381378208496E+00  3.3381687813980E+00  3.3382090025495E+00  3.3382584844324E+00  3.3383172272055E+00  3.3383852310549E+00  1.6692312481434E+00 