TITLE = "Solution on Domain BulkDomain1D_2"
VARIABLES = "x [m]"  
"Vel_axial" 	"MF_sp(ECDMC)" 	"MF_sp(Li+)" 	"MF_sp(PF6-)" 	"Volt(Electroly)" 	"Volt(CathodeVo)" 	
"Potential Drop Electrode-Electrolyte [V]" 	"Surf_0 Equilibrium Potential Drop Electrode-Electrolyte [V]" 	"Overpotential_0 [V]" 	"Current Source [A/m^2]" 	"Li+ flux [kmol/m^2/s]" 	"Electrolyte Current [A/m^2]" 	"Electrode Current [A/m^2]" 	
"CV Capacity discharged [A-s/m^2]" 	"Depth of discharge in CV [A-s/m^2]" 	"CV Capacity remaining [A-s/m^2]" 	"Initial CV capacity [A-s/m^2]" 	"Porosity []" 	"Surface Area [m2/m2] (area per area)" 	"Specific current (per particle area) [A/m^2]" 	"Control volume thickness [m]" 	
"MoleDens LiCoO2 [kmol/m^3]" 	"MoleDens CoO2 [kmol/m^3]" 	"qHeat_accum [J/m3]" 	"qHeat_step [W/m3]" 	"Joule_Lyte [W/m3]" 	"Joule_Solid [W/m3]" 	"electrodHeat [W/m3]" 	"OverpotHeat [W/m3]" 	"deltaSHeat [W/m3]" 	

ZONE T = "CATH, 0.0000E+00", I = 10, SOLUTIONTIME = 0.000000E+00
ZONETYPE = ORDERED
DATAPACKING = BLOCK
STRANDID = 3
 1.2700000000000E-03  1.3377333333333E-03  1.4054666666667E-03  1.4732000000000E-03  1.5409333333333E-03  1.6086666666667E-03  1.6764000000000E-03  1.7441333333333E-03  1.8118666666667E-03  1.8796000000000E-03 
 0.0000000000000E+00  0.0000000000000E+00  0.0000000000000E+00  0.0000000000000E+00  0.0000000000000E+00  0.0000000000000E+00  0.0000000000000E+00  0.0000000000000E+00  0.0000000000000E+00  0.0000000000000E+00 
 9.2000000000000E-01  9.2000000000000E-01  9.2000000000000E-01  9.2000000000000E-01  9.2000000000000E-01  9.2000000000000E-01  9.2000000000000E-01  9.2000000000000E-01  9.2000000000000E-01  9.2000000000000E-01 
 4.0000000000000E-02  4.0000000000000E-02  4.0000000000000E-02  4.0000000000000E-02  4.0000000000000E-02  4.0000000000000E-02  4.0000000000000E-02  4.0000000000000E-02  4.0000000000000E-02  4.0000000000000E-02 
 4.0000000000000E-02  4.0000000000000E-02  4.0000000000000E-02  4.0000000000000E-02  4.0000000000000E-02  4.0000000000000E-02  4.0000000000000E-02  4.0000000000000E-02  4.0000000000000E-02  4.0000000000000E-02 
-7.0000000000000E-02 -7.0000000000000E-02 -7.0000000000000E-02 -7.0000000000000E-02 -7.0000000000000E-02 -7.0000000000000E-02 -7.0000000000000E-02 -7.0000000000000E-02 -7.0000000000000E-02 -7.0000000000000E-02 
 3.8000000000000E+00  3.8000000000000E+00  3.8000000000000E+00  3.8000000000000E+00  3.8000000000000E+00  3.8000000000000E+00  3.8000000000000E+00  3.8000000000000E+00  3.8000000000000E+00  3.8000000000000E+00 
 3.8700000000000E+00  3.8700000000000E+00  3.8700000000000E+00  3.8700000000000E+00  3.8700000000000E+00  3.8700000000000E+00  3.8700000000000E+00  3.8700000000000E+00  3.8700000000000E+00  3.8700000000000E+00 
 3.9714142713289E+00  3.9714142713289E+00  3.9714142713289E+00  3.9714142713289E+00  3.9714142713289E+00  3.9714142713289E+00  3.9714142713289E+00  3.9714142713289E+00  3.9714142713289E+00  3.9714142713289E+00 
-1.0141427132889E-01 -1.0141427132889E-01 -1.0141427132889E-01 -1.0141427132889E-01 -1.0141427132889E-01 -1.0141427132889E-01 -1.0141427132889E-01 -1.0141427132889E-01 -1.0141427132889E-01 -1.0141427132889E-01 
-2.3826357195711E-01 -4.7652714391422E-01 -4.7652714391423E-01 -4.7652714391422E-01 -4.7652714391423E-01 -4.7652714391423E-01 -4.7652714391422E-01 -4.7652714391423E-01 -4.7652714391422E-01 -2.3826357195711E-01 
-0.0000000000000E+00 -0.0000000000000E+00 -0.0000000000000E+00 -0.0000000000000E+00 -0.0000000000000E+00 -0.0000000000000E+00 -0.0000000000000E+00 -0.0000000000000E+00 -0.0000000000000E+00 -0.0000000000000E+00 
 2.3826357195711E-01  0.0000000000000E+00  0.0000000000000E+00  0.0000000000000E+00  0.0000000000000E+00  0.0000000000000E+00  0.0000000000000E+00  0.0000000000000E+00  0.0000000000000E+00  0.0000000000000E+00 
 0.0000000000000E+00 -0.0000000000000E+00 -0.0000000000000E+00 -0.0000000000000E+00 -0.0000000000000E+00 -0.0000000000000E+00 -0.0000000000000E+00 -0.0000000000000E+00 -0.0000000000000E+00  2.3826357195711E-01 
-0.0000000000000E+00 -0.0000000000000E+00 -0.0000000000000E+00 -0.0000000000000E+00 -0.0000000000000E+00 -0.0000000000000E+00 -0.0000000000000E+00 -0.0000000000000E+00 -0.0000000000000E+00 -0.0000000000000E+00 
 5.2083019618450E+03  1.0416603923690E+04  1.0416603923690E+04  1.0416603923690E+04  1.0416603923690E+04  1.0416603923690E+04  1.0416603923690E+04  1.0416603923690E+04  1.0416603923690E+04  5.2083019618450E+03 
 3.5416453340546E+04  7.0832906681092E+04  7.0832906681093E+04  7.0832906681092E+04  7.0832906681093E+04  7.0832906681093E+04  7.0832906681092E+04  7.0832906681093E+04  7.0832906681092E+04  3.5416453340546E+04 
 4.0624755302391E+04  8.1249510604782E+04  8.1249510604783E+04  8.1249510604782E+04  8.1249510604783E+04  8.1249510604783E+04  8.1249510604782E+04  8.1249510604783E+04  8.1249510604782E+04  4.0624755302391E+04 
 3.5000000000000E-01  3.5000000000000E-01  3.5000000000000E-01  3.5000000000000E-01  3.5000000000000E-01  3.5000000000000E-01  3.5000000000000E-01  3.5000000000000E-01  3.5000000000000E-01  3.5000000000000E-01 
 6.6040000000000E+00  1.3208000000000E+01  1.3208000000000E+01  1.3208000000000E+01  1.3208000000000E+01  1.3208000000000E+01  1.3208000000000E+01  1.3208000000000E+01  1.3208000000000E+01  6.6040000000000E+00 
-3.6078675341780E-02 -3.6078675341780E-02 -3.6078675341780E-02 -3.6078675341780E-02 -3.6078675341780E-02 -3.6078675341780E-02 -3.6078675341780E-02 -3.6078675341780E-02 -3.6078675341780E-02 -3.6078675341780E-02 
 3.3866666666667E-05  6.7733333333333E-05  6.7733333333334E-05  6.7733333333333E-05  6.7733333333334E-05  6.7733333333334E-05  6.7733333333333E-05  6.7733333333334E-05  6.7733333333333E-05  3.3866666666667E-05 
 1.9126857953556E+01  1.9126857953556E+01  1.9126857953556E+01  1.9126857953556E+01  1.9126857953556E+01  1.9126857953556E+01  1.9126857953556E+01  1.9126857953556E+01  1.9126857953556E+01  1.9126857953556E+01 
 1.2751238635704E+01  1.2751238635704E+01  1.2751238635704E+01  1.2751238635704E+01  1.2751238635704E+01  1.2751238635704E+01  1.2751238635704E+01  1.2751238635704E+01  1.2751238635704E+01  1.2751238635704E+01 
 0.0000000000000E+00  0.0000000000000E+00  0.0000000000000E+00  0.0000000000000E+00  0.0000000000000E+00  0.0000000000000E+00  0.0000000000000E+00  0.0000000000000E+00  0.0000000000000E+00  0.0000000000000E+00 
 0.0000000000000E+00  0.0000000000000E+00  0.0000000000000E+00  0.0000000000000E+00  0.0000000000000E+00  0.0000000000000E+00  0.0000000000000E+00  0.0000000000000E+00  0.0000000000000E+00  0.0000000000000E+00 
 0.0000000000000E+00  0.0000000000000E+00  0.0000000000000E+00  0.0000000000000E+00  0.0000000000000E+00  0.0000000000000E+00  0.0000000000000E+00  0.0000000000000E+00  0.0000000000000E+00  0.0000000000000E+00 
 0.0000000000000E+00  0.0000000000000E+00  0.0000000000000E+00  0.0000000000000E+00  0.0000000000000E+00  0.0000000000000E+00  0.0000000000000E+00  0.0000000000000E+00  0.0000000000000E+00  0.0000000000000E+00 
 0.0000000000000E+00  0.0000000000000E+00  0.0000000000000E+00  0.0000000000000E+00  0.0000000000000E+00  0.0000000000000E+00  0.0000000000000E+00  0.0000000000000E+00  0.0000000000000E+00  0.0000000000000E+00 
 0.0000000000000E+00  0.0000000000000E+00  0.0000000000000E+00  0.0000000000000E+00  0.0000000000000E+00  0.0000000000000E+00  0.0000000000000E+00  0.0000000000000E+00  0.0000000000000E+00  0.0000000000000E+00 
 0.0000000000000E+00  0.0000000000000E+00  0.0000000000000E+00  0.0000000000000E+00  0.0000000000000E+00  0.0000000000000E+00  0.0000000000000E+00  0.0000000000000E+00  0.0000000000000E+00  0.0000000000000E+00 
ZONE T = "CATH, 1.0000E-08", I = 10, SOLUTIONTIME = 1.000000E-08
ZONETYPE = ORDERED
DATAPACKING = BLOCK
STRANDID = 3
 1.2700000000000E-03  1.3377333333333E-03  1.4054666666667E-03  1.4732000000000E-03  1.5409333333333E-03  1.6086666666667E-03  1.6764000000000E-03  1.7441333333333E-03  1.8118666666667E-03  1.8796000000000E-03 
 1.9701699891851E-08  1.7386148274341E-08  1.5071039731416E-08  1.2754725843008E-08  1.0437737273829E-08  8.1198780454128E-09  5.8009518852834E-09  3.4814885759018E-09  1.1598382260798E-09 -1.8160386390738E-12 
 9.2000000000032E-01  9.2000000000090E-01  9.2000000000090E-01  9.2000000000090E-01  9.2000000000090E-01  9.2000000000090E-01  9.2000000000090E-01  9.2000000000090E-01  9.2000000000090E-01  9.2000000000090E-01 
 3.9999999999841E-02  3.9999999999551E-02  3.9999999999551E-02  3.9999999999551E-02  3.9999999999550E-02  3.9999999999550E-02  3.9999999999550E-02  3.9999999999550E-02  3.9999999999550E-02  3.9999999999549E-02 
 3.9999999999841E-02  3.9999999999551E-02  3.9999999999551E-02  3.9999999999551E-02  3.9999999999550E-02  3.9999999999550E-02  3.9999999999550E-02  3.9999999999550E-02  3.9999999999550E-02  3.9999999999549E-02 
 2.9165655455807E-02  2.9165448444626E-02  2.9165265759547E-02  2.9165107403547E-02  2.9164973381656E-02  2.9164863700963E-02  2.9164778370614E-02  2.9164717401818E-02  2.9164680807850E-02  2.9164668604054E-02 
 3.8001746429253E+00  3.8001724880262E+00  3.8001660231657E+00  3.8001552478163E+00  3.8001401610865E+00  3.8001207617205E+00  3.8000970480979E+00  3.8000690182326E+00  3.8000366697729E+00  3.8000000000000E+00 
 3.7710089874695E+00  3.7710070395816E+00  3.7710007574062E+00  3.7709901404127E+00  3.7709751877048E+00  3.7709558980196E+00  3.7709322697273E+00  3.7709043008308E+00  3.7708719889650E+00  3.7708353313959E+00 
 3.9714142713287E+00  3.9714142713285E+00  3.9714142713285E+00  3.9714142713285E+00  3.9714142713285E+00  3.9714142713285E+00  3.9714142713285E+00  3.9714142713285E+00  3.9714142713285E+00  3.9714142713285E+00 
-2.0040528385923E-01 -2.0040723174687E-01 -2.0041351392232E-01 -2.0042413091577E-01 -2.0043908362368E-01 -2.0045837330892E-01 -2.0048200160122E-01 -2.0050997049767E-01 -2.0054228236344E-01 -2.0057893993254E-01 
-1.6672261263417E+00 -3.3345787597735E+00 -3.3349867931941E+00 -3.3356764905790E+00 -3.3366480846287E+00 -3.3379019032764E+00 -3.3394383699235E+00 -3.3412580037446E+00 -3.3433614200599E+00 -1.6728746653895E+00 
 1.4705213825557E-07  1.2977176975732E-07  1.1248941933671E-07  9.5203494815299E-08  7.7912535359363E-08  6.0615078446588E-08  4.3309659361877E-08  2.5994810686019E-08  8.6690618230664E-09  8.6690618230664E-09 
 3.0043950617025E+01  2.6709435110606E+01  2.3374652334260E+01  2.0039320692450E+01  1.6703158404690E+01  1.3365883410659E+01  1.0027213274091E+01  6.6868650874095E+00  3.3445553754299E+00  0.0000000000000E+00 
 0.0000000000000E+00  3.3345155061582E+00  6.6692982827825E+00  1.0004629924689E+01  1.3340792212230E+01  1.6678067206126E+01  2.0016737342813E+01  2.3357085529610E+01  2.6699395241448E+01  3.0043950616842E+01 
 1.6672261263417E-08  3.3345787597735E-08  3.3349867931941E-08  3.3356764905790E-08  3.3366480846287E-08  3.3379019032764E-08  3.3394383699235E-08  3.3412580037446E-08  3.3433614200599E-08  1.6728746653895E-08 
 5.2083019618617E+03  1.0416603923723E+04  1.0416603923723E+04  1.0416603923723E+04  1.0416603923723E+04  1.0416603923723E+04  1.0416603923723E+04  1.0416603923723E+04  1.0416603923723E+04  5.2083019618618E+03 
 3.5416453340530E+04  7.0832906681059E+04  7.0832906681059E+04  7.0832906681059E+04  7.0832906681059E+04  7.0832906681059E+04  7.0832906681059E+04  7.0832906681059E+04  7.0832906681059E+04  3.5416453340530E+04 
 4.0624755302391E+04  8.1249510604782E+04  8.1249510604783E+04  8.1249510604782E+04  8.1249510604783E+04  8.1249510604783E+04  8.1249510604782E+04  8.1249510604783E+04  8.1249510604782E+04  4.0624755302391E+04 
 3.5000000000000E-01  3.5000000000000E-01  3.5000000000000E-01  3.5000000000000E-01  3.5000000000000E-01  3.5000000000000E-01  3.5000000000000E-01  3.5000000000000E-01  3.5000000000000E-01  3.5000000000000E-01 
 6.6040000000001E+00  1.3208000000000E+01  1.3208000000000E+01  1.3208000000000E+01  1.3208000000000E+01  1.3208000000000E+01  1.3208000000000E+01  1.3208000000000E+01  1.3208000000000E+01  6.6040000000001E+00 
-2.5245701489122E-01 -2.5246659295681E-01 -2.5249748585660E-01 -2.5254970401113E-01 -2.5262326503851E-01 -2.5271819376714E-01 -2.5283452225345E-01 -2.5297228980501E-01 -2.5313154300877E-01 -2.5331233576460E-01 
 3.3866666666667E-05  6.7733333333333E-05  6.7733333333334E-05  6.7733333333333E-05  6.7733333333334E-05  6.7733333333334E-05  6.7733333333333E-05  6.7733333333334E-05  6.7733333333333E-05  3.3866666666667E-05 
 1.9126857953561E+01  1.9126857953561E+01  1.9126857953561E+01  1.9126857953561E+01  1.9126857953561E+01  1.9126857953561E+01  1.9126857953561E+01  1.9126857953561E+01  1.9126857953561E+01  1.9126857953561E+01 
 1.2751238635699E+01  1.2751238635699E+01  1.2751238635699E+01  1.2751238635699E+01  1.2751238635699E+01  1.2751238635699E+01  1.2751238635699E+01  1.2751238635699E+01  1.2751238635699E+01  1.2751238635699E+01 
 1.3976874747558E-09  3.4235581110942E-09  9.6097514670385E-09  2.0066254183021E-08  3.4796598710807E-08  5.3805763163876E-08  7.7100174888923E-08  1.0468771508043E-07  1.3657772445055E-07  1.5359960543257E-07 
 1.3976874747558E-01  3.4235581110942E-01  9.6097514670385E-01  2.0066254183021E+00  3.4796598710807E+00  5.3805763163876E+00  7.7100174888923E+00  1.0468771508043E+01  1.3657772445055E+01  1.5359960543257E+01 
 8.6726858824211E-02  7.7134293349328E-02  5.9145806401297E-02  4.3550489810759E-02  3.0348512805127E-02  1.9540854184765E-02  1.1129303709289E-02  5.1164640765709E-03  1.5057534831444E-03  3.0140877908337E-04 
 5.3041888651372E-02  2.6522151776009E-01  9.0182934030255E-01  1.9630749284913E+00  3.4493113582756E+00  5.3610354622028E+00  7.6988881851831E+00  1.0463655043966E+01  1.3656266691572E+01  1.5359659134478E+01 
 0.0000000000000E+00  0.0000000000000E+00  0.0000000000000E+00  0.0000000000000E+00  0.0000000000000E+00  0.0000000000000E+00  0.0000000000000E+00  0.0000000000000E+00  0.0000000000000E+00  0.0000000000000E+00 
 0.0000000000000E+00  0.0000000000000E+00  0.0000000000000E+00  0.0000000000000E+00  0.0000000000000E+00  0.0000000000000E+00  0.0000000000000E+00  0.0000000000000E+00  0.0000000000000E+00  0.0000000000000E+00 
 0.0000000000000E+00  0.0000000000000E+00  0.0000000000000E+00  0.0000000000000E+00  0.0000000000000E+00  0.0000000000000E+00  0.0000000000000E+00  0.0000000000000E+00  0.0000000000000E+00  0.0000000000000E+00 
ZONE T = "CATH, 2.0000E-08", I = 10, SOLUTIONTIME = 2.000000E-08
ZONETYPE = ORDERED
DATAPACKING = BLOCK
STRANDID = 3
 1.2700000000000E-03  1.3377333333333E-03  1.4054666666667E-03  1.4732000000000E-03  1.5409333333333E-03  1.6086666666667E-03  1.6764000000000E-03  1.7441333333333E-03  1.8118666666667E-03  1.8796000000000E-03 
 1.9703152722344E-08  1.7387601104883E-08  1.5071039731097E-08  1.2753999427283E-08  1.0437010858153E-08  8.1195148375143E-09  5.8005886774340E-09  3.4796725371901E-09  1.1580221874167E-09 -3.6320772779424E-12 
 9.2000000000063E-01  9.2000000000180E-01  9.2000000000180E-01  9.2000000000180E-01  9.2000000000180E-01  9.2000000000180E-01  9.2000000000180E-01  9.2000000000180E-01  9.2000000000180E-01  9.2000000000180E-01 
 3.9999999999683E-02  3.9999999999101E-02  3.9999999999101E-02  3.9999999999101E-02  3.9999999999101E-02  3.9999999999100E-02  3.9999999999100E-02  3.9999999999100E-02  3.9999999999099E-02  3.9999999999098E-02 
 3.9999999999683E-02  3.9999999999101E-02  3.9999999999101E-02  3.9999999999101E-02  3.9999999999101E-02  3.9999999999100E-02  3.9999999999100E-02  3.9999999999100E-02  3.9999999999099E-02  3.9999999999098E-02 
 2.9165655455449E-02  2.9165448444268E-02  2.9165265759189E-02  2.9165107403189E-02  2.9164973381298E-02  2.9164863700605E-02  2.9164778370256E-02  2.9164717401460E-02  2.9164680807492E-02  2.9164668603696E-02 
 3.8001746429253E+00  3.8001724880262E+00  3.8001660231657E+00  3.8001552478163E+00  3.8001401610865E+00  3.8001207617205E+00  3.8000970480979E+00  3.8000690182326E+00  3.8000366697729E+00  3.8000000000000E+00 
 3.7710089874698E+00  3.7710070395820E+00  3.7710007574065E+00  3.7709901404131E+00  3.7709751877052E+00  3.7709558980199E+00  3.7709322697276E+00  3.7709043008312E+00  3.7708719889654E+00  3.7708353313963E+00 
 3.9714142713285E+00  3.9714142713281E+00  3.9714142713281E+00  3.9714142713281E+00  3.9714142713281E+00  3.9714142713281E+00  3.9714142713281E+00  3.9714142713281E+00  3.9714142713281E+00  3.9714142713281E+00 
-2.0040528385866E-01 -2.0040723174611E-01 -2.0041351392157E-01 -2.0042413091502E-01 -2.0043908362292E-01 -2.0045837330817E-01 -2.0048200160047E-01 -2.0050997049692E-01 -2.0054228236268E-01 -2.0057893993179E-01 
-1.6672261263193E+00 -3.3345787597046E+00 -3.3349867931251E+00 -3.3356764905099E+00 -3.3366480845596E+00 -3.3379019032072E+00 -3.3394383698543E+00 -3.3412580036752E+00 -3.3433614199904E+00 -1.6728746653547E+00 
 1.4705227082090E-07  1.2977176978860E-07  1.1248941937244E-07  9.5203494873624E-08  7.7912535434472E-08  6.0615078544306E-08  4.3309659468528E-08  2.5994810812816E-08  8.6690619720254E-09  8.6690619720254E-09 
 3.0043950616311E+01  2.6709435110357E+01  2.3374652333759E+01  2.0039320691749E+01  1.6703158404502E+01  1.3365883410509E+01  1.0027213273978E+01  6.6868650870964E+00  3.3445553751544E+00  0.0000000000000E+00 
 0.0000000000000E+00  3.3345155061582E+00  6.6692982826107E+00  1.0004629924345E+01  1.3340792212058E+01  1.6678067205783E+01  2.0016737342297E+01  2.3357085529095E+01  2.6699395240932E+01  3.0043950616464E+01 
 3.3344522526610E-08  6.6691575194781E-08  6.6699735863192E-08  6.6713529810889E-08  6.6732961691883E-08  6.6758038064836E-08  6.6788767397778E-08  6.6825160074198E-08  6.6867228400502E-08  3.3457493307441E-08 
 5.2083019618784E+03  1.0416603923757E+04  1.0416603923757E+04  1.0416603923757E+04  1.0416603923757E+04  1.0416603923757E+04  1.0416603923757E+04  1.0416603923757E+04  1.0416603923757E+04  5.2083019618785E+03 
 3.5416453340513E+04  7.0832906681025E+04  7.0832906681026E+04  7.0832906681025E+04  7.0832906681026E+04  7.0832906681026E+04  7.0832906681025E+04  7.0832906681026E+04  7.0832906681025E+04  3.5416453340513E+04 
 4.0624755302391E+04  8.1249510604782E+04  8.1249510604783E+04  8.1249510604782E+04  8.1249510604783E+04  8.1249510604783E+04  8.1249510604782E+04  8.1249510604783E+04  8.1249510604782E+04  4.0624755302391E+04 
 3.5000000000000E-01  3.5000000000000E-01  3.5000000000000E-01  3.5000000000000E-01  3.5000000000000E-01  3.5000000000000E-01  3.5000000000000E-01  3.5000000000000E-01  3.5000000000000E-01  3.5000000000000E-01 
 6.6040000000001E+00  1.3208000000000E+01  1.3208000000000E+01  1.3208000000000E+01  1.3208000000000E+01  1.3208000000000E+01  1.3208000000000E+01  1.3208000000000E+01  1.3208000000000E+01  6.6040000000001E+00 
-2.5245701488784E-01 -2.5246659295159E-01 -2.5249748585138E-01 -2.5254970400590E-01 -2.5262326503328E-01 -2.5271819376190E-01 -2.5283452224820E-01 -2.5297228979976E-01 -2.5313154300351E-01 -2.5331233575933E-01 
 3.3866666666667E-05  6.7733333333333E-05  6.7733333333334E-05  6.7733333333333E-05  6.7733333333334E-05  6.7733333333334E-05  6.7733333333333E-05  6.7733333333334E-05  6.7733333333333E-05  3.3866666666667E-05 
 1.9126857953566E+01  1.9126857953566E+01  1.9126857953566E+01  1.9126857953566E+01  1.9126857953566E+01  1.9126857953566E+01  1.9126857953566E+01  1.9126857953566E+01  1.9126857953566E+01  1.9126857953566E+01 
 1.2751238635694E+01  1.2751238635694E+01  1.2751238635694E+01  1.2751238635694E+01  1.2751238635694E+01  1.2751238635694E+01  1.2751238635694E+01  1.2751238635694E+01  1.2751238635694E+01  1.2751238635694E+01 
 2.7953749494760E-09  6.8471162221796E-09  1.9219502933514E-08  4.0132508364702E-08  6.9593197420845E-08  1.0761152632534E-07  1.5420034977402E-07  2.0937543015614E-07  2.7315544889596E-07  3.0719921086141E-07 
 1.3976874747202E-01  3.4235581110854E-01  9.6097514664758E-01  2.0066254181682E+00  3.4796598710038E+00  5.3805763161468E+00  7.7100174885095E+00  1.0468771507572E+01  1.3657772444541E+01  1.5359960542885E+01 
 8.6726858820645E-02  7.7134293348448E-02  5.9145806399692E-02  4.3550489808046E-02  3.0348512804786E-02  1.9540854184545E-02  1.1129303709164E-02  5.1164640762564E-03  1.5057534828705E-03  3.0140877907997E-04 
 5.3041888651372E-02  2.6522151776009E-01  9.0182934024789E-01  1.9630749283601E+00  3.4493113581990E+00  5.3610354619622E+00  7.6988881848003E+00  1.0463655043496E+01  1.3656266691058E+01  1.5359659134106E+01 
 0.0000000000000E+00  0.0000000000000E+00  0.0000000000000E+00  0.0000000000000E+00  0.0000000000000E+00  0.0000000000000E+00  0.0000000000000E+00  0.0000000000000E+00  0.0000000000000E+00  0.0000000000000E+00 
 0.0000000000000E+00  0.0000000000000E+00  0.0000000000000E+00  0.0000000000000E+00  0.0000000000000E+00  0.0000000000000E+00  0.0000000000000E+00  0.0000000000000E+00  0.0000000000000E+00  0.0000000000000E+00 
 0.0000000000000E+00  0.0000000000000E+00  0.0000000000000E+00  0.0000000000000E+00  0.0000000000000E+00  0.0000000000000E+00  0.0000000000000E+00  0.0000000000000E+00  0.0000000000000E+00  0.0000000000000E+00 
ZONE T = "CATH, 3.0000E-08", I = 10, SOLUTIONTIME = 3.000000E-08
ZONETYPE = ORDERED
DATAPACKING = BLOCK
STRANDID = 3
 1.2700000000000E-03  1.3377333333333E-03  1.4054666666667E-03  1.4732000000000E-03  1.5409333333333E-03  1.6086666666667E-03  1.6764000000000E-03  1.7441333333333E-03  1.8118666666667E-03  1.8796000000000E-03 
 1.9706784799211E-08  1.7391233181798E-08  1.5075398223516E-08  1.2759810750662E-08  1.0442822181580E-08  8.1245997455339E-09  5.8056735855021E-09  3.4854838607621E-09  1.1638335110372E-09  2.1792463667970E-12 
 9.2000000000095E-01  9.2000000000270E-01  9.2000000000270E-01  9.2000000000270E-01  9.2000000000270E-01  9.2000000000270E-01  9.2000000000270E-01  9.2000000000270E-01  9.2000000000270E-01  9.2000000000270E-01 
 3.9999999999524E-02  3.9999999998652E-02  3.9999999998652E-02  3.9999999998652E-02  3.9999999998651E-02  3.9999999998651E-02  3.9999999998650E-02  3.9999999998649E-02  3.9999999998649E-02  3.9999999998648E-02 
 3.9999999999524E-02  3.9999999998652E-02  3.9999999998652E-02  3.9999999998652E-02  3.9999999998651E-02  3.9999999998651E-02  3.9999999998650E-02  3.9999999998649E-02  3.9999999998649E-02  3.9999999998648E-02 
 2.9165655455085E-02  2.9165448443904E-02  2.9165265758825E-02  2.9165107402825E-02  2.9164973380934E-02  2.9164863700241E-02  2.9164778369892E-02  2.9164717401096E-02  2.9164680807128E-02  2.9164668603332E-02 
 3.8001746429253E+00  3.8001724880262E+00  3.8001660231657E+00  3.8001552478163E+00  3.8001401610865E+00  3.8001207617205E+00  3.8000970480979E+00  3.8000690182326E+00  3.8000366697729E+00  3.8000000000000E+00 
 3.7710089874702E+00  3.7710070395823E+00  3.7710007574069E+00  3.7709901404134E+00  3.7709751877055E+00  3.7709558980203E+00  3.7709322697280E+00  3.7709043008315E+00  3.7708719889658E+00  3.7708353313967E+00 
 3.9714142713283E+00  3.9714142713277E+00  3.9714142713277E+00  3.9714142713277E+00  3.9714142713277E+00  3.9714142713277E+00  3.9714142713277E+00  3.9714142713277E+00  3.9714142713277E+00  3.9714142713277E+00 
-2.0040528385809E-01 -2.0040723174536E-01 -2.0041351392081E-01 -2.0042413091426E-01 -2.0043908362216E-01 -2.0045837330741E-01 -2.0048200159971E-01 -2.0050997049616E-01 -2.0054228236192E-01 -2.0057893993102E-01 
-1.6672261262967E+00 -3.3345787596352E+00 -3.3349867930557E+00 -3.3356764904405E+00 -3.3366480844901E+00 -3.3379019031376E+00 -3.3394383697846E+00 -3.3412580036055E+00 -3.3433614199206E+00 -1.6728746653197E+00 
 1.4705240338825E-07  1.2977176981583E-07  1.1248941941309E-07  9.5203494931949E-08  7.7912535507116E-08  6.0615078639112E-08  4.3309659575628E-08  2.5994810944541E-08  8.6690621209844E-09  8.6690621209844E-09 
 3.0043950615598E+01  2.6709435109633E+01  2.3374652333259E+01  2.0039320691524E+01  1.6703158404076E+01  1.3365883410121E+01  1.0027213273627E+01  6.6868650870211E+00  3.3445553753546E+00  0.0000000000000E+00 
 0.0000000000000E+00  3.3345155059864E+00  6.6692982824389E+00  1.0004629924345E+01  1.3340792211714E+01  1.6678067205439E+01  2.0016737341954E+01  2.3357085528580E+01  2.6699395240417E+01  3.0043950615741E+01 
 5.0016783789577E-08  1.0003736279113E-07  1.0004960379375E-07  1.0007029471529E-07  1.0009944253678E-07  1.0013705709621E-07  1.0018315109562E-07  1.0023774011025E-07  1.0030084259971E-07  5.0186239960638E-08 
 5.2083019618950E+03  1.0416603923790E+04  1.0416603923790E+04  1.0416603923790E+04  1.0416603923790E+04  1.0416603923790E+04  1.0416603923790E+04  1.0416603923790E+04  1.0416603923790E+04  5.2083019618952E+03 
 3.5416453340496E+04  7.0832906680992E+04  7.0832906680993E+04  7.0832906680992E+04  7.0832906680992E+04  7.0832906680992E+04  7.0832906680992E+04  7.0832906680992E+04  7.0832906680992E+04  3.5416453340496E+04 
 4.0624755302391E+04  8.1249510604782E+04  8.1249510604783E+04  8.1249510604782E+04  8.1249510604783E+04  8.1249510604783E+04  8.1249510604782E+04  8.1249510604783E+04  8.1249510604782E+04  4.0624755302391E+04 
 3.5000000000000E-01  3.5000000000000E-01  3.5000000000000E-01  3.5000000000000E-01  3.5000000000000E-01  3.5000000000000E-01  3.5000000000000E-01  3.5000000000000E-01  3.5000000000000E-01  3.5000000000000E-01 
 6.6040000000002E+00  1.3208000000000E+01  1.3208000000000E+01  1.3208000000000E+01  1.3208000000000E+01  1.3208000000000E+01  1.3208000000000E+01  1.3208000000000E+01  1.3208000000000E+01  6.6040000000002E+00 
-2.5245701488442E-01 -2.5246659294633E-01 -2.5249748584612E-01 -2.5254970400064E-01 -2.5262326502802E-01 -2.5271819375663E-01 -2.5283452224293E-01 -2.5297228979448E-01 -2.5313154299822E-01 -2.5331233575403E-01 
 3.3866666666667E-05  6.7733333333333E-05  6.7733333333334E-05  6.7733333333333E-05  6.7733333333334E-05  6.7733333333334E-05  6.7733333333333E-05  6.7733333333334E-05  6.7733333333333E-05  3.3866666666667E-05 
 1.9126857953571E+01  1.9126857953571E+01  1.9126857953571E+01  1.9126857953571E+01  1.9126857953571E+01  1.9126857953571E+01  1.9126857953571E+01  1.9126857953571E+01  1.9126857953571E+01  1.9126857953571E+01 
 1.2751238635688E+01  1.2751238635688E+01  1.2751238635688E+01  1.2751238635688E+01  1.2751238635688E+01  1.2751238635688E+01  1.2751238635688E+01  1.2751238635688E+01  1.2751238635688E+01  1.2751238635688E+01 
 4.1930624241605E-09  1.0270674332903E-08  2.8829254399643E-08  6.0198762546379E-08  1.0438979612890E-07  1.6141728948483E-07  2.3130052465626E-07  3.1406314522737E-07  4.0973317333601E-07  4.6079881628282E-07 
 1.3976874746845E-01  3.4235581107230E-01  9.6097514661284E-01  2.0066254181677E+00  3.4796598708059E+00  5.3805763159490E+00  7.7100174882245E+00  1.0468771507123E+01  1.3657772444005E+01  1.5359960542141E+01 
 8.6726858817079E-02  7.7134293345003E-02  5.9145806397745E-02  4.3550489807557E-02  3.0348512803675E-02  1.9540854183555E-02  1.1129303708610E-02  5.1164640760276E-03  1.5057534831105E-03  3.0140877907657E-04 
 5.3041888651372E-02  2.6522151772730E-01  9.0182934021510E-01  1.9630749283601E+00  3.4493113580022E+00  5.3610354617654E+00  7.6988881845159E+00  1.0463655043047E+01  1.3656266690522E+01  1.5359659133361E+01 
 0.0000000000000E+00  0.0000000000000E+00  0.0000000000000E+00  0.0000000000000E+00  0.0000000000000E+00  0.0000000000000E+00  0.0000000000000E+00  0.0000000000000E+00  0.0000000000000E+00  0.0000000000000E+00 
 0.0000000000000E+00  0.0000000000000E+00  0.0000000000000E+00  0.0000000000000E+00  0.0000000000000E+00  0.0000000000000E+00  0.0000000000000E+00  0.0000000000000E+00  0.0000000000000E+00  0.0000000000000E+00 
 0.0000000000000E+00  0.0000000000000E+00  0.0000000000000E+00  0.0000000000000E+00  0.0000000000000E+00  0.0000000000000E+00  0.0000000000000E+00  0.0000000000000E+00  0.0000000000000E+00  0.0000000000000E+00 
ZONE T = "CATH, 4.0000E-08", I = 10, SOLUTIONTIME = 4.000000E-08
ZONETYPE = ORDERED
DATAPACKING = BLOCK
STRANDID = 3
 1.2700000000000E-03  1.3377333333333E-03  1.4054666666667E-03  1.4732000000000E-03  1.5409333333333E-03  1.6086666666667E-03  1.6764000000000E-03  1.7441333333333E-03  1.8118666666667E-03  1.8796000000000E-03 
 1.9703152721522E-08  1.7387601104157E-08  1.5071766145923E-08  1.2755089049934E-08  1.0438100480901E-08  8.1202412526305E-09  5.8009518849193E-09  3.4811253679556E-09  1.1602014337349E-09 -1.0896231833913E-12 
 9.2000000000127E-01  9.2000000000359E-01  9.2000000000359E-01  9.2000000000360E-01  9.2000000000360E-01  9.2000000000360E-01  9.2000000000360E-01  9.2000000000360E-01  9.2000000000360E-01  9.2000000000361E-01 
 3.9999999999365E-02  3.9999999998203E-02  3.9999999998203E-02  3.9999999998202E-02  3.9999999998202E-02  3.9999999998201E-02  3.9999999998200E-02  3.9999999998199E-02  3.9999999998198E-02  3.9999999998197E-02 
 3.9999999999365E-02  3.9999999998203E-02  3.9999999998203E-02  3.9999999998202E-02  3.9999999998202E-02  3.9999999998201E-02  3.9999999998200E-02  3.9999999998199E-02  3.9999999998198E-02  3.9999999998197E-02 
 2.9165655454719E-02  2.9165448443539E-02  2.9165265758460E-02  2.9165107402459E-02  2.9164973380569E-02  2.9164863699875E-02  2.9164778369527E-02  2.9164717400731E-02  2.9164680806763E-02  2.9164668602967E-02 
 3.8001746429252E+00  3.8001724880262E+00  3.8001660231657E+00  3.8001552478163E+00  3.8001401610865E+00  3.8001207617205E+00  3.8000970480979E+00  3.8000690182326E+00  3.8000366697729E+00  3.8000000000000E+00 
 3.7710089874705E+00  3.7710070395827E+00  3.7710007574072E+00  3.7709901404138E+00  3.7709751877059E+00  3.7709558980206E+00  3.7709322697283E+00  3.7709043008319E+00  3.7708719889661E+00  3.7708353313970E+00 
 3.9714142713280E+00  3.9714142713273E+00  3.9714142713273E+00  3.9714142713273E+00  3.9714142713273E+00  3.9714142713273E+00  3.9714142713273E+00  3.9714142713273E+00  3.9714142713273E+00  3.9714142713273E+00 
-2.0040528385752E-01 -2.0040723174460E-01 -2.0041351392005E-01 -2.0042413091350E-01 -2.0043908362140E-01 -2.0045837330665E-01 -2.0048200159894E-01 -2.0050997049539E-01 -2.0054228236116E-01 -2.0057893993026E-01 
-1.6672261262741E+00 -3.3345787595657E+00 -3.3349867929862E+00 -3.3356764903710E+00 -3.3366480844205E+00 -3.3379019030680E+00 -3.3394383697148E+00 -3.3412580035357E+00 -3.3433614198506E+00 -1.6728746652846E+00 