TITLE = "Solution on Domain BulkDomain1D_0"
VARIABLES = "x [m]"  
"Vel_axial" 
"MF_sp(ECDMC)" 
"MF_sp(Li+)" 
"MF_sp(PF6-)" 
"Volt(Electroly)" 
"Volt(AnodeVolt)" 
"Potential Drop Electrode-Electrolyte [V]" 
"Surf_0 Equilibrium Potential Drop Electrode-Electrolyte [V]" 
"Overpotential_0 [V]" 
"Current Source [A/m^2]" 
"Li+ flux [kmol/m^2/s]" 
"Electrolyte Current [A/m^2]" 
"Electrode Current [A/m^2]" 
"CV Capacity discharged [A-s/m^2]" 
"Depth of discharge in CV [A-s/m^2]" 
"CV Capacity remaining [A-s/m^2]" 
"Initial CV capacity [A-s/m^2]" 
"Porosity []" 
"Surface Area [m2/m2] (area per area)" 
"Specific current (per particle area) [A/m^2]" 
"Control volume thickness [m]" 
"MoleDens Li_C6-bulk [kmol/m^3]" 
"MoleDens V_C6-bulk [kmol/m^3]" 
"qHeat_accum [J/m3]" 
"qHeat_step [W/m3]" 
"Joule_Lyte [W/m3]" 
"Joule_Solid [W/m3]" 
"electrodHeat [W/m3]" 
"OverpotHeat [W/m3]" 
"deltaSHeat [W/m3]" 

ZONE T = "ANOD, 0.0000E+00", I = 10, SOLUTIONTIME = 0.000000E+00
ZONETYPE = ORDERED
DATAPACKING = BLOCK
STRANDID = 1
 0.0000000000000E+00  8.7488888888889E-05  1.7497777777778E-04  2.6246666666667E-04  3.4995555555556E-04  4.3744444444444E-04  5.2493333333333E-04  6.1242222222222E-04  6.9991111111111E-04  7.8740000000000E-04 
 0.0000000000000E+00  0.0000000000000E+00  0.0000000000000E+00  0.0000000000000E+00  0.0000000000000E+00  0.0000000000000E+00  0.0000000000000E+00  0.0000000000000E+00  0.0000000000000E+00  0.0000000000000E+00 
 9.2000000000000E-01  9.2000000000000E-01  9.2000000000000E-01  9.2000000000000E-01  9.2000000000000E-01  9.2000000000000E-01  9.2000000000000E-01  9.2000000000000E-01  9.2000000000000E-01  9.2000000000000E-01 
 4.0000000000000E-02  4.0000000000000E-02  4.0000000000000E-02  4.0000000000000E-02  4.0000000000000E-02  4.0000000000000E-02  4.0000000000000E-02  4.0000000000000E-02  4.0000000000000E-02  4.0000000000000E-02 
 4.0000000000000E-02  4.0000000000000E-02  4.0000000000000E-02  4.0000000000000E-02  4.0000000000000E-02  4.0000000000000E-02  4.0000000000000E-02  4.0000000000000E-02  4.0000000000000E-02  4.0000000000000E-02 
-7.0000000000000E-02 -7.0000000000000E-02 -7.0000000000000E-02 -7.0000000000000E-02 -7.0000000000000E-02 -7.0000000000000E-02 -7.0000000000000E-02 -7.0000000000000E-02 -7.0000000000000E-02 -7.0000000000000E-02 
 0.0000000000000E+00  0.0000000000000E+00  0.0000000000000E+00  0.0000000000000E+00  0.0000000000000E+00  0.0000000000000E+00  0.0000000000000E+00  0.0000000000000E+00  0.0000000000000E+00  0.0000000000000E+00 
 7.0000000000000E-02  7.0000000000000E-02  7.0000000000000E-02  7.0000000000000E-02  7.0000000000000E-02  7.0000000000000E-02  7.0000000000000E-02  7.0000000000000E-02  7.0000000000000E-02  7.0000000000000E-02 
-4.0906712753391E-02 -4.0906712753391E-02 -4.0906712753391E-02 -4.0906712753391E-02 -4.0906712753391E-02 -4.0906712753391E-02 -4.0906712753391E-02 -4.0906712753391E-02 -4.0906712753391E-02 -4.0906712753391E-02 
 1.1090671275339E-01  1.1090671275339E-01  1.1090671275339E-01  1.1090671275339E-01  1.1090671275339E-01  1.1090671275339E-01  1.1090671275339E-01  1.1090671275339E-01  1.1090671275339E-01  1.1090671275339E-01 
 3.0930240924008E+01  6.1860481848017E+01  6.1860481848017E+01  6.1860481848017E+01  6.1860481848017E+01  6.1860481848017E+01  6.1860481848017E+01  6.1860481848017E+01  6.1860481848017E+01  3.0930240924008E+01 
-0.0000000000000E+00 -0.0000000000000E+00 -0.0000000000000E+00 -0.0000000000000E+00 -0.0000000000000E+00 -0.0000000000000E+00 -0.0000000000000E+00 -0.0000000000000E+00 -0.0000000000000E+00 -0.0000000000000E+00 
 0.0000000000000E+00  0.0000000000000E+00  0.0000000000000E+00  0.0000000000000E+00  0.0000000000000E+00  0.0000000000000E+00  0.0000000000000E+00  0.0000000000000E+00  0.0000000000000E+00  3.0930240924008E+01 
 3.0930240924008E+01 -0.0000000000000E+00 -0.0000000000000E+00 -0.0000000000000E+00 -0.0000000000000E+00 -0.0000000000000E+00 -0.0000000000000E+00 -0.0000000000000E+00 -0.0000000000000E+00  0.0000000000000E+00 
 0.0000000000000E+00  0.0000000000000E+00  0.0000000000000E+00  0.0000000000000E+00  0.0000000000000E+00  0.0000000000000E+00  0.0000000000000E+00  0.0000000000000E+00  0.0000000000000E+00  0.0000000000000E+00 
 7.0592160225764E+03  1.4118432045153E+04  1.4118432045153E+04  1.4118432045153E+04  1.4118432045153E+04  1.4118432045153E+04  1.4118432045153E+04  1.4118432045153E+04  1.4118432045153E+04  7.0592160225764E+03 
 5.2238198567065E+04  1.0447639713413E+05  1.0447639713413E+05  1.0447639713413E+05  1.0447639713413E+05  1.0447639713413E+05  1.0447639713413E+05  1.0447639713413E+05  1.0447639713413E+05  5.2238198567065E+04 
 5.9297414589642E+04  1.1859482917928E+05  1.1859482917928E+05  1.1859482917928E+05  1.1859482917928E+05  1.1859482917928E+05  1.1859482917928E+05  1.1859482917928E+05  1.1859482917928E+05  5.9297414589642E+04 
 3.5000000000000E-01  3.5000000000000E-01  3.5000000000000E-01  3.5000000000000E-01  3.5000000000000E-01  3.5000000000000E-01  3.5000000000000E-01  3.5000000000000E-01  3.5000000000000E-01  3.5000000000000E-01 
 8.5301666666667E+00  1.7060333333333E+01  1.7060333333333E+01  1.7060333333333E+01  1.7060333333333E+01  1.7060333333333E+01  1.7060333333333E+01  1.7060333333333E+01  1.7060333333333E+01  8.5301666666667E+00 
 3.6259831879809E+00  3.6259831879809E+00  3.6259831879809E+00  3.6259831879809E+00  3.6259831879809E+00  3.6259831879809E+00  3.6259831879809E+00  3.6259831879809E+00  3.6259831879809E+00  3.6259831879809E+00 
 4.3744444444444E-05  8.7488888888889E-05  8.7488888888889E-05  8.7488888888889E-05  8.7488888888889E-05  8.7488888888889E-05  8.7488888888889E-05  8.7488888888889E-05  8.7488888888889E-05  4.3744444444444E-05 
 1.3380188695655E+01  1.3380188695655E+01  1.3380188695655E+01  1.3380188695655E+01  1.3380188695655E+01  1.3380188695655E+01  1.3380188695655E+01  1.3380188695655E+01  1.3380188695655E+01  1.3380188695655E+01 
 3.3450471739137E+00  3.3450471739137E+00  3.3450471739137E+00  3.3450471739137E+00  3.3450471739137E+00  3.3450471739137E+00  3.3450471739137E+00  3.3450471739137E+00  3.3450471739137E+00  3.3450471739137E+00 
 0.0000000000000E+00  0.0000000000000E+00  0.0000000000000E+00  0.0000000000000E+00  0.0000000000000E+00  0.0000000000000E+00  0.0000000000000E+00  0.0000000000000E+00  0.0000000000000E+00  0.0000000000000E+00 
 0.0000000000000E+00  0.0000000000000E+00  0.0000000000000E+00  0.0000000000000E+00  0.0000000000000E+00  0.0000000000000E+00  0.0000000000000E+00  0.0000000000000E+00  0.0000000000000E+00  0.0000000000000E+00 
 0.0000000000000E+00  0.0000000000000E+00  0.0000000000000E+00  0.0000000000000E+00  0.0000000000000E+00  0.0000000000000E+00  0.0000000000000E+00  0.0000000000000E+00  0.0000000000000E+00  0.0000000000000E+00 
 0.0000000000000E+00  0.0000000000000E+00  0.0000000000000E+00  0.0000000000000E+00  0.0000000000000E+00  0.0000000000000E+00  0.0000000000000E+00  0.0000000000000E+00  0.0000000000000E+00  0.0000000000000E+00 
 0.0000000000000E+00  0.0000000000000E+00  0.0000000000000E+00  0.0000000000000E+00  0.0000000000000E+00  0.0000000000000E+00  0.0000000000000E+00  0.0000000000000E+00  0.0000000000000E+00  0.0000000000000E+00 
 0.0000000000000E+00  0.0000000000000E+00  0.0000000000000E+00  0.0000000000000E+00  0.0000000000000E+00  0.0000000000000E+00  0.0000000000000E+00  0.0000000000000E+00  0.0000000000000E+00  0.0000000000000E+00 
 0.0000000000000E+00  0.0000000000000E+00  0.0000000000000E+00  0.0000000000000E+00  0.0000000000000E+00  0.0000000000000E+00  0.0000000000000E+00  0.0000000000000E+00  0.0000000000000E+00  0.0000000000000E+00 
ZONE T = "ANOD, 1.0000E-08", I = 10, SOLUTIONTIME = 1.000000E-08
ZONETYPE = ORDERED
DATAPACKING = BLOCK
STRANDID = 1
 0.0000000000000E+00  8.7488888888889E-05  1.7497777777778E-04  2.6246666666667E-04  3.4995555555556E-04  4.3744444444444E-04  5.2493333333333E-04  6.1242222222222E-04  6.9991111111111E-04  7.8740000000000E-04 
 1.1589917711722E-09  3.4769775211609E-09  5.7949719094993E-09  8.1129813664138E-09  1.0431012322664E-08  1.2749071208855E-08  1.5067164455903E-08  1.7385298494365E-08  1.9703479755406E-08  2.0862960420466E-08 
 9.1999999999930E-01  9.1999999999930E-01  9.1999999999930E-01  9.1999999999930E-01  9.1999999999930E-01  9.1999999999930E-01  9.1999999999930E-01  9.1999999999930E-01  9.1999999999930E-01  9.1999999999971E-01 
 4.0000000000348E-02  4.0000000000348E-02  4.0000000000348E-02  4.0000000000348E-02  4.0000000000348E-02  4.0000000000348E-02  4.0000000000348E-02  4.0000000000348E-02  4.0000000000348E-02  4.0000000000144E-02 
 4.0000000000348E-02  4.0000000000348E-02  4.0000000000348E-02  4.0000000000348E-02  4.0000000000348E-02  4.0000000000348E-02  4.0000000000348E-02  4.0000000000348E-02  4.0000000000348E-02  4.0000000000144E-02 
 2.9167371469580E-02  2.9167355742477E-02  2.9167308561122E-02  2.9167229925398E-02  2.9167119835128E-02  2.9166978289981E-02  2.9166805289606E-02  2.9166600833527E-02  2.9166364921179E-02  2.9166097551949E-02 
 0.0000000000000E+00 -4.7371275802424E-09 -8.9169665840647E-09 -1.2539514934640E-08 -1.5604769009193E-08 -1.8112723638866E-08 -2.0063372108763E-08 -2.1456706157868E-08 -2.2292715979138E-08 -2.2571390219352E-08 
-2.9167371469580E-02 -2.9167360479605E-02 -2.9167317478088E-02 -2.9167242464913E-02 -2.9167135439897E-02 -2.9166996402704E-02 -2.9166825352978E-02 -2.9166622290233E-02 -2.9166387213895E-02 -2.9166120123339E-02 
-4.0906712752673E-02 -4.0906712752673E-02 -4.0906712752673E-02 -4.0906712752673E-02 -4.0906712752672E-02 -4.0906712752673E-02 -4.0906712752673E-02 -4.0906712752671E-02 -4.0906712752671E-02 -4.0906712752803E-02 
 1.1739341283093E-02  1.1739352273068E-02  1.1739395274585E-02  1.1739470287760E-02  1.1739577312775E-02  1.1739716349969E-02  1.1739887399695E-02  1.1740090462439E-02  1.1740325538777E-02  1.1740592629464E-02 
 1.6690490558934E+00  3.3381012909813E+00  3.3381137305186E+00  3.3381354304376E+00  3.3381663907999E+00  3.3382066117164E+00  3.3382560933066E+00  3.3383148357316E+00  3.3383828391826E+00  1.6692300519342E+00 
 8.6491896345104E-09  2.5947595119969E-08  4.3246063868326E-08  6.0544630878715E-08  7.7843379513297E-08  9.5142320889882E-08  1.1244152505165E-07  1.2974103891429E-07  1.4704096216393E-07  1.4704096216393E-07 
 0.0000000000000E+00  3.3380824174552E+00  6.6761734683543E+00  1.0014280104041E+01  1.3352413745013E+01  1.6690583506681E+01  2.0028797219457E+01  2.3367066168894E+01  2.6705397541945E+01  3.0043809551306E+01 
 3.0043810257336E+01  2.6705719149233E+01  2.3367628824857E+01  2.0029521430551E+01  1.6691387705892E+01  1.3353218390186E+01  1.0015004222624E+01  6.6767359424336E+00  3.3384042886640E+00  0.0000000000000E+00 
 1.6690490558934E-08  3.3381012909813E-08  3.3381137305186E-08  3.3381354304376E-08  3.3381663907999E-08  3.3382066117164E-08  3.3382560933066E-08  3.3383148357316E-08  3.3383828391826E-08  1.6692300519342E-08 
 7.0592160225931E+03  1.4118432045186E+04  1.4118432045186E+04  1.4118432045186E+04  1.4118432045186E+04  1.4118432045186E+04  1.4118432045186E+04  1.4118432045186E+04  1.4118432045186E+04  7.0592160225931E+03 
 5.2238198567049E+04  1.0447639713410E+05  1.0447639713410E+05  1.0447639713410E+05  1.0447639713410E+05  1.0447639713410E+05  1.0447639713410E+05  1.0447639713410E+05  1.0447639713410E+05  5.2238198567049E+04 
 5.9297414589642E+04  1.1859482917928E+05  1.1859482917928E+05  1.1859482917928E+05  1.1859482917928E+05  1.1859482917928E+05  1.1859482917928E+05  1.1859482917928E+05  1.1859482917928E+05  5.9297414589642E+04 
 3.5000000000000E-01  3.5000000000000E-01  3.5000000000000E-01  3.5000000000000E-01  3.5000000000000E-01  3.5000000000000E-01  3.5000000000000E-01  3.5000000000000E-01  3.5000000000000E-01  3.5000000000000E-01 
 8.5301666666665E+00  1.7060333333333E+01  1.7060333333333E+01  1.7060333333333E+01  1.7060333333333E+01  1.7060333333333E+01  1.7060333333333E+01  1.7060333333333E+01  1.7060333333333E+01  8.5301666666665E+00 
 1.9566429603487E-01  1.9566448238495E-01  1.9566521153467E-01  1.9566648348631E-01  1.9566829824349E-01  1.9567065581269E-01  1.9567355620093E-01  1.9567699941765E-01  1.9568098547406E-01  1.9568551438239E-01 
 4.3744444444444E-05  8.7488888888889E-05  8.7488888888889E-05  8.7488888888889E-05  8.7488888888889E-05  8.7488888888889E-05  8.7488888888889E-05  8.7488888888889E-05  8.7488888888889E-05  4.3744444444444E-05 
 1.3380188695651E+01  1.3380188695651E+01  1.3380188695651E+01  1.3380188695651E+01  1.3380188695651E+01  1.3380188695651E+01  1.3380188695651E+01  1.3380188695651E+01  1.3380188695651E+01  1.3380188695651E+01 
 3.3450471739177E+00  3.3450471739177E+00  3.3450471739177E+00  3.3450471739177E+00  3.3450471739177E+00  3.3450471739177E+00  3.3450471739177E+00  3.3450471739177E+00  3.3450471739177E+00  3.3450471739177E+00 
 1.8363934942561E-11  2.8663996773092E-11  6.1478032472707E-11  1.1872010803861E-10  2.0039090553755E-10  3.0649131552076E-10  4.3702248552059E-10  5.9198593846872E-10  7.7138329218383E-10  8.6719064876956E-10 
 1.8363934942561E-03  2.8663996773092E-03  6.1478032472707E-03  1.1872010803861E-02  2.0039090553755E-02  3.0649131552076E-02  4.3702248552059E-02  5.9198593846872E-02  7.7138329218383E-02  8.6719064876956E-02 
 3.0002852749042E-04  1.5001453656903E-03  5.1005077622408E-03  1.1101149264724E-02  1.9502138017320E-02  3.0303562540761E-02  4.3505536581961E-02  5.9108210955806E-02  7.7111745493914E-02  8.6713747984398E-02 
 1.5363649667657E-03  1.3662543116189E-03  1.0472954850299E-03  7.7086153913677E-04  5.3695253643497E-04  3.4556901131420E-04  1.9671197009852E-04  9.0382891066053E-05  2.6583724469153E-05  5.3168925588175E-06 
 0.0000000000000E+00  0.0000000000000E+00  0.0000000000000E+00  0.0000000000000E+00  0.0000000000000E+00  0.0000000000000E+00  0.0000000000000E+00  0.0000000000000E+00  0.0000000000000E+00  0.0000000000000E+00 
 0.0000000000000E+00  0.0000000000000E+00  0.0000000000000E+00  0.0000000000000E+00  0.0000000000000E+00  0.0000000000000E+00  0.0000000000000E+00  0.0000000000000E+00  0.0000000000000E+00  0.0000000000000E+00 
 0.0000000000000E+00  0.0000000000000E+00  0.0000000000000E+00  0.0000000000000E+00  0.0000000000000E+00  0.0000000000000E+00  0.0000000000000E+00  0.0000000000000E+00  0.0000000000000E+00  0.0000000000000E+00 
ZONE T = "ANOD, 2.0000E-08", I = 10, SOLUTIONTIME = 2.000000E-08
ZONETYPE = ORDERED
DATAPACKING = BLOCK
STRANDID = 1
 0.0000000000000E+00  8.7488888888889E-05  1.7497777777778E-04  2.6246666666667E-04  3.4995555555556E-04  4.3744444444444E-04  5.2493333333333E-04  6.1242222222222E-04  6.9991111111111E-04  7.8740000000000E-04 
 1.1589975178003E-09  3.4769947610647E-09  5.7950006424610E-09  8.1130215924849E-09  1.0431064041680E-08  1.2748408005203E-08  1.5065786329212E-08  1.7383568652246E-08  1.9701398197518E-08  2.0860884608421E-08 
 9.1999999999861E-01  9.1999999999861E-01  9.1999999999861E-01  9.1999999999861E-01  9.1999999999861E-01  9.1999999999861E-01  9.1999999999861E-01  9.1999999999861E-01  9.1999999999861E-01  9.1999999999942E-01 
 4.0000000000696E-02  4.0000000000696E-02  4.0000000000696E-02  4.0000000000696E-02  4.0000000000696E-02  4.0000000000696E-02  4.0000000000696E-02  4.0000000000696E-02  4.0000000000696E-02  4.0000000000288E-02 
 4.0000000000696E-02  4.0000000000696E-02  4.0000000000696E-02  4.0000000000696E-02  4.0000000000696E-02  4.0000000000696E-02  4.0000000000696E-02  4.0000000000696E-02  4.0000000000696E-02  4.0000000000288E-02 
 2.9167373665266E-02  2.9167357938081E-02  2.9167310756494E-02  2.9167232120389E-02  2.9167122029562E-02  2.9166980483720E-02  2.9166807482485E-02  2.9166603025391E-02  2.9166367111883E-02  2.9166099741321E-02 
 0.0000000000000E+00 -4.7371510662507E-09 -8.9170107928755E-09 -1.2539577103101E-08 -1.5604846374137E-08 -1.8112813437167E-08 -2.0063471577332E-08 -2.1456812533708E-08 -2.2292826499277E-08 -2.2571502120901E-08 
-2.9167373665266E-02 -2.9167362675232E-02 -2.9167319673505E-02 -2.9167244659967E-02 -2.9167137634409E-02 -2.9166998596534E-02 -2.9166827545957E-02 -2.9166624482203E-02 -2.9166389404709E-02 -2.9166122312823E-02 
-4.0906712751951E-02 -4.0906712751951E-02 -4.0906712751951E-02 -4.0906712751951E-02 -4.0906712751951E-02 -4.0906712751951E-02 -4.0906712751951E-02 -4.0906712751951E-02 -4.0906712751951E-02 -4.0906712752213E-02 
 1.1739339086685E-02  1.1739350076719E-02  1.1739393078446E-02  1.1739468091984E-02  1.1739575117542E-02  1.1739714155417E-02  1.1739885205994E-02  1.1740088269748E-02  1.1740323347242E-02  1.1740590439390E-02 
 1.6690487382204E+00  3.3381006556525E+00  3.3381130952505E+00  3.3381347952743E+00  3.3381657557934E+00  3.3382059769066E+00  3.3382554587424E+00  3.3383142014588E+00  3.3383822052435E+00  1.6692297351715E+00 
 8.6492352103210E-09  2.5947722094032E-08  4.3246273451378E-08  6.0544937256324E-08  7.7843761501212E-08  9.5142794179113E-08  1.1244208328305E-07  1.2974167679497E-07  1.4704176694826E-07  1.4704176694826E-07 
 0.0000000000000E+00  3.3380990659879E+00  6.6762059413984E+00  1.0014329886896E+01  1.3352480162409E+01  1.6690666028602E+01  2.0028896746508E+01  2.3367181576606E+01  2.6705529779858E+01  3.0043950617670E+01 
 3.0043950617714E+01  2.6705851551667E+01  2.3367744676216E+01  2.0029620730953E+01  1.6691470455419E+01  1.3353284589070E+01  1.0015053871245E+01  6.6767690411444E+00  3.3384208377932E+00  0.0000000000000E+00 
 3.3380977941138E-08  6.6762019466338E-08  6.6762268257690E-08  6.6762702257119E-08  6.6763321465933E-08  6.6764125886231E-08  6.6765115520490E-08  6.6766290371903E-08  6.6767650444261E-08  3.3384597871057E-08 
 7.0592160226098E+03  1.4118432045220E+04  1.4118432045220E+04  1.4118432045220E+04  1.4118432045220E+04  1.4118432045220E+04  1.4118432045220E+04  1.4118432045220E+04  1.4118432045220E+04  7.0592160226098E+03 
 5.2238198567032E+04  1.0447639713406E+05  1.0447639713406E+05  1.0447639713406E+05  1.0447639713406E+05  1.0447639713406E+05  1.0447639713406E+05  1.0447639713406E+05  1.0447639713406E+05  5.2238198567032E+04 
 5.9297414589642E+04  1.1859482917928E+05  1.1859482917928E+05  1.1859482917928E+05  1.1859482917928E+05  1.1859482917928E+05  1.1859482917928E+05  1.1859482917928E+05  1.1859482917928E+05  5.9297414589642E+04 
 3.5000000000000E-01  3.5000000000000E-01  3.5000000000000E-01  3.5000000000000E-01  3.5000000000000E-01  3.5000000000000E-01  3.5000000000000E-01  3.5000000000000E-01  3.5000000000000E-01  3.5000000000000E-01 
 8.5301666666663E+00  1.7060333333333E+01  1.7060333333333E+01  1.7060333333333E+01  1.7060333333333E+01  1.7060333333333E+01  1.7060333333333E+01  1.7060333333333E+01  1.7060333333333E+01  8.5301666666663E+00 
 1.9566425879375E-01  1.9566444514484E-01  1.9566517429811E-01  1.9566644625590E-01  1.9566826102227E-01  1.9567061860300E-01  1.9567351900564E-01  1.9567696223944E-01  1.9568094831541E-01  1.9568547724799E-01 
 4.3744444444444E-05  8.7488888888889E-05  8.7488888888889E-05  8.7488888888889E-05  8.7488888888889E-05  8.7488888888889E-05  8.7488888888889E-05  8.7488888888889E-05  8.7488888888889E-05  4.3744444444444E-05 
 1.3380188695647E+01  1.3380188695647E+01  1.3380188695647E+01  1.3380188695647E+01  1.3380188695647E+01  1.3380188695647E+01  1.3380188695647E+01  1.3380188695647E+01  1.3380188695647E+01  1.3380188695647E+01 
 3.3450471739216E+00  3.3450471739216E+00  3.3450471739216E+00  3.3450471739216E+00  3.3450471739216E+00  3.3450471739216E+00  3.3450471739216E+00  3.3450471739216E+00  3.3450471739216E+00  3.3450471739216E+00 
 3.6728053844842E-11  5.7328276967962E-11  1.2295666443908E-10  2.3744139997824E-10  4.0078380084268E-10  6.1298566386240E-10  8.7404931394986E-10  1.1839777224952E-09  1.5427742269108E-09  1.7343899395221E-09 
 1.8364118902281E-03  2.8664280194870E-03  6.1478631966369E-03  1.1872129193963E-02  2.0039289530513E-02  3.0649434834165E-02  4.3702682842927E-02  5.9199178402645E-02  7.7139093472695E-02  8.6719929075251E-02 
 6.0006021675485E-04  3.0003055262046E-03  1.0201065089315E-02  2.2202409276122E-02  3.9004469687368E-02  6.0607424937267E-02  8.7011505504412E-02  1.1821700557127E-01  1.5422425497858E-01  1.7342836011438E-01 
 3.0727451677294E-03  2.7325221705916E-03  2.0946013545929E-03  1.5417307217015E-03  1.0739103968992E-03  6.9114144897375E-04  3.9342589057407E-04  1.8076667825061E-04  5.3167712501774E-05  1.0633837830265E-05 
 0.0000000000000E+00  0.0000000000000E+00  0.0000000000000E+00  0.0000000000000E+00  0.0000000000000E+00  0.0000000000000E+00  0.0000000000000E+00  0.0000000000000E+00  0.0000000000000E+00  0.0000000000000E+00 
 0.0000000000000E+00  0.0000000000000E+00  0.0000000000000E+00  0.0000000000000E+00  0.0000000000000E+00  0.0000000000000E+00  0.0000000000000E+00  0.0000000000000E+00  0.0000000000000E+00  0.0000000000000E+00 
 0.0000000000000E+00  0.0000000000000E+00  0.0000000000000E+00  0.0000000000000E+00  0.0000000000000E+00  0.0000000000000E+00  0.0000000000000E+00  0.0000000000000E+00  0.0000000000000E+00  0.0000000000000E+00 
ZONE T = "ANOD, 3.0000E-08", I = 10, SOLUTIONTIME = 3.000000E-08
ZONETYPE = ORDERED
DATAPACKING = BLOCK
STRANDID = 1
 0.0000000000000E+00  8.7488888888889E-05  1.7497777777778E-04  2.6246666666667E-04  3.4995555555556E-04  4.3744444444444E-04  5.2493333333333E-04  6.1242222222222E-04  6.9991111111111E-04  7.8740000000000E-04 
 1.1589975177759E-09  3.4769947609915E-09  5.7950006423390E-09  8.1130215923141E-09  1.0431064041461E-08  1.2749860835847E-08  1.5068691990718E-08  1.7387927144615E-08  1.9707209520750E-08  2.0865969516184E-08 
 9.1999999999791E-01  9.1999999999791E-01  9.1999999999791E-01  9.1999999999791E-01  9.1999999999791E-01  9.1999999999791E-01  9.1999999999791E-01  9.1999999999791E-01  9.1999999999791E-01  9.1999999999914E-01 
 4.0000000001045E-02  4.0000000001045E-02  4.0000000001045E-02  4.0000000001045E-02  4.0000000001045E-02  4.0000000001045E-02  4.0000000001045E-02  4.0000000001045E-02  4.0000000001045E-02  4.0000000000432E-02 
 4.0000000001045E-02  4.0000000001045E-02  4.0000000001045E-02  4.0000000001045E-02  4.0000000001045E-02  4.0000000001045E-02  4.0000000001045E-02  4.0000000001045E-02  4.0000000001045E-02  4.0000000000432E-02 
 2.9167373664902E-02  2.9167357937717E-02  2.9167310756130E-02  2.9167232120026E-02  2.9167122029198E-02  2.9166980483357E-02  2.9166807482121E-02  2.9166603025027E-02  2.9166367111519E-02  2.9166099740957E-02 
 0.0000000000000E+00 -4.7371510661541E-09 -8.9170107926940E-09 -1.2539577102846E-08 -1.5604846373820E-08 -1.8112813436801E-08 -2.0063471576928E-08 -2.1456812533277E-08 -2.2292826498831E-08 -2.2571502120452E-08 
-2.9167373664902E-02 -2.9167362674868E-02 -2.9167319673141E-02 -2.9167244659603E-02 -2.9167137634045E-02 -2.9166998596170E-02 -2.9166827545593E-02 -2.9166624481839E-02 -2.9166389404345E-02 -2.9166122312459E-02 
-4.0906712751227E-02 -4.0906712751227E-02 -4.0906712751227E-02 -4.0906712751227E-02 -4.0906712751229E-02 -4.0906712751229E-02 -4.0906712751229E-02 -4.0906712751231E-02 -4.0906712751231E-02 -4.0906712751624E-02 
 1.1739339086324E-02  1.1739350076359E-02  1.1739393078086E-02  1.1739468091624E-02  1.1739575117184E-02  1.1739714155059E-02  1.1739885205636E-02  1.1740088269392E-02  1.1740323346886E-02  1.1740590439165E-02 
 1.6690487381853E+00  3.3381006555822E+00  3.3381130951802E+00  3.3381347952041E+00  3.3381657557236E+00  3.3382059768368E+00  3.3382554586726E+00  3.3383142013895E+00  3.3383822051741E+00  1.6692297351515E+00 
 8.6492352084883E-09  2.5947722094258E-08  4.3246273451755E-08  6.0544937249211E-08  7.7843761501551E-08  9.5142794175778E-08  1.1244208327830E-07  1.2974167679037E-07  1.4704183906642E-07  1.4704183906642E-07 
 0.0000000000000E+00  3.3380990658328E+00  6.6762059414565E+00  1.0014329886615E+01  1.3352480161973E+01  1.6690666028379E+01  2.0028896745946E+01  2.3367181576073E+01  2.6705529779502E+01  3.0043950617088E+01 
 3.0043950617100E+01  2.6705851551124E+01  2.3367744675742E+01  2.0029620730550E+01  1.6691470455086E+01  1.3353284588806E+01  1.0015053871051E+01  6.6767690410204E+00  3.3384208377386E+00  0.0000000000000E+00 
 5.0071465322991E-08  1.0014302602216E-07  1.0014339920949E-07  1.0014405020916E-07  1.0014497902317E-07  1.0014618565460E-07  1.0014767010722E-07  1.0014943238580E-07  1.0015147249600E-07  5.0076895222572E-08 
 7.0592160226264E+03  1.4118432045253E+04  1.4118432045253E+04  1.4118432045253E+04  1.4118432045253E+04  1.4118432045253E+04  1.4118432045253E+04  1.4118432045253E+04  1.4118432045253E+04  7.0592160226265E+03 
 5.2238198567015E+04  1.0447639713403E+05  1.0447639713403E+05  1.0447639713403E+05  1.0447639713403E+05  1.0447639713403E+05  1.0447639713403E+05  1.0447639713403E+05  1.0447639713403E+05  5.2238198567015E+04 
 5.9297414589642E+04  1.1859482917928E+05  1.1859482917928E+05  1.1859482917928E+05  1.1859482917928E+05  1.1859482917928E+05  1.1859482917928E+05  1.1859482917928E+05  1.1859482917928E+05  5.9297414589642E+04 
 3.5000000000000E-01  3.5000000000000E-01  3.5000000000000E-01  3.5000000000000E-01  3.5000000000000E-01  3.5000000000000E-01  3.5000000000000E-01  3.5000000000000E-01  3.5000000000000E-01  3.5000000000000E-01 
 8.5301666666661E+00  1.7060333333332E+01  1.7060333333332E+01  1.7060333333332E+01  1.7060333333332E+01  1.7060333333332E+01  1.7060333333332E+01  1.7060333333332E+01  1.7060333333332E+01  8.5301666666661E+00 
 1.9566425878964E-01  1.9566444514072E-01  1.9566517429400E-01  1.9566644625179E-01  1.9566826101818E-01  1.9567061859892E-01  1.9567351900155E-01  1.9567696223538E-01  1.9568094831135E-01  1.9568547724566E-01 
 4.3744444444444E-05  8.7488888888889E-05  8.7488888888889E-05  8.7488888888889E-05  8.7488888888889E-05  8.7488888888889E-05  8.7488888888889E-05  8.7488888888889E-05  8.7488888888889E-05  4.3744444444444E-05 
 1.3380188695643E+01  1.3380188695643E+01  1.3380188695643E+01  1.3380188695643E+01  1.3380188695643E+01  1.3380188695643E+01  1.3380188695643E+01  1.3380188695643E+01  1.3380188695643E+01  1.3380188695643E+01 
 3.3450471739256E+00  3.3450471739256E+00  3.3450471739256E+00  3.3450471739256E+00  3.3450471739256E+00  3.3450471739256E+00  3.3450471739256E+00  3.3450471739256E+00  3.3450471739256E+00  3.3450471739256E+00 
 5.5092172745199E-11  8.5992557161745E-11  1.8443529640546E-10  3.5616269190926E-10  6.0117669613406E-10  9.1948001219332E-10  1.3110761423497E-09  1.7759695064910E-09  2.3141651616109E-09  2.6015892302349E-09 
 1.8364118900357E-03  2.8664280193782E-03  6.1478631966388E-03  1.1872129193102E-02  2.0039289529139E-02  3.0649434833091E-02  4.3702682839989E-02  5.9199178399582E-02  7.7139093470012E-02  8.6719929071284E-02 
 9.0009190588951E-04  4.5004656866658E-03  1.5301622416433E-02  3.3303669286691E-02  5.8506801356064E-02  9.0911287332712E-02  1.3051747442393E-01  1.7732580018367E-01  2.3133676446056E-01  2.6014297224039E-01 
 4.6091253686304E-03  4.0987900295087E-03  3.1419072241134E-03  2.3125999042351E-03  1.6108682573419E-03  1.0367138866197E-03  5.9013981104201E-04  2.7115046543178E-04  7.9751700533478E-05  1.5950783101587E-05 
 0.0000000000000E+00  0.0000000000000E+00  0.0000000000000E+00  0.0000000000000E+00  0.0000000000000E+00  0.0000000000000E+00  0.0000000000000E+00  0.0000000000000E+00  0.0000000000000E+00  0.0000000000000E+00 
 0.0000000000000E+00  0.0000000000000E+00  0.0000000000000E+00  0.0000000000000E+00  0.0000000000000E+00  0.0000000000000E+00  0.0000000000000E+00  0.0000000000000E+00  0.0000000000000E+00  0.0000000000000E+00 
 0.0000000000000E+00  0.0000000000000E+00  0.0000000000000E+00  0.0000000000000E+00  0.0000000000000E+00  0.0000000000000E+00  0.0000000000000E+00  0.0000000000000E+00  0.0000000000000E+00  0.0000000000000E+00 
ZONE T = "ANOD, 4.0000E-08", I = 10, SOLUTIONTIME = 4.000000E-08
ZONETYPE = ORDERED
DATAPACKING = BLOCK
STRANDID = 1
 0.0000000000000E+00  8.7488888888889E-05  1.7497777777778E-04  2.6246666666667E-04  3.4995555555556E-04  4.3744444444444E-04  5.2493333333333E-04  6.1242222222222E-04  6.9991111111111E-04  7.8740000000000E-04 
 1.1586343100240E-09  3.4755419300078E-09  5.7935478113069E-09  8.1115687612335E-09  1.0428521587148E-08  1.2745502342846E-08  1.5063607082214E-08  1.7381752612878E-08  1.9700671781237E-08  2.0859794984384E-08 
 9.1999999999721E-01  9.1999999999721E-01  9.1999999999721E-01  9.1999999999721E-01  9.1999999999721E-01  9.1999999999721E-01  9.1999999999721E-01  9.1999999999721E-01  9.1999999999721E-01  9.1999999999885E-01 
 4.0000000001393E-02  4.0000000001393E-02  4.0000000001393E-02  4.0000000001393E-02  4.0000000001393E-02  4.0000000001393E-02  4.0000000001393E-02  4.0000000001393E-02  4.0000000001393E-02  4.0000000000576E-02 
 4.0000000001393E-02  4.0000000001393E-02  4.0000000001393E-02  4.0000000001393E-02  4.0000000001393E-02  4.0000000001393E-02  4.0000000001393E-02  4.0000000001393E-02  4.0000000001393E-02  4.0000000000576E-02 
 2.9167373664537E-02  2.9167357937351E-02  2.9167310755765E-02  2.9167232119660E-02  2.9167122028833E-02  2.9166980482991E-02  2.9166807481756E-02  2.9166603024661E-02  2.9166367111153E-02  2.9166099740591E-02 
 0.0000000000000E+00 -4.7371510660572E-09 -8.9170107925119E-09 -1.2539577102590E-08 -1.5604846373503E-08 -1.8112813436433E-08 -2.0063471576522E-08 -2.1456812532844E-08 -2.2292826498383E-08 -2.2571502120000E-08 
-2.9167373664537E-02 -2.9167362674502E-02 -2.9167319672776E-02 -2.9167244659237E-02 -2.9167137633679E-02 -2.9166998595805E-02 -2.9166827545228E-02 -2.9166624481474E-02 -2.9166389403980E-02 -2.9166122312094E-02 
-4.0906712750503E-02 -4.0906712750503E-02 -4.0906712750503E-02 -4.0906712750503E-02 -4.0906712750502E-02 -4.0906712750502E-02 -4.0906712750502E-02 -4.0906712750506E-02 -4.0906712750506E-02 -4.0906712751030E-02 
 1.1739339085966E-02  1.1739350076001E-02  1.1739393077727E-02  1.1739468091266E-02  1.1739575116823E-02  1.1739714154698E-02  1.1739885205275E-02  1.1740088269032E-02  1.1740323346526E-02  1.1740590438937E-02 
 1.6690487381505E+00  3.3381006555126E+00  3.3381130951105E+00  3.3381347951343E+00  3.3381657556534E+00  3.3382059767665E+00  3.3382554586023E+00  3.3383142013195E+00  3.3383822051042E+00  1.6692297351312E+00 