TITLE = "Solution on Domain BulkDomain1D_0"
VARIABLES = "x [m]"  
"Vel_axial" 
"MF_sp(ECDMC)" 
"MF_sp(Li+)" 
"MF_sp(PF6-)" 
"Volt(Electroly)" 
"Volt(AnodeVolt)" 
"Potential Drop Electrode-Electrolyte [V]" 
"Surf_0 Equilibrium Potential Drop Electrode-Electrolyte [V]" 
"Overpotential_0 [V]" 
"Current Source [A/m^2]" 
"Li+ flux [kmol/m^2/s]" 
"Electrolyte Current [A/m^2]" 
"Electrode Current [A/m^2]" 
"CV Capacity discharged [A-s/m^2]" 
"Depth of discharge in CV [A-s/m^2]" 
"CV Capacity remaining [A-s/m^2]" 
"Initial CV capacity [A-s/m^2]" 
"Porosity []" 
"Surface Area [m2/m2] (area per area)" 
"Specific current (per particle area) [A/m^2]" 
"Control volume thickness [m]" 
"MoleDens Li_C6-bulk [kmol/m^3]" 
"MoleDens V_C6-bulk [kmol/m^3]" 
"qHeat_accum [J/m3]" 
"qHeat_step [W/m3]" 
"Joule_Lyte [W/m3]" 
"Joule_Solid [W/m3]" 
"electrodHeat [W/m3]" 
"OverpotHeat [W/m3]" 
"deltaSHeat [W/m3]" 

ZONE T = "ANOD, 0.0000E+00", I = 10, SOLUTIONTIME = 0.000000E+00
ZONETYPE = ORDERED
DATAPACKING = BLOCK
STRANDID = 1
 0.0000000000000E+00  8.7488888888889E-05  1.7497777777778E-04  2.6246666666667E-04  3.4995555555556E-04  4.3744444444444E-04  5.2493333333333E-04  6.1242222222222E-04  6.9991111111111E-04  7.8740000000000E-04 
 0.0000000000000E+00  0.0000000000000E+00  0.0000000000000E+00  0.0000000000000E+00  0.0000000000000E+00  0.0000000000000E+00  0.0000000000000E+00  0.0000000000000E+00  0.0000000000000E+00  0.0000000000000E+00 
 9.2000000000000E-01  9.2000000000000E-01  9.2000000000000E-01  9.2000000000000E-01  9.2000000000000E-01  9.2000000000000E-01  9.2000000000000E-01  9.2000000000000E-01  9.2000000000000E-01  9.2000000000000E-01 
 4.0000000000000E-02  4.0000000000000E-02  4.0000000000000E-02  4.0000000000000E-02  4.0000000000000E-02  4.0000000000000E-02  4.0000000000000E-02  4.0000000000000E-02  4.0000000000000E-02  4.0000000000000E-02 
 4.0000000000000E-02  4.0000000000000E-02  4.0000000000000E-02  4.0000000000000E-02  4.0000000000000E-02  4.0000000000000E-02  4.0000000000000E-02  4.0000000000000E-02  4.0000000000000E-02  4.0000000000000E-02 
-7.0000000000000E-02 -7.0000000000000E-02 -7.0000000000000E-02 -7.0000000000000E-02 -7.0000000000000E-02 -7.0000000000000E-02 -7.0000000000000E-02 -7.0000000000000E-02 -7.0000000000000E-02 -7.0000000000000E-02 
 0.0000000000000E+00  0.0000000000000E+00  0.0000000000000E+00  0.0000000000000E+00  0.0000000000000E+00  0.0000000000000E+00  0.0000000000000E+00  0.0000000000000E+00  0.0000000000000E+00  0.0000000000000E+00 
 7.0000000000000E-02  7.0000000000000E-02  7.0000000000000E-02  7.0000000000000E-02  7.0000000000000E-02  7.0000000000000E-02  7.0000000000000E-02  7.0000000000000E-02  7.0000000000000E-02  7.0000000000000E-02 
-4.0906712753391E-02 -4.0906712753391E-02 -4.0906712753391E-02 -4.0906712753391E-02 -4.0906712753391E-02 -4.0906712753391E-02 -4.0906712753391E-02 -4.0906712753391E-02 -4.0906712753391E-02 -4.0906712753391E-02 
 1.1090671275339E-01  1.1090671275339E-01  1.1090671275339E-01  1.1090671275339E-01  1.1090671275339E-01  1.1090671275339E-01  1.1090671275339E-01  1.1090671275339E-01  1.1090671275339E-01  1.1090671275339E-01 
 3.0930240924008E+01  6.1860481848017E+01  6.1860481848017E+01  6.1860481848017E+01  6.1860481848017E+01  6.1860481848017E+01  6.1860481848017E+01  6.1860481848017E+01  6.1860481848017E+01  3.0930240924008E+01 
-0.0000000000000E+00 -0.0000000000000E+00 -0.0000000000000E+00 -0.0000000000000E+00 -0.0000000000000E+00 -0.0000000000000E+00 -0.0000000000000E+00 -0.0000000000000E+00 -0.0000000000000E+00 -0.0000000000000E+00 
 0.0000000000000E+00  0.0000000000000E+00  0.0000000000000E+00  0.0000000000000E+00  0.0000000000000E+00  0.0000000000000E+00  0.0000000000000E+00  0.0000000000000E+00  0.0000000000000E+00  3.0930240924008E+01 
 3.0930240924008E+01 -0.0000000000000E+00 -0.0000000000000E+00 -0.0000000000000E+00 -0.0000000000000E+00 -0.0000000000000E+00 -0.0000000000000E+00 -0.0000000000000E+00 -0.0000000000000E+00  0.0000000000000E+00 
 0.0000000000000E+00  0.0000000000000E+00  0.0000000000000E+00  0.0000000000000E+00  0.0000000000000E+00  0.0000000000000E+00  0.0000000000000E+00  0.0000000000000E+00  0.0000000000000E+00  0.0000000000000E+00 
 7.0592160225764E+03  1.4118432045153E+04  1.4118432045153E+04  1.4118432045153E+04  1.4118432045153E+04  1.4118432045153E+04  1.4118432045153E+04  1.4118432045153E+04  1.4118432045153E+04  7.0592160225764E+03 
 5.2238198567065E+04  1.0447639713413E+05  1.0447639713413E+05  1.0447639713413E+05  1.0447639713413E+05  1.0447639713413E+05  1.0447639713413E+05  1.0447639713413E+05  1.0447639713413E+05  5.2238198567065E+04 
 5.9297414589642E+04  1.1859482917928E+05  1.1859482917928E+05  1.1859482917928E+05  1.1859482917928E+05  1.1859482917928E+05  1.1859482917928E+05  1.1859482917928E+05  1.1859482917928E+05  5.9297414589642E+04 
 3.5000000000000E-01  3.5000000000000E-01  3.5000000000000E-01  3.5000000000000E-01  3.5000000000000E-01  3.5000000000000E-01  3.5000000000000E-01  3.5000000000000E-01  3.5000000000000E-01  3.5000000000000E-01 
 8.5301666666667E+00  1.7060333333333E+01  1.7060333333333E+01  1.7060333333333E+01  1.7060333333333E+01  1.7060333333333E+01  1.7060333333333E+01  1.7060333333333E+01  1.7060333333333E+01  8.5301666666667E+00 
 3.6259831879809E+00  3.6259831879809E+00  3.6259831879809E+00  3.6259831879809E+00  3.6259831879809E+00  3.6259831879809E+00  3.6259831879809E+00  3.6259831879809E+00  3.6259831879809E+00  3.6259831879809E+00 
 4.3744444444444E-05  8.7488888888889E-05  8.7488888888889E-05  8.7488888888889E-05  8.7488888888889E-05  8.7488888888889E-05  8.7488888888889E-05  8.7488888888889E-05  8.7488888888889E-05  4.3744444444444E-05 
 1.3380188695655E+01  1.3380188695655E+01  1.3380188695655E+01  1.3380188695655E+01  1.3380188695655E+01  1.3380188695655E+01  1.3380188695655E+01  1.3380188695655E+01  1.3380188695655E+01  1.3380188695655E+01 
 3.3450471739137E+00  3.3450471739137E+00  3.3450471739137E+00  3.3450471739137E+00  3.3450471739137E+00  3.3450471739137E+00  3.3450471739137E+00  3.3450471739137E+00  3.3450471739137E+00  3.3450471739137E+00 
 0.0000000000000E+00  0.0000000000000E+00  0.0000000000000E+00  0.0000000000000E+00  0.0000000000000E+00  0.0000000000000E+00  0.0000000000000E+00  0.0000000000000E+00  0.0000000000000E+00  0.0000000000000E+00 
 0.0000000000000E+00  0.0000000000000E+00  0.0000000000000E+00  0.0000000000000E+00  0.0000000000000E+00  0.0000000000000E+00  0.0000000000000E+00  0.0000000000000E+00  0.0000000000000E+00  0.0000000000000E+00 
 0.0000000000000E+00  0.0000000000000E+00  0.0000000000000E+00  0.0000000000000E+00  0.0000000000000E+00  0.0000000000000E+00  0.0000000000000E+00  0.0000000000000E+00  0.0000000000000E+00  0.0000000000000E+00 
 0.0000000000000E+00  0.0000000000000E+00  0.0000000000000E+00  0.0000000000000E+00  0.0000000000000E+00  0.0000000000000E+00  0.0000000000000E+00  0.0000000000000E+00  0.0000000000000E+00  0.0000000000000E+00 
 0.0000000000000E+00  0.0000000000000E+00  0.0000000000000E+00  0.0000000000000E+00  0.0000000000000E+00  0.0000000000000E+00  0.0000000000000E+00  0.0000000000000E+00  0.0000000000000E+00  0.0000000000000E+00 
 0.0000000000000E+00  0.0000000000000E+00  0.0000000000000E+00  0.0000000000000E+00  0.0000000000000E+00  0.0000000000000E+00  0.0000000000000E+00  0.0000000000000E+00  0.0000000000000E+00  0.0000000000000E+00 
 0.0000000000000E+00  0.0000000000000E+00  0.0000000000000E+00  0.0000000000000E+00  0.0000000000000E+00  0.0000000000000E+00  0.0000000000000E+00  0.0000000000000E+00  0.0000000000000E+00  0.0000000000000E+00 
ZONE T = "ANOD, 1.0000E-08", I = 10, SOLUTIONTIME = 1.000000E-08
ZONETYPE = ORDERED
DATAPACKING = BLOCK
STRANDID = 1
 0.0000000000000E+00  8.7488888888889E-05  1.7497777777778E-04  2.6246666666667E-04  3.4995555555556E-04  4.3744444444444E-04  5.2493333333333E-04  6.1242222222222E-04  6.9991111111111E-04  7.8740000000000E-04 
 1.1589901637993E-09  3.4762462835454E-09  5.7942374569578E-09  8.1122436990275E-09  1.0429545025142E-08  1.2747600696278E-08  1.5065690728337E-08  1.7383095136954E-08  1.9700546767917E-08  2.0860025825613E-08 
 9.1999999999930E-01  9.1999999999930E-01  9.1999999999930E-01  9.1999999999930E-01  9.1999999999930E-01  9.1999999999930E-01  9.1999999999930E-01  9.1999999999930E-01  9.1999999999930E-01  9.1999999999971E-01 
 4.0000000000348E-02  4.0000000000348E-02  4.0000000000348E-02  4.0000000000348E-02  4.0000000000348E-02  4.0000000000348E-02  4.0000000000348E-02  4.0000000000348E-02  4.0000000000348E-02  4.0000000000144E-02 
 4.0000000000348E-02  4.0000000000348E-02  4.0000000000348E-02  4.0000000000348E-02  4.0000000000348E-02  4.0000000000348E-02  4.0000000000348E-02  4.0000000000348E-02  4.0000000000348E-02  4.0000000000144E-02 
 2.9167370853814E-02  2.9167355126728E-02  2.9167307945441E-02  2.9167229309835E-02  2.9167119219707E-02  2.9166977674763E-02  2.9166804674626E-02  2.9166600218828E-02  2.9166364306817E-02  2.9166096937952E-02 
 0.0000000000000E+00 -4.7371210103516E-09 -8.9169542172484E-09 -1.2539497543830E-08 -1.5604747367299E-08 -1.8112698518827E-08 -2.0063344283541E-08 -2.1456676400409E-08 -2.2292685062311E-08 -2.2571358916082E-08 
-2.9167370853814E-02 -2.9167359863849E-02 -2.9167316862395E-02 -2.9167241849333E-02 -2.9167134824454E-02 -2.9166995787462E-02 -2.9166824737970E-02 -2.9166621675505E-02 -2.9166386599502E-02 -2.9166119509311E-02 
-4.0906712752673E-02 -4.0906712752673E-02 -4.0906712752673E-02 -4.0906712752673E-02 -4.0906712752672E-02 -4.0906712752673E-02 -4.0906712752673E-02 -4.0906712752671E-02 -4.0906712752671E-02 -4.0906712752803E-02 
 1.1739341898859E-02  1.1739352888824E-02  1.1739395890278E-02  1.1739470903340E-02  1.1739577928217E-02  1.1739716965211E-02  1.1739888014703E-02  1.1740091077167E-02  1.1740326153169E-02  1.1740593243492E-02 
 1.6690491449582E+00  3.3381014691079E+00  3.3381139086270E+00  3.3381356085135E+00  3.3381665688362E+00  3.3382067896950E+00  3.3382562712174E+00  3.3383150135615E+00  3.3383830169155E+00  1.6692301407482E+00 
 8.6491803248475E-09  2.5947557453397E-08  4.3245999044653E-08  6.0544553091835E-08  7.7843267576018E-08  9.5142190493018E-08  1.1244136984232E-07  1.2974085359995E-07  1.4704076187878E-07  1.4704076187878E-07 
 0.0000000000000E+00  3.3380778851550E+00  6.6761635795486E+00  1.0014266344213E+01  1.3352395439262E+01  1.6690560124990E+01  2.0028769662799E+01  2.3367033313353E+01  2.6705360337466E+01  3.0043770991394E+01 
 3.0043770993632E+01  2.6705682111444E+01  2.3367596416925E+01  2.0029493652312E+01  1.6691364557370E+01  1.3353199871533E+01  1.0014990333860E+01  6.6767266832816E+00  3.3383996590636E+00  0.0000000000000E+00 
 1.6690491449582E-08  3.3381014691079E-08  3.3381139086270E-08  3.3381356085135E-08  3.3381665688362E-08  3.3382067896950E-08  3.3382562712174E-08  3.3383150135615E-08  3.3383830169155E-08  1.6692301407482E-08 
 7.0592160225931E+03  1.4118432045186E+04  1.4118432045186E+04  1.4118432045186E+04  1.4118432045186E+04  1.4118432045186E+04  1.4118432045186E+04  1.4118432045186E+04  1.4118432045186E+04  7.0592160225931E+03 
 5.2238198567049E+04  1.0447639713410E+05  1.0447639713410E+05  1.0447639713410E+05  1.0447639713410E+05  1.0447639713410E+05  1.0447639713410E+05  1.0447639713410E+05  1.0447639713410E+05  5.2238198567049E+04 
 5.9297414589642E+04  1.1859482917928E+05  1.1859482917928E+05  1.1859482917928E+05  1.1859482917928E+05  1.1859482917928E+05  1.1859482917928E+05  1.1859482917928E+05  1.1859482917928E+05  5.9297414589642E+04 
 3.5000000000000E-01  3.5000000000000E-01  3.5000000000000E-01  3.5000000000000E-01  3.5000000000000E-01  3.5000000000000E-01  3.5000000000000E-01  3.5000000000000E-01  3.5000000000000E-01  3.5000000000000E-01 
 8.5301666666665E+00  1.7060333333333E+01  1.7060333333333E+01  1.7060333333333E+01  1.7060333333333E+01  1.7060333333333E+01  1.7060333333333E+01  1.7060333333333E+01  1.7060333333333E+01  8.5301666666665E+00 
 1.9566430647602E-01  1.9566449282593E-01  1.9566522197459E-01  1.9566649392432E-01  1.9566830867917E-01  1.9567066624500E-01  1.9567356662927E-01  1.9567700984124E-01  1.9568099589197E-01  1.9568552479415E-01 
 4.3744444444444E-05  8.7488888888889E-05  8.7488888888889E-05  8.7488888888889E-05  8.7488888888889E-05  8.7488888888889E-05  8.7488888888889E-05  8.7488888888889E-05  8.7488888888889E-05  4.3744444444444E-05 
 1.3380188695651E+01  1.3380188695651E+01  1.3380188695651E+01  1.3380188695651E+01  1.3380188695651E+01  1.3380188695651E+01  1.3380188695651E+01  1.3380188695651E+01  1.3380188695651E+01  1.3380188695651E+01 
 3.3450471739177E+00  3.3450471739177E+00  3.3450471739177E+00  3.3450471739177E+00  3.3450471739177E+00  3.3450471739177E+00  3.3450471739177E+00  3.3450471739177E+00  3.3450471739177E+00  3.3450471739177E+00 
 1.8363885869882E-11  2.8663916449652E-11  6.1477851792909E-11  1.1871978534133E-10  2.0039035228758E-10  3.0649045890075E-10  4.3702128257057E-10  5.9198427176161E-10  7.7138114606005E-10  8.6718828638543E-10 
 1.8363885869882E-03  2.8663916449652E-03  6.1477851792909E-03  1.1871978534133E-02  2.0039035228758E-02  3.0649045890075E-02  4.3702128257057E-02  5.9198427176161E-02  7.7138114606005E-02  8.6718828638543E-02 
 3.0002788176834E-04  1.5001411230230E-03  5.1004925991913E-03  1.1101119133157E-02  1.9502084181673E-02  3.0303477837253E-02  4.3505416832558E-02  5.9108044535776E-02  7.7111530955267E-02  8.6713511760730E-02 
 1.5363607052199E-03  1.3662505219422E-03  1.0472925800996E-03  7.7085940097640E-04  5.3695104708530E-04  3.4556805282208E-04  1.9671142449908E-04  9.0382640384473E-05  2.6583650737612E-05  5.3168778127525E-06 
 0.0000000000000E+00  0.0000000000000E+00  0.0000000000000E+00  0.0000000000000E+00  0.0000000000000E+00  0.0000000000000E+00  0.0000000000000E+00  0.0000000000000E+00  0.0000000000000E+00  0.0000000000000E+00 
 0.0000000000000E+00  0.0000000000000E+00  0.0000000000000E+00  0.0000000000000E+00  0.0000000000000E+00  0.0000000000000E+00  0.0000000000000E+00  0.0000000000000E+00  0.0000000000000E+00  0.0000000000000E+00 
 0.0000000000000E+00  0.0000000000000E+00  0.0000000000000E+00  0.0000000000000E+00  0.0000000000000E+00  0.0000000000000E+00  0.0000000000000E+00  0.0000000000000E+00  0.0000000000000E+00  0.0000000000000E+00 
ZONE T = "ANOD, 2.0000E-08", I = 10, SOLUTIONTIME = 2.000000E-08
ZONETYPE = ORDERED
DATAPACKING = BLOCK
STRANDID = 1
 0.0000000000000E+00  8.7488888888889E-05  1.7497777777778E-04  2.6246666666667E-04  3.4995555555556E-04  4.3744444444444E-04  5.2493333333333E-04  6.1242222222222E-04  6.9991111111111E-04  7.8740000000000E-04 
 1.1589975177458E-09  3.4769947609011E-09  5.7950006421883E-09  8.1130215921031E-09  1.0431064041189E-08  1.2748408004603E-08  1.5065786328503E-08  1.7383568651428E-08  1.9701398196590E-08  2.0860884607439E-08 
 9.1999999999861E-01  9.1999999999861E-01  9.1999999999861E-01  9.1999999999861E-01  9.1999999999861E-01  9.1999999999861E-01  9.1999999999861E-01  9.1999999999861E-01  9.1999999999861E-01  9.1999999999942E-01 
 4.0000000000696E-02  4.0000000000696E-02  4.0000000000696E-02  4.0000000000696E-02  4.0000000000696E-02  4.0000000000696E-02  4.0000000000696E-02  4.0000000000696E-02  4.0000000000696E-02  4.0000000000288E-02 
 4.0000000000696E-02  4.0000000000696E-02  4.0000000000696E-02  4.0000000000696E-02  4.0000000000696E-02  4.0000000000696E-02  4.0000000000696E-02  4.0000000000696E-02  4.0000000000696E-02  4.0000000000288E-02 
 2.9167373665809E-02  2.9167357938623E-02  2.9167310757037E-02  2.9167232120932E-02  2.9167122030105E-02  2.9166980484263E-02  2.9166807483028E-02  2.9166603025934E-02  2.9166367112426E-02  2.9166099741864E-02 
 0.0000000000000E+00 -4.7371510660278E-09 -8.9170107924559E-09 -1.2539577102511E-08 -1.5604846373402E-08 -1.8112813436315E-08 -2.0063471576388E-08 -2.1456812532698E-08 -2.2292826498228E-08 -2.2571502119838E-08 
-2.9167373665809E-02 -2.9167362675775E-02 -2.9167319674048E-02 -2.9167244660509E-02 -2.9167137634951E-02 -2.9166998597077E-02 -2.9166827546500E-02 -2.9166624482746E-02 -2.9166389405252E-02 -2.9166122313366E-02 
-4.0906712751951E-02 -4.0906712751951E-02 -4.0906712751951E-02 -4.0906712751951E-02 -4.0906712751951E-02 -4.0906712751951E-02 -4.0906712751951E-02 -4.0906712751951E-02 -4.0906712751951E-02 -4.0906712752213E-02 
 1.1739339086142E-02  1.1739350076176E-02  1.1739393077903E-02  1.1739468091441E-02  1.1739575116999E-02  1.1739714154874E-02  1.1739885205451E-02  1.1740088269205E-02  1.1740323346699E-02  1.1740590438847E-02 
 1.6690487381419E+00  3.3381006554955E+00  3.3381130950934E+00  3.3381347951172E+00  3.3381657556363E+00  3.3382059767496E+00  3.3382554585853E+00  3.3383142013017E+00  3.3383822050864E+00  1.6692297350930E+00 
 8.6492352061580E-09  2.5947722094032E-08  4.3246273449470E-08  6.0544937252507E-08  7.7843761497396E-08  9.5142794175297E-08  1.1244208327732E-07  1.2974167678925E-07  1.4704176693837E-07  1.4704176693837E-07 
 0.0000000000000E+00  3.3380990658038E+00  6.6762059412143E+00  1.0014329886344E+01  1.3352480161673E+01  1.6690666027866E+01  2.0028896745587E+01  2.3367181575502E+01  2.6705529778570E+01  3.0043950616119E+01 
 3.0043950616300E+01  2.6705851550411E+01  2.3367744675116E+01  2.0029620730011E+01  1.6691470454634E+01  1.3353284588441E+01  1.0015053870774E+01  6.6767690408302E+00  3.3384208376361E+00  0.0000000000000E+00 
 3.3380978831001E-08  6.6762021246034E-08  6.6762270037204E-08  6.6762704036307E-08  6.6763323244725E-08  6.6764127664446E-08  6.6765117298028E-08  6.6766292148632E-08  6.6767652220019E-08  3.3384598758411E-08 
 7.0592160226098E+03  1.4118432045220E+04  1.4118432045220E+04  1.4118432045220E+04  1.4118432045220E+04  1.4118432045220E+04  1.4118432045220E+04  1.4118432045220E+04  1.4118432045220E+04  7.0592160226098E+03 
 5.2238198567032E+04  1.0447639713406E+05  1.0447639713406E+05  1.0447639713406E+05  1.0447639713406E+05  1.0447639713406E+05  1.0447639713406E+05  1.0447639713406E+05  1.0447639713406E+05  5.2238198567032E+04 
 5.9297414589642E+04  1.1859482917928E+05  1.1859482917928E+05  1.1859482917928E+05  1.1859482917928E+05  1.1859482917928E+05  1.1859482917928E+05  1.1859482917928E+05  1.1859482917928E+05  5.9297414589642E+04 
 3.5000000000000E-01  3.5000000000000E-01  3.5000000000000E-01  3.5000000000000E-01  3.5000000000000E-01  3.5000000000000E-01  3.5000000000000E-01  3.5000000000000E-01  3.5000000000000E-01  3.5000000000000E-01 
 8.5301666666663E+00  1.7060333333333E+01  1.7060333333333E+01  1.7060333333333E+01  1.7060333333333E+01  1.7060333333333E+01  1.7060333333333E+01  1.7060333333333E+01  1.7060333333333E+01  8.5301666666663E+00 
 1.9566425878454E-01  1.9566444513563E-01  1.9566517428891E-01  1.9566644624670E-01  1.9566826101306E-01  1.9567061859380E-01  1.9567351899643E-01  1.9567696223023E-01  1.9568094830620E-01  1.9568547723878E-01 
 4.3744444444444E-05  8.7488888888889E-05  8.7488888888889E-05  8.7488888888889E-05  8.7488888888889E-05  8.7488888888889E-05  8.7488888888889E-05  8.7488888888889E-05  8.7488888888889E-05  4.3744444444444E-05 
 1.3380188695647E+01  1.3380188695647E+01  1.3380188695647E+01  1.3380188695647E+01  1.3380188695647E+01  1.3380188695647E+01  1.3380188695647E+01  1.3380188695647E+01  1.3380188695647E+01  1.3380188695647E+01 
 3.3450471739216E+00  3.3450471739216E+00  3.3450471739216E+00  3.3450471739216E+00  3.3450471739216E+00  3.3450471739216E+00  3.3450471739216E+00  3.3450471739216E+00  3.3450471739216E+00  3.3450471739216E+00 
 3.6728004769394E-11  5.7328196642574E-11  1.2295648375498E-10  2.3744107726766E-10  4.0078324757102E-10  6.1298480721560E-10  8.7404811095928E-10  1.1839760557324E-09  1.5427720807122E-09  1.7343875770479E-09 
 1.8364118899512E-03  2.8664280192922E-03  6.1478631962074E-03  1.1872129192633E-02  2.0039289528344E-02  3.0649434831485E-02  4.3702682838871E-02  5.9199178397077E-02  7.7139093465213E-02  8.6719929066249E-02 
 6.0005957090039E-04  3.0003012834711E-03  1.0201049925934E-02  2.2202379143298E-02  3.9004415849603E-02  6.0607340231111E-02  8.7011385750972E-02  1.1821683914568E-01  1.5422404043245E-01  1.7342812388171E-01 
 3.0727409060390E-03  2.7325183807863E-03  2.0945984495640E-03  1.5417285834686E-03  1.0739089074990E-03  6.9114049044912E-04  3.9342534495612E-04  1.8076642756052E-04  5.3167638767731E-05  1.0633823083700E-05 
 0.0000000000000E+00  0.0000000000000E+00  0.0000000000000E+00  0.0000000000000E+00  0.0000000000000E+00  0.0000000000000E+00  0.0000000000000E+00  0.0000000000000E+00  0.0000000000000E+00  0.0000000000000E+00 
 0.0000000000000E+00  0.0000000000000E+00  0.0000000000000E+00  0.0000000000000E+00  0.0000000000000E+00  0.0000000000000E+00  0.0000000000000E+00  0.0000000000000E+00  0.0000000000000E+00  0.0000000000000E+00 
 0.0000000000000E+00  0.0000000000000E+00  0.0000000000000E+00  0.0000000000000E+00  0.0000000000000E+00  0.0000000000000E+00  0.0000000000000E+00  0.0000000000000E+00  0.0000000000000E+00  0.0000000000000E+00 
ZONE T = "ANOD, 3.0000E-08", I = 10, SOLUTIONTIME = 3.000000E-08
ZONETYPE = ORDERED
DATAPACKING = BLOCK
STRANDID = 1
 0.0000000000000E+00  8.7488888888889E-05  1.7497777777778E-04  2.6246666666667E-04  3.4995555555556E-04  4.3744444444444E-04  5.2493333333333E-04  6.1242222222222E-04  6.9991111111111E-04  7.8740000000000E-04 
 1.1589975177213E-09  3.4769947608278E-09  5.7950006420662E-09  8.1130215919321E-09  1.0431064040970E-08  1.2749860835247E-08  1.5068691990009E-08  1.7387927143796E-08  1.9707209519822E-08  2.0865969515202E-08 
 9.1999999999791E-01  9.1999999999791E-01  9.1999999999791E-01  9.1999999999791E-01  9.1999999999791E-01  9.1999999999791E-01  9.1999999999791E-01  9.1999999999791E-01  9.1999999999791E-01  9.1999999999914E-01 
 4.0000000001045E-02  4.0000000001045E-02  4.0000000001045E-02  4.0000000001045E-02  4.0000000001045E-02  4.0000000001045E-02  4.0000000001045E-02  4.0000000001045E-02  4.0000000001045E-02  4.0000000000432E-02 
 4.0000000001045E-02  4.0000000001045E-02  4.0000000001045E-02  4.0000000001045E-02  4.0000000001045E-02  4.0000000001045E-02  4.0000000001045E-02  4.0000000001045E-02  4.0000000001045E-02  4.0000000000432E-02 
 2.9167373665445E-02  2.9167357938260E-02  2.9167310756673E-02  2.9167232120569E-02  2.9167122029741E-02  2.9166980483900E-02  2.9166807482665E-02  2.9166603025570E-02  2.9166367112062E-02  2.9166099741500E-02 
 0.0000000000000E+00 -4.7371510659311E-09 -8.9170107922743E-09 -1.2539577102256E-08 -1.5604846373086E-08 -1.8112813435949E-08 -2.0063471575984E-08 -2.1456812532267E-08 -2.2292826497782E-08 -2.2571502119390E-08 
-2.9167373665445E-02 -2.9167362675411E-02 -2.9167319673684E-02 -2.9167244660146E-02 -2.9167137634588E-02 -2.9166998596713E-02 -2.9166827546136E-02 -2.9166624482382E-02 -2.9166389404888E-02 -2.9166122313002E-02 
-4.0906712751227E-02 -4.0906712751227E-02 -4.0906712751227E-02 -4.0906712751227E-02 -4.0906712751229E-02 -4.0906712751229E-02 -4.0906712751229E-02 -4.0906712751231E-02 -4.0906712751231E-02 -4.0906712751624E-02 
 1.1739339085781E-02  1.1739350075816E-02  1.1739393077543E-02  1.1739468091081E-02  1.1739575116641E-02  1.1739714154516E-02  1.1739885205093E-02  1.1740088268848E-02  1.1740323346342E-02  1.1740590438622E-02 
 1.6690487381067E+00  3.3381006554252E+00  3.3381130950231E+00  3.3381347950469E+00  3.3381657555665E+00  3.3382059766797E+00  3.3382554585155E+00  3.3383142012324E+00  3.3383822050170E+00  1.6692297350730E+00 
 8.6492352081413E-09  2.5947722092350E-08  4.3246273449847E-08  6.0544937245395E-08  7.7843761497735E-08  9.5142794171962E-08  1.1244208327449E-07  1.2974167678274E-07  1.4704183905428E-07  1.4704183905428E-07 
 0.0000000000000E+00  3.3380990658328E+00  6.6762059410883E+00  1.0014329886063E+01  1.3352480161237E+01  1.6690666027643E+01  2.0028896745209E+01  2.3367181574969E+01  2.6705529778029E+01  3.0043950615537E+01 
 3.0043950615686E+01  2.6705851549867E+01  2.3367744674643E+01  2.0029620729608E+01  1.6691470454301E+01  1.3353284588178E+01  1.0015053870580E+01  6.6767690407062E+00  3.3384208375815E+00  0.0000000000000E+00 
 5.0071466212068E-08  1.0014302780029E-07  1.0014340098743E-07  1.0014405198678E-07  1.0014498080039E-07  1.0014618743124E-07  1.0014767188318E-07  1.0014943416096E-07  1.0015147427019E-07  5.0076896109141E-08 
 7.0592160226264E+03  1.4118432045253E+04  1.4118432045253E+04  1.4118432045253E+04  1.4118432045253E+04  1.4118432045253E+04  1.4118432045253E+04  1.4118432045253E+04  1.4118432045253E+04  7.0592160226265E+03 
 5.2238198567015E+04  1.0447639713403E+05  1.0447639713403E+05  1.0447639713403E+05  1.0447639713403E+05  1.0447639713403E+05  1.0447639713403E+05  1.0447639713403E+05  1.0447639713403E+05  5.2238198567015E+04 
 5.9297414589642E+04  1.1859482917928E+05  1.1859482917928E+05  1.1859482917928E+05  1.1859482917928E+05  1.1859482917928E+05  1.1859482917928E+05  1.1859482917928E+05  1.1859482917928E+05  5.9297414589642E+04 
 3.5000000000000E-01  3.5000000000000E-01  3.5000000000000E-01  3.5000000000000E-01  3.5000000000000E-01  3.5000000000000E-01  3.5000000000000E-01  3.5000000000000E-01  3.5000000000000E-01  3.5000000000000E-01 
 8.5301666666661E+00  1.7060333333332E+01  1.7060333333332E+01  1.7060333333332E+01  1.7060333333332E+01  1.7060333333332E+01  1.7060333333332E+01  1.7060333333332E+01  1.7060333333332E+01  8.5301666666661E+00 
 1.9566425878043E-01  1.9566444513152E-01  1.9566517428479E-01  1.9566644624258E-01  1.9566826100897E-01  1.9567061858970E-01  1.9567351899234E-01  1.9567696222618E-01  1.9568094830214E-01  1.9568547723645E-01 
 4.3744444444444E-05  8.7488888888889E-05  8.7488888888889E-05  8.7488888888889E-05  8.7488888888889E-05  8.7488888888889E-05  8.7488888888889E-05  8.7488888888889E-05  8.7488888888889E-05  4.3744444444444E-05 
 1.3380188695643E+01  1.3380188695643E+01  1.3380188695643E+01  1.3380188695643E+01  1.3380188695643E+01  1.3380188695643E+01  1.3380188695643E+01  1.3380188695643E+01  1.3380188695643E+01  1.3380188695643E+01 
 3.3450471739256E+00  3.3450471739256E+00  3.3450471739256E+00  3.3450471739256E+00  3.3450471739256E+00  3.3450471739256E+00  3.3450471739256E+00  3.3450471739256E+00  3.3450471739256E+00  3.3450471739256E+00 
 5.5092123669628E-11  8.5992476833746E-11  1.8443511571509E-10  3.5616236918538E-10  6.0117614284073E-10  9.1947915551971E-10  1.3110749393272E-09  1.7759678396712E-09  2.3141630153276E-09  2.6015868676707E-09 
 1.8364118900235E-03  2.8664280191173E-03  6.1478631960108E-03  1.1872129191772E-02  2.0039289526970E-02  3.0649434830411E-02  4.3702682836793E-02  5.9199178393881E-02  7.7139093461537E-02  8.6719929062281E-02 
 9.0009126016743E-04  4.5004614437999E-03  1.5301607252523E-02  3.3303639152608E-02  5.8506747516181E-02  9.0911202623909E-02  1.3051735466732E-01  1.7732563375239E-01  2.3133654990596E-01  2.6014273599872E-01 
 4.6091211067954E-03  4.0987862395748E-03  3.1419043189860E-03  2.3125977659297E-03  1.6108667678912E-03  1.0367129280625E-03  5.9013926540554E-04  2.7115021473319E-04  7.9751626796933E-05  1.5950768354521E-05 
 0.0000000000000E+00  0.0000000000000E+00  0.0000000000000E+00  0.0000000000000E+00  0.0000000000000E+00  0.0000000000000E+00  0.0000000000000E+00  0.0000000000000E+00  0.0000000000000E+00  0.0000000000000E+00 
 0.0000000000000E+00  0.0000000000000E+00  0.0000000000000E+00  0.0000000000000E+00  0.0000000000000E+00  0.0000000000000E+00  0.0000000000000E+00  0.0000000000000E+00  0.0000000000000E+00  0.0000000000000E+00 
 0.0000000000000E+00  0.0000000000000E+00  0.0000000000000E+00  0.0000000000000E+00  0.0000000000000E+00  0.0000000000000E+00  0.0000000000000E+00  0.0000000000000E+00  0.0000000000000E+00  0.0000000000000E+00 
ZONE T = "ANOD, 4.0000E-08", I = 10, SOLUTIONTIME = 4.000000E-08
ZONETYPE = ORDERED
DATAPACKING = BLOCK
STRANDID = 1
 0.0000000000000E+00  8.7488888888889E-05  1.7497777777778E-04  2.6246666666667E-04  3.4995555555556E-04  4.3744444444444E-04  5.2493333333333E-04  6.1242222222222E-04  6.9991111111111E-04  7.8740000000000E-04 
 1.1586343099694E-09  3.4755419298442E-09  5.7935478110342E-09  8.1115687608518E-09  1.0428521586657E-08  1.2745502342247E-08  1.5063607081505E-08  1.7381752612060E-08  1.9700671780310E-08  2.0859794983403E-08 
 9.1999999999721E-01  9.1999999999721E-01  9.1999999999721E-01  9.1999999999721E-01  9.1999999999721E-01  9.1999999999721E-01  9.1999999999721E-01  9.1999999999721E-01  9.1999999999721E-01  9.1999999999885E-01 
 4.0000000001393E-02  4.0000000001393E-02  4.0000000001393E-02  4.0000000001393E-02  4.0000000001393E-02  4.0000000001393E-02  4.0000000001393E-02  4.0000000001393E-02  4.0000000001393E-02  4.0000000000576E-02 
 4.0000000001393E-02  4.0000000001393E-02  4.0000000001393E-02  4.0000000001393E-02  4.0000000001393E-02  4.0000000001393E-02  4.0000000001393E-02  4.0000000001393E-02  4.0000000001393E-02  4.0000000000576E-02 
 2.9167373665080E-02  2.9167357937894E-02  2.9167310756308E-02  2.9167232120203E-02  2.9167122029376E-02  2.9166980483534E-02  2.9166807482299E-02  2.9166603025204E-02  2.9166367111696E-02  2.9166099741135E-02 
 0.0000000000000E+00 -4.7371510658343E-09 -8.9170107920923E-09 -1.2539577102000E-08 -1.5604846372768E-08 -1.8112813435581E-08 -2.0063471575578E-08 -2.1456812531834E-08 -2.2292826497334E-08 -2.2571502118938E-08 
-2.9167373665080E-02 -2.9167362675045E-02 -2.9167319673319E-02 -2.9167244659780E-02 -2.9167137634222E-02 -2.9166998596348E-02 -2.9166827545771E-02 -2.9166624482017E-02 -2.9166389404523E-02 -2.9166122312637E-02 
-4.0906712750503E-02 -4.0906712750503E-02 -4.0906712750503E-02 -4.0906712750503E-02 -4.0906712750502E-02 -4.0906712750502E-02 -4.0906712750502E-02 -4.0906712750506E-02 -4.0906712750506E-02 -4.0906712751030E-02 
 1.1739339085423E-02  1.1739350075458E-02  1.1739393077184E-02  1.1739468090723E-02  1.1739575116280E-02  1.1739714154155E-02  1.1739885204732E-02  1.1740088268489E-02  1.1740323345983E-02  1.1740590438394E-02 
 1.6690487380719E+00  3.3381006553555E+00  3.3381130949534E+00  3.3381347949773E+00  3.3381657554962E+00  3.3382059766095E+00  3.3382554584452E+00  3.3383142011624E+00  3.3383822049471E+00  1.6692297350527E+00 