TITLE = "Solution on Domain BulkDomain1D_1"
VARIABLES = "x [m]"  
"Vel_axial" 	"MF_sp(ECDMC)" 	"MF_sp(Li+)" 	"MF_sp(PF6-)" 	"Volt(Electroly)" 	"Porosity []" 	"Control volume thickness [m]" 	"volFrac MgO(S) []" 	"qHeat_accum [J/m3]" 	"qHeat_step [W/m3]" 	"Joule_Lyte [W/m3]" 	"Joule_Solid [W/m3]" 	
ZONE T = "SEP , 0.0000E+00", I = 10, SOLUTIONTIME = 0.000000E+00
ZONETYPE = ORDERED
DATAPACKING = BLOCK
STRANDID = 2
 7.8740000000000E-04  8.4102222222222E-04  8.9464444444444E-04  9.4826666666667E-04  1.0018888888889E-03  1.0555111111111E-03  1.1091333333333E-03  1.1627555555556E-03  1.2163777777778E-03  1.2700000000000E-03 
 0.0000000000000E+00  0.0000000000000E+00  0.0000000000000E+00  0.0000000000000E+00  0.0000000000000E+00  0.0000000000000E+00  0.0000000000000E+00  0.0000000000000E+00  0.0000000000000E+00  0.0000000000000E+00 
 9.2000000000000E-01  9.2000000000000E-01  9.2000000000000E-01  9.2000000000000E-01  9.2000000000000E-01  9.2000000000000E-01  9.2000000000000E-01  9.2000000000000E-01  9.2000000000000E-01  9.2000000000000E-01 
 4.0000000000000E-02  4.0000000000000E-02  4.0000000000000E-02  4.0000000000000E-02  4.0000000000000E-02  4.0000000000000E-02  4.0000000000000E-02  4.0000000000000E-02  4.0000000000000E-02  4.0000000000000E-02 
 4.0000000000000E-02  4.0000000000000E-02  4.0000000000000E-02  4.0000000000000E-02  4.0000000000000E-02  4.0000000000000E-02  4.0000000000000E-02  4.0000000000000E-02  4.0000000000000E-02  4.0000000000000E-02 
-7.0000000000000E-02 -7.0000000000000E-02 -7.0000000000000E-02 -7.0000000000000E-02 -7.0000000000000E-02 -7.0000000000000E-02 -7.0000000000000E-02 -7.0000000000000E-02 -7.0000000000000E-02 -7.0000000000000E-02 
 8.0911499769706E-01  8.0911499769706E-01  8.0911499769706E-01  8.0911499769706E-01  8.0911499769706E-01  8.0911499769706E-01  8.0911499769706E-01  8.0911499769706E-01  8.0911499769706E-01  8.0911499769706E-01 
 2.6811111111111E-05  5.3622222222222E-05  5.3622222222222E-05  5.3622222222222E-05  5.3622222222222E-05  5.3622222222222E-05  5.3622222222222E-05  5.3622222222223E-05  5.3622222222222E-05  2.6811111111111E-05 
 1.9088500230294E-01  1.9088500230294E-01  1.9088500230294E-01  1.9088500230294E-01  1.9088500230294E-01  1.9088500230294E-01  1.9088500230294E-01  1.9088500230294E-01  1.9088500230294E-01  1.9088500230294E-01 
 0.0000000000000E+00  0.0000000000000E+00  0.0000000000000E+00  0.0000000000000E+00  0.0000000000000E+00  0.0000000000000E+00  0.0000000000000E+00  0.0000000000000E+00  0.0000000000000E+00  0.0000000000000E+00 
 0.0000000000000E+00  0.0000000000000E+00  0.0000000000000E+00  0.0000000000000E+00  0.0000000000000E+00  0.0000000000000E+00  0.0000000000000E+00  0.0000000000000E+00  0.0000000000000E+00  0.0000000000000E+00 
 0.0000000000000E+00  0.0000000000000E+00  0.0000000000000E+00  0.0000000000000E+00  0.0000000000000E+00  0.0000000000000E+00  0.0000000000000E+00  0.0000000000000E+00  0.0000000000000E+00  0.0000000000000E+00 
 0.0000000000000E+00  0.0000000000000E+00  0.0000000000000E+00  0.0000000000000E+00  0.0000000000000E+00  0.0000000000000E+00  0.0000000000000E+00  0.0000000000000E+00  0.0000000000000E+00  0.0000000000000E+00 
ZONE T = "SEP , 1.0000E-08", I = 10, SOLUTIONTIME = 1.000000E-08
ZONETYPE = ORDERED
DATAPACKING = BLOCK
STRANDID = 2
 7.8740000000000E-04  8.4102222222222E-04  8.9464444444444E-04  9.4826666666667E-04  1.0018888888889E-03  1.0555111111111E-03  1.1091333333333E-03  1.1627555555556E-03  1.2163777777778E-03  1.2700000000000E-03 
 2.0862979329023E-08  2.0862979329023E-08  2.0862979329023E-08  2.0862979329023E-08  2.0862979329023E-08  2.0862979329023E-08  2.0862979329023E-08  2.0862979329023E-08  2.0862979329023E-08  1.9704888829878E-08 
 9.1999999999971E-01  9.2000000000000E-01  9.2000000000000E-01  9.2000000000000E-01  9.2000000000000E-01  9.2000000000000E-01  9.2000000000000E-01  9.2000000000000E-01  9.2000000000000E-01  9.2000000000032E-01 
 4.0000000000144E-02  4.0000000000000E-02  4.0000000000000E-02  4.0000000000000E-02  4.0000000000000E-02  4.0000000000000E-02  4.0000000000000E-02  4.0000000000000E-02  4.0000000000000E-02  3.9999999999841E-02 
 4.0000000000144E-02  4.0000000000000E-02  4.0000000000000E-02  4.0000000000000E-02  4.0000000000000E-02  4.0000000000000E-02  4.0000000000000E-02  4.0000000000000E-02  4.0000000000000E-02  3.9999999999841E-02 
 2.9166165132454E-02  2.9166115767830E-02  2.9166066403206E-02  2.9166017038572E-02  2.9165967673947E-02  2.9165918309323E-02  2.9165868944698E-02  2.9165819580059E-02  2.9165770215434E-02  2.9165720850809E-02 
 8.0911499769706E-01  8.0911499769706E-01  8.0911499769706E-01  8.0911499769706E-01  8.0911499769706E-01  8.0911499769706E-01  8.0911499769706E-01  8.0911499769706E-01  8.0911499769706E-01  8.0911499769706E-01 
 2.6811111111111E-05  5.3622222222222E-05  5.3622222222222E-05  5.3622222222222E-05  5.3622222222222E-05  5.3622222222222E-05  5.3622222222222E-05  5.3622222222223E-05  5.3622222222222E-05  2.6811111111111E-05 
 1.9088500230294E-01  1.9088500230294E-01  1.9088500230294E-01  1.9088500230294E-01  1.9088500230294E-01  1.9088500230294E-01  1.9088500230294E-01  1.9088500230294E-01  1.9088500230294E-01  1.9088500230294E-01 
 2.7658351166769E-10  2.7658350542756E-10  2.7658355816493E-10  2.7658356185832E-10  2.7658350573834E-10  2.7658351050086E-10  2.7658359216350E-10  2.7658358994747E-10  2.7658351135589E-10  2.7658351104460E-10 
 2.7658351166769E-02  2.7658350542756E-02  2.7658355816493E-02  2.7658356185832E-02  2.7658350573834E-02  2.7658351050086E-02  2.7658359216350E-02  2.7658358994747E-02  2.7658351135589E-02  2.7658351104460E-02 
 2.7658351166769E-02  2.7658350542756E-02  2.7658355816493E-02  2.7658356185832E-02  2.7658350573834E-02  2.7658351050086E-02  2.7658359216350E-02  2.7658358994747E-02  2.7658351135589E-02  2.7658351104460E-02 
 0.0000000000000E+00  0.0000000000000E+00  0.0000000000000E+00  0.0000000000000E+00  0.0000000000000E+00  0.0000000000000E+00  0.0000000000000E+00  0.0000000000000E+00  0.0000000000000E+00  0.0000000000000E+00 
ZONE T = "SEP , 2.0000E-08", I = 10, SOLUTIONTIME = 2.000000E-08
ZONETYPE = ORDERED
DATAPACKING = BLOCK
STRANDID = 2
 7.8740000000000E-04  8.4102222222222E-04  8.9464444444444E-04  9.4826666666667E-04  1.0018888888889E-03  1.0555111111111E-03  1.1091333333333E-03  1.1627555555556E-03  1.2163777777778E-03  1.2700000000000E-03 
 2.0860903518583E-08  2.0859450687671E-08  2.0859450687671E-08  2.0859450687671E-08  2.0859450687671E-08  2.0859450687671E-08  2.0859450687671E-08  2.0859450687671E-08  2.0859450687671E-08  1.9701717754324E-08 
 9.1999999999942E-01  9.2000000000000E-01  9.2000000000000E-01  9.2000000000000E-01  9.2000000000000E-01  9.2000000000000E-01  9.2000000000000E-01  9.2000000000000E-01  9.2000000000000E-01  9.2000000000063E-01 
 4.0000000000288E-02  4.0000000000000E-02  4.0000000000000E-02  4.0000000000000E-02  4.0000000000000E-02  4.0000000000000E-02  4.0000000000000E-02  4.0000000000000E-02  4.0000000000000E-02  3.9999999999683E-02 
 4.0000000000288E-02  4.0000000000000E-02  4.0000000000000E-02  4.0000000000000E-02  4.0000000000000E-02  4.0000000000000E-02  4.0000000000000E-02  4.0000000000000E-02  4.0000000000000E-02  3.9999999999683E-02 
 2.9166167321633E-02  2.9166117956760E-02  2.9166068591888E-02  2.9166019227015E-02  2.9165969862143E-02  2.9165920497270E-02  2.9165871132398E-02  2.9165821767525E-02  2.9165772402652E-02  2.9165723037780E-02 
 8.0911499769706E-01  8.0911499769706E-01  8.0911499769706E-01  8.0911499769706E-01  8.0911499769706E-01  8.0911499769706E-01  8.0911499769706E-01  8.0911499769706E-01  8.0911499769706E-01  8.0911499769706E-01 
 2.6811111111111E-05  5.3622222222222E-05  5.3622222222222E-05  5.3622222222222E-05  5.3622222222222E-05  5.3622222222222E-05  5.3622222222222E-05  5.3622222222223E-05  5.3622222222222E-05  2.6811111111111E-05 
 1.9088500230294E-01  1.9088500230294E-01  1.9088500230294E-01  1.9088500230294E-01  1.9088500230294E-01  1.9088500230294E-01  1.9088500230294E-01  1.9088500230294E-01  1.9088500230294E-01  1.9088500230294E-01 
 5.5316979944470E-10  5.5316979318464E-10  5.5316984592152E-10  5.5316984961490E-10  5.5316979349492E-10  5.5316979825744E-10  5.5316987992008E-10  5.5316987770405E-10  5.5316979911192E-10  5.5316979881952E-10 
 2.7658628777702E-02  2.7658628775708E-02  2.7658628775658E-02  2.7658628775658E-02  2.7658628775658E-02  2.7658628775658E-02  2.7658628775658E-02  2.7658628775658E-02  2.7658628775603E-02  2.7658628777492E-02 
 2.7658628777702E-02  2.7658628775708E-02  2.7658628775658E-02  2.7658628775658E-02  2.7658628775658E-02  2.7658628775658E-02  2.7658628775658E-02  2.7658628775658E-02  2.7658628775603E-02  2.7658628777492E-02 
 0.0000000000000E+00  0.0000000000000E+00  0.0000000000000E+00  0.0000000000000E+00  0.0000000000000E+00  0.0000000000000E+00  0.0000000000000E+00  0.0000000000000E+00  0.0000000000000E+00  0.0000000000000E+00 
ZONE T = "SEP , 3.0000E-08", I = 10, SOLUTIONTIME = 3.000000E-08
ZONETYPE = ORDERED
DATAPACKING = BLOCK
STRANDID = 2
 7.8740000000000E-04  8.4102222222222E-04  8.9464444444444E-04  9.4826666666667E-04  1.0018888888889E-03  1.0555111111111E-03  1.1091333333333E-03  1.1627555555556E-03  1.2163777777778E-03  1.2700000000000E-03 
 2.0865625218617E-08  2.0867078049529E-08  2.0867078049529E-08  2.0867078049529E-08  2.0867078049529E-08  2.0867078049529E-08  2.0867078049529E-08  2.0867078049529E-08  2.0867078049529E-08  1.9708618700741E-08 
 9.1999999999914E-01  9.2000000000000E-01  9.2000000000000E-01  9.2000000000000E-01  9.2000000000000E-01  9.2000000000000E-01  9.2000000000000E-01  9.2000000000000E-01  9.2000000000000E-01  9.2000000000095E-01 
 4.0000000000432E-02  4.0000000000000E-02  4.0000000000000E-02  4.0000000000000E-02  4.0000000000000E-02  4.0000000000000E-02  4.0000000000000E-02  4.0000000000000E-02  4.0000000000000E-02  3.9999999999524E-02 
 4.0000000000432E-02  4.0000000000000E-02  4.0000000000000E-02  4.0000000000000E-02  4.0000000000000E-02  4.0000000000000E-02  4.0000000000000E-02  4.0000000000000E-02  4.0000000000000E-02  3.9999999999524E-02 
 2.9166167321269E-02  2.9166117956397E-02  2.9166068591524E-02  2.9166019226652E-02  2.9165969861779E-02  2.9165920496906E-02  2.9165871132034E-02  2.9165821767161E-02  2.9165772402289E-02  2.9165723037416E-02 
 8.0911499769706E-01  8.0911499769706E-01  8.0911499769706E-01  8.0911499769706E-01  8.0911499769706E-01  8.0911499769706E-01  8.0911499769706E-01  8.0911499769706E-01  8.0911499769706E-01  8.0911499769706E-01 
 2.6811111111111E-05  5.3622222222222E-05  5.3622222222222E-05  5.3622222222222E-05  5.3622222222222E-05  5.3622222222222E-05  5.3622222222222E-05  5.3622222222223E-05  5.3622222222222E-05  2.6811111111111E-05 
 1.9088500230294E-01  1.9088500230294E-01  1.9088500230294E-01  1.9088500230294E-01  1.9088500230294E-01  1.9088500230294E-01  1.9088500230294E-01  1.9088500230294E-01  1.9088500230294E-01  1.9088500230294E-01 
 8.2975608718334E-10  8.2975608094197E-10  8.2975613367810E-10  8.2975613735204E-10  8.2975608123206E-10  8.2975608599458E-10  8.2975616767666E-10  8.2975616546062E-10  8.2975608684824E-10  8.2975608655502E-10 
 2.7658628773864E-02  2.7658628775733E-02  2.7658628775658E-02  2.7658628773714E-02  2.7658628773714E-02  2.7658628773714E-02  2.7658628775658E-02  2.7658628775658E-02  2.7658628773632E-02  2.7658628773550E-02 
 2.7658628773864E-02  2.7658628775733E-02  2.7658628775658E-02  2.7658628773714E-02  2.7658628773714E-02  2.7658628773714E-02  2.7658628775658E-02  2.7658628775658E-02  2.7658628773632E-02  2.7658628773550E-02 
 0.0000000000000E+00  0.0000000000000E+00  0.0000000000000E+00  0.0000000000000E+00  0.0000000000000E+00  0.0000000000000E+00  0.0000000000000E+00  0.0000000000000E+00  0.0000000000000E+00  0.0000000000000E+00 
ZONE T = "SEP , 4.0000E-08", I = 10, SOLUTIONTIME = 4.000000E-08
ZONETYPE = ORDERED
DATAPACKING = BLOCK
STRANDID = 2
 7.8740000000000E-04  8.4102222222222E-04  8.9464444444444E-04  9.4826666666667E-04  1.0018888888889E-03  1.0555111111111E-03  1.1091333333333E-03  1.1627555555556E-03  1.2163777777778E-03  1.2700000000000E-03 
 2.0860903517729E-08  2.0860903517729E-08  2.0860903517729E-08  2.0860903517729E-08  2.0860903517729E-08  2.0860903517729E-08  2.0860903517729E-08  2.0860903517729E-08  2.0860903517729E-08  1.9704260207596E-08 
 9.1999999999885E-01  9.2000000000000E-01  9.2000000000000E-01  9.2000000000000E-01  9.2000000000000E-01  9.2000000000000E-01  9.2000000000000E-01  9.2000000000000E-01  9.2000000000000E-01  9.2000000000127E-01 
 4.0000000000576E-02  4.0000000000000E-02  4.0000000000000E-02  4.0000000000000E-02  4.0000000000000E-02  4.0000000000000E-02  4.0000000000000E-02  4.0000000000000E-02  4.0000000000000E-02  3.9999999999365E-02 
 4.0000000000576E-02  4.0000000000000E-02  4.0000000000000E-02  4.0000000000000E-02  4.0000000000000E-02  4.0000000000000E-02  4.0000000000000E-02  4.0000000000000E-02  4.0000000000000E-02  3.9999999999365E-02 
 2.9166167320904E-02  2.9166117956031E-02  2.9166068591159E-02  2.9166019226286E-02  2.9165969861414E-02  2.9165920496541E-02  2.9165871131668E-02  2.9165821766796E-02  2.9165772401923E-02  2.9165723037051E-02 
 8.0911499769706E-01  8.0911499769706E-01  8.0911499769706E-01  8.0911499769706E-01  8.0911499769706E-01  8.0911499769706E-01  8.0911499769706E-01  8.0911499769706E-01  8.0911499769706E-01  8.0911499769706E-01 
 2.6811111111111E-05  5.3622222222222E-05  5.3622222222222E-05  5.3622222222222E-05  5.3622222222222E-05  5.3622222222222E-05  5.3622222222222E-05  5.3622222222223E-05  5.3622222222222E-05  2.6811111111111E-05 
 1.9088500230294E-01  1.9088500230294E-01  1.9088500230294E-01  1.9088500230294E-01  1.9088500230294E-01  1.9088500230294E-01  1.9088500230294E-01  1.9088500230294E-01  1.9088500230294E-01  1.9088500230294E-01 
 1.1063423749225E-09  1.1063423686607E-09  1.1063424213958E-09  1.1063424250892E-09  1.1063423689692E-09  1.1063423737317E-09  1.1063424554138E-09  1.1063424531978E-09  1.1063423745843E-09  1.1063423742900E-09 
 2.7658628773914E-02  2.7658628771870E-02  2.7658628771770E-02  2.7658628773714E-02  2.7658628773714E-02  2.7658628773714E-02  2.7658628773714E-02  2.7658628773714E-02  2.7658628773604E-02  2.7658628773495E-02 
 2.7658628773914E-02  2.7658628771870E-02  2.7658628771770E-02  2.7658628773714E-02  2.7658628773714E-02  2.7658628773714E-02  2.7658628773714E-02  2.7658628773714E-02  2.7658628773604E-02  2.7658628773495E-02 
 0.0000000000000E+00  0.0000000000000E+00  0.0000000000000E+00  0.0000000000000E+00  0.0000000000000E+00  0.0000000000000E+00  0.0000000000000E+00  0.0000000000000E+00  0.0000000000000E+00  0.0000000000000E+00 
ZONE T = "SEP , 5.5000E-08", I = 10, SOLUTIONTIME = 5.500000E-08
ZONETYPE = ORDERED
DATAPACKING = BLOCK
STRANDID = 2
 7.8740000000000E-04  8.4102222222222E-04  8.9464444444444E-04  9.4826666666667E-04  1.0018888888889E-03  1.0555111111111E-03  1.1091333333333E-03  1.1627555555556E-03  1.2163777777778E-03  1.2700000000000E-03 
 2.0864172386822E-08  2.0864172386822E-08  2.0864172386822E-08  2.0864172386822E-08  2.0864172386822E-08  2.0864172386822E-08  2.0864172386822E-08  2.0864172386822E-08  2.0864172386822E-08  1.9705834107310E-08 
 9.1999999999842E-01  9.2000000000000E-01  9.2000000000000E-01  9.2000000000000E-01  9.2000000000000E-01  9.2000000000000E-01  9.2000000000000E-01  9.2000000000000E-01  9.2000000000000E-01  9.2000000000175E-01 
 4.0000000000792E-02  4.0000000000000E-02  4.0000000000000E-02  4.0000000000000E-02  4.0000000000000E-02  4.0000000000000E-02  4.0000000000000E-02  4.0000000000000E-02  4.0000000000000E-02  3.9999999999127E-02 
 4.0000000000792E-02  4.0000000000000E-02  4.0000000000000E-02  4.0000000000000E-02  4.0000000000000E-02  4.0000000000000E-02  4.0000000000000E-02  4.0000000000000E-02  4.0000000000000E-02  3.9999999999127E-02 
 2.9166167320485E-02  2.9166117955613E-02  2.9166068590740E-02  2.9166019225867E-02  2.9165969860995E-02  2.9165920496122E-02  2.9165871131250E-02  2.9165821766377E-02  2.9165772401504E-02  2.9165723036632E-02 
 8.0911499769706E-01  8.0911499769706E-01  8.0911499769706E-01  8.0911499769706E-01  8.0911499769706E-01  8.0911499769706E-01  8.0911499769706E-01  8.0911499769706E-01  8.0911499769706E-01  8.0911499769706E-01 
 2.6811111111111E-05  5.3622222222222E-05  5.3622222222222E-05  5.3622222222222E-05  5.3622222222222E-05  5.3622222222222E-05  5.3622222222222E-05  5.3622222222223E-05  5.3622222222222E-05  2.6811111111111E-05 
 1.9088500230294E-01  1.9088500230294E-01  1.9088500230294E-01  1.9088500230294E-01  1.9088500230294E-01  1.9088500230294E-01  1.9088500230294E-01  1.9088500230294E-01  1.9088500230294E-01  1.9088500230294E-01 
 1.5212218064740E-09  1.5212218002393E-09  1.5212218529724E-09  1.5212218566657E-09  1.5212218005749E-09  1.5212218053083E-09  1.5212218869904E-09  1.5212218848035E-09  1.5212218061586E-09  1.5212218058328E-09 
 2.7658628770100E-02  2.7658628771907E-02  2.7658628771770E-02  2.7658628771770E-02  2.7658628773714E-02  2.7658628771770E-02  2.7658628771770E-02  2.7658628773714E-02  2.7658628771619E-02  2.7658628769525E-02 
 2.7658628770100E-02  2.7658628771907E-02  2.7658628771770E-02  2.7658628771770E-02  2.7658628773714E-02  2.7658628771770E-02  2.7658628771770E-02  2.7658628773714E-02  2.7658628771619E-02  2.7658628769525E-02 
 0.0000000000000E+00  0.0000000000000E+00  0.0000000000000E+00  0.0000000000000E+00  0.0000000000000E+00  0.0000000000000E+00  0.0000000000000E+00  0.0000000000000E+00  0.0000000000000E+00  0.0000000000000E+00 
ZONE T = "SEP , 7.7500E-08", I = 10, SOLUTIONTIME = 7.750000E-08
ZONETYPE = ORDERED
DATAPACKING = BLOCK
STRANDID = 2
 7.8740000000000E-04  8.4102222222222E-04  8.9464444444444E-04  9.4826666666667E-04  1.0018888888889E-03  1.0555111111111E-03  1.1091333333333E-03  1.1627555555556E-03  1.2163777777778E-03  1.2700000000000E-03 
 2.0862558129505E-08  2.0862558129505E-08  2.0862558129505E-08  2.0862558129505E-08  2.0862558129505E-08  2.0862558129505E-08  2.0862558129505E-08  2.0862558129505E-08  2.0862558129505E-08  1.9705470898863E-08 
 9.1999999999777E-01  9.2000000000000E-01  9.2000000000000E-01  9.2000000000000E-01  9.2000000000000E-01  9.2000000000000E-01  9.2000000000000E-01  9.2000000000000E-01  9.2000000000000E-01  9.2000000000246E-01 
 4.0000000001117E-02  4.0000000000000E-02  4.0000000000000E-02  4.0000000000000E-02  4.0000000000000E-02  4.0000000000000E-02  4.0000000000000E-02  4.0000000000000E-02  4.0000000000000E-02  3.9999999998770E-02 
 4.0000000001117E-02  4.0000000000000E-02  4.0000000000000E-02  4.0000000000000E-02  4.0000000000000E-02  4.0000000000000E-02  4.0000000000000E-02  4.0000000000000E-02  4.0000000000000E-02  3.9999999998770E-02 
 2.9166167319747E-02  2.9166117954874E-02  2.9166068590001E-02  2.9166019225129E-02  2.9165969860256E-02  2.9165920495384E-02  2.9165871130511E-02  2.9165821765639E-02  2.9165772400766E-02  2.9165723035893E-02 
 8.0911499769706E-01  8.0911499769706E-01  8.0911499769706E-01  8.0911499769706E-01  8.0911499769706E-01  8.0911499769706E-01  8.0911499769706E-01  8.0911499769706E-01  8.0911499769706E-01  8.0911499769706E-01 
 2.6811111111111E-05  5.3622222222222E-05  5.3622222222222E-05  5.3622222222222E-05  5.3622222222222E-05  5.3622222222222E-05  5.3622222222222E-05  5.3622222222223E-05  5.3622222222222E-05  2.6811111111111E-05 
 1.9088500230294E-01  1.9088500230294E-01  1.9088500230294E-01  1.9088500230294E-01  1.9088500230294E-01  1.9088500230294E-01  1.9088500230294E-01  1.9088500230294E-01  1.9088500230294E-01  1.9088500230294E-01 
 2.1435409538038E-09  2.1435409475647E-09  2.1435410002934E-09  2.1435410039868E-09  2.1435409478960E-09  2.1435409526294E-09  2.1435410343115E-09  2.1435410321246E-09  2.1435409535186E-09  2.1435409532318E-09 
 2.7658628770213E-02  2.7658628770019E-02  2.7658628769826E-02  2.7658628769826E-02  2.7658628769826E-02  2.7658628769826E-02  2.7658628769826E-02  2.7658628769826E-02  2.7658628771558E-02  2.7658628773289E-02 
 2.7658628770213E-02  2.7658628770019E-02  2.7658628769826E-02  2.7658628769826E-02  2.7658628769826E-02  2.7658628769826E-02  2.7658628769826E-02  2.7658628769826E-02  2.7658628771558E-02  2.7658628773289E-02 
 0.0000000000000E+00  0.0000000000000E+00  0.0000000000000E+00  0.0000000000000E+00  0.0000000000000E+00  0.0000000000000E+00  0.0000000000000E+00  0.0000000000000E+00  0.0000000000000E+00  0.0000000000000E+00 
ZONE T = "SEP , 1.1125E-07", I = 10, SOLUTIONTIME = 1.112500E-07
ZONETYPE = ORDERED
DATAPACKING = BLOCK
STRANDID = 2
 7.8740000000000E-04  8.4102222222222E-04  8.9464444444444E-04  9.4826666666667E-04  1.0018888888889E-03  1.0555111111111E-03  1.1091333333333E-03  1.1627555555556E-03  1.2163777777778E-03  1.2700000000000E-03 
 2.0862289085622E-08  2.0862289085622E-08  2.0862289085622E-08  2.0862289085622E-08  2.0862289085622E-08  2.0862289085622E-08  2.0862289085622E-08  2.0862289085622E-08  2.0862289085622E-08  1.9704287109635E-08 
 9.1999999999679E-01  9.2000000000000E-01  9.2000000000000E-01  9.2000000000000E-01  9.2000000000000E-01  9.2000000000000E-01  9.2000000000000E-01  9.2000000000000E-01  9.2000000000000E-01  9.2000000000353E-01 
 4.0000000001603E-02  4.0000000000000E-02  4.0000000000000E-02  4.0000000000000E-02  4.0000000000000E-02  4.0000000000000E-02  4.0000000000000E-02  4.0000000000000E-02  4.0000000000000E-02  3.9999999998234E-02 
 4.0000000001603E-02  4.0000000000000E-02  4.0000000000000E-02  4.0000000000000E-02  4.0000000000000E-02  4.0000000000000E-02  4.0000000000000E-02  4.0000000000000E-02  4.0000000000000E-02  3.9999999998234E-02 
 2.9166167318642E-02  2.9166117953769E-02  2.9166068588897E-02  2.9166019224024E-02  2.9165969859152E-02  2.9165920494279E-02  2.9165871129406E-02  2.9165821764534E-02  2.9165772399661E-02  2.9165723034789E-02 
 8.0911499769706E-01  8.0911499769706E-01  8.0911499769706E-01  8.0911499769706E-01  8.0911499769706E-01  8.0911499769706E-01  8.0911499769706E-01  8.0911499769706E-01  8.0911499769706E-01  8.0911499769706E-01 
 2.6811111111111E-05  5.3622222222222E-05  5.3622222222222E-05  5.3622222222222E-05  5.3622222222222E-05  5.3622222222222E-05  5.3622222222222E-05  5.3622222222223E-05  5.3622222222222E-05  2.6811111111111E-05 
 1.9088500230294E-01  1.9088500230294E-01  1.9088500230294E-01  1.9088500230294E-01  1.9088500230294E-01  1.9088500230294E-01  1.9088500230294E-01  1.9088500230294E-01  1.9088500230294E-01  1.9088500230294E-01 
 3.0770196746729E-09  3.0770196684245E-09  3.0770197212095E-09  3.0770197249029E-09  3.0770196687464E-09  3.0770196735454E-09  3.0770197552275E-09  3.0770197529750E-09  3.0770196744244E-09  3.0770196741929E-09 
 2.7658628766493E-02  2.7658628766216E-02  2.7658628767883E-02  2.7658628767883E-02  2.7658628765939E-02  2.7658628767883E-02  2.7658628767883E-02  2.7658628765938E-02  2.7658628767577E-02  2.7658628769216E-02 
 2.7658628766493E-02  2.7658628766216E-02  2.7658628767883E-02  2.7658628767883E-02  2.7658628765939E-02  2.7658628767883E-02  2.7658628767883E-02  2.7658628765938E-02  2.7658628767577E-02  2.7658628769216E-02 
 0.0000000000000E+00  0.0000000000000E+00  0.0000000000000E+00  0.0000000000000E+00  0.0000000000000E+00  0.0000000000000E+00  0.0000000000000E+00  0.0000000000000E+00  0.0000000000000E+00  0.0000000000000E+00 
ZONE T = "SEP , 1.6188E-07", I = 10, SOLUTIONTIME = 1.618750E-07
ZONETYPE = ORDERED
DATAPACKING = BLOCK
STRANDID = 2
 7.8740000000000E-04  8.4102222222222E-04  8.9464444444444E-04  9.4826666666667E-04  1.0018888888889E-03  1.0555111111111E-03  1.1091333333333E-03  1.1627555555556E-03  1.2163777777778E-03  1.2700000000000E-03 
 2.0863795723402E-08  2.0863508744457E-08  2.0863508744457E-08  2.0863508744457E-08  2.0863508744457E-08  2.0863508744457E-08  2.0863508744457E-08  2.0863508744457E-08  2.0863508744457E-08  1.9705775811298E-08 
 9.1999999999534E-01  9.2000000000000E-01  9.2000000000000E-01  9.2000000000000E-01  9.2000000000000E-01  9.2000000000000E-01  9.2000000000000E-01  9.2000000000000E-01  9.2000000000000E-01  9.2000000000514E-01 
 4.0000000002332E-02  4.0000000000001E-02  4.0000000000000E-02  4.0000000000000E-02  4.0000000000000E-02  4.0000000000000E-02  4.0000000000000E-02  4.0000000000000E-02  3.9999999999999E-02  3.9999999997431E-02 
 4.0000000002332E-02  4.0000000000001E-02  4.0000000000000E-02  4.0000000000000E-02  4.0000000000000E-02  4.0000000000000E-02  4.0000000000000E-02  4.0000000000000E-02  3.9999999999999E-02  3.9999999997431E-02 
 2.9166167316985E-02  2.9166117952112E-02  2.9166068587239E-02  2.9166019222367E-02  2.9165969857494E-02  2.9165920492622E-02  2.9165871127749E-02  2.9165821762877E-02  2.9165772398004E-02  2.9165723033131E-02 
 8.0911499769706E-01  8.0911499769706E-01  8.0911499769706E-01  8.0911499769706E-01  8.0911499769706E-01  8.0911499769706E-01  8.0911499769706E-01  8.0911499769706E-01  8.0911499769706E-01  8.0911499769706E-01 
 2.6811111111111E-05  5.3622222222222E-05  5.3622222222222E-05  5.3622222222222E-05  5.3622222222222E-05  5.3622222222222E-05  5.3622222222222E-05  5.3622222222223E-05  5.3622222222222E-05  2.6811111111111E-05 
 1.9088500230294E-01  1.9088500230294E-01  1.9088500230294E-01  1.9088500230294E-01  1.9088500230294E-01  1.9088500230294E-01  1.9088500230294E-01  1.9088500230294E-01  1.9088500230294E-01  1.9088500230294E-01 
 4.4772377557926E-09  4.4772377495237E-09  4.4772378023867E-09  4.4772378060801E-09  4.4772377498253E-09  4.4772377546242E-09  4.4772378363063E-09  4.4772378341522E-09  4.4772377555791E-09  4.4772377552267E-09 
 2.7658628762857E-02  2.7658628762454E-02  2.7658628763995E-02  2.7658628763995E-02  2.7658628762051E-02  2.7658628762051E-02  2.7658628762051E-02  2.7658628763994E-02  2.7658628763550E-02  2.7658628761162E-02 
 2.7658628762857E-02  2.7658628762454E-02  2.7658628763995E-02  2.7658628763995E-02  2.7658628762051E-02  2.7658628762051E-02  2.7658628762051E-02  2.7658628763994E-02  2.7658628763550E-02  2.7658628761162E-02 
 0.0000000000000E+00  0.0000000000000E+00  0.0000000000000E+00  0.0000000000000E+00  0.0000000000000E+00  0.0000000000000E+00  0.0000000000000E+00  0.0000000000000E+00  0.0000000000000E+00  0.0000000000000E+00 
ZONE T = "SEP , 2.3781E-07", I = 10, SOLUTIONTIME = 2.378125E-07
ZONETYPE = ORDERED
DATAPACKING = BLOCK
STRANDID = 2
 7.8740000000000E-04  8.4102222222222E-04  8.9464444444444E-04  9.4826666666667E-04  1.0018888888889E-03  1.0555111111111E-03  1.1091333333333E-03  1.1627555555556E-03  1.2163777777778E-03  1.2700000000000E-03 
 2.0862719549832E-08  2.0862910869129E-08  2.0862910869129E-08  2.0862910869129E-08  2.0862910869129E-08  2.0862910869129E-08  2.0862910869129E-08  2.0862910869129E-08  2.0862815209481E-08  1.9705130106246E-08 
 9.1999999999315E-01  9.2000000000000E-01  9.2000000000000E-01  9.2000000000000E-01  9.2000000000000E-01  9.2000000000000E-01  9.2000000000000E-01  9.2000000000000E-01  9.2000000000000E-01  9.2000000000755E-01 
 4.0000000003425E-02  4.0000000000002E-02  4.0000000000000E-02  4.0000000000000E-02  4.0000000000000E-02  4.0000000000000E-02  4.0000000000000E-02  4.0000000000000E-02  3.9999999999998E-02  3.9999999996226E-02 
 4.0000000003425E-02  4.0000000000002E-02  4.0000000000000E-02  4.0000000000000E-02  4.0000000000000E-02  4.0000000000000E-02  4.0000000000000E-02  4.0000000000000E-02  3.9999999999998E-02  3.9999999996226E-02 
 2.9166167314498E-02  2.9166117949625E-02  2.9166068584753E-02  2.9166019219880E-02  2.9165969855008E-02  2.9165920490135E-02  2.9165871125262E-02  2.9165821760390E-02  2.9165772395517E-02  2.9165723030645E-02 
 8.0911499769706E-01  8.0911499769706E-01  8.0911499769706E-01  8.0911499769706E-01  8.0911499769706E-01  8.0911499769706E-01  8.0911499769706E-01  8.0911499769706E-01  8.0911499769706E-01  8.0911499769706E-01 
 2.6811111111111E-05  5.3622222222222E-05  5.3622222222222E-05  5.3622222222222E-05  5.3622222222222E-05  5.3622222222222E-05  5.3622222222222E-05  5.3622222222223E-05  5.3622222222222E-05  2.6811111111111E-05 
 1.9088500230294E-01  1.9088500230294E-01  1.9088500230294E-01  1.9088500230294E-01  1.9088500230294E-01  1.9088500230294E-01  1.9088500230294E-01  1.9088500230294E-01  1.9088500230294E-01  1.9088500230294E-01 
 6.5775648769103E-09  6.5775648707441E-09  6.5775649235621E-09  6.5775649271079E-09  6.5775648710006E-09  6.5775648757996E-09  6.5775649574817E-09  6.5775649553275E-09  6.5775648768525E-09  6.5775648767458E-09 
 2.7658628755460E-02  2.7658628756812E-02  2.7658628756219E-02  2.7658628754275E-02  2.7658628756219E-02  2.7658628756219E-02  2.7658628756219E-02  2.7658628756219E-02  2.7658628757510E-02  2.7658628760746E-02 
 2.7658628755460E-02  2.7658628756812E-02  2.7658628756219E-02  2.7658628754275E-02  2.7658628756219E-02  2.7658628756219E-02  2.7658628756219E-02  2.7658628756219E-02  2.7658628757510E-02  2.7658628760746E-02 
 0.0000000000000E+00  0.0000000000000E+00  0.0000000000000E+00  0.0000000000000E+00  0.0000000000000E+00  0.0000000000000E+00  0.0000000000000E+00  0.0000000000000E+00  0.0000000000000E+00  0.0000000000000E+00 
ZONE T = "SEP , 3.5172E-07", I = 10, SOLUTIONTIME = 3.517188E-07
ZONETYPE = ORDERED
DATAPACKING = BLOCK
STRANDID = 2
 7.8740000000000E-04  8.4102222222222E-04  8.9464444444444E-04  9.4826666666667E-04  1.0018888888889E-03  1.0555111111111E-03  1.1091333333333E-03  1.1627555555556E-03  1.2163777777778E-03  1.2700000000000E-03 
 2.0862751432593E-08  2.0862751432593E-08  2.0862751432593E-08  2.0862751432593E-08  2.0862751432593E-08  2.0862751432593E-08  2.0862751432593E-08  2.0862751432593E-08  2.0862751432593E-08  1.9705018499684E-08 
 9.1999999998987E-01  9.1999999999999E-01  9.2000000000000E-01  9.2000000000000E-01  9.2000000000000E-01  9.2000000000000E-01  9.2000000000000E-01  9.2000000000000E-01  9.2000000000001E-01  9.2000000001116E-01 
 4.0000000005065E-02  4.0000000000003E-02  4.0000000000000E-02  4.0000000000000E-02  4.0000000000000E-02  4.0000000000000E-02  4.0000000000000E-02  4.0000000000000E-02  3.9999999999996E-02  3.9999999994419E-02 