TITLE = "Solution on Domain BulkDomain1D_0"
VARIABLES = "x [m]"  
"Vel_axial(0)" 	"MF_sp(ECDMC)" 	"MF_sp(Li+)" 	"MF_sp(PF6-)" 	"Volt(Electroly)" 	"Volt(AnodeVolt)" 	
"Potential Drop Electrode-Electrolyte [V]" 	"Surf_0 Equilibrium Potential Drop Electrode-Electrolyte [V]" 	"Overpotential_0 [V]" 	"Current Source [A/m^2]" 	"Li+ flux [kmol/m^2/s]" 	"Electrolyte Current [A/m^2]" 	"Electrode Current [A/m^2]" 	
"Capacity discharged [A-s]" 	"Depth of discharge [-]" 	"Capacity remaining [A-s]" 	"Initial capacity [A-s]" 	"Porosity []" 	"Surface Area [m2/m2] (area per area)" 	"Specific current (per particle area) [A/m^2]" 	"Control volume thickness [m]" 	
"Moles Li_C6-bulk [mol/m^2] (per electrode area)" 	"Moles V_C6-bulk [mol/m^2] (per electrode area)" 	"qHeat_accum [J/m3]" 	"qHeat_step [W/m3]" 	"Joule_Lyte [W/m3]" 	"Joule_Solid [W/m3]" 	"electrodHeat [W/m3]" 	"OverpotHeat [W/m3]" 	"deltaSHeat [W/m3]" 	

ZONE T = "t = 0 [s]" I = 10 SOLUTIONTIME = 0.0000000000000E+00
0 	0 	0.92 	0.04 	0.04 	-0.07 	0 	
0 	0 	0 	0 	0 	0 	15.4651 	
0 	0 	0 	0 	0.35 	8.53017 	3.62598 	4.37444e-05 	
9.29766e-07 	2.32442e-07 	0 	0.0 	 0.0 	 0.0 	 0.0 	 0.0 	 0.0 	 
8.74889e-05 	0 	0.92 	0.04 	0.04 	-0.07 	0 	
0 	0 	0 	0 	0 	0 	-0 	
0 	0 	0 	0 	0.35 	17.0603 	3.62598 	8.74889e-05 	
1.85953e-06 	4.64883e-07 	0 	0.0 	 0.0 	 0.0 	 0.0 	 0.0 	 0.0 	 
0.000174978 	0 	0.92 	0.04 	0.04 	-0.07 	0 	
0 	0 	0 	0 	0 	0 	-0 	
0 	0 	0 	0 	0.35 	17.0603 	3.62598 	8.74889e-05 	
1.85953e-06 	4.64883e-07 	0 	0.0 	 0.0 	 0.0 	 0.0 	 0.0 	 0.0 	 
0.000262467 	0 	0.92 	0.04 	0.04 	-0.07 	0 	
0 	0 	0 	0 	0 	0 	-0 	
0 	0 	0 	0 	0.35 	17.0603 	3.62598 	8.74889e-05 	
1.85953e-06 	4.64883e-07 	0 	0.0 	 0.0 	 0.0 	 0.0 	 0.0 	 0.0 	 
0.000349956 	0 	0.92 	0.04 	0.04 	-0.07 	0 	
0 	0 	0 	0 	0 	0 	-0 	
0 	0 	0 	0 	0.35 	17.0603 	3.62598 	8.74889e-05 	
1.85953e-06 	4.64883e-07 	0 	0.0 	 0.0 	 0.0 	 0.0 	 0.0 	 0.0 	 
0.000437444 	0 	0.92 	0.04 	0.04 	-0.07 	0 	
0 	0 	0 	0 	0 	0 	-0 	
0 	0 	0 	0 	0.35 	17.0603 	3.62598 	8.74889e-05 	
1.85953e-06 	4.64883e-07 	0 	0.0 	 0.0 	 0.0 	 0.0 	 0.0 	 0.0 	 
0.000524933 	0 	0.92 	0.04 	0.04 	-0.07 	0 	
0 	0 	0 	0 	0 	0 	-0 	
0 	0 	0 	0 	0.35 	17.0603 	3.62598 	8.74889e-05 	
1.85953e-06 	4.64883e-07 	0 	0.0 	 0.0 	 0.0 	 0.0 	 0.0 	 0.0 	 
0.000612422 	0 	0.92 	0.04 	0.04 	-0.07 	0 	
0 	0 	0 	0 	0 	0 	-0 	
0 	0 	0 	0 	0.35 	17.0603 	3.62598 	8.74889e-05 	
1.85953e-06 	4.64883e-07 	0 	0.0 	 0.0 	 0.0 	 0.0 	 0.0 	 0.0 	 
0.000699911 	0 	0.92 	0.04 	0.04 	-0.07 	0 	
0 	0 	0 	0 	0 	0 	-0 	
0 	0 	0 	0 	0.35 	17.0603 	3.62598 	8.74889e-05 	
1.85953e-06 	4.64883e-07 	0 	0.0 	 0.0 	 0.0 	 0.0 	 0.0 	 0.0 	 
0.0007874 	0 	0.92 	0.04 	0.04 	-0.07 	0 	
0 	0 	0 	0 	0 	15.4651 	0 	
0 	0 	0 	0 	0.35 	8.53017 	3.62598 	4.37444e-05 	
9.29766e-07 	2.32442e-07 	0 	0.0 	 0.0 	 0.0 	 0.0 	 0.0 	 0.0 	 
ZONE T = "t = 1e-08 [s]" I = 10 SOLUTIONTIME = 1.0000000000000E-08
0 	1.98164e-09 	0.92 	0.04 	0.04 	0.0211503 	0 	
0.07 	-0.0409067 	0.110907 	30.9302 	-0 	1.42686 	49.9419 	
0 	11.2136 	0.207974 	0.236079 	0.35 	8.53017 	0.334544 	4.37444e-05 	
9.29766e-07 	2.32442e-07 	4.49819e-11 	0.00449819 	0.000877101 	0.00362109 	0 	0 	0 	
8.74889e-05 	5.946e-09 	0.92 	0.04 	0.04 	0.0211502 	-6.53004e-09 	
0.07 	-0.0409067 	0.110907 	61.8605 	-0 	5.70743 	45.6613 	
0 	22.4272 	0.415949 	0.472158 	0.35 	17.0603 	0.334544 	8.74889e-05 	
1.85953e-06 	4.64883e-07 	7.60567e-11 	0.00760567 	0.00438551 	0.00322016 	0 	0 	0 	
0.000174978 	9.90929e-09 	0.92 	0.04 	0.04 	0.0211502 	-1.22919e-08 	
0.07 	-0.0409067 	0.110907 	61.8605 	-0 	11.4149 	39.9539 	
0 	22.4272 	0.415949 	0.472158 	0.35 	17.0603 	0.334545 	8.74889e-05 	
1.85953e-06 	4.64883e-07 	1.73792e-10 	0.0173792 	0.0149108 	0.0024684 	0 	0 	0 	
0.000262467 	1.38726e-08 	0.92 	0.04 	0.04 	0.02115 	-1.72855e-08 	
0.07 	-0.0409067 	0.110907 	61.8605 	-0 	17.1223 	34.2464 	
0 	22.4272 	0.415949 	0.472158 	0.35 	17.0603 	0.334548 	8.74889e-05 	
1.85953e-06 	4.64883e-07 	3.42699e-10 	0.0342699 	0.032453 	0.00181686 	0 	0 	0 	
0.000349956 	1.7836e-08 	0.92 	0.04 	0.04 	0.0211498 	-2.15109e-08 	
0.07 	-0.0409067 	0.110907 	61.8605 	-0 	22.8299 	28.5389 	
0 	22.4272 	0.415949 	0.472158 	0.35 	17.0603 	0.334551 	8.74889e-05 	
1.85953e-06 	4.64883e-07 	5.8278e-10 	0.058278 	0.0570124 	0.00126556 	0 	0 	0 	
0.000437444 	2.17994e-08 	0.92 	0.04 	0.04 	0.0211496 	-2.49681e-08 	
0.07 	-0.0409067 	0.110907 	61.8605 	-0 	28.5375 	22.8313 	
0 	22.4272 	0.415949 	0.472158 	0.35 	17.0603 	0.334555 	8.74889e-05 	
1.85953e-06 	4.64883e-07 	8.94037e-10 	0.0894037 	0.0885892 	0.000814482 	0 	0 	0 	
0.000524933 	2.57639e-08 	0.92 	0.04 	0.04 	0.0211493 	-2.7657e-08 	
0.07 	-0.0409067 	0.110907 	61.8605 	-0 	34.2451 	17.1236 	
0 	22.4272 	0.415949 	0.472158 	0.35 	17.0603 	0.334561 	8.74889e-05 	
1.85953e-06 	4.64883e-07 	1.27648e-09 	0.127648 	0.127184 	0.000463636 	0 	0 	0 	
0.000612422 	2.97275e-08 	0.92 	0.04 	0.04 	0.0211489 	-2.95777e-08 	
0.07 	-0.0409067 	0.110907 	61.8605 	-0 	39.9529 	11.4159 	
0 	22.4272 	0.415949 	0.472158 	0.35 	17.0603 	0.334567 	8.74889e-05 	
1.85953e-06 	4.64883e-07 	1.7301e-09 	0.17301 	0.172797 	0.000213026 	0 	0 	0 	
0.000699911 	3.36911e-08 	0.92 	0.04 	0.04 	0.0211485 	-3.07301e-08 	
0.07 	-0.0409067 	0.110907 	61.8605 	-0 	45.6608 	5.70801 	
0 	22.4272 	0.415949 	0.472158 	0.35 	17.0603 	0.334574 	8.74889e-05 	
1.85953e-06 	4.64883e-07 	2.25491e-09 	0.225491 	0.225428 	6.26561e-05 	0 	0 	0 	
0.0007874 	3.56737e-08 	0.92 	0.04 	0.04 	0.0211481 	-3.11143e-08 	
0.07 	-0.0409067 	0.110907 	30.9302 	-0 	49.9417 	1.42702 	
0 	11.2136 	0.207974 	0.236079 	0.35 	8.53017 	0.334582 	4.37444e-05 	
9.29766e-07 	2.32442e-07 	2.53512e-09 	0.253512 	0.253499 	1.25316e-05 	0 	0 	0 	
ZONE T = "t = 2e-08 [s]" I = 10 SOLUTIONTIME = 2.0000000000000E-08
0 	1.15923e-09 	0.92 	0.04 	0.04 	0.0291633 	0 	
-0.0211503 	-0.0409067 	0.0197564 	2.85371 	1.47883e-08 	0.834821 	29.2198 	
7.15226e-11 	11.2136 	0.207974 	0.236079 	0.35 	8.53017 	0.195734 	4.37444e-05 	
9.29766e-07 	2.32442e-07 	6.03799e-11 	0.0015398 	0.00117735 	0.00486064 	0 	0 	0 	
8.74889e-05 	3.47805e-09 	0.92 	0.04 	0.04 	0.0291632 	-3.82057e-09 	
-0.0211502 	-0.0409067 	0.0197565 	5.70743 	4.4365e-08 	3.33929 	26.7154 	
1.43045e-10 	22.4272 	0.415949 	0.472158 	0.35 	17.0603 	0.195734 	8.74889e-05 	
1.85953e-06 	4.64883e-07 	1.02092e-10 	0.00260353 	0.00588674 	0.00432246 	0 	0 	0 	
0.000174978 	5.79652e-09 	0.92 	0.04 	0.04 	0.0291632 	-7.19169e-09 	
-0.0211502 	-0.0409067 	0.0197565 	5.70746 	7.39418e-08 	6.67858 	23.3761 	
1.43046e-10 	22.4272 	0.415949 	0.472158 	0.35 	17.0603 	0.195735 	8.74889e-05 	
1.85953e-06 	4.64883e-07 	2.33283e-10 	0.00594916 	0.020015 	0.00331336 	0 	0 	0 	
0.000262467 	8.115e-09 	0.92 	0.04 	0.04 	0.0291631 	-1.01133e-08 	
-0.02115 	-0.0409067 	0.0197567 	5.7075 	1.03519e-07 	10.0179 	20.0368 	
1.43047e-10 	22.4272 	0.415949 	0.472158 	0.35 	17.0603 	0.195736 	8.74889e-05 	
1.85953e-06 	4.64883e-07 	4.6001e-10 	0.0117311 	0.0435622 	0.0024388 	0 	0 	0 	
0.000349956 	1.04339e-08 	0.92 	0.04 	0.04 	0.029163 	-1.25855e-08 	
-0.0211499 	-0.0409067 	0.0197569 	5.70755 	1.33096e-07 	13.3572 	16.6974 	
1.43048e-10 	22.4272 	0.415949 	0.472158 	0.35 	17.0603 	0.195738 	8.74889e-05 	
1.85953e-06 	4.64883e-07 	7.82274e-10 	0.0199494 	0.0765286 	0.00169878 	0 	0 	0 	
0.000437444 	1.2752e-08 	0.92 	0.04 	0.04 	0.0291629 	-1.46082e-08 	
-0.0211496 	-0.0409067 	0.0197571 	5.70762 	1.62674e-07 	16.6966 	13.358 	
1.4305e-10 	22.4272 	0.415949 	0.472158 	0.35 	17.0603 	0.19574 	8.74889e-05 	
1.85953e-06 	4.64883e-07 	1.20008e-09 	0.0306043 	0.118915 	0.00109329 	0 	0 	0 	
0.000524933 	1.5071e-08 	0.92 	0.04 	0.04 	0.0291627 	-1.61815e-08 	
-0.0211493 	-0.0409067 	0.0197574 	5.70771 	1.92252e-07 	20.036 	10.0186 	
1.43052e-10 	22.4272 	0.415949 	0.472158 	0.35 	17.0603 	0.195743 	8.74889e-05 	
1.85953e-06 	4.64883e-07 	1.71343e-09 	0.0436957 	0.170721 	0.000622345 	0 	0 	0 	
0.000612422 	1.73899e-08 	0.92 	0.04 	0.04 	0.0291625 	-1.73052e-08 	
-0.021149 	-0.0409067 	0.0197577 	5.70782 	2.21831e-07 	23.3755 	6.67915 	
1.43055e-10 	22.4272 	0.415949 	0.472158 	0.35 	17.0603 	0.195747 	8.74889e-05 	
1.85953e-06 	4.64883e-07 	2.32234e-09 	0.0592238 	0.231948 	0.000285948 	0 	0 	0 	
0.000699911 	1.9709e-08 	0.92 	0.04 	0.04 	0.0291622 	-1.79795e-08 	
-0.0211486 	-0.0409067 	0.0197581 	5.70794 	2.5141e-07 	26.715 	3.33961 	
1.43058e-10 	22.4272 	0.415949 	0.472158 	0.35 	17.0603 	0.195751 	8.74889e-05 	
1.85953e-06 	4.64883e-07 	3.0268e-09 	0.0771889 	0.302596 	8.41041e-05 	0 	0 	0 	
0.0007874 	2.08685e-08 	0.92 	0.04 	0.04 	0.029162 	-1.82042e-08 	
-0.0211481 	-0.0409067 	0.0197586 	2.85404 	2.5141e-07 	29.2197 	0.834912 	
7.15308e-11 	11.2136 	0.207974 	0.236079 	0.35 	8.53017 	0.195755 	4.37444e-05 	
9.29766e-07 	2.32442e-07 	3.40292e-09 	0.0867807 	0.340275 	1.68213e-05 	0 	0 	0 	
ZONE T = "t = 3e-08 [s]" I = 10 SOLUTIONTIME = 3.0000000000000E-08
0 	1.15995e-09 	0.92 	0.04 	0.04 	0.0291633 	0 	
-0.0291633 	-0.0409067 	0.0117435 	1.66964 	8.65231e-09 	0.834821 	29.2198 	
1.13369e-10 	11.2136 	0.207974 	0.236079 	0.35 	8.53017 	0.195734 	4.37444e-05 	
9.29766e-07 	2.32442e-07 	7.57779e-11 	0.0015398 	0.00147759 	0.0061002 	0 	0 	0 	
8.74889e-05 	3.47987e-09 	0.92 	0.04 	0.04 	0.0291632 	-3.82057e-09 	
-0.0291632 	-0.0409067 	0.0117435 	3.33929 	2.5957e-08 	3.33929 	26.7154 	
2.26738e-10 	22.4272 	0.415949 	0.472158 	0.35 	17.0603 	0.195734 	8.74889e-05 	
1.85953e-06 	4.64883e-07 	1.28127e-10 	0.00260353 	0.00738797 	0.00542477 	0 	0 	0 	
0.000174978 	5.79979e-09 	0.92 	0.04 	0.04 	0.0291632 	-7.19168e-09 	
-0.0291632 	-0.0409067 	0.0117435 	3.3393 	4.32617e-08 	6.67858 	23.3761 	
2.26739e-10 	22.4272 	0.415949 	0.472158 	0.35 	17.0603 	0.195735 	8.74889e-05 	
1.85953e-06 	4.64883e-07 	2.92775e-10 	0.00594916 	0.0251192 	0.00415833 	0 	0 	0 	
0.000262467 	8.11972e-09 	0.92 	0.04 	0.04 	0.0291631 	-1.01133e-08 	
-0.0291631 	-0.0409067 	0.0117436 	3.33933 	6.05665e-08 	10.0179 	20.0368 	
2.26741e-10 	22.4272 	0.415949 	0.472158 	0.35 	17.0603 	0.195736 	8.74889e-05 	
1.85953e-06 	4.64883e-07 	5.77321e-10 	0.0117311 	0.0546713 	0.00306074 	0 	0 	0 	
0.000349956 	1.04386e-08 	0.92 	0.04 	0.04 	0.029163 	-1.25855e-08 	
-0.029163 	-0.0409067 	0.0117437 	3.33936 	7.78715e-08 	13.3572 	16.6974 	
2.26743e-10 	22.4272 	0.415949 	0.472158 	0.35 	17.0603 	0.195738 	8.74889e-05 	
1.85953e-06 	4.64883e-07 	9.81768e-10 	0.0199494 	0.0960448 	0.00213199 	0 	0 	0 	
0.000437444 	1.27575e-08 	0.92 	0.04 	0.04 	0.0291629 	-1.46082e-08 	
-0.0291629 	-0.0409067 	0.0117438 	3.3394 	9.51767e-08 	16.6966 	13.358 	
2.26746e-10 	22.4272 	0.415949 	0.472158 	0.35 	17.0603 	0.19574 	8.74889e-05 	
1.85953e-06 	4.64883e-07 	1.50612e-09 	0.0306043 	0.14924 	0.0013721 	0 	0 	0 	
0.000524933 	1.50761e-08 	0.92 	0.04 	0.04 	0.0291627 	-1.61814e-08 	
-0.0291627 	-0.0409067 	0.011744 	3.33945 	1.12482e-07 	20.036 	10.0186 	
2.26749e-10 	22.4272 	0.415949 	0.472158 	0.35 	17.0603 	0.195743 	8.74889e-05 	
1.85953e-06 	4.64883e-07 	2.15039e-09 	0.0436957 	0.214258 	0.000781054 	0 	0 	0 	
0.000612422 	1.7395e-08 	0.92 	0.04 	0.04 	0.0291625 	-1.73052e-08 	
-0.0291625 	-0.0409067 	0.0117442 	3.33951 	1.29788e-07 	23.3755 	6.67915 	
2.26753e-10 	22.4272 	0.415949 	0.472158 	0.35 	17.0603 	0.195747 	8.74889e-05 	
1.85953e-06 	4.64883e-07 	2.91457e-09 	0.0592238 	0.291099 	0.00035887 	0 	0 	0 	
0.000699911 	1.9714e-08 	0.92 	0.04 	0.04 	0.0291622 	-1.79795e-08 	
-0.0291623 	-0.0409067 	0.0117444 	3.33957 	1.47094e-07 	26.715 	3.33961 	
2.26758e-10 	22.4272 	0.415949 	0.472158 	0.35 	17.0603 	0.195751 	8.74889e-05 	
1.85953e-06 	4.64883e-07 	3.79869e-09 	0.0771889 	0.379763 	0.000105552 	0 	0 	0 	
0.0007874 	2.08747e-08 	0.92 	0.04 	0.04 	0.029162 	-1.82042e-08 	
-0.029162 	-0.0409067 	0.0117447 	1.66983 	1.47094e-07 	29.2197 	0.834912 	
1.13382e-10 	11.2136 	0.207974 	0.236079 	0.35 	8.53017 	0.195755 	4.37444e-05 	
9.29766e-07 	2.32442e-07 	4.27073e-09 	0.0867807 	0.427052 	2.1111e-05 	0 	0 	0 	
ZONE T = "t = 4e-08 [s]" I = 10 SOLUTIONTIME = 4.0000000000000E-08
0 	1.15941e-09 	0.92 	0.04 	0.04 	0.0291633 	0 	
-0.0291633 	-0.0409067 	0.0117435 	1.66964 	8.65231e-09 	0.834822 	29.2199 	
1.55215e-10 	11.2136 	0.207974 	0.236079 	0.35 	8.53017 	0.195734 	4.37444e-05 	
9.29766e-07 	2.32442e-07 	9.11759e-11 	0.0015398 	0.00177784 	0.00733975 	0 	0 	0 	
8.74889e-05 	3.47824e-09 	0.92 	0.04 	0.04 	0.0291632 	-3.82058e-09 	
-0.0291632 	-0.0409067 	0.0117435 	3.33929 	2.5957e-08 	3.33929 	26.7154 	
3.10431e-10 	22.4272 	0.415949 	0.472158 	0.35 	17.0603 	0.195734 	8.74889e-05 	
1.85953e-06 	4.64883e-07 	1.54163e-10 	0.00260354 	0.0088892 	0.00652707 	0 	0 	0 	
0.000174978 	5.79707e-09 	0.92 	0.04 	0.04 	0.0291632 	-7.19169e-09 	
-0.0291632 	-0.0409067 	0.0117435 	3.3393 	4.32617e-08 	6.67859 	23.3761 	
3.10432e-10 	22.4272 	0.415949 	0.472158 	0.35 	17.0603 	0.195735 	8.74889e-05 	
1.85953e-06 	4.64883e-07 	3.52266e-10 	0.00594917 	0.0302234 	0.0050033 	0 	0 	0 	
0.000262467 	8.11592e-09 	0.92 	0.04 	0.04 	0.0291631 	-1.01133e-08 	
-0.0291631 	-0.0409067 	0.0117436 	3.33933 	6.05665e-08 	10.0179 	20.0368 	
3.10434e-10 	22.4272 	0.415949 	0.472158 	0.35 	17.0603 	0.195736 	8.74889e-05 	
1.85953e-06 	4.64883e-07 	6.94632e-10 	0.0117311 	0.0657805 	0.00368268 	0 	0 	0 	
0.000349956 	1.04348e-08 	0.92 	0.04 	0.04 	0.029163 	-1.25855e-08 	
-0.029163 	-0.0409067 	0.0117437 	3.33936 	7.78715e-08 	13.3572 	16.6974 	
3.10437e-10 	22.4272 	0.415949 	0.472158 	0.35 	17.0603 	0.195738 	8.74889e-05 	
1.85953e-06 	4.64883e-07 	1.18126e-09 	0.0199495 	0.115561 	0.00256521 	0 	0 	0 	
0.000437444 	1.27537e-08 	0.92 	0.04 	0.04 	0.0291629 	-1.46082e-08 	
-0.0291629 	-0.0409067 	0.0117438 	3.3394 	9.51767e-08 	16.6966 	13.3581 	
3.10441e-10 	22.4272 	0.415949 	0.472158 	0.35 	17.0603 	0.19574 	8.74889e-05 	
1.85953e-06 	4.64883e-07 	1.81217e-09 	0.0306043 	0.179566 	0.00165091 	0 	0 	0 	
0.000524933 	1.50726e-08 	0.92 	0.04 	0.04 	0.0291627 	-1.61815e-08 	
-0.0291627 	-0.0409067 	0.011744 	3.33945 	1.12482e-07 	20.036 	10.0186 	
3.10446e-10 	22.4272 	0.415949 	0.472158 	0.35 	17.0603 	0.195743 	8.74889e-05 	
1.85953e-06 	4.64883e-07 	2.58735e-09 	0.0436957 	0.257795 	0.000939763 	0 	0 	0 	
0.000612422 	1.73923e-08 	0.92 	0.04 	0.04 	0.0291625 	-1.73052e-08 	
-0.0291625 	-0.0409067 	0.0117442 	3.33951 	1.29788e-07 	23.3755 	6.67915 	
3.10451e-10 	22.4272 	0.415949 	0.472158 	0.35 	17.0603 	0.195747 	8.74889e-05 	
1.85953e-06 	4.64883e-07 	3.50681e-09 	0.0592239 	0.35025 	0.000431792 	0 	0 	0 	
0.000699911 	1.97113e-08 	0.92 	0.04 	0.04 	0.0291622 	-1.79795e-08 	
-0.0291623 	-0.0409067 	0.0117444 	3.33957 	1.47094e-07 	26.7151 	3.33961 	
3.10458e-10 	22.4272 	0.415949 	0.472158 	0.35 	17.0603 	0.195751 	8.74889e-05 	
1.85953e-06 	4.64883e-07 	4.57058e-09 	0.077189 	0.456931 	0.000127 	0 	0 	0 	
0.0007874 	2.08718e-08 	0.92 	0.04 	0.04 	0.029162 	-1.82042e-08 	
-0.029162 	-0.0409067 	0.0117447 	1.66983 	1.47094e-07 	29.2198 	0.834913 	
1.55232e-10 	11.2136 	0.207974 	0.236079 	0.35 	8.53017 	0.195755 	4.37444e-05 	
9.29766e-07 	2.32442e-07 	5.13854e-09 	0.0867808 	0.513828 	2.54007e-05 	0 	0 	0 	
ZONE T = "t = 5.5e-08 [s]" I = 10 SOLUTIONTIME = 5.5000000000000E-08
0 	1.15941e-09 	0.92 	0.04 	0.04 	0.0291633 	0 	
-0.0291633 	-0.0409067 	0.0117435 	1.66964 	8.65232e-09 	0.834822 	29.2199 	
1.97062e-10 	11.2136 	0.207974 	0.236079 	0.35 	8.53017 	0.195734 	4.37444e-05 	
9.29766e-07 	2.32442e-07 	1.14273e-10 	0.0015398 	0.00148547 	0.00613272 	0 	0 	0 	
8.74889e-05 	3.47824e-09 	0.92 	0.04 	0.04 	0.0291632 	-3.82058e-09 	
-0.0291632 	-0.0409067 	0.0117435 	3.33929 	2.5957e-08 	3.33929 	26.7154 	
3.94123e-10 	22.4272 	0.415949 	0.472158 	0.35 	17.0603 	0.195734 	8.74889e-05 	
1.85953e-06 	4.64883e-07 	1.93216e-10 	0.00260354 	0.00742736 	0.00545369 	0 	0 	0 	
0.000174978 	5.79731e-09 	0.92 	0.04 	0.04 	0.0291632 	-7.19169e-09 	
-0.0291632 	-0.0409067 	0.0117435 	3.3393 	4.32617e-08 	6.67859 	23.3761 	
3.94125e-10 	22.4272 	0.415949 	0.472158 	0.35 	17.0603 	0.195735 	8.74889e-05 	
1.85953e-06 	4.64883e-07 	4.41504e-10 	0.00594917 	0.0252531 	0.0041805 	0 	0 	0 	
0.000262467 	8.1164e-09 	0.92 	0.04 	0.04 	0.0291631 	-1.01133e-08 	
-0.0291631 	-0.0409067 	0.0117436 	3.33933 	6.05665e-08 	10.0179 	20.0368 	
3.94128e-10 	22.4272 	0.415949 	0.472158 	0.35 	17.0603 	0.195736 	8.74889e-05 	
1.85953e-06 	4.64883e-07 	8.70599e-10 	0.0117311 	0.0549629 	0.00307706 	0 	0 	0 	
0.000349956 	1.04353e-08 	0.92 	0.04 	0.04 	0.029163 	-1.25855e-08 	
-0.029163 	-0.0409067 	0.0117437 	3.33936 	7.78715e-08 	13.3572 	16.6974 	
3.94131e-10 	22.4272 	0.415949 	0.472158 	0.35 	17.0603 	0.195738 	8.74889e-05 	
1.85953e-06 	4.64883e-07 	1.48051e-09 	0.0199495 	0.096557 	0.00214336 	0 	0 	0 	
0.000437444 	1.27537e-08 	0.92 	0.04 	0.04 	0.0291629 	-1.46082e-08 	
-0.0291629 	-0.0409067 	0.0117438 	3.3394 	9.51767e-08 	16.6966 	13.3581 	
3.94136e-10 	22.4272 	0.415949 	0.472158 	0.35 	17.0603 	0.19574 	8.74889e-05 	
1.85953e-06 	4.64883e-07 	2.27123e-09 	0.0306043 	0.150036 	0.00137941 	0 	0 	0 	
0.000524933 	1.50726e-08 	0.92 	0.04 	0.04 	0.0291627 	-1.61815e-08 	
-0.0291627 	-0.0409067 	0.011744 	3.33945 	1.12482e-07 	20.036 	10.0186 	
3.94142e-10 	22.4272 	0.415949 	0.472158 	0.35 	17.0603 	0.195743 	8.74889e-05 	
1.85953e-06 	4.64883e-07 	3.24278e-09 	0.0436957 	0.2154 	0.000785218 	0 	0 	0 	
0.000612422 	1.73911e-08 	0.92 	0.04 	0.04 	0.0291625 	-1.73052e-08 	
-0.0291625 	-0.0409067 	0.0117442 	3.33951 	1.29788e-07 	23.3755 	6.67915 	
3.94149e-10 	22.4272 	0.415949 	0.472158 	0.35 	17.0603 	0.195747 	8.74889e-05 	
1.85953e-06 	4.64883e-07 	4.39517e-09 	0.0592239 	0.292651 	0.000360783 	0 	0 	0 	
0.000699911 	1.97096e-08 	0.92 	0.04 	0.04 	0.0291622 	-1.79795e-08 	
-0.0291623 	-0.0409067 	0.0117444 	3.33957 	1.47094e-07 	26.7151 	3.33961 	
3.94157e-10 	22.4272 	0.415949 	0.472158 	0.35 	17.0603 	0.195751 	8.74889e-05 	
1.85953e-06 	4.64883e-07 	5.72841e-09 	0.077189 	0.381788 	0.000106115 	0 	0 	0 	
0.0007874 	2.08686e-08 	0.92 	0.04 	0.04 	0.029162 	-1.82042e-08 	
-0.029162 	-0.0409067 	0.0117447 	1.66983 	1.47094e-07 	29.2198 	0.834913 	
1.97083e-10 	11.2136 	0.207974 	0.236079 	0.35 	8.53017 	0.195755 	4.37444e-05 	
9.29766e-07 	2.32442e-07 	6.44025e-09 	0.0867808 	0.429329 	2.12235e-05 	0 	0 	0 	
ZONE T = "t = 7.75e-08 [s]" I = 10 SOLUTIONTIME = 7.7500000000000E-08
0 	1.15965e-09 	0.92 	0.04 	0.04 	0.0291633 	0 	
-0.0291633 	-0.0409067 	0.0117435 	1.66964 	8.65232e-09 	0.834822 	29.2199 	
2.59831e-10 	11.2136 	0.207974 	0.236079 	0.35 	8.53017 	0.195734 	4.37444e-05 	
9.29766e-07 	2.32442e-07 	1.48918e-10 	0.0015398 	0.00129056 	0.00532803 	0 	0 	0 	
8.74889e-05 	3.47896e-09 	0.92 	0.04 	0.04 	0.0291632 	-3.82058e-09 	
-0.0291632 	-0.0409067 	0.0117435 	3.33929 	2.5957e-08 	3.33929 	26.7154 	
5.19662e-10 	22.4272 	0.415949 	0.472158 	0.35 	17.0603 	0.195734 	8.74889e-05 	
1.85953e-06 	4.64883e-07 	2.51795e-10 	0.00260354 	0.00645281 	0.0047381 	0 	0 	0 	
0.000174978 	5.79828e-09 	0.92 	0.04 	0.04 	0.0291632 	-7.19169e-09 	
-0.0291632 	-0.0409067 	0.0117435 	3.3393 	4.32617e-08 	6.67859 	23.3761 	
5.19664e-10 	22.4272 	0.415949 	0.472158 	0.35 	17.0603 	0.195735 	8.74889e-05 	
1.85953e-06 	4.64883e-07 	5.7536e-10 	0.00594917 	0.0219396 	0.00363197 	0 	0 	0 	
0.000262467 	8.11761e-09 	0.92 	0.04 	0.04 	0.0291631 	-1.01133e-08 	
-0.0291631 	-0.0409067 	0.0117436 	3.33933 	6.05665e-08 	10.0179 	20.0368 	
5.19668e-10 	22.4272 	0.415949 	0.472158 	0.35 	17.0603 	0.195736 	8.74889e-05 	
1.85953e-06 	4.64883e-07 	1.13455e-09 	0.0117311 	0.0477511 	0.00267331 	0 	0 	0 	
0.000349956 	1.0437e-08 	0.92 	0.04 	0.04 	0.029163 	-1.25855e-08 	
-0.029163 	-0.0409067 	0.0117437 	3.33936 	7.78715e-08 	13.3572 	16.6974 	
5.19673e-10 	22.4272 	0.415949 	0.472158 	0.35 	17.0603 	0.195738 	8.74889e-05 	
1.85953e-06 	4.64883e-07 	1.92937e-09 	0.0199495 	0.0838876 	0.00186212 	0 	0 	0 	
0.000437444 	1.27562e-08 	0.92 	0.04 	0.04 	0.0291629 	-1.46082e-08 	
-0.0291629 	-0.0409067 	0.0117438 	3.3394 	9.51767e-08 	16.6966 	13.3581 	
5.19679e-10 	22.4272 	0.415949 	0.472158 	0.35 	17.0603 	0.19574 	8.74889e-05 	
1.85953e-06 	4.64883e-07 	2.95983e-09 	0.0306043 	0.130349 	0.00119842 	0 	0 	0 	
0.000524933 	1.50756e-08 	0.92 	0.04 	0.04 	0.0291627 	-1.61815e-08 	
-0.0291627 	-0.0409067 	0.011744 	3.33945 	1.12482e-07 	20.036 	10.0186 	
5.19687e-10 	22.4272 	0.415949 	0.472158 	0.35 	17.0603 	0.195743 	8.74889e-05 	
1.85953e-06 	4.64883e-07 	4.22594e-09 	0.0436957 	0.187137 	0.000682188 	0 	0 	0 	
0.000612422 	1.73946e-08 	0.92 	0.04 	0.04 	0.0291625 	-1.73052e-08 	
-0.0291625 	-0.0409067 	0.0117442 	3.33951 	1.29788e-07 	23.3755 	6.67915 	
5.19696e-10 	22.4272 	0.415949 	0.472158 	0.35 	17.0603 	0.195747 	8.74889e-05 	
1.85953e-06 	4.64883e-07 	5.72771e-09 	0.0592239 	0.254251 	0.000313444 	0 	0 	0 	
0.000699911 	1.97136e-08 	0.92 	0.04 	0.04 	0.0291622 	-1.79795e-08 	
-0.0291623 	-0.0409067 	0.0117444 	3.33957 	1.47095e-07 	26.7151 	3.33961 	
5.19707e-10 	22.4272 	0.415949 	0.472158 	0.35 	17.0603 	0.195751 	8.74889e-05 	
1.85953e-06 	4.64883e-07 	7.46517e-09 	0.077189 	0.331693 	9.21911e-05 	0 	0 	0 	
0.0007874 	2.08735e-08 	0.92 	0.04 	0.04 	0.029162 	-1.82042e-08 	
-0.029162 	-0.0409067 	0.0117447 	1.66983 	1.47095e-07 	29.2198 	0.834913 	
2.5986e-10 	11.2136 	0.207974 	0.236079 	0.35 	8.53017 	0.195755 	4.37444e-05 	
9.29766e-07 	2.32442e-07 	8.39282e-09 	0.0867808 	0.372996 	1.84387e-05 	0 	0 	0 	
ZONE T = "t = 1.1125e-07 [s]" I = 10 SOLUTIONTIME = 1.1125000000000E-07
0 	1.1592e-09 	0.92 	0.04 	0.04 	0.0291633 	0 	
-0.0291633 	-0.0409067 	0.0117435 	1.66964 	8.65232e-09 	0.834822 	29.2199 	
3.53985e-10 	11.2136 	0.207974 	0.236079 	0.35 	8.53017 	0.195734 	4.37444e-05 	
9.29766e-07 	2.32442e-07 	2.00887e-10 	0.0015398 	0.00116062 	0.00479158 	0 	0 	0 	
8.74889e-05 	3.4777e-09 	0.92 	0.04 	0.04 	0.0291632 	-3.82058e-09 	
-0.0291632 	-0.0409067 	0.0117435 	3.33929 	2.5957e-08 	3.33929 	26.7154 	
7.07971e-10 	22.4272 	0.415949 	0.472158 	0.35 	17.0603 	0.195734 	8.74889e-05 	
1.85953e-06 	4.64883e-07 	3.39665e-10 	0.00260354 	0.0058031 	0.00426104 	0 	0 	0 	
0.000174978 	5.7961e-09 	0.92 	0.04 	0.04 	0.0291632 	-7.19169e-09 	
-0.0291632 	-0.0409067 	0.0117435 	3.3393 	4.32617e-08 	6.67859 	23.3761 	
7.07974e-10 	22.4272 	0.415949 	0.472158 	0.35 	17.0603 	0.195735 	8.74889e-05 	
1.85953e-06 	4.64883e-07 	7.76144e-10 	0.00594916 	0.0197306 	0.00326628 	0 	0 	0 	
0.000262467 	8.11452e-09 	0.92 	0.04 	0.04 	0.0291631 	-1.01133e-08 	
-0.0291631 	-0.0409067 	0.0117436 	3.33933 	6.05665e-08 	10.0179 	20.0368 	
7.07978e-10 	22.4272 	0.415949 	0.472158 	0.35 	17.0603 	0.195736 	8.74889e-05 	
1.85953e-06 	4.64883e-07 	1.53047e-09 	0.0117311 	0.0429432 	0.00240414 	0 	0 	0 	
0.000349956 	1.04331e-08 	0.92 	0.04 	0.04 	0.029163 	-1.25855e-08 	
-0.029163 	-0.0409067 	0.0117437 	3.33936 	7.78715e-08 	13.3572 	16.6974 	
7.07985e-10 	22.4272 	0.415949 	0.472158 	0.35 	17.0603 	0.195738 	8.74889e-05 	
1.85953e-06 	4.64883e-07 	2.60266e-09 	0.0199495 	0.0754413 	0.00167464 	0 	0 	0 	
0.000437444 	1.2752e-08 	0.92 	0.04 	0.04 	0.0291629 	-1.46082e-08 	
-0.0291629 	-0.0409067 	0.0117438 	3.3394 	9.51767e-08 	16.6966 	13.3581 	
7.07994e-10 	22.4272 	0.415949 	0.472158 	0.35 	17.0603 	0.19574 	8.74889e-05 	
1.85953e-06 	4.64883e-07 	3.99272e-09 	0.0306043 	0.117225 	0.00107775 	0 	0 	0 	
0.000524933 	1.50706e-08 	0.92 	0.04 	0.04 	0.0291627 	-1.61815e-08 	
-0.0291627 	-0.0409067 	0.011744 	3.33945 	1.12482e-07 	20.036 	10.0186 	
7.08004e-10 	22.4272 	0.415949 	0.472158 	0.35 	17.0603 	0.195743 	8.74889e-05 	
1.85953e-06 	4.64883e-07 	5.70067e-09 	0.0436957 	0.168295 	0.000613501 	0 	0 	0 	
0.000612422 	1.73895e-08 	0.92 	0.04 	0.04 	0.0291625 	-1.73052e-08 	
-0.0291625 	-0.0409067 	0.0117442 	3.33951 	1.29788e-07 	23.3755 	6.67915 	
7.08017e-10 	22.4272 	0.415949 	0.472158 	0.35 	17.0603 	0.195747 	8.74889e-05 	
1.85953e-06 	4.64883e-07 	7.72652e-09 	0.0592239 	0.228652 	0.000281884 	0 	0 	0 	
0.000699911 	1.97086e-08 	0.92 	0.04 	0.04 	0.0291622 	-1.79795e-08 	
-0.0291623 	-0.0409067 	0.0117444 	3.33957 	1.47095e-07 	26.7151 	3.33961 	
7.08031e-10 	22.4272 	0.415949 	0.472158 	0.35 	17.0603 	0.195751 	8.74889e-05 	
1.85953e-06 	4.64883e-07 	1.00703e-08 	0.077189 	0.298296 	8.29088e-05 	0 	0 	0 	
0.0007874 	2.0868e-08 	0.92 	0.04 	0.04 	0.029162 	-1.82042e-08 	
-0.029162 	-0.0409067 	0.0117447 	1.66983 	1.47095e-07 	29.2198 	0.834913 	
3.54024e-10 	11.2136 	0.207974 	0.236079 	0.35 	8.53017 	0.195755 	4.37444e-05 	
9.29766e-07 	2.32442e-07 	1.13217e-08 	0.0867808 	0.33544 	1.65822e-05 	0 	0 	0 	
ZONE T = "t = 1.61875e-07 [s]" I = 10 SOLUTIONTIME = 1.6187500000000E-07
0 	1.15955e-09 	0.92 	0.04 	0.04 	0.0291633 	0 	
-0.0291633 	-0.0409067 	0.0117435 	1.66964 	8.65232e-09 	0.834822 	29.2199 	
4.95216e-10 	11.2136 	0.207974 	0.236079 	0.35 	8.53017 	0.195734 	4.37444e-05 	
9.29766e-07 	2.32442e-07 	2.78839e-10 	0.0015398 	0.00107399 	0.00443394 	0 	0 	0 	
8.74889e-05 	3.47859e-09 	0.92 	0.04 	0.04 	0.0291632 	-3.82058e-09 	
-0.0291632 	-0.0409067 	0.0117435 	3.33929 	2.5957e-08 	3.33929 	26.7154 	
9.90434e-10 	22.4272 	0.415949 	0.472158 	0.35 	17.0603 	0.195734 	8.74889e-05 	
1.85953e-06 	4.64883e-07 	4.71469e-10 	0.00260354 	0.00536996 	0.003943 	0 	0 	0 	
0.000174978 	5.79743e-09 	0.92 	0.04 	0.04 	0.0291632 	-7.19169e-09 	
-0.0291632 	-0.0409067 	0.0117435 	3.3393 	4.32617e-08 	6.67859 	23.3761 	
9.90437e-10 	22.4272 	0.415949 	0.472158 	0.35 	17.0603 	0.195735 	8.74889e-05 	
1.85953e-06 	4.64883e-07 	1.07732e-09 	0.00594916 	0.0182579 	0.00302249 	0 	0 	0 	
0.000262467 	8.11627e-09 	0.92 	0.04 	0.04 	0.0291631 	-1.01133e-08 	
-0.0291631 	-0.0409067 	0.0117436 	3.33933 	6.05665e-08 	10.0179 	20.0368 	
9.90444e-10 	22.4272 	0.415949 	0.472158 	0.35 	17.0603 	0.195736 	8.74889e-05 	
1.85953e-06 	4.64883e-07 	2.12436e-09 	0.0117311 	0.039738 	0.0022247 	0 	0 	0 	
0.000349956 	1.04353e-08 	0.92 	0.04 	0.04 	0.029163 	-1.25855e-08 	
-0.029163 	-0.0409067 	0.0117437 	3.33936 	7.78715e-08 	13.3572 	16.6974 	
9.90453e-10 	22.4272 	0.415949 	0.472158 	0.35 	17.0603 	0.195738 	8.74889e-05 	
1.85953e-06 	4.64883e-07 	3.6126e-09 	0.0199495 	0.0698105 	0.00154964 	0 	0 	0 	
0.000437444 	1.27542e-08 	0.92 	0.04 	0.04 	0.0291629 	-1.46082e-08 	
-0.0291629 	-0.0409067 	0.0117438 	3.3394 	9.51767e-08 	16.6966 	13.3581 	
9.90465e-10 	22.4272 	0.415949 	0.472158 	0.35 	17.0603 	0.19574 	8.74889e-05 	
1.85953e-06 	4.64883e-07 	5.54206e-09 	0.0306043 	0.108476 	0.00099731 	0 	0 	0 	
0.000524933 	1.50731e-08 	0.92 	0.04 	0.04 	0.0291627 	-1.61815e-08 	
-0.0291627 	-0.0409067 	0.011744 	3.33945 	1.12482e-07 	20.036 	10.0186 	
9.9048e-10 	22.4272 	0.415949 	0.472158 	0.35 	17.0603 	0.195743 	8.74889e-05 	
1.85953e-06 	4.64883e-07 	7.91276e-09 	0.0436957 	0.155734 	0.00056771 	0 	0 	0 	
0.000612422 	1.73921e-08 	0.92 	0.04 	0.04 	0.0291625 	-1.73052e-08 	
-0.0291625 	-0.0409067 	0.0117442 	3.33951 	1.29788e-07 	23.3755 	6.67915 	
9.90498e-10 	22.4272 	0.415949 	0.472158 	0.35 	17.0603 	0.195747 	8.74889e-05 	
1.85953e-06 	4.64883e-07 	1.07247e-08 	0.0592239 	0.211586 	0.000260845 	0 	0 	0 	
0.000699911 	1.9711e-08 	0.92 	0.04 	0.04 	0.0291622 	-1.79795e-08 	
-0.0291623 	-0.0409067 	0.0117444 	3.33957 	1.47095e-07 	26.7151 	3.33961 	
9.90518e-10 	22.4272 	0.415949 	0.472158 	0.35 	17.0603 	0.195751 	8.74889e-05 	
1.85953e-06 	4.64883e-07 	1.3978e-08 	0.077189 	0.276032 	7.67205e-05 	0 	0 	0 	
0.0007874 	2.08703e-08 	0.92 	0.04 	0.04 	0.029162 	-1.82042e-08 	
-0.029162 	-0.0409067 	0.0117447 	1.66983 	1.47095e-07 	29.2198 	0.834913 	
4.95271e-10 	11.2136 	0.207974 	0.236079 	0.35 	8.53017 	0.195755 	4.37444e-05 	
9.29766e-07 	2.32442e-07 	1.57149e-08 	0.0867808 	0.310403 	1.53445e-05 	0 	0 	0 	
ZONE T = "t = 2.37813e-07 [s]" I = 10 SOLUTIONTIME = 2.3781250000000E-07
0 	1.15934e-09 	0.92 	0.04 	0.04 	0.0291633 	0 	
-0.0291633 	-0.0409067 	0.0117435 	1.66964 	8.65232e-09 	0.834822 	29.2198 	
7.07063e-10 	11.2136 	0.207974 	0.236079 	0.35 	8.53017 	0.195734 	4.37444e-05 	
9.29766e-07 	2.32442e-07 	3.95767e-10 	0.0015398 	0.00101624 	0.00419551 	0 	0 	0 	
8.74889e-05 	3.47816e-09 	0.92 	0.04 	0.04 	0.0291632 	-3.82058e-09 	
-0.0291632 	-0.0409067 	0.0117435 	3.33929 	2.5957e-08 	3.33929 	26.7154 	
1.41413e-09 	22.4272 	0.415949 	0.472158 	0.35 	17.0603 	0.195734 	8.74889e-05 	
1.85953e-06 	4.64883e-07 	6.69175e-10 	0.00260354 	0.00508121 	0.00373097 	0 	0 	0 	
0.000174978 	5.79704e-09 	0.92 	0.04 	0.04 	0.0291632 	-7.19169e-09 	
-0.0291632 	-0.0409067 	0.0117435 	3.3393 	4.32617e-08 	6.67859 	23.3761 	
1.41413e-09 	22.4272 	0.415949 	0.472158 	0.35 	17.0603 	0.195735 	8.74889e-05 	
1.85953e-06 	4.64883e-07 	1.52909e-09 	0.00594916 	0.0172761 	0.00285996 	0 	0 	0 	
0.000262467 	8.11589e-09 	0.92 	0.04 	0.04 	0.0291631 	-1.01133e-08 	
-0.0291631 	-0.0409067 	0.0117436 	3.33933 	6.05665e-08 	10.0179 	20.0368 	
1.41414e-09 	22.4272 	0.415949 	0.472158 	0.35 	17.0603 	0.195736 	8.74889e-05 	
1.85953e-06 	4.64883e-07 	3.01519e-09 	0.0117311 	0.0376012 	0.00210507 	0 	0 	0 	
0.000349956 	1.04347e-08 	0.92 	0.04 	0.04 	0.029163 	-1.25855e-08 	
-0.029163 	-0.0409067 	0.0117437 	3.33936 	7.78715e-08 	13.3572 	16.6974 	
1.41416e-09 	22.4272 	0.415949 	0.472158 	0.35 	17.0603 	0.195738 	8.74889e-05 	
1.85953e-06 	4.64883e-07 	5.12752e-09 	0.0199495 	0.0660565 	0.00146631 	0 	0 	0 	
0.000437444 	1.27535e-08 	0.92 	0.04 	0.04 	0.0291629 	-1.46082e-08 	
-0.0291629 	-0.0409067 	0.0117438 	3.3394 	9.51767e-08 	16.6966 	13.3581 	
1.41417e-09 	22.4272 	0.415949 	0.472158 	0.35 	17.0603 	0.19574 	8.74889e-05 	
1.85953e-06 	4.64883e-07 	7.86608e-09 	0.0306043 	0.102643 	0.000943682 	0 	0 	0 	
0.000524933 	1.50724e-08 	0.92 	0.04 	0.04 	0.0291627 	-1.61815e-08 	
-0.0291627 	-0.0409067 	0.011744 	3.33945 	1.12482e-07 	20.036 	10.0186 	
1.41419e-09 	22.4272 	0.415949 	0.472158 	0.35 	17.0603 	0.195743 	8.74889e-05 	
1.85953e-06 	4.64883e-07 	1.12309e-08 	0.0436957 	0.14736 	0.000537182 	0 	0 	0 	
0.000612422 	1.73914e-08 	0.92 	0.04 	0.04 	0.0291625 	-1.73052e-08 	
-0.0291625 	-0.0409067 	0.0117442 	3.33951 	1.29788e-07 	23.3755 	6.67915 	