TITLE = "Solution on Domain BulkDomain1D_2"
VARIABLES = "x [m]"  
"Vel_axial" 	"MF_sp(ECDMC)" 	"MF_sp(Li+)" 	"MF_sp(PF6-)" 	"Volt(Electroly)" 	"Volt(CathodeVo)" 	
"Potential Drop Electrode-Electrolyte [V]" 	"Surf_0 Equilibrium Potential Drop Electrode-Electrolyte [V]" 	"Overpotential_0 [V]" 	"Current Source [A/m^2]" 	"Li+ flux [kmol/m^2/s]" 	"Electrolyte Current [A/m^2]" 	"Electrode Current [A/m^2]" 	
"CV Capacity discharged [A-s/m^2]" 	"Depth of discharge in CV [A-s/m^2]" 	"CV Capacity remaining [A-s/m^2]" 	"Initial CV capacity [A-s/m^2]" 	"Porosity []" 	"Surface Area [m2/m2] (area per area)" 	"Specific current (per particle area) [A/m^2]" 	"Control volume thickness [m]" 	
"MoleDens LiCoO2 [kmol/m^3]" 	"MoleDens CoO2 [kmol/m^3]" 	"qHeat_accum [J/m3]" 	"qHeat_step [W/m3]" 	"Joule_Lyte [W/m3]" 	"Joule_Solid [W/m3]" 	"electrodHeat [W/m3]" 	"OverpotHeat [W/m3]" 	"deltaSHeat [W/m3]" 	

ZONE T = "CATH, 0.0000E+00", I = 10, SOLUTIONTIME = 0.000000E+00
ZONETYPE = ORDERED
DATAPACKING = BLOCK
STRANDID = 3
 1.2700000000000E-03  1.3377333333333E-03  1.4054666666667E-03  1.4732000000000E-03  1.5409333333333E-03  1.6086666666667E-03  1.6764000000000E-03  1.7441333333333E-03  1.8118666666667E-03  1.8796000000000E-03 
 0.0000000000000E+00  0.0000000000000E+00  0.0000000000000E+00  0.0000000000000E+00  0.0000000000000E+00  0.0000000000000E+00  0.0000000000000E+00  0.0000000000000E+00  0.0000000000000E+00  0.0000000000000E+00 
 9.2000000000000E-01  9.2000000000000E-01  9.2000000000000E-01  9.2000000000000E-01  9.2000000000000E-01  9.2000000000000E-01  9.2000000000000E-01  9.2000000000000E-01  9.2000000000000E-01  9.2000000000000E-01 
 4.0000000000000E-02  4.0000000000000E-02  4.0000000000000E-02  4.0000000000000E-02  4.0000000000000E-02  4.0000000000000E-02  4.0000000000000E-02  4.0000000000000E-02  4.0000000000000E-02  4.0000000000000E-02 
 4.0000000000000E-02  4.0000000000000E-02  4.0000000000000E-02  4.0000000000000E-02  4.0000000000000E-02  4.0000000000000E-02  4.0000000000000E-02  4.0000000000000E-02  4.0000000000000E-02  4.0000000000000E-02 
-7.0000000000000E-02 -7.0000000000000E-02 -7.0000000000000E-02 -7.0000000000000E-02 -7.0000000000000E-02 -7.0000000000000E-02 -7.0000000000000E-02 -7.0000000000000E-02 -7.0000000000000E-02 -7.0000000000000E-02 
 3.8000000000000E+00  3.8000000000000E+00  3.8000000000000E+00  3.8000000000000E+00  3.8000000000000E+00  3.8000000000000E+00  3.8000000000000E+00  3.8000000000000E+00  3.8000000000000E+00  3.8000000000000E+00 
 3.8700000000000E+00  3.8700000000000E+00  3.8700000000000E+00  3.8700000000000E+00  3.8700000000000E+00  3.8700000000000E+00  3.8700000000000E+00  3.8700000000000E+00  3.8700000000000E+00  3.8700000000000E+00 
 3.9714142503926E+00  3.9714142503926E+00  3.9714142503926E+00  3.9714142503926E+00  3.9714142503926E+00  3.9714142503926E+00  3.9714142503926E+00  3.9714142503926E+00  3.9714142503926E+00  3.9714142503926E+00 
-1.0141425039263E-01 -1.0141425039263E-01 -1.0141425039263E-01 -1.0141425039263E-01 -1.0141425039263E-01 -1.0141425039263E-01 -1.0141425039263E-01 -1.0141425039263E-01 -1.0141425039263E-01 -1.0141425039263E-01 
-2.3826347105691E-01 -4.7652694211382E-01 -4.7652694211382E-01 -4.7652694211382E-01 -4.7652694211382E-01 -4.7652694211382E-01 -4.7652694211382E-01 -4.7652694211382E-01 -4.7652694211382E-01 -2.3826347105691E-01 
-0.0000000000000E+00 -0.0000000000000E+00 -0.0000000000000E+00 -0.0000000000000E+00 -0.0000000000000E+00 -0.0000000000000E+00 -0.0000000000000E+00 -0.0000000000000E+00 -0.0000000000000E+00 -0.0000000000000E+00 
 2.3826347105691E-01  0.0000000000000E+00  0.0000000000000E+00  0.0000000000000E+00  0.0000000000000E+00  0.0000000000000E+00  0.0000000000000E+00  0.0000000000000E+00  0.0000000000000E+00  0.0000000000000E+00 
 0.0000000000000E+00 -0.0000000000000E+00 -0.0000000000000E+00 -0.0000000000000E+00 -0.0000000000000E+00 -0.0000000000000E+00 -0.0000000000000E+00 -0.0000000000000E+00 -0.0000000000000E+00  2.3826347105691E-01 
-0.0000000000000E+00 -0.0000000000000E+00 -0.0000000000000E+00 -0.0000000000000E+00 -0.0000000000000E+00 -0.0000000000000E+00 -0.0000000000000E+00 -0.0000000000000E+00 -0.0000000000000E+00 -0.0000000000000E+00 
 5.2083019618450E+03  1.0416603923690E+04  1.0416603923690E+04  1.0416603923690E+04  1.0416603923690E+04  1.0416603923690E+04  1.0416603923690E+04  1.0416603923690E+04  1.0416603923690E+04  5.2083019618450E+03 
 3.5416453340546E+04  7.0832906681092E+04  7.0832906681093E+04  7.0832906681092E+04  7.0832906681093E+04  7.0832906681093E+04  7.0832906681092E+04  7.0832906681093E+04  7.0832906681092E+04  3.5416453340546E+04 
 4.0624755302391E+04  8.1249510604782E+04  8.1249510604783E+04  8.1249510604782E+04  8.1249510604783E+04  8.1249510604783E+04  8.1249510604782E+04  8.1249510604783E+04  8.1249510604782E+04  4.0624755302391E+04 
 3.5000000000000E-01  3.5000000000000E-01  3.5000000000000E-01  3.5000000000000E-01  3.5000000000000E-01  3.5000000000000E-01  3.5000000000000E-01  3.5000000000000E-01  3.5000000000000E-01  3.5000000000000E-01 
 6.6040000000000E+00  1.3208000000000E+01  1.3208000000000E+01  1.3208000000000E+01  1.3208000000000E+01  1.3208000000000E+01  1.3208000000000E+01  1.3208000000000E+01  1.3208000000000E+01  6.6040000000000E+00 
-3.6078660063130E-02 -3.6078660063130E-02 -3.6078660063130E-02 -3.6078660063130E-02 -3.6078660063130E-02 -3.6078660063130E-02 -3.6078660063130E-02 -3.6078660063130E-02 -3.6078660063130E-02 -3.6078660063130E-02 
 3.3866666666667E-05  6.7733333333333E-05  6.7733333333334E-05  6.7733333333333E-05  6.7733333333334E-05  6.7733333333334E-05  6.7733333333333E-05  6.7733333333334E-05  6.7733333333333E-05  3.3866666666667E-05 
 1.9126857953556E+01  1.9126857953556E+01  1.9126857953556E+01  1.9126857953556E+01  1.9126857953556E+01  1.9126857953556E+01  1.9126857953556E+01  1.9126857953556E+01  1.9126857953556E+01  1.9126857953556E+01 
 1.2751238635704E+01  1.2751238635704E+01  1.2751238635704E+01  1.2751238635704E+01  1.2751238635704E+01  1.2751238635704E+01  1.2751238635704E+01  1.2751238635704E+01  1.2751238635704E+01  1.2751238635704E+01 
 0.0000000000000E+00  0.0000000000000E+00  0.0000000000000E+00  0.0000000000000E+00  0.0000000000000E+00  0.0000000000000E+00  0.0000000000000E+00  0.0000000000000E+00  0.0000000000000E+00  0.0000000000000E+00 
 0.0000000000000E+00  0.0000000000000E+00  0.0000000000000E+00  0.0000000000000E+00  0.0000000000000E+00  0.0000000000000E+00  0.0000000000000E+00  0.0000000000000E+00  0.0000000000000E+00  0.0000000000000E+00 
 0.0000000000000E+00  0.0000000000000E+00  0.0000000000000E+00  0.0000000000000E+00  0.0000000000000E+00  0.0000000000000E+00  0.0000000000000E+00  0.0000000000000E+00  0.0000000000000E+00  0.0000000000000E+00 
 0.0000000000000E+00  0.0000000000000E+00  0.0000000000000E+00  0.0000000000000E+00  0.0000000000000E+00  0.0000000000000E+00  0.0000000000000E+00  0.0000000000000E+00  0.0000000000000E+00  0.0000000000000E+00 
 0.0000000000000E+00  0.0000000000000E+00  0.0000000000000E+00  0.0000000000000E+00  0.0000000000000E+00  0.0000000000000E+00  0.0000000000000E+00  0.0000000000000E+00  0.0000000000000E+00  0.0000000000000E+00 
 0.0000000000000E+00  0.0000000000000E+00  0.0000000000000E+00  0.0000000000000E+00  0.0000000000000E+00  0.0000000000000E+00  0.0000000000000E+00  0.0000000000000E+00  0.0000000000000E+00  0.0000000000000E+00 
 0.0000000000000E+00  0.0000000000000E+00  0.0000000000000E+00  0.0000000000000E+00  0.0000000000000E+00  0.0000000000000E+00  0.0000000000000E+00  0.0000000000000E+00  0.0000000000000E+00  0.0000000000000E+00 
ZONE T = "CATH, 1.0000E-08", I = 10, SOLUTIONTIME = 1.000000E-08
ZONETYPE = ORDERED
DATAPACKING = BLOCK
STRANDID = 3
 1.2700000000000E-03  1.3377333333333E-03  1.4054666666667E-03  1.4732000000000E-03  1.5409333333333E-03  1.6086666666667E-03  1.6764000000000E-03  1.7441333333333E-03  1.8118666666667E-03  1.8796000000000E-03 
 1.9704888829659E-08  1.7389346406586E-08  1.5073520664512E-08  1.2757216029652E-08  1.0440236766310E-08  8.1223869116416E-09  5.8031070010222E-09  3.4825636252328E-09  1.1609229474206E-09 -7.2641539921656E-13 
 9.2000000000032E-01  9.2000000000090E-01  9.2000000000090E-01  9.2000000000090E-01  9.2000000000090E-01  9.2000000000090E-01  9.2000000000090E-01  9.2000000000090E-01  9.2000000000090E-01  9.2000000000090E-01 
 3.9999999999841E-02  3.9999999999551E-02  3.9999999999551E-02  3.9999999999551E-02  3.9999999999550E-02  3.9999999999550E-02  3.9999999999550E-02  3.9999999999550E-02  3.9999999999550E-02  3.9999999999549E-02 
 3.9999999999841E-02  3.9999999999551E-02  3.9999999999551E-02  3.9999999999551E-02  3.9999999999550E-02  3.9999999999550E-02  3.9999999999550E-02  3.9999999999550E-02  3.9999999999550E-02  3.9999999999549E-02 
 2.9165720851325E-02  2.9165513840989E-02  2.9165331156648E-02  2.9165172801292E-02  2.9165038779954E-02  2.9164929099709E-02  2.9164843769716E-02  2.9164782801179E-02  2.9164746207356E-02  2.9164734003614E-02 
 3.8001746422252E+00  3.8001724873347E+00  3.8001660224999E+00  3.8001552471932E+00  3.8001401605235E+00  3.8001207612349E+00  3.8000970477071E+00  3.8000690179542E+00  3.8000366696247E+00  3.8000000000000E+00 
 3.7710089213739E+00  3.7710069734937E+00  3.7710006913432E+00  3.7709900743919E+00  3.7709751217435E+00  3.7709558321352E+00  3.7709322039373E+00  3.7709042351530E+00  3.7708719234173E+00  3.7708352659964E+00 
 3.9714142503924E+00  3.9714142503922E+00  3.9714142503922E+00  3.9714142503922E+00  3.9714142503922E+00  3.9714142503922E+00  3.9714142503922E+00  3.9714142503922E+00  3.9714142503922E+00  3.9714142503922E+00 
-2.0040532901855E-01 -2.0040727689849E-01 -2.0041355904902E-01 -2.0042417600029E-01 -2.0043912864871E-01 -2.0045841825704E-01 -2.0048204645488E-01 -2.0051001523918E-01 -2.0054232697489E-01 -2.0057898439585E-01 
-1.6672275927684E+00 -3.3345816922377E+00 -3.3349897243973E+00 -3.3356794196475E+00 -3.3366510106830E+00 -3.3379048254279E+00 -3.3394412872744E+00 -3.3412609153839E+00 -3.3433643250601E+00 -1.6728761140983E+00 
 1.4705153862842E-07  1.2977124555476E-07  1.1248896112088E-07  9.5203102013065E-08  7.7912217491732E-08  6.0614825783521E-08  4.3309475215728E-08  2.5994707786182E-08  8.6690230951483E-09  8.6690230951483E-09 
 3.0043836372995E+01  2.6709326677798E+01  2.3374557545290E+01  2.0039238581404E+01  1.6703089835468E+01  1.3365828362813E+01  1.0027171128407E+01  6.6868373916810E+00  3.3445417104283E+00  0.0000000000000E+00 
 0.0000000000000E+00  3.3345022704667E+00  6.6692717907843E+00  1.0004590133435E+01  1.3340739057470E+01  1.6678000601448E+01  2.0016657178955E+01  2.3356991674979E+01  2.6699287541429E+01  3.0043837401349E+01 
 1.6672275927684E-08  3.3345816922377E-08  3.3349897243973E-08  3.3356794196475E-08  3.3366510106830E-08  3.3379048254279E-08  3.3394412872744E-08  3.3412609153839E-08  3.3433643250601E-08  1.6728761140983E-08 
 5.2083019618617E+03  1.0416603923723E+04  1.0416603923723E+04  1.0416603923723E+04  1.0416603923723E+04  1.0416603923723E+04  1.0416603923723E+04  1.0416603923723E+04  1.0416603923723E+04  5.2083019618618E+03 
 3.5416453340530E+04  7.0832906681059E+04  7.0832906681059E+04  7.0832906681059E+04  7.0832906681059E+04  7.0832906681059E+04  7.0832906681059E+04  7.0832906681059E+04  7.0832906681059E+04  3.5416453340530E+04 
 4.0624755302391E+04  8.1249510604782E+04  8.1249510604783E+04  8.1249510604782E+04  8.1249510604783E+04  8.1249510604783E+04  8.1249510604782E+04  8.1249510604783E+04  8.1249510604782E+04  4.0624755302391E+04 
 3.5000000000000E-01  3.5000000000000E-01  3.5000000000000E-01  3.5000000000000E-01  3.5000000000000E-01  3.5000000000000E-01  3.5000000000000E-01  3.5000000000000E-01  3.5000000000000E-01  3.5000000000000E-01 
 6.6040000000001E+00  1.3208000000000E+01  1.3208000000000E+01  1.3208000000000E+01  1.3208000000000E+01  1.3208000000000E+01  1.3208000000000E+01  1.3208000000000E+01  1.3208000000000E+01  6.6040000000001E+00 
-2.5245723694252E-01 -2.5246681497862E-01 -2.5249770778296E-01 -2.5254992577586E-01 -2.5262348657503E-01 -2.5271841500816E-01 -2.5283474313101E-01 -2.5297251025014E-01 -2.5313176295125E-01 -2.5331255513299E-01 
 3.3866666666667E-05  6.7733333333333E-05  6.7733333333334E-05  6.7733333333333E-05  6.7733333333334E-05  6.7733333333334E-05  6.7733333333333E-05  6.7733333333334E-05  6.7733333333333E-05  3.3866666666667E-05 
 1.9126857953561E+01  1.9126857953561E+01  1.9126857953561E+01  1.9126857953561E+01  1.9126857953561E+01  1.9126857953561E+01  1.9126857953561E+01  1.9126857953561E+01  1.9126857953561E+01  1.9126857953561E+01 
 1.2751238635699E+01  1.2751238635699E+01  1.2751238635699E+01  1.2751238635699E+01  1.2751238635699E+01  1.2751238635699E+01  1.2751238635699E+01  1.2751238635699E+01  1.2751238635699E+01  1.2751238635699E+01 
 1.3976761926040E-09  3.4235307901250E-09  9.6096750182625E-09  2.0066094443204E-08  3.4796321317276E-08  5.3805333312213E-08  7.7099557221422E-08  1.0468687363590E-07  1.3657662245811E-07  1.5359836385985E-07 
 1.3976761926040E-01  3.4235307901250E-01  9.6096750182625E-01  2.0066094443204E+00  3.4796321317276E+00  5.3805333312213E+00  7.7099557221422E+00  1.0468687363590E+01  1.3657662245811E+01  1.5359836385985E+01 
 8.6726151541454E-02  7.7133666880673E-02  5.9145326847899E-02  4.3550133103150E-02  3.0348263497292E-02  1.9540693435103E-02  1.1129210300103E-02  5.1164213628611E-03  1.5057414088048E-03  3.0140608607947E-04 
 5.3041467718947E-02  2.6521941213183E-01  9.0182217497835E-01  1.9630593112172E+00  3.4492838682303E+00  5.3609926377862E+00  7.6988265118421E+00  1.0463570942227E+01  1.3656156504402E+01  1.5359534979899E+01 
 0.0000000000000E+00  0.0000000000000E+00  0.0000000000000E+00  0.0000000000000E+00  0.0000000000000E+00  0.0000000000000E+00  0.0000000000000E+00  0.0000000000000E+00  0.0000000000000E+00  0.0000000000000E+00 
 0.0000000000000E+00  0.0000000000000E+00  0.0000000000000E+00  0.0000000000000E+00  0.0000000000000E+00  0.0000000000000E+00  0.0000000000000E+00  0.0000000000000E+00  0.0000000000000E+00  0.0000000000000E+00 
 0.0000000000000E+00  0.0000000000000E+00  0.0000000000000E+00  0.0000000000000E+00  0.0000000000000E+00  0.0000000000000E+00  0.0000000000000E+00  0.0000000000000E+00  0.0000000000000E+00  0.0000000000000E+00 
ZONE T = "CATH, 2.0000E-08", I = 10, SOLUTIONTIME = 2.000000E-08
ZONETYPE = ORDERED
DATAPACKING = BLOCK
STRANDID = 3
 1.2700000000000E-03  1.3377333333333E-03  1.4054666666667E-03  1.4732000000000E-03  1.5409333333333E-03  1.6086666666667E-03  1.6764000000000E-03  1.7441333333333E-03  1.8118666666667E-03  1.8796000000000E-03 
 1.9701717754323E-08  1.7386164040199E-08  1.5069600569236E-08  1.2752558167379E-08  1.0435567498984E-08  8.1180693775045E-09  5.7991411146513E-09  3.4782228693455E-09  1.1565704118633E-09 -5.0849081889635E-12 
 9.2000000000063E-01  9.2000000000180E-01  9.2000000000180E-01  9.2000000000180E-01  9.2000000000180E-01  9.2000000000180E-01  9.2000000000180E-01  9.2000000000180E-01  9.2000000000180E-01  9.2000000000180E-01 
 3.9999999999683E-02  3.9999999999101E-02  3.9999999999101E-02  3.9999999999101E-02  3.9999999999101E-02  3.9999999999100E-02  3.9999999999100E-02  3.9999999999100E-02  3.9999999999099E-02  3.9999999999098E-02 
 3.9999999999683E-02  3.9999999999101E-02  3.9999999999101E-02  3.9999999999101E-02  3.9999999999101E-02  3.9999999999100E-02  3.9999999999100E-02  3.9999999999100E-02  3.9999999999099E-02  3.9999999999098E-02 
 2.9165723037780E-02  2.9165516026412E-02  2.9165333341167E-02  2.9165174985023E-02  2.9165040963011E-02  2.9164931282218E-02  2.9164845951792E-02  2.9164784982941E-02  2.9164748388939E-02  2.9164736185132E-02 
 3.8001746430835E+00  3.8001724881825E+00  3.8001660233161E+00  3.8001552479569E+00  3.8001401612135E+00  3.8001207618299E+00  3.8000970481858E+00  3.8000690182952E+00  3.8000366698061E+00  3.8000000000000E+00 
 3.7710089200457E+00  3.7710069721561E+00  3.7710006899750E+00  3.7709900729719E+00  3.7709751202504E+00  3.7709558305477E+00  3.7709322022340E+00  3.7709042333122E+00  3.7708719214172E+00  3.7708352638149E+00 
 3.9714142503922E+00  3.9714142503918E+00  3.9714142503918E+00  3.9714142503918E+00  3.9714142503918E+00  3.9714142503918E+00  3.9714142503918E+00  3.9714142503918E+00  3.9714142503918E+00  3.9714142503918E+00 
-2.0040533034652E-01 -2.0040727823574E-01 -2.0041356041688E-01 -2.0042417741994E-01 -2.0043913014139E-01 -2.0045841984410E-01 -2.0048204815780E-01 -2.0051001707959E-01 -2.0054232897464E-01 -2.0057898657696E-01 
-1.6672276358864E+00 -3.3345817790677E+00 -3.3349898132266E+00 -3.3356795118596E+00 -3.3366511076677E+00 -3.3379049285852E+00 -3.3394413980147E+00 -3.3412610351321E+00 -3.3433644552591E+00 -1.6728761851536E+00 
 1.4705240412587E-07  1.2977188743830E-07  1.1248952139043E-07  9.5203581224017E-08  7.7912606117728E-08  6.0615133550569E-08  4.3309698783009E-08  2.5994834418263E-08  8.6690698487230E-09  8.6690698487230E-09 
 3.0043977849829E+01  2.6709459324561E+01  2.3374673528470E+01  2.0039338865778E+01  1.6703173555946E+01  1.3365895537705E+01  1.0027222374547E+01  6.6868711579468E+00  3.3445584127198E+00  0.0000000000000E+00 
 0.0000000000000E+00  3.3345185254365E+00  6.6693043216827E+00  1.0004638984070E+01  1.3340804293809E+01  1.6678082312138E+01  2.0016755475318E+01  2.3357106691874E+01  2.6699419437076E+01  3.0043977849691E+01 
 3.3344552286549E-08  6.6691634713054E-08  6.6699795376239E-08  6.6713589315071E-08  6.6733021183507E-08  6.6758097540131E-08  6.6788826852892E-08  6.6825219505160E-08  6.6867287803192E-08  3.3457522992519E-08 
 5.2083019618784E+03  1.0416603923757E+04  1.0416603923757E+04  1.0416603923757E+04  1.0416603923757E+04  1.0416603923757E+04  1.0416603923757E+04  1.0416603923757E+04  1.0416603923757E+04  5.2083019618785E+03 
 3.5416453340513E+04  7.0832906681025E+04  7.0832906681026E+04  7.0832906681025E+04  7.0832906681026E+04  7.0832906681026E+04  7.0832906681025E+04  7.0832906681026E+04  7.0832906681025E+04  3.5416453340513E+04 
 4.0624755302391E+04  8.1249510604782E+04  8.1249510604783E+04  8.1249510604782E+04  8.1249510604783E+04  8.1249510604783E+04  8.1249510604782E+04  8.1249510604783E+04  8.1249510604782E+04  4.0624755302391E+04 
 3.5000000000000E-01  3.5000000000000E-01  3.5000000000000E-01  3.5000000000000E-01  3.5000000000000E-01  3.5000000000000E-01  3.5000000000000E-01  3.5000000000000E-01  3.5000000000000E-01  3.5000000000000E-01 
 6.6040000000001E+00  1.3208000000000E+01  1.3208000000000E+01  1.3208000000000E+01  1.3208000000000E+01  1.3208000000000E+01  1.3208000000000E+01  1.3208000000000E+01  1.3208000000000E+01  6.6040000000001E+00 
-2.5245724347159E-01 -2.5246682155267E-01 -2.5249771450837E-01 -2.5254993275738E-01 -2.5262349391790E-01 -2.5271842281838E-01 -2.5283475151535E-01 -2.5297251931648E-01 -2.5313177280883E-01 -2.5331256589243E-01 
 3.3866666666667E-05  6.7733333333333E-05  6.7733333333334E-05  6.7733333333333E-05  6.7733333333334E-05  6.7733333333334E-05  6.7733333333333E-05  6.7733333333334E-05  6.7733333333333E-05  3.3866666666667E-05 
 1.9126857953566E+01  1.9126857953566E+01  1.9126857953566E+01  1.9126857953566E+01  1.9126857953566E+01  1.9126857953566E+01  1.9126857953566E+01  1.9126857953566E+01  1.9126857953566E+01  1.9126857953566E+01 
 1.2751238635694E+01  1.2751238635694E+01  1.2751238635694E+01  1.2751238635694E+01  1.2751238635694E+01  1.2751238635694E+01  1.2751238635694E+01  1.2751238635694E+01  1.2751238635694E+01  1.2751238635694E+01 
 2.7953662003323E-09  6.8470951026621E-09  1.9219443889728E-08  4.0132384968267E-08  6.9592983054025E-08  1.0761119394557E-07  1.5419987179665E-07  2.0937477841885E-07  2.7315459445043E-07  3.0719824771130E-07 
 1.3976900077283E-01  3.4235643125371E-01  9.6097688714652E-01  2.0066290525064E+00  3.4796661736749E+00  5.3805860633361E+00  7.7100314575232E+00  1.0468790478295E+01  1.3657797199232E+01  1.5359988385145E+01 
 8.6727016059261E-02  7.7134433204480E-02  5.9145913658566E-02  4.3550568800968E-02  3.0348567862511E-02  1.9540889643754E-02  1.1129323910296E-02  5.1164733661276E-03  1.5057562177256E-03  3.0140932679943E-04 
 5.3041984713571E-02  2.6522199804923E-01  9.0183097348795E-01  1.9630784837054E+00  3.4493176058124E+00  5.3610451736924E+00  7.6989021336129E+00  1.0463674004928E+01  1.3656291443015E+01  1.5359686975818E+01 
 0.0000000000000E+00  0.0000000000000E+00  0.0000000000000E+00  0.0000000000000E+00  0.0000000000000E+00  0.0000000000000E+00  0.0000000000000E+00  0.0000000000000E+00  0.0000000000000E+00  0.0000000000000E+00 
 0.0000000000000E+00  0.0000000000000E+00  0.0000000000000E+00  0.0000000000000E+00  0.0000000000000E+00  0.0000000000000E+00  0.0000000000000E+00  0.0000000000000E+00  0.0000000000000E+00  0.0000000000000E+00 
 0.0000000000000E+00  0.0000000000000E+00  0.0000000000000E+00  0.0000000000000E+00  0.0000000000000E+00  0.0000000000000E+00  0.0000000000000E+00  0.0000000000000E+00  0.0000000000000E+00  0.0000000000000E+00 
ZONE T = "CATH, 3.0000E-08", I = 10, SOLUTIONTIME = 3.000000E-08
ZONETYPE = ORDERED
DATAPACKING = BLOCK
STRANDID = 3
 1.2700000000000E-03  1.3377333333333E-03  1.4054666666667E-03  1.4732000000000E-03  1.5409333333333E-03  1.6086666666667E-03  1.6764000000000E-03  1.7441333333333E-03  1.8118666666667E-03  1.8796000000000E-03 
 1.9708255493013E-08  1.7392701778936E-08  1.5077591138933E-08  1.2762001568035E-08  1.0445010899689E-08  8.1267863628018E-09  5.8078580999969E-09  3.4876662701951E-09  1.1660138127614E-09  4.3584927333853E-12 
 9.2000000000095E-01  9.2000000000270E-01  9.2000000000270E-01  9.2000000000270E-01  9.2000000000270E-01  9.2000000000270E-01  9.2000000000270E-01  9.2000000000270E-01  9.2000000000270E-01  9.2000000000270E-01 
 3.9999999999524E-02  3.9999999998652E-02  3.9999999998652E-02  3.9999999998652E-02  3.9999999998651E-02  3.9999999998651E-02  3.9999999998650E-02  3.9999999998649E-02  3.9999999998649E-02  3.9999999998648E-02 
 3.9999999999524E-02  3.9999999998652E-02  3.9999999998652E-02  3.9999999998652E-02  3.9999999998651E-02  3.9999999998651E-02  3.9999999998650E-02  3.9999999998649E-02  3.9999999998649E-02  3.9999999998648E-02 
 2.9165723037416E-02  2.9165516026048E-02  2.9165333340803E-02  2.9165174984659E-02  2.9165040962647E-02  2.9164931281854E-02  2.9164845951428E-02  2.9164784982577E-02  2.9164748388575E-02  2.9164736184768E-02 
 3.8001746430835E+00  3.8001724881825E+00  3.8001660233161E+00  3.8001552479569E+00  3.8001401612135E+00  3.8001207618299E+00  3.8000970481858E+00  3.8000690182952E+00  3.8000366698061E+00  3.8000000000000E+00 
 3.7710089200460E+00  3.7710069721565E+00  3.7710006899753E+00  3.7709900729723E+00  3.7709751202508E+00  3.7709558305481E+00  3.7709322022344E+00  3.7709042333126E+00  3.7708719214176E+00  3.7708352638152E+00 
 3.9714142503920E+00  3.9714142503914E+00  3.9714142503914E+00  3.9714142503914E+00  3.9714142503914E+00  3.9714142503914E+00  3.9714142503914E+00  3.9714142503914E+00  3.9714142503914E+00  3.9714142503914E+00 
-2.0040533034595E-01 -2.0040727823498E-01 -2.0041356041612E-01 -2.0042417741918E-01 -2.0043913014063E-01 -2.0045841984334E-01 -2.0048204815704E-01 -2.0051001707883E-01 -2.0054232897388E-01 -2.0057898657620E-01 
-1.6672276358639E+00 -3.3345817789984E+00 -3.3349898131572E+00 -3.3356795117901E+00 -3.3366511075983E+00 -3.3379049285157E+00 -3.3394413979451E+00 -3.3412610350623E+00 -3.3433644551892E+00 -1.6728761851187E+00 
 1.4705253669860E-07  1.2977188746015E-07  1.1248952143399E-07  9.5203581279877E-08  7.7912606192837E-08  6.0615133647839E-08  4.3309698890108E-08  2.5994834547524E-08  8.6690699976820E-09  8.6690699976820E-09 
 3.0043977849591E+01  2.6709459323837E+01  2.3374673527732E+01  2.0039338865315E+01  1.6703173555521E+01  1.3365895537792E+01  1.0027222374434E+01  6.6868711576338E+00  3.3445584126821E+00  0.0000000000000E+00 
 0.0000000000000E+00  3.3345185254365E+00  6.6693043215109E+00  1.0004638983898E+01  1.3340804293638E+01  1.6678082311623E+01  2.0016755474803E+01  2.3357106691358E+01  2.6699419436561E+01  3.0043977849312E+01 
 5.0016828645187E-08  1.0003745250304E-07  1.0004969350781E-07  1.0007038443297E-07  1.0009953225949E-07  1.0013714682529E-07  1.0018324083234E-07  1.0023782985578E-07  1.0030093235508E-07  5.0186284843706E-08 
 5.2083019618950E+03  1.0416603923790E+04  1.0416603923790E+04  1.0416603923790E+04  1.0416603923790E+04  1.0416603923790E+04  1.0416603923790E+04  1.0416603923790E+04  1.0416603923790E+04  5.2083019618952E+03 
 3.5416453340496E+04  7.0832906680992E+04  7.0832906680993E+04  7.0832906680992E+04  7.0832906680992E+04  7.0832906680992E+04  7.0832906680992E+04  7.0832906680992E+04  7.0832906680992E+04  3.5416453340496E+04 
 4.0624755302391E+04  8.1249510604782E+04  8.1249510604783E+04  8.1249510604782E+04  8.1249510604783E+04  8.1249510604783E+04  8.1249510604782E+04  8.1249510604783E+04  8.1249510604782E+04  4.0624755302391E+04 
 3.5000000000000E-01  3.5000000000000E-01  3.5000000000000E-01  3.5000000000000E-01  3.5000000000000E-01  3.5000000000000E-01  3.5000000000000E-01  3.5000000000000E-01  3.5000000000000E-01  3.5000000000000E-01 
 6.6040000000002E+00  1.3208000000000E+01  1.3208000000000E+01  1.3208000000000E+01  1.3208000000000E+01  1.3208000000000E+01  1.3208000000000E+01  1.3208000000000E+01  1.3208000000000E+01  6.6040000000002E+00 
-2.5245724346818E-01 -2.5246682154742E-01 -2.5249771450311E-01 -2.5254993275212E-01 -2.5262349391265E-01 -2.5271842281312E-01 -2.5283475151007E-01 -2.5297251931119E-01 -2.5313177280354E-01 -2.5331256588713E-01 
 3.3866666666667E-05  6.7733333333333E-05  6.7733333333334E-05  6.7733333333333E-05  6.7733333333334E-05  6.7733333333334E-05  6.7733333333333E-05  6.7733333333334E-05  6.7733333333333E-05  3.3866666666667E-05 
 1.9126857953571E+01  1.9126857953571E+01  1.9126857953571E+01  1.9126857953571E+01  1.9126857953571E+01  1.9126857953571E+01  1.9126857953571E+01  1.9126857953571E+01  1.9126857953571E+01  1.9126857953571E+01 
 1.2751238635688E+01  1.2751238635688E+01  1.2751238635688E+01  1.2751238635688E+01  1.2751238635688E+01  1.2751238635688E+01  1.2751238635688E+01  1.2751238635688E+01  1.2751238635688E+01  1.2751238635688E+01 
 4.1930562080540E-09  1.0270659415166E-08  2.8829212760614E-08  6.0198675492770E-08  1.0438964478978E-07  1.6141705457555E-07  2.3130018636806E-07  3.1406268319708E-07  4.0973256643761E-07  4.6079813155903E-07 
 1.3976900077217E-01  3.4235643125043E-01  9.6097688708863E-01  2.0066290524503E+00  3.4796661735752E+00  5.3805860629975E+00  7.7100314571405E+00  1.0468790477824E+01  1.3657797198718E+01  1.5359988384773E+01 
 8.6727016058601E-02  7.7134433201206E-02  5.9145913655337E-02  4.3550568799538E-02  3.0348567861229E-02  1.9540889644134E-02  1.1129323910342E-02  5.1164733656420E-03  1.5057562177087E-03  3.0140932679603E-04 
 5.3041984713571E-02  2.6522199804923E-01  9.0183097343329E-01  1.9630784836507E+00  3.4493176057140E+00  5.3610451733534E+00  7.6989021332301E+00  1.0463674004458E+01  1.3656291442500E+01  1.5359686975446E+01 
 0.0000000000000E+00  0.0000000000000E+00  0.0000000000000E+00  0.0000000000000E+00  0.0000000000000E+00  0.0000000000000E+00  0.0000000000000E+00  0.0000000000000E+00  0.0000000000000E+00  0.0000000000000E+00 
 0.0000000000000E+00  0.0000000000000E+00  0.0000000000000E+00  0.0000000000000E+00  0.0000000000000E+00  0.0000000000000E+00  0.0000000000000E+00  0.0000000000000E+00  0.0000000000000E+00  0.0000000000000E+00 
 0.0000000000000E+00  0.0000000000000E+00  0.0000000000000E+00  0.0000000000000E+00  0.0000000000000E+00  0.0000000000000E+00  0.0000000000000E+00  0.0000000000000E+00  0.0000000000000E+00  0.0000000000000E+00 
ZONE T = "CATH, 4.0000E-08", I = 10, SOLUTIONTIME = 4.000000E-08
ZONETYPE = ORDERED
DATAPACKING = BLOCK
STRANDID = 3
 1.2700000000000E-03  1.3377333333333E-03  1.4054666666667E-03  1.4732000000000E-03  1.5409333333333E-03  1.6086666666667E-03  1.6764000000000E-03  1.7441333333333E-03  1.8118666666667E-03  1.8796000000000E-03 
 1.9702807376685E-08  1.7387253662656E-08  1.5070690191790E-08  1.2754010997757E-08  1.0437020329459E-08  8.1191590003484E-09  5.7998675298643E-09  3.4800389078387E-09  1.1591128659092E-09 -2.1792463666903E-12 
 9.2000000000127E-01  9.2000000000359E-01  9.2000000000359E-01  9.2000000000360E-01  9.2000000000360E-01  9.2000000000360E-01  9.2000000000360E-01  9.2000000000360E-01  9.2000000000360E-01  9.2000000000361E-01 
 3.9999999999365E-02  3.9999999998203E-02  3.9999999998203E-02  3.9999999998202E-02  3.9999999998202E-02  3.9999999998201E-02  3.9999999998200E-02  3.9999999998199E-02  3.9999999998198E-02  3.9999999998197E-02 
 3.9999999999365E-02  3.9999999998203E-02  3.9999999998203E-02  3.9999999998202E-02  3.9999999998202E-02  3.9999999998201E-02  3.9999999998200E-02  3.9999999998199E-02  3.9999999998198E-02  3.9999999998197E-02 
 2.9165723037051E-02  2.9165516025682E-02  2.9165333340438E-02  2.9165174984294E-02  2.9165040962281E-02  2.9164931281489E-02  2.9164845951063E-02  2.9164784982212E-02  2.9164748388210E-02  2.9164736184403E-02 
 3.8001746430835E+00  3.8001724881825E+00  3.8001660233161E+00  3.8001552479569E+00  3.8001401612135E+00  3.8001207618299E+00  3.8000970481858E+00  3.8000690182952E+00  3.8000366698061E+00  3.8000000000000E+00 
 3.7710089200464E+00  3.7710069721568E+00  3.7710006899757E+00  3.7709900729726E+00  3.7709751202512E+00  3.7709558305485E+00  3.7709322022348E+00  3.7709042333130E+00  3.7708719214179E+00  3.7708352638156E+00 
 3.9714142503918E+00  3.9714142503910E+00  3.9714142503910E+00  3.9714142503910E+00  3.9714142503910E+00  3.9714142503910E+00  3.9714142503910E+00  3.9714142503910E+00  3.9714142503910E+00  3.9714142503910E+00 
-2.0040533034537E-01 -2.0040727823422E-01 -2.0041356041536E-01 -2.0042417741842E-01 -2.0043913013987E-01 -2.0045841984258E-01 -2.0048204815628E-01 -2.0051001707807E-01 -2.0054232897311E-01 -2.0057898657544E-01 
-1.6672276358413E+00 -3.3345817789290E+00 -3.3349898130877E+00 -3.3356795117206E+00 -3.3366511075287E+00 -3.3379049284460E+00 -3.3394413978754E+00 -3.3412610349924E+00 -3.3433644551193E+00 -1.6728761850836E+00 