TITLE = "Solution on Domain BulkDomain1D_1"
VARIABLES = "x [m]"  
"Vel_axial" 	"MF_sp(ECDMC)" 	"MF_sp(Li+)" 	"MF_sp(PF6-)" 	"Volt(Electroly)" 	"Porosity []" 	"Control volume thickness [m]" 	"volFrac MgO(S) []" 	"qHeat_accum [J/m3]" 	"qHeat_step [W/m3]" 	"Joule_Lyte [W/m3]" 	"Joule_Solid [W/m3]" 	
ZONE T = "SEP , 0.0000E+00", I = 10, SOLUTIONTIME = 0.000000E+00
ZONETYPE = ORDERED
DATAPACKING = BLOCK
STRANDID = 2
 7.8740000000000E-04  8.4102222222222E-04  8.9464444444444E-04  9.4826666666667E-04  1.0018888888889E-03  1.0555111111111E-03  1.1091333333333E-03  1.1627555555556E-03  1.2163777777778E-03  1.2700000000000E-03 
 0.0000000000000E+00  0.0000000000000E+00  0.0000000000000E+00  0.0000000000000E+00  0.0000000000000E+00  0.0000000000000E+00  0.0000000000000E+00  0.0000000000000E+00  0.0000000000000E+00  0.0000000000000E+00 
 9.2000000000000E-01  9.2000000000000E-01  9.2000000000000E-01  9.2000000000000E-01  9.2000000000000E-01  9.2000000000000E-01  9.2000000000000E-01  9.2000000000000E-01  9.2000000000000E-01  9.2000000000000E-01 
 4.0000000000000E-02  4.0000000000000E-02  4.0000000000000E-02  4.0000000000000E-02  4.0000000000000E-02  4.0000000000000E-02  4.0000000000000E-02  4.0000000000000E-02  4.0000000000000E-02  4.0000000000000E-02 
 4.0000000000000E-02  4.0000000000000E-02  4.0000000000000E-02  4.0000000000000E-02  4.0000000000000E-02  4.0000000000000E-02  4.0000000000000E-02  4.0000000000000E-02  4.0000000000000E-02  4.0000000000000E-02 
-7.0000000000000E-02 -7.0000000000000E-02 -7.0000000000000E-02 -7.0000000000000E-02 -7.0000000000000E-02 -7.0000000000000E-02 -7.0000000000000E-02 -7.0000000000000E-02 -7.0000000000000E-02 -7.0000000000000E-02 
 8.0911499769706E-01  8.0911499769706E-01  8.0911499769706E-01  8.0911499769706E-01  8.0911499769706E-01  8.0911499769706E-01  8.0911499769706E-01  8.0911499769706E-01  8.0911499769706E-01  8.0911499769706E-01 
 2.6811111111111E-05  5.3622222222222E-05  5.3622222222222E-05  5.3622222222222E-05  5.3622222222222E-05  5.3622222222222E-05  5.3622222222222E-05  5.3622222222223E-05  5.3622222222222E-05  2.6811111111111E-05 
 1.9088500230294E-01  1.9088500230294E-01  1.9088500230294E-01  1.9088500230294E-01  1.9088500230294E-01  1.9088500230294E-01  1.9088500230294E-01  1.9088500230294E-01  1.9088500230294E-01  1.9088500230294E-01 
 0.0000000000000E+00  0.0000000000000E+00  0.0000000000000E+00  0.0000000000000E+00  0.0000000000000E+00  0.0000000000000E+00  0.0000000000000E+00  0.0000000000000E+00  0.0000000000000E+00  0.0000000000000E+00 
 0.0000000000000E+00  0.0000000000000E+00  0.0000000000000E+00  0.0000000000000E+00  0.0000000000000E+00  0.0000000000000E+00  0.0000000000000E+00  0.0000000000000E+00  0.0000000000000E+00  0.0000000000000E+00 
 0.0000000000000E+00  0.0000000000000E+00  0.0000000000000E+00  0.0000000000000E+00  0.0000000000000E+00  0.0000000000000E+00  0.0000000000000E+00  0.0000000000000E+00  0.0000000000000E+00  0.0000000000000E+00 
 0.0000000000000E+00  0.0000000000000E+00  0.0000000000000E+00  0.0000000000000E+00  0.0000000000000E+00  0.0000000000000E+00  0.0000000000000E+00  0.0000000000000E+00  0.0000000000000E+00  0.0000000000000E+00 
ZONE T = "SEP , 1.0000E-08", I = 10, SOLUTIONTIME = 1.000000E-08
ZONETYPE = ORDERED
DATAPACKING = BLOCK
STRANDID = 2
 7.8740000000000E-04  8.4102222222222E-04  8.9464444444444E-04  9.4826666666667E-04  1.0018888888889E-03  1.0555111111111E-03  1.1091333333333E-03  1.1627555555556E-03  1.2163777777778E-03  1.2700000000000E-03 
 2.0862979328955E-08  2.0862979328955E-08  2.0862979328955E-08  2.0862979328955E-08  2.0862979328955E-08  2.0862979328955E-08  2.0862979328955E-08  2.0862979328955E-08  2.0862979328955E-08  1.9704888829756E-08 
 9.1999999999971E-01  9.2000000000000E-01  9.2000000000000E-01  9.2000000000000E-01  9.2000000000000E-01  9.2000000000000E-01  9.2000000000000E-01  9.2000000000000E-01  9.2000000000000E-01  9.2000000000032E-01 
 4.0000000000144E-02  4.0000000000000E-02  4.0000000000000E-02  4.0000000000000E-02  4.0000000000000E-02  4.0000000000000E-02  4.0000000000000E-02  4.0000000000000E-02  4.0000000000000E-02  3.9999999999841E-02 
 4.0000000000144E-02  4.0000000000000E-02  4.0000000000000E-02  4.0000000000000E-02  4.0000000000000E-02  4.0000000000000E-02  4.0000000000000E-02  4.0000000000000E-02  4.0000000000000E-02  3.9999999999841E-02 
 2.9166165132558E-02  2.9166115767933E-02  2.9166066403309E-02  2.9166017038675E-02  2.9165967674050E-02  2.9165918309412E-02  2.9165868944787E-02  2.9165819580162E-02  2.9165770215537E-02  2.9165720850913E-02 
 8.0911499769706E-01  8.0911499769706E-01  8.0911499769706E-01  8.0911499769706E-01  8.0911499769706E-01  8.0911499769706E-01  8.0911499769706E-01  8.0911499769706E-01  8.0911499769706E-01  8.0911499769706E-01 
 2.6811111111111E-05  5.3622222222222E-05  5.3622222222222E-05  5.3622222222222E-05  5.3622222222222E-05  5.3622222222222E-05  5.3622222222222E-05  5.3622222222223E-05  5.3622222222222E-05  2.6811111111111E-05 
 1.9088500230294E-01  1.9088500230294E-01  1.9088500230294E-01  1.9088500230294E-01  1.9088500230294E-01  1.9088500230294E-01  1.9088500230294E-01  1.9088500230294E-01  1.9088500230294E-01  1.9088500230294E-01 
 2.7658350618593E-10  2.7658350540812E-10  2.7658356088637E-10  2.7658356415210E-10  2.7658358751761E-10  2.7658358998635E-10  2.7658351036478E-10  2.7658350814875E-10  2.7658351209457E-10  2.7658351252195E-10 
 2.7658350618593E-02  2.7658350540812E-02  2.7658356088637E-02  2.7658356415210E-02  2.7658358751761E-02  2.7658358998635E-02  2.7658351036478E-02  2.7658350814875E-02  2.7658351209457E-02  2.7658351252195E-02 
 2.7658350618593E-02  2.7658350540812E-02  2.7658356088637E-02  2.7658356415210E-02  2.7658358751761E-02  2.7658358998635E-02  2.7658351036478E-02  2.7658350814875E-02  2.7658351209457E-02  2.7658351252195E-02 
 0.0000000000000E+00  0.0000000000000E+00  0.0000000000000E+00  0.0000000000000E+00  0.0000000000000E+00  0.0000000000000E+00  0.0000000000000E+00  0.0000000000000E+00  0.0000000000000E+00  0.0000000000000E+00 
ZONE T = "SEP , 2.0000E-08", I = 10, SOLUTIONTIME = 2.000000E-08
ZONETYPE = ORDERED
DATAPACKING = BLOCK
STRANDID = 2
 7.8740000000000E-04  8.4102222222222E-04  8.9464444444444E-04  9.4826666666667E-04  1.0018888888889E-03  1.0555111111111E-03  1.1091333333333E-03  1.1627555555556E-03  1.2163777777778E-03  1.2700000000000E-03 
 2.0860903518583E-08  2.0859450687671E-08  2.0859450687671E-08  2.0859450687671E-08  2.0859450687671E-08  2.0859450687671E-08  2.0859450687671E-08  2.0859450687671E-08  2.0859450687671E-08  1.9701717754324E-08 
 9.1999999999942E-01  9.2000000000000E-01  9.2000000000000E-01  9.2000000000000E-01  9.2000000000000E-01  9.2000000000000E-01  9.2000000000000E-01  9.2000000000000E-01  9.2000000000000E-01  9.2000000000063E-01 
 4.0000000000288E-02  4.0000000000000E-02  4.0000000000000E-02  4.0000000000000E-02  4.0000000000000E-02  4.0000000000000E-02  4.0000000000000E-02  4.0000000000000E-02  4.0000000000000E-02  3.9999999999683E-02 
 4.0000000000288E-02  4.0000000000000E-02  4.0000000000000E-02  4.0000000000000E-02  4.0000000000000E-02  4.0000000000000E-02  4.0000000000000E-02  4.0000000000000E-02  4.0000000000000E-02  3.9999999999683E-02 
 2.9166167321633E-02  2.9166117956760E-02  2.9166068591888E-02  2.9166019227015E-02  2.9165969862143E-02  2.9165920497270E-02  2.9165871132398E-02  2.9165821767525E-02  2.9165772402652E-02  2.9165723037780E-02 
 8.0911499769706E-01  8.0911499769706E-01  8.0911499769706E-01  8.0911499769706E-01  8.0911499769706E-01  8.0911499769706E-01  8.0911499769706E-01  8.0911499769706E-01  8.0911499769706E-01  8.0911499769706E-01 
 2.6811111111111E-05  5.3622222222222E-05  5.3622222222222E-05  5.3622222222222E-05  5.3622222222222E-05  5.3622222222222E-05  5.3622222222222E-05  5.3622222222223E-05  5.3622222222222E-05  2.6811111111111E-05 
 1.9088500230294E-01  1.9088500230294E-01  1.9088500230294E-01  1.9088500230294E-01  1.9088500230294E-01  1.9088500230294E-01  1.9088500230294E-01  1.9088500230294E-01  1.9088500230294E-01  1.9088500230294E-01 
 5.5316979392407E-10  5.5316979316520E-10  5.5316984864296E-10  5.5316985190868E-10  5.5316987527419E-10  5.5316987774293E-10  5.5316979812137E-10  5.5316979590533E-10  5.5316979987004E-10  5.5316980029687E-10 
 2.7658628773814E-02  2.7658628775708E-02  2.7658628775658E-02  2.7658628775658E-02  2.7658628775658E-02  2.7658628775658E-02  2.7658628775658E-02  2.7658628775658E-02  2.7658628777547E-02  2.7658628777492E-02 
 2.7658628773814E-02  2.7658628775708E-02  2.7658628775658E-02  2.7658628775658E-02  2.7658628775658E-02  2.7658628775658E-02  2.7658628775658E-02  2.7658628775658E-02  2.7658628777547E-02  2.7658628777492E-02 
 0.0000000000000E+00  0.0000000000000E+00  0.0000000000000E+00  0.0000000000000E+00  0.0000000000000E+00  0.0000000000000E+00  0.0000000000000E+00  0.0000000000000E+00  0.0000000000000E+00  0.0000000000000E+00 
ZONE T = "SEP , 3.0000E-08", I = 10, SOLUTIONTIME = 3.000000E-08
ZONETYPE = ORDERED
DATAPACKING = BLOCK
STRANDID = 2
 7.8740000000000E-04  8.4102222222222E-04  8.9464444444444E-04  9.4826666666667E-04  1.0018888888889E-03  1.0555111111111E-03  1.1091333333333E-03  1.1627555555556E-03  1.2163777777778E-03  1.2700000000000E-03 
 2.0865988426345E-08  2.0867441257256E-08  2.0867441257256E-08  2.0867441257256E-08  2.0867441257256E-08  2.0867441257256E-08  2.0867441257256E-08  2.0867441257256E-08  2.0867441257256E-08  1.9708981908469E-08 
 9.1999999999914E-01  9.2000000000000E-01  9.2000000000000E-01  9.2000000000000E-01  9.2000000000000E-01  9.2000000000000E-01  9.2000000000000E-01  9.2000000000000E-01  9.2000000000000E-01  9.2000000000095E-01 
 4.0000000000432E-02  4.0000000000000E-02  4.0000000000000E-02  4.0000000000000E-02  4.0000000000000E-02  4.0000000000000E-02  4.0000000000000E-02  4.0000000000000E-02  4.0000000000000E-02  3.9999999999524E-02 
 4.0000000000432E-02  4.0000000000000E-02  4.0000000000000E-02  4.0000000000000E-02  4.0000000000000E-02  4.0000000000000E-02  4.0000000000000E-02  4.0000000000000E-02  4.0000000000000E-02  3.9999999999524E-02 
 2.9166167321269E-02  2.9166117956397E-02  2.9166068591524E-02  2.9166019226652E-02  2.9165969861779E-02  2.9165920496906E-02  2.9165871132034E-02  2.9165821767161E-02  2.9165772402289E-02  2.9165723037416E-02 
 8.0911499769706E-01  8.0911499769706E-01  8.0911499769706E-01  8.0911499769706E-01  8.0911499769706E-01  8.0911499769706E-01  8.0911499769706E-01  8.0911499769706E-01  8.0911499769706E-01  8.0911499769706E-01 
 2.6811111111111E-05  5.3622222222222E-05  5.3622222222222E-05  5.3622222222222E-05  5.3622222222222E-05  5.3622222222222E-05  5.3622222222222E-05  5.3622222222223E-05  5.3622222222222E-05  2.6811111111111E-05 
 1.9088500230294E-01  1.9088500230294E-01  1.9088500230294E-01  1.9088500230294E-01  1.9088500230294E-01  1.9088500230294E-01  1.9088500230294E-01  1.9088500230294E-01  1.9088500230294E-01  1.9088500230294E-01 
 8.2975608170158E-10  8.2975608092253E-10  8.2975613638010E-10  8.2975613964583E-10  8.2975616301133E-10  8.2975616549951E-10  8.2975608587795E-10  8.2975608364247E-10  8.2975608760636E-10  8.2975608803237E-10 
 2.7658628777751E-02  2.7658628775733E-02  2.7658628773714E-02  2.7658628773714E-02  2.7658628773714E-02  2.7658628775658E-02  2.7658628775658E-02  2.7658628773714E-02  2.7658628773632E-02  2.7658628773550E-02 
 2.7658628777751E-02  2.7658628775733E-02  2.7658628773714E-02  2.7658628773714E-02  2.7658628773714E-02  2.7658628775658E-02  2.7658628775658E-02  2.7658628773714E-02  2.7658628773632E-02  2.7658628773550E-02 
 0.0000000000000E+00  0.0000000000000E+00  0.0000000000000E+00  0.0000000000000E+00  0.0000000000000E+00  0.0000000000000E+00  0.0000000000000E+00  0.0000000000000E+00  0.0000000000000E+00  0.0000000000000E+00 
ZONE T = "SEP , 4.0000E-08", I = 10, SOLUTIONTIME = 4.000000E-08
ZONETYPE = ORDERED
DATAPACKING = BLOCK
STRANDID = 2
 7.8740000000000E-04  8.4102222222222E-04  8.9464444444444E-04  9.4826666666667E-04  1.0018888888889E-03  1.0555111111111E-03  1.1091333333333E-03  1.1627555555556E-03  1.2163777777778E-03  1.2700000000000E-03 
 2.0858724271362E-08  2.0858724271362E-08  2.0858724271362E-08  2.0858724271362E-08  2.0858724271362E-08  2.0858724271362E-08  2.0858724271362E-08  2.0858724271362E-08  2.0858724271362E-08  1.9702080961229E-08 
 9.1999999999885E-01  9.2000000000000E-01  9.2000000000000E-01  9.2000000000000E-01  9.2000000000000E-01  9.2000000000000E-01  9.2000000000000E-01  9.2000000000000E-01  9.2000000000000E-01  9.2000000000127E-01 
 4.0000000000576E-02  4.0000000000000E-02  4.0000000000000E-02  4.0000000000000E-02  4.0000000000000E-02  4.0000000000000E-02  4.0000000000000E-02  4.0000000000000E-02  4.0000000000000E-02  3.9999999999365E-02 
 4.0000000000576E-02  4.0000000000000E-02  4.0000000000000E-02  4.0000000000000E-02  4.0000000000000E-02  4.0000000000000E-02  4.0000000000000E-02  4.0000000000000E-02  4.0000000000000E-02  3.9999999999365E-02 
 2.9166167320904E-02  2.9166117956031E-02  2.9166068591159E-02  2.9166019226286E-02  2.9165969861414E-02  2.9165920496541E-02  2.9165871131668E-02  2.9165821766796E-02  2.9165772401923E-02  2.9165723037051E-02 
 8.0911499769706E-01  8.0911499769706E-01  8.0911499769706E-01  8.0911499769706E-01  8.0911499769706E-01  8.0911499769706E-01  8.0911499769706E-01  8.0911499769706E-01  8.0911499769706E-01  8.0911499769706E-01 
 2.6811111111111E-05  5.3622222222222E-05  5.3622222222222E-05  5.3622222222222E-05  5.3622222222222E-05  5.3622222222222E-05  5.3622222222222E-05  5.3622222222223E-05  5.3622222222222E-05  2.6811111111111E-05 
 1.9088500230294E-01  1.9088500230294E-01  1.9088500230294E-01  1.9088500230294E-01  1.9088500230294E-01  1.9088500230294E-01  1.9088500230294E-01  1.9088500230294E-01  1.9088500230294E-01  1.9088500230294E-01 
 1.1063423694407E-09  1.1063423686607E-09  1.1063424241172E-09  1.1063424273830E-09  1.1063424507485E-09  1.1063424532367E-09  1.1063423736151E-09  1.1063423713796E-09  1.1063423753424E-09  1.1063423757673E-09 
 2.7658628773914E-02  2.7658628773814E-02  2.7658628773714E-02  2.7658628773714E-02  2.7658628773714E-02  2.7658628773714E-02  2.7658628773714E-02  2.7658628773714E-02  2.7658628773604E-02  2.7658628773495E-02 
 2.7658628773914E-02  2.7658628773814E-02  2.7658628773714E-02  2.7658628773714E-02  2.7658628773714E-02  2.7658628773714E-02  2.7658628773714E-02  2.7658628773714E-02  2.7658628773604E-02  2.7658628773495E-02 
 0.0000000000000E+00  0.0000000000000E+00  0.0000000000000E+00  0.0000000000000E+00  0.0000000000000E+00  0.0000000000000E+00  0.0000000000000E+00  0.0000000000000E+00  0.0000000000000E+00  0.0000000000000E+00 
ZONE T = "SEP , 5.5000E-08", I = 10, SOLUTIONTIME = 5.500000E-08
ZONETYPE = ORDERED
DATAPACKING = BLOCK
STRANDID = 2
 7.8740000000000E-04  8.4102222222222E-04  8.9464444444444E-04  9.4826666666667E-04  1.0018888888889E-03  1.0555111111111E-03  1.1091333333333E-03  1.1627555555556E-03  1.2163777777778E-03  1.2700000000000E-03 
 2.0864172386822E-08  2.0864172386822E-08  2.0864172386822E-08  2.0864172386822E-08  2.0864172386822E-08  2.0864172386822E-08  2.0864172386822E-08  2.0864172386822E-08  2.0864172386822E-08  1.9705834107310E-08 
 9.1999999999842E-01  9.2000000000000E-01  9.2000000000000E-01  9.2000000000000E-01  9.2000000000000E-01  9.2000000000000E-01  9.2000000000000E-01  9.2000000000000E-01  9.2000000000000E-01  9.2000000000175E-01 
 4.0000000000792E-02  4.0000000000000E-02  4.0000000000000E-02  4.0000000000000E-02  4.0000000000000E-02  4.0000000000000E-02  4.0000000000000E-02  4.0000000000000E-02  4.0000000000000E-02  3.9999999999127E-02 
 4.0000000000792E-02  4.0000000000000E-02  4.0000000000000E-02  4.0000000000000E-02  4.0000000000000E-02  4.0000000000000E-02  4.0000000000000E-02  4.0000000000000E-02  4.0000000000000E-02  3.9999999999127E-02 
 2.9166167320485E-02  2.9166117955613E-02  2.9166068590740E-02  2.9166019225867E-02  2.9165969860995E-02  2.9165920496122E-02  2.9165871131250E-02  2.9165821766377E-02  2.9165772401504E-02  2.9165723036632E-02 
 8.0911499769706E-01  8.0911499769706E-01  8.0911499769706E-01  8.0911499769706E-01  8.0911499769706E-01  8.0911499769706E-01  8.0911499769706E-01  8.0911499769706E-01  8.0911499769706E-01  8.0911499769706E-01 
 2.6811111111111E-05  5.3622222222222E-05  5.3622222222222E-05  5.3622222222222E-05  5.3622222222222E-05  5.3622222222222E-05  5.3622222222222E-05  5.3622222222223E-05  5.3622222222222E-05  2.6811111111111E-05 
 1.9088500230294E-01  1.9088500230294E-01  1.9088500230294E-01  1.9088500230294E-01  1.9088500230294E-01  1.9088500230294E-01  1.9088500230294E-01  1.9088500230294E-01  1.9088500230294E-01  1.9088500230294E-01 
 1.5212218009922E-09  1.5212218002393E-09  1.5212218557230E-09  1.5212218589595E-09  1.5212218823250E-09  1.5212218848424E-09  1.5212218051916E-09  1.5212218029562E-09  1.5212218069459E-09  1.5212218073685E-09 
 2.7658628770100E-02  2.7658628771907E-02  2.7658628773714E-02  2.7658628771770E-02  2.7658628771770E-02  2.7658628773714E-02  2.7658628771770E-02  2.7658628771770E-02  2.7658628773563E-02  2.7658628773412E-02 
 2.7658628770100E-02  2.7658628771907E-02  2.7658628773714E-02  2.7658628771770E-02  2.7658628771770E-02  2.7658628773714E-02  2.7658628771770E-02  2.7658628771770E-02  2.7658628773563E-02  2.7658628773412E-02 
 0.0000000000000E+00  0.0000000000000E+00  0.0000000000000E+00  0.0000000000000E+00  0.0000000000000E+00  0.0000000000000E+00  0.0000000000000E+00  0.0000000000000E+00  0.0000000000000E+00  0.0000000000000E+00 
ZONE T = "SEP , 7.7500E-08", I = 10, SOLUTIONTIME = 7.750000E-08
ZONETYPE = ORDERED
DATAPACKING = BLOCK
STRANDID = 2
 7.8740000000000E-04  8.4102222222222E-04  8.9464444444444E-04  9.4826666666667E-04  1.0018888888889E-03  1.0555111111111E-03  1.1091333333333E-03  1.1627555555556E-03  1.2163777777778E-03  1.2700000000000E-03 
 2.0861266724251E-08  2.0861266724251E-08  2.0861266724251E-08  2.0861266724251E-08  2.0861266724251E-08  2.0861266724251E-08  2.0861266724251E-08  2.0861266724251E-08  2.0861266724251E-08  1.9704179493608E-08 
 9.1999999999777E-01  9.2000000000000E-01  9.2000000000000E-01  9.2000000000000E-01  9.2000000000000E-01  9.2000000000000E-01  9.2000000000000E-01  9.2000000000000E-01  9.2000000000000E-01  9.2000000000246E-01 
 4.0000000001117E-02  4.0000000000000E-02  4.0000000000000E-02  4.0000000000000E-02  4.0000000000000E-02  4.0000000000000E-02  4.0000000000000E-02  4.0000000000000E-02  4.0000000000000E-02  3.9999999998770E-02 
 4.0000000001117E-02  4.0000000000000E-02  4.0000000000000E-02  4.0000000000000E-02  4.0000000000000E-02  4.0000000000000E-02  4.0000000000000E-02  4.0000000000000E-02  4.0000000000000E-02  3.9999999998770E-02 
 2.9166167319747E-02  2.9166117954874E-02  2.9166068590001E-02  2.9166019225129E-02  2.9165969860256E-02  2.9165920495384E-02  2.9165871130511E-02  2.9165821765638E-02  2.9165772400766E-02  2.9165723035893E-02 
 8.0911499769706E-01  8.0911499769706E-01  8.0911499769706E-01  8.0911499769706E-01  8.0911499769706E-01  8.0911499769706E-01  8.0911499769706E-01  8.0911499769706E-01  8.0911499769706E-01  8.0911499769706E-01 
 2.6811111111111E-05  5.3622222222222E-05  5.3622222222222E-05  5.3622222222222E-05  5.3622222222222E-05  5.3622222222222E-05  5.3622222222222E-05  5.3622222222223E-05  5.3622222222222E-05  2.6811111111111E-05 
 1.9088500230294E-01  1.9088500230294E-01  1.9088500230294E-01  1.9088500230294E-01  1.9088500230294E-01  1.9088500230294E-01  1.9088500230294E-01  1.9088500230294E-01  1.9088500230294E-01  1.9088500230294E-01 
 2.1435409483220E-09  2.1435409475647E-09  2.1435410030440E-09  2.1435410062806E-09  2.1435410296461E-09  2.1435410321635E-09  2.1435409525127E-09  2.1435409502772E-09  2.1435409543059E-09  2.1435409547675E-09 
 2.7658628770213E-02  2.7658628770019E-02  2.7658628769826E-02  2.7658628769826E-02  2.7658628769826E-02  2.7658628769826E-02  2.7658628769826E-02  2.7658628769826E-02  2.7658628771558E-02  2.7658628773289E-02 
 2.7658628770213E-02  2.7658628770019E-02  2.7658628769826E-02  2.7658628769826E-02  2.7658628769826E-02  2.7658628769826E-02  2.7658628769826E-02  2.7658628769826E-02  2.7658628771558E-02  2.7658628773289E-02 
 0.0000000000000E+00  0.0000000000000E+00  0.0000000000000E+00  0.0000000000000E+00  0.0000000000000E+00  0.0000000000000E+00  0.0000000000000E+00  0.0000000000000E+00  0.0000000000000E+00  0.0000000000000E+00 
ZONE T = "SEP , 1.1125E-07", I = 10, SOLUTIONTIME = 1.112500E-07
ZONETYPE = ORDERED
DATAPACKING = BLOCK
STRANDID = 2
 7.8740000000000E-04  8.4102222222222E-04  8.9464444444444E-04  9.4826666666667E-04  1.0018888888889E-03  1.0555111111111E-03  1.1091333333333E-03  1.1627555555556E-03  1.2163777777778E-03  1.2700000000000E-03 
 2.0862934788249E-08  2.0862934788249E-08  2.0862934788249E-08  2.0862934788249E-08  2.0862934788249E-08  2.0862934788249E-08  2.0862934788249E-08  2.0862934788249E-08  2.0862934788249E-08  1.9704932812262E-08 
 9.1999999999679E-01  9.2000000000000E-01  9.2000000000000E-01  9.2000000000000E-01  9.2000000000000E-01  9.2000000000000E-01  9.2000000000000E-01  9.2000000000000E-01  9.2000000000000E-01  9.2000000000353E-01 
 4.0000000001603E-02  4.0000000000000E-02  4.0000000000000E-02  4.0000000000000E-02  4.0000000000000E-02  4.0000000000000E-02  4.0000000000000E-02  4.0000000000000E-02  4.0000000000000E-02  3.9999999998234E-02 
 4.0000000001603E-02  4.0000000000000E-02  4.0000000000000E-02  4.0000000000000E-02  4.0000000000000E-02  4.0000000000000E-02  4.0000000000000E-02  4.0000000000000E-02  4.0000000000000E-02  3.9999999998234E-02 
 2.9166167318642E-02  2.9166117953769E-02  2.9166068588897E-02  2.9166019224024E-02  2.9165969859152E-02  2.9165920494279E-02  2.9165871129406E-02  2.9165821764534E-02  2.9165772399661E-02  2.9165723034789E-02 
 8.0911499769706E-01  8.0911499769706E-01  8.0911499769706E-01  8.0911499769706E-01  8.0911499769706E-01  8.0911499769706E-01  8.0911499769706E-01  8.0911499769706E-01  8.0911499769706E-01  8.0911499769706E-01 
 2.6811111111111E-05  5.3622222222222E-05  5.3622222222222E-05  5.3622222222222E-05  5.3622222222222E-05  5.3622222222222E-05  5.3622222222222E-05  5.3622222222223E-05  5.3622222222222E-05  2.6811111111111E-05 
 1.9088500230294E-01  1.9088500230294E-01  1.9088500230294E-01  1.9088500230294E-01  1.9088500230294E-01  1.9088500230294E-01  1.9088500230294E-01  1.9088500230294E-01  1.9088500230294E-01  1.9088500230294E-01 
 3.0770196691911E-09  3.0770196684245E-09  3.0770197238945E-09  3.0770197271967E-09  3.0770197505622E-09  3.0770197530139E-09  3.0770196734288E-09  3.0770196711933E-09  3.0770196752116E-09  3.0770196757285E-09 
 2.7658628766493E-02  2.7658628766216E-02  2.7658628765939E-02  2.7658628767883E-02  2.7658628767882E-02  2.7658628765939E-02  2.7658628767883E-02  2.7658628767882E-02  2.7658628767577E-02  2.7658628769216E-02 
 2.7658628766493E-02  2.7658628766216E-02  2.7658628765939E-02  2.7658628767883E-02  2.7658628767882E-02  2.7658628765939E-02  2.7658628767883E-02  2.7658628767882E-02  2.7658628767577E-02  2.7658628769216E-02 
 0.0000000000000E+00  0.0000000000000E+00  0.0000000000000E+00  0.0000000000000E+00  0.0000000000000E+00  0.0000000000000E+00  0.0000000000000E+00  0.0000000000000E+00  0.0000000000000E+00  0.0000000000000E+00 
ZONE T = "SEP , 1.6188E-07", I = 10, SOLUTIONTIME = 1.618750E-07
ZONETYPE = ORDERED
DATAPACKING = BLOCK
STRANDID = 2
 7.8740000000000E-04  8.4102222222222E-04  8.9464444444444E-04  9.4826666666667E-04  1.0018888888889E-03  1.0555111111111E-03  1.1091333333333E-03  1.1627555555556E-03  1.2163777777778E-03  1.2700000000000E-03 
 2.0863795723402E-08  2.0863795723402E-08  2.0863795723402E-08  2.0863795723402E-08  2.0863795723402E-08  2.0863795723402E-08  2.0863795723402E-08  2.0863795723402E-08  2.0863795723402E-08  1.9706062790243E-08 
 9.1999999999534E-01  9.2000000000000E-01  9.2000000000000E-01  9.2000000000000E-01  9.2000000000000E-01  9.2000000000000E-01  9.2000000000000E-01  9.2000000000000E-01  9.2000000000000E-01  9.2000000000514E-01 
 4.0000000002332E-02  4.0000000000001E-02  4.0000000000000E-02  4.0000000000000E-02  4.0000000000000E-02  4.0000000000000E-02  4.0000000000000E-02  4.0000000000000E-02  3.9999999999999E-02  3.9999999997431E-02 
 4.0000000002332E-02  4.0000000000001E-02  4.0000000000000E-02  4.0000000000000E-02  4.0000000000000E-02  4.0000000000000E-02  4.0000000000000E-02  4.0000000000000E-02  3.9999999999999E-02  3.9999999997431E-02 
 2.9166167316985E-02  2.9166117952112E-02  2.9166068587239E-02  2.9166019222367E-02  2.9165969857494E-02  2.9165920492622E-02  2.9165871127749E-02  2.9165821762877E-02  2.9165772398004E-02  2.9165723033131E-02 
 8.0911499769706E-01  8.0911499769706E-01  8.0911499769706E-01  8.0911499769706E-01  8.0911499769706E-01  8.0911499769706E-01  8.0911499769706E-01  8.0911499769706E-01  8.0911499769706E-01  8.0911499769706E-01 
 2.6811111111111E-05  5.3622222222222E-05  5.3622222222222E-05  5.3622222222222E-05  5.3622222222222E-05  5.3622222222222E-05  5.3622222222222E-05  5.3622222222223E-05  5.3622222222222E-05  2.6811111111111E-05 
 1.9088500230294E-01  1.9088500230294E-01  1.9088500230294E-01  1.9088500230294E-01  1.9088500230294E-01  1.9088500230294E-01  1.9088500230294E-01  1.9088500230294E-01  1.9088500230294E-01  1.9088500230294E-01 
 4.4772377501140E-09  4.4772377495237E-09  4.4772378050717E-09  4.4772378082755E-09  4.4772378316410E-09  4.4772378340927E-09  4.4772377546060E-09  4.4772377523705E-09  4.4772377562680E-09  4.4772377567624E-09 
 2.7658628758970E-02  2.7658628762454E-02  2.7658628763995E-02  2.7658628762051E-02  2.7658628762051E-02  2.7658628762051E-02  2.7658628763995E-02  2.7658628763994E-02  2.7658628761606E-02  2.7658628761162E-02 
 2.7658628758970E-02  2.7658628762454E-02  2.7658628763995E-02  2.7658628762051E-02  2.7658628762051E-02  2.7658628762051E-02  2.7658628763995E-02  2.7658628763994E-02  2.7658628761606E-02  2.7658628761162E-02 
 0.0000000000000E+00  0.0000000000000E+00  0.0000000000000E+00  0.0000000000000E+00  0.0000000000000E+00  0.0000000000000E+00  0.0000000000000E+00  0.0000000000000E+00  0.0000000000000E+00  0.0000000000000E+00 
ZONE T = "SEP , 2.3781E-07", I = 10, SOLUTIONTIME = 2.378125E-07
ZONETYPE = ORDERED
DATAPACKING = BLOCK
STRANDID = 2
 7.8740000000000E-04  8.4102222222222E-04  8.9464444444444E-04  9.4826666666667E-04  1.0018888888889E-03  1.0555111111111E-03  1.1091333333333E-03  1.1627555555556E-03  1.2163777777778E-03  1.2700000000000E-03 
 2.0862480400711E-08  2.0862767379656E-08  2.0862767379656E-08  2.0862767379656E-08  2.0862767379656E-08  2.0862767379656E-08  2.0862767379656E-08  2.0862767379656E-08  2.0862671720008E-08  1.9704986616773E-08 
 9.1999999999315E-01  9.2000000000000E-01  9.2000000000000E-01  9.2000000000000E-01  9.2000000000000E-01  9.2000000000000E-01  9.2000000000000E-01  9.2000000000000E-01  9.2000000000000E-01  9.2000000000755E-01 
 4.0000000003425E-02  4.0000000000002E-02  4.0000000000000E-02  4.0000000000000E-02  4.0000000000000E-02  4.0000000000000E-02  4.0000000000000E-02  4.0000000000000E-02  3.9999999999998E-02  3.9999999996226E-02 
 4.0000000003425E-02  4.0000000000002E-02  4.0000000000000E-02  4.0000000000000E-02  4.0000000000000E-02  4.0000000000000E-02  4.0000000000000E-02  4.0000000000000E-02  3.9999999999998E-02  3.9999999996226E-02 
 2.9166167314498E-02  2.9166117949625E-02  2.9166068584753E-02  2.9166019219880E-02  2.9165969855008E-02  2.9165920490135E-02  2.9165871125262E-02  2.9165821760390E-02  2.9165772395517E-02  2.9165723030645E-02 
 8.0911499769706E-01  8.0911499769706E-01  8.0911499769706E-01  8.0911499769706E-01  8.0911499769706E-01  8.0911499769706E-01  8.0911499769706E-01  8.0911499769706E-01  8.0911499769706E-01  8.0911499769706E-01 
 2.6811111111111E-05  5.3622222222222E-05  5.3622222222222E-05  5.3622222222222E-05  5.3622222222222E-05  5.3622222222222E-05  5.3622222222222E-05  5.3622222222223E-05  5.3622222222222E-05  2.6811111111111E-05 
 1.9088500230294E-01  1.9088500230294E-01  1.9088500230294E-01  1.9088500230294E-01  1.9088500230294E-01  1.9088500230294E-01  1.9088500230294E-01  1.9088500230294E-01  1.9088500230294E-01  1.9088500230294E-01 
 6.5775648712317E-09  6.5775648707441E-09  6.5775649262471E-09  6.5775649294509E-09  6.5775649528164E-09  6.5775649552681E-09  6.5775648757814E-09  6.5775648735458E-09  6.5775648775414E-09  6.5775648779863E-09 
 2.7658628755460E-02  2.7658628756812E-02  2.7658628756219E-02  2.7658628756219E-02  2.7658628756219E-02  2.7658628756219E-02  2.7658628756219E-02  2.7658628756219E-02  2.7658628757510E-02  2.7658628756858E-02 
 2.7658628755460E-02  2.7658628756812E-02  2.7658628756219E-02  2.7658628756219E-02  2.7658628756219E-02  2.7658628756219E-02  2.7658628756219E-02  2.7658628756219E-02  2.7658628757510E-02  2.7658628756858E-02 
 0.0000000000000E+00  0.0000000000000E+00  0.0000000000000E+00  0.0000000000000E+00  0.0000000000000E+00  0.0000000000000E+00  0.0000000000000E+00  0.0000000000000E+00  0.0000000000000E+00  0.0000000000000E+00 
ZONE T = "SEP , 3.5172E-07", I = 10, SOLUTIONTIME = 3.517188E-07
ZONETYPE = ORDERED
DATAPACKING = BLOCK
STRANDID = 2
 7.8740000000000E-04  8.4102222222222E-04  8.9464444444444E-04  9.4826666666667E-04  1.0018888888889E-03  1.0555111111111E-03  1.1091333333333E-03  1.1627555555556E-03  1.2163777777778E-03  1.2700000000000E-03 
 2.0862751432594E-08  2.0862687659495E-08  2.0862687659495E-08  2.0862687659495E-08  2.0862687659495E-08  2.0862687659495E-08  2.0862687659495E-08  2.0862687659495E-08  2.0862687659495E-08  1.9704954726585E-08 
 9.1999999998987E-01  9.1999999999999E-01  9.2000000000000E-01  9.2000000000000E-01  9.2000000000000E-01  9.2000000000000E-01  9.2000000000000E-01  9.2000000000000E-01  9.2000000000001E-01  9.2000000001116E-01 
 4.0000000005065E-02  4.0000000000003E-02  4.0000000000000E-02  4.0000000000000E-02  4.0000000000000E-02  4.0000000000000E-02  4.0000000000000E-02  4.0000000000000E-02  3.9999999999996E-02  3.9999999994419E-02 