TITLE = "Solution on Domain BulkDomain1D_0"
VARIABLES = "x [m]"  
"Vel_axial" 
"MF_sp(ECDMC)" 
"MF_sp(Li+)" 
"MF_sp(PF6-)" 
"Volt(Electroly)" 
"Volt(AnodeVolt)" 
"Potential Drop Electrode-Electrolyte [V]" 
"Surf_0 Equilibrium Potential Drop Electrode-Electrolyte [V]" 
"Overpotential_0 [V]" 
"Current Source [A/m^2]" 
"Li+ flux [kmol/m^2/s]" 
"Electrolyte Current [A/m^2]" 
"Electrode Current [A/m^2]" 
"CV Capacity discharged [A-s/m^2]" 
"Depth of discharge in CV [A-s/m^2]" 
"CV Capacity remaining [A-s/m^2]" 
"Initial CV capacity [A-s/m^2]" 
"Porosity []" 
"Surface Area [m2/m2] (area per area)" 
"Specific current (per particle area) [A/m^2]" 
"Control volume thickness [m]" 
"MoleDens Li_C6-bulk [kmol/m^3]" 
"MoleDens V_C6-bulk [kmol/m^3]" 
"qHeat_accum [J/m3]" 
"qHeat_step [W/m3]" 
"Joule_Lyte [W/m3]" 
"Joule_Solid [W/m3]" 
"electrodHeat [W/m3]" 
"OverpotHeat [W/m3]" 
"deltaSHeat [W/m3]" 

ZONE T = "ANOD, 0.0000E+00", I = 10, SOLUTIONTIME = 0.000000E+00
ZONETYPE = ORDERED
DATAPACKING = BLOCK
STRANDID = 1
 0.0000000000000E+00  8.7488888888889E-05  1.7497777777778E-04  2.6246666666667E-04  3.4995555555556E-04  4.3744444444444E-04  5.2493333333333E-04  6.1242222222222E-04  6.9991111111111E-04  7.8740000000000E-04 
 0.0000000000000E+00  0.0000000000000E+00  0.0000000000000E+00  0.0000000000000E+00  0.0000000000000E+00  0.0000000000000E+00  0.0000000000000E+00  0.0000000000000E+00  0.0000000000000E+00  0.0000000000000E+00 
 9.2000000000000E-01  9.2000000000000E-01  9.2000000000000E-01  9.2000000000000E-01  9.2000000000000E-01  9.2000000000000E-01  9.2000000000000E-01  9.2000000000000E-01  9.2000000000000E-01  9.2000000000000E-01 
 4.0000000000000E-02  4.0000000000000E-02  4.0000000000000E-02  4.0000000000000E-02  4.0000000000000E-02  4.0000000000000E-02  4.0000000000000E-02  4.0000000000000E-02  4.0000000000000E-02  4.0000000000000E-02 
 4.0000000000000E-02  4.0000000000000E-02  4.0000000000000E-02  4.0000000000000E-02  4.0000000000000E-02  4.0000000000000E-02  4.0000000000000E-02  4.0000000000000E-02  4.0000000000000E-02  4.0000000000000E-02 
-7.0000000000000E-02 -7.0000000000000E-02 -7.0000000000000E-02 -7.0000000000000E-02 -7.0000000000000E-02 -7.0000000000000E-02 -7.0000000000000E-02 -7.0000000000000E-02 -7.0000000000000E-02 -7.0000000000000E-02 
 0.0000000000000E+00  0.0000000000000E+00  0.0000000000000E+00  0.0000000000000E+00  0.0000000000000E+00  0.0000000000000E+00  0.0000000000000E+00  0.0000000000000E+00  0.0000000000000E+00  0.0000000000000E+00 
 7.0000000000000E-02  7.0000000000000E-02  7.0000000000000E-02  7.0000000000000E-02  7.0000000000000E-02  7.0000000000000E-02  7.0000000000000E-02  7.0000000000000E-02  7.0000000000000E-02  7.0000000000000E-02 
-4.0906712753391E-02 -4.0906712753391E-02 -4.0906712753391E-02 -4.0906712753391E-02 -4.0906712753391E-02 -4.0906712753391E-02 -4.0906712753391E-02 -4.0906712753391E-02 -4.0906712753391E-02 -4.0906712753391E-02 
 1.1090671275339E-01  1.1090671275339E-01  1.1090671275339E-01  1.1090671275339E-01  1.1090671275339E-01  1.1090671275339E-01  1.1090671275339E-01  1.1090671275339E-01  1.1090671275339E-01  1.1090671275339E-01 
 3.0930240924008E+01  6.1860481848017E+01  6.1860481848017E+01  6.1860481848017E+01  6.1860481848017E+01  6.1860481848017E+01  6.1860481848017E+01  6.1860481848017E+01  6.1860481848017E+01  3.0930240924008E+01 
-0.0000000000000E+00 -0.0000000000000E+00 -0.0000000000000E+00 -0.0000000000000E+00 -0.0000000000000E+00 -0.0000000000000E+00 -0.0000000000000E+00 -0.0000000000000E+00 -0.0000000000000E+00 -0.0000000000000E+00 
 0.0000000000000E+00  0.0000000000000E+00  0.0000000000000E+00  0.0000000000000E+00  0.0000000000000E+00  0.0000000000000E+00  0.0000000000000E+00  0.0000000000000E+00  0.0000000000000E+00  3.0930240924008E+01 
 3.0930240924008E+01 -0.0000000000000E+00 -0.0000000000000E+00 -0.0000000000000E+00 -0.0000000000000E+00 -0.0000000000000E+00 -0.0000000000000E+00 -0.0000000000000E+00 -0.0000000000000E+00  0.0000000000000E+00 
 0.0000000000000E+00  0.0000000000000E+00  0.0000000000000E+00  0.0000000000000E+00  0.0000000000000E+00  0.0000000000000E+00  0.0000000000000E+00  0.0000000000000E+00  0.0000000000000E+00  0.0000000000000E+00 
 7.0592160225764E+03  1.4118432045153E+04  1.4118432045153E+04  1.4118432045153E+04  1.4118432045153E+04  1.4118432045153E+04  1.4118432045153E+04  1.4118432045153E+04  1.4118432045153E+04  7.0592160225764E+03 
 5.2238198567065E+04  1.0447639713413E+05  1.0447639713413E+05  1.0447639713413E+05  1.0447639713413E+05  1.0447639713413E+05  1.0447639713413E+05  1.0447639713413E+05  1.0447639713413E+05  5.2238198567065E+04 
 5.9297414589642E+04  1.1859482917928E+05  1.1859482917928E+05  1.1859482917928E+05  1.1859482917928E+05  1.1859482917928E+05  1.1859482917928E+05  1.1859482917928E+05  1.1859482917928E+05  5.9297414589642E+04 
 3.5000000000000E-01  3.5000000000000E-01  3.5000000000000E-01  3.5000000000000E-01  3.5000000000000E-01  3.5000000000000E-01  3.5000000000000E-01  3.5000000000000E-01  3.5000000000000E-01  3.5000000000000E-01 
 8.5301666666667E+00  1.7060333333333E+01  1.7060333333333E+01  1.7060333333333E+01  1.7060333333333E+01  1.7060333333333E+01  1.7060333333333E+01  1.7060333333333E+01  1.7060333333333E+01  8.5301666666667E+00 
 3.6259831879809E+00  3.6259831879809E+00  3.6259831879809E+00  3.6259831879809E+00  3.6259831879809E+00  3.6259831879809E+00  3.6259831879809E+00  3.6259831879809E+00  3.6259831879809E+00  3.6259831879809E+00 
 4.3744444444444E-05  8.7488888888889E-05  8.7488888888889E-05  8.7488888888889E-05  8.7488888888889E-05  8.7488888888889E-05  8.7488888888889E-05  8.7488888888889E-05  8.7488888888889E-05  4.3744444444444E-05 
 1.3380188695655E+01  1.3380188695655E+01  1.3380188695655E+01  1.3380188695655E+01  1.3380188695655E+01  1.3380188695655E+01  1.3380188695655E+01  1.3380188695655E+01  1.3380188695655E+01  1.3380188695655E+01 
 3.3450471739137E+00  3.3450471739137E+00  3.3450471739137E+00  3.3450471739137E+00  3.3450471739137E+00  3.3450471739137E+00  3.3450471739137E+00  3.3450471739137E+00  3.3450471739137E+00  3.3450471739137E+00 
 0.0000000000000E+00  0.0000000000000E+00  0.0000000000000E+00  0.0000000000000E+00  0.0000000000000E+00  0.0000000000000E+00  0.0000000000000E+00  0.0000000000000E+00  0.0000000000000E+00  0.0000000000000E+00 
 0.0000000000000E+00  0.0000000000000E+00  0.0000000000000E+00  0.0000000000000E+00  0.0000000000000E+00  0.0000000000000E+00  0.0000000000000E+00  0.0000000000000E+00  0.0000000000000E+00  0.0000000000000E+00 
 0.0000000000000E+00  0.0000000000000E+00  0.0000000000000E+00  0.0000000000000E+00  0.0000000000000E+00  0.0000000000000E+00  0.0000000000000E+00  0.0000000000000E+00  0.0000000000000E+00  0.0000000000000E+00 
 0.0000000000000E+00  0.0000000000000E+00  0.0000000000000E+00  0.0000000000000E+00  0.0000000000000E+00  0.0000000000000E+00  0.0000000000000E+00  0.0000000000000E+00  0.0000000000000E+00  0.0000000000000E+00 
 0.0000000000000E+00  0.0000000000000E+00  0.0000000000000E+00  0.0000000000000E+00  0.0000000000000E+00  0.0000000000000E+00  0.0000000000000E+00  0.0000000000000E+00  0.0000000000000E+00  0.0000000000000E+00 
 0.0000000000000E+00  0.0000000000000E+00  0.0000000000000E+00  0.0000000000000E+00  0.0000000000000E+00  0.0000000000000E+00  0.0000000000000E+00  0.0000000000000E+00  0.0000000000000E+00  0.0000000000000E+00 
 0.0000000000000E+00  0.0000000000000E+00  0.0000000000000E+00  0.0000000000000E+00  0.0000000000000E+00  0.0000000000000E+00  0.0000000000000E+00  0.0000000000000E+00  0.0000000000000E+00  0.0000000000000E+00 
ZONE T = "ANOD, 1.0000E-08", I = 10, SOLUTIONTIME = 1.000000E-08
ZONETYPE = ORDERED
DATAPACKING = BLOCK
STRANDID = 1
 0.0000000000000E+00  8.7488888888889E-05  1.7497777777778E-04  2.6246666666667E-04  3.4995555555556E-04  4.3744444444444E-04  5.2493333333333E-04  6.1242222222222E-04  6.9991111111111E-04  7.8740000000000E-04 
 1.1589860994867E-09  3.4762340909508E-09  5.7942171356938E-09  8.1122152493941E-09  1.0429508446708E-08  1.2747555989305E-08  1.5065637892678E-08  1.7383034172470E-08  1.9700477674446E-08  2.0858863044366E-08 
 9.1999999999930E-01  9.1999999999930E-01  9.1999999999930E-01  9.1999999999930E-01  9.1999999999930E-01  9.1999999999930E-01  9.1999999999930E-01  9.1999999999930E-01  9.1999999999930E-01  9.1999999999967E-01 
 4.0000000000348E-02  4.0000000000348E-02  4.0000000000348E-02  4.0000000000348E-02  4.0000000000348E-02  4.0000000000348E-02  4.0000000000348E-02  4.0000000000348E-02  4.0000000000348E-02  4.0000000000167E-02 
 4.0000000000348E-02  4.0000000000348E-02  4.0000000000348E-02  4.0000000000348E-02  4.0000000000348E-02  4.0000000000348E-02  4.0000000000348E-02  4.0000000000348E-02  4.0000000000348E-02  4.0000000000167E-02 
 2.9167411314456E-02  2.9167395587425E-02  2.9167348406304E-02  2.9167269770974E-02  2.9167159681231E-02  2.9167018136784E-02  2.9166845137253E-02  2.9166640682173E-02  2.9166404770989E-02  2.9166137403061E-02 
 0.0000000000000E+00 -4.7371043988776E-09 -8.9169229484962E-09 -1.2539453572088E-08 -1.5604692646785E-08 -1.8112635003862E-08 -2.0063273928382E-08 -2.1456601159349E-08 -2.2292606889677E-08 -2.2571279766240E-08 
-2.9167411314456E-02 -2.9167400324530E-02 -2.9167357323227E-02 -2.9167282310427E-02 -2.9167175285924E-02 -2.9167036249419E-02 -2.9166865200527E-02 -2.9166662138774E-02 -2.9166427063596E-02 -2.9166159974341E-02 
-4.0906712752673E-02 -4.0906712752673E-02 -4.0906712752673E-02 -4.0906712752673E-02 -4.0906712752672E-02 -4.0906712752673E-02 -4.0906712752673E-02 -4.0906712752671E-02 -4.0906712752671E-02 -4.0906712752788E-02 
 1.1739301438217E-02  1.1739312428143E-02  1.1739355429446E-02  1.1739430442246E-02  1.1739537466748E-02  1.1739676503254E-02  1.1739847552146E-02  1.1740050613898E-02  1.1740285689076E-02  1.1740552778447E-02 
 1.6690432927047E+00  3.3380897645893E+00  3.3381022040626E+00  3.3381239038691E+00  3.3381548640777E+00  3.3381950847884E+00  3.3382445661286E+00  3.3383033082563E+00  3.3383713113598E+00  1.6692242878280E+00 
 8.6491499927724E-09  2.5947466467059E-08  4.3245847391562E-08  6.0544340782920E-08  7.7842994600351E-08  9.5141856861526E-08  1.1244097554217E-07  1.2974039864172E-07  1.4704023808852E-07  1.4704023808852E-07 
 0.0000000000000E+00  3.3380661794895E+00  6.6761401684016E+00  1.0014231227217E+01  1.3352348616416E+01  1.6690501596294E+01  2.0028699428070E+01  2.3366951372590E+01  2.6705266690673E+01  3.0043665638484E+01 
 3.0043665640869E+01  2.6705588463621E+01  2.3367514474752E+01  2.0029423415853E+01  1.6691306026722E+01  1.3353153046815E+01  1.0014955214990E+01  6.6767032704672E+00  3.3383879525240E+00  0.0000000000000E+00 
 1.6690432927047E-08  3.3380897645893E-08  3.3381022040626E-08  3.3381239038691E-08  3.3381548640777E-08  3.3381950847884E-08  3.3382445661286E-08  3.3383033082563E-08  3.3383713113598E-08  1.6692242878280E-08 
 7.0592160225931E+03  1.4118432045186E+04  1.4118432045186E+04  1.4118432045186E+04  1.4118432045186E+04  1.4118432045186E+04  1.4118432045186E+04  1.4118432045186E+04  1.4118432045186E+04  7.0592160225931E+03 
 5.2238198567049E+04  1.0447639713410E+05  1.0447639713410E+05  1.0447639713410E+05  1.0447639713410E+05  1.0447639713410E+05  1.0447639713410E+05  1.0447639713410E+05  1.0447639713410E+05  5.2238198567049E+04 
 5.9297414589642E+04  1.1859482917928E+05  1.1859482917928E+05  1.1859482917928E+05  1.1859482917928E+05  1.1859482917928E+05  1.1859482917928E+05  1.1859482917928E+05  1.1859482917928E+05  5.9297414589642E+04 
 3.5000000000000E-01  3.5000000000000E-01  3.5000000000000E-01  3.5000000000000E-01  3.5000000000000E-01  3.5000000000000E-01  3.5000000000000E-01  3.5000000000000E-01  3.5000000000000E-01  3.5000000000000E-01 
 8.5301666666665E+00  1.7060333333333E+01  1.7060333333333E+01  1.7060333333333E+01  1.7060333333333E+01  1.7060333333333E+01  1.7060333333333E+01  1.7060333333333E+01  1.7060333333333E+01  8.5301666666665E+00 
 1.9566362041047E-01  1.9566380675970E-01  1.9566453590567E-01  1.9566580785072E-01  1.9566762259888E-01  1.9566998015602E-01  1.9567288052961E-01  1.9567632372890E-01  1.9568030976495E-01  1.9568483865044E-01 
 4.3744444444444E-05  8.7488888888889E-05  8.7488888888889E-05  8.7488888888889E-05  8.7488888888889E-05  8.7488888888889E-05  8.7488888888889E-05  8.7488888888889E-05  8.7488888888889E-05  4.3744444444444E-05 
 1.3380188695651E+01  1.3380188695651E+01  1.3380188695651E+01  1.3380188695651E+01  1.3380188695651E+01  1.3380188695651E+01  1.3380188695651E+01  1.3380188695651E+01  1.3380188695651E+01  1.3380188695651E+01 
 3.3450471739177E+00  3.3450471739177E+00  3.3450471739177E+00  3.3450471739177E+00  3.3450471739177E+00  3.3450471739177E+00  3.3450471739177E+00  3.3450471739177E+00  3.3450471739177E+00  3.3450471739177E+00 
 1.8363757076668E-11  2.8663715420596E-11  6.1477420627381E-11  1.1871895271504E-10  2.0038894687263E-10  3.0648830936873E-10  4.3701821757754E-10  5.9198011996859E-10  7.7137573611678E-10  8.6718220451942E-10 
 1.8363757076668E-03  2.8663715420596E-03  6.1477420627381E-03  1.1871895271504E-02  2.0038894687263E-02  3.0648830936873E-02  4.3701821757754E-02  5.9198011996859E-02  7.7137573611678E-02  8.6718220451942E-02 
 3.0002577741810E-04  1.5001306020600E-03  5.1004568276210E-03  1.1101041276789E-02  1.9501947405963E-02  3.0303265307605E-02  4.3505111712841E-02  5.9107629990350E-02  7.7110990147378E-02  8.6712903611418E-02 
 1.5363499302487E-03  1.3662409399996E-03  1.0472852351171E-03  7.7085399471525E-04  5.3694728129976E-04  3.4556562926854E-04  1.9671004491296E-04  9.0382006508524E-05  2.6583464299804E-05  5.3168405241145E-06 
 0.0000000000000E+00  0.0000000000000E+00  0.0000000000000E+00  0.0000000000000E+00  0.0000000000000E+00  0.0000000000000E+00  0.0000000000000E+00  0.0000000000000E+00  0.0000000000000E+00  0.0000000000000E+00 
 0.0000000000000E+00  0.0000000000000E+00  0.0000000000000E+00  0.0000000000000E+00  0.0000000000000E+00  0.0000000000000E+00  0.0000000000000E+00  0.0000000000000E+00  0.0000000000000E+00  0.0000000000000E+00 
 0.0000000000000E+00  0.0000000000000E+00  0.0000000000000E+00  0.0000000000000E+00  0.0000000000000E+00  0.0000000000000E+00  0.0000000000000E+00  0.0000000000000E+00  0.0000000000000E+00  0.0000000000000E+00 
ZONE T = "ANOD, 2.0000E-08", I = 10, SOLUTIONTIME = 2.000000E-08
ZONETYPE = ORDERED
DATAPACKING = BLOCK
STRANDID = 1
 0.0000000000000E+00  8.7488888888889E-05  1.7497777777778E-04  2.6246666666667E-04  3.4995555555556E-04  4.3744444444444E-04  5.2493333333333E-04  6.1242222222222E-04  6.9991111111111E-04  7.8740000000000E-04 
 1.1589934535608E-09  3.4769825683378E-09  5.7949803212151E-09  8.1129931426643E-09  1.0431027463206E-08  1.2748363297972E-08  1.5065733493098E-08  1.7383507687098E-08  1.9701329103162E-08  2.0860448241634E-08 
 9.1999999999861E-01  9.1999999999861E-01  9.1999999999861E-01  9.1999999999861E-01  9.1999999999861E-01  9.1999999999861E-01  9.1999999999861E-01  9.1999999999861E-01  9.1999999999861E-01  9.1999999999933E-01 
 4.0000000000696E-02  4.0000000000696E-02  4.0000000000696E-02  4.0000000000696E-02  4.0000000000696E-02  4.0000000000696E-02  4.0000000000696E-02  4.0000000000696E-02  4.0000000000696E-02  4.0000000000334E-02 
 4.0000000000696E-02  4.0000000000696E-02  4.0000000000696E-02  4.0000000000696E-02  4.0000000000696E-02  4.0000000000696E-02  4.0000000000696E-02  4.0000000000696E-02  4.0000000000696E-02  4.0000000000334E-02 
 2.9167414129886E-02  2.9167398402755E-02  2.9167351221334E-02  2.9167272585505E-02  2.9167162495064E-02  2.9167020949719E-02  2.9166847949090E-02  2.9166643492713E-02  2.9166407580032E-02  2.9166140210408E-02 
 0.0000000000000E+00 -4.7371344545207E-09 -8.9169795236609E-09 -1.2539533130654E-08 -1.5604791652725E-08 -1.8112749921076E-08 -2.0063401220872E-08 -2.1456737291219E-08 -2.2292748325136E-08 -2.2571422969527E-08 
-2.9167414129886E-02 -2.9167403139890E-02 -2.9167360138314E-02 -2.9167285125038E-02 -2.9167178099856E-02 -2.9167039062469E-02 -2.9166868012492E-02 -2.9166664949450E-02 -2.9166429872780E-02 -2.9166162781831E-02 
-4.0906712751951E-02 -4.0906712751951E-02 -4.0906712751951E-02 -4.0906712751951E-02 -4.0906712751951E-02 -4.0906712751951E-02 -4.0906712751951E-02 -4.0906712751951E-02 -4.0906712751951E-02 -4.0906712752183E-02 
 1.1739298622065E-02  1.1739309612061E-02  1.1739352613637E-02  1.1739427626912E-02  1.1739534652095E-02  1.1739673689482E-02  1.1739844739459E-02  1.1740047802501E-02  1.1740282879170E-02  1.1740549970353E-02 
 1.6690428853917E+00  3.3380889499834E+00  3.3381013895355E+00  3.3381230894794E+00  3.3381540498845E+00  3.3381942708495E+00  3.3382437525031E+00  3.3383024950031E+00  3.3383704985373E+00  1.6692238816745E+00 
 8.6492048778989E-09  2.5947631105439E-08  4.3246121796379E-08  6.0544724947756E-08  7.7843488523290E-08  9.5142460545713E-08  1.1244168898099E-07  1.2974122183102E-07  1.4704123498146E-07  1.4704123498146E-07 
 0.0000000000000E+00  3.3380873605064E+00  6.6761825300674E+00  1.0014294769531E+01  1.3352433339379E+01  1.6690607499722E+01  2.0028826511410E+01  2.3367099635107E+01  2.6705436131965E+01  3.0043845263087E+01 
 3.0043845262842E+01  2.6705757902459E+01  2.3367662732699E+01  2.0029550493192E+01  1.6691411923510E+01  1.3353237763143E+01  1.0015018751466E+01  6.6767456277133E+00  3.3384091309431E+00  0.0000000000000E+00 
 3.3380861780964E-08  6.6761787145728E-08  6.6762035935981E-08  6.6762469933485E-08  6.6763089139623E-08  6.6763893556379E-08  6.6764883186316E-08  6.6766058032593E-08  6.6767418098971E-08  3.3384481695025E-08 
 7.0592160226098E+03  1.4118432045220E+04  1.4118432045220E+04  1.4118432045220E+04  1.4118432045220E+04  1.4118432045220E+04  1.4118432045220E+04  1.4118432045220E+04  1.4118432045220E+04  7.0592160226098E+03 
 5.2238198567032E+04  1.0447639713406E+05  1.0447639713406E+05  1.0447639713406E+05  1.0447639713406E+05  1.0447639713406E+05  1.0447639713406E+05  1.0447639713406E+05  1.0447639713406E+05  5.2238198567032E+04 
 5.9297414589642E+04  1.1859482917928E+05  1.1859482917928E+05  1.1859482917928E+05  1.1859482917928E+05  1.1859482917928E+05  1.1859482917928E+05  1.1859482917928E+05  1.1859482917928E+05  5.9297414589642E+04 
 3.5000000000000E-01  3.5000000000000E-01  3.5000000000000E-01  3.5000000000000E-01  3.5000000000000E-01  3.5000000000000E-01  3.5000000000000E-01  3.5000000000000E-01  3.5000000000000E-01  3.5000000000000E-01 
 8.5301666666663E+00  1.7060333333333E+01  1.7060333333333E+01  1.7060333333333E+01  1.7060333333333E+01  1.7060333333333E+01  1.7060333333333E+01  1.7060333333333E+01  1.7060333333333E+01  8.5301666666663E+00 
 1.9566357266077E-01  1.9566375901117E-01  1.9566448816176E-01  1.9566576011486E-01  1.9566757487455E-01  1.9566993244659E-01  1.9567283283855E-01  1.9567627605966E-01  1.9568026212095E-01  1.9568479103666E-01 
 4.3744444444444E-05  8.7488888888889E-05  8.7488888888889E-05  8.7488888888889E-05  8.7488888888889E-05  8.7488888888889E-05  8.7488888888889E-05  8.7488888888889E-05  8.7488888888889E-05  4.3744444444444E-05 
 1.3380188695647E+01  1.3380188695647E+01  1.3380188695647E+01  1.3380188695647E+01  1.3380188695647E+01  1.3380188695647E+01  1.3380188695647E+01  1.3380188695647E+01  1.3380188695647E+01  1.3380188695647E+01 
 3.3450471739216E+00  3.3450471739216E+00  3.3450471739216E+00  3.3450471739216E+00  3.3450471739216E+00  3.3450471739216E+00  3.3450471739216E+00  3.3450471739216E+00  3.3450471739216E+00  3.3450471739216E+00 
 3.6727747184581E-11  5.7327794584375E-11  1.2295562142099E-10  2.3743941201416E-10  4.0078043674846E-10  6.1298050815682E-10  8.7404198097810E-10  1.1839677521371E-09  1.5427612608027E-09  1.7343754133001E-09 
 1.8363990107913E-03  2.8664079163779E-03  6.1478200793604E-03  1.1872045929911E-02  2.0039148987583E-02  3.0649219878809E-02  4.3702376340055E-02  5.9198763216853E-02  7.7138552468589E-02  8.6719320878063E-02 
 6.0005536245132E-04  3.0002802416108E-03  1.0200978382567E-02  2.2202223430532E-02  3.9004142298971E-02  6.0606915172386E-02  8.7010775512052E-02  1.1821601005392E-01  1.5422295881438E-01  1.7342690758150E-01 
 3.0727193560068E-03  2.7324992168267E-03  2.0945837595318E-03  1.5417177708840E-03  1.0739013758749E-03  6.9113564329655E-04  3.9342258575801E-04  1.8076515979644E-04  5.3167265888481E-05  1.0633748505706E-05 
 0.0000000000000E+00  0.0000000000000E+00  0.0000000000000E+00  0.0000000000000E+00  0.0000000000000E+00  0.0000000000000E+00  0.0000000000000E+00  0.0000000000000E+00  0.0000000000000E+00  0.0000000000000E+00 
 0.0000000000000E+00  0.0000000000000E+00  0.0000000000000E+00  0.0000000000000E+00  0.0000000000000E+00  0.0000000000000E+00  0.0000000000000E+00  0.0000000000000E+00  0.0000000000000E+00  0.0000000000000E+00 
 0.0000000000000E+00  0.0000000000000E+00  0.0000000000000E+00  0.0000000000000E+00  0.0000000000000E+00  0.0000000000000E+00  0.0000000000000E+00  0.0000000000000E+00  0.0000000000000E+00  0.0000000000000E+00 
ZONE T = "ANOD, 3.0000E-08", I = 10, SOLUTIONTIME = 3.000000E-08
ZONETYPE = ORDERED
DATAPACKING = BLOCK
STRANDID = 1
 0.0000000000000E+00  8.7488888888889E-05  1.7497777777778E-04  2.6246666666667E-04  3.4995555555556E-04  4.3744444444444E-04  5.2493333333333E-04  6.1242222222222E-04  6.9991111111111E-04  7.8740000000000E-04 
 1.1589934535364E-09  3.4769825682646E-09  5.7949803210931E-09  8.1129931424935E-09  1.0431027462987E-08  1.2749816128616E-08  1.5068639154604E-08  1.7387866179467E-08  1.9707140426394E-08  2.0866259564851E-08 
 9.1999999999791E-01  9.1999999999791E-01  9.1999999999791E-01  9.1999999999791E-01  9.1999999999791E-01  9.1999999999791E-01  9.1999999999791E-01  9.1999999999791E-01  9.1999999999791E-01  9.1999999999900E-01 
 4.0000000001045E-02  4.0000000001045E-02  4.0000000001045E-02  4.0000000001045E-02  4.0000000001045E-02  4.0000000001045E-02  4.0000000001045E-02  4.0000000001045E-02  4.0000000001045E-02  4.0000000000502E-02 
 4.0000000001045E-02  4.0000000001045E-02  4.0000000001045E-02  4.0000000001045E-02  4.0000000001045E-02  4.0000000001045E-02  4.0000000001045E-02  4.0000000001045E-02  4.0000000001045E-02  4.0000000000502E-02 
 2.9167414129522E-02  2.9167398402391E-02  2.9167351220970E-02  2.9167272585141E-02  2.9167162494700E-02  2.9167020949355E-02  2.9166847948726E-02  2.9166643492349E-02  2.9166407579668E-02  2.9166140210044E-02 
 0.0000000000000E+00 -4.7371344544238E-09 -8.9169795234789E-09 -1.2539533130399E-08 -1.5604791652408E-08 -1.8112749920709E-08 -2.0063401220467E-08 -2.1456737290787E-08 -2.2292748324688E-08 -2.2571422969075E-08 
-2.9167414129522E-02 -2.9167403139526E-02 -2.9167360137950E-02 -2.9167285124674E-02 -2.9167178099492E-02 -2.9167039062105E-02 -2.9166868012128E-02 -2.9166664949086E-02 -2.9166429872416E-02 -2.9166162781467E-02 
-4.0906712751227E-02 -4.0906712751227E-02 -4.0906712751227E-02 -4.0906712751227E-02 -4.0906712751229E-02 -4.0906712751229E-02 -4.0906712751229E-02 -4.0906712751231E-02 -4.0906712751231E-02 -4.0906712751580E-02 
 1.1739298621705E-02  1.1739309611701E-02  1.1739352613277E-02  1.1739427626552E-02  1.1739534651737E-02  1.1739673689124E-02  1.1739844739101E-02  1.1740047802145E-02  1.1740282878815E-02  1.1740549970113E-02 
 1.6690428853566E+00  3.3380889499132E+00  3.3381013894653E+00  3.3381230894093E+00  3.3381540498147E+00  3.3381942707798E+00  3.3382437524333E+00  3.3383024949338E+00  3.3383704984680E+00  1.6692238816528E+00 
 8.6492048779741E-09  2.5947631101502E-08  4.3246121796756E-08  6.0544724946375E-08  7.7843488517897E-08  9.5142460544634E-08  1.1244168897590E-07  1.2974122182607E-07  1.4704129892567E-07  1.4704129892567E-07 
 0.0000000000000E+00  3.3380873603514E+00  6.6761825299414E+00  1.0014294769434E+01  1.3352433338943E+01  1.6690607499315E+01  2.0028826511032E+01  2.3367099634574E+01  2.6705436131429E+01  3.0043845262512E+01 
 3.0043845262227E+01  2.6705757901914E+01  2.3367662732224E+01  2.0029550492787E+01  1.6691411923175E+01  1.3353237762878E+01  1.0015018751271E+01  6.6767456275877E+00  3.3384091308868E+00  0.0000000000000E+00 
 5.0071290634530E-08  1.0014267664486E-07  1.0014304983063E-07  1.0014370082758E-07  1.0014462963777E-07  1.0014583626418E-07  1.0014732071065E-07  1.0014908298193E-07  1.0015112308365E-07  5.0076720511553E-08 
 7.0592160226264E+03  1.4118432045253E+04  1.4118432045253E+04  1.4118432045253E+04  1.4118432045253E+04  1.4118432045253E+04  1.4118432045253E+04  1.4118432045253E+04  1.4118432045253E+04  7.0592160226265E+03 
 5.2238198567015E+04  1.0447639713403E+05  1.0447639713403E+05  1.0447639713403E+05  1.0447639713403E+05  1.0447639713403E+05  1.0447639713403E+05  1.0447639713403E+05  1.0447639713403E+05  5.2238198567015E+04 
 5.9297414589642E+04  1.1859482917928E+05  1.1859482917928E+05  1.1859482917928E+05  1.1859482917928E+05  1.1859482917928E+05  1.1859482917928E+05  1.1859482917928E+05  1.1859482917928E+05  5.9297414589642E+04 
 3.5000000000000E-01  3.5000000000000E-01  3.5000000000000E-01  3.5000000000000E-01  3.5000000000000E-01  3.5000000000000E-01  3.5000000000000E-01  3.5000000000000E-01  3.5000000000000E-01  3.5000000000000E-01 
 8.5301666666661E+00  1.7060333333332E+01  1.7060333333332E+01  1.7060333333332E+01  1.7060333333332E+01  1.7060333333332E+01  1.7060333333332E+01  1.7060333333332E+01  1.7060333333332E+01  8.5301666666661E+00 
 1.9566357265666E-01  1.9566375900706E-01  1.9566448815765E-01  1.9566576011075E-01  1.9566757487046E-01  1.9566993244251E-01  1.9567283283446E-01  1.9567627605561E-01  1.9568026211689E-01  1.9568479103413E-01 
 4.3744444444444E-05  8.7488888888889E-05  8.7488888888889E-05  8.7488888888889E-05  8.7488888888889E-05  8.7488888888889E-05  8.7488888888889E-05  8.7488888888889E-05  8.7488888888889E-05  4.3744444444444E-05 
 1.3380188695643E+01  1.3380188695643E+01  1.3380188695643E+01  1.3380188695643E+01  1.3380188695643E+01  1.3380188695643E+01  1.3380188695643E+01  1.3380188695643E+01  1.3380188695643E+01  1.3380188695643E+01 
 3.3450471739256E+00  3.3450471739256E+00  3.3450471739256E+00  3.3450471739256E+00  3.3450471739256E+00  3.3450471739256E+00  3.3450471739256E+00  3.3450471739256E+00  3.3450471739256E+00  3.3450471739256E+00 
 5.5091737291892E-11  8.5991873745742E-11  1.8443382221262E-10  3.5615987130929E-10  6.0117192660922E-10  9.1947270692822E-10  1.3110657443579E-09  1.7759553842737E-09  2.3141467854519E-09  2.6015686220413E-09 
 1.8363990107311E-03  2.8664079161367E-03  6.1478200791637E-03  1.1872045929513E-02  2.0039148986076E-02  3.0649219877139E-02  4.3702376337977E-02  5.9198763213658E-02  7.7138552464925E-02  8.6719320874121E-02 
 9.0008494748716E-04  4.5004298809761E-03  1.5301499937358E-02  3.3303405583908E-02  5.8506337190493E-02  9.0910565035511E-02  1.3051643930919E-01  1.7732439011429E-01  2.3133492747772E-01  2.6014091154764E-01 
 4.6090887817020E-03  4.0987574935981E-03  3.1418822839040E-03  2.3125815470216E-03  1.6108554704284E-03  1.0367056573108E-03  5.9013512659537E-04  2.7114831308093E-04  7.9751067476220E-05  1.5950656487159E-05 
 0.0000000000000E+00  0.0000000000000E+00  0.0000000000000E+00  0.0000000000000E+00  0.0000000000000E+00  0.0000000000000E+00  0.0000000000000E+00  0.0000000000000E+00  0.0000000000000E+00  0.0000000000000E+00 
 0.0000000000000E+00  0.0000000000000E+00  0.0000000000000E+00  0.0000000000000E+00  0.0000000000000E+00  0.0000000000000E+00  0.0000000000000E+00  0.0000000000000E+00  0.0000000000000E+00  0.0000000000000E+00 
 0.0000000000000E+00  0.0000000000000E+00  0.0000000000000E+00  0.0000000000000E+00  0.0000000000000E+00  0.0000000000000E+00  0.0000000000000E+00  0.0000000000000E+00  0.0000000000000E+00  0.0000000000000E+00 
ZONE T = "ANOD, 4.0000E-08", I = 10, SOLUTIONTIME = 4.000000E-08
ZONETYPE = ORDERED
DATAPACKING = BLOCK
STRANDID = 1
 0.0000000000000E+00  8.7488888888889E-05  1.7497777777778E-04  2.6246666666667E-04  3.4995555555556E-04  4.3744444444444E-04  5.2493333333333E-04  6.1242222222222E-04  6.9991111111111E-04  7.8740000000000E-04 
 1.1589934535122E-09  3.4777089836478E-09  5.7949803209723E-09  8.1129931423243E-09  1.0431753878224E-08  1.2748726505166E-08  1.5066823115650E-08  1.7384960517281E-08  1.9703145140976E-08  2.0860993052371E-08 
 9.1999999999721E-01  9.1999999999721E-01  9.1999999999721E-01  9.1999999999721E-01  9.1999999999721E-01  9.1999999999721E-01  9.1999999999721E-01  9.1999999999721E-01  9.1999999999721E-01  9.1999999999866E-01 
 4.0000000001393E-02  4.0000000001393E-02  4.0000000001393E-02  4.0000000001393E-02  4.0000000001393E-02  4.0000000001393E-02  4.0000000001393E-02  4.0000000001393E-02  4.0000000001393E-02  4.0000000000669E-02 
 4.0000000001393E-02  4.0000000001393E-02  4.0000000001393E-02  4.0000000001393E-02  4.0000000001393E-02  4.0000000001393E-02  4.0000000001393E-02  4.0000000001393E-02  4.0000000001393E-02  4.0000000000669E-02 
 2.9167414129156E-02  2.9167398402026E-02  2.9167351220605E-02  2.9167272584776E-02  2.9167162494334E-02  2.9167020948989E-02  2.9166847948361E-02  2.9166643491983E-02  2.9166407579302E-02  2.9166140209678E-02 
 0.0000000000000E+00 -4.7371344543267E-09 -8.9169795232964E-09 -1.2539533130143E-08 -1.5604791652090E-08 -1.8112749920340E-08 -2.0063401220059E-08 -2.1456737290352E-08 -2.2292748324238E-08 -2.2571422968622E-08 
-2.9167414129156E-02 -2.9167403139160E-02 -2.9167360137584E-02 -2.9167285124309E-02 -2.9167178099126E-02 -2.9167039061739E-02 -2.9166868011762E-02 -2.9166664948720E-02 -2.9166429872051E-02 -2.9166162781101E-02 
-4.0906712750503E-02 -4.0906712750503E-02 -4.0906712750503E-02 -4.0906712750503E-02 -4.0906712750502E-02 -4.0906712750502E-02 -4.0906712750502E-02 -4.0906712750506E-02 -4.0906712750506E-02 -4.0906712750971E-02 
 1.1739298621347E-02  1.1739309611343E-02  1.1739352612919E-02  1.1739427626194E-02  1.1739534651376E-02  1.1739673688763E-02  1.1739844738740E-02  1.1740047801786E-02  1.1740282878455E-02  1.1740549969870E-02 
 1.6690428853218E+00  3.3380889498436E+00  3.3381013893957E+00  3.3381230893396E+00  3.3381540497445E+00  3.3381942707095E+00  3.3382437523630E+00  3.3383024948638E+00  3.3383704983981E+00  1.6692238816309E+00 