TITLE = "Solution on Domain BulkDomain1D_0"
VARIABLES = "x [m]"  
"Vel_axial" 
"MF_sp(ECDMC)" 
"MF_sp(Li+)" 
"MF_sp(PF6-)" 
"Volt(Electroly)" 
"Volt(AnodeVolt)" 
"Potential Drop Electrode-Electrolyte [V]" 
"Surf_0 Equilibrium Potential Drop Electrode-Electrolyte [V]" 
"Overpotential_0 [V]" 
"Current Source [A/m^2]" 
"Li+ flux [kmol/m^2/s]" 
"Electrolyte Current [A/m^2]" 
"Electrode Current [A/m^2]" 
"CV Capacity discharged [A-s/m^2]" 
"Depth of discharge in CV [A-s/m^2]" 
"CV Capacity remaining [A-s/m^2]" 
"Initial CV capacity [A-s/m^2]" 
"Porosity []" 
"Surface Area [m2/m2] (area per area)" 
"Specific current (per particle area) [A/m^2]" 
"Control volume thickness [m]" 
"MoleDens Li_C6-bulk [kmol/m^3]" 
"MoleDens V_C6-bulk [kmol/m^3]" 
"qHeat_accum [J/m3]" 
"qHeat_step [W/m3]" 
"Joule_Lyte [W/m3]" 
"Joule_Solid [W/m3]" 
"electrodHeat [W/m3]" 
"OverpotHeat [W/m3]" 
"deltaSHeat [W/m3]" 

ZONE T = "ANOD, 0.0000E+00", I = 10, SOLUTIONTIME = 0.000000E+00
ZONETYPE = ORDERED
DATAPACKING = BLOCK
STRANDID = 1
 0.0000000000000E+00  8.7488888888889E-05  1.7497777777778E-04  2.6246666666667E-04  3.4995555555556E-04  4.3744444444444E-04  5.2493333333333E-04  6.1242222222222E-04  6.9991111111111E-04  7.8740000000000E-04 
 0.0000000000000E+00  0.0000000000000E+00  0.0000000000000E+00  0.0000000000000E+00  0.0000000000000E+00  0.0000000000000E+00  0.0000000000000E+00  0.0000000000000E+00  0.0000000000000E+00  0.0000000000000E+00 
 9.2000000000000E-01  9.2000000000000E-01  9.2000000000000E-01  9.2000000000000E-01  9.2000000000000E-01  9.2000000000000E-01  9.2000000000000E-01  9.2000000000000E-01  9.2000000000000E-01  9.2000000000000E-01 
 4.0000000000000E-02  4.0000000000000E-02  4.0000000000000E-02  4.0000000000000E-02  4.0000000000000E-02  4.0000000000000E-02  4.0000000000000E-02  4.0000000000000E-02  4.0000000000000E-02  4.0000000000000E-02 
 4.0000000000000E-02  4.0000000000000E-02  4.0000000000000E-02  4.0000000000000E-02  4.0000000000000E-02  4.0000000000000E-02  4.0000000000000E-02  4.0000000000000E-02  4.0000000000000E-02  4.0000000000000E-02 
-7.0000000000000E-02 -7.0000000000000E-02 -7.0000000000000E-02 -7.0000000000000E-02 -7.0000000000000E-02 -7.0000000000000E-02 -7.0000000000000E-02 -7.0000000000000E-02 -7.0000000000000E-02 -7.0000000000000E-02 
 0.0000000000000E+00  0.0000000000000E+00  0.0000000000000E+00  0.0000000000000E+00  0.0000000000000E+00  0.0000000000000E+00  0.0000000000000E+00  0.0000000000000E+00  0.0000000000000E+00  0.0000000000000E+00 
 7.0000000000000E-02  7.0000000000000E-02  7.0000000000000E-02  7.0000000000000E-02  7.0000000000000E-02  7.0000000000000E-02  7.0000000000000E-02  7.0000000000000E-02  7.0000000000000E-02  7.0000000000000E-02 
-4.0906790794156E-02 -4.0906790794156E-02 -4.0906790794156E-02 -4.0906790794156E-02 -4.0906790794156E-02 -4.0906790794156E-02 -4.0906790794156E-02 -4.0906790794156E-02 -4.0906790794156E-02 -4.0906790794156E-02 
 1.1090679079416E-01  1.1090679079416E-01  1.1090679079416E-01  1.1090679079416E-01  1.1090679079416E-01  1.1090679079416E-01  1.1090679079416E-01  1.1090679079416E-01  1.1090679079416E-01  1.1090679079416E-01 
 3.0930289169717E+01  6.1860578339434E+01  6.1860578339434E+01  6.1860578339434E+01  6.1860578339434E+01  6.1860578339434E+01  6.1860578339434E+01  6.1860578339434E+01  6.1860578339434E+01  3.0930289169717E+01 
-0.0000000000000E+00 -0.0000000000000E+00 -0.0000000000000E+00 -0.0000000000000E+00 -0.0000000000000E+00 -0.0000000000000E+00 -0.0000000000000E+00 -0.0000000000000E+00 -0.0000000000000E+00 -0.0000000000000E+00 
 0.0000000000000E+00  0.0000000000000E+00  0.0000000000000E+00  0.0000000000000E+00  0.0000000000000E+00  0.0000000000000E+00  0.0000000000000E+00  0.0000000000000E+00  0.0000000000000E+00  3.0930289169717E+01 
 3.0930289169717E+01 -0.0000000000000E+00 -0.0000000000000E+00 -0.0000000000000E+00 -0.0000000000000E+00 -0.0000000000000E+00 -0.0000000000000E+00 -0.0000000000000E+00 -0.0000000000000E+00  0.0000000000000E+00 
 0.0000000000000E+00  0.0000000000000E+00  0.0000000000000E+00  0.0000000000000E+00  0.0000000000000E+00  0.0000000000000E+00  0.0000000000000E+00  0.0000000000000E+00  0.0000000000000E+00  0.0000000000000E+00 
 7.0592160225764E+03  1.4118432045153E+04  1.4118432045153E+04  1.4118432045153E+04  1.4118432045153E+04  1.4118432045153E+04  1.4118432045153E+04  1.4118432045153E+04  1.4118432045153E+04  7.0592160225764E+03 
 5.2238198567065E+04  1.0447639713413E+05  1.0447639713413E+05  1.0447639713413E+05  1.0447639713413E+05  1.0447639713413E+05  1.0447639713413E+05  1.0447639713413E+05  1.0447639713413E+05  5.2238198567065E+04 
 5.9297414589642E+04  1.1859482917928E+05  1.1859482917928E+05  1.1859482917928E+05  1.1859482917928E+05  1.1859482917928E+05  1.1859482917928E+05  1.1859482917928E+05  1.1859482917928E+05  5.9297414589642E+04 
 3.5000000000000E-01  3.5000000000000E-01  3.5000000000000E-01  3.5000000000000E-01  3.5000000000000E-01  3.5000000000000E-01  3.5000000000000E-01  3.5000000000000E-01  3.5000000000000E-01  3.5000000000000E-01 
 8.5301666666667E+00  1.7060333333333E+01  1.7060333333333E+01  1.7060333333333E+01  1.7060333333333E+01  1.7060333333333E+01  1.7060333333333E+01  1.7060333333333E+01  1.7060333333333E+01  8.5301666666667E+00 
 3.6259888438738E+00  3.6259888438738E+00  3.6259888438738E+00  3.6259888438738E+00  3.6259888438738E+00  3.6259888438738E+00  3.6259888438738E+00  3.6259888438738E+00  3.6259888438738E+00  3.6259888438738E+00 
 4.3744444444444E-05  8.7488888888889E-05  8.7488888888889E-05  8.7488888888889E-05  8.7488888888889E-05  8.7488888888889E-05  8.7488888888889E-05  8.7488888888889E-05  8.7488888888889E-05  4.3744444444444E-05 
 1.3380188695655E+01  1.3380188695655E+01  1.3380188695655E+01  1.3380188695655E+01  1.3380188695655E+01  1.3380188695655E+01  1.3380188695655E+01  1.3380188695655E+01  1.3380188695655E+01  1.3380188695655E+01 
 3.3450471739137E+00  3.3450471739137E+00  3.3450471739137E+00  3.3450471739137E+00  3.3450471739137E+00  3.3450471739137E+00  3.3450471739137E+00  3.3450471739137E+00  3.3450471739137E+00  3.3450471739137E+00 
 0.0000000000000E+00  0.0000000000000E+00  0.0000000000000E+00  0.0000000000000E+00  0.0000000000000E+00  0.0000000000000E+00  0.0000000000000E+00  0.0000000000000E+00  0.0000000000000E+00  0.0000000000000E+00 
 0.0000000000000E+00  0.0000000000000E+00  0.0000000000000E+00  0.0000000000000E+00  0.0000000000000E+00  0.0000000000000E+00  0.0000000000000E+00  0.0000000000000E+00  0.0000000000000E+00  0.0000000000000E+00 
 0.0000000000000E+00  0.0000000000000E+00  0.0000000000000E+00  0.0000000000000E+00  0.0000000000000E+00  0.0000000000000E+00  0.0000000000000E+00  0.0000000000000E+00  0.0000000000000E+00  0.0000000000000E+00 
 0.0000000000000E+00  0.0000000000000E+00  0.0000000000000E+00  0.0000000000000E+00  0.0000000000000E+00  0.0000000000000E+00  0.0000000000000E+00  0.0000000000000E+00  0.0000000000000E+00  0.0000000000000E+00 
 0.0000000000000E+00  0.0000000000000E+00  0.0000000000000E+00  0.0000000000000E+00  0.0000000000000E+00  0.0000000000000E+00  0.0000000000000E+00  0.0000000000000E+00  0.0000000000000E+00  0.0000000000000E+00 
 0.0000000000000E+00  0.0000000000000E+00  0.0000000000000E+00  0.0000000000000E+00  0.0000000000000E+00  0.0000000000000E+00  0.0000000000000E+00  0.0000000000000E+00  0.0000000000000E+00  0.0000000000000E+00 
 0.0000000000000E+00  0.0000000000000E+00  0.0000000000000E+00  0.0000000000000E+00  0.0000000000000E+00  0.0000000000000E+00  0.0000000000000E+00  0.0000000000000E+00  0.0000000000000E+00  0.0000000000000E+00 
ZONE T = "ANOD, 1.0000E-08", I = 10, SOLUTIONTIME = 1.000000E-08
ZONETYPE = ORDERED
DATAPACKING = BLOCK
STRANDID = 1
 0.0000000000000E+00  8.7488888888889E-05  1.7497777777778E-04  2.6246666666667E-04  3.4995555555556E-04  4.3744444444444E-04  5.2493333333333E-04  6.1242222222222E-04  6.9991111111111E-04  7.8740000000000E-04 
 1.1589928217518E-09  3.4769806729038E-09  5.7949771621693E-09  8.1129887200186E-09  1.0431021777235E-08  1.2749082764412E-08  1.5067178112477E-08  1.7385314252238E-08  1.9703497614371E-08  2.0862979330131E-08 
 9.1999999999930E-01  9.1999999999930E-01  9.1999999999930E-01  9.1999999999930E-01  9.1999999999930E-01  9.1999999999930E-01  9.1999999999930E-01  9.1999999999930E-01  9.1999999999930E-01  9.1999999999971E-01 
 4.0000000000348E-02  4.0000000000348E-02  4.0000000000348E-02  4.0000000000348E-02  4.0000000000348E-02  4.0000000000348E-02  4.0000000000348E-02  4.0000000000348E-02  4.0000000000348E-02  4.0000000000144E-02 
 4.0000000000348E-02  4.0000000000348E-02  4.0000000000348E-02  4.0000000000348E-02  4.0000000000348E-02  4.0000000000348E-02  4.0000000000348E-02  4.0000000000348E-02  4.0000000000348E-02  4.0000000000144E-02 
 2.9167439050647E-02  2.9167423323531E-02  2.9167376142131E-02  2.9167297506352E-02  2.9167187415966E-02  2.9167045870705E-02  2.9166872870158E-02  2.9166668413892E-02  2.9166432501345E-02  2.9166165131861E-02 
 0.0000000000000E+00 -4.7371318739124E-09 -8.9169746662442E-09 -1.2539526300226E-08 -1.5604783153079E-08 -1.8112740055939E-08 -2.0063390293906E-08 -2.1456725605956E-08 -2.2292736184977E-08 -2.2571410677800E-08 
-2.9167439050647E-02 -2.9167428060662E-02 -2.9167385059106E-02 -2.9167310045878E-02 -2.9167203020749E-02 -2.9167063983445E-02 -2.9166892933549E-02 -2.9166689870618E-02 -2.9166454794081E-02 -2.9166187703272E-02 
-4.0906790793438E-02 -4.0906790793438E-02 -4.0906790793438E-02 -4.0906790793438E-02 -4.0906790793437E-02 -4.0906790793438E-02 -4.0906790793438E-02 -4.0906790793437E-02 -4.0906790793437E-02 -4.0906790793568E-02 
 1.1739351742791E-02  1.1739362732776E-02  1.1739405734332E-02  1.1739480747560E-02  1.1739587772688E-02  1.1739726809993E-02  1.1739897859890E-02  1.1740100922819E-02  1.1740335999356E-02  1.1740603090296E-02 
 1.6690505687910E+00  3.3381043167796E+00  3.3381167563290E+00  3.3381384562641E+00  3.3381694166606E+00  3.3382096376113E+00  3.3382591192529E+00  3.3383178617341E+00  3.3383858652457E+00  1.6692315650042E+00 
 8.6491974765454E-09  2.5947619029590E-08  4.3246094639249E-08  6.0544694693036E-08  7.7843442060681E-08  9.5142415507563E-08  1.1244162745221E-07  1.2974114874285E-07  1.4704110162241E-07  1.4704110162241E-07 
 0.0000000000000E+00  3.3380854810244E+00  6.6761787442250E+00  1.0014289230130E+01  1.3352425937064E+01  1.6690598670806E+01  2.0028816228829E+01  2.3367086645893E+01  2.6705421594489E+01  3.0043837975772E+01 
 3.0043837488743E+01  2.6705743354820E+01  2.3367650004772E+01  2.0029539584956E+01  1.6691402834760E+01  1.3353230493481E+01  1.0015013300310E+01  6.6767419942844E+00  3.3384073146250E+00  0.0000000000000E+00 
 1.6690505687910E-08  3.3381043167796E-08  3.3381167563290E-08  3.3381384562641E-08  3.3381694166606E-08  3.3382096376113E-08  3.3382591192529E-08  3.3383178617341E-08  3.3383858652457E-08  1.6692315650042E-08 
 7.0592160225931E+03  1.4118432045186E+04  1.4118432045186E+04  1.4118432045186E+04  1.4118432045186E+04  1.4118432045186E+04  1.4118432045186E+04  1.4118432045186E+04  1.4118432045186E+04  7.0592160225931E+03 
 5.2238198567049E+04  1.0447639713410E+05  1.0447639713410E+05  1.0447639713410E+05  1.0447639713410E+05  1.0447639713410E+05  1.0447639713410E+05  1.0447639713410E+05  1.0447639713410E+05  5.2238198567049E+04 
 5.9297414589642E+04  1.1859482917928E+05  1.1859482917928E+05  1.1859482917928E+05  1.1859482917928E+05  1.1859482917928E+05  1.1859482917928E+05  1.1859482917928E+05  1.1859482917928E+05  5.9297414589642E+04 
 3.5000000000000E-01  3.5000000000000E-01  3.5000000000000E-01  3.5000000000000E-01  3.5000000000000E-01  3.5000000000000E-01  3.5000000000000E-01  3.5000000000000E-01  3.5000000000000E-01  3.5000000000000E-01 
 8.5301666666665E+00  1.7060333333333E+01  1.7060333333333E+01  1.7060333333333E+01  1.7060333333333E+01  1.7060333333333E+01  1.7060333333333E+01  1.7060333333333E+01  1.7060333333333E+01  8.5301666666665E+00 
 1.9566447339337E-01  1.9566465974364E-01  1.9566538889406E-01  1.9566666084666E-01  1.9566847560583E-01  1.9567083317704E-01  1.9567373356830E-01  1.9567717678831E-01  1.9568116284827E-01  1.9568569176111E-01 
 4.3744444444444E-05  8.7488888888889E-05  8.7488888888889E-05  8.7488888888889E-05  8.7488888888889E-05  8.7488888888889E-05  8.7488888888889E-05  8.7488888888889E-05  8.7488888888889E-05  4.3744444444444E-05 
 1.3380188695651E+01  1.3380188695651E+01  1.3380188695651E+01  1.3380188695651E+01  1.3380188695651E+01  1.3380188695651E+01  1.3380188695651E+01  1.3380188695651E+01  1.3380188695651E+01  1.3380188695651E+01 
 3.3450471739177E+00  3.3450471739177E+00  3.3450471739177E+00  3.3450471739177E+00  3.3450471739177E+00  3.3450471739177E+00  3.3450471739177E+00  3.3450471739177E+00  3.3450471739177E+00  3.3450471739177E+00 
 1.8363968233984E-11  2.8664049142173E-11  6.1478129709648E-11  1.1872033033778E-10  2.0039126549957E-10  3.0649187810063E-10  4.3702331191507E-10  5.9198697337807E-10  7.7138468657280E-10  8.6719229371084E-10 
 1.8363968233984E-03  2.8664049142173E-03  6.1478129709648E-03  1.1872033033778E-02  2.0039126549957E-02  3.0649187810063E-02  4.3702331191507E-02  5.9198697337807E-02  7.7138468657280E-02  8.6719229371084E-02 
 3.0002907154954E-04  1.5001481258994E-03  5.1005155874422E-03  1.1101170097251E-02  1.9502173040148E-02  3.0303618172305E-02  4.3505618864806E-02  5.9108314282893E-02  7.7111884884620E-02  8.6713912468886E-02 
 1.5363677518488E-03  1.3662567883180E-03  1.0472973835226E-03  7.7086293652774E-04  5.3695350980941E-04  3.4556963775838E-04  1.9671232670096E-04  9.0383054914346E-05  2.6583772660063E-05  5.3169021979716E-06 
 0.0000000000000E+00  0.0000000000000E+00  0.0000000000000E+00  0.0000000000000E+00  0.0000000000000E+00  0.0000000000000E+00  0.0000000000000E+00  0.0000000000000E+00  0.0000000000000E+00  0.0000000000000E+00 
 0.0000000000000E+00  0.0000000000000E+00  0.0000000000000E+00  0.0000000000000E+00  0.0000000000000E+00  0.0000000000000E+00  0.0000000000000E+00  0.0000000000000E+00  0.0000000000000E+00  0.0000000000000E+00 
 0.0000000000000E+00  0.0000000000000E+00  0.0000000000000E+00  0.0000000000000E+00  0.0000000000000E+00  0.0000000000000E+00  0.0000000000000E+00  0.0000000000000E+00  0.0000000000000E+00  0.0000000000000E+00 
ZONE T = "ANOD, 2.0000E-08", I = 10, SOLUTIONTIME = 2.000000E-08
ZONETYPE = ORDERED
DATAPACKING = BLOCK
STRANDID = 1
 0.0000000000000E+00  8.7488888888889E-05  1.7497777777778E-04  2.6246666666667E-04  3.4995555555556E-04  4.3744444444444E-04  5.2493333333333E-04  6.1242222222222E-04  6.9991111111111E-04  7.8740000000000E-04 
 1.1589985683254E-09  3.4769979126422E-09  5.7950058950990E-09  8.1130289461977E-09  1.0431073496488E-08  1.2748419561134E-08  1.5065799986297E-08  1.7383584410524E-08  1.9701416057034E-08  2.0860903518583E-08 
 9.1999999999861E-01  9.1999999999861E-01  9.1999999999861E-01  9.1999999999861E-01  9.1999999999861E-01  9.1999999999861E-01  9.1999999999861E-01  9.1999999999861E-01  9.1999999999861E-01  9.1999999999942E-01 
 4.0000000000696E-02  4.0000000000696E-02  4.0000000000696E-02  4.0000000000696E-02  4.0000000000696E-02  4.0000000000696E-02  4.0000000000696E-02  4.0000000000696E-02  4.0000000000696E-02  4.0000000000288E-02 
 4.0000000000696E-02  4.0000000000696E-02  4.0000000000696E-02  4.0000000000696E-02  4.0000000000696E-02  4.0000000000696E-02  4.0000000000696E-02  4.0000000000696E-02  4.0000000000696E-02  4.0000000000288E-02 
 2.9167441246733E-02  2.9167425519533E-02  2.9167378337904E-02  2.9167299701728E-02  2.9167189610801E-02  2.9167048064831E-02  2.9166875063439E-02  2.9166670606159E-02  2.9166434692437E-02  2.9166167321633E-02 
 0.0000000000000E+00 -4.7371553600525E-09 -8.9170188753455E-09 -1.2539588469103E-08 -1.5604860518533E-08 -1.8112829854813E-08 -2.0063489763078E-08 -2.1456831982394E-08 -2.2292846705737E-08 -2.2571522579956E-08 
-2.9167441246733E-02 -2.9167430256689E-02 -2.9167387254923E-02 -2.9167312241317E-02 -2.9167205215662E-02 -2.9167066177661E-02 -2.9166895126929E-02 -2.9166692062991E-02 -2.9166456985284E-02 -2.9166189893156E-02 
-4.0906790792716E-02 -4.0906790792716E-02 -4.0906790792716E-02 -4.0906790792716E-02 -4.0906790792716E-02 -4.0906790792716E-02 -4.0906790792716E-02 -4.0906790792716E-02 -4.0906790792716E-02 -4.0906790792978E-02 
 1.1739349545983E-02  1.1739360536027E-02  1.1739403537793E-02  1.1739478551399E-02  1.1739585577054E-02  1.1739724615055E-02  1.1739895665787E-02  1.1740098729725E-02  1.1740333807432E-02  1.1740600899823E-02 
 1.6690502510602E+00  3.3381036813352E+00  3.3381161209450E+00  3.3381378209895E+00  3.3381687815381E+00  3.3382090026896E+00  3.3382584845725E+00  3.3383172273448E+00  3.3383852311942E+00  1.6692312481837E+00 
 8.6492430504479E-09  2.5947745614413E-08  4.3246312650105E-08  6.0544992133396E-08  7.7843832058538E-08  9.5142880418601E-08  1.1244218520088E-07  1.2974179439497E-07  1.4704190022660E-07  1.4704190022660E-07 
 0.0000000000000E+00  3.3381020918170E+00  6.6762119928726E+00  1.0014338963831E+01  1.3352492264989E+01  1.6690681157196E+01  2.0028914900930E+01  2.3367202756858E+01  2.6705553985939E+01  3.0043977849493E+01 
 3.0043977849853E+01  2.6705875758125E+01  2.3367765856985E+01  2.0029638886018E+01  1.6691485584754E+01  1.3353296692640E+01  1.0015062949009E+01  6.6767750930503E+00  3.3384238637808E+00  0.0000000000000E+00 
 3.3381008198512E-08  6.6762079981148E-08  6.6762328772739E-08  6.6762762772537E-08  6.6763381981987E-08  6.6764186403009E-08  6.6765176038254E-08  6.6766350890789E-08  6.6767710964399E-08  3.3384628131879E-08 
 7.0592160226098E+03  1.4118432045220E+04  1.4118432045220E+04  1.4118432045220E+04  1.4118432045220E+04  1.4118432045220E+04  1.4118432045220E+04  1.4118432045220E+04  1.4118432045220E+04  7.0592160226098E+03 
 5.2238198567032E+04  1.0447639713406E+05  1.0447639713406E+05  1.0447639713406E+05  1.0447639713406E+05  1.0447639713406E+05  1.0447639713406E+05  1.0447639713406E+05  1.0447639713406E+05  5.2238198567032E+04 
 5.9297414589642E+04  1.1859482917928E+05  1.1859482917928E+05  1.1859482917928E+05  1.1859482917928E+05  1.1859482917928E+05  1.1859482917928E+05  1.1859482917928E+05  1.1859482917928E+05  5.9297414589642E+04 
 3.5000000000000E-01  3.5000000000000E-01  3.5000000000000E-01  3.5000000000000E-01  3.5000000000000E-01  3.5000000000000E-01  3.5000000000000E-01  3.5000000000000E-01  3.5000000000000E-01  3.5000000000000E-01 
 8.5301666666663E+00  1.7060333333333E+01  1.7060333333333E+01  1.7060333333333E+01  1.7060333333333E+01  1.7060333333333E+01  1.7060333333333E+01  1.7060333333333E+01  1.7060333333333E+01  8.5301666666663E+00 
 1.9566443614548E-01  1.9566462249675E-01  1.9566535165072E-01  1.9566662360972E-01  1.9566843837781E-01  1.9567079596079E-01  1.9567369636619E-01  1.9567713960327E-01  1.9568112568303E-01  1.9568565461993E-01 
 4.3744444444444E-05  8.7488888888889E-05  8.7488888888889E-05  8.7488888888889E-05  8.7488888888889E-05  8.7488888888889E-05  8.7488888888889E-05  8.7488888888889E-05  8.7488888888889E-05  4.3744444444444E-05 
 1.3380188695647E+01  1.3380188695647E+01  1.3380188695647E+01  1.3380188695647E+01  1.3380188695647E+01  1.3380188695647E+01  1.3380188695647E+01  1.3380188695647E+01  1.3380188695647E+01  1.3380188695647E+01 
 3.3450471739216E+00  3.3450471739216E+00  3.3450471739216E+00  3.3450471739216E+00  3.3450471739216E+00  3.3450471739216E+00  3.3450471739216E+00  3.3450471739216E+00  3.3450471739216E+00  3.3450471739216E+00 
 3.6728120427386E-11  5.7328381301534E-11  1.2295687312670E-10  2.3744183749408E-10  4.0078452407433E-10  6.1298678206261E-10  8.7405093259632E-10  1.1839798305804E-09  1.5427770196879E-09  1.7343931565207E-09 
 1.8364152193402E-03  2.8664332159361E-03  6.1478743417051E-03  1.1872150715629E-02  2.0039325857475E-02  3.0649490396198E-02  4.3702762068125E-02  5.9199285720228E-02  7.7139233311511E-02  8.6720086280990E-02 
 6.0006130474358E-04  3.0003110060633E-03  1.0201082161005E-02  2.2202450232867E-02  3.9004540063750E-02  6.0607535504381E-02  8.7011666655848E-02  1.1821721605209E-01  1.5422453415991E-01  1.7342868179497E-01 
 3.0727507379950E-03  2.7325271240902E-03  2.0946051516645E-03  1.5417335165413E-03  1.0739123436832E-03  6.9114270187985E-04  3.9342660378434E-04  1.8076700594892E-04  5.3167808884836E-05  1.0633857108125E-05 
 0.0000000000000E+00  0.0000000000000E+00  0.0000000000000E+00  0.0000000000000E+00  0.0000000000000E+00  0.0000000000000E+00  0.0000000000000E+00  0.0000000000000E+00  0.0000000000000E+00  0.0000000000000E+00 
 0.0000000000000E+00  0.0000000000000E+00  0.0000000000000E+00  0.0000000000000E+00  0.0000000000000E+00  0.0000000000000E+00  0.0000000000000E+00  0.0000000000000E+00  0.0000000000000E+00  0.0000000000000E+00 
 0.0000000000000E+00  0.0000000000000E+00  0.0000000000000E+00  0.0000000000000E+00  0.0000000000000E+00  0.0000000000000E+00  0.0000000000000E+00  0.0000000000000E+00  0.0000000000000E+00  0.0000000000000E+00 
ZONE T = "ANOD, 3.0000E-08", I = 10, SOLUTIONTIME = 3.000000E-08
ZONETYPE = ORDERED
DATAPACKING = BLOCK
STRANDID = 1
 0.0000000000000E+00  8.7488888888889E-05  1.7497777777778E-04  2.6246666666667E-04  3.4995555555556E-04  4.3744444444444E-04  5.2493333333333E-04  6.1242222222222E-04  6.9991111111111E-04  7.8740000000000E-04 
 1.1589985683010E-09  3.4769979125690E-09  5.7950058949770E-09  8.1130289460270E-09  1.0431073496269E-08  1.2750962014960E-08  1.5069795270986E-08  1.7388306110621E-08  1.9706864172539E-08  2.0865625218617E-08 
 9.1999999999791E-01  9.1999999999791E-01  9.1999999999791E-01  9.1999999999791E-01  9.1999999999791E-01  9.1999999999791E-01  9.1999999999791E-01  9.1999999999791E-01  9.1999999999791E-01  9.1999999999914E-01 
 4.0000000001045E-02  4.0000000001045E-02  4.0000000001045E-02  4.0000000001045E-02  4.0000000001045E-02  4.0000000001045E-02  4.0000000001045E-02  4.0000000001045E-02  4.0000000001045E-02  4.0000000000432E-02 
 4.0000000001045E-02  4.0000000001045E-02  4.0000000001045E-02  4.0000000001045E-02  4.0000000001045E-02  4.0000000001045E-02  4.0000000001045E-02  4.0000000001045E-02  4.0000000001045E-02  4.0000000000432E-02 
 2.9167441246369E-02  2.9167425519170E-02  2.9167378337540E-02  2.9167299701364E-02  2.9167189610437E-02  2.9167048064467E-02  2.9166875063075E-02  2.9166670605795E-02  2.9166434692074E-02  2.9166167321269E-02 
 0.0000000000000E+00 -4.7371553599559E-09 -8.9170188751640E-09 -1.2539588468849E-08 -1.5604860518217E-08 -1.8112829854447E-08 -2.0063489762674E-08 -2.1456831981964E-08 -2.2292846705291E-08 -2.2571522579507E-08 
-2.9167441246369E-02 -2.9167430256325E-02 -2.9167387254559E-02 -2.9167312240953E-02 -2.9167205215298E-02 -2.9167066177297E-02 -2.9166895126565E-02 -2.9166692062627E-02 -2.9166456984920E-02 -2.9166189892792E-02 
-4.0906790791992E-02 -4.0906790791992E-02 -4.0906790791992E-02 -4.0906790791992E-02 -4.0906790791994E-02 -4.0906790791994E-02 -4.0906790791994E-02 -4.0906790791996E-02 -4.0906790791996E-02 -4.0906790792390E-02 
 1.1739349545623E-02  1.1739360535667E-02  1.1739403537433E-02  1.1739478551039E-02  1.1739585576696E-02  1.1739724614697E-02  1.1739895665429E-02  1.1740098729369E-02  1.1740333807076E-02  1.1740600899598E-02 
 1.6690502510251E+00  3.3381036812650E+00  3.3381161208747E+00  3.3381378209192E+00  3.3381687814682E+00  3.3382090026197E+00  3.3382584845027E+00  3.3383172272755E+00  3.3383852311249E+00  1.6692312481637E+00 
 8.6492430505232E-09  2.5947745612731E-08  4.3246312650481E-08  6.0544992128191E-08  7.7843832058877E-08  9.5142880413358E-08  1.1244218519804E-07  1.2974179439228E-07  1.4704197234285E-07  1.4704197234285E-07 
 0.0000000000000E+00  3.3381020916620E+00  6.6762119927466E+00  1.0014338963734E+01  1.3352492264737E+01  1.6690681156789E+01  2.0028914900368E+01  2.3367202756325E+01  2.6705553985583E+01  3.0043977849280E+01 
 3.0043977849239E+01  2.6705875757581E+01  2.3367765856511E+01  2.0029638885614E+01  1.6691485584421E+01  1.3353296692377E+01  1.0015062948815E+01  6.6767750929263E+00  3.3384238637261E+00  0.0000000000000E+00 
 5.0071510708763E-08  1.0014311679380E-07  1.0014348998149E-07  1.0014414098173E-07  1.0014506979667E-07  1.0014627642921E-07  1.0014776088328E-07  1.0014952316354E-07  1.0015156327565E-07  5.0076940613516E-08 
 7.0592160226264E+03  1.4118432045253E+04  1.4118432045253E+04  1.4118432045253E+04  1.4118432045253E+04  1.4118432045253E+04  1.4118432045253E+04  1.4118432045253E+04  1.4118432045253E+04  7.0592160226265E+03 
 5.2238198567015E+04  1.0447639713403E+05  1.0447639713403E+05  1.0447639713403E+05  1.0447639713403E+05  1.0447639713403E+05  1.0447639713403E+05  1.0447639713403E+05  1.0447639713403E+05  5.2238198567015E+04 
 5.9297414589642E+04  1.1859482917928E+05  1.1859482917928E+05  1.1859482917928E+05  1.1859482917928E+05  1.1859482917928E+05  1.1859482917928E+05  1.1859482917928E+05  1.1859482917928E+05  5.9297414589642E+04 
 3.5000000000000E-01  3.5000000000000E-01  3.5000000000000E-01  3.5000000000000E-01  3.5000000000000E-01  3.5000000000000E-01  3.5000000000000E-01  3.5000000000000E-01  3.5000000000000E-01  3.5000000000000E-01 
 8.5301666666661E+00  1.7060333333332E+01  1.7060333333332E+01  1.7060333333332E+01  1.7060333333332E+01  1.7060333333332E+01  1.7060333333332E+01  1.7060333333332E+01  1.7060333333332E+01  8.5301666666661E+00 
 1.9566443614137E-01  1.9566462249264E-01  1.9566535164660E-01  1.9566662360560E-01  1.9566843837372E-01  1.9567079595670E-01  1.9567369636210E-01  1.9567713959921E-01  1.9568112567897E-01  1.9568565461759E-01 
 4.3744444444444E-05  8.7488888888889E-05  8.7488888888889E-05  8.7488888888889E-05  8.7488888888889E-05  8.7488888888889E-05  8.7488888888889E-05  8.7488888888889E-05  8.7488888888889E-05  4.3744444444444E-05 
 1.3380188695643E+01  1.3380188695643E+01  1.3380188695643E+01  1.3380188695643E+01  1.3380188695643E+01  1.3380188695643E+01  1.3380188695643E+01  1.3380188695643E+01  1.3380188695643E+01  1.3380188695643E+01 
 3.3450471739256E+00  3.3450471739256E+00  3.3450471739256E+00  3.3450471739256E+00  3.3450471739256E+00  3.3450471739256E+00  3.3450471739256E+00  3.3450471739256E+00  3.3450471739256E+00  3.3450471739256E+00 
 5.5092272620187E-11  8.5992713458484E-11  1.8443561654178E-10  3.5616334464640E-10  6.0117778263998E-10  9.1948168600658E-10  1.3110785532495E-09  1.7759726877507E-09  2.3141693527775E-09  2.6015940193135E-09 
 1.8364152192802E-03  2.8664332156950E-03  6.1478743415085E-03  1.1872150715232E-02  2.0039325856565E-02  3.0649490394396E-02  4.3702762065319E-02  5.9199285717033E-02  7.7139233308960E-02  8.6720086279273E-02 
 9.0009353794023E-04  4.5004738860417E-03  1.5301648734415E-02  3.3303730368116E-02  5.8506907086462E-02  9.0911452834670E-02  1.3051771444409E-01  1.7732611781809E-01  2.3133718343264E-01  2.6014345111933E-01 
 4.6091337240785E-03  4.0987974598067E-03  3.1419129197639E-03  2.3126040965239E-03  1.6108711775355E-03  1.0367157659877E-03  5.9014088086010E-04  2.7115095698012E-04  7.9751845108693E-05  1.5950812018150E-05 
 0.0000000000000E+00  0.0000000000000E+00  0.0000000000000E+00  0.0000000000000E+00  0.0000000000000E+00  0.0000000000000E+00  0.0000000000000E+00  0.0000000000000E+00  0.0000000000000E+00  0.0000000000000E+00 
 0.0000000000000E+00  0.0000000000000E+00  0.0000000000000E+00  0.0000000000000E+00  0.0000000000000E+00  0.0000000000000E+00  0.0000000000000E+00  0.0000000000000E+00  0.0000000000000E+00  0.0000000000000E+00 
 0.0000000000000E+00  0.0000000000000E+00  0.0000000000000E+00  0.0000000000000E+00  0.0000000000000E+00  0.0000000000000E+00  0.0000000000000E+00  0.0000000000000E+00  0.0000000000000E+00  0.0000000000000E+00 
ZONE T = "ANOD, 4.0000E-08", I = 10, SOLUTIONTIME = 4.000000E-08
ZONETYPE = ORDERED
DATAPACKING = BLOCK
STRANDID = 1
 0.0000000000000E+00  8.7488888888889E-05  1.7497777777778E-04  2.6246666666667E-04  3.4995555555556E-04  4.3744444444444E-04  5.2493333333333E-04  6.1242222222222E-04  6.9991111111111E-04  7.8740000000000E-04 
 1.1589985682768E-09  3.4769979124963E-09  5.7950058948560E-09  8.1130289458575E-09  1.0429983872867E-08  1.2745877106504E-08  1.5063983947026E-08  1.7382857994340E-08  1.9701779263937E-08  2.0860903517729E-08 
 9.1999999999721E-01  9.1999999999721E-01  9.1999999999721E-01  9.1999999999721E-01  9.1999999999721E-01  9.1999999999721E-01  9.1999999999721E-01  9.1999999999721E-01  9.1999999999721E-01  9.1999999999885E-01 
 4.0000000001393E-02  4.0000000001393E-02  4.0000000001393E-02  4.0000000001393E-02  4.0000000001393E-02  4.0000000001393E-02  4.0000000001393E-02  4.0000000001393E-02  4.0000000001393E-02  4.0000000000576E-02 
 4.0000000001393E-02  4.0000000001393E-02  4.0000000001393E-02  4.0000000001393E-02  4.0000000001393E-02  4.0000000001393E-02  4.0000000001393E-02  4.0000000001393E-02  4.0000000001393E-02  4.0000000000576E-02 
 2.9167441246004E-02  2.9167425518804E-02  2.9167378337175E-02  2.9167299700999E-02  2.9167189610072E-02  2.9167048064102E-02  2.9166875062710E-02  2.9166670605430E-02  2.9166434691708E-02  2.9166167320904E-02 
 0.0000000000000E+00 -4.7371553598590E-09 -8.9170188749819E-09 -1.2539588468593E-08 -1.5604860517899E-08 -1.8112829854079E-08 -2.0063489762267E-08 -2.1456831981530E-08 -2.2292846704843E-08 -2.2571522579056E-08 
-2.9167441246004E-02 -2.9167430255959E-02 -2.9167387254194E-02 -2.9167312240587E-02 -2.9167205214932E-02 -2.9167066176932E-02 -2.9166895126200E-02 -2.9166692062262E-02 -2.9166456984555E-02 -2.9166189892427E-02 
-4.0906790791268E-02 -4.0906790791268E-02 -4.0906790791268E-02 -4.0906790791268E-02 -4.0906790791268E-02 -4.0906790791268E-02 -4.0906790791268E-02 -4.0906790791271E-02 -4.0906790791271E-02 -4.0906790791796E-02 
 1.1739349545264E-02  1.1739360535309E-02  1.1739403537075E-02  1.1739478550681E-02  1.1739585576335E-02  1.1739724614336E-02  1.1739895665068E-02  1.1740098729009E-02  1.1740333806716E-02  1.1740600899369E-02 
 1.6690502509902E+00  3.3381036811953E+00  3.3381161208051E+00  3.3381378208496E+00  3.3381687813980E+00  3.3382090025494E+00  3.3382584844324E+00  3.3383172272055E+00  3.3383852310549E+00  1.6692312481434E+00 