TITLE = "Solution on Domain BulkDomain1D_1"
VARIABLES = "x [m]"  
"Vel_axial(0)" 	"MF_sp(ECDMC)" 	"MF_sp(Li+)" 	"MF_sp(PF6-)" 	"Volt(Electroly)" 	"qHeat_accum [J/m3]" 	"qHeat_step [W/m3]" 	"Joule_Lyte [W/m3]" 	"Joule_Solid [W/m3]" 	
ZONE T = "t = 0 [s]" I = 10 SOLUTIONTIME = 0.0000000000000E+00
0.0007874 	0 	0.92 	0.04 	0.04 	-0.07 	
0 	0.0 	 0.0 	 0.0 	 
0.000841022 	0 	0.92 	0.04 	0.04 	-0.07 	
0 	0.0 	 0.0 	 0.0 	 
0.000894644 	0 	0.92 	0.04 	0.04 	-0.07 	
0 	0.0 	 0.0 	 0.0 	 
0.000948267 	0 	0.92 	0.04 	0.04 	-0.07 	
0 	0.0 	 0.0 	 0.0 	 
0.00100189 	0 	0.92 	0.04 	0.04 	-0.07 	
0 	0.0 	 0.0 	 0.0 	 
0.00105551 	0 	0.92 	0.04 	0.04 	-0.07 	
0 	0.0 	 0.0 	 0.0 	 
0.00110913 	0 	0.92 	0.04 	0.04 	-0.07 	
0 	0.0 	 0.0 	 0.0 	 
0.00116276 	0 	0.92 	0.04 	0.04 	-0.07 	
0 	0.0 	 0.0 	 0.0 	 
0.00121638 	0 	0.92 	0.04 	0.04 	-0.07 	
0 	0.0 	 0.0 	 0.0 	 
0.00127 	0 	0.92 	0.04 	0.04 	-0.07 	
0 	0.0 	 0.0 	 0.0 	 
ZONE T = "t = 1e-08 [s]" I = 10 SOLUTIONTIME = 1.0000000000000E-08
0.0007874 	3.56737e-08 	0.92 	0.04 	0.04 	0.0211481 	
8.08569e-10 	0.0808569 	0.0808569 	0 	
0.000841022 	3.56737e-08 	0.92 	0.04 	0.04 	0.021148 	
8.08569e-10 	0.0808569 	0.0808569 	0 	
0.000894644 	3.56737e-08 	0.92 	0.04 	0.04 	0.0211479 	
8.08569e-10 	0.0808569 	0.0808569 	0 	
0.000948267 	3.56737e-08 	0.92 	0.04 	0.04 	0.0211478 	
8.08569e-10 	0.0808569 	0.0808569 	0 	
0.00100189 	3.56737e-08 	0.92 	0.04 	0.04 	0.0211477 	
8.08569e-10 	0.0808569 	0.0808569 	0 	
0.00105551 	3.56737e-08 	0.92 	0.04 	0.04 	0.0211477 	
8.08569e-10 	0.0808569 	0.0808569 	0 	
0.00110913 	3.56737e-08 	0.92 	0.04 	0.04 	0.0211476 	
8.08569e-10 	0.0808569 	0.0808569 	0 	
0.00116276 	3.56737e-08 	0.92 	0.04 	0.04 	0.0211475 	
8.08569e-10 	0.0808569 	0.0808569 	0 	
0.00121638 	3.56737e-08 	0.92 	0.04 	0.04 	0.0211474 	
8.08569e-10 	0.0808569 	0.0808569 	0 	
0.00127 	3.17164e-08 	0.92 	0.04 	0.04 	0.0211473 	
8.08569e-10 	0.0808569 	0.0808569 	0 	
ZONE T = "t = 2e-08 [s]" I = 10 SOLUTIONTIME = 2.0000000000000E-08
0.0007874 	2.08685e-08 	0.92 	0.04 	0.04 	0.029162 	
1.08535e-09 	0.0276785 	0.0276785 	0 	
0.000841022 	2.08685e-08 	0.92 	0.04 	0.04 	0.0291619 	
1.08535e-09 	0.0276785 	0.0276785 	0 	
0.000894644 	2.08685e-08 	0.92 	0.04 	0.04 	0.0291619 	
1.08535e-09 	0.0276785 	0.0276785 	0 	
0.000948267 	2.08685e-08 	0.92 	0.04 	0.04 	0.0291618 	
1.08535e-09 	0.0276785 	0.0276785 	0 	
0.00100189 	2.08685e-08 	0.92 	0.04 	0.04 	0.0291618 	
1.08535e-09 	0.0276785 	0.0276785 	0 	
0.00105551 	2.08685e-08 	0.92 	0.04 	0.04 	0.0291617 	
1.08535e-09 	0.0276785 	0.0276785 	0 	
0.00110913 	2.08685e-08 	0.92 	0.04 	0.04 	0.0291617 	
1.08535e-09 	0.0276785 	0.0276785 	0 	
0.00116276 	2.08685e-08 	0.92 	0.04 	0.04 	0.0291616 	
1.08535e-09 	0.0276785 	0.0276785 	0 	
0.00121638 	2.08685e-08 	0.92 	0.04 	0.04 	0.0291616 	
1.08535e-09 	0.0276785 	0.0276785 	0 	
0.00127 	1.85522e-08 	0.92 	0.04 	0.04 	0.0291615 	
1.08535e-09 	0.0276785 	0.0276785 	0 	
ZONE T = "t = 3e-08 [s]" I = 10 SOLUTIONTIME = 3.0000000000000E-08
0.0007874 	2.08747e-08 	0.92 	0.04 	0.04 	0.029162 	
1.36214e-09 	0.0276785 	0.0276785 	0 	
0.000841022 	2.08747e-08 	0.92 	0.04 	0.04 	0.0291619 	
1.36214e-09 	0.0276785 	0.0276785 	0 	
0.000894644 	2.08747e-08 	0.92 	0.04 	0.04 	0.0291619 	
1.36214e-09 	0.0276785 	0.0276785 	0 	
0.000948267 	2.08747e-08 	0.92 	0.04 	0.04 	0.0291618 	
1.36214e-09 	0.0276785 	0.0276785 	0 	
0.00100189 	2.08747e-08 	0.92 	0.04 	0.04 	0.0291618 	
1.36214e-09 	0.0276785 	0.0276785 	0 	
0.00105551 	2.08747e-08 	0.92 	0.04 	0.04 	0.0291617 	
1.36214e-09 	0.0276785 	0.0276785 	0 	
0.00110913 	2.08747e-08 	0.92 	0.04 	0.04 	0.0291617 	
1.36214e-09 	0.0276785 	0.0276785 	0 	
0.00116276 	2.08747e-08 	0.92 	0.04 	0.04 	0.0291616 	
1.36214e-09 	0.0276785 	0.0276785 	0 	
0.00121638 	2.08747e-08 	0.92 	0.04 	0.04 	0.0291616 	
1.36214e-09 	0.0276785 	0.0276785 	0 	
0.00127 	1.8557e-08 	0.92 	0.04 	0.04 	0.0291615 	
1.36214e-09 	0.0276785 	0.0276785 	0 	
ZONE T = "t = 4e-08 [s]" I = 10 SOLUTIONTIME = 4.0000000000000E-08
0.0007874 	2.08718e-08 	0.92 	0.04 	0.04 	0.029162 	
1.63892e-09 	0.0276785 	0.0276785 	0 	
0.000841022 	2.08718e-08 	0.92 	0.04 	0.04 	0.0291619 	
1.63892e-09 	0.0276785 	0.0276785 	0 	
0.000894644 	2.08718e-08 	0.92 	0.04 	0.04 	0.0291619 	
1.63892e-09 	0.0276785 	0.0276785 	0 	
0.000948267 	2.08718e-08 	0.92 	0.04 	0.04 	0.0291618 	
1.63892e-09 	0.0276785 	0.0276785 	0 	
0.00100189 	2.08718e-08 	0.92 	0.04 	0.04 	0.0291618 	
1.63892e-09 	0.0276785 	0.0276785 	0 	
0.00105551 	2.08718e-08 	0.92 	0.04 	0.04 	0.0291617 	
1.63892e-09 	0.0276785 	0.0276785 	0 	
0.00110913 	2.08718e-08 	0.92 	0.04 	0.04 	0.0291617 	
1.63892e-09 	0.0276785 	0.0276785 	0 	
0.00116276 	2.08718e-08 	0.92 	0.04 	0.04 	0.0291616 	
1.63892e-09 	0.0276785 	0.0276785 	0 	
0.00121638 	2.08718e-08 	0.92 	0.04 	0.04 	0.0291616 	
1.63892e-09 	0.0276785 	0.0276785 	0 	
0.00127 	1.85555e-08 	0.92 	0.04 	0.04 	0.0291615 	
1.63892e-09 	0.0276785 	0.0276785 	0 	
ZONE T = "t = 5.5e-08 [s]" I = 10 SOLUTIONTIME = 5.5000000000000E-08
0.0007874 	2.08686e-08 	0.92 	0.04 	0.04 	0.029162 	
2.0541e-09 	0.0276785 	0.0276785 	0 	
0.000841022 	2.08686e-08 	0.92 	0.04 	0.04 	0.0291619 	
2.0541e-09 	0.0276785 	0.0276785 	0 	
0.000894644 	2.08686e-08 	0.92 	0.04 	0.04 	0.0291619 	
2.0541e-09 	0.0276785 	0.0276785 	0 	
0.000948267 	2.08686e-08 	0.92 	0.04 	0.04 	0.0291618 	
2.0541e-09 	0.0276785 	0.0276785 	0 	
0.00100189 	2.08686e-08 	0.92 	0.04 	0.04 	0.0291618 	
2.0541e-09 	0.0276785 	0.0276785 	0 	
0.00105551 	2.08686e-08 	0.92 	0.04 	0.04 	0.0291617 	
2.0541e-09 	0.0276785 	0.0276785 	0 	
0.00110913 	2.08686e-08 	0.92 	0.04 	0.04 	0.0291617 	
2.0541e-09 	0.0276785 	0.0276785 	0 	
0.00116276 	2.08686e-08 	0.92 	0.04 	0.04 	0.0291616 	
2.0541e-09 	0.0276785 	0.0276785 	0 	
0.00121638 	2.08686e-08 	0.92 	0.04 	0.04 	0.0291616 	
2.0541e-09 	0.0276785 	0.0276785 	0 	
0.00127 	1.85525e-08 	0.92 	0.04 	0.04 	0.0291615 	
2.0541e-09 	0.0276785 	0.0276785 	0 	
ZONE T = "t = 7.75e-08 [s]" I = 10 SOLUTIONTIME = 7.7500000000000E-08
0.0007874 	2.08735e-08 	0.92 	0.04 	0.04 	0.029162 	
2.67687e-09 	0.0276785 	0.0276785 	0 	
0.000841022 	2.08735e-08 	0.92 	0.04 	0.04 	0.0291619 	
2.67687e-09 	0.0276785 	0.0276785 	0 	
0.000894644 	2.08735e-08 	0.92 	0.04 	0.04 	0.0291619 	
2.67687e-09 	0.0276785 	0.0276785 	0 	
0.000948267 	2.08735e-08 	0.92 	0.04 	0.04 	0.0291618 	
2.67687e-09 	0.0276785 	0.0276785 	0 	
0.00100189 	2.08735e-08 	0.92 	0.04 	0.04 	0.0291618 	
2.67687e-09 	0.0276785 	0.0276785 	0 	
0.00105551 	2.08735e-08 	0.92 	0.04 	0.04 	0.0291617 	
2.67687e-09 	0.0276785 	0.0276785 	0 	
0.00110913 	2.08735e-08 	0.92 	0.04 	0.04 	0.0291617 	
2.67687e-09 	0.0276785 	0.0276785 	0 	
0.00116276 	2.08735e-08 	0.92 	0.04 	0.04 	0.0291616 	
2.67687e-09 	0.0276785 	0.0276785 	0 	
0.00121638 	2.08735e-08 	0.92 	0.04 	0.04 	0.0291616 	
2.67687e-09 	0.0276785 	0.0276785 	0 	
0.00127 	1.85566e-08 	0.92 	0.04 	0.04 	0.0291615 	
2.67687e-09 	0.0276785 	0.0276785 	0 	
ZONE T = "t = 1.1125e-07 [s]" I = 10 SOLUTIONTIME = 1.1125000000000E-07
0.0007874 	2.0868e-08 	0.92 	0.04 	0.04 	0.029162 	
3.61102e-09 	0.0276785 	0.0276785 	0 	
0.000841022 	2.0868e-08 	0.92 	0.04 	0.04 	0.0291619 	
3.61102e-09 	0.0276785 	0.0276785 	0 	
0.000894644 	2.0868e-08 	0.92 	0.04 	0.04 	0.0291619 	
3.61102e-09 	0.0276785 	0.0276785 	0 	
0.000948267 	2.0868e-08 	0.92 	0.04 	0.04 	0.0291618 	
3.61102e-09 	0.0276785 	0.0276785 	0 	
0.00100189 	2.0868e-08 	0.92 	0.04 	0.04 	0.0291618 	
3.61102e-09 	0.0276785 	0.0276785 	0 	
0.00105551 	2.0868e-08 	0.92 	0.04 	0.04 	0.0291617 	
3.61102e-09 	0.0276785 	0.0276785 	0 	
0.00110913 	2.0868e-08 	0.92 	0.04 	0.04 	0.0291617 	
3.61102e-09 	0.0276785 	0.0276785 	0 	
0.00116276 	2.0868e-08 	0.92 	0.04 	0.04 	0.0291616 	
3.61102e-09 	0.0276785 	0.0276785 	0 	
0.00121638 	2.0868e-08 	0.92 	0.04 	0.04 	0.0291616 	
3.61102e-09 	0.0276785 	0.0276785 	0 	
0.00127 	1.85512e-08 	0.92 	0.04 	0.04 	0.0291615 	
3.61102e-09 	0.0276785 	0.0276785 	0 	
ZONE T = "t = 1.61875e-07 [s]" I = 10 SOLUTIONTIME = 1.6187500000000E-07
0.0007874 	2.08703e-08 	0.92 	0.04 	0.04 	0.029162 	
5.01224e-09 	0.0276785 	0.0276785 	0 	
0.000841022 	2.08703e-08 	0.92 	0.04 	0.04 	0.0291619 	
5.01224e-09 	0.0276785 	0.0276785 	0 	
0.000894644 	2.08703e-08 	0.92 	0.04 	0.04 	0.0291619 	
5.01224e-09 	0.0276785 	0.0276785 	0 	
0.000948267 	2.08703e-08 	0.92 	0.04 	0.04 	0.0291618 	
5.01224e-09 	0.0276785 	0.0276785 	0 	
0.00100189 	2.08703e-08 	0.92 	0.04 	0.04 	0.0291618 	
5.01224e-09 	0.0276785 	0.0276785 	0 	
0.00105551 	2.08703e-08 	0.92 	0.04 	0.04 	0.0291617 	
5.01224e-09 	0.0276785 	0.0276785 	0 	
0.00110913 	2.08703e-08 	0.92 	0.04 	0.04 	0.0291617 	
5.01224e-09 	0.0276785 	0.0276785 	0 	
0.00116276 	2.08703e-08 	0.92 	0.04 	0.04 	0.0291616 	
5.01224e-09 	0.0276785 	0.0276785 	0 	
0.00121638 	2.08703e-08 	0.92 	0.04 	0.04 	0.0291616 	
5.01224e-09 	0.0276785 	0.0276785 	0 	
0.00127 	1.85534e-08 	0.92 	0.04 	0.04 	0.0291615 	
5.01224e-09 	0.0276785 	0.0276785 	0 	
ZONE T = "t = 2.37813e-07 [s]" I = 10 SOLUTIONTIME = 2.3781250000000E-07
0.0007874 	2.08699e-08 	0.92 	0.04 	0.04 	0.029162 	
7.11408e-09 	0.0276785 	0.0276785 	0 	
0.000841022 	2.08699e-08 	0.92 	0.04 	0.04 	0.0291619 	
7.11408e-09 	0.0276785 	0.0276785 	0 	
0.000894644 	2.08699e-08 	0.92 	0.04 	0.04 	0.0291619 	
7.11408e-09 	0.0276785 	0.0276785 	0 	
0.000948267 	2.08699e-08 	0.92 	0.04 	0.04 	0.0291618 	
7.11408e-09 	0.0276785 	0.0276785 	0 	
0.00100189 	2.08699e-08 	0.92 	0.04 	0.04 	0.0291618 	
7.11408e-09 	0.0276785 	0.0276785 	0 	
0.00105551 	2.08699e-08 	0.92 	0.04 	0.04 	0.0291617 	
7.11408e-09 	0.0276785 	0.0276785 	0 	
0.00110913 	2.08699e-08 	0.92 	0.04 	0.04 	0.0291617 	
7.11408e-09 	0.0276785 	0.0276785 	0 	
0.00116276 	2.08699e-08 	0.92 	0.04 	0.04 	0.0291616 	
7.11408e-09 	0.0276785 	0.0276785 	0 	
0.00121638 	2.08698e-08 	0.92 	0.04 	0.04 	0.0291616 	
7.11408e-09 	0.0276785 	0.0276785 	0 	
0.00127 	1.85531e-08 	0.92 	0.04 	0.04 	0.0291615 	
7.11408e-09 	0.0276785 	0.0276785 	0 	
ZONE T = "t = 3.51719e-07 [s]" I = 10 SOLUTIONTIME = 3.5171875000000E-07
0.0007874 	2.08703e-08 	0.92 	0.04 	0.04 	0.029162 	
1.02668e-08 	0.0276785 	0.0276785 	0 	
0.000841022 	2.08703e-08 	0.92 	0.04 	0.04 	0.0291619 	
1.02668e-08 	0.0276785 	0.0276785 	0 	
0.000894644 	2.08703e-08 	0.92 	0.04 	0.04 	0.0291619 	
1.02668e-08 	0.0276785 	0.0276785 	0 	
0.000948267 	2.08703e-08 	0.92 	0.04 	0.04 	0.0291618 	
1.02668e-08 	0.0276785 	0.0276785 	0 	
0.00100189 	2.08703e-08 	0.92 	0.04 	0.04 	0.0291618 	
1.02668e-08 	0.0276785 	0.0276785 	0 	
0.00105551 	2.08703e-08 	0.92 	0.04 	0.04 	0.0291617 	
1.02668e-08 	0.0276785 	0.0276785 	0 	
0.00110913 	2.08703e-08 	0.92 	0.04 	0.04 	0.0291617 	
1.02668e-08 	0.0276785 	0.0276785 	0 	
0.00116276 	2.08703e-08 	0.92 	0.04 	0.04 	0.0291616 	
1.02668e-08 	0.0276785 	0.0276785 	0 	
0.00121638 	2.08703e-08 	0.92 	0.04 	0.04 	0.0291616 	
1.02668e-08 	0.0276785 	0.0276785 	0 	
0.00127 	1.85534e-08 	0.92 	0.04 	0.04 	0.0291615 	
1.02668e-08 	0.0276785 	0.0276785 	0 	
ZONE T = "t = 5.22578e-07 [s]" I = 10 SOLUTIONTIME = 5.2257812500000E-07
0.0007874 	2.08702e-08 	0.92 	0.04 	0.04 	0.029162 	
1.4996e-08 	0.0276785 	0.0276785 	0 	
0.000841022 	2.08702e-08 	0.92 	0.04 	0.04 	0.0291619 	
1.4996e-08 	0.0276785 	0.0276785 	0 	
0.000894644 	2.08702e-08 	0.92 	0.04 	0.04 	0.0291619 	
1.4996e-08 	0.0276785 	0.0276785 	0 	
0.000948267 	2.08702e-08 	0.92 	0.04 	0.04 	0.0291618 	
1.4996e-08 	0.0276785 	0.0276785 	0 	
0.00100189 	2.08702e-08 	0.92 	0.04 	0.04 	0.0291618 	
1.4996e-08 	0.0276785 	0.0276785 	0 	
0.00105551 	2.08702e-08 	0.92 	0.04 	0.04 	0.0291617 	
1.4996e-08 	0.0276785 	0.0276785 	0 	
0.00110913 	2.08702e-08 	0.92 	0.04 	0.04 	0.0291617 	
1.4996e-08 	0.0276785 	0.0276785 	0 	
0.00116276 	2.08702e-08 	0.92 	0.04 	0.04 	0.0291616 	
1.4996e-08 	0.0276785 	0.0276785 	0 	
0.00121638 	2.08702e-08 	0.92 	0.04 	0.04 	0.0291616 	
1.4996e-08 	0.0276785 	0.0276785 	0 	
0.00127 	1.85534e-08 	0.92 	0.04 	0.04 	0.0291615 	
1.4996e-08 	0.0276785 	0.0276785 	0 	
ZONE T = "t = 7.78867e-07 [s]" I = 10 SOLUTIONTIME = 7.7886718750000E-07
0.0007874 	2.08701e-08 	0.92 	0.04 	0.04 	0.029162 	
2.20897e-08 	0.0276785 	0.0276785 	0 	
0.000841022 	2.08701e-08 	0.92 	0.04 	0.04 	0.0291619 	
2.20897e-08 	0.0276785 	0.0276785 	0 	
0.000894644 	2.08701e-08 	0.92 	0.04 	0.04 	0.0291619 	
2.20897e-08 	0.0276785 	0.0276785 	0 	
0.000948267 	2.08701e-08 	0.92 	0.04 	0.04 	0.0291618 	
2.20897e-08 	0.0276785 	0.0276785 	0 	
0.00100189 	2.08701e-08 	0.92 	0.04 	0.04 	0.0291618 	
2.20897e-08 	0.0276785 	0.0276785 	0 	
0.00105551 	2.08701e-08 	0.92 	0.04 	0.04 	0.0291617 	
2.20897e-08 	0.0276785 	0.0276785 	0 	
0.00110913 	2.08701e-08 	0.92 	0.04 	0.04 	0.0291617 	
2.20897e-08 	0.0276785 	0.0276785 	0 	
0.00116276 	2.08701e-08 	0.92 	0.04 	0.04 	0.0291616 	
2.20897e-08 	0.0276785 	0.0276785 	0 	
0.00121638 	2.08701e-08 	0.92 	0.04 	0.04 	0.0291616 	
2.20897e-08 	0.0276785 	0.0276785 	0 	
0.00127 	1.85533e-08 	0.92 	0.04 	0.04 	0.0291615 	
2.20897e-08 	0.0276785 	0.0276785 	0 	
ZONE T = "t = 1.1633e-06 [s]" I = 10 SOLUTIONTIME = 1.1633007812500E-06
0.0007874 	2.08702e-08 	0.92 	0.04 	0.04 	0.029162 	
3.27302e-08 	0.0276785 	0.0276785 	0 	
0.000841022 	2.08702e-08 	0.92 	0.04 	0.04 	0.0291619 	
3.27302e-08 	0.0276785 	0.0276785 	0 	
0.000894644 	2.08702e-08 	0.92 	0.04 	0.04 	0.0291619 	
3.27302e-08 	0.0276785 	0.0276785 	0 	
0.000948267 	2.08702e-08 	0.92 	0.04 	0.04 	0.0291618 	
3.27302e-08 	0.0276785 	0.0276785 	0 	
0.00100189 	2.08702e-08 	0.92 	0.04 	0.04 	0.0291618 	
3.27302e-08 	0.0276785 	0.0276785 	0 	
0.00105551 	2.08702e-08 	0.92 	0.04 	0.04 	0.0291617 	
3.27302e-08 	0.0276785 	0.0276785 	0 	
0.00110913 	2.08702e-08 	0.92 	0.04 	0.04 	0.0291617 	
3.27302e-08 	0.0276785 	0.0276785 	0 	
0.00116276 	2.08702e-08 	0.92 	0.04 	0.04 	0.0291616 	
3.27302e-08 	0.0276785 	0.0276785 	0 	
0.00121638 	2.08702e-08 	0.92 	0.04 	0.04 	0.0291616 	
3.27302e-08 	0.0276785 	0.0276785 	0 	
0.00127 	1.85534e-08 	0.92 	0.04 	0.04 	0.0291615 	
3.27302e-08 	0.0276785 	0.0276785 	0 	
ZONE T = "t = 1.73995e-06 [s]" I = 10 SOLUTIONTIME = 1.7399511718750E-06
0.0007874 	2.08701e-08 	0.92 	0.04 	0.04 	0.029162 	
4.8691e-08 	0.0276785 	0.0276785 	0 	
0.000841022 	2.08701e-08 	0.92 	0.04 	0.04 	0.0291619 	
4.8691e-08 	0.0276785 	0.0276785 	0 	
0.000894644 	2.08701e-08 	0.92 	0.04 	0.04 	0.0291619 	
4.8691e-08 	0.0276785 	0.0276785 	0 	
0.000948267 	2.08701e-08 	0.92 	0.04 	0.04 	0.0291618 	
4.8691e-08 	0.0276785 	0.0276785 	0 	
0.00100189 	2.08701e-08 	0.92 	0.04 	0.04 	0.0291618 	
4.8691e-08 	0.0276785 	0.0276785 	0 	
0.00105551 	2.08701e-08 	0.92 	0.04 	0.04 	0.0291617 	
4.8691e-08 	0.0276785 	0.0276785 	0 	
0.00110913 	2.08701e-08 	0.92 	0.04 	0.04 	0.0291617 	
4.8691e-08 	0.0276785 	0.0276785 	0 	
0.00116276 	2.08701e-08 	0.92 	0.04 	0.04 	0.0291616 	
4.8691e-08 	0.0276785 	0.0276785 	0 	
0.00121638 	2.08701e-08 	0.92 	0.04 	0.04 	0.0291616 	
4.8691e-08 	0.0276785 	0.0276785 	0 	
0.00127 	1.85533e-08 	0.92 	0.04 	0.04 	0.0291615 	
4.8691e-08 	0.0276785 	0.0276785 	0 	
ZONE T = "t = 2.60493e-06 [s]" I = 10 SOLUTIONTIME = 2.6049267578125E-06
0.0007874 	2.08701e-08 	0.92 	0.04 	0.04 	0.0291619 	
7.26321e-08 	0.0276784 	0.0276784 	0 	
0.000841022 	2.08701e-08 	0.92 	0.04 	0.04 	0.0291619 	
7.26321e-08 	0.0276784 	0.0276784 	0 	
0.000894644 	2.08701e-08 	0.92 	0.04 	0.04 	0.0291618 	
7.26321e-08 	0.0276784 	0.0276784 	0 	
0.000948267 	2.08701e-08 	0.92 	0.04 	0.04 	0.0291618 	
7.26321e-08 	0.0276784 	0.0276784 	0 	
0.00100189 	2.08701e-08 	0.92 	0.04 	0.04 	0.0291617 	
7.26321e-08 	0.0276784 	0.0276784 	0 	
0.00105551 	2.08701e-08 	0.92 	0.04 	0.04 	0.0291617 	
7.26321e-08 	0.0276784 	0.0276784 	0 	
0.00110913 	2.08701e-08 	0.92 	0.04 	0.04 	0.0291616 	
7.26321e-08 	0.0276784 	0.0276784 	0 	
0.00116276 	2.08701e-08 	0.92 	0.04 	0.04 	0.0291616 	
7.26321e-08 	0.0276784 	0.0276784 	0 	
0.00121638 	2.08701e-08 	0.92 	0.04 	0.04 	0.0291615 	
7.26321e-08 	0.0276784 	0.0276784 	0 	
0.00127 	1.85533e-08 	0.92 	0.04 	0.04 	0.0291615 	
7.26321e-08 	0.0276784 	0.0276784 	0 	
ZONE T = "t = 3.90239e-06 [s]" I = 10 SOLUTIONTIME = 3.9023901367188E-06
0.0007874 	2.08701e-08 	0.92 	0.04 	0.04 	0.0291619 	
1.08544e-07 	0.0276784 	0.0276784 	0 	
0.000841022 	2.08701e-08 	0.92 	0.04 	0.04 	0.0291619 	
1.08544e-07 	0.0276784 	0.0276784 	0 	
0.000894644 	2.08701e-08 	0.92 	0.04 	0.04 	0.0291618 	
1.08544e-07 	0.0276784 	0.0276784 	0 	
0.000948267 	2.08701e-08 	0.92 	0.04 	0.04 	0.0291618 	
1.08544e-07 	0.0276784 	0.0276784 	0 	
0.00100189 	2.08701e-08 	0.92 	0.04 	0.04 	0.0291617 	
1.08544e-07 	0.0276784 	0.0276784 	0 	
0.00105551 	2.08701e-08 	0.92 	0.04 	0.04 	0.0291617 	
1.08544e-07 	0.0276784 	0.0276784 	0 	
0.00110913 	2.08701e-08 	0.92 	0.04 	0.04 	0.0291616 	
1.08544e-07 	0.0276784 	0.0276784 	0 	
0.00116276 	2.08701e-08 	0.92 	0.04 	0.04 	0.0291616 	
1.08544e-07 	0.0276784 	0.0276784 	0 	
0.00121638 	2.08701e-08 	0.92 	0.04 	0.04 	0.0291615 	
1.08544e-07 	0.0276784 	0.0276784 	0 	
0.00127 	1.85533e-08 	0.92 	0.04 	0.04 	0.0291615 	
1.08544e-07 	0.0276784 	0.0276784 	0 	
ZONE T = "t = 5.84859e-06 [s]" I = 10 SOLUTIONTIME = 5.8485852050781E-06
0.0007874 	2.08701e-08 	0.92 	0.04 	0.04 	0.0291619 	
1.62411e-07 	0.0276783 	0.0276783 	0 	
0.000841022 	2.08701e-08 	0.92 	0.04 	0.04 	0.0291618 	
1.62411e-07 	0.0276783 	0.0276783 	0 	
0.000894644 	2.08701e-08 	0.92 	0.04 	0.04 	0.0291618 	
1.62411e-07 	0.0276783 	0.0276783 	0 	
0.000948267 	2.08701e-08 	0.92 	0.04 	0.04 	0.0291617 	
1.62411e-07 	0.0276783 	0.0276783 	0 	
0.00100189 	2.08701e-08 	0.92 	0.04 	0.04 	0.0291617 	
1.62411e-07 	0.0276783 	0.0276783 	0 	
0.00105551 	2.08701e-08 	0.92 	0.04 	0.04 	0.0291616 	
1.62411e-07 	0.0276783 	0.0276783 	0 	
0.00110913 	2.08701e-08 	0.92 	0.04 	0.04 	0.0291616 	
1.62411e-07 	0.0276783 	0.0276783 	0 	
0.00116276 	2.08701e-08 	0.92 	0.04 	0.04 	0.0291615 	
1.62411e-07 	0.0276783 	0.0276783 	0 	
0.00121638 	2.08701e-08 	0.92 	0.04 	0.04 	0.0291615 	
1.62411e-07 	0.0276783 	0.0276783 	0 	
0.00127 	1.85533e-08 	0.92 	0.04 	0.04 	0.0291614 	
1.62411e-07 	0.0276783 	0.0276783 	0 	
ZONE T = "t = 8.76788e-06 [s]" I = 10 SOLUTIONTIME = 8.7678778076172E-06
0.0007874 	2.087e-08 	0.92 	0.04 	0.04 	0.0291618 	
2.43212e-07 	0.0276782 	0.0276782 	0 	
0.000841022 	2.087e-08 	0.92 	0.04 	0.04 	0.0291618 	
2.43212e-07 	0.0276782 	0.0276782 	0 	
0.000894644 	2.087e-08 	0.92 	0.04 	0.04 	0.0291617 	
2.43212e-07 	0.0276782 	0.0276782 	0 	
0.000948267 	2.087e-08 	0.92 	0.04 	0.04 	0.0291617 	
2.43212e-07 	0.0276782 	0.0276782 	0 	
0.00100189 	2.087e-08 	0.92 	0.04 	0.04 	0.0291616 	
2.43212e-07 	0.0276782 	0.0276782 	0 	
0.00105551 	2.087e-08 	0.92 	0.04 	0.04 	0.0291616 	
2.43212e-07 	0.0276782 	0.0276782 	0 	
0.00110913 	2.087e-08 	0.92 	0.04 	0.04 	0.0291615 	
2.43212e-07 	0.0276782 	0.0276782 	0 	
0.00116276 	2.087e-08 	0.92 	0.04 	0.04 	0.0291615 	
2.43212e-07 	0.0276782 	0.0276782 	0 	
0.00121638 	2.087e-08 	0.92 	0.04 	0.04 	0.0291614 	
2.43212e-07 	0.0276782 	0.0276782 	0 	
0.00127 	1.85532e-08 	0.92 	0.04 	0.04 	0.0291614 	
2.43212e-07 	0.0276782 	0.0276782 	0 	
ZONE T = "t = 1.31468e-05 [s]" I = 10 SOLUTIONTIME = 1.3146816711426E-05
0.0007874 	2.087e-08 	0.92 	0.04 	0.04 	0.0291617 	
3.64413e-07 	0.0276781 	0.0276781 	0 	
0.000841022 	2.087e-08 	0.92 	0.04 	0.04 	0.0291617 	
3.64413e-07 	0.0276781 	0.0276781 	0 	
0.000894644 	2.087e-08 	0.92 	0.04 	0.04 	0.0291616 	
3.64413e-07 	0.0276781 	0.0276781 	0 	
0.000948267 	2.087e-08 	0.92 	0.04 	0.04 	0.0291616 	
3.64413e-07 	0.0276781 	0.0276781 	0 	
0.00100189 	2.087e-08 	0.92 	0.04 	0.04 	0.0291616 	
3.64413e-07 	0.0276781 	0.0276781 	0 	
0.00105551 	2.087e-08 	0.92 	0.04 	0.04 	0.0291615 	
3.64413e-07 	0.0276781 	0.0276781 	0 	
0.00110913 	2.087e-08 	0.92 	0.04 	0.04 	0.0291615 	
3.64413e-07 	0.0276781 	0.0276781 	0 	
0.00116276 	2.087e-08 	0.92 	0.04 	0.04 	0.0291614 	
3.64413e-07 	0.0276781 	0.0276781 	0 	
0.00121638 	2.087e-08 	0.92 	0.04 	0.04 	0.0291614 	
3.64413e-07 	0.0276781 	0.0276781 	0 	
0.00127 	1.85532e-08 	0.92 	0.04 	0.04 	0.0291613 	
3.64413e-07 	0.0276781 	0.0276781 	0 	
ZONE T = "t = 1.97152e-05 [s]" I = 10 SOLUTIONTIME = 1.9715225067139E-05
0.0007874 	2.08699e-08 	0.92 	0.04 	0.04 	0.0291616 	
5.46212e-07 	0.0276778 	0.0276778 	0 	
0.000841022 	2.08699e-08 	0.92 	0.04 	0.04 	0.0291616 	
5.46212e-07 	0.0276778 	0.0276778 	0 	
0.000894644 	2.08699e-08 	0.92 	0.04 	0.04 	0.0291615 	
5.46212e-07 	0.0276778 	0.0276778 	0 	
0.000948267 	2.08699e-08 	0.92 	0.04 	0.04 	0.0291615 	
5.46212e-07 	0.0276778 	0.0276778 	0 	
0.00100189 	2.08699e-08 	0.92 	0.04 	0.04 	0.0291614 	
5.46212e-07 	0.0276778 	0.0276778 	0 	
0.00105551 	2.08699e-08 	0.92 	0.04 	0.04 	0.0291614 	
5.46212e-07 	0.0276778 	0.0276778 	0 	
0.00110913 	2.08699e-08 	0.92 	0.04 	0.04 	0.0291613 	
5.46212e-07 	0.0276778 	0.0276778 	0 	
0.00116276 	2.08699e-08 	0.92 	0.04 	0.04 	0.0291613 	
5.46212e-07 	0.0276778 	0.0276778 	0 	
0.00121638 	2.08699e-08 	0.92 	0.04 	0.04 	0.0291612 	
5.46212e-07 	0.0276778 	0.0276778 	0 	
0.00127 	1.85531e-08 	0.92 	0.04 	0.04 	0.0291612 	
5.46212e-07 	0.0276778 	0.0276778 	0 	
ZONE T = "t = 2.95678e-05 [s]" I = 10 SOLUTIONTIME = 2.9567837600708E-05
0.0007874 	2.08698e-08 	0.92 	0.04 	0.04 	0.0291615 	
8.18907e-07 	0.0276775 	0.0276775 	0 	
0.000841022 	2.08698e-08 	0.92 	0.04 	0.04 	0.0291614 	
8.18907e-07 	0.0276775 	0.0276775 	0 	
0.000894644 	2.08698e-08 	0.92 	0.04 	0.04 	0.0291614 	
8.18907e-07 	0.0276775 	0.0276775 	0 	
0.000948267 	2.08698e-08 	0.92 	0.04 	0.04 	0.0291613 	
8.18907e-07 	0.0276775 	0.0276775 	0 	
0.00100189 	2.08698e-08 	0.92 	0.04 	0.04 	0.0291613 	
8.18907e-07 	0.0276775 	0.0276775 	0 	
0.00105551 	2.08698e-08 	0.92 	0.04 	0.04 	0.0291612 	
8.18907e-07 	0.0276775 	0.0276775 	0 	
0.00110913 	2.08698e-08 	0.92 	0.04 	0.04 	0.0291612 	
8.18907e-07 	0.0276775 	0.0276775 	0 	
0.00116276 	2.08698e-08 	0.92 	0.04 	0.04 	0.0291611 	
8.18907e-07 	0.0276775 	0.0276775 	0 	
0.00121638 	2.08698e-08 	0.92 	0.04 	0.04 	0.0291611 	
8.18907e-07 	0.0276775 	0.0276775 	0 	
0.00127 	1.8553e-08 	0.92 	0.04 	0.04 	0.029161 	
8.18907e-07 	0.0276775 	0.0276775 	0 	
ZONE T = "t = 4.43468e-05 [s]" I = 10 SOLUTIONTIME = 4.4346756401062E-05
0.0007874 	2.08696e-08 	0.92 	0.04 	0.04 	0.0291612 	
1.22794e-06 	0.027677 	0.027677 	0 	
0.000841022 	2.08696e-08 	0.92 	0.04 	0.04 	0.0291611 	
1.22794e-06 	0.027677 	0.027677 	0 	
0.000894644 	2.08696e-08 	0.92 	0.04 	0.04 	0.0291611 	
1.22794e-06 	0.027677 	0.027677 	0 	
0.000948267 	2.08696e-08 	0.92 	0.04 	0.04 	0.029161 	
1.22794e-06 	0.027677 	0.027677 	0 	
0.00100189 	2.08696e-08 	0.92 	0.04 	0.04 	0.029161 	
1.22794e-06 	0.027677 	0.027677 	0 	
0.00105551 	2.08696e-08 	0.92 	0.04 	0.04 	0.0291609 	
1.22794e-06 	0.027677 	0.027677 	0 	
0.00110913 	2.08696e-08 	0.92 	0.04 	0.04 	0.0291609 	
1.22794e-06 	0.027677 	0.027677 	0 	
0.00116276 	2.08696e-08 	0.92 	0.04 	0.04 	0.0291608 	
1.22794e-06 	0.027677 	0.027677 	0 	
0.00121638 	2.08696e-08 	0.92 	0.04 	0.04 	0.0291608 	
1.22794e-06 	0.027677 	0.027677 	0 	
0.00127 	1.85528e-08 	0.92 	0.04 	0.04 	0.0291607 	
1.22794e-06 	0.027677 	0.027677 	0 	
ZONE T = "t = 6.65151e-05 [s]" I = 10 SOLUTIONTIME = 6.6515134601593E-05
0.0007874 	2.08693e-08 	0.92 	0.04 	0.04 	0.0291608 	
1.84148e-06 	0.0276762 	0.0276762 	0 	
0.000841022 	2.08693e-08 	0.92 	0.04 	0.04 	0.0291607 	
1.84148e-06 	0.0276762 	0.0276762 	0 	
0.000894644 	2.08693e-08 	0.92 	0.04 	0.04 	0.0291607 	
1.84148e-06 	0.0276762 	0.0276762 	0 	
0.000948267 	2.08693e-08 	0.92 	0.04 	0.04 	0.0291606 	
1.84148e-06 	0.0276762 	0.0276762 	0 	
0.00100189 	2.08693e-08 	0.92 	0.04 	0.04 	0.0291606 	
1.84148e-06 	0.0276762 	0.0276762 	0 	
0.00105551 	2.08693e-08 	0.92 	0.04 	0.04 	0.0291605 	
1.84148e-06 	0.0276762 	0.0276762 	0 	
0.00110913 	2.08693e-08 	0.92 	0.04 	0.04 	0.0291605 	
1.84148e-06 	0.0276762 	0.0276762 	0 	
0.00116276 	2.08693e-08 	0.92 	0.04 	0.04 	0.0291604 	
1.84148e-06 	0.0276762 	0.0276762 	0 	
0.00121638 	2.08693e-08 	0.92 	0.04 	0.04 	0.0291604 	
1.84148e-06 	0.0276762 	0.0276762 	0 	
0.00127 	1.85526e-08 	0.92 	0.04 	0.04 	0.0291603 	
1.84148e-06 	0.0276762 	0.0276762 	0 	
ZONE T = "t = 9.97677e-05 [s]" I = 10 SOLUTIONTIME = 9.9767701902390E-05
0.0007874 	2.08688e-08 	0.92 	0.04 	0.04 	0.0291602 	
2.76174e-06 	0.027675 	0.027675 	0 	
0.000841022 	2.08688e-08 	0.92 	0.04 	0.04 	0.0291602 	
2.76174e-06 	0.027675 	0.027675 	0 	
0.000894644 	2.08688e-08 	0.92 	0.04 	0.04 	0.0291601 	
2.76174e-06 	0.027675 	0.027675 	0 	
0.000948267 	2.08688e-08 	0.92 	0.04 	0.04 	0.0291601 	
2.76174e-06 	0.027675 	0.027675 	0 	
0.00100189 	2.08688e-08 	0.92 	0.04 	0.04 	0.02916 	
2.76174e-06 	0.027675 	0.027675 	0 	
0.00105551 	2.08688e-08 	0.92 	0.04 	0.04 	0.02916 	
2.76174e-06 	0.027675 	0.027675 	0 	
0.00110913 	2.08688e-08 	0.92 	0.04 	0.04 	0.0291599 	
2.76174e-06 	0.027675 	0.027675 	0 	
0.00116276 	2.08688e-08 	0.92 	0.04 	0.04 	0.0291599 	
2.76174e-06 	0.027675 	0.027675 	0 	
0.00121638 	2.08688e-08 	0.92 	0.04 	0.04 	0.0291598 	
2.76174e-06 	0.027675 	0.027675 	0 	
0.00127 	1.85522e-08 	0.92 	0.04 	0.04 	0.0291598 	
2.76174e-06 	0.027675 	0.027675 	0 	
ZONE T = "t = 0.000149647 [s]" I = 10 SOLUTIONTIME = 1.4964655285358E-04
0.0007874 	2.08682e-08 	0.92 	0.04 	0.04 	0.0291593 	
4.14206e-06 	0.0276733 	0.0276733 	0 	
0.000841022 	2.08682e-08 	0.92 	0.04 	0.04 	0.0291593 	
4.14206e-06 	0.0276733 	0.0276733 	0 	
0.000894644 	2.08682e-08 	0.92 	0.04 	0.04 	0.0291592 	
4.14206e-06 	0.0276733 	0.0276733 	0 	
0.000948267 	2.08682e-08 	0.92 	0.04 	0.04 	0.0291592 	
4.14206e-06 	0.0276733 	0.0276733 	0 	
0.00100189 	2.08682e-08 	0.92 	0.04 	0.04 	0.0291591 	
4.14206e-06 	0.0276733 	0.0276733 	0 	
0.00105551 	2.08682e-08 	0.92 	0.04 	0.04 	0.0291591 	
4.14206e-06 	0.0276733 	0.0276733 	0 	
0.00110913 	2.08682e-08 	0.92 	0.04 	0.04 	0.029159 	
4.14206e-06 	0.0276733 	0.0276733 	0 	
0.00116276 	2.08682e-08 	0.92 	0.04 	0.04 	0.029159 	
4.14206e-06 	0.0276733 	0.0276733 	0 	
0.00121638 	2.08682e-08 	0.92 	0.04 	0.04 	0.0291589 	
4.14206e-06 	0.0276733 	0.0276733 	0 	
0.00127 	1.85516e-08 	0.92 	0.04 	0.04 	0.0291589 	
4.14206e-06 	0.0276733 	0.0276733 	0 	
ZONE T = "t = 0.000224465 [s]" I = 10 SOLUTIONTIME = 2.2446482928038E-04
0.0007874 	2.08672e-08 	0.92 	0.04 	0.04 	0.029158 	
6.21233e-06 	0.0276707 	0.0276707 	0 	
0.000841022 	2.08672e-08 	0.92 	0.04 	0.04 	0.0291579 	
6.21233e-06 	0.0276707 	0.0276707 	0 	
0.000894644 	2.08672e-08 	0.92 	0.04 	0.04 	0.0291579 	
6.21233e-06 	0.0276707 	0.0276707 	0 	
0.000948267 	2.08672e-08 	0.92 	0.04 	0.04 	0.0291578 	
6.21233e-06 	0.0276707 	0.0276707 	0 	
0.00100189 	2.08672e-08 	0.92 	0.04 	0.04 	0.0291578 	
6.21233e-06 	0.0276707 	0.0276707 	0 	
0.00105551 	2.08672e-08 	0.92 	0.04 	0.04 	0.0291577 	
6.21233e-06 	0.0276707 	0.0276707 	0 	
0.00110913 	2.08672e-08 	0.92 	0.04 	0.04 	0.0291577 	
6.21233e-06 	0.0276707 	0.0276707 	0 	
0.00116276 	2.08672e-08 	0.92 	0.04 	0.04 	0.0291576 	
6.21233e-06 	0.0276707 	0.0276707 	0 	
0.00121638 	2.08672e-08 	0.92 	0.04 	0.04 	0.0291576 	
6.21233e-06 	0.0276707 	0.0276707 	0 	
0.00127 	1.85507e-08 	0.92 	0.04 	0.04 	0.0291575 	
6.21233e-06 	0.0276707 	0.0276707 	0 	
ZONE T = "t = 0.000336692 [s]" I = 10 SOLUTIONTIME = 3.3669224392056E-04
0.0007874 	2.08657e-08 	0.92 	0.04 	0.04 	0.029156 	
9.31729e-06 	0.0276667 	0.0276667 	0 	
0.000841022 	2.08657e-08 	0.92 	0.04 	0.04 	0.0291559 	
9.31729e-06 	0.0276667 	0.0276667 	0 	
0.000894644 	2.08657e-08 	0.92 	0.04 	0.04 	0.0291559 	
9.31729e-06 	0.0276667 	0.0276667 	0 	
0.000948267 	2.08657e-08 	0.92 	0.04 	0.04 	0.0291558 	
9.31729e-06 	0.0276667 	0.0276667 	0 	
0.00100189 	2.08657e-08 	0.92 	0.04 	0.04 	0.0291558 	
9.31729e-06 	0.0276667 	0.0276667 	0 	
0.00105551 	2.08657e-08 	0.92 	0.04 	0.04 	0.0291557 	
9.31729e-06 	0.0276667 	0.0276667 	0 	
0.00110913 	2.08657e-08 	0.92 	0.04 	0.04 	0.0291557 	
9.31729e-06 	0.0276667 	0.0276667 	0 	
0.00116276 	2.08657e-08 	0.92 	0.04 	0.04 	0.0291556 	
9.31729e-06 	0.0276667 	0.0276667 	0 	
0.00121638 	2.08657e-08 	0.92 	0.04 	0.04 	0.0291556 	
9.31729e-06 	0.0276667 	0.0276667 	0 	
0.00127 	1.85494e-08 	0.92 	0.04 	0.04 	0.0291555 	
9.31729e-06 	0.0276667 	0.0276667 	0 	
ZONE T = "t = 0.000505033 [s]" I = 10 SOLUTIONTIME = 5.0503336588085E-04
0.0007874 	2.08635e-08 	0.92 	0.04 	0.04 	0.029153 	
1.39738e-05 	0.0276608 	0.0276608 	0 	
0.000841022 	2.08635e-08 	0.92 	0.04 	0.04 	0.0291529 	
1.39738e-05 	0.0276608 	0.0276608 	0 	
0.000894644 	2.08635e-08 	0.92 	0.04 	0.04 	0.0291529 	
1.39738e-05 	0.0276609 	0.0276609 	0 	
0.000948267 	2.08635e-08 	0.92 	0.04 	0.04 	0.0291528 	
1.39738e-05 	0.0276609 	0.0276609 	0 	
0.00100189 	2.08635e-08 	0.92 	0.04 	0.04 	0.0291528 	
1.39738e-05 	0.0276609 	0.0276609 	0 	
0.00105551 	2.08635e-08 	0.92 	0.04 	0.04 	0.0291527 	
1.39738e-05 	0.0276609 	0.0276609 	0 	
0.00110913 	2.08635e-08 	0.92 	0.04 	0.04 	0.0291527 	
1.39738e-05 	0.0276609 	0.0276609 	0 	
0.00116276 	2.08635e-08 	0.92 	0.04 	0.04 	0.0291526 	
1.39738e-05 	0.0276609 	0.0276609 	0 	
0.00121638 	2.08635e-08 	0.92 	0.04 	0.04 	0.0291526 	
1.39738e-05 	0.0276609 	0.0276609 	0 	
0.00127 	1.85474e-08 	0.92 	0.04 	0.04 	0.0291525 	
1.39738e-05 	0.0276609 	0.0276609 	0 	
ZONE T = "t = 0.000757545 [s]" I = 10 SOLUTIONTIME = 7.5754504882127E-04
0.0007874 	2.08602e-08 	0.92 	0.04 	0.04 	0.0291485 	
2.09562e-05 	0.027652 	0.027652 	0 	
0.000841022 	2.08602e-08 	0.92 	0.04 	0.04 	0.0291484 	
2.09562e-05 	0.027652 	0.027652 	0 	
0.000894644 	2.08602e-08 	0.92 	0.04 	0.04 	0.0291484 	
2.09562e-05 	0.027652 	0.027652 	0 	
0.000948267 	2.08602e-08 	0.92 	0.04 	0.04 	0.0291483 	
2.09562e-05 	0.027652 	0.027652 	0 	
0.00100189 	2.08602e-08 	0.92 	0.04 	0.04 	0.0291483 	
2.09562e-05 	0.027652 	0.027652 	0 	
0.00105551 	2.08602e-08 	0.92 	0.04 	0.04 	0.0291482 	
2.09562e-05 	0.027652 	0.027652 	0 	
0.00110913 	2.08602e-08 	0.92 	0.04 	0.04 	0.0291482 	
2.09562e-05 	0.027652 	0.027652 	0 	
0.00116276 	2.08602e-08 	0.92 	0.04 	0.04 	0.0291481 	
2.09562e-05 	0.027652 	0.027652 	0 	
0.00121638 	2.08602e-08 	0.92 	0.04 	0.04 	0.0291481 	
2.09562e-05 	0.027652 	0.027652 	0 	