TITLE = "Solution on Domain BulkDomain1D_0"
VARIABLES = "x [m]"  
"Vel_axial" 
"MF_sp(ECDMC)" 
"MF_sp(Li+)" 
"MF_sp(PF6-)" 
"Volt(Electroly)" 
"Volt(AnodeVolt)" 
"Potential Drop Electrode-Electrolyte [V]" 
"Surf_0 Equilibrium Potential Drop Electrode-Electrolyte [V]" 
"Overpotential_0 [V]" 
"Current Source [A/m^2]" 
"Li+ flux [kmol/m^2/s]" 
"Electrolyte Current [A/m^2]" 
"Electrode Current [A/m^2]" 
"CV Capacity discharged [A-s/m^2]" 
"Depth of discharge in CV [A-s/m^2]" 
"CV Capacity remaining [A-s/m^2]" 
"Initial CV capacity [A-s/m^2]" 
"Porosity []" 
"Surface Area [m2/m2] (area per area)" 
"Specific current (per particle area) [A/m^2]" 
"Control volume thickness [m]" 
"MoleDens Li_C6-bulk [kmol/m^3]" 
"MoleDens V_C6-bulk [kmol/m^3]" 
"qHeat_accum [J/m3]" 
"qHeat_step [W/m3]" 
"Joule_Lyte [W/m3]" 
"Joule_Solid [W/m3]" 
"electrodHeat [W/m3]" 
"OverpotHeat [W/m3]" 
"deltaSHeat [W/m3]" 

ZONE T = "ANOD, 0.0000E+00", I = 10, SOLUTIONTIME = 0.000000E+00
ZONETYPE = ORDERED
DATAPACKING = BLOCK
STRANDID = 1
 0.0000000000000E+00  8.7488888888889E-05  1.7497777777778E-04  2.6246666666667E-04  3.4995555555556E-04  4.3744444444444E-04  5.2493333333333E-04  6.1242222222222E-04  6.9991111111111E-04  7.8740000000000E-04 
 0.0000000000000E+00  0.0000000000000E+00  0.0000000000000E+00  0.0000000000000E+00  0.0000000000000E+00  0.0000000000000E+00  0.0000000000000E+00  0.0000000000000E+00  0.0000000000000E+00  0.0000000000000E+00 
 9.2000000000000E-01  9.2000000000000E-01  9.2000000000000E-01  9.2000000000000E-01  9.2000000000000E-01  9.2000000000000E-01  9.2000000000000E-01  9.2000000000000E-01  9.2000000000000E-01  9.2000000000000E-01 
 4.0000000000000E-02  4.0000000000000E-02  4.0000000000000E-02  4.0000000000000E-02  4.0000000000000E-02  4.0000000000000E-02  4.0000000000000E-02  4.0000000000000E-02  4.0000000000000E-02  4.0000000000000E-02 
 4.0000000000000E-02  4.0000000000000E-02  4.0000000000000E-02  4.0000000000000E-02  4.0000000000000E-02  4.0000000000000E-02  4.0000000000000E-02  4.0000000000000E-02  4.0000000000000E-02  4.0000000000000E-02 
-7.0000000000000E-02 -7.0000000000000E-02 -7.0000000000000E-02 -7.0000000000000E-02 -7.0000000000000E-02 -7.0000000000000E-02 -7.0000000000000E-02 -7.0000000000000E-02 -7.0000000000000E-02 -7.0000000000000E-02 
 0.0000000000000E+00  0.0000000000000E+00  0.0000000000000E+00  0.0000000000000E+00  0.0000000000000E+00  0.0000000000000E+00  0.0000000000000E+00  0.0000000000000E+00  0.0000000000000E+00  0.0000000000000E+00 
 7.0000000000000E-02  7.0000000000000E-02  7.0000000000000E-02  7.0000000000000E-02  7.0000000000000E-02  7.0000000000000E-02  7.0000000000000E-02  7.0000000000000E-02  7.0000000000000E-02  7.0000000000000E-02 
-4.0906790794156E-02 -4.0906790794156E-02 -4.0906790794156E-02 -4.0906790794156E-02 -4.0906790794156E-02 -4.0906790794156E-02 -4.0906790794156E-02 -4.0906790794156E-02 -4.0906790794156E-02 -4.0906790794156E-02 
 1.1090679079416E-01  1.1090679079416E-01  1.1090679079416E-01  1.1090679079416E-01  1.1090679079416E-01  1.1090679079416E-01  1.1090679079416E-01  1.1090679079416E-01  1.1090679079416E-01  1.1090679079416E-01 
 3.0930289169717E+01  6.1860578339434E+01  6.1860578339434E+01  6.1860578339434E+01  6.1860578339434E+01  6.1860578339434E+01  6.1860578339434E+01  6.1860578339434E+01  6.1860578339434E+01  3.0930289169717E+01 
-0.0000000000000E+00 -0.0000000000000E+00 -0.0000000000000E+00 -0.0000000000000E+00 -0.0000000000000E+00 -0.0000000000000E+00 -0.0000000000000E+00 -0.0000000000000E+00 -0.0000000000000E+00 -0.0000000000000E+00 
 0.0000000000000E+00  0.0000000000000E+00  0.0000000000000E+00  0.0000000000000E+00  0.0000000000000E+00  0.0000000000000E+00  0.0000000000000E+00  0.0000000000000E+00  0.0000000000000E+00  3.0930289169717E+01 
 3.0930289169717E+01 -0.0000000000000E+00 -0.0000000000000E+00 -0.0000000000000E+00 -0.0000000000000E+00 -0.0000000000000E+00 -0.0000000000000E+00 -0.0000000000000E+00 -0.0000000000000E+00  0.0000000000000E+00 
 0.0000000000000E+00  0.0000000000000E+00  0.0000000000000E+00  0.0000000000000E+00  0.0000000000000E+00  0.0000000000000E+00  0.0000000000000E+00  0.0000000000000E+00  0.0000000000000E+00  0.0000000000000E+00 
 7.0592160225764E+03  1.4118432045153E+04  1.4118432045153E+04  1.4118432045153E+04  1.4118432045153E+04  1.4118432045153E+04  1.4118432045153E+04  1.4118432045153E+04  1.4118432045153E+04  7.0592160225764E+03 
 5.2238198567065E+04  1.0447639713413E+05  1.0447639713413E+05  1.0447639713413E+05  1.0447639713413E+05  1.0447639713413E+05  1.0447639713413E+05  1.0447639713413E+05  1.0447639713413E+05  5.2238198567065E+04 
 5.9297414589642E+04  1.1859482917928E+05  1.1859482917928E+05  1.1859482917928E+05  1.1859482917928E+05  1.1859482917928E+05  1.1859482917928E+05  1.1859482917928E+05  1.1859482917928E+05  5.9297414589642E+04 
 3.5000000000000E-01  3.5000000000000E-01  3.5000000000000E-01  3.5000000000000E-01  3.5000000000000E-01  3.5000000000000E-01  3.5000000000000E-01  3.5000000000000E-01  3.5000000000000E-01  3.5000000000000E-01 
 8.5301666666667E+00  1.7060333333333E+01  1.7060333333333E+01  1.7060333333333E+01  1.7060333333333E+01  1.7060333333333E+01  1.7060333333333E+01  1.7060333333333E+01  1.7060333333333E+01  8.5301666666667E+00 
 3.6259888438738E+00  3.6259888438738E+00  3.6259888438738E+00  3.6259888438738E+00  3.6259888438738E+00  3.6259888438738E+00  3.6259888438738E+00  3.6259888438738E+00  3.6259888438738E+00  3.6259888438738E+00 
 4.3744444444444E-05  8.7488888888889E-05  8.7488888888889E-05  8.7488888888889E-05  8.7488888888889E-05  8.7488888888889E-05  8.7488888888889E-05  8.7488888888889E-05  8.7488888888889E-05  4.3744444444444E-05 
 1.3380188695655E+01  1.3380188695655E+01  1.3380188695655E+01  1.3380188695655E+01  1.3380188695655E+01  1.3380188695655E+01  1.3380188695655E+01  1.3380188695655E+01  1.3380188695655E+01  1.3380188695655E+01 
 3.3450471739137E+00  3.3450471739137E+00  3.3450471739137E+00  3.3450471739137E+00  3.3450471739137E+00  3.3450471739137E+00  3.3450471739137E+00  3.3450471739137E+00  3.3450471739137E+00  3.3450471739137E+00 
 0.0000000000000E+00  0.0000000000000E+00  0.0000000000000E+00  0.0000000000000E+00  0.0000000000000E+00  0.0000000000000E+00  0.0000000000000E+00  0.0000000000000E+00  0.0000000000000E+00  0.0000000000000E+00 
 0.0000000000000E+00  0.0000000000000E+00  0.0000000000000E+00  0.0000000000000E+00  0.0000000000000E+00  0.0000000000000E+00  0.0000000000000E+00  0.0000000000000E+00  0.0000000000000E+00  0.0000000000000E+00 
 0.0000000000000E+00  0.0000000000000E+00  0.0000000000000E+00  0.0000000000000E+00  0.0000000000000E+00  0.0000000000000E+00  0.0000000000000E+00  0.0000000000000E+00  0.0000000000000E+00  0.0000000000000E+00 
 0.0000000000000E+00  0.0000000000000E+00  0.0000000000000E+00  0.0000000000000E+00  0.0000000000000E+00  0.0000000000000E+00  0.0000000000000E+00  0.0000000000000E+00  0.0000000000000E+00  0.0000000000000E+00 
 0.0000000000000E+00  0.0000000000000E+00  0.0000000000000E+00  0.0000000000000E+00  0.0000000000000E+00  0.0000000000000E+00  0.0000000000000E+00  0.0000000000000E+00  0.0000000000000E+00  0.0000000000000E+00 
 0.0000000000000E+00  0.0000000000000E+00  0.0000000000000E+00  0.0000000000000E+00  0.0000000000000E+00  0.0000000000000E+00  0.0000000000000E+00  0.0000000000000E+00  0.0000000000000E+00  0.0000000000000E+00 
 0.0000000000000E+00  0.0000000000000E+00  0.0000000000000E+00  0.0000000000000E+00  0.0000000000000E+00  0.0000000000000E+00  0.0000000000000E+00  0.0000000000000E+00  0.0000000000000E+00  0.0000000000000E+00 
ZONE T = "ANOD, 1.0000E-08", I = 10, SOLUTIONTIME = 1.000000E-08
ZONETYPE = ORDERED
DATAPACKING = BLOCK
STRANDID = 1
 0.0000000000000E+00  8.7488888888889E-05  1.7497777777778E-04  2.6246666666667E-04  3.4995555555556E-04  4.3744444444444E-04  5.2493333333333E-04  6.1242222222222E-04  6.9991111111111E-04  7.8740000000000E-04 
 1.1589928217041E-09  3.4769806727673E-09  5.7949771619375E-09  8.1129887197018E-09  1.0431021776825E-08  1.2749082763918E-08  1.5067178111896E-08  1.7385314251322E-08  1.9703497613373E-08  2.0862979328955E-08 
 9.1999999999930E-01  9.1999999999930E-01  9.1999999999930E-01  9.1999999999930E-01  9.1999999999930E-01  9.1999999999930E-01  9.1999999999930E-01  9.1999999999930E-01  9.1999999999930E-01  9.1999999999971E-01 
 4.0000000000348E-02  4.0000000000348E-02  4.0000000000348E-02  4.0000000000348E-02  4.0000000000348E-02  4.0000000000348E-02  4.0000000000348E-02  4.0000000000348E-02  4.0000000000348E-02  4.0000000000144E-02 
 4.0000000000348E-02  4.0000000000348E-02  4.0000000000348E-02  4.0000000000348E-02  4.0000000000348E-02  4.0000000000348E-02  4.0000000000348E-02  4.0000000000348E-02  4.0000000000348E-02  4.0000000000144E-02 
 2.9167439051344E-02  2.9167423324218E-02  2.9167376142828E-02  2.9167297507039E-02  2.9167187416662E-02  2.9167045871387E-02  2.9166872870860E-02  2.9166668414589E-02  2.9166432502041E-02  2.9166165132558E-02 
 0.0000000000000E+00 -4.7371318736432E-09 -8.9169746657270E-09 -1.2539526299484E-08 -1.5604783152132E-08 -1.8112740054810E-08 -2.0063390292614E-08 -2.1456725604523E-08 -2.2292736183485E-08 -2.2571410676267E-08 
-2.9167439051344E-02 -2.9167428061350E-02 -2.9167385059803E-02 -2.9167310046565E-02 -2.9167203021445E-02 -2.9167063984127E-02 -2.9166892934251E-02 -2.9166689871315E-02 -2.9166454794777E-02 -2.9166187703969E-02 
-4.0906790793438E-02 -4.0906790793438E-02 -4.0906790793438E-02 -4.0906790793438E-02 -4.0906790793437E-02 -4.0906790793438E-02 -4.0906790793438E-02 -4.0906790793437E-02 -4.0906790793437E-02 -4.0906790793568E-02 
 1.1739351742094E-02  1.1739362732089E-02  1.1739405733635E-02  1.1739480746873E-02  1.1739587771992E-02  1.1739726809312E-02  1.1739897859188E-02  1.1740100922122E-02  1.1740335998660E-02  1.1740603089599E-02 
 1.6690505686903E+00  3.3381043165808E+00  3.3381167561273E+00  3.3381384560655E+00  3.3381694164591E+00  3.3382096374140E+00  3.3382591190499E+00  3.3383178615325E+00  3.3383858650443E+00  1.6692315649035E+00 
 8.6492025595578E-09  2.5947613792026E-08  4.3246100088605E-08  6.0544689390599E-08  7.7843450087795E-08  9.5142404458117E-08  1.1244163024176E-07  1.2974114901570E-07  1.4704110160714E-07  1.4704110160714E-07 
 0.0000000000000E+00  3.3380854661125E+00  6.6761787646598E+00  1.0014289244305E+01  1.3352426199956E+01  1.6690598379195E+01  2.0028815431870E+01  2.3367086941370E+01  2.6705421619342E+01  3.0043837972726E+01 
 3.0043837487029E+01  2.6705743353271E+01  2.3367650003355E+01  2.0029539583670E+01  1.6691402833602E+01  1.3353230492449E+01  1.0015013299402E+01  6.6767419936824E+00  3.3384073143255E+00  0.0000000000000E+00 
 1.6690505686903E-08  3.3381043165808E-08  3.3381167561273E-08  3.3381384560655E-08  3.3381694164591E-08  3.3382096374140E-08  3.3382591190499E-08  3.3383178615325E-08  3.3383858650443E-08  1.6692315649035E-08 
 7.0592160225931E+03  1.4118432045186E+04  1.4118432045186E+04  1.4118432045186E+04  1.4118432045186E+04  1.4118432045186E+04  1.4118432045186E+04  1.4118432045186E+04  1.4118432045186E+04  7.0592160225931E+03 
 5.2238198567049E+04  1.0447639713410E+05  1.0447639713410E+05  1.0447639713410E+05  1.0447639713410E+05  1.0447639713410E+05  1.0447639713410E+05  1.0447639713410E+05  1.0447639713410E+05  5.2238198567049E+04 
 5.9297414589642E+04  1.1859482917928E+05  1.1859482917928E+05  1.1859482917928E+05  1.1859482917928E+05  1.1859482917928E+05  1.1859482917928E+05  1.1859482917928E+05  1.1859482917928E+05  5.9297414589642E+04 
 3.5000000000000E-01  3.5000000000000E-01  3.5000000000000E-01  3.5000000000000E-01  3.5000000000000E-01  3.5000000000000E-01  3.5000000000000E-01  3.5000000000000E-01  3.5000000000000E-01  3.5000000000000E-01 
 8.5301666666665E+00  1.7060333333333E+01  1.7060333333333E+01  1.7060333333333E+01  1.7060333333333E+01  1.7060333333333E+01  1.7060333333333E+01  1.7060333333333E+01  1.7060333333333E+01  8.5301666666665E+00 
 1.9566447338156E-01  1.9566465973198E-01  1.9566538888225E-01  1.9566666083501E-01  1.9566847559402E-01  1.9567083316548E-01  1.9567373355639E-01  1.9567717677649E-01  1.9568116283647E-01  1.9568569174930E-01 
 4.3744444444444E-05  8.7488888888889E-05  8.7488888888889E-05  8.7488888888889E-05  8.7488888888889E-05  8.7488888888889E-05  8.7488888888889E-05  8.7488888888889E-05  8.7488888888889E-05  4.3744444444444E-05 
 1.3380188695651E+01  1.3380188695651E+01  1.3380188695651E+01  1.3380188695651E+01  1.3380188695651E+01  1.3380188695651E+01  1.3380188695651E+01  1.3380188695651E+01  1.3380188695651E+01  1.3380188695651E+01 
 3.3450471739177E+00  3.3450471739177E+00  3.3450471739177E+00  3.3450471739177E+00  3.3450471739177E+00  3.3450471739177E+00  3.3450471739177E+00  3.3450471739177E+00  3.3450471739177E+00  3.3450471739177E+00 
 1.8363971758696E-11  2.8664045453293E-11  6.1478133709419E-11  1.1872032691289E-10  2.0039127768406E-10  3.0649186099830E-10  4.3702328233200E-10  5.9198698737744E-10  7.7138468790249E-10  8.6719229353079E-10 
 1.8363971758696E-03  2.8664045453293E-03  6.1478133709419E-03  1.1872032691289E-02  2.0039127768406E-02  3.0649186099830E-02  4.3702328233200E-02  5.9198698737744E-02  7.7138468790249E-02  8.6719229353079E-02 
 3.0002942419542E-04  1.5001477571696E-03  5.1005159875462E-03  1.1101169754860E-02  1.9502174258671E-02  3.0303616462125E-02  4.3505615906534E-02  5.9108315682846E-02  7.7111885017593E-02  8.6713912450882E-02 
 1.5363677516742E-03  1.3662567881597E-03  1.0472973833958E-03  7.7086293642898E-04  5.3695350973519E-04  3.4556963770541E-04  1.9671232666585E-04  9.0383054897463E-05  2.6583772655863E-05  5.3169021964459E-06 
 0.0000000000000E+00  0.0000000000000E+00  0.0000000000000E+00  0.0000000000000E+00  0.0000000000000E+00  0.0000000000000E+00  0.0000000000000E+00  0.0000000000000E+00  0.0000000000000E+00  0.0000000000000E+00 
 0.0000000000000E+00  0.0000000000000E+00  0.0000000000000E+00  0.0000000000000E+00  0.0000000000000E+00  0.0000000000000E+00  0.0000000000000E+00  0.0000000000000E+00  0.0000000000000E+00  0.0000000000000E+00 
 0.0000000000000E+00  0.0000000000000E+00  0.0000000000000E+00  0.0000000000000E+00  0.0000000000000E+00  0.0000000000000E+00  0.0000000000000E+00  0.0000000000000E+00  0.0000000000000E+00  0.0000000000000E+00 
ZONE T = "ANOD, 2.0000E-08", I = 10, SOLUTIONTIME = 2.000000E-08
ZONETYPE = ORDERED
DATAPACKING = BLOCK
STRANDID = 1
 0.0000000000000E+00  8.7488888888889E-05  1.7497777777778E-04  2.6246666666667E-04  3.4995555555556E-04  4.3744444444444E-04  5.2493333333333E-04  6.1242222222222E-04  6.9991111111111E-04  7.8740000000000E-04 
 1.1589985683254E-09  3.4769979126421E-09  5.7950058950990E-09  8.1130289461977E-09  1.0431073496488E-08  1.2748419561134E-08  1.5065799986297E-08  1.7383584410524E-08  1.9701416057034E-08  2.0860903518583E-08 
 9.1999999999861E-01  9.1999999999861E-01  9.1999999999861E-01  9.1999999999861E-01  9.1999999999861E-01  9.1999999999861E-01  9.1999999999861E-01  9.1999999999861E-01  9.1999999999861E-01  9.1999999999942E-01 
 4.0000000000696E-02  4.0000000000696E-02  4.0000000000696E-02  4.0000000000696E-02  4.0000000000696E-02  4.0000000000696E-02  4.0000000000696E-02  4.0000000000696E-02  4.0000000000696E-02  4.0000000000288E-02 
 4.0000000000696E-02  4.0000000000696E-02  4.0000000000696E-02  4.0000000000696E-02  4.0000000000696E-02  4.0000000000696E-02  4.0000000000696E-02  4.0000000000696E-02  4.0000000000696E-02  4.0000000000288E-02 
 2.9167441246733E-02  2.9167425519533E-02  2.9167378337904E-02  2.9167299701728E-02  2.9167189610801E-02  2.9167048064831E-02  2.9166875063439E-02  2.9166670606159E-02  2.9166434692437E-02  2.9166167321633E-02 
 0.0000000000000E+00 -4.7371553600525E-09 -8.9170188753455E-09 -1.2539588469103E-08 -1.5604860518533E-08 -1.8112829854813E-08 -2.0063489763078E-08 -2.1456831982394E-08 -2.2292846705737E-08 -2.2571522579956E-08 
-2.9167441246733E-02 -2.9167430256689E-02 -2.9167387254923E-02 -2.9167312241317E-02 -2.9167205215662E-02 -2.9167066177661E-02 -2.9166895126929E-02 -2.9166692062991E-02 -2.9166456985284E-02 -2.9166189893156E-02 
-4.0906790792716E-02 -4.0906790792716E-02 -4.0906790792716E-02 -4.0906790792716E-02 -4.0906790792716E-02 -4.0906790792716E-02 -4.0906790792716E-02 -4.0906790792716E-02 -4.0906790792716E-02 -4.0906790792978E-02 
 1.1739349545983E-02  1.1739360536027E-02  1.1739403537793E-02  1.1739478551399E-02  1.1739585577054E-02  1.1739724615055E-02  1.1739895665787E-02  1.1740098729725E-02  1.1740333807432E-02  1.1740600899823E-02 
 1.6690502510602E+00  3.3381036813352E+00  3.3381161209450E+00  3.3381378209895E+00  3.3381687815381E+00  3.3382090026896E+00  3.3382584845725E+00  3.3383172273448E+00  3.3383852311942E+00  1.6692312481837E+00 
 8.6492430485399E-09  2.5947745614413E-08  4.3246312650105E-08  6.0544992133396E-08  7.7843832060446E-08  9.5142880416693E-08  1.1244218520088E-07  1.2974179439497E-07  1.4704190022851E-07  1.4704190022851E-07 
 0.0000000000000E+00  3.3381020916329E+00  6.6762119928726E+00  1.0014338963831E+01  1.3352492265173E+01  1.6690681157196E+01  2.0028914900746E+01  2.3367202756858E+01  2.6705553986123E+01  3.0043977849861E+01 
 3.0043977849853E+01  2.6705875758125E+01  2.3367765856985E+01  2.0029638886018E+01  1.6691485584754E+01  1.3353296692640E+01  1.0015062949009E+01  6.6767750930503E+00  3.3384238637808E+00  0.0000000000000E+00 
 3.3381008197505E-08  6.6762079979160E-08  6.6762328770723E-08  6.6762762770550E-08  6.6763381979972E-08  6.6764186401036E-08  6.6765176036223E-08  6.6766350888773E-08  6.6767710962385E-08  3.3384628130871E-08 
 7.0592160226098E+03  1.4118432045220E+04  1.4118432045220E+04  1.4118432045220E+04  1.4118432045220E+04  1.4118432045220E+04  1.4118432045220E+04  1.4118432045220E+04  1.4118432045220E+04  7.0592160226098E+03 
 5.2238198567032E+04  1.0447639713406E+05  1.0447639713406E+05  1.0447639713406E+05  1.0447639713406E+05  1.0447639713406E+05  1.0447639713406E+05  1.0447639713406E+05  1.0447639713406E+05  5.2238198567032E+04 
 5.9297414589642E+04  1.1859482917928E+05  1.1859482917928E+05  1.1859482917928E+05  1.1859482917928E+05  1.1859482917928E+05  1.1859482917928E+05  1.1859482917928E+05  1.1859482917928E+05  5.9297414589642E+04 
 3.5000000000000E-01  3.5000000000000E-01  3.5000000000000E-01  3.5000000000000E-01  3.5000000000000E-01  3.5000000000000E-01  3.5000000000000E-01  3.5000000000000E-01  3.5000000000000E-01  3.5000000000000E-01 
 8.5301666666663E+00  1.7060333333333E+01  1.7060333333333E+01  1.7060333333333E+01  1.7060333333333E+01  1.7060333333333E+01  1.7060333333333E+01  1.7060333333333E+01  1.7060333333333E+01  8.5301666666663E+00 
 1.9566443614548E-01  1.9566462249675E-01  1.9566535165072E-01  1.9566662360972E-01  1.9566843837781E-01  1.9567079596079E-01  1.9567369636619E-01  1.9567713960327E-01  1.9568112568303E-01  1.9568565461993E-01 
 4.3744444444444E-05  8.7488888888889E-05  8.7488888888889E-05  8.7488888888889E-05  8.7488888888889E-05  8.7488888888889E-05  8.7488888888889E-05  8.7488888888889E-05  8.7488888888889E-05  4.3744444444444E-05 
 1.3380188695647E+01  1.3380188695647E+01  1.3380188695647E+01  1.3380188695647E+01  1.3380188695647E+01  1.3380188695647E+01  1.3380188695647E+01  1.3380188695647E+01  1.3380188695647E+01  1.3380188695647E+01 
 3.3450471739216E+00  3.3450471739216E+00  3.3450471739216E+00  3.3450471739216E+00  3.3450471739216E+00  3.3450471739216E+00  3.3450471739216E+00  3.3450471739216E+00  3.3450471739216E+00  3.3450471739216E+00 
 3.6728123950775E-11  5.7328377611992E-11  1.2295687712647E-10  2.3744183406918E-10  4.0078453626477E-10  6.1298676495896E-10  8.7405090300597E-10  1.1839798445797E-09  1.5427770210289E-09  1.7343931563632E-09 
 1.8364152192078E-03  2.8664332158699E-03  6.1478743417051E-03  1.1872150715629E-02  2.0039325858071E-02  3.0649490396066E-02  4.3702762067397E-02  5.9199285720228E-02  7.7139233312636E-02  8.6720086283241E-02 
 6.0006165725709E-04  3.0003106372673E-03  1.0201082561109E-02  2.2202449890476E-02  3.9004541282868E-02  6.0607533794069E-02  8.7011663696848E-02  1.1821721745204E-01  1.5422453429400E-01  1.7342868177921E-01 
 3.0727507378204E-03  2.7325271239319E-03  2.0946051515377E-03  1.5417335164426E-03  1.0739123436090E-03  6.9114270182688E-04  3.9342660374922E-04  1.8076700593204E-04  5.3167808880637E-05  1.0633857106599E-05 
 0.0000000000000E+00  0.0000000000000E+00  0.0000000000000E+00  0.0000000000000E+00  0.0000000000000E+00  0.0000000000000E+00  0.0000000000000E+00  0.0000000000000E+00  0.0000000000000E+00  0.0000000000000E+00 
 0.0000000000000E+00  0.0000000000000E+00  0.0000000000000E+00  0.0000000000000E+00  0.0000000000000E+00  0.0000000000000E+00  0.0000000000000E+00  0.0000000000000E+00  0.0000000000000E+00  0.0000000000000E+00 
 0.0000000000000E+00  0.0000000000000E+00  0.0000000000000E+00  0.0000000000000E+00  0.0000000000000E+00  0.0000000000000E+00  0.0000000000000E+00  0.0000000000000E+00  0.0000000000000E+00  0.0000000000000E+00 
ZONE T = "ANOD, 3.0000E-08", I = 10, SOLUTIONTIME = 3.000000E-08
ZONETYPE = ORDERED
DATAPACKING = BLOCK
STRANDID = 1
 0.0000000000000E+00  8.7488888888889E-05  1.7497777777778E-04  2.6246666666667E-04  3.4995555555556E-04  4.3744444444444E-04  5.2493333333333E-04  6.1242222222222E-04  6.9991111111111E-04  7.8740000000000E-04 
 1.1589985683010E-09  3.4769979125689E-09  5.7950058949770E-09  8.1130289460270E-09  1.0431799911725E-08  1.2750598807233E-08  1.5069432063259E-08  1.7388669318349E-08  1.9707227380266E-08  2.0865988426345E-08 
 9.1999999999791E-01  9.1999999999791E-01  9.1999999999791E-01  9.1999999999791E-01  9.1999999999791E-01  9.1999999999791E-01  9.1999999999791E-01  9.1999999999791E-01  9.1999999999791E-01  9.1999999999914E-01 
 4.0000000001045E-02  4.0000000001045E-02  4.0000000001045E-02  4.0000000001045E-02  4.0000000001045E-02  4.0000000001045E-02  4.0000000001045E-02  4.0000000001045E-02  4.0000000001045E-02  4.0000000000432E-02 
 4.0000000001045E-02  4.0000000001045E-02  4.0000000001045E-02  4.0000000001045E-02  4.0000000001045E-02  4.0000000001045E-02  4.0000000001045E-02  4.0000000001045E-02  4.0000000001045E-02  4.0000000000432E-02 
 2.9167441246369E-02  2.9167425519169E-02  2.9167378337540E-02  2.9167299701364E-02  2.9167189610437E-02  2.9167048064467E-02  2.9166875063075E-02  2.9166670605795E-02  2.9166434692073E-02  2.9166167321269E-02 
 0.0000000000000E+00 -4.7371553599559E-09 -8.9170188751640E-09 -1.2539588468849E-08 -1.5604860518217E-08 -1.8112829854447E-08 -2.0063489762674E-08 -2.1456831981964E-08 -2.2292846705291E-08 -2.2571522579507E-08 
-2.9167441246369E-02 -2.9167430256325E-02 -2.9167387254559E-02 -2.9167312240953E-02 -2.9167205215298E-02 -2.9167066177297E-02 -2.9166895126565E-02 -2.9166692062627E-02 -2.9166456984920E-02 -2.9166189892792E-02 
-4.0906790791992E-02 -4.0906790791992E-02 -4.0906790791992E-02 -4.0906790791992E-02 -4.0906790791994E-02 -4.0906790791994E-02 -4.0906790791994E-02 -4.0906790791996E-02 -4.0906790791996E-02 -4.0906790792390E-02 
 1.1739349545623E-02  1.1739360535667E-02  1.1739403537433E-02  1.1739478551039E-02  1.1739585576696E-02  1.1739724614697E-02  1.1739895665429E-02  1.1740098729369E-02  1.1740333807076E-02  1.1740600899598E-02 
 1.6690502510251E+00  3.3381036812650E+00  3.3381161208747E+00  3.3381378209192E+00  3.3381687814683E+00  3.3382090026197E+00  3.3382584845027E+00  3.3383172272755E+00  3.3383852311249E+00  1.6692312481637E+00 
 8.6492430486152E-09  2.5947745614639E-08  4.3246312648573E-08  6.0544992130446E-08  7.7843832056622E-08  9.5142880415266E-08  1.1244218519804E-07  1.2974179439228E-07  1.4704197234094E-07  1.4704197234094E-07 
 0.0000000000000E+00  3.3381020916619E+00  6.6762119927466E+00  1.0014338963550E+01  1.3352492264737E+01  1.6690681156973E+01  2.0028914900552E+01  2.3367202756325E+01  2.6705553985399E+01  3.0043977848912E+01 
 3.0043977849239E+01  2.6705875757581E+01  2.3367765856511E+01  2.0029638885614E+01  1.6691485584421E+01  1.3353296692377E+01  1.0015062948815E+01  6.6767750929263E+00  3.3384238637262E+00  0.0000000000000E+00 
 5.0071510707756E-08  1.0014311679181E-07  1.0014348997947E-07  1.0014414097974E-07  1.0014506979466E-07  1.0014627642723E-07  1.0014776088125E-07  1.0014952316153E-07  1.0015156327363E-07  5.0076940612509E-08 
 7.0592160226264E+03  1.4118432045253E+04  1.4118432045253E+04  1.4118432045253E+04  1.4118432045253E+04  1.4118432045253E+04  1.4118432045253E+04  1.4118432045253E+04  1.4118432045253E+04  7.0592160226265E+03 
 5.2238198567015E+04  1.0447639713403E+05  1.0447639713403E+05  1.0447639713403E+05  1.0447639713403E+05  1.0447639713403E+05  1.0447639713403E+05  1.0447639713403E+05  1.0447639713403E+05  5.2238198567015E+04 
 5.9297414589642E+04  1.1859482917928E+05  1.1859482917928E+05  1.1859482917928E+05  1.1859482917928E+05  1.1859482917928E+05  1.1859482917928E+05  1.1859482917928E+05  1.1859482917928E+05  5.9297414589642E+04 
 3.5000000000000E-01  3.5000000000000E-01  3.5000000000000E-01  3.5000000000000E-01  3.5000000000000E-01  3.5000000000000E-01  3.5000000000000E-01  3.5000000000000E-01  3.5000000000000E-01  3.5000000000000E-01 
 8.5301666666661E+00  1.7060333333332E+01  1.7060333333332E+01  1.7060333333332E+01  1.7060333333332E+01  1.7060333333332E+01  1.7060333333332E+01  1.7060333333332E+01  1.7060333333332E+01  8.5301666666661E+00 
 1.9566443614137E-01  1.9566462249264E-01  1.9566535164660E-01  1.9566662360560E-01  1.9566843837373E-01  1.9567079595670E-01  1.9567369636210E-01  1.9567713959921E-01  1.9568112567897E-01  1.9568565461759E-01 
 4.3744444444444E-05  8.7488888888889E-05  8.7488888888889E-05  8.7488888888889E-05  8.7488888888889E-05  8.7488888888889E-05  8.7488888888889E-05  8.7488888888889E-05  8.7488888888889E-05  4.3744444444444E-05 
 1.3380188695643E+01  1.3380188695643E+01  1.3380188695643E+01  1.3380188695643E+01  1.3380188695643E+01  1.3380188695643E+01  1.3380188695643E+01  1.3380188695643E+01  1.3380188695643E+01  1.3380188695643E+01 
 3.3450471739256E+00  3.3450471739256E+00  3.3450471739256E+00  3.3450471739256E+00  3.3450471739256E+00  3.3450471739256E+00  3.3450471739256E+00  3.3450471739256E+00  3.3450471739256E+00  3.3450471739256E+00 
 5.5092276142252E-11  8.5992709770266E-11  1.8443562054023E-10  3.5616334121819E-10  6.0117779483042E-10  9.1948166891020E-10  1.3110785236664E-09  1.7759727017500E-09  2.3141693541072E-09  2.6015940191334E-09 
 1.8364152191478E-03  2.8664332158274E-03  6.1478743413762E-03  1.1872150714901E-02  2.0039325856565E-02  3.0649490395125E-02  4.3702762066047E-02  5.9199285717033E-02  7.7139233307835E-02  8.6720086277023E-02 
 9.0009389032137E-04  4.5004735173781E-03  1.5301649134386E-02  3.3303730025394E-02  5.8506908305580E-02  9.0911451125086E-02  1.3051771148582E-01  1.7732611921804E-01  2.3133718356562E-01  2.6014345110133E-01 
 4.6091337239039E-03  4.0987974596484E-03  3.1419129196371E-03  2.3126040964251E-03  1.6108711774613E-03  1.0367157659347E-03  5.9014088082498E-04  2.7115095696324E-04  7.9751845104493E-05  1.5950812016625E-05 
 0.0000000000000E+00  0.0000000000000E+00  0.0000000000000E+00  0.0000000000000E+00  0.0000000000000E+00  0.0000000000000E+00  0.0000000000000E+00  0.0000000000000E+00  0.0000000000000E+00  0.0000000000000E+00 
 0.0000000000000E+00  0.0000000000000E+00  0.0000000000000E+00  0.0000000000000E+00  0.0000000000000E+00  0.0000000000000E+00  0.0000000000000E+00  0.0000000000000E+00  0.0000000000000E+00  0.0000000000000E+00 
 0.0000000000000E+00  0.0000000000000E+00  0.0000000000000E+00  0.0000000000000E+00  0.0000000000000E+00  0.0000000000000E+00  0.0000000000000E+00  0.0000000000000E+00  0.0000000000000E+00  0.0000000000000E+00 
ZONE T = "ANOD, 4.0000E-08", I = 10, SOLUTIONTIME = 4.000000E-08
ZONETYPE = ORDERED
DATAPACKING = BLOCK
STRANDID = 1
 0.0000000000000E+00  8.7488888888889E-05  1.7497777777778E-04  2.6246666666667E-04  3.4995555555556E-04  4.3744444444444E-04  5.2493333333333E-04  6.1242222222222E-04  6.9991111111111E-04  7.8740000000000E-04 
 1.1589985682768E-09  3.4759082893130E-09  5.7939162716727E-09  8.1119393226742E-09  1.0428167834229E-08  1.2745150691049E-08  1.5063257531571E-08  1.7381405163429E-08  1.9699600017570E-08  2.0858724271362E-08 
 9.1999999999721E-01  9.1999999999721E-01  9.1999999999721E-01  9.1999999999721E-01  9.1999999999721E-01  9.1999999999721E-01  9.1999999999721E-01  9.1999999999721E-01  9.1999999999721E-01  9.1999999999885E-01 
 4.0000000001393E-02  4.0000000001393E-02  4.0000000001393E-02  4.0000000001393E-02  4.0000000001393E-02  4.0000000001393E-02  4.0000000001393E-02  4.0000000001393E-02  4.0000000001393E-02  4.0000000000576E-02 
 4.0000000001393E-02  4.0000000001393E-02  4.0000000001393E-02  4.0000000001393E-02  4.0000000001393E-02  4.0000000001393E-02  4.0000000001393E-02  4.0000000001393E-02  4.0000000001393E-02  4.0000000000576E-02 
 2.9167441246004E-02  2.9167425518804E-02  2.9167378337175E-02  2.9167299700999E-02  2.9167189610072E-02  2.9167048064102E-02  2.9166875062710E-02  2.9166670605430E-02  2.9166434691708E-02  2.9166167320904E-02 
 0.0000000000000E+00 -4.7371553598590E-09 -8.9170188749819E-09 -1.2539588468593E-08 -1.5604860517899E-08 -1.8112829854079E-08 -2.0063489762267E-08 -2.1456831981530E-08 -2.2292846704843E-08 -2.2571522579056E-08 
-2.9167441246004E-02 -2.9167430255959E-02 -2.9167387254194E-02 -2.9167312240587E-02 -2.9167205214932E-02 -2.9167066176932E-02 -2.9166895126200E-02 -2.9166692062262E-02 -2.9166456984555E-02 -2.9166189892426E-02 
-4.0906790791268E-02 -4.0906790791268E-02 -4.0906790791268E-02 -4.0906790791268E-02 -4.0906790791268E-02 -4.0906790791268E-02 -4.0906790791268E-02 -4.0906790791271E-02 -4.0906790791271E-02 -4.0906790791796E-02 
 1.1739349545264E-02  1.1739360535309E-02  1.1739403537075E-02  1.1739478550681E-02  1.1739585576335E-02  1.1739724614336E-02  1.1739895665068E-02  1.1740098729009E-02  1.1740333806716E-02  1.1740600899369E-02 
 1.6690502509902E+00  3.3381036811953E+00  3.3381161208051E+00  3.3381378208496E+00  3.3381687813980E+00  3.3382090025494E+00  3.3382584844324E+00  3.3383172272055E+00  3.3383852310549E+00  1.6692312481434E+00 