TITLE = "Solution on Domain BulkDomain1D_2"
VARIABLES = "x [m]"  
"Vel_axial" 	"MF_sp(ECDMC)" 	"MF_sp(Li+)" 	"MF_sp(PF6-)" 	"Volt(Electroly)" 	"Volt(CathodeVo)" 	
"Potential Drop Electrode-Electrolyte [V]" 	"Surf_0 Equilibrium Potential Drop Electrode-Electrolyte [V]" 	"Overpotential_0 [V]" 	"Current Source [A/m^2]" 	"Li+ flux [kmol/m^2/s]" 	"Electrolyte Current [A/m^2]" 	"Electrode Current [A/m^2]" 	
"CV Capacity discharged [A-s/m^2]" 	"Depth of discharge in CV [A-s/m^2]" 	"CV Capacity remaining [A-s/m^2]" 	"Initial CV capacity [A-s/m^2]" 	"Porosity []" 	"Surface Area [m2/m2] (area per area)" 	"Specific current (per particle area) [A/m^2]" 	"Control volume thickness [m]" 	
"MoleDens LiCoO2 [kmol/m^3]" 	"MoleDens CoO2 [kmol/m^3]" 	"qHeat_accum [J/m3]" 	"qHeat_step [W/m3]" 	"Joule_Lyte [W/m3]" 	"Joule_Solid [W/m3]" 	"electrodHeat [W/m3]" 	"OverpotHeat [W/m3]" 	"deltaSHeat [W/m3]" 	

ZONE T = "CATH, 0.0000E+00", I = 10, SOLUTIONTIME = 0.000000E+00
ZONETYPE = ORDERED
DATAPACKING = BLOCK
STRANDID = 3
 1.2700000000000E-03  1.3377333333333E-03  1.4054666666667E-03  1.4732000000000E-03  1.5409333333333E-03  1.6086666666667E-03  1.6764000000000E-03  1.7441333333333E-03  1.8118666666667E-03  1.8796000000000E-03 
 0.0000000000000E+00  0.0000000000000E+00  0.0000000000000E+00  0.0000000000000E+00  0.0000000000000E+00  0.0000000000000E+00  0.0000000000000E+00  0.0000000000000E+00  0.0000000000000E+00  0.0000000000000E+00 
 9.2000000000000E-01  9.2000000000000E-01  9.2000000000000E-01  9.2000000000000E-01  9.2000000000000E-01  9.2000000000000E-01  9.2000000000000E-01  9.2000000000000E-01  9.2000000000000E-01  9.2000000000000E-01 
 4.0000000000000E-02  4.0000000000000E-02  4.0000000000000E-02  4.0000000000000E-02  4.0000000000000E-02  4.0000000000000E-02  4.0000000000000E-02  4.0000000000000E-02  4.0000000000000E-02  4.0000000000000E-02 
 4.0000000000000E-02  4.0000000000000E-02  4.0000000000000E-02  4.0000000000000E-02  4.0000000000000E-02  4.0000000000000E-02  4.0000000000000E-02  4.0000000000000E-02  4.0000000000000E-02  4.0000000000000E-02 
-7.0000000000000E-02 -7.0000000000000E-02 -7.0000000000000E-02 -7.0000000000000E-02 -7.0000000000000E-02 -7.0000000000000E-02 -7.0000000000000E-02 -7.0000000000000E-02 -7.0000000000000E-02 -7.0000000000000E-02 
 3.8000000000000E+00  3.8000000000000E+00  3.8000000000000E+00  3.8000000000000E+00  3.8000000000000E+00  3.8000000000000E+00  3.8000000000000E+00  3.8000000000000E+00  3.8000000000000E+00  3.8000000000000E+00 
 3.8700000000000E+00  3.8700000000000E+00  3.8700000000000E+00  3.8700000000000E+00  3.8700000000000E+00  3.8700000000000E+00  3.8700000000000E+00  3.8700000000000E+00  3.8700000000000E+00  3.8700000000000E+00 
 3.9714142713289E+00  3.9714142713289E+00  3.9714142713289E+00  3.9714142713289E+00  3.9714142713289E+00  3.9714142713289E+00  3.9714142713289E+00  3.9714142713289E+00  3.9714142713289E+00  3.9714142713289E+00 
-1.0141427132889E-01 -1.0141427132889E-01 -1.0141427132889E-01 -1.0141427132889E-01 -1.0141427132889E-01 -1.0141427132889E-01 -1.0141427132889E-01 -1.0141427132889E-01 -1.0141427132889E-01 -1.0141427132889E-01 
-2.3826357195711E-01 -4.7652714391422E-01 -4.7652714391423E-01 -4.7652714391422E-01 -4.7652714391423E-01 -4.7652714391423E-01 -4.7652714391422E-01 -4.7652714391423E-01 -4.7652714391422E-01 -2.3826357195711E-01 
-0.0000000000000E+00 -0.0000000000000E+00 -0.0000000000000E+00 -0.0000000000000E+00 -0.0000000000000E+00 -0.0000000000000E+00 -0.0000000000000E+00 -0.0000000000000E+00 -0.0000000000000E+00 -0.0000000000000E+00 
 2.3826357195711E-01  0.0000000000000E+00  0.0000000000000E+00  0.0000000000000E+00  0.0000000000000E+00  0.0000000000000E+00  0.0000000000000E+00  0.0000000000000E+00  0.0000000000000E+00  0.0000000000000E+00 
 0.0000000000000E+00 -0.0000000000000E+00 -0.0000000000000E+00 -0.0000000000000E+00 -0.0000000000000E+00 -0.0000000000000E+00 -0.0000000000000E+00 -0.0000000000000E+00 -0.0000000000000E+00  2.3826357195711E-01 
-0.0000000000000E+00 -0.0000000000000E+00 -0.0000000000000E+00 -0.0000000000000E+00 -0.0000000000000E+00 -0.0000000000000E+00 -0.0000000000000E+00 -0.0000000000000E+00 -0.0000000000000E+00 -0.0000000000000E+00 
 5.2083019618450E+03  1.0416603923690E+04  1.0416603923690E+04  1.0416603923690E+04  1.0416603923690E+04  1.0416603923690E+04  1.0416603923690E+04  1.0416603923690E+04  1.0416603923690E+04  5.2083019618450E+03 
 3.5416453340546E+04  7.0832906681092E+04  7.0832906681093E+04  7.0832906681092E+04  7.0832906681093E+04  7.0832906681093E+04  7.0832906681092E+04  7.0832906681093E+04  7.0832906681092E+04  3.5416453340546E+04 
 4.0624755302391E+04  8.1249510604782E+04  8.1249510604783E+04  8.1249510604782E+04  8.1249510604783E+04  8.1249510604783E+04  8.1249510604782E+04  8.1249510604783E+04  8.1249510604782E+04  4.0624755302391E+04 
 3.5000000000000E-01  3.5000000000000E-01  3.5000000000000E-01  3.5000000000000E-01  3.5000000000000E-01  3.5000000000000E-01  3.5000000000000E-01  3.5000000000000E-01  3.5000000000000E-01  3.5000000000000E-01 
 6.6040000000000E+00  1.3208000000000E+01  1.3208000000000E+01  1.3208000000000E+01  1.3208000000000E+01  1.3208000000000E+01  1.3208000000000E+01  1.3208000000000E+01  1.3208000000000E+01  6.6040000000000E+00 
-3.6078675341780E-02 -3.6078675341780E-02 -3.6078675341780E-02 -3.6078675341780E-02 -3.6078675341780E-02 -3.6078675341780E-02 -3.6078675341780E-02 -3.6078675341780E-02 -3.6078675341780E-02 -3.6078675341780E-02 
 3.3866666666667E-05  6.7733333333333E-05  6.7733333333334E-05  6.7733333333333E-05  6.7733333333334E-05  6.7733333333334E-05  6.7733333333333E-05  6.7733333333334E-05  6.7733333333333E-05  3.3866666666667E-05 
 1.9126857953556E+01  1.9126857953556E+01  1.9126857953556E+01  1.9126857953556E+01  1.9126857953556E+01  1.9126857953556E+01  1.9126857953556E+01  1.9126857953556E+01  1.9126857953556E+01  1.9126857953556E+01 
 1.2751238635704E+01  1.2751238635704E+01  1.2751238635704E+01  1.2751238635704E+01  1.2751238635704E+01  1.2751238635704E+01  1.2751238635704E+01  1.2751238635704E+01  1.2751238635704E+01  1.2751238635704E+01 
 0.0000000000000E+00  0.0000000000000E+00  0.0000000000000E+00  0.0000000000000E+00  0.0000000000000E+00  0.0000000000000E+00  0.0000000000000E+00  0.0000000000000E+00  0.0000000000000E+00  0.0000000000000E+00 
 0.0000000000000E+00  0.0000000000000E+00  0.0000000000000E+00  0.0000000000000E+00  0.0000000000000E+00  0.0000000000000E+00  0.0000000000000E+00  0.0000000000000E+00  0.0000000000000E+00  0.0000000000000E+00 
 0.0000000000000E+00  0.0000000000000E+00  0.0000000000000E+00  0.0000000000000E+00  0.0000000000000E+00  0.0000000000000E+00  0.0000000000000E+00  0.0000000000000E+00  0.0000000000000E+00  0.0000000000000E+00 
 0.0000000000000E+00  0.0000000000000E+00  0.0000000000000E+00  0.0000000000000E+00  0.0000000000000E+00  0.0000000000000E+00  0.0000000000000E+00  0.0000000000000E+00  0.0000000000000E+00  0.0000000000000E+00 
 0.0000000000000E+00  0.0000000000000E+00  0.0000000000000E+00  0.0000000000000E+00  0.0000000000000E+00  0.0000000000000E+00  0.0000000000000E+00  0.0000000000000E+00  0.0000000000000E+00  0.0000000000000E+00 
 0.0000000000000E+00  0.0000000000000E+00  0.0000000000000E+00  0.0000000000000E+00  0.0000000000000E+00  0.0000000000000E+00  0.0000000000000E+00  0.0000000000000E+00  0.0000000000000E+00  0.0000000000000E+00 
 0.0000000000000E+00  0.0000000000000E+00  0.0000000000000E+00  0.0000000000000E+00  0.0000000000000E+00  0.0000000000000E+00  0.0000000000000E+00  0.0000000000000E+00  0.0000000000000E+00  0.0000000000000E+00 
ZONE T = "CATH, 1.0000E-08", I = 10, SOLUTIONTIME = 1.000000E-08
ZONETYPE = ORDERED
DATAPACKING = BLOCK
STRANDID = 3
 1.2700000000000E-03  1.3377333333333E-03  1.4054666666667E-03  1.4732000000000E-03  1.5409333333333E-03  1.6086666666667E-03  1.6764000000000E-03  1.7441333333333E-03  1.8118666666667E-03  1.8796000000000E-03 
 1.9704870969475E-08  1.7389330642532E-08  1.5073506997238E-08  1.2757204460027E-08  1.0440227295691E-08  8.1223795416878E-09  5.8031017335500E-09  3.4825604625259E-09  1.1609218922692E-09 -7.2641541259435E-13 
 9.2000000000032E-01  9.2000000000090E-01  9.2000000000090E-01  9.2000000000090E-01  9.2000000000090E-01  9.2000000000090E-01  9.2000000000090E-01  9.2000000000090E-01  9.2000000000090E-01  9.2000000000090E-01 
 3.9999999999841E-02  3.9999999999551E-02  3.9999999999551E-02  3.9999999999551E-02  3.9999999999550E-02  3.9999999999550E-02  3.9999999999550E-02  3.9999999999550E-02  3.9999999999550E-02  3.9999999999549E-02 
 3.9999999999841E-02  3.9999999999551E-02  3.9999999999551E-02  3.9999999999551E-02  3.9999999999550E-02  3.9999999999550E-02  3.9999999999550E-02  3.9999999999550E-02  3.9999999999550E-02  3.9999999999549E-02 
 2.9165653270699E-02  2.9165446260550E-02  2.9165263576376E-02  2.9165105221174E-02  2.9164971199942E-02  2.9164861519812E-02  2.9164776189888E-02  2.9164715221401E-02  2.9164678627617E-02  2.9164666423881E-02 
 3.8001746420670E+00  3.8001724871785E+00  3.8001660223495E+00  3.8001552470526E+00  3.8001401603965E+00  3.8001207611255E+00  3.8000970476191E+00  3.8000690178917E+00  3.8000366695915E+00  3.8000000000000E+00 
 3.7710089887963E+00  3.7710070409179E+00  3.7710007587731E+00  3.7709901418314E+00  3.7709751891966E+00  3.7709558996057E+00  3.7709322714292E+00  3.7709043026703E+00  3.7708719909638E+00  3.7708353335761E+00 
 3.9714142713287E+00  3.9714142713285E+00  3.9714142713285E+00  3.9714142713285E+00  3.9714142713285E+00  3.9714142713285E+00  3.9714142713285E+00  3.9714142713285E+00  3.9714142713285E+00  3.9714142713285E+00 
-2.0040528253238E-01 -2.0040723041055E-01 -2.0041351255539E-01 -2.0042412949706E-01 -2.0043908213193E-01 -2.0045837172281E-01 -2.0048199989924E-01 -2.0050996865820E-01 -2.0054228036464E-01 -2.0057893775237E-01 
-1.6672260832558E+00 -3.3345786729837E+00 -3.3349867044052E+00 -3.3356763984080E+00 -3.3366479876841E+00 -3.3379018001603E+00 -3.3394382592242E+00 -3.3412578840374E+00 -3.3433612899025E+00 -1.6728745943548E+00 
 1.4705140506220E-07  1.2977112729832E-07  1.1248885196355E-07  9.5203026743284E-08  7.7912135407473E-08  6.0614776810474E-08  4.3309439805093E-08  2.5994680052616E-08  8.6690192011614E-09  8.6690192011614E-09 
 3.0043809089120E+01  2.6709302380605E+01  2.3374535603196E+01  2.0039220786893E+01  1.6703074653111E+01  1.3365815717705E+01  1.0027162986619E+01  6.6868312991914E+00  3.3445386588332E+00  0.0000000000000E+00 
 0.0000000000000E+00  3.3344992518756E+00  6.6692657529149E+00  1.0004581075600E+01  1.3340726977780E+01  1.6677985497670E+01  2.0016639048855E+01  2.3356970515465E+01  2.6699263348892E+01  3.0043810171614E+01 
 1.6672260832558E-08  3.3345786729837E-08  3.3349867044052E-08  3.3356763984080E-08  3.3366479876841E-08  3.3379018001603E-08  3.3394382592242E-08  3.3412578840374E-08  3.3433612899025E-08  1.6728745943548E-08 
 5.2083019618617E+03  1.0416603923723E+04  1.0416603923723E+04  1.0416603923723E+04  1.0416603923723E+04  1.0416603923723E+04  1.0416603923723E+04  1.0416603923723E+04  1.0416603923723E+04  5.2083019618618E+03 
 3.5416453340530E+04  7.0832906681059E+04  7.0832906681059E+04  7.0832906681059E+04  7.0832906681059E+04  7.0832906681059E+04  7.0832906681059E+04  7.0832906681059E+04  7.0832906681059E+04  3.5416453340530E+04 
 4.0624755302391E+04  8.1249510604782E+04  8.1249510604783E+04  8.1249510604782E+04  8.1249510604783E+04  8.1249510604783E+04  8.1249510604782E+04  8.1249510604783E+04  8.1249510604782E+04  4.0624755302391E+04 
 3.5000000000000E-01  3.5000000000000E-01  3.5000000000000E-01  3.5000000000000E-01  3.5000000000000E-01  3.5000000000000E-01  3.5000000000000E-01  3.5000000000000E-01  3.5000000000000E-01  3.5000000000000E-01 
 6.6040000000001E+00  1.3208000000000E+01  1.3208000000000E+01  1.3208000000000E+01  1.3208000000000E+01  1.3208000000000E+01  1.3208000000000E+01  1.3208000000000E+01  1.3208000000000E+01  6.6040000000001E+00 
-2.5245700836702E-01 -2.5246658638580E-01 -2.5249747913425E-01 -2.5254969703271E-01 -2.5262325769867E-01 -2.5271818596005E-01 -2.5283451387222E-01 -2.5297228074178E-01 -2.5313153315434E-01 -2.5331232500830E-01 
 3.3866666666667E-05  6.7733333333333E-05  6.7733333333334E-05  6.7733333333333E-05  6.7733333333334E-05  6.7733333333334E-05  6.7733333333333E-05  6.7733333333334E-05  6.7733333333333E-05  3.3866666666667E-05 
 1.9126857953561E+01  1.9126857953561E+01  1.9126857953561E+01  1.9126857953561E+01  1.9126857953561E+01  1.9126857953561E+01  1.9126857953561E+01  1.9126857953561E+01  1.9126857953561E+01  1.9126857953561E+01 
 1.2751238635699E+01  1.2751238635699E+01  1.2751238635699E+01  1.2751238635699E+01  1.2751238635699E+01  1.2751238635699E+01  1.2751238635699E+01  1.2751238635699E+01  1.2751238635699E+01  1.2751238635699E+01 
 1.3976736569642E-09  3.4235245849205E-09  9.6096575813854E-09  2.0066058117388E-08  3.4796258308052E-08  5.3805235836569E-08  7.7099417575619E-08  1.0468668396151E-07  1.3657637494615E-07  1.5359808547860E-07 
 1.3976736569642E-01  3.4235245849205E-01  9.6096575813854E-01  2.0066058117388E+00  3.4796258308052E+00  5.3805235836569E+00  7.7099417575619E+00  1.0468668396151E+01  1.3657637494615E+01  1.5359808547860E+01 
 8.6725993995479E-02  7.7133526559566E-02  5.9145216053402E-02  4.3550055117001E-02  3.0348209108138E-02  1.9540655880223E-02  1.1129192243855E-02  5.1164123207499E-03  1.5057383820582E-03  3.0140581530592E-04 
 5.3041371700940E-02  2.6521893193249E-01  9.0182054208514E-01  1.9630557566218E+00  3.4492776216971E+00  5.3609829277767E+00  7.6988125653181E+00  1.0463551983830E+01  1.3656131756233E+01  1.5359507142045E+01 
 0.0000000000000E+00  0.0000000000000E+00  0.0000000000000E+00  0.0000000000000E+00  0.0000000000000E+00  0.0000000000000E+00  0.0000000000000E+00  0.0000000000000E+00  0.0000000000000E+00  0.0000000000000E+00 
 0.0000000000000E+00  0.0000000000000E+00  0.0000000000000E+00  0.0000000000000E+00  0.0000000000000E+00  0.0000000000000E+00  0.0000000000000E+00  0.0000000000000E+00  0.0000000000000E+00  0.0000000000000E+00 
 0.0000000000000E+00  0.0000000000000E+00  0.0000000000000E+00  0.0000000000000E+00  0.0000000000000E+00  0.0000000000000E+00  0.0000000000000E+00  0.0000000000000E+00  0.0000000000000E+00  0.0000000000000E+00 
ZONE T = "CATH, 2.0000E-08", I = 10, SOLUTIONTIME = 2.000000E-08
ZONETYPE = ORDERED
DATAPACKING = BLOCK
STRANDID = 3
 1.2700000000000E-03  1.3377333333333E-03  1.4054666666667E-03  1.4732000000000E-03  1.5409333333333E-03  1.6086666666667E-03  1.6764000000000E-03  1.7441333333333E-03  1.8118666666667E-03  1.8796000000000E-03 
 1.9701699892360E-08  1.7386148274790E-08  1.5069586900895E-08  1.2752546596973E-08  1.0435558027734E-08  8.1180620069859E-09  5.7991358467965E-09  3.4782197064433E-09  1.1565693565605E-09 -5.0849081889650E-12 
 9.2000000000063E-01  9.2000000000180E-01  9.2000000000180E-01  9.2000000000180E-01  9.2000000000180E-01  9.2000000000180E-01  9.2000000000180E-01  9.2000000000180E-01  9.2000000000180E-01  9.2000000000180E-01 
 3.9999999999683E-02  3.9999999999101E-02  3.9999999999101E-02  3.9999999999101E-02  3.9999999999101E-02  3.9999999999100E-02  3.9999999999100E-02  3.9999999999100E-02  3.9999999999099E-02  3.9999999999098E-02 
 3.9999999999683E-02  3.9999999999101E-02  3.9999999999101E-02  3.9999999999101E-02  3.9999999999101E-02  3.9999999999100E-02  3.9999999999100E-02  3.9999999999100E-02  3.9999999999099E-02  3.9999999999098E-02 
 2.9165655457870E-02  2.9165448446690E-02  2.9165265761611E-02  2.9165107405610E-02  2.9164973383719E-02  2.9164863703026E-02  2.9164778372678E-02  2.9164717403882E-02  2.9164680809914E-02  2.9164668606117E-02 
 3.8001746429253E+00  3.8001724880263E+00  3.8001660231657E+00  3.8001552478163E+00  3.8001401610865E+00  3.8001207617205E+00  3.8000970480979E+00  3.8000690182326E+00  3.8000366697729E+00  3.8000000000000E+00 
 3.7710089874674E+00  3.7710070395796E+00  3.7710007574041E+00  3.7709901404107E+00  3.7709751877028E+00  3.7709558980175E+00  3.7709322697252E+00  3.7709043008288E+00  3.7708719889630E+00  3.7708353313939E+00 
 3.9714142713285E+00  3.9714142713281E+00  3.9714142713281E+00  3.9714142713281E+00  3.9714142713281E+00  3.9714142713281E+00  3.9714142713281E+00  3.9714142713281E+00  3.9714142713281E+00  3.9714142713281E+00 
-2.0040528386107E-01 -2.0040723174853E-01 -2.0041351392398E-01 -2.0042413091743E-01 -2.0043908362534E-01 -2.0045837331058E-01 -2.0048200160288E-01 -2.0050997049934E-01 -2.0054228236510E-01 -2.0057893993421E-01 
-1.6672261263977E+00 -3.3345787598614E+00 -3.3349867932819E+00 -3.3356764906668E+00 -3.3366480847165E+00 -3.3379019033642E+00 -3.3394383700115E+00 -3.3412580038326E+00 -3.3433614201480E+00 -1.6728746654336E+00 
 1.4705227082829E-07  1.2977176978568E-07  1.1248941938522E-07  9.5203494878553E-08  7.7912535436937E-08  6.0615078549235E-08  4.3309659468528E-08  2.5994810815280E-08  8.6690619744900E-09  8.6690619744900E-09 
 3.0043950617817E+01  2.6709435111546E+01  2.3374652334710E+01  2.0039320692701E+01  1.6703158405215E+01  1.3365883411222E+01  1.0027213274454E+01  6.6868650873342E+00  3.3445553756300E+00  0.0000000000000E+00 
 0.0000000000000E+00  3.3345155063300E+00  6.6692982829543E+00  1.0004629924860E+01  1.3340792212573E+01  1.6678067206642E+01  2.0016737343328E+01  2.3357085530298E+01  2.6699395242135E+01  3.0043950617573E+01 
 3.3344522096535E-08  6.6691574328450E-08  6.6699734976870E-08  6.6713528890748E-08  6.6732960724006E-08  6.6758037035246E-08  6.6788766292357E-08  6.6825158878701E-08  6.6867227100506E-08  3.3457492597884E-08 
 5.2083019618784E+03  1.0416603923757E+04  1.0416603923757E+04  1.0416603923757E+04  1.0416603923757E+04  1.0416603923757E+04  1.0416603923757E+04  1.0416603923757E+04  1.0416603923757E+04  5.2083019618785E+03 
 3.5416453340513E+04  7.0832906681025E+04  7.0832906681026E+04  7.0832906681025E+04  7.0832906681026E+04  7.0832906681026E+04  7.0832906681025E+04  7.0832906681026E+04  7.0832906681025E+04  3.5416453340513E+04 
 4.0624755302391E+04  8.1249510604782E+04  8.1249510604783E+04  8.1249510604782E+04  8.1249510604783E+04  8.1249510604783E+04  8.1249510604782E+04  8.1249510604783E+04  8.1249510604782E+04  4.0624755302391E+04 
 3.5000000000000E-01  3.5000000000000E-01  3.5000000000000E-01  3.5000000000000E-01  3.5000000000000E-01  3.5000000000000E-01  3.5000000000000E-01  3.5000000000000E-01  3.5000000000000E-01  3.5000000000000E-01 
 6.6040000000001E+00  1.3208000000000E+01  1.3208000000000E+01  1.3208000000000E+01  1.3208000000000E+01  1.3208000000000E+01  1.3208000000000E+01  1.3208000000000E+01  1.3208000000000E+01  6.6040000000001E+00 
-2.5245701489970E-01 -2.5246659296346E-01 -2.5249748586325E-01 -2.5254970401777E-01 -2.5262326504516E-01 -2.5271819377378E-01 -2.5283452226010E-01 -2.5297228981167E-01 -2.5313154301544E-01 -2.5331233577128E-01 
 3.3866666666667E-05  6.7733333333333E-05  6.7733333333334E-05  6.7733333333333E-05  6.7733333333334E-05  6.7733333333334E-05  6.7733333333333E-05  6.7733333333334E-05  6.7733333333333E-05  3.3866666666667E-05 
 1.9126857953566E+01  1.9126857953566E+01  1.9126857953566E+01  1.9126857953566E+01  1.9126857953566E+01  1.9126857953566E+01  1.9126857953566E+01  1.9126857953566E+01  1.9126857953566E+01  1.9126857953566E+01 
 1.2751238635694E+01  1.2751238635694E+01  1.2751238635694E+01  1.2751238635694E+01  1.2751238635694E+01  1.2751238635694E+01  1.2751238635694E+01  1.2751238635694E+01  1.2751238635694E+01  1.2751238635694E+01 
 2.7953611319902E-09  6.8470826961845E-09  1.9219409049002E-08  4.0132312300969E-08  6.9592857020850E-08  1.0761099900363E-07  1.5419959246860E-07  2.0937439904806E-07  2.7315409940371E-07  3.0719769091861E-07 
 1.3976874750260E-01  3.4235581112640E-01  9.6097514676169E-01  2.0066254183581E+00  3.4796598712798E+00  5.3805763167064E+00  7.7100174892981E+00  1.0468771508655E+01  1.3657772445756E+01  1.5359960544001E+01 
 8.6726858829366E-02  7.7134293355374E-02  5.9145806404481E-02  4.3550489812152E-02  3.0348512807439E-02  1.9540854186513E-02  1.1129303710362E-02  5.1164640765133E-03  1.5057534832132E-03  3.0140877925135E-04 
 5.3041888673234E-02  2.6522151777102E-01  9.0182934035721E-01  1.9630749285460E+00  3.4493113584724E+00  5.3610354625199E+00  7.6988881855877E+00  1.0463655044579E+01  1.3656266692272E+01  1.5359659135222E+01 
 0.0000000000000E+00  0.0000000000000E+00  0.0000000000000E+00  0.0000000000000E+00  0.0000000000000E+00  0.0000000000000E+00  0.0000000000000E+00  0.0000000000000E+00  0.0000000000000E+00  0.0000000000000E+00 
 0.0000000000000E+00  0.0000000000000E+00  0.0000000000000E+00  0.0000000000000E+00  0.0000000000000E+00  0.0000000000000E+00  0.0000000000000E+00  0.0000000000000E+00  0.0000000000000E+00  0.0000000000000E+00 
 0.0000000000000E+00  0.0000000000000E+00  0.0000000000000E+00  0.0000000000000E+00  0.0000000000000E+00  0.0000000000000E+00  0.0000000000000E+00  0.0000000000000E+00  0.0000000000000E+00  0.0000000000000E+00 
ZONE T = "CATH, 3.0000E-08", I = 10, SOLUTIONTIME = 3.000000E-08
ZONETYPE = ORDERED
DATAPACKING = BLOCK
STRANDID = 3
 1.2700000000000E-03  1.3377333333333E-03  1.4054666666667E-03  1.4732000000000E-03  1.5409333333333E-03  1.6086666666667E-03  1.6764000000000E-03  1.7441333333333E-03  1.8118666666667E-03  1.8796000000000E-03 
 1.9708964046505E-08  1.7393412428984E-08  1.5078303886048E-08  1.2762716413085E-08  1.0445727843894E-08  8.1275054077387E-09  5.8085792475977E-09  3.4883895227484E-09  1.1667391729141E-09  5.0849081889477E-12 
 9.2000000000095E-01  9.2000000000270E-01  9.2000000000270E-01  9.2000000000270E-01  9.2000000000270E-01  9.2000000000270E-01  9.2000000000270E-01  9.2000000000270E-01  9.2000000000270E-01  9.2000000000270E-01 
 3.9999999999524E-02  3.9999999998652E-02  3.9999999998652E-02  3.9999999998652E-02  3.9999999998651E-02  3.9999999998651E-02  3.9999999998650E-02  3.9999999998649E-02  3.9999999998649E-02  3.9999999998648E-02 
 3.9999999999524E-02  3.9999999998652E-02  3.9999999998652E-02  3.9999999998652E-02  3.9999999998651E-02  3.9999999998651E-02  3.9999999998650E-02  3.9999999998649E-02  3.9999999998649E-02  3.9999999998648E-02 
 2.9165655457506E-02  2.9165448446326E-02  2.9165265761247E-02  2.9165107405246E-02  2.9164973383356E-02  2.9164863702662E-02  2.9164778372314E-02  2.9164717403518E-02  2.9164680809550E-02  2.9164668605754E-02 
 3.8001746429253E+00  3.8001724880263E+00  3.8001660231657E+00  3.8001552478163E+00  3.8001401610865E+00  3.8001207617205E+00  3.8000970480979E+00  3.8000690182326E+00  3.8000366697729E+00  3.8000000000000E+00 
 3.7710089874678E+00  3.7710070395799E+00  3.7710007574045E+00  3.7709901404110E+00  3.7709751877031E+00  3.7709558980179E+00  3.7709322697256E+00  3.7709043008291E+00  3.7708719889633E+00  3.7708353313942E+00 
 3.9714142713283E+00  3.9714142713277E+00  3.9714142713277E+00  3.9714142713277E+00  3.9714142713277E+00  3.9714142713277E+00  3.9714142713277E+00  3.9714142713277E+00  3.9714142713277E+00  3.9714142713277E+00 
-2.0040528386050E-01 -2.0040723174777E-01 -2.0041351392323E-01 -2.0042413091667E-01 -2.0043908362458E-01 -2.0045837330983E-01 -2.0048200160212E-01 -2.0050997049858E-01 -2.0054228236434E-01 -2.0057893993344E-01 
-1.6672261263751E+00 -3.3345787597920E+00 -3.3349867932125E+00 -3.3356764905974E+00 -3.3366480846470E+00 -3.3379019032947E+00 -3.3394383699418E+00 -3.3412580037629E+00 -3.3433614200781E+00 -1.6728746653986E+00 
 1.4705240339855E-07  1.2977176980999E-07  1.1248941943125E-07  9.5203494934414E-08  7.7912535512045E-08  6.0615078641577E-08  4.3309659578092E-08  2.5994810947006E-08  8.6690621209844E-09  8.6690621209844E-09 
 3.0043950617103E+01  2.6709435110822E+01  2.3374652334448E+01  2.0039320692475E+01  1.6703158404790E+01  1.3365883410834E+01  1.0027213274103E+01  6.6868650874967E+00  3.3445553755924E+00  0.0000000000000E+00 
 0.0000000000000E+00  3.3345155063300E+00  6.6692982827825E+00  1.0004629924689E+01  1.3340792212230E+01  1.6678067206298E+01  2.0016737342985E+01  2.3357085529610E+01  2.6699395241619E+01  3.0043950617195E+01 
 5.0016783360286E-08  1.0003736192637E-07  1.0004960290899E-07  1.0007029379672E-07  1.0009944157048E-07  1.0013705606819E-07  1.0018314999178E-07  1.0023773891633E-07  1.0030084130129E-07  5.0186239251870E-08 
 5.2083019618950E+03  1.0416603923790E+04  1.0416603923790E+04  1.0416603923790E+04  1.0416603923790E+04  1.0416603923790E+04  1.0416603923790E+04  1.0416603923790E+04  1.0416603923790E+04  5.2083019618952E+03 
 3.5416453340496E+04  7.0832906680992E+04  7.0832906680993E+04  7.0832906680992E+04  7.0832906680992E+04  7.0832906680992E+04  7.0832906680992E+04  7.0832906680992E+04  7.0832906680992E+04  3.5416453340496E+04 
 4.0624755302391E+04  8.1249510604782E+04  8.1249510604783E+04  8.1249510604782E+04  8.1249510604783E+04  8.1249510604783E+04  8.1249510604782E+04  8.1249510604783E+04  8.1249510604782E+04  4.0624755302391E+04 
 3.5000000000000E-01  3.5000000000000E-01  3.5000000000000E-01  3.5000000000000E-01  3.5000000000000E-01  3.5000000000000E-01  3.5000000000000E-01  3.5000000000000E-01  3.5000000000000E-01  3.5000000000000E-01 
 6.6040000000002E+00  1.3208000000000E+01  1.3208000000000E+01  1.3208000000000E+01  1.3208000000000E+01  1.3208000000000E+01  1.3208000000000E+01  1.3208000000000E+01  1.3208000000000E+01  6.6040000000002E+00 
-2.5245701489628E-01 -2.5246659295820E-01 -2.5249748585799E-01 -2.5254970401251E-01 -2.5262326503990E-01 -2.5271819376852E-01 -2.5283452225483E-01 -2.5297228980639E-01 -2.5313154301015E-01 -2.5331233576598E-01 
 3.3866666666667E-05  6.7733333333333E-05  6.7733333333334E-05  6.7733333333333E-05  6.7733333333334E-05  6.7733333333334E-05  6.7733333333333E-05  6.7733333333334E-05  6.7733333333333E-05  3.3866666666667E-05 
 1.9126857953571E+01  1.9126857953571E+01  1.9126857953571E+01  1.9126857953571E+01  1.9126857953571E+01  1.9126857953571E+01  1.9126857953571E+01  1.9126857953571E+01  1.9126857953571E+01  1.9126857953571E+01 
 1.2751238635688E+01  1.2751238635688E+01  1.2751238635688E+01  1.2751238635688E+01  1.2751238635688E+01  1.2751238635688E+01  1.2751238635688E+01  1.2751238635688E+01  1.2751238635688E+01  1.2751238635688E+01 
 4.1930486069805E-09  1.0270640807414E-08  2.8829160516064E-08  6.0198566484001E-08  1.0438945573167E-07  1.6141676216872E-07  2.3129976735873E-07  3.1406211412849E-07  4.0973182385612E-07  4.6079729635489E-07 
 1.3976874749903E-01  3.4235581112295E-01  9.6097514670619E-01  2.0066254183031E+00  3.4796598710817E+00  5.3805763165088E+00  7.7100174890130E+00  1.0468771508043E+01  1.3657772445242E+01  1.5359960543629E+01 
 8.6726858825800E-02  7.7134293351929E-02  5.9145806403646E-02  4.3550489811834E-02  3.0348512806156E-02  1.9540854185695E-02  1.1129303709637E-02  5.1164640767127E-03  1.5057534833675E-03  3.0140877907657E-04 
 5.3041888673234E-02  2.6522151777102E-01  9.0182934030255E-01  1.9630749284913E+00  3.4493113582756E+00  5.3610354623231E+00  7.6988881853033E+00  1.0463655043966E+01  1.3656266691758E+01  1.5359659134850E+01 
 0.0000000000000E+00  0.0000000000000E+00  0.0000000000000E+00  0.0000000000000E+00  0.0000000000000E+00  0.0000000000000E+00  0.0000000000000E+00  0.0000000000000E+00  0.0000000000000E+00  0.0000000000000E+00 
 0.0000000000000E+00  0.0000000000000E+00  0.0000000000000E+00  0.0000000000000E+00  0.0000000000000E+00  0.0000000000000E+00  0.0000000000000E+00  0.0000000000000E+00  0.0000000000000E+00  0.0000000000000E+00 
 0.0000000000000E+00  0.0000000000000E+00  0.0000000000000E+00  0.0000000000000E+00  0.0000000000000E+00  0.0000000000000E+00  0.0000000000000E+00  0.0000000000000E+00  0.0000000000000E+00  0.0000000000000E+00 
ZONE T = "CATH, 4.0000E-08", I = 10, SOLUTIONTIME = 4.000000E-08
ZONETYPE = ORDERED
DATAPACKING = BLOCK
STRANDID = 3
 1.2700000000000E-03  1.3377333333333E-03  1.4054666666667E-03  1.4732000000000E-03  1.5409333333333E-03  1.6086666666667E-03  1.6764000000000E-03  1.7441333333333E-03  1.8118666666667E-03  1.8796000000000E-03 
 1.9703152722449E-08  1.7387601104976E-08  1.5071039731177E-08  1.2754362635079E-08  1.0437374065937E-08  8.1195148375576E-09  5.8002254697372E-09  3.4803989526643E-09  1.1594750183342E-09 -1.8160386389132E-12 
 9.2000000000127E-01  9.2000000000359E-01  9.2000000000359E-01  9.2000000000360E-01  9.2000000000360E-01  9.2000000000360E-01  9.2000000000360E-01  9.2000000000360E-01  9.2000000000360E-01  9.2000000000361E-01 
 3.9999999999365E-02  3.9999999998203E-02  3.9999999998203E-02  3.9999999998202E-02  3.9999999998202E-02  3.9999999998201E-02  3.9999999998200E-02  3.9999999998199E-02  3.9999999998198E-02  3.9999999998197E-02 
 3.9999999999365E-02  3.9999999998203E-02  3.9999999998203E-02  3.9999999998202E-02  3.9999999998202E-02  3.9999999998201E-02  3.9999999998200E-02  3.9999999998199E-02  3.9999999998198E-02  3.9999999998197E-02 
 2.9165655457141E-02  2.9165448445960E-02  2.9165265760881E-02  2.9165107404881E-02  2.9164973382990E-02  2.9164863702297E-02  2.9164778371948E-02  2.9164717403153E-02  2.9164680809184E-02  2.9164668605388E-02 
 3.8001746429253E+00  3.8001724880262E+00  3.8001660231657E+00  3.8001552478163E+00  3.8001401610865E+00  3.8001207617205E+00  3.8000970480979E+00  3.8000690182326E+00  3.8000366697729E+00  3.8000000000000E+00 
 3.7710089874681E+00  3.7710070395803E+00  3.7710007574048E+00  3.7709901404114E+00  3.7709751877035E+00  3.7709558980182E+00  3.7709322697259E+00  3.7709043008295E+00  3.7708719889637E+00  3.7708353313946E+00 
 3.9714142713280E+00  3.9714142713273E+00  3.9714142713273E+00  3.9714142713273E+00  3.9714142713273E+00  3.9714142713273E+00  3.9714142713273E+00  3.9714142713273E+00  3.9714142713273E+00  3.9714142713273E+00 
-2.0040528385993E-01 -2.0040723174701E-01 -2.0041351392247E-01 -2.0042413091591E-01 -2.0043908362382E-01 -2.0045837330906E-01 -2.0048200160136E-01 -2.0050997049781E-01 -2.0054228236358E-01 -2.0057893993268E-01 
-1.6672261263524E+00 -3.3345787597225E+00 -3.3349867931429E+00 -3.3356764905278E+00 -3.3366480845775E+00 -3.3379019032250E+00 -3.3394383698721E+00 -3.3412580036930E+00 -3.3433614200081E+00 -1.6728746653635E+00 