TITLE = "Solution on Domain BulkDomain1D_0"
VARIABLES = "x [m]"  
"Vel_axial" 
"MF_sp(ECDMC)" 
"MF_sp(Li+)" 
"MF_sp(PF6-)" 
"Volt(Electroly)" 
"Volt(AnodeVolt)" 
"Potential Drop Electrode-Electrolyte [V]" 
"Surf_0 Equilibrium Potential Drop Electrode-Electrolyte [V]" 
"Overpotential_0 [V]" 
"Current Source [A/m^2]" 
"Li+ flux [kmol/m^2/s]" 
"Electrolyte Current [A/m^2]" 
"Electrode Current [A/m^2]" 
"CV Capacity discharged [A-s/m^2]" 
"Depth of discharge in CV [A-s/m^2]" 
"CV Capacity remaining [A-s/m^2]" 
"Initial CV capacity [A-s/m^2]" 
"Porosity []" 
"Surface Area [m2/m2] (area per area)" 
"Specific current (per particle area) [A/m^2]" 
"Control volume thickness [m]" 
"MoleDens Li_C6-bulk [kmol/m^3]" 
"MoleDens V_C6-bulk [kmol/m^3]" 
"qHeat_accum [J/m3]" 
"qHeat_step [W/m3]" 
"Joule_Lyte [W/m3]" 
"Joule_Solid [W/m3]" 
"electrodHeat [W/m3]" 
"OverpotHeat [W/m3]" 
"deltaSHeat [W/m3]" 

ZONE T = "ANOD, 0.0000E+00", I = 10, SOLUTIONTIME = 0.000000E+00
ZONETYPE = ORDERED
DATAPACKING = BLOCK
STRANDID = 1
 0.0000000000000E+00  8.7488888888889E-05  1.7497777777778E-04  2.6246666666667E-04  3.4995555555556E-04  4.3744444444444E-04  5.2493333333333E-04  6.1242222222222E-04  6.9991111111111E-04  7.8740000000000E-04 
 0.0000000000000E+00  0.0000000000000E+00  0.0000000000000E+00  0.0000000000000E+00  0.0000000000000E+00  0.0000000000000E+00  0.0000000000000E+00  0.0000000000000E+00  0.0000000000000E+00  0.0000000000000E+00 
 9.2000000000000E-01  9.2000000000000E-01  9.2000000000000E-01  9.2000000000000E-01  9.2000000000000E-01  9.2000000000000E-01  9.2000000000000E-01  9.2000000000000E-01  9.2000000000000E-01  9.2000000000000E-01 
 4.0000000000000E-02  4.0000000000000E-02  4.0000000000000E-02  4.0000000000000E-02  4.0000000000000E-02  4.0000000000000E-02  4.0000000000000E-02  4.0000000000000E-02  4.0000000000000E-02  4.0000000000000E-02 
 4.0000000000000E-02  4.0000000000000E-02  4.0000000000000E-02  4.0000000000000E-02  4.0000000000000E-02  4.0000000000000E-02  4.0000000000000E-02  4.0000000000000E-02  4.0000000000000E-02  4.0000000000000E-02 
-7.0000000000000E-02 -7.0000000000000E-02 -7.0000000000000E-02 -7.0000000000000E-02 -7.0000000000000E-02 -7.0000000000000E-02 -7.0000000000000E-02 -7.0000000000000E-02 -7.0000000000000E-02 -7.0000000000000E-02 
 0.0000000000000E+00  0.0000000000000E+00  0.0000000000000E+00  0.0000000000000E+00  0.0000000000000E+00  0.0000000000000E+00  0.0000000000000E+00  0.0000000000000E+00  0.0000000000000E+00  0.0000000000000E+00 
 7.0000000000000E-02  7.0000000000000E-02  7.0000000000000E-02  7.0000000000000E-02  7.0000000000000E-02  7.0000000000000E-02  7.0000000000000E-02  7.0000000000000E-02  7.0000000000000E-02  7.0000000000000E-02 
-4.0906712753391E-02 -4.0906712753391E-02 -4.0906712753391E-02 -4.0906712753391E-02 -4.0906712753391E-02 -4.0906712753391E-02 -4.0906712753391E-02 -4.0906712753391E-02 -4.0906712753391E-02 -4.0906712753391E-02 
 1.1090671275339E-01  1.1090671275339E-01  1.1090671275339E-01  1.1090671275339E-01  1.1090671275339E-01  1.1090671275339E-01  1.1090671275339E-01  1.1090671275339E-01  1.1090671275339E-01  1.1090671275339E-01 
 3.0930240924008E+01  6.1860481848017E+01  6.1860481848017E+01  6.1860481848017E+01  6.1860481848017E+01  6.1860481848017E+01  6.1860481848017E+01  6.1860481848017E+01  6.1860481848017E+01  3.0930240924008E+01 
-0.0000000000000E+00 -0.0000000000000E+00 -0.0000000000000E+00 -0.0000000000000E+00 -0.0000000000000E+00 -0.0000000000000E+00 -0.0000000000000E+00 -0.0000000000000E+00 -0.0000000000000E+00 -0.0000000000000E+00 
 0.0000000000000E+00  0.0000000000000E+00  0.0000000000000E+00  0.0000000000000E+00  0.0000000000000E+00  0.0000000000000E+00  0.0000000000000E+00  0.0000000000000E+00  0.0000000000000E+00  3.0930240924008E+01 
 3.0930240924008E+01 -0.0000000000000E+00 -0.0000000000000E+00 -0.0000000000000E+00 -0.0000000000000E+00 -0.0000000000000E+00 -0.0000000000000E+00 -0.0000000000000E+00 -0.0000000000000E+00  0.0000000000000E+00 
 0.0000000000000E+00  0.0000000000000E+00  0.0000000000000E+00  0.0000000000000E+00  0.0000000000000E+00  0.0000000000000E+00  0.0000000000000E+00  0.0000000000000E+00  0.0000000000000E+00  0.0000000000000E+00 
 7.0592160225764E+03  1.4118432045153E+04  1.4118432045153E+04  1.4118432045153E+04  1.4118432045153E+04  1.4118432045153E+04  1.4118432045153E+04  1.4118432045153E+04  1.4118432045153E+04  7.0592160225764E+03 
 5.2238198567065E+04  1.0447639713413E+05  1.0447639713413E+05  1.0447639713413E+05  1.0447639713413E+05  1.0447639713413E+05  1.0447639713413E+05  1.0447639713413E+05  1.0447639713413E+05  5.2238198567065E+04 
 5.9297414589642E+04  1.1859482917928E+05  1.1859482917928E+05  1.1859482917928E+05  1.1859482917928E+05  1.1859482917928E+05  1.1859482917928E+05  1.1859482917928E+05  1.1859482917928E+05  5.9297414589642E+04 
 3.5000000000000E-01  3.5000000000000E-01  3.5000000000000E-01  3.5000000000000E-01  3.5000000000000E-01  3.5000000000000E-01  3.5000000000000E-01  3.5000000000000E-01  3.5000000000000E-01  3.5000000000000E-01 
 8.5301666666667E+00  1.7060333333333E+01  1.7060333333333E+01  1.7060333333333E+01  1.7060333333333E+01  1.7060333333333E+01  1.7060333333333E+01  1.7060333333333E+01  1.7060333333333E+01  8.5301666666667E+00 
 3.6259831879809E+00  3.6259831879809E+00  3.6259831879809E+00  3.6259831879809E+00  3.6259831879809E+00  3.6259831879809E+00  3.6259831879809E+00  3.6259831879809E+00  3.6259831879809E+00  3.6259831879809E+00 
 4.3744444444444E-05  8.7488888888889E-05  8.7488888888889E-05  8.7488888888889E-05  8.7488888888889E-05  8.7488888888889E-05  8.7488888888889E-05  8.7488888888889E-05  8.7488888888889E-05  4.3744444444444E-05 
 1.3380188695655E+01  1.3380188695655E+01  1.3380188695655E+01  1.3380188695655E+01  1.3380188695655E+01  1.3380188695655E+01  1.3380188695655E+01  1.3380188695655E+01  1.3380188695655E+01  1.3380188695655E+01 
 3.3450471739137E+00  3.3450471739137E+00  3.3450471739137E+00  3.3450471739137E+00  3.3450471739137E+00  3.3450471739137E+00  3.3450471739137E+00  3.3450471739137E+00  3.3450471739137E+00  3.3450471739137E+00 
 0.0000000000000E+00  0.0000000000000E+00  0.0000000000000E+00  0.0000000000000E+00  0.0000000000000E+00  0.0000000000000E+00  0.0000000000000E+00  0.0000000000000E+00  0.0000000000000E+00  0.0000000000000E+00 
 0.0000000000000E+00  0.0000000000000E+00  0.0000000000000E+00  0.0000000000000E+00  0.0000000000000E+00  0.0000000000000E+00  0.0000000000000E+00  0.0000000000000E+00  0.0000000000000E+00  0.0000000000000E+00 
 0.0000000000000E+00  0.0000000000000E+00  0.0000000000000E+00  0.0000000000000E+00  0.0000000000000E+00  0.0000000000000E+00  0.0000000000000E+00  0.0000000000000E+00  0.0000000000000E+00  0.0000000000000E+00 
 0.0000000000000E+00  0.0000000000000E+00  0.0000000000000E+00  0.0000000000000E+00  0.0000000000000E+00  0.0000000000000E+00  0.0000000000000E+00  0.0000000000000E+00  0.0000000000000E+00  0.0000000000000E+00 
 0.0000000000000E+00  0.0000000000000E+00  0.0000000000000E+00  0.0000000000000E+00  0.0000000000000E+00  0.0000000000000E+00  0.0000000000000E+00  0.0000000000000E+00  0.0000000000000E+00  0.0000000000000E+00 
 0.0000000000000E+00  0.0000000000000E+00  0.0000000000000E+00  0.0000000000000E+00  0.0000000000000E+00  0.0000000000000E+00  0.0000000000000E+00  0.0000000000000E+00  0.0000000000000E+00  0.0000000000000E+00 
 0.0000000000000E+00  0.0000000000000E+00  0.0000000000000E+00  0.0000000000000E+00  0.0000000000000E+00  0.0000000000000E+00  0.0000000000000E+00  0.0000000000000E+00  0.0000000000000E+00  0.0000000000000E+00 
ZONE T = "ANOD, 1.0000E-08", I = 10, SOLUTIONTIME = 1.000000E-08
ZONETYPE = ORDERED
DATAPACKING = BLOCK
STRANDID = 1
 0.0000000000000E+00  8.7488888888889E-05  1.7497777777778E-04  2.6246666666667E-04  3.4995555555556E-04  4.3744444444444E-04  5.2493333333333E-04  6.1242222222222E-04  6.9991111111111E-04  7.8740000000000E-04 
 1.1577512892130E-09  3.4725296568614E-09  5.7880430602081E-09  8.1035714993854E-09  1.0418394974573E-08  1.2734335940120E-08  1.5050311188634E-08  1.7366327136018E-08  1.9682390198306E-08  2.0839722079537E-08 
 9.1999999999930E-01  9.1999999999930E-01  9.1999999999930E-01  9.1999999999930E-01  9.1999999999930E-01  9.1999999999930E-01  9.1999999999930E-01  9.1999999999930E-01  9.1999999999930E-01  9.1999999999971E-01 
 4.0000000000348E-02  4.0000000000348E-02  4.0000000000348E-02  4.0000000000348E-02  4.0000000000348E-02  4.0000000000348E-02  4.0000000000348E-02  4.0000000000348E-02  4.0000000000348E-02  4.0000000000144E-02 
 4.0000000000348E-02  4.0000000000348E-02  4.0000000000348E-02  4.0000000000348E-02  4.0000000000348E-02  4.0000000000348E-02  4.0000000000348E-02  4.0000000000348E-02  4.0000000000348E-02  4.0000000000144E-02 
 2.9182258995790E-02  2.9182243283051E-02  2.9182196144805E-02  2.9182117580933E-02  2.9182007591233E-02  2.9181866175413E-02  2.9181693333095E-02  2.9181489063814E-02  2.9181253367017E-02  2.9180986242065E-02 
 0.0000000000000E+00 -4.7327994135066E-09 -8.9088194008259E-09 -1.2528057889485E-08 -1.5590511264581E-08 -1.8096174368765E-08 -2.0045040502230E-08 -2.1437101422688E-08 -2.2272347345345E-08 -2.2550766942866E-08 
-2.9182258995790E-02 -2.9182248015851E-02 -2.9182205053624E-02 -2.9182130108991E-02 -2.9182023181744E-02 -2.9181884271587E-02 -2.9181713378135E-02 -2.9181510500915E-02 -2.9181275639364E-02 -2.9181008792832E-02 
-4.0906712752669E-02 -4.0906712752671E-02 -4.0906712752669E-02 -4.0906712752669E-02 -4.0906712752669E-02 -4.0906712752671E-02 -4.0906712752671E-02 -4.0906712752670E-02 -4.0906712752670E-02 -4.0906712752801E-02 
 1.1724453756879E-02  1.1724464736820E-02  1.1724507699045E-02  1.1724582643678E-02  1.1724689570925E-02  1.1724828481084E-02  1.1724999374536E-02  1.1725202251755E-02  1.1725437113305E-02  1.1725703959968E-02 
 1.6668957842971E+00  3.3337947446796E+00  3.3338071720424E+00  3.3338288507238E+00  3.3338597807923E+00  3.3338999623471E+00  3.3339493955154E+00  3.3340080804550E+00  3.3340760173536E+00  1.6670766032139E+00 
 8.6412902458923E-09  2.5923887192594E-08  4.3206548470695E-08  6.0489321954768E-08  7.7772255522856E-08  9.5055397055952E-08  1.1233879443435E-07  1.2962249553350E-07  1.4690662028861E-07  1.4690662028861E-07 
 0.0000000000000E+00  3.3350327749371E+00  6.6700733445690E+00  1.0005130947469E+01  1.3340214822577E+01  1.6675334209019E+01  2.0010498345920E+01  2.3345716472957E+01  2.6680997829403E+01  3.0015732073028E+01 
 3.0015731845348E+01  2.6681318879771E+01  2.3346278310294E+01  2.0011220707503E+01  1.6676136832405E+01  1.3341017445920E+01  1.0005853308860E+01  6.6706351818894E+00  3.3353538255050E+00  0.0000000000000E+00 
 1.6668957842971E-08  3.3337947446796E-08  3.3338071720424E-08  3.3338288507238E-08  3.3338597807923E-08  3.3338999623471E-08  3.3339493955154E-08  3.3340080804550E-08  3.3340760173536E-08  1.6670766032139E-08 
 7.0592160225930E+03  1.4118432045186E+04  1.4118432045186E+04  1.4118432045186E+04  1.4118432045186E+04  1.4118432045186E+04  1.4118432045186E+04  1.4118432045186E+04  1.4118432045186E+04  7.0592160225931E+03 
 5.2238198567049E+04  1.0447639713410E+05  1.0447639713410E+05  1.0447639713410E+05  1.0447639713410E+05  1.0447639713410E+05  1.0447639713410E+05  1.0447639713410E+05  1.0447639713410E+05  5.2238198567049E+04 
 5.9297414589642E+04  1.1859482917928E+05  1.1859482917928E+05  1.1859482917928E+05  1.1859482917928E+05  1.1859482917928E+05  1.1859482917928E+05  1.1859482917928E+05  1.1859482917928E+05  5.9297414589642E+04 
 3.5000000000000E-01  3.5000000000000E-01  3.5000000000000E-01  3.5000000000000E-01  3.5000000000000E-01  3.5000000000000E-01  3.5000000000000E-01  3.5000000000000E-01  3.5000000000000E-01  3.5000000000000E-01 
 8.5301666666665E+00  1.7060333333333E+01  1.7060333333333E+01  1.7060333333333E+01  1.7060333333333E+01  1.7060333333333E+01  1.7060333333333E+01  1.7060333333333E+01  1.7060333333333E+01  8.5301666666665E+00 
 1.9541186584441E-01  1.9541205201225E-01  1.9541278044836E-01  1.9541405115515E-01  1.9541586413664E-01  1.9541821939864E-01  1.9542111694860E-01  1.9542455679579E-01  1.9542853895119E-01  1.9543306342751E-01 
 4.3744444444444E-05  8.7488888888889E-05  8.7488888888889E-05  8.7488888888889E-05  8.7488888888889E-05  8.7488888888889E-05  8.7488888888889E-05  8.7488888888889E-05  8.7488888888889E-05  4.3744444444444E-05 
 1.3380188695651E+01  1.3380188695651E+01  1.3380188695651E+01  1.3380188695651E+01  1.3380188695651E+01  1.3380188695651E+01  1.3380188695651E+01  1.3380188695651E+01  1.3380188695651E+01  1.3380188695651E+01 
 3.3450471739177E+00  3.3450471739177E+00  3.3450471739177E+00  3.3450471739177E+00  3.3450471739177E+00  3.3450471739177E+00  3.3450471739177E+00  3.3450471739177E+00  3.3450471739177E+00  3.3450471739177E+00 
 1.8330395309858E-11  2.8611642459461E-11  6.1365737143753E-11  1.1850328165026E-10  2.0002490919043E-10  3.0593152317650E-10  4.3622429723246E-10  5.9090467522670E-10  7.6997437124593E-10  8.6560677990916E-10 
 1.8330395309858E-03  2.8611642459461E-03  6.1365737143753E-03  1.1850328165026E-02  2.0002490919043E-02  3.0593152317650E-02  4.3622429723246E-02  5.9090467522670E-02  7.6997437124593E-02  8.6560677990916E-02 
 2.9948073983767E-04  1.4974054100205E-03  5.0911911385129E-03  1.1080874634858E-02  1.9466519157797E-02  3.0248214515769E-02  4.3426077067985E-02  5.9000249727675E-02  7.6970901959456E-02  8.6555370810696E-02 
 1.5335587911481E-03  1.3637588359256E-03  1.0453825758624E-03  7.6945353016861E-04  5.3597176124594E-04  3.4493780188120E-04  1.9635265526153E-04  9.0217794995038E-05  2.6535165136778E-05  5.3071802204283E-06 
 0.0000000000000E+00  0.0000000000000E+00  0.0000000000000E+00  0.0000000000000E+00  0.0000000000000E+00  0.0000000000000E+00  0.0000000000000E+00  0.0000000000000E+00  0.0000000000000E+00  0.0000000000000E+00 
 0.0000000000000E+00  0.0000000000000E+00  0.0000000000000E+00  0.0000000000000E+00  0.0000000000000E+00  0.0000000000000E+00  0.0000000000000E+00  0.0000000000000E+00  0.0000000000000E+00  0.0000000000000E+00 
 0.0000000000000E+00  0.0000000000000E+00  0.0000000000000E+00  0.0000000000000E+00  0.0000000000000E+00  0.0000000000000E+00  0.0000000000000E+00  0.0000000000000E+00  0.0000000000000E+00  0.0000000000000E+00 
ZONE T = "ANOD, 2.0000E-08", I = 10, SOLUTIONTIME = 2.000000E-08
ZONETYPE = ORDERED
DATAPACKING = BLOCK
STRANDID = 1
 0.0000000000000E+00  8.7488888888889E-05  1.7497777777778E-04  2.6246666666667E-04  3.4995555555556E-04  4.3744444444444E-04  5.2493333333333E-04  6.1242222222222E-04  6.9991111111111E-04  7.8740000000000E-04 
 1.1586129596969E-09  3.4758410866597E-09  5.7930778514585E-09  8.1103296843885E-09  1.0427239808066E-08  1.2744904276084E-08  1.5063692726674E-08  1.7382158759534E-08  1.9699582389949E-08  2.0858684238710E-08 
 9.1999999999861E-01  9.1999999999861E-01  9.1999999999861E-01  9.1999999999861E-01  9.1999999999861E-01  9.1999999999861E-01  9.1999999999861E-01  9.1999999999861E-01  9.1999999999861E-01  9.1999999999942E-01 
 4.0000000000696E-02  4.0000000000696E-02  4.0000000000696E-02  4.0000000000696E-02  4.0000000000696E-02  4.0000000000696E-02  4.0000000000696E-02  4.0000000000696E-02  4.0000000000696E-02  4.0000000000288E-02 
 4.0000000000696E-02  4.0000000000696E-02  4.0000000000696E-02  4.0000000000696E-02  4.0000000000696E-02  4.0000000000696E-02  4.0000000000696E-02  4.0000000000696E-02  4.0000000000696E-02  4.0000000000288E-02 
 2.9167671851020E-02  2.9167656124124E-02  2.9167608943407E-02  2.9167530308751E-02  2.9167420219951E-02  2.9167278676717E-02  2.9167105678669E-02  2.9166901225341E-02  2.9166665316179E-02  2.9166397950542E-02 
 0.0000000000000E+00 -4.7370637986757E-09 -8.9168465238342E-09 -1.2539346098773E-08 -1.5604558900821E-08 -1.8112479761331E-08 -2.0063101965658E-08 -2.1456417253142E-08 -2.2292415817078E-08 -2.2571086304688E-08 
-2.9167671851020E-02 -2.9167660861188E-02 -2.9167617860253E-02 -2.9167542848097E-02 -2.9167435824510E-02 -2.9167296789197E-02 -2.9167125741771E-02 -2.9166922681758E-02 -2.9166687608594E-02 -2.9166420521629E-02 
-4.0906712751947E-02 -4.0906712751949E-02 -4.0906712751947E-02 -4.0906712751947E-02 -4.0906712751950E-02 -4.0906712751947E-02 -4.0906712751947E-02 -4.0906712751949E-02 -4.0906712751949E-02 -4.0906712752211E-02 
 1.1739040900927E-02  1.1739051890761E-02  1.1739094891694E-02  1.1739169903850E-02  1.1739276927440E-02  1.1739415962751E-02  1.1739587010176E-02  1.1739790070191E-02  1.1740025143355E-02  1.1740292230583E-02 
 1.6690056084642E+00  3.3380143960781E+00  3.3380268354300E+00  3.3380485350259E+00  3.3380794949352E+00  3.3381197152542E+00  3.3381691961140E+00  3.3382279376722E+00  3.3382959401155E+00  1.6691866018455E+00 
 8.6490758754704E-09  2.5947244101970E-08  4.3245476790309E-08  6.0543821930410E-08  7.7842327498312E-08  9.5141041493502E-08  1.1244001191195E-07  1.2973928672174E-07  1.4703905810036E-07  1.4703905810036E-07 
 0.0000000000000E+00  3.3380375735038E+00  6.6760829560621E+00  1.0014145407971E+01  1.3352234189343E+01  1.6690358560107E+01  2.0028527781110E+01  2.3366751112649E+01  2.6705037815501E+01  3.0043384769234E+01 
 3.0043384766845E+01  2.6705359576864E+01  2.3367314194245E+01  2.0029251742385E+01  1.6691162961113E+01  1.3353038590172E+01  1.0014869369194E+01  6.6766460376662E+00  3.3383593349022E+00  0.0000000000000E+00 
 3.3359013927613E-08  6.6718091407577E-08  6.6718340074724E-08  6.6718773857496E-08  6.6719392757275E-08  6.6720196776013E-08  6.6721185916293E-08  6.6722360181271E-08  6.6723719574691E-08  3.3362632050594E-08 
 7.0592160226097E+03  1.4118432045220E+04  1.4118432045219E+04  1.4118432045219E+04  1.4118432045219E+04  1.4118432045219E+04  1.4118432045219E+04  1.4118432045219E+04  1.4118432045219E+04  7.0592160226097E+03 
 5.2238198567032E+04  1.0447639713406E+05  1.0447639713406E+05  1.0447639713406E+05  1.0447639713406E+05  1.0447639713406E+05  1.0447639713406E+05  1.0447639713406E+05  1.0447639713406E+05  5.2238198567032E+04 
 5.9297414589642E+04  1.1859482917928E+05  1.1859482917928E+05  1.1859482917928E+05  1.1859482917928E+05  1.1859482917928E+05  1.1859482917928E+05  1.1859482917928E+05  1.1859482917928E+05  5.9297414589642E+04 
 3.5000000000000E-01  3.5000000000000E-01  3.5000000000000E-01  3.5000000000000E-01  3.5000000000000E-01  3.5000000000000E-01  3.5000000000000E-01  3.5000000000000E-01  3.5000000000000E-01  3.5000000000000E-01 
 8.5301666666663E+00  1.7060333333333E+01  1.7060333333333E+01  1.7060333333333E+01  1.7060333333333E+01  1.7060333333333E+01  1.7060333333333E+01  1.7060333333333E+01  1.7060333333333E+01  8.5301666666663E+00 
 1.9565920264915E-01  1.9565938899659E-01  1.9566011813545E-01  1.9566139006815E-01  1.9566320479877E-01  1.9566556233296E-01  1.9566846267839E-01  1.9567190584430E-01  1.9567589184164E-01  1.9568042068489E-01 
 4.3744444444444E-05  8.7488888888889E-05  8.7488888888889E-05  8.7488888888889E-05  8.7488888888889E-05  8.7488888888889E-05  8.7488888888889E-05  8.7488888888889E-05  8.7488888888889E-05  4.3744444444444E-05 
 1.3380188695647E+01  1.3380188695647E+01  1.3380188695647E+01  1.3380188695647E+01  1.3380188695647E+01  1.3380188695647E+01  1.3380188695647E+01  1.3380188695647E+01  1.3380188695647E+01  1.3380188695647E+01 
 3.3450471739216E+00  3.3450471739216E+00  3.3450471739216E+00  3.3450471739216E+00  3.3450471739216E+00  3.3450471739216E+00  3.3450471739216E+00  3.3450471739216E+00  3.3450471739216E+00  3.3450471739216E+00 
 3.6693837614722E-11  5.7274866576594E-11  1.2284210406643E-10  2.3722019957297E-10  4.0041042146853E-10  6.1241457939284E-10  8.7323502429022E-10  1.1828746484213E-09  1.5413368853860E-09  1.7327741201096E-09 
 1.8363442304864E-03  2.8663224117133E-03  6.1476366922676E-03  1.1871691792271E-02  2.0038551227809E-02  3.0648305621634E-02  4.3701072705776E-02  5.9196997319461E-02  7.7136251414004E-02  8.6716734020042E-02 
 5.9950137508719E-04  2.9975103010243E-03  1.0191560547917E-02  2.2181725646424E-02  3.8968132308890E-02  6.0550960432135E-02  8.6930443101128E-02  1.1810686659013E-01  1.5408057036492E-01  1.7326678808137E-01 
 3.0698823863850E-03  2.7299763566351E-03  2.0926498587257E-03  1.5402943108738E-03  1.0729098379627E-03  6.9049750714940E-04  3.9305932789451E-04  1.8059825200364E-04  5.3118173679745E-05  1.0623929586546E-05 
 0.0000000000000E+00  0.0000000000000E+00  0.0000000000000E+00  0.0000000000000E+00  0.0000000000000E+00  0.0000000000000E+00  0.0000000000000E+00  0.0000000000000E+00  0.0000000000000E+00  0.0000000000000E+00 
 0.0000000000000E+00  0.0000000000000E+00  0.0000000000000E+00  0.0000000000000E+00  0.0000000000000E+00  0.0000000000000E+00  0.0000000000000E+00  0.0000000000000E+00  0.0000000000000E+00  0.0000000000000E+00 
 0.0000000000000E+00  0.0000000000000E+00  0.0000000000000E+00  0.0000000000000E+00  0.0000000000000E+00  0.0000000000000E+00  0.0000000000000E+00  0.0000000000000E+00  0.0000000000000E+00  0.0000000000000E+00 
ZONE T = "ANOD, 3.0000E-08", I = 10, SOLUTIONTIME = 3.000000E-08
ZONETYPE = ORDERED
DATAPACKING = BLOCK
STRANDID = 1
 0.0000000000000E+00  8.7488888888889E-05  1.7497777777778E-04  2.6246666666667E-04  3.4995555555556E-04  4.3744444444444E-04  5.2493333333333E-04  6.1242222222222E-04  6.9991111111111E-04  7.8740000000000E-04 
 1.1590179795004E-09  3.4777825617113E-09  5.7958293668823E-09  8.1149808643397E-09  1.0434153861636E-08  1.2753354789576E-08  1.5071500455871E-08  1.7390413330162E-08  1.9709373428130E-08  2.0868517096886E-08 
 9.1999999999791E-01  9.1999999999791E-01  9.1999999999791E-01  9.1999999999791E-01  9.1999999999791E-01  9.1999999999791E-01  9.1999999999791E-01  9.1999999999791E-01  9.1999999999791E-01  9.1999999999914E-01 
 4.0000000001044E-02  4.0000000001044E-02  4.0000000001044E-02  4.0000000001044E-02  4.0000000001044E-02  4.0000000001044E-02  4.0000000001044E-02  4.0000000001044E-02  4.0000000001044E-02  4.0000000000432E-02 
 4.0000000001044E-02  4.0000000001044E-02  4.0000000001044E-02  4.0000000001044E-02  4.0000000001044E-02  4.0000000001044E-02  4.0000000001044E-02  4.0000000001044E-02  4.0000000001044E-02  4.0000000000432E-02 
 2.9167087937097E-02  2.9167072209634E-02  2.9167025027215E-02  2.9166946389722E-02  2.9166836296951E-02  2.9166694748610E-02  2.9166521744321E-02  2.9166317283616E-02  2.9166081365943E-02  2.9165813990661E-02 
 0.0000000000000E+00 -4.7372347014535E-09 -8.9171682244829E-09 -1.2539798492246E-08 -1.5605121881840E-08 -1.8113133224286E-08 -2.0063825804520E-08 -2.1457191361362E-08 -2.2293220087498E-08 -2.2571900629443E-08 
-2.9167087937097E-02 -2.9167076946869E-02 -2.9167033944383E-02 -2.9166958929520E-02 -2.9166851902073E-02 -2.9166712861744E-02 -2.9166541808147E-02 -2.9166338740808E-02 -2.9166103659164E-02 -2.9165836562562E-02 
-4.0906712751225E-02 -4.0906712751228E-02 -4.0906712751225E-02 -4.0906712751225E-02 -4.0906712751225E-02 -4.0906712751225E-02 -4.0906712751225E-02 -4.0906712751225E-02 -4.0906712751225E-02 -4.0906712751619E-02 
 1.1739624814127E-02  1.1739635804359E-02  1.1739678806842E-02  1.1739753821704E-02  1.1739860849152E-02  1.1739999889482E-02  1.1740170943079E-02  1.1740374010418E-02  1.1740609092062E-02  1.1740876189057E-02 
 1.6690900660687E+00  3.3381833114098E+00  3.3381957512422E+00  3.3382174516763E+00  3.3382484127806E+00  3.3382886346544E+00  3.3383381174255E+00  3.3383968612525E+00  3.3384648663226E+00  1.6692710664561E+00 
 8.6493879042346E-09  2.5948180193806E-08  4.3247036948874E-08  6.0546006162808E-08  7.7845135814960E-08  9.5144473907219E-08  1.1244406843471E-07  1.2974396738008E-07  1.4704443503528E-07  1.4704443503528E-07 
 0.0000000000000E+00  3.3381579989912E+00  6.6763238077733E+00  1.0014506687011E+01  1.3352715897184E+01  1.6690960699142E+01  2.0029250354101E+01  2.3367594123094E+01  2.6706001267229E+01  3.0044492907209E+01 
 3.0044492909251E+01  2.6706323048813E+01  2.3368157240071E+01  2.0029974360971E+01  1.6691765150776E+01  1.3353520348666E+01  1.0015230693704E+01  6.6768869248117E+00  3.3384797807382E+00  0.0000000000000E+00 
 5.0049914588300E-08  1.0009992452167E-07  1.0010029758715E-07  1.0010094837426E-07  1.0010187688508E-07  1.0010308312256E-07  1.0010456709055E-07  1.0010632879380E-07  1.0010836823792E-07  5.0055342715154E-08 
 7.0592160226264E+03  1.4118432045253E+04  1.4118432045253E+04  1.4118432045253E+04  1.4118432045253E+04  1.4118432045253E+04  1.4118432045253E+04  1.4118432045253E+04  1.4118432045253E+04  7.0592160226264E+03 
 5.2238198567015E+04  1.0447639713403E+05  1.0447639713403E+05  1.0447639713403E+05  1.0447639713403E+05  1.0447639713403E+05  1.0447639713403E+05  1.0447639713403E+05  1.0447639713403E+05  5.2238198567015E+04 
 5.9297414589642E+04  1.1859482917928E+05  1.1859482917928E+05  1.1859482917928E+05  1.1859482917928E+05  1.1859482917928E+05  1.1859482917928E+05  1.1859482917928E+05  1.1859482917928E+05  5.9297414589642E+04 
 3.5000000000000E-01  3.5000000000000E-01  3.5000000000000E-01  3.5000000000000E-01  3.5000000000000E-01  3.5000000000000E-01  3.5000000000000E-01  3.5000000000000E-01  3.5000000000000E-01  3.5000000000000E-01 
 8.5301666666661E+00  1.7060333333332E+01  1.7060333333332E+01  1.7060333333332E+01  1.7060333333332E+01  1.7060333333332E+01  1.7060333333332E+01  1.7060333333332E+01  1.7060333333332E+01  8.5301666666661E+00 
 1.9566910369889E-01  1.9566929005354E-01  1.9567001922056E-01  1.9567129120239E-01  1.9567310600306E-01  1.9567546362837E-01  1.9567836408584E-01  1.9568180738473E-01  1.9568579353605E-01  1.9569032255597E-01 
 4.3744444444444E-05  8.7488888888889E-05  8.7488888888889E-05  8.7488888888889E-05  8.7488888888889E-05  8.7488888888889E-05  8.7488888888889E-05  8.7488888888889E-05  8.7488888888889E-05  4.3744444444444E-05 
 1.3380188695643E+01  1.3380188695643E+01  1.3380188695643E+01  1.3380188695643E+01  1.3380188695643E+01  1.3380188695643E+01  1.3380188695643E+01  1.3380188695643E+01  1.3380188695643E+01  1.3380188695643E+01 
 3.3450471739256E+00  3.3450471739256E+00  3.3450471739256E+00  3.3450471739256E+00  3.3450471739256E+00  3.3450471739256E+00  3.3450471739256E+00  3.3450471739256E+00  3.3450471739256E+00  3.3450471739256E+00 
 5.5058604962281E-11  8.5940158911810E-11  1.8432290683644E-10  3.5594568353954E-10  6.0081039261827E-10  9.1891975003317E-10  1.3102772841622E-09  1.7748873358066E-09  2.3127550582384E-09  2.6000040320905E-09 
 1.8364767347559E-03  2.8665292335216E-03  6.1480802770015E-03  1.1872548396656E-02  2.0039997114974E-02  3.0650517064033E-02  4.3704225987193E-02  5.9201268738531E-02  7.7141817285239E-02  8.6722991198088E-02 
 8.9954365829618E-04  4.4977234316888E-03  1.5292297974098E-02  3.3283377640346E-02  5.8471152602777E-02  9.0855892855861E-02  1.3043794822156E-01  1.7721774834985E-01  2.3119580272339E-01  2.5998446214643E-01 
 4.6063168379319E-03  4.0962924594922E-03  3.1399927095465E-03  2.3111907136077E-03  1.6098866590501E-03  1.0360821474555E-03  5.8978019465851E-04  2.7098523080877E-04  7.9703100449430E-05  1.5941062612555E-05 
 0.0000000000000E+00  0.0000000000000E+00  0.0000000000000E+00  0.0000000000000E+00  0.0000000000000E+00  0.0000000000000E+00  0.0000000000000E+00  0.0000000000000E+00  0.0000000000000E+00  0.0000000000000E+00 
 0.0000000000000E+00  0.0000000000000E+00  0.0000000000000E+00  0.0000000000000E+00  0.0000000000000E+00  0.0000000000000E+00  0.0000000000000E+00  0.0000000000000E+00  0.0000000000000E+00  0.0000000000000E+00 
 0.0000000000000E+00  0.0000000000000E+00  0.0000000000000E+00  0.0000000000000E+00  0.0000000000000E+00  0.0000000000000E+00  0.0000000000000E+00  0.0000000000000E+00  0.0000000000000E+00  0.0000000000000E+00 
ZONE T = "ANOD, 4.0000E-08", I = 10, SOLUTIONTIME = 4.000000E-08
ZONETYPE = ORDERED
DATAPACKING = BLOCK
STRANDID = 1
 0.0000000000000E+00  8.7488888888889E-05  1.7497777777778E-04  2.6246666666667E-04  3.4995555555556E-04  4.3744444444444E-04  5.2493333333333E-04  6.1242222222222E-04  6.9991111111111E-04  7.8740000000000E-04 
 1.1584539523663E-09  3.4760904802239E-09  5.7930092307750E-09  8.1099430499825E-09  1.0427624783858E-08  1.2744608032113E-08  1.5063804887285E-08  1.7381589702919E-08  1.9699784948607E-08  2.0858909398196E-08 
 9.1999999999721E-01  9.1999999999721E-01  9.1999999999721E-01  9.1999999999721E-01  9.1999999999721E-01  9.1999999999721E-01  9.1999999999721E-01  9.1999999999721E-01  9.1999999999721E-01  9.1999999999885E-01 
 4.0000000001393E-02  4.0000000001393E-02  4.0000000001393E-02  4.0000000001393E-02  4.0000000001393E-02  4.0000000001393E-02  4.0000000001393E-02  4.0000000001393E-02  4.0000000001393E-02  4.0000000000576E-02 
 4.0000000001393E-02  4.0000000001393E-02  4.0000000001393E-02  4.0000000001393E-02  4.0000000001393E-02  4.0000000001393E-02  4.0000000001393E-02  4.0000000001393E-02  4.0000000001393E-02  4.0000000000576E-02 
 2.9167356260968E-02  2.9167340533765E-02  2.9167293352128E-02  2.9167214715939E-02  2.9167104624993E-02  2.9166963078999E-02  2.9166790077578E-02  2.9166585620264E-02  2.9166349706502E-02  2.9166082335653E-02 
 0.0000000000000E+00 -4.7371561598035E-09 -8.9170203807790E-09 -1.2539590586148E-08 -1.5604863153116E-08 -1.8112832912854E-08 -2.0063493150492E-08 -2.1456835605089E-08 -2.2292850469610E-08 -2.2571526390896E-08 
-2.9167356260968E-02 -2.9167345270921E-02 -2.9167302269149E-02 -2.9167227255530E-02 -2.9167120229856E-02 -2.9166981191832E-02 -2.9166810141071E-02 -2.9166607077099E-02 -2.9166371999353E-02 -2.9166104907179E-02 
-4.0906712750502E-02 -4.0906712750503E-02 -4.0906712750502E-02 -4.0906712750502E-02 -4.0906712750502E-02 -4.0906712750503E-02 -4.0906712750502E-02 -4.0906712750503E-02 -4.0906712750503E-02 -4.0906712751028E-02 
 1.1739356489535E-02  1.1739367479581E-02  1.1739410481354E-02  1.1739485494973E-02  1.1739592520646E-02  1.1739731558670E-02  1.1739902609431E-02  1.1740105673404E-02  1.1740340751151E-02  1.1740607843848E-02 
 1.6690512554141E+00  3.3381056900438E+00  3.3381181296558E+00  3.3381398297048E+00  3.3381707902594E+00  3.3382110114191E+00  3.3382604933119E+00  3.3383192360960E+00  3.3383872399589E+00  1.6692322526031E+00 