TITLE = "Solution on Domain BulkDomain1D_2"
VARIABLES = "x [m]"  
"Vel_axial" 	"MF_sp(ECDMC)" 	"MF_sp(Li+)" 	"MF_sp(PF6-)" 	"Volt(Electroly)" 	"Volt(CathodeVo)" 	
"Potential Drop Electrode-Electrolyte [V]" 	"Surf_0 Equilibrium Potential Drop Electrode-Electrolyte [V]" 	"Overpotential_0 [V]" 	"Current Source [A/m^2]" 	"Li+ flux [kmol/m^2/s]" 	"Electrolyte Current [A/m^2]" 	"Electrode Current [A/m^2]" 	
"CV Capacity discharged [A-s/m^2]" 	"Depth of discharge in CV [A-s/m^2]" 	"CV Capacity remaining [A-s/m^2]" 	"Initial CV capacity [A-s/m^2]" 	"Porosity []" 	"Surface Area [m2/m2] (area per area)" 	"Specific current (per particle area) [A/m^2]" 	"Control volume thickness [m]" 	
"MoleDens LiCoO2 [kmol/m^3]" 	"MoleDens CoO2 [kmol/m^3]" 	"qHeat_accum [J/m3]" 	"qHeat_step [W/m3]" 	"Joule_Lyte [W/m3]" 	"Joule_Solid [W/m3]" 	"electrodHeat [W/m3]" 	"OverpotHeat [W/m3]" 	"deltaSHeat [W/m3]" 	

ZONE T = "CATH, 0.0000E+00", I = 10, SOLUTIONTIME = 0.000000E+00
ZONETYPE = ORDERED
DATAPACKING = BLOCK
STRANDID = 3
 1.2700000000000E-03  1.3377333333333E-03  1.4054666666667E-03  1.4732000000000E-03  1.5409333333333E-03  1.6086666666667E-03  1.6764000000000E-03  1.7441333333333E-03  1.8118666666667E-03  1.8796000000000E-03 
 0.0000000000000E+00  0.0000000000000E+00  0.0000000000000E+00  0.0000000000000E+00  0.0000000000000E+00  0.0000000000000E+00  0.0000000000000E+00  0.0000000000000E+00  0.0000000000000E+00  0.0000000000000E+00 
 9.2000000000000E-01  9.2000000000000E-01  9.2000000000000E-01  9.2000000000000E-01  9.2000000000000E-01  9.2000000000000E-01  9.2000000000000E-01  9.2000000000000E-01  9.2000000000000E-01  9.2000000000000E-01 
 4.0000000000000E-02  4.0000000000000E-02  4.0000000000000E-02  4.0000000000000E-02  4.0000000000000E-02  4.0000000000000E-02  4.0000000000000E-02  4.0000000000000E-02  4.0000000000000E-02  4.0000000000000E-02 
 4.0000000000000E-02  4.0000000000000E-02  4.0000000000000E-02  4.0000000000000E-02  4.0000000000000E-02  4.0000000000000E-02  4.0000000000000E-02  4.0000000000000E-02  4.0000000000000E-02  4.0000000000000E-02 
-7.0000000000000E-02 -7.0000000000000E-02 -7.0000000000000E-02 -7.0000000000000E-02 -7.0000000000000E-02 -7.0000000000000E-02 -7.0000000000000E-02 -7.0000000000000E-02 -7.0000000000000E-02 -7.0000000000000E-02 
 3.8000000000000E+00  3.8000000000000E+00  3.8000000000000E+00  3.8000000000000E+00  3.8000000000000E+00  3.8000000000000E+00  3.8000000000000E+00  3.8000000000000E+00  3.8000000000000E+00  3.8000000000000E+00 
 3.8700000000000E+00  3.8700000000000E+00  3.8700000000000E+00  3.8700000000000E+00  3.8700000000000E+00  3.8700000000000E+00  3.8700000000000E+00  3.8700000000000E+00  3.8700000000000E+00  3.8700000000000E+00 
 3.9714142713289E+00  3.9714142713289E+00  3.9714142713289E+00  3.9714142713289E+00  3.9714142713289E+00  3.9714142713289E+00  3.9714142713289E+00  3.9714142713289E+00  3.9714142713289E+00  3.9714142713289E+00 
-1.0141427132889E-01 -1.0141427132889E-01 -1.0141427132889E-01 -1.0141427132889E-01 -1.0141427132889E-01 -1.0141427132889E-01 -1.0141427132889E-01 -1.0141427132889E-01 -1.0141427132889E-01 -1.0141427132889E-01 
-2.3826357195711E-01 -4.7652714391422E-01 -4.7652714391423E-01 -4.7652714391422E-01 -4.7652714391423E-01 -4.7652714391423E-01 -4.7652714391422E-01 -4.7652714391423E-01 -4.7652714391422E-01 -2.3826357195711E-01 
-0.0000000000000E+00 -0.0000000000000E+00 -0.0000000000000E+00 -0.0000000000000E+00 -0.0000000000000E+00 -0.0000000000000E+00 -0.0000000000000E+00 -0.0000000000000E+00 -0.0000000000000E+00 -0.0000000000000E+00 
 2.3826357195711E-01  0.0000000000000E+00  0.0000000000000E+00  0.0000000000000E+00  0.0000000000000E+00  0.0000000000000E+00  0.0000000000000E+00  0.0000000000000E+00  0.0000000000000E+00  0.0000000000000E+00 
 0.0000000000000E+00 -0.0000000000000E+00 -0.0000000000000E+00 -0.0000000000000E+00 -0.0000000000000E+00 -0.0000000000000E+00 -0.0000000000000E+00 -0.0000000000000E+00 -0.0000000000000E+00  2.3826357195711E-01 
-0.0000000000000E+00 -0.0000000000000E+00 -0.0000000000000E+00 -0.0000000000000E+00 -0.0000000000000E+00 -0.0000000000000E+00 -0.0000000000000E+00 -0.0000000000000E+00 -0.0000000000000E+00 -0.0000000000000E+00 
 5.2083019618450E+03  1.0416603923690E+04  1.0416603923690E+04  1.0416603923690E+04  1.0416603923690E+04  1.0416603923690E+04  1.0416603923690E+04  1.0416603923690E+04  1.0416603923690E+04  5.2083019618450E+03 
 3.5416453340546E+04  7.0832906681092E+04  7.0832906681093E+04  7.0832906681092E+04  7.0832906681093E+04  7.0832906681093E+04  7.0832906681092E+04  7.0832906681093E+04  7.0832906681092E+04  3.5416453340546E+04 
 4.0624755302391E+04  8.1249510604782E+04  8.1249510604783E+04  8.1249510604782E+04  8.1249510604783E+04  8.1249510604783E+04  8.1249510604782E+04  8.1249510604783E+04  8.1249510604782E+04  4.0624755302391E+04 
 3.5000000000000E-01  3.5000000000000E-01  3.5000000000000E-01  3.5000000000000E-01  3.5000000000000E-01  3.5000000000000E-01  3.5000000000000E-01  3.5000000000000E-01  3.5000000000000E-01  3.5000000000000E-01 
 6.6040000000000E+00  1.3208000000000E+01  1.3208000000000E+01  1.3208000000000E+01  1.3208000000000E+01  1.3208000000000E+01  1.3208000000000E+01  1.3208000000000E+01  1.3208000000000E+01  6.6040000000000E+00 
-3.6078675341780E-02 -3.6078675341780E-02 -3.6078675341780E-02 -3.6078675341780E-02 -3.6078675341780E-02 -3.6078675341780E-02 -3.6078675341780E-02 -3.6078675341780E-02 -3.6078675341780E-02 -3.6078675341780E-02 
 3.3866666666667E-05  6.7733333333333E-05  6.7733333333334E-05  6.7733333333333E-05  6.7733333333334E-05  6.7733333333334E-05  6.7733333333333E-05  6.7733333333334E-05  6.7733333333333E-05  3.3866666666667E-05 
 1.9126857953556E+01  1.9126857953556E+01  1.9126857953556E+01  1.9126857953556E+01  1.9126857953556E+01  1.9126857953556E+01  1.9126857953556E+01  1.9126857953556E+01  1.9126857953556E+01  1.9126857953556E+01 
 1.2751238635704E+01  1.2751238635704E+01  1.2751238635704E+01  1.2751238635704E+01  1.2751238635704E+01  1.2751238635704E+01  1.2751238635704E+01  1.2751238635704E+01  1.2751238635704E+01  1.2751238635704E+01 
 0.0000000000000E+00  0.0000000000000E+00  0.0000000000000E+00  0.0000000000000E+00  0.0000000000000E+00  0.0000000000000E+00  0.0000000000000E+00  0.0000000000000E+00  0.0000000000000E+00  0.0000000000000E+00 
 0.0000000000000E+00  0.0000000000000E+00  0.0000000000000E+00  0.0000000000000E+00  0.0000000000000E+00  0.0000000000000E+00  0.0000000000000E+00  0.0000000000000E+00  0.0000000000000E+00  0.0000000000000E+00 
 0.0000000000000E+00  0.0000000000000E+00  0.0000000000000E+00  0.0000000000000E+00  0.0000000000000E+00  0.0000000000000E+00  0.0000000000000E+00  0.0000000000000E+00  0.0000000000000E+00  0.0000000000000E+00 
 0.0000000000000E+00  0.0000000000000E+00  0.0000000000000E+00  0.0000000000000E+00  0.0000000000000E+00  0.0000000000000E+00  0.0000000000000E+00  0.0000000000000E+00  0.0000000000000E+00  0.0000000000000E+00 
 0.0000000000000E+00  0.0000000000000E+00  0.0000000000000E+00  0.0000000000000E+00  0.0000000000000E+00  0.0000000000000E+00  0.0000000000000E+00  0.0000000000000E+00  0.0000000000000E+00  0.0000000000000E+00 
 0.0000000000000E+00  0.0000000000000E+00  0.0000000000000E+00  0.0000000000000E+00  0.0000000000000E+00  0.0000000000000E+00  0.0000000000000E+00  0.0000000000000E+00  0.0000000000000E+00  0.0000000000000E+00 
 0.0000000000000E+00  0.0000000000000E+00  0.0000000000000E+00  0.0000000000000E+00  0.0000000000000E+00  0.0000000000000E+00  0.0000000000000E+00  0.0000000000000E+00  0.0000000000000E+00  0.0000000000000E+00 
ZONE T = "CATH, 1.0000E-08", I = 10, SOLUTIONTIME = 1.000000E-08
ZONETYPE = ORDERED
DATAPACKING = BLOCK
STRANDID = 3
 1.2700000000000E-03  1.3377333333333E-03  1.4054666666667E-03  1.4732000000000E-03  1.5409333333333E-03  1.6086666666667E-03  1.6764000000000E-03  1.7441333333333E-03  1.8118666666667E-03  1.8796000000000E-03 
 1.9682693963149E-08  1.7369276058877E-08  1.5055574258860E-08  1.2741755870382E-08  1.0427261630282E-08  8.1115320569770E-09  5.7947338023264E-09  3.4766699646833E-09  1.1571432326148E-09 -3.4504733779376E-12 
 9.2000000000032E-01  9.2000000000090E-01  9.2000000000090E-01  9.2000000000090E-01  9.2000000000090E-01  9.2000000000090E-01  9.2000000000090E-01  9.2000000000090E-01  9.2000000000090E-01  9.2000000000090E-01 
 3.9999999999841E-02  3.9999999999551E-02  3.9999999999551E-02  3.9999999999551E-02  3.9999999999551E-02  3.9999999999551E-02  3.9999999999550E-02  3.9999999999550E-02  3.9999999999550E-02  3.9999999999550E-02 
 3.9999999999841E-02  3.9999999999551E-02  3.9999999999551E-02  3.9999999999551E-02  3.9999999999551E-02  3.9999999999551E-02  3.9999999999550E-02  3.9999999999550E-02  3.9999999999550E-02  3.9999999999550E-02 
 2.9180542363780E-02  2.9180335542728E-02  2.9180153025361E-02  2.9179994814663E-02  2.9179860915674E-02  2.9179751335494E-02  2.9179666083285E-02  2.9179605170274E-02  2.9179568609757E-02  2.9179556417103E-02 
 3.8001744822351E+00  3.8001723293221E+00  3.8001658704190E+00  3.8001551049975E+00  3.8001400321646E+00  3.8001206506621E+00  3.8000969588669E+00  3.8000689547898E+00  3.8000366360751E+00  3.8000000000000E+00 
 3.7709939398714E+00  3.7709919937794E+00  3.7709857173937E+00  3.7709751101829E+00  3.7709601712489E+00  3.7709408993266E+00  3.7709172927836E+00  3.7708893496195E+00  3.7708570674654E+00  3.7708204435829E+00 
 3.9714142713287E+00  3.9714142713285E+00  3.9714142713285E+00  3.9714142713285E+00  3.9714142713285E+00  3.9714142713285E+00  3.9714142713285E+00  3.9714142713285E+00  3.9714142713285E+00  3.9714142713285E+00 
-2.0042033145732E-01 -2.0042227754911E-01 -2.0042855393480E-01 -2.0043916114560E-01 -2.0045410007960E-01 -2.0047337200188E-01 -2.0049697854488E-01 -2.0052492170898E-01 -2.0055720386313E-01 -2.0059382774559E-01 
-1.6677148275633E+00 -3.3355560825692E+00 -3.3359638591993E+00 -3.3366531225690E+00 -3.3376241052305E+00 -3.3388771349028E+00 -3.3404126347054E+00 -3.3422311234611E+00 -3.3443332160675E+00 -1.6733598119686E+00 
 1.4691707910510E-07  1.2965263396388E-07  1.1238620264039E-07  9.5116190738786E-08  7.7841135181098E-08  6.0559571214788E-08  4.3270032020006E-08  2.5971048177516E-08  8.6611472038965E-09  8.6611472038965E-09 
 3.0018376886801E+01  2.6684909038050E+01  2.3353198579277E+01  2.0020938231581E+01  1.6687845771465E+01  1.3353638706304E+01  1.0018034182741E+01  6.6807488960870E+00  3.3414989971083E+00  0.0000000000000E+00 
 0.0000000000000E+00  3.3314426166453E+00  6.6631530756587E+00  9.9954134231585E+00  1.3328505883413E+01  1.6662712948519E+01  1.9998317472024E+01  2.3335602758782E+01  2.6674852657717E+01  3.0018364090377E+01 
 1.6677148275633E-08  3.3355560825692E-08  3.3359638591993E-08  3.3366531225690E-08  3.3376241052305E-08  3.3388771349028E-08  3.3404126347054E-08  3.3422311234611E-08  3.3443332160675E-08  1.6733598119686E-08 
 5.2083019618617E+03  1.0416603923723E+04  1.0416603923723E+04  1.0416603923723E+04  1.0416603923723E+04  1.0416603923723E+04  1.0416603923723E+04  1.0416603923723E+04  1.0416603923723E+04  5.2083019618618E+03 
 3.5416453340530E+04  7.0832906681059E+04  7.0832906681059E+04  7.0832906681059E+04  7.0832906681059E+04  7.0832906681059E+04  7.0832906681059E+04  7.0832906681059E+04  7.0832906681059E+04  3.5416453340530E+04 
 4.0624755302391E+04  8.1249510604782E+04  8.1249510604783E+04  8.1249510604782E+04  8.1249510604783E+04  8.1249510604783E+04  8.1249510604782E+04  8.1249510604783E+04  8.1249510604782E+04  4.0624755302391E+04 
 3.5000000000000E-01  3.5000000000000E-01  3.5000000000000E-01  3.5000000000000E-01  3.5000000000000E-01  3.5000000000000E-01  3.5000000000000E-01  3.5000000000000E-01  3.5000000000000E-01  3.5000000000000E-01 
 6.6040000000001E+00  1.3208000000000E+01  1.3208000000000E+01  1.3208000000000E+01  1.3208000000000E+01  1.3208000000000E+01  1.3208000000000E+01  1.3208000000000E+01  1.3208000000000E+01  6.6040000000001E+00 
-2.5253101568190E-01 -2.5254058771723E-01 -2.5257146117499E-01 -2.5262364646949E-01 -2.5269716120764E-01 -2.5279203020160E-01 -2.5290828548648E-01 -2.5304596634321E-01 -2.5320511932673E-01 -2.5338579829930E-01 
 3.3866666666667E-05  6.7733333333333E-05  6.7733333333334E-05  6.7733333333333E-05  6.7733333333334E-05  6.7733333333334E-05  6.7733333333333E-05  6.7733333333334E-05  6.7733333333333E-05  3.3866666666667E-05 
 1.9126857953561E+01  1.9126857953561E+01  1.9126857953561E+01  1.9126857953561E+01  1.9126857953561E+01  1.9126857953561E+01  1.9126857953561E+01  1.9126857953561E+01  1.9126857953561E+01  1.9126857953561E+01 
 1.2751238635699E+01  1.2751238635699E+01  1.2751238635699E+01  1.2751238635699E+01  1.2751238635699E+01  1.2751238635699E+01  1.2751238635699E+01  1.2751238635699E+01  1.2751238635699E+01  1.2751238635699E+01 
 1.3951179036975E-09  3.4172562440886E-09  9.5920549892788E-09  2.0029304285331E-08  3.4732539495618E-08  5.3706742508988E-08  7.6958345220097E-08  1.0449523400345E-07  1.3632675522319E-07  1.5331743367635E-07 
 1.3951179036975E-01  3.4172562440886E-01  9.5920549892788E-01  2.0029304285331E+00  3.4732539495618E+00  5.3706742508988E+00  7.6958345220097E+00  1.0449523400345E+01  1.3632675522319E+01  1.5331743367635E+01 
 8.6567624460990E-02  7.6992698562034E-02  5.9037283684747E-02  4.3470625088620E-02  3.0292892451510E-02  1.9505065582374E-02  1.1108935781727E-02  5.1071077724098E-03  1.5030021941112E-03  3.0085867430507E-04 
 5.2944165908763E-02  2.6473292584682E-01  9.0016821524313E-01  1.9594598034445E+00  3.4429610571103E+00  5.3511691853164E+00  7.6847255862280E+00  1.0444416292573E+01  1.3631172520125E+01  1.5331442508960E+01 
 0.0000000000000E+00  0.0000000000000E+00  0.0000000000000E+00  0.0000000000000E+00  0.0000000000000E+00  0.0000000000000E+00  0.0000000000000E+00  0.0000000000000E+00  0.0000000000000E+00  0.0000000000000E+00 
 0.0000000000000E+00  0.0000000000000E+00  0.0000000000000E+00  0.0000000000000E+00  0.0000000000000E+00  0.0000000000000E+00  0.0000000000000E+00  0.0000000000000E+00  0.0000000000000E+00  0.0000000000000E+00 
 0.0000000000000E+00  0.0000000000000E+00  0.0000000000000E+00  0.0000000000000E+00  0.0000000000000E+00  0.0000000000000E+00  0.0000000000000E+00  0.0000000000000E+00  0.0000000000000E+00  0.0000000000000E+00 
ZONE T = "CATH, 2.0000E-08", I = 10, SOLUTIONTIME = 2.000000E-08
ZONETYPE = ORDERED
DATAPACKING = BLOCK
STRANDID = 3
 1.2700000000000E-03  1.3377333333333E-03  1.4054666666667E-03  1.4732000000000E-03  1.5409333333333E-03  1.6086666666667E-03  1.6764000000000E-03  1.7441333333333E-03  1.8118666666667E-03  1.8796000000000E-03 
 1.9700065583392E-08  1.7384556471988E-08  1.5069490457964E-08  1.2753582343928E-08  1.0436636394112E-08  8.1180934373359E-09  5.7995732548272E-09  3.4794263978038E-09  1.1581822366408E-09 -3.4504734142595E-12 
 9.2000000000063E-01  9.2000000000180E-01  9.2000000000180E-01  9.2000000000180E-01  9.2000000000180E-01  9.2000000000180E-01  9.2000000000180E-01  9.2000000000180E-01  9.2000000000180E-01  9.2000000000180E-01 
 3.9999999999683E-02  3.9999999999102E-02  3.9999999999102E-02  3.9999999999102E-02  3.9999999999101E-02  3.9999999999101E-02  3.9999999999101E-02  3.9999999999100E-02  3.9999999999099E-02  3.9999999999099E-02 
 3.9999999999683E-02  3.9999999999102E-02  3.9999999999102E-02  3.9999999999102E-02  3.9999999999101E-02  3.9999999999101E-02  3.9999999999101E-02  3.9999999999100E-02  3.9999999999099E-02  3.9999999999099E-02 
 2.9165953672312E-02  2.9165746664945E-02  2.9165563983234E-02  2.9165405630155E-02  2.9165271610738E-02  2.9165161932071E-02  2.9165076603300E-02  2.9165015635632E-02  2.9164979042342E-02  2.9164966838772E-02 
 3.8001746397140E+00  3.8001724848545E+00  3.8001660201127E+00  3.8001552449611E+00  3.8001401585083E+00  3.8001207594988E+00  3.8000970463120E+00  3.8000690169622E+00  3.8000366690977E+00  3.8000000000000E+00 
 3.7710086860417E+00  3.7710067381896E+00  3.7710004561294E+00  3.7709898393309E+00  3.7709748868976E+00  3.7709555975667E+00  3.7709319697087E+00  3.7709040013265E+00  3.7708716900553E+00  3.7708350331612E+00 
 3.9714142713285E+00  3.9714142713281E+00  3.9714142713281E+00  3.9714142713281E+00  3.9714142713281E+00  3.9714142713281E+00  3.9714142713281E+00  3.9714142713281E+00  3.9714142713281E+00  3.9714142713281E+00 
-2.0040558528677E-01 -2.0040753313849E-01 -2.0041381519865E-01 -2.0042443199719E-01 -2.0043938443051E-01 -2.0045867376140E-01 -2.0048230161943E-01 -2.0051027000157E-01 -2.0054258127277E-01 -2.0057923816686E-01 
-1.6672359144043E+00 -3.3345983342951E+00 -3.3350063626174E+00 -3.3356960513800E+00 -3.3366676332733E+00 -3.3379214362172E+00 -3.3394578835956E+00 -3.3412774945616E+00 -3.3433808844103E+00 -1.6728843825108E+00 
 1.4704956113987E-07  1.2976937743146E-07  1.1248734441065E-07  9.5201737558776E-08  7.7911096179938E-08  6.0613957849055E-08  4.3308857954269E-08  2.5994329207525E-08  8.6689011109229E-09  8.6689011109229E-09 
 3.0043437538910E+01  2.6708942850708E+01  2.3374221302904E+01  2.0038950932968E+01  1.6702849982711E+01  1.3365636412978E+01  1.0027027808666E+01  6.6867412843129E+00  3.3444933868494E+00  0.0000000000000E+00 
 0.0000000000000E+00  3.3344542997609E+00  6.6691758476546E+00  1.0004446217194E+01  1.3340547167603E+01  1.6677760737611E+01  2.0016369341664E+01  2.3356655865951E+01  2.6698903763412E+01  3.0043437907939E+01 
 3.3349507419675E-08  6.6701544168642E-08  6.6709702218168E-08  6.6723491739490E-08  6.6742917385039E-08  6.6767985711200E-08  6.6798705183010E-08  6.6835086180228E-08  6.6877141004777E-08  3.3462441944794E-08 
 5.2083019618784E+03  1.0416603923757E+04  1.0416603923757E+04  1.0416603923757E+04  1.0416603923757E+04  1.0416603923757E+04  1.0416603923757E+04  1.0416603923757E+04  1.0416603923757E+04  5.2083019618785E+03 
 3.5416453340513E+04  7.0832906681025E+04  7.0832906681026E+04  7.0832906681025E+04  7.0832906681026E+04  7.0832906681026E+04  7.0832906681025E+04  7.0832906681026E+04  7.0832906681025E+04  3.5416453340513E+04 
 4.0624755302391E+04  8.1249510604782E+04  8.1249510604783E+04  8.1249510604782E+04  8.1249510604783E+04  8.1249510604783E+04  8.1249510604782E+04  8.1249510604783E+04  8.1249510604782E+04  4.0624755302391E+04 
 3.5000000000000E-01  3.5000000000000E-01  3.5000000000000E-01  3.5000000000000E-01  3.5000000000000E-01  3.5000000000000E-01  3.5000000000000E-01  3.5000000000000E-01  3.5000000000000E-01  3.5000000000000E-01 
 6.6040000000001E+00  1.3208000000000E+01  1.3208000000000E+01  1.3208000000000E+01  1.3208000000000E+01  1.3208000000000E+01  1.3208000000000E+01  1.3208000000000E+01  1.3208000000000E+01  6.6040000000001E+00 
-2.5245849703274E-01 -2.5246807497691E-01 -2.5249896749071E-01 -2.5255118499242E-01 -2.5262474509943E-01 -2.5271967263909E-01 -2.5283599966653E-01 -2.5297376548770E-01 -2.5313301668763E-01 -2.5331380716396E-01 
 3.3866666666667E-05  6.7733333333333E-05  6.7733333333334E-05  6.7733333333333E-05  6.7733333333334E-05  6.7733333333334E-05  6.7733333333333E-05  6.7733333333334E-05  6.7733333333333E-05  3.3866666666667E-05 
 1.9126857953566E+01  1.9126857953566E+01  1.9126857953566E+01  1.9126857953566E+01  1.9126857953566E+01  1.9126857953566E+01  1.9126857953566E+01  1.9126857953566E+01  1.9126857953566E+01  1.9126857953566E+01 
 1.2751238635694E+01  1.2751238635694E+01  1.2751238635694E+01  1.2751238635694E+01  1.2751238635694E+01  1.2751238635694E+01  1.2751238635694E+01  1.2751238635694E+01  1.2751238635694E+01  1.2751238635694E+01 
 2.7927539479329E-09  6.8406885583146E-09  1.9201453524011E-08  4.0094821459005E-08  6.9527859839308E-08  1.0751052818693E-07  1.5405568512472E-07  2.0917909747033E-07  2.7289945140392E-07  3.0691138238270E-07 
 1.3976360442354E-01  3.4234323142260E-01  9.6093985347319E-01  2.0065517173674E+00  3.4795320343690E+00  5.3803785677938E+00  7.7097339904621E+00  1.0468386346688E+01  1.3657269618073E+01  1.5359394870636E+01 
 8.6723662816575E-02  7.7131450221130E-02  5.9143625156175E-02  4.3548882710001E-02  3.0347392094161E-02  1.9540132010793E-02  1.1128892044897E-02  5.1162746452520E-03  1.5056976805462E-03  3.0139759378406E-04 
 5.3039941606964E-02  2.6521178120147E-01  9.0179622831702E-01  1.9630028346574E+00  3.4491846422748E+00  5.3608384357830E+00  7.6986050984172E+00  1.0463270072042E+01  1.3655763920393E+01  1.5359093473042E+01 
 0.0000000000000E+00  0.0000000000000E+00  0.0000000000000E+00  0.0000000000000E+00  0.0000000000000E+00  0.0000000000000E+00  0.0000000000000E+00  0.0000000000000E+00  0.0000000000000E+00  0.0000000000000E+00 
 0.0000000000000E+00  0.0000000000000E+00  0.0000000000000E+00  0.0000000000000E+00  0.0000000000000E+00  0.0000000000000E+00  0.0000000000000E+00  0.0000000000000E+00  0.0000000000000E+00  0.0000000000000E+00 
 0.0000000000000E+00  0.0000000000000E+00  0.0000000000000E+00  0.0000000000000E+00  0.0000000000000E+00  0.0000000000000E+00  0.0000000000000E+00  0.0000000000000E+00  0.0000000000000E+00  0.0000000000000E+00 
ZONE T = "CATH, 3.0000E-08", I = 10, SOLUTIONTIME = 3.000000E-08
ZONETYPE = ORDERED
DATAPACKING = BLOCK
STRANDID = 3
 1.2700000000000E-03  1.3377333333333E-03  1.4054666666667E-03  1.4732000000000E-03  1.5409333333333E-03  1.6086666666667E-03  1.6764000000000E-03  1.7441333333333E-03  1.8118666666667E-03  1.8796000000000E-03 
 1.9711128054855E-08  1.7395535700541E-08  1.5080386398947E-08  1.2764031715665E-08  1.0447728716497E-08  8.1294653699363E-09  5.8101350122406E-09  3.4899042036349E-09  1.1678494538103E-09  5.9929275086411E-12 
 9.2000000000095E-01  9.2000000000269E-01  9.2000000000270E-01  9.2000000000270E-01  9.2000000000270E-01  9.2000000000270E-01  9.2000000000270E-01  9.2000000000270E-01  9.2000000000270E-01  9.2000000000270E-01 
 3.9999999999524E-02  3.9999999998653E-02  3.9999999998652E-02  3.9999999998652E-02  3.9999999998652E-02  3.9999999998651E-02  3.9999999998651E-02  3.9999999998650E-02  3.9999999998649E-02  3.9999999998648E-02 
 3.9999999999524E-02  3.9999999998653E-02  3.9999999998652E-02  3.9999999998652E-02  3.9999999998652E-02  3.9999999998651E-02  3.9999999998651E-02  3.9999999998650E-02  3.9999999998649E-02  3.9999999998648E-02 
 2.9165369696402E-02  2.9165162681566E-02  2.9164979993259E-02  2.9164821634459E-02  2.9164687610198E-02  2.9164577927563E-02  2.9164492595702E-02  2.9164431625825E-02  2.9164395031207E-02  2.9164382827194E-02 
 3.8001746460029E+00  3.8001724910659E+00  3.8001660260917E+00  3.8001552505526E+00  3.8001401635573E+00  3.8001207638498E+00  3.8000970498095E+00  3.8000690194502E+00  3.8000366704200E+00  3.8000000000000E+00 
 3.7710092763064E+00  3.7710073283844E+00  3.7710010460984E+00  3.7709904289182E+00  3.7709754759471E+00  3.7709561859223E+00  3.7709325572138E+00  3.7709045878244E+00  3.7708722753888E+00  3.7708356171728E+00 
 3.9714142713283E+00  3.9714142713277E+00  3.9714142713277E+00  3.9714142713277E+00  3.9714142713277E+00  3.9714142713277E+00  3.9714142713277E+00  3.9714142713277E+00  3.9714142713277E+00  3.9714142713277E+00 
-2.0040499502181E-01 -2.0040694294332E-01 -2.0041322522928E-01 -2.0042384240952E-01 -2.0043879538058E-01 -2.0045808540544E-01 -2.0048171411392E-01 -2.0050968350329E-01 -2.0054199593886E-01 -2.0057865415488E-01 
-1.6672167471522E+00 -3.3345600028600E+00 -3.3349680411666E+00 -3.3356577468154E+00 -3.3366293525161E+00 -3.3378831862146E+00 -3.3394196713294E+00 -3.3412393270553E+00 -3.3433427687370E+00 -1.6728653541560E+00 
 1.4705500006583E-07  1.2977406259779E-07  1.1249140804399E-07  9.5205179105491E-08  7.7913914867742E-08  6.0616152693911E-08  4.3310427748801E-08  2.5995272512613E-08  8.6692162784949E-09  8.6692162784949E-09 
 3.0044442341996E+01  2.6709906882720E+01  2.3375065426452E+01  2.0039675062734E+01  1.6703453990763E+01  1.3366120129296E+01  1.0027391021137E+01  6.6869837382614E+00  3.3446147843211E+00  0.0000000000000E+00 
 0.0000000000000E+00  3.3345741650234E+00  6.6694156214717E+00  1.0004805985291E+01  1.3341027057107E+01  1.6678360918427E+01  2.0017090026643E+01  2.3357497309693E+01  2.6699866263636E+01  3.0044441988019E+01 
 5.0021674891197E-08  1.0004714419724E-07  1.0005938262983E-07  1.0008006920764E-07  1.0010921091020E-07  1.0014681757335E-07  1.0019290189630E-07  1.0024747945078E-07  1.0031056869215E-07  5.0191095486354E-08 
 5.2083019618951E+03  1.0416603923790E+04  1.0416603923790E+04  1.0416603923790E+04  1.0416603923790E+04  1.0416603923790E+04  1.0416603923790E+04  1.0416603923790E+04  1.0416603923790E+04  5.2083019618952E+03 
 3.5416453340496E+04  7.0832906680992E+04  7.0832906680992E+04  7.0832906680992E+04  7.0832906680992E+04  7.0832906680992E+04  7.0832906680992E+04  7.0832906680992E+04  7.0832906680992E+04  3.5416453340496E+04 
 4.0624755302391E+04  8.1249510604782E+04  8.1249510604783E+04  8.1249510604782E+04  8.1249510604783E+04  8.1249510604783E+04  8.1249510604782E+04  8.1249510604783E+04  8.1249510604782E+04  4.0624755302391E+04 
 3.5000000000000E-01  3.5000000000000E-01  3.5000000000000E-01  3.5000000000000E-01  3.5000000000000E-01  3.5000000000000E-01  3.5000000000000E-01  3.5000000000000E-01  3.5000000000000E-01  3.5000000000000E-01 
 6.6040000000002E+00  1.3208000000000E+01  1.3208000000000E+01  1.3208000000000E+01  1.3208000000000E+01  1.3208000000000E+01  1.3208000000000E+01  1.3208000000000E+01  1.3208000000000E+01  6.6040000000002E+00 
-2.5245559466265E-01 -2.5246517283918E-01 -2.5249606610891E-01 -2.5254828488911E-01 -2.5262184679860E-01 -2.5271677666676E-01 -2.5283310655128E-01 -2.5297087576130E-01 -2.5313013088559E-01 -2.5331092582616E-01 
 3.3866666666667E-05  6.7733333333333E-05  6.7733333333334E-05  6.7733333333333E-05  6.7733333333334E-05  6.7733333333334E-05  6.7733333333333E-05  6.7733333333334E-05  6.7733333333333E-05  3.3866666666667E-05 
 1.9126857953571E+01  1.9126857953571E+01  1.9126857953571E+01  1.9126857953571E+01  1.9126857953571E+01  1.9126857953571E+01  1.9126857953571E+01  1.9126857953571E+01  1.9126857953571E+01  1.9126857953571E+01 
 1.2751238635688E+01  1.2751238635688E+01  1.2751238635688E+01  1.2751238635688E+01  1.2751238635688E+01  1.2751238635688E+01  1.2751238635688E+01  1.2751238635688E+01  1.2751238635688E+01  1.2751238635688E+01 
 4.1904907137156E-09  1.0264367232414E-08  2.8811543238555E-08  6.0161781985942E-08  1.0432568372867E-07  1.6131818656152E-07  2.3115857704633E-07  3.1387050391806E-07  4.0948199492935E-07  4.6051640920366E-07 
 1.3977367657826E-01  3.4236786740995E-01  9.6100897145440E-01  2.0066960526938E+00  3.4797823889362E+00  5.3807658374593E+00  7.7102891921615E+00  1.0469140644773E+01  1.3658254352542E+01  1.5360502682095E+01 
 8.6729921869221E-02  7.7137018198073E-02  5.9147896904569E-02  4.3552030054104E-02  3.0349586894577E-02  1.9541546317942E-02  1.1129698249290E-02  5.1166456278714E-03  1.5058069644989E-03  3.0141949911308E-04 
 5.3043754709042E-02  2.6523084921188E-01  9.0186107454983E-01  1.9631440226397E+00  3.4494328020416E+00  5.3612242911413E+00  7.6991594939122E+00  1.0464023999145E+01  1.3656748545578E+01  1.5360201262596E+01 
 0.0000000000000E+00  0.0000000000000E+00  0.0000000000000E+00  0.0000000000000E+00  0.0000000000000E+00  0.0000000000000E+00  0.0000000000000E+00  0.0000000000000E+00  0.0000000000000E+00  0.0000000000000E+00 
 0.0000000000000E+00  0.0000000000000E+00  0.0000000000000E+00  0.0000000000000E+00  0.0000000000000E+00  0.0000000000000E+00  0.0000000000000E+00  0.0000000000000E+00  0.0000000000000E+00  0.0000000000000E+00 
 0.0000000000000E+00  0.0000000000000E+00  0.0000000000000E+00  0.0000000000000E+00  0.0000000000000E+00  0.0000000000000E+00  0.0000000000000E+00  0.0000000000000E+00  0.0000000000000E+00  0.0000000000000E+00 
ZONE T = "CATH, 4.0000E-08", I = 10, SOLUTIONTIME = 4.000000E-08
ZONETYPE = ORDERED
DATAPACKING = BLOCK
STRANDID = 3
 1.2700000000000E-03  1.3377333333333E-03  1.4054666666667E-03  1.4732000000000E-03  1.5409333333333E-03  1.6086666666667E-03  1.6764000000000E-03  1.7441333333333E-03  1.8118666666667E-03  1.8796000000000E-03 
 1.9701176272783E-08  1.7385258966533E-08  1.5069058318082E-08  1.2752741945128E-08  1.0435750888323E-08  8.1182523760527E-09  5.7996869272342E-09  3.4794947002612E-09  1.1582050494251E-09 -3.0872656861856E-12 
 9.2000000000127E-01  9.2000000000359E-01  9.2000000000359E-01  9.2000000000359E-01  9.2000000000360E-01  9.2000000000360E-01  9.2000000000360E-01  9.2000000000360E-01  9.2000000000360E-01  9.2000000000361E-01 
 3.9999999999365E-02  3.9999999998203E-02  3.9999999998203E-02  3.9999999998203E-02  3.9999999998202E-02  3.9999999998201E-02  3.9999999998201E-02  3.9999999998200E-02  3.9999999998198E-02  3.9999999998197E-02 
 3.9999999999365E-02  3.9999999998203E-02  3.9999999998203E-02  3.9999999998203E-02  3.9999999998202E-02  3.9999999998201E-02  3.9999999998201E-02  3.9999999998200E-02  3.9999999998198E-02  3.9999999998197E-02 
 2.9165638048760E-02  2.9165431037356E-02  2.9165248352081E-02  2.9165089995910E-02  2.9164955973875E-02  2.9164846293063E-02  2.9164760962623E-02  2.9164699993761E-02  2.9164663399753E-02  2.9164651195944E-02 
 3.8001746431127E+00  3.8001724882114E+00  3.8001660233439E+00  3.8001552479829E+00  3.8001401612370E+00  3.8001207618502E+00  3.8000970482021E+00  3.8000690183068E+00  3.8000366698123E+00  3.8000000000000E+00 
 3.7710090050639E+00  3.7710070571740E+00  3.7710007749918E+00  3.7709901579870E+00  3.7709752052631E+00  3.7709559155571E+00  3.7709322872395E+00  3.7709043183130E+00  3.7708720064126E+00  3.7708353488041E+00 
 3.9714142713280E+00  3.9714142713273E+00  3.9714142713273E+00  3.9714142713273E+00  3.9714142713273E+00  3.9714142713273E+00  3.9714142713273E+00  3.9714142713273E+00  3.9714142713273E+00  3.9714142713273E+00 
-2.0040526626411E-01 -2.0040721415328E-01 -2.0041349633546E-01 -2.0042411334029E-01 -2.0043906606422E-01 -2.0045835577015E-01 -2.0048198408779E-01 -2.0050995301426E-01 -2.0054226491473E-01 -2.0057892252324E-01 
-1.6672255549763E+00 -3.3345776170623E+00 -3.3349856507804E+00 -3.3356753486684E+00 -3.3366469434277E+00 -3.3379007629917E+00 -3.3394372307634E+00 -3.3412568659184E+00 -3.3433602837782E+00 -1.6728740981272E+00 