TITLE = "Solution on Domain BulkDomain1D_0"
VARIABLES = "x [m]"  
"Vel_axial(0)" 	"MF_sp(ECDMC)" 	"MF_sp(Li+)" 	"MF_sp(PF6-)" 	"Volt(Electroly)" 	"Volt(AnodeVolt)" 	
"Potential Drop Electrode-Electrolyte [V]" 	"Surf_0 Equilibrium Potential Drop Electrode-Electrolyte [V]" 	"Overpotential_0 [V]" 	"Current Source [A/m^2]" 	"Li+ flux [kmol/m^2/s]" 	"Electrolyte Current [A/m^2]" 	"Electrode Current [A/m^2]" 	
"Capacity discharged [A-s]" 	"Depth of discharge [-]" 	"Capacity remaining [A-s]" 	"Initial capacity [A-s]" 	"Porosity []" 	"Surface Area [m2/m2] (area per area)" 	"Specific current (per particle area) [A/m^2]" 	"Control volume thickness [m]" 	
"Moles Li_C6-bulk [mol/m^2] (per electrode area)" 	"Moles V_C6-bulk [mol/m^2] (per electrode area)" 	

ZONE T = "t = 0 [s]" I = 10 SOLUTIONTIME = 0.0000000000000E+00
0 	0 	0.92 	0.04 	0.04 	-0.07 	0 	
0 	0 	0 	0 	0 	0 	15.4651 	
0 	0 	0 	0 	0.35 	8.53017 	3.62598 	4.37444e-05 	
9.29766e-07 	2.32442e-07 	
8.74889e-05 	0 	0.92 	0.04 	0.04 	-0.07 	0 	
0 	0 	0 	0 	0 	0 	-0 	
0 	0 	0 	0 	0.35 	17.0603 	3.62598 	8.74889e-05 	
1.85953e-06 	4.64883e-07 	
0.000174978 	0 	0.92 	0.04 	0.04 	-0.07 	0 	
0 	0 	0 	0 	0 	0 	-0 	
0 	0 	0 	0 	0.35 	17.0603 	3.62598 	8.74889e-05 	
1.85953e-06 	4.64883e-07 	
0.000262467 	0 	0.92 	0.04 	0.04 	-0.07 	0 	
0 	0 	0 	0 	0 	0 	-0 	
0 	0 	0 	0 	0.35 	17.0603 	3.62598 	8.74889e-05 	
1.85953e-06 	4.64883e-07 	
0.000349956 	0 	0.92 	0.04 	0.04 	-0.07 	0 	
0 	0 	0 	0 	0 	0 	-0 	
0 	0 	0 	0 	0.35 	17.0603 	3.62598 	8.74889e-05 	
1.85953e-06 	4.64883e-07 	
0.000437444 	0 	0.92 	0.04 	0.04 	-0.07 	0 	
0 	0 	0 	0 	0 	0 	-0 	
0 	0 	0 	0 	0.35 	17.0603 	3.62598 	8.74889e-05 	
1.85953e-06 	4.64883e-07 	
0.000524933 	0 	0.92 	0.04 	0.04 	-0.07 	0 	
0 	0 	0 	0 	0 	0 	-0 	
0 	0 	0 	0 	0.35 	17.0603 	3.62598 	8.74889e-05 	
1.85953e-06 	4.64883e-07 	
0.000612422 	0 	0.92 	0.04 	0.04 	-0.07 	0 	
0 	0 	0 	0 	0 	0 	-0 	
0 	0 	0 	0 	0.35 	17.0603 	3.62598 	8.74889e-05 	
1.85953e-06 	4.64883e-07 	
0.000699911 	0 	0.92 	0.04 	0.04 	-0.07 	0 	
0 	0 	0 	0 	0 	0 	-0 	
0 	0 	0 	0 	0.35 	17.0603 	3.62598 	8.74889e-05 	
1.85953e-06 	4.64883e-07 	
0.0007874 	0 	0.92 	0.04 	0.04 	-0.07 	0 	
0 	0 	0 	0 	0 	15.4651 	0 	
0 	0 	0 	0 	0.35 	8.53017 	3.62598 	4.37444e-05 	
9.29766e-07 	2.32442e-07 	
ZONE T = "t = 1e-08 [s]" I = 10 SOLUTIONTIME = 1.0000000000000E-08
0 	1.16001e-09 	0.92 	0.04 	0.04 	0.0291573 	0 	
0.07 	-0.0409067 	0.110907 	30.9302 	-0 	0.835251 	29.2349 	
7.75205e-10 	11.2136 	0.207974 	0.236079 	0.35 	8.53017 	0.195836 	4.37444e-05 	
9.29766e-07 	2.32442e-07 	
8.74889e-05 	3.48002e-09 	0.92 	0.04 	0.04 	0.0291572 	-2.48465e-09 	
0.07 	-0.0409067 	0.110907 	61.8605 	-0 	3.34101 	26.7291 	
1.55041e-09 	22.4272 	0.415949 	0.472158 	0.35 	17.0603 	0.195836 	8.74889e-05 	
1.85953e-06 	4.64883e-07 	
0.000174978 	5.80005e-09 	0.92 	0.04 	0.04 	0.0291572 	-4.677e-09 	
0.07 	-0.0409067 	0.110907 	61.8605 	-0 	6.68202 	23.3881 	
1.55041e-09 	22.4272 	0.415949 	0.472158 	0.35 	17.0603 	0.195837 	8.74889e-05 	
1.85953e-06 	4.64883e-07 	
0.000262467 	8.12009e-09 	0.92 	0.04 	0.04 	0.0291571 	-6.57705e-09 	
0.07 	-0.0409067 	0.110907 	61.8605 	-0 	10.0231 	20.0471 	
1.55041e-09 	22.4272 	0.415949 	0.472158 	0.35 	17.0603 	0.195838 	8.74889e-05 	
1.85953e-06 	4.64883e-07 	
0.000349956 	1.04401e-08 	0.92 	0.04 	0.04 	0.029157 	-8.1848e-09 	
0.07 	-0.0409067 	0.110907 	61.8605 	-0 	13.3641 	16.706 	
1.55041e-09 	22.4272 	0.415949 	0.472158 	0.35 	17.0603 	0.19584 	8.74889e-05 	
1.85953e-06 	4.64883e-07 	
0.000437444 	1.27602e-08 	0.92 	0.04 	0.04 	0.0291569 	-9.50023e-09 	
0.07 	-0.0409067 	0.110907 	61.8605 	-0 	16.7052 	13.3649 	
1.55041e-09 	22.4272 	0.415949 	0.472158 	0.35 	17.0603 	0.195842 	8.74889e-05 	
1.85953e-06 	4.64883e-07 	
0.000524933 	1.50804e-08 	0.92 	0.04 	0.04 	0.0291567 	-1.05234e-08 	
0.07 	-0.0409067 	0.110907 	61.8605 	-0 	20.0463 	10.0238 	
1.55041e-09 	22.4272 	0.415949 	0.472158 	0.35 	17.0603 	0.195845 	8.74889e-05 	
1.85953e-06 	4.64883e-07 	
0.000612422 	1.74005e-08 	0.92 	0.04 	0.04 	0.0291565 	-1.12542e-08 	
0.07 	-0.0409067 	0.110907 	61.8605 	-0 	23.3875 	6.68259 	
1.55041e-09 	22.4272 	0.415949 	0.472158 	0.35 	17.0603 	0.195849 	8.74889e-05 	
1.85953e-06 	4.64883e-07 	
0.000699911 	1.97207e-08 	0.92 	0.04 	0.04 	0.0291562 	-1.16927e-08 	
0.07 	-0.0409067 	0.110907 	61.8605 	-0 	26.7288 	3.34133 	
1.55041e-09 	22.4272 	0.415949 	0.472158 	0.35 	17.0603 	0.195853 	8.74889e-05 	
1.85953e-06 	4.64883e-07 	
0.0007874 	2.08809e-08 	0.92 	0.04 	0.04 	0.029156 	-1.18388e-08 	
0.07 	-0.0409067 	0.110907 	30.9302 	-0 	29.2348 	0.835342 	
7.75205e-10 	11.2136 	0.207974 	0.236079 	0.35 	8.53017 	0.195857 	4.37444e-05 	
9.29766e-07 	2.32442e-07 	
ZONE T = "t = 2e-08 [s]" I = 10 SOLUTIONTIME = 2.0000000000000E-08
0 	1.16001e-09 	0.92 	0.04 	0.04 	0.0291573 	0 	
-0.0291573 	-0.0409067 	0.0117495 	1.67051 	8.65677e-09 	0.835256 	29.2351 	
4.18681e-11 	11.2136 	0.207974 	0.236079 	0.35 	8.53017 	0.195836 	4.37444e-05 	
9.29766e-07 	2.32442e-07 	
8.74889e-05 	3.48004e-09 	0.92 	0.04 	0.04 	0.0291572 	-2.48467e-09 	
-0.0291572 	-0.0409067 	0.0117495 	3.34103 	2.59703e-08 	3.34103 	26.7293 	
8.37362e-11 	22.4272 	0.415949 	0.472158 	0.35 	17.0603 	0.195836 	8.74889e-05 	
1.85953e-06 	4.64883e-07 	
0.000174978 	5.80008e-09 	0.92 	0.04 	0.04 	0.0291572 	-4.67703e-09 	
-0.0291572 	-0.0409067 	0.0117495 	3.34104 	4.32839e-08 	6.68206 	23.3883 	
8.37365e-11 	22.4272 	0.415949 	0.472158 	0.35 	17.0603 	0.195837 	8.74889e-05 	
1.85953e-06 	4.64883e-07 	
0.000262467 	8.12014e-09 	0.92 	0.04 	0.04 	0.0291571 	-6.57709e-09 	
-0.0291571 	-0.0409067 	0.0117496 	3.34106 	6.05977e-08 	10.0231 	20.0472 	
8.37371e-11 	22.4272 	0.415949 	0.472158 	0.35 	17.0603 	0.195838 	8.74889e-05 	
1.85953e-06 	4.64883e-07 	
0.000349956 	1.04402e-08 	0.92 	0.04 	0.04 	0.029157 	-8.18485e-09 	
-0.029157 	-0.0409067 	0.0117497 	3.3411 	7.79116e-08 	13.3642 	16.7061 	
8.37379e-11 	22.4272 	0.415949 	0.472158 	0.35 	17.0603 	0.19584 	8.74889e-05 	
1.85953e-06 	4.64883e-07 	
0.000437444 	1.27603e-08 	0.92 	0.04 	0.04 	0.0291569 	-9.50029e-09 	
-0.0291569 	-0.0409067 	0.0117498 	3.34114 	9.52257e-08 	16.7053 	13.365 	
8.37389e-11 	22.4272 	0.415949 	0.472158 	0.35 	17.0603 	0.195842 	8.74889e-05 	
1.85953e-06 	4.64883e-07 	
0.000524933 	1.50805e-08 	0.92 	0.04 	0.04 	0.0291567 	-1.05234e-08 	
-0.0291567 	-0.0409067 	0.01175 	3.34119 	1.1254e-07 	20.0465 	10.0238 	
8.37402e-11 	22.4272 	0.415949 	0.472158 	0.35 	17.0603 	0.195845 	8.74889e-05 	
1.85953e-06 	4.64883e-07 	
0.000612422 	1.74006e-08 	0.92 	0.04 	0.04 	0.0291565 	-1.12542e-08 	
-0.0291565 	-0.0409067 	0.0117502 	3.34125 	1.29855e-07 	23.3877 	6.68263 	
8.37416e-11 	22.4272 	0.415949 	0.472158 	0.35 	17.0603 	0.195849 	8.74889e-05 	
1.85953e-06 	4.64883e-07 	
0.000699911 	1.97209e-08 	0.92 	0.04 	0.04 	0.0291562 	-1.16927e-08 	
-0.0291563 	-0.0409067 	0.0117505 	3.34131 	1.4717e-07 	26.729 	3.34135 	
8.37433e-11 	22.4272 	0.415949 	0.472158 	0.35 	17.0603 	0.195853 	8.74889e-05 	
1.85953e-06 	4.64883e-07 	
0.0007874 	2.0881e-08 	0.92 	0.04 	0.04 	0.029156 	-1.18389e-08 	
-0.029156 	-0.0409067 	0.0117507 	1.6707 	1.4717e-07 	29.235 	0.835348 	
4.18726e-11 	11.2136 	0.207974 	0.236079 	0.35 	8.53017 	0.195857 	4.37444e-05 	
9.29766e-07 	2.32442e-07 	
ZONE T = "t = 3e-08 [s]" I = 10 SOLUTIONTIME = 3.0000000000000E-08
0 	1.16001e-09 	0.92 	0.04 	0.04 	0.0291573 	0 	
-0.0291573 	-0.0409067 	0.0117495 	1.67051 	8.65682e-09 	0.835256 	29.2351 	
8.37361e-11 	11.2136 	0.207974 	0.236079 	0.35 	8.53017 	0.195836 	4.37444e-05 	
9.29766e-07 	2.32442e-07 	
8.74889e-05 	3.48004e-09 	0.92 	0.04 	0.04 	0.0291572 	-2.48467e-09 	
-0.0291572 	-0.0409067 	0.0117495 	3.34103 	2.59705e-08 	3.34103 	26.7293 	
1.67472e-10 	22.4272 	0.415949 	0.472158 	0.35 	17.0603 	0.195836 	8.74889e-05 	
1.85953e-06 	4.64883e-07 	
0.000174978 	5.80008e-09 	0.92 	0.04 	0.04 	0.0291572 	-4.67703e-09 	
-0.0291572 	-0.0409067 	0.0117495 	3.34104 	4.32842e-08 	6.68206 	23.3883 	
1.67473e-10 	22.4272 	0.415949 	0.472158 	0.35 	17.0603 	0.195837 	8.74889e-05 	
1.85953e-06 	4.64883e-07 	
0.000262467 	8.12014e-09 	0.92 	0.04 	0.04 	0.0291571 	-6.57709e-09 	
-0.0291571 	-0.0409067 	0.0117496 	3.34106 	6.05981e-08 	10.0231 	20.0472 	
1.67474e-10 	22.4272 	0.415949 	0.472158 	0.35 	17.0603 	0.195838 	8.74889e-05 	
1.85953e-06 	4.64883e-07 	
0.000349956 	1.04402e-08 	0.92 	0.04 	0.04 	0.029157 	-8.18485e-09 	
-0.029157 	-0.0409067 	0.0117497 	3.3411 	7.79121e-08 	13.3642 	16.7061 	
1.67476e-10 	22.4272 	0.415949 	0.472158 	0.35 	17.0603 	0.19584 	8.74889e-05 	
1.85953e-06 	4.64883e-07 	
0.000437444 	1.27603e-08 	0.92 	0.04 	0.04 	0.0291569 	-9.50029e-09 	
-0.0291569 	-0.0409067 	0.0117498 	3.34114 	9.52263e-08 	16.7053 	13.365 	
1.67478e-10 	22.4272 	0.415949 	0.472158 	0.35 	17.0603 	0.195842 	8.74889e-05 	
1.85953e-06 	4.64883e-07 	
0.000524933 	1.50805e-08 	0.92 	0.04 	0.04 	0.0291567 	-1.05234e-08 	
-0.0291567 	-0.0409067 	0.01175 	3.34119 	1.12541e-07 	20.0465 	10.0238 	
1.6748e-10 	22.4272 	0.415949 	0.472158 	0.35 	17.0603 	0.195845 	8.74889e-05 	
1.85953e-06 	4.64883e-07 	
0.000612422 	1.74006e-08 	0.92 	0.04 	0.04 	0.0291565 	-1.12542e-08 	
-0.0291565 	-0.0409067 	0.0117502 	3.34124 	1.29856e-07 	23.3877 	6.68263 	
1.67483e-10 	22.4272 	0.415949 	0.472158 	0.35 	17.0603 	0.195849 	8.74889e-05 	
1.85953e-06 	4.64883e-07 	
0.000699911 	1.97209e-08 	0.92 	0.04 	0.04 	0.0291562 	-1.16927e-08 	
-0.0291563 	-0.0409067 	0.0117505 	3.34131 	1.47171e-07 	26.729 	3.34135 	
1.67487e-10 	22.4272 	0.415949 	0.472158 	0.35 	17.0603 	0.195853 	8.74889e-05 	
1.85953e-06 	4.64883e-07 	
0.0007874 	2.0881e-08 	0.92 	0.04 	0.04 	0.029156 	-1.18389e-08 	
-0.029156 	-0.0409067 	0.0117507 	1.6707 	1.47171e-07 	29.235 	0.835348 	
8.37453e-11 	11.2136 	0.207974 	0.236079 	0.35 	8.53017 	0.195857 	4.37444e-05 	
9.29766e-07 	2.32442e-07 	
ZONE T = "t = 4e-08 [s]" I = 10 SOLUTIONTIME = 4.0000000000000E-08
0 	1.16001e-09 	0.92 	0.04 	0.04 	0.0291573 	0 	
-0.0291573 	-0.0409067 	0.0117495 	1.67051 	8.65682e-09 	0.835256 	29.2351 	
1.25604e-10 	11.2136 	0.207974 	0.236079 	0.35 	8.53017 	0.195836 	4.37444e-05 	
9.29766e-07 	2.32442e-07 	
8.74889e-05 	3.48004e-09 	0.92 	0.04 	0.04 	0.0291572 	-2.48467e-09 	
-0.0291572 	-0.0409067 	0.0117495 	3.34103 	2.59705e-08 	3.34103 	26.7293 	
2.51209e-10 	22.4272 	0.415949 	0.472158 	0.35 	17.0603 	0.195836 	8.74889e-05 	
1.85953e-06 	4.64883e-07 	
0.000174978 	5.80008e-09 	0.92 	0.04 	0.04 	0.0291572 	-4.67703e-09 	
-0.0291572 	-0.0409067 	0.0117495 	3.34104 	4.32842e-08 	6.68206 	23.3883 	
2.5121e-10 	22.4272 	0.415949 	0.472158 	0.35 	17.0603 	0.195837 	8.74889e-05 	
1.85953e-06 	4.64883e-07 	
0.000262467 	8.12014e-09 	0.92 	0.04 	0.04 	0.0291571 	-6.57709e-09 	
-0.0291571 	-0.0409067 	0.0117496 	3.34106 	6.05981e-08 	10.0231 	20.0472 	
2.51211e-10 	22.4272 	0.415949 	0.472158 	0.35 	17.0603 	0.195838 	8.74889e-05 	
1.85953e-06 	4.64883e-07 	
0.000349956 	1.04402e-08 	0.92 	0.04 	0.04 	0.029157 	-8.18485e-09 	
-0.029157 	-0.0409067 	0.0117497 	3.3411 	7.79121e-08 	13.3642 	16.7061 	
2.51214e-10 	22.4272 	0.415949 	0.472158 	0.35 	17.0603 	0.19584 	8.74889e-05 	
1.85953e-06 	4.64883e-07 	
0.000437444 	1.27603e-08 	0.92 	0.04 	0.04 	0.0291569 	-9.50029e-09 	
-0.0291569 	-0.0409067 	0.0117498 	3.34114 	9.52263e-08 	16.7053 	13.365 	
2.51217e-10 	22.4272 	0.415949 	0.472158 	0.35 	17.0603 	0.195842 	8.74889e-05 	
1.85953e-06 	4.64883e-07 	
0.000524933 	1.50805e-08 	0.92 	0.04 	0.04 	0.0291567 	-1.05234e-08 	
-0.0291567 	-0.0409067 	0.01175 	3.34119 	1.12541e-07 	20.0465 	10.0238 	
2.5122e-10 	22.4272 	0.415949 	0.472158 	0.35 	17.0603 	0.195845 	8.74889e-05 	
1.85953e-06 	4.64883e-07 	
0.000612422 	1.74006e-08 	0.92 	0.04 	0.04 	0.0291565 	-1.12542e-08 	
-0.0291565 	-0.0409067 	0.0117502 	3.34124 	1.29856e-07 	23.3877 	6.68263 	
2.51225e-10 	22.4272 	0.415949 	0.472158 	0.35 	17.0603 	0.195849 	8.74889e-05 	
1.85953e-06 	4.64883e-07 	
0.000699911 	1.97209e-08 	0.92 	0.04 	0.04 	0.0291562 	-1.16927e-08 	
-0.0291563 	-0.0409067 	0.0117505 	3.34131 	1.47171e-07 	26.729 	3.34135 	
2.5123e-10 	22.4272 	0.415949 	0.472158 	0.35 	17.0603 	0.195853 	8.74889e-05 	
1.85953e-06 	4.64883e-07 	
0.0007874 	2.0881e-08 	0.92 	0.04 	0.04 	0.029156 	-1.18389e-08 	
-0.029156 	-0.0409067 	0.0117507 	1.6707 	1.47171e-07 	29.235 	0.835348 	
1.25618e-10 	11.2136 	0.207974 	0.236079 	0.35 	8.53017 	0.195857 	4.37444e-05 	
9.29766e-07 	2.32442e-07 	
ZONE T = "t = 5.5e-08 [s]" I = 10 SOLUTIONTIME = 5.5000000000000E-08
0 	1.16001e-09 	0.92 	0.04 	0.04 	0.0291573 	0 	
-0.0291573 	-0.0409067 	0.0117495 	1.67051 	8.65682e-09 	0.835256 	29.2351 	
1.67472e-10 	11.2136 	0.207974 	0.236079 	0.35 	8.53017 	0.195836 	4.37444e-05 	
9.29766e-07 	2.32442e-07 	
8.74889e-05 	3.48004e-09 	0.92 	0.04 	0.04 	0.0291572 	-2.48467e-09 	
-0.0291572 	-0.0409067 	0.0117495 	3.34103 	2.59705e-08 	3.34103 	26.7293 	
3.34945e-10 	22.4272 	0.415949 	0.472158 	0.35 	17.0603 	0.195836 	8.74889e-05 	
1.85953e-06 	4.64883e-07 	
0.000174978 	5.80008e-09 	0.92 	0.04 	0.04 	0.0291572 	-4.67703e-09 	
-0.0291572 	-0.0409067 	0.0117495 	3.34104 	4.32842e-08 	6.68206 	23.3883 	
3.34946e-10 	22.4272 	0.415949 	0.472158 	0.35 	17.0603 	0.195837 	8.74889e-05 	
1.85953e-06 	4.64883e-07 	
0.000262467 	8.12014e-09 	0.92 	0.04 	0.04 	0.0291571 	-6.57709e-09 	
-0.0291571 	-0.0409067 	0.0117496 	3.34106 	6.05981e-08 	10.0231 	20.0472 	
3.34948e-10 	22.4272 	0.415949 	0.472158 	0.35 	17.0603 	0.195838 	8.74889e-05 	
1.85953e-06 	4.64883e-07 	
0.000349956 	1.04402e-08 	0.92 	0.04 	0.04 	0.029157 	-8.18485e-09 	
-0.029157 	-0.0409067 	0.0117497 	3.3411 	7.79121e-08 	13.3642 	16.7061 	
3.34952e-10 	22.4272 	0.415949 	0.472158 	0.35 	17.0603 	0.19584 	8.74889e-05 	
1.85953e-06 	4.64883e-07 	
0.000437444 	1.27603e-08 	0.92 	0.04 	0.04 	0.0291569 	-9.50029e-09 	
-0.0291569 	-0.0409067 	0.0117498 	3.34114 	9.52263e-08 	16.7053 	13.365 	
3.34956e-10 	22.4272 	0.415949 	0.472158 	0.35 	17.0603 	0.195842 	8.74889e-05 	
1.85953e-06 	4.64883e-07 	
0.000524933 	1.50805e-08 	0.92 	0.04 	0.04 	0.0291567 	-1.05234e-08 	
-0.0291567 	-0.0409067 	0.01175 	3.34119 	1.12541e-07 	20.0465 	10.0238 	
3.34961e-10 	22.4272 	0.415949 	0.472158 	0.35 	17.0603 	0.195845 	8.74889e-05 	
1.85953e-06 	4.64883e-07 	
0.000612422 	1.74006e-08 	0.92 	0.04 	0.04 	0.0291565 	-1.12542e-08 	
-0.0291565 	-0.0409067 	0.0117502 	3.34124 	1.29856e-07 	23.3877 	6.68263 	
3.34966e-10 	22.4272 	0.415949 	0.472158 	0.35 	17.0603 	0.195849 	8.74889e-05 	
1.85953e-06 	4.64883e-07 	
0.000699911 	1.97209e-08 	0.92 	0.04 	0.04 	0.0291562 	-1.16927e-08 	
-0.0291563 	-0.0409067 	0.0117505 	3.34131 	1.47171e-07 	26.729 	3.34135 	
3.34973e-10 	22.4272 	0.415949 	0.472158 	0.35 	17.0603 	0.195853 	8.74889e-05 	
1.85953e-06 	4.64883e-07 	
0.0007874 	2.0881e-08 	0.92 	0.04 	0.04 	0.029156 	-1.18389e-08 	
-0.029156 	-0.0409067 	0.0117507 	1.6707 	1.47171e-07 	29.235 	0.835348 	
1.67491e-10 	11.2136 	0.207974 	0.236079 	0.35 	8.53017 	0.195857 	4.37444e-05 	
9.29766e-07 	2.32442e-07 	
ZONE T = "t = 7.75e-08 [s]" I = 10 SOLUTIONTIME = 7.7500000000000E-08
0 	1.16001e-09 	0.92 	0.04 	0.04 	0.0291573 	0 	
-0.0291573 	-0.0409067 	0.0117495 	1.67051 	8.65682e-09 	0.835256 	29.2351 	
2.30274e-10 	11.2136 	0.207974 	0.236079 	0.35 	8.53017 	0.195836 	4.37444e-05 	
9.29766e-07 	2.32442e-07 	
8.74889e-05 	3.48004e-09 	0.92 	0.04 	0.04 	0.0291572 	-2.48467e-09 	
-0.0291572 	-0.0409067 	0.0117495 	3.34103 	2.59705e-08 	3.34103 	26.7293 	
4.60549e-10 	22.4272 	0.415949 	0.472158 	0.35 	17.0603 	0.195836 	8.74889e-05 	
1.85953e-06 	4.64883e-07 	
0.000174978 	5.80008e-09 	0.92 	0.04 	0.04 	0.0291572 	-4.67703e-09 	
-0.0291572 	-0.0409067 	0.0117495 	3.34104 	4.32842e-08 	6.68206 	23.3883 	
4.60551e-10 	22.4272 	0.415949 	0.472158 	0.35 	17.0603 	0.195837 	8.74889e-05 	
1.85953e-06 	4.64883e-07 	
0.000262467 	8.12014e-09 	0.92 	0.04 	0.04 	0.0291571 	-6.57709e-09 	
-0.0291571 	-0.0409067 	0.0117496 	3.34106 	6.05981e-08 	10.0231 	20.0472 	
4.60554e-10 	22.4272 	0.415949 	0.472158 	0.35 	17.0603 	0.195838 	8.74889e-05 	
1.85953e-06 	4.64883e-07 	
0.000349956 	1.04402e-08 	0.92 	0.04 	0.04 	0.029157 	-8.18485e-09 	
-0.029157 	-0.0409067 	0.0117497 	3.3411 	7.79121e-08 	13.3642 	16.7061 	
4.60558e-10 	22.4272 	0.415949 	0.472158 	0.35 	17.0603 	0.19584 	8.74889e-05 	
1.85953e-06 	4.64883e-07 	
0.000437444 	1.27603e-08 	0.92 	0.04 	0.04 	0.0291569 	-9.50029e-09 	
-0.0291569 	-0.0409067 	0.0117498 	3.34114 	9.52263e-08 	16.7053 	13.365 	
4.60564e-10 	22.4272 	0.415949 	0.472158 	0.35 	17.0603 	0.195842 	8.74889e-05 	
1.85953e-06 	4.64883e-07 	
0.000524933 	1.50805e-08 	0.92 	0.04 	0.04 	0.0291567 	-1.05234e-08 	
-0.0291567 	-0.0409067 	0.01175 	3.34119 	1.12541e-07 	20.0465 	10.0238 	
4.60571e-10 	22.4272 	0.415949 	0.472158 	0.35 	17.0603 	0.195845 	8.74889e-05 	
1.85953e-06 	4.64883e-07 	
0.000612422 	1.74006e-08 	0.92 	0.04 	0.04 	0.0291565 	-1.12542e-08 	
-0.0291565 	-0.0409067 	0.0117502 	3.34124 	1.29856e-07 	23.3877 	6.68263 	
4.60579e-10 	22.4272 	0.415949 	0.472158 	0.35 	17.0603 	0.195849 	8.74889e-05 	
1.85953e-06 	4.64883e-07 	
0.000699911 	1.97209e-08 	0.92 	0.04 	0.04 	0.0291562 	-1.16927e-08 	
-0.0291563 	-0.0409067 	0.0117505 	3.34131 	1.47171e-07 	26.729 	3.34135 	
4.60588e-10 	22.4272 	0.415949 	0.472158 	0.35 	17.0603 	0.195853 	8.74889e-05 	
1.85953e-06 	4.64883e-07 	
0.0007874 	2.0881e-08 	0.92 	0.04 	0.04 	0.029156 	-1.18389e-08 	
-0.029156 	-0.0409067 	0.0117507 	1.6707 	1.47171e-07 	29.235 	0.835348 	
2.30299e-10 	11.2136 	0.207974 	0.236079 	0.35 	8.53017 	0.195857 	4.37444e-05 	
9.29766e-07 	2.32442e-07 	
ZONE T = "t = 1.1125e-07 [s]" I = 10 SOLUTIONTIME = 1.1125000000000E-07
0 	1.16001e-09 	0.92 	0.04 	0.04 	0.0291573 	0 	
-0.0291573 	-0.0409067 	0.0117495 	1.67051 	8.65682e-09 	0.835256 	29.2351 	
3.24477e-10 	11.2136 	0.207974 	0.236079 	0.35 	8.53017 	0.195836 	4.37444e-05 	
9.29766e-07 	2.32442e-07 	
8.74889e-05 	3.48004e-09 	0.92 	0.04 	0.04 	0.0291572 	-2.48467e-09 	
-0.0291572 	-0.0409067 	0.0117495 	3.34103 	2.59705e-08 	3.34103 	26.7293 	
6.48956e-10 	22.4272 	0.415949 	0.472158 	0.35 	17.0603 	0.195836 	8.74889e-05 	
1.85953e-06 	4.64883e-07 	
0.000174978 	5.80008e-09 	0.92 	0.04 	0.04 	0.0291572 	-4.67703e-09 	
-0.0291572 	-0.0409067 	0.0117495 	3.34104 	4.32842e-08 	6.68206 	23.3883 	
6.48958e-10 	22.4272 	0.415949 	0.472158 	0.35 	17.0603 	0.195837 	8.74889e-05 	
1.85953e-06 	4.64883e-07 	
0.000262467 	8.12014e-09 	0.92 	0.04 	0.04 	0.0291571 	-6.57709e-09 	
-0.0291571 	-0.0409067 	0.0117496 	3.34106 	6.05981e-08 	10.0231 	20.0472 	
6.48962e-10 	22.4272 	0.415949 	0.472158 	0.35 	17.0603 	0.195838 	8.74889e-05 	
1.85953e-06 	4.64883e-07 	
0.000349956 	1.04402e-08 	0.92 	0.04 	0.04 	0.029157 	-8.18485e-09 	
-0.029157 	-0.0409067 	0.0117497 	3.3411 	7.79121e-08 	13.3642 	16.7061 	
6.48969e-10 	22.4272 	0.415949 	0.472158 	0.35 	17.0603 	0.19584 	8.74889e-05 	
1.85953e-06 	4.64883e-07 	
0.000437444 	1.27603e-08 	0.92 	0.04 	0.04 	0.0291569 	-9.50029e-09 	
-0.0291569 	-0.0409067 	0.0117498 	3.34114 	9.52263e-08 	16.7053 	13.365 	
6.48976e-10 	22.4272 	0.415949 	0.472158 	0.35 	17.0603 	0.195842 	8.74889e-05 	
1.85953e-06 	4.64883e-07 	
0.000524933 	1.50805e-08 	0.92 	0.04 	0.04 	0.0291567 	-1.05234e-08 	
-0.0291567 	-0.0409067 	0.01175 	3.34119 	1.12541e-07 	20.0465 	10.0238 	
6.48986e-10 	22.4272 	0.415949 	0.472158 	0.35 	17.0603 	0.195845 	8.74889e-05 	
1.85953e-06 	4.64883e-07 	
0.000612422 	1.74006e-08 	0.92 	0.04 	0.04 	0.0291565 	-1.12542e-08 	
-0.0291565 	-0.0409067 	0.0117502 	3.34124 	1.29856e-07 	23.3877 	6.68263 	
6.48998e-10 	22.4272 	0.415949 	0.472158 	0.35 	17.0603 	0.195849 	8.74889e-05 	
1.85953e-06 	4.64883e-07 	
0.000699911 	1.97209e-08 	0.92 	0.04 	0.04 	0.0291562 	-1.16927e-08 	
-0.0291563 	-0.0409067 	0.0117505 	3.34131 	1.47171e-07 	26.729 	3.34135 	
6.49011e-10 	22.4272 	0.415949 	0.472158 	0.35 	17.0603 	0.195853 	8.74889e-05 	
1.85953e-06 	4.64883e-07 	
0.0007874 	2.0881e-08 	0.92 	0.04 	0.04 	0.029156 	-1.18389e-08 	
-0.029156 	-0.0409067 	0.0117507 	1.6707 	1.47171e-07 	29.235 	0.835348 	
3.24513e-10 	11.2136 	0.207974 	0.236079 	0.35 	8.53017 	0.195857 	4.37444e-05 	
9.29766e-07 	2.32442e-07 	
ZONE T = "t = 1.61875e-07 [s]" I = 10 SOLUTIONTIME = 1.6187500000000E-07
0 	1.16001e-09 	0.92 	0.04 	0.04 	0.0291573 	0 	
-0.0291573 	-0.0409067 	0.0117495 	1.67051 	8.65682e-09 	0.835256 	29.2351 	
4.65782e-10 	11.2136 	0.207974 	0.236079 	0.35 	8.53017 	0.195836 	4.37444e-05 	
9.29766e-07 	2.32442e-07 	
8.74889e-05 	3.48004e-09 	0.92 	0.04 	0.04 	0.0291572 	-2.48467e-09 	
-0.0291572 	-0.0409067 	0.0117495 	3.34103 	2.59705e-08 	3.34103 	26.7293 	
9.31565e-10 	22.4272 	0.415949 	0.472158 	0.35 	17.0603 	0.195836 	8.74889e-05 	
1.85953e-06 	4.64883e-07 	
0.000174978 	5.80008e-09 	0.92 	0.04 	0.04 	0.0291572 	-4.67703e-09 	
-0.0291572 	-0.0409067 	0.0117495 	3.34104 	4.32842e-08 	6.68206 	23.3883 	
9.31569e-10 	22.4272 	0.415949 	0.472158 	0.35 	17.0603 	0.195837 	8.74889e-05 	
1.85953e-06 	4.64883e-07 	
0.000262467 	8.12014e-09 	0.92 	0.04 	0.04 	0.0291571 	-6.57709e-09 	
-0.0291571 	-0.0409067 	0.0117496 	3.34106 	6.05981e-08 	10.0231 	20.0472 	
9.31575e-10 	22.4272 	0.415949 	0.472158 	0.35 	17.0603 	0.195838 	8.74889e-05 	
1.85953e-06 	4.64883e-07 	
0.000349956 	1.04402e-08 	0.92 	0.04 	0.04 	0.029157 	-8.18485e-09 	
-0.029157 	-0.0409067 	0.0117497 	3.3411 	7.79121e-08 	13.3642 	16.7061 	
9.31584e-10 	22.4272 	0.415949 	0.472158 	0.35 	17.0603 	0.19584 	8.74889e-05 	
1.85953e-06 	4.64883e-07 	
0.000437444 	1.27603e-08 	0.92 	0.04 	0.04 	0.0291569 	-9.50029e-09 	
-0.0291569 	-0.0409067 	0.0117498 	3.34114 	9.52263e-08 	16.7053 	13.365 	
9.31595e-10 	22.4272 	0.415949 	0.472158 	0.35 	17.0603 	0.195842 	8.74889e-05 	
1.85953e-06 	4.64883e-07 	
0.000524933 	1.50805e-08 	0.92 	0.04 	0.04 	0.0291567 	-1.05234e-08 	
-0.0291567 	-0.0409067 	0.01175 	3.34119 	1.12541e-07 	20.0465 	10.0238 	
9.31609e-10 	22.4272 	0.415949 	0.472158 	0.35 	17.0603 	0.195845 	8.74889e-05 	
1.85953e-06 	4.64883e-07 	
0.000612422 	1.74006e-08 	0.92 	0.04 	0.04 	0.0291565 	-1.12542e-08 	
-0.0291565 	-0.0409067 	0.0117502 	3.34124 	1.29856e-07 	23.3877 	6.68263 	
9.31626e-10 	22.4272 	0.415949 	0.472158 	0.35 	17.0603 	0.195849 	8.74889e-05 	
1.85953e-06 	4.64883e-07 	
0.000699911 	1.97209e-08 	0.92 	0.04 	0.04 	0.0291562 	-1.16927e-08 	
-0.0291563 	-0.0409067 	0.0117505 	3.34131 	1.47171e-07 	26.729 	3.34135 	
9.31645e-10 	22.4272 	0.415949 	0.472158 	0.35 	17.0603 	0.195853 	8.74889e-05 	
1.85953e-06 	4.64883e-07 	
0.0007874 	2.0881e-08 	0.92 	0.04 	0.04 	0.029156 	-1.18389e-08 	
-0.029156 	-0.0409067 	0.0117507 	1.6707 	1.47171e-07 	29.235 	0.835348 	
4.65833e-10 	11.2136 	0.207974 	0.236079 	0.35 	8.53017 	0.195857 	4.37444e-05 	
9.29766e-07 	2.32442e-07 	
ZONE T = "t = 2.37813e-07 [s]" I = 10 SOLUTIONTIME = 2.3781250000000E-07
0 	1.16001e-09 	0.92 	0.04 	0.04 	0.0291572 	0 	
-0.0291573 	-0.0409067 	0.0117495 	1.67051 	8.65682e-09 	0.835256 	29.2351 	
6.77739e-10 	11.2136 	0.207974 	0.236079 	0.35 	8.53017 	0.195836 	4.37444e-05 	
9.29766e-07 	2.32442e-07 	
8.74889e-05 	3.48004e-09 	0.92 	0.04 	0.04 	0.0291572 	-2.48467e-09 	
-0.0291572 	-0.0409067 	0.0117495 	3.34103 	2.59705e-08 	3.34103 	26.7293 	
1.35548e-09 	22.4272 	0.415949 	0.472158 	0.35 	17.0603 	0.195836 	8.74889e-05 	
1.85953e-06 	4.64883e-07 	
0.000174978 	5.80008e-09 	0.92 	0.04 	0.04 	0.0291572 	-4.67703e-09 	
-0.0291572 	-0.0409067 	0.0117495 	3.34104 	4.32842e-08 	6.68206 	23.3883 	
1.35549e-09 	22.4272 	0.415949 	0.472158 	0.35 	17.0603 	0.195837 	8.74889e-05 	
1.85953e-06 	4.64883e-07 	
0.000262467 	8.12014e-09 	0.92 	0.04 	0.04 	0.0291571 	-6.57709e-09 	
-0.0291571 	-0.0409067 	0.0117496 	3.34106 	6.0598e-08 	10.0231 	20.0472 	
1.35549e-09 	22.4272 	0.415949 	0.472158 	0.35 	17.0603 	0.195838 	8.74889e-05 	
1.85953e-06 	4.64883e-07 	
0.000349956 	1.04402e-08 	0.92 	0.04 	0.04 	0.029157 	-8.18485e-09 	
-0.029157 	-0.0409067 	0.0117497 	3.3411 	7.79121e-08 	13.3642 	16.7061 	
1.35551e-09 	22.4272 	0.415949 	0.472158 	0.35 	17.0603 	0.19584 	8.74889e-05 	
1.85953e-06 	4.64883e-07 	
0.000437444 	1.27603e-08 	0.92 	0.04 	0.04 	0.0291569 	-9.50029e-09 	
-0.0291569 	-0.0409067 	0.0117498 	3.34114 	9.52263e-08 	16.7053 	13.365 	
1.35552e-09 	22.4272 	0.415949 	0.472158 	0.35 	17.0603 	0.195842 	8.74889e-05 	
1.85953e-06 	4.64883e-07 	
0.000524933 	1.50805e-08 	0.92 	0.04 	0.04 	0.0291567 	-1.05234e-08 	
-0.0291567 	-0.0409067 	0.01175 	3.34119 	1.12541e-07 	20.0465 	10.0238 	
1.35554e-09 	22.4272 	0.415949 	0.472158 	0.35 	17.0603 	0.195845 	8.74889e-05 	
1.85953e-06 	4.64883e-07 	
0.000612422 	1.74006e-08 	0.92 	0.04 	0.04 	0.0291565 	-1.12542e-08 	
-0.0291565 	-0.0409067 	0.0117502 	3.34124 	1.29856e-07 	23.3877 	6.68263 	
1.35557e-09 	22.4272 	0.415949 	0.472158 	0.35 	17.0603 	0.195849 	8.74889e-05 	
1.85953e-06 	4.64883e-07 	
0.000699911 	1.97209e-08 	0.92 	0.04 	0.04 	0.0291562 	-1.16927e-08 	
-0.0291563 	-0.0409067 	0.0117505 	3.34131 	1.47172e-07 	26.729 	3.34135 	
1.3556e-09 	22.4272 	0.415949 	0.472158 	0.35 	17.0603 	0.195853 	8.74889e-05 	
1.85953e-06 	4.64883e-07 	
0.0007874 	2.0881e-08 	0.92 	0.04 	0.04 	0.029156 	-1.18389e-08 	
-0.029156 	-0.0409067 	0.0117507 	1.6707 	1.47172e-07 	29.235 	0.835347 	
6.77813e-10 	11.2136 	0.207974 	0.236079 	0.35 	8.53017 	0.195857 	4.37444e-05 	
9.29766e-07 	2.32442e-07 	
ZONE T = "t = 3.51719e-07 [s]" I = 10 SOLUTIONTIME = 3.5171875000000E-07
0 	1.16001e-09 	0.92 	0.04 	0.04 	0.0291572 	0 	
-0.0291572 	-0.0409067 	0.0117495 	1.67051 	8.65682e-09 	0.835256 	29.2351 	
9.95675e-10 	11.2136 	0.207974 	0.236079 	0.35 	8.53017 	0.195836 	4.37444e-05 	
9.29766e-07 	2.32442e-07 	
8.74889e-05 	3.48004e-09 	0.92 	0.04 	0.04 	0.0291572 	-2.48467e-09 	
-0.0291572 	-0.0409067 	0.0117495 	3.34103 	2.59705e-08 	3.34103 	26.7293 	
1.99135e-09 	22.4272 	0.415949 	0.472158 	0.35 	17.0603 	0.195836 	8.74889e-05 	
1.85953e-06 	4.64883e-07 	
0.000174978 	5.80008e-09 	0.92 	0.04 	0.04 	0.0291572 	-4.67703e-09 	
-0.0291572 	-0.0409067 	0.0117495 	3.34104 	4.32842e-08 	6.68206 	23.3883 	
1.99136e-09 	22.4272 	0.415949 	0.472158 	0.35 	17.0603 	0.195837 	8.74889e-05 	
1.85953e-06 	4.64883e-07 	
0.000262467 	8.12014e-09 	0.92 	0.04 	0.04 	0.0291571 	-6.57709e-09 	
-0.0291571 	-0.0409067 	0.0117496 	3.34106 	6.0598e-08 	10.0231 	20.0472 	
1.99137e-09 	22.4272 	0.415949 	0.472158 	0.35 	17.0603 	0.195838 	8.74889e-05 	
1.85953e-06 	4.64883e-07 	
0.000349956 	1.04402e-08 	0.92 	0.04 	0.04 	0.029157 	-8.18485e-09 	
-0.029157 	-0.0409067 	0.0117497 	3.3411 	7.79121e-08 	13.3642 	16.7061 	
1.99139e-09 	22.4272 	0.415949 	0.472158 	0.35 	17.0603 	0.19584 	8.74889e-05 	
1.85953e-06 	4.64883e-07 	
0.000437444 	1.27603e-08 	0.92 	0.04 	0.04 	0.0291569 	-9.50029e-09 	
-0.0291569 	-0.0409067 	0.0117498 	3.34114 	9.52263e-08 	16.7053 	13.365 	
1.99142e-09 	22.4272 	0.415949 	0.472158 	0.35 	17.0603 	0.195842 	8.74889e-05 	
1.85953e-06 	4.64883e-07 	
0.000524933 	1.50805e-08 	0.92 	0.04 	0.04 	0.0291567 	-1.05234e-08 	
-0.0291567 	-0.0409067 	0.01175 	3.34119 	1.12541e-07 	20.0465 	10.0238 	
1.99145e-09 	22.4272 	0.415949 	0.472158 	0.35 	17.0603 	0.195845 	8.74889e-05 	
1.85953e-06 	4.64883e-07 	
0.000612422 	1.74006e-08 	0.92 	0.04 	0.04 	0.0291565 	-1.12542e-08 	
-0.0291565 	-0.0409067 	0.0117502 	3.34124 	1.29856e-07 	23.3877 	6.68263 	
1.99148e-09 	22.4272 	0.415949 	0.472158 	0.35 	17.0603 	0.195849 	8.74889e-05 	
1.85953e-06 	4.64883e-07 	
0.000699911 	1.97209e-08 	0.92 	0.04 	0.04 	0.0291562 	-1.16927e-08 	
-0.0291563 	-0.0409067 	0.0117505 	3.34131 	1.47172e-07 	26.729 	3.34135 	
1.99152e-09 	22.4272 	0.415949 	0.472158 	0.35 	17.0603 	0.195853 	8.74889e-05 	
1.85953e-06 	4.64883e-07 	
0.0007874 	2.0881e-08 	0.92 	0.04 	0.04 	0.029156 	-1.18389e-08 	
-0.029156 	-0.0409067 	0.0117507 	1.67069 	1.47172e-07 	29.235 	0.835347 	
9.95784e-10 	11.2136 	0.207974 	0.236079 	0.35 	8.53017 	0.195857 	4.37444e-05 	
9.29766e-07 	2.32442e-07 	
ZONE T = "t = 5.22578e-07 [s]" I = 10 SOLUTIONTIME = 5.2257812500000E-07
0 	1.16001e-09 	0.92 	0.04 	0.04 	0.0291572 	0 	
-0.0291572 	-0.0409067 	0.0117495 	1.67051 	8.65682e-09 	0.835256 	29.2351 	
1.47258e-09 	11.2136 	0.207974 	0.236079 	0.35 	8.53017 	0.195836 	4.37444e-05 	
9.29766e-07 	2.32442e-07 	
8.74889e-05 	3.48004e-09 	0.92 	0.04 	0.04 	0.0291572 	-2.48467e-09 	
-0.0291572 	-0.0409067 	0.0117495 	3.34103 	2.59705e-08 	3.34103 	26.7293 	
2.94516e-09 	22.4272 	0.415949 	0.472158 	0.35 	17.0603 	0.195836 	8.74889e-05 	
1.85953e-06 	4.64883e-07 	
0.000174978 	5.80008e-09 	0.92 	0.04 	0.04 	0.0291572 	-4.67703e-09 	
-0.0291572 	-0.0409067 	0.0117495 	3.34104 	4.32842e-08 	6.68206 	23.3882 	
2.94517e-09 	22.4272 	0.415949 	0.472158 	0.35 	17.0603 	0.195837 	8.74889e-05 	
1.85953e-06 	4.64883e-07 	
0.000262467 	8.12014e-09 	0.92 	0.04 	0.04 	0.0291571 	-6.57709e-09 	
-0.0291571 	-0.0409067 	0.0117496 	3.34106 	6.0598e-08 	10.0231 	20.0472 	
2.94519e-09 	22.4272 	0.415949 	0.472158 	0.35 	17.0603 	0.195838 	8.74889e-05 	
1.85953e-06 	4.64883e-07 	
0.000349956 	1.04402e-08 	0.92 	0.04 	0.04 	0.029157 	-8.18484e-09 	
-0.029157 	-0.0409067 	0.0117497 	3.34109 	7.7912e-08 	13.3642 	16.7061 	
2.94522e-09 	22.4272 	0.415949 	0.472158 	0.35 	17.0603 	0.19584 	8.74889e-05 	
1.85953e-06 	4.64883e-07 	
0.000437444 	1.27603e-08 	0.92 	0.04 	0.04 	0.0291569 	-9.50029e-09 	
-0.0291569 	-0.0409067 	0.0117498 	3.34114 	9.52263e-08 	16.7053 	13.365 	
2.94525e-09 	22.4272 	0.415949 	0.472158 	0.35 	17.0603 	0.195842 	8.74889e-05 	
1.85953e-06 	4.64883e-07 	
0.000524933 	1.50805e-08 	0.92 	0.04 	0.04 	0.0291567 	-1.05234e-08 	
-0.0291567 	-0.0409067 	0.01175 	3.34119 	1.12541e-07 	20.0465 	10.0238 	
2.9453e-09 	22.4272 	0.415949 	0.472158 	0.35 	17.0603 	0.195845 	8.74889e-05 	
1.85953e-06 	4.64883e-07 	
0.000612422 	1.74006e-08 	0.92 	0.04 	0.04 	0.0291565 	-1.12542e-08 	
-0.0291565 	-0.0409067 	0.0117502 	3.34124 	1.29856e-07 	23.3877 	6.68263 	
2.94535e-09 	22.4272 	0.415949 	0.472158 	0.35 	17.0603 	0.195849 	8.74889e-05 	
1.85953e-06 	4.64883e-07 	