TITLE = "Solution on Domain BulkDomain1D_2"
VARIABLES = "x [m]"  
"Vel_axial(0)" 	"MF_sp(ECDMC)" 	"MF_sp(Li+)" 	"MF_sp(PF6-)" 	"Volt(Electroly)" 	"Volt(CathodeVo)" 	
"Potential Drop Electrode-Electrolyte [V]" 	"Surf_0 Equilibrium Potential Drop Electrode-Electrolyte [V]" 	"Overpotential_0 [V]" 	"Current Source [A/m^2]" 	"Li+ flux [kmol/m^2/s]" 	"Electrolyte Current [A/m^2]" 	"Electrode Current [A/m^2]" 	
"Capacity discharged [A-s]" 	"Depth of discharge [-]" 	"Capacity remaining [A-s]" 	"Initial capacity [A-s]" 	"Porosity []" 	"Surface Area [m2/m2] (area per area)" 	"Specific current (per particle area) [A/m^2]" 	"Control volume thickness [m]" 	
"Moles LiCoO2 [mol/m^2] (per electrode area)" 	"Moles CoO2 [mol/m^2] (per electrode area)" 	"qHeat_accum [J/m3]" 	"qHeat_step [W/m3]" 	"Joule_Lyte [W/m3]" 	"Joule_Solid [W/m3]" 	"electrodHeat [W/m3]" 	"OverpotHeat [W/m3]" 	"deltaSHeat [W/m3]" 	

ZONE T = "t = 0 [s]" I = 10 SOLUTIONTIME = 0.0000000000000E+00
0.00127 	0 	0.92 	0.04 	0.04 	-0.07 	3.8 	
0 	0 	0 	0 	0 	0.119132 	0 	
0 	0 	0 	0 	0.35 	6.604 	-0.0360787 	3.38667e-05 	
5.39864e-07 	3.5991e-07 	0 	0.0 	 0.0 	 0.0 	 0.0 	 0.0 	 0.0 	 
0.00133773 	0 	0.92 	0.04 	0.04 	-0.07 	3.8 	
0 	0 	0 	0 	0 	0 	-0 	
0 	0 	0 	0 	0.35 	13.208 	-0.0360787 	6.77333e-05 	
1.07973e-06 	7.19819e-07 	0 	0.0 	 0.0 	 0.0 	 0.0 	 0.0 	 0.0 	 
0.00140547 	0 	0.92 	0.04 	0.04 	-0.07 	3.8 	
0 	0 	0 	0 	0 	0 	-0 	
0 	0 	0 	0 	0.35 	13.208 	-0.0360787 	6.77333e-05 	
1.07973e-06 	7.19819e-07 	0 	0.0 	 0.0 	 0.0 	 0.0 	 0.0 	 0.0 	 
0.0014732 	0 	0.92 	0.04 	0.04 	-0.07 	3.8 	
0 	0 	0 	0 	0 	0 	-0 	
0 	0 	0 	0 	0.35 	13.208 	-0.0360787 	6.77333e-05 	
1.07973e-06 	7.19819e-07 	0 	0.0 	 0.0 	 0.0 	 0.0 	 0.0 	 0.0 	 
0.00154093 	0 	0.92 	0.04 	0.04 	-0.07 	3.8 	
0 	0 	0 	0 	0 	0 	-0 	
0 	0 	0 	0 	0.35 	13.208 	-0.0360787 	6.77333e-05 	
1.07973e-06 	7.19819e-07 	0 	0.0 	 0.0 	 0.0 	 0.0 	 0.0 	 0.0 	 
0.00160867 	0 	0.92 	0.04 	0.04 	-0.07 	3.8 	
0 	0 	0 	0 	0 	0 	-0 	
0 	0 	0 	0 	0.35 	13.208 	-0.0360787 	6.77333e-05 	
1.07973e-06 	7.19819e-07 	0 	0.0 	 0.0 	 0.0 	 0.0 	 0.0 	 0.0 	 
0.0016764 	0 	0.92 	0.04 	0.04 	-0.07 	3.8 	
0 	0 	0 	0 	0 	0 	-0 	
0 	0 	0 	0 	0.35 	13.208 	-0.0360787 	6.77333e-05 	
1.07973e-06 	7.19819e-07 	0 	0.0 	 0.0 	 0.0 	 0.0 	 0.0 	 0.0 	 
0.00174413 	0 	0.92 	0.04 	0.04 	-0.07 	3.8 	
0 	0 	0 	0 	0 	0 	-0 	
0 	0 	0 	0 	0.35 	13.208 	-0.0360787 	6.77333e-05 	
1.07973e-06 	7.19819e-07 	0 	0.0 	 0.0 	 0.0 	 0.0 	 0.0 	 0.0 	 
0.00181187 	0 	0.92 	0.04 	0.04 	-0.07 	3.8 	
0 	0 	0 	0 	0 	0 	-0 	
0 	0 	0 	0 	0.35 	13.208 	-0.0360787 	6.77333e-05 	
1.07973e-06 	7.19819e-07 	0 	0.0 	 0.0 	 0.0 	 0.0 	 0.0 	 0.0 	 
0.0018796 	0 	0.92 	0.04 	0.04 	-0.07 	3.8 	
0 	0 	0 	0 	0 	0 	0.119132 	
0 	0 	0 	0 	0.35 	6.604 	-0.0360787 	3.38667e-05 	
5.39864e-07 	3.5991e-07 	0 	0.0 	 0.0 	 0.0 	 0.0 	 0.0 	 0.0 	 
ZONE T = "t = 1e-08 [s]" I = 10 SOLUTIONTIME = 1.0000000000000E-08
0.00127 	3.36921e-08 	0.92 	0.04 	0.04 	0.0211473 	3.80024 	
3.87 	3.97141 	-0.101414 	-0.238264 	-0 	49.9441 	1.4247 	
-0 	4.34075 	0.0739787 	0.0848579 	0.35 	6.604 	-0.431466 	3.38667e-05 	
5.39864e-07 	3.5991e-07 	0 	0 	0 	0 	0 	0 	0 	
0.00133773 	2.97347e-08 	0.92 	0.04 	0.04 	0.021147 	3.80024 	
3.87 	3.97141 	-0.101414 	-0.476527 	-0 	45.6698 	5.69894 	
-0 	8.6815 	0.147957 	0.169716 	0.35 	13.208 	-0.431488 	6.77333e-05 	
1.07973e-06 	7.19819e-07 	0 	0 	0 	0 	0 	0 	0 	
0.00140547 	2.57765e-08 	0.92 	0.04 	0.04 	0.0211467 	3.80023 	
3.87 	3.97141 	-0.101414 	-0.476527 	-0 	39.9703 	11.3985 	
-0 	8.6815 	0.147957 	0.169716 	0.35 	13.208 	-0.43156 	6.77333e-05 	
1.07973e-06 	7.19819e-07 	0 	0 	0 	0 	0 	0 	0 	
0.0014732 	2.18172e-08 	0.92 	0.04 	0.04 	0.0211464 	3.80021 	
3.87 	3.97141 	-0.101414 	-0.476527 	-0 	34.2694 	17.0994 	
-0 	8.6815 	0.147957 	0.169716 	0.35 	13.208 	-0.431683 	6.77333e-05 	
1.07973e-06 	7.19819e-07 	0 	0 	0 	0 	0 	0 	0 	
0.00154093 	1.78564e-08 	0.92 	0.04 	0.04 	0.0211462 	3.80019 	
3.87 	3.97141 	-0.101414 	-0.476527 	-0 	28.5666 	22.8022 	
-0 	8.6815 	0.147957 	0.169716 	0.35 	13.208 	-0.431855 	6.77333e-05 	
1.07973e-06 	7.19819e-07 	0 	0 	0 	0 	0 	0 	0 	
0.00160867 	1.38935e-08 	0.92 	0.04 	0.04 	0.021146 	3.80017 	
3.87 	3.97141 	-0.101414 	-0.476527 	-0 	22.8612 	28.5076 	
-0 	8.6815 	0.147957 	0.169716 	0.35 	13.208 	-0.432079 	6.77333e-05 	
1.07973e-06 	7.19819e-07 	0 	0 	0 	0 	0 	0 	0 	
0.0016764 	9.92808e-09 	0.92 	0.04 	0.04 	0.0211458 	3.80013 	
3.87 	3.97141 	-0.101414 	-0.476527 	-0 	17.1525 	34.2163 	
-0 	8.6815 	0.147957 	0.169716 	0.35 	13.208 	-0.432352 	6.77333e-05 	
1.07973e-06 	7.19819e-07 	0 	0 	0 	0 	0 	0 	0 	
0.00174413 	5.9597e-09 	0.92 	0.04 	0.04 	0.0211457 	3.8001 	
3.87 	3.97141 	-0.101414 	-0.476527 	-0 	11.4398 	39.9289 	
-0 	8.6815 	0.147957 	0.169716 	0.35 	13.208 	-0.432677 	6.77333e-05 	
1.07973e-06 	7.19819e-07 	0 	0 	0 	0 	0 	0 	0 	
0.00181187 	1.98787e-09 	0.92 	0.04 	0.04 	0.0211457 	3.80005 	
3.87 	3.97141 	-0.101414 	-0.476527 	-0 	5.72256 	45.6462 	
-0 	8.6815 	0.147957 	0.169716 	0.35 	13.208 	-0.433052 	6.77333e-05 	
1.07973e-06 	7.19819e-07 	0 	0 	0 	0 	0 	0 	0 	
0.0018796 	0 	0.92 	0.04 	0.04 	0.0211456 	3.8 	
3.87 	3.97141 	-0.101414 	-0.238264 	-0 	1.43134 	49.9374 	
-0 	4.34075 	0.0739787 	0.0848579 	0.35 	6.604 	-0.433478 	3.38667e-05 	
5.39864e-07 	3.5991e-07 	0 	0 	0 	0 	0 	0 	0 	
ZONE T = "t = 2e-08 [s]" I = 10 SOLUTIONTIME = 2.0000000000000E-08
0.00127 	1.97117e-08 	0.92 	0.04 	0.04 	0.0291615 	3.80014 	
3.77909 	3.97141 	-0.192321 	-2.8494 	2.51434e-07 	29.2206 	0.834094 	
7.14145e-11 	4.34075 	0.0739787 	0.0848579 	0.35 	6.604 	-0.252603 	3.38667e-05 	
5.39864e-07 	3.5991e-07 	0 	0 	0 	0 	0 	0 	0 	
0.00133773 	1.73949e-08 	0.92 	0.04 	0.04 	0.0291613 	3.80014 	
3.77909 	3.97141 	-0.192324 	-5.69909 	2.219e-07 	26.7182 	3.33643 	
1.42836e-10 	8.6815 	0.147957 	0.169716 	0.35 	13.208 	-0.25261 	6.77333e-05 	
1.07973e-06 	7.19819e-07 	0 	0 	0 	0 	0 	0 	0 	
0.00140547 	1.50778e-08 	0.92 	0.04 	0.04 	0.0291611 	3.80013 	
3.77908 	3.97141 	-0.192332 	-5.70004 	1.92362e-07 	23.3816 	6.67307 	
1.4286e-10 	8.6815 	0.147957 	0.169716 	0.35 	13.208 	-0.252635 	6.77333e-05 	
1.07973e-06 	7.19819e-07 	0 	0 	0 	0 	0 	0 	0 	
0.0014732 	1.27603e-08 	0.92 	0.04 	0.04 	0.029161 	3.80013 	
3.77907 	3.97141 	-0.192347 	-5.70166 	1.62815e-07 	20.0445 	10.0101 	
1.42901e-10 	8.6815 	0.147957 	0.169716 	0.35 	13.208 	-0.252677 	6.77333e-05 	
1.07973e-06 	7.19819e-07 	0 	0 	0 	0 	0 	0 	0 	
0.00154093 	1.04423e-08 	0.92 	0.04 	0.04 	0.0291609 	3.80011 	
3.77905 	3.97141 	-0.192367 	-5.70395 	1.33257e-07 	16.7068 	13.3479 	
1.42958e-10 	8.6815 	0.147957 	0.169716 	0.35 	13.208 	-0.252736 	6.77333e-05 	
1.07973e-06 	7.19819e-07 	0 	0 	0 	0 	0 	0 	0 	
0.00160867 	8.12354e-09 	0.92 	0.04 	0.04 	0.0291607 	3.8001 	
3.77902 	3.97141 	-0.192394 	-5.70689 	1.03683e-07 	13.3681 	16.6865 	
1.43032e-10 	8.6815 	0.147957 	0.169716 	0.35 	13.208 	-0.252813 	6.77333e-05 	
1.07973e-06 	7.19819e-07 	0 	0 	0 	0 	0 	0 	0 	
0.0016764 	5.80395e-09 	0.92 	0.04 	0.04 	0.0291607 	3.80008 	
3.77899 	3.97141 	-0.192426 	-5.71051 	7.40902e-08 	10.0283 	20.0263 	
1.43123e-10 	8.6815 	0.147957 	0.169716 	0.35 	13.208 	-0.252907 	6.77333e-05 	
1.07973e-06 	7.19819e-07 	0 	0 	0 	0 	0 	0 	0 	
0.00174413 	3.48334e-09 	0.92 	0.04 	0.04 	0.0291606 	3.80006 	
3.77895 	3.97141 	-0.192465 	-5.7148 	4.44754e-08 	6.68722 	23.3674 	
1.4323e-10 	8.6815 	0.147957 	0.169716 	0.35 	13.208 	-0.253018 	6.77333e-05 	
1.07973e-06 	7.19819e-07 	0 	0 	0 	0 	0 	0 	0 	
0.00181187 	1.16156e-09 	0.92 	0.04 	0.04 	0.0291606 	3.80003 	
3.7789 	3.97141 	-0.192509 	-5.71975 	1.48348e-08 	3.34452 	26.7101 	
1.43354e-10 	8.6815 	0.147957 	0.169716 	0.35 	13.208 	-0.253146 	6.77333e-05 	
1.07973e-06 	7.19819e-07 	0 	0 	0 	0 	0 	0 	0 	
0.0018796 	0 	0.92 	0.04 	0.04 	0.0291606 	3.8 	
3.77885 	3.97141 	-0.19256 	-2.86269 	1.48348e-08 	0.83637 	29.2183 	
7.17476e-11 	4.34075 	0.0739787 	0.0848579 	0.35 	6.604 	-0.253292 	3.38667e-05 	
5.39864e-07 	3.5991e-07 	0 	0 	0 	0 	0 	0 	0 	
ZONE T = "t = 3e-08 [s]" I = 10 SOLUTIONTIME = 3.0000000000000E-08
0.00127 	1.97117e-08 	0.92 	0.04 	0.04 	0.0291615 	3.80014 	
3.77098 	3.97141 	-0.200435 	-1.66819 	1.47103e-07 	29.2206 	0.834094 	
1.13224e-10 	4.34075 	0.0739787 	0.0848579 	0.35 	6.604 	-0.252603 	3.38667e-05 	
5.39864e-07 	3.5991e-07 	0 	0 	0 	0 	0 	0 	0 	
0.00133773 	1.73949e-08 	0.92 	0.04 	0.04 	0.0291613 	3.80014 	
3.77098 	3.97141 	-0.200436 	-3.33648 	1.29812e-07 	26.7182 	3.33643 	
2.26458e-10 	8.6815 	0.147957 	0.169716 	0.35 	13.208 	-0.25261 	6.77333e-05 	
1.07973e-06 	7.19819e-07 	0 	0 	0 	0 	0 	0 	0 	
0.00140547 	1.50778e-08 	0.92 	0.04 	0.04 	0.0291611 	3.80013 	
3.77097 	3.97141 	-0.200442 	-3.33681 	1.12521e-07 	23.3816 	6.67306 	
2.26491e-10 	8.6815 	0.147957 	0.169716 	0.35 	13.208 	-0.252635 	6.77333e-05 	
1.07973e-06 	7.19819e-07 	0 	0 	0 	0 	0 	0 	0 	
0.0014732 	1.27603e-08 	0.92 	0.04 	0.04 	0.029161 	3.80013 	
3.77096 	3.97141 	-0.20045 	-3.33736 	9.5226e-08 	20.0445 	10.0101 	
2.26545e-10 	8.6815 	0.147957 	0.169716 	0.35 	13.208 	-0.252677 	6.77333e-05 	
1.07973e-06 	7.19819e-07 	0 	0 	0 	0 	0 	0 	0 	
0.00154093 	1.04423e-08 	0.92 	0.04 	0.04 	0.0291609 	3.80011 	
3.77095 	3.97141 	-0.200462 	-3.33814 	7.79273e-08 	16.7068 	13.3479 	
2.26622e-10 	8.6815 	0.147957 	0.169716 	0.35 	13.208 	-0.252736 	6.77333e-05 	
1.07973e-06 	7.19819e-07 	0 	0 	0 	0 	0 	0 	0 	
0.00160867 	8.12353e-09 	0.92 	0.04 	0.04 	0.0291607 	3.8001 	
3.77094 	3.97141 	-0.200478 	-3.33915 	6.06234e-08 	13.3681 	16.6865 	
2.26721e-10 	8.6815 	0.147957 	0.169716 	0.35 	13.208 	-0.252813 	6.77333e-05 	
1.07973e-06 	7.19819e-07 	0 	0 	0 	0 	0 	0 	0 	
0.0016764 	5.80395e-09 	0.92 	0.04 	0.04 	0.0291607 	3.80008 	
3.77092 	3.97141 	-0.200497 	-3.34039 	4.33131e-08 	10.0283 	20.0263 	
2.26843e-10 	8.6815 	0.147957 	0.169716 	0.35 	13.208 	-0.252907 	6.77333e-05 	
1.07973e-06 	7.19819e-07 	0 	0 	0 	0 	0 	0 	0 	
0.00174413 	3.48334e-09 	0.92 	0.04 	0.04 	0.0291606 	3.80006 	
3.7709 	3.97141 	-0.200519 	-3.34186 	2.59951e-08 	6.68722 	23.3674 	
2.26987e-10 	8.6815 	0.147957 	0.169716 	0.35 	13.208 	-0.253018 	6.77333e-05 	
1.07973e-06 	7.19819e-07 	0 	0 	0 	0 	0 	0 	0 	
0.00181187 	1.16156e-09 	0.92 	0.04 	0.04 	0.0291606 	3.80003 	
3.77087 	3.97141 	-0.200545 	-3.34356 	8.66836e-09 	3.34452 	26.7101 	
2.27154e-10 	8.6815 	0.147957 	0.169716 	0.35 	13.208 	-0.253146 	6.77333e-05 	
1.07973e-06 	7.19819e-07 	0 	0 	0 	0 	0 	0 	0 	
0.0018796 	0 	0.92 	0.04 	0.04 	0.0291606 	3.8 	
3.77084 	3.97141 	-0.200575 	-1.67274 	8.66836e-09 	0.83637 	29.2183 	
1.13672e-10 	4.34075 	0.0739787 	0.0848579 	0.35 	6.604 	-0.253292 	3.38667e-05 	
5.39864e-07 	3.5991e-07 	0 	0 	0 	0 	0 	0 	0 	
ZONE T = "t = 4e-08 [s]" I = 10 SOLUTIONTIME = 4.0000000000000E-08
0.00127 	1.97117e-08 	0.92 	0.04 	0.04 	0.0291615 	3.80014 	
3.77098 	3.97141 	-0.200435 	-1.66819 	1.47103e-07 	29.2206 	0.834095 	
1.55034e-10 	4.34075 	0.0739787 	0.0848579 	0.35 	6.604 	-0.252603 	3.38667e-05 	
5.39864e-07 	3.5991e-07 	0 	0 	0 	0 	0 	0 	0 	
0.00133773 	1.73949e-08 	0.92 	0.04 	0.04 	0.0291613 	3.80014 	
3.77098 	3.97141 	-0.200436 	-3.33648 	1.29812e-07 	26.7182 	3.33643 	
3.10081e-10 	8.6815 	0.147957 	0.169716 	0.35 	13.208 	-0.25261 	6.77333e-05 	
1.07973e-06 	7.19819e-07 	0 	0 	0 	0 	0 	0 	0 	
0.00140547 	1.50778e-08 	0.92 	0.04 	0.04 	0.0291611 	3.80013 	
3.77097 	3.97141 	-0.200442 	-3.33681 	1.12521e-07 	23.3816 	6.67307 	
3.10121e-10 	8.6815 	0.147957 	0.169716 	0.35 	13.208 	-0.252635 	6.77333e-05 	
1.07973e-06 	7.19819e-07 	0 	0 	0 	0 	0 	0 	0 	
0.0014732 	1.27603e-08 	0.92 	0.04 	0.04 	0.029161 	3.80013 	
3.77096 	3.97141 	-0.20045 	-3.33736 	9.5226e-08 	20.0445 	10.0102 	
3.10189e-10 	8.6815 	0.147957 	0.169716 	0.35 	13.208 	-0.252677 	6.77333e-05 	
1.07973e-06 	7.19819e-07 	0 	0 	0 	0 	0 	0 	0 	
0.00154093 	1.04423e-08 	0.92 	0.04 	0.04 	0.0291609 	3.80011 	
3.77095 	3.97141 	-0.200462 	-3.33814 	7.79273e-08 	16.7068 	13.3479 	
3.10286e-10 	8.6815 	0.147957 	0.169716 	0.35 	13.208 	-0.252736 	6.77333e-05 	
1.07973e-06 	7.19819e-07 	0 	0 	0 	0 	0 	0 	0 	
0.00160867 	8.12354e-09 	0.92 	0.04 	0.04 	0.0291607 	3.8001 	
3.77094 	3.97141 	-0.200478 	-3.33915 	6.06234e-08 	13.3681 	16.6866 	
3.1041e-10 	8.6815 	0.147957 	0.169716 	0.35 	13.208 	-0.252813 	6.77333e-05 	
1.07973e-06 	7.19819e-07 	0 	0 	0 	0 	0 	0 	0 	
0.0016764 	5.80395e-09 	0.92 	0.04 	0.04 	0.0291607 	3.80008 	
3.77092 	3.97141 	-0.200497 	-3.34039 	4.3313e-08 	10.0284 	20.0263 	
3.10563e-10 	8.6815 	0.147957 	0.169716 	0.35 	13.208 	-0.252907 	6.77333e-05 	
1.07973e-06 	7.19819e-07 	0 	0 	0 	0 	0 	0 	0 	
0.00174413 	3.48335e-09 	0.92 	0.04 	0.04 	0.0291606 	3.80006 	
3.7709 	3.97141 	-0.200519 	-3.34186 	2.59951e-08 	6.68723 	23.3674 	
3.10744e-10 	8.6815 	0.147957 	0.169716 	0.35 	13.208 	-0.253018 	6.77333e-05 	
1.07973e-06 	7.19819e-07 	0 	0 	0 	0 	0 	0 	0 	
0.00181187 	1.16156e-09 	0.92 	0.04 	0.04 	0.0291606 	3.80003 	
3.77087 	3.97141 	-0.200545 	-3.34356 	8.66836e-09 	3.34452 	26.7102 	
3.10953e-10 	8.6815 	0.147957 	0.169716 	0.35 	13.208 	-0.253146 	6.77333e-05 	
1.07973e-06 	7.19819e-07 	0 	0 	0 	0 	0 	0 	0 	
0.0018796 	0 	0.92 	0.04 	0.04 	0.0291606 	3.8 	
3.77084 	3.97141 	-0.200575 	-1.67274 	8.66836e-09 	0.83637 	29.2183 	
1.55595e-10 	4.34075 	0.0739787 	0.0848579 	0.35 	6.604 	-0.253292 	3.38667e-05 	
5.39864e-07 	3.5991e-07 	0 	0 	0 	0 	0 	0 	0 	
ZONE T = "t = 5.5e-08 [s]" I = 10 SOLUTIONTIME = 5.5000000000000E-08
0.00127 	1.97117e-08 	0.92 	0.04 	0.04 	0.0291615 	3.80014 	
3.77098 	3.97141 	-0.200435 	-1.66819 	1.47103e-07 	29.2206 	0.834095 	
1.96844e-10 	4.34075 	0.0739787 	0.0848579 	0.35 	6.604 	-0.252603 	3.38667e-05 	
5.39864e-07 	3.5991e-07 	0 	0 	0 	0 	0 	0 	0 	
0.00133773 	1.73949e-08 	0.92 	0.04 	0.04 	0.0291613 	3.80014 	
3.77098 	3.97141 	-0.200436 	-3.33648 	1.29813e-07 	26.7182 	3.33643 	
3.93703e-10 	8.6815 	0.147957 	0.169716 	0.35 	13.208 	-0.25261 	6.77333e-05 	
1.07973e-06 	7.19819e-07 	0 	0 	0 	0 	0 	0 	0 	
0.00140547 	1.50778e-08 	0.92 	0.04 	0.04 	0.0291611 	3.80013 	
3.77097 	3.97141 	-0.200442 	-3.33681 	1.12521e-07 	23.3816 	6.67307 	
3.93751e-10 	8.6815 	0.147957 	0.169716 	0.35 	13.208 	-0.252635 	6.77333e-05 	
1.07973e-06 	7.19819e-07 	0 	0 	0 	0 	0 	0 	0 	
0.0014732 	1.27603e-08 	0.92 	0.04 	0.04 	0.029161 	3.80013 	
3.77096 	3.97141 	-0.20045 	-3.33736 	9.52261e-08 	20.0445 	10.0102 	
3.93834e-10 	8.6815 	0.147957 	0.169716 	0.35 	13.208 	-0.252677 	6.77333e-05 	
1.07973e-06 	7.19819e-07 	0 	0 	0 	0 	0 	0 	0 	
0.00154093 	1.04423e-08 	0.92 	0.04 	0.04 	0.0291609 	3.80011 	
3.77095 	3.97141 	-0.200462 	-3.33814 	7.79274e-08 	16.7068 	13.3479 	
3.9395e-10 	8.6815 	0.147957 	0.169716 	0.35 	13.208 	-0.252736 	6.77333e-05 	
1.07973e-06 	7.19819e-07 	0 	0 	0 	0 	0 	0 	0 	
0.00160867 	8.12354e-09 	0.92 	0.04 	0.04 	0.0291607 	3.8001 	
3.77094 	3.97141 	-0.200478 	-3.33915 	6.06234e-08 	13.3681 	16.6866 	
3.94099e-10 	8.6815 	0.147957 	0.169716 	0.35 	13.208 	-0.252813 	6.77333e-05 	
1.07973e-06 	7.19819e-07 	0 	0 	0 	0 	0 	0 	0 	
0.0016764 	5.80395e-09 	0.92 	0.04 	0.04 	0.0291607 	3.80008 	
3.77092 	3.97141 	-0.200497 	-3.34039 	4.33131e-08 	10.0284 	20.0263 	
3.94283e-10 	8.6815 	0.147957 	0.169716 	0.35 	13.208 	-0.252907 	6.77333e-05 	
1.07973e-06 	7.19819e-07 	0 	0 	0 	0 	0 	0 	0 	
0.00174413 	3.48335e-09 	0.92 	0.04 	0.04 	0.0291606 	3.80006 	
3.7709 	3.97141 	-0.200519 	-3.34186 	2.59951e-08 	6.68723 	23.3674 	
3.94501e-10 	8.6815 	0.147957 	0.169716 	0.35 	13.208 	-0.253018 	6.77333e-05 	
1.07973e-06 	7.19819e-07 	0 	0 	0 	0 	0 	0 	0 	
0.00181187 	1.16156e-09 	0.92 	0.04 	0.04 	0.0291606 	3.80003 	
3.77087 	3.97141 	-0.200545 	-3.34356 	8.66837e-09 	3.34452 	26.7102 	
3.94753e-10 	8.6815 	0.147957 	0.169716 	0.35 	13.208 	-0.253146 	6.77333e-05 	
1.07973e-06 	7.19819e-07 	0 	0 	0 	0 	0 	0 	0 	
0.0018796 	0 	0.92 	0.04 	0.04 	0.0291606 	3.8 	
3.77084 	3.97141 	-0.200575 	-1.67274 	8.66837e-09 	0.83637 	29.2183 	
1.97519e-10 	4.34075 	0.0739787 	0.0848579 	0.35 	6.604 	-0.253292 	3.38667e-05 	
5.39864e-07 	3.5991e-07 	0 	0 	0 	0 	0 	0 	0 	
ZONE T = "t = 7.75e-08 [s]" I = 10 SOLUTIONTIME = 7.7500000000000E-08
0.00127 	1.97117e-08 	0.92 	0.04 	0.04 	0.0291615 	3.80014 	
3.77098 	3.97141 	-0.200435 	-1.66819 	1.47103e-07 	29.2206 	0.834095 	
2.59559e-10 	4.34075 	0.0739787 	0.0848579 	0.35 	6.604 	-0.252603 	3.38667e-05 	
5.39864e-07 	3.5991e-07 	0 	0 	0 	0 	0 	0 	0 	
0.00133773 	1.73949e-08 	0.92 	0.04 	0.04 	0.0291613 	3.80014 	
3.77098 	3.97141 	-0.200436 	-3.33648 	1.29813e-07 	26.7182 	3.33643 	
5.19136e-10 	8.6815 	0.147957 	0.169716 	0.35 	13.208 	-0.25261 	6.77333e-05 	
1.07973e-06 	7.19819e-07 	0 	0 	0 	0 	0 	0 	0 	
0.00140547 	1.50778e-08 	0.92 	0.04 	0.04 	0.0291611 	3.80013 	
3.77097 	3.97141 	-0.200442 	-3.33681 	1.12521e-07 	23.3816 	6.67307 	
5.19197e-10 	8.6815 	0.147957 	0.169716 	0.35 	13.208 	-0.252635 	6.77333e-05 	
1.07973e-06 	7.19819e-07 	0 	0 	0 	0 	0 	0 	0 	
0.0014732 	1.27603e-08 	0.92 	0.04 	0.04 	0.029161 	3.80013 	
3.77096 	3.97141 	-0.20045 	-3.33736 	9.52261e-08 	20.0445 	10.0102 	
5.193e-10 	8.6815 	0.147957 	0.169716 	0.35 	13.208 	-0.252677 	6.77333e-05 	
1.07973e-06 	7.19819e-07 	0 	0 	0 	0 	0 	0 	0 	
0.00154093 	1.04423e-08 	0.92 	0.04 	0.04 	0.0291609 	3.80011 	
3.77095 	3.97141 	-0.200462 	-3.33814 	7.79274e-08 	16.7068 	13.3479 	
5.19445e-10 	8.6815 	0.147957 	0.169716 	0.35 	13.208 	-0.252736 	6.77333e-05 	
1.07973e-06 	7.19819e-07 	0 	0 	0 	0 	0 	0 	0 	
0.00160867 	8.12354e-09 	0.92 	0.04 	0.04 	0.0291607 	3.8001 	
3.77094 	3.97141 	-0.200478 	-3.33915 	6.06234e-08 	13.3681 	16.6866 	
5.19633e-10 	8.6815 	0.147957 	0.169716 	0.35 	13.208 	-0.252813 	6.77333e-05 	
1.07973e-06 	7.19819e-07 	0 	0 	0 	0 	0 	0 	0 	
0.0016764 	5.80395e-09 	0.92 	0.04 	0.04 	0.0291607 	3.80008 	
3.77092 	3.97141 	-0.200497 	-3.34039 	4.33131e-08 	10.0284 	20.0263 	
5.19864e-10 	8.6815 	0.147957 	0.169716 	0.35 	13.208 	-0.252907 	6.77333e-05 	
1.07973e-06 	7.19819e-07 	0 	0 	0 	0 	0 	0 	0 	
0.00174413 	3.48335e-09 	0.92 	0.04 	0.04 	0.0291606 	3.80006 	
3.7709 	3.97141 	-0.200519 	-3.34186 	2.59951e-08 	6.68722 	23.3674 	
5.20136e-10 	8.6815 	0.147957 	0.169716 	0.35 	13.208 	-0.253018 	6.77333e-05 	
1.07973e-06 	7.19819e-07 	0 	0 	0 	0 	0 	0 	0 	
0.00181187 	1.16156e-09 	0.92 	0.04 	0.04 	0.0291606 	3.80003 	
3.77087 	3.97141 	-0.200545 	-3.34356 	8.66837e-09 	3.34452 	26.7102 	
5.20452e-10 	8.6815 	0.147957 	0.169716 	0.35 	13.208 	-0.253146 	6.77333e-05 	
1.07973e-06 	7.19819e-07 	0 	0 	0 	0 	0 	0 	0 	
0.0018796 	0 	0.92 	0.04 	0.04 	0.0291605 	3.8 	
3.77084 	3.97141 	-0.200575 	-1.67274 	8.66837e-09 	0.83637 	29.2183 	
2.60405e-10 	4.34075 	0.0739787 	0.0848579 	0.35 	6.604 	-0.253292 	3.38667e-05 	
5.39864e-07 	3.5991e-07 	0 	0 	0 	0 	0 	0 	0 	
ZONE T = "t = 1.1125e-07 [s]" I = 10 SOLUTIONTIME = 1.1125000000000E-07
0.00127 	1.97117e-08 	0.92 	0.04 	0.04 	0.0291615 	3.80014 	
3.77098 	3.97141 	-0.200435 	-1.66819 	1.47104e-07 	29.2206 	0.834095 	
3.53631e-10 	4.34075 	0.0739787 	0.0848579 	0.35 	6.604 	-0.252603 	3.38667e-05 	
5.39864e-07 	3.5991e-07 	0 	0 	0 	0 	0 	0 	0 	
0.00133773 	1.73949e-08 	0.92 	0.04 	0.04 	0.0291613 	3.80014 	
3.77098 	3.97141 	-0.200436 	-3.33648 	1.29813e-07 	26.7182 	3.33643 	
7.07286e-10 	8.6815 	0.147957 	0.169716 	0.35 	13.208 	-0.25261 	6.77333e-05 	
1.07973e-06 	7.19819e-07 	0 	0 	0 	0 	0 	0 	0 	
0.00140547 	1.50778e-08 	0.92 	0.04 	0.04 	0.0291611 	3.80013 	
3.77097 	3.97141 	-0.200442 	-3.33681 	1.12521e-07 	23.3816 	6.67307 	
7.07365e-10 	8.6815 	0.147957 	0.169716 	0.35 	13.208 	-0.252635 	6.77333e-05 	
1.07973e-06 	7.19819e-07 	0 	0 	0 	0 	0 	0 	0 	
0.0014732 	1.27603e-08 	0.92 	0.04 	0.04 	0.029161 	3.80013 	
3.77096 	3.97141 	-0.20045 	-3.33736 	9.52261e-08 	20.0445 	10.0102 	
7.07499e-10 	8.6815 	0.147957 	0.169716 	0.35 	13.208 	-0.252677 	6.77333e-05 	
1.07973e-06 	7.19819e-07 	0 	0 	0 	0 	0 	0 	0 	
0.00154093 	1.04423e-08 	0.92 	0.04 	0.04 	0.0291609 	3.80011 	
3.77095 	3.97141 	-0.200462 	-3.33814 	7.79274e-08 	16.7068 	13.3479 	
7.07689e-10 	8.6815 	0.147957 	0.169716 	0.35 	13.208 	-0.252736 	6.77333e-05 	
1.07973e-06 	7.19819e-07 	0 	0 	0 	0 	0 	0 	0 	
0.00160867 	8.12354e-09 	0.92 	0.04 	0.04 	0.0291607 	3.8001 	
3.77094 	3.97141 	-0.200478 	-3.33915 	6.06234e-08 	13.3681 	16.6866 	
7.07934e-10 	8.6815 	0.147957 	0.169716 	0.35 	13.208 	-0.252813 	6.77333e-05 	
1.07973e-06 	7.19819e-07 	0 	0 	0 	0 	0 	0 	0 	
0.0016764 	5.80395e-09 	0.92 	0.04 	0.04 	0.0291607 	3.80008 	
3.77092 	3.97141 	-0.200497 	-3.34039 	4.33131e-08 	10.0283 	20.0263 	
7.08234e-10 	8.6815 	0.147957 	0.169716 	0.35 	13.208 	-0.252907 	6.77333e-05 	
1.07973e-06 	7.19819e-07 	0 	0 	0 	0 	0 	0 	0 	
0.00174413 	3.48335e-09 	0.92 	0.04 	0.04 	0.0291606 	3.80006 	
3.7709 	3.97141 	-0.200519 	-3.34186 	2.59951e-08 	6.68722 	23.3674 	
7.0859e-10 	8.6815 	0.147957 	0.169716 	0.35 	13.208 	-0.253018 	6.77333e-05 	
1.07973e-06 	7.19819e-07 	0 	0 	0 	0 	0 	0 	0 	
0.00181187 	1.16156e-09 	0.92 	0.04 	0.04 	0.0291606 	3.80003 	
3.77087 	3.97141 	-0.200545 	-3.34356 	8.66837e-09 	3.34452 	26.7102 	
7.09001e-10 	8.6815 	0.147957 	0.169716 	0.35 	13.208 	-0.253146 	6.77333e-05 	
1.07973e-06 	7.19819e-07 	0 	0 	0 	0 	0 	0 	0 	
0.0018796 	0 	0.92 	0.04 	0.04 	0.0291605 	3.8 	
3.77084 	3.97141 	-0.200575 	-1.67274 	8.66837e-09 	0.83637 	29.2183 	
3.54734e-10 	4.34075 	0.0739787 	0.0848579 	0.35 	6.604 	-0.253292 	3.38667e-05 	
5.39864e-07 	3.5991e-07 	0 	0 	0 	0 	0 	0 	0 	
ZONE T = "t = 1.61875e-07 [s]" I = 10 SOLUTIONTIME = 1.6187500000000E-07
0.00127 	1.97117e-08 	0.92 	0.04 	0.04 	0.0291615 	3.80014 	
3.77098 	3.97141 	-0.200435 	-1.66819 	1.47104e-07 	29.2206 	0.834095 	
4.94739e-10 	4.34075 	0.0739787 	0.0848579 	0.35 	6.604 	-0.252603 	3.38667e-05 	
5.39864e-07 	3.5991e-07 	0 	0 	0 	0 	0 	0 	0 	
0.00133773 	1.73949e-08 	0.92 	0.04 	0.04 	0.0291613 	3.80014 	
3.77098 	3.97141 	-0.200436 	-3.33648 	1.29813e-07 	26.7182 	3.33643 	
9.89511e-10 	8.6815 	0.147957 	0.169716 	0.35 	13.208 	-0.25261 	6.77333e-05 	
1.07973e-06 	7.19819e-07 	0 	0 	0 	0 	0 	0 	0 	
0.00140547 	1.50778e-08 	0.92 	0.04 	0.04 	0.0291611 	3.80013 	
3.77097 	3.97141 	-0.200442 	-3.33681 	1.12521e-07 	23.3816 	6.67307 	
9.89618e-10 	8.6815 	0.147957 	0.169716 	0.35 	13.208 	-0.252635 	6.77333e-05 	
1.07973e-06 	7.19819e-07 	0 	0 	0 	0 	0 	0 	0 	
0.0014732 	1.27603e-08 	0.92 	0.04 	0.04 	0.029161 	3.80013 	
3.77096 	3.97141 	-0.20045 	-3.33736 	9.52261e-08 	20.0445 	10.0102 	
9.89799e-10 	8.6815 	0.147957 	0.169716 	0.35 	13.208 	-0.252677 	6.77333e-05 	
1.07973e-06 	7.19819e-07 	0 	0 	0 	0 	0 	0 	0 	
0.00154093 	1.04423e-08 	0.92 	0.04 	0.04 	0.0291609 	3.80011 	
3.77095 	3.97141 	-0.200462 	-3.33814 	7.79274e-08 	16.7068 	13.3479 	
9.90055e-10 	8.6815 	0.147957 	0.169716 	0.35 	13.208 	-0.252736 	6.77333e-05 	
1.07973e-06 	7.19819e-07 	0 	0 	0 	0 	0 	0 	0 	
0.00160867 	8.12354e-09 	0.92 	0.04 	0.04 	0.0291607 	3.8001 	
3.77094 	3.97141 	-0.200478 	-3.33915 	6.06234e-08 	13.3681 	16.6866 	
9.90385e-10 	8.6815 	0.147957 	0.169716 	0.35 	13.208 	-0.252813 	6.77333e-05 	
1.07973e-06 	7.19819e-07 	0 	0 	0 	0 	0 	0 	0 	
0.0016764 	5.80395e-09 	0.92 	0.04 	0.04 	0.0291607 	3.80008 	
3.77092 	3.97141 	-0.200497 	-3.34039 	4.33131e-08 	10.0283 	20.0263 	
9.9079e-10 	8.6815 	0.147957 	0.169716 	0.35 	13.208 	-0.252907 	6.77333e-05 	
1.07973e-06 	7.19819e-07 	0 	0 	0 	0 	0 	0 	0 	
0.00174413 	3.48335e-09 	0.92 	0.04 	0.04 	0.0291606 	3.80006 	
3.7709 	3.97141 	-0.200519 	-3.34186 	2.59951e-08 	6.68722 	23.3674 	
9.9127e-10 	8.6815 	0.147957 	0.169716 	0.35 	13.208 	-0.253018 	6.77333e-05 	
1.07973e-06 	7.19819e-07 	0 	0 	0 	0 	0 	0 	0 	
0.00181187 	1.16156e-09 	0.92 	0.04 	0.04 	0.0291606 	3.80003 	
3.77087 	3.97141 	-0.200545 	-3.34356 	8.66837e-09 	3.34452 	26.7102 	
9.91824e-10 	8.6815 	0.147957 	0.169716 	0.35 	13.208 	-0.253146 	6.77333e-05 	
1.07973e-06 	7.19819e-07 	0 	0 	0 	0 	0 	0 	0 	
0.0018796 	0 	0.92 	0.04 	0.04 	0.0291605 	3.8 	
3.77084 	3.97141 	-0.200575 	-1.67274 	8.66837e-09 	0.83637 	29.2183 	
4.96227e-10 	4.34075 	0.0739787 	0.0848579 	0.35 	6.604 	-0.253292 	3.38667e-05 	
5.39864e-07 	3.5991e-07 	0 	0 	0 	0 	0 	0 	0 	
ZONE T = "t = 2.37813e-07 [s]" I = 10 SOLUTIONTIME = 2.3781250000000E-07
0.00127 	1.97117e-08 	0.92 	0.04 	0.04 	0.0291615 	3.80014 	
3.77098 	3.97141 	-0.200435 	-1.66819 	1.47105e-07 	29.2206 	0.834095 	
7.06401e-10 	4.34075 	0.0739787 	0.0848579 	0.35 	6.604 	-0.252603 	3.38667e-05 	
5.39864e-07 	3.5991e-07 	0 	0 	0 	0 	0 	0 	0 	
0.00133773 	1.73949e-08 	0.92 	0.04 	0.04 	0.0291613 	3.80014 	
3.77098 	3.97141 	-0.200436 	-3.33648 	1.29812e-07 	26.7182 	3.33643 	
1.41285e-09 	8.6815 	0.147957 	0.169716 	0.35 	13.208 	-0.25261 	6.77333e-05 	
1.07973e-06 	7.19819e-07 	0 	0 	0 	0 	0 	0 	0 	
0.00140547 	1.50778e-08 	0.92 	0.04 	0.04 	0.0291611 	3.80013 	
3.77097 	3.97141 	-0.200442 	-3.33681 	1.12521e-07 	23.3816 	6.67307 	
1.413e-09 	8.6815 	0.147957 	0.169716 	0.35 	13.208 	-0.252635 	6.77333e-05 	
1.07973e-06 	7.19819e-07 	0 	0 	0 	0 	0 	0 	0 	
0.0014732 	1.27603e-08 	0.92 	0.04 	0.04 	0.029161 	3.80013 	
3.77096 	3.97141 	-0.20045 	-3.33736 	9.52261e-08 	20.0445 	10.0102 	
1.41325e-09 	8.6815 	0.147957 	0.169716 	0.35 	13.208 	-0.252677 	6.77333e-05 	
1.07973e-06 	7.19819e-07 	0 	0 	0 	0 	0 	0 	0 	
0.00154093 	1.04423e-08 	0.92 	0.04 	0.04 	0.0291609 	3.80011 	
3.77095 	3.97141 	-0.200462 	-3.33814 	7.79274e-08 	16.7068 	13.3479 	
1.4136e-09 	8.6815 	0.147957 	0.169716 	0.35 	13.208 	-0.252736 	6.77333e-05 	
1.07973e-06 	7.19819e-07 	0 	0 	0 	0 	0 	0 	0 	
0.00160867 	8.12354e-09 	0.92 	0.04 	0.04 	0.0291607 	3.8001 	
3.77094 	3.97141 	-0.200478 	-3.33915 	6.06234e-08 	13.3681 	16.6866 	
1.41406e-09 	8.6815 	0.147957 	0.169716 	0.35 	13.208 	-0.252813 	6.77333e-05 	
1.07973e-06 	7.19819e-07 	0 	0 	0 	0 	0 	0 	0 	
0.0016764 	5.80395e-09 	0.92 	0.04 	0.04 	0.0291607 	3.80008 	
3.77092 	3.97141 	-0.200497 	-3.34039 	4.33131e-08 	10.0283 	20.0263 	
1.41462e-09 	8.6815 	0.147957 	0.169716 	0.35 	13.208 	-0.252907 	6.77333e-05 	
1.07973e-06 	7.19819e-07 	0 	0 	0 	0 	0 	0 	0 	
0.00174413 	3.48335e-09 	0.92 	0.04 	0.04 	0.0291606 	3.80006 	
3.7709 	3.97141 	-0.200519 	-3.34186 	2.59951e-08 	6.68722 	23.3674 	
1.41529e-09 	8.6815 	0.147957 	0.169716 	0.35 	13.208 	-0.253018 	6.77333e-05 	
1.07973e-06 	7.19819e-07 	0 	0 	0 	0 	0 	0 	0 	
0.00181187 	1.16156e-09 	0.92 	0.04 	0.04 	0.0291606 	3.80003 	
3.77087 	3.97141 	-0.200545 	-3.34355 	8.66837e-09 	3.34452 	26.7102 	
1.41606e-09 	8.6815 	0.147957 	0.169716 	0.35 	13.208 	-0.253146 	6.77333e-05 	
1.07973e-06 	7.19819e-07 	0 	0 	0 	0 	0 	0 	0 	
0.0018796 	0 	0.92 	0.04 	0.04 	0.0291605 	3.8 	
3.77084 	3.97141 	-0.200575 	-1.67274 	8.66837e-09 	0.83637 	29.2183 	
7.08467e-10 	4.34075 	0.0739787 	0.0848579 	0.35 	6.604 	-0.253292 	3.38667e-05 	
5.39864e-07 	3.5991e-07 	0 	0 	0 	0 	0 	0 	0 	
ZONE T = "t = 3.51719e-07 [s]" I = 10 SOLUTIONTIME = 3.5171875000000E-07
0.00127 	1.97117e-08 	0.92 	0.04 	0.04 	0.0291615 	3.80014 	
3.77098 	3.97141 	-0.200435 	-1.66819 	1.47106e-07 	29.2206 	0.834095 	
1.02389e-09 	4.34075 	0.0739787 	0.0848579 	0.35 	6.604 	-0.252603 	3.38667e-05 	
5.39864e-07 	3.5991e-07 	0 	0 	0 	0 	0 	0 	0 	
0.00133773 	1.73949e-08 	0.92 	0.04 	0.04 	0.0291613 	3.80014 	
3.77098 	3.97141 	-0.200436 	-3.33648 	1.29812e-07 	26.7182 	3.33643 	
2.04785e-09 	8.6815 	0.147957 	0.169716 	0.35 	13.208 	-0.25261 	6.77333e-05 	
1.07973e-06 	7.19819e-07 	0 	0 	0 	0 	0 	0 	0 	
0.00140547 	1.50778e-08 	0.92 	0.04 	0.04 	0.0291611 	3.80013 	
3.77097 	3.97141 	-0.200441 	-3.3368 	1.12521e-07 	23.3816 	6.67307 	
2.04806e-09 	8.6815 	0.147957 	0.169716 	0.35 	13.208 	-0.252635 	6.77333e-05 	
1.07973e-06 	7.19819e-07 	0 	0 	0 	0 	0 	0 	0 	
0.0014732 	1.27603e-08 	0.92 	0.04 	0.04 	0.029161 	3.80013 	
3.77096 	3.97141 	-0.20045 	-3.33736 	9.52261e-08 	20.0445 	10.0102 	
2.04842e-09 	8.6815 	0.147957 	0.169716 	0.35 	13.208 	-0.252677 	6.77333e-05 	
1.07973e-06 	7.19819e-07 	0 	0 	0 	0 	0 	0 	0 	
0.00154093 	1.04423e-08 	0.92 	0.04 	0.04 	0.0291608 	3.80011 	
3.77095 	3.97141 	-0.200462 	-3.33814 	7.79274e-08 	16.7068 	13.3479 	
2.04893e-09 	8.6815 	0.147957 	0.169716 	0.35 	13.208 	-0.252736 	6.77333e-05 	
1.07973e-06 	7.19819e-07 	0 	0 	0 	0 	0 	0 	0 	
0.00160867 	8.12354e-09 	0.92 	0.04 	0.04 	0.0291607 	3.8001 	
3.77094 	3.97141 	-0.200478 	-3.33915 	6.06234e-08 	13.3681 	16.6865 	
2.04958e-09 	8.6815 	0.147957 	0.169716 	0.35 	13.208 	-0.252813 	6.77333e-05 	
1.07973e-06 	7.19819e-07 	0 	0 	0 	0 	0 	0 	0 	
0.0016764 	5.80395e-09 	0.92 	0.04 	0.04 	0.0291607 	3.80008 	
3.77092 	3.97141 	-0.200497 	-3.34039 	4.33131e-08 	10.0283 	20.0263 	
2.05037e-09 	8.6815 	0.147957 	0.169716 	0.35 	13.208 	-0.252907 	6.77333e-05 	
1.07973e-06 	7.19819e-07 	0 	0 	0 	0 	0 	0 	0 	
0.00174413 	3.48335e-09 	0.92 	0.04 	0.04 	0.0291606 	3.80006 	
3.7709 	3.97141 	-0.200519 	-3.34186 	2.59951e-08 	6.68722 	23.3674 	
2.05132e-09 	8.6815 	0.147957 	0.169716 	0.35 	13.208 	-0.253018 	6.77333e-05 	
1.07973e-06 	7.19819e-07 	0 	0 	0 	0 	0 	0 	0 	
0.00181187 	1.16156e-09 	0.92 	0.04 	0.04 	0.0291606 	3.80003 	
3.77087 	3.97141 	-0.200545 	-3.34355 	8.66837e-09 	3.34452 	26.7102 	
2.05241e-09 	8.6815 	0.147957 	0.169716 	0.35 	13.208 	-0.253146 	6.77333e-05 	
1.07973e-06 	7.19819e-07 	0 	0 	0 	0 	0 	0 	0 	
0.0018796 	0 	0.92 	0.04 	0.04 	0.0291605 	3.8 	
3.77084 	3.97141 	-0.200575 	-1.67274 	8.66837e-09 	0.83637 	29.2183 	
1.02683e-09 	4.34075 	0.0739787 	0.0848579 	0.35 	6.604 	-0.253292 	3.38667e-05 	
5.39864e-07 	3.5991e-07 	0 	0 	0 	0 	0 	0 	0 	
ZONE T = "t = 5.22578e-07 [s]" I = 10 SOLUTIONTIME = 5.2257812500000E-07
0.00127 	1.97117e-08 	0.92 	0.04 	0.04 	0.0291615 	3.80014 	
3.77098 	3.97141 	-0.200435 	-1.66819 	1.47107e-07 	29.2206 	0.834094 	
1.50013e-09 	4.34075 	0.0739787 	0.0848579 	0.35 	6.604 	-0.252603 	3.38667e-05 	
5.39864e-07 	3.5991e-07 	0 	0 	0 	0 	0 	0 	0 	
0.00133773 	1.73949e-08 	0.92 	0.04 	0.04 	0.0291613 	3.80014 	
3.77098 	3.97141 	-0.200436 	-3.33648 	1.29812e-07 	26.7182 	3.33643 	
3.00036e-09 	8.6815 	0.147957 	0.169716 	0.35 	13.208 	-0.25261 	6.77333e-05 	
1.07973e-06 	7.19819e-07 	0 	0 	0 	0 	0 	0 	0 	