TITLE = "Solution on Domain BulkDomain1D_2"
VARIABLES = "x [m]"  
"Vel_axial" 	"MF_sp(ECDMC)" 	"MF_sp(Li+)" 	"MF_sp(PF6-)" 	"Volt(Electroly)" 	"Volt(CathodeVo)" 	
"Potential Drop Electrode-Electrolyte [V]" 	"Surf_0 Equilibrium Potential Drop Electrode-Electrolyte [V]" 	"Overpotential_0 [V]" 	"Current Source [A/m^2]" 	"Li+ flux [kmol/m^2/s]" 	"Electrolyte Current [A/m^2]" 	"Electrode Current [A/m^2]" 	
"CV Capacity discharged [A-s/m^2]" 	"Depth of discharge in CV [A-s/m^2]" 	"CV Capacity remaining [A-s/m^2]" 	"Initial CV capacity [A-s/m^2]" 	"Porosity []" 	"Surface Area [m2/m2] (area per area)" 	"Specific current (per particle area) [A/m^2]" 	"Control volume thickness [m]" 	
"MoleDens LiCoO2 [kmol/m^3]" 	"MoleDens CoO2 [kmol/m^3]" 	"qHeat_accum [J/m3]" 	"qHeat_step [W/m3]" 	"Joule_Lyte [W/m3]" 	"Joule_Solid [W/m3]" 	"electrodHeat [W/m3]" 	"OverpotHeat [W/m3]" 	"deltaSHeat [W/m3]" 	

ZONE T = "CATH, 0.0000E+00", I = 10, SOLUTIONTIME = 0.000000E+00
ZONETYPE = ORDERED
DATAPACKING = BLOCK
STRANDID = 3
 1.2700000000000E-03  1.3377333333333E-03  1.4054666666667E-03  1.4732000000000E-03  1.5409333333333E-03  1.6086666666667E-03  1.6764000000000E-03  1.7441333333333E-03  1.8118666666667E-03  1.8796000000000E-03 
 0.0000000000000E+00  0.0000000000000E+00  0.0000000000000E+00  0.0000000000000E+00  0.0000000000000E+00  0.0000000000000E+00  0.0000000000000E+00  0.0000000000000E+00  0.0000000000000E+00  0.0000000000000E+00 
 9.2000000000000E-01  9.2000000000000E-01  9.2000000000000E-01  9.2000000000000E-01  9.2000000000000E-01  9.2000000000000E-01  9.2000000000000E-01  9.2000000000000E-01  9.2000000000000E-01  9.2000000000000E-01 
 4.0000000000000E-02  4.0000000000000E-02  4.0000000000000E-02  4.0000000000000E-02  4.0000000000000E-02  4.0000000000000E-02  4.0000000000000E-02  4.0000000000000E-02  4.0000000000000E-02  4.0000000000000E-02 
 4.0000000000000E-02  4.0000000000000E-02  4.0000000000000E-02  4.0000000000000E-02  4.0000000000000E-02  4.0000000000000E-02  4.0000000000000E-02  4.0000000000000E-02  4.0000000000000E-02  4.0000000000000E-02 
-7.0000000000000E-02 -7.0000000000000E-02 -7.0000000000000E-02 -7.0000000000000E-02 -7.0000000000000E-02 -7.0000000000000E-02 -7.0000000000000E-02 -7.0000000000000E-02 -7.0000000000000E-02 -7.0000000000000E-02 
 3.8000000000000E+00  3.8000000000000E+00  3.8000000000000E+00  3.8000000000000E+00  3.8000000000000E+00  3.8000000000000E+00  3.8000000000000E+00  3.8000000000000E+00  3.8000000000000E+00  3.8000000000000E+00 
 3.8700000000000E+00  3.8700000000000E+00  3.8700000000000E+00  3.8700000000000E+00  3.8700000000000E+00  3.8700000000000E+00  3.8700000000000E+00  3.8700000000000E+00  3.8700000000000E+00  3.8700000000000E+00 
 3.9714142713289E+00  3.9714142713289E+00  3.9714142713289E+00  3.9714142713289E+00  3.9714142713289E+00  3.9714142713289E+00  3.9714142713289E+00  3.9714142713289E+00  3.9714142713289E+00  3.9714142713289E+00 
-1.0141427132889E-01 -1.0141427132889E-01 -1.0141427132889E-01 -1.0141427132889E-01 -1.0141427132889E-01 -1.0141427132889E-01 -1.0141427132889E-01 -1.0141427132889E-01 -1.0141427132889E-01 -1.0141427132889E-01 
-2.3826357195711E-01 -4.7652714391422E-01 -4.7652714391423E-01 -4.7652714391422E-01 -4.7652714391423E-01 -4.7652714391423E-01 -4.7652714391422E-01 -4.7652714391423E-01 -4.7652714391422E-01 -2.3826357195711E-01 
-0.0000000000000E+00 -0.0000000000000E+00 -0.0000000000000E+00 -0.0000000000000E+00 -0.0000000000000E+00 -0.0000000000000E+00 -0.0000000000000E+00 -0.0000000000000E+00 -0.0000000000000E+00 -0.0000000000000E+00 
 2.3826357195711E-01  0.0000000000000E+00  0.0000000000000E+00  0.0000000000000E+00  0.0000000000000E+00  0.0000000000000E+00  0.0000000000000E+00  0.0000000000000E+00  0.0000000000000E+00  0.0000000000000E+00 
 0.0000000000000E+00 -0.0000000000000E+00 -0.0000000000000E+00 -0.0000000000000E+00 -0.0000000000000E+00 -0.0000000000000E+00 -0.0000000000000E+00 -0.0000000000000E+00 -0.0000000000000E+00  2.3826357195711E-01 
-0.0000000000000E+00 -0.0000000000000E+00 -0.0000000000000E+00 -0.0000000000000E+00 -0.0000000000000E+00 -0.0000000000000E+00 -0.0000000000000E+00 -0.0000000000000E+00 -0.0000000000000E+00 -0.0000000000000E+00 
 4.3407499666250E+00  8.6814999332499E+00  8.6814999332500E+00  8.6814999332499E+00  8.6814999332500E+00  8.6814999332500E+00  8.6814999332499E+00  8.6814999332500E+00  8.6814999332499E+00  4.3407499666250E+00 
 2.9517099773050E+01  5.9034199546100E+01  5.9034199546100E+01  5.9034199546100E+01  5.9034199546100E+01  5.9034199546100E+01  5.9034199546100E+01  5.9034199546100E+01  5.9034199546100E+01  2.9517099773050E+01 
 3.3857849739675E+01  6.7715699479350E+01  6.7715699479350E+01  6.7715699479350E+01  6.7715699479350E+01  6.7715699479350E+01  6.7715699479350E+01  6.7715699479350E+01  6.7715699479350E+01  3.3857849739675E+01 
 3.5000000000000E-01  3.5000000000000E-01  3.5000000000000E-01  3.5000000000000E-01  3.5000000000000E-01  3.5000000000000E-01  3.5000000000000E-01  3.5000000000000E-01  3.5000000000000E-01  3.5000000000000E-01 
 6.6040000000000E+00  1.3208000000000E+01  1.3208000000000E+01  1.3208000000000E+01  1.3208000000000E+01  1.3208000000000E+01  1.3208000000000E+01  1.3208000000000E+01  1.3208000000000E+01  6.6040000000000E+00 
-3.6078675341780E-02 -3.6078675341780E-02 -3.6078675341780E-02 -3.6078675341780E-02 -3.6078675341780E-02 -3.6078675341780E-02 -3.6078675341780E-02 -3.6078675341780E-02 -3.6078675341780E-02 -3.6078675341780E-02 
 3.3866666666667E-05  6.7733333333333E-05  6.7733333333334E-05  6.7733333333333E-05  6.7733333333334E-05  6.7733333333334E-05  6.7733333333333E-05  6.7733333333334E-05  6.7733333333333E-05  3.3866666666667E-05 
 1.5940878357622E-02  1.5940878357622E-02  1.5940878357622E-02  1.5940878357622E-02  1.5940878357622E-02  1.5940878357622E-02  1.5940878357622E-02  1.5940878357622E-02  1.5940878357622E-02  1.5940878357622E-02 
 1.0627252238415E-02  1.0627252238415E-02  1.0627252238415E-02  1.0627252238415E-02  1.0627252238415E-02  1.0627252238415E-02  1.0627252238415E-02  1.0627252238415E-02  1.0627252238415E-02  1.0627252238415E-02 
 0.0000000000000E+00  0.0000000000000E+00  0.0000000000000E+00  0.0000000000000E+00  0.0000000000000E+00  0.0000000000000E+00  0.0000000000000E+00  0.0000000000000E+00  0.0000000000000E+00  0.0000000000000E+00 
 0.0000000000000E+00  0.0000000000000E+00  0.0000000000000E+00  0.0000000000000E+00  0.0000000000000E+00  0.0000000000000E+00  0.0000000000000E+00  0.0000000000000E+00  0.0000000000000E+00  0.0000000000000E+00 
 0.0000000000000E+00  0.0000000000000E+00  0.0000000000000E+00  0.0000000000000E+00  0.0000000000000E+00  0.0000000000000E+00  0.0000000000000E+00  0.0000000000000E+00  0.0000000000000E+00  0.0000000000000E+00 
 0.0000000000000E+00  0.0000000000000E+00  0.0000000000000E+00  0.0000000000000E+00  0.0000000000000E+00  0.0000000000000E+00  0.0000000000000E+00  0.0000000000000E+00  0.0000000000000E+00  0.0000000000000E+00 
 0.0000000000000E+00  0.0000000000000E+00  0.0000000000000E+00  0.0000000000000E+00  0.0000000000000E+00  0.0000000000000E+00  0.0000000000000E+00  0.0000000000000E+00  0.0000000000000E+00  0.0000000000000E+00 
 0.0000000000000E+00  0.0000000000000E+00  0.0000000000000E+00  0.0000000000000E+00  0.0000000000000E+00  0.0000000000000E+00  0.0000000000000E+00  0.0000000000000E+00  0.0000000000000E+00  0.0000000000000E+00 
 0.0000000000000E+00  0.0000000000000E+00  0.0000000000000E+00  0.0000000000000E+00  0.0000000000000E+00  0.0000000000000E+00  0.0000000000000E+00  0.0000000000000E+00  0.0000000000000E+00  0.0000000000000E+00 
ZONE T = "CATH, 1.0000E-08", I = 10, SOLUTIONTIME = 1.000000E-08
ZONETYPE = ORDERED
DATAPACKING = BLOCK
STRANDID = 3
 1.2700000000000E-03  1.3377333333333E-03  1.4054666666667E-03  1.4732000000000E-03  1.5409333333333E-03  1.6086666666667E-03  1.6764000000000E-03  1.7441333333333E-03  1.8118666666667E-03  1.8796000000000E-03 
 1.9704661882797E-08  1.7389124740338E-08  1.5072941076909E-08  1.2757004945888E-08  1.0439667784220E-08  8.1214600488445E-09  5.8029119021986E-09  3.4823738996377E-09  1.1603754176193E-09 -1.4528306757755E-12 
 9.2000000000032E-01  9.2000000000090E-01  9.2000000000090E-01  9.2000000000090E-01  9.2000000000090E-01  9.2000000000090E-01  9.2000000000090E-01  9.2000000000090E-01  9.2000000000090E-01  9.2000000000090E-01 
 3.9999999999841E-02  3.9999999999551E-02  3.9999999999551E-02  3.9999999999551E-02  3.9999999999550E-02  3.9999999999550E-02  3.9999999999550E-02  3.9999999999550E-02  3.9999999999550E-02  3.9999999999549E-02 
 3.9999999999841E-02  3.9999999999551E-02  3.9999999999551E-02  3.9999999999551E-02  3.9999999999550E-02  3.9999999999550E-02  3.9999999999550E-02  3.9999999999550E-02  3.9999999999550E-02  3.9999999999549E-02 
 2.9165652468998E-02  2.9165445459134E-02  2.9165262775219E-02  2.9165104420230E-02  2.9164970399198E-02  2.9164860719210E-02  2.9164775389412E-02  2.9164714421012E-02  2.9164677827282E-02  2.9164665623566E-02 
 3.8001746418253E+00  3.8001724869398E+00  3.8001660221196E+00  3.8001552468376E+00  3.8001401602023E+00  3.8001207609580E+00  3.8000970474844E+00  3.8000690177958E+00  3.8000366695404E+00  3.8000000000000E+00 
 3.7710089893563E+00  3.7710070414806E+00  3.7710007593444E+00  3.7709901424174E+00  3.7709751898031E+00  3.7709559002388E+00  3.7709322720950E+00  3.7709043033748E+00  3.7708719917132E+00  3.7708353343764E+00 
 3.9714142711975E+00  3.9714142711973E+00  3.9714142711973E+00  3.9714142711973E+00  3.9714142711972E+00  3.9714142711972E+00  3.9714142711971E+00  3.9714142711970E+00  3.9714142711969E+00  3.9714142711969E+00 
-2.0040528184116E-01 -2.0040722971665E-01 -2.0041351185285E-01 -2.0042412877988E-01 -2.0043908139413E-01 -2.0045837095835E-01 -2.0048199910209E-01 -2.0050996782226E-01 -2.0054227948379E-01 -2.0057893682042E-01 
-1.6672260599593E+00 -3.3345786262145E+00 -3.3349866570685E+00 -3.3356763501100E+00 -3.3366479380317E+00 -3.3379017487554E+00 -3.3394382056684E+00 -3.3412578279274E+00 -3.3433612308315E+00 -1.6728745631329E+00 
 1.4705120336600E-07  1.2977094289138E-07  1.1248870069650E-07  9.5202884755705E-08  7.7912034368371E-08  6.0614687162516E-08  4.3309378568452E-08  2.5994641312375E-08  8.6690049536055E-09  8.6690049536055E-09 
 3.0043770144372E+01  2.6709265127032E+01  2.3374503215578E+01  2.0039192492402E+01  1.6703051204600E+01  1.3365797319200E+01  1.0027148428467E+01  6.6868216528883E+00  3.3445335462878E+00  0.0000000000000E+00 
 0.0000000000000E+00  3.3344946672110E+00  6.6692565786037E+00  1.0004567301850E+01  1.3340708589817E+01  1.6677962475050E+01  2.0016611365809E+01  2.3356938141414E+01  2.6699226247760E+01  3.0043770665926E+01 
 1.6672260599593E-08  3.3345786262145E-08  3.3349866570685E-08  3.3356763501100E-08  3.3366479380317E-08  3.3379017487554E-08  3.3394382056684E-08  3.3412578279274E-08  3.3433612308315E-08  1.6728745631329E-08 
 4.3407499832973E+00  8.6814999665957E+00  8.6814999665999E+00  8.6814999666067E+00  8.6814999666165E+00  8.6814999666290E+00  8.6814999666443E+00  8.6814999666626E+00  8.6814999666836E+00  4.3407499833537E+00 
 2.9517099756378E+01  5.9034199512754E+01  5.9034199512750E+01  5.9034199512743E+01  5.9034199512734E+01  5.9034199512721E+01  5.9034199512705E+01  5.9034199512687E+01  5.9034199512666E+01  2.9517099756321E+01 
 3.3857849739675E+01  6.7715699479350E+01  6.7715699479350E+01  6.7715699479350E+01  6.7715699479350E+01  6.7715699479350E+01  6.7715699479350E+01  6.7715699479350E+01  6.7715699479350E+01  3.3857849739675E+01 
 3.5000000000000E-01  3.5000000000000E-01  3.5000000000000E-01  3.5000000000000E-01  3.5000000000000E-01  3.5000000000000E-01  3.5000000000000E-01  3.5000000000000E-01  3.5000000000000E-01  3.5000000000000E-01 
 6.6040000000000E+00  1.3208000000000E+01  1.3208000000000E+01  1.3208000000000E+01  1.3208000000000E+01  1.3208000000000E+01  1.3208000000000E+01  1.3208000000000E+01  1.3208000000000E+01  6.6040000000000E+00 
-2.5245700483938E-01 -2.5246658284483E-01 -2.5249747555031E-01 -2.5254969337599E-01 -2.5262325393941E-01 -2.5271818206810E-01 -2.5283450981742E-01 -2.5297227649359E-01 -2.5313152868197E-01 -2.5331232028056E-01 
 3.3866666666667E-05  6.7733333333333E-05  6.7733333333334E-05  6.7733333333333E-05  6.7733333333334E-05  6.7733333333334E-05  6.7733333333333E-05  6.7733333333334E-05  6.7733333333333E-05  3.3866666666667E-05 
 1.5940878362725E-02  1.5940878362725E-02  1.5940878362725E-02  1.5940878362727E-02  1.5940878362728E-02  1.5940878362730E-02  1.5940878362732E-02  1.5940878362735E-02  1.5940878362738E-02  1.5940878362742E-02 
 1.0627252233313E-02  1.0627252233313E-02  1.0627252233312E-02  1.0627252233311E-02  1.0627252233309E-02  1.0627252233307E-02  1.0627252233305E-02  1.0627252233302E-02  1.0627252233299E-02  1.0627252233295E-02 
 1.3976698196951E-09  3.4235151421614E-09  9.6096311262688E-09  2.0066002836170E-08  3.4796162357560E-08  5.3805087282572E-08  7.7099204284178E-08  1.0468639372940E-07  1.3657599533939E-07  1.5359765805388E-07 
 1.3976698196951E-01  3.4235151421614E-01  9.6096311262688E-01  2.0066002836170E+00  3.4796162357560E+00  5.3805087282572E+00  7.7099204284178E+00  1.0468639372940E+01  1.3657599533939E+01  1.5359765805388E+01 
 8.6725756088099E-02  7.7133311627454E-02  5.9145051832171E-02  4.3549932660063E-02  3.0348123321722E-02  1.9540602514271E-02  1.1129159813527E-02  5.1163976452343E-03  1.5057338478431E-03  3.0140482458421E-04 
 5.3041225881410E-02  2.6521820258868E-01  9.0181806079471E-01  1.9630503509569E+00  3.4492681124343E+00  5.3609681257429E+00  7.6987912686043E+00  1.0463522975295E+01  1.3656093800091E+01  1.5359464400563E+01 
 0.0000000000000E+00  0.0000000000000E+00  0.0000000000000E+00  0.0000000000000E+00  0.0000000000000E+00  0.0000000000000E+00  0.0000000000000E+00  0.0000000000000E+00  0.0000000000000E+00  0.0000000000000E+00 
 0.0000000000000E+00  0.0000000000000E+00  0.0000000000000E+00  0.0000000000000E+00  0.0000000000000E+00  0.0000000000000E+00  0.0000000000000E+00  0.0000000000000E+00  0.0000000000000E+00  0.0000000000000E+00 
 0.0000000000000E+00  0.0000000000000E+00  0.0000000000000E+00  0.0000000000000E+00  0.0000000000000E+00  0.0000000000000E+00  0.0000000000000E+00  0.0000000000000E+00  0.0000000000000E+00  0.0000000000000E+00 
ZONE T = "CATH, 2.0000E-08", I = 10, SOLUTIONTIME = 2.000000E-08
ZONETYPE = ORDERED
DATAPACKING = BLOCK
STRANDID = 3
 1.2700000000000E-03  1.3377333333333E-03  1.4054666666667E-03  1.4732000000000E-03  1.5409333333333E-03  1.6086666666667E-03  1.6764000000000E-03  1.7441333333333E-03  1.8118666666667E-03  1.8796000000000E-03 
 1.9703515661838E-08  1.7388327283573E-08  1.5072129148991E-08  1.2755452084398E-08  1.0438463546784E-08  8.1206043499616E-09  5.8016782214614E-09  3.4807621128396E-09  1.1587485870093E-09 -3.0872656861856E-12 
 9.2000000000063E-01  9.2000000000180E-01  9.2000000000180E-01  9.2000000000180E-01  9.2000000000180E-01  9.2000000000180E-01  9.2000000000180E-01  9.2000000000180E-01  9.2000000000180E-01  9.2000000000180E-01 
 3.9999999999683E-02  3.9999999999101E-02  3.9999999999101E-02  3.9999999999101E-02  3.9999999999101E-02  3.9999999999100E-02  3.9999999999100E-02  3.9999999999100E-02  3.9999999999099E-02  3.9999999999098E-02 
 3.9999999999683E-02  3.9999999999101E-02  3.9999999999101E-02  3.9999999999101E-02  3.9999999999101E-02  3.9999999999100E-02  3.9999999999100E-02  3.9999999999100E-02  3.9999999999099E-02  3.9999999999098E-02 
 2.9165655070190E-02  2.9165448059012E-02  2.9165265373936E-02  2.9165107017937E-02  2.9164972996048E-02  2.9164863315357E-02  2.9164777985009E-02  2.9164717016214E-02  2.9164680422247E-02  2.9164668218451E-02 
 3.8001746429229E+00  3.8001724880239E+00  3.8001660231635E+00  3.8001552478142E+00  3.8001401610846E+00  3.8001207617189E+00  3.8000970480966E+00  3.8000690182317E+00  3.8000366697724E+00  3.8000000000000E+00 
 3.7710089878527E+00  3.7710070399649E+00  3.7710007577895E+00  3.7709901407962E+00  3.7709751880885E+00  3.7709558984035E+00  3.7709322701116E+00  3.7709043012155E+00  3.7708719893502E+00  3.7708353317815E+00 
 3.9714142710661E+00  3.9714142710657E+00  3.9714142710657E+00  3.9714142710656E+00  3.9714142710655E+00  3.9714142710654E+00  3.9714142710653E+00  3.9714142710652E+00  3.9714142710650E+00  3.9714142710648E+00 
-2.0040528321340E-01 -2.0040723110081E-01 -2.0041351327615E-01 -2.0042413026940E-01 -2.0043908297703E-01 -2.0045837266191E-01 -2.0048200095377E-01 -2.0050996984970E-01 -2.0054228171486E-01 -2.0057893928327E-01 
-1.6672261036635E+00 -3.3345787143888E+00 -3.3349867477956E+00 -3.3356764451575E+00 -3.3366480391749E+00 -3.3379018577806E+00 -3.3394383243765E+00 -3.3412579581368E+00 -3.3433613743818E+00 -1.6728746425105E+00 
 1.4705226881431E-07  1.2977176802443E-07  1.1248941784196E-07  9.5203493574807E-08  7.7912534372252E-08  6.0615077715770E-08  4.3309658879949E-08  2.5994810463298E-08  8.6690618479016E-09  8.6690618479016E-09 
 3.0043950207004E+01  2.6709434746534E+01  2.3374652015593E+01  2.0039320418763E+01  1.6703158176696E+01  1.3365883228360E+01  1.0027213137247E+01  6.6868649960218E+00  3.3445553297360E+00  0.0000000000000E+00 
 0.0000000000000E+00  3.3345154608046E+00  6.6692981919035E+00  1.0004629788456E+01  1.3340792030643E+01  1.6678066979015E+01  2.0016737070176E+01  2.3357085211448E+01  2.6699394877588E+01  3.0043950207427E+01 
 3.3344521636227E-08  6.6691573406033E-08  6.6699734048640E-08  6.6713527952675E-08  6.6732959772065E-08  6.6758036065360E-08  6.6788765300449E-08  6.6825157860642E-08  6.6867226052133E-08  3.3457492056433E-08 
 4.3407499999695E+00  8.6814999999415E+00  8.6814999999497E+00  8.6814999999635E+00  8.6814999999829E+00  8.6815000000080E+00  8.6815000000387E+00  8.6815000000752E+00  8.6815000001172E+00  4.3407500000825E+00 
 2.9517099739705E+01  5.9034199479408E+01  5.9034199479400E+01  5.9034199479386E+01  5.9034199479367E+01  5.9034199479342E+01  5.9034199479311E+01  5.9034199479275E+01  5.9034199479232E+01  2.9517099739593E+01 
 3.3857849739675E+01  6.7715699479350E+01  6.7715699479350E+01  6.7715699479350E+01  6.7715699479350E+01  6.7715699479350E+01  6.7715699479350E+01  6.7715699479350E+01  6.7715699479350E+01  3.3857849739675E+01 
 3.5000000000000E-01  3.5000000000000E-01  3.5000000000000E-01  3.5000000000000E-01  3.5000000000000E-01  3.5000000000000E-01  3.5000000000000E-01  3.5000000000000E-01  3.5000000000000E-01  3.5000000000000E-01 
 6.6040000000000E+00  1.3208000000000E+01  1.3208000000000E+01  1.3208000000000E+01  1.3208000000000E+01  1.3208000000000E+01  1.3208000000000E+01  1.3208000000000E+01  1.3208000000000E+01  6.6040000000000E+00 
-2.5245701145722E-01 -2.5246658952065E-01 -2.5249748241941E-01 -2.5254970057219E-01 -2.5262326159713E-01 -2.5271819032258E-01 -2.5283451880500E-01 -2.5297228635197E-01 -2.5313153955041E-01 -2.5331233230019E-01 
 3.3866666666667E-05  6.7733333333333E-05  6.7733333333334E-05  6.7733333333333E-05  6.7733333333334E-05  6.7733333333334E-05  6.7733333333333E-05  6.7733333333334E-05  6.7733333333333E-05  3.3866666666667E-05 
 1.5940878367827E-02  1.5940878367827E-02  1.5940878367829E-02  1.5940878367831E-02  1.5940878367834E-02  1.5940878367837E-02  1.5940878367842E-02  1.5940878367848E-02  1.5940878367854E-02  1.5940878367861E-02 
 1.0627252228210E-02  1.0627252228210E-02  1.0627252228209E-02  1.0627252228207E-02  1.0627252228204E-02  1.0627252228200E-02  1.0627252228195E-02  1.0627252228190E-02  1.0627252228183E-02  1.0627252228176E-02 
 2.7953572565707E-09  6.8470731598674E-09  1.9219382331552E-08  4.0132256472590E-08  6.9592760121219E-08  1.0761084898087E-07  1.5419937707297E-07  2.0937410595761E-07  2.7315371606745E-07  3.0719725930106E-07 
 1.3976874368756E-01  3.4235580177060E-01  9.6097512052837E-01  2.0066253636420E+00  3.4796597763659E+00  5.3805761698295E+00  7.7100172788792E+00  1.0468771222821E+01  1.3657772072806E+01  1.5359960124719E+01 
 8.6726856457227E-02  7.7134291247034E-02  5.9145804789505E-02  4.3550488621643E-02  3.0348511976945E-02  1.9540853651912E-02  1.1129303405710E-02  5.1164639367723E-03  1.5057534420147E-03  3.0140877085390E-04 
 5.3041887230334E-02  2.6522151052357E-01  9.0182931573886E-01  1.9630748750203E+00  3.4493112643889E+00  5.3610353161776E+00  7.6988879754735E+00  1.0463654758884E+01  1.3656266319364E+01  1.5359658715948E+01 
 0.0000000000000E+00  0.0000000000000E+00  0.0000000000000E+00  0.0000000000000E+00  0.0000000000000E+00  0.0000000000000E+00  0.0000000000000E+00  0.0000000000000E+00  0.0000000000000E+00  0.0000000000000E+00 
 0.0000000000000E+00  0.0000000000000E+00  0.0000000000000E+00  0.0000000000000E+00  0.0000000000000E+00  0.0000000000000E+00  0.0000000000000E+00  0.0000000000000E+00  0.0000000000000E+00  0.0000000000000E+00 
 0.0000000000000E+00  0.0000000000000E+00  0.0000000000000E+00  0.0000000000000E+00  0.0000000000000E+00  0.0000000000000E+00  0.0000000000000E+00  0.0000000000000E+00  0.0000000000000E+00  0.0000000000000E+00 
ZONE T = "CATH, 3.0000E-08", I = 10, SOLUTIONTIME = 3.000000E-08
ZONETYPE = ORDERED
DATAPACKING = BLOCK
STRANDID = 3
 1.2700000000000E-03  1.3377333333333E-03  1.4054666666667E-03  1.4732000000000E-03  1.5409333333333E-03  1.6086666666667E-03  1.6764000000000E-03  1.7441333333333E-03  1.8118666666667E-03  1.8796000000000E-03 
 1.9705694773677E-08  1.7389779995738E-08  1.5073581876943E-08  1.2757631243601E-08  1.0440279514064E-08  8.1224203330627E-09  5.8034942204009E-09  3.4840309585497E-09  1.1627438640590E-09  1.2712270471066E-12 
 9.2000000000095E-01  9.2000000000270E-01  9.2000000000270E-01  9.2000000000270E-01  9.2000000000270E-01  9.2000000000270E-01  9.2000000000270E-01  9.2000000000270E-01  9.2000000000270E-01  9.2000000000270E-01 
 3.9999999999524E-02  3.9999999998652E-02  3.9999999998652E-02  3.9999999998652E-02  3.9999999998651E-02  3.9999999998651E-02  3.9999999998650E-02  3.9999999998649E-02  3.9999999998649E-02  3.9999999998648E-02 
 3.9999999999524E-02  3.9999999998652E-02  3.9999999998652E-02  3.9999999998652E-02  3.9999999998651E-02  3.9999999998651E-02  3.9999999998650E-02  3.9999999998649E-02  3.9999999998649E-02  3.9999999998648E-02 
 2.9165654877198E-02  2.9165447866022E-02  2.9165265180946E-02  2.9165106824949E-02  2.9164972803061E-02  2.9164863122370E-02  2.9164777792023E-02  2.9164716823229E-02  2.9164680229261E-02  2.9164668025465E-02 
 3.8001746429217E+00  3.8001724880227E+00  3.8001660231623E+00  3.8001552478131E+00  3.8001401610836E+00  3.8001207617181E+00  3.8000970480959E+00  3.8000690182312E+00  3.8000366697721E+00  3.8000000000000E+00 
 3.7710089880445E+00  3.7710070401567E+00  3.7710007579814E+00  3.7709901409881E+00  3.7709751882805E+00  3.7709558985957E+00  3.7709322703039E+00  3.7709043014080E+00  3.7708719895429E+00  3.7708353319745E+00 
 3.9714142709347E+00  3.9714142709341E+00  3.9714142709341E+00  3.9714142709340E+00  3.9714142709339E+00  3.9714142709337E+00  3.9714142709335E+00  3.9714142709333E+00  3.9714142709331E+00  3.9714142709328E+00 
-2.0040528289019E-01 -2.0040723077741E-01 -2.0041351295269E-01 -2.0042412994583E-01 -2.0043908265332E-01 -2.0045837233803E-01 -2.0048200062966E-01 -2.0050996952532E-01 -2.0054228139018E-01 -2.0057893895825E-01 
-1.6672260923130E+00 -3.3345786916615E+00 -3.3349867250615E+00 -3.3356764224120E+00 -3.3366480164130E+00 -3.3379018349978E+00 -3.3394383015680E+00 -3.3412579352979E+00 -3.3433613515077E+00 -1.6728746310534E+00 
 1.4705240038352E-07  1.2977176716689E-07  1.1248941711614E-07  9.5203492984956E-08  7.7912533915018E-08  6.0615077396531E-08  4.3309658696680E-08  2.5994810417138E-08  8.6690619327724E-09  8.6690619327724E-09 
 3.0043950002351E+01  2.6709434564137E+01  2.3374651855771E+01  2.0039320282045E+01  1.6703158062606E+01  1.3365883136897E+01  1.0027213068650E+01  6.6868649502903E+00  3.3445553068702E+00  0.0000000000000E+00 
 0.0000000000000E+00  3.3345154381278E+00  6.6692981463781E+00  1.0004629720254E+01  1.3340791939764E+01  1.6678066865287E+01  2.0016736933600E+01  2.3357085052195E+01  2.6699394695486E+01  3.0043950002186E+01 
 5.0016782559357E-08  1.0003736032265E-07  1.0004960129926E-07  1.0007029217679E-07  1.0009943993620E-07  1.0013705441534E-07  1.0018314831613E-07  1.0023773721362E-07  1.0030083956721E-07  5.0186238366968E-08 
 4.3407500166418E+00  8.6815000332873E+00  8.6815000332996E+00  8.6815000333202E+00  8.6815000333494E+00  8.6815000333870E+00  8.6815000334331E+00  8.6815000334877E+00  8.6815000335508E+00  4.3407500168112E+00 
 2.9517099723033E+01  5.9034199446062E+01  5.9034199446050E+01  5.9034199446029E+01  5.9034199446001E+01  5.9034199445963E+01  5.9034199445916E+01  5.9034199445862E+01  5.9034199445799E+01  2.9517099722864E+01 
 3.3857849739675E+01  6.7715699479350E+01  6.7715699479350E+01  6.7715699479350E+01  6.7715699479350E+01  6.7715699479350E+01  6.7715699479350E+01  6.7715699479350E+01  6.7715699479350E+01  3.3857849739675E+01 
 3.5000000000000E-01  3.5000000000000E-01  3.5000000000000E-01  3.5000000000000E-01  3.5000000000000E-01  3.5000000000000E-01  3.5000000000000E-01  3.5000000000000E-01  3.5000000000000E-01  3.5000000000000E-01 
 6.6040000000000E+00  1.3208000000000E+01  1.3208000000000E+01  1.3208000000000E+01  1.3208000000000E+01  1.3208000000000E+01  1.3208000000000E+01  1.3208000000000E+01  1.3208000000000E+01  6.6040000000000E+00 
-2.5245700973849E-01 -2.5246658779993E-01 -2.5249748069818E-01 -2.5254969885009E-01 -2.5262325987379E-01 -2.5271818859765E-01 -2.5283451707814E-01 -2.5297228462280E-01 -2.5313153781857E-01 -2.5331233056533E-01 
 3.3866666666667E-05  6.7733333333333E-05  6.7733333333334E-05  6.7733333333333E-05  6.7733333333334E-05  6.7733333333334E-05  6.7733333333333E-05  6.7733333333334E-05  6.7733333333333E-05  3.3866666666667E-05 
 1.5940878372929E-02  1.5940878372930E-02  1.5940878372932E-02  1.5940878372935E-02  1.5940878372939E-02  1.5940878372945E-02  1.5940878372952E-02  1.5940878372960E-02  1.5940878372970E-02  1.5940878372981E-02 
 1.0627252223108E-02  1.0627252223108E-02  1.0627252223106E-02  1.0627252223103E-02  1.0627252223098E-02  1.0627252223092E-02  1.0627252223085E-02  1.0627252223077E-02  1.0627252223067E-02  1.0627252223056E-02 
 4.1930446744227E-09  1.0270631130974E-08  2.8829133405553E-08  6.0198509835553E-08  1.0438935741070E-07  1.6141660994538E-07  2.3129954880956E-07  3.1406181675841E-07  4.0973143493228E-07  4.6079685844998E-07 
 1.3976874178520E-01  3.4235579711065E-01  9.6097510740002E-01  2.0066253362963E+00  3.4796597289482E+00  5.3805760964513E+00  7.7100171736591E+00  1.0468771080079E+01  1.3657771886484E+01  1.5359959914892E+01 
 8.6726855276312E-02  7.7134290194421E-02  5.9145803981267E-02  4.3550488027867E-02  3.0348511562769E-02  1.9540853384691E-02  1.1129303253558E-02  5.1164638668442E-03  1.5057534214414E-03  3.0140876673747E-04 
 5.3041886508884E-02  2.6522150691623E-01  9.0182930341876E-01  1.9630748482685E+00  3.4493112173855E+00  5.3610352430666E+00  7.6988878704055E+00  1.0463654616212E+01  1.3656266133062E+01  1.5359658506125E+01 
 0.0000000000000E+00  0.0000000000000E+00  0.0000000000000E+00  0.0000000000000E+00  0.0000000000000E+00  0.0000000000000E+00  0.0000000000000E+00  0.0000000000000E+00  0.0000000000000E+00  0.0000000000000E+00 
 0.0000000000000E+00  0.0000000000000E+00  0.0000000000000E+00  0.0000000000000E+00  0.0000000000000E+00  0.0000000000000E+00  0.0000000000000E+00  0.0000000000000E+00  0.0000000000000E+00  0.0000000000000E+00 
 0.0000000000000E+00  0.0000000000000E+00  0.0000000000000E+00  0.0000000000000E+00  0.0000000000000E+00  0.0000000000000E+00  0.0000000000000E+00  0.0000000000000E+00  0.0000000000000E+00  0.0000000000000E+00 
ZONE T = "CATH, 4.0000E-08", I = 10, SOLUTIONTIME = 4.000000E-08
ZONETYPE = ORDERED
DATAPACKING = BLOCK
STRANDID = 3
 1.2700000000000E-03  1.3377333333333E-03  1.4054666666667E-03  1.4732000000000E-03  1.5409333333333E-03  1.6086666666667E-03  1.6764000000000E-03  1.7441333333333E-03  1.8118666666667E-03  1.8796000000000E-03 
 1.9701154542553E-08  1.7385966195852E-08  1.5070494508299E-08  1.2753817475296E-08  1.0437192177021E-08  8.1193330118394E-09  5.8004069150158E-09  3.4798540458407E-09  1.1585669672339E-09 -2.9056618221304E-12 
 9.2000000000127E-01  9.2000000000359E-01  9.2000000000359E-01  9.2000000000360E-01  9.2000000000360E-01  9.2000000000360E-01  9.2000000000360E-01  9.2000000000360E-01  9.2000000000360E-01  9.2000000000361E-01 
 3.9999999999365E-02  3.9999999998203E-02  3.9999999998203E-02  3.9999999998202E-02  3.9999999998202E-02  3.9999999998201E-02  3.9999999998200E-02  3.9999999998199E-02  3.9999999998198E-02  3.9999999998197E-02 
 3.9999999999365E-02  3.9999999998203E-02  3.9999999998203E-02  3.9999999998202E-02  3.9999999998202E-02  3.9999999998201E-02  3.9999999998200E-02  3.9999999998199E-02  3.9999999998198E-02  3.9999999998197E-02 
 2.9165654684207E-02  2.9165447673032E-02  2.9165264987958E-02  2.9165106631962E-02  2.9164972610075E-02  2.9164862929385E-02  2.9164777599038E-02  2.9164716630244E-02  2.9164680036277E-02  2.9164667832481E-02 
 3.8001746429205E+00  3.8001724880215E+00  3.8001660231612E+00  3.8001552478120E+00  3.8001401610826E+00  3.8001207617172E+00  3.8000970480952E+00  3.8000690182308E+00  3.8000366697719E+00  3.8000000000000E+00 
 3.7710089882363E+00  3.7710070403485E+00  3.7710007581732E+00  3.7709901411801E+00  3.7709751884726E+00  3.7709558987879E+00  3.7709322704962E+00  3.7709043016005E+00  3.7708719897356E+00  3.7708353321675E+00 
 3.9714142708033E+00  3.9714142708025E+00  3.9714142708025E+00  3.9714142708023E+00  3.9714142708022E+00  3.9714142708020E+00  3.9714142708017E+00  3.9714142708015E+00  3.9714142708011E+00  3.9714142708008E+00 
-2.0040528256699E-01 -2.0040723045400E-01 -2.0041351262922E-01 -2.0042412962227E-01 -2.0043908232962E-01 -2.0045837201414E-01 -2.0048200030555E-01 -2.0050996920095E-01 -2.0054228106551E-01 -2.0057893863323E-01 
-1.6672260809626E+00 -3.3345786689344E+00 -3.3349867023276E+00 -3.3356763996664E+00 -3.3366479936513E+00 -3.3379018122151E+00 -3.3394382787597E+00 -3.3412579124591E+00 -3.3433613286336E+00 -1.6728746195964E+00 