TITLE = "Solution on Domain BulkDomain1D_0"
VARIABLES = "x [m]"  
"Vel_axial" 
"MF_sp(ECDMC)" 
"MF_sp(Li+)" 
"MF_sp(PF6-)" 
"Volt(Electroly)" 
"Volt(AnodeVolt)" 
"Potential Drop Electrode-Electrolyte [V]" 
"Surf_0 Equilibrium Potential Drop Electrode-Electrolyte [V]" 
"Overpotential_0 [V]" 
"Current Source [A/m^2]" 
"Li+ flux [kmol/m^2/s]" 
"Electrolyte Current [A/m^2]" 
"Electrode Current [A/m^2]" 
"CV Capacity discharged [A-s/m^2]" 
"Depth of discharge in CV [A-s/m^2]" 
"CV Capacity remaining [A-s/m^2]" 
"Initial CV capacity [A-s/m^2]" 
"Porosity []" 
"Surface Area [m2/m2] (area per area)" 
"Specific current (per particle area) [A/m^2]" 
"Control volume thickness [m]" 
"MoleDens Li_C6-bulk [kmol/m^3]" 
"MoleDens V_C6-bulk [kmol/m^3]" 
"qHeat_accum [J/m3]" 
"qHeat_step [W/m3]" 
"Joule_Lyte [W/m3]" 
"Joule_Solid [W/m3]" 
"electrodHeat [W/m3]" 
"OverpotHeat [W/m3]" 
"deltaSHeat [W/m3]" 

ZONE T = "ANOD, 0.0000E+00", I = 10, SOLUTIONTIME = 0.000000E+00
ZONETYPE = ORDERED
DATAPACKING = BLOCK
STRANDID = 1
 0.0000000000000E+00  8.7488888888889E-05  1.7497777777778E-04  2.6246666666667E-04  3.4995555555556E-04  4.3744444444444E-04  5.2493333333333E-04  6.1242222222222E-04  6.9991111111111E-04  7.8740000000000E-04 
 0.0000000000000E+00  0.0000000000000E+00  0.0000000000000E+00  0.0000000000000E+00  0.0000000000000E+00  0.0000000000000E+00  0.0000000000000E+00  0.0000000000000E+00  0.0000000000000E+00  0.0000000000000E+00 
 9.2000000000000E-01  9.2000000000000E-01  9.2000000000000E-01  9.2000000000000E-01  9.2000000000000E-01  9.2000000000000E-01  9.2000000000000E-01  9.2000000000000E-01  9.2000000000000E-01  9.2000000000000E-01 
 4.0000000000000E-02  4.0000000000000E-02  4.0000000000000E-02  4.0000000000000E-02  4.0000000000000E-02  4.0000000000000E-02  4.0000000000000E-02  4.0000000000000E-02  4.0000000000000E-02  4.0000000000000E-02 
 4.0000000000000E-02  4.0000000000000E-02  4.0000000000000E-02  4.0000000000000E-02  4.0000000000000E-02  4.0000000000000E-02  4.0000000000000E-02  4.0000000000000E-02  4.0000000000000E-02  4.0000000000000E-02 
-7.0000000000000E-02 -7.0000000000000E-02 -7.0000000000000E-02 -7.0000000000000E-02 -7.0000000000000E-02 -7.0000000000000E-02 -7.0000000000000E-02 -7.0000000000000E-02 -7.0000000000000E-02 -7.0000000000000E-02 
 0.0000000000000E+00  0.0000000000000E+00  0.0000000000000E+00  0.0000000000000E+00  0.0000000000000E+00  0.0000000000000E+00  0.0000000000000E+00  0.0000000000000E+00  0.0000000000000E+00  0.0000000000000E+00 
 7.0000000000000E-02  7.0000000000000E-02  7.0000000000000E-02  7.0000000000000E-02  7.0000000000000E-02  7.0000000000000E-02  7.0000000000000E-02  7.0000000000000E-02  7.0000000000000E-02  7.0000000000000E-02 
-4.0906790794156E-02 -4.0906790794156E-02 -4.0906790794156E-02 -4.0906790794156E-02 -4.0906790794156E-02 -4.0906790794156E-02 -4.0906790794156E-02 -4.0906790794156E-02 -4.0906790794156E-02 -4.0906790794156E-02 
 1.1090679079416E-01  1.1090679079416E-01  1.1090679079416E-01  1.1090679079416E-01  1.1090679079416E-01  1.1090679079416E-01  1.1090679079416E-01  1.1090679079416E-01  1.1090679079416E-01  1.1090679079416E-01 
 3.0930289169717E+01  6.1860578339434E+01  6.1860578339434E+01  6.1860578339434E+01  6.1860578339434E+01  6.1860578339434E+01  6.1860578339434E+01  6.1860578339434E+01  6.1860578339434E+01  3.0930289169717E+01 
-0.0000000000000E+00 -0.0000000000000E+00 -0.0000000000000E+00 -0.0000000000000E+00 -0.0000000000000E+00 -0.0000000000000E+00 -0.0000000000000E+00 -0.0000000000000E+00 -0.0000000000000E+00 -0.0000000000000E+00 
 0.0000000000000E+00  0.0000000000000E+00  0.0000000000000E+00  0.0000000000000E+00  0.0000000000000E+00  0.0000000000000E+00  0.0000000000000E+00  0.0000000000000E+00  0.0000000000000E+00  3.0930289169717E+01 
 3.0930289169717E+01 -0.0000000000000E+00 -0.0000000000000E+00 -0.0000000000000E+00 -0.0000000000000E+00 -0.0000000000000E+00 -0.0000000000000E+00 -0.0000000000000E+00 -0.0000000000000E+00  0.0000000000000E+00 
 0.0000000000000E+00  0.0000000000000E+00  0.0000000000000E+00  0.0000000000000E+00  0.0000000000000E+00  0.0000000000000E+00  0.0000000000000E+00  0.0000000000000E+00  0.0000000000000E+00  0.0000000000000E+00 
 7.0592160225764E+03  1.4118432045153E+04  1.4118432045153E+04  1.4118432045153E+04  1.4118432045153E+04  1.4118432045153E+04  1.4118432045153E+04  1.4118432045153E+04  1.4118432045153E+04  7.0592160225764E+03 
 5.2238198567065E+04  1.0447639713413E+05  1.0447639713413E+05  1.0447639713413E+05  1.0447639713413E+05  1.0447639713413E+05  1.0447639713413E+05  1.0447639713413E+05  1.0447639713413E+05  5.2238198567065E+04 
 5.9297414589642E+04  1.1859482917928E+05  1.1859482917928E+05  1.1859482917928E+05  1.1859482917928E+05  1.1859482917928E+05  1.1859482917928E+05  1.1859482917928E+05  1.1859482917928E+05  5.9297414589642E+04 
 3.5000000000000E-01  3.5000000000000E-01  3.5000000000000E-01  3.5000000000000E-01  3.5000000000000E-01  3.5000000000000E-01  3.5000000000000E-01  3.5000000000000E-01  3.5000000000000E-01  3.5000000000000E-01 
 8.5301666666667E+00  1.7060333333333E+01  1.7060333333333E+01  1.7060333333333E+01  1.7060333333333E+01  1.7060333333333E+01  1.7060333333333E+01  1.7060333333333E+01  1.7060333333333E+01  8.5301666666667E+00 
 3.6259888438738E+00  3.6259888438738E+00  3.6259888438738E+00  3.6259888438738E+00  3.6259888438738E+00  3.6259888438738E+00  3.6259888438738E+00  3.6259888438738E+00  3.6259888438738E+00  3.6259888438738E+00 
 4.3744444444444E-05  8.7488888888889E-05  8.7488888888889E-05  8.7488888888889E-05  8.7488888888889E-05  8.7488888888889E-05  8.7488888888889E-05  8.7488888888889E-05  8.7488888888889E-05  4.3744444444444E-05 
 1.3380188695655E+01  1.3380188695655E+01  1.3380188695655E+01  1.3380188695655E+01  1.3380188695655E+01  1.3380188695655E+01  1.3380188695655E+01  1.3380188695655E+01  1.3380188695655E+01  1.3380188695655E+01 
 3.3450471739137E+00  3.3450471739137E+00  3.3450471739137E+00  3.3450471739137E+00  3.3450471739137E+00  3.3450471739137E+00  3.3450471739137E+00  3.3450471739137E+00  3.3450471739137E+00  3.3450471739137E+00 
 0.0000000000000E+00  0.0000000000000E+00  0.0000000000000E+00  0.0000000000000E+00  0.0000000000000E+00  0.0000000000000E+00  0.0000000000000E+00  0.0000000000000E+00  0.0000000000000E+00  0.0000000000000E+00 
 0.0000000000000E+00  0.0000000000000E+00  0.0000000000000E+00  0.0000000000000E+00  0.0000000000000E+00  0.0000000000000E+00  0.0000000000000E+00  0.0000000000000E+00  0.0000000000000E+00  0.0000000000000E+00 
 0.0000000000000E+00  0.0000000000000E+00  0.0000000000000E+00  0.0000000000000E+00  0.0000000000000E+00  0.0000000000000E+00  0.0000000000000E+00  0.0000000000000E+00  0.0000000000000E+00  0.0000000000000E+00 
 0.0000000000000E+00  0.0000000000000E+00  0.0000000000000E+00  0.0000000000000E+00  0.0000000000000E+00  0.0000000000000E+00  0.0000000000000E+00  0.0000000000000E+00  0.0000000000000E+00  0.0000000000000E+00 
 0.0000000000000E+00  0.0000000000000E+00  0.0000000000000E+00  0.0000000000000E+00  0.0000000000000E+00  0.0000000000000E+00  0.0000000000000E+00  0.0000000000000E+00  0.0000000000000E+00  0.0000000000000E+00 
 0.0000000000000E+00  0.0000000000000E+00  0.0000000000000E+00  0.0000000000000E+00  0.0000000000000E+00  0.0000000000000E+00  0.0000000000000E+00  0.0000000000000E+00  0.0000000000000E+00  0.0000000000000E+00 
 0.0000000000000E+00  0.0000000000000E+00  0.0000000000000E+00  0.0000000000000E+00  0.0000000000000E+00  0.0000000000000E+00  0.0000000000000E+00  0.0000000000000E+00  0.0000000000000E+00  0.0000000000000E+00 
ZONE T = "ANOD, 1.0000E-08", I = 10, SOLUTIONTIME = 1.000000E-08
ZONETYPE = ORDERED
DATAPACKING = BLOCK
STRANDID = 1
 0.0000000000000E+00  8.7488888888889E-05  1.7497777777778E-04  2.6246666666667E-04  3.4995555555556E-04  4.3744444444444E-04  5.2493333333333E-04  6.1242222222222E-04  6.9991111111111E-04  7.8740000000000E-04 
 1.1589928216606E-09  3.4769806726302E-09  5.7949771614652E-09  8.1129887193690E-09  1.0431021776634E-08  1.2749082763862E-08  1.5067178111744E-08  1.7385314251079E-08  1.9703497613270E-08  2.0862979328817E-08 
 9.1999999999930E-01  9.1999999999930E-01  9.1999999999930E-01  9.1999999999930E-01  9.1999999999930E-01  9.1999999999930E-01  9.1999999999930E-01  9.1999999999930E-01  9.1999999999930E-01  9.1999999999971E-01 
 4.0000000000348E-02  4.0000000000348E-02  4.0000000000348E-02  4.0000000000348E-02  4.0000000000348E-02  4.0000000000348E-02  4.0000000000348E-02  4.0000000000348E-02  4.0000000000348E-02  4.0000000000144E-02 
 4.0000000000348E-02  4.0000000000348E-02  4.0000000000348E-02  4.0000000000348E-02  4.0000000000348E-02  4.0000000000348E-02  4.0000000000348E-02  4.0000000000348E-02  4.0000000000348E-02  4.0000000000144E-02 
 2.9167439051757E-02  2.9167423324645E-02  2.9167376143241E-02  2.9167297507466E-02  2.9167187417075E-02  2.9167045871814E-02  2.9166872871282E-02  2.9166668415016E-02  2.9166432502454E-02  2.9166165132985E-02 
 0.0000000000000E+00 -4.7371318736177E-09 -8.9169746656987E-09 -1.2539526299533E-08 -1.5604783152226E-08 -1.8112740054915E-08 -2.0063390292697E-08 -2.1456725604607E-08 -2.2292736183591E-08 -2.2571410676362E-08 
-2.9167439051757E-02 -2.9167428061777E-02 -2.9167385060215E-02 -2.9167310046993E-02 -2.9167203021858E-02 -2.9167063984554E-02 -2.9166892934673E-02 -2.9166689871742E-02 -2.9166454795190E-02 -2.9166187704396E-02 
-4.0906790793438E-02 -4.0906790793438E-02 -4.0906790793438E-02 -4.0906790793438E-02 -4.0906790793437E-02 -4.0906790793438E-02 -4.0906790793438E-02 -4.0906790793437E-02 -4.0906790793437E-02 -4.0906790793568E-02 
 1.1739351741681E-02  1.1739362731662E-02  1.1739405733223E-02  1.1739480746446E-02  1.1739587771579E-02  1.1739726808884E-02  1.1739897858766E-02  1.1740100921695E-02  1.1740335998247E-02  1.1740603089172E-02 
 1.6690505686305E+00  3.3381043164572E+00  3.3381167560080E+00  3.3381384559418E+00  3.3381694163397E+00  3.3382096372904E+00  3.3382591189278E+00  3.3383178614091E+00  3.3383858649249E+00  1.6692315648416E+00 
 8.6491947480515E-09  2.5947621821049E-08  4.3246091889767E-08  6.0544697364289E-08  7.7843442110290E-08  9.5142407505253E-08  1.1244162762966E-07  1.2974115662114E-07  1.4704109350943E-07  1.4704109350943E-07 
 0.0000000000000E+00  3.3380854870996E+00  6.6761787482751E+00  1.0014289222582E+01  1.3352426199587E+01  1.6690597903487E+01  2.0028815473845E+01  2.3367087423153E+01  2.6705421571845E+01  3.0043836410043E+01 
 3.0043837486817E+01  2.6705743353187E+01  2.3367650003580E+01  2.0029539584038E+01  1.6691402833767E+01  1.3353230492414E+01  1.0015013299339E+01  6.6767419937529E+00  3.3384073143584E+00  0.0000000000000E+00 
 1.6690505686305E-08  3.3381043164572E-08  3.3381167560080E-08  3.3381384559418E-08  3.3381694163397E-08  3.3382096372904E-08  3.3382591189278E-08  3.3383178614091E-08  3.3383858649249E-08  1.6692315648416E-08 
 7.0592160225931E+03  1.4118432045186E+04  1.4118432045186E+04  1.4118432045186E+04  1.4118432045186E+04  1.4118432045186E+04  1.4118432045186E+04  1.4118432045186E+04  1.4118432045186E+04  7.0592160225931E+03 
 5.2238198567049E+04  1.0447639713410E+05  1.0447639713410E+05  1.0447639713410E+05  1.0447639713410E+05  1.0447639713410E+05  1.0447639713410E+05  1.0447639713410E+05  1.0447639713410E+05  5.2238198567049E+04 
 5.9297414589642E+04  1.1859482917928E+05  1.1859482917928E+05  1.1859482917928E+05  1.1859482917928E+05  1.1859482917928E+05  1.1859482917928E+05  1.1859482917928E+05  1.1859482917928E+05  5.9297414589642E+04 
 3.5000000000000E-01  3.5000000000000E-01  3.5000000000000E-01  3.5000000000000E-01  3.5000000000000E-01  3.5000000000000E-01  3.5000000000000E-01  3.5000000000000E-01  3.5000000000000E-01  3.5000000000000E-01 
 8.5301666666665E+00  1.7060333333333E+01  1.7060333333333E+01  1.7060333333333E+01  1.7060333333333E+01  1.7060333333333E+01  1.7060333333333E+01  1.7060333333333E+01  1.7060333333333E+01  8.5301666666665E+00 
 1.9566447337456E-01  1.9566465972474E-01  1.9566538887525E-01  1.9566666082776E-01  1.9566847558702E-01  1.9567083315823E-01  1.9567373354924E-01  1.9567717676926E-01  1.9568116282946E-01  1.9568569174205E-01 
 4.3744444444444E-05  8.7488888888889E-05  8.7488888888889E-05  8.7488888888889E-05  8.7488888888889E-05  8.7488888888889E-05  8.7488888888889E-05  8.7488888888889E-05  8.7488888888889E-05  4.3744444444444E-05 
 1.3380188695651E+01  1.3380188695651E+01  1.3380188695651E+01  1.3380188695651E+01  1.3380188695651E+01  1.3380188695651E+01  1.3380188695651E+01  1.3380188695651E+01  1.3380188695651E+01  1.3380188695651E+01 
 3.3450471739177E+00  3.3450471739177E+00  3.3450471739177E+00  3.3450471739177E+00  3.3450471739177E+00  3.3450471739177E+00  3.3450471739177E+00  3.3450471739177E+00  3.3450471739177E+00  3.3450471739177E+00 
 1.8363966339117E-11  2.8664051098984E-11  6.1478127844723E-11  1.1872033205467E-10  2.0039127214021E-10  3.0649184771974E-10  4.3702328217967E-10  5.9198701517223E-10  7.7138467972253E-10  8.6719219802217E-10 
 1.8363966339117E-03  2.8664051098984E-03  6.1478127844723E-03  1.1872033205467E-02  2.0039127214021E-02  3.0649184771974E-02  4.3702328217967E-02  5.9198701517223E-02  7.7138467972253E-02  8.6719219802217E-02 
 3.0002888225397E-04  1.5001483217478E-03  5.1005154010580E-03  1.1101170269009E-02  1.9502173704275E-02  3.0303615134269E-02  4.3505615891304E-02  5.9108318462324E-02  7.7111884199597E-02  8.6713902900021E-02 
 1.5363677516577E-03  1.3662567881506E-03  1.0472973834143E-03  7.7086293645775E-04  5.3695350974637E-04  3.4556963770424E-04  1.9671232666300E-04  9.0383054898846E-05  2.6583772656935E-05  5.3169021960025E-06 
 0.0000000000000E+00  0.0000000000000E+00  0.0000000000000E+00  0.0000000000000E+00  0.0000000000000E+00  0.0000000000000E+00  0.0000000000000E+00  0.0000000000000E+00  0.0000000000000E+00  0.0000000000000E+00 
 0.0000000000000E+00  0.0000000000000E+00  0.0000000000000E+00  0.0000000000000E+00  0.0000000000000E+00  0.0000000000000E+00  0.0000000000000E+00  0.0000000000000E+00  0.0000000000000E+00  0.0000000000000E+00 
 0.0000000000000E+00  0.0000000000000E+00  0.0000000000000E+00  0.0000000000000E+00  0.0000000000000E+00  0.0000000000000E+00  0.0000000000000E+00  0.0000000000000E+00  0.0000000000000E+00  0.0000000000000E+00 
ZONE T = "ANOD, 2.0000E-08", I = 10, SOLUTIONTIME = 2.000000E-08
ZONETYPE = ORDERED
DATAPACKING = BLOCK
STRANDID = 1
 0.0000000000000E+00  8.7488888888889E-05  1.7497777777778E-04  2.6246666666667E-04  3.4995555555556E-04  4.3744444444444E-04  5.2493333333333E-04  6.1242222222222E-04  6.9991111111111E-04  7.8740000000000E-04 
 1.1589985683254E-09  3.4769979126422E-09  5.7950058950990E-09  8.1130289461977E-09  1.0431073496488E-08  1.2748419561134E-08  1.5065799986297E-08  1.7383584410524E-08  1.9701416057034E-08  2.0860903518583E-08 
 9.1999999999861E-01  9.1999999999861E-01  9.1999999999861E-01  9.1999999999861E-01  9.1999999999861E-01  9.1999999999861E-01  9.1999999999861E-01  9.1999999999861E-01  9.1999999999861E-01  9.1999999999942E-01 
 4.0000000000696E-02  4.0000000000696E-02  4.0000000000696E-02  4.0000000000696E-02  4.0000000000696E-02  4.0000000000696E-02  4.0000000000696E-02  4.0000000000696E-02  4.0000000000696E-02  4.0000000000288E-02 
 4.0000000000696E-02  4.0000000000696E-02  4.0000000000696E-02  4.0000000000696E-02  4.0000000000696E-02  4.0000000000696E-02  4.0000000000696E-02  4.0000000000696E-02  4.0000000000696E-02  4.0000000000288E-02 
 2.9167441246733E-02  2.9167425519533E-02  2.9167378337904E-02  2.9167299701728E-02  2.9167189610801E-02  2.9167048064831E-02  2.9166875063439E-02  2.9166670606159E-02  2.9166434692437E-02  2.9166167321633E-02 
 0.0000000000000E+00 -4.7371553600525E-09 -8.9170188753455E-09 -1.2539588469103E-08 -1.5604860518533E-08 -1.8112829854813E-08 -2.0063489763078E-08 -2.1456831982394E-08 -2.2292846705737E-08 -2.2571522579956E-08 
-2.9167441246733E-02 -2.9167430256689E-02 -2.9167387254923E-02 -2.9167312241317E-02 -2.9167205215662E-02 -2.9167066177661E-02 -2.9166895126929E-02 -2.9166692062991E-02 -2.9166456985284E-02 -2.9166189893156E-02 
-4.0906790792716E-02 -4.0906790792716E-02 -4.0906790792716E-02 -4.0906790792716E-02 -4.0906790792716E-02 -4.0906790792716E-02 -4.0906790792716E-02 -4.0906790792716E-02 -4.0906790792716E-02 -4.0906790792978E-02 
 1.1739349545983E-02  1.1739360536027E-02  1.1739403537793E-02  1.1739478551399E-02  1.1739585577054E-02  1.1739724615055E-02  1.1739895665787E-02  1.1740098729725E-02  1.1740333807432E-02  1.1740600899823E-02 
 1.6690502510602E+00  3.3381036813352E+00  3.3381161209450E+00  3.3381378209895E+00  3.3381687815381E+00  3.3382090026896E+00  3.3382584845725E+00  3.3383172273448E+00  3.3383852311942E+00  1.6692312481837E+00 
 8.6492430504479E-09  2.5947745614413E-08  4.3246312650105E-08  6.0544992133396E-08  7.7843832058538E-08  9.5142880418601E-08  1.1244218520088E-07  1.2974179439497E-07  1.4704190022851E-07  1.4704190022851E-07 
 0.0000000000000E+00  3.3381020918170E+00  6.6762119928726E+00  1.0014338963831E+01  1.3352492264989E+01  1.6690681157196E+01  2.0028914900930E+01  2.3367202756858E+01  2.6705553986123E+01  3.0043977849861E+01 
 3.0043977849853E+01  2.6705875758125E+01  2.3367765856985E+01  2.0029638886018E+01  1.6691485584754E+01  1.3353296692640E+01  1.0015062949009E+01  6.6767750930503E+00  3.3384238637808E+00  0.0000000000000E+00 
 3.3381008196908E-08  6.6762079977924E-08  6.6762328769530E-08  6.6762762769313E-08  6.6763381978777E-08  6.6764186399799E-08  6.6765176035002E-08  6.6766350887539E-08  6.6767710961191E-08  3.3384628130253E-08 
 7.0592160226098E+03  1.4118432045220E+04  1.4118432045220E+04  1.4118432045220E+04  1.4118432045220E+04  1.4118432045220E+04  1.4118432045220E+04  1.4118432045220E+04  1.4118432045220E+04  7.0592160226098E+03 
 5.2238198567032E+04  1.0447639713406E+05  1.0447639713406E+05  1.0447639713406E+05  1.0447639713406E+05  1.0447639713406E+05  1.0447639713406E+05  1.0447639713406E+05  1.0447639713406E+05  5.2238198567032E+04 
 5.9297414589642E+04  1.1859482917928E+05  1.1859482917928E+05  1.1859482917928E+05  1.1859482917928E+05  1.1859482917928E+05  1.1859482917928E+05  1.1859482917928E+05  1.1859482917928E+05  5.9297414589642E+04 
 3.5000000000000E-01  3.5000000000000E-01  3.5000000000000E-01  3.5000000000000E-01  3.5000000000000E-01  3.5000000000000E-01  3.5000000000000E-01  3.5000000000000E-01  3.5000000000000E-01  3.5000000000000E-01 
 8.5301666666663E+00  1.7060333333333E+01  1.7060333333333E+01  1.7060333333333E+01  1.7060333333333E+01  1.7060333333333E+01  1.7060333333333E+01  1.7060333333333E+01  1.7060333333333E+01  8.5301666666663E+00 
 1.9566443614548E-01  1.9566462249675E-01  1.9566535165072E-01  1.9566662360972E-01  1.9566843837781E-01  1.9567079596079E-01  1.9567369636619E-01  1.9567713960327E-01  1.9568112568303E-01  1.9568565461993E-01 
 4.3744444444444E-05  8.7488888888889E-05  8.7488888888889E-05  8.7488888888889E-05  8.7488888888889E-05  8.7488888888889E-05  8.7488888888889E-05  8.7488888888889E-05  8.7488888888889E-05  4.3744444444444E-05 
 1.3380188695647E+01  1.3380188695647E+01  1.3380188695647E+01  1.3380188695647E+01  1.3380188695647E+01  1.3380188695647E+01  1.3380188695647E+01  1.3380188695647E+01  1.3380188695647E+01  1.3380188695647E+01 
 3.3450471739216E+00  3.3450471739216E+00  3.3450471739216E+00  3.3450471739216E+00  3.3450471739216E+00  3.3450471739216E+00  3.3450471739216E+00  3.3450471739216E+00  3.3450471739216E+00  3.3450471739216E+00 
 3.6728118532519E-11  5.7328383258345E-11  1.2295687126177E-10  2.3744183921096E-10  4.0078453071496E-10  6.1298675168172E-10  8.7405090286093E-10  1.1839798723745E-09  1.5427770128489E-09  1.7343930608546E-09 
 1.8364152193402E-03  2.8664332159361E-03  6.1478743417051E-03  1.1872150715629E-02  2.0039325857475E-02  3.0649490396198E-02  4.3702762068125E-02  5.9199285720228E-02  7.7139233312636E-02  8.6720086283241E-02 
 6.0006111544802E-04  3.0003112019117E-03  1.0201081974621E-02  2.2202450404625E-02  3.9004540727876E-02  6.0607532466346E-02  8.7011663682346E-02  1.1821722023152E-01  1.5422453347601E-01  1.7342867222835E-01 
 3.0727507378039E-03  2.7325271239228E-03  2.0946051515562E-03  1.5417335164713E-03  1.0739123436201E-03  6.9114270182571E-04  3.9342660374637E-04  1.8076700593342E-04  5.3167808881709E-05  1.0633857106156E-05 
 0.0000000000000E+00  0.0000000000000E+00  0.0000000000000E+00  0.0000000000000E+00  0.0000000000000E+00  0.0000000000000E+00  0.0000000000000E+00  0.0000000000000E+00  0.0000000000000E+00  0.0000000000000E+00 
 0.0000000000000E+00  0.0000000000000E+00  0.0000000000000E+00  0.0000000000000E+00  0.0000000000000E+00  0.0000000000000E+00  0.0000000000000E+00  0.0000000000000E+00  0.0000000000000E+00  0.0000000000000E+00 
 0.0000000000000E+00  0.0000000000000E+00  0.0000000000000E+00  0.0000000000000E+00  0.0000000000000E+00  0.0000000000000E+00  0.0000000000000E+00  0.0000000000000E+00  0.0000000000000E+00  0.0000000000000E+00 
ZONE T = "ANOD, 3.0000E-08", I = 10, SOLUTIONTIME = 3.000000E-08
ZONETYPE = ORDERED
DATAPACKING = BLOCK
STRANDID = 1
 0.0000000000000E+00  8.7488888888889E-05  1.7497777777778E-04  2.6246666666667E-04  3.4995555555556E-04  4.3744444444444E-04  5.2493333333333E-04  6.1242222222222E-04  6.9991111111111E-04  7.8740000000000E-04 
 1.1589985683010E-09  3.4769979125690E-09  5.7950058949770E-09  8.1130289460270E-09  1.0431073496269E-08  1.2749872391777E-08  1.5068705647803E-08  1.7387942902893E-08  1.9706500964811E-08  2.0865262010890E-08 
 9.1999999999791E-01  9.1999999999791E-01  9.1999999999791E-01  9.1999999999791E-01  9.1999999999791E-01  9.1999999999791E-01  9.1999999999791E-01  9.1999999999791E-01  9.1999999999791E-01  9.1999999999914E-01 
 4.0000000001045E-02  4.0000000001045E-02  4.0000000001045E-02  4.0000000001045E-02  4.0000000001045E-02  4.0000000001045E-02  4.0000000001045E-02  4.0000000001045E-02  4.0000000001045E-02  4.0000000000432E-02 
 4.0000000001045E-02  4.0000000001045E-02  4.0000000001045E-02  4.0000000001045E-02  4.0000000001045E-02  4.0000000001045E-02  4.0000000001045E-02  4.0000000001045E-02  4.0000000001045E-02  4.0000000000432E-02 
 2.9167441246369E-02  2.9167425519169E-02  2.9167378337540E-02  2.9167299701364E-02  2.9167189610437E-02  2.9167048064467E-02  2.9166875063075E-02  2.9166670605795E-02  2.9166434692074E-02  2.9166167321269E-02 
 0.0000000000000E+00 -4.7371553599559E-09 -8.9170188751640E-09 -1.2539588468849E-08 -1.5604860518217E-08 -1.8112829854447E-08 -2.0063489762674E-08 -2.1456831981964E-08 -2.2292846705291E-08 -2.2571522579507E-08 
-2.9167441246369E-02 -2.9167430256325E-02 -2.9167387254559E-02 -2.9167312240953E-02 -2.9167205215298E-02 -2.9167066177297E-02 -2.9166895126565E-02 -2.9166692062627E-02 -2.9166456984920E-02 -2.9166189892792E-02 
-4.0906790791992E-02 -4.0906790791992E-02 -4.0906790791992E-02 -4.0906790791992E-02 -4.0906790791994E-02 -4.0906790791994E-02 -4.0906790791994E-02 -4.0906790791996E-02 -4.0906790791996E-02 -4.0906790792390E-02 
 1.1739349545623E-02  1.1739360535667E-02  1.1739403537433E-02  1.1739478551039E-02  1.1739585576696E-02  1.1739724614697E-02  1.1739895665429E-02  1.1740098729369E-02  1.1740333807076E-02  1.1740600899598E-02 
 1.6690502510251E+00  3.3381036812650E+00  3.3381161208747E+00  3.3381378209192E+00  3.3381687814682E+00  3.3382090026197E+00  3.3382584845027E+00  3.3383172272755E+00  3.3383852311249E+00  1.6692312481637E+00 
 8.6492430486152E-09  2.5947745614639E-08  4.3246312648573E-08  6.0544992128191E-08  7.7843832058877E-08  9.5142880413358E-08  1.1244218519995E-07  1.2974179439037E-07  1.4704197234285E-07  1.4704197234285E-07 
 0.0000000000000E+00  3.3381020916620E+00  6.6762119927466E+00  1.0014338963550E+01  1.3352492264737E+01  1.6690681156789E+01  2.0028914900552E+01  2.3367202756325E+01  2.6705553985399E+01  3.0043977849280E+01 
 3.0043977849239E+01  2.6705875757581E+01  2.3367765856512E+01  2.0029638885614E+01  1.6691485584421E+01  1.3353296692377E+01  1.0015062948815E+01  6.6767750929263E+00  3.3384238637261E+00  0.0000000000000E+00 
 5.0071510707159E-08  1.0014311679057E-07  1.0014348997828E-07  1.0014414097851E-07  1.0014506979346E-07  1.0014627642600E-07  1.0014776088003E-07  1.0014952316029E-07  1.0015156327244E-07  5.0076940611890E-08 
 7.0592160226264E+03  1.4118432045253E+04  1.4118432045253E+04  1.4118432045253E+04  1.4118432045253E+04  1.4118432045253E+04  1.4118432045253E+04  1.4118432045253E+04  1.4118432045253E+04  7.0592160226265E+03 
 5.2238198567015E+04  1.0447639713403E+05  1.0447639713403E+05  1.0447639713403E+05  1.0447639713403E+05  1.0447639713403E+05  1.0447639713403E+05  1.0447639713403E+05  1.0447639713403E+05  5.2238198567015E+04 
 5.9297414589642E+04  1.1859482917928E+05  1.1859482917928E+05  1.1859482917928E+05  1.1859482917928E+05  1.1859482917928E+05  1.1859482917928E+05  1.1859482917928E+05  1.1859482917928E+05  5.9297414589642E+04 
 3.5000000000000E-01  3.5000000000000E-01  3.5000000000000E-01  3.5000000000000E-01  3.5000000000000E-01  3.5000000000000E-01  3.5000000000000E-01  3.5000000000000E-01  3.5000000000000E-01  3.5000000000000E-01 
 8.5301666666661E+00  1.7060333333332E+01  1.7060333333332E+01  1.7060333333332E+01  1.7060333333332E+01  1.7060333333332E+01  1.7060333333332E+01  1.7060333333332E+01  1.7060333333332E+01  8.5301666666661E+00 
 1.9566443614137E-01  1.9566462249264E-01  1.9566535164660E-01  1.9566662360560E-01  1.9566843837372E-01  1.9567079595670E-01  1.9567369636210E-01  1.9567713959921E-01  1.9568112567897E-01  1.9568565461759E-01 
 4.3744444444444E-05  8.7488888888889E-05  8.7488888888889E-05  8.7488888888889E-05  8.7488888888889E-05  8.7488888888889E-05  8.7488888888889E-05  8.7488888888889E-05  8.7488888888889E-05  4.3744444444444E-05 
 1.3380188695643E+01  1.3380188695643E+01  1.3380188695643E+01  1.3380188695643E+01  1.3380188695643E+01  1.3380188695643E+01  1.3380188695643E+01  1.3380188695643E+01  1.3380188695643E+01  1.3380188695643E+01 
 3.3450471739256E+00  3.3450471739256E+00  3.3450471739256E+00  3.3450471739256E+00  3.3450471739256E+00  3.3450471739256E+00  3.3450471739256E+00  3.3450471739256E+00  3.3450471739256E+00  3.3450471739256E+00 
 5.5092270723997E-11  8.5992715416619E-11  1.8443561467554E-10  3.5616334635997E-10  6.0117778928061E-10  9.1948165562568E-10  1.3110785235227E-09  1.7759727295435E-09  2.3141693459286E-09  2.6015939236473E-09 
 1.8364152191478E-03  2.8664332158274E-03  6.1478743413762E-03  1.1872150714901E-02  2.0039325856565E-02  3.0649490394396E-02  4.3702762066180E-02  5.9199285716900E-02  7.7139233307967E-02  8.6720086279273E-02 
 9.0009334851229E-04  4.5004740820225E-03  1.5301648547898E-02  3.3303730539543E-02  5.8506907750589E-02  9.0911449796635E-02  1.3051771147145E-01  1.7732612199739E-01  2.3133718274775E-01  2.6014344155271E-01 
 4.6091337238874E-03  4.0987974596394E-03  3.1419129196557E-03  2.3126040964539E-03  1.6108711774725E-03  1.0367157659335E-03  5.9014088082213E-04  2.7115095696462E-04  7.9751845105565E-05  1.5950812016181E-05 
 0.0000000000000E+00  0.0000000000000E+00  0.0000000000000E+00  0.0000000000000E+00  0.0000000000000E+00  0.0000000000000E+00  0.0000000000000E+00  0.0000000000000E+00  0.0000000000000E+00  0.0000000000000E+00 
 0.0000000000000E+00  0.0000000000000E+00  0.0000000000000E+00  0.0000000000000E+00  0.0000000000000E+00  0.0000000000000E+00  0.0000000000000E+00  0.0000000000000E+00  0.0000000000000E+00  0.0000000000000E+00 
 0.0000000000000E+00  0.0000000000000E+00  0.0000000000000E+00  0.0000000000000E+00  0.0000000000000E+00  0.0000000000000E+00  0.0000000000000E+00  0.0000000000000E+00  0.0000000000000E+00  0.0000000000000E+00 
ZONE T = "ANOD, 4.0000E-08", I = 10, SOLUTIONTIME = 4.000000E-08
ZONETYPE = ORDERED
DATAPACKING = BLOCK
STRANDID = 1
 0.0000000000000E+00  8.7488888888889E-05  1.7497777777778E-04  2.6246666666667E-04  3.4995555555556E-04  4.3744444444444E-04  5.2493333333333E-04  6.1242222222222E-04  6.9991111111111E-04  7.8740000000000E-04 
 1.1589985682768E-09  3.4759082893130E-09  5.7939162716727E-09  8.1119393226742E-09  1.0428894249684E-08  1.2745877106504E-08  1.5063983947026E-08  1.7382131578884E-08  1.9700326433026E-08  2.0859450686818E-08 
 9.1999999999721E-01  9.1999999999721E-01  9.1999999999721E-01  9.1999999999721E-01  9.1999999999721E-01  9.1999999999721E-01  9.1999999999721E-01  9.1999999999721E-01  9.1999999999721E-01  9.1999999999885E-01 
 4.0000000001393E-02  4.0000000001393E-02  4.0000000001393E-02  4.0000000001393E-02  4.0000000001393E-02  4.0000000001393E-02  4.0000000001393E-02  4.0000000001393E-02  4.0000000001393E-02  4.0000000000576E-02 
 4.0000000001393E-02  4.0000000001393E-02  4.0000000001393E-02  4.0000000001393E-02  4.0000000001393E-02  4.0000000001393E-02  4.0000000001393E-02  4.0000000001393E-02  4.0000000001393E-02  4.0000000000576E-02 
 2.9167441246004E-02  2.9167425518804E-02  2.9167378337175E-02  2.9167299700999E-02  2.9167189610072E-02  2.9167048064102E-02  2.9166875062710E-02  2.9166670605430E-02  2.9166434691708E-02  2.9166167320904E-02 
 0.0000000000000E+00 -4.7371553598590E-09 -8.9170188749819E-09 -1.2539588468593E-08 -1.5604860517899E-08 -1.8112829854079E-08 -2.0063489762267E-08 -2.1456831981531E-08 -2.2292846704843E-08 -2.2571522579056E-08 
-2.9167441246004E-02 -2.9167430255959E-02 -2.9167387254194E-02 -2.9167312240587E-02 -2.9167205214932E-02 -2.9167066176932E-02 -2.9166895126200E-02 -2.9166692062262E-02 -2.9166456984555E-02 -2.9166189892426E-02 
-4.0906790791268E-02 -4.0906790791268E-02 -4.0906790791268E-02 -4.0906790791268E-02 -4.0906790791268E-02 -4.0906790791268E-02 -4.0906790791268E-02 -4.0906790791271E-02 -4.0906790791271E-02 -4.0906790791796E-02 
 1.1739349545264E-02  1.1739360535309E-02  1.1739403537075E-02  1.1739478550681E-02  1.1739585576335E-02  1.1739724614336E-02  1.1739895665068E-02  1.1740098729009E-02  1.1740333806716E-02  1.1740600899369E-02 
 1.6690502509902E+00  3.3381036811953E+00  3.3381161208051E+00  3.3381378208496E+00  3.3381687813980E+00  3.3382090025494E+00  3.3382584844324E+00  3.3383172272055E+00  3.3383852310549E+00  1.6692312481434E+00 