TITLE = "Solution on Domain BulkDomain1D_0"
VARIABLES = "x [m]"  
"Vel_axial" 
"MF_sp(ECDMC)" 
"MF_sp(Li+)" 
"MF_sp(PF6-)" 
"Volt(Electroly)" 
"Volt(AnodeVolt)" 
"Potential Drop Electrode-Electrolyte [V]" 
"Surf_0 Equilibrium Potential Drop Electrode-Electrolyte [V]" 
"Overpotential_0 [V]" 
"Current Source [A/m^2]" 
"Li+ flux [kmol/m^2/s]" 
"Electrolyte Current [A/m^2]" 
"Electrode Current [A/m^2]" 
"CV Capacity discharged [A-s/m^2]" 
"Depth of discharge in CV [A-s/m^2]" 
"CV Capacity remaining [A-s/m^2]" 
"Initial CV capacity [A-s/m^2]" 
"Porosity []" 
"Surface Area [m2/m2] (area per area)" 
"Specific current (per particle area) [A/m^2]" 
"Control volume thickness [m]" 
"MoleDens Li_C6-bulk [kmol/m^3]" 
"MoleDens V_C6-bulk [kmol/m^3]" 
"qHeat_accum [J/m3]" 
"qHeat_step [W/m3]" 
"Joule_Lyte [W/m3]" 
"Joule_Solid [W/m3]" 
"electrodHeat [W/m3]" 
"OverpotHeat [W/m3]" 
"deltaSHeat [W/m3]" 

ZONE T = "ANOD, 0.0000E+00", I = 10, SOLUTIONTIME = 0.000000E+00
ZONETYPE = ORDERED
DATAPACKING = BLOCK
STRANDID = 1
 0.0000000000000E+00  8.7488888888889E-05  1.7497777777778E-04  2.6246666666667E-04  3.4995555555556E-04  4.3744444444444E-04  5.2493333333333E-04  6.1242222222222E-04  6.9991111111111E-04  7.8740000000000E-04 
 0.0000000000000E+00  0.0000000000000E+00  0.0000000000000E+00  0.0000000000000E+00  0.0000000000000E+00  0.0000000000000E+00  0.0000000000000E+00  0.0000000000000E+00  0.0000000000000E+00  0.0000000000000E+00 
 9.2000000000000E-01  9.2000000000000E-01  9.2000000000000E-01  9.2000000000000E-01  9.2000000000000E-01  9.2000000000000E-01  9.2000000000000E-01  9.2000000000000E-01  9.2000000000000E-01  9.2000000000000E-01 
 4.0000000000000E-02  4.0000000000000E-02  4.0000000000000E-02  4.0000000000000E-02  4.0000000000000E-02  4.0000000000000E-02  4.0000000000000E-02  4.0000000000000E-02  4.0000000000000E-02  4.0000000000000E-02 
 4.0000000000000E-02  4.0000000000000E-02  4.0000000000000E-02  4.0000000000000E-02  4.0000000000000E-02  4.0000000000000E-02  4.0000000000000E-02  4.0000000000000E-02  4.0000000000000E-02  4.0000000000000E-02 
-7.0000000000000E-02 -7.0000000000000E-02 -7.0000000000000E-02 -7.0000000000000E-02 -7.0000000000000E-02 -7.0000000000000E-02 -7.0000000000000E-02 -7.0000000000000E-02 -7.0000000000000E-02 -7.0000000000000E-02 
 0.0000000000000E+00  0.0000000000000E+00  0.0000000000000E+00  0.0000000000000E+00  0.0000000000000E+00  0.0000000000000E+00  0.0000000000000E+00  0.0000000000000E+00  0.0000000000000E+00  0.0000000000000E+00 
 7.0000000000000E-02  7.0000000000000E-02  7.0000000000000E-02  7.0000000000000E-02  7.0000000000000E-02  7.0000000000000E-02  7.0000000000000E-02  7.0000000000000E-02  7.0000000000000E-02  7.0000000000000E-02 
-4.0906790794156E-02 -4.0906790794156E-02 -4.0906790794156E-02 -4.0906790794156E-02 -4.0906790794156E-02 -4.0906790794156E-02 -4.0906790794156E-02 -4.0906790794156E-02 -4.0906790794156E-02 -4.0906790794156E-02 
 1.1090679079416E-01  1.1090679079416E-01  1.1090679079416E-01  1.1090679079416E-01  1.1090679079416E-01  1.1090679079416E-01  1.1090679079416E-01  1.1090679079416E-01  1.1090679079416E-01  1.1090679079416E-01 
 3.0930289169717E+01  6.1860578339434E+01  6.1860578339434E+01  6.1860578339434E+01  6.1860578339434E+01  6.1860578339434E+01  6.1860578339434E+01  6.1860578339434E+01  6.1860578339434E+01  3.0930289169717E+01 
-0.0000000000000E+00 -0.0000000000000E+00 -0.0000000000000E+00 -0.0000000000000E+00 -0.0000000000000E+00 -0.0000000000000E+00 -0.0000000000000E+00 -0.0000000000000E+00 -0.0000000000000E+00 -0.0000000000000E+00 
 0.0000000000000E+00  0.0000000000000E+00  0.0000000000000E+00  0.0000000000000E+00  0.0000000000000E+00  0.0000000000000E+00  0.0000000000000E+00  0.0000000000000E+00  0.0000000000000E+00  3.0930289169717E+01 
 3.0930289169717E+01 -0.0000000000000E+00 -0.0000000000000E+00 -0.0000000000000E+00 -0.0000000000000E+00 -0.0000000000000E+00 -0.0000000000000E+00 -0.0000000000000E+00 -0.0000000000000E+00  0.0000000000000E+00 
 0.0000000000000E+00  0.0000000000000E+00  0.0000000000000E+00  0.0000000000000E+00  0.0000000000000E+00  0.0000000000000E+00  0.0000000000000E+00  0.0000000000000E+00  0.0000000000000E+00  0.0000000000000E+00 
 7.0592160225764E+03  1.4118432045153E+04  1.4118432045153E+04  1.4118432045153E+04  1.4118432045153E+04  1.4118432045153E+04  1.4118432045153E+04  1.4118432045153E+04  1.4118432045153E+04  7.0592160225764E+03 
 5.2238198567065E+04  1.0447639713413E+05  1.0447639713413E+05  1.0447639713413E+05  1.0447639713413E+05  1.0447639713413E+05  1.0447639713413E+05  1.0447639713413E+05  1.0447639713413E+05  5.2238198567065E+04 
 5.9297414589642E+04  1.1859482917928E+05  1.1859482917928E+05  1.1859482917928E+05  1.1859482917928E+05  1.1859482917928E+05  1.1859482917928E+05  1.1859482917928E+05  1.1859482917928E+05  5.9297414589642E+04 
 3.5000000000000E-01  3.5000000000000E-01  3.5000000000000E-01  3.5000000000000E-01  3.5000000000000E-01  3.5000000000000E-01  3.5000000000000E-01  3.5000000000000E-01  3.5000000000000E-01  3.5000000000000E-01 
 8.5301666666667E+00  1.7060333333333E+01  1.7060333333333E+01  1.7060333333333E+01  1.7060333333333E+01  1.7060333333333E+01  1.7060333333333E+01  1.7060333333333E+01  1.7060333333333E+01  8.5301666666667E+00 
 3.6259888438738E+00  3.6259888438738E+00  3.6259888438738E+00  3.6259888438738E+00  3.6259888438738E+00  3.6259888438738E+00  3.6259888438738E+00  3.6259888438738E+00  3.6259888438738E+00  3.6259888438738E+00 
 4.3744444444444E-05  8.7488888888889E-05  8.7488888888889E-05  8.7488888888889E-05  8.7488888888889E-05  8.7488888888889E-05  8.7488888888889E-05  8.7488888888889E-05  8.7488888888889E-05  4.3744444444444E-05 
 1.3380188695655E+01  1.3380188695655E+01  1.3380188695655E+01  1.3380188695655E+01  1.3380188695655E+01  1.3380188695655E+01  1.3380188695655E+01  1.3380188695655E+01  1.3380188695655E+01  1.3380188695655E+01 
 3.3450471739137E+00  3.3450471739137E+00  3.3450471739137E+00  3.3450471739137E+00  3.3450471739137E+00  3.3450471739137E+00  3.3450471739137E+00  3.3450471739137E+00  3.3450471739137E+00  3.3450471739137E+00 
 0.0000000000000E+00  0.0000000000000E+00  0.0000000000000E+00  0.0000000000000E+00  0.0000000000000E+00  0.0000000000000E+00  0.0000000000000E+00  0.0000000000000E+00  0.0000000000000E+00  0.0000000000000E+00 
 0.0000000000000E+00  0.0000000000000E+00  0.0000000000000E+00  0.0000000000000E+00  0.0000000000000E+00  0.0000000000000E+00  0.0000000000000E+00  0.0000000000000E+00  0.0000000000000E+00  0.0000000000000E+00 
 0.0000000000000E+00  0.0000000000000E+00  0.0000000000000E+00  0.0000000000000E+00  0.0000000000000E+00  0.0000000000000E+00  0.0000000000000E+00  0.0000000000000E+00  0.0000000000000E+00  0.0000000000000E+00 
 0.0000000000000E+00  0.0000000000000E+00  0.0000000000000E+00  0.0000000000000E+00  0.0000000000000E+00  0.0000000000000E+00  0.0000000000000E+00  0.0000000000000E+00  0.0000000000000E+00  0.0000000000000E+00 
 0.0000000000000E+00  0.0000000000000E+00  0.0000000000000E+00  0.0000000000000E+00  0.0000000000000E+00  0.0000000000000E+00  0.0000000000000E+00  0.0000000000000E+00  0.0000000000000E+00  0.0000000000000E+00 
 0.0000000000000E+00  0.0000000000000E+00  0.0000000000000E+00  0.0000000000000E+00  0.0000000000000E+00  0.0000000000000E+00  0.0000000000000E+00  0.0000000000000E+00  0.0000000000000E+00  0.0000000000000E+00 
 0.0000000000000E+00  0.0000000000000E+00  0.0000000000000E+00  0.0000000000000E+00  0.0000000000000E+00  0.0000000000000E+00  0.0000000000000E+00  0.0000000000000E+00  0.0000000000000E+00  0.0000000000000E+00 
ZONE T = "ANOD, 1.0000E-08", I = 10, SOLUTIONTIME = 1.000000E-08
ZONETYPE = ORDERED
DATAPACKING = BLOCK
STRANDID = 1
 0.0000000000000E+00  8.7488888888889E-05  1.7497777777778E-04  2.6246666666667E-04  3.4995555555556E-04  4.3744444444444E-04  5.2493333333333E-04  6.1242222222222E-04  6.9991111111111E-04  7.8740000000000E-04 
 1.1589928216029E-09  3.4769806724628E-09  5.7949771614313E-09  8.1129887194679E-09  1.0431021776625E-08  1.2749082763982E-08  1.5067178111998E-08  1.7385314251462E-08  1.9703497613543E-08  2.0862979329155E-08 
 9.1999999999930E-01  9.1999999999930E-01  9.1999999999930E-01  9.1999999999930E-01  9.1999999999930E-01  9.1999999999930E-01  9.1999999999930E-01  9.1999999999930E-01  9.1999999999930E-01  9.1999999999971E-01 
 4.0000000000348E-02  4.0000000000348E-02  4.0000000000348E-02  4.0000000000348E-02  4.0000000000348E-02  4.0000000000348E-02  4.0000000000348E-02  4.0000000000348E-02  4.0000000000348E-02  4.0000000000144E-02 
 4.0000000000348E-02  4.0000000000348E-02  4.0000000000348E-02  4.0000000000348E-02  4.0000000000348E-02  4.0000000000348E-02  4.0000000000348E-02  4.0000000000348E-02  4.0000000000348E-02  4.0000000000144E-02 
 2.9167439051072E-02  2.9167423323955E-02  2.9167376142566E-02  2.9167297506776E-02  2.9167187416390E-02  2.9167045871129E-02  2.9166872870583E-02  2.9166668414326E-02  2.9166432501769E-02  2.9166165132300E-02 
 0.0000000000000E+00 -4.7371318737122E-09 -8.9169746659138E-09 -1.2539526299837E-08 -1.5604783152586E-08 -1.8112740055358E-08 -2.0063390293191E-08 -2.1456725605120E-08 -2.2292736184093E-08 -2.2571410676878E-08 
-2.9167439051072E-02 -2.9167428061087E-02 -2.9167385059540E-02 -2.9167310046303E-02 -2.9167203021173E-02 -2.9167063983869E-02 -2.9166892933974E-02 -2.9166689871052E-02 -2.9166454794505E-02 -2.9166187703711E-02 
-4.0906790793438E-02 -4.0906790793438E-02 -4.0906790793438E-02 -4.0906790793438E-02 -4.0906790793437E-02 -4.0906790793438E-02 -4.0906790793438E-02 -4.0906790793437E-02 -4.0906790793437E-02 -4.0906790793568E-02 
 1.1739351742367E-02  1.1739362732351E-02  1.1739405733898E-02  1.1739480747136E-02  1.1739587772263E-02  1.1739726809569E-02  1.1739897859465E-02  1.1740100922385E-02  1.1740335998932E-02  1.1740603089857E-02 
 1.6690505687296E+00  3.3381043166568E+00  3.3381167562033E+00  3.3381384561414E+00  3.3381694165378E+00  3.3382096374884E+00  3.3382591191300E+00  3.3383178616086E+00  3.3383858651230E+00  1.6692315649407E+00 
 8.6491972304085E-09  2.5947613788210E-08  4.3246100117226E-08  6.0544694597634E-08  7.7843442056864E-08  9.5142415255702E-08  1.1244162254665E-07  1.2974115394607E-07  1.4704109363918E-07  1.4704109363918E-07 
 0.0000000000000E+00  3.3380849515595E+00  6.6761787670531E+00  1.0014289749469E+01  1.3352425927491E+01  1.6690598646136E+01  2.0028815731213E+01  2.3367086674612E+01  2.6705421326258E+01  3.0043836435179E+01 
 3.0043837487482E+01  2.6705743353831E+01  2.3367650004207E+01  2.0029539584471E+01  1.6691402834183E+01  1.3353230492817E+01  1.0015013299551E+01  6.6767419937743E+00  3.3384073143667E+00  0.0000000000000E+00 
 1.6690505687296E-08  3.3381043166568E-08  3.3381167562033E-08  3.3381384561414E-08  3.3381694165378E-08  3.3382096374884E-08  3.3382591191300E-08  3.3383178616086E-08  3.3383858651230E-08  1.6692315649407E-08 
 7.0592160225931E+03  1.4118432045186E+04  1.4118432045186E+04  1.4118432045186E+04  1.4118432045186E+04  1.4118432045186E+04  1.4118432045186E+04  1.4118432045186E+04  1.4118432045186E+04  7.0592160225931E+03 
 5.2238198567049E+04  1.0447639713410E+05  1.0447639713410E+05  1.0447639713410E+05  1.0447639713410E+05  1.0447639713410E+05  1.0447639713410E+05  1.0447639713410E+05  1.0447639713410E+05  5.2238198567049E+04 
 5.9297414589642E+04  1.1859482917928E+05  1.1859482917928E+05  1.1859482917928E+05  1.1859482917928E+05  1.1859482917928E+05  1.1859482917928E+05  1.1859482917928E+05  1.1859482917928E+05  5.9297414589642E+04 
 3.5000000000000E-01  3.5000000000000E-01  3.5000000000000E-01  3.5000000000000E-01  3.5000000000000E-01  3.5000000000000E-01  3.5000000000000E-01  3.5000000000000E-01  3.5000000000000E-01  3.5000000000000E-01 
 8.5301666666665E+00  1.7060333333333E+01  1.7060333333333E+01  1.7060333333333E+01  1.7060333333333E+01  1.7060333333333E+01  1.7060333333333E+01  1.7060333333333E+01  1.7060333333333E+01  8.5301666666665E+00 
 1.9566447338618E-01  1.9566465973644E-01  1.9566538888670E-01  1.9566666083946E-01  1.9566847559863E-01  1.9567083316984E-01  1.9567373356109E-01  1.9567717678095E-01  1.9568116284108E-01  1.9568569175367E-01 
 4.3744444444444E-05  8.7488888888889E-05  8.7488888888889E-05  8.7488888888889E-05  8.7488888888889E-05  8.7488888888889E-05  8.7488888888889E-05  8.7488888888889E-05  8.7488888888889E-05  4.3744444444444E-05 
 1.3380188695651E+01  1.3380188695651E+01  1.3380188695651E+01  1.3380188695651E+01  1.3380188695651E+01  1.3380188695651E+01  1.3380188695651E+01  1.3380188695651E+01  1.3380188695651E+01  1.3380188695651E+01 
 3.3450471739177E+00  3.3450471739177E+00  3.3450471739177E+00  3.3450471739177E+00  3.3450471739177E+00  3.3450471739177E+00  3.3450471739177E+00  3.3450471739177E+00  3.3450471739177E+00  3.3450471739177E+00 
 1.8363968061922E-11  2.8664043601272E-11  6.1478133755839E-11  1.1872033960697E-10  2.0039126525563E-10  3.0649187712734E-10  4.3702328883155E-10  5.9198697833032E-10  7.7138466656815E-10  8.6719219955247E-10 
 1.8363968061922E-03  2.8664043601272E-03  6.1478133755839E-03  1.1872033960697E-02  2.0039126525563E-02  3.0649187712734E-02  4.3702328883155E-02  5.9198697833032E-02  7.7138466656815E-02  8.6719219955247E-02 
 3.0002905447322E-04  1.5001475719114E-03  5.1005159921131E-03  1.1101171024206E-02  1.9502173015791E-02  3.0303618075008E-02  4.3505616556483E-02  5.9108314778132E-02  7.7111882884159E-02  8.6713903053050E-02 
 1.5363677517190E-03  1.3662567882158E-03  1.0472973834708E-03  7.7086293649151E-04  5.3695350977235E-04  3.4556963772536E-04  1.9671232667173E-04  9.0383054899983E-05  2.6583772656533E-05  5.3169021965646E-06 
 0.0000000000000E+00  0.0000000000000E+00  0.0000000000000E+00  0.0000000000000E+00  0.0000000000000E+00  0.0000000000000E+00  0.0000000000000E+00  0.0000000000000E+00  0.0000000000000E+00  0.0000000000000E+00 
 0.0000000000000E+00  0.0000000000000E+00  0.0000000000000E+00  0.0000000000000E+00  0.0000000000000E+00  0.0000000000000E+00  0.0000000000000E+00  0.0000000000000E+00  0.0000000000000E+00  0.0000000000000E+00 
 0.0000000000000E+00  0.0000000000000E+00  0.0000000000000E+00  0.0000000000000E+00  0.0000000000000E+00  0.0000000000000E+00  0.0000000000000E+00  0.0000000000000E+00  0.0000000000000E+00  0.0000000000000E+00 
ZONE T = "ANOD, 2.0000E-08", I = 10, SOLUTIONTIME = 2.000000E-08
ZONETYPE = ORDERED
DATAPACKING = BLOCK
STRANDID = 1
 0.0000000000000E+00  8.7488888888889E-05  1.7497777777778E-04  2.6246666666667E-04  3.4995555555556E-04  4.3744444444444E-04  5.2493333333333E-04  6.1242222222222E-04  6.9991111111111E-04  7.8740000000000E-04 
 1.1589985683254E-09  3.4769979126421E-09  5.7950058950989E-09  8.1130289461976E-09  1.0431073496488E-08  1.2748419561133E-08  1.5065799986297E-08  1.7383584410524E-08  1.9701416057034E-08  2.0860903518582E-08 
 9.1999999999861E-01  9.1999999999861E-01  9.1999999999861E-01  9.1999999999861E-01  9.1999999999861E-01  9.1999999999861E-01  9.1999999999861E-01  9.1999999999861E-01  9.1999999999861E-01  9.1999999999942E-01 
 4.0000000000696E-02  4.0000000000696E-02  4.0000000000696E-02  4.0000000000696E-02  4.0000000000696E-02  4.0000000000696E-02  4.0000000000696E-02  4.0000000000696E-02  4.0000000000696E-02  4.0000000000288E-02 
 4.0000000000696E-02  4.0000000000696E-02  4.0000000000696E-02  4.0000000000696E-02  4.0000000000696E-02  4.0000000000696E-02  4.0000000000696E-02  4.0000000000696E-02  4.0000000000696E-02  4.0000000000288E-02 
 2.9167441246733E-02  2.9167425519533E-02  2.9167378337904E-02  2.9167299701728E-02  2.9167189610801E-02  2.9167048064831E-02  2.9166875063439E-02  2.9166670606159E-02  2.9166434692437E-02  2.9166167321633E-02 
 0.0000000000000E+00 -4.7371553600525E-09 -8.9170188753455E-09 -1.2539588469103E-08 -1.5604860518533E-08 -1.8112829854813E-08 -2.0063489763078E-08 -2.1456831982394E-08 -2.2292846705737E-08 -2.2571522579956E-08 
-2.9167441246733E-02 -2.9167430256689E-02 -2.9167387254923E-02 -2.9167312241317E-02 -2.9167205215662E-02 -2.9167066177661E-02 -2.9166895126929E-02 -2.9166692062991E-02 -2.9166456985284E-02 -2.9166189893156E-02 
-4.0906790792716E-02 -4.0906790792716E-02 -4.0906790792716E-02 -4.0906790792716E-02 -4.0906790792716E-02 -4.0906790792716E-02 -4.0906790792716E-02 -4.0906790792716E-02 -4.0906790792716E-02 -4.0906790792978E-02 
 1.1739349545983E-02  1.1739360536027E-02  1.1739403537793E-02  1.1739478551399E-02  1.1739585577054E-02  1.1739724615055E-02  1.1739895665787E-02  1.1740098729725E-02  1.1740333807432E-02  1.1740600899823E-02 
 1.6690502510602E+00  3.3381036813352E+00  3.3381161209450E+00  3.3381378209895E+00  3.3381687815381E+00  3.3382090026896E+00  3.3382584845725E+00  3.3383172273448E+00  3.3383852311942E+00  1.6692312481837E+00 
 8.6492430485399E-09  2.5947745614413E-08  4.3246312650105E-08  6.0544992133396E-08  7.7843832060446E-08  9.5142880416693E-08  1.1244218520088E-07  1.2974179439497E-07  1.4704190022851E-07  1.4704190022851E-07 
 0.0000000000000E+00  3.3381020916329E+00  6.6762119928726E+00  1.0014338963831E+01  1.3352492265173E+01  1.6690681157196E+01  2.0028914900746E+01  2.3367202756858E+01  2.6705553986123E+01  3.0043977849861E+01 
 3.0043977849853E+01  2.6705875758125E+01  2.3367765856985E+01  2.0029638886017E+01  1.6691485584754E+01  1.3353296692640E+01  1.0015062949009E+01  6.6767750930503E+00  3.3384238637808E+00  0.0000000000000E+00 
 3.3381008197898E-08  6.6762079979919E-08  6.6762328771482E-08  6.6762762771309E-08  6.6763381980759E-08  6.6764186401780E-08  6.6765176037025E-08  6.6766350889534E-08  6.6767710963172E-08  3.3384628131244E-08 
 7.0592160226098E+03  1.4118432045220E+04  1.4118432045220E+04  1.4118432045220E+04  1.4118432045220E+04  1.4118432045220E+04  1.4118432045220E+04  1.4118432045220E+04  1.4118432045220E+04  7.0592160226098E+03 
 5.2238198567032E+04  1.0447639713406E+05  1.0447639713406E+05  1.0447639713406E+05  1.0447639713406E+05  1.0447639713406E+05  1.0447639713406E+05  1.0447639713406E+05  1.0447639713406E+05  5.2238198567032E+04 
 5.9297414589642E+04  1.1859482917928E+05  1.1859482917928E+05  1.1859482917928E+05  1.1859482917928E+05  1.1859482917928E+05  1.1859482917928E+05  1.1859482917928E+05  1.1859482917928E+05  5.9297414589642E+04 
 3.5000000000000E-01  3.5000000000000E-01  3.5000000000000E-01  3.5000000000000E-01  3.5000000000000E-01  3.5000000000000E-01  3.5000000000000E-01  3.5000000000000E-01  3.5000000000000E-01  3.5000000000000E-01 
 8.5301666666663E+00  1.7060333333333E+01  1.7060333333333E+01  1.7060333333333E+01  1.7060333333333E+01  1.7060333333333E+01  1.7060333333333E+01  1.7060333333333E+01  1.7060333333333E+01  8.5301666666663E+00 
 1.9566443614548E-01  1.9566462249675E-01  1.9566535165072E-01  1.9566662360972E-01  1.9566843837781E-01  1.9567079596079E-01  1.9567369636619E-01  1.9567713960327E-01  1.9568112568303E-01  1.9568565461993E-01 
 4.3744444444444E-05  8.7488888888889E-05  8.7488888888889E-05  8.7488888888889E-05  8.7488888888889E-05  8.7488888888889E-05  8.7488888888889E-05  8.7488888888889E-05  8.7488888888889E-05  4.3744444444444E-05 
 1.3380188695647E+01  1.3380188695647E+01  1.3380188695647E+01  1.3380188695647E+01  1.3380188695647E+01  1.3380188695647E+01  1.3380188695647E+01  1.3380188695647E+01  1.3380188695647E+01  1.3380188695647E+01 
 3.3450471739216E+00  3.3450471739216E+00  3.3450471739216E+00  3.3450471739216E+00  3.3450471739216E+00  3.3450471739216E+00  3.3450471739216E+00  3.3450471739216E+00  3.3450471739216E+00  3.3450471739216E+00 
 3.6728120254000E-11  5.7328375759971E-11  1.2295687717289E-10  2.3744184676327E-10  4.0078452383634E-10  6.1298678108799E-10  8.7405090950552E-10  1.1839798355326E-09  1.5427769996945E-09  1.7343930623849E-09 
 1.8364152192078E-03  2.8664332158699E-03  6.1478743417051E-03  1.1872150715629E-02  2.0039325858071E-02  3.0649490396066E-02  4.3702762067397E-02  5.9199285720228E-02  7.7139233312636E-02  8.6720086283241E-02 
 6.0006128753489E-04  3.0003104520091E-03  1.0201082565676E-02  2.2202451159822E-02  3.9004540039988E-02  6.0607535406953E-02  8.7011664346797E-02  1.1821721654733E-01  1.5422453216057E-01  1.7342867238138E-01 
 3.0727507378651E-03  2.7325271239879E-03  2.0946051516127E-03  1.5417335165051E-03  1.0739123436461E-03  6.9114270184683E-04  3.9342660375511E-04  1.8076700593456E-04  5.3167808881306E-05  1.0633857106717E-05 
 0.0000000000000E+00  0.0000000000000E+00  0.0000000000000E+00  0.0000000000000E+00  0.0000000000000E+00  0.0000000000000E+00  0.0000000000000E+00  0.0000000000000E+00  0.0000000000000E+00  0.0000000000000E+00 
 0.0000000000000E+00  0.0000000000000E+00  0.0000000000000E+00  0.0000000000000E+00  0.0000000000000E+00  0.0000000000000E+00  0.0000000000000E+00  0.0000000000000E+00  0.0000000000000E+00  0.0000000000000E+00 
 0.0000000000000E+00  0.0000000000000E+00  0.0000000000000E+00  0.0000000000000E+00  0.0000000000000E+00  0.0000000000000E+00  0.0000000000000E+00  0.0000000000000E+00  0.0000000000000E+00  0.0000000000000E+00 
ZONE T = "ANOD, 3.0000E-08", I = 10, SOLUTIONTIME = 3.000000E-08
ZONETYPE = ORDERED
DATAPACKING = BLOCK
STRANDID = 1
 0.0000000000000E+00  8.7488888888889E-05  1.7497777777778E-04  2.6246666666667E-04  3.4995555555556E-04  4.3744444444444E-04  5.2493333333333E-04  6.1242222222222E-04  6.9991111111111E-04  7.8740000000000E-04 
 1.1589985683010E-09  3.4769979125689E-09  5.7950058949770E-09  8.1130289460269E-09  1.0431073496269E-08  1.2749872391777E-08  1.5068705647803E-08  1.7387942902893E-08  1.9706500964811E-08  2.0865262010890E-08 
 9.1999999999791E-01  9.1999999999791E-01  9.1999999999791E-01  9.1999999999791E-01  9.1999999999791E-01  9.1999999999791E-01  9.1999999999791E-01  9.1999999999791E-01  9.1999999999791E-01  9.1999999999914E-01 
 4.0000000001045E-02  4.0000000001045E-02  4.0000000001045E-02  4.0000000001045E-02  4.0000000001045E-02  4.0000000001045E-02  4.0000000001045E-02  4.0000000001045E-02  4.0000000001045E-02  4.0000000000432E-02 
 4.0000000001045E-02  4.0000000001045E-02  4.0000000001045E-02  4.0000000001045E-02  4.0000000001045E-02  4.0000000001045E-02  4.0000000001045E-02  4.0000000001045E-02  4.0000000001045E-02  4.0000000000432E-02 
 2.9167441246369E-02  2.9167425519170E-02  2.9167378337540E-02  2.9167299701364E-02  2.9167189610437E-02  2.9167048064467E-02  2.9166875063075E-02  2.9166670605795E-02  2.9166434692074E-02  2.9166167321269E-02 
 0.0000000000000E+00 -4.7371553599559E-09 -8.9170188751640E-09 -1.2539588468848E-08 -1.5604860518217E-08 -1.8112829854447E-08 -2.0063489762674E-08 -2.1456831981964E-08 -2.2292846705291E-08 -2.2571522579507E-08 
-2.9167441246369E-02 -2.9167430256325E-02 -2.9167387254559E-02 -2.9167312240953E-02 -2.9167205215298E-02 -2.9167066177297E-02 -2.9166895126565E-02 -2.9166692062627E-02 -2.9166456984920E-02 -2.9166189892792E-02 
-4.0906790791992E-02 -4.0906790791992E-02 -4.0906790791992E-02 -4.0906790791992E-02 -4.0906790791994E-02 -4.0906790791994E-02 -4.0906790791994E-02 -4.0906790791996E-02 -4.0906790791996E-02 -4.0906790792390E-02 
 1.1739349545623E-02  1.1739360535667E-02  1.1739403537433E-02  1.1739478551039E-02  1.1739585576696E-02  1.1739724614697E-02  1.1739895665429E-02  1.1740098729369E-02  1.1740333807076E-02  1.1740600899598E-02 
 1.6690502510251E+00  3.3381036812650E+00  3.3381161208747E+00  3.3381378209192E+00  3.3381687814682E+00  3.3382090026197E+00  3.3382584845026E+00  3.3383172272755E+00  3.3383852311248E+00  1.6692312481637E+00 
 8.6492430505232E-09  2.5947745612731E-08  4.3246312648573E-08  6.0544992130099E-08  7.7843832058877E-08  9.5142880413358E-08  1.1244218519804E-07  1.2974179439228E-07  1.4704197234285E-07  1.4704197234285E-07 
 0.0000000000000E+00  3.3381020916619E+00  6.6762119925625E+00  1.0014338963734E+01  1.3352492264921E+01  1.6690681156789E+01  2.0028914900368E+01  2.3367202756325E+01  2.6705553985583E+01  3.0043977849280E+01 
 3.0043977849239E+01  2.6705875757581E+01  2.3367765856511E+01  2.0029638885614E+01  1.6691485584421E+01  1.3353296692377E+01  1.0015062948815E+01  6.6767750929263E+00  3.3384238637261E+00  0.0000000000000E+00 
 5.0071510708150E-08  1.0014311679257E-07  1.0014348998023E-07  1.0014414098050E-07  1.0014506979544E-07  1.0014627642798E-07  1.0014776088205E-07  1.0014952316229E-07  1.0015156327442E-07  5.0076940612881E-08 
 7.0592160226264E+03  1.4118432045253E+04  1.4118432045253E+04  1.4118432045253E+04  1.4118432045253E+04  1.4118432045253E+04  1.4118432045253E+04  1.4118432045253E+04  1.4118432045253E+04  7.0592160226265E+03 
 5.2238198567015E+04  1.0447639713403E+05  1.0447639713403E+05  1.0447639713403E+05  1.0447639713403E+05  1.0447639713403E+05  1.0447639713403E+05  1.0447639713403E+05  1.0447639713403E+05  5.2238198567015E+04 
 5.9297414589642E+04  1.1859482917928E+05  1.1859482917928E+05  1.1859482917928E+05  1.1859482917928E+05  1.1859482917928E+05  1.1859482917928E+05  1.1859482917928E+05  1.1859482917928E+05  5.9297414589642E+04 
 3.5000000000000E-01  3.5000000000000E-01  3.5000000000000E-01  3.5000000000000E-01  3.5000000000000E-01  3.5000000000000E-01  3.5000000000000E-01  3.5000000000000E-01  3.5000000000000E-01  3.5000000000000E-01 
 8.5301666666661E+00  1.7060333333332E+01  1.7060333333332E+01  1.7060333333332E+01  1.7060333333332E+01  1.7060333333332E+01  1.7060333333332E+01  1.7060333333332E+01  1.7060333333332E+01  8.5301666666661E+00 
 1.9566443614137E-01  1.9566462249263E-01  1.9566535164660E-01  1.9566662360560E-01  1.9566843837372E-01  1.9567079595670E-01  1.9567369636210E-01  1.9567713959921E-01  1.9568112567897E-01  1.9568565461759E-01 
 4.3744444444444E-05  8.7488888888889E-05  8.7488888888889E-05  8.7488888888889E-05  8.7488888888889E-05  8.7488888888889E-05  8.7488888888889E-05  8.7488888888889E-05  8.7488888888889E-05  4.3744444444444E-05 
 1.3380188695643E+01  1.3380188695643E+01  1.3380188695643E+01  1.3380188695643E+01  1.3380188695643E+01  1.3380188695643E+01  1.3380188695643E+01  1.3380188695643E+01  1.3380188695643E+01  1.3380188695643E+01 
 3.3450471739256E+00  3.3450471739256E+00  3.3450471739256E+00  3.3450471739256E+00  3.3450471739256E+00  3.3450471739256E+00  3.3450471739256E+00  3.3450471739256E+00  3.3450471739256E+00  3.3450471739256E+00 
 5.5092272446802E-11  8.5992707916920E-11  1.8443562058467E-10  3.5616335391691E-10  6.0117778240662E-10  9.1948168503196E-10  1.3110785301587E-09  1.7759726927029E-09  2.3141693327841E-09  2.6015939251776E-09 
 1.8364152192801E-03  2.8664332156950E-03  6.1478743411776E-03  1.1872150715364E-02  2.0039325857028E-02  3.0649490394396E-02  4.3702762065319E-02  5.9199285717033E-02  7.7139233308960E-02  8.6720086279273E-02 
 9.0009352073154E-04  4.5004733319875E-03  1.5301649138754E-02  3.3303731295203E-02  5.8506907063164E-02  9.0911452737241E-02  1.3051771213504E-01  1.7732611831333E-01  2.3133718143331E-01  2.6014344170574E-01 
 4.6091337239486E-03  4.0987974597045E-03  3.1419129197121E-03  2.3126040964876E-03  1.6108711774984E-03  1.0367157659547E-03  5.9014088083086E-04  2.7115095696576E-04  7.9751845105162E-05  1.5950812016743E-05 
 0.0000000000000E+00  0.0000000000000E+00  0.0000000000000E+00  0.0000000000000E+00  0.0000000000000E+00  0.0000000000000E+00  0.0000000000000E+00  0.0000000000000E+00  0.0000000000000E+00  0.0000000000000E+00 
 0.0000000000000E+00  0.0000000000000E+00  0.0000000000000E+00  0.0000000000000E+00  0.0000000000000E+00  0.0000000000000E+00  0.0000000000000E+00  0.0000000000000E+00  0.0000000000000E+00  0.0000000000000E+00 
 0.0000000000000E+00  0.0000000000000E+00  0.0000000000000E+00  0.0000000000000E+00  0.0000000000000E+00  0.0000000000000E+00  0.0000000000000E+00  0.0000000000000E+00  0.0000000000000E+00  0.0000000000000E+00 
ZONE T = "ANOD, 4.0000E-08", I = 10, SOLUTIONTIME = 4.000000E-08
ZONETYPE = ORDERED
DATAPACKING = BLOCK
STRANDID = 1
 0.0000000000000E+00  8.7488888888889E-05  1.7497777777778E-04  2.6246666666667E-04  3.4995555555556E-04  4.3744444444444E-04  5.2493333333333E-04  6.1242222222222E-04  6.9991111111111E-04  7.8740000000000E-04 
 1.1589985682768E-09  3.4759082893130E-09  5.7939162716726E-09  8.1119393226742E-09  1.0428894249684E-08  1.2745877106504E-08  1.5063983947026E-08  1.7382131578884E-08  1.9700326433026E-08  2.0859450686818E-08 
 9.1999999999721E-01  9.1999999999721E-01  9.1999999999721E-01  9.1999999999721E-01  9.1999999999721E-01  9.1999999999721E-01  9.1999999999721E-01  9.1999999999721E-01  9.1999999999721E-01  9.1999999999885E-01 
 4.0000000001393E-02  4.0000000001393E-02  4.0000000001393E-02  4.0000000001393E-02  4.0000000001393E-02  4.0000000001393E-02  4.0000000001393E-02  4.0000000001393E-02  4.0000000001393E-02  4.0000000000576E-02 
 4.0000000001393E-02  4.0000000001393E-02  4.0000000001393E-02  4.0000000001393E-02  4.0000000001393E-02  4.0000000001393E-02  4.0000000001393E-02  4.0000000001393E-02  4.0000000001393E-02  4.0000000000576E-02 
 2.9167441246004E-02  2.9167425518804E-02  2.9167378337175E-02  2.9167299700999E-02  2.9167189610072E-02  2.9167048064102E-02  2.9166875062710E-02  2.9166670605430E-02  2.9166434691708E-02  2.9166167320904E-02 
 0.0000000000000E+00 -4.7371553598590E-09 -8.9170188749819E-09 -1.2539588468593E-08 -1.5604860517899E-08 -1.8112829854079E-08 -2.0063489762267E-08 -2.1456831981530E-08 -2.2292846704843E-08 -2.2571522579056E-08 
-2.9167441246004E-02 -2.9167430255959E-02 -2.9167387254194E-02 -2.9167312240587E-02 -2.9167205214932E-02 -2.9167066176932E-02 -2.9166895126200E-02 -2.9166692062262E-02 -2.9166456984555E-02 -2.9166189892427E-02 
-4.0906790791268E-02 -4.0906790791268E-02 -4.0906790791268E-02 -4.0906790791268E-02 -4.0906790791268E-02 -4.0906790791268E-02 -4.0906790791268E-02 -4.0906790791271E-02 -4.0906790791271E-02 -4.0906790791796E-02 
 1.1739349545264E-02  1.1739360535309E-02  1.1739403537075E-02  1.1739478550681E-02  1.1739585576335E-02  1.1739724614336E-02  1.1739895665068E-02  1.1740098729009E-02  1.1740333806716E-02  1.1740600899369E-02 
 1.6690502509902E+00  3.3381036811953E+00  3.3381161208051E+00  3.3381378208495E+00  3.3381687813979E+00  3.3382090025494E+00  3.3382584844324E+00  3.3383172272055E+00  3.3383852310549E+00  1.6692312481434E+00 