TITLE = "Solution on Domain BulkDomain1D_1"
VARIABLES = "x [m]"  
"Vel_axial" 	"MF_sp(ECDMC)" 	"MF_sp(Li+)" 	"MF_sp(PF6-)" 	"Volt(Electroly)" 	"Porosity []" 	"Control volume thickness [m]" 	"volFrac MgO(S) []" 	"qHeat_accum [J/m3]" 	"qHeat_step [W/m3]" 	"Joule_Lyte [W/m3]" 	"Joule_Solid [W/m3]" 	
ZONE T = "SEP , 0.0000E+00", I = 10, SOLUTIONTIME = 0.000000E+00
ZONETYPE = ORDERED
DATAPACKING = BLOCK
STRANDID = 2
 7.8740000000000E-04  8.4102222222222E-04  8.9464444444444E-04  9.4826666666667E-04  1.0018888888889E-03  1.0555111111111E-03  1.1091333333333E-03  1.1627555555556E-03  1.2163777777778E-03  1.2700000000000E-03 
 0.0000000000000E+00  0.0000000000000E+00  0.0000000000000E+00  0.0000000000000E+00  0.0000000000000E+00  0.0000000000000E+00  0.0000000000000E+00  0.0000000000000E+00  0.0000000000000E+00  0.0000000000000E+00 
 9.2000000000000E-01  9.2000000000000E-01  9.2000000000000E-01  9.2000000000000E-01  9.2000000000000E-01  9.2000000000000E-01  9.2000000000000E-01  9.2000000000000E-01  9.2000000000000E-01  9.2000000000000E-01 
 4.0000000000000E-02  4.0000000000000E-02  4.0000000000000E-02  4.0000000000000E-02  4.0000000000000E-02  4.0000000000000E-02  4.0000000000000E-02  4.0000000000000E-02  4.0000000000000E-02  4.0000000000000E-02 
 4.0000000000000E-02  4.0000000000000E-02  4.0000000000000E-02  4.0000000000000E-02  4.0000000000000E-02  4.0000000000000E-02  4.0000000000000E-02  4.0000000000000E-02  4.0000000000000E-02  4.0000000000000E-02 
-7.0000000000000E-02 -7.0000000000000E-02 -7.0000000000000E-02 -7.0000000000000E-02 -7.0000000000000E-02 -7.0000000000000E-02 -7.0000000000000E-02 -7.0000000000000E-02 -7.0000000000000E-02 -7.0000000000000E-02 
 8.0911139820575E-01  8.0911139820575E-01  8.0911139820575E-01  8.0911139820575E-01  8.0911139820575E-01  8.0911139820575E-01  8.0911139820575E-01  8.0911139820575E-01  8.0911139820575E-01  8.0911139820575E-01 
 2.6811111111111E-05  5.3622222222222E-05  5.3622222222222E-05  5.3622222222222E-05  5.3622222222222E-05  5.3622222222222E-05  5.3622222222222E-05  5.3622222222223E-05  5.3622222222222E-05  2.6811111111111E-05 
 1.9088860179425E-01  1.9088860179425E-01  1.9088860179425E-01  1.9088860179425E-01  1.9088860179425E-01  1.9088860179425E-01  1.9088860179425E-01  1.9088860179425E-01  1.9088860179425E-01  1.9088860179425E-01 
 0.0000000000000E+00  0.0000000000000E+00  0.0000000000000E+00  0.0000000000000E+00  0.0000000000000E+00  0.0000000000000E+00  0.0000000000000E+00  0.0000000000000E+00  0.0000000000000E+00  0.0000000000000E+00 
 0.0000000000000E+00  0.0000000000000E+00  0.0000000000000E+00  0.0000000000000E+00  0.0000000000000E+00  0.0000000000000E+00  0.0000000000000E+00  0.0000000000000E+00  0.0000000000000E+00  0.0000000000000E+00 
 0.0000000000000E+00  0.0000000000000E+00  0.0000000000000E+00  0.0000000000000E+00  0.0000000000000E+00  0.0000000000000E+00  0.0000000000000E+00  0.0000000000000E+00  0.0000000000000E+00  0.0000000000000E+00 
 0.0000000000000E+00  0.0000000000000E+00  0.0000000000000E+00  0.0000000000000E+00  0.0000000000000E+00  0.0000000000000E+00  0.0000000000000E+00  0.0000000000000E+00  0.0000000000000E+00  0.0000000000000E+00 
ZONE T = "SEP , 1.0000E-08", I = 10, SOLUTIONTIME = 1.000000E-08
ZONETYPE = ORDERED
DATAPACKING = BLOCK
STRANDID = 2
 7.8740000000000E-04  8.4102222222222E-04  8.9464444444444E-04  9.4826666666667E-04  1.0018888888889E-03  1.0555111111111E-03  1.1091333333333E-03  1.1627555555556E-03  1.2163777777778E-03  1.2700000000000E-03 
 2.0839722079537E-08  2.0839722079537E-08  2.0839722079537E-08  2.0839722079537E-08  2.0839722079537E-08  2.0839722079537E-08  2.0839722079537E-08  2.0839722079537E-08  2.0839722079537E-08  1.9682693963149E-08 
 9.1999999999971E-01  9.2000000000000E-01  9.2000000000000E-01  9.2000000000000E-01  9.2000000000000E-01  9.2000000000000E-01  9.2000000000000E-01  9.2000000000000E-01  9.2000000000000E-01  9.2000000000032E-01 
 4.0000000000144E-02  4.0000000000000E-02  4.0000000000000E-02  4.0000000000000E-02  4.0000000000000E-02  4.0000000000000E-02  4.0000000000000E-02  4.0000000000000E-02  4.0000000000000E-02  3.9999999999841E-02 
 4.0000000000144E-02  4.0000000000000E-02  4.0000000000000E-02  4.0000000000000E-02  4.0000000000000E-02  4.0000000000000E-02  4.0000000000000E-02  4.0000000000000E-02  4.0000000000000E-02  3.9999999999841E-02 
 2.9180986242065E-02  2.9180936922256E-02  2.9180887602446E-02  2.9180838282637E-02  2.9180788962827E-02  2.9180739643018E-02  2.9180690323208E-02  2.9180641003399E-02  2.9180591683590E-02  2.9180542363780E-02 
 8.0911139820575E-01  8.0911139820575E-01  8.0911139820575E-01  8.0911139820575E-01  8.0911139820575E-01  8.0911139820575E-01  8.0911139820575E-01  8.0911139820575E-01  8.0911139820575E-01  8.0911139820575E-01 
 2.6811111111111E-05  5.3622222222222E-05  5.3622222222222E-05  5.3622222222222E-05  5.3622222222222E-05  5.3622222222222E-05  5.3622222222222E-05  5.3622222222223E-05  5.3622222222222E-05  2.6811111111111E-05 
 1.9088860179425E-01  1.9088860179425E-01  1.9088860179425E-01  1.9088860179425E-01  1.9088860179425E-01  1.9088860179425E-01  1.9088860179425E-01  1.9088860179425E-01  1.9088860179425E-01  1.9088860179425E-01 
 2.7607970774730E-10  2.7607970776647E-10  2.7607970778565E-10  2.7607970776623E-10  2.7607970776622E-10  2.7607970778565E-10  2.7607970776623E-10  2.7607970776622E-10  2.7607970778537E-10  2.7607970778510E-10 
 2.7607970774730E-02  2.7607970776647E-02  2.7607970778565E-02  2.7607970776623E-02  2.7607970776622E-02  2.7607970778565E-02  2.7607970776623E-02  2.7607970776622E-02  2.7607970778537E-02  2.7607970778510E-02 
 2.7607970774730E-02  2.7607970776647E-02  2.7607970778565E-02  2.7607970776623E-02  2.7607970776622E-02  2.7607970778565E-02  2.7607970776623E-02  2.7607970776622E-02  2.7607970778537E-02  2.7607970778510E-02 
 0.0000000000000E+00  0.0000000000000E+00  0.0000000000000E+00  0.0000000000000E+00  0.0000000000000E+00  0.0000000000000E+00  0.0000000000000E+00  0.0000000000000E+00  0.0000000000000E+00  0.0000000000000E+00 
ZONE T = "SEP , 2.0000E-08", I = 10, SOLUTIONTIME = 2.000000E-08
ZONETYPE = ORDERED
DATAPACKING = BLOCK
STRANDID = 2
 7.8740000000000E-04  8.4102222222222E-04  8.9464444444444E-04  9.4826666666667E-04  1.0018888888889E-03  1.0555111111111E-03  1.1091333333333E-03  1.1627555555556E-03  1.2163777777778E-03  1.2700000000000E-03 
 2.0858684238710E-08  2.0858684238710E-08  2.0858684238710E-08  2.0858684238710E-08  2.0858684238710E-08  2.0858684238710E-08  2.0858684238710E-08  2.0858684238710E-08  2.0858684238710E-08  1.9700065583392E-08 
 9.1999999999942E-01  9.2000000000000E-01  9.2000000000000E-01  9.2000000000000E-01  9.2000000000000E-01  9.2000000000000E-01  9.2000000000000E-01  9.2000000000000E-01  9.2000000000000E-01  9.2000000000063E-01 
 4.0000000000288E-02  4.0000000000000E-02  4.0000000000000E-02  4.0000000000000E-02  4.0000000000000E-02  4.0000000000000E-02  4.0000000000000E-02  4.0000000000000E-02  4.0000000000000E-02  3.9999999999683E-02 
 4.0000000000288E-02  4.0000000000000E-02  4.0000000000000E-02  4.0000000000000E-02  4.0000000000000E-02  4.0000000000000E-02  4.0000000000000E-02  4.0000000000000E-02  4.0000000000000E-02  3.9999999999683E-02 
 2.9166397950542E-02  2.9166348586294E-02  2.9166299222047E-02  2.9166249857799E-02  2.9166200493551E-02  2.9166151129303E-02  2.9166101765055E-02  2.9166052400807E-02  2.9166003036559E-02  2.9165953672312E-02 
 8.0911139820575E-01  8.0911139820575E-01  8.0911139820575E-01  8.0911139820575E-01  8.0911139820575E-01  8.0911139820575E-01  8.0911139820575E-01  8.0911139820575E-01  8.0911139820575E-01  8.0911139820575E-01 
 2.6811111111111E-05  5.3622222222222E-05  5.3622222222222E-05  5.3622222222222E-05  5.3622222222222E-05  5.3622222222222E-05  5.3622222222222E-05  5.3622222222223E-05  5.3622222222222E-05  2.6811111111111E-05 
 1.9088860179425E-01  1.9088860179425E-01  1.9088860179425E-01  1.9088860179425E-01  1.9088860179425E-01  1.9088860179425E-01  1.9088860179425E-01  1.9088860179425E-01  1.9088860179425E-01  1.9088860179425E-01 
 5.5265714932478E-10  5.5265714934345E-10  5.5265714934269E-10  5.5265714932327E-10  5.5265714934270E-10  5.5265714936213E-10  5.5265714934270E-10  5.5265714934270E-10  5.5265714934187E-10  5.5265714932161E-10 
 2.7657744157748E-02  2.7657744157698E-02  2.7657744155704E-02  2.7657744155704E-02  2.7657744157648E-02  2.7657744157648E-02  2.7657744157648E-02  2.7657744157648E-02  2.7657744155649E-02  2.7657744153651E-02 
 2.7657744157748E-02  2.7657744157698E-02  2.7657744155704E-02  2.7657744155704E-02  2.7657744157648E-02  2.7657744157648E-02  2.7657744157648E-02  2.7657744157648E-02  2.7657744155649E-02  2.7657744153651E-02 
 0.0000000000000E+00  0.0000000000000E+00  0.0000000000000E+00  0.0000000000000E+00  0.0000000000000E+00  0.0000000000000E+00  0.0000000000000E+00  0.0000000000000E+00  0.0000000000000E+00  0.0000000000000E+00 
ZONE T = "SEP , 3.0000E-08", I = 10, SOLUTIONTIME = 3.000000E-08
ZONETYPE = ORDERED
DATAPACKING = BLOCK
STRANDID = 2
 7.8740000000000E-04  8.4102222222222E-04  8.9464444444444E-04  9.4826666666667E-04  1.0018888888889E-03  1.0555111111111E-03  1.1091333333333E-03  1.1627555555556E-03  1.2163777777778E-03  1.2700000000000E-03 
 2.0868517096886E-08  2.0868517096886E-08  2.0868517096886E-08  2.0868517096886E-08  2.0868517096886E-08  2.0868517096886E-08  2.0868517096886E-08  2.0868517096886E-08  2.0868517096886E-08  1.9711128054855E-08 
 9.1999999999914E-01  9.2000000000000E-01  9.2000000000000E-01  9.2000000000000E-01  9.2000000000000E-01  9.2000000000000E-01  9.2000000000000E-01  9.2000000000000E-01  9.2000000000000E-01  9.2000000000095E-01 
 4.0000000000432E-02  4.0000000000000E-02  4.0000000000000E-02  4.0000000000000E-02  4.0000000000000E-02  4.0000000000000E-02  4.0000000000000E-02  4.0000000000000E-02  4.0000000000000E-02  3.9999999999524E-02 
 4.0000000000432E-02  4.0000000000000E-02  4.0000000000000E-02  4.0000000000000E-02  4.0000000000000E-02  4.0000000000000E-02  4.0000000000000E-02  4.0000000000000E-02  4.0000000000000E-02  3.9999999999524E-02 
 2.9165813990661E-02  2.9165764624632E-02  2.9165715258604E-02  2.9165665892575E-02  2.9165616526546E-02  2.9165567160517E-02  2.9165517794488E-02  2.9165468428460E-02  2.9165419062431E-02  2.9165369696402E-02 
 8.0911139820575E-01  8.0911139820575E-01  8.0911139820575E-01  8.0911139820575E-01  8.0911139820575E-01  8.0911139820575E-01  8.0911139820575E-01  8.0911139820575E-01  8.0911139820575E-01  8.0911139820575E-01 
 2.6811111111111E-05  5.3622222222222E-05  5.3622222222222E-05  5.3622222222222E-05  5.3622222222222E-05  5.3622222222222E-05  5.3622222222222E-05  5.3622222222223E-05  5.3622222222222E-05  2.6811111111111E-05 
 1.9088860179425E-01  1.9088860179425E-01  1.9088860179425E-01  1.9088860179425E-01  1.9088860179425E-01  1.9088860179425E-01  1.9088860179425E-01  1.9088860179425E-01  1.9088860179425E-01  1.9088860179425E-01 
 8.2925454780066E-10  8.2925454783802E-10  8.2925454785595E-10  8.2925454783653E-10  8.2925454783653E-10  8.2925454785596E-10  8.2925454785597E-10  8.2925454783653E-10  8.2925454783487E-10  8.2925454783323E-10 
 2.7659739847588E-02  2.7659739849458E-02  2.7659739851327E-02  2.7659739851327E-02  2.7659739849383E-02  2.7659739849383E-02  2.7659739851327E-02  2.7659739849383E-02  2.7659739849301E-02  2.7659739851162E-02 
 2.7659739847588E-02  2.7659739849458E-02  2.7659739851327E-02  2.7659739851327E-02  2.7659739849383E-02  2.7659739849383E-02  2.7659739851327E-02  2.7659739849383E-02  2.7659739849301E-02  2.7659739851162E-02 
 0.0000000000000E+00  0.0000000000000E+00  0.0000000000000E+00  0.0000000000000E+00  0.0000000000000E+00  0.0000000000000E+00  0.0000000000000E+00  0.0000000000000E+00  0.0000000000000E+00  0.0000000000000E+00 
ZONE T = "SEP , 4.0000E-08", I = 10, SOLUTIONTIME = 4.000000E-08
ZONETYPE = ORDERED
DATAPACKING = BLOCK
STRANDID = 2
 7.8740000000000E-04  8.4102222222222E-04  8.9464444444444E-04  9.4826666666667E-04  1.0018888888889E-03  1.0555111111111E-03  1.1091333333333E-03  1.1627555555556E-03  1.2163777777778E-03  1.2700000000000E-03 
 2.0858909398196E-08  2.0858909398196E-08  2.0858909398196E-08  2.0858909398196E-08  2.0858909398196E-08  2.0858909398196E-08  2.0858909398196E-08  2.0858909398196E-08  2.0858909398196E-08  1.9701176272783E-08 
 9.1999999999885E-01  9.2000000000000E-01  9.2000000000000E-01  9.2000000000000E-01  9.2000000000000E-01  9.2000000000000E-01  9.2000000000000E-01  9.2000000000000E-01  9.2000000000000E-01  9.2000000000127E-01 
 4.0000000000576E-02  4.0000000000000E-02  4.0000000000000E-02  4.0000000000000E-02  4.0000000000000E-02  4.0000000000000E-02  4.0000000000000E-02  4.0000000000000E-02  4.0000000000000E-02  3.9999999999365E-02 
 4.0000000000576E-02  4.0000000000000E-02  4.0000000000000E-02  4.0000000000000E-02  4.0000000000000E-02  4.0000000000000E-02  4.0000000000000E-02  4.0000000000000E-02  4.0000000000000E-02  3.9999999999365E-02 
 2.9166082335653E-02  2.9166032970442E-02  2.9165983605232E-02  2.9165934240022E-02  2.9165884874811E-02  2.9165835509601E-02  2.9165786144391E-02  2.9165736779180E-02  2.9165687413970E-02  2.9165638048760E-02 
 8.0911139820575E-01  8.0911139820575E-01  8.0911139820575E-01  8.0911139820575E-01  8.0911139820575E-01  8.0911139820575E-01  8.0911139820575E-01  8.0911139820575E-01  8.0911139820575E-01  8.0911139820575E-01 
 2.6811111111111E-05  5.3622222222222E-05  5.3622222222222E-05  5.3622222222222E-05  5.3622222222222E-05  5.3622222222222E-05  5.3622222222222E-05  5.3622222222223E-05  5.3622222222222E-05  2.6811111111111E-05 
 1.9088860179425E-01  1.9088860179425E-01  1.9088860179425E-01  1.9088860179425E-01  1.9088860179425E-01  1.9088860179425E-01  1.9088860179425E-01  1.9088860179425E-01  1.9088860179425E-01  1.9088860179425E-01 
 1.1058427746292E-09  1.1058427746655E-09  1.1058427746825E-09  1.1058427746630E-09  1.1058427746630E-09  1.1058427746630E-09  1.1058427746630E-09  1.1058427746630E-09  1.1058427746603E-09  1.1058427746575E-09 
 2.7658822682849E-02  2.7658822682749E-02  2.7658822682650E-02  2.7658822682650E-02  2.7658822682650E-02  2.7658822680706E-02  2.7658822680706E-02  2.7658822682649E-02  2.7658822682540E-02  2.7658822682430E-02 
 2.7658822682849E-02  2.7658822682749E-02  2.7658822682650E-02  2.7658822682650E-02  2.7658822682650E-02  2.7658822680706E-02  2.7658822680706E-02  2.7658822682649E-02  2.7658822682540E-02  2.7658822682430E-02 
 0.0000000000000E+00  0.0000000000000E+00  0.0000000000000E+00  0.0000000000000E+00  0.0000000000000E+00  0.0000000000000E+00  0.0000000000000E+00  0.0000000000000E+00  0.0000000000000E+00  0.0000000000000E+00 
ZONE T = "SEP , 5.5000E-08", I = 10, SOLUTIONTIME = 5.500000E-08
ZONETYPE = ORDERED
DATAPACKING = BLOCK
STRANDID = 2
 7.8740000000000E-04  8.4102222222222E-04  8.9464444444444E-04  9.4826666666667E-04  1.0018888888889E-03  1.0555111111111E-03  1.1091333333333E-03  1.1627555555556E-03  1.2163777777778E-03  1.2700000000000E-03 
 2.0860995740735E-08  2.0860995740735E-08  2.0860995740735E-08  2.0860995740735E-08  2.0860995740735E-08  2.0860995740735E-08  2.0860995740735E-08  2.0860995740735E-08  2.0860995740735E-08  1.9703264404960E-08 
 9.1999999999842E-01  9.2000000000000E-01  9.2000000000000E-01  9.2000000000000E-01  9.2000000000000E-01  9.2000000000000E-01  9.2000000000000E-01  9.2000000000000E-01  9.2000000000000E-01  9.2000000000175E-01 
 4.0000000000792E-02  4.0000000000000E-02  4.0000000000000E-02  4.0000000000000E-02  4.0000000000000E-02  4.0000000000000E-02  4.0000000000000E-02  4.0000000000000E-02  4.0000000000000E-02  3.9999999999127E-02 
 4.0000000000792E-02  4.0000000000000E-02  4.0000000000000E-02  4.0000000000000E-02  4.0000000000000E-02  4.0000000000000E-02  4.0000000000000E-02  4.0000000000000E-02  4.0000000000000E-02  3.9999999999127E-02 
 2.9166107448545E-02  2.9166058083412E-02  2.9166008718278E-02  2.9165959353144E-02  2.9165909988010E-02  2.9165860622877E-02  2.9165811257743E-02  2.9165761892609E-02  2.9165712527475E-02  2.9165663162342E-02 
 8.0911139820575E-01  8.0911139820575E-01  8.0911139820575E-01  8.0911139820575E-01  8.0911139820575E-01  8.0911139820575E-01  8.0911139820575E-01  8.0911139820575E-01  8.0911139820575E-01  8.0911139820575E-01 
 2.6811111111111E-05  5.3622222222222E-05  5.3622222222222E-05  5.3622222222222E-05  5.3622222222222E-05  5.3622222222222E-05  5.3622222222222E-05  5.3622222222223E-05  5.3622222222222E-05  2.6811111111111E-05 
 1.9088860179425E-01  1.9088860179425E-01  1.9088860179425E-01  1.9088860179425E-01  1.9088860179425E-01  1.9088860179425E-01  1.9088860179425E-01  1.9088860179425E-01  1.9088860179425E-01  1.9088860179425E-01 
 1.5207238274125E-09  1.5207238274759E-09  1.5207238275200E-09  1.5207238275006E-09  1.5207238275006E-09  1.5207238274714E-09  1.5207238274714E-09  1.5207238275005E-09  1.5207238274955E-09  1.5207238274905E-09 
 2.7658736852221E-02  2.7658736854028E-02  2.7658736855835E-02  2.7658736855835E-02  2.7658736855835E-02  2.7658736853891E-02  2.7658736853891E-02  2.7658736855835E-02  2.7658736855684E-02  2.7658736855533E-02 
 2.7658736852221E-02  2.7658736854028E-02  2.7658736855835E-02  2.7658736855835E-02  2.7658736855835E-02  2.7658736853891E-02  2.7658736853891E-02  2.7658736855835E-02  2.7658736855684E-02  2.7658736855533E-02 
 0.0000000000000E+00  0.0000000000000E+00  0.0000000000000E+00  0.0000000000000E+00  0.0000000000000E+00  0.0000000000000E+00  0.0000000000000E+00  0.0000000000000E+00  0.0000000000000E+00  0.0000000000000E+00 
ZONE T = "SEP , 7.7500E-08", I = 10, SOLUTIONTIME = 7.750000E-08
ZONETYPE = ORDERED
DATAPACKING = BLOCK
STRANDID = 2
 7.8740000000000E-04  8.4102222222222E-04  8.9464444444444E-04  9.4826666666667E-04  1.0018888888889E-03  1.0555111111111E-03  1.1091333333333E-03  1.1627555555556E-03  1.2163777777778E-03  1.2700000000000E-03 
 2.0862215196470E-08  2.0862215196470E-08  2.0862215196470E-08  2.0862215196470E-08  2.0862215196470E-08  2.0862215196470E-08  2.0862215196470E-08  2.0862215196470E-08  2.0862215196470E-08  1.9704483376173E-08 
 9.1999999999777E-01  9.2000000000000E-01  9.2000000000000E-01  9.2000000000000E-01  9.2000000000000E-01  9.2000000000000E-01  9.2000000000000E-01  9.2000000000000E-01  9.2000000000000E-01  9.2000000000246E-01 
 4.0000000001116E-02  4.0000000000000E-02  4.0000000000000E-02  4.0000000000000E-02  4.0000000000000E-02  4.0000000000000E-02  4.0000000000000E-02  4.0000000000000E-02  4.0000000000000E-02  3.9999999998770E-02 
 4.0000000001116E-02  4.0000000000000E-02  4.0000000000000E-02  4.0000000000000E-02  4.0000000000000E-02  4.0000000000000E-02  4.0000000000000E-02  4.0000000000000E-02  4.0000000000000E-02  3.9999999998770E-02 
 2.9166100648177E-02  2.9166051283023E-02  2.9166001917868E-02  2.9165952552714E-02  2.9165903187559E-02  2.9165853822405E-02  2.9165804457250E-02  2.9165755092096E-02  2.9165705726941E-02  2.9165656361787E-02 
 8.0911139820575E-01  8.0911139820575E-01  8.0911139820575E-01  8.0911139820575E-01  8.0911139820575E-01  8.0911139820575E-01  8.0911139820575E-01  8.0911139820575E-01  8.0911139820575E-01  8.0911139820575E-01 
 2.6811111111111E-05  5.3622222222222E-05  5.3622222222222E-05  5.3622222222222E-05  5.3622222222222E-05  5.3622222222222E-05  5.3622222222222E-05  5.3622222222223E-05  5.3622222222222E-05  2.6811111111111E-05 
 1.9088860179425E-01  1.9088860179425E-01  1.9088860179425E-01  1.9088860179425E-01  1.9088860179425E-01  1.9088860179425E-01  1.9088860179425E-01  1.9088860179425E-01  1.9088860179425E-01  1.9088860179425E-01 
 2.1430459294292E-09  2.1430459295320E-09  2.1430459295717E-09  2.1430459295523E-09  2.1430459295523E-09  2.1430459295231E-09  2.1430459295231E-09  2.1430459295085E-09  2.1430459295425E-09  2.1430459295764E-09 
 2.7658760089631E-02  2.7658760091382E-02  2.7658760091189E-02  2.7658760091189E-02  2.7658760091189E-02  2.7658760091189E-02  2.7658760091189E-02  2.7658760089245E-02  2.7658760090976E-02  2.7658760092707E-02 
 2.7658760089631E-02  2.7658760091382E-02  2.7658760091189E-02  2.7658760091189E-02  2.7658760091189E-02  2.7658760091189E-02  2.7658760091189E-02  2.7658760089245E-02  2.7658760090976E-02  2.7658760092707E-02 
 0.0000000000000E+00  0.0000000000000E+00  0.0000000000000E+00  0.0000000000000E+00  0.0000000000000E+00  0.0000000000000E+00  0.0000000000000E+00  0.0000000000000E+00  0.0000000000000E+00  0.0000000000000E+00 
ZONE T = "SEP , 1.1125E-07", I = 10, SOLUTIONTIME = 1.112500E-07
ZONETYPE = ORDERED
DATAPACKING = BLOCK
STRANDID = 2
 7.8740000000000E-04  8.4102222222222E-04  8.9464444444444E-04  9.4826666666667E-04  1.0018888888889E-03  1.0555111111111E-03  1.1091333333333E-03  1.1627555555556E-03  1.2163777777778E-03  1.2700000000000E-03 
 2.0863131350994E-08  2.0863131350994E-08  2.0863131350994E-08  2.0863131350994E-08  2.0863131350994E-08  2.0863131350994E-08  2.0863131350994E-08  2.0863131350994E-08  2.0863131350994E-08  1.9705291835665E-08 
 9.1999999999679E-01  9.2000000000000E-01  9.2000000000000E-01  9.2000000000000E-01  9.2000000000000E-01  9.2000000000000E-01  9.2000000000000E-01  9.2000000000000E-01  9.2000000000000E-01  9.2000000000353E-01 
 4.0000000001603E-02  4.0000000000000E-02  4.0000000000000E-02  4.0000000000000E-02  4.0000000000000E-02  4.0000000000000E-02  4.0000000000000E-02  4.0000000000000E-02  4.0000000000000E-02  3.9999999998234E-02 
 4.0000000001603E-02  4.0000000000000E-02  4.0000000000000E-02  4.0000000000000E-02  4.0000000000000E-02  4.0000000000000E-02  4.0000000000000E-02  4.0000000000000E-02  4.0000000000000E-02  3.9999999998234E-02 
 2.9166099552919E-02  2.9166050187761E-02  2.9166000822603E-02  2.9165951457445E-02  2.9165902092287E-02  2.9165852727130E-02  2.9165803361972E-02  2.9165753996814E-02  2.9165704631656E-02  2.9165655266498E-02 
 8.0911139820575E-01  8.0911139820575E-01  8.0911139820575E-01  8.0911139820575E-01  8.0911139820575E-01  8.0911139820575E-01  8.0911139820575E-01  8.0911139820575E-01  8.0911139820575E-01  8.0911139820575E-01 
 2.6811111111111E-05  5.3622222222222E-05  5.3622222222222E-05  5.3622222222222E-05  5.3622222222222E-05  5.3622222222222E-05  5.3622222222222E-05  5.3622222222223E-05  5.3622222222222E-05  2.6811111111111E-05 
 1.9088860179425E-01  1.9088860179425E-01  1.9088860179425E-01  1.9088860179425E-01  1.9088860179425E-01  1.9088860179425E-01  1.9088860179425E-01  1.9088860179425E-01  1.9088860179425E-01  1.9088860179425E-01 
 3.0765292085554E-09  3.0765292087145E-09  3.0765292087449E-09  3.0765292087254E-09  3.0765292087254E-09  3.0765292086963E-09  3.0765292086963E-09  3.0765292086817E-09  3.0765292087053E-09  3.0765292086634E-09 
 2.7658763825962E-02  2.7658763827629E-02  2.7658763827352E-02  2.7658763827352E-02  2.7658763827352E-02  2.7658763827352E-02  2.7658763827352E-02  2.7658763827352E-02  2.7658763827047E-02  2.7658763824798E-02 
 2.7658763825962E-02  2.7658763827629E-02  2.7658763827352E-02  2.7658763827352E-02  2.7658763827352E-02  2.7658763827352E-02  2.7658763827352E-02  2.7658763827352E-02  2.7658763827047E-02  2.7658763824798E-02 
 0.0000000000000E+00  0.0000000000000E+00  0.0000000000000E+00  0.0000000000000E+00  0.0000000000000E+00  0.0000000000000E+00  0.0000000000000E+00  0.0000000000000E+00  0.0000000000000E+00  0.0000000000000E+00 
ZONE T = "SEP , 1.6188E-07", I = 10, SOLUTIONTIME = 1.618750E-07
ZONETYPE = ORDERED
DATAPACKING = BLOCK
STRANDID = 2
 7.8740000000000E-04  8.4102222222222E-04  8.9464444444444E-04  9.4826666666667E-04  1.0018888888889E-03  1.0555111111111E-03  1.1091333333333E-03  1.1627555555556E-03  1.2163777777778E-03  1.2700000000000E-03 
 2.0863202901503E-08  2.0863202901503E-08  2.0863202901503E-08  2.0863202901503E-08  2.0863202901503E-08  2.0863202901503E-08  2.0863202901503E-08  2.0863202901503E-08  2.0863202901503E-08  1.9705471013990E-08 
 9.1999999999534E-01  9.2000000000000E-01  9.2000000000000E-01  9.2000000000000E-01  9.2000000000000E-01  9.2000000000000E-01  9.2000000000000E-01  9.2000000000000E-01  9.2000000000000E-01  9.2000000000514E-01 
 4.0000000002332E-02  4.0000000000001E-02  4.0000000000000E-02  4.0000000000000E-02  4.0000000000000E-02  4.0000000000000E-02  4.0000000000000E-02  4.0000000000000E-02  3.9999999999999E-02  3.9999999997431E-02 
 4.0000000002332E-02  4.0000000000001E-02  4.0000000000000E-02  4.0000000000000E-02  4.0000000000000E-02  4.0000000000000E-02  4.0000000000000E-02  4.0000000000000E-02  3.9999999999999E-02  3.9999999997431E-02 
 2.9166099700647E-02  2.9166050335489E-02  2.9166000970332E-02  2.9165951605175E-02  2.9165902240017E-02  2.9165852874860E-02  2.9165803509702E-02  2.9165754144545E-02  2.9165704779388E-02  2.9165655414230E-02 
 8.0911139820575E-01  8.0911139820575E-01  8.0911139820575E-01  8.0911139820575E-01  8.0911139820575E-01  8.0911139820575E-01  8.0911139820575E-01  8.0911139820575E-01  8.0911139820575E-01  8.0911139820575E-01 
 2.6811111111111E-05  5.3622222222222E-05  5.3622222222222E-05  5.3622222222222E-05  5.3622222222222E-05  5.3622222222222E-05  5.3622222222222E-05  5.3622222222223E-05  5.3622222222222E-05  2.6811111111111E-05 
 1.9088860179425E-01  1.9088860179425E-01  1.9088860179425E-01  1.9088860179425E-01  1.9088860179425E-01  1.9088860179425E-01  1.9088860179425E-01  1.9088860179425E-01  1.9088860179425E-01  1.9088860179425E-01 
 4.4767541010806E-09  4.4767541013177E-09  4.4767541014260E-09  4.4767541014066E-09  4.4767541014066E-09  4.4767541013774E-09  4.4767541013774E-09  4.4767541013628E-09  4.4767541014624E-09  4.4767541014964E-09 
 2.7658763309139E-02  2.7658763310680E-02  2.7658763312220E-02  2.7658763312220E-02  2.7658763312220E-02  2.7658763312220E-02  2.7658763312220E-02  2.7658763312220E-02  2.7658763313720E-02  2.7658763315220E-02 
 2.7658763309139E-02  2.7658763310680E-02  2.7658763312220E-02  2.7658763312220E-02  2.7658763312220E-02  2.7658763312220E-02  2.7658763312220E-02  2.7658763312220E-02  2.7658763313720E-02  2.7658763315220E-02 
 0.0000000000000E+00  0.0000000000000E+00  0.0000000000000E+00  0.0000000000000E+00  0.0000000000000E+00  0.0000000000000E+00  0.0000000000000E+00  0.0000000000000E+00  0.0000000000000E+00  0.0000000000000E+00 
ZONE T = "SEP , 2.3781E-07", I = 10, SOLUTIONTIME = 2.378125E-07
ZONETYPE = ORDERED
DATAPACKING = BLOCK
STRANDID = 2
 7.8740000000000E-04  8.4102222222222E-04  8.9464444444444E-04  9.4826666666667E-04  1.0018888888889E-03  1.0555111111111E-03  1.1091333333333E-03  1.1627555555556E-03  1.2163777777778E-03  1.2700000000000E-03 
 2.0862604974203E-08  2.0862700633852E-08  2.0862700633852E-08  2.0862700633852E-08  2.0862700633852E-08  2.0862700633852E-08  2.0862700633852E-08  2.0862700633852E-08  2.0862604974203E-08  1.9704920919488E-08 
 9.1999999999315E-01  9.2000000000000E-01  9.2000000000000E-01  9.2000000000000E-01  9.2000000000000E-01  9.2000000000000E-01  9.2000000000000E-01  9.2000000000000E-01  9.2000000000000E-01  9.2000000000755E-01 
 4.0000000003425E-02  4.0000000000002E-02  4.0000000000000E-02  4.0000000000000E-02  4.0000000000000E-02  4.0000000000000E-02  4.0000000000000E-02  4.0000000000000E-02  3.9999999999998E-02  3.9999999996226E-02 
 4.0000000003425E-02  4.0000000000002E-02  4.0000000000000E-02  4.0000000000000E-02  4.0000000000000E-02  4.0000000000000E-02  4.0000000000000E-02  4.0000000000000E-02  3.9999999999998E-02  3.9999999996226E-02 
 2.9166099738481E-02  2.9166050373324E-02  2.9166001008167E-02  2.9165951643009E-02  2.9165902277852E-02  2.9165852912695E-02  2.9165803547538E-02  2.9165754182381E-02  2.9165704817223E-02  2.9165655452066E-02 
 8.0911139820575E-01  8.0911139820575E-01  8.0911139820575E-01  8.0911139820575E-01  8.0911139820575E-01  8.0911139820575E-01  8.0911139820575E-01  8.0911139820575E-01  8.0911139820575E-01  8.0911139820575E-01 
 2.6811111111111E-05  5.3622222222222E-05  5.3622222222222E-05  5.3622222222222E-05  5.3622222222222E-05  5.3622222222222E-05  5.3622222222222E-05  5.3622222222223E-05  5.3622222222222E-05  2.6811111111111E-05 
 1.9088860179425E-01  1.9088860179425E-01  1.9088860179425E-01  1.9088860179425E-01  1.9088860179425E-01  1.9088860179425E-01  1.9088860179425E-01  1.9088860179425E-01  1.9088860179425E-01  1.9088860179425E-01 
 6.5770914289736E-09  6.5770914293133E-09  6.5770914295243E-09  6.5770914295049E-09  6.5770914295048E-09  6.5770914294757E-09  6.5770914293281E-09  6.5770914293134E-09  6.5770914296587E-09  6.5770914297907E-09 
 2.7658763165669E-02  2.7658763167021E-02  2.7658763168372E-02  2.7658763168372E-02  2.7658763168372E-02  2.7658763168372E-02  2.7658763166428E-02  2.7658763166428E-02  2.7658763169663E-02  2.7658763170955E-02 
 2.7658763165669E-02  2.7658763167021E-02  2.7658763168372E-02  2.7658763168372E-02  2.7658763168372E-02  2.7658763168372E-02  2.7658763166428E-02  2.7658763166428E-02  2.7658763169663E-02  2.7658763170955E-02 
 0.0000000000000E+00  0.0000000000000E+00  0.0000000000000E+00  0.0000000000000E+00  0.0000000000000E+00  0.0000000000000E+00  0.0000000000000E+00  0.0000000000000E+00  0.0000000000000E+00  0.0000000000000E+00 
ZONE T = "SEP , 3.5172E-07", I = 10, SOLUTIONTIME = 3.517188E-07
ZONETYPE = ORDERED
DATAPACKING = BLOCK
STRANDID = 2
 7.8740000000000E-04  8.4102222222222E-04  8.9464444444444E-04  9.4826666666667E-04  1.0018888888889E-03  1.0555111111111E-03  1.1091333333333E-03  1.1627555555556E-03  1.2163777777778E-03  1.2700000000000E-03 
 2.0862636860145E-08  2.0862573087046E-08  2.0862573087046E-08  2.0862573087046E-08  2.0862573087046E-08  2.0862573087046E-08  2.0862573087046E-08  2.0862573087046E-08  2.0862573087046E-08  1.9704841202480E-08 
 9.1999999998987E-01  9.1999999999999E-01  9.2000000000000E-01  9.2000000000000E-01  9.2000000000000E-01  9.2000000000000E-01  9.2000000000000E-01  9.2000000000000E-01  9.2000000000001E-01  9.2000000001116E-01 
 4.0000000005065E-02  4.0000000000003E-02  4.0000000000000E-02  4.0000000000000E-02  4.0000000000000E-02  4.0000000000000E-02  4.0000000000000E-02  4.0000000000000E-02  3.9999999999996E-02  3.9999999994419E-02 