TITLE = "Solution on Domain BulkDomain1D_1"
VARIABLES = "x [m]"  
"Vel_axial" 	"MF_sp(ECDMC)" 	"MF_sp(Li+)" 	"MF_sp(PF6-)" 	"Volt(Electroly)" 	"Porosity []" 	"Control volume thickness [m]" 	"volFrac MgO(S) []" 	"qHeat_accum [J/m3]" 	"qHeat_step [W/m3]" 	"Joule_Lyte [W/m3]" 	"Joule_Solid [W/m3]" 	
ZONE T = "SEP , 0.0000E+00", I = 10, SOLUTIONTIME = 0.000000E+00
ZONETYPE = ORDERED
DATAPACKING = BLOCK
STRANDID = 2
 7.8740000000000E-04  8.4102222222222E-04  8.9464444444444E-04  9.4826666666667E-04  1.0018888888889E-03  1.0555111111111E-03  1.1091333333333E-03  1.1627555555556E-03  1.2163777777778E-03  1.2700000000000E-03 
 0.0000000000000E+00  0.0000000000000E+00  0.0000000000000E+00  0.0000000000000E+00  0.0000000000000E+00  0.0000000000000E+00  0.0000000000000E+00  0.0000000000000E+00  0.0000000000000E+00  0.0000000000000E+00 
 9.2000000000000E-01  9.2000000000000E-01  9.2000000000000E-01  9.2000000000000E-01  9.2000000000000E-01  9.2000000000000E-01  9.2000000000000E-01  9.2000000000000E-01  9.2000000000000E-01  9.2000000000000E-01 
 4.0000000000000E-02  4.0000000000000E-02  4.0000000000000E-02  4.0000000000000E-02  4.0000000000000E-02  4.0000000000000E-02  4.0000000000000E-02  4.0000000000000E-02  4.0000000000000E-02  4.0000000000000E-02 
 4.0000000000000E-02  4.0000000000000E-02  4.0000000000000E-02  4.0000000000000E-02  4.0000000000000E-02  4.0000000000000E-02  4.0000000000000E-02  4.0000000000000E-02  4.0000000000000E-02  4.0000000000000E-02 
-7.0000000000000E-02 -7.0000000000000E-02 -7.0000000000000E-02 -7.0000000000000E-02 -7.0000000000000E-02 -7.0000000000000E-02 -7.0000000000000E-02 -7.0000000000000E-02 -7.0000000000000E-02 -7.0000000000000E-02 
 8.0911499769706E-01  8.0911499769706E-01  8.0911499769706E-01  8.0911499769706E-01  8.0911499769706E-01  8.0911499769706E-01  8.0911499769706E-01  8.0911499769706E-01  8.0911499769706E-01  8.0911499769706E-01 
 2.6811111111111E-05  5.3622222222222E-05  5.3622222222222E-05  5.3622222222222E-05  5.3622222222222E-05  5.3622222222222E-05  5.3622222222222E-05  5.3622222222223E-05  5.3622222222222E-05  2.6811111111111E-05 
 1.9088500230294E-01  1.9088500230294E-01  1.9088500230294E-01  1.9088500230294E-01  1.9088500230294E-01  1.9088500230294E-01  1.9088500230294E-01  1.9088500230294E-01  1.9088500230294E-01  1.9088500230294E-01 
 0.0000000000000E+00  0.0000000000000E+00  0.0000000000000E+00  0.0000000000000E+00  0.0000000000000E+00  0.0000000000000E+00  0.0000000000000E+00  0.0000000000000E+00  0.0000000000000E+00  0.0000000000000E+00 
 0.0000000000000E+00  0.0000000000000E+00  0.0000000000000E+00  0.0000000000000E+00  0.0000000000000E+00  0.0000000000000E+00  0.0000000000000E+00  0.0000000000000E+00  0.0000000000000E+00  0.0000000000000E+00 
 0.0000000000000E+00  0.0000000000000E+00  0.0000000000000E+00  0.0000000000000E+00  0.0000000000000E+00  0.0000000000000E+00  0.0000000000000E+00  0.0000000000000E+00  0.0000000000000E+00  0.0000000000000E+00 
 0.0000000000000E+00  0.0000000000000E+00  0.0000000000000E+00  0.0000000000000E+00  0.0000000000000E+00  0.0000000000000E+00  0.0000000000000E+00  0.0000000000000E+00  0.0000000000000E+00  0.0000000000000E+00 
ZONE T = "SEP , 1.0000E-08", I = 10, SOLUTIONTIME = 1.000000E-08
ZONETYPE = ORDERED
DATAPACKING = BLOCK
STRANDID = 2
 7.8740000000000E-04  8.4102222222222E-04  8.9464444444444E-04  9.4826666666667E-04  1.0018888888889E-03  1.0555111111111E-03  1.1091333333333E-03  1.1627555555556E-03  1.2163777777778E-03  1.2700000000000E-03 
 2.0862979329155E-08  2.0862979329155E-08  2.0862979329155E-08  2.0862979329155E-08  2.0862979329155E-08  2.0862979329155E-08  2.0862979329155E-08  2.0862979329155E-08  2.0862979329155E-08  1.9704888830013E-08 
 9.1999999999971E-01  9.2000000000000E-01  9.2000000000000E-01  9.2000000000000E-01  9.2000000000000E-01  9.2000000000000E-01  9.2000000000000E-01  9.2000000000000E-01  9.2000000000000E-01  9.2000000000032E-01 
 4.0000000000144E-02  4.0000000000000E-02  4.0000000000000E-02  4.0000000000000E-02  4.0000000000000E-02  4.0000000000000E-02  4.0000000000000E-02  4.0000000000000E-02  4.0000000000000E-02  3.9999999999841E-02 
 4.0000000000144E-02  4.0000000000000E-02  4.0000000000000E-02  4.0000000000000E-02  4.0000000000000E-02  4.0000000000000E-02  4.0000000000000E-02  4.0000000000000E-02  4.0000000000000E-02  3.9999999999841E-02 
 2.9166165132300E-02  2.9166115767662E-02  2.9166066403037E-02  2.9166017038413E-02  2.9165967673787E-02  2.9165918309148E-02  2.9165868944524E-02  2.9165819579899E-02  2.9165770215275E-02  2.9165720850641E-02 
 8.0911499769706E-01  8.0911499769706E-01  8.0911499769706E-01  8.0911499769706E-01  8.0911499769706E-01  8.0911499769706E-01  8.0911499769706E-01  8.0911499769706E-01  8.0911499769706E-01  8.0911499769706E-01 
 2.6811111111111E-05  5.3622222222222E-05  5.3622222222222E-05  5.3622222222222E-05  5.3622222222222E-05  5.3622222222222E-05  5.3622222222222E-05  5.3622222222223E-05  5.3622222222222E-05  2.6811111111111E-05 
 1.9088500230294E-01  1.9088500230294E-01  1.9088500230294E-01  1.9088500230294E-01  1.9088500230294E-01  1.9088500230294E-01  1.9088500230294E-01  1.9088500230294E-01  1.9088500230294E-01  1.9088500230294E-01 
 2.7658366721743E-10  2.7658358975333E-10  2.7658350845978E-10  2.7658351038422E-10  2.7658359296049E-10  2.7658358817853E-10  2.7658351069524E-10  2.7658350700186E-10  2.7658355592919E-10  2.7658361267094E-10 
 2.7658366721743E-02  2.7658358975333E-02  2.7658350845978E-02  2.7658351038422E-02  2.7658359296049E-02  2.7658358817853E-02  2.7658351069524E-02  2.7658350700186E-02  2.7658355592919E-02  2.7658361267094E-02 
 2.7658366721743E-02  2.7658358975333E-02  2.7658350845978E-02  2.7658351038422E-02  2.7658359296049E-02  2.7658358817853E-02  2.7658351069524E-02  2.7658350700186E-02  2.7658355592919E-02  2.7658361267094E-02 
 0.0000000000000E+00  0.0000000000000E+00  0.0000000000000E+00  0.0000000000000E+00  0.0000000000000E+00  0.0000000000000E+00  0.0000000000000E+00  0.0000000000000E+00  0.0000000000000E+00  0.0000000000000E+00 
ZONE T = "SEP , 2.0000E-08", I = 10, SOLUTIONTIME = 2.000000E-08
ZONETYPE = ORDERED
DATAPACKING = BLOCK
STRANDID = 2
 7.8740000000000E-04  8.4102222222222E-04  8.9464444444444E-04  9.4826666666667E-04  1.0018888888889E-03  1.0555111111111E-03  1.1091333333333E-03  1.1627555555556E-03  1.2163777777778E-03  1.2700000000000E-03 
 2.0860903518582E-08  2.0859450687671E-08  2.0859450687671E-08  2.0859450687671E-08  2.0859450687671E-08  2.0859450687671E-08  2.0859450687671E-08  2.0859450687671E-08  2.0859450687671E-08  1.9701717754323E-08 
 9.1999999999942E-01  9.2000000000000E-01  9.2000000000000E-01  9.2000000000000E-01  9.2000000000000E-01  9.2000000000000E-01  9.2000000000000E-01  9.2000000000000E-01  9.2000000000000E-01  9.2000000000063E-01 
 4.0000000000288E-02  4.0000000000000E-02  4.0000000000000E-02  4.0000000000000E-02  4.0000000000000E-02  4.0000000000000E-02  4.0000000000000E-02  4.0000000000000E-02  4.0000000000000E-02  3.9999999999683E-02 
 4.0000000000288E-02  4.0000000000000E-02  4.0000000000000E-02  4.0000000000000E-02  4.0000000000000E-02  4.0000000000000E-02  4.0000000000000E-02  4.0000000000000E-02  4.0000000000000E-02  3.9999999999683E-02 
 2.9166167321633E-02  2.9166117956761E-02  2.9166068591888E-02  2.9166019227015E-02  2.9165969862143E-02  2.9165920497270E-02  2.9165871132398E-02  2.9165821767525E-02  2.9165772402652E-02  2.9165723037780E-02 
 8.0911499769706E-01  8.0911499769706E-01  8.0911499769706E-01  8.0911499769706E-01  8.0911499769706E-01  8.0911499769706E-01  8.0911499769706E-01  8.0911499769706E-01  8.0911499769706E-01  8.0911499769706E-01 
 2.6811111111111E-05  5.3622222222222E-05  5.3622222222222E-05  5.3622222222222E-05  5.3622222222222E-05  5.3622222222222E-05  5.3622222222222E-05  5.3622222222223E-05  5.3622222222222E-05  2.6811111111111E-05 
 1.9088500230294E-01  1.9088500230294E-01  1.9088500230294E-01  1.9088500230294E-01  1.9088500230294E-01  1.9088500230294E-01  1.9088500230294E-01  1.9088500230294E-01  1.9088500230294E-01  1.9088500230294E-01 
 5.5316995495557E-10  5.5316987751041E-10  5.5316979621636E-10  5.5316979814080E-10  5.5316988071707E-10  5.5316987593512E-10  5.5316979845183E-10  5.5316979475844E-10  5.5316984368522E-10  5.5316990040699E-10 
 2.7658628773814E-02  2.7658628775708E-02  2.7658628775658E-02  2.7658628775658E-02  2.7658628775658E-02  2.7658628775658E-02  2.7658628775658E-02  2.7658628775658E-02  2.7658628775603E-02  2.7658628773605E-02 
 2.7658628773814E-02  2.7658628775708E-02  2.7658628775658E-02  2.7658628775658E-02  2.7658628775658E-02  2.7658628775658E-02  2.7658628775658E-02  2.7658628775658E-02  2.7658628775603E-02  2.7658628773605E-02 
 0.0000000000000E+00  0.0000000000000E+00  0.0000000000000E+00  0.0000000000000E+00  0.0000000000000E+00  0.0000000000000E+00  0.0000000000000E+00  0.0000000000000E+00  0.0000000000000E+00  0.0000000000000E+00 
ZONE T = "SEP , 3.0000E-08", I = 10, SOLUTIONTIME = 3.000000E-08
ZONETYPE = ORDERED
DATAPACKING = BLOCK
STRANDID = 2
 7.8740000000000E-04  8.4102222222222E-04  8.9464444444444E-04  9.4826666666667E-04  1.0018888888889E-03  1.0555111111111E-03  1.1091333333333E-03  1.1627555555556E-03  1.2163777777778E-03  1.2700000000000E-03 
 2.0865262010890E-08  2.0866714841801E-08  2.0866714841801E-08  2.0866714841801E-08  2.0866714841801E-08  2.0866714841801E-08  2.0866714841801E-08  2.0866714841801E-08  2.0866714841801E-08  1.9708255493013E-08 
 9.1999999999914E-01  9.2000000000000E-01  9.2000000000000E-01  9.2000000000000E-01  9.2000000000000E-01  9.2000000000000E-01  9.2000000000000E-01  9.2000000000000E-01  9.2000000000000E-01  9.2000000000095E-01 
 4.0000000000432E-02  4.0000000000000E-02  4.0000000000000E-02  4.0000000000000E-02  4.0000000000000E-02  4.0000000000000E-02  4.0000000000000E-02  4.0000000000000E-02  4.0000000000000E-02  3.9999999999524E-02 
 4.0000000000432E-02  4.0000000000000E-02  4.0000000000000E-02  4.0000000000000E-02  4.0000000000000E-02  4.0000000000000E-02  4.0000000000000E-02  4.0000000000000E-02  4.0000000000000E-02  3.9999999999524E-02 
 2.9166167321269E-02  2.9166117956397E-02  2.9166068591524E-02  2.9166019226652E-02  2.9165969861779E-02  2.9165920496906E-02  2.9165871132034E-02  2.9165821767161E-02  2.9165772402289E-02  2.9165723037416E-02 
 8.0911499769706E-01  8.0911499769706E-01  8.0911499769706E-01  8.0911499769706E-01  8.0911499769706E-01  8.0911499769706E-01  8.0911499769706E-01  8.0911499769706E-01  8.0911499769706E-01  8.0911499769706E-01 
 2.6811111111111E-05  5.3622222222222E-05  5.3622222222222E-05  5.3622222222222E-05  5.3622222222222E-05  5.3622222222222E-05  5.3622222222222E-05  5.3622222222223E-05  5.3622222222222E-05  2.6811111111111E-05 
 1.9088500230294E-01  1.9088500230294E-01  1.9088500230294E-01  1.9088500230294E-01  1.9088500230294E-01  1.9088500230294E-01  1.9088500230294E-01  1.9088500230294E-01  1.9088500230294E-01  1.9088500230294E-01 
 8.2975624269421E-10  8.2975616524830E-10  8.2975608395350E-10  8.2975608589738E-10  8.2975616847365E-10  8.2975616367226E-10  8.2975608618897E-10  8.2975608251502E-10  8.2975613144098E-10  8.2975618814248E-10 
 2.7658628773864E-02  2.7658628773789E-02  2.7658628773714E-02  2.7658628775658E-02  2.7658628775658E-02  2.7658628773714E-02  2.7658628773714E-02  2.7658628775658E-02  2.7658628775576E-02  2.7658628773550E-02 
 2.7658628773864E-02  2.7658628773789E-02  2.7658628773714E-02  2.7658628775658E-02  2.7658628775658E-02  2.7658628773714E-02  2.7658628773714E-02  2.7658628775658E-02  2.7658628775576E-02  2.7658628773550E-02 
 0.0000000000000E+00  0.0000000000000E+00  0.0000000000000E+00  0.0000000000000E+00  0.0000000000000E+00  0.0000000000000E+00  0.0000000000000E+00  0.0000000000000E+00  0.0000000000000E+00  0.0000000000000E+00 
ZONE T = "SEP , 4.0000E-08", I = 10, SOLUTIONTIME = 4.000000E-08
ZONETYPE = ORDERED
DATAPACKING = BLOCK
STRANDID = 2
 7.8740000000000E-04  8.4102222222222E-04  8.9464444444444E-04  9.4826666666667E-04  1.0018888888889E-03  1.0555111111111E-03  1.1091333333333E-03  1.1627555555556E-03  1.2163777777778E-03  1.2700000000000E-03 
 2.0859450686818E-08  2.0859450686818E-08  2.0859450686818E-08  2.0859450686818E-08  2.0859450686818E-08  2.0859450686818E-08  2.0859450686818E-08  2.0859450686818E-08  2.0859450686818E-08  1.9702807376685E-08 
 9.1999999999885E-01  9.2000000000000E-01  9.2000000000000E-01  9.2000000000000E-01  9.2000000000000E-01  9.2000000000000E-01  9.2000000000000E-01  9.2000000000000E-01  9.2000000000000E-01  9.2000000000127E-01 
 4.0000000000576E-02  4.0000000000000E-02  4.0000000000000E-02  4.0000000000000E-02  4.0000000000000E-02  4.0000000000000E-02  4.0000000000000E-02  4.0000000000000E-02  4.0000000000000E-02  3.9999999999365E-02 
 4.0000000000576E-02  4.0000000000000E-02  4.0000000000000E-02  4.0000000000000E-02  4.0000000000000E-02  4.0000000000000E-02  4.0000000000000E-02  4.0000000000000E-02  4.0000000000000E-02  3.9999999999365E-02 
 2.9166167320904E-02  2.9166117956031E-02  2.9166068591159E-02  2.9166019226286E-02  2.9165969861414E-02  2.9165920496541E-02  2.9165871131668E-02  2.9165821766796E-02  2.9165772401923E-02  2.9165723037051E-02 
 8.0911499769706E-01  8.0911499769706E-01  8.0911499769706E-01  8.0911499769706E-01  8.0911499769706E-01  8.0911499769706E-01  8.0911499769706E-01  8.0911499769706E-01  8.0911499769706E-01  8.0911499769706E-01 
 2.6811111111111E-05  5.3622222222222E-05  5.3622222222222E-05  5.3622222222222E-05  5.3622222222222E-05  5.3622222222222E-05  5.3622222222222E-05  5.3622222222223E-05  5.3622222222222E-05  2.6811111111111E-05 
 1.9088500230294E-01  1.9088500230294E-01  1.9088500230294E-01  1.9088500230294E-01  1.9088500230294E-01  1.9088500230294E-01  1.9088500230294E-01  1.9088500230294E-01  1.9088500230294E-01  1.9088500230294E-01 
 1.1063425304333E-09  1.1063424529670E-09  1.1063423716712E-09  1.1063423736345E-09  1.1063424562108E-09  1.1063424514094E-09  1.1063423739261E-09  1.1063423702522E-09  1.1063424191770E-09  1.1063424758774E-09 
 2.7658628773914E-02  2.7658628771870E-02  2.7658628771770E-02  2.7658628773714E-02  2.7658628773714E-02  2.7658628773714E-02  2.7658628773714E-02  2.7658628773714E-02  2.7658628773604E-02  2.7658628773495E-02 
 2.7658628773914E-02  2.7658628771870E-02  2.7658628771770E-02  2.7658628773714E-02  2.7658628773714E-02  2.7658628773714E-02  2.7658628773714E-02  2.7658628773714E-02  2.7658628773604E-02  2.7658628773495E-02 
 0.0000000000000E+00  0.0000000000000E+00  0.0000000000000E+00  0.0000000000000E+00  0.0000000000000E+00  0.0000000000000E+00  0.0000000000000E+00  0.0000000000000E+00  0.0000000000000E+00  0.0000000000000E+00 
ZONE T = "SEP , 5.5000E-08", I = 10, SOLUTIONTIME = 5.500000E-08
ZONETYPE = ORDERED
DATAPACKING = BLOCK
STRANDID = 2
 7.8740000000000E-04  8.4102222222222E-04  8.9464444444444E-04  9.4826666666667E-04  1.0018888888889E-03  1.0555111111111E-03  1.1091333333333E-03  1.1627555555556E-03  1.2163777777778E-03  1.2700000000000E-03 
 2.0864172386822E-08  2.0864172386822E-08  2.0864172386822E-08  2.0864172386822E-08  2.0864172386822E-08  2.0864172386822E-08  2.0864172386822E-08  2.0864172386822E-08  2.0864172386822E-08  1.9705834107310E-08 
 9.1999999999842E-01  9.2000000000000E-01  9.2000000000000E-01  9.2000000000000E-01  9.2000000000000E-01  9.2000000000000E-01  9.2000000000000E-01  9.2000000000000E-01  9.2000000000000E-01  9.2000000000175E-01 
 4.0000000000792E-02  4.0000000000000E-02  4.0000000000000E-02  4.0000000000000E-02  4.0000000000000E-02  4.0000000000000E-02  4.0000000000000E-02  4.0000000000000E-02  4.0000000000000E-02  3.9999999999127E-02 
 4.0000000000792E-02  4.0000000000000E-02  4.0000000000000E-02  4.0000000000000E-02  4.0000000000000E-02  4.0000000000000E-02  4.0000000000000E-02  4.0000000000000E-02  4.0000000000000E-02  3.9999999999127E-02 
 2.9166167320485E-02  2.9166117955613E-02  2.9166068590740E-02  2.9166019225867E-02  2.9165969860995E-02  2.9165920496122E-02  2.9165871131250E-02  2.9165821766377E-02  2.9165772401505E-02  2.9165723036632E-02 
 8.0911499769706E-01  8.0911499769706E-01  8.0911499769706E-01  8.0911499769706E-01  8.0911499769706E-01  8.0911499769706E-01  8.0911499769706E-01  8.0911499769706E-01  8.0911499769706E-01  8.0911499769706E-01 
 2.6811111111111E-05  5.3622222222222E-05  5.3622222222222E-05  5.3622222222222E-05  5.3622222222222E-05  5.3622222222222E-05  5.3622222222222E-05  5.3622222222223E-05  5.3622222222222E-05  2.6811111111111E-05 
 1.9088500230294E-01  1.9088500230294E-01  1.9088500230294E-01  1.9088500230294E-01  1.9088500230294E-01  1.9088500230294E-01  1.9088500230294E-01  1.9088500230294E-01  1.9088500230294E-01  1.9088500230294E-01 
 1.5212219619848E-09  1.5212218845456E-09  1.5212218032769E-09  1.5212218052111E-09  1.5212218877873E-09  1.5212218830151E-09  1.5212218055027E-09  1.5212218018287E-09  1.5212218507805E-09  1.5212219074786E-09 
 2.7658628770100E-02  2.7658628771907E-02  2.7658628773714E-02  2.7658628771770E-02  2.7658628771770E-02  2.7658628773714E-02  2.7658628771770E-02  2.7658628771770E-02  2.7658628773563E-02  2.7658628773412E-02 
 2.7658628770100E-02  2.7658628771907E-02  2.7658628773714E-02  2.7658628771770E-02  2.7658628771770E-02  2.7658628773714E-02  2.7658628771770E-02  2.7658628771770E-02  2.7658628773563E-02  2.7658628773412E-02 
 0.0000000000000E+00  0.0000000000000E+00  0.0000000000000E+00  0.0000000000000E+00  0.0000000000000E+00  0.0000000000000E+00  0.0000000000000E+00  0.0000000000000E+00  0.0000000000000E+00  0.0000000000000E+00 
ZONE T = "SEP , 7.7500E-08", I = 10, SOLUTIONTIME = 7.750000E-08
ZONETYPE = ORDERED
DATAPACKING = BLOCK
STRANDID = 2
 7.8740000000000E-04  8.4102222222222E-04  8.9464444444444E-04  9.4826666666667E-04  1.0018888888889E-03  1.0555111111111E-03  1.1091333333333E-03  1.1627555555556E-03  1.2163777777778E-03  1.2700000000000E-03 
 2.0861266724251E-08  2.0861266724251E-08  2.0861266724251E-08  2.0861266724251E-08  2.0861266724251E-08  2.0861266724251E-08  2.0861266724251E-08  2.0861266724251E-08  2.0861266724251E-08  1.9704179493608E-08 
 9.1999999999777E-01  9.2000000000000E-01  9.2000000000000E-01  9.2000000000000E-01  9.2000000000000E-01  9.2000000000000E-01  9.2000000000000E-01  9.2000000000000E-01  9.2000000000000E-01  9.2000000000246E-01 
 4.0000000001117E-02  4.0000000000000E-02  4.0000000000000E-02  4.0000000000000E-02  4.0000000000000E-02  4.0000000000000E-02  4.0000000000000E-02  4.0000000000000E-02  4.0000000000000E-02  3.9999999998770E-02 
 4.0000000001117E-02  4.0000000000000E-02  4.0000000000000E-02  4.0000000000000E-02  4.0000000000000E-02  4.0000000000000E-02  4.0000000000000E-02  4.0000000000000E-02  4.0000000000000E-02  3.9999999998770E-02 
 2.9166167319747E-02  2.9166117954874E-02  2.9166068590002E-02  2.9166019225129E-02  2.9165969860256E-02  2.9165920495384E-02  2.9165871130511E-02  2.9165821765639E-02  2.9165772400766E-02  2.9165723035893E-02 
 8.0911499769706E-01  8.0911499769706E-01  8.0911499769706E-01  8.0911499769706E-01  8.0911499769706E-01  8.0911499769706E-01  8.0911499769706E-01  8.0911499769706E-01  8.0911499769706E-01  8.0911499769706E-01 
 2.6811111111111E-05  5.3622222222222E-05  5.3622222222222E-05  5.3622222222222E-05  5.3622222222222E-05  5.3622222222222E-05  5.3622222222222E-05  5.3622222222223E-05  5.3622222222222E-05  2.6811111111111E-05 
 1.9088500230294E-01  1.9088500230294E-01  1.9088500230294E-01  1.9088500230294E-01  1.9088500230294E-01  1.9088500230294E-01  1.9088500230294E-01  1.9088500230294E-01  1.9088500230294E-01  1.9088500230294E-01 
 2.1435411093146E-09  2.1435410318710E-09  2.1435409506417E-09  2.1435409525759E-09  2.1435410351084E-09  2.1435410303362E-09  2.1435409528238E-09  2.1435409491498E-09  2.1435409980968E-09  2.1435410547901E-09 
 2.7658628770213E-02  2.7658628770019E-02  2.7658628771770E-02  2.7658628771770E-02  2.7658628769826E-02  2.7658628769826E-02  2.7658628769826E-02  2.7658628769826E-02  2.7658628769614E-02  2.7658628769401E-02 
 2.7658628770213E-02  2.7658628770019E-02  2.7658628771770E-02  2.7658628771770E-02  2.7658628769826E-02  2.7658628769826E-02  2.7658628769826E-02  2.7658628769826E-02  2.7658628769614E-02  2.7658628769401E-02 
 0.0000000000000E+00  0.0000000000000E+00  0.0000000000000E+00  0.0000000000000E+00  0.0000000000000E+00  0.0000000000000E+00  0.0000000000000E+00  0.0000000000000E+00  0.0000000000000E+00  0.0000000000000E+00 
ZONE T = "SEP , 1.1125E-07", I = 10, SOLUTIONTIME = 1.112500E-07
ZONETYPE = ORDERED
DATAPACKING = BLOCK
STRANDID = 2
 7.8740000000000E-04  8.4102222222222E-04  8.9464444444444E-04  9.4826666666667E-04  1.0018888888889E-03  1.0555111111111E-03  1.1091333333333E-03  1.1627555555556E-03  1.2163777777778E-03  1.2700000000000E-03 
 2.0862934788249E-08  2.0862934788249E-08  2.0862934788249E-08  2.0862934788249E-08  2.0862934788249E-08  2.0862934788249E-08  2.0862934788249E-08  2.0862934788249E-08  2.0862934788249E-08  1.9704932812262E-08 
 9.1999999999679E-01  9.2000000000000E-01  9.2000000000000E-01  9.2000000000000E-01  9.2000000000000E-01  9.2000000000000E-01  9.2000000000000E-01  9.2000000000000E-01  9.2000000000000E-01  9.2000000000353E-01 
 4.0000000001603E-02  4.0000000000000E-02  4.0000000000000E-02  4.0000000000000E-02  4.0000000000000E-02  4.0000000000000E-02  4.0000000000000E-02  4.0000000000000E-02  4.0000000000000E-02  3.9999999998234E-02 
 4.0000000001603E-02  4.0000000000000E-02  4.0000000000000E-02  4.0000000000000E-02  4.0000000000000E-02  4.0000000000000E-02  4.0000000000000E-02  4.0000000000000E-02  4.0000000000000E-02  3.9999999998234E-02 
 2.9166167318642E-02  2.9166117953769E-02  2.9166068588897E-02  2.9166019224024E-02  2.9165969859152E-02  2.9165920494279E-02  2.9165871129406E-02  2.9165821764534E-02  2.9165772399661E-02  2.9165723034789E-02 
 8.0911499769706E-01  8.0911499769706E-01  8.0911499769706E-01  8.0911499769706E-01  8.0911499769706E-01  8.0911499769706E-01  8.0911499769706E-01  8.0911499769706E-01  8.0911499769706E-01  8.0911499769706E-01 
 2.6811111111111E-05  5.3622222222222E-05  5.3622222222222E-05  5.3622222222222E-05  5.3622222222222E-05  5.3622222222222E-05  5.3622222222222E-05  5.3622222222223E-05  5.3622222222222E-05  2.6811111111111E-05 
 1.9088500230294E-01  1.9088500230294E-01  1.9088500230294E-01  1.9088500230294E-01  1.9088500230294E-01  1.9088500230294E-01  1.9088500230294E-01  1.9088500230294E-01  1.9088500230294E-01  1.9088500230294E-01 
 3.0770198301838E-09  3.0770197527308E-09  3.0770196715578E-09  3.0770196734919E-09  3.0770197559589E-09  3.0770197512522E-09  3.0770196737398E-09  3.0770196700002E-09  3.0770197190025E-09  3.0770197757512E-09 
 2.7658628766493E-02  2.7658628766216E-02  2.7658628767883E-02  2.7658628767883E-02  2.7658628765939E-02  2.7658628767883E-02  2.7658628767883E-02  2.7658628765938E-02  2.7658628767577E-02  2.7658628769216E-02 
 2.7658628766493E-02  2.7658628766216E-02  2.7658628767883E-02  2.7658628767883E-02  2.7658628765939E-02  2.7658628767883E-02  2.7658628767883E-02  2.7658628765938E-02  2.7658628767577E-02  2.7658628769216E-02 
 0.0000000000000E+00  0.0000000000000E+00  0.0000000000000E+00  0.0000000000000E+00  0.0000000000000E+00  0.0000000000000E+00  0.0000000000000E+00  0.0000000000000E+00  0.0000000000000E+00  0.0000000000000E+00 
ZONE T = "SEP , 1.6188E-07", I = 10, SOLUTIONTIME = 1.618750E-07
ZONETYPE = ORDERED
DATAPACKING = BLOCK
STRANDID = 2
 7.8740000000000E-04  8.4102222222222E-04  8.9464444444444E-04  9.4826666666667E-04  1.0018888888889E-03  1.0555111111111E-03  1.1091333333333E-03  1.1627555555556E-03  1.2163777777778E-03  1.2700000000000E-03 
 2.0863795723402E-08  2.0863795723402E-08  2.0863795723402E-08  2.0863795723402E-08  2.0863795723402E-08  2.0863795723402E-08  2.0863795723402E-08  2.0863795723402E-08  2.0863795723402E-08  1.9706062790243E-08 
 9.1999999999534E-01  9.2000000000000E-01  9.2000000000000E-01  9.2000000000000E-01  9.2000000000000E-01  9.2000000000000E-01  9.2000000000000E-01  9.2000000000000E-01  9.2000000000000E-01  9.2000000000514E-01 
 4.0000000002332E-02  4.0000000000001E-02  4.0000000000000E-02  4.0000000000000E-02  4.0000000000000E-02  4.0000000000000E-02  4.0000000000000E-02  4.0000000000000E-02  3.9999999999999E-02  3.9999999997431E-02 
 4.0000000002332E-02  4.0000000000001E-02  4.0000000000000E-02  4.0000000000000E-02  4.0000000000000E-02  4.0000000000000E-02  4.0000000000000E-02  4.0000000000000E-02  3.9999999999999E-02  3.9999999997431E-02 
 2.9166167316985E-02  2.9166117952112E-02  2.9166068587239E-02  2.9166019222367E-02  2.9165969857494E-02  2.9165920492622E-02  2.9165871127749E-02  2.9165821762877E-02  2.9165772398004E-02  2.9165723033131E-02 
 8.0911499769706E-01  8.0911499769706E-01  8.0911499769706E-01  8.0911499769706E-01  8.0911499769706E-01  8.0911499769706E-01  8.0911499769706E-01  8.0911499769706E-01  8.0911499769706E-01  8.0911499769706E-01 
 2.6811111111111E-05  5.3622222222222E-05  5.3622222222222E-05  5.3622222222222E-05  5.3622222222222E-05  5.3622222222222E-05  5.3622222222222E-05  5.3622222222223E-05  5.3622222222222E-05  2.6811111111111E-05 
 1.9088500230294E-01  1.9088500230294E-01  1.9088500230294E-01  1.9088500230294E-01  1.9088500230294E-01  1.9088500230294E-01  1.9088500230294E-01  1.9088500230294E-01  1.9088500230294E-01  1.9088500230294E-01 
 4.4772379113034E-09  4.4772378338301E-09  4.4772377527350E-09  4.4772377546692E-09  4.4772378370377E-09  4.4772378323311E-09  4.4772377548186E-09  4.4772377511774E-09  4.4772378001573E-09  4.4772378567850E-09 
 2.7658628762857E-02  2.7658628762454E-02  2.7658628763995E-02  2.7658628763995E-02  2.7658628762051E-02  2.7658628762051E-02  2.7658628762051E-02  2.7658628763994E-02  2.7658628763550E-02  2.7658628761162E-02 
 2.7658628762857E-02  2.7658628762454E-02  2.7658628763995E-02  2.7658628763995E-02  2.7658628762051E-02  2.7658628762051E-02  2.7658628762051E-02  2.7658628763994E-02  2.7658628763550E-02  2.7658628761162E-02 
 0.0000000000000E+00  0.0000000000000E+00  0.0000000000000E+00  0.0000000000000E+00  0.0000000000000E+00  0.0000000000000E+00  0.0000000000000E+00  0.0000000000000E+00  0.0000000000000E+00  0.0000000000000E+00 
ZONE T = "SEP , 2.3781E-07", I = 10, SOLUTIONTIME = 2.378125E-07
ZONETYPE = ORDERED
DATAPACKING = BLOCK
STRANDID = 2
 7.8740000000000E-04  8.4102222222222E-04  8.9464444444444E-04  9.4826666666667E-04  1.0018888888889E-03  1.0555111111111E-03  1.1091333333333E-03  1.1627555555556E-03  1.2163777777778E-03  1.2700000000000E-03 
 2.0862480400711E-08  2.0862767379656E-08  2.0862767379656E-08  2.0862767379656E-08  2.0862767379656E-08  2.0862767379656E-08  2.0862767379656E-08  2.0862767379656E-08  2.0862671720008E-08  1.9704986616773E-08 
 9.1999999999315E-01  9.2000000000000E-01  9.2000000000000E-01  9.2000000000000E-01  9.2000000000000E-01  9.2000000000000E-01  9.2000000000000E-01  9.2000000000000E-01  9.2000000000000E-01  9.2000000000755E-01 
 4.0000000003425E-02  4.0000000000002E-02  4.0000000000000E-02  4.0000000000000E-02  4.0000000000000E-02  4.0000000000000E-02  4.0000000000000E-02  4.0000000000000E-02  3.9999999999998E-02  3.9999999996226E-02 
 4.0000000003425E-02  4.0000000000002E-02  4.0000000000000E-02  4.0000000000000E-02  4.0000000000000E-02  4.0000000000000E-02  4.0000000000000E-02  4.0000000000000E-02  3.9999999999998E-02  3.9999999996226E-02 
 2.9166167314498E-02  2.9166117949625E-02  2.9166068584753E-02  2.9166019219880E-02  2.9165969855008E-02  2.9165920490135E-02  2.9165871125262E-02  2.9165821760390E-02  2.9165772395517E-02  2.9165723030645E-02 
 8.0911499769706E-01  8.0911499769706E-01  8.0911499769706E-01  8.0911499769706E-01  8.0911499769706E-01  8.0911499769706E-01  8.0911499769706E-01  8.0911499769706E-01  8.0911499769706E-01  8.0911499769706E-01 
 2.6811111111111E-05  5.3622222222222E-05  5.3622222222222E-05  5.3622222222222E-05  5.3622222222222E-05  5.3622222222222E-05  5.3622222222222E-05  5.3622222222223E-05  5.3622222222222E-05  2.6811111111111E-05 
 1.9088500230294E-01  1.9088500230294E-01  1.9088500230294E-01  1.9088500230294E-01  1.9088500230294E-01  1.9088500230294E-01  1.9088500230294E-01  1.9088500230294E-01  1.9088500230294E-01  1.9088500230294E-01 
 6.5775650324212E-09  6.5775649549028E-09  6.5775648739104E-09  6.5775648758446E-09  6.5775649582131E-09  6.5775649535065E-09  6.5775648759940E-09  6.5775648723528E-09  6.5775649212831E-09  6.5775649780089E-09 
 2.7658628755460E-02  2.7658628754868E-02  2.7658628756219E-02  2.7658628756219E-02  2.7658628756219E-02  2.7658628756219E-02  2.7658628756219E-02  2.7658628756219E-02  2.7658628755566E-02  2.7658628756858E-02 
 2.7658628755460E-02  2.7658628754868E-02  2.7658628756219E-02  2.7658628756219E-02  2.7658628756219E-02  2.7658628756219E-02  2.7658628756219E-02  2.7658628756219E-02  2.7658628755566E-02  2.7658628756858E-02 
 0.0000000000000E+00  0.0000000000000E+00  0.0000000000000E+00  0.0000000000000E+00  0.0000000000000E+00  0.0000000000000E+00  0.0000000000000E+00  0.0000000000000E+00  0.0000000000000E+00  0.0000000000000E+00 
ZONE T = "SEP , 3.5172E-07", I = 10, SOLUTIONTIME = 3.517188E-07
ZONETYPE = ORDERED
DATAPACKING = BLOCK
STRANDID = 2
 7.8740000000000E-04  8.4102222222222E-04  8.9464444444444E-04  9.4826666666667E-04  1.0018888888889E-03  1.0555111111111E-03  1.1091333333333E-03  1.1627555555556E-03  1.2163777777778E-03  1.2700000000000E-03 
 2.0862751432593E-08  2.0862687659494E-08  2.0862687659494E-08  2.0862687659494E-08  2.0862687659494E-08  2.0862687659494E-08  2.0862687659494E-08  2.0862687659494E-08  2.0862687659494E-08  1.9704954726585E-08 
 9.1999999998987E-01  9.1999999999999E-01  9.2000000000000E-01  9.2000000000000E-01  9.2000000000000E-01  9.2000000000000E-01  9.2000000000000E-01  9.2000000000000E-01  9.2000000000001E-01  9.2000000001116E-01 
 4.0000000005065E-02  4.0000000000003E-02  4.0000000000000E-02  4.0000000000000E-02  4.0000000000000E-02  4.0000000000000E-02  4.0000000000000E-02  4.0000000000000E-02  3.9999999999996E-02  3.9999999994419E-02 