TITLE = "Solution on Domain BulkDomain1D_0"
VARIABLES = "x [m]"  
"Vel_axial" 
"MF_sp(ECDMC)" 
"MF_sp(Li+)" 
"MF_sp(PF6-)" 
"Volt(Electroly)" 
"Volt(AnodeVolt)" 
"Potential Drop Electrode-Electrolyte [V]" 
"Surf_0 Equilibrium Potential Drop Electrode-Electrolyte [V]" 
"Overpotential_0 [V]" 
"Current Source [A/m^2]" 
"Li+ flux [kmol/m^2/s]" 
"Electrolyte Current [A/m^2]" 
"Electrode Current [A/m^2]" 
"CV Capacity discharged [A-s/m^2]" 
"Depth of discharge in CV [A-s/m^2]" 
"CV Capacity remaining [A-s/m^2]" 
"Initial CV capacity [A-s/m^2]" 
"Porosity []" 
"Surface Area [m2/m2] (area per area)" 
"Specific current (per particle area) [A/m^2]" 
"Control volume thickness [m]" 
"MoleDens Li_C6-bulk [kmol/m^3]" 
"MoleDens V_C6-bulk [kmol/m^3]" 
"qHeat_accum [J/m3]" 
"qHeat_step [W/m3]" 
"Joule_Lyte [W/m3]" 
"Joule_Solid [W/m3]" 
"electrodHeat [W/m3]" 
"OverpotHeat [W/m3]" 
"deltaSHeat [W/m3]" 

ZONE T = "ANOD, 0.0000E+00", I = 10, SOLUTIONTIME = 0.000000E+00
ZONETYPE = ORDERED
DATAPACKING = BLOCK
STRANDID = 1
 0.0000000000000E+00  8.7488888888889E-05  1.7497777777778E-04  2.6246666666667E-04  3.4995555555556E-04  4.3744444444444E-04  5.2493333333333E-04  6.1242222222222E-04  6.9991111111111E-04  7.8740000000000E-04 
 0.0000000000000E+00  0.0000000000000E+00  0.0000000000000E+00  0.0000000000000E+00  0.0000000000000E+00  0.0000000000000E+00  0.0000000000000E+00  0.0000000000000E+00  0.0000000000000E+00  0.0000000000000E+00 
 9.2000000000000E-01  9.2000000000000E-01  9.2000000000000E-01  9.2000000000000E-01  9.2000000000000E-01  9.2000000000000E-01  9.2000000000000E-01  9.2000000000000E-01  9.2000000000000E-01  9.2000000000000E-01 
 4.0000000000000E-02  4.0000000000000E-02  4.0000000000000E-02  4.0000000000000E-02  4.0000000000000E-02  4.0000000000000E-02  4.0000000000000E-02  4.0000000000000E-02  4.0000000000000E-02  4.0000000000000E-02 
 4.0000000000000E-02  4.0000000000000E-02  4.0000000000000E-02  4.0000000000000E-02  4.0000000000000E-02  4.0000000000000E-02  4.0000000000000E-02  4.0000000000000E-02  4.0000000000000E-02  4.0000000000000E-02 
-7.0000000000000E-02 -7.0000000000000E-02 -7.0000000000000E-02 -7.0000000000000E-02 -7.0000000000000E-02 -7.0000000000000E-02 -7.0000000000000E-02 -7.0000000000000E-02 -7.0000000000000E-02 -7.0000000000000E-02 
 0.0000000000000E+00  0.0000000000000E+00  0.0000000000000E+00  0.0000000000000E+00  0.0000000000000E+00  0.0000000000000E+00  0.0000000000000E+00  0.0000000000000E+00  0.0000000000000E+00  0.0000000000000E+00 
 7.0000000000000E-02  7.0000000000000E-02  7.0000000000000E-02  7.0000000000000E-02  7.0000000000000E-02  7.0000000000000E-02  7.0000000000000E-02  7.0000000000000E-02  7.0000000000000E-02  7.0000000000000E-02 
-4.0906712753391E-02 -4.0906712753391E-02 -4.0906712753391E-02 -4.0906712753391E-02 -4.0906712753391E-02 -4.0906712753391E-02 -4.0906712753391E-02 -4.0906712753391E-02 -4.0906712753391E-02 -4.0906712753391E-02 
 1.1090671275339E-01  1.1090671275339E-01  1.1090671275339E-01  1.1090671275339E-01  1.1090671275339E-01  1.1090671275339E-01  1.1090671275339E-01  1.1090671275339E-01  1.1090671275339E-01  1.1090671275339E-01 
 3.0930240924008E+01  6.1860481848017E+01  6.1860481848017E+01  6.1860481848017E+01  6.1860481848017E+01  6.1860481848017E+01  6.1860481848017E+01  6.1860481848017E+01  6.1860481848017E+01  3.0930240924008E+01 
-0.0000000000000E+00 -0.0000000000000E+00 -0.0000000000000E+00 -0.0000000000000E+00 -0.0000000000000E+00 -0.0000000000000E+00 -0.0000000000000E+00 -0.0000000000000E+00 -0.0000000000000E+00 -0.0000000000000E+00 
 0.0000000000000E+00  0.0000000000000E+00  0.0000000000000E+00  0.0000000000000E+00  0.0000000000000E+00  0.0000000000000E+00  0.0000000000000E+00  0.0000000000000E+00  0.0000000000000E+00  3.0930240924008E+01 
 3.0930240924008E+01 -0.0000000000000E+00 -0.0000000000000E+00 -0.0000000000000E+00 -0.0000000000000E+00 -0.0000000000000E+00 -0.0000000000000E+00 -0.0000000000000E+00 -0.0000000000000E+00  0.0000000000000E+00 
 0.0000000000000E+00  0.0000000000000E+00  0.0000000000000E+00  0.0000000000000E+00  0.0000000000000E+00  0.0000000000000E+00  0.0000000000000E+00  0.0000000000000E+00  0.0000000000000E+00  0.0000000000000E+00 
 7.0592160225764E+03  1.4118432045153E+04  1.4118432045153E+04  1.4118432045153E+04  1.4118432045153E+04  1.4118432045153E+04  1.4118432045153E+04  1.4118432045153E+04  1.4118432045153E+04  7.0592160225764E+03 
 5.2238198567065E+04  1.0447639713413E+05  1.0447639713413E+05  1.0447639713413E+05  1.0447639713413E+05  1.0447639713413E+05  1.0447639713413E+05  1.0447639713413E+05  1.0447639713413E+05  5.2238198567065E+04 
 5.9297414589642E+04  1.1859482917928E+05  1.1859482917928E+05  1.1859482917928E+05  1.1859482917928E+05  1.1859482917928E+05  1.1859482917928E+05  1.1859482917928E+05  1.1859482917928E+05  5.9297414589642E+04 
 3.5000000000000E-01  3.5000000000000E-01  3.5000000000000E-01  3.5000000000000E-01  3.5000000000000E-01  3.5000000000000E-01  3.5000000000000E-01  3.5000000000000E-01  3.5000000000000E-01  3.5000000000000E-01 
 8.5301666666667E+00  1.7060333333333E+01  1.7060333333333E+01  1.7060333333333E+01  1.7060333333333E+01  1.7060333333333E+01  1.7060333333333E+01  1.7060333333333E+01  1.7060333333333E+01  8.5301666666667E+00 
 3.6259831879809E+00  3.6259831879809E+00  3.6259831879809E+00  3.6259831879809E+00  3.6259831879809E+00  3.6259831879809E+00  3.6259831879809E+00  3.6259831879809E+00  3.6259831879809E+00  3.6259831879809E+00 
 4.3744444444444E-05  8.7488888888889E-05  8.7488888888889E-05  8.7488888888889E-05  8.7488888888889E-05  8.7488888888889E-05  8.7488888888889E-05  8.7488888888889E-05  8.7488888888889E-05  4.3744444444444E-05 
 1.3380188695655E+01  1.3380188695655E+01  1.3380188695655E+01  1.3380188695655E+01  1.3380188695655E+01  1.3380188695655E+01  1.3380188695655E+01  1.3380188695655E+01  1.3380188695655E+01  1.3380188695655E+01 
 3.3450471739137E+00  3.3450471739137E+00  3.3450471739137E+00  3.3450471739137E+00  3.3450471739137E+00  3.3450471739137E+00  3.3450471739137E+00  3.3450471739137E+00  3.3450471739137E+00  3.3450471739137E+00 
 0.0000000000000E+00  0.0000000000000E+00  0.0000000000000E+00  0.0000000000000E+00  0.0000000000000E+00  0.0000000000000E+00  0.0000000000000E+00  0.0000000000000E+00  0.0000000000000E+00  0.0000000000000E+00 
 0.0000000000000E+00  0.0000000000000E+00  0.0000000000000E+00  0.0000000000000E+00  0.0000000000000E+00  0.0000000000000E+00  0.0000000000000E+00  0.0000000000000E+00  0.0000000000000E+00  0.0000000000000E+00 
 0.0000000000000E+00  0.0000000000000E+00  0.0000000000000E+00  0.0000000000000E+00  0.0000000000000E+00  0.0000000000000E+00  0.0000000000000E+00  0.0000000000000E+00  0.0000000000000E+00  0.0000000000000E+00 
 0.0000000000000E+00  0.0000000000000E+00  0.0000000000000E+00  0.0000000000000E+00  0.0000000000000E+00  0.0000000000000E+00  0.0000000000000E+00  0.0000000000000E+00  0.0000000000000E+00  0.0000000000000E+00 
 0.0000000000000E+00  0.0000000000000E+00  0.0000000000000E+00  0.0000000000000E+00  0.0000000000000E+00  0.0000000000000E+00  0.0000000000000E+00  0.0000000000000E+00  0.0000000000000E+00  0.0000000000000E+00 
 0.0000000000000E+00  0.0000000000000E+00  0.0000000000000E+00  0.0000000000000E+00  0.0000000000000E+00  0.0000000000000E+00  0.0000000000000E+00  0.0000000000000E+00  0.0000000000000E+00  0.0000000000000E+00 
 0.0000000000000E+00  0.0000000000000E+00  0.0000000000000E+00  0.0000000000000E+00  0.0000000000000E+00  0.0000000000000E+00  0.0000000000000E+00  0.0000000000000E+00  0.0000000000000E+00  0.0000000000000E+00 
ZONE T = "ANOD, 1.0000E-08", I = 10, SOLUTIONTIME = 1.000000E-08
ZONETYPE = ORDERED
DATAPACKING = BLOCK
STRANDID = 1
 0.0000000000000E+00  8.7488888888889E-05  1.7497777777778E-04  2.6246666666667E-04  3.4995555555556E-04  4.3744444444444E-04  5.2493333333333E-04  6.1242222222222E-04  6.9991111111111E-04  7.8740000000000E-04 
 1.1589975177706E-09  3.4762683455199E-09  5.7942742268567E-09  8.1122951768211E-09  1.0429611210501E-08  1.2747681589420E-08  1.5065786328825E-08  1.7383205444071E-08  1.9700671781556E-08  2.0859794984691E-08 
 9.1999999999930E-01  9.1999999999930E-01  9.1999999999930E-01  9.1999999999930E-01  9.1999999999930E-01  9.1999999999930E-01  9.1999999999930E-01  9.1999999999930E-01  9.1999999999930E-01  9.1999999999971E-01 
 4.0000000000348E-02  4.0000000000348E-02  4.0000000000348E-02  4.0000000000348E-02  4.0000000000348E-02  4.0000000000348E-02  4.0000000000348E-02  4.0000000000348E-02  4.0000000000348E-02  4.0000000000144E-02 
 4.0000000000348E-02  4.0000000000348E-02  4.0000000000348E-02  4.0000000000348E-02  4.0000000000348E-02  4.0000000000348E-02  4.0000000000348E-02  4.0000000000348E-02  4.0000000000348E-02  4.0000000000144E-02 
 2.9167373666167E-02  2.9167357938982E-02  2.9167310757395E-02  2.9167232121290E-02  2.9167122030463E-02  2.9166980484621E-02  2.9166807483386E-02  2.9166603026292E-02  2.9166367112784E-02  2.9166099742222E-02 
 0.0000000000000E+00 -4.7371510661265E-09 -8.9170107926414E-09 -1.2539577102771E-08 -1.5604846373725E-08 -1.8112813436689E-08 -2.0063471576802E-08 -2.1456812533139E-08 -2.2292826498684E-08 -2.2571502120298E-08 
-2.9167373666167E-02 -2.9167362676133E-02 -2.9167319674406E-02 -2.9167244660868E-02 -2.9167137635310E-02 -2.9166998597435E-02 -2.9166827546858E-02 -2.9166624483104E-02 -2.9166389405610E-02 -2.9166122313724E-02 
-4.0906712752673E-02 -4.0906712752673E-02 -4.0906712752673E-02 -4.0906712752673E-02 -4.0906712752672E-02 -4.0906712752673E-02 -4.0906712752673E-02 -4.0906712752671E-02 -4.0906712752671E-02 -4.0906712752803E-02 
 1.1739339086506E-02  1.1739350076540E-02  1.1739393078267E-02  1.1739468091805E-02  1.1739575117362E-02  1.1739714155238E-02  1.1739885205815E-02  1.1740088269567E-02  1.1740323347061E-02  1.1740590439079E-02 
 1.6690487381775E+00  3.3381006555668E+00  3.3381130951647E+00  3.3381347951886E+00  3.3381657557073E+00  3.3382059768209E+00  3.3382554586567E+00  3.3383142013728E+00  3.3383822051574E+00  1.6692297351137E+00 
 8.6492352079907E-09  2.5947722096062E-08  4.3246273451002E-08  6.0544937256143E-08  7.7843761498627E-08  9.5142794178632E-08  1.1244208328242E-07  1.2974167679193E-07  1.4704169482976E-07  1.4704169482976E-07 
 0.0000000000000E+00  3.3380990659588E+00  6.6762059413403E+00  1.0014329886625E+01  1.3352480161925E+01  1.6690666028089E+01  2.0028896745965E+01  2.3367181576035E+01  2.6705529779294E+01  3.0043950617069E+01 
 3.0043950616927E+01  2.6705851550966E+01  2.3367744675600E+01  2.0029620730423E+01  1.6691470454975E+01  1.3353284588711E+01  1.0015053870972E+01  6.6767690409576E+00  3.3384208376925E+00  0.0000000000000E+00 
 1.6690487381775E-08  3.3381006555668E-08  3.3381130951647E-08  3.3381347951886E-08  3.3381657557073E-08  3.3382059768209E-08  3.3382554586567E-08  3.3383142013728E-08  3.3383822051574E-08  1.6692297351137E-08 
 7.0592160225931E+03  1.4118432045186E+04  1.4118432045186E+04  1.4118432045186E+04  1.4118432045186E+04  1.4118432045186E+04  1.4118432045186E+04  1.4118432045186E+04  1.4118432045186E+04  7.0592160225931E+03 
 5.2238198567049E+04  1.0447639713410E+05  1.0447639713410E+05  1.0447639713410E+05  1.0447639713410E+05  1.0447639713410E+05  1.0447639713410E+05  1.0447639713410E+05  1.0447639713410E+05  5.2238198567049E+04 
 5.9297414589642E+04  1.1859482917928E+05  1.1859482917928E+05  1.1859482917928E+05  1.1859482917928E+05  1.1859482917928E+05  1.1859482917928E+05  1.1859482917928E+05  1.1859482917928E+05  5.9297414589642E+04 
 3.5000000000000E-01  3.5000000000000E-01  3.5000000000000E-01  3.5000000000000E-01  3.5000000000000E-01  3.5000000000000E-01  3.5000000000000E-01  3.5000000000000E-01  3.5000000000000E-01  3.5000000000000E-01 
 8.5301666666665E+00  1.7060333333333E+01  1.7060333333333E+01  1.7060333333333E+01  1.7060333333333E+01  1.7060333333333E+01  1.7060333333333E+01  1.7060333333333E+01  1.7060333333333E+01  8.5301666666665E+00 
 1.9566425878872E-01  1.9566444513981E-01  1.9566517429309E-01  1.9566644625087E-01  1.9566826101722E-01  1.9567061859797E-01  1.9567351900061E-01  1.9567696223440E-01  1.9568094831036E-01  1.9568547724122E-01 
 4.3744444444444E-05  8.7488888888889E-05  8.7488888888889E-05  8.7488888888889E-05  8.7488888888889E-05  8.7488888888889E-05  8.7488888888889E-05  8.7488888888889E-05  8.7488888888889E-05  4.3744444444444E-05 
 1.3380188695651E+01  1.3380188695651E+01  1.3380188695651E+01  1.3380188695651E+01  1.3380188695651E+01  1.3380188695651E+01  1.3380188695651E+01  1.3380188695651E+01  1.3380188695651E+01  1.3380188695651E+01 
 3.3450471739177E+00  3.3450471739177E+00  3.3450471739177E+00  3.3450471739177E+00  3.3450471739177E+00  3.3450471739177E+00  3.3450471739177E+00  3.3450471739177E+00  3.3450471739177E+00  3.3450471739177E+00 
 1.8364118901449E-11  2.8664280194022E-11  6.1478631965373E-11  1.1872129193362E-10  2.0039289529255E-10  3.0649434832559E-10  4.3702682840949E-10  5.9199178400272E-10  7.7139093470015E-10  8.6719929072467E-10 
 1.8364118901449E-03  2.8664280194022E-03  6.1478631965373E-03  1.1872129193362E-02  2.0039289529255E-02  3.0649434832559E-02  4.3702682840949E-02  5.9199178400272E-02  7.7139093470015E-02  8.6719929072467E-02 
 3.0003168926182E-04  1.5001601605012E-03  5.1005573270295E-03  1.1101260010838E-02  1.9502331668820E-02  3.0303862394918E-02  4.3505968920484E-02  5.9108794613093E-02  7.7112509481984E-02  8.6714612127195E-02 
 1.5363802008831E-03  1.3662678589010E-03  1.0473058695078E-03  7.7086918252392E-04  5.3695786043564E-04  3.4557243764102E-04  1.9671392046486E-04  9.0383787179519E-05  2.6583988031063E-05  5.3169452710804E-06 
 0.0000000000000E+00  0.0000000000000E+00  0.0000000000000E+00  0.0000000000000E+00  0.0000000000000E+00  0.0000000000000E+00  0.0000000000000E+00  0.0000000000000E+00  0.0000000000000E+00  0.0000000000000E+00 
 0.0000000000000E+00  0.0000000000000E+00  0.0000000000000E+00  0.0000000000000E+00  0.0000000000000E+00  0.0000000000000E+00  0.0000000000000E+00  0.0000000000000E+00  0.0000000000000E+00  0.0000000000000E+00 
 0.0000000000000E+00  0.0000000000000E+00  0.0000000000000E+00  0.0000000000000E+00  0.0000000000000E+00  0.0000000000000E+00  0.0000000000000E+00  0.0000000000000E+00  0.0000000000000E+00  0.0000000000000E+00 
ZONE T = "ANOD, 2.0000E-08", I = 10, SOLUTIONTIME = 2.000000E-08
ZONETYPE = ORDERED
DATAPACKING = BLOCK
STRANDID = 1
 0.0000000000000E+00  8.7488888888889E-05  1.7497777777778E-04  2.6246666666667E-04  3.4995555555556E-04  4.3744444444444E-04  5.2493333333333E-04  6.1242222222222E-04  6.9991111111111E-04  7.8740000000000E-04 
 1.1589975177458E-09  3.4769947609011E-09  5.7950006421883E-09  8.1130215921031E-09  1.0431064041189E-08  1.2748408004603E-08  1.5065786328503E-08  1.7383568651428E-08  1.9701398196590E-08  2.0860884607439E-08 
 9.1999999999861E-01  9.1999999999861E-01  9.1999999999861E-01  9.1999999999861E-01  9.1999999999861E-01  9.1999999999861E-01  9.1999999999861E-01  9.1999999999861E-01  9.1999999999861E-01  9.1999999999942E-01 
 4.0000000000696E-02  4.0000000000696E-02  4.0000000000696E-02  4.0000000000696E-02  4.0000000000696E-02  4.0000000000696E-02  4.0000000000696E-02  4.0000000000696E-02  4.0000000000696E-02  4.0000000000288E-02 
 4.0000000000696E-02  4.0000000000696E-02  4.0000000000696E-02  4.0000000000696E-02  4.0000000000696E-02  4.0000000000696E-02  4.0000000000696E-02  4.0000000000696E-02  4.0000000000696E-02  4.0000000000288E-02 
 2.9167373665809E-02  2.9167357938624E-02  2.9167310757037E-02  2.9167232120932E-02  2.9167122030105E-02  2.9166980484263E-02  2.9166807483028E-02  2.9166603025934E-02  2.9166367112426E-02  2.9166099741864E-02 
 0.0000000000000E+00 -4.7371510660278E-09 -8.9170107924559E-09 -1.2539577102511E-08 -1.5604846373402E-08 -1.8112813436315E-08 -2.0063471576388E-08 -2.1456812532698E-08 -2.2292826498228E-08 -2.2571502119838E-08 
-2.9167373665809E-02 -2.9167362675775E-02 -2.9167319674048E-02 -2.9167244660510E-02 -2.9167137634951E-02 -2.9166998597077E-02 -2.9166827546500E-02 -2.9166624482746E-02 -2.9166389405252E-02 -2.9166122313366E-02 
-4.0906712751951E-02 -4.0906712751951E-02 -4.0906712751951E-02 -4.0906712751951E-02 -4.0906712751951E-02 -4.0906712751951E-02 -4.0906712751951E-02 -4.0906712751951E-02 -4.0906712751951E-02 -4.0906712752213E-02 
 1.1739339086142E-02  1.1739350076176E-02  1.1739393077903E-02  1.1739468091441E-02  1.1739575116999E-02  1.1739714154874E-02  1.1739885205451E-02  1.1740088269205E-02  1.1740323346698E-02  1.1740590438847E-02 
 1.6690487381419E+00  3.3381006554955E+00  3.3381130950934E+00  3.3381347951172E+00  3.3381657556363E+00  3.3382059767496E+00  3.3382554585853E+00  3.3383142013017E+00  3.3383822050864E+00  1.6692297350930E+00 
 8.6492352103210E-09  2.5947722094032E-08  4.3246273449470E-08  6.0544937250599E-08  7.7843761499304E-08  9.5142794173389E-08  1.1244208327732E-07  1.2974167678699E-07  1.4704176694479E-07  1.4704176694479E-07 
 0.0000000000000E+00  3.3380990659879E+00  6.6762059412143E+00  1.0014329886160E+01  1.3352480161673E+01  1.6690666027866E+01  2.0028896745403E+01  2.3367181575502E+01  2.6705529778754E+01  3.0043950616487E+01 
 3.0043950616300E+01  2.6705851550411E+01  2.3367744675116E+01  2.0029620730011E+01  1.6691470454634E+01  1.3353284588441E+01  1.0015053870774E+01  6.6767690408302E+00  3.3384208376362E+00  0.0000000000000E+00 
 3.3380974763194E-08  6.6762013110623E-08  6.6762261902581E-08  6.6762695903058E-08  6.6763315113436E-08  6.6764119535705E-08  6.6765109172420E-08  6.6766284026745E-08  6.6767644102439E-08  3.3384594702067E-08 
 7.0592160226098E+03  1.4118432045220E+04  1.4118432045220E+04  1.4118432045220E+04  1.4118432045220E+04  1.4118432045220E+04  1.4118432045220E+04  1.4118432045220E+04  1.4118432045220E+04  7.0592160226098E+03 
 5.2238198567032E+04  1.0447639713406E+05  1.0447639713406E+05  1.0447639713406E+05  1.0447639713406E+05  1.0447639713406E+05  1.0447639713406E+05  1.0447639713406E+05  1.0447639713406E+05  5.2238198567032E+04 
 5.9297414589642E+04  1.1859482917928E+05  1.1859482917928E+05  1.1859482917928E+05  1.1859482917928E+05  1.1859482917928E+05  1.1859482917928E+05  1.1859482917928E+05  1.1859482917928E+05  5.9297414589642E+04 
 3.5000000000000E-01  3.5000000000000E-01  3.5000000000000E-01  3.5000000000000E-01  3.5000000000000E-01  3.5000000000000E-01  3.5000000000000E-01  3.5000000000000E-01  3.5000000000000E-01  3.5000000000000E-01 
 8.5301666666663E+00  1.7060333333333E+01  1.7060333333333E+01  1.7060333333333E+01  1.7060333333333E+01  1.7060333333333E+01  1.7060333333333E+01  1.7060333333333E+01  1.7060333333333E+01  8.5301666666663E+00 
 1.9566425878454E-01  1.9566444513563E-01  1.9566517428891E-01  1.9566644624670E-01  1.9566826101306E-01  1.9567061859380E-01  1.9567351899643E-01  1.9567696223023E-01  1.9568094830620E-01  1.9568547723878E-01 
 4.3744444444444E-05  8.7488888888889E-05  8.7488888888889E-05  8.7488888888889E-05  8.7488888888889E-05  8.7488888888889E-05  8.7488888888889E-05  8.7488888888889E-05  8.7488888888889E-05  4.3744444444444E-05 
 1.3380188695647E+01  1.3380188695647E+01  1.3380188695647E+01  1.3380188695647E+01  1.3380188695647E+01  1.3380188695647E+01  1.3380188695647E+01  1.3380188695647E+01  1.3380188695647E+01  1.3380188695647E+01 
 3.3450471739216E+00  3.3450471739216E+00  3.3450471739216E+00  3.3450471739216E+00  3.3450471739216E+00  3.3450471739216E+00  3.3450471739216E+00  3.3450471739216E+00  3.3450471739216E+00  3.3450471739216E+00 
 3.6728237802285E-11  5.7328560387606E-11  1.2295726392745E-10  2.3744258385532E-10  4.0078579057732E-10  6.1298869663911E-10  8.7405365679092E-10  1.1839835679735E-09  1.5427818693635E-09  1.7343985814097E-09 
 1.8364118900835E-03  2.8664280193584E-03  6.1478631962074E-03  1.1872129192170E-02  2.0039289528476E-02  3.0649434831352E-02  4.3702682838143E-02  5.9199178397077E-02  7.7139093466338E-02  8.6719929068499E-02 
 6.0006337852624E-04  3.0003203210155E-03  1.0201114653772E-02  2.2202520020516E-02  3.9004663336882E-02  6.0607724788643E-02  8.7011937838170E-02  1.1821758922299E-01  1.5422501896029E-01  1.7342922425042E-01 
 3.0727604017022E-03  2.7325357177451E-03  2.0946117389722E-03  1.5417383650161E-03  1.0739157208493E-03  6.9114487526806E-04  3.9342784092191E-04  1.8076757435557E-04  5.3167976061182E-05  1.0633890542028E-05 
 0.0000000000000E+00  0.0000000000000E+00  0.0000000000000E+00  0.0000000000000E+00  0.0000000000000E+00  0.0000000000000E+00  0.0000000000000E+00  0.0000000000000E+00  0.0000000000000E+00  0.0000000000000E+00 
 0.0000000000000E+00  0.0000000000000E+00  0.0000000000000E+00  0.0000000000000E+00  0.0000000000000E+00  0.0000000000000E+00  0.0000000000000E+00  0.0000000000000E+00  0.0000000000000E+00  0.0000000000000E+00 
 0.0000000000000E+00  0.0000000000000E+00  0.0000000000000E+00  0.0000000000000E+00  0.0000000000000E+00  0.0000000000000E+00  0.0000000000000E+00  0.0000000000000E+00  0.0000000000000E+00  0.0000000000000E+00 
ZONE T = "ANOD, 3.0000E-08", I = 10, SOLUTIONTIME = 3.000000E-08
ZONETYPE = ORDERED
DATAPACKING = BLOCK
STRANDID = 1
 0.0000000000000E+00  8.7488888888889E-05  1.7497777777778E-04  2.6246666666667E-04  3.4995555555556E-04  4.3744444444444E-04  5.2493333333333E-04  6.1242222222222E-04  6.9991111111111E-04  7.8740000000000E-04 
 1.1589975177214E-09  3.4769947608278E-09  5.7950006420662E-09  8.1130215919321E-09  1.0431064040970E-08  1.2749860835247E-08  1.5068691990009E-08  1.7387927143796E-08  1.9706483104367E-08  2.0865243099746E-08 
 9.1999999999791E-01  9.1999999999791E-01  9.1999999999791E-01  9.1999999999791E-01  9.1999999999791E-01  9.1999999999791E-01  9.1999999999791E-01  9.1999999999791E-01  9.1999999999791E-01  9.1999999999914E-01 
 4.0000000001045E-02  4.0000000001045E-02  4.0000000001045E-02  4.0000000001045E-02  4.0000000001045E-02  4.0000000001045E-02  4.0000000001045E-02  4.0000000001045E-02  4.0000000001045E-02  4.0000000000432E-02 
 4.0000000001045E-02  4.0000000001045E-02  4.0000000001045E-02  4.0000000001045E-02  4.0000000001045E-02  4.0000000001045E-02  4.0000000001045E-02  4.0000000001045E-02  4.0000000001045E-02  4.0000000000432E-02 
 2.9167373665445E-02  2.9167357938260E-02  2.9167310756673E-02  2.9167232120569E-02  2.9167122029741E-02  2.9166980483900E-02  2.9166807482664E-02  2.9166603025570E-02  2.9166367112062E-02  2.9166099741500E-02 
 0.0000000000000E+00 -4.7371510659312E-09 -8.9170107922744E-09 -1.2539577102256E-08 -1.5604846373086E-08 -1.8112813435949E-08 -2.0063471575984E-08 -2.1456812532267E-08 -2.2292826497782E-08 -2.2571502119390E-08 
-2.9167373665445E-02 -2.9167362675411E-02 -2.9167319673684E-02 -2.9167244660146E-02 -2.9167137634588E-02 -2.9166998596713E-02 -2.9166827546136E-02 -2.9166624482382E-02 -2.9166389404888E-02 -2.9166122313002E-02 
-4.0906712751227E-02 -4.0906712751227E-02 -4.0906712751227E-02 -4.0906712751227E-02 -4.0906712751229E-02 -4.0906712751229E-02 -4.0906712751229E-02 -4.0906712751231E-02 -4.0906712751231E-02 -4.0906712751624E-02 
 1.1739339085781E-02  1.1739350075816E-02  1.1739393077543E-02  1.1739468091081E-02  1.1739575116641E-02  1.1739714154516E-02  1.1739885205093E-02  1.1740088268849E-02  1.1740323346342E-02  1.1740590438622E-02 
 1.6690487381068E+00  3.3381006554252E+00  3.3381130950231E+00  3.3381347950469E+00  3.3381657555665E+00  3.3382059766797E+00  3.3382554585155E+00  3.3383142012324E+00  3.3383822050171E+00  1.6692297350730E+00 
 8.6492352103963E-09  2.5947722092350E-08  4.3246273447939E-08  6.0544937247303E-08  7.7843761497735E-08  9.5142794171962E-08  1.1244208327449E-07  1.2974167678274E-07  1.4704183905879E-07  1.4704183905879E-07 
 0.0000000000000E+00  3.3380990658328E+00  6.6762059409042E+00  1.0014329886063E+01  1.3352480161421E+01  1.6690666027643E+01  2.0028896745209E+01  2.3367181574969E+01  2.6705529778029E+01  3.0043950615537E+01 
 3.0043950615686E+01  2.6705851549867E+01  2.3367744674643E+01  2.0029620729608E+01  1.6691470454301E+01  1.3353284588178E+01  1.0015053870580E+01  6.6767690407063E+00  3.3384208375815E+00  0.0000000000000E+00 
 5.0071462144262E-08  1.0014301966487E-07  1.0014339285281E-07  1.0014404385353E-07  1.0014497266910E-07  1.0014617930250E-07  1.0014766375758E-07  1.0014942603907E-07  1.0015146615261E-07  5.0076892052797E-08 
 7.0592160226264E+03  1.4118432045253E+04  1.4118432045253E+04  1.4118432045253E+04  1.4118432045253E+04  1.4118432045253E+04  1.4118432045253E+04  1.4118432045253E+04  1.4118432045253E+04  7.0592160226265E+03 
 5.2238198567015E+04  1.0447639713403E+05  1.0447639713403E+05  1.0447639713403E+05  1.0447639713403E+05  1.0447639713403E+05  1.0447639713403E+05  1.0447639713403E+05  1.0447639713403E+05  5.2238198567015E+04 
 5.9297414589642E+04  1.1859482917928E+05  1.1859482917928E+05  1.1859482917928E+05  1.1859482917928E+05  1.1859482917928E+05  1.1859482917928E+05  1.1859482917928E+05  1.1859482917928E+05  5.9297414589642E+04 
 3.5000000000000E-01  3.5000000000000E-01  3.5000000000000E-01  3.5000000000000E-01  3.5000000000000E-01  3.5000000000000E-01  3.5000000000000E-01  3.5000000000000E-01  3.5000000000000E-01  3.5000000000000E-01 
 8.5301666666661E+00  1.7060333333332E+01  1.7060333333332E+01  1.7060333333332E+01  1.7060333333332E+01  1.7060333333332E+01  1.7060333333332E+01  1.7060333333332E+01  1.7060333333332E+01  8.5301666666661E+00 
 1.9566425878043E-01  1.9566444513152E-01  1.9566517428479E-01  1.9566644624258E-01  1.9566826100897E-01  1.9567061858971E-01  1.9567351899235E-01  1.9567696222618E-01  1.9568094830214E-01  1.9568547723645E-01 
 4.3744444444444E-05  8.7488888888889E-05  8.7488888888889E-05  8.7488888888889E-05  8.7488888888889E-05  8.7488888888889E-05  8.7488888888889E-05  8.7488888888889E-05  8.7488888888889E-05  4.3744444444444E-05 
 1.3380188695643E+01  1.3380188695643E+01  1.3380188695643E+01  1.3380188695643E+01  1.3380188695643E+01  1.3380188695643E+01  1.3380188695643E+01  1.3380188695643E+01  1.3380188695643E+01  1.3380188695643E+01 
 3.3450471739256E+00  3.3450471739256E+00  3.3450471739256E+00  3.3450471739256E+00  3.3450471739256E+00  3.3450471739256E+00  3.3450471739256E+00  3.3450471739256E+00  3.3450471739256E+00  3.3450471739256E+00 
 5.5092356702519E-11  8.5992840578779E-11  1.8443589588425E-10  3.5616387577436E-10  6.0117868585165E-10  9.1948304494323E-10  1.3110804851589E-09  1.7759753519123E-09  2.3141728039789E-09  2.6015978720325E-09 
 1.8364118900235E-03  2.8664280191173E-03  6.1478631956798E-03  1.1872129191904E-02  2.0039289527433E-02  3.0649434830411E-02  4.3702682836793E-02  5.9199178393881E-02  7.7139093461537E-02  8.6719929062281E-02 
 9.0009506779329E-04  4.5004804813443E-03  1.5301671980030E-02  3.3303780029959E-02  5.8506995003924E-02  9.0911587181441E-02  1.3051790675451E-01  1.7732638382970E-01  2.3133752843380E-01  2.6014383636743E-01 
 4.6091406024587E-03  4.0988035765336E-03  3.1419176083942E-03  2.3126075474772E-03  1.6108735812416E-03  1.0367173128814E-03  5.9014176137133E-04  2.7115136152823E-04  7.9751964090384E-05  1.5950835812848E-05 
 0.0000000000000E+00  0.0000000000000E+00  0.0000000000000E+00  0.0000000000000E+00  0.0000000000000E+00  0.0000000000000E+00  0.0000000000000E+00  0.0000000000000E+00  0.0000000000000E+00  0.0000000000000E+00 
 0.0000000000000E+00  0.0000000000000E+00  0.0000000000000E+00  0.0000000000000E+00  0.0000000000000E+00  0.0000000000000E+00  0.0000000000000E+00  0.0000000000000E+00  0.0000000000000E+00  0.0000000000000E+00 
 0.0000000000000E+00  0.0000000000000E+00  0.0000000000000E+00  0.0000000000000E+00  0.0000000000000E+00  0.0000000000000E+00  0.0000000000000E+00  0.0000000000000E+00  0.0000000000000E+00  0.0000000000000E+00 
ZONE T = "ANOD, 4.0000E-08", I = 10, SOLUTIONTIME = 4.000000E-08
ZONETYPE = ORDERED
DATAPACKING = BLOCK
STRANDID = 1
 0.0000000000000E+00  8.7488888888889E-05  1.7497777777778E-04  2.6246666666667E-04  3.4995555555556E-04  4.3744444444444E-04  5.2493333333333E-04  6.1242222222222E-04  6.9991111111111E-04  7.8740000000000E-04 
 1.1586343099694E-09  3.4755419298442E-09  5.7935478110342E-09  8.1115687608518E-09  1.0428521586657E-08  1.2745502342247E-08  1.5063607081505E-08  1.7381752612060E-08  1.9700671780310E-08  2.0859794983403E-08 
 9.1999999999721E-01  9.1999999999721E-01  9.1999999999721E-01  9.1999999999721E-01  9.1999999999721E-01  9.1999999999721E-01  9.1999999999721E-01  9.1999999999721E-01  9.1999999999721E-01  9.1999999999885E-01 
 4.0000000001393E-02  4.0000000001393E-02  4.0000000001393E-02  4.0000000001393E-02  4.0000000001393E-02  4.0000000001393E-02  4.0000000001393E-02  4.0000000001393E-02  4.0000000001393E-02  4.0000000000576E-02 
 4.0000000001393E-02  4.0000000001393E-02  4.0000000001393E-02  4.0000000001393E-02  4.0000000001393E-02  4.0000000001393E-02  4.0000000001393E-02  4.0000000001393E-02  4.0000000001393E-02  4.0000000000576E-02 
 2.9167373665080E-02  2.9167357937894E-02  2.9167310756308E-02  2.9167232120203E-02  2.9167122029376E-02  2.9166980483534E-02  2.9166807482299E-02  2.9166603025204E-02  2.9166367111696E-02  2.9166099741135E-02 
 0.0000000000000E+00 -4.7371510658343E-09 -8.9170107920923E-09 -1.2539577102000E-08 -1.5604846372768E-08 -1.8112813435581E-08 -2.0063471575578E-08 -2.1456812531834E-08 -2.2292826497334E-08 -2.2571502118938E-08 
-2.9167373665080E-02 -2.9167362675045E-02 -2.9167319673319E-02 -2.9167244659780E-02 -2.9167137634222E-02 -2.9166998596348E-02 -2.9166827545771E-02 -2.9166624482017E-02 -2.9166389404523E-02 -2.9166122312637E-02 
-4.0906712750503E-02 -4.0906712750503E-02 -4.0906712750503E-02 -4.0906712750503E-02 -4.0906712750502E-02 -4.0906712750502E-02 -4.0906712750502E-02 -4.0906712750506E-02 -4.0906712750506E-02 -4.0906712751030E-02 
 1.1739339085423E-02  1.1739350075458E-02  1.1739393077184E-02  1.1739468090723E-02  1.1739575116280E-02  1.1739714154155E-02  1.1739885204732E-02  1.1740088268489E-02  1.1740323345983E-02  1.1740590438394E-02 
 1.6690487380719E+00  3.3381006553555E+00  3.3381130949534E+00  3.3381347949773E+00  3.3381657554962E+00  3.3382059766095E+00  3.3382554584452E+00  3.3383142011624E+00  3.3383822049471E+00  1.6692297350527E+00 