TITLE = "Solution on Domain BulkDomain1D_2"
VARIABLES = "x [m]"  
"Vel_axial" 	"MF_sp(ECDMC)" 	"MF_sp(Li+)" 	"MF_sp(PF6-)" 	"Volt(Electroly)" 	"Volt(CathodeVo)" 	
"Potential Drop Electrode-Electrolyte [V]" 	"Surf_0 Equilibrium Potential Drop Electrode-Electrolyte [V]" 	"Overpotential_0 [V]" 	"Current Source [A/m^2]" 	"Li+ flux [kmol/m^2/s]" 	"Electrolyte Current [A/m^2]" 	"Electrode Current [A/m^2]" 	
"CV Capacity discharged [A-s/m^2]" 	"Depth of discharge in CV [A-s/m^2]" 	"CV Capacity remaining [A-s/m^2]" 	"Initial CV capacity [A-s/m^2]" 	"Porosity []" 	"Surface Area [m2/m2] (area per area)" 	"Specific current (per particle area) [A/m^2]" 	"Control volume thickness [m]" 	
"MoleDens LiCoO2 [kmol/m^3]" 	"MoleDens CoO2 [kmol/m^3]" 	"qHeat_accum [J/m3]" 	"qHeat_step [W/m3]" 	"Joule_Lyte [W/m3]" 	"Joule_Solid [W/m3]" 	"electrodHeat [W/m3]" 	"OverpotHeat [W/m3]" 	"deltaSHeat [W/m3]" 	

ZONE T = "CATH, 0.0000E+00", I = 10, SOLUTIONTIME = 0.000000E+00
ZONETYPE = ORDERED
DATAPACKING = BLOCK
STRANDID = 3
 1.2700000000000E-03  1.3377333333333E-03  1.4054666666667E-03  1.4732000000000E-03  1.5409333333333E-03  1.6086666666667E-03  1.6764000000000E-03  1.7441333333333E-03  1.8118666666667E-03  1.8796000000000E-03 
 0.0000000000000E+00  0.0000000000000E+00  0.0000000000000E+00  0.0000000000000E+00  0.0000000000000E+00  0.0000000000000E+00  0.0000000000000E+00  0.0000000000000E+00  0.0000000000000E+00  0.0000000000000E+00 
 9.2000000000000E-01  9.2000000000000E-01  9.2000000000000E-01  9.2000000000000E-01  9.2000000000000E-01  9.2000000000000E-01  9.2000000000000E-01  9.2000000000000E-01  9.2000000000000E-01  9.2000000000000E-01 
 4.0000000000000E-02  4.0000000000000E-02  4.0000000000000E-02  4.0000000000000E-02  4.0000000000000E-02  4.0000000000000E-02  4.0000000000000E-02  4.0000000000000E-02  4.0000000000000E-02  4.0000000000000E-02 
 4.0000000000000E-02  4.0000000000000E-02  4.0000000000000E-02  4.0000000000000E-02  4.0000000000000E-02  4.0000000000000E-02  4.0000000000000E-02  4.0000000000000E-02  4.0000000000000E-02  4.0000000000000E-02 
-7.0000000000000E-02 -7.0000000000000E-02 -7.0000000000000E-02 -7.0000000000000E-02 -7.0000000000000E-02 -7.0000000000000E-02 -7.0000000000000E-02 -7.0000000000000E-02 -7.0000000000000E-02 -7.0000000000000E-02 
 3.8000000000000E+00  3.8000000000000E+00  3.8000000000000E+00  3.8000000000000E+00  3.8000000000000E+00  3.8000000000000E+00  3.8000000000000E+00  3.8000000000000E+00  3.8000000000000E+00  3.8000000000000E+00 
 3.8700000000000E+00  3.8700000000000E+00  3.8700000000000E+00  3.8700000000000E+00  3.8700000000000E+00  3.8700000000000E+00  3.8700000000000E+00  3.8700000000000E+00  3.8700000000000E+00  3.8700000000000E+00 
 3.9714142713289E+00  3.9714142713289E+00  3.9714142713289E+00  3.9714142713289E+00  3.9714142713289E+00  3.9714142713289E+00  3.9714142713289E+00  3.9714142713289E+00  3.9714142713289E+00  3.9714142713289E+00 
-1.0141427132889E-01 -1.0141427132889E-01 -1.0141427132889E-01 -1.0141427132889E-01 -1.0141427132889E-01 -1.0141427132889E-01 -1.0141427132889E-01 -1.0141427132889E-01 -1.0141427132889E-01 -1.0141427132889E-01 
-2.3826357195711E-01 -4.7652714391422E-01 -4.7652714391423E-01 -4.7652714391422E-01 -4.7652714391423E-01 -4.7652714391423E-01 -4.7652714391422E-01 -4.7652714391423E-01 -4.7652714391422E-01 -2.3826357195711E-01 
-0.0000000000000E+00 -0.0000000000000E+00 -0.0000000000000E+00 -0.0000000000000E+00 -0.0000000000000E+00 -0.0000000000000E+00 -0.0000000000000E+00 -0.0000000000000E+00 -0.0000000000000E+00 -0.0000000000000E+00 
 2.3826357195711E-01  0.0000000000000E+00  0.0000000000000E+00  0.0000000000000E+00  0.0000000000000E+00  0.0000000000000E+00  0.0000000000000E+00  0.0000000000000E+00  0.0000000000000E+00  0.0000000000000E+00 
 0.0000000000000E+00 -0.0000000000000E+00 -0.0000000000000E+00 -0.0000000000000E+00 -0.0000000000000E+00 -0.0000000000000E+00 -0.0000000000000E+00 -0.0000000000000E+00 -0.0000000000000E+00  2.3826357195711E-01 
-0.0000000000000E+00 -0.0000000000000E+00 -0.0000000000000E+00 -0.0000000000000E+00 -0.0000000000000E+00 -0.0000000000000E+00 -0.0000000000000E+00 -0.0000000000000E+00 -0.0000000000000E+00 -0.0000000000000E+00 
 5.2083019618450E+03  1.0416603923690E+04  1.0416603923690E+04  1.0416603923690E+04  1.0416603923690E+04  1.0416603923690E+04  1.0416603923690E+04  1.0416603923690E+04  1.0416603923690E+04  5.2083019618450E+03 
 3.5416453340546E+04  7.0832906681092E+04  7.0832906681093E+04  7.0832906681092E+04  7.0832906681093E+04  7.0832906681093E+04  7.0832906681092E+04  7.0832906681093E+04  7.0832906681092E+04  3.5416453340546E+04 
 4.0624755302391E+04  8.1249510604782E+04  8.1249510604783E+04  8.1249510604782E+04  8.1249510604783E+04  8.1249510604783E+04  8.1249510604782E+04  8.1249510604783E+04  8.1249510604782E+04  4.0624755302391E+04 
 3.5000000000000E-01  3.5000000000000E-01  3.5000000000000E-01  3.5000000000000E-01  3.5000000000000E-01  3.5000000000000E-01  3.5000000000000E-01  3.5000000000000E-01  3.5000000000000E-01  3.5000000000000E-01 
 6.6040000000000E+00  1.3208000000000E+01  1.3208000000000E+01  1.3208000000000E+01  1.3208000000000E+01  1.3208000000000E+01  1.3208000000000E+01  1.3208000000000E+01  1.3208000000000E+01  6.6040000000000E+00 
-3.6078675341780E-02 -3.6078675341780E-02 -3.6078675341780E-02 -3.6078675341780E-02 -3.6078675341780E-02 -3.6078675341780E-02 -3.6078675341780E-02 -3.6078675341780E-02 -3.6078675341780E-02 -3.6078675341780E-02 
 3.3866666666667E-05  6.7733333333333E-05  6.7733333333334E-05  6.7733333333333E-05  6.7733333333334E-05  6.7733333333334E-05  6.7733333333333E-05  6.7733333333334E-05  6.7733333333333E-05  3.3866666666667E-05 
 1.9126857953556E+01  1.9126857953556E+01  1.9126857953556E+01  1.9126857953556E+01  1.9126857953556E+01  1.9126857953556E+01  1.9126857953556E+01  1.9126857953556E+01  1.9126857953556E+01  1.9126857953556E+01 
 1.2751238635704E+01  1.2751238635704E+01  1.2751238635704E+01  1.2751238635704E+01  1.2751238635704E+01  1.2751238635704E+01  1.2751238635704E+01  1.2751238635704E+01  1.2751238635704E+01  1.2751238635704E+01 
 0.0000000000000E+00  0.0000000000000E+00  0.0000000000000E+00  0.0000000000000E+00  0.0000000000000E+00  0.0000000000000E+00  0.0000000000000E+00  0.0000000000000E+00  0.0000000000000E+00  0.0000000000000E+00 
 0.0000000000000E+00  0.0000000000000E+00  0.0000000000000E+00  0.0000000000000E+00  0.0000000000000E+00  0.0000000000000E+00  0.0000000000000E+00  0.0000000000000E+00  0.0000000000000E+00  0.0000000000000E+00 
 0.0000000000000E+00  0.0000000000000E+00  0.0000000000000E+00  0.0000000000000E+00  0.0000000000000E+00  0.0000000000000E+00  0.0000000000000E+00  0.0000000000000E+00  0.0000000000000E+00  0.0000000000000E+00 
 0.0000000000000E+00  0.0000000000000E+00  0.0000000000000E+00  0.0000000000000E+00  0.0000000000000E+00  0.0000000000000E+00  0.0000000000000E+00  0.0000000000000E+00  0.0000000000000E+00  0.0000000000000E+00 
 0.0000000000000E+00  0.0000000000000E+00  0.0000000000000E+00  0.0000000000000E+00  0.0000000000000E+00  0.0000000000000E+00  0.0000000000000E+00  0.0000000000000E+00  0.0000000000000E+00  0.0000000000000E+00 
 0.0000000000000E+00  0.0000000000000E+00  0.0000000000000E+00  0.0000000000000E+00  0.0000000000000E+00  0.0000000000000E+00  0.0000000000000E+00  0.0000000000000E+00  0.0000000000000E+00  0.0000000000000E+00 
 0.0000000000000E+00  0.0000000000000E+00  0.0000000000000E+00  0.0000000000000E+00  0.0000000000000E+00  0.0000000000000E+00  0.0000000000000E+00  0.0000000000000E+00  0.0000000000000E+00  0.0000000000000E+00 
ZONE T = "CATH, 1.0000E-08", I = 10, SOLUTIONTIME = 1.000000E-08
ZONETYPE = ORDERED
DATAPACKING = BLOCK
STRANDID = 3
 1.2700000000000E-03  1.3377333333333E-03  1.4054666666667E-03  1.4732000000000E-03  1.5409333333333E-03  1.6086666666667E-03  1.6764000000000E-03  1.7441333333333E-03  1.8118666666667E-03  1.8796000000000E-03 
 1.9701142439910E-08  1.7385976600580E-08  1.5070164242238E-08  1.2754599419661E-08  1.0437633571423E-08  8.1197971554169E-09  5.8016203353850E-09  3.4814536683367E-09  1.1598265319867E-09 -1.8160376878636E-12 
 9.2000000000037E-01  9.2000000000090E-01  9.2000000000090E-01  9.2000000000090E-01  9.2000000000090E-01  9.2000000000090E-01  9.2000000000090E-01  9.2000000000090E-01  9.2000000000090E-01  9.2000000000090E-01 
 3.9999999999813E-02  3.9999999999551E-02  3.9999999999551E-02  3.9999999999551E-02  3.9999999999550E-02  3.9999999999550E-02  3.9999999999550E-02  3.9999999999550E-02  3.9999999999550E-02  3.9999999999549E-02 
 3.9999999999813E-02  3.9999999999551E-02  3.9999999999551E-02  3.9999999999551E-02  3.9999999999550E-02  3.9999999999550E-02  3.9999999999550E-02  3.9999999999550E-02  3.9999999999550E-02  3.9999999999549E-02 
 2.9165472200807E-02  2.9165265191667E-02  2.9165082508392E-02  2.9164924153958E-02  2.9164790133395E-02  2.9164680453791E-02  2.9164595124292E-02  2.9164534156106E-02  2.9164497562504E-02  2.9164485358831E-02 
 3.8001746412144E+00  3.8001724863364E+00  3.8001660215389E+00  3.8001552462945E+00  3.8001401597120E+00  3.8001207605355E+00  3.8000970471449E+00  3.8000690175543E+00  3.8000366694121E+00  3.8000000000000E+00 
 3.7710091690136E+00  3.7710072211448E+00  3.7710009390305E+00  3.7709903221406E+00  3.7709753695786E+00  3.7709560800818E+00  3.7709324520206E+00  3.7709044833982E+00  3.7708721718496E+00  3.7708355146412E+00 
 3.9714142713287E+00  3.9714142713285E+00  3.9714142713285E+00  3.9714142713285E+00  3.9714142713285E+00  3.9714142713285E+00  3.9714142713285E+00  3.9714142713285E+00  3.9714142713285E+00  3.9714142713285E+00 
-2.0040510231503E-01 -2.0040705018373E-01 -2.0041333229798E-01 -2.0042394918792E-01 -2.0043890174993E-01 -2.0045819124674E-01 -2.0048181930790E-01 -2.0050978793031E-01 -2.0054209947887E-01 -2.0057875668732E-01 
-1.6672202311997E+00 -3.3345669678120E+00 -3.3349749958164E+00 -3.3356646840410E+00 -3.3366362651755E+00 -3.3378900671387E+00 -3.3394265133132E+00 -3.3412461228504E+00 -3.3433495110429E+00 -1.6728686948841E+00 
 1.4705067561905E-07  1.2977048860067E-07  1.1248830683654E-07  9.5202551346630E-08  7.7911761449179E-08  6.0614474782946E-08  4.3309226771969E-08  2.5994550173365E-08  8.6689745435392E-09  8.6689745435392E-09 
 3.0043664992875E+01  2.6709171633553E+01  2.3374421381561E+01  2.0039122321409E+01  1.6702992702813E+01  1.3365750494704E+01  1.0027113290537E+01  6.6867982131755E+00  3.3445218185842E+00  0.0000000000000E+00 
 0.0000000000000E+00  3.3344830096186E+00  6.6692332617010E+00  1.0004532321686E+01  1.3340661940206E+01  1.6677904148434E+01  2.0016541352568E+01  2.3356856429865E+01  2.6699132824332E+01  3.0043665514530E+01 
 1.6672202311997E-08  3.3345669678120E-08  3.3349749958164E-08  3.3356646840410E-08  3.3366362651755E-08  3.3378900671387E-08  3.3394265133132E-08  3.3412461228504E-08  3.3433495110429E-08  1.6728686948841E-08 
 5.2083019618617E+03  1.0416603923723E+04  1.0416603923723E+04  1.0416603923723E+04  1.0416603923723E+04  1.0416603923723E+04  1.0416603923723E+04  1.0416603923723E+04  1.0416603923723E+04  5.2083019618618E+03 
 3.5416453340530E+04  7.0832906681059E+04  7.0832906681059E+04  7.0832906681059E+04  7.0832906681059E+04  7.0832906681059E+04  7.0832906681059E+04  7.0832906681059E+04  7.0832906681059E+04  3.5416453340530E+04 
 4.0624755302391E+04  8.1249510604782E+04  8.1249510604783E+04  8.1249510604782E+04  8.1249510604783E+04  8.1249510604783E+04  8.1249510604782E+04  8.1249510604783E+04  8.1249510604782E+04  4.0624755302391E+04 
 3.5000000000000E-01  3.5000000000000E-01  3.5000000000000E-01  3.5000000000000E-01  3.5000000000000E-01  3.5000000000000E-01  3.5000000000000E-01  3.5000000000000E-01  3.5000000000000E-01  3.5000000000000E-01 
 6.6040000000001E+00  1.3208000000000E+01  1.3208000000000E+01  1.3208000000000E+01  1.3208000000000E+01  1.3208000000000E+01  1.3208000000000E+01  1.3208000000000E+01  1.3208000000000E+01  6.6040000000001E+00 
-2.5245612222891E-01 -2.5246570016747E-01 -2.5249659265721E-01 -2.5254881011818E-01 -2.5262237016774E-01 -2.5271729763315E-01 -2.5283362456944E-01 -2.5297139028243E-01 -2.5313064135697E-01 -2.5331143169051E-01 
 3.3866666666667E-05  6.7733333333333E-05  6.7733333333334E-05  6.7733333333333E-05  6.7733333333334E-05  6.7733333333334E-05  6.7733333333333E-05  6.7733333333334E-05  6.7733333333333E-05  3.3866666666667E-05 
 1.9126857953561E+01  1.9126857953561E+01  1.9126857953561E+01  1.9126857953561E+01  1.9126857953561E+01  1.9126857953561E+01  1.9126857953561E+01  1.9126857953561E+01  1.9126857953561E+01  1.9126857953561E+01 
 1.2751238635699E+01  1.2751238635699E+01  1.2751238635699E+01  1.2751238635699E+01  1.2751238635699E+01  1.2751238635699E+01  1.2751238635699E+01  1.2751238635699E+01  1.2751238635699E+01  1.2751238635699E+01 
 1.3976600399473E-09  3.4234911978458E-09  9.6095639264334E-09  2.0065862512574E-08  3.4795919003283E-08  5.3804710941269E-08  7.7098664931368E-08  1.0468566125858E-07  1.3657503954641E-07  1.5359658303440E-07 
 1.3976600399473E-01  3.4234911978458E-01  9.6095639264334E-01  2.0065862512574E+00  3.4795919003283E+00  5.3804710941269E+00  7.7098664931368E+00  1.0468566125858E+01  1.3657503954641E+01  1.5359658303440E+01 
 8.6725148979358E-02  7.7132771633884E-02  5.9144637702589E-02  4.3549627666727E-02  3.0347910738302E-02  1.9540465603163E-02  1.1129081816257E-02  5.1163617769539E-03  1.5057232888935E-03  3.0140270998748E-04 
 5.3040855015370E-02  2.6521634815069E-01  9.0181175494075E-01  1.9630366235907E+00  3.4492439895900E+00  5.3609306285237E+00  7.6987374113206E+00  1.0463449764081E+01  1.3655998231352E+01  1.5359356900730E+01 
 0.0000000000000E+00  0.0000000000000E+00  0.0000000000000E+00  0.0000000000000E+00  0.0000000000000E+00  0.0000000000000E+00  0.0000000000000E+00  0.0000000000000E+00  0.0000000000000E+00  0.0000000000000E+00 
 0.0000000000000E+00  0.0000000000000E+00  0.0000000000000E+00  0.0000000000000E+00  0.0000000000000E+00  0.0000000000000E+00  0.0000000000000E+00  0.0000000000000E+00  0.0000000000000E+00  0.0000000000000E+00 
 0.0000000000000E+00  0.0000000000000E+00  0.0000000000000E+00  0.0000000000000E+00  0.0000000000000E+00  0.0000000000000E+00  0.0000000000000E+00  0.0000000000000E+00  0.0000000000000E+00  0.0000000000000E+00 
ZONE T = "CATH, 2.0000E-08", I = 10, SOLUTIONTIME = 2.000000E-08
ZONETYPE = ORDERED
DATAPACKING = BLOCK
STRANDID = 3
 1.2700000000000E-03  1.3377333333333E-03  1.4054666666667E-03  1.4732000000000E-03  1.5409333333333E-03  1.6086666666667E-03  1.6764000000000E-03  1.7441333333333E-03  1.8118666666667E-03  1.8796000000000E-03 
 1.9701267580811E-08  1.7385724074331E-08  1.5069170813508E-08  1.2752865041466E-08  1.0435884593376E-08  8.1183966998756E-09  5.7994786744079E-09  3.4785706776313E-09  1.1569284815651E-09 -4.7217004611641E-12 
 9.2000000000075E-01  9.2000000000180E-01  9.2000000000180E-01  9.2000000000180E-01  9.2000000000180E-01  9.2000000000180E-01  9.2000000000180E-01  9.2000000000180E-01  9.2000000000180E-01  9.2000000000180E-01 
 3.9999999999625E-02  3.9999999999101E-02  3.9999999999101E-02  3.9999999999101E-02  3.9999999999101E-02  3.9999999999101E-02  3.9999999999100E-02  3.9999999999100E-02  3.9999999999099E-02  3.9999999999098E-02 
 3.9999999999625E-02  3.9999999999101E-02  3.9999999999101E-02  3.9999999999101E-02  3.9999999999101E-02  3.9999999999101E-02  3.9999999999100E-02  3.9999999999100E-02  3.9999999999099E-02  3.9999999999098E-02 
 2.9165475003933E-02  2.9165267993479E-02  2.9165085309041E-02  2.9164926953596E-02  2.9164792932175E-02  2.9164683251867E-02  2.9164597921818E-02  2.9164536953236E-02  2.9164500359396E-02  2.9164488155643E-02 
 3.8001746423132E+00  3.8001724874217E+00  3.8001660225838E+00  3.8001552472721E+00  3.8001401605952E+00  3.8001207612972E+00  3.8000970477577E+00  3.8000690179907E+00  3.8000366696443E+00  3.8000000000000E+00 
 3.7710091673093E+00  3.7710072194283E+00  3.7710009372748E+00  3.7709903203185E+00  3.7709753676630E+00  3.7709560780454E+00  3.7709324498359E+00  3.7709044810374E+00  3.7708721692849E+00  3.7708355118444E+00 
 3.9714142713284E+00  3.9714142713281E+00  3.9714142713281E+00  3.9714142713281E+00  3.9714142713281E+00  3.9714142713281E+00  3.9714142713281E+00  3.9714142713281E+00  3.9714142713281E+00  3.9714142713281E+00 
-2.0040510401917E-01 -2.0040705189983E-01 -2.0041333405329E-01 -2.0042395100954E-01 -2.0043890366507E-01 -2.0045819328273E-01 -2.0048182149223E-01 -2.0050979029066E-01 -2.0054210204316E-01 -2.0057875948373E-01 
-1.6672202865322E+00 -3.3345670792473E+00 -3.3349751098115E+00 -3.3356648023680E+00 -3.3366363896146E+00 -3.3378901994811E+00 -3.3394266553644E+00 -3.3412462764337E+00 -3.3433496780027E+00 -1.6728687859867E+00 
 1.4705172904942E-07  1.2977131461849E-07  1.1248902475586E-07  9.5203160818827E-08  7.7912261993244E-08  6.0614865752270E-08  4.3309507381677E-08  2.5994719498822E-08  8.6690315028100E-09  8.6690315028100E-09 
 3.0043845263067E+01  2.6709341436864E+01  2.3374570342085E+01  2.0039250385928E+01  1.6703099790239E+01  1.3365836495652E+01  1.0027178068039E+01  6.6868416022030E+00  3.3445436248606E+00  0.0000000000000E+00 
 0.0000000000000E+00  3.3345038262326E+00  6.6692749206979E+00  1.0004594876837E+01  1.3340745472771E+01  1.6678008767329E+01  2.0016667194713E+01  2.3357003660526E+01  2.6699301637808E+01  3.0043845262913E+01 
 3.3344405177319E-08  6.6691340470593E-08  6.6699501056280E-08  6.6713294864089E-08  6.6732726547901E-08  6.6757802666197E-08  6.6788531686777E-08  6.6824923992841E-08  6.6866991890456E-08  3.3457374808708E-08 
 5.2083019618784E+03  1.0416603923757E+04  1.0416603923757E+04  1.0416603923757E+04  1.0416603923757E+04  1.0416603923757E+04  1.0416603923757E+04  1.0416603923757E+04  1.0416603923757E+04  5.2083019618785E+03 
 3.5416453340513E+04  7.0832906681025E+04  7.0832906681026E+04  7.0832906681025E+04  7.0832906681026E+04  7.0832906681026E+04  7.0832906681025E+04  7.0832906681026E+04  7.0832906681025E+04  3.5416453340513E+04 
 4.0624755302391E+04  8.1249510604782E+04  8.1249510604783E+04  8.1249510604782E+04  8.1249510604783E+04  8.1249510604783E+04  8.1249510604782E+04  8.1249510604783E+04  8.1249510604782E+04  4.0624755302391E+04 
 3.5000000000000E-01  3.5000000000000E-01  3.5000000000000E-01  3.5000000000000E-01  3.5000000000000E-01  3.5000000000000E-01  3.5000000000000E-01  3.5000000000000E-01  3.5000000000000E-01  3.5000000000000E-01 
 6.6040000000001E+00  1.3208000000000E+01  1.3208000000000E+01  1.3208000000000E+01  1.3208000000000E+01  1.3208000000000E+01  1.3208000000000E+01  1.3208000000000E+01  1.3208000000000E+01  6.6040000000001E+00 
-2.5245613060753E-01 -2.5246570860443E-01 -2.5249660128797E-01 -2.5254881907692E-01 -2.5262237958923E-01 -2.5271730765301E-01 -2.5283363532438E-01 -2.5297140191048E-01 -2.5313065399778E-01 -2.5331144548556E-01 
 3.3866666666667E-05  6.7733333333333E-05  6.7733333333334E-05  6.7733333333333E-05  6.7733333333334E-05  6.7733333333334E-05  6.7733333333333E-05  6.7733333333334E-05  6.7733333333333E-05  3.3866666666667E-05 
 1.9126857953566E+01  1.9126857953566E+01  1.9126857953566E+01  1.9126857953566E+01  1.9126857953566E+01  1.9126857953566E+01  1.9126857953566E+01  1.9126857953566E+01  1.9126857953566E+01  1.9126857953566E+01 
 1.2751238635694E+01  1.2751238635694E+01  1.2751238635694E+01  1.2751238635694E+01  1.2751238635694E+01  1.2751238635694E+01  1.2751238635694E+01  1.2751238635694E+01  1.2751238635694E+01  1.2751238635694E+01 
 2.7953377164232E-09  6.8470253182155E-09  1.9219248063112E-08  4.0131976099574E-08  6.9592273889849E-08  1.0761009703746E-07  1.5419829942524E-07  2.0937264245124E-07  2.7315180635430E-07  3.0719511136845E-07 
 1.3976776764759E-01  3.4235341203698E-01  9.6096841366789E-01  2.0066113587000E+00  3.4796354886566E+00  5.3805386096190E+00  7.7099634493873E+00  1.0468698119266E+01  1.3657676680789E+01  1.5359852833405E+01 
 8.6726250542296E-02  7.7133752311923E-02  5.9145391469475E-02  4.3550184226746E-02  3.0348299811302E-02  1.9540717008465E-02  1.1129225560391E-02  5.1164281385579E-03  1.5057429035527E-03  3.0140666035635E-04 
 5.3041517105292E-02  2.6521965972505E-01  9.0182302219841E-01  1.9630611744732E+00  3.4492871888453E+00  5.3609978926106E+00  7.6988342238269E+00  1.0463581691127E+01  1.3656170937886E+01  1.5359551426745E+01 
 0.0000000000000E+00  0.0000000000000E+00  0.0000000000000E+00  0.0000000000000E+00  0.0000000000000E+00  0.0000000000000E+00  0.0000000000000E+00  0.0000000000000E+00  0.0000000000000E+00  0.0000000000000E+00 
 0.0000000000000E+00  0.0000000000000E+00  0.0000000000000E+00  0.0000000000000E+00  0.0000000000000E+00  0.0000000000000E+00  0.0000000000000E+00  0.0000000000000E+00  0.0000000000000E+00  0.0000000000000E+00 
 0.0000000000000E+00  0.0000000000000E+00  0.0000000000000E+00  0.0000000000000E+00  0.0000000000000E+00  0.0000000000000E+00  0.0000000000000E+00  0.0000000000000E+00  0.0000000000000E+00  0.0000000000000E+00 
ZONE T = "CATH, 3.0000E-08", I = 10, SOLUTIONTIME = 3.000000E-08
ZONETYPE = ORDERED
DATAPACKING = BLOCK
STRANDID = 3
 1.2700000000000E-03  1.3377333333333E-03  1.4054666666667E-03  1.4732000000000E-03  1.5409333333333E-03  1.6086666666667E-03  1.6764000000000E-03  1.7441333333333E-03  1.8118666666667E-03  1.8796000000000E-03 
 1.9708168527228E-08  1.7392625020796E-08  1.5077524590932E-08  1.2761218818939E-08  1.0444238370897E-08  8.1263872697170E-09  5.8074692442977E-09  3.4872876630251E-09  1.1656454670074E-09  3.9952850055544E-12 
 9.2000000000112E-01  9.2000000000270E-01  9.2000000000270E-01  9.2000000000270E-01  9.2000000000270E-01  9.2000000000270E-01  9.2000000000270E-01  9.2000000000270E-01  9.2000000000270E-01  9.2000000000270E-01 
 3.9999999999438E-02  3.9999999998652E-02  3.9999999998652E-02  3.9999999998652E-02  3.9999999998651E-02  3.9999999998651E-02  3.9999999998650E-02  3.9999999998649E-02  3.9999999998649E-02  3.9999999998648E-02 
 3.9999999999438E-02  3.9999999998652E-02  3.9999999998652E-02  3.9999999998652E-02  3.9999999998651E-02  3.9999999998651E-02  3.9999999998650E-02  3.9999999998649E-02  3.9999999998649E-02  3.9999999998648E-02 
 2.9165475003569E-02  2.9165267993115E-02  2.9165085308677E-02  2.9164926953232E-02  2.9164792931811E-02  2.9164683251503E-02  2.9164597921454E-02  2.9164536952872E-02  2.9164500359033E-02  2.9164488155279E-02 
 3.8001746423132E+00  3.8001724874217E+00  3.8001660225838E+00  3.8001552472721E+00  3.8001401605952E+00  3.8001207612972E+00  3.8000970477577E+00  3.8000690179907E+00  3.8000366696443E+00  3.8000000000000E+00 
 3.7710091673096E+00  3.7710072194286E+00  3.7710009372752E+00  3.7709903203189E+00  3.7709753676634E+00  3.7709560780457E+00  3.7709324498362E+00  3.7709044810378E+00  3.7708721692853E+00  3.7708355118447E+00 
 3.9714142713282E+00  3.9714142713277E+00  3.9714142713277E+00  3.9714142713277E+00  3.9714142713277E+00  3.9714142713277E+00  3.9714142713277E+00  3.9714142713277E+00  3.9714142713277E+00  3.9714142713277E+00 
-2.0040510401858E-01 -2.0040705189908E-01 -2.0041333405253E-01 -2.0042395100878E-01 -2.0043890366431E-01 -2.0045819328197E-01 -2.0048182149147E-01 -2.0050979028990E-01 -2.0054210204240E-01 -2.0057875948297E-01 
-1.6672202865084E+00 -3.3345670791779E+00 -3.3349751097421E+00 -3.3356648022986E+00 -3.3366363895451E+00 -3.3378901994114E+00 -3.3394266552947E+00 -3.3412462763640E+00 -3.3433496779328E+00 -1.6728687859517E+00 
 1.4705184858052E-07  1.2977131464572E-07  1.1248902479404E-07  9.5203160876714E-08  7.7912262068801E-08  6.0614865847076E-08  4.3309507491241E-08  2.5994719628084E-08  8.6690316517691E-09  8.6690316517691E-09 
 3.0043845262342E+01  2.6709341436135E+01  2.3374570341823E+01  2.0039250385702E+01  1.6703099789576E+01  1.3365836495264E+01  1.0027178067926E+01  6.6868416021277E+00  3.3445436248229E+00  0.0000000000000E+00 
 0.0000000000000E+00  3.3345038262326E+00  6.6692749205261E+00  1.0004594876494E+01  1.3340745472427E+01  1.6678008766985E+01  2.0016667194370E+01  2.3357003660183E+01  2.6699301637292E+01  3.0043845262191E+01 
 5.0016608042403E-08  1.0003701126237E-07  1.0004925215370E-07  1.0006994288708E-07  1.0009909044335E-07  1.0013670466031E-07  1.0018279823972E-07  1.0023738675648E-07  1.0030048866978E-07  5.0186062668226E-08 
 5.2083019618950E+03  1.0416603923790E+04  1.0416603923790E+04  1.0416603923790E+04  1.0416603923790E+04  1.0416603923790E+04  1.0416603923790E+04  1.0416603923790E+04  1.0416603923790E+04  5.2083019618952E+03 
 3.5416453340496E+04  7.0832906680992E+04  7.0832906680993E+04  7.0832906680992E+04  7.0832906680992E+04  7.0832906680992E+04  7.0832906680992E+04  7.0832906680992E+04  7.0832906680992E+04  3.5416453340496E+04 
 4.0624755302391E+04  8.1249510604782E+04  8.1249510604783E+04  8.1249510604782E+04  8.1249510604783E+04  8.1249510604783E+04  8.1249510604782E+04  8.1249510604783E+04  8.1249510604782E+04  4.0624755302391E+04 
 3.5000000000000E-01  3.5000000000000E-01  3.5000000000000E-01  3.5000000000000E-01  3.5000000000000E-01  3.5000000000000E-01  3.5000000000000E-01  3.5000000000000E-01  3.5000000000000E-01  3.5000000000000E-01 
 6.6040000000002E+00  1.3208000000000E+01  1.3208000000000E+01  1.3208000000000E+01  1.3208000000000E+01  1.3208000000000E+01  1.3208000000000E+01  1.3208000000000E+01  1.3208000000000E+01  6.6040000000002E+00 
-2.5245613060393E-01 -2.5246570859917E-01 -2.5249660128271E-01 -2.5254881907166E-01 -2.5262237958397E-01 -2.5271730764774E-01 -2.5283363531910E-01 -2.5297140190520E-01 -2.5313065399249E-01 -2.5331144548026E-01 
 3.3866666666667E-05  6.7733333333333E-05  6.7733333333334E-05  6.7733333333333E-05  6.7733333333334E-05  6.7733333333334E-05  6.7733333333333E-05  6.7733333333334E-05  6.7733333333333E-05  3.3866666666667E-05 
 1.9126857953571E+01  1.9126857953571E+01  1.9126857953571E+01  1.9126857953571E+01  1.9126857953571E+01  1.9126857953571E+01  1.9126857953571E+01  1.9126857953571E+01  1.9126857953571E+01  1.9126857953571E+01 
 1.2751238635688E+01  1.2751238635688E+01  1.2751238635688E+01  1.2751238635688E+01  1.2751238635688E+01  1.2751238635688E+01  1.2751238635688E+01  1.2751238635688E+01  1.2751238635688E+01  1.2751238635688E+01 
 4.1930153928631E-09  1.0270559438551E-08  2.8828932199236E-08  6.0198089685259E-08  1.0438862877465E-07  1.6141548313145E-07  2.3129793391649E-07  3.1405962364083E-07  4.0972857315683E-07  4.6079363969507E-07 
 1.3976776764399E-01  3.4235341203352E-01  9.6096841361239E-01  2.0066113585685E+00  3.4796354884796E+00  5.3805386093993E+00  7.7099634491247E+00  1.0468698118960E+01  1.3657676680253E+01  1.5359852832661E+01 
 8.6726250538699E-02  7.7133752308463E-02  5.9145391468640E-02  4.3550184226427E-02  3.0348299809249E-02  1.9540717007475E-02  1.1129225560266E-02  5.1164281385003E-03  1.5057429035357E-03  3.0140666035295E-04 
 5.3041517105292E-02  2.6521965972505E-01  9.0182302214375E-01  1.9630611743420E+00  3.4492871886704E+00  5.3609978923919E+00  7.6988342235644E+00  1.0463581690821E+01  1.3656170937350E+01  1.5359551426001E+01 
 0.0000000000000E+00  0.0000000000000E+00  0.0000000000000E+00  0.0000000000000E+00  0.0000000000000E+00  0.0000000000000E+00  0.0000000000000E+00  0.0000000000000E+00  0.0000000000000E+00  0.0000000000000E+00 
 0.0000000000000E+00  0.0000000000000E+00  0.0000000000000E+00  0.0000000000000E+00  0.0000000000000E+00  0.0000000000000E+00  0.0000000000000E+00  0.0000000000000E+00  0.0000000000000E+00  0.0000000000000E+00 
 0.0000000000000E+00  0.0000000000000E+00  0.0000000000000E+00  0.0000000000000E+00  0.0000000000000E+00  0.0000000000000E+00  0.0000000000000E+00  0.0000000000000E+00  0.0000000000000E+00  0.0000000000000E+00 
ZONE T = "CATH, 4.0000E-08", I = 10, SOLUTIONTIME = 4.000000E-08
ZONETYPE = ORDERED
DATAPACKING = BLOCK
STRANDID = 3
 1.2700000000000E-03  1.3377333333333E-03  1.4054666666667E-03  1.4732000000000E-03  1.5409333333333E-03  1.6086666666667E-03  1.6764000000000E-03  1.7441333333333E-03  1.8118666666667E-03  1.8796000000000E-03 
 1.9703628430220E-08  1.7388084923835E-08  1.5071531663109E-08  1.2755225891164E-08  1.0438245443171E-08  8.1203943420388E-09  5.8018395243956E-09  3.4820211508993E-09  1.1611053703858E-09 -1.8160386387673E-13 
 9.2000000000150E-01  9.2000000000359E-01  9.2000000000359E-01  9.2000000000360E-01  9.2000000000360E-01  9.2000000000360E-01  9.2000000000360E-01  9.2000000000360E-01  9.2000000000360E-01  9.2000000000361E-01 
 3.9999999999251E-02  3.9999999998203E-02  3.9999999998203E-02  3.9999999998202E-02  3.9999999998202E-02  3.9999999998201E-02  3.9999999998200E-02  3.9999999998199E-02  3.9999999998198E-02  3.9999999998197E-02 
 3.9999999999251E-02  3.9999999998203E-02  3.9999999998203E-02  3.9999999998202E-02  3.9999999998202E-02  3.9999999998201E-02  3.9999999998200E-02  3.9999999998199E-02  3.9999999998198E-02  3.9999999998197E-02 
 2.9165475003204E-02  2.9165267992749E-02  2.9165085308311E-02  2.9164926952866E-02  2.9164792931446E-02  2.9164683251137E-02  2.9164597921088E-02  2.9164536952507E-02  2.9164500358667E-02  2.9164488154914E-02 
 3.8001746423132E+00  3.8001724874217E+00  3.8001660225838E+00  3.8001552472721E+00  3.8001401605952E+00  3.8001207612972E+00  3.8000970477577E+00  3.8000690179907E+00  3.8000366696443E+00  3.8000000000000E+00 
 3.7710091673100E+00  3.7710072194290E+00  3.7710009372755E+00  3.7709903203193E+00  3.7709753676637E+00  3.7709560780461E+00  3.7709324498366E+00  3.7709044810382E+00  3.7708721692857E+00  3.7708355118451E+00 
 3.9714142713280E+00  3.9714142713273E+00  3.9714142713273E+00  3.9714142713273E+00  3.9714142713273E+00  3.9714142713273E+00  3.9714142713273E+00  3.9714142713273E+00  3.9714142713273E+00  3.9714142713273E+00 
-2.0040510401798E-01 -2.0040705189832E-01 -2.0041333405177E-01 -2.0042395100802E-01 -2.0043890366355E-01 -2.0045819328121E-01 -2.0048182149071E-01 -2.0050979028914E-01 -2.0054210204163E-01 -2.0057875948221E-01 
-1.6672202864846E+00 -3.3345670791084E+00 -3.3349751096726E+00 -3.3356648022290E+00 -3.3366363894755E+00 -3.3378901993418E+00 -3.3394266552250E+00 -3.3412462762941E+00 -3.3433496778629E+00 -1.6728687859167E+00 