TITLE = "Solution on Domain BulkDomain1D_2"
VARIABLES = "x [m]"  
"Vel_axial(0)" 	"MF_sp(ECDMC)" 	"MF_sp(Li+)" 	"MF_sp(PF6-)" 	"Volt(Electroly)" 	"Volt(CathodeVo)" 	
"Potential Drop Electrode-Electrolyte [V]" 	"Surf_0 Equilibrium Potential Drop Electrode-Electrolyte [V]" 	"Overpotential_0 [V]" 	"Current Source [A/m^2]" 	"Li+ flux [kmol/m^2/s]" 	"Electrolyte Current [A/m^2]" 	"Electrode Current [A/m^2]" 	
"Capacity discharged [A-s]" 	"Depth of discharge [-]" 	"Capacity remaining [A-s]" 	"Initial capacity [A-s]" 	"Porosity []" 	"Surface Area [m2/m2] (area per area)" 	"Specific current (per particle area) [A/m^2]" 	"Control volume thickness [m]" 	
"Moles LiCoO2 [mol/m^2] (per electrode area)" 	"Moles CoO2 [mol/m^2] (per electrode area)" 	

ZONE T = "t = 0 [s]" I = 10 SOLUTIONTIME = 0.0000000000000E+00
0.00127 	0 	0.92 	0.04 	0.04 	-0.07 	3.8 	
0 	0 	0 	0 	0 	0.119132 	0 	
0 	0 	0 	0 	0.35 	6.604 	-0.0360787 	3.38667e-05 	
5.39864e-07 	3.5991e-07 	
0.00133773 	0 	0.92 	0.04 	0.04 	-0.07 	3.8 	
0 	0 	0 	0 	0 	0 	-0 	
0 	0 	0 	0 	0.35 	13.208 	-0.0360787 	6.77333e-05 	
1.07973e-06 	7.19819e-07 	
0.00140547 	0 	0.92 	0.04 	0.04 	-0.07 	3.8 	
0 	0 	0 	0 	0 	0 	-0 	
0 	0 	0 	0 	0.35 	13.208 	-0.0360787 	6.77333e-05 	
1.07973e-06 	7.19819e-07 	
0.0014732 	0 	0.92 	0.04 	0.04 	-0.07 	3.8 	
0 	0 	0 	0 	0 	0 	-0 	
0 	0 	0 	0 	0.35 	13.208 	-0.0360787 	6.77333e-05 	
1.07973e-06 	7.19819e-07 	
0.00154093 	0 	0.92 	0.04 	0.04 	-0.07 	3.8 	
0 	0 	0 	0 	0 	0 	-0 	
0 	0 	0 	0 	0.35 	13.208 	-0.0360787 	6.77333e-05 	
1.07973e-06 	7.19819e-07 	
0.00160867 	0 	0.92 	0.04 	0.04 	-0.07 	3.8 	
0 	0 	0 	0 	0 	0 	-0 	
0 	0 	0 	0 	0.35 	13.208 	-0.0360787 	6.77333e-05 	
1.07973e-06 	7.19819e-07 	
0.0016764 	0 	0.92 	0.04 	0.04 	-0.07 	3.8 	
0 	0 	0 	0 	0 	0 	-0 	
0 	0 	0 	0 	0.35 	13.208 	-0.0360787 	6.77333e-05 	
1.07973e-06 	7.19819e-07 	
0.00174413 	0 	0.92 	0.04 	0.04 	-0.07 	3.8 	
0 	0 	0 	0 	0 	0 	-0 	
0 	0 	0 	0 	0.35 	13.208 	-0.0360787 	6.77333e-05 	
1.07973e-06 	7.19819e-07 	
0.00181187 	0 	0.92 	0.04 	0.04 	-0.07 	3.8 	
0 	0 	0 	0 	0 	0 	-0 	
0 	0 	0 	0 	0.35 	13.208 	-0.0360787 	6.77333e-05 	
1.07973e-06 	7.19819e-07 	
0.0018796 	0 	0.92 	0.04 	0.04 	-0.07 	3.8 	
0 	0 	0 	0 	0 	0 	0.119132 	
0 	0 	0 	0 	0.35 	6.604 	-0.0360787 	3.38667e-05 	
5.39864e-07 	3.5991e-07 	
ZONE T = "t = 1e-08 [s]" I = 10 SOLUTIONTIME = 1.0000000000000E-08
0.00127 	3.37179e-08 	0.92 	0.04 	0.04 	0.0211323 	3.80016 	
3.87 	3.97141 	-0.101414 	-0.238264 	-0 	49.983 	1.42662 	
-0 	4.34075 	0.0740584 	0.0849493 	0.35 	6.604 	-0.432047 	3.38667e-05 	
5.39864e-07 	3.5991e-07 	
0.00133773 	2.97551e-08 	0.92 	0.04 	0.04 	0.021132 	3.80015 	
3.87 	3.97141 	-0.101414 	-0.476527 	-0 	45.7031 	5.70656 	
-0 	8.6815 	0.148117 	0.169899 	0.35 	13.208 	-0.43206 	6.77333e-05 	
1.07973e-06 	7.19819e-07 	
0.00140547 	2.5792e-08 	0.92 	0.04 	0.04 	0.0211317 	3.80015 	
3.87 	3.97141 	-0.101414 	-0.476527 	-0 	39.9962 	11.4135 	
-0 	8.6815 	0.148117 	0.169899 	0.35 	13.208 	-0.432106 	6.77333e-05 	
1.07973e-06 	7.19819e-07 	
0.0014732 	2.18281e-08 	0.92 	0.04 	0.04 	0.0211314 	3.80014 	
3.87 	3.97141 	-0.101414 	-0.476527 	-0 	34.2884 	17.1213 	
-0 	8.6815 	0.148117 	0.169899 	0.35 	13.208 	-0.432185 	6.77333e-05 	
1.07973e-06 	7.19819e-07 	
0.00154093 	1.78632e-08 	0.92 	0.04 	0.04 	0.0211312 	3.80013 	
3.87 	3.97141 	-0.101414 	-0.476527 	-0 	28.5793 	22.8303 	
-0 	8.6815 	0.148117 	0.169899 	0.35 	13.208 	-0.432297 	6.77333e-05 	
1.07973e-06 	7.19819e-07 	
0.00160867 	1.3897e-08 	0.92 	0.04 	0.04 	0.021131 	3.80011 	
3.87 	3.97141 	-0.101414 	-0.476527 	-0 	22.8686 	28.541 	
-0 	8.6815 	0.148117 	0.169899 	0.35 	13.208 	-0.432442 	6.77333e-05 	
1.07973e-06 	7.19819e-07 	
0.0016764 	9.92912e-09 	0.92 	0.04 	0.04 	0.0211308 	3.80009 	
3.87 	3.97141 	-0.101414 	-0.476527 	-0 	17.1557 	34.2539 	
-0 	8.6815 	0.148117 	0.169899 	0.35 	13.208 	-0.43262 	6.77333e-05 	
1.07973e-06 	7.19819e-07 	
0.00174413 	5.95932e-09 	0.92 	0.04 	0.04 	0.0211307 	3.80006 	
3.87 	3.97141 	-0.101414 	-0.476527 	-0 	11.4403 	39.9693 	
-0 	8.6815 	0.148117 	0.169899 	0.35 	13.208 	-0.432831 	6.77333e-05 	
1.07973e-06 	7.19819e-07 	
0.00181187 	1.98729e-09 	0.92 	0.04 	0.04 	0.0211307 	3.80003 	
3.87 	3.97141 	-0.101414 	-0.476527 	-0 	5.72188 	45.6878 	
-0 	8.6815 	0.148117 	0.169899 	0.35 	13.208 	-0.433075 	6.77333e-05 	
1.07973e-06 	7.19819e-07 	
0.0018796 	0 	0.92 	0.04 	0.04 	0.0211306 	3.8 	
3.87 	3.97141 	-0.101414 	-0.238264 	-0 	1.43093 	49.9787 	
-0 	4.34075 	0.0740584 	0.0849493 	0.35 	6.604 	-0.433352 	3.38667e-05 	
5.39864e-07 	3.5991e-07 	
ZONE T = "t = 2e-08 [s]" I = 10 SOLUTIONTIME = 2.0000000000000E-08
0.00127 	1.97216e-08 	0.92 	0.04 	0.04 	0.0291555 	3.80009 	
3.77902 	3.97141 	-0.19239 	-2.85324 	2.51626e-07 	29.2355 	0.834797 	
7.15877e-11 	4.34075 	0.0740584 	0.0849493 	0.35 	6.604 	-0.252816 	3.38667e-05 	
5.39864e-07 	3.5991e-07 	
0.00133773 	1.74028e-08 	0.92 	0.04 	0.04 	0.0291553 	3.80009 	
3.77902 	3.97141 	-0.192392 	-5.70665 	2.22053e-07 	26.7311 	3.33922 	
1.4318e-10 	8.6815 	0.148117 	0.169899 	0.35 	13.208 	-0.25282 	6.77333e-05 	
1.07973e-06 	7.19819e-07 	
0.00140547 	1.50839e-08 	0.92 	0.04 	0.04 	0.0291551 	3.80009 	
3.77902 	3.97141 	-0.192397 	-5.70726 	1.92478e-07 	23.3917 	6.67857 	
1.43195e-10 	8.6815 	0.148117 	0.169899 	0.35 	13.208 	-0.252836 	6.77333e-05 	
1.07973e-06 	7.19819e-07 	
0.0014732 	1.27647e-08 	0.92 	0.04 	0.04 	0.029155 	3.80008 	
3.77901 	3.97141 	-0.192406 	-5.7083 	1.62896e-07 	20.0521 	10.0182 	
1.43221e-10 	8.6815 	0.148117 	0.169899 	0.35 	13.208 	-0.252863 	6.77333e-05 	
1.07973e-06 	7.19819e-07 	
0.00154093 	1.04452e-08 	0.92 	0.04 	0.04 	0.0291549 	3.80007 	
3.77899 	3.97141 	-0.19242 	-5.70978 	1.33308e-07 	16.712 	13.3583 	
1.43258e-10 	8.6815 	0.148117 	0.169899 	0.35 	13.208 	-0.252901 	6.77333e-05 	
1.07973e-06 	7.19819e-07 	
0.00160867 	8.12517e-09 	0.92 	0.04 	0.04 	0.0291547 	3.80006 	
3.77898 	3.97141 	-0.192437 	-5.71169 	1.03709e-07 	13.3714 	16.6989 	
1.43306e-10 	8.6815 	0.148117 	0.169899 	0.35 	13.208 	-0.252951 	6.77333e-05 	
1.07973e-06 	7.19819e-07 	
0.0016764 	5.80462e-09 	0.92 	0.04 	0.04 	0.0291547 	3.80005 	
3.77896 	3.97141 	-0.192458 	-5.71404 	7.40979e-08 	10.03 	20.0403 	
1.43365e-10 	8.6815 	0.148117 	0.169899 	0.35 	13.208 	-0.253012 	6.77333e-05 	
1.07973e-06 	7.19819e-07 	
0.00174413 	3.4834e-09 	0.92 	0.04 	0.04 	0.0291546 	3.80004 	
3.77893 	3.97141 	-0.192483 	-5.71683 	4.44726e-08 	6.68774 	23.3826 	
1.43435e-10 	8.6815 	0.148117 	0.169899 	0.35 	13.208 	-0.253084 	6.77333e-05 	
1.07973e-06 	7.19819e-07 	
0.00181187 	1.16142e-09 	0.92 	0.04 	0.04 	0.0291546 	3.80002 	
3.7789 	3.97141 	-0.192512 	-5.72005 	1.48305e-08 	3.34446 	26.7258 	
1.43516e-10 	8.6815 	0.148117 	0.169899 	0.35 	13.208 	-0.253168 	6.77333e-05 	
1.07973e-06 	7.19819e-07 	
0.0018796 	0 	0.92 	0.04 	0.04 	0.0291545 	3.8 	
3.77887 	3.97141 	-0.192545 	-2.86186 	1.48305e-08 	0.836272 	29.234 	
7.1804e-11 	4.34075 	0.0740584 	0.0849493 	0.35 	6.604 	-0.253262 	3.38667e-05 	
5.39864e-07 	3.5991e-07 	
ZONE T = "t = 3e-08 [s]" I = 10 SOLUTIONTIME = 3.0000000000000E-08
0.00127 	1.97216e-08 	0.92 	0.04 	0.04 	0.0291555 	3.80009 	
3.77094 	3.97141 	-0.200478 	-1.66959 	1.47177e-07 	29.2355 	0.834797 	
1.13478e-10 	4.34075 	0.0740584 	0.0849493 	0.35 	6.604 	-0.252816 	3.38667e-05 	
5.39864e-07 	3.5991e-07 	
0.00133773 	1.74028e-08 	0.92 	0.04 	0.04 	0.0291553 	3.80009 	
3.77094 	3.97141 	-0.200479 	-3.33925 	1.29872e-07 	26.7311 	3.33922 	
2.26962e-10 	8.6815 	0.148117 	0.169899 	0.35 	13.208 	-0.25282 	6.77333e-05 	
1.07973e-06 	7.19819e-07 	
0.00140547 	1.50839e-08 	0.92 	0.04 	0.04 	0.0291551 	3.80009 	
3.77093 	3.97141 	-0.200482 	-3.33946 	1.12566e-07 	23.3917 	6.67857 	
2.26982e-10 	8.6815 	0.148117 	0.169899 	0.35 	13.208 	-0.252836 	6.77333e-05 	
1.07973e-06 	7.19819e-07 	
0.0014732 	1.27647e-08 	0.92 	0.04 	0.04 	0.029155 	3.80008 	
3.77093 	3.97141 	-0.200488 	-3.33982 	9.5259e-08 	20.0521 	10.0182 	
2.27017e-10 	8.6815 	0.148117 	0.169899 	0.35 	13.208 	-0.252863 	6.77333e-05 	
1.07973e-06 	7.19819e-07 	
0.00154093 	1.04452e-08 	0.92 	0.04 	0.04 	0.0291549 	3.80007 	
3.77092 	3.97141 	-0.200496 	-3.34032 	7.7949e-08 	16.712 	13.3583 	
2.27067e-10 	8.6815 	0.148117 	0.169899 	0.35 	13.208 	-0.252901 	6.77333e-05 	
1.07973e-06 	7.19819e-07 	
0.00160867 	8.12517e-09 	0.92 	0.04 	0.04 	0.0291547 	3.80006 	
3.77091 	3.97141 	-0.200506 	-3.34098 	6.06356e-08 	13.3714 	16.6989 	
2.27131e-10 	8.6815 	0.148117 	0.169899 	0.35 	13.208 	-0.252951 	6.77333e-05 	
1.07973e-06 	7.19819e-07 	
0.0016764 	5.80462e-09 	0.92 	0.04 	0.04 	0.0291547 	3.80005 	
3.7709 	3.97141 	-0.200518 	-3.34178 	4.3318e-08 	10.03 	20.0403 	
2.27211e-10 	8.6815 	0.148117 	0.169899 	0.35 	13.208 	-0.253012 	6.77333e-05 	
1.07973e-06 	7.19819e-07 	
0.00174413 	3.4834e-09 	0.92 	0.04 	0.04 	0.0291546 	3.80004 	
3.77088 	3.97141 	-0.200533 	-3.34273 	2.59955e-08 	6.68774 	23.3825 	
2.27304e-10 	8.6815 	0.148117 	0.169899 	0.35 	13.208 	-0.253084 	6.77333e-05 	
1.07973e-06 	7.19819e-07 	
0.00181187 	1.16142e-09 	0.92 	0.04 	0.04 	0.0291546 	3.80002 	
3.77086 	3.97141 	-0.20055 	-3.34384 	8.66735e-09 	3.34446 	26.7258 	
2.27413e-10 	8.6815 	0.148117 	0.169899 	0.35 	13.208 	-0.253168 	6.77333e-05 	
1.07973e-06 	7.19819e-07 	
0.0018796 	0 	0.92 	0.04 	0.04 	0.0291545 	3.8 	
3.77085 	3.97141 	-0.200569 	-1.67254 	8.66735e-09 	0.836272 	29.234 	
1.13768e-10 	4.34075 	0.0740584 	0.0849493 	0.35 	6.604 	-0.253262 	3.38667e-05 	
5.39864e-07 	3.5991e-07 	
ZONE T = "t = 4e-08 [s]" I = 10 SOLUTIONTIME = 4.0000000000000E-08
0.00127 	1.97216e-08 	0.92 	0.04 	0.04 	0.0291555 	3.80009 	
3.77094 	3.97141 	-0.200478 	-1.66959 	1.47177e-07 	29.2355 	0.834797 	
1.55368e-10 	4.34075 	0.0740584 	0.0849493 	0.35 	6.604 	-0.252816 	3.38667e-05 	
5.39864e-07 	3.5991e-07 	
0.00133773 	1.74028e-08 	0.92 	0.04 	0.04 	0.0291553 	3.80009 	
3.77094 	3.97141 	-0.200479 	-3.33925 	1.29872e-07 	26.7311 	3.33922 	
3.10743e-10 	8.6815 	0.148117 	0.169899 	0.35 	13.208 	-0.25282 	6.77333e-05 	
1.07973e-06 	7.19819e-07 	
0.00140547 	1.50839e-08 	0.92 	0.04 	0.04 	0.0291551 	3.80009 	
3.77093 	3.97141 	-0.200482 	-3.33946 	1.12566e-07 	23.3917 	6.67857 	
3.10769e-10 	8.6815 	0.148117 	0.169899 	0.35 	13.208 	-0.252836 	6.77333e-05 	
1.07973e-06 	7.19819e-07 	
0.0014732 	1.27647e-08 	0.92 	0.04 	0.04 	0.029155 	3.80008 	
3.77093 	3.97141 	-0.200488 	-3.33982 	9.52589e-08 	20.0521 	10.0182 	
3.10813e-10 	8.6815 	0.148117 	0.169899 	0.35 	13.208 	-0.252863 	6.77333e-05 	
1.07973e-06 	7.19819e-07 	
0.00154093 	1.04452e-08 	0.92 	0.04 	0.04 	0.0291549 	3.80007 	
3.77092 	3.97141 	-0.200496 	-3.34032 	7.7949e-08 	16.712 	13.3583 	
3.10876e-10 	8.6815 	0.148117 	0.169899 	0.35 	13.208 	-0.252901 	6.77333e-05 	
1.07973e-06 	7.19819e-07 	
0.00160867 	8.12517e-09 	0.92 	0.04 	0.04 	0.0291547 	3.80006 	
3.77091 	3.97141 	-0.200506 	-3.34098 	6.06356e-08 	13.3714 	16.6989 	
3.10957e-10 	8.6815 	0.148117 	0.169899 	0.35 	13.208 	-0.252951 	6.77333e-05 	
1.07973e-06 	7.19819e-07 	
0.0016764 	5.80462e-09 	0.92 	0.04 	0.04 	0.0291547 	3.80005 	
3.7709 	3.97141 	-0.200518 	-3.34178 	4.3318e-08 	10.03 	20.0403 	
3.11056e-10 	8.6815 	0.148117 	0.169899 	0.35 	13.208 	-0.253012 	6.77333e-05 	
1.07973e-06 	7.19819e-07 	
0.00174413 	3.48341e-09 	0.92 	0.04 	0.04 	0.0291546 	3.80004 	
3.77088 	3.97141 	-0.200533 	-3.34273 	2.59955e-08 	6.68775 	23.3826 	
3.11174e-10 	8.6815 	0.148117 	0.169899 	0.35 	13.208 	-0.253084 	6.77333e-05 	
1.07973e-06 	7.19819e-07 	
0.00181187 	1.16143e-09 	0.92 	0.04 	0.04 	0.0291546 	3.80002 	
3.77086 	3.97141 	-0.20055 	-3.34384 	8.66735e-09 	3.34446 	26.7259 	
3.1131e-10 	8.6815 	0.148117 	0.169899 	0.35 	13.208 	-0.253168 	6.77333e-05 	
1.07973e-06 	7.19819e-07 	
0.0018796 	0 	0.92 	0.04 	0.04 	0.0291545 	3.8 	
3.77085 	3.97141 	-0.200569 	-1.67254 	8.66735e-09 	0.836272 	29.234 	
1.55732e-10 	4.34075 	0.0740584 	0.0849493 	0.35 	6.604 	-0.253262 	3.38667e-05 	
5.39864e-07 	3.5991e-07 	
ZONE T = "t = 5.5e-08 [s]" I = 10 SOLUTIONTIME = 5.5000000000000E-08
0.00127 	1.97216e-08 	0.92 	0.04 	0.04 	0.0291555 	3.80009 	
3.77094 	3.97141 	-0.200478 	-1.66959 	1.47177e-07 	29.2355 	0.834797 	
1.97258e-10 	4.34075 	0.0740584 	0.0849493 	0.35 	6.604 	-0.252816 	3.38667e-05 	
5.39864e-07 	3.5991e-07 	
0.00133773 	1.74028e-08 	0.92 	0.04 	0.04 	0.0291553 	3.80009 	
3.77094 	3.97141 	-0.200479 	-3.33925 	1.29872e-07 	26.7311 	3.33922 	
3.94525e-10 	8.6815 	0.148117 	0.169899 	0.35 	13.208 	-0.25282 	6.77333e-05 	
1.07973e-06 	7.19819e-07 	
0.00140547 	1.50839e-08 	0.92 	0.04 	0.04 	0.0291551 	3.80009 	
3.77093 	3.97141 	-0.200482 	-3.33946 	1.12566e-07 	23.3917 	6.67857 	
3.94556e-10 	8.6815 	0.148117 	0.169899 	0.35 	13.208 	-0.252836 	6.77333e-05 	
1.07973e-06 	7.19819e-07 	
0.0014732 	1.27647e-08 	0.92 	0.04 	0.04 	0.029155 	3.80008 	
3.77093 	3.97141 	-0.200488 	-3.33982 	9.5259e-08 	20.0521 	10.0182 	
3.94609e-10 	8.6815 	0.148117 	0.169899 	0.35 	13.208 	-0.252863 	6.77333e-05 	
1.07973e-06 	7.19819e-07 	
0.00154093 	1.04452e-08 	0.92 	0.04 	0.04 	0.0291549 	3.80007 	
3.77092 	3.97141 	-0.200496 	-3.34032 	7.7949e-08 	16.712 	13.3583 	
3.94684e-10 	8.6815 	0.148117 	0.169899 	0.35 	13.208 	-0.252901 	6.77333e-05 	
1.07973e-06 	7.19819e-07 	
0.00160867 	8.12517e-09 	0.92 	0.04 	0.04 	0.0291547 	3.80006 	
3.77091 	3.97141 	-0.200506 	-3.34098 	6.06356e-08 	13.3714 	16.6989 	
3.94782e-10 	8.6815 	0.148117 	0.169899 	0.35 	13.208 	-0.252951 	6.77333e-05 	
1.07973e-06 	7.19819e-07 	
0.0016764 	5.80462e-09 	0.92 	0.04 	0.04 	0.0291547 	3.80005 	
3.7709 	3.97141 	-0.200518 	-3.34178 	4.33181e-08 	10.03 	20.0403 	
3.94901e-10 	8.6815 	0.148117 	0.169899 	0.35 	13.208 	-0.253012 	6.77333e-05 	
1.07973e-06 	7.19819e-07 	
0.00174413 	3.48341e-09 	0.92 	0.04 	0.04 	0.0291546 	3.80004 	
3.77088 	3.97141 	-0.200533 	-3.34273 	2.59956e-08 	6.68775 	23.3826 	
3.95043e-10 	8.6815 	0.148117 	0.169899 	0.35 	13.208 	-0.253084 	6.77333e-05 	
1.07973e-06 	7.19819e-07 	
0.00181187 	1.16143e-09 	0.92 	0.04 	0.04 	0.0291546 	3.80002 	
3.77086 	3.97141 	-0.20055 	-3.34384 	8.66735e-09 	3.34446 	26.7259 	
3.95207e-10 	8.6815 	0.148117 	0.169899 	0.35 	13.208 	-0.253168 	6.77333e-05 	
1.07973e-06 	7.19819e-07 	
0.0018796 	0 	0.92 	0.04 	0.04 	0.0291545 	3.8 	
3.77085 	3.97141 	-0.200569 	-1.67254 	8.66735e-09 	0.836272 	29.234 	
1.97696e-10 	4.34075 	0.0740584 	0.0849493 	0.35 	6.604 	-0.253262 	3.38667e-05 	
5.39864e-07 	3.5991e-07 	
ZONE T = "t = 7.75e-08 [s]" I = 10 SOLUTIONTIME = 7.7500000000000E-08
0.00127 	1.97216e-08 	0.92 	0.04 	0.04 	0.0291555 	3.80009 	
3.77094 	3.97141 	-0.200478 	-1.66959 	1.47177e-07 	29.2355 	0.834797 	
2.60093e-10 	4.34075 	0.0740584 	0.0849493 	0.35 	6.604 	-0.252816 	3.38667e-05 	
5.39864e-07 	3.5991e-07 	
0.00133773 	1.74028e-08 	0.92 	0.04 	0.04 	0.0291553 	3.80009 	
3.77094 	3.97141 	-0.200479 	-3.33925 	1.29872e-07 	26.7311 	3.33922 	
5.20198e-10 	8.6815 	0.148117 	0.169899 	0.35 	13.208 	-0.25282 	6.77333e-05 	
1.07973e-06 	7.19819e-07 	
0.00140547 	1.50839e-08 	0.92 	0.04 	0.04 	0.0291551 	3.80009 	
3.77093 	3.97141 	-0.200482 	-3.33946 	1.12566e-07 	23.3917 	6.67857 	
5.20237e-10 	8.6815 	0.148117 	0.169899 	0.35 	13.208 	-0.252836 	6.77333e-05 	
1.07973e-06 	7.19819e-07 	
0.0014732 	1.27647e-08 	0.92 	0.04 	0.04 	0.029155 	3.80008 	
3.77093 	3.97141 	-0.200488 	-3.33982 	9.5259e-08 	20.0521 	10.0182 	
5.20303e-10 	8.6815 	0.148117 	0.169899 	0.35 	13.208 	-0.252863 	6.77333e-05 	
1.07973e-06 	7.19819e-07 	
0.00154093 	1.04452e-08 	0.92 	0.04 	0.04 	0.0291548 	3.80007 	
3.77092 	3.97141 	-0.200496 	-3.34032 	7.7949e-08 	16.712 	13.3583 	
5.20397e-10 	8.6815 	0.148117 	0.169899 	0.35 	13.208 	-0.252901 	6.77333e-05 	
1.07973e-06 	7.19819e-07 	
0.00160867 	8.12517e-09 	0.92 	0.04 	0.04 	0.0291547 	3.80006 	
3.77091 	3.97141 	-0.200506 	-3.34098 	6.06356e-08 	13.3714 	16.6989 	
5.20519e-10 	8.6815 	0.148117 	0.169899 	0.35 	13.208 	-0.252951 	6.77333e-05 	
1.07973e-06 	7.19819e-07 	
0.0016764 	5.80462e-09 	0.92 	0.04 	0.04 	0.0291547 	3.80005 	
3.7709 	3.97141 	-0.200518 	-3.34178 	4.33181e-08 	10.03 	20.0403 	
5.20669e-10 	8.6815 	0.148117 	0.169899 	0.35 	13.208 	-0.253012 	6.77333e-05 	
1.07973e-06 	7.19819e-07 	
0.00174413 	3.48341e-09 	0.92 	0.04 	0.04 	0.0291546 	3.80004 	
3.77088 	3.97141 	-0.200533 	-3.34273 	2.59956e-08 	6.68775 	23.3826 	
5.20847e-10 	8.6815 	0.148117 	0.169899 	0.35 	13.208 	-0.253084 	6.77333e-05 	
1.07973e-06 	7.19819e-07 	
0.00181187 	1.16143e-09 	0.92 	0.04 	0.04 	0.0291546 	3.80002 	
3.77086 	3.97141 	-0.20055 	-3.34384 	8.66735e-09 	3.34446 	26.7259 	
5.21052e-10 	8.6815 	0.148117 	0.169899 	0.35 	13.208 	-0.253168 	6.77333e-05 	
1.07973e-06 	7.19819e-07 	
0.0018796 	0 	0.92 	0.04 	0.04 	0.0291545 	3.8 	
3.77085 	3.97141 	-0.200569 	-1.67254 	8.66735e-09 	0.836272 	29.234 	
2.60643e-10 	4.34075 	0.0740584 	0.0849493 	0.35 	6.604 	-0.253262 	3.38667e-05 	
5.39864e-07 	3.5991e-07 	
ZONE T = "t = 1.1125e-07 [s]" I = 10 SOLUTIONTIME = 1.1125000000000E-07
0.00127 	1.97216e-08 	0.92 	0.04 	0.04 	0.0291555 	3.80009 	
3.77094 	3.97141 	-0.200478 	-1.66959 	1.47177e-07 	29.2355 	0.834797 	
3.54346e-10 	4.34075 	0.0740584 	0.0849493 	0.35 	6.604 	-0.252816 	3.38667e-05 	
5.39864e-07 	3.5991e-07 	
0.00133773 	1.74028e-08 	0.92 	0.04 	0.04 	0.0291553 	3.80009 	
3.77094 	3.97141 	-0.200479 	-3.33925 	1.29872e-07 	26.7311 	3.33922 	
7.08707e-10 	8.6815 	0.148117 	0.169899 	0.35 	13.208 	-0.25282 	6.77333e-05 	
1.07973e-06 	7.19819e-07 	
0.00140547 	1.50839e-08 	0.92 	0.04 	0.04 	0.0291551 	3.80009 	
3.77093 	3.97141 	-0.200482 	-3.33946 	1.12566e-07 	23.3917 	6.67857 	
7.08757e-10 	8.6815 	0.148117 	0.169899 	0.35 	13.208 	-0.252836 	6.77333e-05 	
1.07973e-06 	7.19819e-07 	
0.0014732 	1.27647e-08 	0.92 	0.04 	0.04 	0.029155 	3.80008 	
3.77093 	3.97141 	-0.200488 	-3.33982 	9.5259e-08 	20.0521 	10.0182 	
7.08844e-10 	8.6815 	0.148117 	0.169899 	0.35 	13.208 	-0.252863 	6.77333e-05 	
1.07973e-06 	7.19819e-07 	
0.00154093 	1.04452e-08 	0.92 	0.04 	0.04 	0.0291548 	3.80007 	
3.77092 	3.97141 	-0.200496 	-3.34032 	7.7949e-08 	16.712 	13.3583 	
7.08967e-10 	8.6815 	0.148117 	0.169899 	0.35 	13.208 	-0.252901 	6.77333e-05 	
1.07973e-06 	7.19819e-07 	
0.00160867 	8.12517e-09 	0.92 	0.04 	0.04 	0.0291547 	3.80006 	
3.77091 	3.97141 	-0.200506 	-3.34098 	6.06356e-08 	13.3714 	16.6989 	
7.09126e-10 	8.6815 	0.148117 	0.169899 	0.35 	13.208 	-0.252951 	6.77333e-05 	
1.07973e-06 	7.19819e-07 	
0.0016764 	5.80462e-09 	0.92 	0.04 	0.04 	0.0291547 	3.80005 	
3.7709 	3.97141 	-0.200518 	-3.34178 	4.33181e-08 	10.03 	20.0403 	
7.09321e-10 	8.6815 	0.148117 	0.169899 	0.35 	13.208 	-0.253012 	6.77333e-05 	
1.07973e-06 	7.19819e-07 	
0.00174413 	3.48341e-09 	0.92 	0.04 	0.04 	0.0291546 	3.80004 	
3.77088 	3.97141 	-0.200533 	-3.34273 	2.59956e-08 	6.68775 	23.3826 	
7.09552e-10 	8.6815 	0.148117 	0.169899 	0.35 	13.208 	-0.253084 	6.77333e-05 	
1.07973e-06 	7.19819e-07 	
0.00181187 	1.16143e-09 	0.92 	0.04 	0.04 	0.0291546 	3.80002 	
3.77086 	3.97141 	-0.20055 	-3.34384 	8.66735e-09 	3.34446 	26.7259 	
7.0982e-10 	8.6815 	0.148117 	0.169899 	0.35 	13.208 	-0.253168 	6.77333e-05 	
1.07973e-06 	7.19819e-07 	
0.0018796 	0 	0.92 	0.04 	0.04 	0.0291545 	3.8 	
3.77085 	3.97141 	-0.200569 	-1.67254 	8.66735e-09 	0.836272 	29.234 	
3.55062e-10 	4.34075 	0.0740584 	0.0849493 	0.35 	6.604 	-0.253262 	3.38667e-05 	
5.39864e-07 	3.5991e-07 	
ZONE T = "t = 1.61875e-07 [s]" I = 10 SOLUTIONTIME = 1.6187500000000E-07
0.00127 	1.97216e-08 	0.92 	0.04 	0.04 	0.0291555 	3.80009 	
3.77094 	3.97141 	-0.200478 	-1.66959 	1.47178e-07 	29.2355 	0.834797 	
4.95725e-10 	4.34075 	0.0740584 	0.0849493 	0.35 	6.604 	-0.252816 	3.38667e-05 	
5.39864e-07 	3.5991e-07 	
0.00133773 	1.74028e-08 	0.92 	0.04 	0.04 	0.0291553 	3.80009 	
3.77094 	3.97141 	-0.200479 	-3.33925 	1.29872e-07 	26.7311 	3.33922 	
9.9147e-10 	8.6815 	0.148117 	0.169899 	0.35 	13.208 	-0.25282 	6.77333e-05 	
1.07973e-06 	7.19819e-07 	
0.00140547 	1.50839e-08 	0.92 	0.04 	0.04 	0.0291551 	3.80009 	
3.77093 	3.97141 	-0.200482 	-3.33946 	1.12566e-07 	23.3917 	6.67857 	
9.91539e-10 	8.6815 	0.148117 	0.169899 	0.35 	13.208 	-0.252836 	6.77333e-05 	
1.07973e-06 	7.19819e-07 	
0.0014732 	1.27647e-08 	0.92 	0.04 	0.04 	0.029155 	3.80008 	
3.77093 	3.97141 	-0.200488 	-3.33982 	9.5259e-08 	20.0521 	10.0182 	
9.91656e-10 	8.6815 	0.148117 	0.169899 	0.35 	13.208 	-0.252863 	6.77333e-05 	
1.07973e-06 	7.19819e-07 	
0.00154093 	1.04452e-08 	0.92 	0.04 	0.04 	0.0291548 	3.80007 	
3.77092 	3.97141 	-0.200496 	-3.34032 	7.7949e-08 	16.712 	13.3583 	
9.91821e-10 	8.6815 	0.148117 	0.169899 	0.35 	13.208 	-0.252901 	6.77333e-05 	
1.07973e-06 	7.19819e-07 	
0.00160867 	8.12517e-09 	0.92 	0.04 	0.04 	0.0291547 	3.80006 	
3.77091 	3.97141 	-0.200506 	-3.34098 	6.06356e-08 	13.3714 	16.6989 	
9.92036e-10 	8.6815 	0.148117 	0.169899 	0.35 	13.208 	-0.252951 	6.77333e-05 	
1.07973e-06 	7.19819e-07 	
0.0016764 	5.80462e-09 	0.92 	0.04 	0.04 	0.0291547 	3.80005 	
3.7709 	3.97141 	-0.200518 	-3.34178 	4.33181e-08 	10.03 	20.0403 	
9.92299e-10 	8.6815 	0.148117 	0.169899 	0.35 	13.208 	-0.253012 	6.77333e-05 	
1.07973e-06 	7.19819e-07 	
0.00174413 	3.48341e-09 	0.92 	0.04 	0.04 	0.0291546 	3.80004 	
3.77088 	3.97141 	-0.200533 	-3.34273 	2.59956e-08 	6.68775 	23.3826 	
9.92611e-10 	8.6815 	0.148117 	0.169899 	0.35 	13.208 	-0.253084 	6.77333e-05 	
1.07973e-06 	7.19819e-07 	
0.00181187 	1.16143e-09 	0.92 	0.04 	0.04 	0.0291546 	3.80002 	
3.77086 	3.97141 	-0.20055 	-3.34384 	8.66735e-09 	3.34446 	26.7259 	
9.92972e-10 	8.6815 	0.148117 	0.169899 	0.35 	13.208 	-0.253168 	6.77333e-05 	
1.07973e-06 	7.19819e-07 	
0.0018796 	0 	0.92 	0.04 	0.04 	0.0291545 	3.8 	
3.77085 	3.97141 	-0.200569 	-1.67254 	8.66735e-09 	0.836272 	29.234 	
4.96691e-10 	4.34075 	0.0740584 	0.0849493 	0.35 	6.604 	-0.253262 	3.38667e-05 	
5.39864e-07 	3.5991e-07 	
ZONE T = "t = 2.37813e-07 [s]" I = 10 SOLUTIONTIME = 2.3781250000000E-07
0.00127 	1.97216e-08 	0.92 	0.04 	0.04 	0.0291555 	3.80009 	
3.77094 	3.97141 	-0.200478 	-1.66959 	1.47179e-07 	29.2355 	0.834797 	
7.07794e-10 	4.34075 	0.0740584 	0.0849493 	0.35 	6.604 	-0.252816 	3.38667e-05 	
5.39864e-07 	3.5991e-07 	
0.00133773 	1.74028e-08 	0.92 	0.04 	0.04 	0.0291553 	3.80009 	
3.77094 	3.97141 	-0.200479 	-3.33925 	1.29872e-07 	26.7311 	3.33922 	
1.41562e-09 	8.6815 	0.148117 	0.169899 	0.35 	13.208 	-0.25282 	6.77333e-05 	
1.07973e-06 	7.19819e-07 	
0.00140547 	1.50839e-08 	0.92 	0.04 	0.04 	0.0291551 	3.80009 	
3.77093 	3.97141 	-0.200482 	-3.33946 	1.12566e-07 	23.3917 	6.67857 	
1.41571e-09 	8.6815 	0.148117 	0.169899 	0.35 	13.208 	-0.252836 	6.77333e-05 	
1.07973e-06 	7.19819e-07 	
0.0014732 	1.27647e-08 	0.92 	0.04 	0.04 	0.029155 	3.80008 	
3.77093 	3.97141 	-0.200488 	-3.33982 	9.5259e-08 	20.0521 	10.0182 	
1.41587e-09 	8.6815 	0.148117 	0.169899 	0.35 	13.208 	-0.252863 	6.77333e-05 	
1.07973e-06 	7.19819e-07 	
0.00154093 	1.04452e-08 	0.92 	0.04 	0.04 	0.0291548 	3.80007 	
3.77092 	3.97141 	-0.200496 	-3.34032 	7.7949e-08 	16.712 	13.3583 	
1.4161e-09 	8.6815 	0.148117 	0.169899 	0.35 	13.208 	-0.252901 	6.77333e-05 	
1.07973e-06 	7.19819e-07 	
0.00160867 	8.12517e-09 	0.92 	0.04 	0.04 	0.0291547 	3.80006 	
3.77091 	3.97141 	-0.200506 	-3.34098 	6.06356e-08 	13.3714 	16.6989 	
1.4164e-09 	8.6815 	0.148117 	0.169899 	0.35 	13.208 	-0.252951 	6.77333e-05 	
1.07973e-06 	7.19819e-07 	
0.0016764 	5.80462e-09 	0.92 	0.04 	0.04 	0.0291547 	3.80005 	
3.7709 	3.97141 	-0.200518 	-3.34178 	4.33181e-08 	10.03 	20.0403 	
1.41677e-09 	8.6815 	0.148117 	0.169899 	0.35 	13.208 	-0.253012 	6.77333e-05 	
1.07973e-06 	7.19819e-07 	
0.00174413 	3.48341e-09 	0.92 	0.04 	0.04 	0.0291546 	3.80004 	
3.77088 	3.97141 	-0.200533 	-3.34273 	2.59956e-08 	6.68775 	23.3826 	
1.4172e-09 	8.6815 	0.148117 	0.169899 	0.35 	13.208 	-0.253084 	6.77333e-05 	
1.07973e-06 	7.19819e-07 	
0.00181187 	1.16143e-09 	0.92 	0.04 	0.04 	0.0291546 	3.80002 	
3.77086 	3.97141 	-0.20055 	-3.34384 	8.66735e-09 	3.34446 	26.7259 	
1.4177e-09 	8.6815 	0.148117 	0.169899 	0.35 	13.208 	-0.253168 	6.77333e-05 	
1.07973e-06 	7.19819e-07 	
0.0018796 	0 	0.92 	0.04 	0.04 	0.0291545 	3.8 	
3.77085 	3.97141 	-0.200569 	-1.67254 	8.66735e-09 	0.836272 	29.234 	
7.09134e-10 	4.34075 	0.0740584 	0.0849493 	0.35 	6.604 	-0.253262 	3.38667e-05 	
5.39864e-07 	3.5991e-07 	
ZONE T = "t = 3.51719e-07 [s]" I = 10 SOLUTIONTIME = 3.5171875000000E-07
0.00127 	1.97216e-08 	0.92 	0.04 	0.04 	0.0291555 	3.80009 	
3.77094 	3.97141 	-0.200478 	-1.66959 	1.4718e-07 	29.2355 	0.834797 	
1.0259e-09 	4.34075 	0.0740584 	0.0849493 	0.35 	6.604 	-0.252816 	3.38667e-05 	
5.39864e-07 	3.5991e-07 	
0.00133773 	1.74028e-08 	0.92 	0.04 	0.04 	0.0291553 	3.80009 	
3.77094 	3.97141 	-0.200479 	-3.33925 	1.29872e-07 	26.7311 	3.33922 	
2.05183e-09 	8.6815 	0.148117 	0.169899 	0.35 	13.208 	-0.25282 	6.77333e-05 	
1.07973e-06 	7.19819e-07 	
0.00140547 	1.50839e-08 	0.92 	0.04 	0.04 	0.0291551 	3.80009 	
3.77093 	3.97141 	-0.200482 	-3.33946 	1.12566e-07 	23.3917 	6.67857 	
2.05197e-09 	8.6815 	0.148117 	0.169899 	0.35 	13.208 	-0.252836 	6.77333e-05 	
1.07973e-06 	7.19819e-07 	
0.0014732 	1.27647e-08 	0.92 	0.04 	0.04 	0.029155 	3.80008 	
3.77093 	3.97141 	-0.200488 	-3.33982 	9.5259e-08 	20.0521 	10.0182 	
2.0522e-09 	8.6815 	0.148117 	0.169899 	0.35 	13.208 	-0.252863 	6.77333e-05 	
1.07973e-06 	7.19819e-07 	
0.00154093 	1.04452e-08 	0.92 	0.04 	0.04 	0.0291548 	3.80007 	
3.77092 	3.97141 	-0.200496 	-3.34032 	7.7949e-08 	16.712 	13.3583 	
2.05252e-09 	8.6815 	0.148117 	0.169899 	0.35 	13.208 	-0.252901 	6.77333e-05 	
1.07973e-06 	7.19819e-07 	
0.00160867 	8.12517e-09 	0.92 	0.04 	0.04 	0.0291547 	3.80006 	
3.77091 	3.97141 	-0.200506 	-3.34098 	6.06356e-08 	13.3714 	16.6989 	
2.05295e-09 	8.6815 	0.148117 	0.169899 	0.35 	13.208 	-0.252951 	6.77333e-05 	
1.07973e-06 	7.19819e-07 	
0.0016764 	5.80462e-09 	0.92 	0.04 	0.04 	0.0291546 	3.80005 	
3.7709 	3.97141 	-0.200518 	-3.34178 	4.33181e-08 	10.03 	20.0403 	
2.05347e-09 	8.6815 	0.148117 	0.169899 	0.35 	13.208 	-0.253012 	6.77333e-05 	
1.07973e-06 	7.19819e-07 	
0.00174413 	3.48341e-09 	0.92 	0.04 	0.04 	0.0291546 	3.80004 	
3.77088 	3.97141 	-0.200533 	-3.34273 	2.59956e-08 	6.68775 	23.3826 	
2.05408e-09 	8.6815 	0.148117 	0.169899 	0.35 	13.208 	-0.253084 	6.77333e-05 	
1.07973e-06 	7.19819e-07 	
0.00181187 	1.16143e-09 	0.92 	0.04 	0.04 	0.0291546 	3.80002 	
3.77086 	3.97141 	-0.20055 	-3.34384 	8.66735e-09 	3.34446 	26.7258 	
2.05479e-09 	8.6815 	0.148117 	0.169899 	0.35 	13.208 	-0.253168 	6.77333e-05 	
1.07973e-06 	7.19819e-07 	
0.0018796 	0 	0.92 	0.04 	0.04 	0.0291545 	3.8 	
3.77085 	3.97141 	-0.200569 	-1.67254 	8.66735e-09 	0.836272 	29.234 	
1.0278e-09 	4.34075 	0.0740584 	0.0849493 	0.35 	6.604 	-0.253262 	3.38667e-05 	
5.39864e-07 	3.5991e-07 	
ZONE T = "t = 5.22578e-07 [s]" I = 10 SOLUTIONTIME = 5.2257812500000E-07
0.00127 	1.97216e-08 	0.92 	0.04 	0.04 	0.0291555 	3.80009 	
3.77094 	3.97141 	-0.200478 	-1.66959 	1.47181e-07 	29.2355 	0.834797 	
1.50305e-09 	4.34075 	0.0740584 	0.0849493 	0.35 	6.604 	-0.252816 	3.38667e-05 	
5.39864e-07 	3.5991e-07 	
0.00133773 	1.74028e-08 	0.92 	0.04 	0.04 	0.0291553 	3.80009 	
3.77094 	3.97141 	-0.200479 	-3.33925 	1.29872e-07 	26.7311 	3.33922 	
3.00616e-09 	8.6815 	0.148117 	0.169899 	0.35 	13.208 	-0.25282 	6.77333e-05 	
1.07973e-06 	7.19819e-07 	
0.00140547 	1.50839e-08 	0.92 	0.04 	0.04 	0.0291551 	3.80009 	
3.77093 	3.97141 	-0.200482 	-3.33946 	1.12566e-07 	23.3917 	6.67857 	
3.00635e-09 	8.6815 	0.148117 	0.169899 	0.35 	13.208 	-0.252836 	6.77333e-05 	
1.07973e-06 	7.19819e-07 	
0.0014732 	1.27647e-08 	0.92 	0.04 	0.04 	0.029155 	3.80008 	
3.77093 	3.97141 	-0.200488 	-3.33982 	9.5259e-08 	20.0521 	10.0182 	
3.00669e-09 	8.6815 	0.148117 	0.169899 	0.35 	13.208 	-0.252863 	6.77333e-05 	
1.07973e-06 	7.19819e-07 	
0.00154093 	1.04452e-08 	0.92 	0.04 	0.04 	0.0291548 	3.80007 	
3.77092 	3.97141 	-0.200496 	-3.34032 	7.7949e-08 	16.712 	13.3583 	
3.00716e-09 	8.6815 	0.148117 	0.169899 	0.35 	13.208 	-0.252901 	6.77333e-05 	
1.07973e-06 	7.19819e-07 	
0.00160867 	8.12517e-09 	0.92 	0.04 	0.04 	0.0291547 	3.80006 	
3.77091 	3.97141 	-0.200506 	-3.34098 	6.06356e-08 	13.3714 	16.6989 	
3.00777e-09 	8.6815 	0.148117 	0.169899 	0.35 	13.208 	-0.252951 	6.77333e-05 	
1.07973e-06 	7.19819e-07 	
0.0016764 	5.80462e-09 	0.92 	0.04 	0.04 	0.0291546 	3.80005 	
3.7709 	3.97141 	-0.200518 	-3.34178 	4.33181e-08 	10.03 	20.0403 	
3.00852e-09 	8.6815 	0.148117 	0.169899 	0.35 	13.208 	-0.253012 	6.77333e-05 	
1.07973e-06 	7.19819e-07 	
0.00174413 	3.48341e-09 	0.92 	0.04 	0.04 	0.0291546 	3.80004 	
3.77088 	3.97141 	-0.200533 	-3.34273 	2.59956e-08 	6.68775 	23.3826 	
3.0094e-09 	8.6815 	0.148117 	0.169899 	0.35 	13.208 	-0.253084 	6.77333e-05 	
1.07973e-06 	7.19819e-07 	
0.00181187 	1.16142e-09 	0.92 	0.04 	0.04 	0.0291545 	3.80002 	
3.77086 	3.97141 	-0.20055 	-3.34384 	8.66735e-09 	3.34446 	26.7258 	
3.01043e-09 	8.6815 	0.148117 	0.169899 	0.35 	13.208 	-0.253168 	6.77333e-05 	
1.07973e-06 	7.19819e-07 	
0.0018796 	0 	0.92 	0.04 	0.04 	0.0291545 	3.8 	
3.77085 	3.97141 	-0.200569 	-1.67254 	8.66735e-09 	0.836272 	29.234 	
1.5058e-09 	4.34075 	0.0740584 	0.0849493 	0.35 	6.604 	-0.253262 	3.38667e-05 	
5.39864e-07 	3.5991e-07 	
ZONE T = "t = 7.78867e-07 [s]" I = 10 SOLUTIONTIME = 7.7886718750000E-07
0.00127 	1.97216e-08 	0.92 	0.04 	0.04 	0.0291555 	3.80009 	
3.77094 	3.97141 	-0.200478 	-1.66959 	1.47183e-07 	29.2355 	0.834797 	
2.21878e-09 	4.34075 	0.0740584 	0.0849493 	0.35 	6.604 	-0.252816 	3.38667e-05 	
5.39864e-07 	3.5991e-07 	
0.00133773 	1.74028e-08 	0.92 	0.04 	0.04 	0.0291553 	3.80009 	
3.77094 	3.97141 	-0.200479 	-3.33925 	1.29872e-07 	26.7311 	3.33922 	
4.43765e-09 	8.6815 	0.148117 	0.169899 	0.35 	13.208 	-0.25282 	6.77333e-05 	
1.07973e-06 	7.19819e-07 	
0.00140547 	1.50839e-08 	0.92 	0.04 	0.04 	0.0291551 	3.80009 	
3.77093 	3.97141 	-0.200482 	-3.33946 	1.12566e-07 	23.3917 	6.67857 	
4.43793e-09 	8.6815 	0.148117 	0.169899 	0.35 	13.208 	-0.252836 	6.77333e-05 	
1.07973e-06 	7.19819e-07 	