TITLE = "Solution on Domain BulkDomain1D_1"
VARIABLES = "x [m]"  
"Vel_axial" 	"MF_sp(ECDMC)" 	"MF_sp(Li+)" 	"MF_sp(PF6-)" 	"Volt(Electroly)" 	"qHeat_accum [J/m3]" 	"qHeat_step [W/m3]" 	"Joule_Lyte [W/m3]" 	"Joule_Solid [W/m3]" 	
ZONE T = "t = 0 [s]" I = 10 SOLUTIONTIME = 0.0000000000000E+00
0.0007874 	0 	0.92 	0.04 	0.04 	-0.07 	
0 	0.0 	 0.0 	 0.0 	 
0.000841022 	0 	0.92 	0.04 	0.04 	-0.07 	
0 	0.0 	 0.0 	 0.0 	 
0.000894644 	0 	0.92 	0.04 	0.04 	-0.07 	
0 	0.0 	 0.0 	 0.0 	 
0.000948267 	0 	0.92 	0.04 	0.04 	-0.07 	
0 	0.0 	 0.0 	 0.0 	 
0.00100189 	0 	0.92 	0.04 	0.04 	-0.07 	
0 	0.0 	 0.0 	 0.0 	 
0.00105551 	0 	0.92 	0.04 	0.04 	-0.07 	
0 	0.0 	 0.0 	 0.0 	 
0.00110913 	0 	0.92 	0.04 	0.04 	-0.07 	
0 	0.0 	 0.0 	 0.0 	 
0.00116276 	0 	0.92 	0.04 	0.04 	-0.07 	
0 	0.0 	 0.0 	 0.0 	 
0.00121638 	0 	0.92 	0.04 	0.04 	-0.07 	
0 	0.0 	 0.0 	 0.0 	 
0.00127 	0 	0.92 	0.04 	0.04 	-0.07 	
0 	0.0 	 0.0 	 0.0 	 
ZONE T = "t = 1e-08 [s]" I = 10 SOLUTIONTIME = 1.0000000000000E-08
0.0007874 	2.08624e-08 	0.92 	0.04 	0.04 	0.0291661 	
2.76584e-10 	0.0276584 	0.0276584 	0 	
0.000841022 	2.08624e-08 	0.92 	0.04 	0.04 	0.029166 	
2.76584e-10 	0.0276584 	0.0276584 	0 	
0.000894644 	2.08624e-08 	0.92 	0.04 	0.04 	0.029166 	
2.76584e-10 	0.0276584 	0.0276584 	0 	
0.000948267 	2.08624e-08 	0.92 	0.04 	0.04 	0.0291659 	
2.76584e-10 	0.0276584 	0.0276584 	0 	
0.00100189 	2.08624e-08 	0.92 	0.04 	0.04 	0.0291659 	
2.76584e-10 	0.0276584 	0.0276584 	0 	
0.00105551 	2.08624e-08 	0.92 	0.04 	0.04 	0.0291658 	
2.76584e-10 	0.0276584 	0.0276584 	0 	
0.00110913 	2.08624e-08 	0.92 	0.04 	0.04 	0.0291658 	
2.76584e-10 	0.0276584 	0.0276584 	0 	
0.00116276 	2.08624e-08 	0.92 	0.04 	0.04 	0.0291658 	
2.76584e-10 	0.0276584 	0.0276584 	0 	
0.00121638 	2.08624e-08 	0.92 	0.04 	0.04 	0.0291657 	
2.76584e-10 	0.0276584 	0.0276584 	0 	
0.00127 	1.97047e-08 	0.92 	0.04 	0.04 	0.0291657 	
2.76584e-10 	0.0276584 	0.0276584 	0 	
ZONE T = "t = 2e-08 [s]" I = 10 SOLUTIONTIME = 2.0000000000000E-08
0.0007874 	2.08612e-08 	0.92 	0.04 	0.04 	0.0291661 	
5.53172e-10 	0.0276588 	0.0276588 	0 	
0.000841022 	2.08612e-08 	0.92 	0.04 	0.04 	0.029166 	
5.53172e-10 	0.0276588 	0.0276588 	0 	
0.000894644 	2.08612e-08 	0.92 	0.04 	0.04 	0.029166 	
5.53172e-10 	0.0276588 	0.0276588 	0 	
0.000948267 	2.08612e-08 	0.92 	0.04 	0.04 	0.029166 	
5.53172e-10 	0.0276588 	0.0276588 	0 	
0.00100189 	2.08612e-08 	0.92 	0.04 	0.04 	0.0291659 	
5.53172e-10 	0.0276588 	0.0276588 	0 	
0.00105551 	2.08612e-08 	0.92 	0.04 	0.04 	0.0291659 	
5.53172e-10 	0.0276588 	0.0276588 	0 	
0.00110913 	2.08612e-08 	0.92 	0.04 	0.04 	0.0291658 	
5.53172e-10 	0.0276588 	0.0276588 	0 	
0.00116276 	2.08612e-08 	0.92 	0.04 	0.04 	0.0291658 	
5.53172e-10 	0.0276588 	0.0276588 	0 	
0.00121638 	2.08612e-08 	0.92 	0.04 	0.04 	0.0291657 	
5.53172e-10 	0.0276588 	0.0276588 	0 	
0.00127 	1.97035e-08 	0.92 	0.04 	0.04 	0.0291657 	
5.53172e-10 	0.0276588 	0.0276588 	0 	
ZONE T = "t = 3e-08 [s]" I = 10 SOLUTIONTIME = 3.0000000000000E-08
0.0007874 	2.08642e-08 	0.92 	0.04 	0.04 	0.0291661 	
8.29759e-10 	0.0276588 	0.0276588 	0 	
0.000841022 	2.08642e-08 	0.92 	0.04 	0.04 	0.029166 	
8.29759e-10 	0.0276588 	0.0276588 	0 	
0.000894644 	2.08642e-08 	0.92 	0.04 	0.04 	0.029166 	
8.29759e-10 	0.0276588 	0.0276588 	0 	
0.000948267 	2.08642e-08 	0.92 	0.04 	0.04 	0.029166 	
8.29759e-10 	0.0276588 	0.0276588 	0 	
0.00100189 	2.08642e-08 	0.92 	0.04 	0.04 	0.0291659 	
8.29759e-10 	0.0276588 	0.0276588 	0 	
0.00105551 	2.08642e-08 	0.92 	0.04 	0.04 	0.0291659 	
8.29759e-10 	0.0276588 	0.0276588 	0 	
0.00110913 	2.08642e-08 	0.92 	0.04 	0.04 	0.0291658 	
8.29759e-10 	0.0276588 	0.0276588 	0 	
0.00116276 	2.08642e-08 	0.92 	0.04 	0.04 	0.0291658 	
8.29759e-10 	0.0276588 	0.0276588 	0 	
0.00121638 	2.08642e-08 	0.92 	0.04 	0.04 	0.0291657 	
8.29759e-10 	0.0276588 	0.0276588 	0 	
0.00127 	1.97057e-08 	0.92 	0.04 	0.04 	0.0291657 	
8.29759e-10 	0.0276588 	0.0276588 	0 	
ZONE T = "t = 4e-08 [s]" I = 10 SOLUTIONTIME = 4.0000000000000E-08
0.0007874 	2.08576e-08 	0.92 	0.04 	0.04 	0.0291661 	
1.10635e-09 	0.0276588 	0.0276588 	0 	
0.000841022 	2.08576e-08 	0.92 	0.04 	0.04 	0.029166 	
1.10635e-09 	0.0276588 	0.0276588 	0 	
0.000894644 	2.08576e-08 	0.92 	0.04 	0.04 	0.029166 	
1.10635e-09 	0.0276588 	0.0276588 	0 	
0.000948267 	2.08576e-08 	0.92 	0.04 	0.04 	0.029166 	
1.10635e-09 	0.0276588 	0.0276588 	0 	
0.00100189 	2.08576e-08 	0.92 	0.04 	0.04 	0.0291659 	
1.10635e-09 	0.0276588 	0.0276588 	0 	
0.00105551 	2.08576e-08 	0.92 	0.04 	0.04 	0.0291659 	
1.10635e-09 	0.0276588 	0.0276588 	0 	
0.00110913 	2.08576e-08 	0.92 	0.04 	0.04 	0.0291658 	
1.10635e-09 	0.0276588 	0.0276588 	0 	
0.00116276 	2.08576e-08 	0.92 	0.04 	0.04 	0.0291658 	
1.10635e-09 	0.0276588 	0.0276588 	0 	
0.00121638 	2.08576e-08 	0.92 	0.04 	0.04 	0.0291657 	
1.10635e-09 	0.0276588 	0.0276588 	0 	
0.00127 	1.97012e-08 	0.92 	0.04 	0.04 	0.0291657 	
1.10635e-09 	0.0276588 	0.0276588 	0 	
ZONE T = "t = 5.5e-08 [s]" I = 10 SOLUTIONTIME = 5.5000000000000E-08
0.0007874 	2.08665e-08 	0.92 	0.04 	0.04 	0.0291661 	
1.52123e-09 	0.0276588 	0.0276588 	0 	
0.000841022 	2.08665e-08 	0.92 	0.04 	0.04 	0.029166 	
1.52123e-09 	0.0276588 	0.0276588 	0 	
0.000894644 	2.08665e-08 	0.92 	0.04 	0.04 	0.029166 	
1.52123e-09 	0.0276588 	0.0276588 	0 	
0.000948267 	2.08665e-08 	0.92 	0.04 	0.04 	0.029166 	
1.52123e-09 	0.0276588 	0.0276588 	0 	
0.00100189 	2.08665e-08 	0.92 	0.04 	0.04 	0.0291659 	
1.52123e-09 	0.0276588 	0.0276588 	0 	
0.00105551 	2.08665e-08 	0.92 	0.04 	0.04 	0.0291659 	
1.52123e-09 	0.0276588 	0.0276588 	0 	
0.00110913 	2.08665e-08 	0.92 	0.04 	0.04 	0.0291658 	
1.52123e-09 	0.0276588 	0.0276588 	0 	
0.00116276 	2.08665e-08 	0.92 	0.04 	0.04 	0.0291658 	
1.52123e-09 	0.0276588 	0.0276588 	0 	
0.00121638 	2.08665e-08 	0.92 	0.04 	0.04 	0.0291657 	
1.52123e-09 	0.0276588 	0.0276588 	0 	
0.00127 	1.97087e-08 	0.92 	0.04 	0.04 	0.0291657 	
1.52123e-09 	0.0276588 	0.0276588 	0 	
ZONE T = "t = 7.75e-08 [s]" I = 10 SOLUTIONTIME = 7.7500000000000E-08
0.0007874 	2.0862e-08 	0.92 	0.04 	0.04 	0.0291661 	
2.14355e-09 	0.0276588 	0.0276588 	0 	
0.000841022 	2.0862e-08 	0.92 	0.04 	0.04 	0.029166 	
2.14355e-09 	0.0276588 	0.0276588 	0 	
0.000894644 	2.0862e-08 	0.92 	0.04 	0.04 	0.029166 	
2.14355e-09 	0.0276588 	0.0276588 	0 	
0.000948267 	2.0862e-08 	0.92 	0.04 	0.04 	0.029166 	
2.14355e-09 	0.0276588 	0.0276588 	0 	
0.00100189 	2.0862e-08 	0.92 	0.04 	0.04 	0.0291659 	
2.14355e-09 	0.0276588 	0.0276588 	0 	
0.00105551 	2.0862e-08 	0.92 	0.04 	0.04 	0.0291659 	
2.14355e-09 	0.0276588 	0.0276588 	0 	
0.00110913 	2.0862e-08 	0.92 	0.04 	0.04 	0.0291658 	
2.14355e-09 	0.0276588 	0.0276588 	0 	
0.00116276 	2.0862e-08 	0.92 	0.04 	0.04 	0.0291658 	
2.14355e-09 	0.0276588 	0.0276588 	0 	
0.00121638 	2.0862e-08 	0.92 	0.04 	0.04 	0.0291657 	
2.14355e-09 	0.0276588 	0.0276588 	0 	
0.00127 	1.97044e-08 	0.92 	0.04 	0.04 	0.0291657 	
2.14355e-09 	0.0276588 	0.0276588 	0 	
ZONE T = "t = 1.1125e-07 [s]" I = 10 SOLUTIONTIME = 1.1125000000000E-07
0.0007874 	2.08615e-08 	0.92 	0.04 	0.04 	0.0291661 	
3.07703e-09 	0.0276588 	0.0276588 	0 	
0.000841022 	2.08615e-08 	0.92 	0.04 	0.04 	0.029166 	
3.07703e-09 	0.0276588 	0.0276588 	0 	
0.000894644 	2.08615e-08 	0.92 	0.04 	0.04 	0.029166 	
3.07703e-09 	0.0276588 	0.0276588 	0 	
0.000948267 	2.08615e-08 	0.92 	0.04 	0.04 	0.0291659 	
3.07703e-09 	0.0276588 	0.0276588 	0 	
0.00100189 	2.08615e-08 	0.92 	0.04 	0.04 	0.0291659 	
3.07703e-09 	0.0276588 	0.0276588 	0 	
0.00105551 	2.08615e-08 	0.92 	0.04 	0.04 	0.0291659 	
3.07703e-09 	0.0276588 	0.0276588 	0 	
0.00110913 	2.08615e-08 	0.92 	0.04 	0.04 	0.0291658 	
3.07703e-09 	0.0276588 	0.0276588 	0 	
0.00116276 	2.08615e-08 	0.92 	0.04 	0.04 	0.0291658 	
3.07703e-09 	0.0276588 	0.0276588 	0 	
0.00121638 	2.08615e-08 	0.92 	0.04 	0.04 	0.0291657 	
3.07703e-09 	0.0276588 	0.0276588 	0 	
0.00127 	1.97038e-08 	0.92 	0.04 	0.04 	0.0291657 	
3.07703e-09 	0.0276588 	0.0276588 	0 	
ZONE T = "t = 1.61875e-07 [s]" I = 10 SOLUTIONTIME = 1.6187500000000E-07
0.0007874 	2.08639e-08 	0.92 	0.04 	0.04 	0.0291661 	
4.47726e-09 	0.0276588 	0.0276588 	0 	
0.000841022 	2.08639e-08 	0.92 	0.04 	0.04 	0.029166 	
4.47726e-09 	0.0276588 	0.0276588 	0 	
0.000894644 	2.08639e-08 	0.92 	0.04 	0.04 	0.029166 	
4.47726e-09 	0.0276588 	0.0276588 	0 	
0.000948267 	2.08639e-08 	0.92 	0.04 	0.04 	0.0291659 	
4.47726e-09 	0.0276588 	0.0276588 	0 	
0.00100189 	2.08639e-08 	0.92 	0.04 	0.04 	0.0291659 	
4.47726e-09 	0.0276588 	0.0276588 	0 	
0.00105551 	2.08639e-08 	0.92 	0.04 	0.04 	0.0291659 	
4.47726e-09 	0.0276588 	0.0276588 	0 	
0.00110913 	2.08639e-08 	0.92 	0.04 	0.04 	0.0291658 	
4.47726e-09 	0.0276588 	0.0276588 	0 	
0.00116276 	2.08639e-08 	0.92 	0.04 	0.04 	0.0291658 	
4.47726e-09 	0.0276588 	0.0276588 	0 	
0.00121638 	2.08639e-08 	0.92 	0.04 	0.04 	0.0291657 	
4.47726e-09 	0.0276588 	0.0276588 	0 	
0.00127 	1.9706e-08 	0.92 	0.04 	0.04 	0.0291657 	
4.47726e-09 	0.0276588 	0.0276588 	0 	
ZONE T = "t = 2.37813e-07 [s]" I = 10 SOLUTIONTIME = 2.3781250000000E-07
0.0007874 	2.08625e-08 	0.92 	0.04 	0.04 	0.0291661 	
6.57759e-09 	0.0276588 	0.0276588 	0 	
0.000841022 	2.08626e-08 	0.92 	0.04 	0.04 	0.029166 	
6.57759e-09 	0.0276588 	0.0276588 	0 	
0.000894644 	2.08626e-08 	0.92 	0.04 	0.04 	0.029166 	
6.57759e-09 	0.0276588 	0.0276588 	0 	
0.000948267 	2.08626e-08 	0.92 	0.04 	0.04 	0.0291659 	
6.57759e-09 	0.0276588 	0.0276588 	0 	
0.00100189 	2.08626e-08 	0.92 	0.04 	0.04 	0.0291659 	
6.57759e-09 	0.0276588 	0.0276588 	0 	
0.00105551 	2.08626e-08 	0.92 	0.04 	0.04 	0.0291658 	
6.57759e-09 	0.0276588 	0.0276588 	0 	
0.00110913 	2.08626e-08 	0.92 	0.04 	0.04 	0.0291658 	
6.57759e-09 	0.0276588 	0.0276588 	0 	
0.00116276 	2.08626e-08 	0.92 	0.04 	0.04 	0.0291657 	
6.57759e-09 	0.0276588 	0.0276588 	0 	
0.00121638 	2.08625e-08 	0.92 	0.04 	0.04 	0.0291657 	
6.57759e-09 	0.0276588 	0.0276588 	0 	
0.00127 	1.97049e-08 	0.92 	0.04 	0.04 	0.0291657 	
6.57759e-09 	0.0276588 	0.0276588 	0 	
ZONE T = "t = 3.51719e-07 [s]" I = 10 SOLUTIONTIME = 3.5171875000000E-07
0.0007874 	2.08628e-08 	0.92 	0.04 	0.04 	0.0291661 	
9.7281e-09 	0.0276588 	0.0276588 	0 	
0.000841022 	2.08627e-08 	0.92 	0.04 	0.04 	0.029166 	
9.7281e-09 	0.0276588 	0.0276588 	0 	
0.000894644 	2.08627e-08 	0.92 	0.04 	0.04 	0.029166 	
9.7281e-09 	0.0276588 	0.0276588 	0 	
0.000948267 	2.08627e-08 	0.92 	0.04 	0.04 	0.0291659 	
9.7281e-09 	0.0276588 	0.0276588 	0 	
0.00100189 	2.08627e-08 	0.92 	0.04 	0.04 	0.0291659 	
9.7281e-09 	0.0276588 	0.0276588 	0 	
0.00105551 	2.08627e-08 	0.92 	0.04 	0.04 	0.0291658 	
9.7281e-09 	0.0276588 	0.0276588 	0 	
0.00110913 	2.08627e-08 	0.92 	0.04 	0.04 	0.0291658 	
9.7281e-09 	0.0276588 	0.0276588 	0 	
0.00116276 	2.08627e-08 	0.92 	0.04 	0.04 	0.0291657 	
9.7281e-09 	0.0276588 	0.0276588 	0 	
0.00121638 	2.08627e-08 	0.92 	0.04 	0.04 	0.0291657 	
9.7281e-09 	0.0276588 	0.0276588 	0 	
0.00127 	1.9705e-08 	0.92 	0.04 	0.04 	0.0291656 	
9.7281e-09 	0.0276588 	0.0276588 	0 	
ZONE T = "t = 5.22578e-07 [s]" I = 10 SOLUTIONTIME = 5.2257812500000E-07
0.0007874 	2.08627e-08 	0.92 	0.04 	0.04 	0.0291661 	
1.44539e-08 	0.0276587 	0.0276587 	0 	
0.000841022 	2.08627e-08 	0.92 	0.04 	0.04 	0.029166 	
1.44539e-08 	0.0276587 	0.0276587 	0 	
0.000894644 	2.08627e-08 	0.92 	0.04 	0.04 	0.029166 	
1.44539e-08 	0.0276587 	0.0276587 	0 	
0.000948267 	2.08627e-08 	0.92 	0.04 	0.04 	0.0291659 	
1.44539e-08 	0.0276587 	0.0276587 	0 	
0.00100189 	2.08627e-08 	0.92 	0.04 	0.04 	0.0291659 	
1.44539e-08 	0.0276587 	0.0276587 	0 	
0.00105551 	2.08627e-08 	0.92 	0.04 	0.04 	0.0291658 	
1.44539e-08 	0.0276587 	0.0276587 	0 	
0.00110913 	2.08627e-08 	0.92 	0.04 	0.04 	0.0291658 	
1.44539e-08 	0.0276587 	0.0276587 	0 	
0.00116276 	2.08627e-08 	0.92 	0.04 	0.04 	0.0291657 	
1.44539e-08 	0.0276587 	0.0276587 	0 	
0.00121638 	2.08628e-08 	0.92 	0.04 	0.04 	0.0291657 	
1.44539e-08 	0.0276587 	0.0276587 	0 	
0.00127 	1.9705e-08 	0.92 	0.04 	0.04 	0.0291656 	
1.44539e-08 	0.0276587 	0.0276587 	0 	
ZONE T = "t = 7.78867e-07 [s]" I = 10 SOLUTIONTIME = 7.7886718750000E-07
0.0007874 	2.08627e-08 	0.92 	0.04 	0.04 	0.0291661 	
2.15425e-08 	0.0276587 	0.0276587 	0 	
0.000841022 	2.08627e-08 	0.92 	0.04 	0.04 	0.029166 	
2.15425e-08 	0.0276587 	0.0276587 	0 	
0.000894644 	2.08627e-08 	0.92 	0.04 	0.04 	0.029166 	
2.15425e-08 	0.0276587 	0.0276587 	0 	
0.000948267 	2.08627e-08 	0.92 	0.04 	0.04 	0.0291659 	
2.15425e-08 	0.0276587 	0.0276587 	0 	
0.00100189 	2.08627e-08 	0.92 	0.04 	0.04 	0.0291659 	
2.15425e-08 	0.0276587 	0.0276587 	0 	
0.00105551 	2.08627e-08 	0.92 	0.04 	0.04 	0.0291658 	
2.15425e-08 	0.0276587 	0.0276587 	0 	
0.00110913 	2.08627e-08 	0.92 	0.04 	0.04 	0.0291658 	
2.15425e-08 	0.0276587 	0.0276587 	0 	
0.00116276 	2.08627e-08 	0.92 	0.04 	0.04 	0.0291657 	
2.15425e-08 	0.0276587 	0.0276587 	0 	
0.00121638 	2.08627e-08 	0.92 	0.04 	0.04 	0.0291657 	
2.15425e-08 	0.0276587 	0.0276587 	0 	
0.00127 	1.97049e-08 	0.92 	0.04 	0.04 	0.0291656 	
2.15425e-08 	0.0276587 	0.0276587 	0 	
ZONE T = "t = 1.1633e-06 [s]" I = 10 SOLUTIONTIME = 1.1633007812500E-06
0.0007874 	2.08627e-08 	0.92 	0.04 	0.04 	0.0291661 	
3.21754e-08 	0.0276587 	0.0276587 	0 	
0.000841022 	2.08627e-08 	0.92 	0.04 	0.04 	0.029166 	
3.21754e-08 	0.0276587 	0.0276587 	0 	
0.000894644 	2.08627e-08 	0.92 	0.04 	0.04 	0.029166 	
3.21754e-08 	0.0276587 	0.0276587 	0 	
0.000948267 	2.08627e-08 	0.92 	0.04 	0.04 	0.0291659 	
3.21754e-08 	0.0276587 	0.0276587 	0 	
0.00100189 	2.08627e-08 	0.92 	0.04 	0.04 	0.0291659 	
3.21754e-08 	0.0276587 	0.0276587 	0 	
0.00105551 	2.08627e-08 	0.92 	0.04 	0.04 	0.0291658 	
3.21754e-08 	0.0276587 	0.0276587 	0 	
0.00110913 	2.08627e-08 	0.92 	0.04 	0.04 	0.0291658 	
3.21754e-08 	0.0276587 	0.0276587 	0 	
0.00116276 	2.08627e-08 	0.92 	0.04 	0.04 	0.0291657 	
3.21754e-08 	0.0276587 	0.0276587 	0 	
0.00121638 	2.08628e-08 	0.92 	0.04 	0.04 	0.0291657 	
3.21754e-08 	0.0276587 	0.0276587 	0 	
0.00127 	1.9705e-08 	0.92 	0.04 	0.04 	0.0291656 	
3.21754e-08 	0.0276587 	0.0276587 	0 	
ZONE T = "t = 1.73995e-06 [s]" I = 10 SOLUTIONTIME = 1.7399511718750E-06
0.0007874 	2.08626e-08 	0.92 	0.04 	0.04 	0.0291661 	
4.81248e-08 	0.0276587 	0.0276587 	0 	
0.000841022 	2.08626e-08 	0.92 	0.04 	0.04 	0.029166 	
4.81248e-08 	0.0276587 	0.0276587 	0 	
0.000894644 	2.08626e-08 	0.92 	0.04 	0.04 	0.029166 	
4.81248e-08 	0.0276587 	0.0276587 	0 	
0.000948267 	2.08626e-08 	0.92 	0.04 	0.04 	0.0291659 	
4.81248e-08 	0.0276587 	0.0276587 	0 	
0.00100189 	2.08626e-08 	0.92 	0.04 	0.04 	0.0291659 	
4.81248e-08 	0.0276587 	0.0276587 	0 	
0.00105551 	2.08626e-08 	0.92 	0.04 	0.04 	0.0291658 	
4.81248e-08 	0.0276587 	0.0276587 	0 	
0.00110913 	2.08626e-08 	0.92 	0.04 	0.04 	0.0291658 	
4.81248e-08 	0.0276587 	0.0276587 	0 	
0.00116276 	2.08626e-08 	0.92 	0.04 	0.04 	0.0291657 	
4.81248e-08 	0.0276587 	0.0276587 	0 	
0.00121638 	2.08626e-08 	0.92 	0.04 	0.04 	0.0291657 	
4.81248e-08 	0.0276587 	0.0276587 	0 	
0.00127 	1.97048e-08 	0.92 	0.04 	0.04 	0.0291656 	
4.81248e-08 	0.0276587 	0.0276587 	0 	
ZONE T = "t = 2.60493e-06 [s]" I = 10 SOLUTIONTIME = 2.6049267578125E-06
0.0007874 	2.08627e-08 	0.92 	0.04 	0.04 	0.0291661 	
7.20489e-08 	0.0276587 	0.0276587 	0 	
0.000841022 	2.08627e-08 	0.92 	0.04 	0.04 	0.029166 	
7.20489e-08 	0.0276587 	0.0276587 	0 	
0.000894644 	2.08627e-08 	0.92 	0.04 	0.04 	0.029166 	
7.20489e-08 	0.0276587 	0.0276587 	0 	
0.000948267 	2.08627e-08 	0.92 	0.04 	0.04 	0.0291659 	
7.20489e-08 	0.0276587 	0.0276587 	0 	
0.00100189 	2.08627e-08 	0.92 	0.04 	0.04 	0.0291659 	
7.20489e-08 	0.0276587 	0.0276587 	0 	
0.00105551 	2.08627e-08 	0.92 	0.04 	0.04 	0.0291658 	
7.20489e-08 	0.0276587 	0.0276587 	0 	
0.00110913 	2.08627e-08 	0.92 	0.04 	0.04 	0.0291658 	
7.20489e-08 	0.0276587 	0.0276587 	0 	
0.00116276 	2.08626e-08 	0.92 	0.04 	0.04 	0.0291657 	
7.20489e-08 	0.0276587 	0.0276587 	0 	
0.00121638 	2.08627e-08 	0.92 	0.04 	0.04 	0.0291657 	
7.20489e-08 	0.0276587 	0.0276587 	0 	
0.00127 	1.97049e-08 	0.92 	0.04 	0.04 	0.0291656 	
7.20489e-08 	0.0276587 	0.0276587 	0 	
ZONE T = "t = 3.90239e-06 [s]" I = 10 SOLUTIONTIME = 3.9023901367188E-06
0.0007874 	2.08627e-08 	0.92 	0.04 	0.04 	0.029166 	
1.07935e-07 	0.0276586 	0.0276586 	0 	
0.000841022 	2.08627e-08 	0.92 	0.04 	0.04 	0.029166 	
1.07935e-07 	0.0276586 	0.0276586 	0 	
0.000894644 	2.08627e-08 	0.92 	0.04 	0.04 	0.0291659 	
1.07935e-07 	0.0276586 	0.0276586 	0 	
0.000948267 	2.08627e-08 	0.92 	0.04 	0.04 	0.0291659 	
1.07935e-07 	0.0276586 	0.0276586 	0 	
0.00100189 	2.08627e-08 	0.92 	0.04 	0.04 	0.0291658 	
1.07935e-07 	0.0276586 	0.0276586 	0 	
0.00105551 	2.08627e-08 	0.92 	0.04 	0.04 	0.0291658 	
1.07935e-07 	0.0276586 	0.0276586 	0 	
0.00110913 	2.08627e-08 	0.92 	0.04 	0.04 	0.0291657 	
1.07935e-07 	0.0276586 	0.0276586 	0 	
0.00116276 	2.08627e-08 	0.92 	0.04 	0.04 	0.0291657 	
1.07935e-07 	0.0276586 	0.0276586 	0 	
0.00121638 	2.08627e-08 	0.92 	0.04 	0.04 	0.0291656 	
1.07935e-07 	0.0276586 	0.0276586 	0 	
0.00127 	1.97049e-08 	0.92 	0.04 	0.04 	0.0291656 	
1.07935e-07 	0.0276586 	0.0276586 	0 	
ZONE T = "t = 5.84859e-06 [s]" I = 10 SOLUTIONTIME = 5.8485852050781E-06
0.0007874 	2.08626e-08 	0.92 	0.04 	0.04 	0.029166 	
1.61764e-07 	0.0276586 	0.0276586 	0 	
0.000841022 	2.08626e-08 	0.92 	0.04 	0.04 	0.0291659 	
1.61764e-07 	0.0276586 	0.0276586 	0 	
0.000894644 	2.08626e-08 	0.92 	0.04 	0.04 	0.0291659 	
1.61764e-07 	0.0276586 	0.0276586 	0 	
0.000948267 	2.08626e-08 	0.92 	0.04 	0.04 	0.0291658 	
1.61764e-07 	0.0276586 	0.0276586 	0 	
0.00100189 	2.08626e-08 	0.92 	0.04 	0.04 	0.0291658 	
1.61764e-07 	0.0276586 	0.0276586 	0 	
0.00105551 	2.08626e-08 	0.92 	0.04 	0.04 	0.0291657 	
1.61764e-07 	0.0276586 	0.0276586 	0 	
0.00110913 	2.08626e-08 	0.92 	0.04 	0.04 	0.0291657 	
1.61764e-07 	0.0276586 	0.0276586 	0 	
0.00116276 	2.08626e-08 	0.92 	0.04 	0.04 	0.0291656 	
1.61764e-07 	0.0276586 	0.0276586 	0 	
0.00121638 	2.08626e-08 	0.92 	0.04 	0.04 	0.0291656 	
1.61764e-07 	0.0276586 	0.0276586 	0 	
0.00127 	1.97049e-08 	0.92 	0.04 	0.04 	0.0291656 	
1.61764e-07 	0.0276586 	0.0276586 	0 	
ZONE T = "t = 8.76788e-06 [s]" I = 10 SOLUTIONTIME = 8.7678778076172E-06
0.0007874 	2.08626e-08 	0.92 	0.04 	0.04 	0.0291659 	
2.42507e-07 	0.0276585 	0.0276585 	0 	
0.000841022 	2.08626e-08 	0.92 	0.04 	0.04 	0.0291659 	
2.42507e-07 	0.0276585 	0.0276585 	0 	
0.000894644 	2.08626e-08 	0.92 	0.04 	0.04 	0.0291658 	
2.42507e-07 	0.0276585 	0.0276585 	0 	
0.000948267 	2.08626e-08 	0.92 	0.04 	0.04 	0.0291658 	
2.42507e-07 	0.0276585 	0.0276585 	0 	
0.00100189 	2.08626e-08 	0.92 	0.04 	0.04 	0.0291657 	
2.42507e-07 	0.0276585 	0.0276585 	0 	
0.00105551 	2.08626e-08 	0.92 	0.04 	0.04 	0.0291657 	
2.42507e-07 	0.0276585 	0.0276585 	0 	
0.00110913 	2.08626e-08 	0.92 	0.04 	0.04 	0.0291656 	
2.42507e-07 	0.0276585 	0.0276585 	0 	
0.00116276 	2.08626e-08 	0.92 	0.04 	0.04 	0.0291656 	
2.42507e-07 	0.0276585 	0.0276585 	0 	
0.00121638 	2.08626e-08 	0.92 	0.04 	0.04 	0.0291655 	
2.42507e-07 	0.0276585 	0.0276585 	0 	
0.00127 	1.97049e-08 	0.92 	0.04 	0.04 	0.0291655 	
2.42507e-07 	0.0276585 	0.0276585 	0 	
ZONE T = "t = 1.31468e-05 [s]" I = 10 SOLUTIONTIME = 1.3146816711426E-05
0.0007874 	2.08625e-08 	0.92 	0.04 	0.04 	0.0291659 	
3.63621e-07 	0.0276583 	0.0276583 	0 	
0.000841022 	2.08625e-08 	0.92 	0.04 	0.04 	0.0291658 	
3.63621e-07 	0.0276583 	0.0276583 	0 	
0.000894644 	2.08625e-08 	0.92 	0.04 	0.04 	0.0291658 	
3.63621e-07 	0.0276583 	0.0276583 	0 	
0.000948267 	2.08625e-08 	0.92 	0.04 	0.04 	0.0291657 	
3.63621e-07 	0.0276583 	0.0276583 	0 	
0.00100189 	2.08625e-08 	0.92 	0.04 	0.04 	0.0291657 	
3.63621e-07 	0.0276583 	0.0276583 	0 	
0.00105551 	2.08625e-08 	0.92 	0.04 	0.04 	0.0291656 	
3.63621e-07 	0.0276583 	0.0276583 	0 	
0.00110913 	2.08625e-08 	0.92 	0.04 	0.04 	0.0291656 	
3.63621e-07 	0.0276583 	0.0276583 	0 	
0.00116276 	2.08625e-08 	0.92 	0.04 	0.04 	0.0291655 	
3.63621e-07 	0.0276583 	0.0276583 	0 	
0.00121638 	2.08625e-08 	0.92 	0.04 	0.04 	0.0291655 	
3.63621e-07 	0.0276583 	0.0276583 	0 	
0.00127 	1.97048e-08 	0.92 	0.04 	0.04 	0.0291654 	
3.63621e-07 	0.0276583 	0.0276583 	0 	
ZONE T = "t = 1.97152e-05 [s]" I = 10 SOLUTIONTIME = 1.9715225067139E-05
0.0007874 	2.08624e-08 	0.92 	0.04 	0.04 	0.0291657 	
5.45291e-07 	0.0276581 	0.0276581 	0 	
0.000841022 	2.08624e-08 	0.92 	0.04 	0.04 	0.0291657 	
5.45291e-07 	0.0276581 	0.0276581 	0 	
0.000894644 	2.08624e-08 	0.92 	0.04 	0.04 	0.0291656 	
5.45291e-07 	0.0276581 	0.0276581 	0 	
0.000948267 	2.08624e-08 	0.92 	0.04 	0.04 	0.0291656 	
5.45291e-07 	0.0276581 	0.0276581 	0 	
0.00100189 	2.08624e-08 	0.92 	0.04 	0.04 	0.0291655 	
5.45291e-07 	0.0276581 	0.0276581 	0 	
0.00105551 	2.08624e-08 	0.92 	0.04 	0.04 	0.0291655 	
5.45291e-07 	0.0276581 	0.0276581 	0 	
0.00110913 	2.08624e-08 	0.92 	0.04 	0.04 	0.0291655 	
5.45291e-07 	0.0276581 	0.0276581 	0 	
0.00116276 	2.08624e-08 	0.92 	0.04 	0.04 	0.0291654 	
5.45291e-07 	0.0276581 	0.0276581 	0 	
0.00121638 	2.08624e-08 	0.92 	0.04 	0.04 	0.0291654 	
5.45291e-07 	0.0276581 	0.0276581 	0 	
0.00127 	1.97047e-08 	0.92 	0.04 	0.04 	0.0291653 	
5.45291e-07 	0.0276581 	0.0276581 	0 	
ZONE T = "t = 2.95678e-05 [s]" I = 10 SOLUTIONTIME = 2.9567837600708E-05
0.0007874 	2.08623e-08 	0.92 	0.04 	0.04 	0.0291656 	
8.17791e-07 	0.0276577 	0.0276577 	0 	
0.000841022 	2.08623e-08 	0.92 	0.04 	0.04 	0.0291655 	
8.17791e-07 	0.0276577 	0.0276577 	0 	
0.000894644 	2.08623e-08 	0.92 	0.04 	0.04 	0.0291655 	
8.17791e-07 	0.0276577 	0.0276577 	0 	
0.000948267 	2.08623e-08 	0.92 	0.04 	0.04 	0.0291654 	
8.17791e-07 	0.0276577 	0.0276577 	0 	
0.00100189 	2.08623e-08 	0.92 	0.04 	0.04 	0.0291654 	
8.17791e-07 	0.0276577 	0.0276577 	0 	
0.00105551 	2.08623e-08 	0.92 	0.04 	0.04 	0.0291653 	
8.17791e-07 	0.0276577 	0.0276577 	0 	
0.00110913 	2.08623e-08 	0.92 	0.04 	0.04 	0.0291653 	
8.17791e-07 	0.0276577 	0.0276577 	0 	
0.00116276 	2.08623e-08 	0.92 	0.04 	0.04 	0.0291652 	
8.17791e-07 	0.0276577 	0.0276577 	0 	
0.00121638 	2.08623e-08 	0.92 	0.04 	0.04 	0.0291652 	
8.17791e-07 	0.0276577 	0.0276577 	0 	
0.00127 	1.97046e-08 	0.92 	0.04 	0.04 	0.0291651 	
8.17791e-07 	0.0276577 	0.0276577 	0 	
ZONE T = "t = 4.43468e-05 [s]" I = 10 SOLUTIONTIME = 4.4346756401062E-05
0.0007874 	2.08621e-08 	0.92 	0.04 	0.04 	0.0291653 	
1.22654e-06 	0.0276572 	0.0276572 	0 	
0.000841022 	2.08621e-08 	0.92 	0.04 	0.04 	0.0291653 	
1.22654e-06 	0.0276572 	0.0276572 	0 	
0.000894644 	2.08621e-08 	0.92 	0.04 	0.04 	0.0291652 	
1.22654e-06 	0.0276572 	0.0276572 	0 	
0.000948267 	2.08621e-08 	0.92 	0.04 	0.04 	0.0291652 	
1.22654e-06 	0.0276572 	0.0276572 	0 	
0.00100189 	2.08621e-08 	0.92 	0.04 	0.04 	0.0291651 	
1.22654e-06 	0.0276572 	0.0276572 	0 	
0.00105551 	2.08621e-08 	0.92 	0.04 	0.04 	0.0291651 	
1.22654e-06 	0.0276572 	0.0276572 	0 	
0.00110913 	2.08621e-08 	0.92 	0.04 	0.04 	0.029165 	
1.22654e-06 	0.0276572 	0.0276572 	0 	
0.00116276 	2.08621e-08 	0.92 	0.04 	0.04 	0.029165 	
1.22654e-06 	0.0276572 	0.0276572 	0 	
0.00121638 	2.08621e-08 	0.92 	0.04 	0.04 	0.0291649 	
1.22654e-06 	0.0276572 	0.0276572 	0 	
0.00127 	1.97044e-08 	0.92 	0.04 	0.04 	0.0291649 	
1.22654e-06 	0.0276572 	0.0276572 	0 	
ZONE T = "t = 6.65151e-05 [s]" I = 10 SOLUTIONTIME = 6.6515134601593E-05
0.0007874 	2.08618e-08 	0.92 	0.04 	0.04 	0.0291649 	
1.83963e-06 	0.0276564 	0.0276564 	0 	
0.000841022 	2.08618e-08 	0.92 	0.04 	0.04 	0.0291649 	
1.83963e-06 	0.0276564 	0.0276564 	0 	
0.000894644 	2.08618e-08 	0.92 	0.04 	0.04 	0.0291648 	
1.83963e-06 	0.0276564 	0.0276564 	0 	
0.000948267 	2.08618e-08 	0.92 	0.04 	0.04 	0.0291648 	
1.83963e-06 	0.0276564 	0.0276564 	0 	
0.00100189 	2.08618e-08 	0.92 	0.04 	0.04 	0.0291647 	
1.83963e-06 	0.0276564 	0.0276564 	0 	
0.00105551 	2.08618e-08 	0.92 	0.04 	0.04 	0.0291647 	
1.83963e-06 	0.0276564 	0.0276564 	0 	
0.00110913 	2.08618e-08 	0.92 	0.04 	0.04 	0.0291646 	
1.83963e-06 	0.0276564 	0.0276564 	0 	
0.00116276 	2.08618e-08 	0.92 	0.04 	0.04 	0.0291646 	
1.83963e-06 	0.0276564 	0.0276564 	0 	
0.00121638 	2.08618e-08 	0.92 	0.04 	0.04 	0.0291645 	
1.83963e-06 	0.0276564 	0.0276564 	0 	
0.00127 	1.97041e-08 	0.92 	0.04 	0.04 	0.0291645 	
1.83963e-06 	0.0276564 	0.0276564 	0 	
ZONE T = "t = 9.97677e-05 [s]" I = 10 SOLUTIONTIME = 9.9767701902390E-05
0.0007874 	2.08614e-08 	0.92 	0.04 	0.04 	0.0291643 	
2.75924e-06 	0.0276553 	0.0276553 	0 	
0.000841022 	2.08614e-08 	0.92 	0.04 	0.04 	0.0291643 	
2.75924e-06 	0.0276553 	0.0276553 	0 	
0.000894644 	2.08614e-08 	0.92 	0.04 	0.04 	0.0291642 	
2.75924e-06 	0.0276553 	0.0276553 	0 	
0.000948267 	2.08614e-08 	0.92 	0.04 	0.04 	0.0291642 	
2.75924e-06 	0.0276553 	0.0276553 	0 	
0.00100189 	2.08614e-08 	0.92 	0.04 	0.04 	0.0291641 	
2.75924e-06 	0.0276553 	0.0276553 	0 	
0.00105551 	2.08614e-08 	0.92 	0.04 	0.04 	0.0291641 	
2.75924e-06 	0.0276553 	0.0276553 	0 	
0.00110913 	2.08614e-08 	0.92 	0.04 	0.04 	0.029164 	
2.75924e-06 	0.0276553 	0.0276553 	0 	
0.00116276 	2.08614e-08 	0.92 	0.04 	0.04 	0.029164 	
2.75924e-06 	0.0276553 	0.0276553 	0 	
0.00121638 	2.08614e-08 	0.92 	0.04 	0.04 	0.0291639 	
2.75924e-06 	0.0276553 	0.0276553 	0 	
0.00127 	1.97037e-08 	0.92 	0.04 	0.04 	0.0291639 	
2.75924e-06 	0.0276553 	0.0276553 	0 	
ZONE T = "t = 0.000149647 [s]" I = 10 SOLUTIONTIME = 1.4964655285358E-04
0.0007874 	2.08607e-08 	0.92 	0.04 	0.04 	0.0291634 	
4.13857e-06 	0.0276535 	0.0276535 	0 	
0.000841022 	2.08607e-08 	0.92 	0.04 	0.04 	0.0291634 	
4.13857e-06 	0.0276535 	0.0276535 	0 	
0.000894644 	2.08607e-08 	0.92 	0.04 	0.04 	0.0291633 	
4.13857e-06 	0.0276535 	0.0276535 	0 	
0.000948267 	2.08607e-08 	0.92 	0.04 	0.04 	0.0291633 	
4.13857e-06 	0.0276535 	0.0276535 	0 	
0.00100189 	2.08607e-08 	0.92 	0.04 	0.04 	0.0291632 	
4.13857e-06 	0.0276535 	0.0276535 	0 	
0.00105551 	2.08607e-08 	0.92 	0.04 	0.04 	0.0291632 	
4.13857e-06 	0.0276535 	0.0276535 	0 	
0.00110913 	2.08607e-08 	0.92 	0.04 	0.04 	0.0291631 	
4.13857e-06 	0.0276535 	0.0276535 	0 	
0.00116276 	2.08607e-08 	0.92 	0.04 	0.04 	0.0291631 	
4.13857e-06 	0.0276535 	0.0276535 	0 	
0.00121638 	2.08607e-08 	0.92 	0.04 	0.04 	0.029163 	
4.13857e-06 	0.0276535 	0.0276535 	0 	
0.00127 	1.97031e-08 	0.92 	0.04 	0.04 	0.029163 	
4.13857e-06 	0.0276535 	0.0276535 	0 	
ZONE T = "t = 0.000224465 [s]" I = 10 SOLUTIONTIME = 2.2446482928038E-04
0.0007874 	2.08597e-08 	0.92 	0.04 	0.04 	0.0291621 	
6.20736e-06 	0.0276509 	0.0276509 	0 	
0.000841022 	2.08597e-08 	0.92 	0.04 	0.04 	0.029162 	
6.20736e-06 	0.0276509 	0.0276509 	0 	
0.000894644 	2.08597e-08 	0.92 	0.04 	0.04 	0.029162 	
6.20736e-06 	0.0276509 	0.0276509 	0 	
0.000948267 	2.08597e-08 	0.92 	0.04 	0.04 	0.0291619 	
6.20736e-06 	0.0276509 	0.0276509 	0 	
0.00100189 	2.08597e-08 	0.92 	0.04 	0.04 	0.0291619 	
6.20736e-06 	0.0276509 	0.0276509 	0 	
0.00105551 	2.08597e-08 	0.92 	0.04 	0.04 	0.0291618 	
6.20736e-06 	0.0276509 	0.0276509 	0 	
0.00110913 	2.08597e-08 	0.92 	0.04 	0.04 	0.0291618 	
6.20736e-06 	0.0276509 	0.0276509 	0 	
0.00116276 	2.08597e-08 	0.92 	0.04 	0.04 	0.0291617 	
6.20736e-06 	0.0276509 	0.0276509 	0 	
0.00121638 	2.08597e-08 	0.92 	0.04 	0.04 	0.0291617 	
6.20736e-06 	0.0276509 	0.0276509 	0 	
0.00127 	1.97022e-08 	0.92 	0.04 	0.04 	0.0291616 	
6.20736e-06 	0.0276509 	0.0276509 	0 	
ZONE T = "t = 0.000336692 [s]" I = 10 SOLUTIONTIME = 3.3669224392056E-04
0.0007874 	2.08583e-08 	0.92 	0.04 	0.04 	0.0291601 	
9.31011e-06 	0.027647 	0.027647 	0 	
0.000841022 	2.08583e-08 	0.92 	0.04 	0.04 	0.02916 	
9.31011e-06 	0.027647 	0.027647 	0 	
0.000894644 	2.08583e-08 	0.92 	0.04 	0.04 	0.02916 	
9.31011e-06 	0.027647 	0.027647 	0 	
0.000948267 	2.08583e-08 	0.92 	0.04 	0.04 	0.0291599 	
9.31011e-06 	0.027647 	0.027647 	0 	
0.00100189 	2.08583e-08 	0.92 	0.04 	0.04 	0.0291599 	
9.31011e-06 	0.027647 	0.027647 	0 	
0.00105551 	2.08583e-08 	0.92 	0.04 	0.04 	0.0291598 	
9.31011e-06 	0.027647 	0.027647 	0 	
0.00110913 	2.08583e-08 	0.92 	0.04 	0.04 	0.0291598 	
9.31011e-06 	0.027647 	0.027647 	0 	
0.00116276 	2.08583e-08 	0.92 	0.04 	0.04 	0.0291597 	
9.31011e-06 	0.027647 	0.027647 	0 	
0.00121638 	2.08583e-08 	0.92 	0.04 	0.04 	0.0291597 	
9.31012e-06 	0.027647 	0.027647 	0 	
0.00127 	1.97008e-08 	0.92 	0.04 	0.04 	0.0291596 	
9.31012e-06 	0.027647 	0.027647 	0 	
ZONE T = "t = 0.000505033 [s]" I = 10 SOLUTIONTIME = 5.0503336588085E-04
0.0007874 	2.0856e-08 	0.92 	0.04 	0.04 	0.0291571 	
1.39633e-05 	0.0276411 	0.0276411 	0 	
0.000841022 	2.0856e-08 	0.92 	0.04 	0.04 	0.029157 	
1.39633e-05 	0.0276411 	0.0276411 	0 	
0.000894644 	2.0856e-08 	0.92 	0.04 	0.04 	0.029157 	
1.39633e-05 	0.0276411 	0.0276411 	0 	
0.000948267 	2.0856e-08 	0.92 	0.04 	0.04 	0.0291569 	
1.39633e-05 	0.0276411 	0.0276411 	0 	
0.00100189 	2.0856e-08 	0.92 	0.04 	0.04 	0.0291569 	
1.39633e-05 	0.0276411 	0.0276411 	0 	
0.00105551 	2.0856e-08 	0.92 	0.04 	0.04 	0.0291568 	
1.39633e-05 	0.0276411 	0.0276411 	0 	
0.00110913 	2.0856e-08 	0.92 	0.04 	0.04 	0.0291568 	
1.39633e-05 	0.0276411 	0.0276411 	0 	
0.00116276 	2.0856e-08 	0.92 	0.04 	0.04 	0.0291567 	
1.39633e-05 	0.0276411 	0.0276411 	0 	
0.00121638 	2.0856e-08 	0.92 	0.04 	0.04 	0.0291567 	
1.39633e-05 	0.0276411 	0.0276411 	0 	
0.00127 	1.96987e-08 	0.92 	0.04 	0.04 	0.0291566 	
1.39633e-05 	0.0276411 	0.0276411 	0 	
ZONE T = "t = 0.000757545 [s]" I = 10 SOLUTIONTIME = 7.5754504882127E-04
0.0007874 	2.08527e-08 	0.92 	0.04 	0.04 	0.0291526 	
2.09407e-05 	0.0276323 	0.0276323 	0 	
0.000841022 	2.08527e-08 	0.92 	0.04 	0.04 	0.0291525 	
2.09407e-05 	0.0276323 	0.0276323 	0 	
0.000894644 	2.08527e-08 	0.92 	0.04 	0.04 	0.0291525 	
2.09407e-05 	0.0276323 	0.0276323 	0 	
0.000948267 	2.08527e-08 	0.92 	0.04 	0.04 	0.0291524 	
2.09407e-05 	0.0276323 	0.0276323 	0 	
0.00100189 	2.08527e-08 	0.92 	0.04 	0.04 	0.0291524 	
2.09407e-05 	0.0276323 	0.0276323 	0 	
0.00105551 	2.08527e-08 	0.92 	0.04 	0.04 	0.0291523 	
2.09407e-05 	0.0276323 	0.0276323 	0 	
0.00110913 	2.08527e-08 	0.92 	0.04 	0.04 	0.0291523 	
2.09407e-05 	0.0276323 	0.0276323 	0 	
0.00116276 	2.08527e-08 	0.92 	0.04 	0.04 	0.0291522 	
2.09407e-05 	0.0276323 	0.0276323 	0 	