TITLE = "Solution on Domain BulkDomain1D_1"
VARIABLES = "x [m]"  
"Vel_axial(0)" 	"MF_sp(ECDMC)" 	"MF_sp(Li+)" 	"MF_sp(PF6-)" 	"Volt(Electroly)" 	"qHeat_accum [J/m3]" 	"qHeat_step [W/m3]" 	"Joule_Lyte [W/m3]" 	"Joule_Solid [W/m3]" 	
ZONE T = "t = 0 [s]" I = 10 SOLUTIONTIME = 0.0000000000000E+00
0.0007874 	0 	0.92 	0.04 	0.04 	-0.07 	
0 	0.0 	 0.0 	 0.0 	 
0.000841022 	0 	0.92 	0.04 	0.04 	-0.07 	
0 	0.0 	 0.0 	 0.0 	 
0.000894644 	0 	0.92 	0.04 	0.04 	-0.07 	
0 	0.0 	 0.0 	 0.0 	 
0.000948267 	0 	0.92 	0.04 	0.04 	-0.07 	
0 	0.0 	 0.0 	 0.0 	 
0.00100189 	0 	0.92 	0.04 	0.04 	-0.07 	
0 	0.0 	 0.0 	 0.0 	 
0.00105551 	0 	0.92 	0.04 	0.04 	-0.07 	
0 	0.0 	 0.0 	 0.0 	 
0.00110913 	0 	0.92 	0.04 	0.04 	-0.07 	
0 	0.0 	 0.0 	 0.0 	 
0.00116276 	0 	0.92 	0.04 	0.04 	-0.07 	
0 	0.0 	 0.0 	 0.0 	 
0.00121638 	0 	0.92 	0.04 	0.04 	-0.07 	
0 	0.0 	 0.0 	 0.0 	 
0.00127 	0 	0.92 	0.04 	0.04 	-0.07 	
0 	0.0 	 0.0 	 0.0 	 
ZONE T = "t = 1e-08 [s]" I = 10 SOLUTIONTIME = 1.0000000000000E-08
0.0007874 	3.56708e-08 	0.92 	0.04 	0.04 	0.0211481 	
0 	0 	0 	0 	
0.000841022 	3.56708e-08 	0.92 	0.04 	0.04 	0.021148 	
0 	0 	0 	0 	
0.000894644 	3.56708e-08 	0.92 	0.04 	0.04 	0.0211479 	
0 	0 	0 	0 	
0.000948267 	3.56708e-08 	0.92 	0.04 	0.04 	0.0211478 	
0 	0 	0 	0 	
0.00100189 	3.56708e-08 	0.92 	0.04 	0.04 	0.0211477 	
0 	0 	0 	0 	
0.00105551 	3.56708e-08 	0.92 	0.04 	0.04 	0.0211477 	
0 	0 	0 	0 	
0.00110913 	3.56708e-08 	0.92 	0.04 	0.04 	0.0211476 	
0 	0 	0 	0 	
0.00116276 	3.56708e-08 	0.92 	0.04 	0.04 	0.0211475 	
0 	0 	0 	0 	
0.00121638 	3.56708e-08 	0.92 	0.04 	0.04 	0.0211474 	
0 	0 	0 	0 	
0.00127 	3.36921e-08 	0.92 	0.04 	0.04 	0.0211473 	
0 	0 	0 	0 	
ZONE T = "t = 2e-08 [s]" I = 10 SOLUTIONTIME = 2.0000000000000E-08
0.0007874 	2.08701e-08 	0.92 	0.04 	0.04 	0.029162 	
0 	0 	0 	0 	
0.000841022 	2.08701e-08 	0.92 	0.04 	0.04 	0.0291619 	
0 	0 	0 	0 	
0.000894644 	2.08701e-08 	0.92 	0.04 	0.04 	0.0291619 	
0 	0 	0 	0 	
0.000948267 	2.08701e-08 	0.92 	0.04 	0.04 	0.0291618 	
0 	0 	0 	0 	
0.00100189 	2.08701e-08 	0.92 	0.04 	0.04 	0.0291618 	
0 	0 	0 	0 	
0.00105551 	2.08701e-08 	0.92 	0.04 	0.04 	0.0291617 	
0 	0 	0 	0 	
0.00110913 	2.08701e-08 	0.92 	0.04 	0.04 	0.0291617 	
0 	0 	0 	0 	
0.00116276 	2.08701e-08 	0.92 	0.04 	0.04 	0.0291616 	
0 	0 	0 	0 	
0.00121638 	2.08701e-08 	0.92 	0.04 	0.04 	0.0291616 	
0 	0 	0 	0 	
0.00127 	1.97117e-08 	0.92 	0.04 	0.04 	0.0291615 	
0 	0 	0 	0 	
ZONE T = "t = 3e-08 [s]" I = 10 SOLUTIONTIME = 3.0000000000000E-08
0.0007874 	2.08701e-08 	0.92 	0.04 	0.04 	0.029162 	
0 	0 	0 	0 	
0.000841022 	2.08701e-08 	0.92 	0.04 	0.04 	0.0291619 	
0 	0 	0 	0 	
0.000894644 	2.08701e-08 	0.92 	0.04 	0.04 	0.0291619 	
0 	0 	0 	0 	
0.000948267 	2.08701e-08 	0.92 	0.04 	0.04 	0.0291618 	
0 	0 	0 	0 	
0.00100189 	2.08701e-08 	0.92 	0.04 	0.04 	0.0291618 	
0 	0 	0 	0 	
0.00105551 	2.08701e-08 	0.92 	0.04 	0.04 	0.0291617 	
0 	0 	0 	0 	
0.00110913 	2.08701e-08 	0.92 	0.04 	0.04 	0.0291617 	
0 	0 	0 	0 	
0.00116276 	2.08701e-08 	0.92 	0.04 	0.04 	0.0291616 	
0 	0 	0 	0 	
0.00121638 	2.08701e-08 	0.92 	0.04 	0.04 	0.0291616 	
0 	0 	0 	0 	
0.00127 	1.97117e-08 	0.92 	0.04 	0.04 	0.0291615 	
0 	0 	0 	0 	
ZONE T = "t = 4e-08 [s]" I = 10 SOLUTIONTIME = 4.0000000000000E-08
0.0007874 	2.08701e-08 	0.92 	0.04 	0.04 	0.029162 	
0 	0 	0 	0 	
0.000841022 	2.08701e-08 	0.92 	0.04 	0.04 	0.0291619 	
0 	0 	0 	0 	
0.000894644 	2.08701e-08 	0.92 	0.04 	0.04 	0.0291619 	
0 	0 	0 	0 	
0.000948267 	2.08701e-08 	0.92 	0.04 	0.04 	0.0291618 	
0 	0 	0 	0 	
0.00100189 	2.08701e-08 	0.92 	0.04 	0.04 	0.0291618 	
0 	0 	0 	0 	
0.00105551 	2.08701e-08 	0.92 	0.04 	0.04 	0.0291617 	
0 	0 	0 	0 	
0.00110913 	2.08701e-08 	0.92 	0.04 	0.04 	0.0291617 	
0 	0 	0 	0 	
0.00116276 	2.08701e-08 	0.92 	0.04 	0.04 	0.0291616 	
0 	0 	0 	0 	
0.00121638 	2.08701e-08 	0.92 	0.04 	0.04 	0.0291616 	
0 	0 	0 	0 	
0.00127 	1.97117e-08 	0.92 	0.04 	0.04 	0.0291615 	
0 	0 	0 	0 	
ZONE T = "t = 5.5e-08 [s]" I = 10 SOLUTIONTIME = 5.5000000000000E-08
0.0007874 	2.08701e-08 	0.92 	0.04 	0.04 	0.029162 	
0 	0 	0 	0 	
0.000841022 	2.08701e-08 	0.92 	0.04 	0.04 	0.0291619 	
0 	0 	0 	0 	
0.000894644 	2.08701e-08 	0.92 	0.04 	0.04 	0.0291619 	
0 	0 	0 	0 	
0.000948267 	2.08701e-08 	0.92 	0.04 	0.04 	0.0291618 	
0 	0 	0 	0 	
0.00100189 	2.08701e-08 	0.92 	0.04 	0.04 	0.0291618 	
0 	0 	0 	0 	
0.00105551 	2.08701e-08 	0.92 	0.04 	0.04 	0.0291617 	
0 	0 	0 	0 	
0.00110913 	2.08701e-08 	0.92 	0.04 	0.04 	0.0291617 	
0 	0 	0 	0 	
0.00116276 	2.08701e-08 	0.92 	0.04 	0.04 	0.0291616 	
0 	0 	0 	0 	
0.00121638 	2.08701e-08 	0.92 	0.04 	0.04 	0.0291616 	
0 	0 	0 	0 	
0.00127 	1.97117e-08 	0.92 	0.04 	0.04 	0.0291615 	
0 	0 	0 	0 	
ZONE T = "t = 7.75e-08 [s]" I = 10 SOLUTIONTIME = 7.7500000000000E-08
0.0007874 	2.08701e-08 	0.92 	0.04 	0.04 	0.029162 	
0 	0 	0 	0 	
0.000841022 	2.08701e-08 	0.92 	0.04 	0.04 	0.0291619 	
0 	0 	0 	0 	
0.000894644 	2.08701e-08 	0.92 	0.04 	0.04 	0.0291619 	
0 	0 	0 	0 	
0.000948267 	2.08701e-08 	0.92 	0.04 	0.04 	0.0291618 	
0 	0 	0 	0 	
0.00100189 	2.08701e-08 	0.92 	0.04 	0.04 	0.0291618 	
0 	0 	0 	0 	
0.00105551 	2.08701e-08 	0.92 	0.04 	0.04 	0.0291617 	
0 	0 	0 	0 	
0.00110913 	2.08701e-08 	0.92 	0.04 	0.04 	0.0291617 	
0 	0 	0 	0 	
0.00116276 	2.08701e-08 	0.92 	0.04 	0.04 	0.0291616 	
0 	0 	0 	0 	
0.00121638 	2.08701e-08 	0.92 	0.04 	0.04 	0.0291616 	
0 	0 	0 	0 	
0.00127 	1.97117e-08 	0.92 	0.04 	0.04 	0.0291615 	
0 	0 	0 	0 	
ZONE T = "t = 1.1125e-07 [s]" I = 10 SOLUTIONTIME = 1.1125000000000E-07
0.0007874 	2.08701e-08 	0.92 	0.04 	0.04 	0.029162 	
0 	0 	0 	0 	
0.000841022 	2.08701e-08 	0.92 	0.04 	0.04 	0.0291619 	
0 	0 	0 	0 	
0.000894644 	2.08701e-08 	0.92 	0.04 	0.04 	0.0291619 	
0 	0 	0 	0 	
0.000948267 	2.08701e-08 	0.92 	0.04 	0.04 	0.0291618 	
0 	0 	0 	0 	
0.00100189 	2.08701e-08 	0.92 	0.04 	0.04 	0.0291618 	
0 	0 	0 	0 	
0.00105551 	2.08701e-08 	0.92 	0.04 	0.04 	0.0291617 	
0 	0 	0 	0 	
0.00110913 	2.08701e-08 	0.92 	0.04 	0.04 	0.0291617 	
0 	0 	0 	0 	
0.00116276 	2.08701e-08 	0.92 	0.04 	0.04 	0.0291616 	
0 	0 	0 	0 	
0.00121638 	2.08701e-08 	0.92 	0.04 	0.04 	0.0291616 	
0 	0 	0 	0 	
0.00127 	1.97117e-08 	0.92 	0.04 	0.04 	0.0291615 	
0 	0 	0 	0 	
ZONE T = "t = 1.61875e-07 [s]" I = 10 SOLUTIONTIME = 1.6187500000000E-07
0.0007874 	2.08701e-08 	0.92 	0.04 	0.04 	0.029162 	
0 	0 	0 	0 	
0.000841022 	2.08701e-08 	0.92 	0.04 	0.04 	0.0291619 	
0 	0 	0 	0 	
0.000894644 	2.08701e-08 	0.92 	0.04 	0.04 	0.0291619 	
0 	0 	0 	0 	
0.000948267 	2.08701e-08 	0.92 	0.04 	0.04 	0.0291618 	
0 	0 	0 	0 	
0.00100189 	2.08701e-08 	0.92 	0.04 	0.04 	0.0291618 	
0 	0 	0 	0 	
0.00105551 	2.08701e-08 	0.92 	0.04 	0.04 	0.0291617 	
0 	0 	0 	0 	
0.00110913 	2.08701e-08 	0.92 	0.04 	0.04 	0.0291617 	
0 	0 	0 	0 	
0.00116276 	2.08701e-08 	0.92 	0.04 	0.04 	0.0291616 	
0 	0 	0 	0 	
0.00121638 	2.08701e-08 	0.92 	0.04 	0.04 	0.0291616 	
0 	0 	0 	0 	
0.00127 	1.97117e-08 	0.92 	0.04 	0.04 	0.0291615 	
0 	0 	0 	0 	
ZONE T = "t = 2.37813e-07 [s]" I = 10 SOLUTIONTIME = 2.3781250000000E-07
0.0007874 	2.08701e-08 	0.92 	0.04 	0.04 	0.029162 	
0 	0 	0 	0 	
0.000841022 	2.08701e-08 	0.92 	0.04 	0.04 	0.0291619 	
0 	0 	0 	0 	
0.000894644 	2.08701e-08 	0.92 	0.04 	0.04 	0.0291619 	
0 	0 	0 	0 	
0.000948267 	2.08701e-08 	0.92 	0.04 	0.04 	0.0291618 	
0 	0 	0 	0 	
0.00100189 	2.08701e-08 	0.92 	0.04 	0.04 	0.0291618 	
0 	0 	0 	0 	
0.00105551 	2.08701e-08 	0.92 	0.04 	0.04 	0.0291617 	
0 	0 	0 	0 	
0.00110913 	2.08701e-08 	0.92 	0.04 	0.04 	0.0291617 	
0 	0 	0 	0 	
0.00116276 	2.08701e-08 	0.92 	0.04 	0.04 	0.0291616 	
0 	0 	0 	0 	
0.00121638 	2.08701e-08 	0.92 	0.04 	0.04 	0.0291616 	
0 	0 	0 	0 	
0.00127 	1.97117e-08 	0.92 	0.04 	0.04 	0.0291615 	
0 	0 	0 	0 	
ZONE T = "t = 3.51719e-07 [s]" I = 10 SOLUTIONTIME = 3.5171875000000E-07
0.0007874 	2.08701e-08 	0.92 	0.04 	0.04 	0.029162 	
0 	0 	0 	0 	
0.000841022 	2.08701e-08 	0.92 	0.04 	0.04 	0.0291619 	
0 	0 	0 	0 	
0.000894644 	2.08701e-08 	0.92 	0.04 	0.04 	0.0291619 	
0 	0 	0 	0 	
0.000948267 	2.08701e-08 	0.92 	0.04 	0.04 	0.0291618 	
0 	0 	0 	0 	
0.00100189 	2.08701e-08 	0.92 	0.04 	0.04 	0.0291618 	
0 	0 	0 	0 	
0.00105551 	2.08701e-08 	0.92 	0.04 	0.04 	0.0291617 	
0 	0 	0 	0 	
0.00110913 	2.08701e-08 	0.92 	0.04 	0.04 	0.0291617 	
0 	0 	0 	0 	
0.00116276 	2.08701e-08 	0.92 	0.04 	0.04 	0.0291616 	
0 	0 	0 	0 	
0.00121638 	2.08701e-08 	0.92 	0.04 	0.04 	0.0291616 	
0 	0 	0 	0 	
0.00127 	1.97117e-08 	0.92 	0.04 	0.04 	0.0291615 	
0 	0 	0 	0 	
ZONE T = "t = 5.22578e-07 [s]" I = 10 SOLUTIONTIME = 5.2257812500000E-07
0.0007874 	2.08701e-08 	0.92 	0.04 	0.04 	0.029162 	
0 	0 	0 	0 	
0.000841022 	2.08701e-08 	0.92 	0.04 	0.04 	0.0291619 	
0 	0 	0 	0 	
0.000894644 	2.08701e-08 	0.92 	0.04 	0.04 	0.0291619 	
0 	0 	0 	0 	
0.000948267 	2.08701e-08 	0.92 	0.04 	0.04 	0.0291618 	
0 	0 	0 	0 	
0.00100189 	2.08701e-08 	0.92 	0.04 	0.04 	0.0291618 	
0 	0 	0 	0 	
0.00105551 	2.08701e-08 	0.92 	0.04 	0.04 	0.0291617 	
0 	0 	0 	0 	
0.00110913 	2.08701e-08 	0.92 	0.04 	0.04 	0.0291617 	
0 	0 	0 	0 	
0.00116276 	2.08701e-08 	0.92 	0.04 	0.04 	0.0291616 	
0 	0 	0 	0 	
0.00121638 	2.08701e-08 	0.92 	0.04 	0.04 	0.0291616 	
0 	0 	0 	0 	
0.00127 	1.97117e-08 	0.92 	0.04 	0.04 	0.0291615 	
0 	0 	0 	0 	
ZONE T = "t = 7.78867e-07 [s]" I = 10 SOLUTIONTIME = 7.7886718750000E-07
0.0007874 	2.08701e-08 	0.92 	0.04 	0.04 	0.029162 	
0 	0 	0 	0 	
0.000841022 	2.08701e-08 	0.92 	0.04 	0.04 	0.0291619 	
0 	0 	0 	0 	
0.000894644 	2.08701e-08 	0.92 	0.04 	0.04 	0.0291619 	
0 	0 	0 	0 	
0.000948267 	2.08701e-08 	0.92 	0.04 	0.04 	0.0291618 	
0 	0 	0 	0 	
0.00100189 	2.08701e-08 	0.92 	0.04 	0.04 	0.0291618 	
0 	0 	0 	0 	
0.00105551 	2.08701e-08 	0.92 	0.04 	0.04 	0.0291617 	
0 	0 	0 	0 	
0.00110913 	2.08701e-08 	0.92 	0.04 	0.04 	0.0291617 	
0 	0 	0 	0 	
0.00116276 	2.08701e-08 	0.92 	0.04 	0.04 	0.0291616 	
0 	0 	0 	0 	
0.00121638 	2.08701e-08 	0.92 	0.04 	0.04 	0.0291616 	
0 	0 	0 	0 	
0.00127 	1.97117e-08 	0.92 	0.04 	0.04 	0.0291615 	
0 	0 	0 	0 	
ZONE T = "t = 1.1633e-06 [s]" I = 10 SOLUTIONTIME = 1.1633007812500E-06
0.0007874 	2.08701e-08 	0.92 	0.04 	0.04 	0.029162 	
0 	0 	0 	0 	
0.000841022 	2.08701e-08 	0.92 	0.04 	0.04 	0.0291619 	
0 	0 	0 	0 	
0.000894644 	2.08701e-08 	0.92 	0.04 	0.04 	0.0291619 	
0 	0 	0 	0 	
0.000948267 	2.08701e-08 	0.92 	0.04 	0.04 	0.0291618 	
0 	0 	0 	0 	
0.00100189 	2.08701e-08 	0.92 	0.04 	0.04 	0.0291618 	
0 	0 	0 	0 	
0.00105551 	2.08701e-08 	0.92 	0.04 	0.04 	0.0291617 	
0 	0 	0 	0 	
0.00110913 	2.08701e-08 	0.92 	0.04 	0.04 	0.0291617 	
0 	0 	0 	0 	
0.00116276 	2.08701e-08 	0.92 	0.04 	0.04 	0.0291616 	
0 	0 	0 	0 	
0.00121638 	2.08701e-08 	0.92 	0.04 	0.04 	0.0291616 	
0 	0 	0 	0 	
0.00127 	1.97117e-08 	0.92 	0.04 	0.04 	0.0291615 	
0 	0 	0 	0 	
ZONE T = "t = 1.73995e-06 [s]" I = 10 SOLUTIONTIME = 1.7399511718750E-06
0.0007874 	2.08701e-08 	0.92 	0.04 	0.04 	0.029162 	
0 	0 	0 	0 	
0.000841022 	2.08701e-08 	0.92 	0.04 	0.04 	0.0291619 	
0 	0 	0 	0 	
0.000894644 	2.08701e-08 	0.92 	0.04 	0.04 	0.0291619 	
0 	0 	0 	0 	
0.000948267 	2.08701e-08 	0.92 	0.04 	0.04 	0.0291618 	
0 	0 	0 	0 	
0.00100189 	2.08701e-08 	0.92 	0.04 	0.04 	0.0291618 	
0 	0 	0 	0 	
0.00105551 	2.08701e-08 	0.92 	0.04 	0.04 	0.0291617 	
0 	0 	0 	0 	
0.00110913 	2.08701e-08 	0.92 	0.04 	0.04 	0.0291617 	
0 	0 	0 	0 	
0.00116276 	2.08701e-08 	0.92 	0.04 	0.04 	0.0291616 	
0 	0 	0 	0 	
0.00121638 	2.08701e-08 	0.92 	0.04 	0.04 	0.0291616 	
0 	0 	0 	0 	
0.00127 	1.97117e-08 	0.92 	0.04 	0.04 	0.0291615 	
0 	0 	0 	0 	
ZONE T = "t = 2.60493e-06 [s]" I = 10 SOLUTIONTIME = 2.6049267578125E-06
0.0007874 	2.08701e-08 	0.92 	0.04 	0.04 	0.0291619 	
0 	0 	0 	0 	
0.000841022 	2.08701e-08 	0.92 	0.04 	0.04 	0.0291619 	
0 	0 	0 	0 	
0.000894644 	2.08701e-08 	0.92 	0.04 	0.04 	0.0291618 	
0 	0 	0 	0 	
0.000948267 	2.08701e-08 	0.92 	0.04 	0.04 	0.0291618 	
0 	0 	0 	0 	
0.00100189 	2.08701e-08 	0.92 	0.04 	0.04 	0.0291617 	
0 	0 	0 	0 	
0.00105551 	2.08701e-08 	0.92 	0.04 	0.04 	0.0291617 	
0 	0 	0 	0 	
0.00110913 	2.08701e-08 	0.92 	0.04 	0.04 	0.0291616 	
0 	0 	0 	0 	
0.00116276 	2.08701e-08 	0.92 	0.04 	0.04 	0.0291616 	
0 	0 	0 	0 	
0.00121638 	2.08701e-08 	0.92 	0.04 	0.04 	0.0291615 	
0 	0 	0 	0 	
0.00127 	1.97117e-08 	0.92 	0.04 	0.04 	0.0291615 	
0 	0 	0 	0 	
ZONE T = "t = 3.90239e-06 [s]" I = 10 SOLUTIONTIME = 3.9023901367188E-06
0.0007874 	2.08701e-08 	0.92 	0.04 	0.04 	0.0291619 	
0 	0 	0 	0 	
0.000841022 	2.08701e-08 	0.92 	0.04 	0.04 	0.0291619 	
0 	0 	0 	0 	
0.000894644 	2.08701e-08 	0.92 	0.04 	0.04 	0.0291618 	
0 	0 	0 	0 	
0.000948267 	2.08701e-08 	0.92 	0.04 	0.04 	0.0291618 	
0 	0 	0 	0 	
0.00100189 	2.08701e-08 	0.92 	0.04 	0.04 	0.0291617 	
0 	0 	0 	0 	
0.00105551 	2.08701e-08 	0.92 	0.04 	0.04 	0.0291617 	
0 	0 	0 	0 	
0.00110913 	2.08701e-08 	0.92 	0.04 	0.04 	0.0291616 	
0 	0 	0 	0 	
0.00116276 	2.08701e-08 	0.92 	0.04 	0.04 	0.0291616 	
0 	0 	0 	0 	
0.00121638 	2.08701e-08 	0.92 	0.04 	0.04 	0.0291615 	
0 	0 	0 	0 	
0.00127 	1.97117e-08 	0.92 	0.04 	0.04 	0.0291615 	
0 	0 	0 	0 	
ZONE T = "t = 5.84859e-06 [s]" I = 10 SOLUTIONTIME = 5.8485852050781E-06
0.0007874 	2.08701e-08 	0.92 	0.04 	0.04 	0.0291619 	
0 	0 	0 	0 	
0.000841022 	2.08701e-08 	0.92 	0.04 	0.04 	0.0291618 	
0 	0 	0 	0 	
0.000894644 	2.08701e-08 	0.92 	0.04 	0.04 	0.0291618 	
0 	0 	0 	0 	
0.000948267 	2.08701e-08 	0.92 	0.04 	0.04 	0.0291617 	
0 	0 	0 	0 	
0.00100189 	2.08701e-08 	0.92 	0.04 	0.04 	0.0291617 	
0 	0 	0 	0 	
0.00105551 	2.08701e-08 	0.92 	0.04 	0.04 	0.0291616 	
0 	0 	0 	0 	
0.00110913 	2.08701e-08 	0.92 	0.04 	0.04 	0.0291616 	
0 	0 	0 	0 	
0.00116276 	2.08701e-08 	0.92 	0.04 	0.04 	0.0291615 	
0 	0 	0 	0 	
0.00121638 	2.08701e-08 	0.92 	0.04 	0.04 	0.0291615 	
0 	0 	0 	0 	
0.00127 	1.97117e-08 	0.92 	0.04 	0.04 	0.0291614 	
0 	0 	0 	0 	
ZONE T = "t = 8.76788e-06 [s]" I = 10 SOLUTIONTIME = 8.7678778076172E-06
0.0007874 	2.087e-08 	0.92 	0.04 	0.04 	0.0291618 	
0 	0 	0 	0 	
0.000841022 	2.087e-08 	0.92 	0.04 	0.04 	0.0291618 	
0 	0 	0 	0 	
0.000894644 	2.087e-08 	0.92 	0.04 	0.04 	0.0291617 	
0 	0 	0 	0 	
0.000948267 	2.087e-08 	0.92 	0.04 	0.04 	0.0291617 	
0 	0 	0 	0 	
0.00100189 	2.087e-08 	0.92 	0.04 	0.04 	0.0291616 	
0 	0 	0 	0 	
0.00105551 	2.087e-08 	0.92 	0.04 	0.04 	0.0291616 	
0 	0 	0 	0 	
0.00110913 	2.087e-08 	0.92 	0.04 	0.04 	0.0291615 	
0 	0 	0 	0 	
0.00116276 	2.087e-08 	0.92 	0.04 	0.04 	0.0291615 	
0 	0 	0 	0 	
0.00121638 	2.087e-08 	0.92 	0.04 	0.04 	0.0291614 	
0 	0 	0 	0 	
0.00127 	1.97116e-08 	0.92 	0.04 	0.04 	0.0291614 	
0 	0 	0 	0 	
ZONE T = "t = 1.31468e-05 [s]" I = 10 SOLUTIONTIME = 1.3146816711426E-05
0.0007874 	2.087e-08 	0.92 	0.04 	0.04 	0.0291617 	
0 	0 	0 	0 	
0.000841022 	2.087e-08 	0.92 	0.04 	0.04 	0.0291617 	
0 	0 	0 	0 	
0.000894644 	2.087e-08 	0.92 	0.04 	0.04 	0.0291616 	
0 	0 	0 	0 	
0.000948267 	2.087e-08 	0.92 	0.04 	0.04 	0.0291616 	
0 	0 	0 	0 	
0.00100189 	2.087e-08 	0.92 	0.04 	0.04 	0.0291616 	
0 	0 	0 	0 	
0.00105551 	2.087e-08 	0.92 	0.04 	0.04 	0.0291615 	
0 	0 	0 	0 	
0.00110913 	2.087e-08 	0.92 	0.04 	0.04 	0.0291615 	
0 	0 	0 	0 	
0.00116276 	2.087e-08 	0.92 	0.04 	0.04 	0.0291614 	
0 	0 	0 	0 	
0.00121638 	2.087e-08 	0.92 	0.04 	0.04 	0.0291614 	
0 	0 	0 	0 	
0.00127 	1.97116e-08 	0.92 	0.04 	0.04 	0.0291613 	
0 	0 	0 	0 	
ZONE T = "t = 1.97152e-05 [s]" I = 10 SOLUTIONTIME = 1.9715225067139E-05
0.0007874 	2.08699e-08 	0.92 	0.04 	0.04 	0.0291616 	
0 	0 	0 	0 	
0.000841022 	2.08699e-08 	0.92 	0.04 	0.04 	0.0291616 	
0 	0 	0 	0 	
0.000894644 	2.08699e-08 	0.92 	0.04 	0.04 	0.0291615 	
0 	0 	0 	0 	
0.000948267 	2.08699e-08 	0.92 	0.04 	0.04 	0.0291615 	
0 	0 	0 	0 	
0.00100189 	2.08699e-08 	0.92 	0.04 	0.04 	0.0291614 	
0 	0 	0 	0 	
0.00105551 	2.08699e-08 	0.92 	0.04 	0.04 	0.0291614 	
0 	0 	0 	0 	
0.00110913 	2.08699e-08 	0.92 	0.04 	0.04 	0.0291613 	
0 	0 	0 	0 	
0.00116276 	2.08699e-08 	0.92 	0.04 	0.04 	0.0291613 	
0 	0 	0 	0 	
0.00121638 	2.08699e-08 	0.92 	0.04 	0.04 	0.0291612 	
0 	0 	0 	0 	
0.00127 	1.97115e-08 	0.92 	0.04 	0.04 	0.0291612 	
0 	0 	0 	0 	
ZONE T = "t = 2.95678e-05 [s]" I = 10 SOLUTIONTIME = 2.9567837600708E-05
0.0007874 	2.08698e-08 	0.92 	0.04 	0.04 	0.0291615 	
0 	0 	0 	0 	
0.000841022 	2.08698e-08 	0.92 	0.04 	0.04 	0.0291614 	
0 	0 	0 	0 	
0.000894644 	2.08698e-08 	0.92 	0.04 	0.04 	0.0291614 	
0 	0 	0 	0 	
0.000948267 	2.08698e-08 	0.92 	0.04 	0.04 	0.0291613 	
0 	0 	0 	0 	
0.00100189 	2.08698e-08 	0.92 	0.04 	0.04 	0.0291613 	
0 	0 	0 	0 	
0.00105551 	2.08698e-08 	0.92 	0.04 	0.04 	0.0291612 	
0 	0 	0 	0 	
0.00110913 	2.08698e-08 	0.92 	0.04 	0.04 	0.0291612 	
0 	0 	0 	0 	
0.00116276 	2.08698e-08 	0.92 	0.04 	0.04 	0.0291611 	
0 	0 	0 	0 	
0.00121638 	2.08698e-08 	0.92 	0.04 	0.04 	0.0291611 	
0 	0 	0 	0 	
0.00127 	1.97114e-08 	0.92 	0.04 	0.04 	0.029161 	
0 	0 	0 	0 	
ZONE T = "t = 4.43468e-05 [s]" I = 10 SOLUTIONTIME = 4.4346756401062E-05
0.0007874 	2.08696e-08 	0.92 	0.04 	0.04 	0.0291612 	
0 	0 	0 	0 	
0.000841022 	2.08696e-08 	0.92 	0.04 	0.04 	0.0291611 	
0 	0 	0 	0 	
0.000894644 	2.08696e-08 	0.92 	0.04 	0.04 	0.0291611 	
0 	0 	0 	0 	
0.000948267 	2.08696e-08 	0.92 	0.04 	0.04 	0.029161 	
0 	0 	0 	0 	
0.00100189 	2.08696e-08 	0.92 	0.04 	0.04 	0.029161 	
0 	0 	0 	0 	
0.00105551 	2.08696e-08 	0.92 	0.04 	0.04 	0.0291609 	
0 	0 	0 	0 	
0.00110913 	2.08696e-08 	0.92 	0.04 	0.04 	0.0291609 	
0 	0 	0 	0 	
0.00116276 	2.08696e-08 	0.92 	0.04 	0.04 	0.0291608 	
0 	0 	0 	0 	
0.00121638 	2.08696e-08 	0.92 	0.04 	0.04 	0.0291608 	
0 	0 	0 	0 	
0.00127 	1.97112e-08 	0.92 	0.04 	0.04 	0.0291607 	
0 	0 	0 	0 	
ZONE T = "t = 6.65151e-05 [s]" I = 10 SOLUTIONTIME = 6.6515134601593E-05
0.0007874 	2.08693e-08 	0.92 	0.04 	0.04 	0.0291608 	
0 	0 	0 	0 	
0.000841022 	2.08693e-08 	0.92 	0.04 	0.04 	0.0291607 	
0 	0 	0 	0 	
0.000894644 	2.08693e-08 	0.92 	0.04 	0.04 	0.0291607 	
0 	0 	0 	0 	
0.000948267 	2.08693e-08 	0.92 	0.04 	0.04 	0.0291606 	
0 	0 	0 	0 	
0.00100189 	2.08693e-08 	0.92 	0.04 	0.04 	0.0291606 	
0 	0 	0 	0 	
0.00105551 	2.08693e-08 	0.92 	0.04 	0.04 	0.0291605 	
0 	0 	0 	0 	
0.00110913 	2.08693e-08 	0.92 	0.04 	0.04 	0.0291605 	
0 	0 	0 	0 	
0.00116276 	2.08693e-08 	0.92 	0.04 	0.04 	0.0291604 	
0 	0 	0 	0 	
0.00121638 	2.08693e-08 	0.92 	0.04 	0.04 	0.0291604 	
0 	0 	0 	0 	
0.00127 	1.97109e-08 	0.92 	0.04 	0.04 	0.0291603 	
0 	0 	0 	0 	
ZONE T = "t = 9.97677e-05 [s]" I = 10 SOLUTIONTIME = 9.9767701902390E-05
0.0007874 	2.08688e-08 	0.92 	0.04 	0.04 	0.0291602 	
0 	0 	0 	0 	
0.000841022 	2.08688e-08 	0.92 	0.04 	0.04 	0.0291602 	
0 	0 	0 	0 	
0.000894644 	2.08688e-08 	0.92 	0.04 	0.04 	0.0291601 	
0 	0 	0 	0 	
0.000948267 	2.08688e-08 	0.92 	0.04 	0.04 	0.0291601 	
0 	0 	0 	0 	
0.00100189 	2.08688e-08 	0.92 	0.04 	0.04 	0.02916 	
0 	0 	0 	0 	
0.00105551 	2.08688e-08 	0.92 	0.04 	0.04 	0.02916 	
0 	0 	0 	0 	
0.00110913 	2.08688e-08 	0.92 	0.04 	0.04 	0.0291599 	
0 	0 	0 	0 	
0.00116276 	2.08688e-08 	0.92 	0.04 	0.04 	0.0291599 	
0 	0 	0 	0 	
0.00121638 	2.08688e-08 	0.92 	0.04 	0.04 	0.0291598 	
0 	0 	0 	0 	
0.00127 	1.97105e-08 	0.92 	0.04 	0.04 	0.0291598 	
0 	0 	0 	0 	
ZONE T = "t = 0.000149647 [s]" I = 10 SOLUTIONTIME = 1.4964655285358E-04
0.0007874 	2.08682e-08 	0.92 	0.04 	0.04 	0.0291593 	
0 	0 	0 	0 	
0.000841022 	2.08682e-08 	0.92 	0.04 	0.04 	0.0291593 	
0 	0 	0 	0 	
0.000894644 	2.08682e-08 	0.92 	0.04 	0.04 	0.0291592 	
0 	0 	0 	0 	
0.000948267 	2.08682e-08 	0.92 	0.04 	0.04 	0.0291592 	
0 	0 	0 	0 	
0.00100189 	2.08682e-08 	0.92 	0.04 	0.04 	0.0291591 	
0 	0 	0 	0 	
0.00105551 	2.08682e-08 	0.92 	0.04 	0.04 	0.0291591 	
0 	0 	0 	0 	
0.00110913 	2.08682e-08 	0.92 	0.04 	0.04 	0.029159 	
0 	0 	0 	0 	
0.00116276 	2.08682e-08 	0.92 	0.04 	0.04 	0.029159 	
0 	0 	0 	0 	
0.00121638 	2.08682e-08 	0.92 	0.04 	0.04 	0.0291589 	
0 	0 	0 	0 	
0.00127 	1.97099e-08 	0.92 	0.04 	0.04 	0.0291589 	
0 	0 	0 	0 	
ZONE T = "t = 0.000224465 [s]" I = 10 SOLUTIONTIME = 2.2446482928038E-04
0.0007874 	2.08672e-08 	0.92 	0.04 	0.04 	0.029158 	
0 	0 	0 	0 	
0.000841022 	2.08672e-08 	0.92 	0.04 	0.04 	0.0291579 	
0 	0 	0 	0 	
0.000894644 	2.08672e-08 	0.92 	0.04 	0.04 	0.0291579 	
0 	0 	0 	0 	
0.000948267 	2.08672e-08 	0.92 	0.04 	0.04 	0.0291578 	
0 	0 	0 	0 	
0.00100189 	2.08672e-08 	0.92 	0.04 	0.04 	0.0291578 	
0 	0 	0 	0 	
0.00105551 	2.08672e-08 	0.92 	0.04 	0.04 	0.0291577 	
0 	0 	0 	0 	
0.00110913 	2.08672e-08 	0.92 	0.04 	0.04 	0.0291577 	
0 	0 	0 	0 	
0.00116276 	2.08672e-08 	0.92 	0.04 	0.04 	0.0291576 	
0 	0 	0 	0 	
0.00121638 	2.08672e-08 	0.92 	0.04 	0.04 	0.0291576 	
0 	0 	0 	0 	
0.00127 	1.9709e-08 	0.92 	0.04 	0.04 	0.0291575 	
0 	0 	0 	0 	
ZONE T = "t = 0.000336692 [s]" I = 10 SOLUTIONTIME = 3.3669224392056E-04
0.0007874 	2.08657e-08 	0.92 	0.04 	0.04 	0.029156 	
0 	0 	0 	0 	
0.000841022 	2.08657e-08 	0.92 	0.04 	0.04 	0.0291559 	
0 	0 	0 	0 	
0.000894644 	2.08657e-08 	0.92 	0.04 	0.04 	0.0291559 	
0 	0 	0 	0 	
0.000948267 	2.08657e-08 	0.92 	0.04 	0.04 	0.0291558 	
0 	0 	0 	0 	
0.00100189 	2.08657e-08 	0.92 	0.04 	0.04 	0.0291558 	
0 	0 	0 	0 	
0.00105551 	2.08657e-08 	0.92 	0.04 	0.04 	0.0291557 	
0 	0 	0 	0 	
0.00110913 	2.08657e-08 	0.92 	0.04 	0.04 	0.0291557 	
0 	0 	0 	0 	
0.00116276 	2.08657e-08 	0.92 	0.04 	0.04 	0.0291556 	
0 	0 	0 	0 	
0.00121638 	2.08657e-08 	0.92 	0.04 	0.04 	0.0291556 	
0 	0 	0 	0 	
0.00127 	1.97076e-08 	0.92 	0.04 	0.04 	0.0291555 	
0 	0 	0 	0 	
ZONE T = "t = 0.000505033 [s]" I = 10 SOLUTIONTIME = 5.0503336588085E-04
0.0007874 	2.08635e-08 	0.92 	0.04 	0.04 	0.029153 	
0 	0 	0 	0 	
0.000841022 	2.08635e-08 	0.92 	0.04 	0.04 	0.0291529 	
0 	0 	0 	0 	
0.000894644 	2.08635e-08 	0.92 	0.04 	0.04 	0.0291529 	
0 	0 	0 	0 	
0.000948267 	2.08635e-08 	0.92 	0.04 	0.04 	0.0291528 	
0 	0 	0 	0 	
0.00100189 	2.08635e-08 	0.92 	0.04 	0.04 	0.0291528 	
0 	0 	0 	0 	
0.00105551 	2.08635e-08 	0.92 	0.04 	0.04 	0.0291527 	
0 	0 	0 	0 	
0.00110913 	2.08635e-08 	0.92 	0.04 	0.04 	0.0291527 	
0 	0 	0 	0 	
0.00116276 	2.08635e-08 	0.92 	0.04 	0.04 	0.0291526 	
0 	0 	0 	0 	
0.00121638 	2.08635e-08 	0.92 	0.04 	0.04 	0.0291526 	
0 	0 	0 	0 	
0.00127 	1.97055e-08 	0.92 	0.04 	0.04 	0.0291525 	
0 	0 	0 	0 	
ZONE T = "t = 0.000757545 [s]" I = 10 SOLUTIONTIME = 7.5754504882127E-04
0.0007874 	2.08602e-08 	0.92 	0.04 	0.04 	0.0291485 	
0 	0 	0 	0 	
0.000841022 	2.08602e-08 	0.92 	0.04 	0.04 	0.0291484 	
0 	0 	0 	0 	
0.000894644 	2.08602e-08 	0.92 	0.04 	0.04 	0.0291484 	
0 	0 	0 	0 	
0.000948267 	2.08602e-08 	0.92 	0.04 	0.04 	0.0291483 	
0 	0 	0 	0 	
0.00100189 	2.08602e-08 	0.92 	0.04 	0.04 	0.0291483 	
0 	0 	0 	0 	
0.00105551 	2.08602e-08 	0.92 	0.04 	0.04 	0.0291482 	
0 	0 	0 	0 	
0.00110913 	2.08602e-08 	0.92 	0.04 	0.04 	0.0291482 	
0 	0 	0 	0 	
0.00116276 	2.08602e-08 	0.92 	0.04 	0.04 	0.0291481 	
0 	0 	0 	0 	
0.00121638 	2.08602e-08 	0.92 	0.04 	0.04 	0.0291481 	
0 	0 	0 	0 	
0.00127 	1.97023e-08 	0.92 	0.04 	0.04 	0.029148 	
0 	0 	0 	0 	
ZONE T = "t = 0.00113631 [s]" I = 10 SOLUTIONTIME = 1.1363125732319E-03
0.0007874 	2.08552e-08 	0.92 	0.04 	0.04 	0.0291417 	
0 	0 	0 	0 	
0.000841022 	2.08552e-08 	0.92 	0.04 	0.04 	0.0291416 	
0 	0 	0 	0 	
0.000894644 	2.08552e-08 	0.92 	0.04 	0.04 	0.0291416 	
0 	0 	0 	0 	
0.000948267 	2.08552e-08 	0.92 	0.04 	0.04 	0.0291415 	
0 	0 	0 	0 	
0.00100189 	2.08552e-08 	0.92 	0.04 	0.04 	0.0291415 	
0 	0 	0 	0 	
0.00105551 	2.08552e-08 	0.92 	0.04 	0.04 	0.0291414 	
0 	0 	0 	0 	
0.00110913 	2.08552e-08 	0.92 	0.04 	0.04 	0.0291414 	
0 	0 	0 	0 	
0.00116276 	2.08552e-08 	0.92 	0.04 	0.04 	0.0291413 	
0 	0 	0 	0 	
0.00121638 	2.08552e-08 	0.92 	0.04 	0.04 	0.0291413 	
0 	0 	0 	0 	
0.00127 	1.96976e-08 	0.92 	0.04 	0.04 	0.0291412 	
0 	0 	0 	0 	
ZONE T = "t = 0.00170446 [s]" I = 10 SOLUTIONTIME = 1.7044638598479E-03
0.0007874 	2.08477e-08 	0.92 	0.04 	0.04 	0.0291316 	
0 	0 	0 	0 	
0.000841022 	2.08477e-08 	0.92 	0.04 	0.04 	0.0291315 	
0 	0 	0 	0 	
0.000894644 	2.08477e-08 	0.92 	0.04 	0.04 	0.0291315 	
0 	0 	0 	0 	
0.000948267 	2.08477e-08 	0.92 	0.04 	0.04 	0.0291314 	
0 	0 	0 	0 	
0.00100189 	2.08477e-08 	0.92 	0.04 	0.04 	0.0291314 	
0 	0 	0 	0 	
0.00105551 	2.08477e-08 	0.92 	0.04 	0.04 	0.0291313 	
0 	0 	0 	0 	
0.00110913 	2.08477e-08 	0.92 	0.04 	0.04 	0.0291313 	
0 	0 	0 	0 	
0.00116276 	2.08477e-08 	0.92 	0.04 	0.04 	0.0291312 	
0 	0 	0 	0 	
0.00121638 	2.08477e-08 	0.92 	0.04 	0.04 	0.0291312 	
0 	0 	0 	0 	
0.00127 	1.96905e-08 	0.92 	0.04 	0.04 	0.0291311 	
0 	0 	0 	0 	
ZONE T = "t = 0.00255669 [s]" I = 10 SOLUTIONTIME = 2.5566907897718E-03
0.0007874 	2.08365e-08 	0.92 	0.04 	0.04 	0.0291164 	
0 	0 	0 	0 	
0.000841022 	2.08365e-08 	0.92 	0.04 	0.04 	0.0291163 	
0 	0 	0 	0 	
0.000894644 	2.08365e-08 	0.92 	0.04 	0.04 	0.0291163 	
0 	0 	0 	0 	
0.000948267 	2.08365e-08 	0.92 	0.04 	0.04 	0.0291162 	
0 	0 	0 	0 	
0.00100189 	2.08365e-08 	0.92 	0.04 	0.04 	0.0291162 	
0 	0 	0 	0 	
0.00105551 	2.08365e-08 	0.92 	0.04 	0.04 	0.0291161 	
0 	0 	0 	0 	
0.00110913 	2.08365e-08 	0.92 	0.04 	0.04 	0.0291161 	
0 	0 	0 	0 	
0.00116276 	2.08365e-08 	0.92 	0.04 	0.04 	0.029116 	
0 	0 	0 	0 	
0.00121638 	2.08365e-08 	0.92 	0.04 	0.04 	0.029116 	
0 	0 	0 	0 	
0.00127 	1.968e-08 	0.92 	0.04 	0.04 	0.0291159 	
0 	0 	0 	0 	
ZONE T = "t = 0.00383503 [s]" I = 10 SOLUTIONTIME = 3.8350311846577E-03
0.0007874 	2.08197e-08 	0.92 	0.04 	0.04 	0.0290936 	
0 	0 	0 	0 	
0.000841022 	2.08197e-08 	0.92 	0.04 	0.04 	0.0290935 	
0 	0 	0 	0 	
0.000894644 	2.08197e-08 	0.92 	0.04 	0.04 	0.0290935 	
0 	0 	0 	0 	
0.000948267 	2.08197e-08 	0.92 	0.04 	0.04 	0.0290934 	
0 	0 	0 	0 	
0.00100189 	2.08197e-08 	0.92 	0.04 	0.04 	0.0290934 	
0 	0 	0 	0 	
0.00105551 	2.08197e-08 	0.92 	0.04 	0.04 	0.0290933 	
0 	0 	0 	0 	
0.00110913 	2.08197e-08 	0.92 	0.04 	0.04 	0.0290933 	
0 	0 	0 	0 	
0.00116276 	2.08197e-08 	0.92 	0.04 	0.04 	0.0290932 	
0 	0 	0 	0 	
0.00121638 	2.08197e-08 	0.92 	0.04 	0.04 	0.0290932 	
0 	0 	0 	0 	
0.00127 	1.96641e-08 	0.92 	0.04 	0.04 	0.0290931 	
0 	0 	0 	0 	
ZONE T = "t = 0.00575254 [s]" I = 10 SOLUTIONTIME = 5.7525417769865E-03
0.0007874 	2.07946e-08 	0.92 	0.04 	0.04 	0.0290595 	
0 	0 	0 	0 	
0.000841022 	2.07946e-08 	0.92 	0.04 	0.04 	0.0290594 	
0 	0 	0 	0 	
0.000894644 	2.07946e-08 	0.92 	0.04 	0.04 	0.0290594 	
0 	0 	0 	0 	
0.000948267 	2.07946e-08 	0.92 	0.04 	0.04 	0.0290593 	
0 	0 	0 	0 	
0.00100189 	2.07946e-08 	0.92 	0.04 	0.04 	0.0290593 	
0 	0 	0 	0 	
0.00105551 	2.07946e-08 	0.92 	0.04 	0.04 	0.0290593 	
0 	0 	0 	0 	
0.00110913 	2.07946e-08 	0.92 	0.04 	0.04 	0.0290592 	
0 	0 	0 	0 	
0.00116276 	2.07946e-08 	0.92 	0.04 	0.04 	0.0290592 	
0 	0 	0 	0 	
0.00121638 	2.07946e-08 	0.92 	0.04 	0.04 	0.0290591 	
0 	0 	0 	0 	
0.00127 	1.96404e-08 	0.92 	0.0399999 	0.0399999 	0.0290591 	
0 	0 	0 	0 	
ZONE T = "t = 0.00862881 [s]" I = 10 SOLUTIONTIME = 8.6288076654798E-03
0.0007874 	2.07571e-08 	0.92 	0.0400001 	0.0400001 	0.0290085 	
0 	0 	0 	0 	
0.000841022 	2.07571e-08 	0.92 	0.04 	0.04 	0.0290084 	
0 	0 	0 	0 	
0.000894644 	2.07571e-08 	0.92 	0.04 	0.04 	0.0290084 	
0 	0 	0 	0 	
0.000948267 	2.07571e-08 	0.92 	0.04 	0.04 	0.0290083 	
0 	0 	0 	0 	
0.00100189 	2.07571e-08 	0.92 	0.04 	0.04 	0.0290083 	
0 	0 	0 	0 	
0.00105551 	2.07571e-08 	0.92 	0.04 	0.04 	0.0290082 	
0 	0 	0 	0 	
0.00110913 	2.07571e-08 	0.92 	0.04 	0.04 	0.0290082 	
0 	0 	0 	0 	
0.00116276 	2.07571e-08 	0.92 	0.04 	0.04 	0.0290081 	
0 	0 	0 	0 	
0.00121638 	2.07571e-08 	0.92 	0.0399999 	0.0399999 	0.0290081 	
0 	0 	0 	0 	
0.00127 	1.96049e-08 	0.92 	0.0399999 	0.0399999 	0.029008 	
0 	0 	0 	0 	
ZONE T = "t = 0.0129432 [s]" I = 10 SOLUTIONTIME = 1.2943206498220E-02
0.0007874 	2.07011e-08 	0.92 	0.0400001 	0.0400001 	0.0289323 	
0 	0 	0 	0 	
0.000841022 	2.07011e-08 	0.92 	0.0400001 	0.0400001 	0.0289322 	
0 	0 	0 	0 	
0.000894644 	2.07011e-08 	0.92 	0.04 	0.04 	0.0289322 	
0 	0 	0 	0 	
0.000948267 	2.07011e-08 	0.92 	0.04 	0.04 	0.0289321 	
0 	0 	0 	0 	
0.00100189 	2.07011e-08 	0.92 	0.04 	0.04 	0.0289321 	
0 	0 	0 	0 	
0.00105551 	2.07011e-08 	0.92 	0.04 	0.04 	0.028932 	
0 	0 	0 	0 	
0.00110913 	2.07011e-08 	0.92 	0.04 	0.04 	0.028932 	
0 	0 	0 	0 	
0.00116276 	2.07011e-08 	0.92 	0.0399999 	0.0399999 	0.0289319 	
0 	0 	0 	0 	
0.00121638 	2.07011e-08 	0.92 	0.0399999 	0.0399999 	0.0289319 	
0 	0 	0 	0 	
0.00127 	1.95521e-08 	0.92 	0.0399999 	0.0399999 	0.0289318 	
0 	0 	0 	0 	
ZONE T = "t = 0.0194148 [s]" I = 10 SOLUTIONTIME = 1.9414804747330E-02
0.0007874 	2.06178e-08 	0.92 	0.0400001 	0.0400001 	0.0288186 	
0 	0 	0 	0 	
0.000841022 	2.06178e-08 	0.92 	0.0400001 	0.0400001 	0.0288185 	
0 	0 	0 	0 	
0.000894644 	2.06178e-08 	0.92 	0.04 	0.04 	0.0288185 	
0 	0 	0 	0 	
0.000948267 	2.06178e-08 	0.92 	0.04 	0.04 	0.0288184 	
0 	0 	0 	0 	
0.00100189 	2.06178e-08 	0.92 	0.04 	0.04 	0.0288184 	
0 	0 	0 	0 	
0.00105551 	2.06178e-08 	0.92 	0.04 	0.04 	0.0288183 	
0 	0 	0 	0 	
0.00110913 	2.06178e-08 	0.92 	0.0399999 	0.0399999 	0.0288183 	
0 	0 	0 	0 	
0.00116276 	2.06178e-08 	0.92 	0.0399999 	0.0399999 	0.0288182 	
0 	0 	0 	0 	
0.00121638 	2.06178e-08 	0.92 	0.0399999 	0.0399999 	0.0288182 	
0 	0 	0 	0 	
0.00127 	1.94734e-08 	0.92 	0.0399998 	0.0399998 	0.0288181 	
0 	0 	0 	0 	
ZONE T = "t = 0.0291222 [s]" I = 10 SOLUTIONTIME = 2.9122202120994E-02
0.0007874 	2.04944e-08 	0.92 	0.0400001 	0.0400001 	0.0286495 	
0 	0 	0 	0 	
0.000841022 	2.04944e-08 	0.92 	0.0400001 	0.0400001 	0.0286494 	
0 	0 	0 	0 	
0.000894644 	2.04944e-08 	0.92 	0.04 	0.04 	0.0286494 	
0 	0 	0 	0 	
0.000948267 	2.04944e-08 	0.92 	0.04 	0.04 	0.0286493 	
0 	0 	0 	0 	
0.00100189 	2.04944e-08 	0.92 	0.04 	0.04 	0.0286493 	
0 	0 	0 	0 	
0.00105551 	2.04944e-08 	0.92 	0.0399999 	0.0399999 	0.0286492 	
0 	0 	0 	0 	
0.00110913 	2.04944e-08 	0.92 	0.0399999 	0.0399999 	0.0286492 	
0 	0 	0 	0 	
0.00116276 	2.04944e-08 	0.92 	0.0399999 	0.0399999 	0.0286491 	
0 	0 	0 	0 	
0.00121638 	2.04944e-08 	0.92 	0.0399998 	0.0399998 	0.0286491 	
0 	0 	0 	0 	
0.00127 	1.93568e-08 	0.92 	0.0399998 	0.0399998 	0.028649 	
0 	0 	0 	0 	
ZONE T = "t = 0.0436833 [s]" I = 10 SOLUTIONTIME = 4.3683298181491E-02
0.0007874 	2.03126e-08 	0.92 	0.0400001 	0.0400001 	0.028399 	
0 	0 	0 	0 	
0.000841022 	2.03126e-08 	0.92 	0.0400001 	0.0400001 	0.0283989 	
0 	0 	0 	0 	
0.000894644 	2.03126e-08 	0.92 	0.04 	0.04 	0.0283989 	
0 	0 	0 	0 	
0.000948267 	2.03126e-08 	0.92 	0.04 	0.04 	0.0283988 	
0 	0 	0 	0 	