TITLE = "Solution on Domain BulkDomain1D_0"
VARIABLES = "x [m]"  
"Vel_axial(0)" 	"MF_sp(ECDMC)" 	"MF_sp(Li+)" 	"MF_sp(PF6-)" 	"Volt(Electroly)" 	"Volt(AnodeVolt)" 	
"Potential Drop Electrode-Electrolyte [V]" 	"Surf_0 Equilibrium Potential Drop Electrode-Electrolyte [V]" 	"Overpotential_0 [V]" 	"Current Source [A/m^2]" 	"Li+ flux [kmol/m^2/s]" 	"Electrolyte Current [A/m^2]" 	"Electrode Current [A/m^2]" 	
"Capacity discharged [A-s]" 	"Depth of discharge [-]" 	"Capacity remaining [A-s]" 	"Initial capacity [A-s]" 	"Porosity []" 	"Surface Area [m2/m2] (area per area)" 	"Specific current (per particle area) [A/m^2]" 	"Control volume thickness [m]" 	
"Moles Li_C6-bulk [mol/m^2] (per electrode area)" 	"Moles V_C6-bulk [mol/m^2] (per electrode area)" 	"qHeat_accum [J/m3]" 	"qHeat_step [W/m3]" 	"Joule_Lyte [W/m3]" 	"Joule_Solid [W/m3]" 	"electrodHeat [W/m3]" 	"OverpotHeat [W/m3]" 	"deltaSHeat [W/m3]" 	

ZONE T = "t = 0 [s]" I = 10 SOLUTIONTIME = 0.0000000000000E+00
0 	0 	0.92 	0.04 	0.04 	-0.07 	0 	
0 	0 	0 	0 	0 	0 	15.4651 	
0 	0 	0 	0 	0.35 	8.53017 	3.62598 	4.37444e-05 	
9.29766e-07 	2.32442e-07 	0 	0.0 	 0.0 	 0.0 	 0.0 	 0.0 	 0.0 	 
8.74889e-05 	0 	0.92 	0.04 	0.04 	-0.07 	0 	
0 	0 	0 	0 	0 	0 	-0 	
0 	0 	0 	0 	0.35 	17.0603 	3.62598 	8.74889e-05 	
1.85953e-06 	4.64883e-07 	0 	0.0 	 0.0 	 0.0 	 0.0 	 0.0 	 0.0 	 
0.000174978 	0 	0.92 	0.04 	0.04 	-0.07 	0 	
0 	0 	0 	0 	0 	0 	-0 	
0 	0 	0 	0 	0.35 	17.0603 	3.62598 	8.74889e-05 	
1.85953e-06 	4.64883e-07 	0 	0.0 	 0.0 	 0.0 	 0.0 	 0.0 	 0.0 	 
0.000262467 	0 	0.92 	0.04 	0.04 	-0.07 	0 	
0 	0 	0 	0 	0 	0 	-0 	
0 	0 	0 	0 	0.35 	17.0603 	3.62598 	8.74889e-05 	
1.85953e-06 	4.64883e-07 	0 	0.0 	 0.0 	 0.0 	 0.0 	 0.0 	 0.0 	 
0.000349956 	0 	0.92 	0.04 	0.04 	-0.07 	0 	
0 	0 	0 	0 	0 	0 	-0 	
0 	0 	0 	0 	0.35 	17.0603 	3.62598 	8.74889e-05 	
1.85953e-06 	4.64883e-07 	0 	0.0 	 0.0 	 0.0 	 0.0 	 0.0 	 0.0 	 
0.000437444 	0 	0.92 	0.04 	0.04 	-0.07 	0 	
0 	0 	0 	0 	0 	0 	-0 	
0 	0 	0 	0 	0.35 	17.0603 	3.62598 	8.74889e-05 	
1.85953e-06 	4.64883e-07 	0 	0.0 	 0.0 	 0.0 	 0.0 	 0.0 	 0.0 	 
0.000524933 	0 	0.92 	0.04 	0.04 	-0.07 	0 	
0 	0 	0 	0 	0 	0 	-0 	
0 	0 	0 	0 	0.35 	17.0603 	3.62598 	8.74889e-05 	
1.85953e-06 	4.64883e-07 	0 	0.0 	 0.0 	 0.0 	 0.0 	 0.0 	 0.0 	 
0.000612422 	0 	0.92 	0.04 	0.04 	-0.07 	0 	
0 	0 	0 	0 	0 	0 	-0 	
0 	0 	0 	0 	0.35 	17.0603 	3.62598 	8.74889e-05 	
1.85953e-06 	4.64883e-07 	0 	0.0 	 0.0 	 0.0 	 0.0 	 0.0 	 0.0 	 
0.000699911 	0 	0.92 	0.04 	0.04 	-0.07 	0 	
0 	0 	0 	0 	0 	0 	-0 	
0 	0 	0 	0 	0.35 	17.0603 	3.62598 	8.74889e-05 	
1.85953e-06 	4.64883e-07 	0 	0.0 	 0.0 	 0.0 	 0.0 	 0.0 	 0.0 	 
0.0007874 	0 	0.92 	0.04 	0.04 	-0.07 	0 	
0 	0 	0 	0 	0 	15.4651 	0 	
0 	0 	0 	0 	0.35 	8.53017 	3.62598 	4.37444e-05 	
9.29766e-07 	2.32442e-07 	0 	0.0 	 0.0 	 0.0 	 0.0 	 0.0 	 0.0 	 
ZONE T = "t = 1e-08 [s]" I = 10 SOLUTIONTIME = 1.0000000000000E-08
0 	1.15881e-09 	0.92 	0.04 	0.04 	0.0291674 	0 	
0.07 	-0.0409067 	0.110907 	30.9302 	-0 	0.834519 	29.2092 	
0 	11.2136 	0.207974 	0.236079 	0.35 	8.53017 	0.195664 	4.37444e-05 	
9.29766e-07 	2.32442e-07 	1.83639e-11 	0.00183639 	0.000300028 	0.00153636 	0 	0 	0 	
8.74889e-05 	3.47679e-09 	0.92 	0.04 	0.04 	0.0291674 	-4.73712e-09 	
0.07 	-0.0409067 	0.110907 	61.8605 	-0 	3.33808 	26.7057 	
0 	22.4272 	0.415949 	0.472158 	0.35 	17.0603 	0.195664 	8.74889e-05 	
1.85953e-06 	4.64883e-07 	2.86639e-11 	0.00286639 	0.00150014 	0.00136625 	0 	0 	0 	
0.000174978 	5.79442e-09 	0.92 	0.04 	0.04 	0.0291673 	-8.91695e-09 	
0.07 	-0.0409067 	0.110907 	61.8605 	-0 	6.67616 	23.3676 	
0 	22.4272 	0.415949 	0.472158 	0.35 	17.0603 	0.195665 	8.74889e-05 	
1.85953e-06 	4.64883e-07 	6.14779e-11 	0.00614779 	0.00510049 	0.00104729 	0 	0 	0 	
0.000262467 	8.11206e-09 	0.92 	0.04 	0.04 	0.0291672 	-1.25395e-08 	
0.07 	-0.0409067 	0.110907 	61.8605 	-0 	10.0143 	20.0295 	
0 	22.4272 	0.415949 	0.472158 	0.35 	17.0603 	0.195666 	8.74889e-05 	
1.85953e-06 	4.64883e-07 	1.1872e-10 	0.011872 	0.0111011 	0.000770859 	0 	0 	0 	
0.000349956 	1.04301e-08 	0.92 	0.04 	0.04 	0.0291671 	-1.56047e-08 	
0.07 	-0.0409067 	0.110907 	61.8605 	-0 	13.3524 	16.6914 	
0 	22.4272 	0.415949 	0.472158 	0.35 	17.0603 	0.195668 	8.74889e-05 	
1.85953e-06 	4.64883e-07 	2.0039e-10 	0.020039 	0.0195021 	0.000536951 	0 	0 	0 	
0.000437444 	1.27481e-08 	0.92 	0.04 	0.04 	0.029167 	-1.81127e-08 	
0.07 	-0.0409067 	0.110907 	61.8605 	-0 	16.6906 	13.3532 	
0 	22.4272 	0.415949 	0.472158 	0.35 	17.0603 	0.195671 	8.74889e-05 	
1.85953e-06 	4.64883e-07 	3.0649e-10 	0.030649 	0.0303035 	0.000345568 	0 	0 	0 	
0.000524933 	1.50662e-08 	0.92 	0.04 	0.04 	0.0291668 	-2.00633e-08 	
0.07 	-0.0409067 	0.110907 	61.8605 	-0 	20.0288 	10.015 	
0 	22.4272 	0.415949 	0.472158 	0.35 	17.0603 	0.195674 	8.74889e-05 	
1.85953e-06 	4.64883e-07 	4.37021e-10 	0.0437021 	0.0435054 	0.000196711 	0 	0 	0 	
0.000612422 	1.73844e-08 	0.92 	0.04 	0.04 	0.0291666 	-2.14567e-08 	
0.07 	-0.0409067 	0.110907 	61.8605 	-0 	23.367 	6.67673 	
0 	22.4272 	0.415949 	0.472158 	0.35 	17.0603 	0.195677 	8.74889e-05 	
1.85953e-06 	4.64883e-07 	5.91984e-10 	0.0591984 	0.059108 	9.03826e-05 	0 	0 	0 	
0.000699911 	1.97025e-08 	0.92 	0.04 	0.04 	0.0291664 	-2.22927e-08 	
0.07 	-0.0409067 	0.110907 	61.8605 	-0 	26.7054 	3.3384 	
0 	22.4272 	0.415949 	0.472158 	0.35 	17.0603 	0.195681 	8.74889e-05 	
1.85953e-06 	4.64883e-07 	7.71381e-10 	0.0771381 	0.0771115 	2.65837e-05 	0 	0 	0 	
0.0007874 	2.08624e-08 	0.92 	0.04 	0.04 	0.0291661 	-2.25714e-08 	
0.07 	-0.0409067 	0.110907 	30.9302 	-0 	29.2092 	0.83461 	
0 	11.2136 	0.207974 	0.236079 	0.35 	8.53017 	0.195686 	4.37444e-05 	
9.29766e-07 	2.32442e-07 	8.67188e-10 	0.0867188 	0.0867135 	5.31688e-06 	0 	0 	0 	
ZONE T = "t = 2e-08 [s]" I = 10 SOLUTIONTIME = 2.0000000000000E-08
0 	1.159e-09 	0.92 	0.04 	0.04 	0.0291674 	0 	
-0.0291674 	-0.0409067 	0.0117393 	1.66905 	8.64918e-09 	0.834524 	29.2094 	
4.18314e-11 	11.2136 	0.207974 	0.236079 	0.35 	8.53017 	0.195664 	4.37444e-05 	
9.29766e-07 	2.32442e-07 	3.6728e-11 	0.00183641 	0.00060006 	0.00307274 	0 	0 	0 	
8.74889e-05 	3.47699e-09 	0.92 	0.04 	0.04 	0.0291674 	-4.73715e-09 	
-0.0291674 	-0.0409067 	0.0117394 	3.3381 	2.59476e-08 	3.3381 	26.7059 	
8.36628e-11 	22.4272 	0.415949 	0.472158 	0.35 	17.0603 	0.195664 	8.74889e-05 	
1.85953e-06 	4.64883e-07 	5.73282e-11 	0.00286643 	0.0030003 	0.00273252 	0 	0 	0 	
0.000174978 	5.795e-09 	0.92 	0.04 	0.04 	0.0291673 	-8.91701e-09 	
-0.0291673 	-0.0409067 	0.0117394 	3.33811 	4.3246e-08 	6.67621 	23.3677 	
8.36631e-11 	22.4272 	0.415949 	0.472158 	0.35 	17.0603 	0.195665 	8.74889e-05 	
1.85953e-06 	4.64883e-07 	1.22956e-10 	0.00614786 	0.010201 	0.0020946 	0 	0 	0 	
0.000262467 	8.11302e-09 	0.92 	0.04 	0.04 	0.0291672 	-1.25396e-08 	
-0.0291672 	-0.0409067 	0.0117395 	3.33814 	6.05446e-08 	10.0143 	20.0296 	
8.36637e-11 	22.4272 	0.415949 	0.472158 	0.35 	17.0603 	0.195666 	8.74889e-05 	
1.85953e-06 	4.64883e-07 	2.37441e-10 	0.0118721 	0.0222024 	0.00154173 	0 	0 	0 	
0.000349956 	1.04311e-08 	0.92 	0.04 	0.04 	0.0291671 	-1.56048e-08 	
-0.0291671 	-0.0409067 	0.0117396 	3.33817 	7.78433e-08 	13.3525 	16.6915 	
8.36645e-11 	22.4272 	0.415949 	0.472158 	0.35 	17.0603 	0.195668 	8.74889e-05 	
1.85953e-06 	4.64883e-07 	4.00783e-10 	0.0200393 	0.0390044 	0.00107391 	0 	0 	0 	
0.000437444 	1.27484e-08 	0.92 	0.04 	0.04 	0.029167 	-1.81128e-08 	
-0.029167 	-0.0409067 	0.0117397 	3.33821 	9.51422e-08 	16.6907 	13.3533 	
8.36655e-11 	22.4272 	0.415949 	0.472158 	0.35 	17.0603 	0.195671 	8.74889e-05 	
1.85953e-06 	4.64883e-07 	6.12985e-10 	0.0306494 	0.0606073 	0.00069114 	0 	0 	0 	
0.000524933 	1.50658e-08 	0.92 	0.04 	0.04 	0.0291668 	-2.00635e-08 	
-0.0291668 	-0.0409067 	0.0117399 	3.33826 	1.12441e-07 	20.0289 	10.0151 	
8.36667e-11 	22.4272 	0.415949 	0.472158 	0.35 	17.0603 	0.195674 	8.74889e-05 	
1.85953e-06 	4.64883e-07 	8.74048e-10 	0.0437027 	0.0870114 	0.000393425 	0 	0 	0 	
0.000612422 	1.73836e-08 	0.92 	0.04 	0.04 	0.0291666 	-2.14568e-08 	
-0.0291666 	-0.0409067 	0.0117401 	3.33831 	1.29741e-07 	23.3672 	6.67677 	
8.36682e-11 	22.4272 	0.415949 	0.472158 	0.35 	17.0603 	0.195677 	8.74889e-05 	
1.85953e-06 	4.64883e-07 	1.18398e-09 	0.0591992 	0.118217 	0.000180766 	0 	0 	0 	
0.000699911 	1.97014e-08 	0.92 	0.04 	0.04 	0.0291664 	-2.22928e-08 	
-0.0291664 	-0.0409067 	0.0117403 	3.33838 	1.47041e-07 	26.7055 	3.33842 	
8.36699e-11 	22.4272 	0.415949 	0.472158 	0.35 	17.0603 	0.195681 	8.74889e-05 	
1.85953e-06 	4.64883e-07 	1.54277e-09 	0.0771391 	0.154224 	5.31676e-05 	0 	0 	0 	
0.0007874 	2.08612e-08 	0.92 	0.04 	0.04 	0.0291661 	-2.25715e-08 	
-0.0291661 	-0.0409067 	0.0117406 	1.66923 	1.47041e-07 	29.2093 	0.834615 	
4.18359e-11 	11.2136 	0.207974 	0.236079 	0.35 	8.53017 	0.195685 	4.37444e-05 	
9.29766e-07 	2.32442e-07 	1.73439e-09 	0.0867199 	0.173428 	1.06338e-05 	0 	0 	0 	
ZONE T = "t = 3e-08 [s]" I = 10 SOLUTIONTIME = 3.0000000000000E-08
0 	1.159e-09 	0.92 	0.04 	0.04 	0.0291674 	0 	
-0.0291674 	-0.0409067 	0.0117393 	1.66905 	8.64924e-09 	0.834524 	29.2094 	
8.36627e-11 	11.2136 	0.207974 	0.236079 	0.35 	8.53017 	0.195664 	4.37444e-05 	
9.29766e-07 	2.32442e-07 	5.50921e-11 	0.00183641 	0.000900091 	0.00460912 	0 	0 	0 	
8.74889e-05 	3.47699e-09 	0.92 	0.04 	0.04 	0.0291674 	-4.73715e-09 	
-0.0291674 	-0.0409067 	0.0117393 	3.3381 	2.59477e-08 	3.3381 	26.7059 	
1.67326e-10 	22.4272 	0.415949 	0.472158 	0.35 	17.0603 	0.195664 	8.74889e-05 	
1.85953e-06 	4.64883e-07 	8.59925e-11 	0.00286643 	0.00450046 	0.00409879 	0 	0 	0 	
0.000174978 	5.795e-09 	0.92 	0.04 	0.04 	0.0291673 	-8.91701e-09 	
-0.0291673 	-0.0409067 	0.0117394 	3.33811 	4.32463e-08 	6.67621 	23.3677 	
1.67326e-10 	22.4272 	0.415949 	0.472158 	0.35 	17.0603 	0.195665 	8.74889e-05 	
1.85953e-06 	4.64883e-07 	1.84435e-10 	0.00614786 	0.0153016 	0.0031419 	0 	0 	0 	
0.000262467 	8.11302e-09 	0.92 	0.04 	0.04 	0.0291672 	-1.25396e-08 	
-0.0291672 	-0.0409067 	0.0117395 	3.33813 	6.05449e-08 	10.0143 	20.0296 	
1.67327e-10 	22.4272 	0.415949 	0.472158 	0.35 	17.0603 	0.195666 	8.74889e-05 	
1.85953e-06 	4.64883e-07 	3.56162e-10 	0.0118721 	0.0333036 	0.0023126 	0 	0 	0 	
0.000349956 	1.04311e-08 	0.92 	0.04 	0.04 	0.0291671 	-1.56048e-08 	
-0.0291671 	-0.0409067 	0.0117396 	3.33817 	7.78438e-08 	13.3525 	16.6915 	
1.67329e-10 	22.4272 	0.415949 	0.472158 	0.35 	17.0603 	0.195668 	8.74889e-05 	
1.85953e-06 	4.64883e-07 	6.01176e-10 	0.0200393 	0.0585067 	0.00161087 	0 	0 	0 	
0.000437444 	1.27499e-08 	0.92 	0.04 	0.04 	0.029167 	-1.81128e-08 	
-0.029167 	-0.0409067 	0.0117397 	3.33821 	9.51428e-08 	16.6907 	13.3533 	
1.67331e-10 	22.4272 	0.415949 	0.472158 	0.35 	17.0603 	0.195671 	8.74889e-05 	
1.85953e-06 	4.64883e-07 	9.19479e-10 	0.0306494 	0.0909112 	0.00103671 	0 	0 	0 	
0.000524933 	1.50687e-08 	0.92 	0.04 	0.04 	0.0291668 	-2.00635e-08 	
-0.0291668 	-0.0409067 	0.0117399 	3.33826 	1.12442e-07 	20.0289 	10.0151 	
1.67333e-10 	22.4272 	0.415949 	0.472158 	0.35 	17.0603 	0.195674 	8.74889e-05 	
1.85953e-06 	4.64883e-07 	1.31107e-09 	0.0437027 	0.130517 	0.000590139 	0 	0 	0 	
0.000612422 	1.73872e-08 	0.92 	0.04 	0.04 	0.0291666 	-2.14568e-08 	
-0.0291666 	-0.0409067 	0.0117401 	3.33831 	1.29742e-07 	23.3672 	6.67677 	
1.67336e-10 	22.4272 	0.415949 	0.472158 	0.35 	17.0603 	0.195677 	8.74889e-05 	
1.85953e-06 	4.64883e-07 	1.77597e-09 	0.0591992 	0.177326 	0.00027115 	0 	0 	0 	
0.000699911 	1.97058e-08 	0.92 	0.04 	0.04 	0.0291664 	-2.22928e-08 	
-0.0291664 	-0.0409067 	0.0117403 	3.33838 	1.47042e-07 	26.7055 	3.33842 	
1.6734e-10 	22.4272 	0.415949 	0.472158 	0.35 	17.0603 	0.195681 	8.74889e-05 	
1.85953e-06 	4.64883e-07 	2.31416e-09 	0.0771391 	0.231337 	7.97516e-05 	0 	0 	0 	
0.0007874 	2.08642e-08 	0.92 	0.04 	0.04 	0.0291661 	-2.25715e-08 	
-0.0291661 	-0.0409067 	0.0117406 	1.66923 	1.47042e-07 	29.2093 	0.834615 	
8.36718e-11 	11.2136 	0.207974 	0.236079 	0.35 	8.53017 	0.195685 	4.37444e-05 	
9.29766e-07 	2.32442e-07 	2.60159e-09 	0.0867199 	0.260143 	1.59508e-05 	0 	0 	0 	
ZONE T = "t = 4e-08 [s]" I = 10 SOLUTIONTIME = 4.0000000000000E-08
0 	1.15863e-09 	0.92 	0.04 	0.04 	0.0291674 	0 	
-0.0291674 	-0.0409067 	0.0117393 	1.66905 	8.64924e-09 	0.834524 	29.2094 	
1.25494e-10 	11.2136 	0.207974 	0.236079 	0.35 	8.53017 	0.195664 	4.37444e-05 	
9.29766e-07 	2.32442e-07 	7.34562e-11 	0.00183641 	0.00120012 	0.0061455 	0 	0 	0 	
8.74889e-05 	3.47554e-09 	0.92 	0.04 	0.04 	0.0291674 	-4.73715e-09 	
-0.0291674 	-0.0409067 	0.0117393 	3.3381 	2.59477e-08 	3.3381 	26.7059 	
2.50988e-10 	22.4272 	0.415949 	0.472158 	0.35 	17.0603 	0.195664 	8.74889e-05 	
1.85953e-06 	4.64883e-07 	1.14657e-10 	0.00286643 	0.00600062 	0.00546505 	0 	0 	0 	
0.000174978 	5.79282e-09 	0.92 	0.04 	0.04 	0.0291673 	-8.91701e-09 	
-0.0291673 	-0.0409067 	0.0117394 	3.33811 	4.32463e-08 	6.67621 	23.3677 	
2.50989e-10 	22.4272 	0.415949 	0.472158 	0.35 	17.0603 	0.195665 	8.74889e-05 	
1.85953e-06 	4.64883e-07 	2.45914e-10 	0.00614786 	0.0204022 	0.00418921 	0 	0 	0 	
0.000262467 	8.11012e-09 	0.92 	0.04 	0.04 	0.0291672 	-1.25396e-08 	
-0.0291672 	-0.0409067 	0.0117395 	3.33813 	6.05449e-08 	10.0143 	20.0296 	
2.50991e-10 	22.4272 	0.415949 	0.472158 	0.35 	17.0603 	0.195666 	8.74889e-05 	
1.85953e-06 	4.64883e-07 	4.74884e-10 	0.0118721 	0.0444049 	0.00308347 	0 	0 	0 	
0.000349956 	1.04271e-08 	0.92 	0.04 	0.04 	0.0291671 	-1.56048e-08 	
-0.0291671 	-0.0409067 	0.0117396 	3.33817 	7.78438e-08 	13.3525 	16.6915 	
2.50993e-10 	22.4272 	0.415949 	0.472158 	0.35 	17.0603 	0.195668 	8.74889e-05 	
1.85953e-06 	4.64883e-07 	8.01569e-10 	0.0200393 	0.0780091 	0.00214782 	0 	0 	0 	
0.000437444 	1.2744e-08 	0.92 	0.04 	0.04 	0.029167 	-1.81128e-08 	
-0.029167 	-0.0409067 	0.0117397 	3.33821 	9.51428e-08 	16.6907 	13.3533 	
2.50996e-10 	22.4272 	0.415949 	0.472158 	0.35 	17.0603 	0.195671 	8.74889e-05 	
1.85953e-06 	4.64883e-07 	1.22597e-09 	0.0306494 	0.121215 	0.00138229 	0 	0 	0 	
0.000524933 	1.50622e-08 	0.92 	0.04 	0.04 	0.0291668 	-2.00635e-08 	
-0.0291668 	-0.0409067 	0.0117399 	3.33826 	1.12442e-07 	20.0289 	10.0151 	
2.51e-10 	22.4272 	0.415949 	0.472158 	0.35 	17.0603 	0.195674 	8.74889e-05 	
1.85953e-06 	4.64883e-07 	1.7481e-09 	0.0437027 	0.174023 	0.000786853 	0 	0 	0 	
0.000612422 	1.73803e-08 	0.92 	0.04 	0.04 	0.0291666 	-2.14568e-08 	
-0.0291666 	-0.0409067 	0.0117401 	3.33831 	1.29742e-07 	23.3672 	6.67677 	
2.51005e-10 	22.4272 	0.415949 	0.472158 	0.35 	17.0603 	0.195677 	8.74889e-05 	
1.85953e-06 	4.64883e-07 	2.36796e-09 	0.0591992 	0.236434 	0.000361534 	0 	0 	0 	
0.000699911 	1.96985e-08 	0.92 	0.04 	0.04 	0.0291664 	-2.22928e-08 	
-0.0291664 	-0.0409067 	0.0117403 	3.33838 	1.47042e-07 	26.7055 	3.33842 	
2.5101e-10 	22.4272 	0.415949 	0.472158 	0.35 	17.0603 	0.195681 	8.74889e-05 	
1.85953e-06 	4.64883e-07 	3.08555e-09 	0.0771391 	0.308449 	0.000106336 	0 	0 	0 	
0.0007874 	2.08576e-08 	0.92 	0.04 	0.04 	0.0291661 	-2.25715e-08 	
-0.0291661 	-0.0409067 	0.0117406 	1.66923 	1.47042e-07 	29.2093 	0.834615 	
1.25508e-10 	11.2136 	0.207974 	0.236079 	0.35 	8.53017 	0.195685 	4.37444e-05 	
9.29766e-07 	2.32442e-07 	3.46879e-09 	0.0867199 	0.346857 	2.12677e-05 	0 	0 	0 	
ZONE T = "t = 5.5e-08 [s]" I = 10 SOLUTIONTIME = 5.5000000000000E-08
0 	1.15936e-09 	0.92 	0.04 	0.04 	0.0291674 	0 	
-0.0291674 	-0.0409067 	0.0117393 	1.66905 	8.64923e-09 	0.834524 	29.2094 	
1.67325e-10 	11.2136 	0.207974 	0.236079 	0.35 	8.53017 	0.195664 	4.37444e-05 	
9.29766e-07 	2.32442e-07 	1.01002e-10 	0.00183641 	0.00110011 	0.00563338 	0 	0 	0 	
8.74889e-05 	3.47808e-09 	0.92 	0.04 	0.04 	0.0291674 	-4.73715e-09 	
-0.0291674 	-0.0409067 	0.0117393 	3.3381 	2.59477e-08 	3.3381 	26.7059 	
3.34651e-10 	22.4272 	0.415949 	0.472158 	0.35 	17.0603 	0.195664 	8.74889e-05 	
1.85953e-06 	4.64883e-07 	1.57653e-10 	0.00286643 	0.00550057 	0.00500964 	0 	0 	0 	
0.000174978 	5.79682e-09 	0.92 	0.04 	0.04 	0.0291673 	-8.91701e-09 	
-0.0291673 	-0.0409067 	0.0117394 	3.33811 	4.32463e-08 	6.67621 	23.3677 	
3.34653e-10 	22.4272 	0.415949 	0.472158 	0.35 	17.0603 	0.195665 	8.74889e-05 	
1.85953e-06 	4.64883e-07 	3.38132e-10 	0.00614786 	0.018702 	0.00384011 	0 	0 	0 	
0.000262467 	8.11556e-09 	0.92 	0.04 	0.04 	0.0291672 	-1.25396e-08 	
-0.0291672 	-0.0409067 	0.0117395 	3.33813 	6.05449e-08 	10.0143 	20.0296 	
3.34655e-10 	22.4272 	0.415949 	0.472158 	0.35 	17.0603 	0.195666 	8.74889e-05 	
1.85953e-06 	4.64883e-07 	6.52966e-10 	0.0118721 	0.0407045 	0.00282651 	0 	0 	0 	
0.000349956 	1.04343e-08 	0.92 	0.04 	0.04 	0.0291671 	-1.56048e-08 	
-0.0291671 	-0.0409067 	0.0117396 	3.33817 	7.78438e-08 	13.3525 	16.6915 	
3.34658e-10 	22.4272 	0.415949 	0.472158 	0.35 	17.0603 	0.195668 	8.74889e-05 	
1.85953e-06 	4.64883e-07 	1.10216e-09 	0.0200393 	0.0715084 	0.00196884 	0 	0 	0 	
0.000437444 	1.27531e-08 	0.92 	0.04 	0.04 	0.029167 	-1.81128e-08 	
-0.029167 	-0.0409067 	0.0117397 	3.33821 	9.51428e-08 	16.6907 	13.3533 	
3.34662e-10 	22.4272 	0.415949 	0.472158 	0.35 	17.0603 	0.195671 	8.74889e-05 	
1.85953e-06 	4.64883e-07 	1.68571e-09 	0.0306494 	0.111114 	0.0012671 	0 	0 	0 	
0.000524933 	1.50712e-08 	0.92 	0.04 	0.04 	0.0291668 	-2.00635e-08 	
-0.0291668 	-0.0409067 	0.0117399 	3.33826 	1.12442e-07 	20.0289 	10.0151 	
3.34667e-10 	22.4272 	0.415949 	0.472158 	0.35 	17.0603 	0.195674 	8.74889e-05 	
1.85953e-06 	4.64883e-07 	2.40364e-09 	0.0437027 	0.159522 	0.000721283 	0 	0 	0 	
0.000612422 	1.73894e-08 	0.92 	0.04 	0.04 	0.0291666 	-2.14568e-08 	
-0.0291666 	-0.0409067 	0.0117401 	3.33831 	1.29742e-07 	23.3672 	6.67677 	
3.34673e-10 	22.4272 	0.415949 	0.472158 	0.35 	17.0603 	0.195677 	8.74889e-05 	
1.85953e-06 	4.64883e-07 	3.25595e-09 	0.0591992 	0.216732 	0.000331406 	0 	0 	0 	
0.000699911 	1.97076e-08 	0.92 	0.04 	0.04 	0.0291664 	-2.22928e-08 	
-0.0291664 	-0.0409067 	0.0117403 	3.33838 	1.47042e-07 	26.7055 	3.33842 	
3.3468e-10 	22.4272 	0.415949 	0.472158 	0.35 	17.0603 	0.195681 	8.74889e-05 	
1.85953e-06 	4.64883e-07 	4.24264e-09 	0.0771391 	0.282745 	9.74744e-05 	0 	0 	0 	
0.0007874 	2.08665e-08 	0.92 	0.04 	0.04 	0.0291661 	-2.25715e-08 	
-0.0291661 	-0.0409067 	0.0117406 	1.66923 	1.47042e-07 	29.2093 	0.834615 	
1.67344e-10 	11.2136 	0.207974 	0.236079 	0.35 	8.53017 	0.195685 	4.37444e-05 	
9.29766e-07 	2.32442e-07 	4.76958e-09 	0.0867199 	0.317953 	1.94954e-05 	0 	0 	0 	
ZONE T = "t = 7.75e-08 [s]" I = 10 SOLUTIONTIME = 7.7500000000000E-08
0 	1.15892e-09 	0.92 	0.04 	0.04 	0.0291674 	0 	
-0.0291674 	-0.0409067 	0.0117393 	1.66905 	8.64923e-09 	0.834524 	29.2094 	
2.30073e-10 	11.2136 	0.207974 	0.236079 	0.35 	8.53017 	0.195664 	4.37444e-05 	
9.29766e-07 	2.32442e-07 	1.42322e-10 	0.00183641 	0.00103344 	0.00529197 	0 	0 	0 	
8.74889e-05 	3.47691e-09 	0.92 	0.04 	0.04 	0.0291674 	-4.73715e-09 	
-0.0291674 	-0.0409067 	0.0117393 	3.3381 	2.59477e-08 	3.3381 	26.7059 	
4.60146e-10 	22.4272 	0.415949 	0.472158 	0.35 	17.0603 	0.195664 	8.74889e-05 	
1.85953e-06 	4.64883e-07 	2.22148e-10 	0.00286643 	0.00516721 	0.00470603 	0 	0 	0 	
0.000174978 	5.79476e-09 	0.92 	0.04 	0.04 	0.0291673 	-8.91701e-09 	
-0.0291673 	-0.0409067 	0.0117394 	3.33811 	4.32463e-08 	6.67621 	23.3677 	
4.60147e-10 	22.4272 	0.415949 	0.472158 	0.35 	17.0603 	0.195665 	8.74889e-05 	
1.85953e-06 	4.64883e-07 	4.76459e-10 	0.00614786 	0.0175686 	0.00360738 	0 	0 	0 	
0.000262467 	8.11262e-09 	0.92 	0.04 	0.04 	0.0291672 	-1.25396e-08 	
-0.0291672 	-0.0409067 	0.0117395 	3.33813 	6.05449e-08 	10.0143 	20.0296 	
4.6015e-10 	22.4272 	0.415949 	0.472158 	0.35 	17.0603 	0.195666 	8.74889e-05 	
1.85953e-06 	4.64883e-07 	9.20088e-10 	0.0118721 	0.0382376 	0.00265521 	0 	0 	0 	
0.000349956 	1.04307e-08 	0.92 	0.04 	0.04 	0.0291671 	-1.56048e-08 	
-0.0291671 	-0.0409067 	0.0117396 	3.33817 	7.78438e-08 	13.3525 	16.6915 	
4.60154e-10 	22.4272 	0.415949 	0.472158 	0.35 	17.0603 	0.195668 	8.74889e-05 	
1.85953e-06 	4.64883e-07 	1.55304e-09 	0.0200393 	0.0671746 	0.00184952 	0 	0 	0 	
0.000437444 	1.27487e-08 	0.92 	0.04 	0.04 	0.029167 	-1.81128e-08 	
-0.029167 	-0.0409067 	0.0117397 	3.33821 	9.51428e-08 	16.6907 	13.3533 	
4.6016e-10 	22.4272 	0.415949 	0.472158 	0.35 	17.0603 	0.195671 	8.74889e-05 	
1.85953e-06 	4.64883e-07 	2.37533e-09 	0.0306494 	0.10438 	0.0011903 	0 	0 	0 	
0.000524933 	1.50668e-08 	0.92 	0.04 	0.04 	0.0291668 	-2.00635e-08 	
-0.0291668 	-0.0409067 	0.0117399 	3.33826 	1.12442e-07 	20.0289 	10.0151 	
4.60167e-10 	22.4272 	0.415949 	0.472158 	0.35 	17.0603 	0.195674 	8.74889e-05 	
1.85953e-06 	4.64883e-07 	3.38695e-09 	0.0437027 	0.149854 	0.000677569 	0 	0 	0 	
0.000612422 	1.73848e-08 	0.92 	0.04 	0.04 	0.0291666 	-2.14568e-08 	
-0.0291666 	-0.0409067 	0.0117401 	3.33831 	1.29742e-07 	23.3672 	6.67677 	
4.60175e-10 	22.4272 	0.415949 	0.472158 	0.35 	17.0603 	0.195677 	8.74889e-05 	
1.85953e-06 	4.64883e-07 	4.58793e-09 	0.0591992 	0.203597 	0.000311321 	0 	0 	0 	
0.000699911 	1.97029e-08 	0.92 	0.04 	0.04 	0.0291664 	-2.22928e-08 	
-0.0291664 	-0.0409067 	0.0117403 	3.33838 	1.47042e-07 	26.7055 	3.33842 	
4.60184e-10 	22.4272 	0.415949 	0.472158 	0.35 	17.0603 	0.195681 	8.74889e-05 	
1.85953e-06 	4.64883e-07 	5.97827e-09 	0.0771391 	0.265609 	9.15669e-05 	0 	0 	0 	
0.0007874 	2.0862e-08 	0.92 	0.04 	0.04 	0.0291661 	-2.25715e-08 	
-0.0291661 	-0.0409067 	0.0117406 	1.66923 	1.47042e-07 	29.2093 	0.834615 	
2.30097e-10 	11.2136 	0.207974 	0.236079 	0.35 	8.53017 	0.195685 	4.37444e-05 	
9.29766e-07 	2.32442e-07 	6.72078e-09 	0.0867199 	0.298683 	1.83139e-05 	0 	0 	0 	
ZONE T = "t = 1.1125e-07 [s]" I = 10 SOLUTIONTIME = 1.1125000000000E-07
0 	1.15889e-09 	0.92 	0.04 	0.04 	0.0291674 	0 	
-0.0291674 	-0.0409067 	0.0117393 	1.66905 	8.64923e-09 	0.834524 	29.2094 	
3.24193e-10 	11.2136 	0.207974 	0.236079 	0.35 	8.53017 	0.195664 	4.37444e-05 	
9.29766e-07 	2.32442e-07 	2.04301e-10 	0.00183641 	0.000988992 	0.00506436 	0 	0 	0 	
8.74889e-05 	3.47656e-09 	0.92 	0.04 	0.04 	0.0291674 	-4.73715e-09 	
-0.0291674 	-0.0409067 	0.0117393 	3.3381 	2.59477e-08 	3.3381 	26.7058 	
6.48387e-10 	22.4272 	0.415949 	0.472158 	0.35 	17.0603 	0.195664 	8.74889e-05 	
1.85953e-06 	4.64883e-07 	3.1889e-10 	0.00286643 	0.00494497 	0.00450362 	0 	0 	0 	
0.000174978 	5.79435e-09 	0.92 	0.04 	0.04 	0.0291673 	-8.91701e-09 	
-0.0291673 	-0.0409067 	0.0117394 	3.33811 	4.32463e-08 	6.67621 	23.3677 	
6.48389e-10 	22.4272 	0.415949 	0.472158 	0.35 	17.0603 	0.195665 	8.74889e-05 	
1.85953e-06 	4.64883e-07 	6.83949e-10 	0.00614786 	0.0168129 	0.00345223 	0 	0 	0 	
0.000262467 	8.11216e-09 	0.92 	0.04 	0.04 	0.0291672 	-1.25396e-08 	
-0.0291672 	-0.0409067 	0.0117395 	3.33813 	6.05449e-08 	10.0143 	20.0296 	
6.48393e-10 	22.4272 	0.415949 	0.472158 	0.35 	17.0603 	0.195666 	8.74889e-05 	
1.85953e-06 	4.64883e-07 	1.32077e-09 	0.0118721 	0.036593 	0.00254101 	0 	0 	0 	
0.000349956 	1.04299e-08 	0.92 	0.04 	0.04 	0.0291671 	-1.56048e-08 	
-0.0291671 	-0.0409067 	0.0117396 	3.33817 	7.78438e-08 	13.3525 	16.6915 	
6.48399e-10 	22.4272 	0.415949 	0.472158 	0.35 	17.0603 	0.195668 	8.74889e-05 	
1.85953e-06 	4.64883e-07 	2.22937e-09 	0.0200393 	0.0642854 	0.00176997 	0 	0 	0 	
0.000437444 	1.27479e-08 	0.92 	0.04 	0.04 	0.029167 	-1.81128e-08 	
-0.029167 	-0.0409067 	0.0117397 	3.33821 	9.51428e-08 	16.6907 	13.3533 	
6.48407e-10 	22.4272 	0.415949 	0.472158 	0.35 	17.0603 	0.195671 	8.74889e-05 	
1.85953e-06 	4.64883e-07 	3.40975e-09 	0.0306494 	0.0998904 	0.00113911 	0 	0 	0 	
0.000524933 	1.50657e-08 	0.92 	0.04 	0.04 	0.0291668 	-2.00635e-08 	
-0.0291668 	-0.0409067 	0.0117399 	3.33826 	1.12442e-07 	20.0289 	10.0151 	
6.48417e-10 	22.4272 	0.415949 	0.472158 	0.35 	17.0603 	0.195674 	8.74889e-05 	
1.85953e-06 	4.64883e-07 	4.86192e-09 	0.0437027 	0.143408 	0.000648427 	0 	0 	0 	
0.000612422 	1.7384e-08 	0.92 	0.04 	0.04 	0.0291666 	-2.14568e-08 	
-0.0291666 	-0.0409067 	0.0117401 	3.33831 	1.29742e-07 	23.3672 	6.67677 	
6.48428e-10 	22.4272 	0.415949 	0.472158 	0.35 	17.0603 	0.195677 	8.74889e-05 	
1.85953e-06 	4.64883e-07 	6.5859e-09 	0.0591992 	0.19484 	0.000297931 	0 	0 	0 	
0.000699911 	1.97023e-08 	0.92 	0.04 	0.04 	0.0291664 	-2.22928e-08 	
-0.0291664 	-0.0409067 	0.0117403 	3.33838 	1.47042e-07 	26.7055 	3.33842 	
6.48442e-10 	22.4272 	0.415949 	0.472158 	0.35 	17.0603 	0.195681 	8.74889e-05 	
1.85953e-06 	4.64883e-07 	8.58171e-09 	0.0771391 	0.254185 	8.76286e-05 	0 	0 	0 	
0.0007874 	2.08615e-08 	0.92 	0.04 	0.04 	0.0291661 	-2.25715e-08 	
-0.0291661 	-0.0409067 	0.0117406 	1.66923 	1.47042e-07 	29.2093 	0.834615 	
3.24228e-10 	11.2136 	0.207974 	0.236079 	0.35 	8.53017 	0.195685 	4.37444e-05 	
9.29766e-07 	2.32442e-07 	9.64758e-09 	0.0867199 	0.285837 	1.75262e-05 	0 	0 	0 	
ZONE T = "t = 1.61875e-07 [s]" I = 10 SOLUTIONTIME = 1.6187500000000E-07
0 	1.15911e-09 	0.92 	0.04 	0.04 	0.0291674 	0 	
-0.0291674 	-0.0409067 	0.0117393 	1.66905 	8.64923e-09 	0.834524 	29.2094 	
4.65374e-10 	11.2136 	0.207974 	0.236079 	0.35 	8.53017 	0.195664 	4.37444e-05 	
9.29766e-07 	2.32442e-07 	2.97269e-10 	0.00183641 	0.00095936 	0.00491262 	0 	0 	0 	
8.74889e-05 	3.47732e-09 	0.92 	0.04 	0.04 	0.0291674 	-4.73715e-09 	
-0.0291674 	-0.0409067 	0.0117393 	3.3381 	2.59477e-08 	3.3381 	26.7058 	
9.30749e-10 	22.4272 	0.415949 	0.472158 	0.35 	17.0603 	0.195664 	8.74889e-05 	
1.85953e-06 	4.64883e-07 	4.64003e-10 	0.00286643 	0.0047968 	0.00436868 	0 	0 	0 	
0.000174978 	5.79554e-09 	0.92 	0.04 	0.04 	0.0291673 	-8.91701e-09 	
-0.0291673 	-0.0409067 	0.0117394 	3.33811 	4.32463e-08 	6.67621 	23.3677 	
9.30752e-10 	22.4272 	0.415949 	0.472158 	0.35 	17.0603 	0.195665 	8.74889e-05 	
1.85953e-06 	4.64883e-07 	9.95184e-10 	0.00614786 	0.0163092 	0.00334879 	0 	0 	0 	
0.000262467 	8.11377e-09 	0.92 	0.04 	0.04 	0.0291672 	-1.25396e-08 	
-0.0291672 	-0.0409067 	0.0117395 	3.33813 	6.05449e-08 	10.0143 	20.0296 	
9.30758e-10 	22.4272 	0.415949 	0.472158 	0.35 	17.0603 	0.195666 	8.74889e-05 	
1.85953e-06 	4.64883e-07 	1.9218e-09 	0.0118721 	0.0354966 	0.00246488 	0 	0 	0 	
0.000349956 	1.04322e-08 	0.92 	0.04 	0.04 	0.0291671 	-1.56048e-08 	
-0.0291671 	-0.0409067 	0.0117396 	3.33817 	7.78438e-08 	13.3525 	16.6915 	
9.30767e-10 	22.4272 	0.415949 	0.472158 	0.35 	17.0603 	0.195668 	8.74889e-05 	
1.85953e-06 	4.64883e-07 	3.24386e-09 	0.0200393 	0.0623593 	0.00171694 	0 	0 	0 	
0.000437444 	1.27503e-08 	0.92 	0.04 	0.04 	0.029167 	-1.81128e-08 	
-0.029167 	-0.0409067 	0.0117397 	3.33821 	9.51428e-08 	16.6907 	13.3533 	
9.30778e-10 	22.4272 	0.415949 	0.472158 	0.35 	17.0603 	0.195671 	8.74889e-05 	
1.85953e-06 	4.64883e-07 	4.96137e-09 	0.0306494 	0.0968974 	0.00110498 	0 	0 	0 	
0.000524933 	1.50684e-08 	0.92 	0.04 	0.04 	0.0291668 	-2.00635e-08 	
-0.0291668 	-0.0409067 	0.0117399 	3.33826 	1.12442e-07 	20.0289 	10.0151 	
9.30792e-10 	22.4272 	0.415949 	0.472158 	0.35 	17.0603 	0.195673 	8.74889e-05 	
1.85953e-06 	4.64883e-07 	7.07437e-09 	0.0437027 	0.139112 	0.000628998 	0 	0 	0 	
0.000612422 	1.73867e-08 	0.92 	0.04 	0.04 	0.0291666 	-2.14568e-08 	
-0.0291666 	-0.0409067 	0.0117401 	3.33831 	1.29742e-07 	23.3672 	6.67677 	
9.30808e-10 	22.4272 	0.415949 	0.472158 	0.35 	17.0603 	0.195677 	8.74889e-05 	
1.85953e-06 	4.64883e-07 	9.58286e-09 	0.0591992 	0.189002 	0.000289005 	0 	0 	0 	
0.000699911 	1.97049e-08 	0.92 	0.04 	0.04 	0.0291664 	-2.22928e-08 	
-0.0291664 	-0.0409067 	0.0117403 	3.33838 	1.47042e-07 	26.7055 	3.33842 	
9.30827e-10 	22.4272 	0.415949 	0.472158 	0.35 	17.0603 	0.195681 	8.74889e-05 	
1.85953e-06 	4.64883e-07 	1.24869e-08 	0.0771391 	0.246569 	8.5003e-05 	0 	0 	0 	
0.0007874 	2.08639e-08 	0.92 	0.04 	0.04 	0.0291661 	-2.25715e-08 	
-0.0291661 	-0.0409067 	0.0117406 	1.66923 	1.47042e-07 	29.2093 	0.834615 	
4.65424e-10 	11.2136 	0.207974 	0.236079 	0.35 	8.53017 	0.195685 	4.37444e-05 	
9.29766e-07 	2.32442e-07 	1.40378e-08 	0.0867199 	0.277272 	1.70011e-05 	0 	0 	0 	
ZONE T = "t = 2.37813e-07 [s]" I = 10 SOLUTIONTIME = 2.3781250000000E-07
0 	1.159e-09 	0.92 	0.04 	0.04 	0.0291674 	0 	
-0.0291674 	-0.0409067 	0.0117393 	1.66905 	8.64923e-09 	0.834524 	29.2094 	
6.77145e-10 	11.2136 	0.207974 	0.236079 	0.35 	8.53017 	0.195664 	4.37444e-05 	
9.29766e-07 	2.32442e-07 	4.36721e-10 	0.00183641 	0.000939605 	0.00481146 	0 	0 	0 	
8.74889e-05 	3.47699e-09 	0.92 	0.04 	0.04 	0.0291674 	-4.73715e-09 	
-0.0291674 	-0.0409067 	0.0117393 	3.3381 	2.59477e-08 	3.3381 	26.7058 	
1.35429e-09 	22.4272 	0.415949 	0.472158 	0.35 	17.0603 	0.195664 	8.74889e-05 	
1.85953e-06 	4.64883e-07 	6.81672e-10 	0.00286643 	0.00469803 	0.00427872 	0 	0 	0 	
0.000174978 	5.795e-09 	0.92 	0.04 	0.04 	0.0291673 	-8.91701e-09 	
-0.0291673 	-0.0409067 	0.0117394 	3.33811 	4.32463e-08 	6.6762 	23.3677 	
1.3543e-09 	22.4272 	0.415949 	0.472158 	0.35 	17.0603 	0.195665 	8.74889e-05 	
1.85953e-06 	4.64883e-07 	1.46204e-09 	0.00614786 	0.0159733 	0.00327983 	0 	0 	0 	
0.000262467 	8.11302e-09 	0.92 	0.04 	0.04 	0.0291672 	-1.25396e-08 	
-0.0291672 	-0.0409067 	0.0117395 	3.33813 	6.05449e-08 	10.0143 	20.0296 	
1.35431e-09 	22.4272 	0.415949 	0.472158 	0.35 	17.0603 	0.195666 	8.74889e-05 	
1.85953e-06 	4.64883e-07 	2.82334e-09 	0.0118721 	0.0347656 	0.00241412 	0 	0 	0 	
0.000349956 	1.04309e-08 	0.92 	0.04 	0.04 	0.0291671 	-1.56048e-08 	
-0.0291671 	-0.0409067 	0.0117396 	3.33817 	7.78438e-08 	13.3525 	16.6915 	
1.35432e-09 	22.4272 	0.415949 	0.472158 	0.35 	17.0603 	0.195668 	8.74889e-05 	
1.85953e-06 	4.64883e-07 	4.76559e-09 	0.0200393 	0.0610752 	0.00168158 	0 	0 	0 	
0.000437444 	1.2749e-08 	0.92 	0.04 	0.04 	0.029167 	-1.81128e-08 	
-0.029167 	-0.0409067 	0.0117397 	3.33821 	9.51428e-08 	16.6907 	13.3533 	
1.35433e-09 	22.4272 	0.415949 	0.472158 	0.35 	17.0603 	0.195671 	8.74889e-05 	
1.85953e-06 	4.64883e-07 	7.28881e-09 	0.0306494 	0.0949022 	0.00108222 	0 	0 	0 	
0.000524933 	1.50671e-08 	0.92 	0.04 	0.04 	0.0291668 	-2.00635e-08 	
-0.0291668 	-0.0409067 	0.0117399 	3.33826 	1.12442e-07 	20.0289 	10.0151 	
1.35435e-09 	22.4272 	0.415949 	0.472158 	0.35 	17.0603 	0.195673 	8.74889e-05 	
1.85953e-06 	4.64883e-07 	1.0393e-08 	0.0437027 	0.136247 	0.000616046 	0 	0 	0 	
0.000612422 	1.73851e-08 	0.92 	0.04 	0.04 	0.0291666 	-2.14568e-08 	