TITLE = "Solution on Domain BulkDomain1D_2"
VARIABLES = "x [m]"  
"Vel_axial" 	"MF_sp(ECDMC)" 	"MF_sp(Li+)" 	"MF_sp(PF6-)" 	"Volt(Electroly)" 	"Volt(CathodeVo)" 	
"Potential Drop Electrode-Electrolyte [V]" 	"Surf_0 Equilibrium Potential Drop Electrode-Electrolyte [V]" 	"Overpotential_0 [V]" 	"Current Source [A/m^2]" 	"Li+ flux [kmol/m^2/s]" 	"Electrolyte Current [A/m^2]" 	"Electrode Current [A/m^2]" 	
"CV Capacity discharged [A-s/m^2]" 	"Depth of discharge in CV [A-s/m^2]" 	"CV Capacity remaining [A-s/m^2]" 	"Initial CV capacity [A-s/m^2]" 	"Porosity []" 	"Surface Area [m2/m2] (area per area)" 	"Specific current (per particle area) [A/m^2]" 	"Control volume thickness [m]" 	
"MoleDens LiCoO2 [kmol/m^3]" 	"MoleDens CoO2 [kmol/m^3]" 	"qHeat_accum [J/m3]" 	"qHeat_step [W/m3]" 	"Joule_Lyte [W/m3]" 	"Joule_Solid [W/m3]" 	"electrodHeat [W/m3]" 	"OverpotHeat [W/m3]" 	"deltaSHeat [W/m3]" 	

ZONE T = "CATH, 0.0000E+00", I = 10, SOLUTIONTIME = 0.000000E+00
ZONETYPE = ORDERED
DATAPACKING = BLOCK
STRANDID = 3
 1.2700000000000E-03  1.3377333333333E-03  1.4054666666667E-03  1.4732000000000E-03  1.5409333333333E-03  1.6086666666667E-03  1.6764000000000E-03  1.7441333333333E-03  1.8118666666667E-03  1.8796000000000E-03 
 0.0000000000000E+00  0.0000000000000E+00  0.0000000000000E+00  0.0000000000000E+00  0.0000000000000E+00  0.0000000000000E+00  0.0000000000000E+00  0.0000000000000E+00  0.0000000000000E+00  0.0000000000000E+00 
 9.2000000000000E-01  9.2000000000000E-01  9.2000000000000E-01  9.2000000000000E-01  9.2000000000000E-01  9.2000000000000E-01  9.2000000000000E-01  9.2000000000000E-01  9.2000000000000E-01  9.2000000000000E-01 
 4.0000000000000E-02  4.0000000000000E-02  4.0000000000000E-02  4.0000000000000E-02  4.0000000000000E-02  4.0000000000000E-02  4.0000000000000E-02  4.0000000000000E-02  4.0000000000000E-02  4.0000000000000E-02 
 4.0000000000000E-02  4.0000000000000E-02  4.0000000000000E-02  4.0000000000000E-02  4.0000000000000E-02  4.0000000000000E-02  4.0000000000000E-02  4.0000000000000E-02  4.0000000000000E-02  4.0000000000000E-02 
-7.0000000000000E-02 -7.0000000000000E-02 -7.0000000000000E-02 -7.0000000000000E-02 -7.0000000000000E-02 -7.0000000000000E-02 -7.0000000000000E-02 -7.0000000000000E-02 -7.0000000000000E-02 -7.0000000000000E-02 
 3.8000000000000E+00  3.8000000000000E+00  3.8000000000000E+00  3.8000000000000E+00  3.8000000000000E+00  3.8000000000000E+00  3.8000000000000E+00  3.8000000000000E+00  3.8000000000000E+00  3.8000000000000E+00 
 3.9714142713289E+00  3.9714142713289E+00  3.9714142713289E+00  3.9714142713289E+00  3.9714142713289E+00  3.9714142713289E+00  3.9714142713289E+00  3.9714142713289E+00  3.9714142713289E+00  3.9714142713289E+00 
-1.0141427132889E-01 -1.0141427132889E-01 -1.0141427132889E-01 -1.0141427132889E-01 -1.0141427132889E-01 -1.0141427132889E-01 -1.0141427132889E-01 -1.0141427132889E-01 -1.0141427132889E-01 -1.0141427132889E-01 
-2.3826357195711E-01 -4.7652714391422E-01 -4.7652714391423E-01 -4.7652714391422E-01 -4.7652714391423E-01 -4.7652714391423E-01 -4.7652714391422E-01 -4.7652714391423E-01 -4.7652714391422E-01 -2.3826357195711E-01 
-0.0000000000000E+00 -0.0000000000000E+00 -0.0000000000000E+00 -0.0000000000000E+00 -0.0000000000000E+00 -0.0000000000000E+00 -0.0000000000000E+00 -0.0000000000000E+00 -0.0000000000000E+00 -0.0000000000000E+00 
 2.3826357195711E-01  0.0000000000000E+00  0.0000000000000E+00  0.0000000000000E+00  0.0000000000000E+00  0.0000000000000E+00  0.0000000000000E+00  0.0000000000000E+00  0.0000000000000E+00  0.0000000000000E+00 
 0.0000000000000E+00 -0.0000000000000E+00 -0.0000000000000E+00 -0.0000000000000E+00 -0.0000000000000E+00 -0.0000000000000E+00 -0.0000000000000E+00 -0.0000000000000E+00 -0.0000000000000E+00  2.3826357195711E-01 
-0.0000000000000E+00 -0.0000000000000E+00 -0.0000000000000E+00 -0.0000000000000E+00 -0.0000000000000E+00 -0.0000000000000E+00 -0.0000000000000E+00 -0.0000000000000E+00 -0.0000000000000E+00 -0.0000000000000E+00 
 7.2440786946225E+03  1.4488157389245E+04  1.4488157389245E+04  1.4488157389245E+04  1.4488157389245E+04  1.4488157389245E+04  1.4488157389245E+04  1.4488157389245E+04  1.4488157389245E+04  7.2440786946225E+03 
 4.9259735123433E+04  9.8519470246865E+04  9.8519470246866E+04  9.8519470246865E+04  9.8519470246866E+04  9.8519470246866E+04  9.8519470246865E+04  9.8519470246866E+04  9.8519470246865E+04  4.9259735123433E+04 
 5.6503813818055E+04  1.1300762763611E+05  1.1300762763611E+05  1.1300762763611E+05  1.1300762763611E+05  1.1300762763611E+05  1.1300762763611E+05  1.1300762763611E+05  1.1300762763611E+05  5.6503813818055E+04 
 3.5000000000000E-01  3.5000000000000E-01  3.5000000000000E-01  3.5000000000000E-01  3.5000000000000E-01  3.5000000000000E-01  3.5000000000000E-01  3.5000000000000E-01  3.5000000000000E-01  3.5000000000000E-01 
 6.6040000000000E+00  1.3208000000000E+01  1.3208000000000E+01  1.3208000000000E+01  1.3208000000000E+01  1.3208000000000E+01  1.3208000000000E+01  1.3208000000000E+01  1.3208000000000E+01  6.6040000000000E+00 
-3.6078675341780E-02 -3.6078675341780E-02 -3.6078675341780E-02 -3.6078675341780E-02 -3.6078675341780E-02 -3.6078675341780E-02 -3.6078675341780E-02 -3.6078675341780E-02 -3.6078675341780E-02 -3.6078675341780E-02 
 3.3866666666667E-05  6.7733333333333E-05  6.7733333333334E-05  6.7733333333333E-05  6.7733333333334E-05  6.7733333333334E-05  6.7733333333333E-05  6.7733333333334E-05  6.7733333333333E-05  3.3866666666667E-05 
 2.6603001364256E+01  2.6603001364256E+01  2.6603001364256E+01  2.6603001364256E+01  2.6603001364256E+01  2.6603001364256E+01  2.6603001364256E+01  2.6603001364256E+01  2.6603001364256E+01  2.6603001364256E+01 
 1.7735334242838E+01  1.7735334242838E+01  1.7735334242838E+01  1.7735334242838E+01  1.7735334242838E+01  1.7735334242838E+01  1.7735334242838E+01  1.7735334242838E+01  1.7735334242838E+01  1.7735334242838E+01 
 0.0000000000000E+00  0.0000000000000E+00  0.0000000000000E+00  0.0000000000000E+00  0.0000000000000E+00  0.0000000000000E+00  0.0000000000000E+00  0.0000000000000E+00  0.0000000000000E+00  0.0000000000000E+00 
 0.0000000000000E+00  0.0000000000000E+00  0.0000000000000E+00  0.0000000000000E+00  0.0000000000000E+00  0.0000000000000E+00  0.0000000000000E+00  0.0000000000000E+00  0.0000000000000E+00  0.0000000000000E+00 
 0.0000000000000E+00  0.0000000000000E+00  0.0000000000000E+00  0.0000000000000E+00  0.0000000000000E+00  0.0000000000000E+00  0.0000000000000E+00  0.0000000000000E+00  0.0000000000000E+00  0.0000000000000E+00 
 0.0000000000000E+00  0.0000000000000E+00  0.0000000000000E+00  0.0000000000000E+00  0.0000000000000E+00  0.0000000000000E+00  0.0000000000000E+00  0.0000000000000E+00  0.0000000000000E+00  0.0000000000000E+00 
 0.0000000000000E+00  0.0000000000000E+00  0.0000000000000E+00  0.0000000000000E+00  0.0000000000000E+00  0.0000000000000E+00  0.0000000000000E+00  0.0000000000000E+00  0.0000000000000E+00  0.0000000000000E+00 
 0.0000000000000E+00  0.0000000000000E+00  0.0000000000000E+00  0.0000000000000E+00  0.0000000000000E+00  0.0000000000000E+00  0.0000000000000E+00  0.0000000000000E+00  0.0000000000000E+00  0.0000000000000E+00 
 0.0000000000000E+00  0.0000000000000E+00  0.0000000000000E+00  0.0000000000000E+00  0.0000000000000E+00  0.0000000000000E+00  0.0000000000000E+00  0.0000000000000E+00  0.0000000000000E+00  0.0000000000000E+00 
ZONE T = "CATH, 1.0000E-08", I = 10, SOLUTIONTIME = 1.000000E-08
ZONETYPE = ORDERED
DATAPACKING = BLOCK
STRANDID = 3
 1.2700000000000E-03  1.3377333333333E-03  1.4054666666667E-03  1.4732000000000E-03  1.5409333333333E-03  1.6086666666667E-03  1.6764000000000E-03  1.7441333333333E-03  1.8118666666667E-03  1.8796000000000E-03 
 9.7998416325973E-09  8.6471566711145E-09  7.4944013688388E-09  6.3415271837115E-09  5.1884855538354E-09  4.0352278894320E-09  2.8817055643640E-09  1.7278699081499E-09  5.7367219716234E-10 -3.6320777531254E-12 
 9.2000000000016E-01  9.2000000000045E-01  9.2000000000045E-01  9.2000000000045E-01  9.2000000000045E-01  9.2000000000045E-01  9.2000000000045E-01  9.2000000000045E-01  9.2000000000045E-01  9.2000000000045E-01 
 3.9999999999921E-02  3.9999999999776E-02  3.9999999999776E-02  3.9999999999776E-02  3.9999999999776E-02  3.9999999999776E-02  3.9999999999776E-02  3.9999999999776E-02  3.9999999999776E-02  3.9999999999776E-02 
 3.9999999999921E-02  3.9999999999776E-02  3.9999999999776E-02  3.9999999999776E-02  3.9999999999776E-02  3.9999999999776E-02  3.9999999999776E-02  3.9999999999776E-02  3.9999999999776E-02  3.9999999999776E-02 
 3.5028209383066E-02  3.5028106424793E-02  3.5028015572272E-02  3.5027936826243E-02  3.5027870187956E-02  3.5027815659168E-02  3.5027773242150E-02  3.5027742939683E-02  3.5027724755057E-02  3.5027718692076E-02 
 3.8418322698113E+00  3.8418311974171E+00  3.8418279801938E+00  3.8418226180105E+00  3.8418151106459E+00  3.8418054577884E+00  3.8417936590358E+00  3.8417797138956E+00  3.8417636217844E+00  3.8417453820286E+00 
 3.9714142713288E+00  3.9714142713287E+00  3.9714142713287E+00  3.9714142713287E+00  3.9714142713287E+00  3.9714142713287E+00  3.9714142713287E+00  3.9714142713287E+00  3.9714142713287E+00  3.9714142713287E+00 
-1.6461021090054E-01 -1.6461118033641E-01 -1.6461430670720E-01 -1.6461959014447E-01 -1.6462703087077E-01 -1.6463662919950E-01 -1.6464838553506E-01 -1.6466230037283E-01 -1.6467837429931E-01 -1.6469660799221E-01 
-8.2970598840040E-01 -1.6594433871700E+00 -1.6595446876843E+00 -1.6597158953257E+00 -1.6599570387986E+00 -1.6602681585407E+00 -1.6606493067369E+00 -1.6611005473385E+00 -1.6616219560853E+00 -8.3110681026681E-01 
 7.3137278244810E-08  6.4537796209556E-08  5.5937855205858E-08  4.7337027026706E-08  3.8734949244510E-08  3.0131259279576E-08  2.1525594227595E-08  1.2917590888417E-08  4.3068856380879E-09  4.3068856380879E-09 
 1.4943043055681E+01  1.3283619514435E+01  1.1624133760316E+01  9.9645117575874E+00  8.3046835870669E+00  6.6445792962923E+00  4.9841288861944E+00  3.3232622987314E+00  1.6619094064260E+00  0.0000000000000E+00 
 0.0000000000000E+00  1.6594194017719E+00  3.3189051562001E+00  4.9785271591906E+00  6.6383553293262E+00  8.2984596200639E+00  9.9589100303862E+00  1.1619776617857E+01  1.3281129510133E+01  1.4943043113463E+01 
 8.2970598840040E-09  1.6594433871700E-08  1.6595446876843E-08  1.6597158953257E-08  1.6599570387986E-08  1.6602681585407E-08  1.6606493067369E-08  1.6611005473385E-08  1.6616219560853E-08  8.3110681026681E-09 
 7.2440786946308E+03  1.4488157389261E+04  1.4488157389262E+04  1.4488157389261E+04  1.4488157389262E+04  1.4488157389262E+04  1.4488157389261E+04  1.4488157389262E+04  1.4488157389262E+04  7.2440786946308E+03 
 4.9259735123425E+04  9.8519470246849E+04  9.8519470246849E+04  9.8519470246849E+04  9.8519470246849E+04  9.8519470246849E+04  9.8519470246849E+04  9.8519470246849E+04  9.8519470246848E+04  4.9259735123425E+04 
 5.6503813818055E+04  1.1300762763611E+05  1.1300762763611E+05  1.1300762763611E+05  1.1300762763611E+05  1.1300762763611E+05  1.1300762763611E+05  1.1300762763611E+05  1.1300762763611E+05  5.6503813818055E+04 
 3.5000000000000E-01  3.5000000000000E-01  3.5000000000000E-01  3.5000000000000E-01  3.5000000000000E-01  3.5000000000000E-01  3.5000000000000E-01  3.5000000000000E-01  3.5000000000000E-01  3.5000000000000E-01 
 6.6040000000000E+00  1.3208000000000E+01  1.3208000000000E+01  1.3208000000000E+01  1.3208000000000E+01  1.3208000000000E+01  1.3208000000000E+01  1.3208000000000E+01  1.3208000000000E+01  6.6040000000000E+00 
-1.2563688497886E-01 -1.2563926311100E-01 -1.2564693274412E-01 -1.2565989516397E-01 -1.2567815254381E-01 -1.2570170794524E-01 -1.2573056531927E-01 -1.2576472950776E-01 -1.2580420624510E-01 -1.2584900216033E-01 
 3.3866666666667E-05  6.7733333333333E-05  6.7733333333334E-05  6.7733333333333E-05  6.7733333333334E-05  6.7733333333334E-05  6.7733333333333E-05  6.7733333333334E-05  6.7733333333333E-05  3.3866666666667E-05 
 2.6603001364259E+01  2.6603001364259E+01  2.6603001364259E+01  2.6603001364259E+01  2.6603001364259E+01  2.6603001364259E+01  2.6603001364259E+01  2.6603001364259E+01  2.6603001364259E+01  2.6603001364259E+01 
 1.7735334242835E+01  1.7735334242835E+01  1.7735334242835E+01  1.7735334242835E+01  1.7735334242835E+01  1.7735334242835E+01  1.7735334242835E+01  1.7735334242835E+01  1.7735334242835E+01  1.7735334242835E+01 
 3.4589354868962E-10  8.4762033346078E-10  2.3795918988824E-09  4.9687730246178E-09  8.6155999614786E-09  1.3320687276381E-08  1.9084828070030E-08  2.5908994262596E-08  3.3794336941481E-08  3.8002457498321E-08 
 3.4589354868962E-02  8.4762033346078E-02  2.3795918988824E-01  4.9687730246178E-01  8.6155999614786E-01  1.3320687276381E+00  1.9084828070030E+00  2.5908994262596E+00  3.3794336941481E+00  3.8002457498321E+00 
 2.1453023935857E-02  1.9078886858451E-02  1.4627080246485E-02  1.0768194263258E-02  7.5022499597091E-03  4.8293683576334E-03  2.7497705329227E-03  1.2637777350938E-03  3.7181154806547E-04  7.4394081347950E-05 
 1.3136330933106E-02  6.5683146487627E-02  2.2333210964175E-01  4.8610910819853E-01  8.5405774618815E-01  1.3272393592805E+00  1.9057330364700E+00  2.5896356485245E+00  3.3790618826000E+00  3.8001713557507E+00 
 0.0000000000000E+00  0.0000000000000E+00  0.0000000000000E+00  0.0000000000000E+00  0.0000000000000E+00  0.0000000000000E+00  0.0000000000000E+00  0.0000000000000E+00  0.0000000000000E+00  0.0000000000000E+00 
 0.0000000000000E+00  0.0000000000000E+00  0.0000000000000E+00  0.0000000000000E+00  0.0000000000000E+00  0.0000000000000E+00  0.0000000000000E+00  0.0000000000000E+00  0.0000000000000E+00  0.0000000000000E+00 
 0.0000000000000E+00  0.0000000000000E+00  0.0000000000000E+00  0.0000000000000E+00  0.0000000000000E+00  0.0000000000000E+00  0.0000000000000E+00  0.0000000000000E+00  0.0000000000000E+00  0.0000000000000E+00 
ZONE T = "CATH, 2.0000E-08", I = 10, SOLUTIONTIME = 2.000000E-08
ZONETYPE = ORDERED
DATAPACKING = BLOCK
STRANDID = 3
 1.2700000000000E-03  1.3377333333333E-03  1.4054666666667E-03  1.4732000000000E-03  1.5409333333333E-03  1.6086666666667E-03  1.6764000000000E-03  1.7441333333333E-03  1.8118666666667E-03  1.8796000000000E-03 
 9.7971886136395E-09  8.6441321204048E-09  7.4910052828173E-09  6.3381227642154E-09  5.1850727925488E-09  4.0318067754136E-09  2.8779128764402E-09  1.7237056303052E-09  5.7022593454517E-10 -7.0825506908704E-12 
 9.2000000000032E-01  9.2000000000089E-01  9.2000000000089E-01  9.2000000000089E-01  9.2000000000089E-01  9.2000000000089E-01  9.2000000000089E-01  9.2000000000090E-01  9.2000000000090E-01  9.2000000000090E-01 
 3.9999999999842E-02  3.9999999999553E-02  3.9999999999553E-02  3.9999999999553E-02  3.9999999999553E-02  3.9999999999553E-02  3.9999999999552E-02  3.9999999999552E-02  3.9999999999552E-02  3.9999999999552E-02 
 3.9999999999842E-02  3.9999999999553E-02  3.9999999999553E-02  3.9999999999553E-02  3.9999999999553E-02  3.9999999999553E-02  3.9999999999552E-02  3.9999999999552E-02  3.9999999999552E-02  3.9999999999552E-02 
 3.5028626929334E-02  3.5028523970314E-02  3.5028433117135E-02  3.5028354370535E-02  3.5028287731763E-02  3.5028233202580E-02  3.5028190785253E-02  3.5028160482565E-02  3.5028142297807E-02  3.5028136234782E-02 
 3.8418325729738E+00  3.8418315005718E+00  3.8418282833252E+00  3.8418229211032E+00  3.8418154136843E+00  3.8418057607570E+00  3.8417939619191E+00  3.8417800166780E+00  3.8417639244504E+00  3.8417456845624E+00 
 3.9714142713287E+00  3.9714142713285E+00  3.9714142713285E+00  3.9714142713285E+00  3.9714142713285E+00  3.9714142713285E+00  3.9714142713285E+00  3.9714142713285E+00  3.9714142713285E+00  3.9714142713285E+00 
-1.6461032528428E-01 -1.6461129472706E-01 -1.6461442112043E-01 -1.6461970459588E-01 -1.6462714537594E-01 -1.6463674377406E-01 -1.6464850019463E-01 -1.6466241513308E-01 -1.6467848917593E-01 -1.6469672300091E-01 
-8.2970784143882E-01 -1.6594470935374E+00 -1.6595483950081E+00 -1.6597196042663E+00 -1.6599607500172E+00 -1.6602718726994E+00 -1.6606530244993E+00 -1.6611042693697E+00 -1.6616256830524E+00 -8.3110867655303E-01 
 7.3137874355962E-08  6.4538264242684E-08  5.5938261088046E-08  4.7337370714477E-08  3.8735230703382E-08  3.0131478395272E-08  2.1525750915191E-08  1.2917685024939E-08  4.3069171029778E-09  4.3069171029778E-09 
 1.4943147209986E+01  1.3283715822364E+01  1.1624218078252E+01  9.9645840779343E+00  8.3047439012642E+00  6.6446275900723E+00  4.9841651410094E+00  3.3232864941312E+00  1.6619215181556E+00  0.0000000000000E+00 
 0.0000000000000E+00  1.6594313881779E+00  3.3189291324480E+00  4.9785631321521E+00  6.6384033093089E+00  8.2985196206397E+00  9.9589820692497E+00  1.1619860716139E+01  1.3281225692400E+01  1.4943147210537E+01 
 1.6594138298392E-08  3.3188904807074E-08  3.3190930826925E-08  3.3194354995919E-08  3.3199177888158E-08  3.3205400312401E-08  3.3213023312362E-08  3.3222048167082E-08  3.3232476391377E-08  1.6622154868198E-08 
 7.2440786946391E+03  1.4488157389278E+04  1.4488157389278E+04  1.4488157389278E+04  1.4488157389278E+04  1.4488157389278E+04  1.4488157389278E+04  1.4488157389278E+04  1.4488157389278E+04  7.2440786946391E+03 
 4.9259735123416E+04  9.8519470246832E+04  9.8519470246833E+04  9.8519470246832E+04  9.8519470246833E+04  9.8519470246833E+04  9.8519470246832E+04  9.8519470246833E+04  9.8519470246832E+04  4.9259735123416E+04 
 5.6503813818055E+04  1.1300762763611E+05  1.1300762763611E+05  1.1300762763611E+05  1.1300762763611E+05  1.1300762763611E+05  1.1300762763611E+05  1.1300762763611E+05  1.1300762763611E+05  5.6503813818055E+04 
 3.5000000000000E-01  3.5000000000000E-01  3.5000000000000E-01  3.5000000000000E-01  3.5000000000000E-01  3.5000000000000E-01  3.5000000000000E-01  3.5000000000000E-01  3.5000000000000E-01  3.5000000000000E-01 
 6.6040000000000E+00  1.3208000000000E+01  1.3208000000000E+01  1.3208000000000E+01  1.3208000000000E+01  1.3208000000000E+01  1.3208000000000E+01  1.3208000000000E+01  1.3208000000000E+01  6.6040000000000E+00 
-1.2563716557220E-01 -1.2563954372633E-01 -1.2564721343187E-01 -1.2566017597413E-01 -1.2567843352644E-01 -1.2570198915047E-01 -1.2573084679734E-01 -1.2576501130903E-01 -1.2580448842008E-01 -1.2584928475970E-01 
 3.3866666666667E-05  6.7733333333333E-05  6.7733333333334E-05  6.7733333333333E-05  6.7733333333334E-05  6.7733333333334E-05  6.7733333333333E-05  6.7733333333334E-05  6.7733333333333E-05  3.3866666666667E-05 
 2.6603001364262E+01  2.6603001364262E+01  2.6603001364262E+01  2.6603001364262E+01  2.6603001364262E+01  2.6603001364262E+01  2.6603001364262E+01  2.6603001364262E+01  2.6603001364262E+01  2.6603001364262E+01 
 1.7735334242833E+01  1.7735334242833E+01  1.7735334242833E+01  1.7735334242833E+01  1.7735334242833E+01  1.7735334242833E+01  1.7735334242833E+01  1.7735334242833E+01  1.7735334242833E+01  1.7735334242833E+01 
 6.9179210500682E-10  1.6952529225333E-09  4.7592181880258E-09  9.9376178627893E-09  1.7231324472772E-08  2.6641567186798E-08  3.8169932253252E-08  5.1818363568701E-08  6.7589163373985E-08  7.6005465599434E-08 
 3.4589855631720E-02  8.4763258907249E-02  2.3796262891434E-01  4.9688448381714E-01  8.6157245112938E-01  1.3320879910417E+00  1.9085104183223E+00  2.5909369306104E+00  3.3794826432504E+00  3.8003008101114E+00 
 2.1453334943811E-02  1.9079163504276E-02  1.4627292444158E-02  1.0768350566572E-02  7.5023589288724E-03  4.8294385557621E-03  2.7498105341663E-03  1.2637961353209E-03  3.7181696628191E-04  7.4395166908490E-05 
 1.3136520687908E-02  6.5684095402974E-02  2.2333533647018E-01  4.8611613325057E-01  8.5407009220050E-01  1.3272585524859E+00  1.9057606077881E+00  2.5896731344751E+00  3.3791108262841E+00  3.8002264149445E+00 
 0.0000000000000E+00  0.0000000000000E+00  0.0000000000000E+00  0.0000000000000E+00  0.0000000000000E+00  0.0000000000000E+00  0.0000000000000E+00  0.0000000000000E+00  0.0000000000000E+00  0.0000000000000E+00 
 0.0000000000000E+00  0.0000000000000E+00  0.0000000000000E+00  0.0000000000000E+00  0.0000000000000E+00  0.0000000000000E+00  0.0000000000000E+00  0.0000000000000E+00  0.0000000000000E+00  0.0000000000000E+00 
 0.0000000000000E+00  0.0000000000000E+00  0.0000000000000E+00  0.0000000000000E+00  0.0000000000000E+00  0.0000000000000E+00  0.0000000000000E+00  0.0000000000000E+00  0.0000000000000E+00  0.0000000000000E+00 
ZONE T = "CATH, 3.0000E-08", I = 10, SOLUTIONTIME = 3.000000E-08
ZONETYPE = ORDERED
DATAPACKING = BLOCK
STRANDID = 3
 1.2700000000000E-03  1.3377333333333E-03  1.4054666666667E-03  1.4732000000000E-03  1.5409333333333E-03  1.6086666666667E-03  1.6764000000000E-03  1.7441333333333E-03  1.8118666666667E-03  1.8796000000000E-03 
 9.7986414444939E-09  8.6466745744491E-09  7.4946373600516E-09  6.3424812569119E-09  5.1901577007071E-09  4.0376180990340E-09  2.8851770309783E-09  1.7320594080333E-09  5.7857971227987E-10  1.6344347749272E-12 
 9.2000000000047E-01  9.2000000000134E-01  9.2000000000134E-01  9.2000000000134E-01  9.2000000000134E-01  9.2000000000134E-01  9.2000000000134E-01  9.2000000000134E-01  9.2000000000134E-01  9.2000000000134E-01 
 3.9999999999763E-02  3.9999999999329E-02  3.9999999999329E-02  3.9999999999329E-02  3.9999999999329E-02  3.9999999999329E-02  3.9999999999329E-02  3.9999999999329E-02  3.9999999999328E-02  3.9999999999328E-02 
 3.9999999999763E-02  3.9999999999329E-02  3.9999999999329E-02  3.9999999999329E-02  3.9999999999329E-02  3.9999999999329E-02  3.9999999999329E-02  3.9999999999329E-02  3.9999999999328E-02  3.9999999999328E-02 
 3.5028626929141E-02  3.5028523970121E-02  3.5028433116942E-02  3.5028354370342E-02  3.5028287731571E-02  3.5028233202387E-02  3.5028190785061E-02  3.5028160482372E-02  3.5028142297614E-02  3.5028136234589E-02 
 3.8418325729735E+00  3.8418315005715E+00  3.8418282833250E+00  3.8418229211029E+00  3.8418154136841E+00  3.8418057607568E+00  3.8417939619189E+00  3.8417800166778E+00  3.8417639244502E+00  3.8417456845622E+00 
 3.9714142713286E+00  3.9714142713283E+00  3.9714142713283E+00  3.9714142713283E+00  3.9714142713283E+00  3.9714142713283E+00  3.9714142713283E+00  3.9714142713283E+00  3.9714142713283E+00  3.9714142713283E+00 
-1.6461032528423E-01 -1.6461129472692E-01 -1.6461442112029E-01 -1.6461970459573E-01 -1.6462714537579E-01 -1.6463674377391E-01 -1.6464850019448E-01 -1.6466241513293E-01 -1.6467848917578E-01 -1.6469672300077E-01 
-8.2970784143706E-01 -1.6594470935278E+00 -1.6595483949986E+00 -1.6597196042567E+00 -1.6599607500076E+00 -1.6602718726899E+00 -1.6606530244898E+00 -1.6611042693601E+00 -1.6616256830429E+00 -8.3110867654824E-01 
 7.3137940334859E-08  6.4538264246132E-08  5.5938261098497E-08  4.7337370730792E-08  3.8735230718625E-08  3.0131478419545E-08  2.1525750945338E-08  1.2917685053995E-08  4.3069171419592E-09  4.3069171419592E-09 
 1.4943147210882E+01  1.3283715822302E+01  1.1624218077711E+01  9.9645840783542E+00  8.3047439012177E+00  6.6446275895596E+00  4.9841651409815E+00  3.3232864941126E+00  1.6619215181463E+00  0.0000000000000E+00 
 0.0000000000000E+00  1.6594313881779E+00  3.3189291324480E+00  4.9785631321521E+00  6.6384033093089E+00  8.2985196204679E+00  9.9589820690779E+00  1.1619860716139E+01  1.3281225692228E+01  1.4943147210188E+01 
 2.4891216712763E-08  4.9783375742352E-08  4.9786414776911E-08  4.9791551038487E-08  4.9798785388234E-08  4.9808119039299E-08  4.9819553557260E-08  4.9833090860683E-08  4.9848733221806E-08  2.4933241633681E-08 
 7.2440786946474E+03  1.4488157389295E+04  1.4488157389295E+04  1.4488157389295E+04  1.4488157389295E+04  1.4488157389295E+04  1.4488157389295E+04  1.4488157389295E+04  1.4488157389295E+04  7.2440786946474E+03 
 4.9259735123408E+04  9.8519470246815E+04  9.8519470246816E+04  9.8519470246815E+04  9.8519470246816E+04  9.8519470246816E+04  9.8519470246815E+04  9.8519470246816E+04  9.8519470246815E+04  4.9259735123408E+04 
 5.6503813818055E+04  1.1300762763611E+05  1.1300762763611E+05  1.1300762763611E+05  1.1300762763611E+05  1.1300762763611E+05  1.1300762763611E+05  1.1300762763611E+05  1.1300762763611E+05  5.6503813818055E+04 
 3.5000000000000E-01  3.5000000000000E-01  3.5000000000000E-01  3.5000000000000E-01  3.5000000000000E-01  3.5000000000000E-01  3.5000000000000E-01  3.5000000000000E-01  3.5000000000000E-01  3.5000000000000E-01 
 6.6040000000000E+00  1.3208000000000E+01  1.3208000000000E+01  1.3208000000000E+01  1.3208000000000E+01  1.3208000000000E+01  1.3208000000000E+01  1.3208000000000E+01  1.3208000000000E+01  6.6040000000000E+00 
-1.2563716557194E-01 -1.2563954372561E-01 -1.2564721343115E-01 -1.2566017597341E-01 -1.2567843352571E-01 -1.2570198914975E-01 -1.2573084679662E-01 -1.2576501130831E-01 -1.2580448841936E-01 -1.2584928475897E-01 
 3.3866666666667E-05  6.7733333333333E-05  6.7733333333334E-05  6.7733333333333E-05  6.7733333333334E-05  6.7733333333334E-05  6.7733333333333E-05  6.7733333333334E-05  6.7733333333333E-05  3.3866666666667E-05 
 2.6603001364264E+01  2.6603001364264E+01  2.6603001364264E+01  2.6603001364264E+01  2.6603001364264E+01  2.6603001364264E+01  2.6603001364264E+01  2.6603001364264E+01  2.6603001364264E+01  2.6603001364264E+01 
 1.7735334242830E+01  1.7735334242830E+01  1.7735334242830E+01  1.7735334242830E+01  1.7735334242830E+01  1.7735334242830E+01  1.7735334242830E+01  1.7735334242830E+01  1.7735334242830E+01  1.7735334242830E+01 
 1.0376906613521E-09  2.5428855116066E-09  7.1388444771556E-09  1.4906462700969E-08  2.5847048984067E-08  3.9962447096609E-08  5.7255036435876E-08  7.7727732874805E-08  1.0138398980556E-07  1.1400847369870E-07 
 3.4589855634530E-02  8.4763258907332E-02  2.3796262891298E-01  4.9688448381802E-01  8.6157245112950E-01  1.3320879909811E+00  1.9085104182624E+00  2.5909369306104E+00  3.3794826431579E+00  3.8003008099263E+00 
 2.1453334946622E-02  1.9079163504359E-02  1.4627292442801E-02  1.0768350567447E-02  7.5023589290005E-03  4.8294385549694E-03  2.7498105341510E-03  1.2637961353138E-03  3.7181696627983E-04  7.4395166908074E-05 
 1.3136520687908E-02  6.5684095402974E-02  2.2333533647018E-01  4.8611613325057E-01  8.5407009220050E-01  1.3272585524261E+00  1.9057606077282E+00  2.5896731344751E+00  3.3791108261916E+00  3.8002264147594E+00 
 0.0000000000000E+00  0.0000000000000E+00  0.0000000000000E+00  0.0000000000000E+00  0.0000000000000E+00  0.0000000000000E+00  0.0000000000000E+00  0.0000000000000E+00  0.0000000000000E+00  0.0000000000000E+00 
 0.0000000000000E+00  0.0000000000000E+00  0.0000000000000E+00  0.0000000000000E+00  0.0000000000000E+00  0.0000000000000E+00  0.0000000000000E+00  0.0000000000000E+00  0.0000000000000E+00  0.0000000000000E+00 
 0.0000000000000E+00  0.0000000000000E+00  0.0000000000000E+00  0.0000000000000E+00  0.0000000000000E+00  0.0000000000000E+00  0.0000000000000E+00  0.0000000000000E+00  0.0000000000000E+00  0.0000000000000E+00 
ZONE T = "CATH, 4.0000E-08", I = 10, SOLUTIONTIME = 4.000000E-08
ZONETYPE = ORDERED
DATAPACKING = BLOCK
STRANDID = 3
 1.2700000000000E-03  1.3377333333333E-03  1.4054666666667E-03  1.4732000000000E-03  1.5409333333333E-03  1.6086666666667E-03  1.6764000000000E-03  1.7441333333333E-03  1.8118666666667E-03  1.8796000000000E-03 
 9.8008206908046E-09  8.6481274053109E-09  7.4953637754644E-09  6.3428444646035E-09  5.1901577006777E-09  4.0361652681002E-09  2.8826345768678E-09  1.7284273307462E-09  5.7458442727154E-10 -2.5424540939784E-12 
 9.2000000000063E-01  9.2000000000179E-01  9.2000000000179E-01  9.2000000000179E-01  9.2000000000179E-01  9.2000000000179E-01  9.2000000000179E-01  9.2000000000179E-01  9.2000000000179E-01  9.2000000000179E-01 
 3.9999999999684E-02  3.9999999999106E-02  3.9999999999106E-02  3.9999999999105E-02  3.9999999999105E-02  3.9999999999105E-02  3.9999999999105E-02  3.9999999999105E-02  3.9999999999104E-02  3.9999999999104E-02 
 3.9999999999684E-02  3.9999999999106E-02  3.9999999999106E-02  3.9999999999105E-02  3.9999999999105E-02  3.9999999999105E-02  3.9999999999105E-02  3.9999999999105E-02  3.9999999999104E-02  3.9999999999104E-02 
 3.5028626928953E-02  3.5028523969932E-02  3.5028433116753E-02  3.5028354370153E-02  3.5028287731382E-02  3.5028233202198E-02  3.5028190784872E-02  3.5028160482183E-02  3.5028142297425E-02  3.5028136234400E-02 
 3.8418325729733E+00  3.8418315005713E+00  3.8418282833248E+00  3.8418229211027E+00  3.8418154136839E+00  3.8418057607566E+00  3.8417939619187E+00  3.8417800166775E+00  3.8417639244499E+00  3.8417456845619E+00 
 3.9714142713285E+00  3.9714142713282E+00  3.9714142713282E+00  3.9714142713282E+00  3.9714142713282E+00  3.9714142713282E+00  3.9714142713282E+00  3.9714142713282E+00  3.9714142713282E+00  3.9714142713282E+00 
-1.6461032528419E-01 -1.6461129472678E-01 -1.6461442112015E-01 -1.6461970459559E-01 -1.6462714537565E-01 -1.6463674377377E-01 -1.6464850019434E-01 -1.6466241513279E-01 -1.6467848917564E-01 -1.6469672300063E-01 
-8.2970784143533E-01 -1.6594470935183E+00 -1.6595483949891E+00 -1.6597196042473E+00 -1.6599607499982E+00 -1.6602718726804E+00 -1.6606530244803E+00 -1.6611042693506E+00 -1.6616256830333E+00 -8.3110867654348E-01 
 7.3138006311741E-08  6.4538264251597E-08  5.5938261109836E-08  4.7337370744205E-08  3.8735230740824E-08  3.0131478441792E-08  2.1525750971432E-08  1.2917685092031E-08  4.3069171739852E-09  4.3069171739852E-09 
 1.4943147210827E+01  1.3283715822241E+01  1.1624218077646E+01  9.9645840782985E+00  8.3047439011713E+00  6.6446275895224E+00  4.9841651409536E+00  3.3232864945696E+00  1.6619215181370E+00  0.0000000000000E+00 
 0.0000000000000E+00  1.6594313881779E+00  3.3189291324480E+00  4.9785631321521E+00  6.6384033093089E+00  8.2985196204679E+00  9.9589820690779E+00  1.1619860715967E+01  1.3281225692228E+01  1.4943147210527E+01 
 3.3188295127116E-08  6.6377846677535E-08  6.6381898726802E-08  6.6388747080959E-08  6.6398392888216E-08  6.6410837766103E-08  6.6426083802063E-08  6.6444133554189E-08  6.6464990052139E-08  3.3244328399116E-08 
 7.2440786946557E+03  1.4488157389311E+04  1.4488157389311E+04  1.4488157389311E+04  1.4488157389311E+04  1.4488157389311E+04  1.4488157389311E+04  1.4488157389311E+04  1.4488157389311E+04  7.2440786946557E+03 