TITLE = "Solution on Domain BulkDomain1D_2"
VARIABLES = "x [m]"  
"Vel_axial" 	"MF_sp(ECDMC)" 	"MF_sp(Li+)" 	"MF_sp(PF6-)" 	"Volt(Electroly)" 	"Volt(CathodeVo)" 	
"Potential Drop Electrode-Electrolyte [V]" 	"Surf_0 Equilibrium Potential Drop Electrode-Electrolyte [V]" 	"Overpotential_0 [V]" 	"Current Source [A/m^2]" 	"Li+ flux [kmol/m^2/s]" 	"Electrolyte Current [A/m^2]" 	"Electrode Current [A/m^2]" 	
"CV Capacity discharged [A-s/m^2]" 	"Depth of discharge in CV [A-s/m^2]" 	"CV Capacity remaining [A-s/m^2]" 	"Initial CV capacity [A-s/m^2]" 	"Porosity []" 	"Surface Area [m2/m2] (area per area)" 	"Specific current (per particle area) [A/m^2]" 	"Control volume thickness [m]" 	
"MoleDens LiCoO2 [kmol/m^3]" 	"MoleDens CoO2 [kmol/m^3]" 	"qHeat_accum [J/m3]" 	"qHeat_step [W/m3]" 	"Joule_Lyte [W/m3]" 	"Joule_Solid [W/m3]" 	"electrodHeat [W/m3]" 	"OverpotHeat [W/m3]" 	"deltaSHeat [W/m3]" 	

ZONE T = "CATH, 0.0000E+00", I = 10, SOLUTIONTIME = 0.000000E+00
ZONETYPE = ORDERED
DATAPACKING = BLOCK
STRANDID = 3
 1.2700000000000E-03  1.3377333333333E-03  1.4054666666667E-03  1.4732000000000E-03  1.5409333333333E-03  1.6086666666667E-03  1.6764000000000E-03  1.7441333333333E-03  1.8118666666667E-03  1.8796000000000E-03 
 0.0000000000000E+00  0.0000000000000E+00  0.0000000000000E+00  0.0000000000000E+00  0.0000000000000E+00  0.0000000000000E+00  0.0000000000000E+00  0.0000000000000E+00  0.0000000000000E+00  0.0000000000000E+00 
 9.2000000000000E-01  9.2000000000000E-01  9.2000000000000E-01  9.2000000000000E-01  9.2000000000000E-01  9.2000000000000E-01  9.2000000000000E-01  9.2000000000000E-01  9.2000000000000E-01  9.2000000000000E-01 
 4.0000000000000E-02  4.0000000000000E-02  4.0000000000000E-02  4.0000000000000E-02  4.0000000000000E-02  4.0000000000000E-02  4.0000000000000E-02  4.0000000000000E-02  4.0000000000000E-02  4.0000000000000E-02 
 4.0000000000000E-02  4.0000000000000E-02  4.0000000000000E-02  4.0000000000000E-02  4.0000000000000E-02  4.0000000000000E-02  4.0000000000000E-02  4.0000000000000E-02  4.0000000000000E-02  4.0000000000000E-02 
-7.0000000000000E-02 -7.0000000000000E-02 -7.0000000000000E-02 -7.0000000000000E-02 -7.0000000000000E-02 -7.0000000000000E-02 -7.0000000000000E-02 -7.0000000000000E-02 -7.0000000000000E-02 -7.0000000000000E-02 
 3.8000000000000E+00  3.8000000000000E+00  3.8000000000000E+00  3.8000000000000E+00  3.8000000000000E+00  3.8000000000000E+00  3.8000000000000E+00  3.8000000000000E+00  3.8000000000000E+00  3.8000000000000E+00 
 3.8700000000000E+00  3.8700000000000E+00  3.8700000000000E+00  3.8700000000000E+00  3.8700000000000E+00  3.8700000000000E+00  3.8700000000000E+00  3.8700000000000E+00  3.8700000000000E+00  3.8700000000000E+00 
 3.9714142713289E+00  3.9714142713289E+00  3.9714142713289E+00  3.9714142713289E+00  3.9714142713289E+00  3.9714142713289E+00  3.9714142713289E+00  3.9714142713289E+00  3.9714142713289E+00  3.9714142713289E+00 
-1.0141427132889E-01 -1.0141427132889E-01 -1.0141427132889E-01 -1.0141427132889E-01 -1.0141427132889E-01 -1.0141427132889E-01 -1.0141427132889E-01 -1.0141427132889E-01 -1.0141427132889E-01 -1.0141427132889E-01 
-2.3826357195711E-01 -4.7652714391422E-01 -4.7652714391423E-01 -4.7652714391422E-01 -4.7652714391423E-01 -4.7652714391423E-01 -4.7652714391422E-01 -4.7652714391423E-01 -4.7652714391422E-01 -2.3826357195711E-01 
-0.0000000000000E+00 -0.0000000000000E+00 -0.0000000000000E+00 -0.0000000000000E+00 -0.0000000000000E+00 -0.0000000000000E+00 -0.0000000000000E+00 -0.0000000000000E+00 -0.0000000000000E+00 -0.0000000000000E+00 
 2.3826357195711E-01  0.0000000000000E+00  0.0000000000000E+00  0.0000000000000E+00  0.0000000000000E+00  0.0000000000000E+00  0.0000000000000E+00  0.0000000000000E+00  0.0000000000000E+00  0.0000000000000E+00 
 0.0000000000000E+00 -0.0000000000000E+00 -0.0000000000000E+00 -0.0000000000000E+00 -0.0000000000000E+00 -0.0000000000000E+00 -0.0000000000000E+00 -0.0000000000000E+00 -0.0000000000000E+00  2.3826357195711E-01 
-0.0000000000000E+00 -0.0000000000000E+00 -0.0000000000000E+00 -0.0000000000000E+00 -0.0000000000000E+00 -0.0000000000000E+00 -0.0000000000000E+00 -0.0000000000000E+00 -0.0000000000000E+00 -0.0000000000000E+00 
 7.2440786946225E+03  1.4488157389245E+04  1.4488157389245E+04  1.4488157389245E+04  1.4488157389245E+04  1.4488157389245E+04  1.4488157389245E+04  1.4488157389245E+04  1.4488157389245E+04  7.2440786946225E+03 
 4.9259735123433E+04  9.8519470246865E+04  9.8519470246866E+04  9.8519470246865E+04  9.8519470246866E+04  9.8519470246866E+04  9.8519470246865E+04  9.8519470246866E+04  9.8519470246865E+04  4.9259735123433E+04 
 5.6503813818055E+04  1.1300762763611E+05  1.1300762763611E+05  1.1300762763611E+05  1.1300762763611E+05  1.1300762763611E+05  1.1300762763611E+05  1.1300762763611E+05  1.1300762763611E+05  5.6503813818055E+04 
 3.5000000000000E-01  3.5000000000000E-01  3.5000000000000E-01  3.5000000000000E-01  3.5000000000000E-01  3.5000000000000E-01  3.5000000000000E-01  3.5000000000000E-01  3.5000000000000E-01  3.5000000000000E-01 
 6.6040000000000E+00  1.3208000000000E+01  1.3208000000000E+01  1.3208000000000E+01  1.3208000000000E+01  1.3208000000000E+01  1.3208000000000E+01  1.3208000000000E+01  1.3208000000000E+01  6.6040000000000E+00 
-3.6078675341780E-02 -3.6078675341780E-02 -3.6078675341780E-02 -3.6078675341780E-02 -3.6078675341780E-02 -3.6078675341780E-02 -3.6078675341780E-02 -3.6078675341780E-02 -3.6078675341780E-02 -3.6078675341780E-02 
 3.3866666666667E-05  6.7733333333333E-05  6.7733333333334E-05  6.7733333333333E-05  6.7733333333334E-05  6.7733333333334E-05  6.7733333333333E-05  6.7733333333334E-05  6.7733333333333E-05  3.3866666666667E-05 
 2.6603001364256E+01  2.6603001364256E+01  2.6603001364256E+01  2.6603001364256E+01  2.6603001364256E+01  2.6603001364256E+01  2.6603001364256E+01  2.6603001364256E+01  2.6603001364256E+01  2.6603001364256E+01 
 1.7735334242838E+01  1.7735334242838E+01  1.7735334242838E+01  1.7735334242838E+01  1.7735334242838E+01  1.7735334242838E+01  1.7735334242838E+01  1.7735334242838E+01  1.7735334242838E+01  1.7735334242838E+01 
 0.0000000000000E+00  0.0000000000000E+00  0.0000000000000E+00  0.0000000000000E+00  0.0000000000000E+00  0.0000000000000E+00  0.0000000000000E+00  0.0000000000000E+00  0.0000000000000E+00  0.0000000000000E+00 
 0.0000000000000E+00  0.0000000000000E+00  0.0000000000000E+00  0.0000000000000E+00  0.0000000000000E+00  0.0000000000000E+00  0.0000000000000E+00  0.0000000000000E+00  0.0000000000000E+00  0.0000000000000E+00 
 0.0000000000000E+00  0.0000000000000E+00  0.0000000000000E+00  0.0000000000000E+00  0.0000000000000E+00  0.0000000000000E+00  0.0000000000000E+00  0.0000000000000E+00  0.0000000000000E+00  0.0000000000000E+00 
 0.0000000000000E+00  0.0000000000000E+00  0.0000000000000E+00  0.0000000000000E+00  0.0000000000000E+00  0.0000000000000E+00  0.0000000000000E+00  0.0000000000000E+00  0.0000000000000E+00  0.0000000000000E+00 
 0.0000000000000E+00  0.0000000000000E+00  0.0000000000000E+00  0.0000000000000E+00  0.0000000000000E+00  0.0000000000000E+00  0.0000000000000E+00  0.0000000000000E+00  0.0000000000000E+00  0.0000000000000E+00 
 0.0000000000000E+00  0.0000000000000E+00  0.0000000000000E+00  0.0000000000000E+00  0.0000000000000E+00  0.0000000000000E+00  0.0000000000000E+00  0.0000000000000E+00  0.0000000000000E+00  0.0000000000000E+00 
 0.0000000000000E+00  0.0000000000000E+00  0.0000000000000E+00  0.0000000000000E+00  0.0000000000000E+00  0.0000000000000E+00  0.0000000000000E+00  0.0000000000000E+00  0.0000000000000E+00  0.0000000000000E+00 
ZONE T = "CATH, 1.0000E-08", I = 10, SOLUTIONTIME = 1.000000E-08
ZONETYPE = ORDERED
DATAPACKING = BLOCK
STRANDID = 3
 1.2700000000000E-03  1.3377333333333E-03  1.4054666666667E-03  1.4732000000000E-03  1.5409333333333E-03  1.6086666666667E-03  1.6764000000000E-03  1.7441333333333E-03  1.8118666666667E-03  1.8796000000000E-03 
 9.8003755534495E-09  8.6476918718860E-09  7.4949378498266E-09  6.3420649452047E-09  5.1890245962162E-09  4.0357682128872E-09  2.8822471694741E-09  1.7284127951161E-09  5.7421636709990E-10 -3.0872656354684E-12 
 9.2000000000019E-01  9.2000000000045E-01  9.2000000000045E-01  9.2000000000045E-01  9.2000000000045E-01  9.2000000000045E-01  9.2000000000045E-01  9.2000000000045E-01  9.2000000000045E-01  9.2000000000045E-01 
 3.9999999999907E-02  3.9999999999776E-02  3.9999999999776E-02  3.9999999999776E-02  3.9999999999776E-02  3.9999999999776E-02  3.9999999999776E-02  3.9999999999776E-02  3.9999999999776E-02  3.9999999999776E-02 
 3.9999999999907E-02  3.9999999999776E-02  3.9999999999776E-02  3.9999999999776E-02  3.9999999999776E-02  3.9999999999776E-02  3.9999999999776E-02  3.9999999999776E-02  3.9999999999776E-02  3.9999999999776E-02 
 3.5028106007820E-02  3.5028003049661E-02  3.5027912197241E-02  3.5027833451300E-02  3.5027766813086E-02  3.5027712284360E-02  3.5027669867389E-02  3.5027639564955E-02  3.5027621380349E-02  3.5027615317375E-02 
 3.8418322233240E+00  3.8418311509309E+00  3.8418279337112E+00  3.8418225715338E+00  3.8418150641776E+00  3.8418054113308E+00  3.8417936125913E+00  3.8417796674666E+00  3.8417635753734E+00  3.8417453356377E+00 
 3.8068041173162E+00  3.8068031478813E+00  3.8068000215139E+00  3.8067947380825E+00  3.8067872973645E+00  3.8067776990464E+00  3.8067659427239E+00  3.8067520279016E+00  3.8067359539930E+00  3.8067177203204E+00 
 3.9714142713288E+00  3.9714142713287E+00  3.9714142713287E+00  3.9714142713287E+00  3.9714142713287E+00  3.9714142713287E+00  3.9714142713287E+00  3.9714142713287E+00  3.9714142713287E+00  3.9714142713287E+00 
-1.6461015401264E-01 -1.6461112344744E-01 -1.6461424981476E-01 -1.6461953324617E-01 -1.6462697396420E-01 -1.6463657228227E-01 -1.6464832860476E-01 -1.6466224342707E-01 -1.6467831733570E-01 -1.6469655100834E-01 
-8.2970506680691E-01 -1.6594415439135E+00 -1.6595428442035E+00 -1.6597140514657E+00 -1.6599551944046E+00 -1.6602663134576E+00 -1.6606474608096E+00 -1.6610987004114E+00 -1.6616201080028E+00 -8.3110588556991E-01 
 7.3137190476142E-08  6.4537724481331E-08  5.5937793035153E-08  4.7336974408591E-08  3.8734906188845E-08  3.0131225781430E-08  2.1525570291898E-08  1.2917576520099E-08  4.3068808470053E-09  4.3068808470053E-09 
 1.4943026450223E+01  1.3283604751781E+01  1.1624120841032E+01  9.9645006821496E+00  8.3046743559501E+00  6.6445719099721E+00  4.9841233446708E+00  3.3232586029556E+00  1.6619075578247E+00  0.0000000000000E+00 
 0.0000000000000E+00  1.6594175585949E+00  3.3189014695024E+00  4.9785216286286E+00  6.6383479547282E+00  8.2984504005709E+00  9.9588989656546E+00  1.1619763707372E+01  1.3281114752691E+01  1.4943026507416E+01 
 8.2970506680691E-09  1.6594415439135E-08  1.6595428442035E-08  1.6597140514657E-08  1.6599551944046E-08  1.6602663134576E-08  1.6606474608096E-08  1.6610987004114E-08  1.6616201080028E-08  8.3110588556991E-09 
 7.2440786946308E+03  1.4488157389261E+04  1.4488157389262E+04  1.4488157389261E+04  1.4488157389262E+04  1.4488157389262E+04  1.4488157389261E+04  1.4488157389262E+04  1.4488157389262E+04  7.2440786946308E+03 
 4.9259735123425E+04  9.8519470246849E+04  9.8519470246849E+04  9.8519470246849E+04  9.8519470246849E+04  9.8519470246849E+04  9.8519470246849E+04  9.8519470246849E+04  9.8519470246848E+04  4.9259735123425E+04 
 5.6503813818055E+04  1.1300762763611E+05  1.1300762763611E+05  1.1300762763611E+05  1.1300762763611E+05  1.1300762763611E+05  1.1300762763611E+05  1.1300762763611E+05  1.1300762763611E+05  5.6503813818055E+04 
 3.5000000000000E-01  3.5000000000000E-01  3.5000000000000E-01  3.5000000000000E-01  3.5000000000000E-01  3.5000000000000E-01  3.5000000000000E-01  3.5000000000000E-01  3.5000000000000E-01  3.5000000000000E-01 
 6.6040000000000E+00  1.3208000000000E+01  1.3208000000000E+01  1.3208000000000E+01  1.3208000000000E+01  1.3208000000000E+01  1.3208000000000E+01  1.3208000000000E+01  1.3208000000000E+01  6.6040000000000E+00 
-1.2563674542806E-01 -1.2563912355493E-01 -1.2564679317107E-01 -1.2565975556221E-01 -1.2567801290162E-01 -1.2570156825088E-01 -1.2573042556099E-01 -1.2576458967379E-01 -1.2580406632365E-01 -1.2584886213960E-01 
 3.3866666666667E-05  6.7733333333333E-05  6.7733333333334E-05  6.7733333333333E-05  6.7733333333334E-05  6.7733333333334E-05  6.7733333333333E-05  6.7733333333334E-05  6.7733333333333E-05  3.3866666666667E-05 
 2.6603001364259E+01  2.6603001364259E+01  2.6603001364259E+01  2.6603001364259E+01  2.6603001364259E+01  2.6603001364259E+01  2.6603001364259E+01  2.6603001364259E+01  2.6603001364259E+01  2.6603001364259E+01 
 1.7735334242835E+01  1.7735334242835E+01  1.7735334242835E+01  1.7735334242835E+01  1.7735334242835E+01  1.7735334242835E+01  1.7735334242835E+01  1.7735334242835E+01  1.7735334242835E+01  1.7735334242835E+01 
 3.4589277997958E-10  8.4761845035128E-10  2.3795866119766E-09  4.9687619851045E-09  8.6155808190179E-09  1.3320657677991E-08  1.9084785661997E-08  2.5908936688665E-08  3.3794261839536E-08  3.8002373040809E-08 
 3.4589277997958E-02  8.4761845035128E-02  2.3795866119766E-01  4.9687619851045E-01  8.6155808190179E-01  1.3320657677991E+00  1.9084785661997E+00  2.5908936688665E+00  3.3794261839536E+00  3.8002373040809E+00 
 2.1452976255267E-02  1.9078844452270E-02  1.4627047732883E-02  1.0768170325951E-02  7.5022332813706E-03  4.8293576208024E-03  2.7497644184468E-03  1.2637749243146E-03  3.7181072092046E-04  7.4393915832528E-05 
 1.3136301742692E-02  6.5683000582858E-02  2.2333161346478E-01  4.8610802818450E-01  8.5405584862042E-01  1.3272364101783E+00  1.9057288017813E+00  2.5896298939422E+00  3.3790543732327E+00  3.8001629101651E+00 
 0.0000000000000E+00  0.0000000000000E+00  0.0000000000000E+00  0.0000000000000E+00  0.0000000000000E+00  0.0000000000000E+00  0.0000000000000E+00  0.0000000000000E+00  0.0000000000000E+00  0.0000000000000E+00 
 0.0000000000000E+00  0.0000000000000E+00  0.0000000000000E+00  0.0000000000000E+00  0.0000000000000E+00  0.0000000000000E+00  0.0000000000000E+00  0.0000000000000E+00  0.0000000000000E+00  0.0000000000000E+00 
 0.0000000000000E+00  0.0000000000000E+00  0.0000000000000E+00  0.0000000000000E+00  0.0000000000000E+00  0.0000000000000E+00  0.0000000000000E+00  0.0000000000000E+00  0.0000000000000E+00  0.0000000000000E+00 
ZONE T = "CATH, 2.0000E-08", I = 10, SOLUTIONTIME = 2.000000E-08
ZONETYPE = ORDERED
DATAPACKING = BLOCK
STRANDID = 3
 1.2700000000000E-03  1.3377333333333E-03  1.4054666666667E-03  1.4732000000000E-03  1.5409333333333E-03  1.6086666666667E-03  1.6764000000000E-03  1.7441333333333E-03  1.8118666666667E-03  1.8796000000000E-03 
 9.7984489486307E-09  8.6453937353416E-09  7.4922681778555E-09  6.3393869396181E-09  5.1863382486869E-09  4.0330735127656E-09  2.8791808955924E-09  1.7249749319518E-09  5.7149651948841E-10 -5.8113236439821E-12 
 9.2000000000037E-01  9.2000000000089E-01  9.2000000000089E-01  9.2000000000089E-01  9.2000000000089E-01  9.2000000000089E-01  9.2000000000089E-01  9.2000000000090E-01  9.2000000000090E-01  9.2000000000090E-01 
 3.9999999999814E-02  3.9999999999553E-02  3.9999999999553E-02  3.9999999999553E-02  3.9999999999553E-02  3.9999999999553E-02  3.9999999999552E-02  3.9999999999552E-02  3.9999999999552E-02  3.9999999999552E-02 
 3.9999999999814E-02  3.9999999999553E-02  3.9999999999553E-02  3.9999999999553E-02  3.9999999999553E-02  3.9999999999553E-02  3.9999999999552E-02  3.9999999999552E-02  3.9999999999552E-02  3.9999999999552E-02 
 3.5028523552161E-02  3.5028420593255E-02  3.5028329740177E-02  3.5028250993665E-02  3.5028184354967E-02  3.5028129825844E-02  3.5028087408565E-02  3.5028057105910E-02  3.5028038921172E-02  3.5028032858154E-02 
 3.8418325264833E+00  3.8418314540825E+00  3.8418282368396E+00  3.8418228746235E+00  3.8418153672130E+00  3.8418057142964E+00  3.8417939154716E+00  3.8417799702460E+00  3.8417638780362E+00  3.8417456381685E+00 
 3.8068040029312E+00  3.8068030334893E+00  3.8067999070994E+00  3.8067946236298E+00  3.8067871828580E+00  3.8067775844706E+00  3.8067658280630E+00  3.8067519131401E+00  3.8067358391151E+00  3.8067176053103E+00 
 3.9714142713287E+00  3.9714142713285E+00  3.9714142713285E+00  3.9714142713285E+00  3.9714142713285E+00  3.9714142713285E+00  3.9714142713285E+00  3.9714142713285E+00  3.9714142713285E+00  3.9714142713285E+00 
-1.6461026839752E-01 -1.6461123783924E-01 -1.6461436422914E-01 -1.6461964769872E-01 -1.6462708847051E-01 -1.6463668685797E-01 -1.6464844326548E-01 -1.6466235818846E-01 -1.6467843221346E-01 -1.6469666601818E-01 
-8.2970691986151E-01 -1.6594452503138E+00 -1.6595465515603E+00 -1.6597177604393E+00 -1.6599589056562E+00 -1.6602700276494E+00 -1.6606511786050E+00 -1.6611024224756E+00 -1.6616238350030E+00 -8.3110775187265E-01 
 7.3137780092496E-08  6.4538192504601E-08  5.5938198907482E-08  4.7337318096362E-08  3.8735187632929E-08  3.0131444892197E-08  2.1525726974565E-08  1.2917670656620E-08  4.3069123118952E-09  4.3069123118952E-09 
 1.4943130603590E+01  1.3283701058281E+01  1.1624205157066E+01  9.9645730015453E+00  8.3047346687205E+00  6.6446202018498E+00  4.9841595985346E+00  3.3232827978797E+00  1.6619196695543E+00  0.0000000000000E+00 
 0.0000000000000E+00  1.6594295450009E+00  3.3189254459220E+00  4.9785576019337E+00  6.6383959350545E+00  8.2985104016621E+00  9.9589710046899E+00  1.1619847805310E+01  1.3281210934099E+01  1.4943130603476E+01 
 1.6594119866684E-08  3.3188867942273E-08  3.3190893957638E-08  3.3194318119050E-08  3.3199141000608E-08  3.3205363411070E-08  3.3212986394145E-08  3.3222011228870E-08  3.3232439430058E-08  1.6622136374426E-08 
 7.2440786946391E+03  1.4488157389278E+04  1.4488157389278E+04  1.4488157389278E+04  1.4488157389278E+04  1.4488157389278E+04  1.4488157389278E+04  1.4488157389278E+04  1.4488157389278E+04  7.2440786946391E+03 
 4.9259735123416E+04  9.8519470246832E+04  9.8519470246833E+04  9.8519470246832E+04  9.8519470246833E+04  9.8519470246833E+04  9.8519470246832E+04  9.8519470246833E+04  9.8519470246832E+04  4.9259735123416E+04 
 5.6503813818055E+04  1.1300762763611E+05  1.1300762763611E+05  1.1300762763611E+05  1.1300762763611E+05  1.1300762763611E+05  1.1300762763611E+05  1.1300762763611E+05  1.1300762763611E+05  5.6503813818055E+04 
 3.5000000000000E-01  3.5000000000000E-01  3.5000000000000E-01  3.5000000000000E-01  3.5000000000000E-01  3.5000000000000E-01  3.5000000000000E-01  3.5000000000000E-01  3.5000000000000E-01  3.5000000000000E-01 
 6.6040000000000E+00  1.3208000000000E+01  1.3208000000000E+01  1.3208000000000E+01  1.3208000000000E+01  1.3208000000000E+01  1.3208000000000E+01  1.3208000000000E+01  1.3208000000000E+01  6.6040000000000E+00 
-1.2563702602385E-01 -1.2563940417276E-01 -1.2564707386132E-01 -1.2566003637487E-01 -1.2567829388675E-01 -1.2570184945861E-01 -1.2573070704157E-01 -1.2576487147756E-01 -1.2580434850114E-01 -1.2584914474147E-01 
 3.3866666666667E-05  6.7733333333333E-05  6.7733333333334E-05  6.7733333333333E-05  6.7733333333334E-05  6.7733333333334E-05  6.7733333333333E-05  6.7733333333334E-05  6.7733333333333E-05  3.3866666666667E-05 
 2.6603001364262E+01  2.6603001364262E+01  2.6603001364262E+01  2.6603001364262E+01  2.6603001364262E+01  2.6603001364262E+01  2.6603001364262E+01  2.6603001364262E+01  2.6603001364262E+01  2.6603001364262E+01 
 1.7735334242833E+01  1.7735334242833E+01  1.7735334242833E+01  1.7735334242833E+01  1.7735334242833E+01  1.7735334242833E+01  1.7735334242833E+01  1.7735334242833E+01  1.7735334242833E+01  1.7735334242833E+01 
 6.9179056766102E-10  1.6952491561519E-09  4.7592076145093E-09  9.9375957842048E-09  1.7231286188669E-08  2.6641507991354E-08  3.8169847437468E-08  5.1818248418785E-08  6.7589013165143E-08  7.6005296678248E-08 
 3.4589778768144E-02  8.4763070580059E-02  2.3796210025326E-01  4.9688337991002E-01  8.6157053696510E-01  1.3320850313362E+00  1.9085061775471E+00  2.5909311730120E+00  3.3794751325607E+00  3.8002923637439E+00 
 2.1453287259980E-02  1.9079121093788E-02  1.4627259925557E-02  1.0768326626879E-02  7.5023422481155E-03  4.8294278159602E-03  2.7498044186247E-03  1.2637933240956E-03  3.7181613913088E-04  7.4395001391861E-05 
 1.3136491508163E-02  6.5683949486271E-02  2.2333484032771E-01  4.8611505328315E-01  8.5406819471698E-01  1.3272556035203E+00  1.9057563731285E+00  2.5896673796879E+00  3.3791033164216E+00  3.8002179687425E+00 
 0.0000000000000E+00  0.0000000000000E+00  0.0000000000000E+00  0.0000000000000E+00  0.0000000000000E+00  0.0000000000000E+00  0.0000000000000E+00  0.0000000000000E+00  0.0000000000000E+00  0.0000000000000E+00 
 0.0000000000000E+00  0.0000000000000E+00  0.0000000000000E+00  0.0000000000000E+00  0.0000000000000E+00  0.0000000000000E+00  0.0000000000000E+00  0.0000000000000E+00  0.0000000000000E+00  0.0000000000000E+00 
 0.0000000000000E+00  0.0000000000000E+00  0.0000000000000E+00  0.0000000000000E+00  0.0000000000000E+00  0.0000000000000E+00  0.0000000000000E+00  0.0000000000000E+00  0.0000000000000E+00  0.0000000000000E+00 
ZONE T = "CATH, 3.0000E-08", I = 10, SOLUTIONTIME = 3.000000E-08
ZONETYPE = ORDERED
DATAPACKING = BLOCK
STRANDID = 3
 1.2700000000000E-03  1.3377333333333E-03  1.4054666666667E-03  1.4732000000000E-03  1.5409333333333E-03  1.6086666666667E-03  1.6764000000000E-03  1.7441333333333E-03  1.8118666666667E-03  1.8796000000000E-03 
 9.7971777215271E-09  8.6452121314279E-09  7.4931761971317E-09  6.3410213743566E-09  5.1886990988872E-09  4.0361607784280E-09  2.8837209921725E-09  1.7306046517218E-09  5.7712623926506E-10  1.8160386376565E-13 
 9.2000000000056E-01  9.2000000000134E-01  9.2000000000134E-01  9.2000000000134E-01  9.2000000000134E-01  9.2000000000134E-01  9.2000000000134E-01  9.2000000000134E-01  9.2000000000134E-01  9.2000000000134E-01 
 3.9999999999720E-02  3.9999999999329E-02  3.9999999999329E-02  3.9999999999329E-02  3.9999999999329E-02  3.9999999999329E-02  3.9999999999329E-02  3.9999999999329E-02  3.9999999999328E-02  3.9999999999328E-02 
 3.9999999999720E-02  3.9999999999329E-02  3.9999999999329E-02  3.9999999999329E-02  3.9999999999329E-02  3.9999999999329E-02  3.9999999999329E-02  3.9999999999329E-02  3.9999999999328E-02  3.9999999999328E-02 
 3.5028523551968E-02  3.5028420593062E-02  3.5028329739984E-02  3.5028250993471E-02  3.5028184354774E-02  3.5028129825651E-02  3.5028087408372E-02  3.5028057105717E-02  3.5028038920979E-02  3.5028032857961E-02 
 3.8418325264831E+00  3.8418314540823E+00  3.8418282368393E+00  3.8418228746232E+00  3.8418153672127E+00  3.8418057142962E+00  3.8417939154714E+00  3.8417799702457E+00  3.8417638780360E+00  3.8417456381683E+00 
 3.8068040029311E+00  3.8068030334892E+00  3.8067999070993E+00  3.8067946236298E+00  3.8067871828580E+00  3.8067775844705E+00  3.8067658280630E+00  3.8067519131400E+00  3.8067358391150E+00  3.8067176053103E+00 
 3.9714142713286E+00  3.9714142713283E+00  3.9714142713283E+00  3.9714142713283E+00  3.9714142713283E+00  3.9714142713283E+00  3.9714142713283E+00  3.9714142713283E+00  3.9714142713283E+00  3.9714142713283E+00 
-1.6461026839746E-01 -1.6461123783910E-01 -1.6461436422900E-01 -1.6461964769857E-01 -1.6462708847037E-01 -1.6463668685782E-01 -1.6464844326533E-01 -1.6466235818832E-01 -1.6467843221331E-01 -1.6469666601804E-01 
-8.2970691985946E-01 -1.6594452503043E+00 -1.6595465515507E+00 -1.6597177604298E+00 -1.6599589056466E+00 -1.6602700276398E+00 -1.6606511785954E+00 -1.6611024224661E+00 -1.6616238349934E+00 -8.3110775186785E-01 
 7.3137839574570E-08  6.4538192512978E-08  5.5938198922863E-08  4.7337318102820E-08  3.8735187653102E-08  3.0131444916470E-08  2.1525727004712E-08  1.2917670685676E-08  4.3069123508765E-09  4.3069123508765E-09 
 1.4943130603532E+01  1.3283701058219E+01  1.1624205157477E+01  9.9645730014896E+00  8.3047346681985E+00  6.6446202018126E+00  4.9841595985067E+00  3.3232827978611E+00  1.6619196695450E+00  0.0000000000000E+00 
 0.0000000000000E+00  1.6594295450009E+00  3.3189254459220E+00  4.9785576019337E+00  6.6383959350545E+00  8.2985104016621E+00  9.9589710046899E+00  1.1619847805310E+01  1.3281210933927E+01  1.4943130603127E+01 
 2.4891189065279E-08  4.9783320445315E-08  4.9786359473145E-08  4.9791495723347E-08  4.9798730057074E-08  4.9808063687468E-08  4.9819498180100E-08  4.9833035453531E-08  4.9848677779993E-08  2.4933213893104E-08 
 7.2440786946474E+03  1.4488157389295E+04  1.4488157389295E+04  1.4488157389295E+04  1.4488157389295E+04  1.4488157389295E+04  1.4488157389295E+04  1.4488157389295E+04  1.4488157389295E+04  7.2440786946474E+03 
 4.9259735123408E+04  9.8519470246815E+04  9.8519470246816E+04  9.8519470246815E+04  9.8519470246816E+04  9.8519470246816E+04  9.8519470246815E+04  9.8519470246816E+04  9.8519470246815E+04  4.9259735123408E+04 
 5.6503813818055E+04  1.1300762763611E+05  1.1300762763611E+05  1.1300762763611E+05  1.1300762763611E+05  1.1300762763611E+05  1.1300762763611E+05  1.1300762763611E+05  1.1300762763611E+05  5.6503813818055E+04 
 3.5000000000000E-01  3.5000000000000E-01  3.5000000000000E-01  3.5000000000000E-01  3.5000000000000E-01  3.5000000000000E-01  3.5000000000000E-01  3.5000000000000E-01  3.5000000000000E-01  3.5000000000000E-01 
 6.6040000000000E+00  1.3208000000000E+01  1.3208000000000E+01  1.3208000000000E+01  1.3208000000000E+01  1.3208000000000E+01  1.3208000000000E+01  1.3208000000000E+01  1.3208000000000E+01  6.6040000000000E+00 
-1.2563702602354E-01 -1.2563940417204E-01 -1.2564707386059E-01 -1.2566003637415E-01 -1.2567829388603E-01 -1.2570184945789E-01 -1.2573070704084E-01 -1.2576487147684E-01 -1.2580434850041E-01 -1.2584914474074E-01 
 3.3866666666667E-05  6.7733333333333E-05  6.7733333333334E-05  6.7733333333333E-05  6.7733333333334E-05  6.7733333333334E-05  6.7733333333333E-05  6.7733333333334E-05  6.7733333333333E-05  3.3866666666667E-05 
 2.6603001364264E+01  2.6603001364264E+01  2.6603001364264E+01  2.6603001364264E+01  2.6603001364264E+01  2.6603001364264E+01  2.6603001364264E+01  2.6603001364264E+01  2.6603001364264E+01  2.6603001364264E+01 
 1.7735334242830E+01  1.7735334242830E+01  1.7735334242830E+01  1.7735334242830E+01  1.7735334242830E+01  1.7735334242830E+01  1.7735334242830E+01  1.7735334242830E+01  1.7735334242830E+01  1.7735334242830E+01 
 1.0376883553416E-09  2.5428798619516E-09  7.1388286170522E-09  1.4906429583306E-08  2.5846991558310E-08  3.9962358304716E-08  5.7254909212940E-08  7.7727560148905E-08  1.0138376448982E-07  1.1400822031384E-07 
 3.4589778768059E-02  8.4763070579969E-02  2.3796210025429E-01  4.9688337991013E-01  8.6157053696412E-01  1.3320850313362E+00  1.9085061775471E+00  2.5909311730120E+00  3.3794751324682E+00  3.8002923635588E+00 
 2.1453287259895E-02  1.9079121093699E-02  1.4627259926581E-02  1.0768326626989E-02  7.5023422471378E-03  4.8294278159332E-03  2.7498044186093E-03  1.2637933240886E-03  3.7181613912880E-04  7.4395001391444E-05 
 1.3136491508163E-02  6.5683949486271E-02  2.2333484032771E-01  4.8611505328315E-01  8.5406819471698E-01  1.3272556035203E+00  1.9057563731285E+00  2.5896673796879E+00  3.3791033163291E+00  3.8002179685574E+00 
 0.0000000000000E+00  0.0000000000000E+00  0.0000000000000E+00  0.0000000000000E+00  0.0000000000000E+00  0.0000000000000E+00  0.0000000000000E+00  0.0000000000000E+00  0.0000000000000E+00  0.0000000000000E+00 
 0.0000000000000E+00  0.0000000000000E+00  0.0000000000000E+00  0.0000000000000E+00  0.0000000000000E+00  0.0000000000000E+00  0.0000000000000E+00  0.0000000000000E+00  0.0000000000000E+00  0.0000000000000E+00 
 0.0000000000000E+00  0.0000000000000E+00  0.0000000000000E+00  0.0000000000000E+00  0.0000000000000E+00  0.0000000000000E+00  0.0000000000000E+00  0.0000000000000E+00  0.0000000000000E+00  0.0000000000000E+00 
ZONE T = "CATH, 4.0000E-08", I = 10, SOLUTIONTIME = 4.000000E-08
ZONETYPE = ORDERED
DATAPACKING = BLOCK
STRANDID = 3
 1.2700000000000E-03  1.3377333333333E-03  1.4054666666667E-03  1.4732000000000E-03  1.5409333333333E-03  1.6086666666667E-03  1.6764000000000E-03  1.7441333333333E-03  1.8118666666667E-03  1.8796000000000E-03 
 9.8035338567072E-09  8.6508418511590E-09  7.4980795014139E-09  6.3455614709175E-09  5.1928759877272E-09  4.0392480440913E-09  2.8857186346591E-09  1.7315126710319E-09  5.7767105085389E-10  5.4481159200491E-13 
 9.2000000000075E-01  9.2000000000179E-01  9.2000000000179E-01  9.2000000000179E-01  9.2000000000179E-01  9.2000000000179E-01  9.2000000000179E-01  9.2000000000179E-01  9.2000000000179E-01  9.2000000000179E-01 
 3.9999999999627E-02  3.9999999999106E-02  3.9999999999106E-02  3.9999999999105E-02  3.9999999999105E-02  3.9999999999105E-02  3.9999999999105E-02  3.9999999999105E-02  3.9999999999104E-02  3.9999999999104E-02 
 3.9999999999627E-02  3.9999999999106E-02  3.9999999999106E-02  3.9999999999105E-02  3.9999999999105E-02  3.9999999999105E-02  3.9999999999105E-02  3.9999999999105E-02  3.9999999999104E-02  3.9999999999104E-02 
 3.5028523551779E-02  3.5028420592873E-02  3.5028329739794E-02  3.5028250993282E-02  3.5028184354585E-02  3.5028129825462E-02  3.5028087408183E-02  3.5028057105528E-02  3.5028038920790E-02  3.5028032857771E-02 
 3.8418325264829E+00  3.8418314540821E+00  3.8418282368391E+00  3.8418228746230E+00  3.8418153672125E+00  3.8418057142959E+00  3.8417939154711E+00  3.8417799702455E+00  3.8417638780358E+00  3.8417456381680E+00 
 3.8068040029311E+00  3.8068030334892E+00  3.8067999070993E+00  3.8067946236297E+00  3.8067871828579E+00  3.8067775844705E+00  3.8067658280630E+00  3.8067519131400E+00  3.8067358391150E+00  3.8067176053103E+00 
 3.9714142713285E+00  3.9714142713282E+00  3.9714142713282E+00  3.9714142713282E+00  3.9714142713282E+00  3.9714142713282E+00  3.9714142713282E+00  3.9714142713282E+00  3.9714142713282E+00  3.9714142713282E+00 
-1.6461026839741E-01 -1.6461123783896E-01 -1.6461436422885E-01 -1.6461964769843E-01 -1.6462708847023E-01 -1.6463668685768E-01 -1.6464844326519E-01 -1.6466235818818E-01 -1.6467843221317E-01 -1.6469666601790E-01 
-8.2970691985744E-01 -1.6594452502948E+00 -1.6595465515413E+00 -1.6597177604203E+00 -1.6599589056372E+00 -1.6602700276303E+00 -1.6606511785860E+00 -1.6611024224566E+00 -1.6616238349839E+00 -8.3110775186310E-01 