TITLE = "Solution on Domain BulkDomain1D_1"
VARIABLES = "x [m]"  
"Vel_axial" 	"MF_sp(ECDMC)" 	"MF_sp(Li+)" 	"MF_sp(PF6-)" 	"Volt(Electroly)" 	"Porosity []" 	"Control volume thickness [m]" 	"volFrac MgO(S) []" 	"qHeat_accum [J/m3]" 	"qHeat_step [W/m3]" 	"Joule_Lyte [W/m3]" 	"Joule_Solid [W/m3]" 	
ZONE T = "SEP , 0.0000E+00", I = 10, SOLUTIONTIME = 0.000000E+00
ZONETYPE = ORDERED
DATAPACKING = BLOCK
STRANDID = 2
 7.8740000000000E-04  8.4102222222222E-04  8.9464444444444E-04  9.4826666666667E-04  1.0018888888889E-03  1.0555111111111E-03  1.1091333333333E-03  1.1627555555556E-03  1.2163777777778E-03  1.2700000000000E-03 
 0.0000000000000E+00  0.0000000000000E+00  0.0000000000000E+00  0.0000000000000E+00  0.0000000000000E+00  0.0000000000000E+00  0.0000000000000E+00  0.0000000000000E+00  0.0000000000000E+00  0.0000000000000E+00 
 9.2000000000000E-01  9.2000000000000E-01  9.2000000000000E-01  9.2000000000000E-01  9.2000000000000E-01  9.2000000000000E-01  9.2000000000000E-01  9.2000000000000E-01  9.2000000000000E-01  9.2000000000000E-01 
 4.0000000000000E-02  4.0000000000000E-02  4.0000000000000E-02  4.0000000000000E-02  4.0000000000000E-02  4.0000000000000E-02  4.0000000000000E-02  4.0000000000000E-02  4.0000000000000E-02  4.0000000000000E-02 
 4.0000000000000E-02  4.0000000000000E-02  4.0000000000000E-02  4.0000000000000E-02  4.0000000000000E-02  4.0000000000000E-02  4.0000000000000E-02  4.0000000000000E-02  4.0000000000000E-02  4.0000000000000E-02 
-7.0000000000000E-02 -7.0000000000000E-02 -7.0000000000000E-02 -7.0000000000000E-02 -7.0000000000000E-02 -7.0000000000000E-02 -7.0000000000000E-02 -7.0000000000000E-02 -7.0000000000000E-02 -7.0000000000000E-02 
 8.0911139820575E-01  8.0911139820575E-01  8.0911139820575E-01  8.0911139820575E-01  8.0911139820575E-01  8.0911139820575E-01  8.0911139820575E-01  8.0911139820575E-01  8.0911139820575E-01  8.0911139820575E-01 
 2.6811111111111E-05  5.3622222222222E-05  5.3622222222222E-05  5.3622222222222E-05  5.3622222222222E-05  5.3622222222222E-05  5.3622222222222E-05  5.3622222222223E-05  5.3622222222222E-05  2.6811111111111E-05 
 1.9088860179425E-01  1.9088860179425E-01  1.9088860179425E-01  1.9088860179425E-01  1.9088860179425E-01  1.9088860179425E-01  1.9088860179425E-01  1.9088860179425E-01  1.9088860179425E-01  1.9088860179425E-01 
 0.0000000000000E+00  0.0000000000000E+00  0.0000000000000E+00  0.0000000000000E+00  0.0000000000000E+00  0.0000000000000E+00  0.0000000000000E+00  0.0000000000000E+00  0.0000000000000E+00  0.0000000000000E+00 
 0.0000000000000E+00  0.0000000000000E+00  0.0000000000000E+00  0.0000000000000E+00  0.0000000000000E+00  0.0000000000000E+00  0.0000000000000E+00  0.0000000000000E+00  0.0000000000000E+00  0.0000000000000E+00 
 0.0000000000000E+00  0.0000000000000E+00  0.0000000000000E+00  0.0000000000000E+00  0.0000000000000E+00  0.0000000000000E+00  0.0000000000000E+00  0.0000000000000E+00  0.0000000000000E+00  0.0000000000000E+00 
 0.0000000000000E+00  0.0000000000000E+00  0.0000000000000E+00  0.0000000000000E+00  0.0000000000000E+00  0.0000000000000E+00  0.0000000000000E+00  0.0000000000000E+00  0.0000000000000E+00  0.0000000000000E+00 
ZONE T = "SEP , 1.0000E-08", I = 10, SOLUTIONTIME = 1.000000E-08
ZONETYPE = ORDERED
DATAPACKING = BLOCK
STRANDID = 2
 7.8740000000000E-04  8.4102222222222E-04  8.9464444444444E-04  9.4826666666667E-04  1.0018888888889E-03  1.0555111111111E-03  1.1091333333333E-03  1.1627555555556E-03  1.2163777777778E-03  1.2700000000000E-03 
 1.0371024968487E-08  1.0371024968487E-08  1.0371024968487E-08  1.0371024968487E-08  1.0371024968487E-08  1.0371024968487E-08  1.0371024968487E-08  1.0371024968487E-08  1.0371024968487E-08  9.7953327350773E-09 
 9.1999999999986E-01  9.2000000000000E-01  9.2000000000000E-01  9.2000000000000E-01  9.2000000000000E-01  9.2000000000000E-01  9.2000000000000E-01  9.2000000000000E-01  9.2000000000000E-01  9.2000000000016E-01 
 4.0000000000072E-02  4.0000000000000E-02  4.0000000000000E-02  4.0000000000000E-02  4.0000000000000E-02  4.0000000000000E-02  4.0000000000000E-02  4.0000000000000E-02  4.0000000000000E-02  3.9999999999921E-02 
 4.0000000000072E-02  4.0000000000000E-02  4.0000000000000E-02  4.0000000000000E-02  4.0000000000000E-02  4.0000000000000E-02  4.0000000000000E-02  4.0000000000000E-02  4.0000000000000E-02  3.9999999999921E-02 
 3.5026020773585E-02  3.5025996224724E-02  3.5025971675863E-02  3.5025947127001E-02  3.5025922578140E-02  3.5025898029279E-02  3.5025873480418E-02  3.5025848931557E-02  3.5025824382696E-02  3.5025799833834E-02 
 8.0911139820575E-01  8.0911139820575E-01  8.0911139820575E-01  8.0911139820575E-01  8.0911139820575E-01  8.0911139820575E-01  8.0911139820575E-01  8.0911139820575E-01  8.0911139820575E-01  8.0911139820575E-01 
 2.6811111111111E-05  5.3622222222222E-05  5.3622222222222E-05  5.3622222222222E-05  5.3622222222222E-05  5.3622222222222E-05  5.3622222222222E-05  5.3622222222223E-05  5.3622222222222E-05  2.6811111111111E-05 
 1.9088860179425E-01  1.9088860179425E-01  1.9088860179425E-01  1.9088860179425E-01  1.9088860179425E-01  1.9088860179425E-01  1.9088860179425E-01  1.9088860179425E-01  1.9088860179425E-01  1.9088860179425E-01 
 6.8399732866170E-11  6.8399732866139E-11  6.8399732866108E-11  6.8399732866108E-11  6.8399732866108E-11  6.8399732866108E-11  6.8399732866108E-11  6.8399732866108E-11  6.8399732866075E-11  6.8399732866041E-11 
 6.8399732866170E-03  6.8399732866139E-03  6.8399732866108E-03  6.8399732866108E-03  6.8399732866108E-03  6.8399732866108E-03  6.8399732866108E-03  6.8399732866108E-03  6.8399732866075E-03  6.8399732866041E-03 
 6.8399732866170E-03  6.8399732866139E-03  6.8399732866108E-03  6.8399732866108E-03  6.8399732866108E-03  6.8399732866108E-03  6.8399732866108E-03  6.8399732866108E-03  6.8399732866075E-03  6.8399732866041E-03 
 0.0000000000000E+00  0.0000000000000E+00  0.0000000000000E+00  0.0000000000000E+00  0.0000000000000E+00  0.0000000000000E+00  0.0000000000000E+00  0.0000000000000E+00  0.0000000000000E+00  0.0000000000000E+00 
ZONE T = "SEP , 2.0000E-08", I = 10, SOLUTIONTIME = 2.000000E-08
ZONETYPE = ORDERED
DATAPACKING = BLOCK
STRANDID = 2
 7.8740000000000E-04  8.4102222222222E-04  8.9464444444444E-04  9.4826666666667E-04  1.0018888888889E-03  1.0555111111111E-03  1.1091333333333E-03  1.1627555555556E-03  1.2163777777778E-03  1.2700000000000E-03 
 1.0376559834837E-08  1.0376559834837E-08  1.0376559834837E-08  1.0376559834837E-08  1.0376559834837E-08  1.0376559834837E-08  1.0376559834837E-08  1.0376559834837E-08  1.0376559834837E-08  9.8004085815753E-09 
 9.1999999999971E-01  9.2000000000000E-01  9.2000000000000E-01  9.2000000000000E-01  9.2000000000000E-01  9.2000000000000E-01  9.2000000000000E-01  9.2000000000000E-01  9.2000000000000E-01  9.2000000000032E-01 
 4.0000000000143E-02  4.0000000000000E-02  4.0000000000000E-02  4.0000000000000E-02  4.0000000000000E-02  4.0000000000000E-02  4.0000000000000E-02  4.0000000000000E-02  4.0000000000000E-02  3.9999999999842E-02 
 4.0000000000143E-02  4.0000000000000E-02  4.0000000000000E-02  4.0000000000000E-02  4.0000000000000E-02  4.0000000000000E-02  4.0000000000000E-02  4.0000000000000E-02  4.0000000000000E-02  3.9999999999842E-02 
 3.5028824874312E-02  3.5028800321379E-02  3.5028775768445E-02  3.5028751215511E-02  3.5028726662577E-02  3.5028702109643E-02  3.5028677556710E-02  3.5028653003776E-02  3.5028628450842E-02  3.5028603897908E-02 
 8.0911139820575E-01  8.0911139820575E-01  8.0911139820575E-01  8.0911139820575E-01  8.0911139820575E-01  8.0911139820575E-01  8.0911139820575E-01  8.0911139820575E-01  8.0911139820575E-01  8.0911139820575E-01 
 2.6811111111111E-05  5.3622222222222E-05  5.3622222222222E-05  5.3622222222222E-05  5.3622222222222E-05  5.3622222222222E-05  5.3622222222222E-05  5.3622222222223E-05  5.3622222222222E-05  2.6811111111111E-05 
 1.9088860179425E-01  1.9088860179425E-01  1.9088860179425E-01  1.9088860179425E-01  1.9088860179425E-01  1.9088860179425E-01  1.9088860179425E-01  1.9088860179425E-01  1.9088860179425E-01  1.9088860179425E-01 
 1.3682216262332E-10  1.3682216264256E-10  1.3682216264247E-10  1.3682216262313E-10  1.3682216264247E-10  1.3682216264247E-10  1.3682216264247E-10  1.3682216264247E-10  1.3682216264237E-10  1.3682216266160E-10 
 6.8422429757146E-03  6.8422429776421E-03  6.8422429776360E-03  6.8422429757023E-03  6.8422429776360E-03  6.8422429776360E-03  6.8422429776360E-03  6.8422429776359E-03  6.8422429776292E-03  6.8422429795562E-03 
 6.8422429757146E-03  6.8422429776421E-03  6.8422429776360E-03  6.8422429757023E-03  6.8422429776360E-03  6.8422429776360E-03  6.8422429776360E-03  6.8422429776359E-03  6.8422429776292E-03  6.8422429795562E-03 
 0.0000000000000E+00  0.0000000000000E+00  0.0000000000000E+00  0.0000000000000E+00  0.0000000000000E+00  0.0000000000000E+00  0.0000000000000E+00  0.0000000000000E+00  0.0000000000000E+00  0.0000000000000E+00 
ZONE T = "SEP , 3.0000E-08", I = 10, SOLUTIONTIME = 3.000000E-08
ZONETYPE = ORDERED
DATAPACKING = BLOCK
STRANDID = 2
 7.8740000000000E-04  8.4102222222222E-04  8.9464444444444E-04  9.4826666666667E-04  1.0018888888889E-03  1.0555111111111E-03  1.1091333333333E-03  1.1627555555556E-03  1.2163777777778E-03  1.2700000000000E-03 
 1.0378658341289E-08  1.0378658341289E-08  1.0378658341289E-08  1.0378658341289E-08  1.0378658341289E-08  1.0378658341289E-08  1.0378658341289E-08  1.0378658341289E-08  1.0378658341289E-08  9.8019566669682E-09 
 9.1999999999957E-01  9.2000000000000E-01  9.2000000000000E-01  9.2000000000000E-01  9.2000000000000E-01  9.2000000000000E-01  9.2000000000000E-01  9.2000000000000E-01  9.2000000000000E-01  9.2000000000047E-01 
 4.0000000000215E-02  4.0000000000000E-02  4.0000000000000E-02  4.0000000000000E-02  4.0000000000000E-02  4.0000000000000E-02  4.0000000000000E-02  4.0000000000000E-02  4.0000000000000E-02  3.9999999999763E-02 
 4.0000000000215E-02  4.0000000000000E-02  4.0000000000000E-02  4.0000000000000E-02  4.0000000000000E-02  4.0000000000000E-02  4.0000000000000E-02  4.0000000000000E-02  4.0000000000000E-02  3.9999999999763E-02 
 3.5028870891172E-02  3.5028846337999E-02  3.5028821784827E-02  3.5028797231655E-02  3.5028772678482E-02  3.5028748125310E-02  3.5028723572137E-02  3.5028699018965E-02  3.5028674465792E-02  3.5028649912620E-02 
 8.0911139820575E-01  8.0911139820575E-01  8.0911139820575E-01  8.0911139820575E-01  8.0911139820575E-01  8.0911139820575E-01  8.0911139820575E-01  8.0911139820575E-01  8.0911139820575E-01  8.0911139820575E-01 
 2.6811111111111E-05  5.3622222222222E-05  5.3622222222222E-05  5.3622222222222E-05  5.3622222222222E-05  5.3622222222222E-05  5.3622222222222E-05  5.3622222222223E-05  5.3622222222222E-05  2.6811111111111E-05 
 1.9088860179425E-01  1.9088860179425E-01  1.9088860179425E-01  1.9088860179425E-01  1.9088860179425E-01  1.9088860179425E-01  1.9088860179425E-01  1.9088860179425E-01  1.9088860179425E-01  1.9088860179425E-01 
 2.0524592256773E-10  2.0524592260622E-10  2.0524592260604E-10  2.0524592258670E-10  2.0524592260603E-10  2.0524592260604E-10  2.0524592260604E-10  2.0524592258670E-10  2.0524592260583E-10  2.0524592264430E-10 
 6.8423759944414E-03  6.8423759963659E-03  6.8423759963567E-03  6.8423759963567E-03  6.8423759963567E-03  6.8423759963567E-03  6.8423759963567E-03  6.8423759944230E-03  6.8423759963466E-03  6.8423759982702E-03 
 6.8423759944414E-03  6.8423759963659E-03  6.8423759963567E-03  6.8423759963567E-03  6.8423759963567E-03  6.8423759963567E-03  6.8423759963567E-03  6.8423759944230E-03  6.8423759963466E-03  6.8423759982702E-03 
 0.0000000000000E+00  0.0000000000000E+00  0.0000000000000E+00  0.0000000000000E+00  0.0000000000000E+00  0.0000000000000E+00  0.0000000000000E+00  0.0000000000000E+00  0.0000000000000E+00  0.0000000000000E+00 
ZONE T = "SEP , 4.0000E-08", I = 10, SOLUTIONTIME = 4.000000E-08
ZONETYPE = ORDERED
DATAPACKING = BLOCK
STRANDID = 2
 7.8740000000000E-04  8.4102222222222E-04  8.9464444444444E-04  9.4826666666667E-04  1.0018888888889E-03  1.0555111111111E-03  1.1091333333333E-03  1.1627555555556E-03  1.2163777777778E-03  1.2700000000000E-03 
 1.0379339558525E-08  1.0379339558525E-08  1.0379339558525E-08  1.0379339558525E-08  1.0379339558525E-08  1.0379339558525E-08  1.0379339558525E-08  1.0379339558525E-08  1.0379339558525E-08  9.8031852095545E-09 
 9.1999999999943E-01  9.2000000000000E-01  9.2000000000000E-01  9.2000000000000E-01  9.2000000000000E-01  9.2000000000000E-01  9.2000000000000E-01  9.2000000000000E-01  9.2000000000000E-01  9.2000000000063E-01 
 4.0000000000287E-02  4.0000000000000E-02  4.0000000000000E-02  4.0000000000000E-02  4.0000000000000E-02  4.0000000000000E-02  4.0000000000000E-02  4.0000000000000E-02  4.0000000000000E-02  3.9999999999684E-02 
 4.0000000000287E-02  4.0000000000000E-02  4.0000000000000E-02  4.0000000000000E-02  4.0000000000000E-02  4.0000000000000E-02  4.0000000000000E-02  4.0000000000000E-02  4.0000000000000E-02  3.9999999999684E-02 
 3.5028848034101E-02  3.5028823481035E-02  3.5028798927970E-02  3.5028774374904E-02  3.5028749821839E-02  3.5028725268773E-02  3.5028700715708E-02  3.5028676162642E-02  3.5028651609577E-02  3.5028627056511E-02 
 8.0911139820575E-01  8.0911139820575E-01  8.0911139820575E-01  8.0911139820575E-01  8.0911139820575E-01  8.0911139820575E-01  8.0911139820575E-01  8.0911139820575E-01  8.0911139820575E-01  8.0911139820575E-01 
 2.6811111111111E-05  5.3622222222222E-05  5.3622222222222E-05  5.3622222222222E-05  5.3622222222222E-05  5.3622222222222E-05  5.3622222222222E-05  5.3622222222223E-05  5.3622222222222E-05  2.6811111111111E-05 
 1.9088860179425E-01  1.9088860179425E-01  1.9088860179425E-01  1.9088860179425E-01  1.9088860179425E-01  1.9088860179425E-01  1.9088860179425E-01  1.9088860179425E-01  1.9088860179425E-01  1.9088860179425E-01 
 2.7366908646917E-10  2.7366908648820E-10  2.7366908648789E-10  2.7366908648789E-10  2.7366908648789E-10  2.7366908648789E-10  2.7366908650723E-10  2.7366908646855E-10  2.7366908648756E-10  2.7366908654523E-10 
 6.8423163901439E-03  6.8423163881980E-03  6.8423163881857E-03  6.8423163901194E-03  6.8423163881857E-03  6.8423163881857E-03  6.8423163901194E-03  6.8423163881857E-03  6.8423163881722E-03  6.8423163900924E-03 
 6.8423163901439E-03  6.8423163881980E-03  6.8423163881857E-03  6.8423163901194E-03  6.8423163881857E-03  6.8423163881857E-03  6.8423163901194E-03  6.8423163881857E-03  6.8423163881722E-03  6.8423163900924E-03 
 0.0000000000000E+00  0.0000000000000E+00  0.0000000000000E+00  0.0000000000000E+00  0.0000000000000E+00  0.0000000000000E+00  0.0000000000000E+00  0.0000000000000E+00  0.0000000000000E+00  0.0000000000000E+00 
ZONE T = "SEP , 5.5000E-08", I = 10, SOLUTIONTIME = 5.500000E-08
ZONETYPE = ORDERED
DATAPACKING = BLOCK
STRANDID = 2
 7.8740000000000E-04  8.4102222222222E-04  8.9464444444444E-04  9.4826666666667E-04  1.0018888888889E-03  1.0555111111111E-03  1.1091333333333E-03  1.1627555555556E-03  1.2163777777778E-03  1.2700000000000E-03 
 1.0376731015776E-08  1.0376731015776E-08  1.0376731015776E-08  1.0376731015776E-08  1.0376731015776E-08  1.0376731015776E-08  1.0376731015776E-08  1.0376731015776E-08  1.0376731015776E-08  9.8009401833128E-09 
 9.1999999999921E-01  9.2000000000000E-01  9.2000000000000E-01  9.2000000000000E-01  9.2000000000000E-01  9.2000000000000E-01  9.2000000000000E-01  9.2000000000000E-01  9.2000000000000E-01  9.2000000000087E-01 
 4.0000000000394E-02  4.0000000000000E-02  4.0000000000000E-02  4.0000000000000E-02  4.0000000000000E-02  4.0000000000000E-02  4.0000000000000E-02  4.0000000000000E-02  4.0000000000000E-02  3.9999999999566E-02 
 4.0000000000394E-02  4.0000000000000E-02  4.0000000000000E-02  4.0000000000000E-02  4.0000000000000E-02  4.0000000000000E-02  4.0000000000000E-02  4.0000000000000E-02  4.0000000000000E-02  3.9999999999566E-02 
 3.5028847801024E-02  3.5028823247972E-02  3.5028798694919E-02  3.5028774141867E-02  3.5028749588815E-02  3.5028725035762E-02  3.5028700482710E-02  3.5028675929657E-02  3.5028651376605E-02  3.5028626823553E-02 
 8.0911139820575E-01  8.0911139820575E-01  8.0911139820575E-01  8.0911139820575E-01  8.0911139820575E-01  8.0911139820575E-01  8.0911139820575E-01  8.0911139820575E-01  8.0911139820575E-01  8.0911139820575E-01 
 2.6811111111111E-05  5.3622222222222E-05  5.3622222222222E-05  5.3622222222222E-05  5.3622222222222E-05  5.3622222222222E-05  5.3622222222222E-05  5.3622222222223E-05  5.3622222222222E-05  2.6811111111111E-05 
 1.9088860179425E-01  1.9088860179425E-01  1.9088860179425E-01  1.9088860179425E-01  1.9088860179425E-01  1.9088860179425E-01  1.9088860179425E-01  1.9088860179425E-01  1.9088860179425E-01  1.9088860179425E-01 
 3.7630372244902E-10  3.7630372246780E-10  3.7630372246724E-10  3.7630372243823E-10  3.7630372243823E-10  3.7630372246724E-10  3.7630372248658E-10  3.7630372241889E-10  3.7630372243762E-10  3.7630372252402E-10 
 6.8423090653235E-03  6.8423090653066E-03  6.8423090652897E-03  6.8423090633560E-03  6.8423090633560E-03  6.8423090652897E-03  6.8423090652897E-03  6.8423090633560E-03  6.8423090633375E-03  6.8423090652526E-03 
 6.8423090653235E-03  6.8423090653066E-03  6.8423090652897E-03  6.8423090633560E-03  6.8423090633560E-03  6.8423090652897E-03  6.8423090652897E-03  6.8423090633560E-03  6.8423090633375E-03  6.8423090652526E-03 
 0.0000000000000E+00  0.0000000000000E+00  0.0000000000000E+00  0.0000000000000E+00  0.0000000000000E+00  0.0000000000000E+00  0.0000000000000E+00  0.0000000000000E+00  0.0000000000000E+00  0.0000000000000E+00 
ZONE T = "SEP , 7.7500E-08", I = 10, SOLUTIONTIME = 7.750000E-08
ZONETYPE = ORDERED
DATAPACKING = BLOCK
STRANDID = 2
 7.8740000000000E-04  8.4102222222222E-04  8.9464444444444E-04  9.4826666666667E-04  1.0018888888889E-03  1.0555111111111E-03  1.1091333333333E-03  1.1627555555556E-03  1.2163777777778E-03  1.2700000000000E-03 
 1.0374270696883E-08  1.0374270696883E-08  1.0374270696883E-08  1.0374270696883E-08  1.0374270696883E-08  1.0374270696883E-08  1.0374270696883E-08  1.0374270696883E-08  1.0374270696883E-08  9.7978744391216E-09 
 9.1999999999889E-01  9.2000000000000E-01  9.2000000000000E-01  9.2000000000000E-01  9.2000000000000E-01  9.2000000000000E-01  9.2000000000000E-01  9.2000000000000E-01  9.2000000000000E-01  9.2000000000122E-01 
 4.0000000000555E-02  4.0000000000000E-02  4.0000000000000E-02  4.0000000000000E-02  4.0000000000000E-02  4.0000000000000E-02  4.0000000000000E-02  4.0000000000000E-02  4.0000000000000E-02  3.9999999999388E-02 
 4.0000000000555E-02  4.0000000000000E-02  4.0000000000000E-02  4.0000000000000E-02  4.0000000000000E-02  4.0000000000000E-02  4.0000000000000E-02  4.0000000000000E-02  4.0000000000000E-02  3.9999999999388E-02 
 3.5028847941788E-02  3.5028823388733E-02  3.5028798835677E-02  3.5028774282621E-02  3.5028749729565E-02  3.5028725176510E-02  3.5028700623454E-02  3.5028676070398E-02  3.5028651517342E-02  3.5028626964287E-02 
 8.0911139820575E-01  8.0911139820575E-01  8.0911139820575E-01  8.0911139820575E-01  8.0911139820575E-01  8.0911139820575E-01  8.0911139820575E-01  8.0911139820575E-01  8.0911139820575E-01  8.0911139820575E-01 
 2.6811111111111E-05  5.3622222222222E-05  5.3622222222222E-05  5.3622222222222E-05  5.3622222222222E-05  5.3622222222222E-05  5.3622222222222E-05  5.3622222222223E-05  5.3622222222222E-05  2.6811111111111E-05 
 1.9088860179425E-01  1.9088860179425E-01  1.9088860179425E-01  1.9088860179425E-01  1.9088860179425E-01  1.9088860179425E-01  1.9088860179425E-01  1.9088860179425E-01  1.9088860179425E-01  1.9088860179425E-01 
 5.3025571862195E-10  5.3025571864020E-10  5.3025571863910E-10  5.3025571861010E-10  5.3025571856659E-10  5.3025571859560E-10  5.3025571865844E-10  5.3025571859076E-10  5.3025571860889E-10  5.3025571869470E-10 
 6.8423109410192E-03  6.8423109409955E-03  6.8423109409717E-03  6.8423109409717E-03  6.8423109390380E-03  6.8423109390380E-03  6.8423109409717E-03  6.8423109409717E-03  6.8423109409455E-03  6.8423109409194E-03 
 6.8423109410192E-03  6.8423109409955E-03  6.8423109409717E-03  6.8423109409717E-03  6.8423109390380E-03  6.8423109390380E-03  6.8423109409717E-03  6.8423109409717E-03  6.8423109409455E-03  6.8423109409194E-03 
 0.0000000000000E+00  0.0000000000000E+00  0.0000000000000E+00  0.0000000000000E+00  0.0000000000000E+00  0.0000000000000E+00  0.0000000000000E+00  0.0000000000000E+00  0.0000000000000E+00  0.0000000000000E+00 
ZONE T = "SEP , 1.1125E-07", I = 10, SOLUTIONTIME = 1.112500E-07
ZONETYPE = ORDERED
DATAPACKING = BLOCK
STRANDID = 2
 7.8740000000000E-04  8.4102222222222E-04  8.9464444444444E-04  9.4826666666667E-04  1.0018888888889E-03  1.0555111111111E-03  1.1091333333333E-03  1.1627555555556E-03  1.2163777777778E-03  1.2700000000000E-03 
 1.0378225919427E-08  1.0378225919427E-08  1.0378225919427E-08  1.0378225919427E-08  1.0378225919427E-08  1.0378225919427E-08  1.0378225919427E-08  1.0378225919427E-08  1.0378225919427E-08  9.8023946351195E-09 
 9.1999999999841E-01  9.2000000000000E-01  9.2000000000000E-01  9.2000000000000E-01  9.2000000000000E-01  9.2000000000000E-01  9.2000000000000E-01  9.2000000000000E-01  9.2000000000000E-01  9.2000000000176E-01 
 4.0000000000797E-02  4.0000000000000E-02  4.0000000000000E-02  4.0000000000000E-02  4.0000000000000E-02  4.0000000000000E-02  4.0000000000000E-02  4.0000000000000E-02  4.0000000000000E-02  3.9999999999121E-02 
 4.0000000000797E-02  4.0000000000000E-02  4.0000000000000E-02  4.0000000000000E-02  4.0000000000000E-02  4.0000000000000E-02  4.0000000000000E-02  4.0000000000000E-02  4.0000000000000E-02  3.9999999999121E-02 
 3.5028847900320E-02  3.5028823347263E-02  3.5028798794207E-02  3.5028774241150E-02  3.5028749688094E-02  3.5028725135037E-02  3.5028700581981E-02  3.5028676028925E-02  3.5028651475868E-02  3.5028626922812E-02 
 8.0911139820575E-01  8.0911139820575E-01  8.0911139820575E-01  8.0911139820575E-01  8.0911139820575E-01  8.0911139820575E-01  8.0911139820575E-01  8.0911139820575E-01  8.0911139820575E-01  8.0911139820575E-01 
 2.6811111111111E-05  5.3622222222222E-05  5.3622222222222E-05  5.3622222222222E-05  5.3622222222222E-05  5.3622222222222E-05  5.3622222222222E-05  5.3622222222223E-05  5.3622222222222E-05  2.6811111111111E-05 
 1.9088860179425E-01  1.9088860179425E-01  1.9088860179425E-01  1.9088860179425E-01  1.9088860179425E-01  1.9088860179425E-01  1.9088860179425E-01  1.9088860179425E-01  1.9088860179425E-01  1.9088860179425E-01 
 7.6118372593448E-10  7.6118372595157E-10  7.6118372594932E-10  7.6118372592032E-10  7.6118372587681E-10  7.6118372590582E-10  7.6118372596866E-10  7.6118372590098E-10  7.6118372591785E-10  7.6118372600239E-10 
 6.8423113277785E-03  6.8423113277444E-03  6.8423113277103E-03  6.8423113277103E-03  6.8423113277103E-03  6.8423113277103E-03  6.8423113277103E-03  6.8423113277102E-03  6.8423113276727E-03  6.8423113276352E-03 
 6.8423113277785E-03  6.8423113277444E-03  6.8423113277103E-03  6.8423113277103E-03  6.8423113277103E-03  6.8423113277103E-03  6.8423113277103E-03  6.8423113277102E-03  6.8423113276727E-03  6.8423113276352E-03 
 0.0000000000000E+00  0.0000000000000E+00  0.0000000000000E+00  0.0000000000000E+00  0.0000000000000E+00  0.0000000000000E+00  0.0000000000000E+00  0.0000000000000E+00  0.0000000000000E+00  0.0000000000000E+00 
ZONE T = "SEP , 1.6188E-07", I = 10, SOLUTIONTIME = 1.618750E-07
ZONETYPE = ORDERED
DATAPACKING = BLOCK
STRANDID = 2
 7.8740000000000E-04  8.4102222222222E-04  8.9464444444444E-04  9.4826666666667E-04  1.0018888888889E-03  1.0555111111111E-03  1.1091333333333E-03  1.1627555555556E-03  1.2163777777778E-03  1.2700000000000E-03 
 1.0375894180006E-08  1.0375894180006E-08  1.0375894180006E-08  1.0375894180006E-08  1.0375894180006E-08  1.0375894180006E-08  1.0375894180006E-08  1.0375894180006E-08  1.0375894180006E-08  9.7995248121427E-09 
 9.1999999999768E-01  9.2000000000000E-01  9.2000000000000E-01  9.2000000000000E-01  9.2000000000000E-01  9.2000000000000E-01  9.2000000000000E-01  9.2000000000000E-01  9.2000000000000E-01  9.2000000000256E-01 
 4.0000000001160E-02  4.0000000000000E-02  4.0000000000000E-02  4.0000000000000E-02  4.0000000000000E-02  4.0000000000000E-02  4.0000000000000E-02  4.0000000000000E-02  4.0000000000000E-02  3.9999999998721E-02 
 4.0000000001160E-02  4.0000000000000E-02  4.0000000000000E-02  4.0000000000000E-02  4.0000000000000E-02  4.0000000000000E-02  4.0000000000000E-02  4.0000000000000E-02  4.0000000000000E-02  3.9999999998721E-02 
 3.5028847901859E-02  3.5028823348803E-02  3.5028798795747E-02  3.5028774242690E-02  3.5028749689634E-02  3.5028725136577E-02  3.5028700583521E-02  3.5028676030465E-02  3.5028651477408E-02  3.5028626924352E-02 
 8.0911139820575E-01  8.0911139820575E-01  8.0911139820575E-01  8.0911139820575E-01  8.0911139820575E-01  8.0911139820575E-01  8.0911139820575E-01  8.0911139820575E-01  8.0911139820575E-01  8.0911139820575E-01 
 2.6811111111111E-05  5.3622222222222E-05  5.3622222222222E-05  5.3622222222222E-05  5.3622222222222E-05  5.3622222222222E-05  5.3622222222222E-05  5.3622222222223E-05  5.3622222222222E-05  2.6811111111111E-05 
 1.9088860179425E-01  1.9088860179425E-01  1.9088860179425E-01  1.9088860179425E-01  1.9088860179425E-01  1.9088860179425E-01  1.9088860179425E-01  1.9088860179425E-01  1.9088860179425E-01  1.9088860179425E-01 
 1.1075757345554E-09  1.1075757345700E-09  1.1075757345652E-09  1.1075757345362E-09  1.1075757344927E-09  1.1075757345217E-09  1.1075757345846E-09  1.1075757345169E-09  1.1075757345310E-09  1.1075757346128E-09 
 6.8423112814009E-03  6.8423112813513E-03  6.8423112813017E-03  6.8423112813017E-03  6.8423112813017E-03  6.8423112813017E-03  6.8423112813017E-03  6.8423112813016E-03  6.8423112812470E-03  6.8423112811923E-03 
 6.8423112814009E-03  6.8423112813513E-03  6.8423112813017E-03  6.8423112813017E-03  6.8423112813017E-03  6.8423112813017E-03  6.8423112813017E-03  6.8423112813016E-03  6.8423112812470E-03  6.8423112811923E-03 
 0.0000000000000E+00  0.0000000000000E+00  0.0000000000000E+00  0.0000000000000E+00  0.0000000000000E+00  0.0000000000000E+00  0.0000000000000E+00  0.0000000000000E+00  0.0000000000000E+00  0.0000000000000E+00 
ZONE T = "SEP , 2.3781E-07", I = 10, SOLUTIONTIME = 2.378125E-07
ZONETYPE = ORDERED
DATAPACKING = BLOCK
STRANDID = 2
 7.8740000000000E-04  8.4102222222222E-04  8.9464444444444E-04  9.4826666666667E-04  1.0018888888889E-03  1.0555111111111E-03  1.1091333333333E-03  1.1627555555556E-03  1.2163777777778E-03  1.2700000000000E-03 
 1.0377376891421E-08  1.0377376891421E-08  1.0377376891421E-08  1.0377376891421E-08  1.0377376891421E-08  1.0377376891421E-08  1.0377376891421E-08  1.0377376891421E-08  1.0377376891421E-08  9.8012945032227E-09 
 9.1999999999659E-01  9.2000000000000E-01  9.2000000000000E-01  9.2000000000000E-01  9.2000000000000E-01  9.2000000000000E-01  9.2000000000000E-01  9.2000000000000E-01  9.2000000000000E-01  9.2000000000376E-01 
 4.0000000001704E-02  4.0000000000001E-02  4.0000000000000E-02  4.0000000000000E-02  4.0000000000000E-02  4.0000000000000E-02  4.0000000000000E-02  4.0000000000000E-02  3.9999999999999E-02  3.9999999998122E-02 
 4.0000000001704E-02  4.0000000000001E-02  4.0000000000000E-02  4.0000000000000E-02  4.0000000000000E-02  4.0000000000000E-02  4.0000000000000E-02  4.0000000000000E-02  3.9999999999999E-02  3.9999999998122E-02 
 3.5028847903537E-02  3.5028823350480E-02  3.5028798797424E-02  3.5028774244368E-02  3.5028749691311E-02  3.5028725138255E-02  3.5028700585199E-02  3.5028676032142E-02  3.5028651479086E-02  3.5028626926030E-02 
 8.0911139820575E-01  8.0911139820575E-01  8.0911139820575E-01  8.0911139820575E-01  8.0911139820575E-01  8.0911139820575E-01  8.0911139820575E-01  8.0911139820575E-01  8.0911139820575E-01  8.0911139820575E-01 
 2.6811111111111E-05  5.3622222222222E-05  5.3622222222222E-05  5.3622222222222E-05  5.3622222222222E-05  5.3622222222222E-05  5.3622222222222E-05  5.3622222222223E-05  5.3622222222222E-05  2.6811111111111E-05 
 1.9088860179425E-01  1.9088860179425E-01  1.9088860179425E-01  1.9088860179425E-01  1.9088860179425E-01  1.9088860179425E-01  1.9088860179425E-01  1.9088860179425E-01  1.9088860179425E-01  1.9088860179425E-01 
 1.6271637460219E-09  1.6271637461778E-09  1.6271637461675E-09  1.6271637461385E-09  1.6271637460950E-09  1.6271637459772E-09  1.6271637461869E-09  1.6271637461192E-09  1.6271637461272E-09  1.6271637463497E-09 
 6.8423112621105E-03  6.8423112639713E-03  6.8423112638985E-03  6.8423112638984E-03  6.8423112638984E-03  6.8423112619648E-03  6.8423112638985E-03  6.8423112638983E-03  6.8423112638181E-03  6.8423112656715E-03 
 6.8423112621105E-03  6.8423112639713E-03  6.8423112638985E-03  6.8423112638984E-03  6.8423112638984E-03  6.8423112619648E-03  6.8423112638985E-03  6.8423112638983E-03  6.8423112638181E-03  6.8423112656715E-03 
 0.0000000000000E+00  0.0000000000000E+00  0.0000000000000E+00  0.0000000000000E+00  0.0000000000000E+00  0.0000000000000E+00  0.0000000000000E+00  0.0000000000000E+00  0.0000000000000E+00  0.0000000000000E+00 
ZONE T = "SEP , 3.5172E-07", I = 10, SOLUTIONTIME = 3.517188E-07
ZONETYPE = ORDERED
DATAPACKING = BLOCK
STRANDID = 2
 7.8740000000000E-04  8.4102222222222E-04  8.9464444444444E-04  9.4826666666667E-04  1.0018888888889E-03  1.0555111111111E-03  1.1091333333333E-03  1.1627555555556E-03  1.2163777777778E-03  1.2700000000000E-03 
 1.0376484068069E-08  1.0376484068069E-08  1.0376484068069E-08  1.0376484068069E-08  1.0376484068069E-08  1.0376484068069E-08  1.0376484068069E-08  1.0376484068069E-08  1.0376420294970E-08  9.8002661620185E-09 
 9.1999999999496E-01  9.2000000000000E-01  9.2000000000000E-01  9.2000000000000E-01  9.2000000000000E-01  9.2000000000000E-01  9.2000000000000E-01  9.2000000000000E-01  9.2000000000000E-01  9.2000000000555E-01 
 4.0000000002519E-02  4.0000000000002E-02  4.0000000000000E-02  4.0000000000000E-02  4.0000000000000E-02  4.0000000000000E-02  4.0000000000000E-02  4.0000000000000E-02  3.9999999999998E-02  3.9999999997223E-02 