TITLE = "Solution on Domain BulkDomain1D_0"
VARIABLES = "x [m]"  
"Vel_axial" 
"MF_sp(ECDMC)" 
"MF_sp(Li+)" 
"MF_sp(PF6-)" 
"Volt(Electroly)" 
"Volt(AnodeVolt)" 
"Potential Drop Electrode-Electrolyte [V]" 
"Surf_0 Equilibrium Potential Drop Electrode-Electrolyte [V]" 
"Overpotential_0 [V]" 
"Current Source [A/m^2]" 
"Li+ flux [kmol/m^2/s]" 
"Electrolyte Current [A/m^2]" 
"Electrode Current [A/m^2]" 
"CV Capacity discharged [A-s/m^2]" 
"Depth of discharge in CV [A-s/m^2]" 
"CV Capacity remaining [A-s/m^2]" 
"Initial CV capacity [A-s/m^2]" 
"Porosity []" 
"Surface Area [m2/m2] (area per area)" 
"Specific current (per particle area) [A/m^2]" 
"Control volume thickness [m]" 
"MoleDens Li_C6-bulk [kmol/m^3]" 
"MoleDens V_C6-bulk [kmol/m^3]" 
"qHeat_accum [J/m3]" 
"qHeat_step [W/m3]" 
"Joule_Lyte [W/m3]" 
"Joule_Solid [W/m3]" 
"electrodHeat [W/m3]" 
"OverpotHeat [W/m3]" 
"deltaSHeat [W/m3]" 

ZONE T = "ANOD, 0.0000E+00", I = 10, SOLUTIONTIME = 0.000000E+00
ZONETYPE = ORDERED
DATAPACKING = BLOCK
STRANDID = 1
 0.0000000000000E+00  8.7488888888889E-05  1.7497777777778E-04  2.6246666666667E-04  3.4995555555556E-04  4.3744444444444E-04  5.2493333333333E-04  6.1242222222222E-04  6.9991111111111E-04  7.8740000000000E-04 
 0.0000000000000E+00  0.0000000000000E+00  0.0000000000000E+00  0.0000000000000E+00  0.0000000000000E+00  0.0000000000000E+00  0.0000000000000E+00  0.0000000000000E+00  0.0000000000000E+00  0.0000000000000E+00 
 9.2000000000000E-01  9.2000000000000E-01  9.2000000000000E-01  9.2000000000000E-01  9.2000000000000E-01  9.2000000000000E-01  9.2000000000000E-01  9.2000000000000E-01  9.2000000000000E-01  9.2000000000000E-01 
 4.0000000000000E-02  4.0000000000000E-02  4.0000000000000E-02  4.0000000000000E-02  4.0000000000000E-02  4.0000000000000E-02  4.0000000000000E-02  4.0000000000000E-02  4.0000000000000E-02  4.0000000000000E-02 
 4.0000000000000E-02  4.0000000000000E-02  4.0000000000000E-02  4.0000000000000E-02  4.0000000000000E-02  4.0000000000000E-02  4.0000000000000E-02  4.0000000000000E-02  4.0000000000000E-02  4.0000000000000E-02 
-7.0000000000000E-02 -7.0000000000000E-02 -7.0000000000000E-02 -7.0000000000000E-02 -7.0000000000000E-02 -7.0000000000000E-02 -7.0000000000000E-02 -7.0000000000000E-02 -7.0000000000000E-02 -7.0000000000000E-02 
 0.0000000000000E+00  0.0000000000000E+00  0.0000000000000E+00  0.0000000000000E+00  0.0000000000000E+00  0.0000000000000E+00  0.0000000000000E+00  0.0000000000000E+00  0.0000000000000E+00  0.0000000000000E+00 
 7.0000000000000E-02  7.0000000000000E-02  7.0000000000000E-02  7.0000000000000E-02  7.0000000000000E-02  7.0000000000000E-02  7.0000000000000E-02  7.0000000000000E-02  7.0000000000000E-02  7.0000000000000E-02 
-4.0906712753392E-02 -4.0906712753392E-02 -4.0906712753392E-02 -4.0906712753392E-02 -4.0906712753392E-02 -4.0906712753392E-02 -4.0906712753392E-02 -4.0906712753392E-02 -4.0906712753392E-02 -4.0906712753392E-02 
 1.1090671275339E-01  1.1090671275339E-01  1.1090671275339E-01  1.1090671275339E-01  1.1090671275339E-01  1.1090671275339E-01  1.1090671275339E-01  1.1090671275339E-01  1.1090671275339E-01  1.1090671275339E-01 
 3.0930240924008E+01  6.1860481848016E+01  6.1860481848016E+01  6.1860481848016E+01  6.1860481848016E+01  6.1860481848016E+01  6.1860481848016E+01  6.1860481848016E+01  6.1860481848016E+01  3.0930240924008E+01 
-0.0000000000000E+00 -0.0000000000000E+00 -0.0000000000000E+00 -0.0000000000000E+00 -0.0000000000000E+00 -0.0000000000000E+00 -0.0000000000000E+00 -0.0000000000000E+00 -0.0000000000000E+00 -0.0000000000000E+00 
 0.0000000000000E+00  0.0000000000000E+00  0.0000000000000E+00  0.0000000000000E+00  0.0000000000000E+00  0.0000000000000E+00  0.0000000000000E+00  0.0000000000000E+00  0.0000000000000E+00  3.0930240924008E+01 
 3.0930240924008E+01 -0.0000000000000E+00 -0.0000000000000E+00 -0.0000000000000E+00 -0.0000000000000E+00 -0.0000000000000E+00 -0.0000000000000E+00 -0.0000000000000E+00 -0.0000000000000E+00  0.0000000000000E+00 
 0.0000000000000E+00  0.0000000000000E+00  0.0000000000000E+00  0.0000000000000E+00  0.0000000000000E+00  0.0000000000000E+00  0.0000000000000E+00  0.0000000000000E+00  0.0000000000000E+00  0.0000000000000E+00 
 9.1448444543281E+04  1.8289688908656E+05  1.8289688908656E+05  1.8289688908656E+05  1.8289688908656E+05  1.8289688908656E+05  1.8289688908656E+05  1.8289688908656E+05  1.8289688908656E+05  9.1448444543281E+04 
 3.6579377817312E+05  7.3158755634625E+05  7.3158755634625E+05  7.3158755634625E+05  7.3158755634625E+05  7.3158755634625E+05  7.3158755634625E+05  7.3158755634625E+05  7.3158755634625E+05  3.6579377817312E+05 
 4.5724222271640E+05  9.1448444543281E+05  9.1448444543281E+05  9.1448444543281E+05  9.1448444543281E+05  9.1448444543281E+05  9.1448444543281E+05  9.1448444543281E+05  9.1448444543281E+05  4.5724222271640E+05 
 3.5000000000000E-01  3.5000000000000E-01  3.5000000000000E-01  3.5000000000000E-01  3.5000000000000E-01  3.5000000000000E-01  3.5000000000000E-01  3.5000000000000E-01  3.5000000000000E-01  3.5000000000000E-01 
 8.5301666666666E+00  1.7060333333333E+01  1.7060333333333E+01  1.7060333333333E+01  1.7060333333333E+01  1.7060333333333E+01  1.7060333333333E+01  1.7060333333333E+01  1.7060333333333E+01  8.5301666666666E+00 
 3.6259831879809E+00  3.6259831879809E+00  3.6259831879809E+00  3.6259831879809E+00  3.6259831879809E+00  3.6259831879809E+00  3.6259831879809E+00  3.6259831879809E+00  3.6259831879809E+00  3.6259831879809E+00 
 4.3744444444444E-05  8.7488888888889E-05  8.7488888888889E-05  8.7488888888889E-05  8.7488888888889E-05  8.7488888888889E-05  8.7488888888889E-05  8.7488888888889E-05  8.7488888888889E-05  4.3744444444444E-05 
 8.6666666666666E+01  8.6666666666666E+01  8.6666666666666E+01  8.6666666666666E+01  8.6666666666666E+01  8.6666666666666E+01  8.6666666666666E+01  8.6666666666666E+01  8.6666666666666E+01  8.6666666666666E+01 
 2.1666666666667E+01  2.1666666666667E+01  2.1666666666667E+01  2.1666666666667E+01  2.1666666666667E+01  2.1666666666667E+01  2.1666666666667E+01  2.1666666666667E+01  2.1666666666667E+01  2.1666666666667E+01 
 0.0000000000000E+00  0.0000000000000E+00  0.0000000000000E+00  0.0000000000000E+00  0.0000000000000E+00  0.0000000000000E+00  0.0000000000000E+00  0.0000000000000E+00  0.0000000000000E+00  0.0000000000000E+00 
 0.0000000000000E+00  0.0000000000000E+00  0.0000000000000E+00  0.0000000000000E+00  0.0000000000000E+00  0.0000000000000E+00  0.0000000000000E+00  0.0000000000000E+00  0.0000000000000E+00  0.0000000000000E+00 
 0.0000000000000E+00  0.0000000000000E+00  0.0000000000000E+00  0.0000000000000E+00  0.0000000000000E+00  0.0000000000000E+00  0.0000000000000E+00  0.0000000000000E+00  0.0000000000000E+00  0.0000000000000E+00 
 0.0000000000000E+00  0.0000000000000E+00  0.0000000000000E+00  0.0000000000000E+00  0.0000000000000E+00  0.0000000000000E+00  0.0000000000000E+00  0.0000000000000E+00  0.0000000000000E+00  0.0000000000000E+00 
 0.0000000000000E+00  0.0000000000000E+00  0.0000000000000E+00  0.0000000000000E+00  0.0000000000000E+00  0.0000000000000E+00  0.0000000000000E+00  0.0000000000000E+00  0.0000000000000E+00  0.0000000000000E+00 
 0.0000000000000E+00  0.0000000000000E+00  0.0000000000000E+00  0.0000000000000E+00  0.0000000000000E+00  0.0000000000000E+00  0.0000000000000E+00  0.0000000000000E+00  0.0000000000000E+00  0.0000000000000E+00 
 0.0000000000000E+00  0.0000000000000E+00  0.0000000000000E+00  0.0000000000000E+00  0.0000000000000E+00  0.0000000000000E+00  0.0000000000000E+00  0.0000000000000E+00  0.0000000000000E+00  0.0000000000000E+00 
ZONE T = "ANOD, 1.0000E-08", I = 10, SOLUTIONTIME = 1.000000E-08
ZONETYPE = ORDERED
DATAPACKING = BLOCK
STRANDID = 1
 0.0000000000000E+00  8.7488888888889E-05  1.7497777777778E-04  2.6246666666667E-04  3.4995555555556E-04  4.3744444444444E-04  5.2493333333333E-04  6.1242222222222E-04  6.9991111111111E-04  7.8740000000000E-04 
 5.7645286559155E-10  1.7293596712839E-09  2.8822706927462E-09  4.0351890642756E-09  5.1881179224443E-09  6.3410604039938E-09  7.4940196467742E-09  8.6469987875521E-09  9.8000009642663E-09  1.0376515137891E-08 
 9.1999999999965E-01  9.1999999999965E-01  9.1999999999965E-01  9.1999999999965E-01  9.1999999999965E-01  9.1999999999965E-01  9.1999999999965E-01  9.1999999999965E-01  9.1999999999965E-01  9.1999999999986E-01 
 4.0000000000173E-02  4.0000000000173E-02  4.0000000000173E-02  4.0000000000173E-02  4.0000000000173E-02  4.0000000000173E-02  4.0000000000173E-02  4.0000000000173E-02  4.0000000000173E-02  4.0000000000072E-02 
 4.0000000000173E-02  4.0000000000173E-02  4.0000000000173E-02  4.0000000000173E-02  4.0000000000173E-02  4.0000000000173E-02  4.0000000000173E-02  4.0000000000173E-02  4.0000000000173E-02  4.0000000000072E-02 
 3.5028732240594E-02  3.5028724418252E-02  3.5028700951463E-02  3.5028661840077E-02  3.5028607084086E-02  3.5028536683087E-02  3.5028450637177E-02  3.5028348945965E-02  3.5028231609329E-02  3.5028098626698E-02 
-2.5574474148852E-07 -2.5810086587479E-07 -2.6017980918153E-07 -2.6198157039521E-07 -2.6350614774871E-07 -2.6475353872086E-07 -2.6572374003632E-07 -2.6641674766538E-07 -2.6683255682416E-07 -2.6697116197439E-07 
-3.5028987985336E-02 -3.5028982519118E-02 -3.5028961131272E-02 -3.5028923821648E-02 -3.5028870590234E-02 -3.5028801436625E-02 -3.5028716360917E-02 -3.5028615362713E-02 -3.5028498441886E-02 -3.5028365597860E-02 
-4.0906712753147E-02 -4.0906712753145E-02 -4.0906712753147E-02 -4.0906712753147E-02 -4.0906712753142E-02 -4.0906712753145E-02 -4.0906712753145E-02 -4.0906712753142E-02 -4.0906712753142E-02 -4.0906712753207E-02 
 5.8777247678115E-03  5.8777302340269E-03  5.8777516218753E-03  5.8777889314993E-03  5.8778421629081E-03  5.8779113165195E-03  5.8779963922276E-03  5.8780973904288E-03  5.8782143112560E-03  5.8783471553469E-03 
 8.3025205616497E-01  1.6605056633092E+00  1.6605117318759E+00  1.6605223180731E+00  1.6605374219052E+00  1.6605570434884E+00  1.6605811827985E+00  1.6606098399509E+00  1.6606430149835E+00  8.3034035403169E-01 
 4.3019314956588E-09  1.2905664755678E-08  2.1509479221781E-08  3.0113299620320E-08  3.8717340762168E-08  4.7321328341409E-08  5.5925531713642E-08  6.4529801978719E-08  7.3134421711164E-08  7.3134421711164E-08 
 0.0000000000000E+00  1.6602807139706E+00  3.3205567459696E+00  4.9808411853405E+00  6.6411474962495E+00  8.3014699374273E+00  9.9618080305880E+00  1.1622173400026E+01  1.3282575480737E+01  1.4943132003161E+01 
 1.4943122290010E+01  1.3282731420011E+01  1.1622450756819E+01  9.9621617657655E+00  8.3018599315765E+00  6.6415407372074E+00  4.9811996647114E+00  3.3208321961148E+00  1.6604338133757E+00  0.0000000000000E+00 
 8.3025205616497E-09  1.6605056633092E-08  1.6605117318759E-08  1.6605223180731E-08  1.6605374219052E-08  1.6605570434884E-08  1.6605811827985E-08  1.6606098399509E-08  1.6606430149835E-08  8.3034035403169E-09 
 9.1448444543289E+04  1.8289688908658E+05  1.8289688908658E+05  1.8289688908658E+05  1.8289688908658E+05  1.8289688908658E+05  1.8289688908658E+05  1.8289688908658E+05  1.8289688908658E+05  9.1448444543289E+04 
 3.6579377817312E+05  7.3158755634623E+05  7.3158755634623E+05  7.3158755634623E+05  7.3158755634623E+05  7.3158755634623E+05  7.3158755634623E+05  7.3158755634623E+05  7.3158755634623E+05  3.6579377817312E+05 
 4.5724222271640E+05  9.1448444543281E+05  9.1448444543281E+05  9.1448444543281E+05  9.1448444543281E+05  9.1448444543281E+05  9.1448444543281E+05  9.1448444543281E+05  9.1448444543281E+05  4.5724222271640E+05 
 3.5000000000000E-01  3.5000000000000E-01  3.5000000000000E-01  3.5000000000000E-01  3.5000000000000E-01  3.5000000000000E-01  3.5000000000000E-01  3.5000000000000E-01  3.5000000000000E-01  3.5000000000000E-01 
 8.5301666666666E+00  1.7060333333333E+01  1.7060333333333E+01  1.7060333333333E+01  1.7060333333333E+01  1.7060333333333E+01  1.7060333333333E+01  1.7060333333333E+01  1.7060333333333E+01  8.5301666666666E+00 
 9.7331281862212E-02  9.7331372773640E-02  9.7331728485723E-02  9.7332349000986E-02  9.7333234319683E-02  9.7334384448626E-02  9.7335799386403E-02  9.7337479139775E-02  9.7339423710955E-02  9.7341633109751E-02 
 4.3744444444444E-05  8.7488888888889E-05  8.7488888888889E-05  8.7488888888889E-05  8.7488888888889E-05  8.7488888888889E-05  8.7488888888889E-05  8.7488888888889E-05  8.7488888888889E-05  4.3744444444444E-05 
 8.6666666666664E+01  8.6666666666664E+01  8.6666666666664E+01  8.6666666666664E+01  8.6666666666664E+01  8.6666666666664E+01  8.6666666666664E+01  8.6666666666664E+01  8.6666666666664E+01  8.6666666666664E+01 
 2.1666666666669E+01  2.1666666666669E+01  2.1666666666669E+01  2.1666666666669E+01  2.1666666666669E+01  2.1666666666669E+01  2.1666666666669E+01  2.1666666666669E+01  2.1666666666669E+01  2.1666666666669E+01 
 4.5429046873917E-12  7.0909371826458E-12  1.5208503420673E-11  2.9369065095589E-11  4.9572955226417E-11  7.5820222713854E-11  1.0811112661062E-10  1.4644605728732E-10  1.9082565034236E-10  2.1452681132871E-10 
 4.5429046873917E-04  7.0909371826458E-04  1.5208503420673E-03  2.9369065095589E-03  4.9572955226417E-03  7.5820222713854E-03  1.0811112661062E-02  1.4644605728732E-02  1.9082565034236E-02  2.1452681132871E-02 
 7.4223032285969E-05  3.7110844653772E-04  1.2617694563603E-03  2.7462101439577E-03  4.8244637959807E-03  7.4965351728526E-03  1.0762449935721E-02  1.4622246763009E-02  1.9075988741391E-02  2.1451365838478E-02 
 3.8006743645320E-04  3.3798527172686E-04  2.5908088570693E-04  1.9069636560121E-04  1.3283172666095E-04  8.5487098532786E-05  4.8662725340872E-05  2.2358965722924E-05  6.5762928449141E-06  1.3152943929786E-06 
 0.0000000000000E+00  0.0000000000000E+00  0.0000000000000E+00  0.0000000000000E+00  0.0000000000000E+00  0.0000000000000E+00  0.0000000000000E+00  0.0000000000000E+00  0.0000000000000E+00  0.0000000000000E+00 
 0.0000000000000E+00  0.0000000000000E+00  0.0000000000000E+00  0.0000000000000E+00  0.0000000000000E+00  0.0000000000000E+00  0.0000000000000E+00  0.0000000000000E+00  0.0000000000000E+00  0.0000000000000E+00 
 0.0000000000000E+00  0.0000000000000E+00  0.0000000000000E+00  0.0000000000000E+00  0.0000000000000E+00  0.0000000000000E+00  0.0000000000000E+00  0.0000000000000E+00  0.0000000000000E+00  0.0000000000000E+00 
ZONE T = "ANOD, 2.0000E-08", I = 10, SOLUTIONTIME = 2.000000E-08
ZONETYPE = ORDERED
DATAPACKING = BLOCK
STRANDID = 1
 0.0000000000000E+00  8.7488888888889E-05  1.7497777777778E-04  2.6246666666667E-04  3.4995555555556E-04  4.3744444444444E-04  5.2493333333333E-04  6.1242222222222E-04  6.9991111111111E-04  7.8740000000000E-04 
 5.7609501514973E-10  1.7279229147230E-09  2.8801182361072E-09  4.0323209086680E-09  5.1852604849744E-09  6.3382136867163E-09  7.4911836510753E-09  8.6441735152804E-09  9.7982760398018E-09  1.0374795577719E-08 
 9.1999999999931E-01  9.1999999999931E-01  9.1999999999931E-01  9.1999999999931E-01  9.1999999999931E-01  9.1999999999931E-01  9.1999999999931E-01  9.1999999999931E-01  9.1999999999931E-01  9.1999999999971E-01 
 4.0000000000346E-02  4.0000000000346E-02  4.0000000000346E-02  4.0000000000346E-02  4.0000000000346E-02  4.0000000000346E-02  4.0000000000346E-02  4.0000000000346E-02  4.0000000000346E-02  4.0000000000143E-02 
 4.0000000000346E-02  4.0000000000346E-02  4.0000000000346E-02  4.0000000000346E-02  4.0000000000346E-02  4.0000000000346E-02  4.0000000000346E-02  4.0000000000346E-02  4.0000000000346E-02  4.0000000000143E-02 
 3.5029481526482E-02  3.5029473704148E-02  3.5029450237132E-02  3.5029411125377E-02  3.5029356368782E-02  3.5029285967207E-02  3.5029199920465E-02  3.5029098228329E-02  3.5028980890530E-02  3.5028847906754E-02 
-2.5574711934447E-07 -2.5810326563803E-07 -2.6018222827548E-07 -2.6198400624367E-07 -2.6350859777525E-07 -2.6475600034861E-07 -2.6572621068796E-07 -2.6641922476322E-07 -2.6683503779009E-07 -2.6697364423000E-07 
-3.5029737273601E-02 -3.5029731807413E-02 -3.5029710419360E-02 -3.5029673109383E-02 -3.5029619877380E-02 -3.5029550723207E-02 -3.5029465646676E-02 -3.5029364647554E-02 -3.5029247725568E-02 -3.5029114880398E-02 
-4.0906712752895E-02 -4.0906712752900E-02 -4.0906712752895E-02 -4.0906712752895E-02 -4.0906712752896E-02 -4.0906712752900E-02 -4.0906712752900E-02 -4.0906712752896E-02 -4.0906712752896E-02 -4.0906712753026E-02 
 5.8769754792936E-03  5.8769809454861E-03  5.8770023335343E-03  5.8770396435116E-03  5.8770928755155E-03  5.8771620296924E-03  5.8772471062239E-03  5.8773481053417E-03  5.8774650273281E-03  5.8775978726280E-03 
 8.3014575506301E-01  1.6602930610941E+00  1.6602991297096E+00  1.6603097159893E+00  1.6603248199622E+00  1.6603444416747E+00  1.6603685811785E+00  1.6603972385418E+00  1.6604304138481E+00  8.3023405360319E-01 
 4.3019270362464E-09  1.2905789146782E-08  2.1509682706462E-08  3.0113631122919E-08  3.8717657805687E-08  4.7321786180635E-08  5.5926039652605E-08  6.4530441614290E-08  7.3135087249953E-08  7.3135087249953E-08 
 0.0000000000000E+00  1.6602922856203E+00  3.3205883809575E+00  4.9808928037681E+00  6.6412100718089E+00  8.3015447028362E+00  9.9619012138702E+00  1.1622284123772E+01  1.3282697950281E+01  1.4943147210913E+01 
 1.4943147210664E+01  1.3282854925054E+01  1.1622558829653E+01  9.9622544068032E+00  8.3019371388274E+00  6.6416025080090E+00  4.9812459965825E+00  3.3208630867222E+00  1.6604492605271E+00  0.0000000000000E+00 
 1.6603978112280E-08  3.3207987244034E-08  3.3208108615855E-08  3.3208320340625E-08  3.3208622418674E-08  3.3209014851631E-08  3.3209497639770E-08  3.3210070784927E-08  3.3210734288315E-08  1.6605744076349E-08 
 9.1448444543297E+04  1.8289688908659E+05  1.8289688908659E+05  1.8289688908659E+05  1.8289688908659E+05  1.8289688908659E+05  1.8289688908659E+05  1.8289688908659E+05  1.8289688908659E+05  9.1448444543297E+04 
 3.6579377817311E+05  7.3158755634621E+05  7.3158755634621E+05  7.3158755634621E+05  7.3158755634621E+05  7.3158755634621E+05  7.3158755634621E+05  7.3158755634621E+05  7.3158755634621E+05  3.6579377817311E+05 
 4.5724222271640E+05  9.1448444543281E+05  9.1448444543281E+05  9.1448444543281E+05  9.1448444543281E+05  9.1448444543281E+05  9.1448444543281E+05  9.1448444543281E+05  9.1448444543281E+05  4.5724222271640E+05 
 3.5000000000000E-01  3.5000000000000E-01  3.5000000000000E-01  3.5000000000000E-01  3.5000000000000E-01  3.5000000000000E-01  3.5000000000000E-01  3.5000000000000E-01  3.5000000000000E-01  3.5000000000000E-01 
 8.5301666666666E+00  1.7060333333333E+01  1.7060333333333E+01  1.7060333333333E+01  1.7060333333333E+01  1.7060333333333E+01  1.7060333333333E+01  1.7060333333333E+01  1.7060333333333E+01  8.5301666666666E+00 
 9.7318820077335E-02  9.7318910988109E-02  9.7319266703049E-02  9.7319887223148E-02  9.7320772550098E-02  9.7321922686626E-02  9.7323337635752E-02  9.7325017401483E-02  9.7326961988712E-02  9.7329171403825E-02 
 4.3744444444444E-05  8.7488888888889E-05  8.7488888888889E-05  8.7488888888889E-05  8.7488888888889E-05  8.7488888888889E-05  8.7488888888889E-05  8.7488888888889E-05  8.7488888888889E-05  4.3744444444444E-05 
 8.6666666666662E+01  8.6666666666662E+01  8.6666666666662E+01  8.6666666666662E+01  8.6666666666662E+01  8.6666666666662E+01  8.6666666666662E+01  8.6666666666662E+01  8.6666666666662E+01  8.6666666666662E+01 
 2.1666666666671E+01  2.1666666666671E+01  2.1666666666671E+01  2.1666666666671E+01  2.1666666666671E+01  2.1666666666671E+01  2.1666666666671E+01  2.1666666666671E+01  2.1666666666671E+01  2.1666666666671E+01 
 9.0858785145814E-12  1.4182000833011E-11  3.0417294946696E-11  5.8738741565669E-11  9.9146827842426E-11  1.5164182257638E-10  2.1622427048968E-10  2.9289491343254E-10  3.8165480424789E-10  4.2905731675277E-10 
 4.5429738271897E-04  7.0910636503649E-04  1.5208791526023E-03  2.9369676470080E-03  4.9573872616009E-03  7.5821599862530E-03  1.0811314387906E-02  1.4644885614522E-02  1.9082915390553E-02  2.1453050542406E-02 
 1.4844591076928E-04  7.4222325453826E-04  2.5235629050520E-03  5.4924778786772E-03  9.6490168602499E-03  1.4993206470397E-02  2.1525100693030E-02  2.9244772995841E-02  3.8152327716744E-02  4.2903101062014E-02 
 7.6014194068886E-04  6.7597682876282E-04  5.1816658961760E-04  3.8139627788973E-04  2.6566592399267E-04  1.7097578724141E-04  9.7326355938149E-05  4.4718347413239E-05  1.3152708045769E-05  2.6306132628603E-06 
 0.0000000000000E+00  0.0000000000000E+00  0.0000000000000E+00  0.0000000000000E+00  0.0000000000000E+00  0.0000000000000E+00  0.0000000000000E+00  0.0000000000000E+00  0.0000000000000E+00  0.0000000000000E+00 
 0.0000000000000E+00  0.0000000000000E+00  0.0000000000000E+00  0.0000000000000E+00  0.0000000000000E+00  0.0000000000000E+00  0.0000000000000E+00  0.0000000000000E+00  0.0000000000000E+00  0.0000000000000E+00 
 0.0000000000000E+00  0.0000000000000E+00  0.0000000000000E+00  0.0000000000000E+00  0.0000000000000E+00  0.0000000000000E+00  0.0000000000000E+00  0.0000000000000E+00  0.0000000000000E+00  0.0000000000000E+00 
ZONE T = "ANOD, 3.0000E-08", I = 10, SOLUTIONTIME = 3.000000E-08
ZONETYPE = ORDERED
DATAPACKING = BLOCK
STRANDID = 1
 0.0000000000000E+00  8.7488888888889E-05  1.7497777777778E-04  2.6246666666667E-04  3.4995555555556E-04  4.3744444444444E-04  5.2493333333333E-04  6.1242222222222E-04  6.9991111111111E-04  7.8740000000000E-04 
 5.7663982673762E-10  1.7291941417591E-09  2.8824790863191E-09  4.0357713820557E-09  5.1894373738112E-09  6.3413009523625E-09  7.4935445012587E-09  8.6454447422740E-09  9.7980944358778E-09  1.0374613973797E-08 
 9.1999999999896E-01  9.1999999999896E-01  9.1999999999896E-01  9.1999999999896E-01  9.1999999999896E-01  9.1999999999896E-01  9.1999999999896E-01  9.1999999999896E-01  9.1999999999896E-01  9.1999999999957E-01 
 4.0000000000520E-02  4.0000000000520E-02  4.0000000000520E-02  4.0000000000520E-02  4.0000000000520E-02  4.0000000000520E-02  4.0000000000520E-02  4.0000000000520E-02  4.0000000000520E-02  4.0000000000215E-02 
 4.0000000000520E-02  4.0000000000520E-02  4.0000000000520E-02  4.0000000000520E-02  4.0000000000520E-02  4.0000000000520E-02  4.0000000000520E-02  4.0000000000520E-02  4.0000000000520E-02  4.0000000000215E-02 
 3.5029481526289E-02  3.5029473703955E-02  3.5029450236939E-02  3.5029411125184E-02  3.5029356368590E-02  3.5029285967014E-02  3.5029199920272E-02  3.5029098228136E-02  3.5028980890337E-02  3.5028847906561E-02 
-2.5574711934305E-07 -2.5810326563660E-07 -2.6018222827403E-07 -2.6198400624222E-07 -2.6350859777379E-07 -2.6475600034715E-07 -2.6572621068649E-07 -2.6641922476174E-07 -2.6683503778861E-07 -2.6697364422852E-07 
-3.5029737273408E-02 -3.5029731807220E-02 -3.5029710419167E-02 -3.5029673109190E-02 -3.5029619877187E-02 -3.5029550723014E-02 -3.5029465646483E-02 -3.5029364647361E-02 -3.5029247725375E-02 -3.5029114880205E-02 
-4.0906712752646E-02 -4.0906712752646E-02 -4.0906712752646E-02 -4.0906712752646E-02 -4.0906712752648E-02 -4.0906712752644E-02 -4.0906712752644E-02 -4.0906712752648E-02 -4.0906712752648E-02 -4.0906712752843E-02 
 5.8769754792380E-03  5.8769809454255E-03  5.8770023334787E-03  5.8770396434559E-03  5.8770928754603E-03  5.8771620296300E-03  5.8772471061615E-03  5.8773481052865E-03  5.8774650272729E-03  5.8775978726380E-03 
 8.3014575505757E-01  1.6602930610836E+00  1.6602991296986E+00  1.6603097159784E+00  1.6603248199531E+00  1.6603444416642E+00  1.6603685811680E+00  1.6603972385325E+00  1.6604304138390E+00  8.3023405360679E-01 
 4.3019270385201E-09  1.2905789144583E-08  2.1509682706555E-08  3.0113631120795E-08  3.8717657805855E-08  4.7321786180840E-08  5.5926039649024E-08  6.4530441616138E-08  7.3135123117916E-08  7.3135123117916E-08 
 0.0000000000000E+00  1.6602922856274E+00  3.3205883809718E+00  4.9808928037897E+00  6.6412100718376E+00  8.3015447028721E+00  9.9619012139134E+00  1.1622284123822E+01  1.3282697949961E+01  1.4943147210223E+01 
 1.4943147210581E+01  1.3282854924982E+01  1.1622558829591E+01  9.9622544067526E+00  8.3019371387868E+00  6.6416025079784E+00  4.9812459965623E+00  3.3208630867119E+00  1.6604492605262E+00  0.0000000000000E+00 
 2.4905435662856E-08  4.9810917854870E-08  4.9811099912841E-08  4.9811417500409E-08  4.9811870618205E-08  4.9812459268273E-08  4.9813183451449E-08  4.9814043170253E-08  4.9815038426705E-08  2.4908084612417E-08 
 9.1448444543306E+04  1.8289688908661E+05  1.8289688908661E+05  1.8289688908661E+05  1.8289688908661E+05  1.8289688908661E+05  1.8289688908661E+05  1.8289688908661E+05  1.8289688908661E+05  9.1448444543306E+04 
 3.6579377817310E+05  7.3158755634620E+05  7.3158755634620E+05  7.3158755634620E+05  7.3158755634620E+05  7.3158755634620E+05  7.3158755634620E+05  7.3158755634620E+05  7.3158755634620E+05  3.6579377817310E+05 
 4.5724222271640E+05  9.1448444543281E+05  9.1448444543281E+05  9.1448444543281E+05  9.1448444543281E+05  9.1448444543281E+05  9.1448444543281E+05  9.1448444543281E+05  9.1448444543281E+05  4.5724222271640E+05 
 3.5000000000000E-01  3.5000000000000E-01  3.5000000000000E-01  3.5000000000000E-01  3.5000000000000E-01  3.5000000000000E-01  3.5000000000000E-01  3.5000000000000E-01  3.5000000000000E-01  3.5000000000000E-01 
 8.5301666666666E+00  1.7060333333333E+01  1.7060333333333E+01  1.7060333333333E+01  1.7060333333333E+01  1.7060333333333E+01  1.7060333333333E+01  1.7060333333333E+01  1.7060333333333E+01  8.5301666666666E+00 
 9.7318820076698E-02  9.7318910987493E-02  9.7319266702407E-02  9.7319887222511E-02  9.7320772549564E-02  9.7321922686010E-02  9.7323337635137E-02  9.7325017400943E-02  9.7326961988178E-02  9.7329171404247E-02 
 4.3744444444444E-05  8.7488888888889E-05  8.7488888888889E-05  8.7488888888889E-05  8.7488888888889E-05  8.7488888888889E-05  8.7488888888889E-05  8.7488888888889E-05  8.7488888888889E-05  4.3744444444444E-05 
 8.6666666666660E+01  8.6666666666660E+01  8.6666666666660E+01  8.6666666666660E+01  8.6666666666660E+01  8.6666666666660E+01  8.6666666666660E+01  8.6666666666660E+01  8.6666666666660E+01  8.6666666666660E+01 
 2.1666666666672E+01  2.1666666666672E+01  2.1666666666672E+01  2.1666666666672E+01  2.1666666666672E+01  2.1666666666672E+01  2.1666666666672E+01  2.1666666666672E+01  2.1666666666672E+01  2.1666666666672E+01 
 1.3628852341733E-11  2.1273064483355E-11  4.5626086472746E-11  8.8108418035849E-11  1.4872070045863E-10  2.2746342243923E-10  3.2433741436921E-10  4.3934376957839E-10  5.7248395814292E-10  6.4358782215510E-10 
 4.5429738271512E-04  7.0910636503443E-04  1.5208791526050E-03  2.9369676470180E-03  4.9573872616205E-03  7.5821599862847E-03  1.0811314387953E-02  1.4644885614585E-02  1.9082915389503E-02  2.1453050540233E-02 
 2.2266878925290E-04  1.1133380625404E-03  3.7853563537491E-03  8.2387456134085E-03  1.4473569924540E-02  2.2489877767974E-02  3.2287751450386E-02  4.3867299228736E-02  5.7228666691046E-02  6.4354836283377E-02 
 1.1402164449204E-03  1.0139683857951E-03  7.7725229352553E-04  5.7209619017632E-04  3.9850012132310E-04  2.5646447594923E-04  1.4598998653503E-04  6.7077729103407E-05  1.9729123246604E-05  3.9459321327541E-06 
 0.0000000000000E+00  0.0000000000000E+00  0.0000000000000E+00  0.0000000000000E+00  0.0000000000000E+00  0.0000000000000E+00  0.0000000000000E+00  0.0000000000000E+00  0.0000000000000E+00  0.0000000000000E+00 
 0.0000000000000E+00  0.0000000000000E+00  0.0000000000000E+00  0.0000000000000E+00  0.0000000000000E+00  0.0000000000000E+00  0.0000000000000E+00  0.0000000000000E+00  0.0000000000000E+00  0.0000000000000E+00 
 0.0000000000000E+00  0.0000000000000E+00  0.0000000000000E+00  0.0000000000000E+00  0.0000000000000E+00  0.0000000000000E+00  0.0000000000000E+00  0.0000000000000E+00  0.0000000000000E+00  0.0000000000000E+00 
ZONE T = "ANOD, 4.0000E-08", I = 10, SOLUTIONTIME = 4.000000E-08
ZONETYPE = ORDERED
DATAPACKING = BLOCK
STRANDID = 1
 0.0000000000000E+00  8.7488888888889E-05  1.7497777777778E-04  2.6246666666667E-04  3.4995555555556E-04  4.3744444444444E-04  5.2493333333333E-04  6.1242222222222E-04  6.9991111111111E-04  7.8740000000000E-04 
 5.7645822287020E-10  1.7293757456122E-09  2.8822974824374E-09  4.0352265704392E-09  5.1881661467322E-09  6.3414825561877E-09  7.4944525205326E-09  8.6481688001799E-09  9.8011817015046E-09  1.0376974823971E-08 
 9.1999999999861E-01  9.1999999999861E-01  9.1999999999861E-01  9.1999999999861E-01  9.1999999999861E-01  9.1999999999861E-01  9.1999999999861E-01  9.1999999999861E-01  9.1999999999861E-01  9.1999999999943E-01 
 4.0000000000693E-02  4.0000000000693E-02  4.0000000000693E-02  4.0000000000693E-02  4.0000000000693E-02  4.0000000000693E-02  4.0000000000693E-02  4.0000000000693E-02  4.0000000000693E-02  4.0000000000287E-02 
 4.0000000000693E-02  4.0000000000693E-02  4.0000000000693E-02  4.0000000000693E-02  4.0000000000693E-02  4.0000000000693E-02  4.0000000000693E-02  4.0000000000693E-02  4.0000000000693E-02  4.0000000000287E-02 
 3.5029481526100E-02  3.5029473703766E-02  3.5029450236750E-02  3.5029411124995E-02  3.5029356368401E-02  3.5029285966825E-02  3.5029199920083E-02  3.5029098227947E-02  3.5028980890148E-02  3.5028847906372E-02 
-2.5574711934164E-07 -2.5810326563517E-07 -2.6018222827260E-07 -2.6198400624078E-07 -2.6350859777234E-07 -2.6475600034569E-07 -2.6572621068503E-07 -2.6641922476028E-07 -2.6683503778715E-07 -2.6697364422706E-07 
-3.5029737273219E-02 -3.5029731807032E-02 -3.5029710418978E-02 -3.5029673109001E-02 -3.5029619876998E-02 -3.5029550722825E-02 -3.5029465646294E-02 -3.5029364647172E-02 -3.5029247725186E-02 -3.5029114880016E-02 
-4.0906712752399E-02 -4.0906712752399E-02 -4.0906712752399E-02 -4.0906712752399E-02 -4.0906712752397E-02 -4.0906712752397E-02 -4.0906712752397E-02 -4.0906712752397E-02 -4.0906712752397E-02 -4.0906712752658E-02 
 5.8769754791803E-03  5.8769809453678E-03  5.8770023334210E-03  5.8770396433983E-03  5.8770928753985E-03  5.8771620295716E-03  5.8772471061032E-03  5.8773481052248E-03  5.8774650272112E-03  5.8775978726415E-03 
 8.3014575505249E-01  1.6602930610731E+00  1.6602991296885E+00  1.6603097159683E+00  1.6603248199430E+00  1.6603444416543E+00  1.6603685811581E+00  1.6603972385226E+00  1.6604304138289E+00  8.3023405360997E-01 