TITLE = "Solution on Domain BulkDomain1D_2"
VARIABLES = "x [m]"  
"Vel_axial" 	"MF_sp(ECDMC)" 	"MF_sp(Li+)" 	"MF_sp(PF6-)" 	"Volt(Electroly)" 	"Volt(CathodeVo)" 	
"Potential Drop Electrode-Electrolyte [V]" 	"Surf_0 Equilibrium Potential Drop Electrode-Electrolyte [V]" 	"Overpotential_0 [V]" 	"Current Source [A/m^2]" 	"Li+ flux [kmol/m^2/s]" 	"Electrolyte Current [A/m^2]" 	"Electrode Current [A/m^2]" 	
"CV Capacity discharged [A-s/m^2]" 	"Depth of discharge in CV [A-s/m^2]" 	"CV Capacity remaining [A-s/m^2]" 	"Initial CV capacity [A-s/m^2]" 	"Porosity []" 	"Surface Area [m2/m2] (area per area)" 	"Specific current (per particle area) [A/m^2]" 	"Control volume thickness [m]" 	
"MoleDens LiCoO2 [kmol/m^3]" 	"MoleDens CoO2 [kmol/m^3]" 	"qHeat_accum [J/m3]" 	"qHeat_step [W/m3]" 	"Joule_Lyte [W/m3]" 	"Joule_Solid [W/m3]" 	"electrodHeat [W/m3]" 	"OverpotHeat [W/m3]" 	"deltaSHeat [W/m3]" 	

ZONE T = "CATH, 0.0000E+00", I = 10, SOLUTIONTIME = 0.000000E+00
ZONETYPE = ORDERED
DATAPACKING = BLOCK
STRANDID = 3
 1.2700000000000E-03  1.3377333333333E-03  1.4054666666667E-03  1.4732000000000E-03  1.5409333333333E-03  1.6086666666667E-03  1.6764000000000E-03  1.7441333333333E-03  1.8118666666667E-03  1.8796000000000E-03 
 0.0000000000000E+00  0.0000000000000E+00  0.0000000000000E+00  0.0000000000000E+00  0.0000000000000E+00  0.0000000000000E+00  0.0000000000000E+00  0.0000000000000E+00  0.0000000000000E+00  0.0000000000000E+00 
 9.2000000000000E-01  9.2000000000000E-01  9.2000000000000E-01  9.2000000000000E-01  9.2000000000000E-01  9.2000000000000E-01  9.2000000000000E-01  9.2000000000000E-01  9.2000000000000E-01  9.2000000000000E-01 
 4.0000000000000E-02  4.0000000000000E-02  4.0000000000000E-02  4.0000000000000E-02  4.0000000000000E-02  4.0000000000000E-02  4.0000000000000E-02  4.0000000000000E-02  4.0000000000000E-02  4.0000000000000E-02 
 4.0000000000000E-02  4.0000000000000E-02  4.0000000000000E-02  4.0000000000000E-02  4.0000000000000E-02  4.0000000000000E-02  4.0000000000000E-02  4.0000000000000E-02  4.0000000000000E-02  4.0000000000000E-02 
-7.0000000000000E-02 -7.0000000000000E-02 -7.0000000000000E-02 -7.0000000000000E-02 -7.0000000000000E-02 -7.0000000000000E-02 -7.0000000000000E-02 -7.0000000000000E-02 -7.0000000000000E-02 -7.0000000000000E-02 
 3.8000000000000E+00  3.8000000000000E+00  3.8000000000000E+00  3.8000000000000E+00  3.8000000000000E+00  3.8000000000000E+00  3.8000000000000E+00  3.8000000000000E+00  3.8000000000000E+00  3.8000000000000E+00 
 3.8700000000000E+00  3.8700000000000E+00  3.8700000000000E+00  3.8700000000000E+00  3.8700000000000E+00  3.8700000000000E+00  3.8700000000000E+00  3.8700000000000E+00  3.8700000000000E+00  3.8700000000000E+00 
 3.9714142713289E+00  3.9714142713289E+00  3.9714142713289E+00  3.9714142713289E+00  3.9714142713289E+00  3.9714142713289E+00  3.9714142713289E+00  3.9714142713289E+00  3.9714142713289E+00  3.9714142713289E+00 
-1.0141427132889E-01 -1.0141427132889E-01 -1.0141427132889E-01 -1.0141427132889E-01 -1.0141427132889E-01 -1.0141427132889E-01 -1.0141427132889E-01 -1.0141427132889E-01 -1.0141427132889E-01 -1.0141427132889E-01 
-2.3826357195711E-01 -4.7652714391422E-01 -4.7652714391423E-01 -4.7652714391422E-01 -4.7652714391423E-01 -4.7652714391423E-01 -4.7652714391422E-01 -4.7652714391423E-01 -4.7652714391422E-01 -2.3826357195711E-01 
-0.0000000000000E+00 -0.0000000000000E+00 -0.0000000000000E+00 -0.0000000000000E+00 -0.0000000000000E+00 -0.0000000000000E+00 -0.0000000000000E+00 -0.0000000000000E+00 -0.0000000000000E+00 -0.0000000000000E+00 
 2.3826357195711E-01  0.0000000000000E+00  0.0000000000000E+00  0.0000000000000E+00  0.0000000000000E+00  0.0000000000000E+00  0.0000000000000E+00  0.0000000000000E+00  0.0000000000000E+00  0.0000000000000E+00 
 0.0000000000000E+00 -0.0000000000000E+00 -0.0000000000000E+00 -0.0000000000000E+00 -0.0000000000000E+00 -0.0000000000000E+00 -0.0000000000000E+00 -0.0000000000000E+00 -0.0000000000000E+00  2.3826357195711E-01 
-0.0000000000000E+00 -0.0000000000000E+00 -0.0000000000000E+00 -0.0000000000000E+00 -0.0000000000000E+00 -0.0000000000000E+00 -0.0000000000000E+00 -0.0000000000000E+00 -0.0000000000000E+00 -0.0000000000000E+00 
 7.2440786946225E+03  1.4488157389245E+04  1.4488157389245E+04  1.4488157389245E+04  1.4488157389245E+04  1.4488157389245E+04  1.4488157389245E+04  1.4488157389245E+04  1.4488157389245E+04  7.2440786946225E+03 
 4.9259735123433E+04  9.8519470246865E+04  9.8519470246866E+04  9.8519470246865E+04  9.8519470246866E+04  9.8519470246866E+04  9.8519470246865E+04  9.8519470246866E+04  9.8519470246865E+04  4.9259735123433E+04 
 5.6503813818055E+04  1.1300762763611E+05  1.1300762763611E+05  1.1300762763611E+05  1.1300762763611E+05  1.1300762763611E+05  1.1300762763611E+05  1.1300762763611E+05  1.1300762763611E+05  5.6503813818055E+04 
 3.5000000000000E-01  3.5000000000000E-01  3.5000000000000E-01  3.5000000000000E-01  3.5000000000000E-01  3.5000000000000E-01  3.5000000000000E-01  3.5000000000000E-01  3.5000000000000E-01  3.5000000000000E-01 
 6.6040000000000E+00  1.3208000000000E+01  1.3208000000000E+01  1.3208000000000E+01  1.3208000000000E+01  1.3208000000000E+01  1.3208000000000E+01  1.3208000000000E+01  1.3208000000000E+01  6.6040000000000E+00 
-3.6078675341780E-02 -3.6078675341780E-02 -3.6078675341780E-02 -3.6078675341780E-02 -3.6078675341780E-02 -3.6078675341780E-02 -3.6078675341780E-02 -3.6078675341780E-02 -3.6078675341780E-02 -3.6078675341780E-02 
 3.3866666666667E-05  6.7733333333333E-05  6.7733333333334E-05  6.7733333333333E-05  6.7733333333334E-05  6.7733333333334E-05  6.7733333333333E-05  6.7733333333334E-05  6.7733333333333E-05  3.3866666666667E-05 
 2.6603001364256E+01  2.6603001364256E+01  2.6603001364256E+01  2.6603001364256E+01  2.6603001364256E+01  2.6603001364256E+01  2.6603001364256E+01  2.6603001364256E+01  2.6603001364256E+01  2.6603001364256E+01 
 1.7735334242838E+01  1.7735334242838E+01  1.7735334242838E+01  1.7735334242838E+01  1.7735334242838E+01  1.7735334242838E+01  1.7735334242838E+01  1.7735334242838E+01  1.7735334242838E+01  1.7735334242838E+01 
 0.0000000000000E+00  0.0000000000000E+00  0.0000000000000E+00  0.0000000000000E+00  0.0000000000000E+00  0.0000000000000E+00  0.0000000000000E+00  0.0000000000000E+00  0.0000000000000E+00  0.0000000000000E+00 
 0.0000000000000E+00  0.0000000000000E+00  0.0000000000000E+00  0.0000000000000E+00  0.0000000000000E+00  0.0000000000000E+00  0.0000000000000E+00  0.0000000000000E+00  0.0000000000000E+00  0.0000000000000E+00 
 0.0000000000000E+00  0.0000000000000E+00  0.0000000000000E+00  0.0000000000000E+00  0.0000000000000E+00  0.0000000000000E+00  0.0000000000000E+00  0.0000000000000E+00  0.0000000000000E+00  0.0000000000000E+00 
 0.0000000000000E+00  0.0000000000000E+00  0.0000000000000E+00  0.0000000000000E+00  0.0000000000000E+00  0.0000000000000E+00  0.0000000000000E+00  0.0000000000000E+00  0.0000000000000E+00  0.0000000000000E+00 
 0.0000000000000E+00  0.0000000000000E+00  0.0000000000000E+00  0.0000000000000E+00  0.0000000000000E+00  0.0000000000000E+00  0.0000000000000E+00  0.0000000000000E+00  0.0000000000000E+00  0.0000000000000E+00 
 0.0000000000000E+00  0.0000000000000E+00  0.0000000000000E+00  0.0000000000000E+00  0.0000000000000E+00  0.0000000000000E+00  0.0000000000000E+00  0.0000000000000E+00  0.0000000000000E+00  0.0000000000000E+00 
 0.0000000000000E+00  0.0000000000000E+00  0.0000000000000E+00  0.0000000000000E+00  0.0000000000000E+00  0.0000000000000E+00  0.0000000000000E+00  0.0000000000000E+00  0.0000000000000E+00  0.0000000000000E+00 
ZONE T = "CATH, 1.0000E-08", I = 10, SOLUTIONTIME = 1.000000E-08
ZONETYPE = ORDERED
DATAPACKING = BLOCK
STRANDID = 3
 1.2700000000000E-03  1.3377333333333E-03  1.4054666666667E-03  1.4732000000000E-03  1.5409333333333E-03  1.6086666666667E-03  1.6764000000000E-03  1.7441333333333E-03  1.8118666666667E-03  1.8796000000000E-03 
 9.8003663459063E-09  8.6476837438726E-09  7.4949308016074E-09  6.3420589775378E-09  5.1890197100918E-09  4.0357644092567E-09  2.8822444497770E-09  1.7284111621841E-09  5.7421582189541E-10 -3.2688697518991E-12 
 9.2000000000016E-01  9.2000000000045E-01  9.2000000000045E-01  9.2000000000045E-01  9.2000000000045E-01  9.2000000000045E-01  9.2000000000045E-01  9.2000000000045E-01  9.2000000000045E-01  9.2000000000045E-01 
 3.9999999999921E-02  3.9999999999776E-02  3.9999999999776E-02  3.9999999999776E-02  3.9999999999776E-02  3.9999999999776E-02  3.9999999999776E-02  3.9999999999776E-02  3.9999999999776E-02  3.9999999999776E-02 
 3.9999999999921E-02  3.9999999999776E-02  3.9999999999776E-02  3.9999999999776E-02  3.9999999999776E-02  3.9999999999776E-02  3.9999999999776E-02  3.9999999999776E-02  3.9999999999776E-02  3.9999999999776E-02 
 3.5027877652799E-02  3.5027774694674E-02  3.5027683842341E-02  3.5027605096582E-02  3.5027538458431E-02  3.5027483929650E-02  3.5027441512777E-02  3.5027411210321E-02  3.5027393025737E-02  3.5027386962852E-02 
 3.8418321840302E+00  3.8418311116382E+00  3.8418278944214E+00  3.8418225322492E+00  3.8418150249000E+00  3.8418053720622E+00  3.8417935733338E+00  3.8417796282222E+00  3.8417635361440E+00  3.8417452964255E+00 
 3.8068043063774E+00  3.8068033369435E+00  3.8068002105791E+00  3.8067949271526E+00  3.8067874864415E+00  3.8067778881326E+00  3.8067661318210E+00  3.8067522170118E+00  3.8067361431183E+00  3.8067179094627E+00 
 3.9714142713288E+00  3.9714142713287E+00  3.9714142713287E+00  3.9714142713287E+00  3.9714142713287E+00  3.9714142713287E+00  3.9714142713287E+00  3.9714142713287E+00  3.9714142713287E+00  3.9714142713287E+00 
-1.6460996495136E-01 -1.6461093438517E-01 -1.6461406074960E-01 -1.6461934417612E-01 -1.6462678488717E-01 -1.6463638319614E-01 -1.6464813950767E-01 -1.6466205431687E-01 -1.6467812821043E-01 -1.6469636186601E-01 
-8.2970200398904E-01 -1.6594354181306E+00 -1.6595367179556E+00 -1.6597079244316E+00 -1.6599490662599E+00 -1.6602601838769E+00 -1.6606413294752E+00 -1.6610925669969E+00 -1.6616139721869E+00 -8.3110281630002E-01 
 7.3137172905070E-08  6.4537662869630E-08  5.5937663245074E-08  4.7336930507137E-08  3.8734944480986E-08  3.0131155931192E-08  2.1525586141859E-08  1.2917561133473E-08  4.3068173602312E-09  4.3068173602312E-09 
 1.4943018743789E+01  1.3283596485628E+01  1.1624102373567E+01  9.9644839234635E+00  8.3046738147336E+00  6.6445688647974E+00  4.9841181341548E+00  3.3232586476606E+00  1.6618999479792E+00  0.0000000000000E+00 
 0.0000000000000E+00  1.6594160133085E+00  3.3188983588297E+00  4.9785169441518E+00  6.6383417301188E+00  8.2984426193367E+00  9.9588896226418E+00  1.1619752808249E+01  1.3281102284575E+01  1.4943010176342E+01 
 8.2970200398904E-09  1.6594354181306E-08  1.6595367179556E-08  1.6597079244316E-08  1.6599490662599E-08  1.6602601838769E-08  1.6606413294752E-08  1.6610925669969E-08  1.6616139721869E-08  8.3110281630002E-09 
 7.2440786946308E+03  1.4488157389261E+04  1.4488157389262E+04  1.4488157389261E+04  1.4488157389262E+04  1.4488157389262E+04  1.4488157389261E+04  1.4488157389262E+04  1.4488157389262E+04  7.2440786946308E+03 
 4.9259735123425E+04  9.8519470246849E+04  9.8519470246849E+04  9.8519470246849E+04  9.8519470246849E+04  9.8519470246849E+04  9.8519470246849E+04  9.8519470246849E+04  9.8519470246848E+04  4.9259735123425E+04 
 5.6503813818055E+04  1.1300762763611E+05  1.1300762763611E+05  1.1300762763611E+05  1.1300762763611E+05  1.1300762763611E+05  1.1300762763611E+05  1.1300762763611E+05  1.1300762763611E+05  5.6503813818055E+04 
 3.5000000000000E-01  3.5000000000000E-01  3.5000000000000E-01  3.5000000000000E-01  3.5000000000000E-01  3.5000000000000E-01  3.5000000000000E-01  3.5000000000000E-01  3.5000000000000E-01  3.5000000000000E-01 
 6.6040000000000E+00  1.3208000000000E+01  1.3208000000000E+01  1.3208000000000E+01  1.3208000000000E+01  1.3208000000000E+01  1.3208000000000E+01  1.3208000000000E+01  1.3208000000000E+01  6.6040000000000E+00 
-1.2563628164583E-01 -1.2563865976156E-01 -1.2564632934249E-01 -1.2565929167411E-01 -1.2567754892943E-01 -1.2570110416996E-01 -1.2572996134731E-01 -1.2576412530261E-01 -1.2580360177066E-01 -1.2584839738038E-01 
 3.3866666666667E-05  6.7733333333333E-05  6.7733333333334E-05  6.7733333333333E-05  6.7733333333334E-05  6.7733333333334E-05  6.7733333333333E-05  6.7733333333334E-05  6.7733333333333E-05  3.3866666666667E-05 
 2.6603001364259E+01  2.6603001364259E+01  2.6603001364259E+01  2.6603001364259E+01  2.6603001364259E+01  2.6603001364259E+01  2.6603001364259E+01  2.6603001364259E+01  2.6603001364259E+01  2.6603001364259E+01 
 1.7735334242835E+01  1.7735334242835E+01  1.7735334242835E+01  1.7735334242835E+01  1.7735334242835E+01  1.7735334242835E+01  1.7735334242835E+01  1.7735334242835E+01  1.7735334242835E+01  1.7735334242835E+01 
 3.4589238890089E-10  8.4761700224319E-10  2.3795819649227E-09  4.9687524678195E-09  8.6155647794612E-09  1.3320632761977E-08  1.9084749833239E-08  2.5908888115088E-08  3.3794198372137E-08  3.8002301594166E-08 
 3.4589238890089E-02  8.4761700224319E-02  2.3795819649227E-01  4.9687524678195E-01  8.6155647794612E-01  1.3320632761977E+00  1.9084749833239E+00  2.5908888115088E+00  3.3794198372137E+00  3.8002301594166E+00 
 2.1452962138195E-02  1.9078821447145E-02  1.4627002667875E-02  1.0768132873368E-02  7.5022308954807E-03  4.8293551280386E-03  2.7497573454986E-03  1.2637754954139E-03  3.7180882731290E-04  7.4391722600291E-05 
 1.3136276751893E-02  6.5682878777174E-02  2.2333119382439E-01  4.8610711390858E-01  8.5405424705064E-01  1.3272339210697E+00  1.9057252259784E+00  2.5896250360134E+00  3.3790480283864E+00  3.8001557676940E+00 
 0.0000000000000E+00  0.0000000000000E+00  0.0000000000000E+00  0.0000000000000E+00  0.0000000000000E+00  0.0000000000000E+00  0.0000000000000E+00  0.0000000000000E+00  0.0000000000000E+00  0.0000000000000E+00 
 0.0000000000000E+00  0.0000000000000E+00  0.0000000000000E+00  0.0000000000000E+00  0.0000000000000E+00  0.0000000000000E+00  0.0000000000000E+00  0.0000000000000E+00  0.0000000000000E+00  0.0000000000000E+00 
 0.0000000000000E+00  0.0000000000000E+00  0.0000000000000E+00  0.0000000000000E+00  0.0000000000000E+00  0.0000000000000E+00  0.0000000000000E+00  0.0000000000000E+00  0.0000000000000E+00  0.0000000000000E+00 
ZONE T = "CATH, 2.0000E-08", I = 10, SOLUTIONTIME = 2.000000E-08
ZONETYPE = ORDERED
DATAPACKING = BLOCK
STRANDID = 3
 1.2700000000000E-03  1.3377333333333E-03  1.4054666666667E-03  1.4732000000000E-03  1.5409333333333E-03  1.6086666666667E-03  1.6764000000000E-03  1.7441333333333E-03  1.8118666666667E-03  1.8796000000000E-03 
 9.7986414446962E-09  8.6455849514443E-09  7.4924581138397E-09  6.3395755952206E-09  5.1865256235366E-09  4.0332596063841E-09  2.8793657073935E-09  1.7251584612413E-09  5.7167876546395E-10 -5.6297197807140E-12 
 9.2000000000032E-01  9.2000000000089E-01  9.2000000000089E-01  9.2000000000089E-01  9.2000000000089E-01  9.2000000000089E-01  9.2000000000089E-01  9.2000000000090E-01  9.2000000000090E-01  9.2000000000090E-01 
 3.9999999999842E-02  3.9999999999553E-02  3.9999999999553E-02  3.9999999999553E-02  3.9999999999553E-02  3.9999999999553E-02  3.9999999999552E-02  3.9999999999552E-02  3.9999999999552E-02  3.9999999999552E-02 
 3.9999999999842E-02  3.9999999999553E-02  3.9999999999553E-02  3.9999999999553E-02  3.9999999999553E-02  3.9999999999553E-02  3.9999999999552E-02  3.9999999999552E-02  3.9999999999552E-02  3.9999999999552E-02 
 3.5028626930722E-02  3.5028523971702E-02  3.5028433118522E-02  3.5028354371922E-02  3.5028287733151E-02  3.5028233203967E-02  3.5028190786641E-02  3.5028160483952E-02  3.5028142299194E-02  3.5028136236169E-02 
 3.8418325729744E+00  3.8418315005724E+00  3.8418282833259E+00  3.8418229211038E+00  3.8418154136850E+00  3.8418057607577E+00  3.8417939619198E+00  3.8417800166786E+00  3.8417639244510E+00  3.8417456845630E+00 
 3.8068039460437E+00  3.8068029766007E+00  3.8067998502073E+00  3.8067945667319E+00  3.8067871259518E+00  3.8067775275537E+00  3.8067657711331E+00  3.8067518561947E+00  3.8067357821518E+00  3.8067175483268E+00 
 3.9714142713287E+00  3.9714142713285E+00  3.9714142713285E+00  3.9714142713285E+00  3.9714142713285E+00  3.9714142713285E+00  3.9714142713285E+00  3.9714142713285E+00  3.9714142713285E+00  3.9714142713285E+00 
-1.6461032528505E-01 -1.6461129472783E-01 -1.6461442112119E-01 -1.6461970459664E-01 -1.6462714537670E-01 -1.6463674377482E-01 -1.6464850019539E-01 -1.6466241513384E-01 -1.6467848917669E-01 -1.6469672300168E-01 
-8.2970784145119E-01 -1.6594470935621E+00 -1.6595483950329E+00 -1.6597196042910E+00 -1.6599607500419E+00 -1.6602718727242E+00 -1.6606530245241E+00 -1.6611042693945E+00 -1.6616256830772E+00 -8.3110867656545E-01 
 7.3137874360891E-08  6.4538264234842E-08  5.5938261095887E-08  4.7337370714477E-08  3.8735230703382E-08  3.0131478395272E-08  2.1525750920130E-08  1.2917685020000E-08  4.3069171029778E-09  4.3069171029778E-09 
 1.4943147210950E+01  1.3283715822364E+01  1.1624218078252E+01  9.9645840784099E+00  8.3047439012642E+00  6.6446275900723E+00  4.9841651410094E+00  3.3232864941312E+00  1.6619215181556E+00  0.0000000000000E+00 
 0.0000000000000E+00  1.6594313881779E+00  3.3189291326198E+00  4.9785631323239E+00  6.6384033093089E+00  8.2985196206397E+00  9.9589820694215E+00  1.1619860716311E+01  1.3281225692571E+01  1.4943147210893E+01 
 1.6594098454402E-08  3.3188825116927E-08  3.3190851129885E-08  3.3194275287226E-08  3.3199098163019E-08  3.3205320566011E-08  3.3212943539993E-08  3.3221968363913E-08  3.3232396552641E-08  1.6622114928655E-08 
 7.2440786946391E+03  1.4488157389278E+04  1.4488157389278E+04  1.4488157389278E+04  1.4488157389278E+04  1.4488157389278E+04  1.4488157389278E+04  1.4488157389278E+04  1.4488157389278E+04  7.2440786946391E+03 
 4.9259735123416E+04  9.8519470246832E+04  9.8519470246833E+04  9.8519470246832E+04  9.8519470246833E+04  9.8519470246833E+04  9.8519470246832E+04  9.8519470246833E+04  9.8519470246832E+04  4.9259735123416E+04 
 5.6503813818055E+04  1.1300762763611E+05  1.1300762763611E+05  1.1300762763611E+05  1.1300762763611E+05  1.1300762763611E+05  1.1300762763611E+05  1.1300762763611E+05  1.1300762763611E+05  5.6503813818055E+04 
 3.5000000000000E-01  3.5000000000000E-01  3.5000000000000E-01  3.5000000000000E-01  3.5000000000000E-01  3.5000000000000E-01  3.5000000000000E-01  3.5000000000000E-01  3.5000000000000E-01  3.5000000000000E-01 
 6.6040000000000E+00  1.3208000000000E+01  1.3208000000000E+01  1.3208000000000E+01  1.3208000000000E+01  1.3208000000000E+01  1.3208000000000E+01  1.3208000000000E+01  1.3208000000000E+01  6.6040000000000E+00 
-1.2563716557407E-01 -1.2563954372820E-01 -1.2564721343374E-01 -1.2566017597600E-01 -1.2567843352831E-01 -1.2570198915235E-01 -1.2573084679922E-01 -1.2576501131091E-01 -1.2580448842196E-01 -1.2584928476158E-01 
 3.3866666666667E-05  6.7733333333333E-05  6.7733333333334E-05  6.7733333333333E-05  6.7733333333334E-05  6.7733333333334E-05  6.7733333333333E-05  6.7733333333334E-05  6.7733333333333E-05  3.3866666666667E-05 
 2.6603001364262E+01  2.6603001364262E+01  2.6603001364262E+01  2.6603001364262E+01  2.6603001364262E+01  2.6603001364262E+01  2.6603001364262E+01  2.6603001364262E+01  2.6603001364262E+01  2.6603001364262E+01 
 1.7735334242833E+01  1.7735334242833E+01  1.7735334242833E+01  1.7735334242833E+01  1.7735334242833E+01  1.7735334242833E+01  1.7735334242833E+01  1.7735334242833E+01  1.7735334242833E+01  1.7735334242833E+01 
 6.9179094524700E-10  1.6952495913174E-09  4.7592082543364E-09  9.9375973062740E-09  1.7231289290755E-08  2.6641512672394E-08  3.8169854017169E-08  5.1818257421900E-08  6.7589024805567E-08  7.6005309697130E-08 
 3.4589855634611E-02  8.4763258907419E-02  2.3796262894137E-01  4.9688448384545E-01  8.6157245112938E-01  1.3320879910417E+00  1.9085104183930E+00  2.5909369306812E+00  3.3794826433429E+00  3.8003008102964E+00 
 2.1453334946703E-02  1.9079163504446E-02  1.4627292443988E-02  1.0768350567677E-02  7.5023589288724E-03  4.8294385557621E-03  2.7498105341663E-03  1.2637961353209E-03  3.7181696628191E-04  7.4395166908490E-05 
 1.3136520687908E-02  6.5684095402974E-02  2.2333533649738E-01  4.8611613327777E-01  8.5407009220050E-01  1.3272585524859E+00  1.9057606078588E+00  2.5896731345459E+00  3.3791108263767E+00  3.8002264151295E+00 
 0.0000000000000E+00  0.0000000000000E+00  0.0000000000000E+00  0.0000000000000E+00  0.0000000000000E+00  0.0000000000000E+00  0.0000000000000E+00  0.0000000000000E+00  0.0000000000000E+00  0.0000000000000E+00 
 0.0000000000000E+00  0.0000000000000E+00  0.0000000000000E+00  0.0000000000000E+00  0.0000000000000E+00  0.0000000000000E+00  0.0000000000000E+00  0.0000000000000E+00  0.0000000000000E+00  0.0000000000000E+00 
 0.0000000000000E+00  0.0000000000000E+00  0.0000000000000E+00  0.0000000000000E+00  0.0000000000000E+00  0.0000000000000E+00  0.0000000000000E+00  0.0000000000000E+00  0.0000000000000E+00  0.0000000000000E+00 
ZONE T = "CATH, 3.0000E-08", I = 10, SOLUTIONTIME = 3.000000E-08
ZONETYPE = ORDERED
DATAPACKING = BLOCK
STRANDID = 3
 1.2700000000000E-03  1.3377333333333E-03  1.4054666666667E-03  1.4732000000000E-03  1.5409333333333E-03  1.6086666666667E-03  1.6764000000000E-03  1.7441333333333E-03  1.8118666666667E-03  1.8796000000000E-03 
 9.7964621982732E-09  8.6444953282113E-09  7.4924581137966E-09  6.3403020106397E-09  5.1879784544179E-09  4.0354388527276E-09  2.8829977846548E-09  1.7298801616925E-09  5.7640046592186E-10 -5.4481159169255E-13 
 9.2000000000047E-01  9.2000000000134E-01  9.2000000000134E-01  9.2000000000134E-01  9.2000000000134E-01  9.2000000000134E-01  9.2000000000134E-01  9.2000000000134E-01  9.2000000000134E-01  9.2000000000134E-01 
 3.9999999999763E-02  3.9999999999329E-02  3.9999999999329E-02  3.9999999999329E-02  3.9999999999329E-02  3.9999999999329E-02  3.9999999999329E-02  3.9999999999329E-02  3.9999999999328E-02  3.9999999999328E-02 
 3.9999999999763E-02  3.9999999999329E-02  3.9999999999329E-02  3.9999999999329E-02  3.9999999999329E-02  3.9999999999329E-02  3.9999999999329E-02  3.9999999999329E-02  3.9999999999328E-02  3.9999999999328E-02 
 3.5028626930529E-02  3.5028523971509E-02  3.5028433118329E-02  3.5028354371729E-02  3.5028287732958E-02  3.5028233203774E-02  3.5028190786448E-02  3.5028160483759E-02  3.5028142299001E-02  3.5028136235976E-02 
 3.8418325729741E+00  3.8418315005722E+00  3.8418282833256E+00  3.8418229211036E+00  3.8418154136847E+00  3.8418057607574E+00  3.8417939619195E+00  3.8417800166784E+00  3.8417639244508E+00  3.8417456845628E+00 
 3.8068039460436E+00  3.8068029766007E+00  3.8067998502073E+00  3.8067945667318E+00  3.8067871259518E+00  3.8067775275537E+00  3.8067657711331E+00  3.8067518561946E+00  3.8067357821518E+00  3.8067175483268E+00 
 3.9714142713286E+00  3.9714142713283E+00  3.9714142713283E+00  3.9714142713283E+00  3.9714142713283E+00  3.9714142713283E+00  3.9714142713283E+00  3.9714142713283E+00  3.9714142713283E+00  3.9714142713283E+00 
-1.6461032528500E-01 -1.6461129472768E-01 -1.6461442112105E-01 -1.6461970459650E-01 -1.6462714537656E-01 -1.6463674377468E-01 -1.6464850019525E-01 -1.6466241513370E-01 -1.6467848917655E-01 -1.6469672300153E-01 
-8.2970784144944E-01 -1.6594470935525E+00 -1.6595483950233E+00 -1.6597196042815E+00 -1.6599607500324E+00 -1.6602718727146E+00 -1.6606530245145E+00 -1.6611042693849E+00 -1.6616256830677E+00 -8.3110867656065E-01 
 7.3137940334859E-08  6.4538264243220E-08  5.5938261106339E-08  4.7337370728776E-08  3.8735230720642E-08  3.0131478419545E-08  2.1525750948251E-08  1.2917685056011E-08  4.3069171370301E-09  4.3069171370301E-09 
 1.4943147210895E+01  1.3283715822302E+01  1.1624218078187E+01  9.9645840783542E+00  8.3047439012177E+00  6.6446275900352E+00  4.9841651409815E+00  3.3232864945882E+00  1.6619215181463E+00  0.0000000000000E+00 
 0.0000000000000E+00  1.6594313881779E+00  3.3189291324480E+00  4.9785631321521E+00  6.6384033093089E+00  8.2985196206397E+00  9.9589820694215E+00  1.1619860716311E+01  1.3281225692400E+01  1.4943147210544E+01 
 2.4891176868897E-08  4.9783296052452E-08  4.9786335080118E-08  4.9791471330041E-08  4.9798705663343E-08  4.9808039293157E-08  4.9819473785139E-08  4.9833011057762E-08  4.9848653383318E-08  2.4933201694261E-08 
 7.2440786946474E+03  1.4488157389295E+04  1.4488157389295E+04  1.4488157389295E+04  1.4488157389295E+04  1.4488157389295E+04  1.4488157389295E+04  1.4488157389295E+04  1.4488157389295E+04  7.2440786946474E+03 
 4.9259735123408E+04  9.8519470246815E+04  9.8519470246816E+04  9.8519470246815E+04  9.8519470246816E+04  9.8519470246816E+04  9.8519470246815E+04  9.8519470246816E+04  9.8519470246815E+04  4.9259735123408E+04 
 5.6503813818055E+04  1.1300762763611E+05  1.1300762763611E+05  1.1300762763611E+05  1.1300762763611E+05  1.1300762763611E+05  1.1300762763611E+05  1.1300762763611E+05  1.1300762763611E+05  5.6503813818055E+04 
 3.5000000000000E-01  3.5000000000000E-01  3.5000000000000E-01  3.5000000000000E-01  3.5000000000000E-01  3.5000000000000E-01  3.5000000000000E-01  3.5000000000000E-01  3.5000000000000E-01  3.5000000000000E-01 
 6.6040000000000E+00  1.3208000000000E+01  1.3208000000000E+01  1.3208000000000E+01  1.3208000000000E+01  1.3208000000000E+01  1.3208000000000E+01  1.3208000000000E+01  1.3208000000000E+01  6.6040000000000E+00 
-1.2563716557381E-01 -1.2563954372748E-01 -1.2564721343302E-01 -1.2566017597528E-01 -1.2567843352759E-01 -1.2570198915162E-01 -1.2573084679850E-01 -1.2576501131018E-01 -1.2580448842124E-01 -1.2584928476085E-01 
 3.3866666666667E-05  6.7733333333333E-05  6.7733333333334E-05  6.7733333333333E-05  6.7733333333334E-05  6.7733333333334E-05  6.7733333333333E-05  6.7733333333334E-05  6.7733333333333E-05  3.3866666666667E-05 
 2.6603001364264E+01  2.6603001364264E+01  2.6603001364264E+01  2.6603001364264E+01  2.6603001364264E+01  2.6603001364264E+01  2.6603001364264E+01  2.6603001364264E+01  2.6603001364264E+01  2.6603001364264E+01 
 1.7735334242830E+01  1.7735334242830E+01  1.7735334242830E+01  1.7735334242830E+01  1.7735334242830E+01  1.7735334242830E+01  1.7735334242830E+01  1.7735334242830E+01  1.7735334242830E+01  1.7735334242830E+01 
 1.0376895015923E-09  2.5428821803907E-09  7.1388345434773E-09  1.4906442144456E-08  2.5847013802048E-08  3.9962392582811E-08  5.7254958201099E-08  7.7727626728714E-08  1.0138385123807E-07  1.1400831779824E-07 
 3.4589855634530E-02  8.4763258907332E-02  2.3796262891409E-01  4.9688448381819E-01  8.6157245112933E-01  1.3320879910417E+00  1.9085104183930E+00  2.5909369306814E+00  3.3794826432506E+00  3.8003008101112E+00 
 2.1453334946622E-02  1.9079163504359E-02  1.4627292443906E-02  1.0768350567617E-02  7.5023589288304E-03  4.8294385557351E-03  2.7498105341510E-03  1.2637961355691E-03  3.7181696645005E-04  7.4395166737789E-05 
 1.3136520687908E-02  6.5684095402974E-02  2.2333533647018E-01  4.8611613325057E-01  8.5407009220050E-01  1.3272585524859E+00  1.9057606078588E+00  2.5896731345459E+00  3.3791108262841E+00  3.8002264149445E+00 
 0.0000000000000E+00  0.0000000000000E+00  0.0000000000000E+00  0.0000000000000E+00  0.0000000000000E+00  0.0000000000000E+00  0.0000000000000E+00  0.0000000000000E+00  0.0000000000000E+00  0.0000000000000E+00 
 0.0000000000000E+00  0.0000000000000E+00  0.0000000000000E+00  0.0000000000000E+00  0.0000000000000E+00  0.0000000000000E+00  0.0000000000000E+00  0.0000000000000E+00  0.0000000000000E+00  0.0000000000000E+00 
 0.0000000000000E+00  0.0000000000000E+00  0.0000000000000E+00  0.0000000000000E+00  0.0000000000000E+00  0.0000000000000E+00  0.0000000000000E+00  0.0000000000000E+00  0.0000000000000E+00  0.0000000000000E+00 
ZONE T = "CATH, 4.0000E-08", I = 10, SOLUTIONTIME = 4.000000E-08
ZONETYPE = ORDERED
DATAPACKING = BLOCK
STRANDID = 3
 1.2700000000000E-03  1.3377333333333E-03  1.4054666666667E-03  1.4732000000000E-03  1.5409333333333E-03  1.6086666666667E-03  1.6764000000000E-03  1.7441333333333E-03  1.8118666666667E-03  1.8796000000000E-03 
 9.8022735218617E-09  8.6495802363508E-09  7.4971798142149E-09  6.3446605033368E-09  5.1919737393938E-09  4.0379813067990E-09  2.8844506155494E-09  1.7309697848660E-09  5.7712688137411E-10 -2.5312615317046E-23 
 9.2000000000063E-01  9.2000000000179E-01  9.2000000000179E-01  9.2000000000179E-01  9.2000000000179E-01  9.2000000000179E-01  9.2000000000179E-01  9.2000000000179E-01  9.2000000000179E-01  9.2000000000179E-01 
 3.9999999999684E-02  3.9999999999106E-02  3.9999999999106E-02  3.9999999999105E-02  3.9999999999105E-02  3.9999999999105E-02  3.9999999999105E-02  3.9999999999105E-02  3.9999999999104E-02  3.9999999999104E-02 
 3.9999999999684E-02  3.9999999999106E-02  3.9999999999106E-02  3.9999999999105E-02  3.9999999999105E-02  3.9999999999105E-02  3.9999999999105E-02  3.9999999999105E-02  3.9999999999104E-02  3.9999999999104E-02 
 3.5028626930340E-02  3.5028523971320E-02  3.5028433118140E-02  3.5028354371540E-02  3.5028287732769E-02  3.5028233203585E-02  3.5028190786259E-02  3.5028160483571E-02  3.5028142298812E-02  3.5028136235787E-02 
 3.8418325729739E+00  3.8418315005719E+00  3.8418282833254E+00  3.8418229211033E+00  3.8418154136845E+00  3.8418057607572E+00  3.8417939619193E+00  3.8417800166782E+00  3.8417639244506E+00  3.8417456845626E+00 
 3.8068039460436E+00  3.8068029766006E+00  3.8067998502072E+00  3.8067945667318E+00  3.8067871259517E+00  3.8067775275536E+00  3.8067657711331E+00  3.8067518561946E+00  3.8067357821518E+00  3.8067175483268E+00 
 3.9714142713285E+00  3.9714142713282E+00  3.9714142713282E+00  3.9714142713282E+00  3.9714142713282E+00  3.9714142713282E+00  3.9714142713282E+00  3.9714142713282E+00  3.9714142713282E+00  3.9714142713282E+00 
-1.6461032528495E-01 -1.6461129472754E-01 -1.6461442112091E-01 -1.6461970459636E-01 -1.6462714537642E-01 -1.6463674377454E-01 -1.6464850019511E-01 -1.6466241513355E-01 -1.6467848917640E-01 -1.6469672300139E-01 
-8.2970784144769E-01 -1.6594470935431E+00 -1.6595483950139E+00 -1.6597196042720E+00 -1.6599607500229E+00 -1.6602718727051E+00 -1.6606530245051E+00 -1.6611042693754E+00 -1.6616256830581E+00 -8.3110867655589E-01 