TITLE = "Solution on Domain BulkDomain1D_0"
VARIABLES = "x [m]"  
"Vel_axial" 
"MF_sp(ECDMC)" 
"MF_sp(Li+)" 
"MF_sp(PF6-)" 
"Volt(Electroly)" 
"Volt(AnodeVolt)" 
"Potential Drop Electrode-Electrolyte [V]" 
"Surf_0 Equilibrium Potential Drop Electrode-Electrolyte [V]" 
"Overpotential_0 [V]" 
"Current Source [A/m^2]" 
"Li+ flux [kmol/m^2/s]" 
"Electrolyte Current [A/m^2]" 
"Electrode Current [A/m^2]" 
"CV Capacity discharged [A-s/m^2]" 
"Depth of discharge in CV [A-s/m^2]" 
"CV Capacity remaining [A-s/m^2]" 
"Initial CV capacity [A-s/m^2]" 
"Porosity []" 
"Surface Area [m2/m2] (area per area)" 
"Specific current (per particle area) [A/m^2]" 
"Control volume thickness [m]" 
"MoleDens Li_C6-bulk [kmol/m^3]" 
"MoleDens V_C6-bulk [kmol/m^3]" 
"qHeat_accum [J/m3]" 
"qHeat_step [W/m3]" 
"Joule_Lyte [W/m3]" 
"Joule_Solid [W/m3]" 
"electrodHeat [W/m3]" 
"OverpotHeat [W/m3]" 
"deltaSHeat [W/m3]" 

ZONE T = "ANOD, 0.0000E+00", I = 10, SOLUTIONTIME = 0.000000E+00
ZONETYPE = ORDERED
DATAPACKING = BLOCK
STRANDID = 1
 0.0000000000000E+00  8.7488888888889E-05  1.7497777777778E-04  2.6246666666667E-04  3.4995555555556E-04  4.3744444444444E-04  5.2493333333333E-04  6.1242222222222E-04  6.9991111111111E-04  7.8740000000000E-04 
 0.0000000000000E+00  0.0000000000000E+00  0.0000000000000E+00  0.0000000000000E+00  0.0000000000000E+00  0.0000000000000E+00  0.0000000000000E+00  0.0000000000000E+00  0.0000000000000E+00  0.0000000000000E+00 
 9.2000000000000E-01  9.2000000000000E-01  9.2000000000000E-01  9.2000000000000E-01  9.2000000000000E-01  9.2000000000000E-01  9.2000000000000E-01  9.2000000000000E-01  9.2000000000000E-01  9.2000000000000E-01 
 4.0000000000000E-02  4.0000000000000E-02  4.0000000000000E-02  4.0000000000000E-02  4.0000000000000E-02  4.0000000000000E-02  4.0000000000000E-02  4.0000000000000E-02  4.0000000000000E-02  4.0000000000000E-02 
 4.0000000000000E-02  4.0000000000000E-02  4.0000000000000E-02  4.0000000000000E-02  4.0000000000000E-02  4.0000000000000E-02  4.0000000000000E-02  4.0000000000000E-02  4.0000000000000E-02  4.0000000000000E-02 
-7.0000000000000E-02 -7.0000000000000E-02 -7.0000000000000E-02 -7.0000000000000E-02 -7.0000000000000E-02 -7.0000000000000E-02 -7.0000000000000E-02 -7.0000000000000E-02 -7.0000000000000E-02 -7.0000000000000E-02 
 0.0000000000000E+00  0.0000000000000E+00  0.0000000000000E+00  0.0000000000000E+00  0.0000000000000E+00  0.0000000000000E+00  0.0000000000000E+00  0.0000000000000E+00  0.0000000000000E+00  0.0000000000000E+00 
 7.0000000000000E-02  7.0000000000000E-02  7.0000000000000E-02  7.0000000000000E-02  7.0000000000000E-02  7.0000000000000E-02  7.0000000000000E-02  7.0000000000000E-02  7.0000000000000E-02  7.0000000000000E-02 
-4.0906712753392E-02 -4.0906712753392E-02 -4.0906712753392E-02 -4.0906712753392E-02 -4.0906712753392E-02 -4.0906712753392E-02 -4.0906712753392E-02 -4.0906712753392E-02 -4.0906712753392E-02 -4.0906712753392E-02 
 1.1090671275339E-01  1.1090671275339E-01  1.1090671275339E-01  1.1090671275339E-01  1.1090671275339E-01  1.1090671275339E-01  1.1090671275339E-01  1.1090671275339E-01  1.1090671275339E-01  1.1090671275339E-01 
 3.0930240924008E+01  6.1860481848016E+01  6.1860481848016E+01  6.1860481848016E+01  6.1860481848016E+01  6.1860481848016E+01  6.1860481848016E+01  6.1860481848016E+01  6.1860481848016E+01  3.0930240924008E+01 
-0.0000000000000E+00 -0.0000000000000E+00 -0.0000000000000E+00 -0.0000000000000E+00 -0.0000000000000E+00 -0.0000000000000E+00 -0.0000000000000E+00 -0.0000000000000E+00 -0.0000000000000E+00 -0.0000000000000E+00 
 0.0000000000000E+00  0.0000000000000E+00  0.0000000000000E+00  0.0000000000000E+00  0.0000000000000E+00  0.0000000000000E+00  0.0000000000000E+00  0.0000000000000E+00  0.0000000000000E+00  3.0930240924008E+01 
 3.0930240924008E+01 -0.0000000000000E+00 -0.0000000000000E+00 -0.0000000000000E+00 -0.0000000000000E+00 -0.0000000000000E+00 -0.0000000000000E+00 -0.0000000000000E+00 -0.0000000000000E+00  0.0000000000000E+00 
 0.0000000000000E+00  0.0000000000000E+00  0.0000000000000E+00  0.0000000000000E+00  0.0000000000000E+00  0.0000000000000E+00  0.0000000000000E+00  0.0000000000000E+00  0.0000000000000E+00  0.0000000000000E+00 
 9.1448444543281E+04  1.8289688908656E+05  1.8289688908656E+05  1.8289688908656E+05  1.8289688908656E+05  1.8289688908656E+05  1.8289688908656E+05  1.8289688908656E+05  1.8289688908656E+05  9.1448444543281E+04 
 3.6579377817312E+05  7.3158755634625E+05  7.3158755634625E+05  7.3158755634625E+05  7.3158755634625E+05  7.3158755634625E+05  7.3158755634625E+05  7.3158755634625E+05  7.3158755634625E+05  3.6579377817312E+05 
 4.5724222271640E+05  9.1448444543281E+05  9.1448444543281E+05  9.1448444543281E+05  9.1448444543281E+05  9.1448444543281E+05  9.1448444543281E+05  9.1448444543281E+05  9.1448444543281E+05  4.5724222271640E+05 
 3.5000000000000E-01  3.5000000000000E-01  3.5000000000000E-01  3.5000000000000E-01  3.5000000000000E-01  3.5000000000000E-01  3.5000000000000E-01  3.5000000000000E-01  3.5000000000000E-01  3.5000000000000E-01 
 8.5301666666666E+00  1.7060333333333E+01  1.7060333333333E+01  1.7060333333333E+01  1.7060333333333E+01  1.7060333333333E+01  1.7060333333333E+01  1.7060333333333E+01  1.7060333333333E+01  8.5301666666666E+00 
 3.6259831879809E+00  3.6259831879809E+00  3.6259831879809E+00  3.6259831879809E+00  3.6259831879809E+00  3.6259831879809E+00  3.6259831879809E+00  3.6259831879809E+00  3.6259831879809E+00  3.6259831879809E+00 
 4.3744444444444E-05  8.7488888888889E-05  8.7488888888889E-05  8.7488888888889E-05  8.7488888888889E-05  8.7488888888889E-05  8.7488888888889E-05  8.7488888888889E-05  8.7488888888889E-05  4.3744444444444E-05 
 8.6666666666666E+01  8.6666666666666E+01  8.6666666666666E+01  8.6666666666666E+01  8.6666666666666E+01  8.6666666666666E+01  8.6666666666666E+01  8.6666666666666E+01  8.6666666666666E+01  8.6666666666666E+01 
 2.1666666666667E+01  2.1666666666667E+01  2.1666666666667E+01  2.1666666666667E+01  2.1666666666667E+01  2.1666666666667E+01  2.1666666666667E+01  2.1666666666667E+01  2.1666666666667E+01  2.1666666666667E+01 
 0.0000000000000E+00  0.0000000000000E+00  0.0000000000000E+00  0.0000000000000E+00  0.0000000000000E+00  0.0000000000000E+00  0.0000000000000E+00  0.0000000000000E+00  0.0000000000000E+00  0.0000000000000E+00 
 0.0000000000000E+00  0.0000000000000E+00  0.0000000000000E+00  0.0000000000000E+00  0.0000000000000E+00  0.0000000000000E+00  0.0000000000000E+00  0.0000000000000E+00  0.0000000000000E+00  0.0000000000000E+00 
 0.0000000000000E+00  0.0000000000000E+00  0.0000000000000E+00  0.0000000000000E+00  0.0000000000000E+00  0.0000000000000E+00  0.0000000000000E+00  0.0000000000000E+00  0.0000000000000E+00  0.0000000000000E+00 
 0.0000000000000E+00  0.0000000000000E+00  0.0000000000000E+00  0.0000000000000E+00  0.0000000000000E+00  0.0000000000000E+00  0.0000000000000E+00  0.0000000000000E+00  0.0000000000000E+00  0.0000000000000E+00 
 0.0000000000000E+00  0.0000000000000E+00  0.0000000000000E+00  0.0000000000000E+00  0.0000000000000E+00  0.0000000000000E+00  0.0000000000000E+00  0.0000000000000E+00  0.0000000000000E+00  0.0000000000000E+00 
 0.0000000000000E+00  0.0000000000000E+00  0.0000000000000E+00  0.0000000000000E+00  0.0000000000000E+00  0.0000000000000E+00  0.0000000000000E+00  0.0000000000000E+00  0.0000000000000E+00  0.0000000000000E+00 
 0.0000000000000E+00  0.0000000000000E+00  0.0000000000000E+00  0.0000000000000E+00  0.0000000000000E+00  0.0000000000000E+00  0.0000000000000E+00  0.0000000000000E+00  0.0000000000000E+00  0.0000000000000E+00 
ZONE T = "ANOD, 1.0000E-08", I = 10, SOLUTIONTIME = 1.000000E-08
ZONETYPE = ORDERED
DATAPACKING = BLOCK
STRANDID = 1
 0.0000000000000E+00  8.7488888888889E-05  1.7497777777778E-04  2.6246666666667E-04  3.4995555555556E-04  4.3744444444444E-04  5.2493333333333E-04  6.1242222222222E-04  6.9991111111111E-04  7.8740000000000E-04 
 5.7627126052931E-10  1.7284516518496E-09  2.8809994643309E-09  4.0335546279856E-09  5.1857570706392E-09  6.3383363443678E-09  7.4909323804870E-09  8.6431851057010E-09  9.7961872823290E-09  1.0372701456486E-08 
 9.1999999999965E-01  9.1999999999965E-01  9.1999999999965E-01  9.1999999999965E-01  9.1999999999965E-01  9.1999999999965E-01  9.1999999999965E-01  9.1999999999965E-01  9.1999999999965E-01  9.1999999999986E-01 
 4.0000000000173E-02  4.0000000000173E-02  4.0000000000173E-02  4.0000000000173E-02  4.0000000000173E-02  4.0000000000173E-02  4.0000000000173E-02  4.0000000000173E-02  4.0000000000173E-02  4.0000000000072E-02 
 4.0000000000173E-02  4.0000000000173E-02  4.0000000000173E-02  4.0000000000173E-02  4.0000000000173E-02  4.0000000000173E-02  4.0000000000173E-02  4.0000000000173E-02  4.0000000000173E-02  4.0000000000072E-02 
 3.5028732240985E-02  3.5028724418767E-02  3.5028700951894E-02  3.5028661840596E-02  3.5028607084477E-02  3.5028536683516E-02  3.5028450637610E-02  3.5028348946394E-02  3.5028231609764E-02  3.5028098627223E-02 
-2.5574474148067E-07 -2.5810086586714E-07 -2.6017980917384E-07 -2.6198157038777E-07 -2.6350614774157E-07 -2.6475353871403E-07 -2.6572374002982E-07 -2.6641674765895E-07 -2.6683255681784E-07 -2.6697116196820E-07 
-3.5028987985727E-02 -3.5028982519633E-02 -3.5028961131703E-02 -3.5028923822167E-02 -3.5028870590625E-02 -3.5028801437054E-02 -3.5028716361350E-02 -3.5028615363142E-02 -3.5028498442321E-02 -3.5028365598385E-02 
-4.0906712753147E-02 -4.0906712753145E-02 -4.0906712753147E-02 -4.0906712753147E-02 -4.0906712753142E-02 -4.0906712753145E-02 -4.0906712753145E-02 -4.0906712753142E-02 -4.0906712753142E-02 -4.0906712753207E-02 
 5.8777247674204E-03  5.8777302335122E-03  5.8777516214441E-03  5.8777889309803E-03  5.8778421625172E-03  5.8779113160906E-03  5.8779963917945E-03  5.8780973900000E-03  5.8782143108210E-03  5.8783471548218E-03 
 8.3025205610949E-01  1.6605056631632E+00  1.6605117317536E+00  1.6605223179259E+00  1.6605374217944E+00  1.6605570433666E+00  1.6605811826756E+00  1.6606098398293E+00  1.6606430148600E+00  8.3034035395720E-01 
 4.3018635672620E-09  1.2905710613456E-08  2.1509430963692E-08  3.0113370028472E-08  3.8717319881298E-08  4.7321326022796E-08  5.5925534092618E-08  6.4529798538874E-08  7.3134372144161E-08  7.3134372144161E-08 
 0.0000000000000E+00  1.6602785846971E+00  3.3205565143747E+00  4.9808433227143E+00  6.6411522746884E+00  8.3014676987998E+00  9.9618080368473E+00  1.1622173297668E+01  1.3282570366136E+01  1.4943122438109E+01 
 1.4943122291226E+01  1.3282731420509E+01  1.1622450757450E+01  9.9621617674105E+00  8.3018599333760E+00  6.6415407391291E+00  4.9811996659348E+00  3.3208321966522E+00  1.6604338140599E+00  0.0000000000000E+00 
 8.3025205610949E-09  1.6605056631632E-08  1.6605117317536E-08  1.6605223179259E-08  1.6605374217944E-08  1.6605570433666E-08  1.6605811826756E-08  1.6606098398293E-08  1.6606430148600E-08  8.3034035395720E-09 
 9.1448444543289E+04  1.8289688908658E+05  1.8289688908658E+05  1.8289688908658E+05  1.8289688908658E+05  1.8289688908658E+05  1.8289688908658E+05  1.8289688908658E+05  1.8289688908658E+05  9.1448444543289E+04 
 3.6579377817312E+05  7.3158755634623E+05  7.3158755634623E+05  7.3158755634623E+05  7.3158755634623E+05  7.3158755634623E+05  7.3158755634623E+05  7.3158755634623E+05  7.3158755634623E+05  3.6579377817312E+05 
 4.5724222271640E+05  9.1448444543281E+05  9.1448444543281E+05  9.1448444543281E+05  9.1448444543281E+05  9.1448444543281E+05  9.1448444543281E+05  9.1448444543281E+05  9.1448444543281E+05  4.5724222271640E+05 
 3.5000000000000E-01  3.5000000000000E-01  3.5000000000000E-01  3.5000000000000E-01  3.5000000000000E-01  3.5000000000000E-01  3.5000000000000E-01  3.5000000000000E-01  3.5000000000000E-01  3.5000000000000E-01 
 8.5301666666666E+00  1.7060333333333E+01  1.7060333333333E+01  1.7060333333333E+01  1.7060333333333E+01  1.7060333333333E+01  1.7060333333333E+01  1.7060333333333E+01  1.7060333333333E+01  8.5301666666666E+00 
 9.7331281855708E-02  9.7331372765084E-02  9.7331728478552E-02  9.7332348992357E-02  9.7333234313185E-02  9.7334384441491E-02  9.7335799379201E-02  9.7337479132646E-02  9.7339423703717E-02  9.7341633101019E-02 
 4.3744444444444E-05  8.7488888888889E-05  8.7488888888889E-05  8.7488888888889E-05  8.7488888888889E-05  8.7488888888889E-05  8.7488888888889E-05  8.7488888888889E-05  8.7488888888889E-05  4.3744444444444E-05 
 8.6666666666664E+01  8.6666666666664E+01  8.6666666666664E+01  8.6666666666664E+01  8.6666666666664E+01  8.6666666666664E+01  8.6666666666664E+01  8.6666666666664E+01  8.6666666666664E+01  8.6666666666664E+01 
 2.1666666666669E+01  2.1666666666669E+01  2.1666666666669E+01  2.1666666666669E+01  2.1666666666669E+01  2.1666666666669E+01  2.1666666666669E+01  2.1666666666669E+01  2.1666666666669E+01  2.1666666666669E+01 
 4.5428812490963E-12  7.0909491993412E-12  1.5208485526370E-11  2.9369108502648E-11  4.9573007832947E-11  7.5820185887233E-11  1.0811112755571E-10  1.4644605372008E-10  1.9082549604700E-10  2.1452652055456E-10 
 4.5428812490963E-04  7.0909491993412E-04  1.5208485526370E-03  2.9369108502648E-03  4.9573007832947E-03  7.5820185887233E-03  1.0811112755571E-02  1.4644605372008E-02  1.9082549604700E-02  2.1452652055456E-02 
 7.4220688387923E-05  3.7110964817960E-04  1.2617676669049E-03  2.7462144846014E-03  4.8244690565769E-03  7.4965314901420E-03  1.0762450030205E-02  1.4622246406278E-02  1.9075973311851E-02  2.1451336761060E-02 
 3.8006743652171E-04  3.3798527175452E-04  2.5908088573206E-04  1.9069636566341E-04  1.3283172671780E-04  8.5487098581265E-05  4.8662725366570E-05  2.2358965729468E-05  6.5762928490531E-06  1.3152943953427E-06 
 0.0000000000000E+00  0.0000000000000E+00  0.0000000000000E+00  0.0000000000000E+00  0.0000000000000E+00  0.0000000000000E+00  0.0000000000000E+00  0.0000000000000E+00  0.0000000000000E+00  0.0000000000000E+00 
 0.0000000000000E+00  0.0000000000000E+00  0.0000000000000E+00  0.0000000000000E+00  0.0000000000000E+00  0.0000000000000E+00  0.0000000000000E+00  0.0000000000000E+00  0.0000000000000E+00  0.0000000000000E+00 
 0.0000000000000E+00  0.0000000000000E+00  0.0000000000000E+00  0.0000000000000E+00  0.0000000000000E+00  0.0000000000000E+00  0.0000000000000E+00  0.0000000000000E+00  0.0000000000000E+00  0.0000000000000E+00 
ZONE T = "ANOD, 2.0000E-08", I = 10, SOLUTIONTIME = 2.000000E-08
ZONETYPE = ORDERED
DATAPACKING = BLOCK
STRANDID = 1
 0.0000000000000E+00  8.7488888888889E-05  1.7497777777778E-04  2.6246666666667E-04  3.4995555555556E-04  4.3744444444444E-04  5.2493333333333E-04  6.1242222222222E-04  6.9991111111111E-04  7.8740000000000E-04 
 5.7645822287750E-10  1.7282861224508E-09  2.8804814438350E-09  4.0326841163958E-09  5.1845340695188E-09  6.3374872712607E-09  7.4904572356198E-09  8.6434470998249E-09  9.7975496243463E-09  1.0374069162263E-08 
 9.1999999999931E-01  9.1999999999931E-01  9.1999999999931E-01  9.1999999999931E-01  9.1999999999931E-01  9.1999999999931E-01  9.1999999999931E-01  9.1999999999931E-01  9.1999999999931E-01  9.1999999999971E-01 
 4.0000000000346E-02  4.0000000000346E-02  4.0000000000346E-02  4.0000000000346E-02  4.0000000000346E-02  4.0000000000346E-02  4.0000000000346E-02  4.0000000000346E-02  4.0000000000346E-02  4.0000000000143E-02 
 4.0000000000346E-02  4.0000000000346E-02  4.0000000000346E-02  4.0000000000346E-02  4.0000000000346E-02  4.0000000000346E-02  4.0000000000346E-02  4.0000000000346E-02  4.0000000000346E-02  4.0000000000143E-02 
 3.5029481526482E-02  3.5029473704148E-02  3.5029450237132E-02  3.5029411125377E-02  3.5029356368783E-02  3.5029285967207E-02  3.5029199920465E-02  3.5029098228329E-02  3.5028980890530E-02  3.5028847906754E-02 
-2.5574711934447E-07 -2.5810326563803E-07 -2.6018222827548E-07 -2.6198400624367E-07 -2.6350859777525E-07 -2.6475600034861E-07 -2.6572621068796E-07 -2.6641922476322E-07 -2.6683503779009E-07 -2.6697364423000E-07 
-3.5029737273601E-02 -3.5029731807413E-02 -3.5029710419360E-02 -3.5029673109383E-02 -3.5029619877380E-02 -3.5029550723207E-02 -3.5029465646676E-02 -3.5029364647554E-02 -3.5029247725568E-02 -3.5029114880398E-02 
-4.0906712752895E-02 -4.0906712752900E-02 -4.0906712752895E-02 -4.0906712752895E-02 -4.0906712752896E-02 -4.0906712752900E-02 -4.0906712752900E-02 -4.0906712752896E-02 -4.0906712752896E-02 -4.0906712753026E-02 
 5.8769754792936E-03  5.8769809454861E-03  5.8770023335343E-03  5.8770396435115E-03  5.8770928755154E-03  5.8771620296923E-03  5.8772471062239E-03  5.8773481053416E-03  5.8774650273280E-03  5.8775978726279E-03 
 8.3014575506301E-01  1.6602930610941E+00  1.6602991297095E+00  1.6603097159893E+00  1.6603248199622E+00  1.6603444416747E+00  1.6603685811785E+00  1.6603972385418E+00  1.6604304138481E+00  8.3023405360319E-01 
 4.3019270362464E-09  1.2905789146782E-08  2.1509682706462E-08  3.0113631124480E-08  3.8717657806381E-08  4.7321786178380E-08  5.5926039652598E-08  6.4530441618114E-08  7.3135087246137E-08  7.3135087246137E-08 
 0.0000000000000E+00  1.6602922856203E+00  3.3205883809575E+00  4.9808928041363E+00  6.6412100718089E+00  8.3015447024680E+00  9.9619012142384E+00  1.1622284124140E+01  1.3282697949912E+01  1.4943147210176E+01 
 1.4943147210665E+01  1.3282854925055E+01  1.1622558829653E+01  9.9622544068032E+00  8.3019371388274E+00  6.6416025080090E+00  4.9812459965823E+00  3.3208630867220E+00  1.6604492605273E+00  0.0000000000000E+00 
 1.6603978111725E-08  3.3207987242574E-08  3.3208108614631E-08  3.3208320339152E-08  3.3208622417565E-08  3.3209014850414E-08  3.3209497638541E-08  3.3210070783711E-08  3.3210734287081E-08  1.6605744075604E-08 
 9.1448444543297E+04  1.8289688908659E+05  1.8289688908659E+05  1.8289688908659E+05  1.8289688908659E+05  1.8289688908659E+05  1.8289688908659E+05  1.8289688908659E+05  1.8289688908659E+05  9.1448444543297E+04 
 3.6579377817311E+05  7.3158755634621E+05  7.3158755634621E+05  7.3158755634621E+05  7.3158755634621E+05  7.3158755634621E+05  7.3158755634621E+05  7.3158755634621E+05  7.3158755634621E+05  3.6579377817311E+05 
 4.5724222271640E+05  9.1448444543281E+05  9.1448444543281E+05  9.1448444543281E+05  9.1448444543281E+05  9.1448444543281E+05  9.1448444543281E+05  9.1448444543281E+05  9.1448444543281E+05  4.5724222271640E+05 
 3.5000000000000E-01  3.5000000000000E-01  3.5000000000000E-01  3.5000000000000E-01  3.5000000000000E-01  3.5000000000000E-01  3.5000000000000E-01  3.5000000000000E-01  3.5000000000000E-01  3.5000000000000E-01 
 8.5301666666666E+00  1.7060333333333E+01  1.7060333333333E+01  1.7060333333333E+01  1.7060333333333E+01  1.7060333333333E+01  1.7060333333333E+01  1.7060333333333E+01  1.7060333333333E+01  8.5301666666666E+00 
 9.7318820077335E-02  9.7318910988109E-02  9.7319266703044E-02  9.7319887223148E-02  9.7320772550098E-02  9.7321922686626E-02  9.7323337635752E-02  9.7325017401483E-02  9.7326961988712E-02  9.7329171403825E-02 
 4.3744444444444E-05  8.7488888888889E-05  8.7488888888889E-05  8.7488888888889E-05  8.7488888888889E-05  8.7488888888889E-05  8.7488888888889E-05  8.7488888888889E-05  8.7488888888889E-05  4.3744444444444E-05 
 8.6666666666662E+01  8.6666666666662E+01  8.6666666666662E+01  8.6666666666662E+01  8.6666666666662E+01  8.6666666666662E+01  8.6666666666662E+01  8.6666666666662E+01  8.6666666666662E+01  8.6666666666662E+01 
 2.1666666666671E+01  2.1666666666671E+01  2.1666666666671E+01  2.1666666666671E+01  2.1666666666671E+01  2.1666666666671E+01  2.1666666666671E+01  2.1666666666671E+01  2.1666666666671E+01  2.1666666666671E+01 
 9.0858550762861E-12  1.4182012849706E-11  3.0417277052393E-11  5.8738784977337E-11  9.9146880447640E-11  1.5164178574384E-10  2.1622427144334E-10  2.9289490987386E-10  3.8165464994134E-10  4.2905702595623E-10 
 4.5429738271898E-04  7.0910636503650E-04  1.5208791526023E-03  2.9369676474689E-03  4.9573872614692E-03  7.5821599856604E-03  1.0811314388762E-02  1.4644885615378E-02  1.9082915389434E-02  2.1453050540167E-02 
 1.4844356687123E-04  7.4222445618014E-04  2.5235611155966E-03  5.4924822197817E-03  9.6490221207144E-03  1.4993202787094E-02  2.1525100788370E-02  2.9244772639966E-02  3.8152312286084E-02  4.2903071982357E-02 
 7.6014194075738E-04  6.7597682879048E-04  5.1816658964273E-04  3.8139627795194E-04  2.6566592404953E-04  1.7097578728988E-04  9.7326355963845E-05  4.4718347419780E-05  1.3152708049909E-05  2.6306132652255E-06 
 0.0000000000000E+00  0.0000000000000E+00  0.0000000000000E+00  0.0000000000000E+00  0.0000000000000E+00  0.0000000000000E+00  0.0000000000000E+00  0.0000000000000E+00  0.0000000000000E+00  0.0000000000000E+00 
 0.0000000000000E+00  0.0000000000000E+00  0.0000000000000E+00  0.0000000000000E+00  0.0000000000000E+00  0.0000000000000E+00  0.0000000000000E+00  0.0000000000000E+00  0.0000000000000E+00  0.0000000000000E+00 
 0.0000000000000E+00  0.0000000000000E+00  0.0000000000000E+00  0.0000000000000E+00  0.0000000000000E+00  0.0000000000000E+00  0.0000000000000E+00  0.0000000000000E+00  0.0000000000000E+00  0.0000000000000E+00 
ZONE T = "ANOD, 3.0000E-08", I = 10, SOLUTIONTIME = 3.000000E-08
ZONETYPE = ORDERED
DATAPACKING = BLOCK
STRANDID = 1
 0.0000000000000E+00  8.7488888888889E-05  1.7497777777778E-04  2.6246666666667E-04  3.4995555555556E-04  4.3744444444444E-04  5.2493333333333E-04  6.1242222222222E-04  6.9991111111111E-04  7.8740000000000E-04 
 5.7663982673763E-10  1.7291941417591E-09  2.8824790863191E-09  4.0357713820557E-09  5.1894373738112E-09  6.3423905755459E-09  7.4946341244421E-09  8.6472607809130E-09  9.7999104745168E-09  1.0375703596981E-08 
 9.1999999999896E-01  9.1999999999896E-01  9.1999999999896E-01  9.1999999999896E-01  9.1999999999896E-01  9.1999999999896E-01  9.1999999999896E-01  9.1999999999896E-01  9.1999999999896E-01  9.1999999999957E-01 
 4.0000000000520E-02  4.0000000000520E-02  4.0000000000520E-02  4.0000000000520E-02  4.0000000000520E-02  4.0000000000520E-02  4.0000000000520E-02  4.0000000000520E-02  4.0000000000520E-02  4.0000000000215E-02 
 4.0000000000520E-02  4.0000000000520E-02  4.0000000000520E-02  4.0000000000520E-02  4.0000000000520E-02  4.0000000000520E-02  4.0000000000520E-02  4.0000000000520E-02  4.0000000000520E-02  4.0000000000215E-02 
 3.5029481526289E-02  3.5029473703955E-02  3.5029450236939E-02  3.5029411125184E-02  3.5029356368590E-02  3.5029285967014E-02  3.5029199920272E-02  3.5029098228136E-02  3.5028980890337E-02  3.5028847906561E-02 
-2.5574711934305E-07 -2.5810326563660E-07 -2.6018222827403E-07 -2.6198400624222E-07 -2.6350859777379E-07 -2.6475600034715E-07 -2.6572621068649E-07 -2.6641922476174E-07 -2.6683503778861E-07 -2.6697364422852E-07 
-3.5029737273408E-02 -3.5029731807221E-02 -3.5029710419167E-02 -3.5029673109190E-02 -3.5029619877187E-02 -3.5029550723014E-02 -3.5029465646483E-02 -3.5029364647361E-02 -3.5029247725375E-02 -3.5029114880205E-02 
-4.0906712752646E-02 -4.0906712752646E-02 -4.0906712752646E-02 -4.0906712752646E-02 -4.0906712752648E-02 -4.0906712752644E-02 -4.0906712752644E-02 -4.0906712752648E-02 -4.0906712752648E-02 -4.0906712752843E-02 
 5.8769754792379E-03  5.8769809454254E-03  5.8770023334787E-03  5.8770396434559E-03  5.8770928754602E-03  5.8771620296299E-03  5.8772471061615E-03  5.8773481052865E-03  5.8774650272729E-03  5.8775978726379E-03 
 8.3014575505753E-01  1.6602930610836E+00  1.6602991296986E+00  1.6603097159784E+00  1.6603248199530E+00  1.6603444416642E+00  1.6603685811680E+00  1.6603972385325E+00  1.6604304138389E+00  8.3023405360679E-01 
 4.3019270385201E-09  1.2905789144583E-08  2.1509682706555E-08  3.0113631122356E-08  3.8717657808804E-08  4.7321786176330E-08  5.5926039646769E-08  6.4530441618393E-08  7.3135123117917E-08  7.3135123117917E-08 
 0.0000000000000E+00  1.6602922856274E+00  3.3205883809718E+00  4.9808928041579E+00  6.6412100718376E+00  8.3015447025039E+00  9.9619012139134E+00  1.1622284123822E+01  1.3282697949961E+01  1.4943147210223E+01 
 1.4943147210582E+01  1.3282854924982E+01  1.1622558829591E+01  9.9622544067528E+00  8.3019371387870E+00  6.6416025079783E+00  4.9812459965622E+00  3.3208630867120E+00  1.6604492605262E+00  0.0000000000000E+00 
 2.4905435662300E-08  4.9810917853410E-08  4.9811099911617E-08  4.9811417498937E-08  4.9811870617095E-08  4.9812459267056E-08  4.9813183450221E-08  4.9814043169036E-08  4.9815038425469E-08  2.4908084611672E-08 
 9.1448444543306E+04  1.8289688908661E+05  1.8289688908661E+05  1.8289688908661E+05  1.8289688908661E+05  1.8289688908661E+05  1.8289688908661E+05  1.8289688908661E+05  1.8289688908661E+05  9.1448444543306E+04 
 3.6579377817310E+05  7.3158755634620E+05  7.3158755634620E+05  7.3158755634620E+05  7.3158755634620E+05  7.3158755634620E+05  7.3158755634620E+05  7.3158755634620E+05  7.3158755634620E+05  3.6579377817310E+05 
 4.5724222271640E+05  9.1448444543281E+05  9.1448444543281E+05  9.1448444543281E+05  9.1448444543281E+05  9.1448444543281E+05  9.1448444543281E+05  9.1448444543281E+05  9.1448444543281E+05  4.5724222271640E+05 
 3.5000000000000E-01  3.5000000000000E-01  3.5000000000000E-01  3.5000000000000E-01  3.5000000000000E-01  3.5000000000000E-01  3.5000000000000E-01  3.5000000000000E-01  3.5000000000000E-01  3.5000000000000E-01 
 8.5301666666666E+00  1.7060333333333E+01  1.7060333333333E+01  1.7060333333333E+01  1.7060333333333E+01  1.7060333333333E+01  1.7060333333333E+01  1.7060333333333E+01  1.7060333333333E+01  8.5301666666666E+00 
 9.7318820076692E-02  9.7318910987493E-02  9.7319266702407E-02  9.7319887222511E-02  9.7320772549558E-02  9.7321922686010E-02  9.7323337635136E-02  9.7325017400943E-02  9.7326961988173E-02  9.7329171404246E-02 
 4.3744444444444E-05  8.7488888888889E-05  8.7488888888889E-05  8.7488888888889E-05  8.7488888888889E-05  8.7488888888889E-05  8.7488888888889E-05  8.7488888888889E-05  8.7488888888889E-05  4.3744444444444E-05 
 8.6666666666660E+01  8.6666666666660E+01  8.6666666666660E+01  8.6666666666660E+01  8.6666666666660E+01  8.6666666666660E+01  8.6666666666660E+01  8.6666666666660E+01  8.6666666666660E+01  8.6666666666660E+01 
 2.1666666666672E+01  2.1666666666672E+01  2.1666666666672E+01  2.1666666666672E+01  2.1666666666672E+01  2.1666666666672E+01  2.1666666666672E+01  2.1666666666672E+01  2.1666666666672E+01  2.1666666666672E+01 
 1.3628828903437E-11  2.1273076500051E-11  4.5626068578443E-11  8.8108461452125E-11  1.4872075306253E-10  2.2746338560076E-10  3.2433741532286E-10  4.3934376601971E-10  5.7248380383637E-10  6.4358753135855E-10 
 4.5429738271514E-04  7.0910636503443E-04  1.5208791526050E-03  2.9369676474788E-03  4.9573872614888E-03  7.5821599856921E-03  1.0811314387953E-02  1.4644885614585E-02  1.9082915389503E-02  2.1453050540233E-02 
 2.2266644535486E-04  1.1133392641823E-03  3.7853545642937E-03  8.2387499549740E-03  1.4473575184873E-02  2.2489874084078E-02  3.2287751545726E-02  4.3867298872861E-02  5.7228651260386E-02  6.4354807203720E-02 
 1.1402164449889E-03  1.0139683858228E-03  7.7725229355065E-04  5.7209619023853E-04  3.9850012137996E-04  2.5646447599771E-04  1.4598998656072E-04  6.7077729109950E-05  1.9729123250744E-05  3.9459321351182E-06 
 0.0000000000000E+00  0.0000000000000E+00  0.0000000000000E+00  0.0000000000000E+00  0.0000000000000E+00  0.0000000000000E+00  0.0000000000000E+00  0.0000000000000E+00  0.0000000000000E+00  0.0000000000000E+00 
 0.0000000000000E+00  0.0000000000000E+00  0.0000000000000E+00  0.0000000000000E+00  0.0000000000000E+00  0.0000000000000E+00  0.0000000000000E+00  0.0000000000000E+00  0.0000000000000E+00  0.0000000000000E+00 
 0.0000000000000E+00  0.0000000000000E+00  0.0000000000000E+00  0.0000000000000E+00  0.0000000000000E+00  0.0000000000000E+00  0.0000000000000E+00  0.0000000000000E+00  0.0000000000000E+00  0.0000000000000E+00 
ZONE T = "ANOD, 4.0000E-08", I = 10, SOLUTIONTIME = 4.000000E-08
ZONETYPE = ORDERED
DATAPACKING = BLOCK
STRANDID = 1
 0.0000000000000E+00  8.7488888888889E-05  1.7497777777778E-04  2.6246666666667E-04  3.4995555555556E-04  4.3744444444444E-04  5.2493333333333E-04  6.1242222222222E-04  6.9991111111111E-04  7.8740000000000E-04 
 5.7645822287020E-10  1.7293757456122E-09  2.8822974824374E-09  4.0352265704392E-09  5.1881661467322E-09  6.3414825561877E-09  7.4944525205326E-09  8.6474423847243E-09  9.8004552860491E-09  1.0376974823971E-08 
 9.1999999999861E-01  9.1999999999861E-01  9.1999999999861E-01  9.1999999999861E-01  9.1999999999861E-01  9.1999999999861E-01  9.1999999999861E-01  9.1999999999861E-01  9.1999999999861E-01  9.1999999999943E-01 
 4.0000000000693E-02  4.0000000000693E-02  4.0000000000693E-02  4.0000000000693E-02  4.0000000000693E-02  4.0000000000693E-02  4.0000000000693E-02  4.0000000000693E-02  4.0000000000693E-02  4.0000000000287E-02 
 4.0000000000693E-02  4.0000000000693E-02  4.0000000000693E-02  4.0000000000693E-02  4.0000000000693E-02  4.0000000000693E-02  4.0000000000693E-02  4.0000000000693E-02  4.0000000000693E-02  4.0000000000287E-02 
 3.5029481526100E-02  3.5029473703766E-02  3.5029450236750E-02  3.5029411124995E-02  3.5029356368401E-02  3.5029285966825E-02  3.5029199920083E-02  3.5029098227947E-02  3.5028980890148E-02  3.5028847906372E-02 
-2.5574711934164E-07 -2.5810326563517E-07 -2.6018222827260E-07 -2.6198400624078E-07 -2.6350859777234E-07 -2.6475600034569E-07 -2.6572621068503E-07 -2.6641922476028E-07 -2.6683503778715E-07 -2.6697364422706E-07 
-3.5029737273219E-02 -3.5029731807032E-02 -3.5029710418978E-02 -3.5029673109001E-02 -3.5029619876998E-02 -3.5029550722825E-02 -3.5029465646294E-02 -3.5029364647172E-02 -3.5029247725186E-02 -3.5029114880016E-02 
-4.0906712752399E-02 -4.0906712752399E-02 -4.0906712752399E-02 -4.0906712752399E-02 -4.0906712752397E-02 -4.0906712752397E-02 -4.0906712752397E-02 -4.0906712752397E-02 -4.0906712752397E-02 -4.0906712752658E-02 
 5.8769754791803E-03  5.8769809453678E-03  5.8770023334210E-03  5.8770396433983E-03  5.8770928753985E-03  5.8771620295716E-03  5.8772471061031E-03  5.8773481052247E-03  5.8774650272111E-03  5.8775978726414E-03 
 8.3014575505249E-01  1.6602930610731E+00  1.6602991296885E+00  1.6603097159683E+00  1.6603248199430E+00  1.6603444416543E+00  1.6603685811581E+00  1.6603972385225E+00  1.6604304138289E+00  8.3023405360997E-01 