TITLE = "Solution on Domain BulkDomain1D_1"
VARIABLES = "x [m]"  
"Vel_axial(0)" 	"MF_sp(ECDMC)" 	"MF_sp(Li+)" 	"MF_sp(PF6-)" 	"Volt(Electroly)" 	"qHeat_accum [J/m3]" 	"qHeat_step [W/m3]" 	"Joule_Lyte [W/m3]" 	"Joule_Solid [W/m3]" 	
ZONE T = "t = 0 [s]" I = 10 SOLUTIONTIME = 0.0000000000000E+00
0.0007874 	0 	0.92 	0.04 	0.04 	-0.07 	
0 	0.0 	 0.0 	 0.0 	 
0.000841022 	0 	0.92 	0.04 	0.04 	-0.07 	
0 	0.0 	 0.0 	 0.0 	 
0.000894644 	0 	0.92 	0.04 	0.04 	-0.07 	
0 	0.0 	 0.0 	 0.0 	 
0.000948267 	0 	0.92 	0.04 	0.04 	-0.07 	
0 	0.0 	 0.0 	 0.0 	 
0.00100189 	0 	0.92 	0.04 	0.04 	-0.07 	
0 	0.0 	 0.0 	 0.0 	 
0.00105551 	0 	0.92 	0.04 	0.04 	-0.07 	
0 	0.0 	 0.0 	 0.0 	 
0.00110913 	0 	0.92 	0.04 	0.04 	-0.07 	
0 	0.0 	 0.0 	 0.0 	 
0.00116276 	0 	0.92 	0.04 	0.04 	-0.07 	
0 	0.0 	 0.0 	 0.0 	 
0.00121638 	0 	0.92 	0.04 	0.04 	-0.07 	
0 	0.0 	 0.0 	 0.0 	 
0.00127 	0 	0.92 	0.04 	0.04 	-0.07 	
0 	0.0 	 0.0 	 0.0 	 
ZONE T = "t = 1e-08 [s]" I = 10 SOLUTIONTIME = 1.0000000000000E-08
0.0007874 	1.25624e-08 	0.92 	0.04 	0.04 	0.0180627 	
0 	0 	0 	0 	
0.000841022 	1.25624e-08 	0.92 	0.04 	0.04 	0.0180627 	
0 	0 	0 	0 	
0.000894644 	1.25624e-08 	0.92 	0.04 	0.04 	0.0180627 	
0 	0 	0 	0 	
0.000948267 	1.25624e-08 	0.92 	0.04 	0.04 	0.0180627 	
0 	0 	0 	0 	
0.00100189 	1.25624e-08 	0.92 	0.04 	0.04 	0.0180626 	
0 	0 	0 	0 	
0.00105551 	1.25624e-08 	0.92 	0.04 	0.04 	0.0180626 	
0 	0 	0 	0 	
0.00110913 	1.25624e-08 	0.92 	0.04 	0.04 	0.0180626 	
0 	0 	0 	0 	
0.00116276 	1.25624e-08 	0.92 	0.04 	0.04 	0.0180625 	
0 	0 	0 	0 	
0.00121638 	1.25624e-08 	0.92 	0.04 	0.04 	0.0180625 	
0 	0 	0 	0 	
0.00127 	1.11673e-08 	0.92 	0.04 	0.04 	0.0180625 	
0 	0 	0 	0 	
ZONE T = "t = 2e-08 [s]" I = 10 SOLUTIONTIME = 2.0000000000000E-08
0.0007874 	1.03703e-08 	0.92 	0.04 	0.04 	0.0350306 	
0 	0 	0 	0 	
0.000841022 	1.03703e-08 	0.92 	0.04 	0.04 	0.0350306 	
0 	0 	0 	0 	
0.000894644 	1.03703e-08 	0.92 	0.04 	0.04 	0.0350306 	
0 	0 	0 	0 	
0.000948267 	1.03703e-08 	0.92 	0.04 	0.04 	0.0350306 	
0 	0 	0 	0 	
0.00100189 	1.03703e-08 	0.92 	0.04 	0.04 	0.0350305 	
0 	0 	0 	0 	
0.00105551 	1.03703e-08 	0.92 	0.04 	0.04 	0.0350305 	
0 	0 	0 	0 	
0.00110913 	1.03703e-08 	0.92 	0.04 	0.04 	0.0350305 	
0 	0 	0 	0 	
0.00116276 	1.03703e-08 	0.92 	0.04 	0.04 	0.0350305 	
0 	0 	0 	0 	
0.00121638 	1.03703e-08 	0.92 	0.04 	0.04 	0.0350304 	
0 	0 	0 	0 	
0.00127 	9.21833e-09 	0.92 	0.04 	0.04 	0.0350304 	
0 	0 	0 	0 	
ZONE T = "t = 3e-08 [s]" I = 10 SOLUTIONTIME = 3.0000000000000E-08
0.0007874 	1.03731e-08 	0.92 	0.04 	0.04 	0.0350347 	
0 	0 	0 	0 	
0.000841022 	1.03731e-08 	0.92 	0.04 	0.04 	0.0350347 	
0 	0 	0 	0 	
0.000894644 	1.03731e-08 	0.92 	0.04 	0.04 	0.0350346 	
0 	0 	0 	0 	
0.000948267 	1.03731e-08 	0.92 	0.04 	0.04 	0.0350346 	
0 	0 	0 	0 	
0.00100189 	1.03731e-08 	0.92 	0.04 	0.04 	0.0350346 	
0 	0 	0 	0 	
0.00105551 	1.03731e-08 	0.92 	0.04 	0.04 	0.0350346 	
0 	0 	0 	0 	
0.00110913 	1.03731e-08 	0.92 	0.04 	0.04 	0.0350345 	
0 	0 	0 	0 	
0.00116276 	1.03731e-08 	0.92 	0.04 	0.04 	0.0350345 	
0 	0 	0 	0 	
0.00121638 	1.03731e-08 	0.92 	0.04 	0.04 	0.0350345 	
0 	0 	0 	0 	
0.00127 	9.22063e-09 	0.92 	0.04 	0.04 	0.0350345 	
0 	0 	0 	0 	
ZONE T = "t = 4e-08 [s]" I = 10 SOLUTIONTIME = 4.0000000000000E-08
0.0007874 	1.03831e-08 	0.92 	0.04 	0.04 	0.0350282 	
0 	0 	0 	0 	
0.000841022 	1.03831e-08 	0.92 	0.04 	0.04 	0.0350282 	
0 	0 	0 	0 	
0.000894644 	1.03831e-08 	0.92 	0.04 	0.04 	0.0350281 	
0 	0 	0 	0 	
0.000948267 	1.03831e-08 	0.92 	0.04 	0.04 	0.0350281 	
0 	0 	0 	0 	
0.00100189 	1.03831e-08 	0.92 	0.04 	0.04 	0.0350281 	
0 	0 	0 	0 	
0.00105551 	1.03831e-08 	0.92 	0.04 	0.04 	0.0350281 	
0 	0 	0 	0 	
0.00110913 	1.03831e-08 	0.92 	0.04 	0.04 	0.035028 	
0 	0 	0 	0 	
0.00116276 	1.03831e-08 	0.92 	0.04 	0.04 	0.035028 	
0 	0 	0 	0 	
0.00121638 	1.03831e-08 	0.92 	0.04 	0.04 	0.035028 	
0 	0 	0 	0 	
0.00127 	9.23049e-09 	0.92 	0.04 	0.04 	0.035028 	
0 	0 	0 	0 	
ZONE T = "t = 5.10849e-08 [s]" I = 10 SOLUTIONTIME = 5.1084922842800E-08
0.0007874 	1.03761e-08 	0.92 	0.04 	0.04 	0.0350282 	
0 	0 	0 	0 	
0.000841022 	1.03761e-08 	0.92 	0.04 	0.04 	0.0350282 	
0 	0 	0 	0 	
0.000894644 	1.03761e-08 	0.92 	0.04 	0.04 	0.0350281 	
0 	0 	0 	0 	
0.000948267 	1.03761e-08 	0.92 	0.04 	0.04 	0.0350281 	
0 	0 	0 	0 	
0.00100189 	1.03761e-08 	0.92 	0.04 	0.04 	0.0350281 	
0 	0 	0 	0 	
0.00105551 	1.03761e-08 	0.92 	0.04 	0.04 	0.0350281 	
0 	0 	0 	0 	
0.00110913 	1.03761e-08 	0.92 	0.04 	0.04 	0.035028 	
0 	0 	0 	0 	
0.00116276 	1.03761e-08 	0.92 	0.04 	0.04 	0.035028 	
0 	0 	0 	0 	
0.00121638 	1.03761e-08 	0.92 	0.04 	0.04 	0.035028 	
0 	0 	0 	0 	
0.00127 	9.22358e-09 	0.92 	0.04 	0.04 	0.035028 	
0 	0 	0 	0 	
ZONE T = "t = 6.58626e-08 [s]" I = 10 SOLUTIONTIME = 6.5862639992886E-08
0.0007874 	1.03748e-08 	0.92 	0.04 	0.04 	0.0350282 	
0 	0 	0 	0 	
0.000841022 	1.03748e-08 	0.92 	0.04 	0.04 	0.0350282 	
0 	0 	0 	0 	
0.000894644 	1.03748e-08 	0.92 	0.04 	0.04 	0.0350281 	
0 	0 	0 	0 	
0.000948267 	1.03748e-08 	0.92 	0.04 	0.04 	0.0350281 	
0 	0 	0 	0 	
0.00100189 	1.03748e-08 	0.92 	0.04 	0.04 	0.0350281 	
0 	0 	0 	0 	
0.00105551 	1.03748e-08 	0.92 	0.04 	0.04 	0.0350281 	
0 	0 	0 	0 	
0.00110913 	1.03748e-08 	0.92 	0.04 	0.04 	0.035028 	
0 	0 	0 	0 	
0.00116276 	1.03748e-08 	0.92 	0.04 	0.04 	0.035028 	
0 	0 	0 	0 	
0.00121638 	1.03748e-08 	0.92 	0.04 	0.04 	0.035028 	
0 	0 	0 	0 	
0.00127 	9.22227e-09 	0.92 	0.04 	0.04 	0.035028 	
0 	0 	0 	0 	
ZONE T = "t = 8.80292e-08 [s]" I = 10 SOLUTIONTIME = 8.8029215718014E-08
0.0007874 	1.03775e-08 	0.92 	0.04 	0.04 	0.0350282 	
0 	0 	0 	0 	
0.000841022 	1.03775e-08 	0.92 	0.04 	0.04 	0.0350282 	
0 	0 	0 	0 	
0.000894644 	1.03775e-08 	0.92 	0.04 	0.04 	0.0350281 	
0 	0 	0 	0 	
0.000948267 	1.03775e-08 	0.92 	0.04 	0.04 	0.0350281 	
0 	0 	0 	0 	
0.00100189 	1.03775e-08 	0.92 	0.04 	0.04 	0.0350281 	
0 	0 	0 	0 	
0.00105551 	1.03775e-08 	0.92 	0.04 	0.04 	0.0350281 	
0 	0 	0 	0 	
0.00110913 	1.03775e-08 	0.92 	0.04 	0.04 	0.035028 	
0 	0 	0 	0 	
0.00116276 	1.03775e-08 	0.92 	0.04 	0.04 	0.035028 	
0 	0 	0 	0 	
0.00121638 	1.03775e-08 	0.92 	0.04 	0.04 	0.035028 	
0 	0 	0 	0 	
0.00127 	9.22489e-09 	0.92 	0.04 	0.04 	0.035028 	
0 	0 	0 	0 	
ZONE T = "t = 1.21279e-07 [s]" I = 10 SOLUTIONTIME = 1.2127907930571E-07
0.0007874 	1.03787e-08 	0.92 	0.04 	0.04 	0.0350282 	
0 	0 	0 	0 	
0.000841022 	1.03789e-08 	0.92 	0.04 	0.04 	0.0350282 	
0 	0 	0 	0 	
0.000894644 	1.03789e-08 	0.92 	0.04 	0.04 	0.0350281 	
0 	0 	0 	0 	
0.000948267 	1.03789e-08 	0.92 	0.04 	0.04 	0.0350281 	
0 	0 	0 	0 	
0.00100189 	1.03789e-08 	0.92 	0.04 	0.04 	0.0350281 	
0 	0 	0 	0 	
0.00105551 	1.03789e-08 	0.92 	0.04 	0.04 	0.0350281 	
0 	0 	0 	0 	
0.00110913 	1.03789e-08 	0.92 	0.04 	0.04 	0.035028 	
0 	0 	0 	0 	
0.00116276 	1.03789e-08 	0.92 	0.04 	0.04 	0.035028 	
0 	0 	0 	0 	
0.00121638 	1.03789e-08 	0.92 	0.04 	0.04 	0.035028 	
0 	0 	0 	0 	
0.00127 	9.22637e-09 	0.92 	0.04 	0.04 	0.035028 	
0 	0 	0 	0 	
ZONE T = "t = 1.71154e-07 [s]" I = 10 SOLUTIONTIME = 1.7115387468725E-07
0.0007874 	1.03778e-08 	0.92 	0.04 	0.04 	0.0350282 	
0 	0 	0 	0 	
0.000841022 	1.03777e-08 	0.92 	0.04 	0.04 	0.0350282 	
0 	0 	0 	0 	
0.000894644 	1.03777e-08 	0.92 	0.04 	0.04 	0.0350281 	
0 	0 	0 	0 	
0.000948267 	1.03777e-08 	0.92 	0.04 	0.04 	0.0350281 	
0 	0 	0 	0 	
0.00100189 	1.03777e-08 	0.92 	0.04 	0.04 	0.0350281 	
0 	0 	0 	0 	
0.00105551 	1.03777e-08 	0.92 	0.04 	0.04 	0.0350281 	
0 	0 	0 	0 	
0.00110913 	1.03777e-08 	0.92 	0.04 	0.04 	0.035028 	
0 	0 	0 	0 	
0.00116276 	1.03777e-08 	0.92 	0.04 	0.04 	0.035028 	
0 	0 	0 	0 	
0.00121638 	1.03777e-08 	0.92 	0.04 	0.04 	0.035028 	
0 	0 	0 	0 	
0.00127 	9.22511e-09 	0.92 	0.04 	0.04 	0.035028 	
0 	0 	0 	0 	
ZONE T = "t = 2.45966e-07 [s]" I = 10 SOLUTIONTIME = 2.4596606775955E-07
0.0007874 	1.03781e-08 	0.92 	0.04 	0.04 	0.0350282 	
0 	0 	0 	0 	
0.000841022 	1.03781e-08 	0.92 	0.04 	0.04 	0.0350282 	
0 	0 	0 	0 	
0.000894644 	1.03781e-08 	0.92 	0.04 	0.04 	0.0350281 	
0 	0 	0 	0 	
0.000948267 	1.03781e-08 	0.92 	0.04 	0.04 	0.0350281 	
0 	0 	0 	0 	
0.00100189 	1.03781e-08 	0.92 	0.04 	0.04 	0.0350281 	
0 	0 	0 	0 	
0.00105551 	1.03781e-08 	0.92 	0.04 	0.04 	0.0350281 	
0 	0 	0 	0 	
0.00110913 	1.03781e-08 	0.92 	0.04 	0.04 	0.035028 	
0 	0 	0 	0 	
0.00116276 	1.03781e-08 	0.92 	0.04 	0.04 	0.035028 	
0 	0 	0 	0 	
0.00121638 	1.03781e-08 	0.92 	0.04 	0.04 	0.035028 	
0 	0 	0 	0 	
0.00127 	9.22539e-09 	0.92 	0.04 	0.04 	0.035028 	
0 	0 	0 	0 	
