TITLE = "Solution on Domain BulkDomain1D_0"
VARIABLES = "x [m]"  
"Vel_axial" 	"MF_sp(ECDMC)" 	"MF_sp(Li+)" 	"MF_sp(PF6-)" 	"Volt(Electroly)" 	"Volt(AnodeVolt)" 	
"Potential Drop Electrode-Electrolyte [V]" 	"Surf_0 Equilibrium Potential Drop Electrode-Electrolyte [V]" 	"Overpotential_0 [V]" 	"Current Source [A/m^2]" 	"Li+ flux [kmol/m^2/s]" 	"Electrolyte Current [A/m^2]" 	"Electrode Current [A/m^2]" 	
"Capacity discharged [A-s]" 	"Depth of discharge [-]" 	"Capacity remaining [A-s]" 	"Initial capacity [A-s]" 	"Porosity []" 	"Surface Area [m2/m2] (area per area)" 	"Specific current (per particle area) [A/m^2]" 	"Control volume thickness [m]" 	
"Moles Li_C6-bulk [mol/m^2] (per electrode area)" 	"Moles V_C6-bulk [mol/m^2] (per electrode area)" 	"qHeat_accum [J/m3]" 	"qHeat_step [W/m3]" 	"Joule_Lyte [W/m3]" 	"Joule_Solid [W/m3]" 	"electrodHeat [W/m3]" 	"OverpotHeat [W/m3]" 	"deltaSHeat [W/m3]" 	

ZONE T = "t = 0 [s]" I = 10 SOLUTIONTIME = 0.0000000000000E+00
0 	0 	0.92 	0.04 	0.04 	-0.07 	0 	
0 	0 	0 	0 	0 	0 	15.4651 	
0 	0 	0 	0 	0.35 	8.53017 	3.62598 	4.37444e-05 	
0.00379119 	0.000947796 	0 	0.0 	 0.0 	 0.0 	 0.0 	 0.0 	 0.0 	 
8.74889e-05 	0 	0.92 	0.04 	0.04 	-0.07 	0 	
0 	0 	0 	0 	0 	0 	-0 	
0 	0 	0 	0 	0.35 	17.0603 	3.62598 	8.74889e-05 	
0.00758237 	0.00189559 	0 	0.0 	 0.0 	 0.0 	 0.0 	 0.0 	 0.0 	 
0.000174978 	0 	0.92 	0.04 	0.04 	-0.07 	0 	
0 	0 	0 	0 	0 	0 	-0 	
0 	0 	0 	0 	0.35 	17.0603 	3.62598 	8.74889e-05 	
0.00758237 	0.00189559 	0 	0.0 	 0.0 	 0.0 	 0.0 	 0.0 	 0.0 	 
0.000262467 	0 	0.92 	0.04 	0.04 	-0.07 	0 	
0 	0 	0 	0 	0 	0 	-0 	
0 	0 	0 	0 	0.35 	17.0603 	3.62598 	8.74889e-05 	
0.00758237 	0.00189559 	0 	0.0 	 0.0 	 0.0 	 0.0 	 0.0 	 0.0 	 
0.000349956 	0 	0.92 	0.04 	0.04 	-0.07 	0 	
0 	0 	0 	0 	0 	0 	-0 	
0 	0 	0 	0 	0.35 	17.0603 	3.62598 	8.74889e-05 	
0.00758237 	0.00189559 	0 	0.0 	 0.0 	 0.0 	 0.0 	 0.0 	 0.0 	 
0.000437444 	0 	0.92 	0.04 	0.04 	-0.07 	0 	
0 	0 	0 	0 	0 	0 	-0 	
0 	0 	0 	0 	0.35 	17.0603 	3.62598 	8.74889e-05 	
0.00758237 	0.00189559 	0 	0.0 	 0.0 	 0.0 	 0.0 	 0.0 	 0.0 	 
0.000524933 	0 	0.92 	0.04 	0.04 	-0.07 	0 	
0 	0 	0 	0 	0 	0 	-0 	
0 	0 	0 	0 	0.35 	17.0603 	3.62598 	8.74889e-05 	
0.00758237 	0.00189559 	0 	0.0 	 0.0 	 0.0 	 0.0 	 0.0 	 0.0 	 
0.000612422 	0 	0.92 	0.04 	0.04 	-0.07 	0 	
0 	0 	0 	0 	0 	0 	-0 	
0 	0 	0 	0 	0.35 	17.0603 	3.62598 	8.74889e-05 	
0.00758237 	0.00189559 	0 	0.0 	 0.0 	 0.0 	 0.0 	 0.0 	 0.0 	 
0.000699911 	0 	0.92 	0.04 	0.04 	-0.07 	0 	
0 	0 	0 	0 	0 	0 	-0 	
0 	0 	0 	0 	0.35 	17.0603 	3.62598 	8.74889e-05 	
0.00758237 	0.00189559 	0 	0.0 	 0.0 	 0.0 	 0.0 	 0.0 	 0.0 	 
0.0007874 	0 	0.92 	0.04 	0.04 	-0.07 	0 	
0 	0 	0 	0 	0 	15.4651 	0 	
0 	0 	0 	0 	0.35 	8.53017 	3.62598 	4.37444e-05 	
0.00379119 	0.000947796 	0 	0.0 	 0.0 	 0.0 	 0.0 	 0.0 	 0.0 	 
ZONE T = "t = 1e-08 [s]" I = 10 SOLUTIONTIME = 1.0000000000000E-08
0 	5.76636e-10 	0.92 	0.04 	0.04 	0.0350291 	-2.55745e-07 	
0.07 	-0.0409067 	0.110907 	30.9302 	-0 	0.41507 	14.528 	
0 	91448.4 	916.789 	1145.99 	0.35 	8.53017 	0.0973258 	4.37444e-05 	
0.00379119 	0.000947796 	4.54291e-12 	0.000454291 	7.42218e-05 	0.000380069 	0 	0 	0 	
8.74889e-05 	1.72991e-09 	0.92 	0.04 	0.04 	0.0350291 	-2.58101e-07 	
0.07 	-0.0409067 	0.110907 	61.8605 	-0 	1.66028 	13.2828 	
0 	182897 	1833.58 	2291.97 	0.35 	17.0603 	0.0973259 	8.74889e-05 	
0.00758237 	0.00189559 	7.09096e-12 	0.000709096 	0.000371109 	0.000337987 	0 	0 	0 	
0.000174978 	2.88318e-09 	0.92 	0.04 	0.04 	0.035029 	-2.6018e-07 	
0.07 	-0.0409067 	0.110907 	61.8605 	-0 	3.32056 	11.6225 	
0 	182897 	1833.58 	2291.97 	0.35 	17.0603 	0.0973262 	8.74889e-05 	
0.00758237 	0.00189559 	1.52086e-11 	0.00152086 	0.00126178 	0.000259082 	0 	0 	0 	
0.000262467 	4.03647e-09 	0.92 	0.04 	0.04 	0.035029 	-2.61982e-07 	
0.07 	-0.0409067 	0.110907 	61.8605 	-0 	4.98086 	9.96218 	
0 	182897 	1833.58 	2291.97 	0.35 	17.0603 	0.0973268 	8.74889e-05 	
0.00758237 	0.00189559 	2.93693e-11 	0.00293693 	0.00274623 	0.000190697 	0 	0 	0 	
0.000349956 	5.18976e-09 	0.92 	0.04 	0.04 	0.0350289 	-2.63507e-07 	
0.07 	-0.0409067 	0.110907 	61.8605 	-0 	6.64116 	8.30188 	
0 	182897 	1833.58 	2291.97 	0.35 	17.0603 	0.0973277 	8.74889e-05 	
0.00758237 	0.00189559 	4.95732e-11 	0.00495732 	0.00482448 	0.000132832 	0 	0 	0 	
0.000437444 	6.34234e-09 	0.92 	0.04 	0.04 	0.0350289 	-2.64754e-07 	
0.07 	-0.0409067 	0.110907 	61.8605 	-0 	8.30148 	6.64155 	
0 	182897 	1833.58 	2291.97 	0.35 	17.0603 	0.0973289 	8.74889e-05 	
0.00758237 	0.00189559 	7.58205e-11 	0.00758205 	0.00749656 	8.54874e-05 	0 	0 	0 	
0.000524933 	7.49494e-09 	0.92 	0.04 	0.04 	0.0350288 	-2.65724e-07 	
0.07 	-0.0409067 	0.110907 	61.8605 	-0 	9.96183 	4.98121 	
0 	182897 	1833.58 	2291.97 	0.35 	17.0603 	0.0973303 	8.74889e-05 	
0.00758237 	0.00189559 	1.08112e-10 	0.0108112 	0.0107625 	4.86629e-05 	0 	0 	0 	
0.000612422 	8.6472e-09 	0.92 	0.04 	0.04 	0.0350287 	-2.66417e-07 	
0.07 	-0.0409067 	0.110907 	61.8605 	-0 	11.6222 	3.32084 	
0 	182897 	1833.58 	2291.97 	0.35 	17.0603 	0.097332 	8.74889e-05 	
0.00758237 	0.00189559 	1.46447e-10 	0.0146447 	0.0146223 	2.23591e-05 	0 	0 	0 	
0.000699911 	9.79948e-09 	0.92 	0.04 	0.04 	0.0350286 	-2.66833e-07 	
0.07 	-0.0409067 	0.110907 	61.8605 	-0 	13.2826 	1.66044 	
0 	182897 	1833.58 	2291.97 	0.35 	17.0603 	0.0973339 	8.74889e-05 	
0.00758237 	0.00189559 	1.90826e-10 	0.0190826 	0.0190761 	6.57632e-06 	0 	0 	0 	
0.0007874 	1.0376e-08 	0.92 	0.04 	0.04 	0.0350284 	-2.66972e-07 	
0.07 	-0.0409067 	0.110907 	30.9302 	-0 	14.528 	0.415114 	
0 	91448.4 	916.789 	1145.99 	0.35 	8.53017 	0.0973361 	4.37444e-05 	
0.00379119 	0.000947796 	2.14527e-10 	0.0214527 	0.0214514 	1.3153e-06 	0 	0 	0 	
ZONE T = "t = 2e-08 [s]" I = 10 SOLUTIONTIME = 2.0000000000000E-08
0 	5.76458e-10 	0.92 	0.04 	0.04 	0.0350295 	-2.55747e-07 	
-0.0350293 	-0.0409067 	0.00587739 	0.830205 	4.3019e-09 	0.415073 	14.5281 	
2.08074e-11 	91448.4 	916.789 	1145.99 	0.35 	8.53017 	0.0973188 	4.37444e-05 	
0.00379119 	0.000947796 	9.08588e-12 	0.000454297 	0.000148445 	0.000760143 	0 	0 	0 	
8.74889e-05 	1.72829e-09 	0.92 	0.04 	0.04 	0.0350295 	-2.58103e-07 	
-0.0350293 	-0.0409067 	0.0058774 	1.66041 	1.29057e-08 	1.66029 	13.2829 	
4.16149e-11 	182897 	1833.58 	2291.97 	0.35 	17.0603 	0.0973189 	8.74889e-05 	
0.00758237 	0.00189559 	1.4182e-11 	0.000709106 	0.000742224 	0.000675978 	0 	0 	0 	
0.000174978 	2.88121e-09 	0.92 	0.04 	0.04 	0.0350295 	-2.60182e-07 	
-0.0350293 	-0.0409067 	0.00587742 	1.66042 	2.15095e-08 	3.32059 	11.6226 	
4.1615e-11 	182897 	1833.58 	2291.97 	0.35 	17.0603 	0.0973193 	8.74889e-05 	
0.00758237 	0.00189559 	3.04174e-11 	0.00152088 	0.00252357 	0.000518168 	0 	0 	0 	
0.000262467 	4.03414e-09 	0.92 	0.04 	0.04 	0.0350294 	-2.61984e-07 	
-0.0350293 	-0.0409067 	0.00587746 	1.66043 	3.01134e-08 	4.98089 	9.96225 	
4.16153e-11 	182897 	1833.58 	2291.97 	0.35 	17.0603 	0.0973199 	8.74889e-05 	
0.00758237 	0.00189559 	5.87389e-11 	0.00293697 	0.0054925 	0.000381397 	0 	0 	0 	
0.000349956 	5.18599e-09 	0.92 	0.04 	0.04 	0.0350294 	-2.63509e-07 	
-0.0350292 	-0.0409067 	0.00587751 	1.66044 	3.87174e-08 	6.64121 	8.30194 	
4.16157e-11 	182897 	1833.58 	2291.97 	0.35 	17.0603 	0.0973208 	8.74889e-05 	
0.00758237 	0.00189559 	9.9147e-11 	0.00495739 	0.00964904 	0.000265666 	0 	0 	0 	
0.000437444 	6.33894e-09 	0.92 	0.04 	0.04 	0.0350293 	-2.64756e-07 	
-0.0350291 	-0.0409067 	0.00587758 	1.66046 	4.73214e-08 	8.30154 	6.6416 	
4.16162e-11 	182897 	1833.58 	2291.97 	0.35 	17.0603 	0.0973219 	8.74889e-05 	
0.00758237 	0.00189559 	1.51642e-10 	0.00758216 	0.0149932 	0.000170976 	0 	0 	0 	
0.000524933 	7.49082e-09 	0.92 	0.04 	0.04 	0.0350292 	-2.65726e-07 	
-0.035029 	-0.0409067 	0.00587766 	1.66049 	5.59256e-08 	9.9619 	4.98125 	
4.16168e-11 	182897 	1833.58 	2291.97 	0.35 	17.0603 	0.0973233 	8.74889e-05 	
0.00758237 	0.00189559 	2.16225e-10 	0.0108113 	0.0215251 	9.73266e-05 	0 	0 	0 	
0.000612422 	8.64381e-09 	0.92 	0.04 	0.04 	0.0350291 	-2.66419e-07 	
-0.0350289 	-0.0409067 	0.00587777 	1.66052 	6.453e-08 	11.6223 	3.32086 	
4.16175e-11 	182897 	1833.58 	2291.97 	0.35 	17.0603 	0.097325 	8.74889e-05 	
0.00758237 	0.00189559 	2.92896e-10 	0.0146449 	0.0292448 	4.47184e-05 	0 	0 	0 	
0.000699911 	9.79682e-09 	0.92 	0.04 	0.04 	0.035029 	-2.66835e-07 	
-0.0350288 	-0.0409067 	0.00587788 	1.66055 	7.31345e-08 	13.2827 	1.66045 	
4.16183e-11 	182897 	1833.58 	2291.97 	0.35 	17.0603 	0.097327 	8.74889e-05 	
0.00758237 	0.00189559 	3.81656e-10 	0.0190829 	0.0381524 	1.31527e-05 	0 	0 	0 	
0.0007874 	1.03733e-08 	0.92 	0.04 	0.04 	0.0350288 	-2.66974e-07 	
-0.0350287 	-0.0409067 	0.00587802 	0.830293 	7.31345e-08 	14.528 	0.415117 	
2.08096e-11 	91448.4 	916.789 	1145.99 	0.35 	8.53017 	0.0973292 	4.37444e-05 	
0.00379119 	0.000947796 	4.29058e-10 	0.0214531 	0.0429032 	2.63062e-06 	0 	0 	0 	
ZONE T = "t = 3e-08 [s]" I = 10 SOLUTIONTIME = 3.0000000000000E-08
0 	5.7664e-10 	0.92 	0.04 	0.04 	0.0350295 	-2.55747e-07 	
-0.0350297 	-0.0409067 	0.00587698 	0.830146 	4.30193e-09 	0.415073 	14.5281 	
4.16134e-11 	91448.4 	916.789 	1145.99 	0.35 	8.53017 	0.0973188 	4.37444e-05 	
0.00379119 	0.000947796 	1.36289e-11 	0.000454297 	0.000222668 	0.00114022 	0 	0 	0 	
8.74889e-05 	1.72919e-09 	0.92 	0.04 	0.04 	0.0350295 	-2.58103e-07 	
-0.0350297 	-0.0409067 	0.00587698 	1.66029 	1.29058e-08 	1.66029 	13.2829 	
8.32268e-11 	182897 	1833.58 	2291.97 	0.35 	17.0603 	0.0973189 	8.74889e-05 	
0.00758237 	0.00189559 	2.12731e-11 	0.000709106 	0.00111334 	0.00101397 	0 	0 	0 	
0.000174978 	2.88248e-09 	0.92 	0.04 	0.04 	0.0350295 	-2.60182e-07 	
-0.0350297 	-0.0409067 	0.005877 	1.6603 	2.15097e-08 	3.32059 	11.6226 	
8.32271e-11 	182897 	1833.58 	2291.97 	0.35 	17.0603 	0.0973193 	8.74889e-05 	
0.00758237 	0.00189559 	4.56262e-11 	0.00152088 	0.00378536 	0.000777253 	0 	0 	0 	
0.000262467 	4.03577e-09 	0.92 	0.04 	0.04 	0.0350294 	-2.61984e-07 	
-0.0350297 	-0.0409067 	0.00587704 	1.66031 	3.01136e-08 	4.98089 	9.96225 	
8.32277e-11 	182897 	1833.58 	2291.97 	0.35 	17.0603 	0.0973199 	8.74889e-05 	
0.00758237 	0.00189559 	8.81086e-11 	0.00293697 	0.00823876 	0.000572097 	0 	0 	0 	
0.000349956 	5.18944e-09 	0.92 	0.04 	0.04 	0.0350294 	-2.63509e-07 	
-0.0350296 	-0.0409067 	0.00587709 	1.66032 	3.87177e-08 	6.64121 	8.30194 	
8.32284e-11 	182897 	1833.58 	2291.97 	0.35 	17.0603 	0.0973208 	8.74889e-05 	
0.00758237 	0.00189559 	1.48721e-10 	0.00495739 	0.0144736 	0.000398501 	0 	0 	0 	
0.000437444 	6.34239e-09 	0.92 	0.04 	0.04 	0.0350293 	-2.64756e-07 	
-0.0350296 	-0.0409067 	0.00587716 	1.66034 	4.73218e-08 	8.30154 	6.6416 	
8.32294e-11 	182897 	1833.58 	2291.97 	0.35 	17.0603 	0.0973219 	8.74889e-05 	
0.00758237 	0.00189559 	2.27464e-10 	0.00758216 	0.0224899 	0.000256465 	0 	0 	0 	
0.000524933 	7.49427e-09 	0.92 	0.04 	0.04 	0.0350292 	-2.65726e-07 	
-0.0350295 	-0.0409067 	0.00587725 	1.66037 	5.5926e-08 	9.9619 	4.98125 	
8.32306e-11 	182897 	1833.58 	2291.97 	0.35 	17.0603 	0.0973233 	8.74889e-05 	
0.00758237 	0.00189559 	3.24338e-10 	0.0108113 	0.0322878 	0.00014599 	0 	0 	0 	
0.000612422 	8.64617e-09 	0.92 	0.04 	0.04 	0.0350291 	-2.66419e-07 	
-0.0350294 	-0.0409067 	0.00587735 	1.6604 	6.45304e-08 	11.6223 	3.32086 	
8.3232e-11 	182897 	1833.58 	2291.97 	0.35 	17.0603 	0.097325 	8.74889e-05 	
0.00758237 	0.00189559 	4.39344e-10 	0.0146449 	0.0438674 	6.70778e-05 	0 	0 	0 	
0.000699911 	9.79882e-09 	0.92 	0.04 	0.04 	0.035029 	-2.66835e-07 	
-0.0350292 	-0.0409067 	0.00587747 	1.66043 	7.31351e-08 	13.2827 	1.66045 	
8.32337e-11 	182897 	1833.58 	2291.97 	0.35 	17.0603 	0.097327 	8.74889e-05 	
0.00758237 	0.00189559 	5.72485e-10 	0.0190829 	0.0572287 	1.97292e-05 	0 	0 	0 	
0.0007874 	1.03753e-08 	0.92 	0.04 	0.04 	0.0350288 	-2.66974e-07 	
-0.0350291 	-0.0409067 	0.0058776 	0.830234 	7.31351e-08 	14.528 	0.415117 	
4.16178e-11 	91448.4 	916.789 	1145.99 	0.35 	8.53017 	0.0973292 	4.37444e-05 	
0.00379119 	0.000947796 	6.43588e-10 	0.0214531 	0.0643549 	3.94594e-06 	0 	0 	0 	
ZONE T = "t = 4e-08 [s]" I = 10 SOLUTIONTIME = 4.0000000000000E-08
0 	5.76458e-10 	0.92 	0.04 	0.04 	0.0350295 	-2.55747e-07 	
-0.0350297 	-0.0409067 	0.00587698 	0.830146 	4.30193e-09 	0.415073 	14.5281 	
6.24193e-11 	91448.4 	916.789 	1145.99 	0.35 	8.53017 	0.0973188 	4.37444e-05 	
0.00379119 	0.000947796 	1.81718e-11 	0.000454297 	0.00029689 	0.00152029 	0 	0 	0 	
8.74889e-05 	1.72938e-09 	0.92 	0.04 	0.04 	0.0350295 	-2.58103e-07 	
-0.0350297 	-0.0409067 	0.00587698 	1.66029 	1.29058e-08 	1.66029 	13.2829 	
1.24839e-10 	182897 	1833.58 	2291.97 	0.35 	17.0603 	0.0973189 	8.74889e-05 	
0.00758237 	0.00189559 	2.83642e-11 	0.000709106 	0.00148445 	0.00135196 	0 	0 	0 	
0.000174978 	2.8823e-09 	0.92 	0.04 	0.04 	0.0350295 	-2.60182e-07 	
-0.0350297 	-0.0409067 	0.005877 	1.6603 	2.15097e-08 	3.32059 	11.6226 	
1.24839e-10 	182897 	1833.58 	2291.97 	0.35 	17.0603 	0.0973193 	8.74889e-05 	
0.00758237 	0.00189559 	6.08349e-11 	0.00152088 	0.00504716 	0.00103634 	0 	0 	0 	
0.000262467 	4.03523e-09 	0.92 	0.04 	0.04 	0.0350294 	-2.61984e-07 	
-0.0350297 	-0.0409067 	0.00587704 	1.66031 	3.01136e-08 	4.98089 	9.96225 	
1.2484e-10 	182897 	1833.58 	2291.97 	0.35 	17.0603 	0.0973199 	8.74889e-05 	
0.00758237 	0.00189559 	1.17478e-10 	0.00293697 	0.010985 	0.000762797 	0 	0 	0 	
0.000349956 	5.18817e-09 	0.92 	0.04 	0.04 	0.0350294 	-2.63509e-07 	
-0.0350296 	-0.0409067 	0.00587709 	1.66032 	3.87177e-08 	6.64121 	8.30194 	
1.24841e-10 	182897 	1833.58 	2291.97 	0.35 	17.0603 	0.0973208 	8.74889e-05 	
0.00758237 	0.00189559 	1.98295e-10 	0.00495739 	0.0192981 	0.000531335 	0 	0 	0 	
0.000437444 	6.34148e-09 	0.92 	0.04 	0.04 	0.0350293 	-2.64756e-07 	
-0.0350296 	-0.0409067 	0.00587716 	1.66034 	4.73218e-08 	8.30154 	6.6416 	
1.24843e-10 	182897 	1833.58 	2291.97 	0.35 	17.0603 	0.0973219 	8.74889e-05 	
0.00758237 	0.00189559 	3.03285e-10 	0.00758216 	0.0299866 	0.000341954 	0 	0 	0 	
0.000524933 	7.49445e-09 	0.92 	0.04 	0.04 	0.0350292 	-2.65726e-07 	
-0.0350295 	-0.0409067 	0.00587725 	1.66037 	5.5926e-08 	9.9619 	4.98125 	
1.24844e-10 	182897 	1833.58 	2291.97 	0.35 	17.0603 	0.0973233 	8.74889e-05 	
0.00758237 	0.00189559 	4.32451e-10 	0.0108113 	0.0430504 	0.000194654 	0 	0 	0 	
0.000612422 	8.64817e-09 	0.92 	0.04 	0.04 	0.0350291 	-2.66419e-07 	
-0.0350294 	-0.0409067 	0.00587735 	1.6604 	6.45304e-08 	11.6223 	3.32086 	
1.24847e-10 	182897 	1833.58 	2291.97 	0.35 	17.0603 	0.097325 	8.74889e-05 	
0.00758237 	0.00189559 	5.85793e-10 	0.0146449 	0.0584899 	8.94372e-05 	0 	0 	0 	
0.000699911 	9.80118e-09 	0.92 	0.04 	0.04 	0.035029 	-2.66835e-07 	
-0.0350292 	-0.0409067 	0.00587747 	1.66043 	7.31351e-08 	13.2827 	1.66045 	
1.24849e-10 	182897 	1833.58 	2291.97 	0.35 	17.0603 	0.097327 	8.74889e-05 	
0.00758237 	0.00189559 	7.63314e-10 	0.0190829 	0.0763051 	2.63056e-05 	0 	0 	0 	
0.0007874 	1.0377e-08 	0.92 	0.04 	0.04 	0.0350288 	-2.66974e-07 	
-0.0350291 	-0.0409067 	0.0058776 	0.830234 	7.31351e-08 	14.528 	0.415117 	
6.2426e-11 	91448.4 	916.789 	1145.99 	0.35 	8.53017 	0.0973292 	4.37444e-05 	
0.00379119 	0.000947796 	8.58119e-10 	0.0214531 	0.0858066 	5.26126e-06 	0 	0 	0 	
ZONE T = "t = 5.5e-08 [s]" I = 10 SOLUTIONTIME = 5.5000000000000E-08
0 	5.76458e-10 	0.92 	0.04 	0.04 	0.0350295 	-2.55747e-07 	
-0.0350297 	-0.0409067 	0.00587698 	0.830146 	4.30193e-09 	0.415073 	14.5281 	
8.32253e-11 	91448.4 	916.789 	1145.99 	0.35 	8.53017 	0.0973188 	4.37444e-05 	
0.00379119 	0.000947796 	2.49863e-11 	0.000454297 	0.00027215 	0.0013936 	0 	0 	0 	
8.74889e-05 	1.72938e-09 	0.92 	0.04 	0.04 	0.0350295 	-2.58103e-07 	
-0.0350297 	-0.0409067 	0.00587698 	1.66029 	1.29058e-08 	1.66029 	13.2829 	
1.66451e-10 	182897 	1833.58 	2291.97 	0.35 	17.0603 	0.0973189 	8.74889e-05 	
0.00758237 	0.00189559 	3.90007e-11 	0.000709106 	0.00136075 	0.0012393 	0 	0 	0 	
0.000174978 	2.8823e-09 	0.92 	0.04 	0.04 	0.0350295 	-2.60182e-07 	
-0.0350297 	-0.0409067 	0.005877 	1.6603 	2.15097e-08 	3.32059 	11.6226 	
1.66451e-10 	182897 	1833.58 	2291.97 	0.35 	17.0603 	0.0973193 	8.74889e-05 	
0.00758237 	0.00189559 	8.36481e-11 	0.00152088 	0.00462656 	0.000949978 	0 	0 	0 	
0.000262467 	4.03523e-09 	0.92 	0.04 	0.04 	0.0350294 	-2.61984e-07 	
-0.0350297 	-0.0409067 	0.00587704 	1.66031 	3.01136e-08 	4.98089 	9.96225 	
1.66452e-10 	182897 	1833.58 	2291.97 	0.35 	17.0603 	0.0973199 	8.74889e-05 	
0.00758237 	0.00189559 	1.61533e-10 	0.00293697 	0.0100696 	0.000699231 	0 	0 	0 	
0.000349956 	5.18817e-09 	0.92 	0.04 	0.04 	0.0350294 	-2.63509e-07 	
-0.0350296 	-0.0409067 	0.00587709 	1.66032 	3.87177e-08 	6.64121 	8.30194 	
1.66454e-10 	182897 	1833.58 	2291.97 	0.35 	17.0603 	0.0973208 	8.74889e-05 	
0.00758237 	0.00189559 	2.72656e-10 	0.00495739 	0.01769 	0.000487057 	0 	0 	0 	
0.000437444 	6.34112e-09 	0.92 	0.04 	0.04 	0.0350293 	-2.64756e-07 	
-0.0350296 	-0.0409067 	0.00587716 	1.66034 	4.73218e-08 	8.30154 	6.6416 	
1.66456e-10 	182897 	1833.58 	2291.97 	0.35 	17.0603 	0.0973219 	8.74889e-05 	
0.00758237 	0.00189559 	4.17018e-10 	0.00758216 	0.0274877 	0.000313458 	0 	0 	0 	
0.000524933 	7.49409e-09 	0.92 	0.04 	0.04 	0.0350292 	-2.65726e-07 	
-0.0350295 	-0.0409067 	0.00587725 	1.66037 	5.5926e-08 	9.9619 	4.98125 	
1.66458e-10 	182897 	1833.58 	2291.97 	0.35 	17.0603 	0.0973233 	8.74889e-05 	
0.00758237 	0.00189559 	5.94621e-10 	0.0108113 	0.0394629 	0.000178433 	0 	0 	0 	
0.000612422 	8.64708e-09 	0.92 	0.04 	0.04 	0.0350291 	-2.66419e-07 	
-0.0350294 	-0.0409067 	0.00587735 	1.6604 	6.45304e-08 	11.6223 	3.32086 	
1.66461e-10 	182897 	1833.58 	2291.97 	0.35 	17.0603 	0.097325 	8.74889e-05 	
0.00758237 	0.00189559 	8.05467e-10 	0.0146449 	0.0536158 	8.19842e-05 	0 	0 	0 	
0.000699911 	9.80009e-09 	0.92 	0.04 	0.04 	0.035029 	-2.66835e-07 	
-0.0350292 	-0.0409067 	0.00587747 	1.66043 	7.31352e-08 	13.2827 	1.66045 	
1.66464e-10 	182897 	1833.58 	2291.97 	0.35 	17.0603 	0.097327 	8.74889e-05 	
0.00758237 	0.00189559 	1.04956e-09 	0.0190829 	0.0699464 	2.41135e-05 	0 	0 	0 	
0.0007874 	1.03771e-08 	0.92 	0.04 	0.04 	0.0350288 	-2.66974e-07 	
-0.0350291 	-0.0409067 	0.0058776 	0.830234 	7.31352e-08 	14.528 	0.415117 	
8.32341e-11 	91448.4 	916.789 	1145.99 	0.35 	8.53017 	0.0973292 	4.37444e-05 	
0.00379119 	0.000947796 	1.17991e-09 	0.0214531 	0.0786562 	4.82282e-06 	0 	0 	0 	
ZONE T = "t = 7.75e-08 [s]" I = 10 SOLUTIONTIME = 7.7500000000000E-08
0 	5.76378e-10 	0.92 	0.04 	0.04 	0.0350295 	-2.55747e-07 	
-0.0350297 	-0.0409067 	0.00587698 	0.830146 	4.30193e-09 	0.415073 	14.5281 	
1.14434e-10 	91448.4 	916.789 	1145.99 	0.35 	8.53017 	0.0973188 	4.37444e-05 	
0.00379119 	0.000947796 	3.5208e-11 	0.000454297 	0.000255656 	0.00130914 	0 	0 	0 	
8.74889e-05 	1.72897e-09 	0.92 	0.04 	0.04 	0.0350295 	-2.58103e-07 	
-0.0350297 	-0.0409067 	0.00587698 	1.66029 	1.29058e-08 	1.66029 	13.2829 	
2.28869e-10 	182897 	1833.58 	2291.97 	0.35 	17.0603 	0.0973189 	8.74889e-05 	
0.00758237 	0.00189559 	5.49556e-11 	0.000709106 	0.00127828 	0.00116419 	0 	0 	0 	
0.000174978 	2.88173e-09 	0.92 	0.04 	0.04 	0.0350295 	-2.60182e-07 	
-0.0350297 	-0.0409067 	0.005877 	1.6603 	2.15097e-08 	3.32059 	11.6226 	
2.28869e-10 	182897 	1833.58 	2291.97 	0.35 	17.0603 	0.0973193 	8.74889e-05 	
0.00758237 	0.00189559 	1.17868e-10 	0.00152088 	0.00434617 	0.000892405 	0 	0 	0 	
0.000262467 	4.0345e-09 	0.92 	0.04 	0.04 	0.0350294 	-2.61984e-07 	
-0.0350297 	-0.0409067 	0.00587704 	1.66031 	3.01136e-08 	4.98089 	9.96225 	
2.28871e-10 	182897 	1833.58 	2291.97 	0.35 	17.0603 	0.0973199 	8.74889e-05 	
0.00758237 	0.00189559 	2.27615e-10 	0.00293697 	0.00945935 	0.000656854 	0 	0 	0 	
0.000349956 	5.18712e-09 	0.92 	0.04 	0.04 	0.0350294 	-2.63509e-07 	
-0.0350296 	-0.0409067 	0.00587709 	1.66032 	3.87177e-08 	6.64121 	8.30194 	
2.28873e-10 	182897 	1833.58 	2291.97 	0.35 	17.0603 	0.0973208 	8.74889e-05 	
0.00758237 	0.00189559 	3.84197e-10 	0.00495739 	0.0166179 	0.000457539 	0 	0 	0 	
0.000437444 	6.33991e-09 	0.92 	0.04 	0.04 	0.0350293 	-2.64756e-07 	
-0.0350296 	-0.0409067 	0.00587716 	1.66034 	4.73218e-08 	8.30154 	6.6416 	
2.28876e-10 	182897 	1833.58 	2291.97 	0.35 	17.0603 	0.0973219 	8.74889e-05 	
0.00758237 	0.00189559 	5.87616e-10 	0.00758216 	0.0258218 	0.00029446 	0 	0 	0 	
0.000524933 	7.4932e-09 	0.92 	0.04 	0.04 	0.0350292 	-2.65726e-07 	
-0.0350295 	-0.0409067 	0.00587725 	1.66037 	5.5926e-08 	9.9619 	4.98125 	
2.28879e-10 	182897 	1833.58 	2291.97 	0.35 	17.0603 	0.0973233 	8.74889e-05 	
0.00758237 	0.00189559 	8.37875e-10 	0.0108113 	0.0370713 	0.000167619 	0 	0 	0 	
0.000612422 	8.64587e-09 	0.92 	0.04 	0.04 	0.0350291 	-2.66419e-07 	
-0.0350294 	-0.0409067 	0.00587735 	1.6604 	6.45304e-08 	11.6223 	3.32086 	
2.28883e-10 	182897 	1833.58 	2291.97 	0.35 	17.0603 	0.097325 	8.74889e-05 	
0.00758237 	0.00189559 	1.13498e-09 	0.0146449 	0.0503664 	7.70155e-05 	0 	0 	0 	
0.000699911 	9.79904e-09 	0.92 	0.04 	0.04 	0.035029 	-2.66835e-07 	
-0.0350292 	-0.0409067 	0.00587747 	1.66043 	7.31352e-08 	13.2827 	1.66045 	
2.28887e-10 	182897 	1833.58 	2291.97 	0.35 	17.0603 	0.097327 	8.74889e-05 	
0.00758237 	0.00189559 	1.47892e-09 	0.0190829 	0.0657073 	2.26521e-05 	0 	0 	0 	
0.0007874 	1.03752e-08 	0.92 	0.04 	0.04 	0.0350288 	-2.66974e-07 	
-0.0350291 	-0.0409067 	0.0058776 	0.830234 	7.31352e-08 	14.528 	0.415117 	
1.14446e-10 	91448.4 	916.789 	1145.99 	0.35 	8.53017 	0.0973292 	4.37444e-05 	
0.00379119 	0.000947796 	1.66261e-09 	0.0214531 	0.0738892 	4.53053e-06 	0 	0 	0 	
ZONE T = "t = 1.1125e-07 [s]" I = 10 SOLUTIONTIME = 1.1125000000000E-07
0 	5.76512e-10 	0.92 	0.04 	0.04 	0.0350295 	-2.55747e-07 	
-0.0350297 	-0.0409067 	0.00587698 	0.830146 	4.30193e-09 	0.415073 	14.5281 	
1.61248e-10 	91448.4 	916.789 	1145.99 	0.35 	8.53017 	0.0973188 	4.37444e-05 	
0.00379119 	0.000947796 	5.05405e-11 	0.000454297 	0.00024466 	0.00125284 	0 	0 	0 	
8.74889e-05 	1.72964e-09 	0.92 	0.04 	0.04 	0.0350295 	-2.58103e-07 	
-0.0350297 	-0.0409067 	0.00587698 	1.66029 	1.29058e-08 	1.66029 	13.2829 	
3.22495e-10 	182897 	1833.58 	2291.97 	0.35 	17.0603 	0.0973189 	8.74889e-05 	
0.00758237 	0.00189559 	7.8888e-11 	0.000709106 	0.0012233 	0.00111412 	0 	0 	0 	
0.000174978 	2.88267e-09 	0.92 	0.04 	0.04 	0.0350295 	-2.60182e-07 	
-0.0350297 	-0.0409067 	0.005877 	1.6603 	2.15097e-08 	3.32059 	11.6226 	
3.22497e-10 	182897 	1833.58 	2291.97 	0.35 	17.0603 	0.0973193 	8.74889e-05 	
0.00758237 	0.00189559 	1.69198e-10 	0.00152088 	0.00415924 	0.000854022 	0 	0 	0 	
0.000262467 	4.03571e-09 	0.92 	0.04 	0.04 	0.0350294 	-2.61984e-07 	
-0.0350297 	-0.0409067 	0.00587704 	1.66031 	3.01136e-08 	4.98089 	9.96225 	
3.22499e-10 	182897 	1833.58 	2291.97 	0.35 	17.0603 	0.0973199 	8.74889e-05 	
0.00758237 	0.00189559 	3.26737e-10 	0.00293697 	0.0090525 	0.000628603 	0 	0 	0 	
0.000349956 	5.18887e-09 	0.92 	0.04 	0.04 	0.0350294 	-2.63509e-07 	
-0.0350296 	-0.0409067 	0.00587709 	1.66032 	3.87177e-08 	6.64121 	8.30194 	
3.22502e-10 	182897 	1833.58 	2291.97 	0.35 	17.0603 	0.0973208 	8.74889e-05 	
0.00758237 	0.00189559 	5.51509e-10 	0.00495739 	0.0159031 	0.00043786 	0 	0 	0 	
0.000437444 	6.34193e-09 	0.92 	0.04 	0.04 	0.0350293 	-2.64756e-07 	
-0.0350296 	-0.0409067 	0.00587716 	1.66034 	4.73218e-08 	8.30154 	6.6416 	
3.22505e-10 	182897 	1833.58 	2291.97 	0.35 	17.0603 	0.0973219 	8.74889e-05 	
0.00758237 	0.00189559 	8.43514e-10 	0.00758216 	0.0247112 	0.000281796 	0 	0 	0 	
0.000524933 	7.49468e-09 	0.92 	0.04 	0.04 	0.0350292 	-2.65726e-07 	
-0.0350295 	-0.0409067 	0.00587725 	1.66037 	5.5926e-08 	9.9619 	4.98125 	
3.2251e-10 	182897 	1833.58 	2291.97 	0.35 	17.0603 	0.0973233 	8.74889e-05 	
0.00758237 	0.00189559 	1.20276e-09 	0.0108113 	0.0354768 	0.00016041 	0 	0 	0 	
0.000612422 	8.64789e-09 	0.92 	0.04 	0.04 	0.0350291 	-2.66419e-07 	
-0.0350294 	-0.0409067 	0.00587735 	1.6604 	6.45304e-08 	11.6223 	3.32086 	
3.22516e-10 	182897 	1833.58 	2291.97 	0.35 	17.0603 	0.097325 	8.74889e-05 	
0.00758237 	0.00189559 	1.62924e-09 	0.0146449 	0.0482001 	7.37031e-05 	0 	0 	0 	
0.000699911 	9.80079e-09 	0.92 	0.04 	0.04 	0.035029 	-2.66835e-07 	
-0.0350292 	-0.0409067 	0.00587747 	1.66043 	7.31353e-08 	13.2827 	1.66045 	
3.22522e-10 	182897 	1833.58 	2291.97 	0.35 	17.0603 	0.097327 	8.74889e-05 	
0.00758237 	0.00189559 	2.12297e-09 	0.0190829 	0.0628812 	2.16778e-05 	0 	0 	0 	
0.0007874 	1.03773e-08 	0.92 	0.04 	0.04 	0.0350288 	-2.66974e-07 	
-0.0350291 	-0.0409067 	0.0058776 	0.830234 	7.31353e-08 	14.528 	0.415117 	
1.61265e-10 	91448.4 	916.789 	1145.99 	0.35 	8.53017 	0.0973292 	4.37444e-05 	
0.00379119 	0.000947796 	2.38665e-09 	0.0214531 	0.0707112 	4.33568e-06 	0 	0 	0 	
ZONE T = "t = 1.61875e-07 [s]" I = 10 SOLUTIONTIME = 1.6187500000000E-07
0 	5.76422e-10 	0.92 	0.04 	0.04 	0.0350295 	-2.55747e-07 	
-0.0350297 	-0.0409067 	0.00587698 	0.830146 	4.30193e-09 	0.415073 	14.5281 	
2.31468e-10 	91448.4 	916.789 	1145.99 	0.35 	8.53017 	0.0973188 	4.37444e-05 	
0.00379119 	0.000947796 	7.35393e-11 	0.000454297 	0.00023733 	0.0012153 	0 	0 	0 	
8.74889e-05 	1.7292e-09 	0.92 	0.04 	0.04 	0.0350295 	-2.58103e-07 	
-0.0350297 	-0.0409067 	0.00587698 	1.66029 	1.29058e-08 	1.66029 	13.2829 	
4.62936e-10 	182897 	1833.58 	2291.97 	0.35 	17.0603 	0.0973189 	8.74889e-05 	
0.00758237 	0.00189559 	1.14786e-10 	0.000709106 	0.00118665 	0.00108074 	0 	0 	0 	
0.000174978 	2.88205e-09 	0.92 	0.04 	0.04 	0.0350295 	-2.60182e-07 	
-0.0350297 	-0.0409067 	0.005877 	1.6603 	2.15097e-08 	3.32059 	11.6226 	
4.62937e-10 	182897 	1833.58 	2291.97 	0.35 	17.0603 	0.0973193 	8.74889e-05 	
0.00758237 	0.00189559 	2.46192e-10 	0.00152088 	0.00403462 	0.000828434 	0 	0 	0 	
0.000262467 	4.0349e-09 	0.92 	0.04 	0.04 	0.0350294 	-2.61984e-07 	
-0.0350297 	-0.0409067 	0.00587704 	1.66031 	3.01136e-08 	4.98089 	9.96225 	
4.6294e-10 	182897 	1833.58 	2291.97 	0.35 	17.0603 	0.0973199 	8.74889e-05 	
0.00758237 	0.00189559 	4.75421e-10 	0.00293697 	0.00878127 	0.000609768 	0 	0 	0 	
0.000349956 	5.1877e-09 	0.92 	0.04 	0.04 	0.0350294 	-2.63509e-07 	
-0.0350296 	-0.0409067 	0.00587709 	1.66032 	3.87177e-08 	6.64121 	8.30194 	
4.62944e-10 	182897 	1833.58 	2291.97 	0.35 	17.0603 	0.0973208 	8.74889e-05 	
0.00758237 	0.00189559 	8.02476e-10 	0.00495739 	0.0154266 	0.000424741 	0 	0 	0 	
0.000437444 	6.34065e-09 	0.92 	0.04 	0.04 	0.0350293 	-2.64756e-07 	
-0.0350296 	-0.0409067 	0.00587716 	1.66034 	4.73218e-08 	8.30154 	6.6416 	
4.6295e-10 	182897 	1833.58 	2291.97 	0.35 	17.0603 	0.0973219 	8.74889e-05 	
0.00758237 	0.00189559 	1.22736e-09 	0.00758216 	0.0239708 	0.000273352 	0 	0 	0 	
0.000524933 	7.49362e-09 	0.92 	0.04 	0.04 	0.0350292 	-2.65726e-07 	
-0.0350295 	-0.0409067 	0.00587725 	1.66037 	5.5926e-08 	9.9619 	4.98125 	
4.62957e-10 	182897 	1833.58 	2291.97 	0.35 	17.0603 	0.0973233 	8.74889e-05 	
0.00758237 	0.00189559 	1.75008e-09 	0.0108113 	0.0344139 	0.000155603 	0 	0 	0 	
0.000612422 	8.64647e-09 	0.92 	0.04 	0.04 	0.0350291 	-2.66419e-07 	
-0.0350294 	-0.0409067 	0.00587735 	1.6604 	6.45304e-08 	11.6223 	3.32086 	
4.62965e-10 	182897 	1833.58 	2291.97 	0.35 	17.0603 	0.097325 	8.74889e-05 	
0.00758237 	0.00189559 	2.37064e-09 	0.0146449 	0.0467559 	7.14947e-05 	0 	0 	0 	
0.000699911 	9.79948e-09 	0.92 	0.04 	0.04 	0.035029 	-2.66835e-07 	
-0.0350292 	-0.0409067 	0.00587747 	1.66043 	7.31354e-08 	13.2827 	1.66045 	
4.62974e-10 	182897 	1833.58 	2291.97 	0.35 	17.0603 	0.097327 	8.74889e-05 	
0.00758237 	0.00189559 	3.08904e-09 	0.0190829 	0.0609971 	2.10283e-05 	0 	0 	0 	
0.0007874 	1.0376e-08 	0.92 	0.04 	0.04 	0.0350288 	-2.66974e-07 	
-0.0350291 	-0.0409067 	0.0058776 	0.830234 	7.31354e-08 	14.528 	0.415117 	
2.31492e-10 	91448.4 	916.789 	1145.99 	0.35 	8.53017 	0.0973292 	4.37444e-05 	
0.00379119 	0.000947796 	3.47271e-09 	0.0214531 	0.0685925 	4.20577e-06 	0 	0 	0 	
ZONE T = "t = 2.37813e-07 [s]" I = 10 SOLUTIONTIME = 2.3781250000000E-07
0 	5.76506e-10 	0.92 	0.04 	0.04 	0.0350295 	-2.55747e-07 	
-0.0350297 	-0.0409067 	0.00587698 	0.830146 	4.30193e-09 	0.415073 	14.5281 	
3.36798e-10 	91448.4 	916.789 	1145.99 	0.35 	8.53017 	0.0973188 	4.37444e-05 	
0.00379119 	0.000947796 	1.08038e-10 	0.000454297 	0.000232443 	0.00119027 	0 	0 	0 	
8.74889e-05 	1.72957e-09 	0.92 	0.04 	0.04 	0.0350295 	-2.58103e-07 	
-0.0350297 	-0.0409067 	0.00587698 	1.66029 	1.29058e-08 	1.66029 	13.2829 	
6.73596e-10 	182897 	1833.58 	2291.97 	0.35 	17.0603 	0.0973189 	8.74889e-05 	
0.00758237 	0.00189559 	1.68634e-10 	0.000709106 	0.00116221 	0.00105848 	0 	0 	0 	
0.000174978 	2.88258e-09 	0.92 	0.04 	0.04 	0.0350295 	-2.60182e-07 	
-0.0350297 	-0.0409067 	0.005877 	1.6603 	2.15097e-08 	3.32059 	11.6226 	
6.73598e-10 	182897 	1833.58 	2291.97 	0.35 	17.0603 	0.0973193 	8.74889e-05 	
0.00758237 	0.00189559 	3.61684e-10 	0.00152088 	0.00395154 	0.000811375 	0 	0 	0 	
0.000262467 	4.03556e-09 	0.92 	0.04 	0.04 	0.0350294 	-2.61984e-07 	
-0.0350297 	-0.0409067 	0.00587704 	1.66031 	3.01136e-08 	4.98089 	9.96225 	
6.73603e-10 	182897 	1833.58 	2291.97 	0.35 	17.0603 	0.0973199 	8.74889e-05 	
0.00758237 	0.00189559 	6.98447e-10 	0.00293697 	0.00860045 	0.000597212 	0 	0 	0 	
0.000349956 	5.1886e-09 	0.92 	0.04 	0.04 	0.0350294 	-2.63509e-07 	
-0.0350296 	-0.0409067 	0.00587709 	1.66032 	3.87177e-08 	6.64121 	8.30194 	
6.73609e-10 	182897 	1833.58 	2291.97 	0.35 	17.0603 	0.0973208 	8.74889e-05 	
0.00758237 	0.00189559 	1.17893e-09 	0.00495739 	0.015109 	0.000415995 	0 	0 	0 	
0.000437444 	6.34155e-09 	0.92 	0.04 	0.04 	0.0350293 	-2.64756e-07 	
-0.0350296 	-0.0409067 	0.00587716 	1.66034 	4.73218e-08 	8.30154 	6.6416 	
6.73617e-10 	182897 	1833.58 	2291.97 	0.35 	17.0603 	0.0973219 	8.74889e-05 	
0.00758237 	0.00189559 	1.80313e-09 	0.00758216 	0.0234772 	0.000267724 	0 	0 	0 	
0.000524933 	7.49466e-09 	0.92 	0.04 	0.04 	0.0350292 	-2.65726e-07 	
-0.0350295 	-0.0409067 	0.00587725 	1.66037 	5.5926e-08 	9.9619 	4.98125 	
6.73627e-10 	182897 	1833.58 	2291.97 	0.35 	17.0603 	0.0973233 	8.74889e-05 	
0.00758237 	0.00189559 	2.57106e-09 	0.0108113 	0.0337052 	0.000152399 	0 	0 	0 	
0.000612422 	8.64775e-09 	0.92 	0.04 	0.04 	0.0350291 	-2.66419e-07 	