TITLE = "Solution on Domain BulkDomain1D_1"
VARIABLES = "x [m]"  
"Vel_axial" 	"MF_sp(ECDMC)" 	"MF_sp(Li+)" 	"MF_sp(PF6-)" 	"Volt(Electroly)" 	"Porosity []" 	"Control volume thickness [m]" 	"volFrac MgO(S) []" 	"qHeat_accum [J/m3]" 	"qHeat_step [W/m3]" 	"Joule_Lyte [W/m3]" 	"Joule_Solid [W/m3]" 	
ZONE T = "SEP , 0.0000E+00", I = 10, SOLUTIONTIME = 0.000000E+00
ZONETYPE = ORDERED
DATAPACKING = BLOCK
STRANDID = 2
 7.8740000000000E-04  8.4102222222222E-04  8.9464444444444E-04  9.4826666666667E-04  1.0018888888889E-03  1.0555111111111E-03  1.1091333333333E-03  1.1627555555556E-03  1.2163777777778E-03  1.2700000000000E-03 
 0.0000000000000E+00  0.0000000000000E+00  0.0000000000000E+00  0.0000000000000E+00  0.0000000000000E+00  0.0000000000000E+00  0.0000000000000E+00  0.0000000000000E+00  0.0000000000000E+00  0.0000000000000E+00 
 9.2000000000000E-01  9.2000000000000E-01  9.2000000000000E-01  9.2000000000000E-01  9.2000000000000E-01  9.2000000000000E-01  9.2000000000000E-01  9.2000000000000E-01  9.2000000000000E-01  9.2000000000000E-01 
 4.0000000000000E-02  4.0000000000000E-02  4.0000000000000E-02  4.0000000000000E-02  4.0000000000000E-02  4.0000000000000E-02  4.0000000000000E-02  4.0000000000000E-02  4.0000000000000E-02  4.0000000000000E-02 
 4.0000000000000E-02  4.0000000000000E-02  4.0000000000000E-02  4.0000000000000E-02  4.0000000000000E-02  4.0000000000000E-02  4.0000000000000E-02  4.0000000000000E-02  4.0000000000000E-02  4.0000000000000E-02 
-7.0000000000000E-02 -7.0000000000000E-02 -7.0000000000000E-02 -7.0000000000000E-02 -7.0000000000000E-02 -7.0000000000000E-02 -7.0000000000000E-02 -7.0000000000000E-02 -7.0000000000000E-02 -7.0000000000000E-02 
 8.0911499769706E-01  8.0911499769706E-01  8.0911499769706E-01  8.0911499769706E-01  8.0911499769706E-01  8.0911499769706E-01  8.0911499769706E-01  8.0911499769706E-01  8.0911499769706E-01  8.0911499769706E-01 
 2.6811111111111E-05  5.3622222222222E-05  5.3622222222222E-05  5.3622222222222E-05  5.3622222222222E-05  5.3622222222222E-05  5.3622222222222E-05  5.3622222222223E-05  5.3622222222222E-05  2.6811111111111E-05 
 1.9088500230294E-01  1.9088500230294E-01  1.9088500230294E-01  1.9088500230294E-01  1.9088500230294E-01  1.9088500230294E-01  1.9088500230294E-01  1.9088500230294E-01  1.9088500230294E-01  1.9088500230294E-01 
 0.0000000000000E+00  0.0000000000000E+00  0.0000000000000E+00  0.0000000000000E+00  0.0000000000000E+00  0.0000000000000E+00  0.0000000000000E+00  0.0000000000000E+00  0.0000000000000E+00  0.0000000000000E+00 
 0.0000000000000E+00  0.0000000000000E+00  0.0000000000000E+00  0.0000000000000E+00  0.0000000000000E+00  0.0000000000000E+00  0.0000000000000E+00  0.0000000000000E+00  0.0000000000000E+00  0.0000000000000E+00 
 0.0000000000000E+00  0.0000000000000E+00  0.0000000000000E+00  0.0000000000000E+00  0.0000000000000E+00  0.0000000000000E+00  0.0000000000000E+00  0.0000000000000E+00  0.0000000000000E+00  0.0000000000000E+00 
 0.0000000000000E+00  0.0000000000000E+00  0.0000000000000E+00  0.0000000000000E+00  0.0000000000000E+00  0.0000000000000E+00  0.0000000000000E+00  0.0000000000000E+00  0.0000000000000E+00  0.0000000000000E+00 
ZONE T = "SEP , 1.0000E-08", I = 10, SOLUTIONTIME = 1.000000E-08
ZONETYPE = ORDERED
DATAPACKING = BLOCK
STRANDID = 2
 7.8740000000000E-04  8.4102222222222E-04  8.9464444444444E-04  9.4826666666667E-04  1.0018888888889E-03  1.0555111111111E-03  1.1091333333333E-03  1.1627555555556E-03  1.2163777777778E-03  1.2700000000000E-03 
 1.0376515241544E-08  1.0376515241544E-08  1.0376515241544E-08  1.0376515241544E-08  1.0376515241544E-08  1.0376515241544E-08  1.0376515241544E-08  1.0376515241544E-08  1.0376515241544E-08  9.8003664442187E-09 
 9.1999999999986E-01  9.2000000000000E-01  9.2000000000000E-01  9.2000000000000E-01  9.2000000000000E-01  9.2000000000000E-01  9.2000000000000E-01  9.2000000000000E-01  9.2000000000000E-01  9.2000000000016E-01 
 4.0000000000072E-02  4.0000000000000E-02  4.0000000000000E-02  4.0000000000000E-02  4.0000000000000E-02  4.0000000000000E-02  4.0000000000000E-02  4.0000000000000E-02  4.0000000000000E-02  3.9999999999921E-02 
 4.0000000000072E-02  4.0000000000000E-02  4.0000000000000E-02  4.0000000000000E-02  4.0000000000000E-02  4.0000000000000E-02  4.0000000000000E-02  4.0000000000000E-02  4.0000000000000E-02  3.9999999999921E-02 
 3.5020565883828E-02  3.5020541331082E-02  3.5020516778429E-02  3.5020492225816E-02  3.5020467673199E-02  3.5020443120417E-02  3.5020418567804E-02  3.5020394015187E-02  3.5020369462532E-02  3.5020344909792E-02 
 8.0911499769706E-01  8.0911499769706E-01  8.0911499769706E-01  8.0911499769706E-01  8.0911499769706E-01  8.0911499769706E-01  8.0911499769706E-01  8.0911499769706E-01  8.0911499769706E-01  8.0911499769706E-01 
 2.6811111111111E-05  5.3622222222222E-05  5.3622222222222E-05  5.3622222222222E-05  5.3622222222222E-05  5.3622222222222E-05  5.3622222222222E-05  5.3622222222223E-05  5.3622222222222E-05  2.6811111111111E-05 
 1.9088500230294E-01  1.9088500230294E-01  1.9088500230294E-01  1.9088500230294E-01  1.9088500230294E-01  1.9088500230294E-01  1.9088500230294E-01  1.9088500230294E-01  1.9088500230294E-01  1.9088500230294E-01 
 6.8421842770373E-11  6.8421581414455E-11  6.8421209529817E-11  6.8421109868328E-11  6.8421581395613E-11  6.8421570528382E-11  6.8421109887665E-11  6.8421225250570E-11  6.8421569309529E-11  6.8421808892149E-11 
 6.8421842770373E-03  6.8421581414455E-03  6.8421209529817E-03  6.8421109868328E-03  6.8421581395613E-03  6.8421570528382E-03  6.8421109887665E-03  6.8421225250570E-03  6.8421569309529E-03  6.8421808892149E-03 
 6.8421842770373E-03  6.8421581414455E-03  6.8421209529817E-03  6.8421109868328E-03  6.8421581395613E-03  6.8421570528382E-03  6.8421109887665E-03  6.8421225250570E-03  6.8421569309529E-03  6.8421808892149E-03 
 0.0000000000000E+00  0.0000000000000E+00  0.0000000000000E+00  0.0000000000000E+00  0.0000000000000E+00  0.0000000000000E+00  0.0000000000000E+00  0.0000000000000E+00  0.0000000000000E+00  0.0000000000000E+00 
ZONE T = "SEP , 2.0000E-08", I = 10, SOLUTIONTIME = 2.000000E-08
ZONETYPE = ORDERED
DATAPACKING = BLOCK
STRANDID = 2
 7.8740000000000E-04  8.4102222222222E-04  8.9464444444444E-04  9.4826666666667E-04  1.0018888888889E-03  1.0555111111111E-03  1.1091333333333E-03  1.1627555555556E-03  1.2163777777778E-03  1.2700000000000E-03 
 1.0377701239541E-08  1.0377701239541E-08  1.0377701239541E-08  1.0377701239541E-08  1.0377701239541E-08  1.0377701239541E-08  1.0377701239541E-08  1.0377701239541E-08  1.0377701239541E-08  9.8015471065183E-09 
 9.1999999999971E-01  9.2000000000000E-01  9.2000000000000E-01  9.2000000000000E-01  9.2000000000000E-01  9.2000000000000E-01  9.2000000000000E-01  9.2000000000000E-01  9.2000000000000E-01  9.2000000000032E-01 
 4.0000000000143E-02  4.0000000000000E-02  4.0000000000000E-02  4.0000000000000E-02  4.0000000000000E-02  4.0000000000000E-02  4.0000000000000E-02  4.0000000000000E-02  4.0000000000000E-02  3.9999999999842E-02 
 4.0000000000143E-02  4.0000000000000E-02  4.0000000000000E-02  4.0000000000000E-02  4.0000000000000E-02  4.0000000000000E-02  4.0000000000000E-02  4.0000000000000E-02  4.0000000000000E-02  3.9999999999842E-02 
 3.5021314447203E-02  3.5021289894310E-02  3.5021265341418E-02  3.5021240788525E-02  3.5021216235633E-02  3.5021191682740E-02  3.5021167129848E-02  3.5021142576955E-02  3.5021118024063E-02  3.5021093471170E-02 
 8.0911499769706E-01  8.0911499769706E-01  8.0911499769706E-01  8.0911499769706E-01  8.0911499769706E-01  8.0911499769706E-01  8.0911499769706E-01  8.0911499769706E-01  8.0911499769706E-01  8.0911499769706E-01 
 2.6811111111111E-05  5.3622222222222E-05  5.3622222222222E-05  5.3622222222222E-05  5.3622222222222E-05  5.3622222222222E-05  5.3622222222222E-05  5.3622222222223E-05  5.3622222222222E-05  2.6811111111111E-05 
 1.9088500230294E-01  1.9088500230294E-01  1.9088500230294E-01  1.9088500230294E-01  1.9088500230294E-01  1.9088500230294E-01  1.9088500230294E-01  1.9088500230294E-01  1.9088500230294E-01  1.9088500230294E-01 
 1.3684449884964E-10  1.3684423749367E-10  1.3684386560897E-10  1.3684376594748E-10  1.3684423747476E-10  1.3684422660753E-10  1.3684376596681E-10  1.3684388132972E-10  1.3684422538861E-10  1.3684446497116E-10 
 6.8422656079272E-03  6.8422656079210E-03  6.8422656079149E-03  6.8422656079149E-03  6.8422656079149E-03  6.8422656079149E-03  6.8422656079149E-03  6.8422656079149E-03  6.8422656079082E-03  6.8422656079014E-03 
 6.8422656079272E-03  6.8422656079210E-03  6.8422656079149E-03  6.8422656079149E-03  6.8422656079149E-03  6.8422656079149E-03  6.8422656079149E-03  6.8422656079149E-03  6.8422656079082E-03  6.8422656079014E-03 
 0.0000000000000E+00  0.0000000000000E+00  0.0000000000000E+00  0.0000000000000E+00  0.0000000000000E+00  0.0000000000000E+00  0.0000000000000E+00  0.0000000000000E+00  0.0000000000000E+00  0.0000000000000E+00 
ZONE T = "SEP , 3.0000E-08", I = 10, SOLUTIONTIME = 3.000000E-08
ZONETYPE = ORDERED
DATAPACKING = BLOCK
STRANDID = 2
 7.8740000000000E-04  8.4102222222222E-04  8.9464444444444E-04  9.4826666666667E-04  1.0018888888889E-03  1.0555111111111E-03  1.1091333333333E-03  1.1627555555556E-03  1.2163777777778E-03  1.2700000000000E-03 
 1.0371889915838E-08  1.0370437084927E-08  1.0370437084927E-08  1.0370437084927E-08  1.0370437084927E-08  1.0370437084927E-08  1.0370437084927E-08  1.0370437084927E-08  1.0370437084927E-08  9.7937381403145E-09 
 9.1999999999957E-01  9.2000000000000E-01  9.2000000000000E-01  9.2000000000000E-01  9.2000000000000E-01  9.2000000000000E-01  9.2000000000000E-01  9.2000000000000E-01  9.2000000000000E-01  9.2000000000047E-01 
 4.0000000000215E-02  4.0000000000000E-02  4.0000000000000E-02  4.0000000000000E-02  4.0000000000000E-02  4.0000000000000E-02  4.0000000000000E-02  4.0000000000000E-02  4.0000000000000E-02  3.9999999999763E-02 
 4.0000000000215E-02  4.0000000000000E-02  4.0000000000000E-02  4.0000000000000E-02  4.0000000000000E-02  4.0000000000000E-02  4.0000000000000E-02  4.0000000000000E-02  4.0000000000000E-02  3.9999999999763E-02 
 3.5021314447009E-02  3.5021289894116E-02  3.5021265341224E-02  3.5021240788331E-02  3.5021216235439E-02  3.5021191682546E-02  3.5021167129654E-02  3.5021142576761E-02  3.5021118023869E-02  3.5021093470976E-02 
 8.0911499769706E-01  8.0911499769706E-01  8.0911499769706E-01  8.0911499769706E-01  8.0911499769706E-01  8.0911499769706E-01  8.0911499769706E-01  8.0911499769706E-01  8.0911499769706E-01  8.0911499769706E-01 
 2.6811111111111E-05  5.3622222222222E-05  5.3622222222222E-05  5.3622222222222E-05  5.3622222222222E-05  5.3622222222222E-05  5.3622222222222E-05  5.3622222222223E-05  5.3622222222222E-05  2.6811111111111E-05 
 1.9088500230294E-01  1.9088500230294E-01  1.9088500230294E-01  1.9088500230294E-01  1.9088500230294E-01  1.9088500230294E-01  1.9088500230294E-01  1.9088500230294E-01  1.9088500230294E-01  1.9088500230294E-01 
 2.0526715492898E-10  2.0526689355357E-10  2.0526652166878E-10  2.0526642202663E-10  2.0526689355391E-10  2.0526688268668E-10  2.0526642204596E-10  2.0526653740887E-10  2.0526688146766E-10  2.0526712105011E-10 
 6.8422656079333E-03  6.8422656059904E-03  6.8422656059812E-03  6.8422656079149E-03  6.8422656079149E-03  6.8422656079149E-03  6.8422656079149E-03  6.8422656079149E-03  6.8422656079048E-03  6.8422656078947E-03 
 6.8422656079333E-03  6.8422656059904E-03  6.8422656059812E-03  6.8422656079149E-03  6.8422656079149E-03  6.8422656079149E-03  6.8422656079149E-03  6.8422656079149E-03  6.8422656079048E-03  6.8422656078947E-03 
 0.0000000000000E+00  0.0000000000000E+00  0.0000000000000E+00  0.0000000000000E+00  0.0000000000000E+00  0.0000000000000E+00  0.0000000000000E+00  0.0000000000000E+00  0.0000000000000E+00  0.0000000000000E+00 
ZONE T = "SEP , 4.0000E-08", I = 10, SOLUTIONTIME = 4.000000E-08
ZONETYPE = ORDERED
DATAPACKING = BLOCK
STRANDID = 2
 7.8740000000000E-04  8.4102222222222E-04  8.9464444444444E-04  9.4826666666667E-04  1.0018888888889E-03  1.0555111111111E-03  1.1091333333333E-03  1.1627555555556E-03  1.2163777777778E-03  1.2700000000000E-03 
 1.0378427654881E-08  1.0379880485792E-08  1.0379880485792E-08  1.0379880485792E-08  1.0379880485792E-08  1.0379880485792E-08  1.0379880485792E-08  1.0379880485792E-08  1.0379880485792E-08  9.8037263527725E-09 
 9.1999999999943E-01  9.2000000000000E-01  9.2000000000000E-01  9.2000000000000E-01  9.2000000000000E-01  9.2000000000000E-01  9.2000000000000E-01  9.2000000000000E-01  9.2000000000000E-01  9.2000000000063E-01 
 4.0000000000287E-02  4.0000000000000E-02  4.0000000000000E-02  4.0000000000000E-02  4.0000000000000E-02  4.0000000000000E-02  4.0000000000000E-02  4.0000000000000E-02  4.0000000000000E-02  3.9999999999684E-02 
 4.0000000000287E-02  4.0000000000000E-02  4.0000000000000E-02  4.0000000000000E-02  4.0000000000000E-02  4.0000000000000E-02  4.0000000000000E-02  4.0000000000000E-02  4.0000000000000E-02  3.9999999999684E-02 
 3.5021314446819E-02  3.5021289893926E-02  3.5021265341034E-02  3.5021240788141E-02  3.5021216235249E-02  3.5021191682356E-02  3.5021167129464E-02  3.5021142576571E-02  3.5021118023679E-02  3.5021093470787E-02 
 8.0911499769706E-01  8.0911499769706E-01  8.0911499769706E-01  8.0911499769706E-01  8.0911499769706E-01  8.0911499769706E-01  8.0911499769706E-01  8.0911499769706E-01  8.0911499769706E-01  8.0911499769706E-01 
 2.6811111111111E-05  5.3622222222222E-05  5.3622222222222E-05  5.3622222222222E-05  5.3622222222222E-05  5.3622222222222E-05  5.3622222222222E-05  5.3622222222223E-05  5.3622222222222E-05  2.6811111111111E-05 
 1.9088500230294E-01  1.9088500230294E-01  1.9088500230294E-01  1.9088500230294E-01  1.9088500230294E-01  1.9088500230294E-01  1.9088500230294E-01  1.9088500230294E-01  1.9088500230294E-01  1.9088500230294E-01 
 2.7368981100837E-10  2.7368954961350E-10  2.7368917772859E-10  2.7368907810578E-10  2.7368954963306E-10  2.7368953876583E-10  2.7368907812511E-10  2.7368919348802E-10  2.7368953754667E-10  2.7368977712899E-10 
 6.8422656079395E-03  6.8422656059935E-03  6.8422656059812E-03  6.8422656079149E-03  6.8422656079149E-03  6.8422656079149E-03  6.8422656079149E-03  6.8422656079149E-03  6.8422656079014E-03  6.8422656078879E-03 
 6.8422656079395E-03  6.8422656059935E-03  6.8422656059812E-03  6.8422656079149E-03  6.8422656079149E-03  6.8422656079149E-03  6.8422656079149E-03  6.8422656079149E-03  6.8422656079014E-03  6.8422656078879E-03 
 0.0000000000000E+00  0.0000000000000E+00  0.0000000000000E+00  0.0000000000000E+00  0.0000000000000E+00  0.0000000000000E+00  0.0000000000000E+00  0.0000000000000E+00  0.0000000000000E+00  0.0000000000000E+00 
ZONE T = "SEP , 5.5000E-08", I = 10, SOLUTIONTIME = 5.500000E-08
ZONETYPE = ORDERED
DATAPACKING = BLOCK
STRANDID = 2
 7.8740000000000E-04  8.4102222222222E-04  8.9464444444444E-04  9.4826666666667E-04  1.0018888888889E-03  1.0555111111111E-03  1.1091333333333E-03  1.1627555555556E-03  1.2163777777778E-03  1.2700000000000E-03 
 1.0376853754667E-08  1.0376853754667E-08  1.0376853754667E-08  1.0376853754667E-08  1.0376853754667E-08  1.0376853754667E-08  1.0376853754667E-08  1.0376853754667E-08  1.0376853754667E-08  9.8010628293763E-09 
 9.1999999999921E-01  9.2000000000000E-01  9.2000000000000E-01  9.2000000000000E-01  9.2000000000000E-01  9.2000000000000E-01  9.2000000000000E-01  9.2000000000000E-01  9.2000000000000E-01  9.2000000000087E-01 
 4.0000000000394E-02  4.0000000000000E-02  4.0000000000000E-02  4.0000000000000E-02  4.0000000000000E-02  4.0000000000000E-02  4.0000000000000E-02  4.0000000000000E-02  4.0000000000000E-02  3.9999999999566E-02 
 4.0000000000394E-02  4.0000000000000E-02  4.0000000000000E-02  4.0000000000000E-02  4.0000000000000E-02  4.0000000000000E-02  4.0000000000000E-02  4.0000000000000E-02  4.0000000000000E-02  3.9999999999566E-02 
 3.5021314446608E-02  3.5021289893715E-02  3.5021265340823E-02  3.5021240787930E-02  3.5021216235038E-02  3.5021191682145E-02  3.5021167129253E-02  3.5021142576360E-02  3.5021118023468E-02  3.5021093470575E-02 
 8.0911499769706E-01  8.0911499769706E-01  8.0911499769706E-01  8.0911499769706E-01  8.0911499769706E-01  8.0911499769706E-01  8.0911499769706E-01  8.0911499769706E-01  8.0911499769706E-01  8.0911499769706E-01 
 2.6811111111111E-05  5.3622222222222E-05  5.3622222222222E-05  5.3622222222222E-05  5.3622222222222E-05  5.3622222222222E-05  5.3622222222222E-05  5.3622222222223E-05  5.3622222222222E-05  2.6811111111111E-05 
 1.9088500230294E-01  1.9088500230294E-01  1.9088500230294E-01  1.9088500230294E-01  1.9088500230294E-01  1.9088500230294E-01  1.9088500230294E-01  1.9088500230294E-01  1.9088500230294E-01  1.9088500230294E-01 
 3.7632379512760E-10  3.7632353373248E-10  3.7632316184731E-10  3.7632306222450E-10  3.7632353375178E-10  3.7632352285555E-10  3.7632306221483E-10  3.7632317760674E-10  3.7632352166512E-10  3.7632376124716E-10 
 6.8422656079486E-03  6.8422656079318E-03  6.8422656079149E-03  6.8422656079149E-03  6.8422656079149E-03  6.8422656059812E-03  6.8422656059812E-03  6.8422656079149E-03  6.8422656078963E-03  6.8422656078778E-03 
 6.8422656079486E-03  6.8422656079318E-03  6.8422656079149E-03  6.8422656079149E-03  6.8422656079149E-03  6.8422656059812E-03  6.8422656059812E-03  6.8422656079149E-03  6.8422656078963E-03  6.8422656078778E-03 
 0.0000000000000E+00  0.0000000000000E+00  0.0000000000000E+00  0.0000000000000E+00  0.0000000000000E+00  0.0000000000000E+00  0.0000000000000E+00  0.0000000000000E+00  0.0000000000000E+00  0.0000000000000E+00 
ZONE T = "SEP , 7.7500E-08", I = 10, SOLUTIONTIME = 7.750000E-08
ZONETYPE = ORDERED
DATAPACKING = BLOCK
STRANDID = 2
 7.8740000000000E-04  8.4102222222222E-04  8.9464444444444E-04  9.4826666666667E-04  1.0018888888889E-03  1.0555111111111E-03  1.1091333333333E-03  1.1627555555556E-03  1.2163777777778E-03  1.2700000000000E-03 
 1.0376127339115E-08  1.0376127339115E-08  1.0376127339115E-08  1.0376127339115E-08  1.0376127339115E-08  1.0376127339115E-08  1.0376127339115E-08  1.0376127339115E-08  1.0376127339115E-08  9.7999732060986E-09 
 9.1999999999889E-01  9.2000000000000E-01  9.2000000000000E-01  9.2000000000000E-01  9.2000000000000E-01  9.2000000000000E-01  9.2000000000000E-01  9.2000000000000E-01  9.2000000000000E-01  9.2000000000122E-01 
 4.0000000000555E-02  4.0000000000000E-02  4.0000000000000E-02  4.0000000000000E-02  4.0000000000000E-02  4.0000000000000E-02  4.0000000000000E-02  4.0000000000000E-02  4.0000000000000E-02  3.9999999999388E-02 
 4.0000000000555E-02  4.0000000000000E-02  4.0000000000000E-02  4.0000000000000E-02  4.0000000000000E-02  4.0000000000000E-02  4.0000000000000E-02  4.0000000000000E-02  4.0000000000000E-02  3.9999999999388E-02 
 3.5021314446253E-02  3.5021289893360E-02  3.5021265340468E-02  3.5021240787575E-02  3.5021216234683E-02  3.5021191681790E-02  3.5021167128898E-02  3.5021142576005E-02  3.5021118023113E-02  3.5021093470220E-02 
 8.0911499769706E-01  8.0911499769706E-01  8.0911499769706E-01  8.0911499769706E-01  8.0911499769706E-01  8.0911499769706E-01  8.0911499769706E-01  8.0911499769706E-01  8.0911499769706E-01  8.0911499769706E-01 
 2.6811111111111E-05  5.3622222222222E-05  5.3622222222222E-05  5.3622222222222E-05  5.3622222222222E-05  5.3622222222222E-05  5.3622222222222E-05  5.3622222222223E-05  5.3622222222222E-05  2.6811111111111E-05 
 1.9088500230294E-01  1.9088500230294E-01  1.9088500230294E-01  1.9088500230294E-01  1.9088500230294E-01  1.9088500230294E-01  1.9088500230294E-01  1.9088500230294E-01  1.9088500230294E-01  1.9088500230294E-01 
 5.3027477130676E-10  5.3027450991110E-10  5.3027413802540E-10  5.3027403840259E-10  5.3027450988636E-10  5.3027449899013E-10  5.3027403839292E-10  5.3027415378482E-10  5.3027449784261E-10  5.3027473742406E-10 
 6.8422656079624E-03  6.8422656079387E-03  6.8422656079149E-03  6.8422656079149E-03  6.8422656059812E-03  6.8422656059812E-03  6.8422656079149E-03  6.8422656079149E-03  6.8422656078887E-03  6.8422656078626E-03 
 6.8422656079624E-03  6.8422656079387E-03  6.8422656079149E-03  6.8422656079149E-03  6.8422656059812E-03  6.8422656059812E-03  6.8422656079149E-03  6.8422656079149E-03  6.8422656078887E-03  6.8422656078626E-03 
 0.0000000000000E+00  0.0000000000000E+00  0.0000000000000E+00  0.0000000000000E+00  0.0000000000000E+00  0.0000000000000E+00  0.0000000000000E+00  0.0000000000000E+00  0.0000000000000E+00  0.0000000000000E+00 
ZONE T = "SEP , 1.1125E-07", I = 10, SOLUTIONTIME = 1.112500E-07
ZONETYPE = ORDERED
DATAPACKING = BLOCK
STRANDID = 2
 7.8740000000000E-04  8.4102222222222E-04  8.9464444444444E-04  9.4826666666667E-04  1.0018888888889E-03  1.0555111111111E-03  1.1091333333333E-03  1.1627555555556E-03  1.2163777777778E-03  1.2700000000000E-03 
 1.0376826850149E-08  1.0376826850149E-08  1.0376826850149E-08  1.0376826850149E-08  1.0376826850149E-08  1.0376826850149E-08  1.0376826850149E-08  1.0376826850149E-08  1.0376826850149E-08  9.8009417598978E-09 
 9.1999999999841E-01  9.2000000000000E-01  9.2000000000000E-01  9.2000000000000E-01  9.2000000000000E-01  9.2000000000000E-01  9.2000000000000E-01  9.2000000000000E-01  9.2000000000000E-01  9.2000000000176E-01 
 4.0000000000797E-02  4.0000000000000E-02  4.0000000000000E-02  4.0000000000000E-02  4.0000000000000E-02  4.0000000000000E-02  4.0000000000000E-02  4.0000000000000E-02  4.0000000000000E-02  3.9999999999121E-02 
 4.0000000000797E-02  4.0000000000000E-02  4.0000000000000E-02  4.0000000000000E-02  4.0000000000000E-02  4.0000000000000E-02  4.0000000000000E-02  4.0000000000000E-02  4.0000000000000E-02  3.9999999999121E-02 
 3.5021314445721E-02  3.5021289892828E-02  3.5021265339936E-02  3.5021240787043E-02  3.5021216234151E-02  3.5021191681258E-02  3.5021167128366E-02  3.5021142575473E-02  3.5021118022581E-02  3.5021093469688E-02 
 8.0911499769706E-01  8.0911499769706E-01  8.0911499769706E-01  8.0911499769706E-01  8.0911499769706E-01  8.0911499769706E-01  8.0911499769706E-01  8.0911499769706E-01  8.0911499769706E-01  8.0911499769706E-01 
 2.6811111111111E-05  5.3622222222222E-05  5.3622222222222E-05  5.3622222222222E-05  5.3622222222222E-05  5.3622222222222E-05  5.3622222222222E-05  5.3622222222223E-05  5.3622222222222E-05  2.6811111111111E-05 
 1.9088500230294E-01  1.9088500230294E-01  1.9088500230294E-01  1.9088500230294E-01  1.9088500230294E-01  1.9088500230294E-01  1.9088500230294E-01  1.9088500230294E-01  1.9088500230294E-01  1.9088500230294E-01 
 7.6120123557619E-10  7.6120097411412E-10  7.6120060222727E-10  7.6120050266971E-10  7.6120097415349E-10  7.6120096325726E-10  7.6120050259478E-10  7.6120061798669E-10  7.6120096210848E-10  7.6120120168866E-10 
 6.8422656079831E-03  6.8422656060153E-03  6.8422656059812E-03  6.8422656079149E-03  6.8422656079149E-03  6.8422656079149E-03  6.8422656059812E-03  6.8422656059812E-03  6.8422656078773E-03  6.8422656078398E-03 
 6.8422656079831E-03  6.8422656060153E-03  6.8422656059812E-03  6.8422656079149E-03  6.8422656079149E-03  6.8422656079149E-03  6.8422656059812E-03  6.8422656059812E-03  6.8422656078773E-03  6.8422656078398E-03 
 0.0000000000000E+00  0.0000000000000E+00  0.0000000000000E+00  0.0000000000000E+00  0.0000000000000E+00  0.0000000000000E+00  0.0000000000000E+00  0.0000000000000E+00  0.0000000000000E+00  0.0000000000000E+00 
ZONE T = "SEP , 1.6188E-07", I = 10, SOLUTIONTIME = 1.618750E-07
ZONETYPE = ORDERED
DATAPACKING = BLOCK
STRANDID = 2
 7.8740000000000E-04  8.4102222222222E-04  8.9464444444444E-04  9.4826666666667E-04  1.0018888888889E-03  1.0555111111111E-03  1.1091333333333E-03  1.1627555555556E-03  1.2163777777778E-03  1.2700000000000E-03 
 1.0375858295990E-08  1.0375858295990E-08  1.0375858295990E-08  1.0375858295990E-08  1.0375858295990E-08  1.0375858295990E-08  1.0375858295990E-08  1.0375858295990E-08  1.0375858295990E-08  9.7994171840377E-09 
 9.1999999999768E-01  9.2000000000000E-01  9.2000000000000E-01  9.2000000000000E-01  9.2000000000000E-01  9.2000000000000E-01  9.2000000000000E-01  9.2000000000000E-01  9.2000000000000E-01  9.2000000000256E-01 
 4.0000000001160E-02  4.0000000000000E-02  4.0000000000000E-02  4.0000000000000E-02  4.0000000000000E-02  4.0000000000000E-02  4.0000000000000E-02  4.0000000000000E-02  4.0000000000000E-02  3.9999999998721E-02 
 4.0000000001160E-02  4.0000000000000E-02  4.0000000000000E-02  4.0000000000000E-02  4.0000000000000E-02  4.0000000000000E-02  4.0000000000000E-02  4.0000000000000E-02  4.0000000000000E-02  3.9999999998721E-02 
 3.5021314444920E-02  3.5021289892028E-02  3.5021265339135E-02  3.5021240786243E-02  3.5021216233350E-02  3.5021191680458E-02  3.5021167127565E-02  3.5021142574673E-02  3.5021118021780E-02  3.5021093468888E-02 
 8.0911499769706E-01  8.0911499769706E-01  8.0911499769706E-01  8.0911499769706E-01  8.0911499769706E-01  8.0911499769706E-01  8.0911499769706E-01  8.0911499769706E-01  8.0911499769706E-01  8.0911499769706E-01 
 2.6811111111111E-05  5.3622222222222E-05  5.3622222222222E-05  5.3622222222222E-05  5.3622222222222E-05  5.3622222222222E-05  5.3622222222222E-05  5.3622222222223E-05  5.3622222222222E-05  2.6811111111111E-05 
 1.9088500230294E-01  1.9088500230294E-01  1.9088500230294E-01  1.9088500230294E-01  1.9088500230294E-01  1.9088500230294E-01  1.9088500230294E-01  1.9088500230294E-01  1.9088500230294E-01  1.9088500230294E-01 
 1.1075909319819E-09  1.1075906705173E-09  1.1075902985301E-09  1.1075901989725E-09  1.1075906705542E-09  1.1075906596579E-09  1.1075901988976E-09  1.1075903142895E-09  1.1075906585064E-09  1.1075908980838E-09 
 6.8422656080142E-03  6.8422656079645E-03  6.8422656059812E-03  6.8422656059812E-03  6.8422656079149E-03  6.8422656079149E-03  6.8422656059812E-03  6.8422656059812E-03  6.8422656078602E-03  6.8422656078056E-03 
 6.8422656080142E-03  6.8422656079645E-03  6.8422656059812E-03  6.8422656059812E-03  6.8422656079149E-03  6.8422656079149E-03  6.8422656059812E-03  6.8422656059812E-03  6.8422656078602E-03  6.8422656078056E-03 
 0.0000000000000E+00  0.0000000000000E+00  0.0000000000000E+00  0.0000000000000E+00  0.0000000000000E+00  0.0000000000000E+00  0.0000000000000E+00  0.0000000000000E+00  0.0000000000000E+00  0.0000000000000E+00 
ZONE T = "SEP , 2.3781E-07", I = 10, SOLUTIONTIME = 2.378125E-07
ZONETYPE = ORDERED
DATAPACKING = BLOCK
STRANDID = 2
 7.8740000000000E-04  8.4102222222222E-04  8.9464444444444E-04  9.4826666666667E-04  1.0018888888889E-03  1.0555111111111E-03  1.1091333333333E-03  1.1627555555556E-03  1.2163777777778E-03  1.2700000000000E-03 
 1.0377329062759E-08  1.0377329062759E-08  1.0377329062759E-08  1.0377329062759E-08  1.0377329062759E-08  1.0377329062759E-08  1.0377329062759E-08  1.0377329062759E-08  1.0377329062759E-08  9.8012466744961E-09 
 9.1999999999659E-01  9.2000000000000E-01  9.2000000000000E-01  9.2000000000000E-01  9.2000000000000E-01  9.2000000000000E-01  9.2000000000000E-01  9.2000000000000E-01  9.2000000000000E-01  9.2000000000376E-01 
 4.0000000001704E-02  4.0000000000001E-02  4.0000000000000E-02  4.0000000000000E-02  4.0000000000000E-02  4.0000000000000E-02  4.0000000000000E-02  4.0000000000000E-02  3.9999999999999E-02  3.9999999998122E-02 
 4.0000000001704E-02  4.0000000000001E-02  4.0000000000000E-02  4.0000000000000E-02  4.0000000000000E-02  4.0000000000000E-02  4.0000000000000E-02  4.0000000000000E-02  3.9999999999999E-02  3.9999999998122E-02 
 3.5021314443722E-02  3.5021289890829E-02  3.5021265337937E-02  3.5021240785044E-02  3.5021216232152E-02  3.5021191679259E-02  3.5021167126367E-02  3.5021142573474E-02  3.5021118020582E-02  3.5021093467689E-02 
 8.0911499769706E-01  8.0911499769706E-01  8.0911499769706E-01  8.0911499769706E-01  8.0911499769706E-01  8.0911499769706E-01  8.0911499769706E-01  8.0911499769706E-01  8.0911499769706E-01  8.0911499769706E-01 
 2.6811111111111E-05  5.3622222222222E-05  5.3622222222222E-05  5.3622222222222E-05  5.3622222222222E-05  5.3622222222222E-05  5.3622222222222E-05  5.3622222222223E-05  5.3622222222222E-05  2.6811111111111E-05 
 1.9088500230294E-01  1.9088500230294E-01  1.9088500230294E-01  1.9088500230294E-01  1.9088500230294E-01  1.9088500230294E-01  1.9088500230294E-01  1.9088500230294E-01  1.9088500230294E-01  1.9088500230294E-01 
 1.6271754765940E-09  1.6271752151239E-09  1.6271748429843E-09  1.6271747434267E-09  1.6271752150084E-09  1.6271752041122E-09  1.6271747434986E-09  1.6271748587437E-09  1.6271752029545E-09  1.6271754426727E-09 
 6.8422656080607E-03  6.8422656079878E-03  6.8422656059813E-03  6.8422656059812E-03  6.8422656059812E-03  6.8422656059812E-03  6.8422656079149E-03  6.8422656059811E-03  6.8422656059009E-03  6.8422656077542E-03 
 6.8422656080607E-03  6.8422656079878E-03  6.8422656059813E-03  6.8422656059812E-03  6.8422656059812E-03  6.8422656059812E-03  6.8422656079149E-03  6.8422656059811E-03  6.8422656059009E-03  6.8422656077542E-03 
 0.0000000000000E+00  0.0000000000000E+00  0.0000000000000E+00  0.0000000000000E+00  0.0000000000000E+00  0.0000000000000E+00  0.0000000000000E+00  0.0000000000000E+00  0.0000000000000E+00  0.0000000000000E+00 
ZONE T = "SEP , 3.5172E-07", I = 10, SOLUTIONTIME = 3.517188E-07
ZONETYPE = ORDERED
DATAPACKING = BLOCK
STRANDID = 2
 7.8740000000000E-04  8.4102222222222E-04  8.9464444444444E-04  9.4826666666667E-04  1.0018888888889E-03  1.0555111111111E-03  1.1091333333333E-03  1.1627555555556E-03  1.2163777777778E-03  1.2700000000000E-03 
 1.0376786990927E-08  1.0376786990927E-08  1.0376786990927E-08  1.0376786990927E-08  1.0376786990927E-08  1.0376786990927E-08  1.0376786990927E-08  1.0376786990927E-08  1.0376723217828E-08  9.8005690848415E-09 
 9.1999999999496E-01  9.2000000000000E-01  9.2000000000000E-01  9.2000000000000E-01  9.2000000000000E-01  9.2000000000000E-01  9.2000000000000E-01  9.2000000000000E-01  9.2000000000000E-01  9.2000000000555E-01 
 4.0000000002519E-02  4.0000000000002E-02  4.0000000000000E-02  4.0000000000000E-02  4.0000000000000E-02  4.0000000000000E-02  4.0000000000000E-02  4.0000000000000E-02  3.9999999999998E-02  3.9999999997223E-02 