TITLE = "Solution on Domain BulkDomain1D_0"
VARIABLES = "x [m]"  
"Vel_axial(0)" 	"MF_sp(ECDMC)" 	"MF_sp(Li+)" 	"MF_sp(PF6-)" 	"Volt(Electroly)" 	"Volt(AnodeVolt)" 	
"Potential Drop Electrode-Electrolyte [V]" 	"Surf_0 Equilibrium Potential Drop Electrode-Electrolyte [V]" 	"Overpotential_0 [V]" 	"Current Source [A/m^2]" 	"Li+ flux [kmol/m^2/s]" 	"Electrolyte Current [A/m^2]" 	"Electrode Current [A/m^2]" 	
"Capacity discharged [A-s]" 	"Depth of discharge [-]" 	"Capacity remaining [A-s]" 	"Initial capacity [A-s]" 	"Porosity []" 	"Surface Area [m2/m2] (area per area)" 	"Specific current (per particle area) [A/m^2]" 	"Control volume thickness [m]" 	
"Moles Li_C6-bulk [mol/m^2] (per electrode area)" 	"Moles V_C6-bulk [mol/m^2] (per electrode area)" 	"qHeat_accum [J/m3]" 	"qHeat_step [W/m3]" 	"Joule_Lyte [W/m3]" 	"Joule_Solid [W/m3]" 	"electrodHeat [W/m3]" 	"OverpotHeat [W/m3]" 	"deltaSHeat [W/m3]" 	

ZONE T = "t = 0 [s]" I = 10 SOLUTIONTIME = 0.0000000000000E+00
0 	0 	0.92 	0.04 	0.04 	-0.07 	0 	
0 	0 	0 	0 	0 	0 	15.4651 	
0 	0 	0 	0 	0.35 	8.53017 	3.62598 	4.37444e-05 	
0.00379119 	0.000947796 	0 	0.0 	 0.0 	 0.0 	 0.0 	 0.0 	 0.0 	 
8.74889e-05 	0 	0.92 	0.04 	0.04 	-0.07 	0 	
0 	0 	0 	0 	0 	0 	-0 	
0 	0 	0 	0 	0.35 	17.0603 	3.62598 	8.74889e-05 	
0.00758237 	0.00189559 	0 	0.0 	 0.0 	 0.0 	 0.0 	 0.0 	 0.0 	 
0.000174978 	0 	0.92 	0.04 	0.04 	-0.07 	0 	
0 	0 	0 	0 	0 	0 	-0 	
0 	0 	0 	0 	0.35 	17.0603 	3.62598 	8.74889e-05 	
0.00758237 	0.00189559 	0 	0.0 	 0.0 	 0.0 	 0.0 	 0.0 	 0.0 	 
0.000262467 	0 	0.92 	0.04 	0.04 	-0.07 	0 	
0 	0 	0 	0 	0 	0 	-0 	
0 	0 	0 	0 	0.35 	17.0603 	3.62598 	8.74889e-05 	
0.00758237 	0.00189559 	0 	0.0 	 0.0 	 0.0 	 0.0 	 0.0 	 0.0 	 
0.000349956 	0 	0.92 	0.04 	0.04 	-0.07 	0 	
0 	0 	0 	0 	0 	0 	-0 	
0 	0 	0 	0 	0.35 	17.0603 	3.62598 	8.74889e-05 	
0.00758237 	0.00189559 	0 	0.0 	 0.0 	 0.0 	 0.0 	 0.0 	 0.0 	 
0.000437444 	0 	0.92 	0.04 	0.04 	-0.07 	0 	
0 	0 	0 	0 	0 	0 	-0 	
0 	0 	0 	0 	0.35 	17.0603 	3.62598 	8.74889e-05 	
0.00758237 	0.00189559 	0 	0.0 	 0.0 	 0.0 	 0.0 	 0.0 	 0.0 	 
0.000524933 	0 	0.92 	0.04 	0.04 	-0.07 	0 	
0 	0 	0 	0 	0 	0 	-0 	
0 	0 	0 	0 	0.35 	17.0603 	3.62598 	8.74889e-05 	
0.00758237 	0.00189559 	0 	0.0 	 0.0 	 0.0 	 0.0 	 0.0 	 0.0 	 
0.000612422 	0 	0.92 	0.04 	0.04 	-0.07 	0 	
0 	0 	0 	0 	0 	0 	-0 	
0 	0 	0 	0 	0.35 	17.0603 	3.62598 	8.74889e-05 	
0.00758237 	0.00189559 	0 	0.0 	 0.0 	 0.0 	 0.0 	 0.0 	 0.0 	 
0.000699911 	0 	0.92 	0.04 	0.04 	-0.07 	0 	
0 	0 	0 	0 	0 	0 	-0 	
0 	0 	0 	0 	0.35 	17.0603 	3.62598 	8.74889e-05 	
0.00758237 	0.00189559 	0 	0.0 	 0.0 	 0.0 	 0.0 	 0.0 	 0.0 	 
0.0007874 	0 	0.92 	0.04 	0.04 	-0.07 	0 	
0 	0 	0 	0 	0 	15.4651 	0 	
0 	0 	0 	0 	0.35 	8.53017 	3.62598 	4.37444e-05 	
0.00379119 	0.000947796 	0 	0.0 	 0.0 	 0.0 	 0.0 	 0.0 	 0.0 	 
ZONE T = "t = 1e-08 [s]" I = 10 SOLUTIONTIME = 1.0000000000000E-08
0 	6.97916e-10 	0.92 	0.04 	0.04 	0.0180635 	-3.09637e-07 	
0.07 	-0.0409067 	0.110907 	30.9302 	-0 	0.502527 	17.5894 	
0 	91448.4 	916.789 	1145.99 	0.35 	8.53017 	0.117824 	4.37444e-05 	
0.00379119 	0.000947796 	0 	0 	0 	0 	0 	0 	0 	
8.74889e-05 	2.09375e-09 	0.92 	0.04 	0.04 	0.0180635 	-3.11937e-07 	
0.07 	-0.0409067 	0.110907 	61.8605 	-0 	2.01011 	16.0818 	
0 	182897 	1833.58 	2291.97 	0.35 	17.0603 	0.117824 	8.74889e-05 	
0.00758237 	0.00189559 	0 	0 	0 	0 	0 	0 	0 	
0.000174978 	3.48959e-09 	0.92 	0.04 	0.04 	0.0180635 	-3.13966e-07 	
0.07 	-0.0409067 	0.110907 	61.8605 	-0 	4.02023 	14.0717 	
0 	182897 	1833.58 	2291.97 	0.35 	17.0603 	0.117825 	8.74889e-05 	
0.00758237 	0.00189559 	0 	0 	0 	0 	0 	0 	0 	
0.000262467 	4.88545e-09 	0.92 	0.04 	0.04 	0.0180634 	-3.15725e-07 	
0.07 	-0.0409067 	0.110907 	61.8605 	-0 	6.03036 	12.0615 	
0 	182897 	1833.58 	2291.97 	0.35 	17.0603 	0.117826 	8.74889e-05 	
0.00758237 	0.00189559 	0 	0 	0 	0 	0 	0 	0 	
0.000349956 	6.28132e-09 	0.92 	0.04 	0.04 	0.0180634 	-3.17213e-07 	
0.07 	-0.0409067 	0.110907 	61.8605 	-0 	8.04052 	10.0514 	
0 	182897 	1833.58 	2291.97 	0.35 	17.0603 	0.117827 	8.74889e-05 	
0.00758237 	0.00189559 	0 	0 	0 	0 	0 	0 	0 	
0.000437444 	7.67722e-09 	0.92 	0.04 	0.04 	0.0180633 	-3.18431e-07 	
0.07 	-0.0409067 	0.110907 	61.8605 	-0 	10.0507 	8.04119 	
0 	182897 	1833.58 	2291.97 	0.35 	17.0603 	0.117829 	8.74889e-05 	
0.00758237 	0.00189559 	0 	0 	0 	0 	0 	0 	0 	
0.000524933 	9.07314e-09 	0.92 	0.04 	0.04 	0.0180632 	-3.19378e-07 	
0.07 	-0.0409067 	0.110907 	61.8605 	-0 	12.0609 	6.03097 	
0 	182897 	1833.58 	2291.97 	0.35 	17.0603 	0.117832 	8.74889e-05 	
0.00758237 	0.00189559 	0 	0 	0 	0 	0 	0 	0 	
0.000612422 	1.04691e-08 	0.92 	0.04 	0.04 	0.018063 	-3.20054e-07 	
0.07 	-0.0409067 	0.110907 	61.8605 	-0 	14.0712 	4.0207 	
0 	182897 	1833.58 	2291.97 	0.35 	17.0603 	0.117834 	8.74889e-05 	
0.00758237 	0.00189559 	0 	0 	0 	0 	0 	0 	0 	
0.000699911 	1.18651e-08 	0.92 	0.04 	0.04 	0.0180629 	-3.2046e-07 	
0.07 	-0.0409067 	0.110907 	61.8605 	-0 	16.0815 	2.01038 	
0 	182897 	1833.58 	2291.97 	0.35 	17.0603 	0.117838 	8.74889e-05 	
0.00758237 	0.00189559 	0 	0 	0 	0 	0 	0 	0 	
0.0007874 	1.25624e-08 	0.92 	0.04 	0.04 	0.0180627 	-3.20595e-07 	
0.07 	-0.0409067 	0.110907 	30.9302 	-0 	17.5893 	0.502603 	
0 	91448.4 	916.789 	1145.99 	0.35 	8.53017 	0.117842 	4.37444e-05 	
0.00379119 	0.000947796 	0 	0 	0 	0 	0 	0 	0 	
ZONE T = "t = 2e-08 [s]" I = 10 SOLUTIONTIME = 2.0000000000000E-08
0 	5.76251e-10 	0.92 	0.04 	0.04 	0.0350313 	-2.55655e-07 	
-0.0180638 	-0.0409067 	0.0228429 	1.00506 	5.20833e-09 	0.414924 	14.5229 	
2.51897e-11 	91448.4 	916.789 	1145.99 	0.35 	8.53017 	0.0972893 	4.37444e-05 	
0.00379119 	0.000947796 	0 	0 	0 	0 	0 	0 	0 	
8.74889e-05 	1.72876e-09 	0.92 	0.04 	0.04 	0.0350312 	-2.57554e-07 	
-0.0180638 	-0.0409067 	0.0228429 	2.01012 	1.5625e-08 	1.6597 	13.2781 	
5.03795e-11 	182897 	1833.58 	2291.97 	0.35 	17.0603 	0.0972894 	8.74889e-05 	
0.00758237 	0.00189559 	0 	0 	0 	0 	0 	0 	0 	
0.000174978 	2.88126e-09 	0.92 	0.04 	0.04 	0.0350312 	-2.5923e-07 	
-0.0180638 	-0.0409067 	0.0228429 	2.01013 	2.60417e-08 	3.3194 	11.6184 	
5.03798e-11 	182897 	1833.58 	2291.97 	0.35 	17.0603 	0.0972898 	8.74889e-05 	
0.00758237 	0.00189559 	0 	0 	0 	0 	0 	0 	0 	
0.000262467 	4.03378e-09 	0.92 	0.04 	0.04 	0.0350312 	-2.60682e-07 	
-0.0180637 	-0.0409067 	0.022843 	2.01014 	3.64586e-08 	4.97911 	9.95868 	
5.03803e-11 	182897 	1833.58 	2291.97 	0.35 	17.0603 	0.0972904 	8.74889e-05 	
0.00758237 	0.00189559 	0 	0 	0 	0 	0 	0 	0 	
0.000349956 	5.1863e-09 	0.92 	0.04 	0.04 	0.0350311 	-2.61911e-07 	
-0.0180637 	-0.0409067 	0.022843 	2.01017 	4.68755e-08 	6.63883 	8.29896 	
5.03809e-11 	182897 	1833.58 	2291.97 	0.35 	17.0603 	0.0972913 	8.74889e-05 	
0.00758237 	0.00189559 	0 	0 	0 	0 	0 	0 	0 	
0.000437444 	6.33775e-09 	0.92 	0.04 	0.04 	0.0350311 	-2.62916e-07 	
-0.0180636 	-0.0409067 	0.0228431 	2.0102 	5.72927e-08 	8.29857 	6.63922 	
5.03817e-11 	182897 	1833.58 	2291.97 	0.35 	17.0603 	0.0972924 	8.74889e-05 	
0.00758237 	0.00189559 	0 	0 	0 	0 	0 	0 	0 	
0.000524933 	7.48958e-09 	0.92 	0.04 	0.04 	0.035031 	-2.63698e-07 	
-0.0180635 	-0.0409067 	0.0228432 	2.01025 	6.771e-08 	9.95833 	4.97946 	
5.03828e-11 	182897 	1833.58 	2291.97 	0.35 	17.0603 	0.0972938 	8.74889e-05 	
0.00758237 	0.00189559 	0 	0 	0 	0 	0 	0 	0 	
0.000612422 	8.64216e-09 	0.92 	0.04 	0.04 	0.0350309 	-2.64256e-07 	
-0.0180634 	-0.0409067 	0.0228433 	2.01029 	7.81276e-08 	11.6181 	3.31967 	
5.0384e-11 	182897 	1833.58 	2291.97 	0.35 	17.0603 	0.0972955 	8.74889e-05 	
0.00758237 	0.00189559 	0 	0 	0 	0 	0 	0 	0 	
0.000699911 	9.79476e-09 	0.92 	0.04 	0.04 	0.0350308 	-2.64592e-07 	
-0.0180632 	-0.0409067 	0.0228435 	2.01035 	8.85455e-08 	13.2779 	1.65985 	
5.03854e-11 	182897 	1833.58 	2291.97 	0.35 	17.0603 	0.0972975 	8.74889e-05 	
0.00758237 	0.00189559 	0 	0 	0 	0 	0 	0 	0 	
0.0007874 	1.03703e-08 	0.92 	0.04 	0.04 	0.0350306 	-2.64703e-07 	
-0.0180631 	-0.0409067 	0.0228437 	1.00521 	8.85455e-08 	14.5228 	0.414968 	
2.51935e-11 	91448.4 	916.789 	1145.99 	0.35 	8.53017 	0.0972997 	4.37444e-05 	
0.00379119 	0.000947796 	0 	0 	0 	0 	0 	0 	0 	
ZONE T = "t = 3e-08 [s]" I = 10 SOLUTIONTIME = 3.0000000000000E-08
0 	5.76203e-10 	0.92 	0.04 	0.04 	0.0350353 	-2.55473e-07 	
-0.0350315 	-0.0409067 	0.0058752 	0.829894 	4.30038e-09 	0.414627 	14.5125 	
4.59894e-11 	91448.4 	916.789 	1145.99 	0.35 	8.53017 	0.0972219 	4.37444e-05 	
0.00379119 	0.000947796 	0 	0 	0 	0 	0 	0 	0 	
8.74889e-05 	1.72897e-09 	0.92 	0.04 	0.04 	0.0350353 	-2.5737e-07 	
-0.0350315 	-0.0409067 	0.00587521 	1.65979 	1.29012e-08 	1.65851 	13.2686 	
9.19788e-11 	182897 	1833.58 	2291.97 	0.35 	17.0603 	0.097222 	8.74889e-05 	
0.00758237 	0.00189559 	0 	0 	0 	0 	0 	0 	0 	
0.000174978 	2.88138e-09 	0.92 	0.04 	0.04 	0.0350353 	-2.59044e-07 	
-0.0350315 	-0.0409067 	0.00587523 	1.6598 	2.1502e-08 	3.31702 	11.6101 	
9.19793e-11 	182897 	1833.58 	2291.97 	0.35 	17.0603 	0.0972224 	8.74889e-05 	
0.00758237 	0.00189559 	0 	0 	0 	0 	0 	0 	0 	
0.000262467 	4.0338e-09 	0.92 	0.04 	0.04 	0.0350352 	-2.60496e-07 	
-0.0350314 	-0.0409067 	0.00587527 	1.65981 	3.01028e-08 	4.97555 	9.95156 	
9.198e-11 	182897 	1833.58 	2291.97 	0.35 	17.0603 	0.097223 	8.74889e-05 	
0.00758237 	0.00189559 	0 	0 	0 	0 	0 	0 	0 	
0.000349956 	5.18659e-09 	0.92 	0.04 	0.04 	0.0350352 	-2.61723e-07 	
-0.0350314 	-0.0409067 	0.00587532 	1.65982 	3.87038e-08 	6.63408 	8.29303 	
9.1981e-11 	182897 	1833.58 	2291.97 	0.35 	17.0603 	0.0972239 	8.74889e-05 	
0.00758237 	0.00189559 	0 	0 	0 	0 	0 	0 	0 	
0.000437444 	6.3394e-09 	0.92 	0.04 	0.04 	0.0350351 	-2.62728e-07 	
-0.0350313 	-0.0409067 	0.00587539 	1.65984 	4.73048e-08 	8.29263 	6.63447 	
9.19823e-11 	182897 	1833.58 	2291.97 	0.35 	17.0603 	0.097225 	8.74889e-05 	
0.00758237 	0.00189559 	0 	0 	0 	0 	0 	0 	0 	
0.000524933 	7.49222e-09 	0.92 	0.04 	0.04 	0.035035 	-2.63509e-07 	
-0.0350312 	-0.0409067 	0.00587547 	1.65987 	5.5906e-08 	9.95121 	4.9759 	
9.1984e-11 	182897 	1833.58 	2291.97 	0.35 	17.0603 	0.0972265 	8.74889e-05 	
0.00758237 	0.00189559 	0 	0 	0 	0 	0 	0 	0 	
0.000612422 	8.64506e-09 	0.92 	0.04 	0.04 	0.0350349 	-2.64068e-07 	
-0.0350311 	-0.0409067 	0.00587557 	1.65989 	6.45073e-08 	11.6098 	3.3173 	
9.19859e-11 	182897 	1833.58 	2291.97 	0.35 	17.0603 	0.0972281 	8.74889e-05 	
0.00758237 	0.00189559 	0 	0 	0 	0 	0 	0 	0 	
0.000699911 	9.79793e-09 	0.92 	0.04 	0.04 	0.0350348 	-2.64402e-07 	
-0.035031 	-0.0409067 	0.00587569 	1.65993 	7.31089e-08 	13.2684 	1.65867 	
9.19882e-11 	182897 	1833.58 	2291.97 	0.35 	17.0603 	0.0972301 	8.74889e-05 	
0.00758237 	0.00189559 	0 	0 	0 	0 	0 	0 	0 	
0.0007874 	1.03731e-08 	0.92 	0.04 	0.04 	0.0350347 	-2.64514e-07 	
-0.0350309 	-0.0409067 	0.00587582 	0.829982 	7.31089e-08 	14.5125 	0.414672 	
4.59954e-11 	91448.4 	916.789 	1145.99 	0.35 	8.53017 	0.0972323 	4.37444e-05 	
0.00379119 	0.000947796 	0 	0 	0 	0 	0 	0 	0 	
ZONE T = "t = 4e-08 [s]" I = 10 SOLUTIONTIME = 4.0000000000000E-08
0 	5.76887e-10 	0.92 	0.04 	0.04 	0.0350288 	-2.55776e-07 	
-0.0350356 	-0.0409067 	0.00587115 	0.829319 	4.29731e-09 	0.41512 	14.5297 	
6.67746e-11 	91448.4 	916.789 	1145.99 	0.35 	8.53017 	0.0973298 	4.37444e-05 	
0.00379119 	0.000947796 	0 	0 	0 	0 	0 	0 	0 	
8.74889e-05 	1.73102e-09 	0.92 	0.04 	0.04 	0.0350288 	-2.57676e-07 	
-0.0350356 	-0.0409067 	0.00587115 	1.65864 	1.28919e-08 	1.66048 	13.2844 	
1.33549e-10 	182897 	1833.58 	2291.97 	0.35 	17.0603 	0.0973299 	8.74889e-05 	
0.00758237 	0.00189559 	0 	0 	0 	0 	0 	0 	0 	
0.000174978 	2.8848e-09 	0.92 	0.04 	0.04 	0.0350288 	-2.59352e-07 	
-0.0350355 	-0.0409067 	0.00587118 	1.65865 	2.14866e-08 	3.32096 	11.6239 	
1.3355e-10 	182897 	1833.58 	2291.97 	0.35 	17.0603 	0.0973303 	8.74889e-05 	
0.00758237 	0.00189559 	0 	0 	0 	0 	0 	0 	0 	
0.000262467 	4.03859e-09 	0.92 	0.04 	0.04 	0.0350288 	-2.60805e-07 	
-0.0350355 	-0.0409067 	0.00587121 	1.65866 	3.00813e-08 	4.98146 	9.96338 	
1.33551e-10 	182897 	1833.58 	2291.97 	0.35 	17.0603 	0.0973309 	8.74889e-05 	
0.00758237 	0.00189559 	0 	0 	0 	0 	0 	0 	0 	
0.000349956 	5.19275e-09 	0.92 	0.04 	0.04 	0.0350287 	-2.62034e-07 	
-0.0350354 	-0.0409067 	0.00587127 	1.65867 	3.86761e-08 	6.64196 	8.30288 	
1.33552e-10 	182897 	1833.58 	2291.97 	0.35 	17.0603 	0.0973318 	8.74889e-05 	
0.00758237 	0.00189559 	0 	0 	0 	0 	0 	0 	0 	
0.000437444 	6.34692e-09 	0.92 	0.04 	0.04 	0.0350286 	-2.6304e-07 	
-0.0350354 	-0.0409067 	0.00587134 	1.65869 	4.7271e-08 	8.30248 	6.64235 	
1.33554e-10 	182897 	1833.58 	2291.97 	0.35 	17.0603 	0.0973329 	8.74889e-05 	
0.00758237 	0.00189559 	0 	0 	0 	0 	0 	0 	0 	
0.000524933 	7.50039e-09 	0.92 	0.04 	0.04 	0.0350285 	-2.63822e-07 	
-0.0350353 	-0.0409067 	0.00587142 	1.65872 	5.5866e-08 	9.96303 	4.98181 	
1.33556e-10 	182897 	1833.58 	2291.97 	0.35 	17.0603 	0.0973344 	8.74889e-05 	
0.00758237 	0.00189559 	0 	0 	0 	0 	0 	0 	0 	
0.000612422 	8.65314e-09 	0.92 	0.04 	0.04 	0.0350284 	-2.64381e-07 	
-0.0350352 	-0.0409067 	0.00587152 	1.65874 	6.44612e-08 	11.6236 	3.32124 	
1.33559e-10 	182897 	1833.58 	2291.97 	0.35 	17.0603 	0.097336 	8.74889e-05 	
0.00758237 	0.00189559 	0 	0 	0 	0 	0 	0 	0 	
0.000699911 	9.80701e-09 	0.92 	0.04 	0.04 	0.0350283 	-2.64716e-07 	
-0.0350351 	-0.0409067 	0.00587164 	1.65878 	7.30566e-08 	13.2842 	1.66064 	
1.33562e-10 	182897 	1833.58 	2291.97 	0.35 	17.0603 	0.097338 	8.74889e-05 	
0.00758237 	0.00189559 	0 	0 	0 	0 	0 	0 	0 	
0.0007874 	1.03831e-08 	0.92 	0.04 	0.04 	0.0350282 	-2.64828e-07 	
-0.0350349 	-0.0409067 	0.00587177 	0.829408 	7.30566e-08 	14.5297 	0.415164 	
6.67828e-11 	91448.4 	916.789 	1145.99 	0.35 	8.53017 	0.0973402 	4.37444e-05 	
0.00379119 	0.000947796 	0 	0 	0 	0 	0 	0 	0 	
ZONE T = "t = 5.10849e-08 [s]" I = 10 SOLUTIONTIME = 5.1084922842800E-08
0 	5.76359e-10 	0.92 	0.04 	0.04 	0.0350288 	-2.55776e-07 	
-0.0350291 	-0.0409067 	0.00587764 	0.830239 	4.30241e-09 	0.41512 	14.5297 	
8.75829e-11 	91448.4 	916.789 	1145.99 	0.35 	8.53017 	0.0973298 	4.37444e-05 	
0.00379119 	0.000947796 	0 	0 	0 	0 	0 	0 	0 	
8.74889e-05 	1.72908e-09 	0.92 	0.04 	0.04 	0.0350288 	-2.57676e-07 	
-0.0350291 	-0.0409067 	0.00587764 	1.66048 	1.29072e-08 	1.66048 	13.2844 	
1.75166e-10 	182897 	1833.58 	2291.97 	0.35 	17.0603 	0.0973299 	8.74889e-05 	
0.00758237 	0.00189559 	0 	0 	0 	0 	0 	0 	0 	
0.000174978 	2.8818e-09 	0.92 	0.04 	0.04 	0.0350288 	-2.59352e-07 	
-0.035029 	-0.0409067 	0.00587766 	1.66049 	2.15121e-08 	3.32096 	11.6239 	
1.75167e-10 	182897 	1833.58 	2291.97 	0.35 	17.0603 	0.0973303 	8.74889e-05 	
0.00758237 	0.00189559 	0 	0 	0 	0 	0 	0 	0 	
0.000262467 	4.03454e-09 	0.92 	0.04 	0.04 	0.0350288 	-2.60805e-07 	
-0.035029 	-0.0409067 	0.0058777 	1.6605 	3.0117e-08 	4.98146 	9.96338 	
1.75168e-10 	182897 	1833.58 	2291.97 	0.35 	17.0603 	0.0973309 	8.74889e-05 	
0.00758237 	0.00189559 	0 	0 	0 	0 	0 	0 	0 	
0.000349956 	5.18728e-09 	0.92 	0.04 	0.04 	0.0350287 	-2.62034e-07 	
-0.035029 	-0.0409067 	0.00587776 	1.66051 	3.8722e-08 	6.64196 	8.30288 	
1.7517e-10 	182897 	1833.58 	2291.97 	0.35 	17.0603 	0.0973318 	8.74889e-05 	
0.00758237 	0.00189559 	0 	0 	0 	0 	0 	0 	0 	
0.000437444 	6.33971e-09 	0.92 	0.04 	0.04 	0.0350286 	-2.6304e-07 	
-0.0350289 	-0.0409067 	0.00587782 	1.66053 	4.73271e-08 	8.30248 	6.64235 	
1.75172e-10 	182897 	1833.58 	2291.97 	0.35 	17.0603 	0.0973329 	8.74889e-05 	
0.00758237 	0.00189559 	0 	0 	0 	0 	0 	0 	0 	
0.000524933 	7.49281e-09 	0.92 	0.04 	0.04 	0.0350285 	-2.63822e-07 	
-0.0350288 	-0.0409067 	0.00587791 	1.66056 	5.59324e-08 	9.96303 	4.98181 	
1.75175e-10 	182897 	1833.58 	2291.97 	0.35 	17.0603 	0.0973344 	8.74889e-05 	
0.00758237 	0.00189559 	0 	0 	0 	0 	0 	0 	0 	
0.000612422 	8.64593e-09 	0.92 	0.04 	0.04 	0.0350284 	-2.64381e-07 	
-0.0350287 	-0.0409067 	0.00587801 	1.66059 	6.45377e-08 	11.6236 	3.32124 	
1.75178e-10 	182897 	1833.58 	2291.97 	0.35 	17.0603 	0.097336 	8.74889e-05 	
0.00758237 	0.00189559 	0 	0 	0 	0 	0 	0 	0 	
0.000699911 	9.79907e-09 	0.92 	0.04 	0.04 	0.0350283 	-2.64716e-07 	
-0.0350286 	-0.0409067 	0.00587813 	1.66062 	7.31434e-08 	13.2842 	1.66064 	
1.75182e-10 	182897 	1833.58 	2291.97 	0.35 	17.0603 	0.097338 	8.74889e-05 	
0.00758237 	0.00189559 	0 	0 	0 	0 	0 	0 	0 	
0.0007874 	1.03761e-08 	0.92 	0.04 	0.04 	0.0350282 	-2.64828e-07 	
-0.0350285 	-0.0409067 	0.00587826 	0.830328 	7.31434e-08 	14.5297 	0.415164 	
8.75933e-11 	91448.4 	916.789 	1145.99 	0.35 	8.53017 	0.0973402 	4.37444e-05 	
0.00379119 	0.000947796 	0 	0 	0 	0 	0 	0 	0 	
ZONE T = "t = 6.58626e-08 [s]" I = 10 SOLUTIONTIME = 6.5862639992886E-08
0 	5.76646e-10 	0.92 	0.04 	0.04 	0.0350288 	-2.55776e-07 	
-0.0350291 	-0.0409067 	0.00587764 	0.830239 	4.30241e-09 	0.41512 	14.5297 	
1.10649e-10 	91448.4 	916.789 	1145.99 	0.35 	8.53017 	0.0973298 	4.37444e-05 	
0.00379119 	0.000947796 	0 	0 	0 	0 	0 	0 	0 	
8.74889e-05 	1.72994e-09 	0.92 	0.04 	0.04 	0.0350288 	-2.57676e-07 	
-0.0350291 	-0.0409067 	0.00587764 	1.66048 	1.29072e-08 	1.66048 	13.2844 	
2.21298e-10 	182897 	1833.58 	2291.97 	0.35 	17.0603 	0.0973299 	8.74889e-05 	
0.00758237 	0.00189559 	0 	0 	0 	0 	0 	0 	0 	
0.000174978 	2.88275e-09 	0.92 	0.04 	0.04 	0.0350288 	-2.59352e-07 	
-0.035029 	-0.0409067 	0.00587766 	1.66049 	2.15121e-08 	3.32096 	11.6239 	
2.21299e-10 	182897 	1833.58 	2291.97 	0.35 	17.0603 	0.0973303 	8.74889e-05 	
0.00758237 	0.00189559 	0 	0 	0 	0 	0 	0 	0 	
0.000262467 	4.03556e-09 	0.92 	0.04 	0.04 	0.0350288 	-2.60805e-07 	
-0.035029 	-0.0409067 	0.0058777 	1.6605 	3.0117e-08 	4.98146 	9.96338 	
2.213e-10 	182897 	1833.58 	2291.97 	0.35 	17.0603 	0.0973309 	8.74889e-05 	
0.00758237 	0.00189559 	0 	0 	0 	0 	0 	0 	0 	
0.000349956 	5.18814e-09 	0.92 	0.04 	0.04 	0.0350287 	-2.62034e-07 	
-0.035029 	-0.0409067 	0.00587776 	1.66051 	3.8722e-08 	6.64196 	8.30288 	
2.21302e-10 	182897 	1833.58 	2291.97 	0.35 	17.0603 	0.0973318 	8.74889e-05 	
0.00758237 	0.00189559 	0 	0 	0 	0 	0 	0 	0 	
0.000437444 	6.34098e-09 	0.92 	0.04 	0.04 	0.0350286 	-2.6304e-07 	
-0.0350289 	-0.0409067 	0.00587782 	1.66053 	4.73271e-08 	8.30248 	6.64235 	
2.21305e-10 	182897 	1833.58 	2291.97 	0.35 	17.0603 	0.0973329 	8.74889e-05 	
0.00758237 	0.00189559 	0 	0 	0 	0 	0 	0 	0 	
0.000524933 	7.49383e-09 	0.92 	0.04 	0.04 	0.0350285 	-2.63822e-07 	
-0.0350288 	-0.0409067 	0.00587791 	1.66056 	5.59324e-08 	9.96303 	4.98181 	
2.21309e-10 	182897 	1833.58 	2291.97 	0.35 	17.0603 	0.0973344 	8.74889e-05 	
0.00758237 	0.00189559 	0 	0 	0 	0 	0 	0 	0 	
0.000612422 	8.64646e-09 	0.92 	0.04 	0.04 	0.0350284 	-2.64381e-07 	
-0.0350287 	-0.0409067 	0.00587801 	1.66059 	6.45377e-08 	11.6236 	3.32124 	
2.21313e-10 	182897 	1833.58 	2291.97 	0.35 	17.0603 	0.097336 	8.74889e-05 	
0.00758237 	0.00189559 	0 	0 	0 	0 	0 	0 	0 	
0.000699911 	9.79911e-09 	0.92 	0.04 	0.04 	0.0350283 	-2.64716e-07 	
-0.0350286 	-0.0409067 	0.00587813 	1.66062 	7.31435e-08 	13.2842 	1.66064 	
2.21318e-10 	182897 	1833.58 	2291.97 	0.35 	17.0603 	0.097338 	8.74889e-05 	
0.00758237 	0.00189559 	0 	0 	0 	0 	0 	0 	0 	
0.0007874 	1.03748e-08 	0.92 	0.04 	0.04 	0.0350282 	-2.64828e-07 	
-0.0350285 	-0.0409067 	0.00587826 	0.830328 	7.31435e-08 	14.5297 	0.415164 	
1.10662e-10 	91448.4 	916.789 	1145.99 	0.35 	8.53017 	0.0973402 	4.37444e-05 	
0.00379119 	0.000947796 	0 	0 	0 	0 	0 	0 	0 	
ZONE T = "t = 8.80292e-08 [s]" I = 10 SOLUTIONTIME = 8.8029215718014E-08
0 	5.76359e-10 	0.92 	0.04 	0.04 	0.0350288 	-2.55776e-07 	
-0.0350291 	-0.0409067 	0.00587764 	0.830239 	4.30241e-09 	0.41512 	14.5297 	
1.41399e-10 	91448.4 	916.789 	1145.99 	0.35 	8.53017 	0.0973298 	4.37444e-05 	
0.00379119 	0.000947796 	0 	0 	0 	0 	0 	0 	0 	
8.74889e-05 	1.72892e-09 	0.92 	0.04 	0.04 	0.0350288 	-2.57676e-07 	
-0.0350291 	-0.0409067 	0.00587764 	1.66048 	1.29072e-08 	1.66048 	13.2844 	
2.82798e-10 	182897 	1833.58 	2291.97 	0.35 	17.0603 	0.0973299 	8.74889e-05 	
0.00758237 	0.00189559 	0 	0 	0 	0 	0 	0 	0 	
0.000174978 	2.88197e-09 	0.92 	0.04 	0.04 	0.0350288 	-2.59352e-07 	
-0.035029 	-0.0409067 	0.00587766 	1.66049 	2.15121e-08 	3.32096 	11.6239 	
2.82799e-10 	182897 	1833.58 	2291.97 	0.35 	17.0603 	0.0973303 	8.74889e-05 	
0.00758237 	0.00189559 	0 	0 	0 	0 	0 	0 	0 	
0.000262467 	4.03503e-09 	0.92 	0.04 	0.04 	0.0350288 	-2.60805e-07 	
-0.035029 	-0.0409067 	0.0058777 	1.6605 	3.0117e-08 	4.98146 	9.96338 	
2.82801e-10 	182897 	1833.58 	2291.97 	0.35 	17.0603 	0.0973309 	8.74889e-05 	
0.00758237 	0.00189559 	0 	0 	0 	0 	0 	0 	0 	
0.000349956 	5.1881e-09 	0.92 	0.04 	0.04 	0.0350287 	-2.62034e-07 	
-0.035029 	-0.0409067 	0.00587776 	1.66051 	3.8722e-08 	6.64196 	8.30288 	
2.82803e-10 	182897 	1833.58 	2291.97 	0.35 	17.0603 	0.0973318 	8.74889e-05 	
0.00758237 	0.00189559 	0 	0 	0 	0 	0 	0 	0 	
0.000437444 	6.34118e-09 	0.92 	0.04 	0.04 	0.0350286 	-2.6304e-07 	
-0.0350289 	-0.0409067 	0.00587782 	1.66053 	4.73271e-08 	8.30248 	6.64235 	
2.82807e-10 	182897 	1833.58 	2291.97 	0.35 	17.0603 	0.0973329 	8.74889e-05 	
0.00758237 	0.00189559 	0 	0 	0 	0 	0 	0 	0 	
0.000524933 	7.49428e-09 	0.92 	0.04 	0.04 	0.0350285 	-2.63822e-07 	
-0.0350288 	-0.0409067 	0.00587791 	1.66056 	5.59324e-08 	9.96303 	4.98181 	
2.82811e-10 	182897 	1833.58 	2291.97 	0.35 	17.0603 	0.0973344 	8.74889e-05 	
0.00758237 	0.00189559 	0 	0 	0 	0 	0 	0 	0 	
0.000612422 	8.6474e-09 	0.92 	0.04 	0.04 	0.0350284 	-2.64381e-07 	
-0.0350287 	-0.0409067 	0.00587801 	1.66059 	6.45377e-08 	11.6236 	3.32124 	
2.82817e-10 	182897 	1833.58 	2291.97 	0.35 	17.0603 	0.097336 	8.74889e-05 	
0.00758237 	0.00189559 	0 	0 	0 	0 	0 	0 	0 	
0.000699911 	9.80055e-09 	0.92 	0.04 	0.04 	0.0350283 	-2.64716e-07 	
-0.0350286 	-0.0409067 	0.00587813 	1.66062 	7.31435e-08 	13.2842 	1.66064 	
2.82823e-10 	182897 	1833.58 	2291.97 	0.35 	17.0603 	0.097338 	8.74889e-05 	
0.00758237 	0.00189559 	0 	0 	0 	0 	0 	0 	0 	
0.0007874 	1.03775e-08 	0.92 	0.04 	0.04 	0.0350282 	-2.64828e-07 	
-0.0350285 	-0.0409067 	0.00587826 	0.830328 	7.31435e-08 	14.5297 	0.415164 	
1.41415e-10 	91448.4 	916.789 	1145.99 	0.35 	8.53017 	0.0973402 	4.37444e-05 	
0.00379119 	0.000947796 	0 	0 	0 	0 	0 	0 	0 	
ZONE T = "t = 1.21279e-07 [s]" I = 10 SOLUTIONTIME = 1.2127907930571E-07
0 	5.76633e-10 	0.92 	0.04 	0.04 	0.0350288 	-2.55776e-07 	
-0.0350291 	-0.0409067 	0.00587764 	0.830239 	4.30241e-09 	0.41512 	14.5297 	
1.87523e-10 	91448.4 	916.789 	1145.99 	0.35 	8.53017 	0.0973298 	4.37444e-05 	
0.00379119 	0.000947796 	0 	0 	0 	0 	0 	0 	0 	
8.74889e-05 	1.73001e-09 	0.92 	0.04 	0.04 	0.0350288 	-2.57676e-07 	
-0.0350291 	-0.0409067 	0.00587764 	1.66048 	1.29072e-08 	1.66048 	13.2844 	
3.75047e-10 	182897 	1833.58 	2291.97 	0.35 	17.0603 	0.0973299 	8.74889e-05 	
0.00758237 	0.00189559 	0 	0 	0 	0 	0 	0 	0 	
0.000174978 	2.88306e-09 	0.92 	0.04 	0.04 	0.0350288 	-2.59352e-07 	
-0.035029 	-0.0409067 	0.00587766 	1.66049 	2.15121e-08 	3.32096 	11.6239 	
3.75049e-10 	182897 	1833.58 	2291.97 	0.35 	17.0603 	0.0973303 	8.74889e-05 	
0.00758237 	0.00189559 	0 	0 	0 	0 	0 	0 	0 	
0.000262467 	4.03612e-09 	0.92 	0.04 	0.04 	0.0350288 	-2.60805e-07 	
-0.035029 	-0.0409067 	0.0058777 	1.6605 	3.0117e-08 	4.98146 	9.96338 	
3.75051e-10 	182897 	1833.58 	2291.97 	0.35 	17.0603 	0.0973309 	8.74889e-05 	
0.00758237 	0.00189559 	0 	0 	0 	0 	0 	0 	0 	
0.000349956 	5.18952e-09 	0.92 	0.04 	0.04 	0.0350287 	-2.62034e-07 	
-0.035029 	-0.0409067 	0.00587776 	1.66051 	3.8722e-08 	6.64196 	8.30288 	
3.75055e-10 	182897 	1833.58 	2291.97 	0.35 	17.0603 	0.0973318 	8.74889e-05 	
0.00758237 	0.00189559 	0 	0 	0 	0 	0 	0 	0 	
0.000437444 	6.3426e-09 	0.92 	0.04 	0.04 	0.0350286 	-2.6304e-07 	
-0.0350289 	-0.0409067 	0.00587782 	1.66053 	4.73271e-08 	8.30248 	6.64235 	
3.7506e-10 	182897 	1833.58 	2291.97 	0.35 	17.0603 	0.0973329 	8.74889e-05 	
0.00758237 	0.00189559 	0 	0 	0 	0 	0 	0 	0 	
0.000524933 	7.4957e-09 	0.92 	0.04 	0.04 	0.0350285 	-2.63822e-07 	
-0.0350288 	-0.0409067 	0.00587791 	1.66056 	5.59324e-08 	9.96303 	4.98181 	
3.75065e-10 	182897 	1833.58 	2291.97 	0.35 	17.0603 	0.0973344 	8.74889e-05 	
0.00758237 	0.00189559 	0 	0 	0 	0 	0 	0 	0 	
0.000612422 	8.64882e-09 	0.92 	0.04 	0.04 	0.0350284 	-2.64381e-07 	
-0.0350287 	-0.0409067 	0.00587801 	1.66059 	6.45377e-08 	11.6236 	3.32124 	
3.75072e-10 	182897 	1833.58 	2291.97 	0.35 	17.0603 	0.097336 	8.74889e-05 	
0.00758237 	0.00189559 	0 	0 	0 	0 	0 	0 	0 	
0.000699911 	9.80197e-09 	0.92 	0.04 	0.04 	0.0350283 	-2.64716e-07 	
-0.0350286 	-0.0409067 	0.00587813 	1.66062 	7.31436e-08 	13.2842 	1.66064 	
3.7508e-10 	182897 	1833.58 	2291.97 	0.35 	17.0603 	0.097338 	8.74889e-05 	
0.00758237 	0.00189559 	0 	0 	0 	0 	0 	0 	0 	
0.0007874 	1.03787e-08 	0.92 	0.04 	0.04 	0.0350282 	-2.64828e-07 	
-0.0350285 	-0.0409067 	0.00587826 	0.830328 	7.31436e-08 	14.5297 	0.415164 	
1.87545e-10 	91448.4 	916.789 	1145.99 	0.35 	8.53017 	0.0973402 	4.37444e-05 	
0.00379119 	0.000947796 	0 	0 	0 	0 	0 	0 	0 	
ZONE T = "t = 1.71154e-07 [s]" I = 10 SOLUTIONTIME = 1.7115387468725E-07
0 	5.76487e-10 	0.92 	0.04 	0.04 	0.0350288 	-2.55776e-07 	
-0.0350291 	-0.0409067 	0.00587764 	0.830239 	4.30241e-09 	0.41512 	14.5297 	
2.56711e-10 	91448.4 	916.789 	1145.99 	0.35 	8.53017 	0.0973298 	4.37444e-05 	
0.00379119 	0.000947796 	0 	0 	0 	0 	0 	0 	0 	
8.74889e-05 	1.72946e-09 	0.92 	0.04 	0.04 	0.0350288 	-2.57676e-07 	
-0.0350291 	-0.0409067 	0.00587764 	1.66048 	1.29072e-08 	1.66048 	13.2844 	
5.13422e-10 	182897 	1833.58 	2291.97 	0.35 	17.0603 	0.0973299 	8.74889e-05 	
0.00758237 	0.00189559 	0 	0 	0 	0 	0 	0 	0 	
0.000174978 	2.88251e-09 	0.92 	0.04 	0.04 	0.0350288 	-2.59352e-07 	
-0.035029 	-0.0409067 	0.00587766 	1.66049 	2.15121e-08 	3.32096 	11.6239 	
5.13424e-10 	182897 	1833.58 	2291.97 	0.35 	17.0603 	0.0973303 	8.74889e-05 	
0.00758237 	0.00189559 	0 	0 	0 	0 	0 	0 	0 	
0.000262467 	4.03557e-09 	0.92 	0.04 	0.04 	0.0350288 	-2.60805e-07 	
-0.035029 	-0.0409067 	0.0058777 	1.6605 	3.0117e-08 	4.98146 	9.96338 	
5.13427e-10 	182897 	1833.58 	2291.97 	0.35 	17.0603 	0.0973309 	8.74889e-05 	
0.00758237 	0.00189559 	0 	0 	0 	0 	0 	0 	0 	
0.000349956 	5.18843e-09 	0.92 	0.04 	0.04 	0.0350287 	-2.62034e-07 	
-0.035029 	-0.0409067 	0.00587776 	1.66051 	3.8722e-08 	6.64196 	8.30288 	
5.13432e-10 	182897 	1833.58 	2291.97 	0.35 	17.0603 	0.0973318 	8.74889e-05 	
0.00758237 	0.00189559 	0 	0 	0 	0 	0 	0 	0 	
0.000437444 	6.34158e-09 	0.92 	0.04 	0.04 	0.0350286 	-2.6304e-07 	
-0.0350289 	-0.0409067 	0.00587782 	1.66053 	4.73271e-08 	8.30248 	6.64235 	
5.13439e-10 	182897 	1833.58 	2291.97 	0.35 	17.0603 	0.0973329 	8.74889e-05 	
0.00758237 	0.00189559 	0 	0 	0 	0 	0 	0 	0 	
0.000524933 	7.49468e-09 	0.92 	0.04 	0.04 	0.0350285 	-2.63822e-07 	
-0.0350288 	-0.0409067 	0.00587791 	1.66056 	5.59324e-08 	9.96303 	4.98181 	
5.13446e-10 	182897 	1833.58 	2291.97 	0.35 	17.0603 	0.0973344 	8.74889e-05 	
0.00758237 	0.00189559 	0 	0 	0 	0 	0 	0 	0 	
0.000612422 	8.64795e-09 	0.92 	0.04 	0.04 	0.0350284 	-2.64381e-07 	
-0.0350287 	-0.0409067 	0.00587801 	1.66059 	6.45377e-08 	11.6236 	3.32124 	
5.13456e-10 	182897 	1833.58 	2291.97 	0.35 	17.0603 	0.097336 	8.74889e-05 	
0.00758237 	0.00189559 	0 	0 	0 	0 	0 	0 	0 	
0.000699911 	9.80124e-09 	0.92 	0.04 	0.04 	0.0350283 	-2.64716e-07 	
-0.0350286 	-0.0409067 	0.00587813 	1.66062 	7.31437e-08 	13.2842 	1.66064 	
5.13466e-10 	182897 	1833.58 	2291.97 	0.35 	17.0603 	0.097338 	8.74889e-05 	
0.00758237 	0.00189559 	0 	0 	0 	0 	0 	0 	0 	
0.0007874 	1.03778e-08 	0.92 	0.04 	0.04 	0.0350282 	-2.64828e-07 	
-0.0350285 	-0.0409067 	0.00587826 	0.830328 	7.31437e-08 	14.5297 	0.415164 	
2.56739e-10 	91448.4 	916.789 	1145.99 	0.35 	8.53017 	0.0973402 	4.37444e-05 	
0.00379119 	0.000947796 	0 	0 	0 	0 	0 	0 	0 	
ZONE T = "t = 2.45966e-07 [s]" I = 10 SOLUTIONTIME = 2.4596606775955E-07
0 	5.76499e-10 	0.92 	0.04 	0.04 	0.0350288 	-2.55776e-07 	
-0.0350291 	-0.0409067 	0.00587764 	0.830239 	4.30241e-09 	0.41512 	14.5297 	
3.60492e-10 	91448.4 	916.789 	1145.99 	0.35 	8.53017 	0.0973298 	4.37444e-05 	
0.00379119 	0.000947796 	0 	0 	0 	0 	0 	0 	0 	
8.74889e-05 	1.72945e-09 	0.92 	0.04 	0.04 	0.0350288 	-2.57676e-07 	
-0.0350291 	-0.0409067 	0.00587764 	1.66048 	1.29072e-08 	1.66048 	13.2844 	
7.20984e-10 	182897 	1833.58 	2291.97 	0.35 	17.0603 	0.0973299 	8.74889e-05 	
0.00758237 	0.00189559 	0 	0 	0 	0 	0 	0 	0 	
0.000174978 	2.8825e-09 	0.92 	0.04 	0.04 	0.0350288 	-2.59352e-07 	
-0.035029 	-0.0409067 	0.00587766 	1.66049 	2.15121e-08 	3.32096 	11.6239 	
7.20987e-10 	182897 	1833.58 	2291.97 	0.35 	17.0603 	0.0973303 	8.74889e-05 	
0.00758237 	0.00189559 	0 	0 	0 	0 	0 	0 	0 	
0.000262467 	4.03556e-09 	0.92 	0.04 	0.04 	0.0350288 	-2.60805e-07 	
-0.035029 	-0.0409067 	0.0058777 	1.6605 	3.0117e-08 	4.98146 	9.96338 	
7.20992e-10 	182897 	1833.58 	2291.97 	0.35 	17.0603 	0.0973309 	8.74889e-05 	
0.00758237 	0.00189559 	0 	0 	0 	0 	0 	0 	0 	
0.000349956 	5.18878e-09 	0.92 	0.04 	0.04 	0.0350287 	-2.62034e-07 	
-0.035029 	-0.0409067 	0.00587776 	1.66051 	3.8722e-08 	6.64196 	8.30288 	
7.20998e-10 	182897 	1833.58 	2291.97 	0.35 	17.0603 	0.0973318 	8.74889e-05 	
0.00758237 	0.00189559 	0 	0 	0 	0 	0 	0 	0 	
0.000437444 	6.34186e-09 	0.92 	0.04 	0.04 	0.0350286 	-2.6304e-07 	
-0.0350289 	-0.0409067 	0.00587782 	1.66053 	4.73271e-08 	8.30248 	6.64235 	
7.21007e-10 	182897 	1833.58 	2291.97 	0.35 	17.0603 	0.0973329 	8.74889e-05 	
0.00758237 	0.00189559 	0 	0 	0 	0 	0 	0 	0 	
0.000524933 	7.49511e-09 	0.92 	0.04 	0.04 	0.0350285 	-2.63822e-07 	
-0.0350288 	-0.0409067 	0.00587791 	1.66056 	5.59324e-08 	9.96303 	4.98181 	
7.21018e-10 	182897 	1833.58 	2291.97 	0.35 	17.0603 	0.0973344 	8.74889e-05 	
0.00758237 	0.00189559 	0 	0 	0 	0 	0 	0 	0 	
0.000612422 	8.64828e-09 	0.92 	0.04 	0.04 	0.0350284 	-2.64381e-07 	
-0.0350287 	-0.0409067 	0.00587801 	1.66059 	6.45377e-08 	11.6236 	3.32124 	
7.21031e-10 	182897 	1833.58 	2291.97 	0.35 	17.0603 	0.097336 	8.74889e-05 	
0.00758237 	0.00189559 	0 	0 	0 	0 	0 	0 	0 	
0.000699911 	9.80147e-09 	0.92 	0.04 	0.04 	0.0350283 	-2.64716e-07 	
-0.0350286 	-0.0409067 	0.00587813 	1.66062 	7.31439e-08 	13.2842 	1.66064 	
7.21046e-10 	182897 	1833.58 	2291.97 	0.35 	17.0603 	0.097338 	8.74889e-05 	
0.00758237 	0.00189559 	0 	0 	0 	0 	0 	0 	0 	