TITLE = "Solution on Domain BulkDomain1D_0"
VARIABLES = "x [m]"  
"Vel_axial" 
"MF_sp(ECDMC)" 
"MF_sp(Li+)" 
"MF_sp(PF6-)" 
"Volt(Electroly)" 
"Volt(AnodeVolt)" 
"Potential Drop Electrode-Electrolyte [V]" 
"Surf_0 Equilibrium Potential Drop Electrode-Electrolyte [V]" 
"Overpotential_0 [V]" 
"Current Source [A/m^2]" 
"Li+ flux [kmol/m^2/s]" 
"Electrolyte Current [A/m^2]" 
"Electrode Current [A/m^2]" 
"CV Capacity discharged [A-s/m^2]" 
"Depth of discharge in CV [A-s/m^2]" 
"CV Capacity remaining [A-s/m^2]" 
"Initial CV capacity [A-s/m^2]" 
"Porosity []" 
"Surface Area [m2/m2] (area per area)" 
"Specific current (per particle area) [A/m^2]" 
"Control volume thickness [m]" 
"MoleDens Li_C6-bulk [kmol/m^3]" 
"MoleDens V_C6-bulk [kmol/m^3]" 
"qHeat_accum [J/m3]" 
"qHeat_step [W/m3]" 
"Joule_Lyte [W/m3]" 
"Joule_Solid [W/m3]" 
"electrodHeat [W/m3]" 
"OverpotHeat [W/m3]" 
"deltaSHeat [W/m3]" 

ZONE T = "ANOD, 0.0000E+00", I = 10, SOLUTIONTIME = 0.000000E+00
ZONETYPE = ORDERED
DATAPACKING = BLOCK
STRANDID = 1
 0.0000000000000E+00  8.7488888888889E-05  1.7497777777778E-04  2.6246666666667E-04  3.4995555555556E-04  4.3744444444444E-04  5.2493333333333E-04  6.1242222222222E-04  6.9991111111111E-04  7.8740000000000E-04 
 0.0000000000000E+00  0.0000000000000E+00  0.0000000000000E+00  0.0000000000000E+00  0.0000000000000E+00  0.0000000000000E+00  0.0000000000000E+00  0.0000000000000E+00  0.0000000000000E+00  0.0000000000000E+00 
 9.2000000000000E-01  9.2000000000000E-01  9.2000000000000E-01  9.2000000000000E-01  9.2000000000000E-01  9.2000000000000E-01  9.2000000000000E-01  9.2000000000000E-01  9.2000000000000E-01  9.2000000000000E-01 
 4.0000000000000E-02  4.0000000000000E-02  4.0000000000000E-02  4.0000000000000E-02  4.0000000000000E-02  4.0000000000000E-02  4.0000000000000E-02  4.0000000000000E-02  4.0000000000000E-02  4.0000000000000E-02 
 4.0000000000000E-02  4.0000000000000E-02  4.0000000000000E-02  4.0000000000000E-02  4.0000000000000E-02  4.0000000000000E-02  4.0000000000000E-02  4.0000000000000E-02  4.0000000000000E-02  4.0000000000000E-02 
-7.0000000000000E-02 -7.0000000000000E-02 -7.0000000000000E-02 -7.0000000000000E-02 -7.0000000000000E-02 -7.0000000000000E-02 -7.0000000000000E-02 -7.0000000000000E-02 -7.0000000000000E-02 -7.0000000000000E-02 
 0.0000000000000E+00  0.0000000000000E+00  0.0000000000000E+00  0.0000000000000E+00  0.0000000000000E+00  0.0000000000000E+00  0.0000000000000E+00  0.0000000000000E+00  0.0000000000000E+00  0.0000000000000E+00 
 7.0000000000000E-02  7.0000000000000E-02  7.0000000000000E-02  7.0000000000000E-02  7.0000000000000E-02  7.0000000000000E-02  7.0000000000000E-02  7.0000000000000E-02  7.0000000000000E-02  7.0000000000000E-02 
-4.0906712753392E-02 -4.0906712753392E-02 -4.0906712753392E-02 -4.0906712753392E-02 -4.0906712753392E-02 -4.0906712753392E-02 -4.0906712753392E-02 -4.0906712753392E-02 -4.0906712753392E-02 -4.0906712753392E-02 
 1.1090671275339E-01  1.1090671275339E-01  1.1090671275339E-01  1.1090671275339E-01  1.1090671275339E-01  1.1090671275339E-01  1.1090671275339E-01  1.1090671275339E-01  1.1090671275339E-01  1.1090671275339E-01 
 3.0930240924008E+01  6.1860481848016E+01  6.1860481848016E+01  6.1860481848016E+01  6.1860481848016E+01  6.1860481848016E+01  6.1860481848016E+01  6.1860481848016E+01  6.1860481848016E+01  3.0930240924008E+01 
-0.0000000000000E+00 -0.0000000000000E+00 -0.0000000000000E+00 -0.0000000000000E+00 -0.0000000000000E+00 -0.0000000000000E+00 -0.0000000000000E+00 -0.0000000000000E+00 -0.0000000000000E+00 -0.0000000000000E+00 
 0.0000000000000E+00  0.0000000000000E+00  0.0000000000000E+00  0.0000000000000E+00  0.0000000000000E+00  0.0000000000000E+00  0.0000000000000E+00  0.0000000000000E+00  0.0000000000000E+00  3.0930240924008E+01 
 3.0930240924008E+01 -0.0000000000000E+00 -0.0000000000000E+00 -0.0000000000000E+00 -0.0000000000000E+00 -0.0000000000000E+00 -0.0000000000000E+00 -0.0000000000000E+00 -0.0000000000000E+00  0.0000000000000E+00 
 0.0000000000000E+00  0.0000000000000E+00  0.0000000000000E+00  0.0000000000000E+00  0.0000000000000E+00  0.0000000000000E+00  0.0000000000000E+00  0.0000000000000E+00  0.0000000000000E+00  0.0000000000000E+00 
 9.1448444543281E+04  1.8289688908656E+05  1.8289688908656E+05  1.8289688908656E+05  1.8289688908656E+05  1.8289688908656E+05  1.8289688908656E+05  1.8289688908656E+05  1.8289688908656E+05  9.1448444543281E+04 
 3.6579377817312E+05  7.3158755634625E+05  7.3158755634625E+05  7.3158755634625E+05  7.3158755634625E+05  7.3158755634625E+05  7.3158755634625E+05  7.3158755634625E+05  7.3158755634625E+05  3.6579377817312E+05 
 4.5724222271640E+05  9.1448444543281E+05  9.1448444543281E+05  9.1448444543281E+05  9.1448444543281E+05  9.1448444543281E+05  9.1448444543281E+05  9.1448444543281E+05  9.1448444543281E+05  4.5724222271640E+05 
 3.5000000000000E-01  3.5000000000000E-01  3.5000000000000E-01  3.5000000000000E-01  3.5000000000000E-01  3.5000000000000E-01  3.5000000000000E-01  3.5000000000000E-01  3.5000000000000E-01  3.5000000000000E-01 
 8.5301666666666E+00  1.7060333333333E+01  1.7060333333333E+01  1.7060333333333E+01  1.7060333333333E+01  1.7060333333333E+01  1.7060333333333E+01  1.7060333333333E+01  1.7060333333333E+01  8.5301666666666E+00 
 3.6259831879809E+00  3.6259831879809E+00  3.6259831879809E+00  3.6259831879809E+00  3.6259831879809E+00  3.6259831879809E+00  3.6259831879809E+00  3.6259831879809E+00  3.6259831879809E+00  3.6259831879809E+00 
 4.3744444444444E-05  8.7488888888889E-05  8.7488888888889E-05  8.7488888888889E-05  8.7488888888889E-05  8.7488888888889E-05  8.7488888888889E-05  8.7488888888889E-05  8.7488888888889E-05  4.3744444444444E-05 
 8.6666666666666E+01  8.6666666666666E+01  8.6666666666666E+01  8.6666666666666E+01  8.6666666666666E+01  8.6666666666666E+01  8.6666666666666E+01  8.6666666666666E+01  8.6666666666666E+01  8.6666666666666E+01 
 2.1666666666667E+01  2.1666666666667E+01  2.1666666666667E+01  2.1666666666667E+01  2.1666666666667E+01  2.1666666666667E+01  2.1666666666667E+01  2.1666666666667E+01  2.1666666666667E+01  2.1666666666667E+01 
 0.0000000000000E+00  0.0000000000000E+00  0.0000000000000E+00  0.0000000000000E+00  0.0000000000000E+00  0.0000000000000E+00  0.0000000000000E+00  0.0000000000000E+00  0.0000000000000E+00  0.0000000000000E+00 
 0.0000000000000E+00  0.0000000000000E+00  0.0000000000000E+00  0.0000000000000E+00  0.0000000000000E+00  0.0000000000000E+00  0.0000000000000E+00  0.0000000000000E+00  0.0000000000000E+00  0.0000000000000E+00 
 0.0000000000000E+00  0.0000000000000E+00  0.0000000000000E+00  0.0000000000000E+00  0.0000000000000E+00  0.0000000000000E+00  0.0000000000000E+00  0.0000000000000E+00  0.0000000000000E+00  0.0000000000000E+00 
 0.0000000000000E+00  0.0000000000000E+00  0.0000000000000E+00  0.0000000000000E+00  0.0000000000000E+00  0.0000000000000E+00  0.0000000000000E+00  0.0000000000000E+00  0.0000000000000E+00  0.0000000000000E+00 
 0.0000000000000E+00  0.0000000000000E+00  0.0000000000000E+00  0.0000000000000E+00  0.0000000000000E+00  0.0000000000000E+00  0.0000000000000E+00  0.0000000000000E+00  0.0000000000000E+00  0.0000000000000E+00 
 0.0000000000000E+00  0.0000000000000E+00  0.0000000000000E+00  0.0000000000000E+00  0.0000000000000E+00  0.0000000000000E+00  0.0000000000000E+00  0.0000000000000E+00  0.0000000000000E+00  0.0000000000000E+00 
 0.0000000000000E+00  0.0000000000000E+00  0.0000000000000E+00  0.0000000000000E+00  0.0000000000000E+00  0.0000000000000E+00  0.0000000000000E+00  0.0000000000000E+00  0.0000000000000E+00  0.0000000000000E+00 
ZONE T = "ANOD, 1.0000E-08", I = 10, SOLUTIONTIME = 1.000000E-08
ZONETYPE = ORDERED
DATAPACKING = BLOCK
STRANDID = 1
 0.0000000000000E+00  8.7488888888889E-05  1.7497777777778E-04  2.6246666666667E-04  3.4995555555556E-04  4.3744444444444E-04  5.2493333333333E-04  6.1242222222222E-04  6.9991111111111E-04  7.8740000000000E-04 
 5.7663501009349E-10  1.7299061058872E-09  2.8831814148509E-09  4.0364640756704E-09  5.1897572237413E-09  6.3423375811890E-09  7.4949347000878E-09  8.6471885103824E-09  9.7994653564591E-09  1.0376524885066E-08 
 9.1999999999965E-01  9.1999999999965E-01  9.1999999999965E-01  9.1999999999965E-01  9.1999999999965E-01  9.1999999999965E-01  9.1999999999965E-01  9.1999999999965E-01  9.1999999999965E-01  9.1999999999983E-01 
 4.0000000000173E-02  4.0000000000173E-02  4.0000000000173E-02  4.0000000000173E-02  4.0000000000173E-02  4.0000000000173E-02  4.0000000000173E-02  4.0000000000173E-02  4.0000000000173E-02  4.0000000000083E-02 
 4.0000000000173E-02  4.0000000000173E-02  4.0000000000173E-02  4.0000000000173E-02  4.0000000000173E-02  4.0000000000173E-02  4.0000000000173E-02  4.0000000000173E-02  4.0000000000173E-02  4.0000000000083E-02 
 3.5029070478542E-02  3.5029062656274E-02  3.5029039189454E-02  3.5029000078026E-02  3.5028945321889E-02  3.5028874920902E-02  3.5028788874879E-02  3.5028687183593E-02  3.5028569846774E-02  3.5028436864110E-02 
-2.5574498172207E-07 -2.5810110832176E-07 -2.6018005358172E-07 -2.6198181648900E-07 -2.6350639527609E-07 -2.6475378742164E-07 -2.6572398964998E-07 -2.6641699793134E-07 -2.6683280748158E-07 -2.6697141276245E-07 
-3.5029326223524E-02 -3.5029320757382E-02 -3.5029299369508E-02 -3.5029262059842E-02 -3.5029208828284E-02 -3.5029139674689E-02 -3.5029054598869E-02 -3.5028953600591E-02 -3.5028836679582E-02 -3.5028703835523E-02 
-4.0906712753147E-02 -4.0906712753145E-02 -4.0906712753147E-02 -4.0906712753147E-02 -4.0906712753142E-02 -4.0906712753145E-02 -4.0906712753145E-02 -4.0906712753142E-02 -4.0906712753142E-02 -4.0906712753200E-02 
 5.8773865296232E-03  5.8773919957629E-03  5.8774133836395E-03  5.8774506933049E-03  5.8775039248576E-03  5.8775730784559E-03  5.8776581542764E-03  5.8777591525508E-03  5.8778760735600E-03  5.8780089176768E-03 
 8.3020407049716E-01  1.6604096919508E+00  1.6604157605210E+00  1.6604263467220E+00  1.6604414505837E+00  1.6604610721483E+00  1.6604852114723E+00  1.6605138686239E+00  1.6605470436832E+00  8.3029236837222E-01 
 4.3018910887977E-09  1.2905681304436E-08  2.1509502950138E-08  3.0113379467188E-08  3.8717334245005E-08  4.7321390703713E-08  5.5925572245739E-08  6.4529902284268E-08  7.3134436039517E-08  7.3134436039517E-08 
 0.0000000000000E+00  1.6602784120135E+00  3.3205606319030E+00  4.9808511792660E+00  6.6411545714908E+00  8.3014753252294E+00  9.9618179586065E+00  1.1622186988642E+01  1.3282586933454E+01  1.4943087567643E+01 
 1.4943087562503E+01  1.3282743898822E+01  1.1622461678800E+01  9.9621711314943E+00  8.3018677393263E+00  6.6415469854968E+00  4.9812043523299E+00  3.3208353220942E+00  1.6604353770159E+00  0.0000000000000E+00 
 8.3020407049716E-09  1.6604096919508E-08  1.6604157605210E-08  1.6604263467220E-08  1.6604414505837E-08  1.6604610721483E-08  1.6604852114723E-08  1.6605138686239E-08  1.6605470436832E-08  8.3029236837222E-09 
 9.1448444543289E+04  1.8289688908658E+05  1.8289688908658E+05  1.8289688908658E+05  1.8289688908658E+05  1.8289688908658E+05  1.8289688908658E+05  1.8289688908658E+05  1.8289688908658E+05  9.1448444543289E+04 
 3.6579377817312E+05  7.3158755634623E+05  7.3158755634623E+05  7.3158755634623E+05  7.3158755634623E+05  7.3158755634623E+05  7.3158755634623E+05  7.3158755634623E+05  7.3158755634623E+05  3.6579377817312E+05 
 4.5724222271640E+05  9.1448444543281E+05  9.1448444543281E+05  9.1448444543281E+05  9.1448444543281E+05  9.1448444543281E+05  9.1448444543281E+05  9.1448444543281E+05  9.1448444543281E+05  4.5724222271640E+05 
 3.5000000000000E-01  3.5000000000000E-01  3.5000000000000E-01  3.5000000000000E-01  3.5000000000000E-01  3.5000000000000E-01  3.5000000000000E-01  3.5000000000000E-01  3.5000000000000E-01  3.5000000000000E-01 
 8.5301666666666E+00  1.7060333333333E+01  1.7060333333333E+01  1.7060333333333E+01  1.7060333333333E+01  1.7060333333333E+01  1.7060333333333E+01  1.7060333333333E+01  1.7060333333333E+01  8.5301666666666E+00 
 9.7325656454211E-02  9.7325747364303E-02  9.7326103076593E-02  9.7326723592077E-02  9.7327608912507E-02  9.7328759040364E-02  9.7330173978957E-02  9.7331853732279E-02  9.7333798305025E-02  9.7336007702728E-02 
 4.3744444444444E-05  8.7488888888889E-05  8.7488888888889E-05  8.7488888888889E-05  8.7488888888889E-05  8.7488888888889E-05  8.7488888888889E-05  8.7488888888889E-05  8.7488888888889E-05  4.3744444444444E-05 
 8.6666666666664E+01  8.6666666666664E+01  8.6666666666664E+01  8.6666666666664E+01  8.6666666666664E+01  8.6666666666664E+01  8.6666666666664E+01  8.6666666666664E+01  8.6666666666664E+01  8.6666666666664E+01 
 2.1666666666669E+01  2.1666666666669E+01  2.1666666666669E+01  2.1666666666669E+01  2.1666666666669E+01  2.1666666666669E+01  2.1666666666669E+01  2.1666666666669E+01  2.1666666666669E+01  2.1666666666669E+01 
 4.5428978861001E-12  7.0909451265027E-12  1.5208537323960E-11  2.9369185589810E-11  4.9573044037071E-11  7.5820332551662E-11  1.0811133679973E-10  1.4644640821099E-10  1.9082596401385E-10  2.1452691927740E-10 
 4.5428978861001E-04  7.0909451265027E-04  1.5208537323960E-03  2.9369185589810E-03  4.9573044037071E-03  7.5820332551662E-03  1.0811133679973E-02  1.4644640821099E-02  1.9082596401385E-02  2.1452691927740E-02 
 7.4221638057211E-05  3.7110860586659E-04  1.2617723597643E-03  2.7462218348261E-03  4.8244724271992E-03  7.4965459957851E-03  1.0762470863045E-02  1.4622281813283E-02  1.9076020096157E-02  2.1451376630867E-02 
 3.8006815055279E-04  3.3798590678369E-04  2.5908137263167E-04  1.9069672415488E-04  1.3283197650788E-04  8.5487259381135E-05  4.8662816927580E-05  2.2359007816200E-05  6.5763052285856E-06  1.3152968724211E-06 
 0.0000000000000E+00  0.0000000000000E+00  0.0000000000000E+00  0.0000000000000E+00  0.0000000000000E+00  0.0000000000000E+00  0.0000000000000E+00  0.0000000000000E+00  0.0000000000000E+00  0.0000000000000E+00 
 0.0000000000000E+00  0.0000000000000E+00  0.0000000000000E+00  0.0000000000000E+00  0.0000000000000E+00  0.0000000000000E+00  0.0000000000000E+00  0.0000000000000E+00  0.0000000000000E+00  0.0000000000000E+00 
 0.0000000000000E+00  0.0000000000000E+00  0.0000000000000E+00  0.0000000000000E+00  0.0000000000000E+00  0.0000000000000E+00  0.0000000000000E+00  0.0000000000000E+00  0.0000000000000E+00  0.0000000000000E+00 
ZONE T = "ANOD, 2.0000E-08", I = 10, SOLUTIONTIME = 2.000000E-08
ZONETYPE = ORDERED
DATAPACKING = BLOCK
STRANDID = 1
 0.0000000000000E+00  8.7488888888889E-05  1.7497777777778E-04  2.6246666666667E-04  3.4995555555556E-04  4.3744444444444E-04  5.2493333333333E-04  6.1242222222222E-04  6.9991111111111E-04  7.8740000000000E-04 
 5.7645758222476E-10  1.7282842004914E-09  2.8812046560197E-09  4.0341324627164E-09  5.1859811345078E-09  6.3389330549029E-09  7.4908121147131E-09  8.6438006975302E-09  9.7968123174542E-09  1.0374057630104E-08 
 9.1999999999931E-01  9.1999999999931E-01  9.1999999999931E-01  9.1999999999931E-01  9.1999999999931E-01  9.1999999999931E-01  9.1999999999931E-01  9.1999999999931E-01  9.1999999999931E-01  9.1999999999967E-01 
 4.0000000000346E-02  4.0000000000346E-02  4.0000000000346E-02  4.0000000000346E-02  4.0000000000346E-02  4.0000000000346E-02  4.0000000000346E-02  4.0000000000346E-02  4.0000000000346E-02  4.0000000000166E-02 
 4.0000000000346E-02  4.0000000000346E-02  4.0000000000346E-02  4.0000000000346E-02  4.0000000000346E-02  4.0000000000346E-02  4.0000000000346E-02  4.0000000000346E-02  4.0000000000346E-02  4.0000000000166E-02 
 3.5029488029872E-02  3.5029480207547E-02  3.5029456740557E-02  3.5029417628846E-02  3.5029362872312E-02  3.5029292470815E-02  3.5029206424169E-02  3.5029104732146E-02  3.5028987394477E-02  3.5028854410849E-02 
-2.5574683511715E-07 -2.5810297879218E-07 -2.6018193911915E-07 -2.6198371508492E-07 -2.6350830492212E-07 -2.6475570610918E-07 -2.6572591537026E-07 -2.6641892867533E-07 -2.6683474124009E-07 -2.6697334752595E-07 
-3.5029743776707E-02 -3.5029738310526E-02 -3.5029716922497E-02 -3.5029679612561E-02 -3.5029626380617E-02 -3.5029557226521E-02 -3.5029472150084E-02 -3.5029371151075E-02 -3.5029254229218E-02 -3.5029121384196E-02 
-4.0906712752895E-02 -4.0906712752900E-02 -4.0906712752895E-02 -4.0906712752895E-02 -4.0906712752896E-02 -4.0906712752900E-02 -4.0906712752900E-02 -4.0906712752896E-02 -4.0906712752896E-02 -4.0906712753012E-02 
 5.8769689761873E-03  5.8769744423736E-03  5.8769958303981E-03  5.8770331403339E-03  5.8770863722786E-03  5.8771555263787E-03  5.8772406028157E-03  5.8773416018212E-03  5.8774585236777E-03  5.8775913688151E-03 
 8.3014483247206E-01  1.6602912159104E+00  1.6602972845190E+00  1.6603078707870E+00  1.6603229747427E+00  1.6603425964332E+00  1.6603667359098E+00  1.6603953932408E+00  1.6604285685098E+00  8.3023313091185E-01 
 4.3019222508879E-09  1.2905774805971E-08  2.1509658802566E-08  3.0113597653683E-08  3.8717614780131E-08  4.7321733591300E-08  5.5925977497931E-08  6.4530369897224E-08  7.3134997840430E-08  7.3134997840430E-08 
 0.0000000000000E+00  1.6602904402253E+00  3.3205846909040E+00  4.9808872683197E+00  6.6412026909655E+00  8.3015354769661E+00  9.9618901429734E+00  1.1622271207112E+01  1.3282683188228E+01  1.4943130603841E+01 
 1.4943130603437E+01  1.3282840163009E+01  1.1622545912795E+01  9.9622433351416E+00  8.3019279123768E+00  6.6415951267889E+00  4.9812404606173E+00  3.3208593960421E+00  1.6604474151668E+00  0.0000000000000E+00 
 1.6603489029692E-08  3.3207009078612E-08  3.3207130450400E-08  3.3207342175090E-08  3.3207644253264E-08  3.3208036685815E-08  3.3208519473821E-08  3.3209092618647E-08  3.3209756121929E-08  1.6605254992841E-08 
 9.1448444543297E+04  1.8289688908659E+05  1.8289688908659E+05  1.8289688908659E+05  1.8289688908659E+05  1.8289688908659E+05  1.8289688908659E+05  1.8289688908659E+05  1.8289688908659E+05  9.1448444543297E+04 
 3.6579377817311E+05  7.3158755634621E+05  7.3158755634621E+05  7.3158755634621E+05  7.3158755634621E+05  7.3158755634621E+05  7.3158755634621E+05  7.3158755634621E+05  7.3158755634621E+05  3.6579377817311E+05 
 4.5724222271640E+05  9.1448444543281E+05  9.1448444543281E+05  9.1448444543281E+05  9.1448444543281E+05  9.1448444543281E+05  9.1448444543281E+05  9.1448444543281E+05  9.1448444543281E+05  4.5724222271640E+05 
 3.5000000000000E-01  3.5000000000000E-01  3.5000000000000E-01  3.5000000000000E-01  3.5000000000000E-01  3.5000000000000E-01  3.5000000000000E-01  3.5000000000000E-01  3.5000000000000E-01  3.5000000000000E-01 
 8.5301666666666E+00  1.7060333333333E+01  1.7060333333333E+01  1.7060333333333E+01  1.7060333333333E+01  1.7060333333333E+01  1.7060333333333E+01  1.7060333333333E+01  1.7060333333333E+01  8.5301666666666E+00 
 9.7318711921072E-02  9.7318802831737E-02  9.7319158546278E-02  9.7319779065686E-02  9.7320664391634E-02  9.7321814526870E-02  9.7323229474403E-02  9.7324909238240E-02  9.7326853823280E-02  9.7329063235793E-02 
 4.3744444444444E-05  8.7488888888889E-05  8.7488888888889E-05  8.7488888888889E-05  8.7488888888889E-05  8.7488888888889E-05  8.7488888888889E-05  8.7488888888889E-05  8.7488888888889E-05  4.3744444444444E-05 
 8.6666666666662E+01  8.6666666666662E+01  8.6666666666662E+01  8.6666666666662E+01  8.6666666666662E+01  8.6666666666662E+01  8.6666666666662E+01  8.6666666666662E+01  8.6666666666662E+01  8.6666666666662E+01 
 2.1666666666671E+01  2.1666666666671E+01  2.1666666666671E+01  2.1666666666671E+01  2.1666666666671E+01  2.1666666666671E+01  2.1666666666671E+01  2.1666666666671E+01  2.1666666666671E+01  2.1666666666671E+01 
 9.0858616140230E-12  1.4181993015789E-11  3.0417295047186E-11  5.8738796780434E-11  9.9146806463168E-11  1.5164176388703E-10  2.1622424038133E-10  2.9289493883789E-10  3.8165469375488E-10  4.2905694786488E-10 
 4.5429637279229E-04  7.0910478892866E-04  1.5208757723226E-03  2.9369611190624E-03  4.9573762426097E-03  7.5821431335363E-03  1.0811290358160E-02  1.4644853062690E-02  1.9082872974103E-02  2.1453002858749E-02 
 1.4844435141318E-04  7.4222258902004E-04  2.5235630040514E-03  5.4924834654726E-03  9.6490147677305E-03  1.4993200630630E-02  2.1525097698773E-02  2.9244775543981E-02  3.8152316669677E-02  4.2903064173670E-02 
 7.6014180998912E-04  6.7597671255890E-04  5.1816650066719E-04  3.8139621257073E-04  2.6566587858624E-04  1.7097575807222E-04  9.7326339359145E-05  4.4718339807821E-05  1.3152705811894E-05  2.6306128187114E-06 
 0.0000000000000E+00  0.0000000000000E+00  0.0000000000000E+00  0.0000000000000E+00  0.0000000000000E+00  0.0000000000000E+00  0.0000000000000E+00  0.0000000000000E+00  0.0000000000000E+00  0.0000000000000E+00 
 0.0000000000000E+00  0.0000000000000E+00  0.0000000000000E+00  0.0000000000000E+00  0.0000000000000E+00  0.0000000000000E+00  0.0000000000000E+00  0.0000000000000E+00  0.0000000000000E+00  0.0000000000000E+00 
 0.0000000000000E+00  0.0000000000000E+00  0.0000000000000E+00  0.0000000000000E+00  0.0000000000000E+00  0.0000000000000E+00  0.0000000000000E+00  0.0000000000000E+00  0.0000000000000E+00  0.0000000000000E+00 
ZONE T = "ANOD, 3.0000E-08", I = 10, SOLUTIONTIME = 3.000000E-08
ZONETYPE = ORDERED
DATAPACKING = BLOCK
STRANDID = 1
 0.0000000000000E+00  8.7488888888889E-05  1.7497777777778E-04  2.6246666666667E-04  3.4995555555556E-04  4.3744444444444E-04  5.2493333333333E-04  6.1242222222222E-04  6.9991111111111E-04  7.8740000000000E-04 
 5.7663918608491E-10  1.7291922197998E-09  2.8824758830484E-09  4.0357668974654E-09  5.1894316078895E-09  6.3423835282774E-09  7.4942625880800E-09  8.6461615477073E-09  9.7988099598972E-09  1.0374602441638E-08 
 9.1999999999896E-01  9.1999999999896E-01  9.1999999999896E-01  9.1999999999896E-01  9.1999999999896E-01  9.1999999999896E-01  9.1999999999896E-01  9.1999999999896E-01  9.1999999999896E-01  9.1999999999950E-01 
 4.0000000000520E-02  4.0000000000520E-02  4.0000000000520E-02  4.0000000000520E-02  4.0000000000520E-02  4.0000000000520E-02  4.0000000000520E-02  4.0000000000520E-02  4.0000000000520E-02  4.0000000000250E-02 
 4.0000000000520E-02  4.0000000000520E-02  4.0000000000520E-02  4.0000000000520E-02  4.0000000000520E-02  4.0000000000520E-02  4.0000000000520E-02  4.0000000000520E-02  4.0000000000520E-02  4.0000000000250E-02 
 3.5029488029679E-02  3.5029480207354E-02  3.5029456740364E-02  3.5029417628652E-02  3.5029362872119E-02  3.5029292470622E-02  3.5029206423975E-02  3.5029104731953E-02  3.5028987394284E-02  3.5028854410656E-02 
-2.5574683511573E-07 -2.5810297879074E-07 -2.6018193911770E-07 -2.6198371508346E-07 -2.6350830492066E-07 -2.6475570610770E-07 -2.6572591536879E-07 -2.6641892867386E-07 -2.6683474123861E-07 -2.6697334752447E-07 
-3.5029743776514E-02 -3.5029738310333E-02 -3.5029716922303E-02 -3.5029679612368E-02 -3.5029626380424E-02 -3.5029557226328E-02 -3.5029472149891E-02 -3.5029371150881E-02 -3.5029254229025E-02 -3.5029121384003E-02 
-4.0906712752646E-02 -4.0906712752646E-02 -4.0906712752646E-02 -4.0906712752646E-02 -4.0906712752648E-02 -4.0906712752644E-02 -4.0906712752644E-02 -4.0906712752648E-02 -4.0906712752648E-02 -4.0906712752821E-02 
 5.8769689761319E-03  5.8769744423133E-03  5.8769958303427E-03  5.8770331402785E-03  5.8770863722237E-03  5.8771555263165E-03  5.8772406027535E-03  5.8773416017663E-03  5.8774585236228E-03  5.8775913688180E-03 
 8.3014483246659E-01  1.6602912159000E+00  1.6602972845081E+00  1.6603078707760E+00  1.6603229747336E+00  1.6603425964228E+00  1.6603667358993E+00  1.6603953932317E+00  1.6604285685006E+00  8.3023313091461E-01 
 4.3019222569776E-09  1.2905774803771E-08  2.1509658798843E-08  3.0113597655374E-08  3.8717614778738E-08  4.7321733583179E-08  5.5925977496604E-08  6.4530369902888E-08  7.3135029642584E-08  7.3135029642584E-08 
 0.0000000000000E+00  1.6602904406007E+00  3.3205846905502E+00  4.9808872683413E+00  6.6412026909943E+00  8.3015354762657E+00  9.9618901426484E+00  1.1622271207531E+01  1.3282683188277E+01  1.4943130603153E+01 
 1.4943130603353E+01  1.3282840162937E+01  1.1622545912733E+01  9.9622433350908E+00  8.3019279123358E+00  6.6415951267575E+00  4.9812404605967E+00  3.3208593960311E+00  1.6604474151649E+00  0.0000000000000E+00 
 2.4904937354358E-08  4.9809921237611E-08  4.9810103295482E-08  4.9810420882850E-08  4.9810874000600E-08  4.9811462650044E-08  4.9812186832814E-08  4.9813046550964E-08  4.9814041806936E-08  2.4907586301987E-08 
 9.1448444543306E+04  1.8289688908661E+05  1.8289688908661E+05  1.8289688908661E+05  1.8289688908661E+05  1.8289688908661E+05  1.8289688908661E+05  1.8289688908661E+05  1.8289688908661E+05  9.1448444543306E+04 
 3.6579377817310E+05  7.3158755634620E+05  7.3158755634620E+05  7.3158755634620E+05  7.3158755634620E+05  7.3158755634620E+05  7.3158755634620E+05  7.3158755634620E+05  7.3158755634620E+05  3.6579377817310E+05 
 4.5724222271640E+05  9.1448444543281E+05  9.1448444543281E+05  9.1448444543281E+05  9.1448444543281E+05  9.1448444543281E+05  9.1448444543281E+05  9.1448444543281E+05  9.1448444543281E+05  4.5724222271640E+05 
 3.5000000000000E-01  3.5000000000000E-01  3.5000000000000E-01  3.5000000000000E-01  3.5000000000000E-01  3.5000000000000E-01  3.5000000000000E-01  3.5000000000000E-01  3.5000000000000E-01  3.5000000000000E-01 
 8.5301666666666E+00  1.7060333333333E+01  1.7060333333333E+01  1.7060333333333E+01  1.7060333333333E+01  1.7060333333333E+01  1.7060333333333E+01  1.7060333333333E+01  1.7060333333333E+01  8.5301666666666E+00 
 9.7318711920431E-02  9.7318802831127E-02  9.7319158545641E-02  9.7319779065045E-02  9.7320664391100E-02  9.7321814526260E-02  9.7323229473788E-02  9.7324909237706E-02  9.7326853822746E-02  9.7329063236116E-02 
 4.3744444444444E-05  8.7488888888889E-05  8.7488888888889E-05  8.7488888888889E-05  8.7488888888889E-05  8.7488888888889E-05  8.7488888888889E-05  8.7488888888889E-05  8.7488888888889E-05  4.3744444444444E-05 
 8.6666666666660E+01  8.6666666666660E+01  8.6666666666660E+01  8.6666666666660E+01  8.6666666666660E+01  8.6666666666660E+01  8.6666666666660E+01  8.6666666666660E+01  8.6666666666660E+01  8.6666666666660E+01 
 2.1666666666672E+01  2.1666666666672E+01  2.1666666666672E+01  2.1666666666672E+01  2.1666666666672E+01  2.1666666666672E+01  2.1666666666672E+01  2.1666666666672E+01  2.1666666666672E+01  2.1666666666672E+01 
 1.3628825343224E-11  2.1273040905713E-11  4.5626052767147E-11  8.8108407972474E-11  1.4872056888814E-10  2.2746319520954E-10  3.2433714395614E-10  4.3934346947529E-10  5.7248342349530E-10  6.4358697643067E-10 
 4.5429637292009E-04  7.0910478899241E-04  1.5208757719961E-03  2.9369611192040E-03  4.9573762424976E-03  7.5821431322511E-03  1.0811290357482E-02  1.4644853063740E-02  1.9082872974042E-02  2.1453002856579E-02 
 2.2266706490114E-04  1.1133365722409E-03  3.7853536480148E-03  8.2387450962627E-03  1.4473557108151E-02  2.2489855264191E-02  3.2287724533824E-02  4.3867269275730E-02  5.7228613243135E-02  6.4354751714302E-02 
 1.1402154694212E-03  1.0139675183304E-03  7.7725162869996E-04  5.7209570098464E-04  3.9849978066327E-04  2.5646425676249E-04  1.4598986179030E-04  6.7077671799289E-05  1.9729106395175E-05  3.9459287650108E-06 
 0.0000000000000E+00  0.0000000000000E+00  0.0000000000000E+00  0.0000000000000E+00  0.0000000000000E+00  0.0000000000000E+00  0.0000000000000E+00  0.0000000000000E+00  0.0000000000000E+00  0.0000000000000E+00 
 0.0000000000000E+00  0.0000000000000E+00  0.0000000000000E+00  0.0000000000000E+00  0.0000000000000E+00  0.0000000000000E+00  0.0000000000000E+00  0.0000000000000E+00  0.0000000000000E+00  0.0000000000000E+00 
 0.0000000000000E+00  0.0000000000000E+00  0.0000000000000E+00  0.0000000000000E+00  0.0000000000000E+00  0.0000000000000E+00  0.0000000000000E+00  0.0000000000000E+00  0.0000000000000E+00  0.0000000000000E+00 
ZONE T = "ANOD, 4.0000E-08", I = 10, SOLUTIONTIME = 4.000000E-08
ZONETYPE = ORDERED
DATAPACKING = BLOCK
STRANDID = 1
 0.0000000000000E+00  8.7488888888889E-05  1.7497777777778E-04  2.6246666666667E-04  3.4995555555556E-04  4.3744444444444E-04  5.2493333333333E-04  6.1242222222222E-04  6.9991111111111E-04  7.8740000000000E-04 
 5.7645758221752E-10  1.7293738236530E-09  2.8822942791669E-09  4.0352220858491E-09  5.1881603808107E-09  6.3414755089194E-09  7.4944441918987E-09  8.6481591901580E-09  9.8011708100687E-09  1.0378416122722E-08 
 9.1999999999861E-01  9.1999999999861E-01  9.1999999999861E-01  9.1999999999861E-01  9.1999999999861E-01  9.1999999999861E-01  9.1999999999861E-01  9.1999999999861E-01  9.1999999999861E-01  9.1999999999933E-01 
 4.0000000000693E-02  4.0000000000693E-02  4.0000000000693E-02  4.0000000000693E-02  4.0000000000693E-02  4.0000000000693E-02  4.0000000000693E-02  4.0000000000693E-02  4.0000000000693E-02  4.0000000000333E-02 
 4.0000000000693E-02  4.0000000000693E-02  4.0000000000693E-02  4.0000000000693E-02  4.0000000000693E-02  4.0000000000693E-02  4.0000000000693E-02  4.0000000000693E-02  4.0000000000693E-02  4.0000000000333E-02 
 3.5029488029490E-02  3.5029480207165E-02  3.5029456740175E-02  3.5029417628463E-02  3.5029362871930E-02  3.5029292470432E-02  3.5029206423786E-02  3.5029104731764E-02  3.5028987394094E-02  3.5028854410466E-02 
-2.5574683511431E-07 -2.5810297878932E-07 -2.6018193911626E-07 -2.6198371508201E-07 -2.6350830491920E-07 -2.6475570610624E-07 -2.6572591536732E-07 -2.6641892867239E-07 -2.6683474123714E-07 -2.6697334752300E-07 
-3.5029743776325E-02 -3.5029738310144E-02 -3.5029716922114E-02 -3.5029679612178E-02 -3.5029626380235E-02 -3.5029557226139E-02 -3.5029472149702E-02 -3.5029371150692E-02 -3.5029254228836E-02 -3.5029121383814E-02 
-4.0906712752400E-02 -4.0906712752400E-02 -4.0906712752400E-02 -4.0906712752400E-02 -4.0906712752397E-02 -4.0906712752397E-02 -4.0906712752397E-02 -4.0906712752397E-02 -4.0906712752397E-02 -4.0906712752628E-02 
 5.8769689760746E-03  5.8769744422560E-03  5.8769958302855E-03  5.8770331402212E-03  5.8770863721623E-03  5.8771555262585E-03  5.8772406026956E-03  5.8773416017049E-03  5.8774585235614E-03  5.8775913688144E-03 
 8.3014483246160E-01  1.6602912158895E+00  1.6602972844981E+00  1.6603078707660E+00  1.6603229747237E+00  1.6603425964129E+00  1.6603667358895E+00  1.6603953932218E+00  1.6604285684907E+00  8.3023313091691E-01 