TITLE = "Solution on Domain BulkDomain1D_0"
VARIABLES = "x [m]"  
"Vel_axial" 
"MF_sp(ECDMC)" 
"MF_sp(Li+)" 
"MF_sp(PF6-)" 
"Volt(Electroly)" 
"Volt(AnodeVolt)" 
"Potential Drop Electrode-Electrolyte [V]" 
"Surf_0 Equilibrium Potential Drop Electrode-Electrolyte [V]" 
"Overpotential_0 [V]" 
"Current Source [A/m^2]" 
"Li+ flux [kmol/m^2/s]" 
"Electrolyte Current [A/m^2]" 
"Electrode Current [A/m^2]" 
"CV Capacity discharged [A-s/m^2]" 
"Depth of discharge in CV [A-s/m^2]" 
"CV Capacity remaining [A-s/m^2]" 
"Initial CV capacity [A-s/m^2]" 
"Porosity []" 
"Surface Area [m2/m2] (area per area)" 
"Specific current (per particle area) [A/m^2]" 
"Control volume thickness [m]" 
"MoleDens Li_C6-bulk [kmol/m^3]" 
"MoleDens V_C6-bulk [kmol/m^3]" 
"qHeat_accum [J/m3]" 
"qHeat_step [W/m3]" 
"Joule_Lyte [W/m3]" 
"Joule_Solid [W/m3]" 
"electrodHeat [W/m3]" 
"OverpotHeat [W/m3]" 
"deltaSHeat [W/m3]" 

ZONE T = "ANOD, 0.0000E+00", I = 10, SOLUTIONTIME = 0.000000E+00
ZONETYPE = ORDERED
DATAPACKING = BLOCK
STRANDID = 1
 0.0000000000000E+00  8.7488888888889E-05  1.7497777777778E-04  2.6246666666667E-04  3.4995555555556E-04  4.3744444444444E-04  5.2493333333333E-04  6.1242222222222E-04  6.9991111111111E-04  7.8740000000000E-04 
 0.0000000000000E+00  0.0000000000000E+00  0.0000000000000E+00  0.0000000000000E+00  0.0000000000000E+00  0.0000000000000E+00  0.0000000000000E+00  0.0000000000000E+00  0.0000000000000E+00  0.0000000000000E+00 
 9.2000000000000E-01  9.2000000000000E-01  9.2000000000000E-01  9.2000000000000E-01  9.2000000000000E-01  9.2000000000000E-01  9.2000000000000E-01  9.2000000000000E-01  9.2000000000000E-01  9.2000000000000E-01 
 4.0000000000000E-02  4.0000000000000E-02  4.0000000000000E-02  4.0000000000000E-02  4.0000000000000E-02  4.0000000000000E-02  4.0000000000000E-02  4.0000000000000E-02  4.0000000000000E-02  4.0000000000000E-02 
 4.0000000000000E-02  4.0000000000000E-02  4.0000000000000E-02  4.0000000000000E-02  4.0000000000000E-02  4.0000000000000E-02  4.0000000000000E-02  4.0000000000000E-02  4.0000000000000E-02  4.0000000000000E-02 
-7.0000000000000E-02 -7.0000000000000E-02 -7.0000000000000E-02 -7.0000000000000E-02 -7.0000000000000E-02 -7.0000000000000E-02 -7.0000000000000E-02 -7.0000000000000E-02 -7.0000000000000E-02 -7.0000000000000E-02 
 0.0000000000000E+00  0.0000000000000E+00  0.0000000000000E+00  0.0000000000000E+00  0.0000000000000E+00  0.0000000000000E+00  0.0000000000000E+00  0.0000000000000E+00  0.0000000000000E+00  0.0000000000000E+00 
 7.0000000000000E-02  7.0000000000000E-02  7.0000000000000E-02  7.0000000000000E-02  7.0000000000000E-02  7.0000000000000E-02  7.0000000000000E-02  7.0000000000000E-02  7.0000000000000E-02  7.0000000000000E-02 
-4.0906712753392E-02 -4.0906712753392E-02 -4.0906712753392E-02 -4.0906712753392E-02 -4.0906712753392E-02 -4.0906712753392E-02 -4.0906712753392E-02 -4.0906712753392E-02 -4.0906712753392E-02 -4.0906712753392E-02 
 1.1090671275339E-01  1.1090671275339E-01  1.1090671275339E-01  1.1090671275339E-01  1.1090671275339E-01  1.1090671275339E-01  1.1090671275339E-01  1.1090671275339E-01  1.1090671275339E-01  1.1090671275339E-01 
 3.0930240924008E+01  6.1860481848016E+01  6.1860481848016E+01  6.1860481848016E+01  6.1860481848016E+01  6.1860481848016E+01  6.1860481848016E+01  6.1860481848016E+01  6.1860481848016E+01  3.0930240924008E+01 
-0.0000000000000E+00 -0.0000000000000E+00 -0.0000000000000E+00 -0.0000000000000E+00 -0.0000000000000E+00 -0.0000000000000E+00 -0.0000000000000E+00 -0.0000000000000E+00 -0.0000000000000E+00 -0.0000000000000E+00 
 0.0000000000000E+00  0.0000000000000E+00  0.0000000000000E+00  0.0000000000000E+00  0.0000000000000E+00  0.0000000000000E+00  0.0000000000000E+00  0.0000000000000E+00  0.0000000000000E+00  3.0930240924008E+01 
 3.0930240924008E+01 -0.0000000000000E+00 -0.0000000000000E+00 -0.0000000000000E+00 -0.0000000000000E+00 -0.0000000000000E+00 -0.0000000000000E+00 -0.0000000000000E+00 -0.0000000000000E+00  0.0000000000000E+00 
 0.0000000000000E+00  0.0000000000000E+00  0.0000000000000E+00  0.0000000000000E+00  0.0000000000000E+00  0.0000000000000E+00  0.0000000000000E+00  0.0000000000000E+00  0.0000000000000E+00  0.0000000000000E+00 
 9.1448444543281E+04  1.8289688908656E+05  1.8289688908656E+05  1.8289688908656E+05  1.8289688908656E+05  1.8289688908656E+05  1.8289688908656E+05  1.8289688908656E+05  1.8289688908656E+05  9.1448444543281E+04 
 3.6579377817312E+05  7.3158755634625E+05  7.3158755634625E+05  7.3158755634625E+05  7.3158755634625E+05  7.3158755634625E+05  7.3158755634625E+05  7.3158755634625E+05  7.3158755634625E+05  3.6579377817312E+05 
 4.5724222271640E+05  9.1448444543281E+05  9.1448444543281E+05  9.1448444543281E+05  9.1448444543281E+05  9.1448444543281E+05  9.1448444543281E+05  9.1448444543281E+05  9.1448444543281E+05  4.5724222271640E+05 
 3.5000000000000E-01  3.5000000000000E-01  3.5000000000000E-01  3.5000000000000E-01  3.5000000000000E-01  3.5000000000000E-01  3.5000000000000E-01  3.5000000000000E-01  3.5000000000000E-01  3.5000000000000E-01 
 8.5301666666666E+00  1.7060333333333E+01  1.7060333333333E+01  1.7060333333333E+01  1.7060333333333E+01  1.7060333333333E+01  1.7060333333333E+01  1.7060333333333E+01  1.7060333333333E+01  8.5301666666666E+00 
 3.6259831879809E+00  3.6259831879809E+00  3.6259831879809E+00  3.6259831879809E+00  3.6259831879809E+00  3.6259831879809E+00  3.6259831879809E+00  3.6259831879809E+00  3.6259831879809E+00  3.6259831879809E+00 
 4.3744444444444E-05  8.7488888888889E-05  8.7488888888889E-05  8.7488888888889E-05  8.7488888888889E-05  8.7488888888889E-05  8.7488888888889E-05  8.7488888888889E-05  8.7488888888889E-05  4.3744444444444E-05 
 8.6666666666666E+01  8.6666666666666E+01  8.6666666666666E+01  8.6666666666666E+01  8.6666666666666E+01  8.6666666666666E+01  8.6666666666666E+01  8.6666666666666E+01  8.6666666666666E+01  8.6666666666666E+01 
 2.1666666666667E+01  2.1666666666667E+01  2.1666666666667E+01  2.1666666666667E+01  2.1666666666667E+01  2.1666666666667E+01  2.1666666666667E+01  2.1666666666667E+01  2.1666666666667E+01  2.1666666666667E+01 
 0.0000000000000E+00  0.0000000000000E+00  0.0000000000000E+00  0.0000000000000E+00  0.0000000000000E+00  0.0000000000000E+00  0.0000000000000E+00  0.0000000000000E+00  0.0000000000000E+00  0.0000000000000E+00 
 0.0000000000000E+00  0.0000000000000E+00  0.0000000000000E+00  0.0000000000000E+00  0.0000000000000E+00  0.0000000000000E+00  0.0000000000000E+00  0.0000000000000E+00  0.0000000000000E+00  0.0000000000000E+00 
 0.0000000000000E+00  0.0000000000000E+00  0.0000000000000E+00  0.0000000000000E+00  0.0000000000000E+00  0.0000000000000E+00  0.0000000000000E+00  0.0000000000000E+00  0.0000000000000E+00  0.0000000000000E+00 
 0.0000000000000E+00  0.0000000000000E+00  0.0000000000000E+00  0.0000000000000E+00  0.0000000000000E+00  0.0000000000000E+00  0.0000000000000E+00  0.0000000000000E+00  0.0000000000000E+00  0.0000000000000E+00 
 0.0000000000000E+00  0.0000000000000E+00  0.0000000000000E+00  0.0000000000000E+00  0.0000000000000E+00  0.0000000000000E+00  0.0000000000000E+00  0.0000000000000E+00  0.0000000000000E+00  0.0000000000000E+00 
 0.0000000000000E+00  0.0000000000000E+00  0.0000000000000E+00  0.0000000000000E+00  0.0000000000000E+00  0.0000000000000E+00  0.0000000000000E+00  0.0000000000000E+00  0.0000000000000E+00  0.0000000000000E+00 
 0.0000000000000E+00  0.0000000000000E+00  0.0000000000000E+00  0.0000000000000E+00  0.0000000000000E+00  0.0000000000000E+00  0.0000000000000E+00  0.0000000000000E+00  0.0000000000000E+00  0.0000000000000E+00 
ZONE T = "ANOD, 1.0000E-08", I = 10, SOLUTIONTIME = 1.000000E-08
ZONETYPE = ORDERED
DATAPACKING = BLOCK
STRANDID = 1
 0.0000000000000E+00  8.7488888888889E-05  1.7497777777778E-04  2.6246666666667E-04  3.4995555555556E-04  4.3744444444444E-04  5.2493333333333E-04  6.1242222222222E-04  6.9991111111111E-04  7.8740000000000E-04 
 5.7645286502812E-10  1.7293596730440E-09  2.8822706933590E-09  4.0351890648725E-09  5.1881179230741E-09  6.3410604046444E-09  7.4940196485892E-09  8.6469987893839E-09  9.8000009649800E-09  1.0376515138615E-08 
 9.1999999999965E-01  9.1999999999965E-01  9.1999999999965E-01  9.1999999999965E-01  9.1999999999965E-01  9.1999999999965E-01  9.1999999999965E-01  9.1999999999965E-01  9.1999999999965E-01  9.1999999999986E-01 
 4.0000000000173E-02  4.0000000000173E-02  4.0000000000173E-02  4.0000000000173E-02  4.0000000000173E-02  4.0000000000173E-02  4.0000000000173E-02  4.0000000000173E-02  4.0000000000173E-02  4.0000000000072E-02 
 4.0000000000173E-02  4.0000000000173E-02  4.0000000000173E-02  4.0000000000173E-02  4.0000000000173E-02  4.0000000000173E-02  4.0000000000173E-02  4.0000000000173E-02  4.0000000000173E-02  4.0000000000072E-02 
 3.5028732241505E-02  3.5028724419291E-02  3.5028700952416E-02  3.5028661840995E-02  3.5028607085001E-02  3.5028536684034E-02  3.5028450638128E-02  3.5028348946918E-02  3.5028231610156E-02  3.5028098627615E-02 
-2.5574474150563E-07 -2.5810086589220E-07 -2.6017980919869E-07 -2.6198157041239E-07 -2.6350614776593E-07 -2.6475353873809E-07 -2.6572374005357E-07 -2.6641674768236E-07 -2.6683255684088E-07 -2.6697116199111E-07 
-3.5028987986247E-02 -3.5028982520157E-02 -3.5028961132225E-02 -3.5028923822565E-02 -3.5028870591149E-02 -3.5028801437572E-02 -3.5028716361868E-02 -3.5028615363666E-02 -3.5028498442713E-02 -3.5028365598777E-02 
-4.0906712753147E-02 -4.0906712753145E-02 -4.0906712753147E-02 -4.0906712753147E-02 -4.0906712753142E-02 -4.0906712753145E-02 -4.0906712753145E-02 -4.0906712753142E-02 -4.0906712753142E-02 -4.0906712753207E-02 
 5.8777247669003E-03  5.8777302329879E-03  5.8777516209222E-03  5.8777889305820E-03  5.8778421619930E-03  5.8779113155727E-03  5.8779963912766E-03  5.8780973894759E-03  5.8782143104291E-03  5.8783471544299E-03 
 8.3025205603573E-01  1.6605056630144E+00  1.6605117316055E+00  1.6605223178128E+00  1.6605374216456E+00  1.6605570432197E+00  1.6605811825287E+00  1.6606098396806E+00  1.6606430147488E+00  8.3034035390162E-01 
 4.3018611844699E-09  1.2905711945266E-08  2.1509498927994E-08  3.0113300795671E-08  3.8717323364681E-08  4.7321326059396E-08  5.5925530645141E-08  6.4529871259568E-08  7.3134372151793E-08  7.3134372151793E-08 
 0.0000000000000E+00  1.6602784830752E+00  3.3205632004335E+00  4.9808432001052E+00  6.6411459310513E+00  8.3014680386440E+00  9.9618077073125E+00  1.1622179981517E+01  1.3282577383571E+01  1.4943122439526E+01 
 1.4943122291716E+01  1.3282731420173E+01  1.1622450756138E+01  9.9621617659241E+00  8.3018599317176E+00  6.6415407373126E+00  4.9811996639621E+00  3.3208321945091E+00  1.6604338125608E+00  0.0000000000000E+00 
 8.3025205603573E-09  1.6605056630144E-08  1.6605117316055E-08  1.6605223178128E-08  1.6605374216456E-08  1.6605570432197E-08  1.6605811825287E-08  1.6606098396806E-08  1.6606430147488E-08  8.3034035390162E-09 
 9.1448444543289E+04  1.8289688908658E+05  1.8289688908658E+05  1.8289688908658E+05  1.8289688908658E+05  1.8289688908658E+05  1.8289688908658E+05  1.8289688908658E+05  1.8289688908658E+05  9.1448444543289E+04 
 3.6579377817312E+05  7.3158755634623E+05  7.3158755634623E+05  7.3158755634623E+05  7.3158755634623E+05  7.3158755634623E+05  7.3158755634623E+05  7.3158755634623E+05  7.3158755634623E+05  3.6579377817312E+05 
 4.5724222271640E+05  9.1448444543281E+05  9.1448444543281E+05  9.1448444543281E+05  9.1448444543281E+05  9.1448444543281E+05  9.1448444543281E+05  9.1448444543281E+05  9.1448444543281E+05  4.5724222271640E+05 
 3.5000000000000E-01  3.5000000000000E-01  3.5000000000000E-01  3.5000000000000E-01  3.5000000000000E-01  3.5000000000000E-01  3.5000000000000E-01  3.5000000000000E-01  3.5000000000000E-01  3.5000000000000E-01 
 8.5301666666666E+00  1.7060333333333E+01  1.7060333333333E+01  1.7060333333333E+01  1.7060333333333E+01  1.7060333333333E+01  1.7060333333333E+01  1.7060333333333E+01  1.7060333333333E+01  8.5301666666666E+00 
 9.7331281847061E-02  9.7331372756359E-02  9.7331728469874E-02  9.7332348985726E-02  9.7333234304465E-02  9.7334384432880E-02  9.7335799370590E-02  9.7337479123927E-02  9.7339423697201E-02  9.7341633094503E-02 
 4.3744444444444E-05  8.7488888888889E-05  8.7488888888889E-05  8.7488888888889E-05  8.7488888888889E-05  8.7488888888889E-05  8.7488888888889E-05  8.7488888888889E-05  8.7488888888889E-05  4.3744444444444E-05 
 8.6666666666664E+01  8.6666666666664E+01  8.6666666666664E+01  8.6666666666664E+01  8.6666666666664E+01  8.6666666666664E+01  8.6666666666664E+01  8.6666666666664E+01  8.6666666666664E+01  8.6666666666664E+01 
 2.1666666666669E+01  2.1666666666669E+01  2.1666666666669E+01  2.1666666666669E+01  2.1666666666669E+01  2.1666666666669E+01  2.1666666666669E+01  2.1666666666669E+01  2.1666666666669E+01  2.1666666666669E+01 
 4.5428804264086E-12  7.0909494770480E-12  1.5208544845443E-11  2.9369083515003E-11  4.9572929631051E-11  7.5820191367976E-11  1.0811111988291E-10  1.4644623419265E-10  1.9082568427972E-10  2.1452652059930E-10 
 4.5428804264086E-04  7.0909494770480E-04  1.5208544845443E-03  2.9369083515003E-03  4.9572929631051E-03  7.5820191367976E-03  1.0811111988291E-02  1.4644623419265E-02  1.9082568427972E-02  2.1452652059930E-02 
 7.4220606088804E-05  3.7110967596445E-04  1.2617735988702E-03  2.7462119858931E-03  4.8244612364396E-03  7.4965320382621E-03  1.0762449262961E-02  1.4622264453562E-02  1.9075992135135E-02  2.1451336765538E-02 
 3.8006743655206E-04  3.3798527174035E-04  2.5908088567411E-04  1.9069636560721E-04  1.3283172666550E-04  8.5487098535486E-05  4.8662725329300E-05  2.2358965702616E-05  6.5762928372038E-06  1.3152943929424E-06 
 0.0000000000000E+00  0.0000000000000E+00  0.0000000000000E+00  0.0000000000000E+00  0.0000000000000E+00  0.0000000000000E+00  0.0000000000000E+00  0.0000000000000E+00  0.0000000000000E+00  0.0000000000000E+00 
 0.0000000000000E+00  0.0000000000000E+00  0.0000000000000E+00  0.0000000000000E+00  0.0000000000000E+00  0.0000000000000E+00  0.0000000000000E+00  0.0000000000000E+00  0.0000000000000E+00  0.0000000000000E+00 
 0.0000000000000E+00  0.0000000000000E+00  0.0000000000000E+00  0.0000000000000E+00  0.0000000000000E+00  0.0000000000000E+00  0.0000000000000E+00  0.0000000000000E+00  0.0000000000000E+00  0.0000000000000E+00 
ZONE T = "ANOD, 2.0000E-08", I = 10, SOLUTIONTIME = 2.000000E-08
ZONETYPE = ORDERED
DATAPACKING = BLOCK
STRANDID = 1
 0.0000000000000E+00  8.7488888888889E-05  1.7497777777778E-04  2.6246666666667E-04  3.4995555555556E-04  4.3744444444444E-04  5.2493333333333E-04  6.1242222222222E-04  6.9991111111111E-04  7.8740000000000E-04 
 5.7609501514973E-10  1.7279229147230E-09  2.8801182361072E-09  4.0323209086681E-09  5.1852604849744E-09  6.3382136867163E-09  7.4911836510754E-09  8.6441735152805E-09  9.7982760398018E-09  1.0374795577719E-08 
 9.1999999999931E-01  9.1999999999931E-01  9.1999999999931E-01  9.1999999999931E-01  9.1999999999931E-01  9.1999999999931E-01  9.1999999999931E-01  9.1999999999931E-01  9.1999999999931E-01  9.1999999999971E-01 
 4.0000000000346E-02  4.0000000000346E-02  4.0000000000346E-02  4.0000000000346E-02  4.0000000000346E-02  4.0000000000346E-02  4.0000000000346E-02  4.0000000000346E-02  4.0000000000346E-02  4.0000000000143E-02 
 4.0000000000346E-02  4.0000000000346E-02  4.0000000000346E-02  4.0000000000346E-02  4.0000000000346E-02  4.0000000000346E-02  4.0000000000346E-02  4.0000000000346E-02  4.0000000000346E-02  4.0000000000143E-02 
 3.5029481526482E-02  3.5029473704148E-02  3.5029450237132E-02  3.5029411125377E-02  3.5029356368783E-02  3.5029285967207E-02  3.5029199920465E-02  3.5029098228329E-02  3.5028980890530E-02  3.5028847906754E-02 
-2.5574711934447E-07 -2.5810326563803E-07 -2.6018222827548E-07 -2.6198400624367E-07 -2.6350859777525E-07 -2.6475600034861E-07 -2.6572621068796E-07 -2.6641922476322E-07 -2.6683503779009E-07 -2.6697364423000E-07 
-3.5029737273601E-02 -3.5029731807414E-02 -3.5029710419360E-02 -3.5029673109383E-02 -3.5029619877380E-02 -3.5029550723207E-02 -3.5029465646676E-02 -3.5029364647554E-02 -3.5029247725568E-02 -3.5029114880398E-02 
-4.0906712752895E-02 -4.0906712752900E-02 -4.0906712752895E-02 -4.0906712752895E-02 -4.0906712752896E-02 -4.0906712752900E-02 -4.0906712752900E-02 -4.0906712752896E-02 -4.0906712752896E-02 -4.0906712753026E-02 
 5.8769754792937E-03  5.8769809454861E-03  5.8770023335344E-03  5.8770396435116E-03  5.8770928755155E-03  5.8771620296924E-03  5.8772471062239E-03  5.8773481053417E-03  5.8774650273281E-03  5.8775978726279E-03 
 8.3014575506301E-01  1.6602930610941E+00  1.6602991297096E+00  1.6603097159894E+00  1.6603248199622E+00  1.6603444416748E+00  1.6603685811786E+00  1.6603972385418E+00  1.6604304138481E+00  8.3023405360319E-01 
 4.3019270362464E-09  1.2905789146782E-08  2.1509682706462E-08  3.0113631126735E-08  3.8717657801871E-08  4.7321786180635E-08  5.5926039656421E-08  6.4530441614290E-08  7.3135087246137E-08  7.3135087246137E-08 
 0.0000000000000E+00  1.6602922856203E+00  3.3205883809575E+00  4.9808928041363E+00  6.6412100718089E+00  8.3015447024680E+00  9.9619012142384E+00  1.1622284124140E+01  1.3282697949912E+01  1.4943147210176E+01 
 1.4943147210665E+01  1.3282854925055E+01  1.1622558829653E+01  9.9622544068030E+00  8.3019371388273E+00  6.6416025080090E+00  4.9812459965823E+00  3.3208630867220E+00  1.6604492605271E+00  0.0000000000000E+00 
 1.6603978110987E-08  3.3207987241085E-08  3.3208108613151E-08  3.3208320338022E-08  3.3208622416078E-08  3.3209014848945E-08  3.3209497637073E-08  3.3210070782223E-08  3.3210734285969E-08  1.6605744075048E-08 
 9.1448444543297E+04  1.8289688908659E+05  1.8289688908659E+05  1.8289688908659E+05  1.8289688908659E+05  1.8289688908659E+05  1.8289688908659E+05  1.8289688908659E+05  1.8289688908659E+05  9.1448444543297E+04 
 3.6579377817311E+05  7.3158755634621E+05  7.3158755634621E+05  7.3158755634621E+05  7.3158755634621E+05  7.3158755634621E+05  7.3158755634621E+05  7.3158755634621E+05  7.3158755634621E+05  3.6579377817311E+05 
 4.5724222271640E+05  9.1448444543281E+05  9.1448444543281E+05  9.1448444543281E+05  9.1448444543281E+05  9.1448444543281E+05  9.1448444543281E+05  9.1448444543281E+05  9.1448444543281E+05  4.5724222271640E+05 
 3.5000000000000E-01  3.5000000000000E-01  3.5000000000000E-01  3.5000000000000E-01  3.5000000000000E-01  3.5000000000000E-01  3.5000000000000E-01  3.5000000000000E-01  3.5000000000000E-01  3.5000000000000E-01 
 8.5301666666666E+00  1.7060333333333E+01  1.7060333333333E+01  1.7060333333333E+01  1.7060333333333E+01  1.7060333333333E+01  1.7060333333333E+01  1.7060333333333E+01  1.7060333333333E+01  8.5301666666666E+00 
 9.7318820077334E-02  9.7318910988109E-02  9.7319266703049E-02  9.7319887223153E-02  9.7320772550098E-02  9.7321922686631E-02  9.7323337635757E-02  9.7325017401483E-02  9.7326961988712E-02  9.7329171403825E-02 
 4.3744444444444E-05  8.7488888888889E-05  8.7488888888889E-05  8.7488888888889E-05  8.7488888888889E-05  8.7488888888889E-05  8.7488888888889E-05  8.7488888888889E-05  8.7488888888889E-05  4.3744444444444E-05 
 8.6666666666662E+01  8.6666666666662E+01  8.6666666666662E+01  8.6666666666662E+01  8.6666666666662E+01  8.6666666666662E+01  8.6666666666662E+01  8.6666666666662E+01  8.6666666666662E+01  8.6666666666662E+01 
 2.1666666666671E+01  2.1666666666671E+01  2.1666666666671E+01  2.1666666666671E+01  2.1666666666671E+01  2.1666666666671E+01  2.1666666666671E+01  2.1666666666671E+01  2.1666666666671E+01  2.1666666666671E+01 
 9.0858542535984E-12  1.4182013127413E-11  3.0417336371467E-11  5.8738759989691E-11  9.9146802245743E-11  1.5164179122458E-10  2.1622426377053E-10  2.9289509034643E-10  3.8165483817406E-10  4.2905702600097E-10 
 4.5429738271898E-04  7.0910636503650E-04  1.5208791526023E-03  2.9369676474689E-03  4.9573872614692E-03  7.5821599856604E-03  1.0811314388762E-02  1.4644885615378E-02  1.9082915389434E-02  2.1453050540167E-02 
 1.4844348457211E-04  7.4222448396499E-04  2.5235670475619E-03  5.4924797210734E-03  9.6490143005771E-03  1.4993203335214E-02  2.1525100021127E-02  2.9244790687250E-02  3.8152331109368E-02  4.2903071986835E-02 
 7.6014194078773E-04  6.7597682877632E-04  5.1816658958478E-04  3.8139627789573E-04  2.6566592399722E-04  1.7097578724410E-04  9.7326355926574E-05  4.4718347392927E-05  1.3152708038059E-05  2.6306132628241E-06 
 0.0000000000000E+00  0.0000000000000E+00  0.0000000000000E+00  0.0000000000000E+00  0.0000000000000E+00  0.0000000000000E+00  0.0000000000000E+00  0.0000000000000E+00  0.0000000000000E+00  0.0000000000000E+00 
 0.0000000000000E+00  0.0000000000000E+00  0.0000000000000E+00  0.0000000000000E+00  0.0000000000000E+00  0.0000000000000E+00  0.0000000000000E+00  0.0000000000000E+00  0.0000000000000E+00  0.0000000000000E+00 
 0.0000000000000E+00  0.0000000000000E+00  0.0000000000000E+00  0.0000000000000E+00  0.0000000000000E+00  0.0000000000000E+00  0.0000000000000E+00  0.0000000000000E+00  0.0000000000000E+00  0.0000000000000E+00 
ZONE T = "ANOD, 3.0000E-08", I = 10, SOLUTIONTIME = 3.000000E-08
ZONETYPE = ORDERED
DATAPACKING = BLOCK
STRANDID = 1
 0.0000000000000E+00  8.7488888888889E-05  1.7497777777778E-04  2.6246666666667E-04  3.4995555555556E-04  4.3744444444444E-04  5.2493333333333E-04  6.1242222222222E-04  6.9991111111111E-04  7.8740000000000E-04 
 5.7663982673761E-10  1.7291941417591E-09  2.8824790863191E-09  4.0357713820557E-09  5.1894373738112E-09  6.3413009523625E-09  7.4935445012587E-09  8.6454447422740E-09  9.7980944358779E-09  1.0374613973797E-08 
 9.1999999999896E-01  9.1999999999896E-01  9.1999999999896E-01  9.1999999999896E-01  9.1999999999896E-01  9.1999999999896E-01  9.1999999999896E-01  9.1999999999896E-01  9.1999999999896E-01  9.1999999999957E-01 
 4.0000000000520E-02  4.0000000000520E-02  4.0000000000520E-02  4.0000000000520E-02  4.0000000000520E-02  4.0000000000520E-02  4.0000000000520E-02  4.0000000000520E-02  4.0000000000520E-02  4.0000000000215E-02 
 4.0000000000520E-02  4.0000000000520E-02  4.0000000000520E-02  4.0000000000520E-02  4.0000000000520E-02  4.0000000000520E-02  4.0000000000520E-02  4.0000000000520E-02  4.0000000000520E-02  4.0000000000215E-02 
 3.5029481526289E-02  3.5029473703955E-02  3.5029450236939E-02  3.5029411125184E-02  3.5029356368590E-02  3.5029285967014E-02  3.5029199920272E-02  3.5029098228136E-02  3.5028980890337E-02  3.5028847906561E-02 
-2.5574711934305E-07 -2.5810326563660E-07 -2.6018222827403E-07 -2.6198400624222E-07 -2.6350859777379E-07 -2.6475600034715E-07 -2.6572621068649E-07 -2.6641922476174E-07 -2.6683503778861E-07 -2.6697364422852E-07 
-3.5029737273408E-02 -3.5029731807221E-02 -3.5029710419167E-02 -3.5029673109190E-02 -3.5029619877187E-02 -3.5029550723014E-02 -3.5029465646483E-02 -3.5029364647361E-02 -3.5029247725375E-02 -3.5029114880205E-02 
-4.0906712752646E-02 -4.0906712752646E-02 -4.0906712752646E-02 -4.0906712752646E-02 -4.0906712752648E-02 -4.0906712752644E-02 -4.0906712752644E-02 -4.0906712752648E-02 -4.0906712752648E-02 -4.0906712752843E-02 
 5.8769754792380E-03  5.8769809454255E-03  5.8770023334787E-03  5.8770396434559E-03  5.8770928754603E-03  5.8771620296300E-03  5.8772471061615E-03  5.8773481052866E-03  5.8774650272730E-03  5.8775978726380E-03 
 8.3014575505757E-01  1.6602930610836E+00  1.6602991296986E+00  1.6603097159784E+00  1.6603248199531E+00  1.6603444416642E+00  1.6603685811680E+00  1.6603972385325E+00  1.6604304138390E+00  8.3023405360679E-01 
 4.3019270347040E-09  1.2905789148399E-08  2.1509682702739E-08  3.0113631124611E-08  3.8717657802039E-08  4.7321786180840E-08  5.5926039652840E-08  6.4530441612322E-08  7.3135123121733E-08  7.3135123121733E-08 
 0.0000000000000E+00  1.6602922856274E+00  3.3205883809718E+00  4.9808928037897E+00  6.6412100718376E+00  8.3015447025039E+00  9.9619012142816E+00  1.1622284123822E+01  1.3282697949961E+01  1.4943147210959E+01 
 1.4943147210581E+01  1.3282854924982E+01  1.1622558829591E+01  9.9622544067526E+00  8.3019371387870E+00  6.6416025079784E+00  4.9812459965622E+00  3.3208630867120E+00  1.6604492605262E+00  0.0000000000000E+00 
 2.4905435661563E-08  4.9810917851921E-08  4.9811099910137E-08  4.9811417497806E-08  4.9811870615608E-08  4.9812459265588E-08  4.9813183448752E-08  4.9814043167549E-08  4.9815038424359E-08  2.4908084611116E-08 
 9.1448444543306E+04  1.8289688908661E+05  1.8289688908661E+05  1.8289688908661E+05  1.8289688908661E+05  1.8289688908661E+05  1.8289688908661E+05  1.8289688908661E+05  1.8289688908661E+05  9.1448444543306E+04 
 3.6579377817310E+05  7.3158755634620E+05  7.3158755634620E+05  7.3158755634620E+05  7.3158755634620E+05  7.3158755634620E+05  7.3158755634620E+05  7.3158755634620E+05  7.3158755634620E+05  3.6579377817310E+05 
 4.5724222271640E+05  9.1448444543281E+05  9.1448444543281E+05  9.1448444543281E+05  9.1448444543281E+05  9.1448444543281E+05  9.1448444543281E+05  9.1448444543281E+05  9.1448444543281E+05  4.5724222271640E+05 
 3.5000000000000E-01  3.5000000000000E-01  3.5000000000000E-01  3.5000000000000E-01  3.5000000000000E-01  3.5000000000000E-01  3.5000000000000E-01  3.5000000000000E-01  3.5000000000000E-01  3.5000000000000E-01 
 8.5301666666666E+00  1.7060333333333E+01  1.7060333333333E+01  1.7060333333333E+01  1.7060333333333E+01  1.7060333333333E+01  1.7060333333333E+01  1.7060333333333E+01  1.7060333333333E+01  8.5301666666666E+00 
 9.7318820076697E-02  9.7318910987493E-02  9.7319266702407E-02  9.7319887222511E-02  9.7320772549564E-02  9.7321922686010E-02  9.7323337635136E-02  9.7325017400943E-02  9.7326961988178E-02  9.7329171404246E-02 
 4.3744444444444E-05  8.7488888888889E-05  8.7488888888889E-05  8.7488888888889E-05  8.7488888888889E-05  8.7488888888889E-05  8.7488888888889E-05  8.7488888888889E-05  8.7488888888889E-05  4.3744444444444E-05 
 8.6666666666660E+01  8.6666666666660E+01  8.6666666666660E+01  8.6666666666660E+01  8.6666666666660E+01  8.6666666666660E+01  8.6666666666660E+01  8.6666666666660E+01  8.6666666666660E+01  8.6666666666660E+01 
 2.1666666666672E+01  2.1666666666672E+01  2.1666666666672E+01  2.1666666666672E+01  2.1666666666672E+01  2.1666666666672E+01  2.1666666666672E+01  2.1666666666672E+01  2.1666666666672E+01  2.1666666666672E+01 
 1.3628828079433E-11  2.1273076779074E-11  4.5626127896200E-11  8.8108436461188E-11  1.4872067486063E-10  2.2746339108150E-10  3.2433740765862E-10  4.3934394649097E-10  5.7248399207041E-10  6.4358753142569E-10 
 4.5429738258344E-04  7.0910636516611E-04  1.5208791524734E-03  2.9369676471496E-03  4.9573872614888E-03  7.5821599856921E-03  1.0811314388809E-02  1.4644885614454E-02  1.9082915389635E-02  2.1453050542471E-02 
 2.2266636292406E-04  1.1133392920988E-03  3.7853604961273E-03  8.2387474559365E-03  1.4473567364735E-02  2.2489874632198E-02  3.2287750779338E-02  4.3867316920013E-02  5.7228670083802E-02  6.4354807210436E-02 
 1.1402164450192E-03  1.0139683858086E-03  7.7725229349270E-04  5.7209619018232E-04  3.9850012132765E-04  2.5646447595193E-04  1.4598998652345E-04  6.7077729083098E-05  1.9729123238894E-05  3.9459321327169E-06 
 0.0000000000000E+00  0.0000000000000E+00  0.0000000000000E+00  0.0000000000000E+00  0.0000000000000E+00  0.0000000000000E+00  0.0000000000000E+00  0.0000000000000E+00  0.0000000000000E+00  0.0000000000000E+00 
 0.0000000000000E+00  0.0000000000000E+00  0.0000000000000E+00  0.0000000000000E+00  0.0000000000000E+00  0.0000000000000E+00  0.0000000000000E+00  0.0000000000000E+00  0.0000000000000E+00  0.0000000000000E+00 
 0.0000000000000E+00  0.0000000000000E+00  0.0000000000000E+00  0.0000000000000E+00  0.0000000000000E+00  0.0000000000000E+00  0.0000000000000E+00  0.0000000000000E+00  0.0000000000000E+00  0.0000000000000E+00 
ZONE T = "ANOD, 4.0000E-08", I = 10, SOLUTIONTIME = 4.000000E-08
ZONETYPE = ORDERED
DATAPACKING = BLOCK
STRANDID = 1
 0.0000000000000E+00  8.7488888888889E-05  1.7497777777778E-04  2.6246666666667E-04  3.4995555555556E-04  4.3744444444444E-04  5.2493333333333E-04  6.1242222222222E-04  6.9991111111111E-04  7.8740000000000E-04 
 5.7645822287020E-10  1.7293757456122E-09  2.8822974824374E-09  4.0352265704392E-09  5.1881661467322E-09  6.3414825561877E-09  7.4944525205326E-09  8.6481688001799E-09  9.8011817015046E-09  1.0376974823971E-08 
 9.1999999999861E-01  9.1999999999861E-01  9.1999999999861E-01  9.1999999999861E-01  9.1999999999861E-01  9.1999999999861E-01  9.1999999999861E-01  9.1999999999861E-01  9.1999999999861E-01  9.1999999999943E-01 
 4.0000000000693E-02  4.0000000000693E-02  4.0000000000693E-02  4.0000000000693E-02  4.0000000000693E-02  4.0000000000693E-02  4.0000000000693E-02  4.0000000000693E-02  4.0000000000693E-02  4.0000000000287E-02 
 4.0000000000693E-02  4.0000000000693E-02  4.0000000000693E-02  4.0000000000693E-02  4.0000000000693E-02  4.0000000000693E-02  4.0000000000693E-02  4.0000000000693E-02  4.0000000000693E-02  4.0000000000287E-02 
 3.5029481526100E-02  3.5029473703766E-02  3.5029450236750E-02  3.5029411124995E-02  3.5029356368401E-02  3.5029285966825E-02  3.5029199920083E-02  3.5029098227948E-02  3.5028980890148E-02  3.5028847906372E-02 
-2.5574711934164E-07 -2.5810326563517E-07 -2.6018222827260E-07 -2.6198400624078E-07 -2.6350859777234E-07 -2.6475600034569E-07 -2.6572621068503E-07 -2.6641922476028E-07 -2.6683503778715E-07 -2.6697364422706E-07 
-3.5029737273219E-02 -3.5029731807032E-02 -3.5029710418978E-02 -3.5029673109001E-02 -3.5029619876999E-02 -3.5029550722825E-02 -3.5029465646294E-02 -3.5029364647172E-02 -3.5029247725186E-02 -3.5029114880016E-02 
-4.0906712752400E-02 -4.0906712752400E-02 -4.0906712752400E-02 -4.0906712752400E-02 -4.0906712752397E-02 -4.0906712752397E-02 -4.0906712752397E-02 -4.0906712752397E-02 -4.0906712752397E-02 -4.0906712752658E-02 
 5.8769754791804E-03  5.8769809453679E-03  5.8770023334211E-03  5.8770396433983E-03  5.8770928753986E-03  5.8771620295716E-03  5.8772471061032E-03  5.8773481052248E-03  5.8774650272112E-03  5.8775978726414E-03 
 8.3014575505249E-01  1.6602930610731E+00  1.6602991296884E+00  1.6603097159683E+00  1.6603248199430E+00  1.6603444416543E+00  1.6603685811581E+00  1.6603972385226E+00  1.6604304138289E+00  8.3023405360997E-01 