TITLE = "Solution on Domain BulkDomain1D_1"
VARIABLES = "x [m]"  
"Vel_axial(0)" 	"MF_sp(ECDMC)" 	"MF_sp(Li+)" 	"MF_sp(PF6-)" 	"Volt(Electroly)" 	"qHeat_accum [J/m3]" 	"qHeat_step [W/m3]" 	"Joule_Lyte [W/m3]" 	"Joule_Solid [W/m3]" 	
ZONE T = "t = 0 [s]" I = 10 SOLUTIONTIME = 0.0000000000000E+00
0.0007874 	0 	0.92 	0.04 	0.04 	-0.07 	
0 	0.0 	 0.0 	 0.0 	 
0.000841022 	0 	0.92 	0.04 	0.04 	-0.07 	
0 	0.0 	 0.0 	 0.0 	 
0.000894644 	0 	0.92 	0.04 	0.04 	-0.07 	
0 	0.0 	 0.0 	 0.0 	 
0.000948267 	0 	0.92 	0.04 	0.04 	-0.07 	
0 	0.0 	 0.0 	 0.0 	 
0.00100189 	0 	0.92 	0.04 	0.04 	-0.07 	
0 	0.0 	 0.0 	 0.0 	 
0.00105551 	0 	0.92 	0.04 	0.04 	-0.07 	
0 	0.0 	 0.0 	 0.0 	 
0.00110913 	0 	0.92 	0.04 	0.04 	-0.07 	
0 	0.0 	 0.0 	 0.0 	 
0.00116276 	0 	0.92 	0.04 	0.04 	-0.07 	
0 	0.0 	 0.0 	 0.0 	 
0.00121638 	0 	0.92 	0.04 	0.04 	-0.07 	
0 	0.0 	 0.0 	 0.0 	 
0.00127 	0 	0.92 	0.04 	0.04 	-0.07 	
0 	0.0 	 0.0 	 0.0 	 
ZONE T = "t = 1e-08 [s]" I = 10 SOLUTIONTIME = 1.0000000000000E-08
0.0007874 	1.25463e-08 	0.92 	0.04 	0.04 	0.0179752 	
0 	0 	0 	0 	
0.000841022 	1.25463e-08 	0.92 	0.04 	0.04 	0.0179751 	
0 	0 	0 	0 	
0.000894644 	1.25463e-08 	0.92 	0.04 	0.04 	0.0179751 	
0 	0 	0 	0 	
0.000948267 	1.25463e-08 	0.92 	0.04 	0.04 	0.0179751 	
0 	0 	0 	0 	
0.00100189 	1.25463e-08 	0.92 	0.04 	0.04 	0.0179751 	
0 	0 	0 	0 	
0.00105551 	1.25463e-08 	0.92 	0.04 	0.04 	0.017975 	
0 	0 	0 	0 	
0.00110913 	1.25463e-08 	0.92 	0.04 	0.04 	0.017975 	
0 	0 	0 	0 	
0.00116276 	1.25463e-08 	0.92 	0.04 	0.04 	0.017975 	
0 	0 	0 	0 	
0.00121638 	1.25463e-08 	0.92 	0.04 	0.04 	0.0179749 	
0 	0 	0 	0 	
0.00127 	1.18497e-08 	0.92 	0.04 	0.04 	0.0179749 	
0 	0 	0 	0 	
ZONE T = "t = 2e-08 [s]" I = 10 SOLUTIONTIME = 2.0000000000000E-08
0.0007874 	1.03729e-08 	0.92 	0.04 	0.04 	0.0350306 	
0 	0 	0 	0 	
0.000841022 	1.03729e-08 	0.92 	0.04 	0.04 	0.0350306 	
0 	0 	0 	0 	
0.000894644 	1.03729e-08 	0.92 	0.04 	0.04 	0.0350306 	
0 	0 	0 	0 	
0.000948267 	1.03729e-08 	0.92 	0.04 	0.04 	0.0350305 	
0 	0 	0 	0 	
0.00100189 	1.03729e-08 	0.92 	0.04 	0.04 	0.0350305 	
0 	0 	0 	0 	
0.00105551 	1.03729e-08 	0.92 	0.04 	0.04 	0.0350305 	
0 	0 	0 	0 	
0.00110913 	1.03729e-08 	0.92 	0.04 	0.04 	0.0350305 	
0 	0 	0 	0 	
0.00116276 	1.03729e-08 	0.92 	0.04 	0.04 	0.0350304 	
0 	0 	0 	0 	
0.00121638 	1.03729e-08 	0.92 	0.04 	0.04 	0.0350304 	
0 	0 	0 	0 	
0.00127 	9.79689e-09 	0.92 	0.04 	0.04 	0.0350304 	
0 	0 	0 	0 	
ZONE T = "t = 3e-08 [s]" I = 10 SOLUTIONTIME = 3.0000000000000E-08
0.0007874 	1.03654e-08 	0.92 	0.04 	0.04 	0.0350347 	
0 	0 	0 	0 	
0.000841022 	1.03654e-08 	0.92 	0.04 	0.04 	0.0350347 	
0 	0 	0 	0 	
0.000894644 	1.03654e-08 	0.92 	0.04 	0.04 	0.0350346 	
0 	0 	0 	0 	
0.000948267 	1.03654e-08 	0.92 	0.04 	0.04 	0.0350346 	
0 	0 	0 	0 	
0.00100189 	1.03654e-08 	0.92 	0.04 	0.04 	0.0350346 	
0 	0 	0 	0 	
0.00105551 	1.03654e-08 	0.92 	0.04 	0.04 	0.0350346 	
0 	0 	0 	0 	
0.00110913 	1.03654e-08 	0.92 	0.04 	0.04 	0.0350346 	
0 	0 	0 	0 	
0.00116276 	1.03654e-08 	0.92 	0.04 	0.04 	0.0350345 	
0 	0 	0 	0 	
0.00121638 	1.03654e-08 	0.92 	0.04 	0.04 	0.0350345 	
0 	0 	0 	0 	
0.00127 	9.78982e-09 	0.92 	0.04 	0.04 	0.0350345 	
0 	0 	0 	0 	
ZONE T = "t = 4e-08 [s]" I = 10 SOLUTIONTIME = 4.0000000000000E-08
0.0007874 	1.03778e-08 	0.92 	0.04 	0.04 	0.0350282 	
0 	0 	0 	0 	
0.000841022 	1.03778e-08 	0.92 	0.04 	0.04 	0.0350282 	
0 	0 	0 	0 	
0.000894644 	1.03778e-08 	0.92 	0.04 	0.04 	0.0350281 	
0 	0 	0 	0 	
0.000948267 	1.03778e-08 	0.92 	0.04 	0.04 	0.0350281 	
0 	0 	0 	0 	
0.00100189 	1.03778e-08 	0.92 	0.04 	0.04 	0.0350281 	
0 	0 	0 	0 	
0.00105551 	1.03778e-08 	0.92 	0.04 	0.04 	0.0350281 	
0 	0 	0 	0 	
0.00110913 	1.03778e-08 	0.92 	0.04 	0.04 	0.035028 	
0 	0 	0 	0 	
0.00116276 	1.03778e-08 	0.92 	0.04 	0.04 	0.035028 	
0 	0 	0 	0 	
0.00121638 	1.03778e-08 	0.92 	0.04 	0.04 	0.035028 	
0 	0 	0 	0 	
0.00127 	9.8015e-09 	0.92 	0.04 	0.04 	0.035028 	
0 	0 	0 	0 	
ZONE T = "t = 5.10501e-08 [s]" I = 10 SOLUTIONTIME = 5.1050063748456E-08
0.0007874 	1.03778e-08 	0.92 	0.04 	0.04 	0.0350282 	
0 	0 	0 	0 	
0.000841022 	1.03778e-08 	0.92 	0.04 	0.04 	0.0350282 	
0 	0 	0 	0 	
0.000894644 	1.03778e-08 	0.92 	0.04 	0.04 	0.0350281 	
0 	0 	0 	0 	
0.000948267 	1.03778e-08 	0.92 	0.04 	0.04 	0.0350281 	
0 	0 	0 	0 	
0.00100189 	1.03778e-08 	0.92 	0.04 	0.04 	0.0350281 	
0 	0 	0 	0 	
0.00105551 	1.03778e-08 	0.92 	0.04 	0.04 	0.0350281 	
0 	0 	0 	0 	
0.00110913 	1.03778e-08 	0.92 	0.04 	0.04 	0.035028 	
0 	0 	0 	0 	
0.00116276 	1.03778e-08 	0.92 	0.04 	0.04 	0.035028 	
0 	0 	0 	0 	
0.00121638 	1.03778e-08 	0.92 	0.04 	0.04 	0.035028 	
0 	0 	0 	0 	
0.00127 	9.8015e-09 	0.92 	0.04 	0.04 	0.035028 	
0 	0 	0 	0 	
ZONE T = "t = 6.57722e-08 [s]" I = 10 SOLUTIONTIME = 6.5772176177784E-08
0.0007874 	1.03778e-08 	0.92 	0.04 	0.04 	0.0350282 	
0 	0 	0 	0 	
0.000841022 	1.03778e-08 	0.92 	0.04 	0.04 	0.0350282 	
0 	0 	0 	0 	
0.000894644 	1.03778e-08 	0.92 	0.04 	0.04 	0.0350281 	
0 	0 	0 	0 	
0.000948267 	1.03778e-08 	0.92 	0.04 	0.04 	0.0350281 	
0 	0 	0 	0 	
0.00100189 	1.03778e-08 	0.92 	0.04 	0.04 	0.0350281 	
0 	0 	0 	0 	
0.00105551 	1.03778e-08 	0.92 	0.04 	0.04 	0.0350281 	
0 	0 	0 	0 	
0.00110913 	1.03778e-08 	0.92 	0.04 	0.04 	0.035028 	
0 	0 	0 	0 	
0.00116276 	1.03778e-08 	0.92 	0.04 	0.04 	0.035028 	
0 	0 	0 	0 	
0.00121638 	1.03778e-08 	0.92 	0.04 	0.04 	0.035028 	
0 	0 	0 	0 	
0.00127 	9.8015e-09 	0.92 	0.04 	0.04 	0.035028 	
0 	0 	0 	0 	
ZONE T = "t = 8.78553e-08 [s]" I = 10 SOLUTIONTIME = 8.7855344821776E-08
0.0007874 	1.03778e-08 	0.92 	0.04 	0.04 	0.0350282 	
0 	0 	0 	0 	
0.000841022 	1.03778e-08 	0.92 	0.04 	0.04 	0.0350282 	
0 	0 	0 	0 	
0.000894644 	1.03778e-08 	0.92 	0.04 	0.04 	0.0350281 	
0 	0 	0 	0 	
0.000948267 	1.03778e-08 	0.92 	0.04 	0.04 	0.0350281 	
0 	0 	0 	0 	
0.00100189 	1.03778e-08 	0.92 	0.04 	0.04 	0.0350281 	
0 	0 	0 	0 	
0.00105551 	1.03778e-08 	0.92 	0.04 	0.04 	0.0350281 	
0 	0 	0 	0 	
0.00110913 	1.03778e-08 	0.92 	0.04 	0.04 	0.035028 	
0 	0 	0 	0 	
0.00116276 	1.03778e-08 	0.92 	0.04 	0.04 	0.035028 	
0 	0 	0 	0 	
0.00121638 	1.03778e-08 	0.92 	0.04 	0.04 	0.035028 	
0 	0 	0 	0 	
0.00127 	9.8015e-09 	0.92 	0.04 	0.04 	0.035028 	
0 	0 	0 	0 	
ZONE T = "t = 1.2098e-07 [s]" I = 10 SOLUTIONTIME = 1.2098009778776E-07
0.0007874 	1.03778e-08 	0.92 	0.04 	0.04 	0.0350282 	
0 	0 	0 	0 	
0.000841022 	1.03778e-08 	0.92 	0.04 	0.04 	0.0350282 	
0 	0 	0 	0 	
0.000894644 	1.03778e-08 	0.92 	0.04 	0.04 	0.0350281 	
0 	0 	0 	0 	
0.000948267 	1.03778e-08 	0.92 	0.04 	0.04 	0.0350281 	
0 	0 	0 	0 	
0.00100189 	1.03778e-08 	0.92 	0.04 	0.04 	0.0350281 	
0 	0 	0 	0 	
0.00105551 	1.03778e-08 	0.92 	0.04 	0.04 	0.0350281 	
0 	0 	0 	0 	
0.00110913 	1.03778e-08 	0.92 	0.04 	0.04 	0.035028 	
0 	0 	0 	0 	
0.00116276 	1.03778e-08 	0.92 	0.04 	0.04 	0.035028 	
0 	0 	0 	0 	
0.00121638 	1.03778e-08 	0.92 	0.04 	0.04 	0.035028 	
0 	0 	0 	0 	
0.00127 	9.8015e-09 	0.92 	0.04 	0.04 	0.035028 	
0 	0 	0 	0 	
ZONE T = "t = 1.70667e-07 [s]" I = 10 SOLUTIONTIME = 1.7066722723675E-07
0.0007874 	1.03778e-08 	0.92 	0.04 	0.04 	0.0350282 	
0 	0 	0 	0 	
0.000841022 	1.03778e-08 	0.92 	0.04 	0.04 	0.0350282 	
0 	0 	0 	0 	
0.000894644 	1.03778e-08 	0.92 	0.04 	0.04 	0.0350281 	
0 	0 	0 	0 	
0.000948267 	1.03778e-08 	0.92 	0.04 	0.04 	0.0350281 	
0 	0 	0 	0 	
0.00100189 	1.03778e-08 	0.92 	0.04 	0.04 	0.0350281 	
0 	0 	0 	0 	
0.00105551 	1.03778e-08 	0.92 	0.04 	0.04 	0.0350281 	
0 	0 	0 	0 	
0.00110913 	1.03778e-08 	0.92 	0.04 	0.04 	0.035028 	
0 	0 	0 	0 	
0.00116276 	1.03778e-08 	0.92 	0.04 	0.04 	0.035028 	
0 	0 	0 	0 	
0.00121638 	1.03778e-08 	0.92 	0.04 	0.04 	0.035028 	
0 	0 	0 	0 	
0.00127 	9.8015e-09 	0.92 	0.04 	0.04 	0.035028 	
0 	0 	0 	0 	
ZONE T = "t = 2.45198e-07 [s]" I = 10 SOLUTIONTIME = 2.4519792141022E-07
0.0007874 	1.03778e-08 	0.92 	0.04 	0.04 	0.0350282 	
0 	0 	0 	0 	
0.000841022 	1.03778e-08 	0.92 	0.04 	0.04 	0.0350282 	
0 	0 	0 	0 	
0.000894644 	1.03778e-08 	0.92 	0.04 	0.04 	0.0350281 	
0 	0 	0 	0 	
0.000948267 	1.03778e-08 	0.92 	0.04 	0.04 	0.0350281 	
0 	0 	0 	0 	
0.00100189 	1.03778e-08 	0.92 	0.04 	0.04 	0.0350281 	
0 	0 	0 	0 	
0.00105551 	1.03778e-08 	0.92 	0.04 	0.04 	0.0350281 	
0 	0 	0 	0 	
0.00110913 	1.03778e-08 	0.92 	0.04 	0.04 	0.035028 	
0 	0 	0 	0 	
0.00116276 	1.03778e-08 	0.92 	0.04 	0.04 	0.035028 	
0 	0 	0 	0 	
0.00121638 	1.03778e-08 	0.92 	0.04 	0.04 	0.035028 	
0 	0 	0 	0 	
0.00127 	9.8015e-09 	0.92 	0.04 	0.04 	0.035028 	
0 	0 	0 	0 	
