TITLE = "Solution on Domain BulkDomain1D_0"
VARIABLES = "x [m]"  
"Vel_axial" 
"MF_sp(ECDMC)" 
"MF_sp(Li+)" 
"MF_sp(PF6-)" 
"Volt(Electroly)" 
"Volt(AnodeVolt)" 
"Potential Drop Electrode-Electrolyte [V]" 
"Surf_0 Equilibrium Potential Drop Electrode-Electrolyte [V]" 
"Overpotential_0 [V]" 
"Current Source [A/m^2]" 
"Li+ flux [kmol/m^2/s]" 
"Electrolyte Current [A/m^2]" 
"Electrode Current [A/m^2]" 
"CV Capacity discharged [A-s/m^2]" 
"Depth of discharge in CV [A-s/m^2]" 
"CV Capacity remaining [A-s/m^2]" 
"Initial CV capacity [A-s/m^2]" 
"Porosity []" 
"Surface Area [m2/m2] (area per area)" 
"Specific current (per particle area) [A/m^2]" 
"Control volume thickness [m]" 
"MoleDens Li_C6-bulk [kmol/m^3]" 
"MoleDens V_C6-bulk [kmol/m^3]" 
"qHeat_accum [J/m3]" 
"qHeat_step [W/m3]" 
"Joule_Lyte [W/m3]" 
"Joule_Solid [W/m3]" 
"electrodHeat [W/m3]" 
"OverpotHeat [W/m3]" 
"deltaSHeat [W/m3]" 

ZONE T = "ANOD, 0.0000E+00", I = 10, SOLUTIONTIME = 0.000000E+00
ZONETYPE = ORDERED
DATAPACKING = BLOCK
STRANDID = 1
 0.0000000000000E+00  8.7488888888889E-05  1.7497777777778E-04  2.6246666666667E-04  3.4995555555556E-04  4.3744444444444E-04  5.2493333333333E-04  6.1242222222222E-04  6.9991111111111E-04  7.8740000000000E-04 
 0.0000000000000E+00  0.0000000000000E+00  0.0000000000000E+00  0.0000000000000E+00  0.0000000000000E+00  0.0000000000000E+00  0.0000000000000E+00  0.0000000000000E+00  0.0000000000000E+00  0.0000000000000E+00 
 9.2000000000000E-01  9.2000000000000E-01  9.2000000000000E-01  9.2000000000000E-01  9.2000000000000E-01  9.2000000000000E-01  9.2000000000000E-01  9.2000000000000E-01  9.2000000000000E-01  9.2000000000000E-01 
 4.0000000000000E-02  4.0000000000000E-02  4.0000000000000E-02  4.0000000000000E-02  4.0000000000000E-02  4.0000000000000E-02  4.0000000000000E-02  4.0000000000000E-02  4.0000000000000E-02  4.0000000000000E-02 
 4.0000000000000E-02  4.0000000000000E-02  4.0000000000000E-02  4.0000000000000E-02  4.0000000000000E-02  4.0000000000000E-02  4.0000000000000E-02  4.0000000000000E-02  4.0000000000000E-02  4.0000000000000E-02 
-7.0000000000000E-02 -7.0000000000000E-02 -7.0000000000000E-02 -7.0000000000000E-02 -7.0000000000000E-02 -7.0000000000000E-02 -7.0000000000000E-02 -7.0000000000000E-02 -7.0000000000000E-02 -7.0000000000000E-02 
 0.0000000000000E+00  0.0000000000000E+00  0.0000000000000E+00  0.0000000000000E+00  0.0000000000000E+00  0.0000000000000E+00  0.0000000000000E+00  0.0000000000000E+00  0.0000000000000E+00  0.0000000000000E+00 
 7.0000000000000E-02  7.0000000000000E-02  7.0000000000000E-02  7.0000000000000E-02  7.0000000000000E-02  7.0000000000000E-02  7.0000000000000E-02  7.0000000000000E-02  7.0000000000000E-02  7.0000000000000E-02 
-4.0906712753390E-02 -4.0906712753390E-02 -4.0906712753390E-02 -4.0906712753390E-02 -4.0906712753390E-02 -4.0906712753390E-02 -4.0906712753390E-02 -4.0906712753390E-02 -4.0906712753390E-02 -4.0906712753390E-02 
 1.1090671275339E-01  1.1090671275339E-01  1.1090671275339E-01  1.1090671275339E-01  1.1090671275339E-01  1.1090671275339E-01  1.1090671275339E-01  1.1090671275339E-01  1.1090671275339E-01  1.1090671275339E-01 
 3.0930240924008E+01  6.1860481848016E+01  6.1860481848016E+01  6.1860481848016E+01  6.1860481848016E+01  6.1860481848016E+01  6.1860481848016E+01  6.1860481848016E+01  6.1860481848016E+01  3.0930240924008E+01 
-0.0000000000000E+00 -0.0000000000000E+00 -0.0000000000000E+00 -0.0000000000000E+00 -0.0000000000000E+00 -0.0000000000000E+00 -0.0000000000000E+00 -0.0000000000000E+00 -0.0000000000000E+00 -0.0000000000000E+00 
 0.0000000000000E+00  0.0000000000000E+00  0.0000000000000E+00  0.0000000000000E+00  0.0000000000000E+00  0.0000000000000E+00  0.0000000000000E+00  0.0000000000000E+00  0.0000000000000E+00  3.0930240924008E+01 
 3.0930240924008E+01 -0.0000000000000E+00 -0.0000000000000E+00 -0.0000000000000E+00 -0.0000000000000E+00 -0.0000000000000E+00 -0.0000000000000E+00 -0.0000000000000E+00 -0.0000000000000E+00  0.0000000000000E+00 
 0.0000000000000E+00  0.0000000000000E+00  0.0000000000000E+00  0.0000000000000E+00  0.0000000000000E+00  0.0000000000000E+00  0.0000000000000E+00  0.0000000000000E+00  0.0000000000000E+00  0.0000000000000E+00 
 9.1448444543281E+04  1.8289688908656E+05  1.8289688908656E+05  1.8289688908656E+05  1.8289688908656E+05  1.8289688908656E+05  1.8289688908656E+05  1.8289688908656E+05  1.8289688908656E+05  9.1448444543281E+04 
 3.6579377817312E+05  7.3158755634625E+05  7.3158755634625E+05  7.3158755634625E+05  7.3158755634625E+05  7.3158755634625E+05  7.3158755634625E+05  7.3158755634625E+05  7.3158755634625E+05  3.6579377817312E+05 
 4.5724222271640E+05  9.1448444543281E+05  9.1448444543281E+05  9.1448444543281E+05  9.1448444543281E+05  9.1448444543281E+05  9.1448444543281E+05  9.1448444543281E+05  9.1448444543281E+05  4.5724222271640E+05 
 3.5000000000000E-01  3.5000000000000E-01  3.5000000000000E-01  3.5000000000000E-01  3.5000000000000E-01  3.5000000000000E-01  3.5000000000000E-01  3.5000000000000E-01  3.5000000000000E-01  3.5000000000000E-01 
 8.5301666666666E+00  1.7060333333333E+01  1.7060333333333E+01  1.7060333333333E+01  1.7060333333333E+01  1.7060333333333E+01  1.7060333333333E+01  1.7060333333333E+01  1.7060333333333E+01  8.5301666666666E+00 
 3.6259831879809E+00  3.6259831879809E+00  3.6259831879809E+00  3.6259831879809E+00  3.6259831879809E+00  3.6259831879809E+00  3.6259831879809E+00  3.6259831879809E+00  3.6259831879809E+00  3.6259831879809E+00 
 4.3744444444444E-05  8.7488888888889E-05  8.7488888888889E-05  8.7488888888889E-05  8.7488888888889E-05  8.7488888888889E-05  8.7488888888889E-05  8.7488888888889E-05  8.7488888888889E-05  4.3744444444444E-05 
 8.6666666666666E+01  8.6666666666666E+01  8.6666666666666E+01  8.6666666666666E+01  8.6666666666666E+01  8.6666666666666E+01  8.6666666666666E+01  8.6666666666666E+01  8.6666666666666E+01  8.6666666666666E+01 
 2.1666666666667E+01  2.1666666666667E+01  2.1666666666667E+01  2.1666666666667E+01  2.1666666666667E+01  2.1666666666667E+01  2.1666666666667E+01  2.1666666666667E+01  2.1666666666667E+01  2.1666666666667E+01 
 0.0000000000000E+00  0.0000000000000E+00  0.0000000000000E+00  0.0000000000000E+00  0.0000000000000E+00  0.0000000000000E+00  0.0000000000000E+00  0.0000000000000E+00  0.0000000000000E+00  0.0000000000000E+00 
 0.0000000000000E+00  0.0000000000000E+00  0.0000000000000E+00  0.0000000000000E+00  0.0000000000000E+00  0.0000000000000E+00  0.0000000000000E+00  0.0000000000000E+00  0.0000000000000E+00  0.0000000000000E+00 
 0.0000000000000E+00  0.0000000000000E+00  0.0000000000000E+00  0.0000000000000E+00  0.0000000000000E+00  0.0000000000000E+00  0.0000000000000E+00  0.0000000000000E+00  0.0000000000000E+00  0.0000000000000E+00 
 0.0000000000000E+00  0.0000000000000E+00  0.0000000000000E+00  0.0000000000000E+00  0.0000000000000E+00  0.0000000000000E+00  0.0000000000000E+00  0.0000000000000E+00  0.0000000000000E+00  0.0000000000000E+00 
 0.0000000000000E+00  0.0000000000000E+00  0.0000000000000E+00  0.0000000000000E+00  0.0000000000000E+00  0.0000000000000E+00  0.0000000000000E+00  0.0000000000000E+00  0.0000000000000E+00  0.0000000000000E+00 
 0.0000000000000E+00  0.0000000000000E+00  0.0000000000000E+00  0.0000000000000E+00  0.0000000000000E+00  0.0000000000000E+00  0.0000000000000E+00  0.0000000000000E+00  0.0000000000000E+00  0.0000000000000E+00 
 0.0000000000000E+00  0.0000000000000E+00  0.0000000000000E+00  0.0000000000000E+00  0.0000000000000E+00  0.0000000000000E+00  0.0000000000000E+00  0.0000000000000E+00  0.0000000000000E+00  0.0000000000000E+00 
ZONE T = "ANOD, 1.0000E-08", I = 10, SOLUTIONTIME = 1.000000E-08
ZONETYPE = ORDERED
DATAPACKING = BLOCK
STRANDID = 1
 0.0000000000000E+00  8.7488888888889E-05  1.7497777777778E-04  2.6246666666667E-04  3.4995555555556E-04  4.3744444444444E-04  5.2493333333333E-04  6.1242222222222E-04  6.9991111111111E-04  7.8740000000000E-04 
 5.7608965698339E-10  1.7286332554897E-09  2.8808178608466E-09  4.0330098162461E-09  5.1859386749477E-09  6.3385179492992E-09  7.4914771937712E-09  8.6444563350570E-09  9.7974585100065E-09  1.0373972683897E-08 
 9.1999999999965E-01  9.1999999999965E-01  9.1999999999965E-01  9.1999999999965E-01  9.1999999999965E-01  9.1999999999965E-01  9.1999999999965E-01  9.1999999999965E-01  9.1999999999965E-01  9.1999999999986E-01 
 4.0000000000173E-02  4.0000000000173E-02  4.0000000000173E-02  4.0000000000173E-02  4.0000000000173E-02  4.0000000000173E-02  4.0000000000173E-02  4.0000000000173E-02  4.0000000000173E-02  4.0000000000072E-02 
 4.0000000000173E-02  4.0000000000173E-02  4.0000000000173E-02  4.0000000000173E-02  4.0000000000173E-02  4.0000000000173E-02  4.0000000000173E-02  4.0000000000173E-02  4.0000000000173E-02  4.0000000000072E-02 
 3.5028732243887E-02  3.5028724421582E-02  3.5028700954789E-02  3.5028661843410E-02  3.5028607087289E-02  3.5028536686417E-02  3.5028450640384E-02  3.5028348949292E-02  3.5028231612530E-02  3.5028098630031E-02 
-2.5574474148872E-07 -2.5810086587520E-07 -2.6017980918203E-07 -2.6198157039595E-07 -2.6350614774987E-07 -2.6475353872230E-07 -2.6572374003792E-07 -2.6641674766673E-07 -2.6683255682515E-07 -2.6697116197544E-07 
-3.5028987988628E-02 -3.5028982522448E-02 -3.5028961134598E-02 -3.5028923824981E-02 -3.5028870593436E-02 -3.5028801439956E-02 -3.5028716364124E-02 -3.5028615366040E-02 -3.5028498445086E-02 -3.5028365601193E-02 
-4.0906712753142E-02 -4.0906712753146E-02 -4.0906712753142E-02 -4.0906712753142E-02 -4.0906712753142E-02 -4.0906712753142E-02 -4.0906712753142E-02 -4.0906712753142E-02 -4.0906712753142E-02 -4.0906712753207E-02 
 5.8777247645137E-03  5.8777302306977E-03  5.8777516185436E-03  5.8777889281613E-03  5.8778421597053E-03  5.8779113131865E-03  5.8779963890183E-03  5.8780973871023E-03  5.8782143080554E-03  5.8783471520144E-03 
 8.3025205569764E-01  1.6605056623638E+00  1.6605117309316E+00  1.6605223171270E+00  1.6605374209959E+00  1.6605570425434E+00  1.6605811818888E+00  1.6606098390065E+00  1.6606430140746E+00  8.3034035355858E-01 
 4.3019107460959E-09  1.2905666775943E-08  2.1509475772049E-08  3.0113371077893E-08  3.8717270684454E-08  4.7321396353065E-08  5.5925465726058E-08  6.4529871255759E-08  7.3134349102698E-08  7.3134349102698E-08 
 0.0000000000000E+00  1.6602789068680E+00  3.3205566082646E+00  4.9808477473174E+00  6.6411476291681E+00  8.3014697378654E+00  9.9618082264679E+00  1.1622173717410E+01  1.3282575158935E+01  1.4943117991384E+01 
 1.4943122290836E+01  1.3282731420920E+01  1.1622450757820E+01  9.9621617677363E+00  8.3018599336568E+00  6.6415407385318E+00  4.9811996644489E+00  3.3208321942740E+00  1.6604338124484E+00  0.0000000000000E+00 
 8.3025205569764E-09  1.6605056623638E-08  1.6605117309316E-08  1.6605223171270E-08  1.6605374209959E-08  1.6605570425434E-08  1.6605811818888E-08  1.6606098390065E-08  1.6606430140746E-08  8.3034035355858E-09 
 9.1448444543289E+04  1.8289688908658E+05  1.8289688908658E+05  1.8289688908658E+05  1.8289688908658E+05  1.8289688908658E+05  1.8289688908658E+05  1.8289688908658E+05  1.8289688908658E+05  9.1448444543289E+04 
 3.6579377817311E+05  7.3158755634623E+05  7.3158755634623E+05  7.3158755634623E+05  7.3158755634623E+05  7.3158755634623E+05  7.3158755634623E+05  7.3158755634623E+05  7.3158755634623E+05  3.6579377817311E+05 
 4.5724222271640E+05  9.1448444543281E+05  9.1448444543281E+05  9.1448444543281E+05  9.1448444543281E+05  9.1448444543281E+05  9.1448444543281E+05  9.1448444543281E+05  9.1448444543281E+05  4.5724222271640E+05 
 3.5000000000000E-01  3.5000000000000E-01  3.5000000000000E-01  3.5000000000000E-01  3.5000000000000E-01  3.5000000000000E-01  3.5000000000000E-01  3.5000000000000E-01  3.5000000000000E-01  3.5000000000000E-01 
 8.5301666666666E+00  1.7060333333333E+01  1.7060333333333E+01  1.7060333333333E+01  1.7060333333333E+01  1.7060333333333E+01  1.7060333333333E+01  1.7060333333333E+01  1.7060333333333E+01  8.5301666666666E+00 
 9.7331281807425E-02  9.7331372718223E-02  9.7331728430372E-02  9.7332348945526E-02  9.7333234266381E-02  9.7334384393238E-02  9.7335799333079E-02  9.7337479084415E-02  9.7339423657684E-02  9.7341633054288E-02 
 4.3744444444444E-05  8.7488888888889E-05  8.7488888888889E-05  8.7488888888889E-05  8.7488888888889E-05  8.7488888888889E-05  8.7488888888889E-05  8.7488888888889E-05  8.7488888888889E-05  4.3744444444444E-05 
 8.6666666666664E+01  8.6666666666664E+01  8.6666666666664E+01  8.6666666666664E+01  8.6666666666664E+01  8.6666666666664E+01  8.6666666666664E+01  8.6666666666664E+01  8.6666666666664E+01  8.6666666666664E+01 
 2.1666666666669E+01  2.1666666666669E+01  2.1666666666669E+01  2.1666666666669E+01  2.1666666666669E+01  2.1666666666669E+01  2.1666666666669E+01  2.1666666666669E+01  2.1666666666669E+01  2.1666666666669E+01 
 4.5428975273087E-12  7.0909346495797E-12  1.5208501491993E-11  2.9369148424684E-11  4.9572932707400E-11  7.5820242972496E-11  1.0811110769396E-10  1.4644608857053E-10  1.9082561665370E-10  2.1452638538682E-10 
 4.5428975273087E-04  7.0909346495797E-04  1.5208501491993E-03  2.9369148424684E-03  4.9572932707400E-03  7.5820242972496E-03  1.0811110769396E-02  1.4644608857053E-02  1.9082561665370E-02  2.1452638538682E-02 
 7.4222316208022E-05  3.7110819318386E-04  1.2617692634495E-03  2.7462184767938E-03  4.8244615440120E-03  7.4965371986820E-03  1.0762448044056E-02  1.4622249891353E-02  1.9075985372535E-02  2.1451323244287E-02 
 3.8006743652285E-04  3.3798527177411E-04  2.5908088574981E-04  1.9069636567458E-04  1.3283172672807E-04  8.5487098567538E-05  4.8662725339725E-05  2.2358965700750E-05  6.5762928349879E-06  1.3152943940898E-06 
 0.0000000000000E+00  0.0000000000000E+00  0.0000000000000E+00  0.0000000000000E+00  0.0000000000000E+00  0.0000000000000E+00  0.0000000000000E+00  0.0000000000000E+00  0.0000000000000E+00  0.0000000000000E+00 
 0.0000000000000E+00  0.0000000000000E+00  0.0000000000000E+00  0.0000000000000E+00  0.0000000000000E+00  0.0000000000000E+00  0.0000000000000E+00  0.0000000000000E+00  0.0000000000000E+00  0.0000000000000E+00 
 0.0000000000000E+00  0.0000000000000E+00  0.0000000000000E+00  0.0000000000000E+00  0.0000000000000E+00  0.0000000000000E+00  0.0000000000000E+00  0.0000000000000E+00  0.0000000000000E+00  0.0000000000000E+00 
ZONE T = "ANOD, 2.0000E-08", I = 10, SOLUTIONTIME = 2.000000E-08
ZONETYPE = ORDERED
DATAPACKING = BLOCK
STRANDID = 1
 0.0000000000000E+00  8.7488888888889E-05  1.7497777777778E-04  2.6246666666667E-04  3.4995555555556E-04  4.3744444444444E-04  5.2493333333333E-04  6.1242222222222E-04  6.9991111111111E-04  7.8740000000000E-04 
 5.7609501514934E-10  1.7290125379059E-09  2.8812078592894E-09  4.0334105318494E-09  5.1859869004288E-09  6.3396665176258E-09  7.4933628974398E-09  8.6474423848291E-09  9.8015449093513E-09  1.0378064447269E-08 
 9.1999999999931E-01  9.1999999999931E-01  9.1999999999931E-01  9.1999999999931E-01  9.1999999999931E-01  9.1999999999931E-01  9.1999999999931E-01  9.1999999999931E-01  9.1999999999931E-01  9.1999999999971E-01 
 4.0000000000346E-02  4.0000000000346E-02  4.0000000000346E-02  4.0000000000346E-02  4.0000000000346E-02  4.0000000000346E-02  4.0000000000346E-02  4.0000000000346E-02  4.0000000000346E-02  4.0000000000143E-02 
 4.0000000000346E-02  4.0000000000346E-02  4.0000000000346E-02  4.0000000000346E-02  4.0000000000346E-02  4.0000000000346E-02  4.0000000000346E-02  4.0000000000346E-02  4.0000000000346E-02  4.0000000000143E-02 
 3.5029481526481E-02  3.5029473704147E-02  3.5029450237131E-02  3.5029411125376E-02  3.5029356368782E-02  3.5029285967206E-02  3.5029199920464E-02  3.5029098228328E-02  3.5028980890529E-02  3.5028847906753E-02 
-2.5574711934447E-07 -2.5810326563803E-07 -2.6018222827548E-07 -2.6198400624367E-07 -2.6350859777525E-07 -2.6475600034861E-07 -2.6572621068796E-07 -2.6641922476322E-07 -2.6683503779009E-07 -2.6697364423000E-07 
-3.5029737273600E-02 -3.5029731807413E-02 -3.5029710419359E-02 -3.5029673109382E-02 -3.5029619877379E-02 -3.5029550723206E-02 -3.5029465646675E-02 -3.5029364647553E-02 -3.5029247725567E-02 -3.5029114880397E-02 
-4.0906712752895E-02 -4.0906712752899E-02 -4.0906712752895E-02 -4.0906712752895E-02 -4.0906712752898E-02 -4.0906712752896E-02 -4.0906712752896E-02 -4.0906712752898E-02 -4.0906712752898E-02 -4.0906712753029E-02 
 5.8769754792946E-03  5.8769809454859E-03  5.8770023335353E-03  5.8770396435125E-03  5.8770928755190E-03  5.8771620296891E-03  5.8772471062207E-03  5.8773481053452E-03  5.8774650273316E-03  5.8775978726315E-03 
 8.3014575506242E-01  1.6602930610940E+00  1.6602991297083E+00  1.6603097159881E+00  1.6603248199634E+00  1.6603444416740E+00  1.6603685811777E+00  1.6603972385430E+00  1.6604304138493E+00  8.3023405360381E-01 
 4.3019270407565E-09  1.2905789142272E-08  2.1509682706462E-08  3.0113631118409E-08  3.8717657812452E-08  4.7321786180635E-08  5.5926039644272E-08  6.4530441618114E-08  7.3135087252208E-08  7.3135087252208E-08 
 0.0000000000000E+00  1.6602922856203E+00  3.3205883809574E+00  4.9808928037681E+00  6.6412100718089E+00  8.3015447028362E+00  9.9619012138702E+00  1.1622284123772E+01  1.3282697950281E+01  1.4943147210913E+01 
 1.4943147210665E+01  1.3282854925055E+01  1.1622558829654E+01  9.9622544068054E+00  8.3019371388297E+00  6.6416025080109E+00  4.9812459965850E+00  3.3208630867247E+00  1.6604492605285E+00  0.0000000000000E+00 
 1.6603978107601E-08  3.3207987234578E-08  3.3208108606399E-08  3.3208320331151E-08  3.3208622409593E-08  3.3209014842174E-08  3.3209497630665E-08  3.3210070775495E-08  3.3210734279240E-08  1.6605744071624E-08 
 9.1448444543297E+04  1.8289688908659E+05  1.8289688908659E+05  1.8289688908659E+05  1.8289688908659E+05  1.8289688908659E+05  1.8289688908659E+05  1.8289688908659E+05  1.8289688908659E+05  9.1448444543297E+04 
 3.6579377817311E+05  7.3158755634621E+05  7.3158755634621E+05  7.3158755634621E+05  7.3158755634621E+05  7.3158755634621E+05  7.3158755634621E+05  7.3158755634621E+05  7.3158755634621E+05  3.6579377817311E+05 
 4.5724222271640E+05  9.1448444543281E+05  9.1448444543281E+05  9.1448444543281E+05  9.1448444543281E+05  9.1448444543281E+05  9.1448444543281E+05  9.1448444543281E+05  9.1448444543281E+05  4.5724222271640E+05 
 3.5000000000000E-01  3.5000000000000E-01  3.5000000000000E-01  3.5000000000000E-01  3.5000000000000E-01  3.5000000000000E-01  3.5000000000000E-01  3.5000000000000E-01  3.5000000000000E-01  3.5000000000000E-01 
 8.5301666666666E+00  1.7060333333333E+01  1.7060333333333E+01  1.7060333333333E+01  1.7060333333333E+01  1.7060333333333E+01  1.7060333333333E+01  1.7060333333333E+01  1.7060333333333E+01  8.5301666666666E+00 
 9.7318820077266E-02  9.7318910988104E-02  9.7319266702975E-02  9.7319887223080E-02  9.7320772550171E-02  9.7321922686583E-02  9.7323337635709E-02  9.7325017401555E-02  9.7326961988785E-02  9.7329171403898E-02 
 4.3744444444444E-05  8.7488888888889E-05  8.7488888888889E-05  8.7488888888889E-05  8.7488888888889E-05  8.7488888888889E-05  8.7488888888889E-05  8.7488888888889E-05  8.7488888888889E-05  4.3744444444444E-05 
 8.6666666666662E+01  8.6666666666662E+01  8.6666666666662E+01  8.6666666666662E+01  8.6666666666662E+01  8.6666666666662E+01  8.6666666666662E+01  8.6666666666662E+01  8.6666666666662E+01  8.6666666666662E+01 
 2.1666666666671E+01  2.1666666666671E+01  2.1666666666671E+01  2.1666666666671E+01  2.1666666666671E+01  2.1666666666671E+01  2.1666666666671E+01  2.1666666666671E+01  2.1666666666671E+01  2.1666666666671E+01 
 9.0858713544989E-12  1.4181998299945E-11  3.0417293018017E-11  5.8738824894765E-11  9.9146805323410E-11  1.5164184283503E-10  2.1622425157302E-10  2.9289494471576E-10  3.8165477055923E-10  4.2905689081087E-10 
 4.5429738271902E-04  7.0910636503653E-04  1.5208791526024E-03  2.9369676470081E-03  4.9573872616010E-03  7.5821599862530E-03  1.0811314387906E-02  1.4644885614522E-02  1.9082915390553E-02  2.1453050542406E-02 
 1.4844519469133E-04  7.4222300118440E-04  2.5235627121412E-03  5.4924862115133E-03  9.6490146082811E-03  1.4993208496226E-02  2.1525098801365E-02  2.9244776124184E-02  3.8152324347887E-02  4.2903058467823E-02 
 7.6014194075856E-04  6.7597682881010E-04  5.1816658966052E-04  3.8139627796318E-04  2.6566592405987E-04  1.7097578727621E-04  9.7326355937049E-05  4.4718347391098E-05  1.3152708035855E-05  2.6306132639735E-06 
 0.0000000000000E+00  0.0000000000000E+00  0.0000000000000E+00  0.0000000000000E+00  0.0000000000000E+00  0.0000000000000E+00  0.0000000000000E+00  0.0000000000000E+00  0.0000000000000E+00  0.0000000000000E+00 
 0.0000000000000E+00  0.0000000000000E+00  0.0000000000000E+00  0.0000000000000E+00  0.0000000000000E+00  0.0000000000000E+00  0.0000000000000E+00  0.0000000000000E+00  0.0000000000000E+00  0.0000000000000E+00 
 0.0000000000000E+00  0.0000000000000E+00  0.0000000000000E+00  0.0000000000000E+00  0.0000000000000E+00  0.0000000000000E+00  0.0000000000000E+00  0.0000000000000E+00  0.0000000000000E+00  0.0000000000000E+00 
ZONE T = "ANOD, 3.0000E-08", I = 10, SOLUTIONTIME = 3.000000E-08
ZONETYPE = ORDERED
DATAPACKING = BLOCK
STRANDID = 1
 0.0000000000000E+00  8.7488888888889E-05  1.7497777777778E-04  2.6246666666667E-04  3.4995555555556E-04  4.3744444444444E-04  5.2493333333333E-04  6.1242222222222E-04  6.9991111111111E-04  7.8740000000000E-04 
 5.7682143060164E-10  1.7301021610787E-09  2.8837503133668E-09  4.0374058168314E-09  5.1892557699480E-09  6.3414825562267E-09  7.4926364819391E-09  8.6445367229544E-09  9.7964600011026E-09  1.0372616331294E-08 
 9.1999999999896E-01  9.1999999999896E-01  9.1999999999896E-01  9.1999999999896E-01  9.1999999999896E-01  9.1999999999896E-01  9.1999999999896E-01  9.1999999999896E-01  9.1999999999896E-01  9.1999999999957E-01 
 4.0000000000520E-02  4.0000000000520E-02  4.0000000000520E-02  4.0000000000520E-02  4.0000000000520E-02  4.0000000000520E-02  4.0000000000520E-02  4.0000000000520E-02  4.0000000000520E-02  4.0000000000215E-02 
 4.0000000000520E-02  4.0000000000520E-02  4.0000000000520E-02  4.0000000000520E-02  4.0000000000520E-02  4.0000000000520E-02  4.0000000000520E-02  4.0000000000520E-02  4.0000000000520E-02  4.0000000000215E-02 
 3.5029481526286E-02  3.5029473703953E-02  3.5029450236937E-02  3.5029411125182E-02  3.5029356368587E-02  3.5029285967012E-02  3.5029199920270E-02  3.5029098228134E-02  3.5028980890335E-02  3.5028847906559E-02 
-2.5574711934305E-07 -2.5810326563659E-07 -2.6018222827403E-07 -2.6198400624221E-07 -2.6350859777378E-07 -2.6475600034714E-07 -2.6572621068648E-07 -2.6641922476174E-07 -2.6683503778861E-07 -2.6697364422852E-07 
-3.5029737273406E-02 -3.5029731807218E-02 -3.5029710419165E-02 -3.5029673109188E-02 -3.5029619877185E-02 -3.5029550723012E-02 -3.5029465646480E-02 -3.5029364647359E-02 -3.5029247725372E-02 -3.5029114880203E-02 
-4.0906712752645E-02 -4.0906712752645E-02 -4.0906712752645E-02 -4.0906712752645E-02 -4.0906712752645E-02 -4.0906712752645E-02 -4.0906712752645E-02 -4.0906712752645E-02 -4.0906712752645E-02 -4.0906712752841E-02 
 5.8769754792396E-03  5.8769809454270E-03  5.8770023334803E-03  5.8770396434575E-03  5.8770928754602E-03  5.8771620296333E-03  5.8772471061648E-03  5.8773481052864E-03  5.8774650272728E-03  5.8775978726378E-03 
 8.3014575505777E-01  1.6602930610836E+00  1.6602991296989E+00  1.6603097159787E+00  1.6603248199530E+00  1.6603444416636E+00  1.6603685811674E+00  1.6603972385325E+00  1.6604304138389E+00  8.3023405360677E-01 
 4.3019270369590E-09  1.2905789146144E-08  2.1509682700484E-08  3.0113631124611E-08  3.8717657806549E-08  4.7321786180840E-08  5.5926039648330E-08  6.4530441614577E-08  7.3135123119478E-08  7.3135123119478E-08 
 0.0000000000000E+00  1.6602922856274E+00  3.3205883809718E+00  4.9808928037897E+00  6.6412100718376E+00  8.3015447025039E+00  9.9619012142816E+00  1.1622284123822E+01  1.3282697949961E+01  1.4943147210959E+01 
 1.4943147210581E+01  1.3282854924982E+01  1.1622558829590E+01  9.9622544067515E+00  8.3019371387856E+00  6.6416025079773E+00  4.9812459965618E+00  3.3208630867119E+00  1.6604492605262E+00  0.0000000000000E+00 
 2.4905435658178E-08  4.9810917845415E-08  4.9811099903389E-08  4.9811417490939E-08  4.9811870609123E-08  4.9812459258810E-08  4.9813183442339E-08  4.9814043160820E-08  4.9815038417629E-08  2.4908084607692E-08 
 9.1448444543306E+04  1.8289688908661E+05  1.8289688908661E+05  1.8289688908661E+05  1.8289688908661E+05  1.8289688908661E+05  1.8289688908661E+05  1.8289688908661E+05  1.8289688908661E+05  9.1448444543306E+04 
 3.6579377817310E+05  7.3158755634620E+05  7.3158755634620E+05  7.3158755634620E+05  7.3158755634620E+05  7.3158755634620E+05  7.3158755634620E+05  7.3158755634620E+05  7.3158755634620E+05  3.6579377817310E+05 
 4.5724222271640E+05  9.1448444543281E+05  9.1448444543281E+05  9.1448444543281E+05  9.1448444543281E+05  9.1448444543281E+05  9.1448444543281E+05  9.1448444543281E+05  9.1448444543281E+05  4.5724222271640E+05 
 3.5000000000000E-01  3.5000000000000E-01  3.5000000000000E-01  3.5000000000000E-01  3.5000000000000E-01  3.5000000000000E-01  3.5000000000000E-01  3.5000000000000E-01  3.5000000000000E-01  3.5000000000000E-01 
 8.5301666666666E+00  1.7060333333333E+01  1.7060333333333E+01  1.7060333333333E+01  1.7060333333333E+01  1.7060333333333E+01  1.7060333333333E+01  1.7060333333333E+01  1.7060333333333E+01  8.5301666666666E+00 
 9.7318820076720E-02  9.7318910987495E-02  9.7319266702424E-02  9.7319887222529E-02  9.7320772549561E-02  9.7321922685975E-02  9.7323337635101E-02  9.7325017400941E-02  9.7326961988176E-02  9.7329171404244E-02 
 4.3744444444444E-05  8.7488888888889E-05  8.7488888888889E-05  8.7488888888889E-05  8.7488888888889E-05  8.7488888888889E-05  8.7488888888889E-05  8.7488888888889E-05  8.7488888888889E-05  4.3744444444444E-05 
 8.6666666666660E+01  8.6666666666660E+01  8.6666666666660E+01  8.6666666666660E+01  8.6666666666660E+01  8.6666666666660E+01  8.6666666666660E+01  8.6666666666660E+01  8.6666666666660E+01  8.6666666666660E+01 
 2.1666666666672E+01  2.1666666666672E+01  2.1666666666672E+01  2.1666666666672E+01  2.1666666666672E+01  2.1666666666672E+01  2.1666666666672E+01  2.1666666666672E+01  2.1666666666672E+01  2.1666666666672E+01 
 1.3628845180333E-11  2.1273061951606E-11  4.5626084542750E-11  8.8108501366261E-11  1.4872067793830E-10  2.2746344269195E-10  3.2433739546111E-10  4.3934380086029E-10  5.7248392445558E-10  6.4358739623559E-10 
 4.5429738258342E-04  7.0910636516608E-04  1.5208791524733E-03  2.9369676471496E-03  4.9573872614888E-03  7.5821599856921E-03  1.0811314388809E-02  1.4644885614454E-02  1.9082915389635E-02  2.1453050542471E-02 
 2.2266807304328E-04  1.1133378093182E-03  3.7853561607066E-03  8.2387539463764E-03  1.4473567672440E-02  2.2489879793211E-02  3.2287749559577E-02  4.3867302356948E-02  5.7228663322321E-02  6.4354793691425E-02 
 1.1402164449900E-03  1.0139683858424E-03  7.7725229356841E-04  5.7209619024973E-04  3.9850012139026E-04  2.5646447598400E-04  1.4598998653392E-04  6.7077729081266E-05  1.9729123236689E-05  3.9459321338673E-06 
 0.0000000000000E+00  0.0000000000000E+00  0.0000000000000E+00  0.0000000000000E+00  0.0000000000000E+00  0.0000000000000E+00  0.0000000000000E+00  0.0000000000000E+00  0.0000000000000E+00  0.0000000000000E+00 
 0.0000000000000E+00  0.0000000000000E+00  0.0000000000000E+00  0.0000000000000E+00  0.0000000000000E+00  0.0000000000000E+00  0.0000000000000E+00  0.0000000000000E+00  0.0000000000000E+00  0.0000000000000E+00 
 0.0000000000000E+00  0.0000000000000E+00  0.0000000000000E+00  0.0000000000000E+00  0.0000000000000E+00  0.0000000000000E+00  0.0000000000000E+00  0.0000000000000E+00  0.0000000000000E+00  0.0000000000000E+00 
ZONE T = "ANOD, 4.0000E-08", I = 10, SOLUTIONTIME = 4.000000E-08
ZONETYPE = ORDERED
DATAPACKING = BLOCK
STRANDID = 1
 0.0000000000000E+00  8.7488888888889E-05  1.7497777777778E-04  2.6246666666667E-04  3.4995555555556E-04  4.3744444444444E-04  5.2493333333333E-04  6.1242222222222E-04  6.9991111111111E-04  7.8740000000000E-04 
 5.7645822287022E-10  1.7293757456123E-09  2.8822974824375E-09  4.0352265704393E-09  5.1881661467324E-09  6.3422089716431E-09  7.4962685591709E-09  8.6492584233627E-09  9.8022713246876E-09  1.0378790862609E-08 
 9.1999999999861E-01  9.1999999999861E-01  9.1999999999861E-01  9.1999999999861E-01  9.1999999999861E-01  9.1999999999861E-01  9.1999999999861E-01  9.1999999999861E-01  9.1999999999861E-01  9.1999999999943E-01 
 4.0000000000693E-02  4.0000000000693E-02  4.0000000000693E-02  4.0000000000693E-02  4.0000000000693E-02  4.0000000000693E-02  4.0000000000693E-02  4.0000000000693E-02  4.0000000000693E-02  4.0000000000287E-02 
 4.0000000000693E-02  4.0000000000693E-02  4.0000000000693E-02  4.0000000000693E-02  4.0000000000693E-02  4.0000000000693E-02  4.0000000000693E-02  4.0000000000693E-02  4.0000000000693E-02  4.0000000000287E-02 
 3.5029481526097E-02  3.5029473703763E-02  3.5029450236747E-02  3.5029411124992E-02  3.5029356368398E-02  3.5029285966822E-02  3.5029199920080E-02  3.5029098227944E-02  3.5028980890145E-02  3.5028847906369E-02 
-2.5574711934163E-07 -2.5810326563517E-07 -2.6018222827259E-07 -2.6198400624077E-07 -2.6350859777233E-07 -2.6475600034568E-07 -2.6572621068502E-07 -2.6641922476027E-07 -2.6683503778714E-07 -2.6697364422705E-07 
-3.5029737273216E-02 -3.5029731807029E-02 -3.5029710418975E-02 -3.5029673108998E-02 -3.5029619876995E-02 -3.5029550722822E-02 -3.5029465646291E-02 -3.5029364647169E-02 -3.5029247725183E-02 -3.5029114880013E-02 
-4.0906712752396E-02 -4.0906712752397E-02 -4.0906712752396E-02 -4.0906712752396E-02 -4.0906712752399E-02 -4.0906712752396E-02 -4.0906712752396E-02 -4.0906712752399E-02 -4.0906712752399E-02 -4.0906712752660E-02 
 5.8769754791802E-03  5.8769809453680E-03  5.8770023334209E-03  5.8770396433981E-03  5.8770928754039E-03  5.8771620295739E-03  5.8772471061054E-03  5.8773481052301E-03  5.8774650272165E-03  5.8775978726468E-03 
 8.3014575505251E-01  1.6602930610732E+00  1.6602991296885E+00  1.6603097159683E+00  1.6603248199432E+00  1.6603444416537E+00  1.6603685811575E+00  1.6603972385228E+00  1.6604304138291E+00  8.3023405361009E-01 