TITLE = "Solution on Domain BulkDomain1D_0"
VARIABLES = "x [m]"  
"Vel_axial" 
"MF_sp(ECDMC)" 
"MF_sp(Li+)" 
"MF_sp(PF6-)" 
"Volt(Electroly)" 
"Volt(AnodeVolt)" 
"Potential Drop Electrode-Electrolyte [V]" 
"Surf_0 Equilibrium Potential Drop Electrode-Electrolyte [V]" 
"Overpotential_0 [V]" 
"Current Source [A/m^2]" 
"Li+ flux [kmol/m^2/s]" 
"Electrolyte Current [A/m^2]" 
"Electrode Current [A/m^2]" 
"CV Capacity discharged [A-s/m^2]" 
"Depth of discharge in CV [A-s/m^2]" 
"CV Capacity remaining [A-s/m^2]" 
"Initial CV capacity [A-s/m^2]" 
"Porosity []" 
"Surface Area [m2/m2] (area per area)" 
"Specific current (per particle area) [A/m^2]" 
"Control volume thickness [m]" 
"MoleDens Li_C6-bulk [kmol/m^3]" 
"MoleDens V_C6-bulk [kmol/m^3]" 
"qHeat_accum [J/m3]" 
"qHeat_step [W/m3]" 
"Joule_Lyte [W/m3]" 
"Joule_Solid [W/m3]" 
"electrodHeat [W/m3]" 
"OverpotHeat [W/m3]" 
"deltaSHeat [W/m3]" 

ZONE T = "ANOD, 0.0000E+00", I = 10, SOLUTIONTIME = 0.000000E+00
ZONETYPE = ORDERED
DATAPACKING = BLOCK
STRANDID = 1
 0.0000000000000E+00  8.7488888888889E-05  1.7497777777778E-04  2.6246666666667E-04  3.4995555555556E-04  4.3744444444444E-04  5.2493333333333E-04  6.1242222222222E-04  6.9991111111111E-04  7.8740000000000E-04 
 0.0000000000000E+00  0.0000000000000E+00  0.0000000000000E+00  0.0000000000000E+00  0.0000000000000E+00  0.0000000000000E+00  0.0000000000000E+00  0.0000000000000E+00  0.0000000000000E+00  0.0000000000000E+00 
 9.2000000000000E-01  9.2000000000000E-01  9.2000000000000E-01  9.2000000000000E-01  9.2000000000000E-01  9.2000000000000E-01  9.2000000000000E-01  9.2000000000000E-01  9.2000000000000E-01  9.2000000000000E-01 
 4.0000000000000E-02  4.0000000000000E-02  4.0000000000000E-02  4.0000000000000E-02  4.0000000000000E-02  4.0000000000000E-02  4.0000000000000E-02  4.0000000000000E-02  4.0000000000000E-02  4.0000000000000E-02 
 4.0000000000000E-02  4.0000000000000E-02  4.0000000000000E-02  4.0000000000000E-02  4.0000000000000E-02  4.0000000000000E-02  4.0000000000000E-02  4.0000000000000E-02  4.0000000000000E-02  4.0000000000000E-02 
-7.0000000000000E-02 -7.0000000000000E-02 -7.0000000000000E-02 -7.0000000000000E-02 -7.0000000000000E-02 -7.0000000000000E-02 -7.0000000000000E-02 -7.0000000000000E-02 -7.0000000000000E-02 -7.0000000000000E-02 
 0.0000000000000E+00  0.0000000000000E+00  0.0000000000000E+00  0.0000000000000E+00  0.0000000000000E+00  0.0000000000000E+00  0.0000000000000E+00  0.0000000000000E+00  0.0000000000000E+00  0.0000000000000E+00 
 7.0000000000000E-02  7.0000000000000E-02  7.0000000000000E-02  7.0000000000000E-02  7.0000000000000E-02  7.0000000000000E-02  7.0000000000000E-02  7.0000000000000E-02  7.0000000000000E-02  7.0000000000000E-02 
-4.0906712753392E-02 -4.0906712753392E-02 -4.0906712753392E-02 -4.0906712753392E-02 -4.0906712753392E-02 -4.0906712753392E-02 -4.0906712753392E-02 -4.0906712753392E-02 -4.0906712753392E-02 -4.0906712753392E-02 
 1.1090671275339E-01  1.1090671275339E-01  1.1090671275339E-01  1.1090671275339E-01  1.1090671275339E-01  1.1090671275339E-01  1.1090671275339E-01  1.1090671275339E-01  1.1090671275339E-01  1.1090671275339E-01 
 3.0930240924008E+01  6.1860481848016E+01  6.1860481848016E+01  6.1860481848016E+01  6.1860481848016E+01  6.1860481848016E+01  6.1860481848016E+01  6.1860481848016E+01  6.1860481848016E+01  3.0930240924008E+01 
-0.0000000000000E+00 -0.0000000000000E+00 -0.0000000000000E+00 -0.0000000000000E+00 -0.0000000000000E+00 -0.0000000000000E+00 -0.0000000000000E+00 -0.0000000000000E+00 -0.0000000000000E+00 -0.0000000000000E+00 
 0.0000000000000E+00  0.0000000000000E+00  0.0000000000000E+00  0.0000000000000E+00  0.0000000000000E+00  0.0000000000000E+00  0.0000000000000E+00  0.0000000000000E+00  0.0000000000000E+00  3.0930240924008E+01 
 3.0930240924008E+01 -0.0000000000000E+00 -0.0000000000000E+00 -0.0000000000000E+00 -0.0000000000000E+00 -0.0000000000000E+00 -0.0000000000000E+00 -0.0000000000000E+00 -0.0000000000000E+00  0.0000000000000E+00 
 0.0000000000000E+00  0.0000000000000E+00  0.0000000000000E+00  0.0000000000000E+00  0.0000000000000E+00  0.0000000000000E+00  0.0000000000000E+00  0.0000000000000E+00  0.0000000000000E+00  0.0000000000000E+00 
 9.1448444543281E+04  1.8289688908656E+05  1.8289688908656E+05  1.8289688908656E+05  1.8289688908656E+05  1.8289688908656E+05  1.8289688908656E+05  1.8289688908656E+05  1.8289688908656E+05  9.1448444543281E+04 
 3.6579377817312E+05  7.3158755634625E+05  7.3158755634625E+05  7.3158755634625E+05  7.3158755634625E+05  7.3158755634625E+05  7.3158755634625E+05  7.3158755634625E+05  7.3158755634625E+05  3.6579377817312E+05 
 4.5724222271640E+05  9.1448444543281E+05  9.1448444543281E+05  9.1448444543281E+05  9.1448444543281E+05  9.1448444543281E+05  9.1448444543281E+05  9.1448444543281E+05  9.1448444543281E+05  4.5724222271640E+05 
 3.5000000000000E-01  3.5000000000000E-01  3.5000000000000E-01  3.5000000000000E-01  3.5000000000000E-01  3.5000000000000E-01  3.5000000000000E-01  3.5000000000000E-01  3.5000000000000E-01  3.5000000000000E-01 
 8.5301666666666E+00  1.7060333333333E+01  1.7060333333333E+01  1.7060333333333E+01  1.7060333333333E+01  1.7060333333333E+01  1.7060333333333E+01  1.7060333333333E+01  1.7060333333333E+01  8.5301666666666E+00 
 3.6259831879809E+00  3.6259831879809E+00  3.6259831879809E+00  3.6259831879809E+00  3.6259831879809E+00  3.6259831879809E+00  3.6259831879809E+00  3.6259831879809E+00  3.6259831879809E+00  3.6259831879809E+00 
 4.3744444444444E-05  8.7488888888889E-05  8.7488888888889E-05  8.7488888888889E-05  8.7488888888889E-05  8.7488888888889E-05  8.7488888888889E-05  8.7488888888889E-05  8.7488888888889E-05  4.3744444444444E-05 
 8.6666666666666E+01  8.6666666666666E+01  8.6666666666666E+01  8.6666666666666E+01  8.6666666666666E+01  8.6666666666666E+01  8.6666666666666E+01  8.6666666666666E+01  8.6666666666666E+01  8.6666666666666E+01 
 2.1666666666667E+01  2.1666666666667E+01  2.1666666666667E+01  2.1666666666667E+01  2.1666666666667E+01  2.1666666666667E+01  2.1666666666667E+01  2.1666666666667E+01  2.1666666666667E+01  2.1666666666667E+01 
 0.0000000000000E+00  0.0000000000000E+00  0.0000000000000E+00  0.0000000000000E+00  0.0000000000000E+00  0.0000000000000E+00  0.0000000000000E+00  0.0000000000000E+00  0.0000000000000E+00  0.0000000000000E+00 
 0.0000000000000E+00  0.0000000000000E+00  0.0000000000000E+00  0.0000000000000E+00  0.0000000000000E+00  0.0000000000000E+00  0.0000000000000E+00  0.0000000000000E+00  0.0000000000000E+00  0.0000000000000E+00 
 0.0000000000000E+00  0.0000000000000E+00  0.0000000000000E+00  0.0000000000000E+00  0.0000000000000E+00  0.0000000000000E+00  0.0000000000000E+00  0.0000000000000E+00  0.0000000000000E+00  0.0000000000000E+00 
 0.0000000000000E+00  0.0000000000000E+00  0.0000000000000E+00  0.0000000000000E+00  0.0000000000000E+00  0.0000000000000E+00  0.0000000000000E+00  0.0000000000000E+00  0.0000000000000E+00  0.0000000000000E+00 
 0.0000000000000E+00  0.0000000000000E+00  0.0000000000000E+00  0.0000000000000E+00  0.0000000000000E+00  0.0000000000000E+00  0.0000000000000E+00  0.0000000000000E+00  0.0000000000000E+00  0.0000000000000E+00 
 0.0000000000000E+00  0.0000000000000E+00  0.0000000000000E+00  0.0000000000000E+00  0.0000000000000E+00  0.0000000000000E+00  0.0000000000000E+00  0.0000000000000E+00  0.0000000000000E+00  0.0000000000000E+00 
 0.0000000000000E+00  0.0000000000000E+00  0.0000000000000E+00  0.0000000000000E+00  0.0000000000000E+00  0.0000000000000E+00  0.0000000000000E+00  0.0000000000000E+00  0.0000000000000E+00  0.0000000000000E+00 
ZONE T = "ANOD, 1.0000E-08", I = 10, SOLUTIONTIME = 1.000000E-08
ZONETYPE = ORDERED
DATAPACKING = BLOCK
STRANDID = 1
 0.0000000000000E+00  8.7488888888889E-05  1.7497777777778E-04  2.6246666666667E-04  3.4995555555556E-04  4.3744444444444E-04  5.2493333333333E-04  6.1242222222222E-04  6.9991111111111E-04  7.8740000000000E-04 
 5.7663565039298E-10  1.7299080267869E-09  2.8831846185889E-09  4.0364685611092E-09  5.1897629908924E-09  6.3423446289924E-09  7.4949430296411E-09  8.6471981205780E-09  9.7994762462589E-09  1.0375991604186E-08 
 9.1999999999965E-01  9.1999999999965E-01  9.1999999999965E-01  9.1999999999965E-01  9.1999999999965E-01  9.1999999999965E-01  9.1999999999965E-01  9.1999999999965E-01  9.1999999999965E-01  9.1999999999986E-01 
 4.0000000000173E-02  4.0000000000173E-02  4.0000000000173E-02  4.0000000000173E-02  4.0000000000173E-02  4.0000000000173E-02  4.0000000000173E-02  4.0000000000173E-02  4.0000000000173E-02  4.0000000000072E-02 
 4.0000000000173E-02  4.0000000000173E-02  4.0000000000173E-02  4.0000000000173E-02  4.0000000000173E-02  4.0000000000173E-02  4.0000000000173E-02  4.0000000000173E-02  4.0000000000173E-02  4.0000000000072E-02 
 3.5029063974108E-02  3.5029056151831E-02  3.5029032684985E-02  3.5028993573513E-02  3.5028938817316E-02  3.5028868416250E-02  3.5028782370132E-02  3.5028680678733E-02  3.5028563341784E-02  3.5028430358972E-02 
-2.5574526591405E-07 -2.5810139513201E-07 -2.6018034270236E-07 -2.6198210761161E-07 -2.6350668809252E-07 -2.6475408162375E-07 -2.6572428492987E-07 -2.6641729398085E-07 -2.6683310399282E-07 -2.6697170942779E-07 
-3.5029319719374E-02 -3.5029314253226E-02 -3.5029292865328E-02 -3.5029255555621E-02 -3.5029202324004E-02 -3.5029133170332E-02 -3.5029048094417E-02 -3.5028947096027E-02 -3.5028830174888E-02 -3.5028697330681E-02 
-4.0906712753147E-02 -4.0906712753145E-02 -4.0906712753147E-02 -4.0906712753147E-02 -4.0906712753142E-02 -4.0906712753145E-02 -4.0906712753145E-02 -4.0906712753142E-02 -4.0906712753142E-02 -4.0906712753207E-02 
 5.8773930337730E-03  5.8773984999188E-03  5.8774198878192E-03  5.8774571975261E-03  5.8775104291379E-03  5.8775795828130E-03  5.8776646587282E-03  5.8777656571148E-03  5.8778825782539E-03  5.8780154225257E-03 
 8.3020499323699E-01  1.6604115374322E+00  1.6604176060093E+00  1.6604281922222E+00  1.6604432961008E+00  1.6604629176877E+00  1.6604870570388E+00  1.6605157142227E+00  1.6605488893193E+00  8.3029329121148E-01 
 4.3018958703401E-09  1.2905695637615E-08  2.1509526857850E-08  3.0113412941801E-08  3.8717377282704E-08  4.7321443296864E-08  5.5925634405791E-08  6.4529974003589E-08  7.3134521375598E-08  7.3134521375598E-08 
 0.0000000000000E+00  1.6602802563039E+00  3.3205643215883E+00  4.9808567158189E+00  6.6411619538069E+00  8.3014845522040E+00  9.9618290306079E+00  1.1622199906039E+01  1.3282601694771E+01  1.4943104173392E+01 
 1.4943104168315E+01  1.3282758659812E+01  1.1622474594017E+01  9.9621822001476E+00  8.3018769622209E+00  6.6415543633843E+00  4.9812098851856E+00  3.3208390099232E+00  1.6604372213622E+00  0.0000000000000E+00 
 8.3020499323699E-09  1.6604115374322E-08  1.6604176060093E-08  1.6604281922222E-08  1.6604432961008E-08  1.6604629176877E-08  1.6604870570388E-08  1.6605157142227E-08  1.6605488893193E-08  8.3029329121148E-09 
 9.1448444543289E+04  1.8289688908658E+05  1.8289688908658E+05  1.8289688908658E+05  1.8289688908658E+05  1.8289688908658E+05  1.8289688908658E+05  1.8289688908658E+05  1.8289688908658E+05  9.1448444543289E+04 
 3.6579377817312E+05  7.3158755634623E+05  7.3158755634623E+05  7.3158755634623E+05  7.3158755634623E+05  7.3158755634623E+05  7.3158755634623E+05  7.3158755634623E+05  7.3158755634623E+05  3.6579377817312E+05 
 4.5724222271640E+05  9.1448444543281E+05  9.1448444543281E+05  9.1448444543281E+05  9.1448444543281E+05  9.1448444543281E+05  9.1448444543281E+05  9.1448444543281E+05  9.1448444543281E+05  4.5724222271640E+05 
 3.5000000000000E-01  3.5000000000000E-01  3.5000000000000E-01  3.5000000000000E-01  3.5000000000000E-01  3.5000000000000E-01  3.5000000000000E-01  3.5000000000000E-01  3.5000000000000E-01  3.5000000000000E-01 
 8.5301666666666E+00  1.7060333333333E+01  1.7060333333333E+01  1.7060333333333E+01  1.7060333333333E+01  1.7060333333333E+01  1.7060333333333E+01  1.7060333333333E+01  1.7060333333333E+01  8.5301666666666E+00 
 9.7325764627927E-02  9.7325855538124E-02  9.7326211250814E-02  9.7326831766998E-02  9.7327717088421E-02  9.7328867217580E-02  9.7330282157760E-02  9.7331961912977E-02  9.7333906487913E-02  9.7336115888101E-02 
 4.3744444444444E-05  8.7488888888889E-05  8.7488888888889E-05  8.7488888888889E-05  8.7488888888889E-05  8.7488888888889E-05  8.7488888888889E-05  8.7488888888889E-05  8.7488888888889E-05  4.3744444444444E-05 
 8.6666666666664E+01  8.6666666666664E+01  8.6666666666664E+01  8.6666666666664E+01  8.6666666666664E+01  8.6666666666664E+01  8.6666666666664E+01  8.6666666666664E+01  8.6666666666664E+01  8.6666666666664E+01 
 2.1666666666669E+01  2.1666666666669E+01  2.1666666666669E+01  2.1666666666669E+01  2.1666666666669E+01  2.1666666666669E+01  2.1666666666669E+01  2.1666666666669E+01  2.1666666666669E+01  2.1666666666669E+01 
 4.5429079831343E-12  7.0909608823074E-12  1.5208571125160E-11  2.9369250880168E-11  4.9573154246135E-11  7.5820501095841E-11  1.0811157711923E-10  1.4644673374370E-10  1.9082638815281E-10  2.1452739606578E-10 
 4.5429079831343E-04  7.0909608823074E-04  1.5208571125160E-03  2.9369250880168E-03  4.9573154246135E-03  7.5820501095841E-03  1.0811157711923E-02  1.4644673374370E-02  1.9082638815281E-02  2.1452739606578E-02 
 7.4221803051676E-05  3.7110943024682E-04  1.2617751640827E-03  2.7462279401058E-03  4.8244831529662E-03  7.4965626602729E-03  1.0762494786889E-02  1.4622314316893E-02  1.9076062495445E-02  2.1451424306781E-02 
 3.8006899526175E-04  3.3798665798392E-04  2.5908194843333E-04  1.9069714791097E-04  1.3283227164732E-04  8.5487449311238E-05  4.8662925034272E-05  2.2359057476703E-05  6.5763198354760E-06  1.3152997969027E-06 
 0.0000000000000E+00  0.0000000000000E+00  0.0000000000000E+00  0.0000000000000E+00  0.0000000000000E+00  0.0000000000000E+00  0.0000000000000E+00  0.0000000000000E+00  0.0000000000000E+00  0.0000000000000E+00 
 0.0000000000000E+00  0.0000000000000E+00  0.0000000000000E+00  0.0000000000000E+00  0.0000000000000E+00  0.0000000000000E+00  0.0000000000000E+00  0.0000000000000E+00  0.0000000000000E+00  0.0000000000000E+00 
 0.0000000000000E+00  0.0000000000000E+00  0.0000000000000E+00  0.0000000000000E+00  0.0000000000000E+00  0.0000000000000E+00  0.0000000000000E+00  0.0000000000000E+00  0.0000000000000E+00  0.0000000000000E+00 
ZONE T = "ANOD, 2.0000E-08", I = 10, SOLUTIONTIME = 2.000000E-08
ZONETYPE = ORDERED
DATAPACKING = BLOCK
STRANDID = 1
 0.0000000000000E+00  8.7488888888889E-05  1.7497777777778E-04  2.6246666666667E-04  3.4995555555556E-04  4.3744444444444E-04  5.2493333333333E-04  6.1242222222222E-04  6.9991111111111E-04  7.8740000000000E-04 
 5.7645822286891E-10  1.7282861224250E-09  2.8812078592475E-09  4.0341369472467E-09  5.1859869003524E-09  6.3389401020772E-09  7.4908204432360E-09  8.6438103074240E-09  9.7968232087448E-09  1.0373342746653E-08 
 9.1999999999931E-01  9.1999999999931E-01  9.1999999999931E-01  9.1999999999931E-01  9.1999999999931E-01  9.1999999999931E-01  9.1999999999931E-01  9.1999999999931E-01  9.1999999999931E-01  9.1999999999971E-01 
 4.0000000000346E-02  4.0000000000346E-02  4.0000000000346E-02  4.0000000000346E-02  4.0000000000346E-02  4.0000000000346E-02  4.0000000000346E-02  4.0000000000346E-02  4.0000000000346E-02  4.0000000000143E-02 
 4.0000000000346E-02  4.0000000000346E-02  4.0000000000346E-02  4.0000000000346E-02  4.0000000000346E-02  4.0000000000346E-02  4.0000000000346E-02  4.0000000000346E-02  4.0000000000346E-02  4.0000000000143E-02 
 3.5029481526569E-02  3.5029473704235E-02  3.5029450237219E-02  3.5029411125464E-02  3.5029356368870E-02  3.5029285967294E-02  3.5029199920552E-02  3.5029098228417E-02  3.5028980890617E-02  3.5028847906841E-02 
-2.5574711934066E-07 -2.5810326563418E-07 -2.6018222827160E-07 -2.6198400623976E-07 -2.6350859777132E-07 -2.6475600034467E-07 -2.6572621068399E-07 -2.6641922475924E-07 -2.6683503778611E-07 -2.6697364422601E-07 
-3.5029737273688E-02 -3.5029731807501E-02 -3.5029710419448E-02 -3.5029673109470E-02 -3.5029619877468E-02 -3.5029550723295E-02 -3.5029465646763E-02 -3.5029364647641E-02 -3.5029247725655E-02 -3.5029114880486E-02 
-4.0906712752895E-02 -4.0906712752900E-02 -4.0906712752895E-02 -4.0906712752895E-02 -4.0906712752896E-02 -4.0906712752900E-02 -4.0906712752900E-02 -4.0906712752896E-02 -4.0906712752896E-02 -4.0906712753026E-02 
 5.8769754792064E-03  5.8769809453989E-03  5.8770023334472E-03  5.8770396434244E-03  5.8770928754283E-03  5.8771620296051E-03  5.8772471061367E-03  5.8773481052545E-03  5.8774650272409E-03  5.8775978725407E-03 
 8.3014575505067E-01  1.6602930610694E+00  1.6602991296847E+00  1.6603097159645E+00  1.6603248199375E+00  1.6603444416501E+00  1.6603685811538E+00  1.6603972385170E+00  1.6604304138233E+00  8.3023405359081E-01 
 4.3019270362464E-09  1.2905789146782E-08  2.1509682706462E-08  3.0113631120664E-08  3.8717657806381E-08  4.7321786180635E-08  5.5926039654166E-08  6.4530441612729E-08  7.3135087247698E-08  7.3135087247698E-08 
 0.0000000000000E+00  1.6602922856203E+00  3.3205883809575E+00  4.9808928037681E+00  6.6412100714407E+00  8.3015447024680E+00  9.9619012142384E+00  1.1622284123772E+01  1.3282697949912E+01  1.4943147210900E+01 
 1.4943147210442E+01  1.3282854924856E+01  1.1622558829479E+01  9.9622544066545E+00  8.3019371387036E+00  6.6416025079099E+00  4.9812459965081E+00  3.3208630866727E+00  1.6604492605024E+00  0.0000000000000E+00 
 1.6603507482877E-08  3.3207045985016E-08  3.3207167356940E-08  3.3207379081868E-08  3.3207681160383E-08  3.3208073593377E-08  3.3208556381926E-08  3.3209129527397E-08  3.3209793031426E-08  1.6605273448023E-08 
 9.1448444543297E+04  1.8289688908659E+05  1.8289688908659E+05  1.8289688908659E+05  1.8289688908659E+05  1.8289688908659E+05  1.8289688908659E+05  1.8289688908659E+05  1.8289688908659E+05  9.1448444543297E+04 
 3.6579377817311E+05  7.3158755634621E+05  7.3158755634621E+05  7.3158755634621E+05  7.3158755634621E+05  7.3158755634621E+05  7.3158755634621E+05  7.3158755634621E+05  7.3158755634621E+05  3.6579377817311E+05 
 4.5724222271640E+05  9.1448444543281E+05  9.1448444543281E+05  9.1448444543281E+05  9.1448444543281E+05  9.1448444543281E+05  9.1448444543281E+05  9.1448444543281E+05  9.1448444543281E+05  4.5724222271640E+05 
 3.5000000000000E-01  3.5000000000000E-01  3.5000000000000E-01  3.5000000000000E-01  3.5000000000000E-01  3.5000000000000E-01  3.5000000000000E-01  3.5000000000000E-01  3.5000000000000E-01  3.5000000000000E-01 
 8.5301666666666E+00  1.7060333333333E+01  1.7060333333333E+01  1.7060333333333E+01  1.7060333333333E+01  1.7060333333333E+01  1.7060333333333E+01  1.7060333333333E+01  1.7060333333333E+01  8.5301666666666E+00 
 9.7318820075888E-02  9.7318910986657E-02  9.7319266701592E-02  9.7319887221697E-02  9.7320772548652E-02  9.7321922685180E-02  9.7323337634306E-02  9.7325017400032E-02  9.7326961987261E-02  9.7329171402374E-02 
 4.3744444444444E-05  8.7488888888889E-05  8.7488888888889E-05  8.7488888888889E-05  8.7488888888889E-05  8.7488888888889E-05  8.7488888888889E-05  8.7488888888889E-05  8.7488888888889E-05  4.3744444444444E-05 
 8.6666666666662E+01  8.6666666666662E+01  8.6666666666662E+01  8.6666666666662E+01  8.6666666666662E+01  8.6666666666662E+01  8.6666666666662E+01  8.6666666666662E+01  8.6666666666662E+01  8.6666666666662E+01 
 2.1666666666671E+01  2.1666666666671E+01  2.1666666666671E+01  2.1666666666671E+01  2.1666666666671E+01  2.1666666666671E+01  2.1666666666671E+01  2.1666666666671E+01  2.1666666666671E+01  2.1666666666671E+01 
 9.0858818102107E-12  1.4182024532572E-11  3.0417362651106E-11  5.8738927350191E-11  9.9147026856179E-11  1.5164210095242E-10  2.1622472100684E-10  2.9289558988760E-10  3.8165554204846E-10  4.2905790148983E-10 
 4.5429738270764E-04  7.0910636502642E-04  1.5208791525946E-03  2.9369676470023E-03  4.9573872610044E-03  7.5821599856579E-03  1.0811314388761E-02  1.4644885614390E-02  1.9082915389566E-02  2.1453050542406E-02 
 1.4844468153498E-04  7.4222423824735E-04  2.5235686127743E-03  5.4924956748253E-03  9.6490362166428E-03  1.4993233957225E-02  2.1525145545054E-02  2.9244840549593E-02  3.8152401469810E-02  4.2903159530317E-02 
 7.6014349948609E-04  6.7597821500980E-04  5.1816765233626E-04  3.8139706019380E-04  2.6566646897509E-04  1.7097613801731E-04  9.7326555630096E-05  4.4718439166351E-05  1.3152735036135E-05  2.6306186667452E-06 
 0.0000000000000E+00  0.0000000000000E+00  0.0000000000000E+00  0.0000000000000E+00  0.0000000000000E+00  0.0000000000000E+00  0.0000000000000E+00  0.0000000000000E+00  0.0000000000000E+00  0.0000000000000E+00 
 0.0000000000000E+00  0.0000000000000E+00  0.0000000000000E+00  0.0000000000000E+00  0.0000000000000E+00  0.0000000000000E+00  0.0000000000000E+00  0.0000000000000E+00  0.0000000000000E+00  0.0000000000000E+00 
 0.0000000000000E+00  0.0000000000000E+00  0.0000000000000E+00  0.0000000000000E+00  0.0000000000000E+00  0.0000000000000E+00  0.0000000000000E+00  0.0000000000000E+00  0.0000000000000E+00  0.0000000000000E+00 
ZONE T = "ANOD, 3.0000E-08", I = 10, SOLUTIONTIME = 3.000000E-08
ZONETYPE = ORDERED
DATAPACKING = BLOCK
STRANDID = 1
 0.0000000000000E+00  8.7488888888889E-05  1.7497777777778E-04  2.6246666666667E-04  3.4995555555556E-04  4.3744444444444E-04  5.2493333333333E-04  6.1242222222222E-04  6.9991111111111E-04  7.8740000000000E-04 
 5.7663982672902E-10  1.7291941417334E-09  2.8824790862762E-09  4.0357713819956E-09  5.1894373737339E-09  6.3423905754514E-09  7.4942709166024E-09  8.6461711576006E-09  9.7988208511874E-09  1.0375340389098E-08 
 9.1999999999896E-01  9.1999999999896E-01  9.1999999999896E-01  9.1999999999896E-01  9.1999999999896E-01  9.1999999999896E-01  9.1999999999896E-01  9.1999999999896E-01  9.1999999999896E-01  9.1999999999957E-01 
 4.0000000000520E-02  4.0000000000520E-02  4.0000000000520E-02  4.0000000000520E-02  4.0000000000520E-02  4.0000000000520E-02  4.0000000000520E-02  4.0000000000520E-02  4.0000000000520E-02  4.0000000000215E-02 
 4.0000000000520E-02  4.0000000000520E-02  4.0000000000520E-02  4.0000000000520E-02  4.0000000000520E-02  4.0000000000520E-02  4.0000000000520E-02  4.0000000000520E-02  4.0000000000520E-02  4.0000000000215E-02 
 3.5029481526376E-02  3.5029473704042E-02  3.5029450237026E-02  3.5029411125271E-02  3.5029356368677E-02  3.5029285967101E-02  3.5029199920359E-02  3.5029098228224E-02  3.5028980890424E-02  3.5028847906648E-02 
-2.5574711933924E-07 -2.5810326563275E-07 -2.6018222827015E-07 -2.6198400623831E-07 -2.6350859776986E-07 -2.6475600034320E-07 -2.6572621068252E-07 -2.6641922475777E-07 -2.6683503778463E-07 -2.6697364422454E-07 
-3.5029737273495E-02 -3.5029731807308E-02 -3.5029710419255E-02 -3.5029673109277E-02 -3.5029619877275E-02 -3.5029550723102E-02 -3.5029465646570E-02 -3.5029364647448E-02 -3.5029247725462E-02 -3.5029114880293E-02 
-4.0906712752646E-02 -4.0906712752646E-02 -4.0906712752646E-02 -4.0906712752646E-02 -4.0906712752648E-02 -4.0906712752644E-02 -4.0906712752644E-02 -4.0906712752648E-02 -4.0906712752648E-02 -4.0906712752843E-02 
 5.8769754791507E-03  5.8769809453382E-03  5.8770023333914E-03  5.8770396433687E-03  5.8770928753730E-03  5.8771620295427E-03  5.8772471060742E-03  5.8773481051993E-03  5.8774650271857E-03  5.8775978725507E-03 
 8.3014575504519E-01  1.6602930610588E+00  1.6602991296739E+00  1.6603097159537E+00  1.6603248199283E+00  1.6603444416395E+00  1.6603685811433E+00  1.6603972385078E+00  1.6604304138141E+00  8.3023405359441E-01 
 4.3019270347040E-09  1.2905789144583E-08  2.1509682706555E-08  3.0113631118540E-08  3.8717657812620E-08  4.7321786172514E-08  5.5926039649024E-08  6.4530441618393E-08  7.3135123115661E-08  7.3135123115661E-08 
 0.0000000000000E+00  1.6602922852592E+00  3.3205883809718E+00  4.9808928037897E+00  6.6412100718376E+00  8.3015447025039E+00  9.9619012135452E+00  1.1622284123822E+01  1.3282697949961E+01  1.4943147210211E+01 
 1.4943147210359E+01  1.3282854924784E+01  1.1622558829418E+01  9.9622544066042E+00  8.3019371386632E+00  6.6416025078793E+00  4.9812459964881E+00  3.3208630866626E+00  1.6604492605014E+00  0.0000000000000E+00 
 2.4904965033329E-08  4.9809976595604E-08  4.9810158653679E-08  4.9810476241405E-08  4.9810929359666E-08  4.9811518009772E-08  4.9812242193359E-08  4.9813101912475E-08  4.9814097169567E-08  2.4907613983967E-08 
 9.1448444543306E+04  1.8289688908661E+05  1.8289688908661E+05  1.8289688908661E+05  1.8289688908661E+05  1.8289688908661E+05  1.8289688908661E+05  1.8289688908661E+05  1.8289688908661E+05  9.1448444543306E+04 
 3.6579377817310E+05  7.3158755634620E+05  7.3158755634620E+05  7.3158755634620E+05  7.3158755634620E+05  7.3158755634620E+05  7.3158755634620E+05  7.3158755634620E+05  7.3158755634620E+05  3.6579377817310E+05 
 4.5724222271640E+05  9.1448444543281E+05  9.1448444543281E+05  9.1448444543281E+05  9.1448444543281E+05  9.1448444543281E+05  9.1448444543281E+05  9.1448444543281E+05  9.1448444543281E+05  4.5724222271640E+05 
 3.5000000000000E-01  3.5000000000000E-01  3.5000000000000E-01  3.5000000000000E-01  3.5000000000000E-01  3.5000000000000E-01  3.5000000000000E-01  3.5000000000000E-01  3.5000000000000E-01  3.5000000000000E-01 
 8.5301666666666E+00  1.7060333333333E+01  1.7060333333333E+01  1.7060333333333E+01  1.7060333333333E+01  1.7060333333333E+01  1.7060333333333E+01  1.7060333333333E+01  1.7060333333333E+01  8.5301666666666E+00 
 9.7318820075246E-02  9.7318910986036E-02  9.7319266700955E-02  9.7319887221060E-02  9.7320772548112E-02  9.7321922684558E-02  9.7323337633690E-02  9.7325017399491E-02  9.7326961986721E-02  9.7329171402795E-02 
 4.3744444444444E-05  8.7488888888889E-05  8.7488888888889E-05  8.7488888888889E-05  8.7488888888889E-05  8.7488888888889E-05  8.7488888888889E-05  8.7488888888889E-05  8.7488888888889E-05  4.3744444444444E-05 
 8.6666666666660E+01  8.6666666666660E+01  8.6666666666660E+01  8.6666666666660E+01  8.6666666666660E+01  8.6666666666660E+01  8.6666666666660E+01  8.6666666666660E+01  8.6666666666660E+01  8.6666666666660E+01 
 2.1666666666672E+01  2.1666666666672E+01  2.1666666666672E+01  2.1666666666672E+01  2.1666666666672E+01  2.1666666666672E+01  2.1666666666672E+01  2.1666666666672E+01  2.1666666666672E+01  2.1666666666672E+01 
 1.3628855635932E-11  2.1273088182157E-11  4.5626154177079E-11  8.8108603820314E-11  1.4872089947234E-10  2.2746370080800E-10  3.2433786487911E-10  4.3934444603344E-10  5.7248469594349E-10  6.4358840689216E-10 
 4.5429738257210E-04  7.0910636495850E-04  1.5208791525973E-03  2.9369676470123E-03  4.9573872616166E-03  7.5821599855579E-03  1.0811314387227E-02  1.4644885614585E-02  1.9082915389503E-02  2.1453050540233E-02 
 2.2266755988693E-04  1.1133390461837E-03  3.7853620614714E-03  8.2387634095567E-03  1.4473589280933E-02  2.2489905254077E-02  3.2287796301686E-02  4.3867366782488E-02  5.7228740444112E-02  6.4354894751679E-02 
 1.1402180037062E-03  1.0139697720320E-03  7.7725335623646E-04  5.7209697247470E-04  3.9850066630156E-04  2.5646482672258E-04  1.4599018622552E-04  6.7077820855856E-05  1.9729150236775E-05  3.9459375365988E-06 
 0.0000000000000E+00  0.0000000000000E+00  0.0000000000000E+00  0.0000000000000E+00  0.0000000000000E+00  0.0000000000000E+00  0.0000000000000E+00  0.0000000000000E+00  0.0000000000000E+00  0.0000000000000E+00 
 0.0000000000000E+00  0.0000000000000E+00  0.0000000000000E+00  0.0000000000000E+00  0.0000000000000E+00  0.0000000000000E+00  0.0000000000000E+00  0.0000000000000E+00  0.0000000000000E+00  0.0000000000000E+00 
 0.0000000000000E+00  0.0000000000000E+00  0.0000000000000E+00  0.0000000000000E+00  0.0000000000000E+00  0.0000000000000E+00  0.0000000000000E+00  0.0000000000000E+00  0.0000000000000E+00  0.0000000000000E+00 
ZONE T = "ANOD, 4.0000E-08", I = 10, SOLUTIONTIME = 4.000000E-08
ZONETYPE = ORDERED
DATAPACKING = BLOCK
STRANDID = 1
 0.0000000000000E+00  8.7488888888889E-05  1.7497777777778E-04  2.6246666666667E-04  3.4995555555556E-04  4.3744444444444E-04  5.2493333333333E-04  6.1242222222222E-04  6.9991111111111E-04  7.8740000000000E-04 
 5.7645822286161E-10  1.7293757455865E-09  2.8822974823945E-09  4.0352265703791E-09  5.1881661466550E-09  6.3414825560932E-09  7.4944525204208E-09  8.6481688000510E-09  9.8011817013585E-09  1.0376974823816E-08 
 9.1999999999861E-01  9.1999999999861E-01  9.1999999999861E-01  9.1999999999861E-01  9.1999999999861E-01  9.1999999999861E-01  9.1999999999861E-01  9.1999999999861E-01  9.1999999999861E-01  9.1999999999943E-01 
 4.0000000000693E-02  4.0000000000693E-02  4.0000000000693E-02  4.0000000000693E-02  4.0000000000693E-02  4.0000000000693E-02  4.0000000000693E-02  4.0000000000693E-02  4.0000000000693E-02  4.0000000000287E-02 
 4.0000000000693E-02  4.0000000000693E-02  4.0000000000693E-02  4.0000000000693E-02  4.0000000000693E-02  4.0000000000693E-02  4.0000000000693E-02  4.0000000000693E-02  4.0000000000693E-02  4.0000000000287E-02 
 3.5029481526187E-02  3.5029473703853E-02  3.5029450236837E-02  3.5029411125082E-02  3.5029356368488E-02  3.5029285966912E-02  3.5029199920170E-02  3.5029098228035E-02  3.5028980890235E-02  3.5028847906460E-02 
-2.5574711933783E-07 -2.5810326563132E-07 -2.6018222826872E-07 -2.6198400623687E-07 -2.6350859776840E-07 -2.6475600034174E-07 -2.6572621068106E-07 -2.6641922475631E-07 -2.6683503778317E-07 -2.6697364422308E-07 
-3.5029737273306E-02 -3.5029731807119E-02 -3.5029710419066E-02 -3.5029673109088E-02 -3.5029619877086E-02 -3.5029550722913E-02 -3.5029465646381E-02 -3.5029364647260E-02 -3.5029247725273E-02 -3.5029114880104E-02 
-4.0906712752400E-02 -4.0906712752400E-02 -4.0906712752400E-02 -4.0906712752400E-02 -4.0906712752397E-02 -4.0906712752397E-02 -4.0906712752397E-02 -4.0906712752397E-02 -4.0906712752397E-02 -4.0906712752658E-02 
 5.8769754790932E-03  5.8769809452806E-03  5.8770023333339E-03  5.8770396433111E-03  5.8770928753114E-03  5.8771620294844E-03  5.8772471060160E-03  5.8773481051376E-03  5.8774650271240E-03  5.8775978725542E-03 
 8.3014575504011E-01  1.6602930610483E+00  1.6602991296637E+00  1.6603097159435E+00  1.6603248199183E+00  1.6603444416295E+00  1.6603685811332E+00  1.6603972384978E+00  1.6604304138042E+00  8.3023405359763E-01 