TITLE = "Solution on Domain BulkDomain1D_1"
VARIABLES = "x [m]"  
"Vel_axial" 	"MF_sp(ECDMC)" 	"MF_sp(Li+)" 	"MF_sp(PF6-)" 	"Volt(Electroly)" 	"Porosity []" 	"Control volume thickness [m]" 	"volFrac MgO(S) []" 	"qHeat_accum [J/m3]" 	"qHeat_step [W/m3]" 	"Joule_Lyte [W/m3]" 	"Joule_Solid [W/m3]" 	
ZONE T = "SEP , 0.0000E+00", I = 10, SOLUTIONTIME = 0.000000E+00
ZONETYPE = ORDERED
DATAPACKING = BLOCK
STRANDID = 2
 7.8740000000000E-04  8.4102222222222E-04  8.9464444444444E-04  9.4826666666667E-04  1.0018888888889E-03  1.0555111111111E-03  1.1091333333333E-03  1.1627555555556E-03  1.2163777777778E-03  1.2700000000000E-03 
 0.0000000000000E+00  0.0000000000000E+00  0.0000000000000E+00  0.0000000000000E+00  0.0000000000000E+00  0.0000000000000E+00  0.0000000000000E+00  0.0000000000000E+00  0.0000000000000E+00  0.0000000000000E+00 
 9.2000000000000E-01  9.2000000000000E-01  9.2000000000000E-01  9.2000000000000E-01  9.2000000000000E-01  9.2000000000000E-01  9.2000000000000E-01  9.2000000000000E-01  9.2000000000000E-01  9.2000000000000E-01 
 4.0000000000000E-02  4.0000000000000E-02  4.0000000000000E-02  4.0000000000000E-02  4.0000000000000E-02  4.0000000000000E-02  4.0000000000000E-02  4.0000000000000E-02  4.0000000000000E-02  4.0000000000000E-02 
 4.0000000000000E-02  4.0000000000000E-02  4.0000000000000E-02  4.0000000000000E-02  4.0000000000000E-02  4.0000000000000E-02  4.0000000000000E-02  4.0000000000000E-02  4.0000000000000E-02  4.0000000000000E-02 
-7.0000000000000E-02 -7.0000000000000E-02 -7.0000000000000E-02 -7.0000000000000E-02 -7.0000000000000E-02 -7.0000000000000E-02 -7.0000000000000E-02 -7.0000000000000E-02 -7.0000000000000E-02 -7.0000000000000E-02 
 8.0911499769706E-01  8.0911499769706E-01  8.0911499769706E-01  8.0911499769706E-01  8.0911499769706E-01  8.0911499769706E-01  8.0911499769706E-01  8.0911499769706E-01  8.0911499769706E-01  8.0911499769706E-01 
 2.6811111111111E-05  5.3622222222222E-05  5.3622222222222E-05  5.3622222222222E-05  5.3622222222222E-05  5.3622222222222E-05  5.3622222222222E-05  5.3622222222223E-05  5.3622222222222E-05  2.6811111111111E-05 
 1.9088500230294E-01  1.9088500230294E-01  1.9088500230294E-01  1.9088500230294E-01  1.9088500230294E-01  1.9088500230294E-01  1.9088500230294E-01  1.9088500230294E-01  1.9088500230294E-01  1.9088500230294E-01 
 0.0000000000000E+00  0.0000000000000E+00  0.0000000000000E+00  0.0000000000000E+00  0.0000000000000E+00  0.0000000000000E+00  0.0000000000000E+00  0.0000000000000E+00  0.0000000000000E+00  0.0000000000000E+00 
 0.0000000000000E+00  0.0000000000000E+00  0.0000000000000E+00  0.0000000000000E+00  0.0000000000000E+00  0.0000000000000E+00  0.0000000000000E+00  0.0000000000000E+00  0.0000000000000E+00  0.0000000000000E+00 
 0.0000000000000E+00  0.0000000000000E+00  0.0000000000000E+00  0.0000000000000E+00  0.0000000000000E+00  0.0000000000000E+00  0.0000000000000E+00  0.0000000000000E+00  0.0000000000000E+00  0.0000000000000E+00 
 0.0000000000000E+00  0.0000000000000E+00  0.0000000000000E+00  0.0000000000000E+00  0.0000000000000E+00  0.0000000000000E+00  0.0000000000000E+00  0.0000000000000E+00  0.0000000000000E+00  0.0000000000000E+00 
ZONE T = "SEP , 1.0000E-08", I = 10, SOLUTIONTIME = 1.000000E-08
ZONETYPE = ORDERED
DATAPACKING = BLOCK
STRANDID = 2
 7.8740000000000E-04  8.4102222222222E-04  8.9464444444444E-04  9.4826666666667E-04  1.0018888888889E-03  1.0555111111111E-03  1.1091333333333E-03  1.1627555555556E-03  1.2163777777778E-03  1.2700000000000E-03 
 1.0376515137897E-08  1.0376515137897E-08  1.0376515137897E-08  1.0376515137897E-08  1.0376515137897E-08  1.0376515137896E-08  1.0376515137896E-08  1.0376515137896E-08  1.0376515137896E-08  9.8003663459063E-09 
 9.1999999999986E-01  9.2000000000000E-01  9.2000000000000E-01  9.2000000000000E-01  9.2000000000000E-01  9.2000000000000E-01  9.2000000000000E-01  9.2000000000000E-01  9.2000000000000E-01  9.2000000000016E-01 
 4.0000000000072E-02  4.0000000000000E-02  4.0000000000000E-02  4.0000000000000E-02  4.0000000000000E-02  4.0000000000000E-02  4.0000000000000E-02  4.0000000000000E-02  4.0000000000000E-02  3.9999999999921E-02 
 4.0000000000072E-02  4.0000000000000E-02  4.0000000000000E-02  4.0000000000000E-02  4.0000000000000E-02  4.0000000000000E-02  4.0000000000000E-02  4.0000000000000E-02  4.0000000000000E-02  3.9999999999921E-02 
 3.5028098626805E-02  3.5028074074072E-02  3.5028049521433E-02  3.5028024968831E-02  3.5028000416061E-02  3.5027975863418E-02  3.5027951310815E-02  3.5027926758175E-02  3.5027902205442E-02  3.5027877652799E-02 
 8.0911499769706E-01  8.0911499769706E-01  8.0911499769706E-01  8.0911499769706E-01  8.0911499769706E-01  8.0911499769706E-01  8.0911499769706E-01  8.0911499769706E-01  8.0911499769706E-01  8.0911499769706E-01 
 2.6811111111111E-05  5.3622222222222E-05  5.3622222222222E-05  5.3622222222222E-05  5.3622222222222E-05  5.3622222222222E-05  5.3622222222222E-05  5.3622222222223E-05  5.3622222222222E-05  2.6811111111111E-05 
 1.9088500230294E-01  1.9088500230294E-01  1.9088500230294E-01  1.9088500230294E-01  1.9088500230294E-01  1.9088500230294E-01  1.9088500230294E-01  1.9088500230294E-01  1.9088500230294E-01  1.9088500230294E-01 
 6.8421768594372E-11  6.8421505343597E-11  6.8421138815426E-11  6.8421506717034E-11  6.8421622099224E-11  6.8421154014092E-11  6.8421143746288E-11  6.8421506697135E-11  6.8421516964906E-11  6.8421266302342E-11 
 6.8421768594372E-03  6.8421505343597E-03  6.8421138815426E-03  6.8421506717034E-03  6.8421622099224E-03  6.8421154014092E-03  6.8421143746288E-03  6.8421506697135E-03  6.8421516964906E-03  6.8421266302342E-03 
 6.8421768594372E-03  6.8421505343597E-03  6.8421138815426E-03  6.8421506717034E-03  6.8421622099224E-03  6.8421154014092E-03  6.8421143746288E-03  6.8421506697135E-03  6.8421516964906E-03  6.8421266302342E-03 
 0.0000000000000E+00  0.0000000000000E+00  0.0000000000000E+00  0.0000000000000E+00  0.0000000000000E+00  0.0000000000000E+00  0.0000000000000E+00  0.0000000000000E+00  0.0000000000000E+00  0.0000000000000E+00 
ZONE T = "SEP , 2.0000E-08", I = 10, SOLUTIONTIME = 2.000000E-08
ZONETYPE = ORDERED
DATAPACKING = BLOCK
STRANDID = 2
 7.8740000000000E-04  8.4102222222222E-04  8.9464444444444E-04  9.4826666666667E-04  1.0018888888889E-03  1.0555111111111E-03  1.1091333333333E-03  1.1627555555556E-03  1.2163777777778E-03  1.2700000000000E-03 
 1.0374795577719E-08  1.0374795577719E-08  1.0374795577719E-08  1.0374795577719E-08  1.0374795577719E-08  1.0374795577719E-08  1.0374795577719E-08  1.0374795577719E-08  1.0374795577719E-08  9.7986414446962E-09 
 9.1999999999971E-01  9.2000000000000E-01  9.2000000000000E-01  9.2000000000000E-01  9.2000000000000E-01  9.2000000000000E-01  9.2000000000000E-01  9.2000000000000E-01  9.2000000000000E-01  9.2000000000032E-01 
 4.0000000000143E-02  4.0000000000000E-02  4.0000000000000E-02  4.0000000000000E-02  4.0000000000000E-02  4.0000000000000E-02  4.0000000000000E-02  4.0000000000000E-02  4.0000000000000E-02  3.9999999999842E-02 
 4.0000000000143E-02  4.0000000000000E-02  4.0000000000000E-02  4.0000000000000E-02  4.0000000000000E-02  4.0000000000000E-02  4.0000000000000E-02  4.0000000000000E-02  4.0000000000000E-02  3.9999999999842E-02 
 3.5028847906754E-02  3.5028823353861E-02  3.5028798800969E-02  3.5028774248076E-02  3.5028749695184E-02  3.5028725142292E-02  3.5028700589399E-02  3.5028676036507E-02  3.5028651483614E-02  3.5028626930722E-02 
 8.0911499769706E-01  8.0911499769706E-01  8.0911499769706E-01  8.0911499769706E-01  8.0911499769706E-01  8.0911499769706E-01  8.0911499769706E-01  8.0911499769706E-01  8.0911499769706E-01  8.0911499769706E-01 
 2.6811111111111E-05  5.3622222222222E-05  5.3622222222222E-05  5.3622222222222E-05  5.3622222222222E-05  5.3622222222222E-05  5.3622222222222E-05  5.3622222222223E-05  5.3622222222222E-05  2.6811111111111E-05 
 1.9088500230294E-01  1.9088500230294E-01  1.9088500230294E-01  1.9088500230294E-01  1.9088500230294E-01  1.9088500230294E-01  1.9088500230294E-01  1.9088500230294E-01  1.9088500230294E-01  1.9088500230294E-01 
 1.3684442467364E-10  1.3684416140347E-10  1.3684379487524E-10  1.3684416279618E-10  1.3684427817837E-10  1.3684381009324E-10  1.3684379982544E-10  1.3684416277628E-10  1.3684417304399E-10  1.3684392238136E-10 
 6.8422656079272E-03  6.8422656059873E-03  6.8422656059812E-03  6.8422656079149E-03  6.8422656079149E-03  6.8422656079149E-03  6.8422656079149E-03  6.8422656079149E-03  6.8422656079082E-03  6.8422656079014E-03 
 6.8422656079272E-03  6.8422656059873E-03  6.8422656059812E-03  6.8422656079149E-03  6.8422656079149E-03  6.8422656079149E-03  6.8422656079149E-03  6.8422656079149E-03  6.8422656079082E-03  6.8422656079014E-03 
 0.0000000000000E+00  0.0000000000000E+00  0.0000000000000E+00  0.0000000000000E+00  0.0000000000000E+00  0.0000000000000E+00  0.0000000000000E+00  0.0000000000000E+00  0.0000000000000E+00  0.0000000000000E+00 
ZONE T = "SEP , 3.0000E-08", I = 10, SOLUTIONTIME = 3.000000E-08
ZONETYPE = ORDERED
DATAPACKING = BLOCK
STRANDID = 2
 7.8740000000000E-04  8.4102222222222E-04  8.9464444444444E-04  9.4826666666667E-04  1.0018888888889E-03  1.0555111111111E-03  1.1091333333333E-03  1.1627555555556E-03  1.2163777777778E-03  1.2700000000000E-03 
 1.0374613973797E-08  1.0373161142886E-08  1.0373161142886E-08  1.0373161142886E-08  1.0373161142886E-08  1.0373161142886E-08  1.0373161142886E-08  1.0373161142886E-08  1.0373161142886E-08  9.7964621982732E-09 
 9.1999999999957E-01  9.2000000000000E-01  9.2000000000000E-01  9.2000000000000E-01  9.2000000000000E-01  9.2000000000000E-01  9.2000000000000E-01  9.2000000000000E-01  9.2000000000000E-01  9.2000000000047E-01 
 4.0000000000215E-02  4.0000000000000E-02  4.0000000000000E-02  4.0000000000000E-02  4.0000000000000E-02  4.0000000000000E-02  4.0000000000000E-02  4.0000000000000E-02  4.0000000000000E-02  3.9999999999763E-02 
 4.0000000000215E-02  4.0000000000000E-02  4.0000000000000E-02  4.0000000000000E-02  4.0000000000000E-02  4.0000000000000E-02  4.0000000000000E-02  4.0000000000000E-02  4.0000000000000E-02  3.9999999999763E-02 
 3.5028847906561E-02  3.5028823353669E-02  3.5028798800776E-02  3.5028774247884E-02  3.5028749694991E-02  3.5028725142099E-02  3.5028700589206E-02  3.5028676036314E-02  3.5028651483421E-02  3.5028626930529E-02 
 8.0911499769706E-01  8.0911499769706E-01  8.0911499769706E-01  8.0911499769706E-01  8.0911499769706E-01  8.0911499769706E-01  8.0911499769706E-01  8.0911499769706E-01  8.0911499769706E-01  8.0911499769706E-01 
 2.6811111111111E-05  5.3622222222222E-05  5.3622222222222E-05  5.3622222222222E-05  5.3622222222222E-05  5.3622222222222E-05  5.3622222222222E-05  5.3622222222223E-05  5.3622222222222E-05  2.6811111111111E-05 
 1.9088500230294E-01  1.9088500230294E-01  1.9088500230294E-01  1.9088500230294E-01  1.9088500230294E-01  1.9088500230294E-01  1.9088500230294E-01  1.9088500230294E-01  1.9088500230294E-01  1.9088500230294E-01 
 2.0526708075298E-10  2.0526681748271E-10  2.0526645095439E-10  2.0526681887533E-10  2.0526693425752E-10  2.0526646615305E-10  2.0526645588525E-10  2.0526681885543E-10  2.0526682912304E-10  2.0526657846030E-10 
 6.8422656079333E-03  6.8422656079241E-03  6.8422656079149E-03  6.8422656079149E-03  6.8422656079149E-03  6.8422656059812E-03  6.8422656059812E-03  6.8422656079149E-03  6.8422656079048E-03  6.8422656078947E-03 
 6.8422656079333E-03  6.8422656079241E-03  6.8422656079149E-03  6.8422656079149E-03  6.8422656079149E-03  6.8422656059812E-03  6.8422656059812E-03  6.8422656079149E-03  6.8422656079048E-03  6.8422656078947E-03 
 0.0000000000000E+00  0.0000000000000E+00  0.0000000000000E+00  0.0000000000000E+00  0.0000000000000E+00  0.0000000000000E+00  0.0000000000000E+00  0.0000000000000E+00  0.0000000000000E+00  0.0000000000000E+00 
ZONE T = "SEP , 4.0000E-08", I = 10, SOLUTIONTIME = 4.000000E-08
ZONETYPE = ORDERED
DATAPACKING = BLOCK
STRANDID = 2
 7.8740000000000E-04  8.4102222222222E-04  8.9464444444444E-04  9.4826666666667E-04  1.0018888888889E-03  1.0555111111111E-03  1.1091333333333E-03  1.1627555555556E-03  1.2163777777778E-03  1.2700000000000E-03 
 1.0376974823971E-08  1.0378427654882E-08  1.0378427654882E-08  1.0378427654882E-08  1.0378427654882E-08  1.0378427654882E-08  1.0378427654882E-08  1.0378427654882E-08  1.0378427654882E-08  9.8022735218617E-09 
 9.1999999999943E-01  9.2000000000000E-01  9.2000000000000E-01  9.2000000000000E-01  9.2000000000000E-01  9.2000000000000E-01  9.2000000000000E-01  9.2000000000000E-01  9.2000000000000E-01  9.2000000000063E-01 
 4.0000000000287E-02  4.0000000000000E-02  4.0000000000000E-02  4.0000000000000E-02  4.0000000000000E-02  4.0000000000000E-02  4.0000000000000E-02  4.0000000000000E-02  4.0000000000000E-02  3.9999999999684E-02 
 4.0000000000287E-02  4.0000000000000E-02  4.0000000000000E-02  4.0000000000000E-02  4.0000000000000E-02  4.0000000000000E-02  4.0000000000000E-02  4.0000000000000E-02  4.0000000000000E-02  3.9999999999684E-02 
 3.5028847906372E-02  3.5028823353480E-02  3.5028798800587E-02  3.5028774247695E-02  3.5028749694802E-02  3.5028725141910E-02  3.5028700589017E-02  3.5028676036125E-02  3.5028651483232E-02  3.5028626930340E-02 
 8.0911499769706E-01  8.0911499769706E-01  8.0911499769706E-01  8.0911499769706E-01  8.0911499769706E-01  8.0911499769706E-01  8.0911499769706E-01  8.0911499769706E-01  8.0911499769706E-01  8.0911499769706E-01 
 2.6811111111111E-05  5.3622222222222E-05  5.3622222222222E-05  5.3622222222222E-05  5.3622222222222E-05  5.3622222222222E-05  5.3622222222222E-05  5.3622222222223E-05  5.3622222222222E-05  2.6811111111111E-05 
 1.9088500230294E-01  1.9088500230294E-01  1.9088500230294E-01  1.9088500230294E-01  1.9088500230294E-01  1.9088500230294E-01  1.9088500230294E-01  1.9088500230294E-01  1.9088500230294E-01  1.9088500230294E-01 
 2.7368973683237E-10  2.7368947356198E-10  2.7368910701420E-10  2.7368947493515E-10  2.7368959033667E-10  2.7368912223220E-10  2.7368911196440E-10  2.7368947493458E-10  2.7368948520205E-10  2.7368923453918E-10 
 6.8422656079395E-03  6.8422656079272E-03  6.8422656059812E-03  6.8422656059812E-03  6.8422656079149E-03  6.8422656079149E-03  6.8422656079149E-03  6.8422656079149E-03  6.8422656079014E-03  6.8422656078879E-03 
 6.8422656079395E-03  6.8422656079272E-03  6.8422656059812E-03  6.8422656059812E-03  6.8422656079149E-03  6.8422656079149E-03  6.8422656079149E-03  6.8422656079149E-03  6.8422656079014E-03  6.8422656078879E-03 
 0.0000000000000E+00  0.0000000000000E+00  0.0000000000000E+00  0.0000000000000E+00  0.0000000000000E+00  0.0000000000000E+00  0.0000000000000E+00  0.0000000000000E+00  0.0000000000000E+00  0.0000000000000E+00 
ZONE T = "SEP , 5.5000E-08", I = 10, SOLUTIONTIME = 5.500000E-08
ZONETYPE = ORDERED
DATAPACKING = BLOCK
STRANDID = 2
 7.8740000000000E-04  8.4102222222222E-04  8.9464444444444E-04  9.4826666666667E-04  1.0018888888889E-03  1.0555111111111E-03  1.1091333333333E-03  1.1627555555556E-03  1.2163777777778E-03  1.2700000000000E-03 
 1.0377095893152E-08  1.0377095893152E-08  1.0377095893152E-08  1.0377095893152E-08  1.0377095893152E-08  1.0377095893152E-08  1.0377095893152E-08  1.0377095893152E-08  1.0377095893152E-08  9.8013049678616E-09 
 9.1999999999921E-01  9.2000000000000E-01  9.2000000000000E-01  9.2000000000000E-01  9.2000000000000E-01  9.2000000000000E-01  9.2000000000000E-01  9.2000000000000E-01  9.2000000000000E-01  9.2000000000087E-01 
 4.0000000000394E-02  4.0000000000000E-02  4.0000000000000E-02  4.0000000000000E-02  4.0000000000000E-02  4.0000000000000E-02  4.0000000000000E-02  4.0000000000000E-02  4.0000000000000E-02  3.9999999999566E-02 
 4.0000000000394E-02  4.0000000000000E-02  4.0000000000000E-02  4.0000000000000E-02  4.0000000000000E-02  4.0000000000000E-02  4.0000000000000E-02  4.0000000000000E-02  4.0000000000000E-02  3.9999999999566E-02 
 3.5028847906158E-02  3.5028823353266E-02  3.5028798800373E-02  3.5028774247481E-02  3.5028749694588E-02  3.5028725141696E-02  3.5028700588803E-02  3.5028676035911E-02  3.5028651483018E-02  3.5028626930126E-02 
 8.0911499769706E-01  8.0911499769706E-01  8.0911499769706E-01  8.0911499769706E-01  8.0911499769706E-01  8.0911499769706E-01  8.0911499769706E-01  8.0911499769706E-01  8.0911499769706E-01  8.0911499769706E-01 
 2.6811111111111E-05  5.3622222222222E-05  5.3622222222222E-05  5.3622222222222E-05  5.3622222222222E-05  5.3622222222222E-05  5.3622222222222E-05  5.3622222222223E-05  5.3622222222222E-05  2.6811111111111E-05 
 1.9088500230294E-01  1.9088500230294E-01  1.9088500230294E-01  1.9088500230294E-01  1.9088500230294E-01  1.9088500230294E-01  1.9088500230294E-01  1.9088500230294E-01  1.9088500230294E-01  1.9088500230294E-01 
 3.7632372095160E-10  3.7632345768096E-10  3.7632309113292E-10  3.7632345905387E-10  3.7632357445539E-10  3.7632310632192E-10  3.7632309605412E-10  3.7632345905330E-10  3.7632346932050E-10  3.7632321865735E-10 
 6.8422656079486E-03  6.8422656079318E-03  6.8422656079149E-03  6.8422656079149E-03  6.8422656079149E-03  6.8422656059812E-03  6.8422656059812E-03  6.8422656079149E-03  6.8422656078963E-03  6.8422656078778E-03 
 6.8422656079486E-03  6.8422656079318E-03  6.8422656079149E-03  6.8422656079149E-03  6.8422656079149E-03  6.8422656059812E-03  6.8422656059812E-03  6.8422656079149E-03  6.8422656078963E-03  6.8422656078778E-03 
 0.0000000000000E+00  0.0000000000000E+00  0.0000000000000E+00  0.0000000000000E+00  0.0000000000000E+00  0.0000000000000E+00  0.0000000000000E+00  0.0000000000000E+00  0.0000000000000E+00  0.0000000000000E+00 
ZONE T = "SEP , 7.7500E-08", I = 10, SOLUTIONTIME = 7.750000E-08
ZONETYPE = ORDERED
DATAPACKING = BLOCK
STRANDID = 2
 7.8740000000000E-04  8.4102222222222E-04  8.9464444444444E-04  9.4826666666667E-04  1.0018888888889E-03  1.0555111111111E-03  1.1091333333333E-03  1.1627555555556E-03  1.2163777777778E-03  1.2700000000000E-03 
 1.0375239498002E-08  1.0375239498002E-08  1.0375239498002E-08  1.0375239498002E-08  1.0375239498002E-08  1.0375239498002E-08  1.0375239498002E-08  1.0375239498002E-08  1.0375239498002E-08  9.7990853649864E-09 
 9.1999999999889E-01  9.2000000000000E-01  9.2000000000000E-01  9.2000000000000E-01  9.2000000000000E-01  9.2000000000000E-01  9.2000000000000E-01  9.2000000000000E-01  9.2000000000000E-01  9.2000000000122E-01 
 4.0000000000555E-02  4.0000000000000E-02  4.0000000000000E-02  4.0000000000000E-02  4.0000000000000E-02  4.0000000000000E-02  4.0000000000000E-02  4.0000000000000E-02  4.0000000000000E-02  3.9999999999388E-02 
 4.0000000000555E-02  4.0000000000000E-02  4.0000000000000E-02  4.0000000000000E-02  4.0000000000000E-02  4.0000000000000E-02  4.0000000000000E-02  4.0000000000000E-02  4.0000000000000E-02  3.9999999999388E-02 
 3.5028847905804E-02  3.5028823352912E-02  3.5028798800019E-02  3.5028774247127E-02  3.5028749694234E-02  3.5028725141342E-02  3.5028700588449E-02  3.5028676035557E-02  3.5028651482664E-02  3.5028626929772E-02 
 8.0911499769706E-01  8.0911499769706E-01  8.0911499769706E-01  8.0911499769706E-01  8.0911499769706E-01  8.0911499769706E-01  8.0911499769706E-01  8.0911499769706E-01  8.0911499769706E-01  8.0911499769706E-01 
 2.6811111111111E-05  5.3622222222222E-05  5.3622222222222E-05  5.3622222222222E-05  5.3622222222222E-05  5.3622222222222E-05  5.3622222222222E-05  5.3622222222223E-05  5.3622222222222E-05  2.6811111111111E-05 
 1.9088500230294E-01  1.9088500230294E-01  1.9088500230294E-01  1.9088500230294E-01  1.9088500230294E-01  1.9088500230294E-01  1.9088500230294E-01  1.9088500230294E-01  1.9088500230294E-01  1.9088500230294E-01 
 5.3027469704374E-10  5.3027443381607E-10  5.3027406731101E-10  5.3027443523195E-10  5.3027455063348E-10  5.3027408250001E-10  5.3027407223220E-10  5.3027443518788E-10  5.3027444545448E-10  5.3027419483426E-10 
 6.8422656040951E-03  6.8422656060050E-03  6.8422656079149E-03  6.8422656079149E-03  6.8422656079149E-03  6.8422656079149E-03  6.8422656079149E-03  6.8422656059812E-03  6.8422656059551E-03  6.8422656078626E-03 
 6.8422656040951E-03  6.8422656060050E-03  6.8422656079149E-03  6.8422656079149E-03  6.8422656079149E-03  6.8422656079149E-03  6.8422656079149E-03  6.8422656059812E-03  6.8422656059551E-03  6.8422656078626E-03 
 0.0000000000000E+00  0.0000000000000E+00  0.0000000000000E+00  0.0000000000000E+00  0.0000000000000E+00  0.0000000000000E+00  0.0000000000000E+00  0.0000000000000E+00  0.0000000000000E+00  0.0000000000000E+00 
ZONE T = "SEP , 1.1125E-07", I = 10, SOLUTIONTIME = 1.112500E-07
ZONETYPE = ORDERED
DATAPACKING = BLOCK
STRANDID = 2
 7.8740000000000E-04  8.4102222222222E-04  8.9464444444444E-04  9.4826666666667E-04  1.0018888888889E-03  1.0555111111111E-03  1.1091333333333E-03  1.1627555555556E-03  1.2163777777778E-03  1.2700000000000E-03 
 1.0377526361328E-08  1.0377526361328E-08  1.0377526361328E-08  1.0377526361328E-08  1.0377526361328E-08  1.0377526361328E-08  1.0377526361328E-08  1.0377526361328E-08  1.0377526361328E-08  9.8016412710773E-09 
 9.1999999999841E-01  9.2000000000000E-01  9.2000000000000E-01  9.2000000000000E-01  9.2000000000000E-01  9.2000000000000E-01  9.2000000000000E-01  9.2000000000000E-01  9.2000000000000E-01  9.2000000000176E-01 
 4.0000000000797E-02  4.0000000000000E-02  4.0000000000000E-02  4.0000000000000E-02  4.0000000000000E-02  4.0000000000000E-02  4.0000000000000E-02  4.0000000000000E-02  4.0000000000000E-02  3.9999999999121E-02 
 4.0000000000797E-02  4.0000000000000E-02  4.0000000000000E-02  4.0000000000000E-02  4.0000000000000E-02  4.0000000000000E-02  4.0000000000000E-02  4.0000000000000E-02  4.0000000000000E-02  3.9999999999121E-02 
 3.5028847905272E-02  3.5028823352379E-02  3.5028798799487E-02  3.5028774246594E-02  3.5028749693702E-02  3.5028725140809E-02  3.5028700587917E-02  3.5028676035024E-02  3.5028651482132E-02  3.5028626929239E-02 
 8.0911499769706E-01  8.0911499769706E-01  8.0911499769706E-01  8.0911499769706E-01  8.0911499769706E-01  8.0911499769706E-01  8.0911499769706E-01  8.0911499769706E-01  8.0911499769706E-01  8.0911499769706E-01 
 2.6811111111111E-05  5.3622222222222E-05  5.3622222222222E-05  5.3622222222222E-05  5.3622222222222E-05  5.3622222222222E-05  5.3622222222222E-05  5.3622222222223E-05  5.3622222222222E-05  2.6811111111111E-05 
 1.9088500230294E-01  1.9088500230294E-01  1.9088500230294E-01  1.9088500230294E-01  1.9088500230294E-01  1.9088500230294E-01  1.9088500230294E-01  1.9088500230294E-01  1.9088500230294E-01  1.9088500230294E-01 
 7.6120116118265E-10  7.6120089801909E-10  7.6120053157814E-10  7.6120089949908E-10  7.6120101490061E-10  7.6120054670188E-10  7.6120053643407E-10  7.6120089945501E-10  7.6120090972034E-10  7.6120065909885E-10 
 6.8422656041157E-03  6.8422656060153E-03  6.8422656079149E-03  6.8422656079149E-03  6.8422656079149E-03  6.8422656059812E-03  6.8422656059812E-03  6.8422656079149E-03  6.8422656078773E-03  6.8422656078398E-03 
 6.8422656041157E-03  6.8422656060153E-03  6.8422656079149E-03  6.8422656079149E-03  6.8422656079149E-03  6.8422656059812E-03  6.8422656059812E-03  6.8422656079149E-03  6.8422656078773E-03  6.8422656078398E-03 
 0.0000000000000E+00  0.0000000000000E+00  0.0000000000000E+00  0.0000000000000E+00  0.0000000000000E+00  0.0000000000000E+00  0.0000000000000E+00  0.0000000000000E+00  0.0000000000000E+00  0.0000000000000E+00 
ZONE T = "SEP , 1.6188E-07", I = 10, SOLUTIONTIME = 1.618750E-07
ZONETYPE = ORDERED
DATAPACKING = BLOCK
STRANDID = 2
 7.8740000000000E-04  8.4102222222222E-04  8.9464444444444E-04  9.4826666666667E-04  1.0018888888889E-03  1.0555111111111E-03  1.1091333333333E-03  1.1627555555556E-03  1.2163777777778E-03  1.2700000000000E-03 
 1.0376001785463E-08  1.0376001785463E-08  1.0376001785463E-08  1.0376001785463E-08  1.0376001785463E-08  1.0376001785463E-08  1.0376001785463E-08  1.0376001785463E-08  1.0376001785463E-08  9.7995606735105E-09 
 9.1999999999768E-01  9.2000000000000E-01  9.2000000000000E-01  9.2000000000000E-01  9.2000000000000E-01  9.2000000000000E-01  9.2000000000000E-01  9.2000000000000E-01  9.2000000000000E-01  9.2000000000256E-01 
 4.0000000001160E-02  4.0000000000000E-02  4.0000000000000E-02  4.0000000000000E-02  4.0000000000000E-02  4.0000000000000E-02  4.0000000000000E-02  4.0000000000000E-02  4.0000000000000E-02  3.9999999998721E-02 
 4.0000000001160E-02  4.0000000000000E-02  4.0000000000000E-02  4.0000000000000E-02  4.0000000000000E-02  4.0000000000000E-02  4.0000000000000E-02  4.0000000000000E-02  4.0000000000000E-02  3.9999999998721E-02 
 3.5028847904471E-02  3.5028823351579E-02  3.5028798798686E-02  3.5028774245794E-02  3.5028749692901E-02  3.5028725140009E-02  3.5028700587116E-02  3.5028676034224E-02  3.5028651481331E-02  3.5028626928439E-02 
 8.0911499769706E-01  8.0911499769706E-01  8.0911499769706E-01  8.0911499769706E-01  8.0911499769706E-01  8.0911499769706E-01  8.0911499769706E-01  8.0911499769706E-01  8.0911499769706E-01  8.0911499769706E-01 
 2.6811111111111E-05  5.3622222222222E-05  5.3622222222222E-05  5.3622222222222E-05  5.3622222222222E-05  5.3622222222222E-05  5.3622222222222E-05  5.3622222222223E-05  5.3622222222222E-05  2.6811111111111E-05 
 1.9088500230294E-01  1.9088500230294E-01  1.9088500230294E-01  1.9088500230294E-01  1.9088500230294E-01  1.9088500230294E-01  1.9088500230294E-01  1.9088500230294E-01  1.9088500230294E-01  1.9088500230294E-01 
 1.1075908573926E-09  1.1075905943244E-09  1.1075902279788E-09  1.1075905958019E-09  1.1075907112034E-09  1.1075902431026E-09  1.1075902328348E-09  1.1075905957578E-09  1.1075906060204E-09  1.1075903554940E-09 
 6.8422656041468E-03  6.8422656060308E-03  6.8422656079149E-03  6.8422656059812E-03  6.8422656059812E-03  6.8422656079149E-03  6.8422656079149E-03  6.8422656059812E-03  6.8422656059265E-03  6.8422656078056E-03 
 6.8422656041468E-03  6.8422656060308E-03  6.8422656079149E-03  6.8422656059812E-03  6.8422656059812E-03  6.8422656079149E-03  6.8422656079149E-03  6.8422656059812E-03  6.8422656059265E-03  6.8422656078056E-03 
 0.0000000000000E+00  0.0000000000000E+00  0.0000000000000E+00  0.0000000000000E+00  0.0000000000000E+00  0.0000000000000E+00  0.0000000000000E+00  0.0000000000000E+00  0.0000000000000E+00  0.0000000000000E+00 
ZONE T = "SEP , 2.3781E-07", I = 10, SOLUTIONTIME = 2.378125E-07
ZONETYPE = ORDERED
DATAPACKING = BLOCK
STRANDID = 2
 7.8740000000000E-04  8.4102222222222E-04  8.9464444444444E-04  9.4826666666667E-04  1.0018888888889E-03  1.0555111111111E-03  1.1091333333333E-03  1.1627555555556E-03  1.2163777777778E-03  1.2700000000000E-03 
 1.0377448637319E-08  1.0377448637319E-08  1.0377448637319E-08  1.0377448637319E-08  1.0377448637319E-08  1.0377448637319E-08  1.0377448637319E-08  1.0377448637319E-08  1.0377448637319E-08  9.8013662490569E-09 
 9.1999999999659E-01  9.2000000000000E-01  9.2000000000000E-01  9.2000000000000E-01  9.2000000000000E-01  9.2000000000000E-01  9.2000000000000E-01  9.2000000000000E-01  9.2000000000000E-01  9.2000000000376E-01 
 4.0000000001704E-02  4.0000000000001E-02  4.0000000000000E-02  4.0000000000000E-02  4.0000000000000E-02  4.0000000000000E-02  4.0000000000000E-02  4.0000000000000E-02  3.9999999999999E-02  3.9999999998122E-02 
 4.0000000001704E-02  4.0000000000001E-02  4.0000000000000E-02  4.0000000000000E-02  4.0000000000000E-02  4.0000000000000E-02  4.0000000000000E-02  4.0000000000000E-02  3.9999999999999E-02  3.9999999998122E-02 
 3.5028847903274E-02  3.5028823350381E-02  3.5028798797489E-02  3.5028774244596E-02  3.5028749691704E-02  3.5028725138811E-02  3.5028700585919E-02  3.5028676033026E-02  3.5028651480134E-02  3.5028626927241E-02 
 8.0911499769706E-01  8.0911499769706E-01  8.0911499769706E-01  8.0911499769706E-01  8.0911499769706E-01  8.0911499769706E-01  8.0911499769706E-01  8.0911499769706E-01  8.0911499769706E-01  8.0911499769706E-01 
 2.6811111111111E-05  5.3622222222222E-05  5.3622222222222E-05  5.3622222222222E-05  5.3622222222222E-05  5.3622222222222E-05  5.3622222222222E-05  5.3622222222223E-05  5.3622222222222E-05  2.6811111111111E-05 
 1.9088500230294E-01  1.9088500230294E-01  1.9088500230294E-01  1.9088500230294E-01  1.9088500230294E-01  1.9088500230294E-01  1.9088500230294E-01  1.9088500230294E-01  1.9088500230294E-01  1.9088500230294E-01 
 1.6271754020047E-09  1.6271751387841E-09  1.6271747724330E-09  1.6271751402561E-09  1.6271752556576E-09  1.6271747877036E-09  1.6271747772890E-09  1.6271751402120E-09  1.6271751506153E-09  1.6271749000828E-09 
 6.8422656080607E-03  6.8422656060541E-03  6.8422656059813E-03  6.8422656059812E-03  6.8422656059812E-03  6.8422656079149E-03  6.8422656059812E-03  6.8422656059811E-03  6.8422656078345E-03  6.8422656077542E-03 
 6.8422656080607E-03  6.8422656060541E-03  6.8422656059813E-03  6.8422656059812E-03  6.8422656059812E-03  6.8422656079149E-03  6.8422656059812E-03  6.8422656059811E-03  6.8422656078345E-03  6.8422656077542E-03 
 0.0000000000000E+00  0.0000000000000E+00  0.0000000000000E+00  0.0000000000000E+00  0.0000000000000E+00  0.0000000000000E+00  0.0000000000000E+00  0.0000000000000E+00  0.0000000000000E+00  0.0000000000000E+00 
ZONE T = "SEP , 3.5172E-07", I = 10, SOLUTIONTIME = 3.517188E-07
ZONETYPE = ORDERED
DATAPACKING = BLOCK
STRANDID = 2
 7.8740000000000E-04  8.4102222222222E-04  8.9464444444444E-04  9.4826666666667E-04  1.0018888888889E-03  1.0555111111111E-03  1.1091333333333E-03  1.1627555555556E-03  1.2163777777778E-03  1.2700000000000E-03 
 1.0376547841806E-08  1.0376547841806E-08  1.0376547841806E-08  1.0376547841806E-08  1.0376547841806E-08  1.0376547841806E-08  1.0376547841806E-08  1.0376547841806E-08  1.0376484068707E-08  9.8003299357204E-09 
 9.1999999999496E-01  9.2000000000000E-01  9.2000000000000E-01  9.2000000000000E-01  9.2000000000000E-01  9.2000000000000E-01  9.2000000000000E-01  9.2000000000000E-01  9.2000000000000E-01  9.2000000000555E-01 
 4.0000000002519E-02  4.0000000000002E-02  4.0000000000000E-02  4.0000000000000E-02  4.0000000000000E-02  4.0000000000000E-02  4.0000000000000E-02  4.0000000000000E-02  3.9999999999998E-02  3.9999999997223E-02 