TITLE = "Solution on Domain BulkDomain1D_0"
VARIABLES = "x [m]"  
"Vel_axial(0)" 	"MF_sp(ECDMC)" 	"MF_sp(Li+)" 	"MF_sp(PF6-)" 	"Volt(Electroly)" 	"Volt(AnodeVolt)" 	
"Potential Drop Electrode-Electrolyte [V]" 	"Surf_0 Equilibrium Potential Drop Electrode-Electrolyte [V]" 	"Overpotential_0 [V]" 	"Current Source [A/m^2]" 	"Li+ flux [kmol/m^2/s]" 	"Electrolyte Current [A/m^2]" 	"Electrode Current [A/m^2]" 	
"Capacity discharged [A-s]" 	"Depth of discharge [-]" 	"Capacity remaining [A-s]" 	"Initial capacity [A-s]" 	"Porosity []" 	"Surface Area [m2/m2] (area per area)" 	"Specific current (per particle area) [A/m^2]" 	"Control volume thickness [m]" 	
"Moles Li_C6-bulk [mol/m^2] (per electrode area)" 	"Moles V_C6-bulk [mol/m^2] (per electrode area)" 	

ZONE T = "t = 0 [s]" I = 10 SOLUTIONTIME = 0.0000000000000E+00
0 	0 	0.92 	0.04 	0.04 	-0.07 	0 	
0 	0 	0 	0 	0 	0 	15.4651 	
0 	0 	0 	0 	0.35 	8.53017 	3.62598 	4.37444e-05 	
0.00379119 	0.000947796 	
8.74889e-05 	0 	0.92 	0.04 	0.04 	-0.07 	0 	
0 	0 	0 	0 	0 	0 	-0 	
0 	0 	0 	0 	0.35 	17.0603 	3.62598 	8.74889e-05 	
0.00758237 	0.00189559 	
0.000174978 	0 	0.92 	0.04 	0.04 	-0.07 	0 	
0 	0 	0 	0 	0 	0 	-0 	
0 	0 	0 	0 	0.35 	17.0603 	3.62598 	8.74889e-05 	
0.00758237 	0.00189559 	
0.000262467 	0 	0.92 	0.04 	0.04 	-0.07 	0 	
0 	0 	0 	0 	0 	0 	-0 	
0 	0 	0 	0 	0.35 	17.0603 	3.62598 	8.74889e-05 	
0.00758237 	0.00189559 	
0.000349956 	0 	0.92 	0.04 	0.04 	-0.07 	0 	
0 	0 	0 	0 	0 	0 	-0 	
0 	0 	0 	0 	0.35 	17.0603 	3.62598 	8.74889e-05 	
0.00758237 	0.00189559 	
0.000437444 	0 	0.92 	0.04 	0.04 	-0.07 	0 	
0 	0 	0 	0 	0 	0 	-0 	
0 	0 	0 	0 	0.35 	17.0603 	3.62598 	8.74889e-05 	
0.00758237 	0.00189559 	
0.000524933 	0 	0.92 	0.04 	0.04 	-0.07 	0 	
0 	0 	0 	0 	0 	0 	-0 	
0 	0 	0 	0 	0.35 	17.0603 	3.62598 	8.74889e-05 	
0.00758237 	0.00189559 	
0.000612422 	0 	0.92 	0.04 	0.04 	-0.07 	0 	
0 	0 	0 	0 	0 	0 	-0 	
0 	0 	0 	0 	0.35 	17.0603 	3.62598 	8.74889e-05 	
0.00758237 	0.00189559 	
0.000699911 	0 	0.92 	0.04 	0.04 	-0.07 	0 	
0 	0 	0 	0 	0 	0 	-0 	
0 	0 	0 	0 	0.35 	17.0603 	3.62598 	8.74889e-05 	
0.00758237 	0.00189559 	
0.0007874 	0 	0.92 	0.04 	0.04 	-0.07 	0 	
0 	0 	0 	0 	0 	15.4651 	0 	
0 	0 	0 	0 	0.35 	8.53017 	3.62598 	4.37444e-05 	
0.00379119 	0.000947796 	
ZONE T = "t = 1e-08 [s]" I = 10 SOLUTIONTIME = 1.0000000000000E-08
0 	6.9711e-10 	0.92 	0.04 	0.04 	0.017975 	-3.09279e-07 	
0.07 	-0.0409067 	0.110907 	30.9302 	-0 	0.501947 	17.5785 	
0 	91448.4 	916.789 	1145.99 	0.35 	8.53017 	0.119902 	4.37444e-05 	
0.00379119 	0.000947796 	
8.74889e-05 	2.09133e-09 	0.92 	0.04 	0.04 	0.017975 	-3.10772e-07 	
0.07 	-0.0409067 	0.110907 	61.8605 	-0 	2.00779 	16.0632 	
0 	182897 	1833.58 	2291.97 	0.35 	17.0603 	0.119902 	8.74889e-05 	
0.00758237 	0.00189559 	
0.000174978 	3.48556e-09 	0.92 	0.04 	0.04 	0.017975 	-3.1209e-07 	
0.07 	-0.0409067 	0.110907 	61.8605 	-0 	4.01559 	14.0554 	
0 	182897 	1833.58 	2291.97 	0.35 	17.0603 	0.119902 	8.74889e-05 	
0.00758237 	0.00189559 	
0.000262467 	4.87981e-09 	0.92 	0.04 	0.04 	0.0179749 	-3.13232e-07 	
0.07 	-0.0409067 	0.110907 	61.8605 	-0 	6.0234 	12.0476 	
0 	182897 	1833.58 	2291.97 	0.35 	17.0603 	0.119904 	8.74889e-05 	
0.00758237 	0.00189559 	
0.000349956 	6.27407e-09 	0.92 	0.04 	0.04 	0.0179749 	-3.14198e-07 	
0.07 	-0.0409067 	0.110907 	61.8605 	-0 	8.03123 	10.0398 	
0 	182897 	1833.58 	2291.97 	0.35 	17.0603 	0.119905 	8.74889e-05 	
0.00758237 	0.00189559 	
0.000437444 	7.66835e-09 	0.92 	0.04 	0.04 	0.0179748 	-3.14989e-07 	
0.07 	-0.0409067 	0.110907 	61.8605 	-0 	10.0391 	8.0319 	
0 	182897 	1833.58 	2291.97 	0.35 	17.0603 	0.119907 	8.74889e-05 	
0.00758237 	0.00189559 	
0.000524933 	9.06266e-09 	0.92 	0.04 	0.04 	0.0179747 	-3.15603e-07 	
0.07 	-0.0409067 	0.110907 	61.8605 	-0 	12.047 	6.024 	
0 	182897 	1833.58 	2291.97 	0.35 	17.0603 	0.119909 	8.74889e-05 	
0.00758237 	0.00189559 	
0.000612422 	1.0457e-08 	0.92 	0.04 	0.04 	0.0179746 	-3.16043e-07 	
0.07 	-0.0409067 	0.110907 	61.8605 	-0 	14.0549 	4.01606 	
0 	182897 	1833.58 	2291.97 	0.35 	17.0603 	0.119912 	8.74889e-05 	
0.00758237 	0.00189559 	
0.000699911 	1.18514e-08 	0.92 	0.04 	0.04 	0.0179744 	-3.16306e-07 	
0.07 	-0.0409067 	0.110907 	61.8605 	-0 	16.0629 	2.00806 	
0 	182897 	1833.58 	2291.97 	0.35 	17.0603 	0.119916 	8.74889e-05 	
0.00758237 	0.00189559 	
0.0007874 	1.25486e-08 	0.92 	0.04 	0.04 	0.0179743 	-3.16394e-07 	
0.07 	-0.0409067 	0.110907 	30.9302 	-0 	17.5784 	0.502023 	
0 	91448.4 	916.789 	1145.99 	0.35 	8.53017 	0.119919 	4.37444e-05 	
0.00379119 	0.000947796 	
ZONE T = "t = 2e-08 [s]" I = 10 SOLUTIONTIME = 2.0000000000000E-08
0 	5.76347e-10 	0.92 	0.04 	0.04 	0.0350303 	-2.55698e-07 	
-0.0179753 	-0.0409067 	0.0229314 	1.02278 	5.20231e-09 	0.414993 	14.5253 	
2.5634e-11 	91448.4 	916.789 	1145.99 	0.35 	8.53017 	0.0973057 	4.37444e-05 	
0.00379119 	0.000947796 	
8.74889e-05 	1.72904e-09 	0.92 	0.04 	0.04 	0.0350303 	-2.56932e-07 	
-0.0179753 	-0.0409067 	0.0229314 	2.04557 	1.5607e-08 	1.65997 	13.2803 	
5.1268e-11 	182897 	1833.58 	2291.97 	0.35 	17.0603 	0.0973058 	8.74889e-05 	
0.00758237 	0.00189559 	
0.000174978 	2.88174e-09 	0.92 	0.04 	0.04 	0.0350302 	-2.58022e-07 	
-0.0179753 	-0.0409067 	0.0229314 	2.04558 	2.60117e-08 	3.31995 	11.6203 	
5.12683e-11 	182897 	1833.58 	2291.97 	0.35 	17.0603 	0.0973062 	8.74889e-05 	
0.00758237 	0.00189559 	
0.000262467 	4.03445e-09 	0.92 	0.04 	0.04 	0.0350302 	-2.58966e-07 	
-0.0179752 	-0.0409067 	0.0229315 	2.04559 	3.64165e-08 	4.97993 	9.96034 	
5.12687e-11 	182897 	1833.58 	2291.97 	0.35 	17.0603 	0.0973068 	8.74889e-05 	
0.00758237 	0.00189559 	
0.000349956 	5.18717e-09 	0.92 	0.04 	0.04 	0.0350301 	-2.59765e-07 	
-0.0179752 	-0.0409067 	0.0229315 	2.04562 	4.68214e-08 	6.63993 	8.30034 	
5.12694e-11 	182897 	1833.58 	2291.97 	0.35 	17.0603 	0.0973077 	8.74889e-05 	
0.00758237 	0.00189559 	
0.000437444 	6.3399e-09 	0.92 	0.04 	0.04 	0.0350301 	-2.60418e-07 	
-0.0179751 	-0.0409067 	0.0229316 	2.04565 	5.72265e-08 	8.29995 	6.64033 	
5.12702e-11 	182897 	1833.58 	2291.97 	0.35 	17.0603 	0.0973089 	8.74889e-05 	
0.00758237 	0.00189559 	
0.000524933 	7.49265e-09 	0.92 	0.04 	0.04 	0.03503 	-2.60926e-07 	
-0.017975 	-0.0409067 	0.0229317 	2.0457 	6.76318e-08 	9.95998 	4.98029 	
5.12713e-11 	182897 	1833.58 	2291.97 	0.35 	17.0603 	0.0973103 	8.74889e-05 	
0.00758237 	0.00189559 	
0.000612422 	8.64542e-09 	0.92 	0.04 	0.04 	0.0350299 	-2.6129e-07 	
-0.0179749 	-0.0409067 	0.0229318 	2.04574 	7.80374e-08 	11.62 	3.32023 	
5.12725e-11 	182897 	1833.58 	2291.97 	0.35 	17.0603 	0.097312 	8.74889e-05 	
0.00758237 	0.00189559 	
0.000699911 	9.79821e-09 	0.92 	0.04 	0.04 	0.0350298 	-2.61507e-07 	
-0.0179747 	-0.0409067 	0.022932 	2.0458 	8.84433e-08 	13.2801 	1.66013 	
5.12739e-11 	182897 	1833.58 	2291.97 	0.35 	17.0603 	0.0973139 	8.74889e-05 	
0.00758237 	0.00189559 	
0.0007874 	1.03746e-08 	0.92 	0.04 	0.04 	0.0350296 	-2.6158e-07 	
-0.0179746 	-0.0409067 	0.0229321 	1.02293 	8.84433e-08 	14.5253 	0.415037 	
2.56378e-11 	91448.4 	916.789 	1145.99 	0.35 	8.53017 	0.0973161 	4.37444e-05 	
0.00379119 	0.000947796 	
ZONE T = "t = 3e-08 [s]" I = 10 SOLUTIONTIME = 3.0000000000000E-08
0 	5.75931e-10 	0.92 	0.04 	0.04 	0.0350344 	-2.55513e-07 	
-0.0350305 	-0.0409067 	0.00587619 	0.830034 	4.3011e-09 	0.414693 	14.5148 	
4.64371e-11 	91448.4 	916.789 	1145.99 	0.35 	8.53017 	0.0972375 	4.37444e-05 	
0.00379119 	0.000947796 	
8.74889e-05 	1.72779e-09 	0.92 	0.04 	0.04 	0.0350344 	-2.56747e-07 	
-0.0350305 	-0.0409067 	0.00587619 	1.66007 	1.29033e-08 	1.65877 	13.2707 	
9.28743e-11 	182897 	1833.58 	2291.97 	0.35 	17.0603 	0.0972377 	8.74889e-05 	
0.00758237 	0.00189559 	
0.000174978 	2.87966e-09 	0.92 	0.04 	0.04 	0.0350343 	-2.57836e-07 	
-0.0350305 	-0.0409067 	0.00587621 	1.66008 	2.15055e-08 	3.31755 	11.6119 	
9.28747e-11 	182897 	1833.58 	2291.97 	0.35 	17.0603 	0.097238 	8.74889e-05 	
0.00758237 	0.00189559 	
0.000262467 	4.03154e-09 	0.92 	0.04 	0.04 	0.0350343 	-2.58779e-07 	
-0.0350305 	-0.0409067 	0.00587625 	1.66009 	3.01078e-08 	4.97634 	9.95315 	
9.28755e-11 	182897 	1833.58 	2291.97 	0.35 	17.0603 	0.0972387 	8.74889e-05 	
0.00758237 	0.00189559 	
0.000349956 	5.18342e-09 	0.92 	0.04 	0.04 	0.0350342 	-2.59577e-07 	
-0.0350304 	-0.0409067 	0.00587631 	1.6601 	3.87102e-08 	6.63514 	8.29435 	
9.28765e-11 	182897 	1833.58 	2291.97 	0.35 	17.0603 	0.0972396 	8.74889e-05 	
0.00758237 	0.00189559 	
0.000437444 	6.33532e-09 	0.92 	0.04 	0.04 	0.0350342 	-2.6023e-07 	
-0.0350303 	-0.0409067 	0.00587638 	1.66012 	4.73127e-08 	8.29396 	6.63554 	
9.28779e-11 	182897 	1833.58 	2291.97 	0.35 	17.0603 	0.0972407 	8.74889e-05 	
0.00758237 	0.00189559 	
0.000524933 	7.48724e-09 	0.92 	0.04 	0.04 	0.0350341 	-2.60738e-07 	
-0.0350303 	-0.0409067 	0.00587646 	1.66015 	5.59153e-08 	9.9528 	4.9767 	
9.28795e-11 	182897 	1833.58 	2291.97 	0.35 	17.0603 	0.0972421 	8.74889e-05 	
0.00758237 	0.00189559 	
0.000612422 	8.63918e-09 	0.92 	0.04 	0.04 	0.035034 	-2.61101e-07 	
-0.0350301 	-0.0409067 	0.00587656 	1.66017 	6.4518e-08 	11.6117 	3.31783 	
9.28815e-11 	182897 	1833.58 	2291.97 	0.35 	17.0603 	0.0972438 	8.74889e-05 	
0.00758237 	0.00189559 	
0.000699911 	9.79114e-09 	0.92 	0.04 	0.04 	0.0350339 	-2.61319e-07 	
-0.03503 	-0.0409067 	0.00587668 	1.66021 	7.3121e-08 	13.2706 	1.65893 	
9.28837e-11 	182897 	1833.58 	2291.97 	0.35 	17.0603 	0.0972458 	8.74889e-05 	
0.00758237 	0.00189559 	
0.0007874 	1.03671e-08 	0.92 	0.04 	0.04 	0.0350337 	-2.61391e-07 	
-0.0350299 	-0.0409067 	0.00587681 	0.830123 	7.3121e-08 	14.5148 	0.414738 	
4.64431e-11 	91448.4 	916.789 	1145.99 	0.35 	8.53017 	0.097248 	4.37444e-05 	
0.00379119 	0.000947796 	
ZONE T = "t = 4e-08 [s]" I = 10 SOLUTIONTIME = 4.0000000000000E-08
0 	5.76618e-10 	0.92 	0.04 	0.04 	0.0350279 	-2.55818e-07 	
-0.0350346 	-0.0409067 	0.00587209 	0.829452 	4.29799e-09 	0.415188 	14.5321 	
6.72257e-11 	91448.4 	916.789 	1145.99 	0.35 	8.53017 	0.0973458 	4.37444e-05 	
0.00379119 	0.000947796 	
8.74889e-05 	1.72986e-09 	0.92 	0.04 	0.04 	0.0350279 	-2.57053e-07 	
-0.0350346 	-0.0409067 	0.0058721 	1.65891 	1.2894e-08 	1.66075 	13.2865 	
1.34452e-10 	182897 	1833.58 	2291.97 	0.35 	17.0603 	0.0973459 	8.74889e-05 	
0.00758237 	0.00189559 	
0.000174978 	2.8831e-09 	0.92 	0.04 	0.04 	0.0350278 	-2.58143e-07 	
-0.0350346 	-0.0409067 	0.00587212 	1.65891 	2.149e-08 	3.32151 	11.6258 	
1.34452e-10 	182897 	1833.58 	2291.97 	0.35 	17.0603 	0.0973463 	8.74889e-05 	
0.00758237 	0.00189559 	
0.000262467 	4.03635e-09 	0.92 	0.04 	0.04 	0.0350278 	-2.59088e-07 	
-0.0350346 	-0.0409067 	0.00587216 	1.65892 	3.00861e-08 	4.98228 	9.96503 	
1.34453e-10 	182897 	1833.58 	2291.97 	0.35 	17.0603 	0.0973469 	8.74889e-05 	
0.00758237 	0.00189559 	
0.000349956 	5.18961e-09 	0.92 	0.04 	0.04 	0.0350277 	-2.59887e-07 	
-0.0350345 	-0.0409067 	0.00587221 	1.65894 	3.86823e-08 	6.64305 	8.30425 	
1.34455e-10 	182897 	1833.58 	2291.97 	0.35 	17.0603 	0.0973478 	8.74889e-05 	
0.00758237 	0.00189559 	
0.000437444 	6.34288e-09 	0.92 	0.04 	0.04 	0.0350277 	-2.60541e-07 	
-0.0350344 	-0.0409067 	0.00587228 	1.65896 	4.72785e-08 	8.30385 	6.64345 	
1.34456e-10 	182897 	1833.58 	2291.97 	0.35 	17.0603 	0.097349 	8.74889e-05 	
0.00758237 	0.00189559 	
0.000524933 	7.49617e-09 	0.92 	0.04 	0.04 	0.0350276 	-2.61049e-07 	
-0.0350343 	-0.0409067 	0.00587236 	1.65898 	5.58749e-08 	9.96467 	4.98263 	
1.34459e-10 	182897 	1833.58 	2291.97 	0.35 	17.0603 	0.0973504 	8.74889e-05 	
0.00758237 	0.00189559 	
0.000612422 	8.64948e-09 	0.92 	0.04 	0.04 	0.0350275 	-2.61412e-07 	
-0.0350342 	-0.0409067 	0.00587247 	1.65901 	6.44715e-08 	11.6255 	3.32179 	
1.34461e-10 	182897 	1833.58 	2291.97 	0.35 	17.0603 	0.0973521 	8.74889e-05 	
0.00758237 	0.00189559 	
0.000699911 	9.80282e-09 	0.92 	0.04 	0.04 	0.0350274 	-2.6163e-07 	
-0.0350341 	-0.0409067 	0.00587258 	1.65905 	7.30683e-08 	13.2864 	1.66091 	
1.34464e-10 	182897 	1833.58 	2291.97 	0.35 	17.0603 	0.0973541 	8.74889e-05 	
0.00758237 	0.00189559 	
0.0007874 	1.03795e-08 	0.92 	0.04 	0.04 	0.0350272 	-2.61703e-07 	
-0.035034 	-0.0409067 	0.00587272 	0.829541 	7.30683e-08 	14.5321 	0.415233 	
6.72339e-11 	91448.4 	916.789 	1145.99 	0.35 	8.53017 	0.0973563 	4.37444e-05 	
0.00379119 	0.000947796 	
ZONE T = "t = 5.1052e-08 [s]" I = 10 SOLUTIONTIME = 5.1052003985648E-08
0 	5.76618e-10 	0.92 	0.04 	0.04 	0.0350279 	-2.55818e-07 	
-0.0350281 	-0.0409067 	0.0058786 	0.830376 	4.30312e-09 	0.415188 	14.5321 	
8.80374e-11 	91448.4 	916.789 	1145.99 	0.35 	8.53017 	0.0973458 	4.37444e-05 	
0.00379119 	0.000947796 	
8.74889e-05 	1.72986e-09 	0.92 	0.04 	0.04 	0.0350279 	-2.57053e-07 	
-0.0350281 	-0.0409067 	0.00587861 	1.66075 	1.29094e-08 	1.66075 	13.2865 	
1.76075e-10 	182897 	1833.58 	2291.97 	0.35 	17.0603 	0.0973459 	8.74889e-05 	
0.00758237 	0.00189559 	
0.000174978 	2.8831e-09 	0.92 	0.04 	0.04 	0.0350278 	-2.58143e-07 	
-0.0350281 	-0.0409067 	0.00587863 	1.66076 	2.15157e-08 	3.32151 	11.6258 	
1.76076e-10 	182897 	1833.58 	2291.97 	0.35 	17.0603 	0.0973463 	8.74889e-05 	
0.00758237 	0.00189559 	
0.000262467 	4.03635e-09 	0.92 	0.04 	0.04 	0.0350278 	-2.59088e-07 	
-0.035028 	-0.0409067 	0.00587867 	1.66077 	3.0122e-08 	4.98228 	9.96503 	
1.76077e-10 	182897 	1833.58 	2291.97 	0.35 	17.0603 	0.0973469 	8.74889e-05 	
0.00758237 	0.00189559 	
0.000349956 	5.18961e-09 	0.92 	0.04 	0.04 	0.0350277 	-2.59887e-07 	
-0.035028 	-0.0409067 	0.00587872 	1.66079 	3.87284e-08 	6.64305 	8.30425 	
1.76079e-10 	182897 	1833.58 	2291.97 	0.35 	17.0603 	0.0973478 	8.74889e-05 	
0.00758237 	0.00189559 	
0.000437444 	6.34288e-09 	0.92 	0.04 	0.04 	0.0350277 	-2.60541e-07 	
-0.0350279 	-0.0409067 	0.00587879 	1.66081 	4.73349e-08 	8.30385 	6.64345 	
1.76081e-10 	182897 	1833.58 	2291.97 	0.35 	17.0603 	0.097349 	8.74889e-05 	
0.00758237 	0.00189559 	
0.000524933 	7.49617e-09 	0.92 	0.04 	0.04 	0.0350276 	-2.61049e-07 	
-0.0350278 	-0.0409067 	0.00587888 	1.66083 	5.59416e-08 	9.96467 	4.98263 	
1.76084e-10 	182897 	1833.58 	2291.97 	0.35 	17.0603 	0.0973504 	8.74889e-05 	
0.00758237 	0.00189559 	
0.000612422 	8.64948e-09 	0.92 	0.04 	0.04 	0.0350275 	-2.61412e-07 	
-0.0350277 	-0.0409067 	0.00587898 	1.66086 	6.45484e-08 	11.6255 	3.32179 	
1.76087e-10 	182897 	1833.58 	2291.97 	0.35 	17.0603 	0.0973521 	8.74889e-05 	
0.00758237 	0.00189559 	
0.000699911 	9.80282e-09 	0.92 	0.04 	0.04 	0.0350274 	-2.6163e-07 	
-0.0350276 	-0.0409067 	0.00587909 	1.66089 	7.31555e-08 	13.2864 	1.66091 	
1.76091e-10 	182897 	1833.58 	2291.97 	0.35 	17.0603 	0.0973541 	8.74889e-05 	
0.00758237 	0.00189559 	
0.0007874 	1.03795e-08 	0.92 	0.04 	0.04 	0.0350272 	-2.61703e-07 	
-0.0350275 	-0.0409067 	0.00587923 	0.830465 	7.31555e-08 	14.5321 	0.415233 	
8.80479e-11 	91448.4 	916.789 	1145.99 	0.35 	8.53017 	0.0973563 	4.37444e-05 	
0.00379119 	0.000947796 	
ZONE T = "t = 6.57784e-08 [s]" I = 10 SOLUTIONTIME = 6.5778413498371E-08
0 	5.76618e-10 	0.92 	0.04 	0.04 	0.0350279 	-2.55818e-07 	
-0.0350281 	-0.0409067 	0.0058786 	0.830376 	4.30312e-09 	0.415188 	14.5321 	
1.11038e-10 	91448.4 	916.789 	1145.99 	0.35 	8.53017 	0.0973458 	4.37444e-05 	
0.00379119 	0.000947796 	
8.74889e-05 	1.72986e-09 	0.92 	0.04 	0.04 	0.0350279 	-2.57053e-07 	
-0.0350281 	-0.0409067 	0.00587861 	1.66075 	1.29094e-08 	1.66075 	13.2865 	
2.22077e-10 	182897 	1833.58 	2291.97 	0.35 	17.0603 	0.0973459 	8.74889e-05 	
0.00758237 	0.00189559 	
0.000174978 	2.8831e-09 	0.92 	0.04 	0.04 	0.0350278 	-2.58143e-07 	
-0.0350281 	-0.0409067 	0.00587863 	1.66076 	2.15157e-08 	3.32151 	11.6258 	
2.22078e-10 	182897 	1833.58 	2291.97 	0.35 	17.0603 	0.0973463 	8.74889e-05 	
0.00758237 	0.00189559 	
0.000262467 	4.03635e-09 	0.92 	0.04 	0.04 	0.0350278 	-2.59088e-07 	
-0.035028 	-0.0409067 	0.00587867 	1.66077 	3.0122e-08 	4.98228 	9.96503 	
2.2208e-10 	182897 	1833.58 	2291.97 	0.35 	17.0603 	0.0973469 	8.74889e-05 	
0.00758237 	0.00189559 	
0.000349956 	5.18961e-09 	0.92 	0.04 	0.04 	0.0350277 	-2.59887e-07 	
-0.035028 	-0.0409067 	0.00587872 	1.66079 	3.87284e-08 	6.64305 	8.30425 	
2.22082e-10 	182897 	1833.58 	2291.97 	0.35 	17.0603 	0.0973478 	8.74889e-05 	
0.00758237 	0.00189559 	
0.000437444 	6.34288e-09 	0.92 	0.04 	0.04 	0.0350277 	-2.60541e-07 	
-0.0350279 	-0.0409067 	0.00587879 	1.66081 	4.73349e-08 	8.30385 	6.64345 	
2.22085e-10 	182897 	1833.58 	2291.97 	0.35 	17.0603 	0.097349 	8.74889e-05 	
0.00758237 	0.00189559 	
0.000524933 	7.49617e-09 	0.92 	0.04 	0.04 	0.0350276 	-2.61049e-07 	
-0.0350278 	-0.0409067 	0.00587888 	1.66083 	5.59416e-08 	9.96467 	4.98263 	
2.22088e-10 	182897 	1833.58 	2291.97 	0.35 	17.0603 	0.0973504 	8.74889e-05 	
0.00758237 	0.00189559 	
0.000612422 	8.64948e-09 	0.92 	0.04 	0.04 	0.0350275 	-2.61412e-07 	
-0.0350277 	-0.0409067 	0.00587898 	1.66086 	6.45484e-08 	11.6255 	3.32179 	
2.22093e-10 	182897 	1833.58 	2291.97 	0.35 	17.0603 	0.0973521 	8.74889e-05 	
0.00758237 	0.00189559 	
0.000699911 	9.80282e-09 	0.92 	0.04 	0.04 	0.0350274 	-2.6163e-07 	
-0.0350276 	-0.0409067 	0.00587909 	1.66089 	7.31555e-08 	13.2864 	1.66091 	
2.22097e-10 	182897 	1833.58 	2291.97 	0.35 	17.0603 	0.0973541 	8.74889e-05 	
0.00758237 	0.00189559 	
0.0007874 	1.03795e-08 	0.92 	0.04 	0.04 	0.0350272 	-2.61703e-07 	
-0.0350275 	-0.0409067 	0.00587923 	0.830465 	7.31555e-08 	14.5321 	0.415233 	
1.11051e-10 	91448.4 	916.789 	1145.99 	0.35 	8.53017 	0.0973563 	4.37444e-05 	
0.00379119 	0.000947796 	
ZONE T = "t = 8.7868e-08 [s]" I = 10 SOLUTIONTIME = 8.7868027767455E-08
0 	5.76618e-10 	0.92 	0.04 	0.04 	0.0350279 	-2.55818e-07 	
-0.0350281 	-0.0409067 	0.0058786 	0.830376 	4.30312e-09 	0.415188 	14.5321 	
1.41687e-10 	91448.4 	916.789 	1145.99 	0.35 	8.53017 	0.0973458 	4.37444e-05 	
0.00379119 	0.000947796 	
8.74889e-05 	1.72986e-09 	0.92 	0.04 	0.04 	0.0350279 	-2.57053e-07 	
-0.0350281 	-0.0409067 	0.00587861 	1.66075 	1.29094e-08 	1.66075 	13.2865 	
2.83374e-10 	182897 	1833.58 	2291.97 	0.35 	17.0603 	0.0973459 	8.74889e-05 	
0.00758237 	0.00189559 	
0.000174978 	2.8831e-09 	0.92 	0.04 	0.04 	0.0350278 	-2.58143e-07 	
-0.0350281 	-0.0409067 	0.00587863 	1.66076 	2.15157e-08 	3.32151 	11.6258 	
2.83375e-10 	182897 	1833.58 	2291.97 	0.35 	17.0603 	0.0973463 	8.74889e-05 	
0.00758237 	0.00189559 	
0.000262467 	4.03635e-09 	0.92 	0.04 	0.04 	0.0350278 	-2.59088e-07 	
-0.035028 	-0.0409067 	0.00587867 	1.66077 	3.0122e-08 	4.98228 	9.96503 	
2.83377e-10 	182897 	1833.58 	2291.97 	0.35 	17.0603 	0.0973469 	8.74889e-05 	
0.00758237 	0.00189559 	
0.000349956 	5.18961e-09 	0.92 	0.04 	0.04 	0.0350277 	-2.59887e-07 	
-0.035028 	-0.0409067 	0.00587872 	1.66079 	3.87284e-08 	6.64305 	8.30425 	
2.8338e-10 	182897 	1833.58 	2291.97 	0.35 	17.0603 	0.0973478 	8.74889e-05 	
0.00758237 	0.00189559 	
0.000437444 	6.34288e-09 	0.92 	0.04 	0.04 	0.0350277 	-2.60541e-07 	
-0.0350279 	-0.0409067 	0.00587879 	1.66081 	4.73349e-08 	8.30385 	6.64345 	
2.83383e-10 	182897 	1833.58 	2291.97 	0.35 	17.0603 	0.097349 	8.74889e-05 	
0.00758237 	0.00189559 	
0.000524933 	7.49617e-09 	0.92 	0.04 	0.04 	0.0350276 	-2.61049e-07 	
-0.0350278 	-0.0409067 	0.00587888 	1.66083 	5.59416e-08 	9.96467 	4.98263 	
2.83388e-10 	182897 	1833.58 	2291.97 	0.35 	17.0603 	0.0973504 	8.74889e-05 	
0.00758237 	0.00189559 	
0.000612422 	8.64948e-09 	0.92 	0.04 	0.04 	0.0350275 	-2.61412e-07 	
-0.0350277 	-0.0409067 	0.00587898 	1.66086 	6.45484e-08 	11.6255 	3.32179 	
2.83393e-10 	182897 	1833.58 	2291.97 	0.35 	17.0603 	0.0973521 	8.74889e-05 	
0.00758237 	0.00189559 	
0.000699911 	9.80282e-09 	0.92 	0.04 	0.04 	0.0350274 	-2.6163e-07 	
-0.0350276 	-0.0409067 	0.00587909 	1.66089 	7.31556e-08 	13.2864 	1.66091 	
2.83399e-10 	182897 	1833.58 	2291.97 	0.35 	17.0603 	0.0973541 	8.74889e-05 	
0.00758237 	0.00189559 	
0.0007874 	1.03795e-08 	0.92 	0.04 	0.04 	0.0350272 	-2.61703e-07 	
-0.0350275 	-0.0409067 	0.00587923 	0.830465 	7.31556e-08 	14.5321 	0.415233 	
1.41703e-10 	91448.4 	916.789 	1145.99 	0.35 	8.53017 	0.0973563 	4.37444e-05 	
0.00379119 	0.000947796 	
ZONE T = "t = 1.21002e-07 [s]" I = 10 SOLUTIONTIME = 1.2100244917108E-07
0 	5.76618e-10 	0.92 	0.04 	0.04 	0.0350279 	-2.55818e-07 	
-0.0350281 	-0.0409067 	0.0058786 	0.830376 	4.30312e-09 	0.415188 	14.5321 	
1.87659e-10 	91448.4 	916.789 	1145.99 	0.35 	8.53017 	0.0973458 	4.37444e-05 	
0.00379119 	0.000947796 	
8.74889e-05 	1.72986e-09 	0.92 	0.04 	0.04 	0.0350279 	-2.57053e-07 	
-0.0350281 	-0.0409067 	0.00587861 	1.66075 	1.29094e-08 	1.66075 	13.2865 	
3.75318e-10 	182897 	1833.58 	2291.97 	0.35 	17.0603 	0.0973459 	8.74889e-05 	
0.00758237 	0.00189559 	
0.000174978 	2.8831e-09 	0.92 	0.04 	0.04 	0.0350278 	-2.58143e-07 	
-0.0350281 	-0.0409067 	0.00587863 	1.66076 	2.15157e-08 	3.32151 	11.6258 	
3.7532e-10 	182897 	1833.58 	2291.97 	0.35 	17.0603 	0.0973463 	8.74889e-05 	
0.00758237 	0.00189559 	
0.000262467 	4.03635e-09 	0.92 	0.04 	0.04 	0.0350278 	-2.59088e-07 	
-0.035028 	-0.0409067 	0.00587867 	1.66077 	3.0122e-08 	4.98228 	9.96503 	
3.75322e-10 	182897 	1833.58 	2291.97 	0.35 	17.0603 	0.0973469 	8.74889e-05 	
0.00758237 	0.00189559 	
0.000349956 	5.18961e-09 	0.92 	0.04 	0.04 	0.0350277 	-2.59887e-07 	
-0.035028 	-0.0409067 	0.00587872 	1.66079 	3.87284e-08 	6.64305 	8.30425 	
3.75326e-10 	182897 	1833.58 	2291.97 	0.35 	17.0603 	0.0973478 	8.74889e-05 	
0.00758237 	0.00189559 	
0.000437444 	6.34288e-09 	0.92 	0.04 	0.04 	0.0350277 	-2.60541e-07 	
-0.0350279 	-0.0409067 	0.00587879 	1.66081 	4.73349e-08 	8.30385 	6.64345 	
3.75331e-10 	182897 	1833.58 	2291.97 	0.35 	17.0603 	0.097349 	8.74889e-05 	
0.00758237 	0.00189559 	
0.000524933 	7.49617e-09 	0.92 	0.04 	0.04 	0.0350276 	-2.61049e-07 	
-0.0350278 	-0.0409067 	0.00587888 	1.66083 	5.59416e-08 	9.96467 	4.98263 	
3.75337e-10 	182897 	1833.58 	2291.97 	0.35 	17.0603 	0.0973504 	8.74889e-05 	
0.00758237 	0.00189559 	
0.000612422 	8.64948e-09 	0.92 	0.04 	0.04 	0.0350275 	-2.61412e-07 	
-0.0350277 	-0.0409067 	0.00587898 	1.66086 	6.45484e-08 	11.6255 	3.32179 	
3.75343e-10 	182897 	1833.58 	2291.97 	0.35 	17.0603 	0.0973521 	8.74889e-05 	
0.00758237 	0.00189559 	
0.000699911 	9.80282e-09 	0.92 	0.04 	0.04 	0.0350274 	-2.6163e-07 	
-0.0350276 	-0.0409067 	0.00587909 	1.66089 	7.31557e-08 	13.2864 	1.66091 	
3.75351e-10 	182897 	1833.58 	2291.97 	0.35 	17.0603 	0.0973541 	8.74889e-05 	
0.00758237 	0.00189559 	
0.0007874 	1.03795e-08 	0.92 	0.04 	0.04 	0.0350272 	-2.61703e-07 	
-0.0350275 	-0.0409067 	0.00587923 	0.830465 	7.31557e-08 	14.5321 	0.415233 	
1.8768e-10 	91448.4 	916.789 	1145.99 	0.35 	8.53017 	0.0973563 	4.37444e-05 	
0.00379119 	0.000947796 	
ZONE T = "t = 1.70704e-07 [s]" I = 10 SOLUTIONTIME = 1.7070408127652E-07
0 	5.76618e-10 	0.92 	0.04 	0.04 	0.0350279 	-2.55818e-07 	
-0.0350281 	-0.0409067 	0.0058786 	0.830376 	4.30312e-09 	0.415188 	14.5321 	
2.56617e-10 	91448.4 	916.789 	1145.99 	0.35 	8.53017 	0.0973458 	4.37444e-05 	
0.00379119 	0.000947796 	
8.74889e-05 	1.72986e-09 	0.92 	0.04 	0.04 	0.0350279 	-2.57053e-07 	
-0.0350281 	-0.0409067 	0.00587861 	1.66075 	1.29094e-08 	1.66075 	13.2865 	
5.13235e-10 	182897 	1833.58 	2291.97 	0.35 	17.0603 	0.0973459 	8.74889e-05 	
0.00758237 	0.00189559 	
0.000174978 	2.8831e-09 	0.92 	0.04 	0.04 	0.0350278 	-2.58143e-07 	
-0.0350281 	-0.0409067 	0.00587863 	1.66076 	2.15157e-08 	3.32151 	11.6258 	
5.13237e-10 	182897 	1833.58 	2291.97 	0.35 	17.0603 	0.0973463 	8.74889e-05 	
0.00758237 	0.00189559 	
0.000262467 	4.03635e-09 	0.92 	0.04 	0.04 	0.0350278 	-2.59088e-07 	
-0.035028 	-0.0409067 	0.00587867 	1.66077 	3.0122e-08 	4.98228 	9.96503 	
5.13241e-10 	182897 	1833.58 	2291.97 	0.35 	17.0603 	0.0973469 	8.74889e-05 	
0.00758237 	0.00189559 	
0.000349956 	5.18961e-09 	0.92 	0.04 	0.04 	0.0350277 	-2.59887e-07 	
-0.035028 	-0.0409067 	0.00587872 	1.66079 	3.87284e-08 	6.64305 	8.30425 	
5.13246e-10 	182897 	1833.58 	2291.97 	0.35 	17.0603 	0.0973478 	8.74889e-05 	
0.00758237 	0.00189559 	
0.000437444 	6.34288e-09 	0.92 	0.04 	0.04 	0.0350277 	-2.60541e-07 	
-0.0350279 	-0.0409067 	0.00587879 	1.66081 	4.73349e-08 	8.30385 	6.64345 	
5.13252e-10 	182897 	1833.58 	2291.97 	0.35 	17.0603 	0.097349 	8.74889e-05 	
0.00758237 	0.00189559 	
0.000524933 	7.49617e-09 	0.92 	0.04 	0.04 	0.0350276 	-2.61049e-07 	
-0.0350278 	-0.0409067 	0.00587888 	1.66083 	5.59416e-08 	9.96467 	4.98263 	
5.1326e-10 	182897 	1833.58 	2291.97 	0.35 	17.0603 	0.0973504 	8.74889e-05 	
0.00758237 	0.00189559 	
0.000612422 	8.64948e-09 	0.92 	0.04 	0.04 	0.0350275 	-2.61412e-07 	
-0.0350277 	-0.0409067 	0.00587898 	1.66086 	6.45484e-08 	11.6255 	3.32179 	
5.13269e-10 	182897 	1833.58 	2291.97 	0.35 	17.0603 	0.0973521 	8.74889e-05 	
0.00758237 	0.00189559 	
0.000699911 	9.80282e-09 	0.92 	0.04 	0.04 	0.0350274 	-2.6163e-07 	
-0.0350276 	-0.0409067 	0.00587909 	1.66089 	7.31558e-08 	13.2864 	1.66091 	
5.1328e-10 	182897 	1833.58 	2291.97 	0.35 	17.0603 	0.0973541 	8.74889e-05 	
0.00758237 	0.00189559 	
0.0007874 	1.03795e-08 	0.92 	0.04 	0.04 	0.0350272 	-2.61703e-07 	
-0.0350275 	-0.0409067 	0.00587923 	0.830465 	7.31558e-08 	14.5321 	0.415233 	
2.56646e-10 	91448.4 	916.789 	1145.99 	0.35 	8.53017 	0.0973563 	4.37444e-05 	
0.00379119 	0.000947796 	
ZONE T = "t = 2.45257e-07 [s]" I = 10 SOLUTIONTIME = 2.4525652943468E-07
0 	5.76618e-10 	0.92 	0.04 	0.04 	0.0350279 	-2.55818e-07 	
-0.0350281 	-0.0409067 	0.0058786 	0.830376 	4.30312e-09 	0.415188 	14.5321 	
3.60055e-10 	91448.4 	916.789 	1145.99 	0.35 	8.53017 	0.0973458 	4.37444e-05 	
0.00379119 	0.000947796 	
8.74889e-05 	1.72986e-09 	0.92 	0.04 	0.04 	0.0350279 	-2.57053e-07 	
-0.0350281 	-0.0409067 	0.00587861 	1.66075 	1.29094e-08 	1.66075 	13.2865 	
7.20111e-10 	182897 	1833.58 	2291.97 	0.35 	17.0603 	0.0973459 	8.74889e-05 	
0.00758237 	0.00189559 	
0.000174978 	2.8831e-09 	0.92 	0.04 	0.04 	0.0350278 	-2.58143e-07 	
-0.0350281 	-0.0409067 	0.00587863 	1.66076 	2.15157e-08 	3.32151 	11.6258 	
7.20114e-10 	182897 	1833.58 	2291.97 	0.35 	17.0603 	0.0973463 	8.74889e-05 	
0.00758237 	0.00189559 	
0.000262467 	4.03635e-09 	0.92 	0.04 	0.04 	0.0350278 	-2.59088e-07 	
-0.035028 	-0.0409067 	0.00587867 	1.66077 	3.0122e-08 	4.98228 	9.96503 	
7.20118e-10 	182897 	1833.58 	2291.97 	0.35 	17.0603 	0.0973469 	8.74889e-05 	
0.00758237 	0.00189559 	
0.000349956 	5.18961e-09 	0.92 	0.04 	0.04 	0.0350277 	-2.59887e-07 	
-0.035028 	-0.0409067 	0.00587872 	1.66079 	3.87284e-08 	6.64305 	8.30425 	
7.20125e-10 	182897 	1833.58 	2291.97 	0.35 	17.0603 	0.0973478 	8.74889e-05 	
0.00758237 	0.00189559 	
0.000437444 	6.34288e-09 	0.92 	0.04 	0.04 	0.0350277 	-2.60541e-07 	
-0.0350279 	-0.0409067 	0.00587879 	1.66081 	4.73349e-08 	8.30385 	6.64345 	
7.20134e-10 	182897 	1833.58 	2291.97 	0.35 	17.0603 	0.097349 	8.74889e-05 	
0.00758237 	0.00189559 	
0.000524933 	7.49617e-09 	0.92 	0.04 	0.04 	0.0350276 	-2.61049e-07 	
-0.0350278 	-0.0409067 	0.00587888 	1.66083 	5.59416e-08 	9.96467 	4.98263 	
7.20145e-10 	182897 	1833.58 	2291.97 	0.35 	17.0603 	0.0973504 	8.74889e-05 	
0.00758237 	0.00189559 	
0.000612422 	8.64948e-09 	0.92 	0.04 	0.04 	0.0350275 	-2.61412e-07 	
-0.0350277 	-0.0409067 	0.00587898 	1.66086 	6.45484e-08 	11.6255 	3.32179 	
7.20158e-10 	182897 	1833.58 	2291.97 	0.35 	17.0603 	0.0973521 	8.74889e-05 	
0.00758237 	0.00189559 	
0.000699911 	9.80282e-09 	0.92 	0.04 	0.04 	0.0350274 	-2.6163e-07 	
-0.0350276 	-0.0409067 	0.00587909 	1.66089 	7.3156e-08 	13.2864 	1.66091 	
7.20173e-10 	182897 	1833.58 	2291.97 	0.35 	17.0603 	0.0973541 	8.74889e-05 	
0.00758237 	0.00189559 	
0.0007874 	1.03795e-08 	0.92 	0.04 	0.04 	0.0350272 	-2.61703e-07 	
-0.0350275 	-0.0409067 	0.00587923 	0.830465 	7.3156e-08 	14.5321 	0.415233 	
3.60095e-10 	91448.4 	916.789 	1145.99 	0.35 	8.53017 	0.0973563 	4.37444e-05 	
0.00379119 	0.000947796 	
