TITLE = "Solution on Domain BulkDomain1D_1"
VARIABLES = "x [m]"  
"Vel_axial" 	"MF_sp(ECDMC)" 	"MF_sp(Li+)" 	"MF_sp(PF6-)" 	"Volt(Electroly)" 	"Porosity []" 	"Control volume thickness [m]" 	"volFrac MgO(S) []" 	"qHeat_accum [J/m3]" 	"qHeat_step [W/m3]" 	"Joule_Lyte [W/m3]" 	"Joule_Solid [W/m3]" 	
ZONE T = "SEP , 0.0000E+00", I = 10, SOLUTIONTIME = 0.000000E+00
ZONETYPE = ORDERED
DATAPACKING = BLOCK
STRANDID = 2
 7.8740000000000E-04  8.4102222222222E-04  8.9464444444444E-04  9.4826666666667E-04  1.0018888888889E-03  1.0555111111111E-03  1.1091333333333E-03  1.1627555555556E-03  1.2163777777778E-03  1.2700000000000E-03 
 0.0000000000000E+00  0.0000000000000E+00  0.0000000000000E+00  0.0000000000000E+00  0.0000000000000E+00  0.0000000000000E+00  0.0000000000000E+00  0.0000000000000E+00  0.0000000000000E+00  0.0000000000000E+00 
 9.2000000000000E-01  9.2000000000000E-01  9.2000000000000E-01  9.2000000000000E-01  9.2000000000000E-01  9.2000000000000E-01  9.2000000000000E-01  9.2000000000000E-01  9.2000000000000E-01  9.2000000000000E-01 
 4.0000000000000E-02  4.0000000000000E-02  4.0000000000000E-02  4.0000000000000E-02  4.0000000000000E-02  4.0000000000000E-02  4.0000000000000E-02  4.0000000000000E-02  4.0000000000000E-02  4.0000000000000E-02 
 4.0000000000000E-02  4.0000000000000E-02  4.0000000000000E-02  4.0000000000000E-02  4.0000000000000E-02  4.0000000000000E-02  4.0000000000000E-02  4.0000000000000E-02  4.0000000000000E-02  4.0000000000000E-02 
-7.0000000000000E-02 -7.0000000000000E-02 -7.0000000000000E-02 -7.0000000000000E-02 -7.0000000000000E-02 -7.0000000000000E-02 -7.0000000000000E-02 -7.0000000000000E-02 -7.0000000000000E-02 -7.0000000000000E-02 
 8.0911139820575E-01  8.0911139820575E-01  8.0911139820575E-01  8.0911139820575E-01  8.0911139820575E-01  8.0911139820575E-01  8.0911139820575E-01  8.0911139820575E-01  8.0911139820575E-01  8.0911139820575E-01 
 2.6811111111111E-05  5.3622222222222E-05  5.3622222222222E-05  5.3622222222222E-05  5.3622222222222E-05  5.3622222222222E-05  5.3622222222222E-05  5.3622222222223E-05  5.3622222222222E-05  2.6811111111111E-05 
 1.9088860179425E-01  1.9088860179425E-01  1.9088860179425E-01  1.9088860179425E-01  1.9088860179425E-01  1.9088860179425E-01  1.9088860179425E-01  1.9088860179425E-01  1.9088860179425E-01  1.9088860179425E-01 
 0.0000000000000E+00  0.0000000000000E+00  0.0000000000000E+00  0.0000000000000E+00  0.0000000000000E+00  0.0000000000000E+00  0.0000000000000E+00  0.0000000000000E+00  0.0000000000000E+00  0.0000000000000E+00 
 0.0000000000000E+00  0.0000000000000E+00  0.0000000000000E+00  0.0000000000000E+00  0.0000000000000E+00  0.0000000000000E+00  0.0000000000000E+00  0.0000000000000E+00  0.0000000000000E+00  0.0000000000000E+00 
 0.0000000000000E+00  0.0000000000000E+00  0.0000000000000E+00  0.0000000000000E+00  0.0000000000000E+00  0.0000000000000E+00  0.0000000000000E+00  0.0000000000000E+00  0.0000000000000E+00  0.0000000000000E+00 
 0.0000000000000E+00  0.0000000000000E+00  0.0000000000000E+00  0.0000000000000E+00  0.0000000000000E+00  0.0000000000000E+00  0.0000000000000E+00  0.0000000000000E+00  0.0000000000000E+00  0.0000000000000E+00 
ZONE T = "SEP , 1.0000E-08", I = 10, SOLUTIONTIME = 1.000000E-08
ZONETYPE = ORDERED
DATAPACKING = BLOCK
STRANDID = 2
 7.8740000000000E-04  8.4102222222222E-04  8.9464444444444E-04  9.4826666666667E-04  1.0018888888889E-03  1.0555111111111E-03  1.1091333333333E-03  1.1627555555556E-03  1.2163777777778E-03  1.2700000000000E-03 
 1.0376515137315E-08  1.0376515137315E-08  1.0376515137315E-08  1.0376515137315E-08  1.0376515137315E-08  1.0376515137315E-08  1.0376515137315E-08  1.0376515137315E-08  1.0376515137315E-08  9.8003663455722E-09 
 9.1999999999986E-01  9.2000000000000E-01  9.2000000000000E-01  9.2000000000000E-01  9.2000000000000E-01  9.2000000000000E-01  9.2000000000000E-01  9.2000000000000E-01  9.2000000000000E-01  9.2000000000016E-01 
 4.0000000000072E-02  4.0000000000000E-02  4.0000000000000E-02  4.0000000000000E-02  4.0000000000000E-02  4.0000000000000E-02  4.0000000000000E-02  4.0000000000000E-02  4.0000000000000E-02  3.9999999999921E-02 
 4.0000000000072E-02  4.0000000000000E-02  4.0000000000000E-02  4.0000000000000E-02  4.0000000000000E-02  4.0000000000000E-02  4.0000000000000E-02  4.0000000000000E-02  4.0000000000000E-02  3.9999999999921E-02 
 3.5028098627038E-02  3.5028074074265E-02  3.5028049521456E-02  3.5028024968558E-02  3.5028000415749E-02  3.5027975862938E-02  3.5027951310163E-02  3.5027926757356E-02  3.5027902204456E-02  3.5027877651645E-02 
 8.0911139820575E-01  8.0911139820575E-01  8.0911139820575E-01  8.0911139820575E-01  8.0911139820575E-01  8.0911139820575E-01  8.0911139820575E-01  8.0911139820575E-01  8.0911139820575E-01  8.0911139820575E-01 
 2.6811111111111E-05  5.3622222222222E-05  5.3622222222222E-05  5.3622222222222E-05  5.3622222222222E-05  5.3622222222222E-05  5.3622222222222E-05  5.3622222222223E-05  5.3622222222222E-05  2.6811111111111E-05 
 1.9088860179425E-01  1.9088860179425E-01  1.9088860179425E-01  1.9088860179425E-01  1.9088860179425E-01  1.9088860179425E-01  1.9088860179425E-01  1.9088860179425E-01  1.9088860179425E-01  1.9088860179425E-01 
 6.8421535740868E-11  6.8421636059745E-11  6.8421980718042E-11  6.8421980698705E-11  6.8421741193469E-11  6.8421646327513E-11  6.8421634706135E-11  6.8421980718066E-11  6.8421992320074E-11  6.8421746008249E-11 
 6.8421535740868E-03  6.8421636059745E-03  6.8421980718042E-03  6.8421980698705E-03  6.8421741193469E-03  6.8421646327513E-03  6.8421634706135E-03  6.8421980718066E-03  6.8421992320074E-03  6.8421746008249E-03 
 6.8421535740868E-03  6.8421636059745E-03  6.8421980718042E-03  6.8421980698705E-03  6.8421741193469E-03  6.8421646327513E-03  6.8421634706135E-03  6.8421980718066E-03  6.8421992320074E-03  6.8421746008249E-03 
 0.0000000000000E+00  0.0000000000000E+00  0.0000000000000E+00  0.0000000000000E+00  0.0000000000000E+00  0.0000000000000E+00  0.0000000000000E+00  0.0000000000000E+00  0.0000000000000E+00  0.0000000000000E+00 
ZONE T = "SEP , 2.0000E-08", I = 10, SOLUTIONTIME = 2.000000E-08
ZONETYPE = ORDERED
DATAPACKING = BLOCK
STRANDID = 2
 7.8740000000000E-04  8.4102222222222E-04  8.9464444444444E-04  9.4826666666667E-04  1.0018888888889E-03  1.0555111111111E-03  1.1091333333333E-03  1.1627555555556E-03  1.2163777777778E-03  1.2700000000000E-03 
 1.0374795577564E-08  1.0374795577564E-08  1.0374795577564E-08  1.0374795577564E-08  1.0374795577564E-08  1.0374795577564E-08  1.0374795577564E-08  1.0374795577564E-08  1.0374795577564E-08  9.7986414445500E-09 
 9.1999999999971E-01  9.2000000000000E-01  9.2000000000000E-01  9.2000000000000E-01  9.2000000000000E-01  9.2000000000000E-01  9.2000000000000E-01  9.2000000000000E-01  9.2000000000000E-01  9.2000000000032E-01 
 4.0000000000143E-02  4.0000000000000E-02  4.0000000000000E-02  4.0000000000000E-02  4.0000000000000E-02  4.0000000000000E-02  4.0000000000000E-02  4.0000000000000E-02  4.0000000000000E-02  3.9999999999842E-02 
 4.0000000000143E-02  4.0000000000000E-02  4.0000000000000E-02  4.0000000000000E-02  4.0000000000000E-02  4.0000000000000E-02  4.0000000000000E-02  4.0000000000000E-02  4.0000000000000E-02  3.9999999999842E-02 
 3.5028847906841E-02  3.5028823353785E-02  3.5028798800729E-02  3.5028774247672E-02  3.5028749694616E-02  3.5028725141560E-02  3.5028700588503E-02  3.5028676035447E-02  3.5028651482391E-02  3.5028626929334E-02 
 8.0911139820575E-01  8.0911139820575E-01  8.0911139820575E-01  8.0911139820575E-01  8.0911139820575E-01  8.0911139820575E-01  8.0911139820575E-01  8.0911139820575E-01  8.0911139820575E-01  8.0911139820575E-01 
 2.6811111111111E-05  5.3622222222222E-05  5.3622222222222E-05  5.3622222222222E-05  5.3622222222222E-05  5.3622222222222E-05  5.3622222222222E-05  5.3622222222223E-05  5.3622222222222E-05  2.6811111111111E-05 
 1.9088860179425E-01  1.9088860179425E-01  1.9088860179425E-01  1.9088860179425E-01  1.9088860179425E-01  1.9088860179425E-01  1.9088860179425E-01  1.9088860179425E-01  1.9088860179425E-01  1.9088860179425E-01 
 1.3684464839931E-10  1.3684474871813E-10  1.3684509337636E-10  1.3684509335703E-10  1.3684485385179E-10  1.3684475898583E-10  1.3684474738379E-10  1.3684509339572E-10  1.3684510497833E-10  1.3684485866644E-10 
 6.8423112658444E-03  6.8423112658382E-03  6.8423112658321E-03  6.8423112658321E-03  6.8423112658321E-03  6.8423112658321E-03  6.8423112677658E-03  6.8423112677658E-03  6.8423112658254E-03  6.8423112658186E-03 
 6.8423112658444E-03  6.8423112658382E-03  6.8423112658321E-03  6.8423112658321E-03  6.8423112658321E-03  6.8423112658321E-03  6.8423112677658E-03  6.8423112677658E-03  6.8423112658254E-03  6.8423112658186E-03 
 0.0000000000000E+00  0.0000000000000E+00  0.0000000000000E+00  0.0000000000000E+00  0.0000000000000E+00  0.0000000000000E+00  0.0000000000000E+00  0.0000000000000E+00  0.0000000000000E+00  0.0000000000000E+00 
ZONE T = "SEP , 3.0000E-08", I = 10, SOLUTIONTIME = 3.000000E-08
ZONETYPE = ORDERED
DATAPACKING = BLOCK
STRANDID = 2
 7.8740000000000E-04  8.4102222222222E-04  8.9464444444444E-04  9.4826666666667E-04  1.0018888888889E-03  1.0555111111111E-03  1.1091333333333E-03  1.1627555555556E-03  1.2163777777778E-03  1.2700000000000E-03 
 1.0374613973642E-08  1.0374613973642E-08  1.0374613973642E-08  1.0374613973642E-08  1.0374613973642E-08  1.0374613973642E-08  1.0374613973642E-08  1.0374613973642E-08  1.0374613973642E-08  9.7979150290382E-09 
 9.1999999999957E-01  9.2000000000000E-01  9.2000000000000E-01  9.2000000000000E-01  9.2000000000000E-01  9.2000000000000E-01  9.2000000000000E-01  9.2000000000000E-01  9.2000000000000E-01  9.2000000000047E-01 
 4.0000000000215E-02  4.0000000000000E-02  4.0000000000000E-02  4.0000000000000E-02  4.0000000000000E-02  4.0000000000000E-02  4.0000000000000E-02  4.0000000000000E-02  4.0000000000000E-02  3.9999999999763E-02 
 4.0000000000215E-02  4.0000000000000E-02  4.0000000000000E-02  4.0000000000000E-02  4.0000000000000E-02  4.0000000000000E-02  4.0000000000000E-02  4.0000000000000E-02  4.0000000000000E-02  3.9999999999763E-02 
 3.5028847906648E-02  3.5028823353592E-02  3.5028798800536E-02  3.5028774247479E-02  3.5028749694423E-02  3.5028725141367E-02  3.5028700588310E-02  3.5028676035254E-02  3.5028651482198E-02  3.5028626929141E-02 
 8.0911139820575E-01  8.0911139820575E-01  8.0911139820575E-01  8.0911139820575E-01  8.0911139820575E-01  8.0911139820575E-01  8.0911139820575E-01  8.0911139820575E-01  8.0911139820575E-01  8.0911139820575E-01 
 2.6811111111111E-05  5.3622222222222E-05  5.3622222222222E-05  5.3622222222222E-05  5.3622222222222E-05  5.3622222222222E-05  5.3622222222222E-05  5.3622222222223E-05  5.3622222222222E-05  2.6811111111111E-05 
 1.9088860179425E-01  1.9088860179425E-01  1.9088860179425E-01  1.9088860179425E-01  1.9088860179425E-01  1.9088860179425E-01  1.9088860179425E-01  1.9088860179425E-01  1.9088860179425E-01  1.9088860179425E-01 
 2.0526776105782E-10  2.0526786137654E-10  2.0526820603468E-10  2.0526820601535E-10  2.0526796651011E-10  2.0526787166349E-10  2.0526786006145E-10  2.0526820605404E-10  2.0526821763655E-10  2.0526797132455E-10 
 6.8423112658505E-03  6.8423112658413E-03  6.8423112658321E-03  6.8423112658321E-03  6.8423112658321E-03  6.8423112677658E-03  6.8423112677658E-03  6.8423112658321E-03  6.8423112658220E-03  6.8423112658119E-03 
 6.8423112658505E-03  6.8423112658413E-03  6.8423112658321E-03  6.8423112658321E-03  6.8423112658321E-03  6.8423112677658E-03  6.8423112677658E-03  6.8423112658321E-03  6.8423112658220E-03  6.8423112658119E-03 
 0.0000000000000E+00  0.0000000000000E+00  0.0000000000000E+00  0.0000000000000E+00  0.0000000000000E+00  0.0000000000000E+00  0.0000000000000E+00  0.0000000000000E+00  0.0000000000000E+00  0.0000000000000E+00 
ZONE T = "SEP , 4.0000E-08", I = 10, SOLUTIONTIME = 4.000000E-08
ZONETYPE = ORDERED
DATAPACKING = BLOCK
STRANDID = 2
 7.8740000000000E-04  8.4102222222222E-04  8.9464444444444E-04  9.4826666666667E-04  1.0018888888889E-03  1.0555111111111E-03  1.1091333333333E-03  1.1627555555556E-03  1.2163777777778E-03  1.2700000000000E-03 
 1.0376974823816E-08  1.0376974823816E-08  1.0376974823816E-08  1.0376974823816E-08  1.0376974823816E-08  1.0376974823816E-08  1.0376974823816E-08  1.0376974823816E-08  1.0376974823816E-08  9.8008206908044E-09 
 9.1999999999943E-01  9.2000000000000E-01  9.2000000000000E-01  9.2000000000000E-01  9.2000000000000E-01  9.2000000000000E-01  9.2000000000000E-01  9.2000000000000E-01  9.2000000000000E-01  9.2000000000063E-01 
 4.0000000000287E-02  4.0000000000000E-02  4.0000000000000E-02  4.0000000000000E-02  4.0000000000000E-02  4.0000000000000E-02  4.0000000000000E-02  4.0000000000000E-02  4.0000000000000E-02  3.9999999999684E-02 
 4.0000000000287E-02  4.0000000000000E-02  4.0000000000000E-02  4.0000000000000E-02  4.0000000000000E-02  4.0000000000000E-02  4.0000000000000E-02  4.0000000000000E-02  4.0000000000000E-02  3.9999999999684E-02 
 3.5028847906460E-02  3.5028823353403E-02  3.5028798800347E-02  3.5028774247291E-02  3.5028749694234E-02  3.5028725141178E-02  3.5028700588122E-02  3.5028676035065E-02  3.5028651482009E-02  3.5028626928953E-02 
 8.0911139820575E-01  8.0911139820575E-01  8.0911139820575E-01  8.0911139820575E-01  8.0911139820575E-01  8.0911139820575E-01  8.0911139820575E-01  8.0911139820575E-01  8.0911139820575E-01  8.0911139820575E-01 
 2.6811111111111E-05  5.3622222222222E-05  5.3622222222222E-05  5.3622222222222E-05  5.3622222222222E-05  5.3622222222222E-05  5.3622222222222E-05  5.3622222222223E-05  5.3622222222222E-05  2.6811111111111E-05 
 1.9088860179425E-01  1.9088860179425E-01  1.9088860179425E-01  1.9088860179425E-01  1.9088860179425E-01  1.9088860179425E-01  1.9088860179425E-01  1.9088860179425E-01  1.9088860179425E-01  1.9088860179425E-01 
 2.7369087371638E-10  2.7369097403498E-10  2.7369131869301E-10  2.7369131867367E-10  2.7369107916843E-10  2.7369098432181E-10  2.7369097271977E-10  2.7369131871237E-10  2.7369133031407E-10  2.7369108402128E-10 
 6.8423112658567E-03  6.8423112658444E-03  6.8423112658321E-03  6.8423112658321E-03  6.8423112658321E-03  6.8423112658321E-03  6.8423112658321E-03  6.8423112658321E-03  6.8423112677523E-03  6.8423112696725E-03 
 6.8423112658567E-03  6.8423112658444E-03  6.8423112658321E-03  6.8423112658321E-03  6.8423112658321E-03  6.8423112658321E-03  6.8423112658321E-03  6.8423112658321E-03  6.8423112677523E-03  6.8423112696725E-03 
 0.0000000000000E+00  0.0000000000000E+00  0.0000000000000E+00  0.0000000000000E+00  0.0000000000000E+00  0.0000000000000E+00  0.0000000000000E+00  0.0000000000000E+00  0.0000000000000E+00  0.0000000000000E+00 
ZONE T = "SEP , 5.5000E-08", I = 10, SOLUTIONTIME = 5.500000E-08
ZONETYPE = ORDERED
DATAPACKING = BLOCK
STRANDID = 2
 7.8740000000000E-04  8.4102222222222E-04  8.9464444444444E-04  9.4826666666667E-04  1.0018888888889E-03  1.0555111111111E-03  1.1091333333333E-03  1.1627555555556E-03  1.2163777777778E-03  1.2700000000000E-03 
 1.0377095892998E-08  1.0377095892998E-08  1.0377095892998E-08  1.0377095892998E-08  1.0377095892997E-08  1.0377095892997E-08  1.0377095892997E-08  1.0377095892997E-08  1.0377095892997E-08  9.8013049677154E-09 
 9.1999999999921E-01  9.2000000000000E-01  9.2000000000000E-01  9.2000000000000E-01  9.2000000000000E-01  9.2000000000000E-01  9.2000000000000E-01  9.2000000000000E-01  9.2000000000000E-01  9.2000000000087E-01 
 4.0000000000394E-02  4.0000000000000E-02  4.0000000000000E-02  4.0000000000000E-02  4.0000000000000E-02  4.0000000000000E-02  4.0000000000000E-02  4.0000000000000E-02  4.0000000000000E-02  3.9999999999566E-02 
 4.0000000000394E-02  4.0000000000000E-02  4.0000000000000E-02  4.0000000000000E-02  4.0000000000000E-02  4.0000000000000E-02  4.0000000000000E-02  4.0000000000000E-02  4.0000000000000E-02  3.9999999999566E-02 
 3.5028847906246E-02  3.5028823353189E-02  3.5028798800133E-02  3.5028774247077E-02  3.5028749694020E-02  3.5028725140964E-02  3.5028700587908E-02  3.5028676034851E-02  3.5028651481795E-02  3.5028626928739E-02 
 8.0911139820575E-01  8.0911139820575E-01  8.0911139820575E-01  8.0911139820575E-01  8.0911139820575E-01  8.0911139820575E-01  8.0911139820575E-01  8.0911139820575E-01  8.0911139820575E-01  8.0911139820575E-01 
 2.6811111111111E-05  5.3622222222222E-05  5.3622222222222E-05  5.3622222222222E-05  5.3622222222222E-05  5.3622222222222E-05  5.3622222222222E-05  5.3622222222223E-05  5.3622222222222E-05  2.6811111111111E-05 
 1.9088860179425E-01  1.9088860179425E-01  1.9088860179425E-01  1.9088860179425E-01  1.9088860179425E-01  1.9088860179425E-01  1.9088860179425E-01  1.9088860179425E-01  1.9088860179425E-01  1.9088860179425E-01 
 3.7632554270437E-10  3.7632564302272E-10  3.7632598770949E-10  3.7632598769016E-10  3.7632574815591E-10  3.7632565330930E-10  3.7632564170726E-10  3.7632598769985E-10  3.7632599930127E-10  3.7632575300820E-10 
 6.8423112658659E-03  6.8423112658490E-03  6.8423112677658E-03  6.8423112677658E-03  6.8423112658321E-03  6.8423112658321E-03  6.8423112658321E-03  6.8423112658321E-03  6.8423112658136E-03  6.8423112657950E-03 
 6.8423112658659E-03  6.8423112658490E-03  6.8423112677658E-03  6.8423112677658E-03  6.8423112658321E-03  6.8423112658321E-03  6.8423112658321E-03  6.8423112658321E-03  6.8423112658136E-03  6.8423112657950E-03 
 0.0000000000000E+00  0.0000000000000E+00  0.0000000000000E+00  0.0000000000000E+00  0.0000000000000E+00  0.0000000000000E+00  0.0000000000000E+00  0.0000000000000E+00  0.0000000000000E+00  0.0000000000000E+00 
ZONE T = "SEP , 7.7500E-08", I = 10, SOLUTIONTIME = 7.750000E-08
ZONETYPE = ORDERED
DATAPACKING = BLOCK
STRANDID = 2
 7.8740000000000E-04  8.4102222222222E-04  8.9464444444444E-04  9.4826666666667E-04  1.0018888888889E-03  1.0555111111111E-03  1.1091333333333E-03  1.1627555555556E-03  1.2163777777778E-03  1.2700000000000E-03 
 1.0375239497848E-08  1.0375239497848E-08  1.0375239497848E-08  1.0375239497848E-08  1.0375239497848E-08  1.0375239497848E-08  1.0375239497848E-08  1.0375239497848E-08  1.0375239497848E-08  9.7990853648402E-09 
 9.1999999999889E-01  9.2000000000000E-01  9.2000000000000E-01  9.2000000000000E-01  9.2000000000000E-01  9.2000000000000E-01  9.2000000000000E-01  9.2000000000000E-01  9.2000000000000E-01  9.2000000000122E-01 
 4.0000000000555E-02  4.0000000000000E-02  4.0000000000000E-02  4.0000000000000E-02  4.0000000000000E-02  4.0000000000000E-02  4.0000000000000E-02  4.0000000000000E-02  4.0000000000000E-02  3.9999999999388E-02 
 4.0000000000555E-02  4.0000000000000E-02  4.0000000000000E-02  4.0000000000000E-02  4.0000000000000E-02  4.0000000000000E-02  4.0000000000000E-02  4.0000000000000E-02  4.0000000000000E-02  3.9999999999388E-02 
 3.5028847905892E-02  3.5028823352835E-02  3.5028798799779E-02  3.5028774246723E-02  3.5028749693666E-02  3.5028725140610E-02  3.5028700587554E-02  3.5028676034497E-02  3.5028651481441E-02  3.5028626928385E-02 
 8.0911139820575E-01  8.0911139820575E-01  8.0911139820575E-01  8.0911139820575E-01  8.0911139820575E-01  8.0911139820575E-01  8.0911139820575E-01  8.0911139820575E-01  8.0911139820575E-01  8.0911139820575E-01 
 2.6811111111111E-05  5.3622222222222E-05  5.3622222222222E-05  5.3622222222222E-05  5.3622222222222E-05  5.3622222222222E-05  5.3622222222222E-05  5.3622222222223E-05  5.3622222222222E-05  2.6811111111111E-05 
 1.9088860179425E-01  1.9088860179425E-01  1.9088860179425E-01  1.9088860179425E-01  1.9088860179425E-01  1.9088860179425E-01  1.9088860179425E-01  1.9088860179425E-01  1.9088860179425E-01  1.9088860179425E-01 
 5.3027754618666E-10  5.3027764650448E-10  5.3027799119072E-10  5.3027799117138E-10  5.3027775163714E-10  5.3027765679052E-10  5.3027764518848E-10  5.3027799118107E-10  5.3027800278191E-10  5.3027775648825E-10 
 6.8423112658797E-03  6.8423112658559E-03  6.8423112658321E-03  6.8423112658321E-03  6.8423112658321E-03  6.8423112658321E-03  6.8423112658321E-03  6.8423112658321E-03  6.8423112658060E-03  6.8423112657798E-03 
 6.8423112658797E-03  6.8423112658559E-03  6.8423112658321E-03  6.8423112658321E-03  6.8423112658321E-03  6.8423112658321E-03  6.8423112658321E-03  6.8423112658321E-03  6.8423112658060E-03  6.8423112657798E-03 
 0.0000000000000E+00  0.0000000000000E+00  0.0000000000000E+00  0.0000000000000E+00  0.0000000000000E+00  0.0000000000000E+00  0.0000000000000E+00  0.0000000000000E+00  0.0000000000000E+00  0.0000000000000E+00 
ZONE T = "SEP , 1.1125E-07", I = 10, SOLUTIONTIME = 1.112500E-07
ZONETYPE = ORDERED
DATAPACKING = BLOCK
STRANDID = 2
 7.8740000000000E-04  8.4102222222222E-04  8.9464444444444E-04  9.4826666666667E-04  1.0018888888889E-03  1.0555111111111E-03  1.1091333333333E-03  1.1627555555556E-03  1.2163777777778E-03  1.2700000000000E-03 
 1.0377526361174E-08  1.0377526361174E-08  1.0377526361174E-08  1.0377526361174E-08  1.0377526361174E-08  1.0377526361174E-08  1.0377526361174E-08  1.0377526361174E-08  1.0377526361174E-08  9.8015336538266E-09 
 9.1999999999841E-01  9.2000000000000E-01  9.2000000000000E-01  9.2000000000000E-01  9.2000000000000E-01  9.2000000000000E-01  9.2000000000000E-01  9.2000000000000E-01  9.2000000000000E-01  9.2000000000176E-01 
 4.0000000000797E-02  4.0000000000000E-02  4.0000000000000E-02  4.0000000000000E-02  4.0000000000000E-02  4.0000000000000E-02  4.0000000000000E-02  4.0000000000000E-02  4.0000000000000E-02  3.9999999999121E-02 
 4.0000000000797E-02  4.0000000000000E-02  4.0000000000000E-02  4.0000000000000E-02  4.0000000000000E-02  4.0000000000000E-02  4.0000000000000E-02  4.0000000000000E-02  4.0000000000000E-02  3.9999999999121E-02 
 3.5028847905359E-02  3.5028823352303E-02  3.5028798799246E-02  3.5028774246190E-02  3.5028749693134E-02  3.5028725140077E-02  3.5028700587021E-02  3.5028676033965E-02  3.5028651480908E-02  3.5028626927852E-02 
 8.0911139820575E-01  8.0911139820575E-01  8.0911139820575E-01  8.0911139820575E-01  8.0911139820575E-01  8.0911139820575E-01  8.0911139820575E-01  8.0911139820575E-01  8.0911139820575E-01  8.0911139820575E-01 
 2.6811111111111E-05  5.3622222222222E-05  5.3622222222222E-05  5.3622222222222E-05  5.3622222222222E-05  5.3622222222222E-05  5.3622222222222E-05  5.3622222222223E-05  5.3622222222222E-05  2.6811111111111E-05 
 1.9088860179425E-01  1.9088860179425E-01  1.9088860179425E-01  1.9088860179425E-01  1.9088860179425E-01  1.9088860179425E-01  1.9088860179425E-01  1.9088860179425E-01  1.9088860179425E-01  1.9088860179425E-01 
 7.6120555141080E-10  7.6120565172746E-10  7.6120599641255E-10  7.6120599639321E-10  7.6120575685897E-10  7.6120566201235E-10  7.6120565041031E-10  7.6120599640290E-10  7.6120600800247E-10  7.6120576170755E-10 
 6.8423112659003E-03  6.8423112658662E-03  6.8423112658321E-03  6.8423112658321E-03  6.8423112658321E-03  6.8423112658321E-03  6.8423112658321E-03  6.8423112658321E-03  6.8423112657946E-03  6.8423112657570E-03 
 6.8423112659003E-03  6.8423112658662E-03  6.8423112658321E-03  6.8423112658321E-03  6.8423112658321E-03  6.8423112658321E-03  6.8423112658321E-03  6.8423112658321E-03  6.8423112657946E-03  6.8423112657570E-03 
 0.0000000000000E+00  0.0000000000000E+00  0.0000000000000E+00  0.0000000000000E+00  0.0000000000000E+00  0.0000000000000E+00  0.0000000000000E+00  0.0000000000000E+00  0.0000000000000E+00  0.0000000000000E+00 
ZONE T = "SEP , 1.6188E-07", I = 10, SOLUTIONTIME = 1.618750E-07
ZONETYPE = ORDERED
DATAPACKING = BLOCK
STRANDID = 2
 7.8740000000000E-04  8.4102222222222E-04  8.9464444444444E-04  9.4826666666667E-04  1.0018888888889E-03  1.0555111111111E-03  1.1091333333333E-03  1.1627555555556E-03  1.2163777777778E-03  1.2700000000000E-03 
 1.0376001785308E-08  1.0376001785308E-08  1.0376001785308E-08  1.0376001785308E-08  1.0376001785308E-08  1.0376001785308E-08  1.0376001785308E-08  1.0376001785308E-08  1.0376001785308E-08  9.7996324181007E-09 
 9.1999999999768E-01  9.2000000000000E-01  9.2000000000000E-01  9.2000000000000E-01  9.2000000000000E-01  9.2000000000000E-01  9.2000000000000E-01  9.2000000000000E-01  9.2000000000000E-01  9.2000000000256E-01 
 4.0000000001160E-02  4.0000000000000E-02  4.0000000000000E-02  4.0000000000000E-02  4.0000000000000E-02  4.0000000000000E-02  4.0000000000000E-02  4.0000000000000E-02  4.0000000000000E-02  3.9999999998721E-02 
 4.0000000001160E-02  4.0000000000000E-02  4.0000000000000E-02  4.0000000000000E-02  4.0000000000000E-02  4.0000000000000E-02  4.0000000000000E-02  4.0000000000000E-02  4.0000000000000E-02  3.9999999998721E-02 
 3.5028847904558E-02  3.5028823351502E-02  3.5028798798446E-02  3.5028774245389E-02  3.5028749692333E-02  3.5028725139277E-02  3.5028700586220E-02  3.5028676033164E-02  3.5028651480108E-02  3.5028626927051E-02 
 8.0911139820575E-01  8.0911139820575E-01  8.0911139820575E-01  8.0911139820575E-01  8.0911139820575E-01  8.0911139820575E-01  8.0911139820575E-01  8.0911139820575E-01  8.0911139820575E-01  8.0911139820575E-01 
 2.6811111111111E-05  5.3622222222222E-05  5.3622222222222E-05  5.3622222222222E-05  5.3622222222222E-05  5.3622222222222E-05  5.3622222222222E-05  5.3622222222223E-05  5.3622222222222E-05  2.6811111111111E-05 
 1.9088860179425E-01  1.9088860179425E-01  1.9088860179425E-01  1.9088860179425E-01  1.9088860179425E-01  1.9088860179425E-01  1.9088860179425E-01  1.9088860179425E-01  1.9088860179425E-01  1.9088860179425E-01 
 1.1075975592486E-09  1.1075976595627E-09  1.1075980042453E-09  1.1075980042260E-09  1.1075977646917E-09  1.1075976697472E-09  1.1075976581452E-09  1.1075980042356E-09  1.1075980158325E-09  1.1075977695348E-09 
 6.8423112659314E-03  6.8423112658817E-03  6.8423112658321E-03  6.8423112658321E-03  6.8423112658321E-03  6.8423112638985E-03  6.8423112638985E-03  6.8423112658321E-03  6.8423112657774E-03  6.8423112657228E-03 
 6.8423112659314E-03  6.8423112658817E-03  6.8423112658321E-03  6.8423112658321E-03  6.8423112658321E-03  6.8423112638985E-03  6.8423112638985E-03  6.8423112658321E-03  6.8423112657774E-03  6.8423112657228E-03 
 0.0000000000000E+00  0.0000000000000E+00  0.0000000000000E+00  0.0000000000000E+00  0.0000000000000E+00  0.0000000000000E+00  0.0000000000000E+00  0.0000000000000E+00  0.0000000000000E+00  0.0000000000000E+00 
ZONE T = "SEP , 2.3781E-07", I = 10, SOLUTIONTIME = 2.378125E-07
ZONETYPE = ORDERED
DATAPACKING = BLOCK
STRANDID = 2
 7.8740000000000E-04  8.4102222222222E-04  8.9464444444444E-04  9.4826666666667E-04  1.0018888888889E-03  1.0555111111111E-03  1.1091333333333E-03  1.1627555555556E-03  1.2163777777778E-03  1.2700000000000E-03 
 1.0377376892428E-08  1.0377376892428E-08  1.0377376892428E-08  1.0377376892428E-08  1.0377376892428E-08  1.0377376892428E-08  1.0377376892428E-08  1.0377376892428E-08  1.0377376892428E-08  9.8012945041744E-09 
 9.1999999999659E-01  9.2000000000000E-01  9.2000000000000E-01  9.2000000000000E-01  9.2000000000000E-01  9.2000000000000E-01  9.2000000000000E-01  9.2000000000000E-01  9.2000000000000E-01  9.2000000000376E-01 
 4.0000000001704E-02  4.0000000000001E-02  4.0000000000000E-02  4.0000000000000E-02  4.0000000000000E-02  4.0000000000000E-02  4.0000000000000E-02  4.0000000000000E-02  3.9999999999999E-02  3.9999999998122E-02 
 4.0000000001704E-02  4.0000000000001E-02  4.0000000000000E-02  4.0000000000000E-02  4.0000000000000E-02  4.0000000000000E-02  4.0000000000000E-02  4.0000000000000E-02  3.9999999999999E-02  3.9999999998122E-02 
 3.5028847903361E-02  3.5028823350305E-02  3.5028798797249E-02  3.5028774244192E-02  3.5028749691136E-02  3.5028725138080E-02  3.5028700585023E-02  3.5028676031967E-02  3.5028651478911E-02  3.5028626925854E-02 
 8.0911139820575E-01  8.0911139820575E-01  8.0911139820575E-01  8.0911139820575E-01  8.0911139820575E-01  8.0911139820575E-01  8.0911139820575E-01  8.0911139820575E-01  8.0911139820575E-01  8.0911139820575E-01 
 2.6811111111111E-05  5.3622222222222E-05  5.3622222222222E-05  5.3622222222222E-05  5.3622222222222E-05  5.3622222222222E-05  5.3622222222222E-05  5.3622222222223E-05  5.3622222222222E-05  2.6811111111111E-05 
 1.9088860179425E-01  1.9088860179425E-01  1.9088860179425E-01  1.9088860179425E-01  1.9088860179425E-01  1.9088860179425E-01  1.9088860179425E-01  1.9088860179425E-01  1.9088860179425E-01  1.9088860179425E-01 
 1.6271855710088E-09  1.6271856713174E-09  1.6271860158476E-09  1.6271860158283E-09  1.6271857764408E-09  1.6271856814963E-09  1.6271856698943E-09  1.6271860158379E-09  1.6271860274286E-09  1.6271857812717E-09 
 6.8423112659779E-03  6.8423112659050E-03  6.8423112638985E-03  6.8423112638984E-03  6.8423112658321E-03  6.8423112658321E-03  6.8423112658321E-03  6.8423112638983E-03  6.8423112638181E-03  6.8423112656715E-03 
 6.8423112659779E-03  6.8423112659050E-03  6.8423112638985E-03  6.8423112638984E-03  6.8423112658321E-03  6.8423112658321E-03  6.8423112658321E-03  6.8423112638983E-03  6.8423112638181E-03  6.8423112656715E-03 
 0.0000000000000E+00  0.0000000000000E+00  0.0000000000000E+00  0.0000000000000E+00  0.0000000000000E+00  0.0000000000000E+00  0.0000000000000E+00  0.0000000000000E+00  0.0000000000000E+00  0.0000000000000E+00 
ZONE T = "SEP , 3.5172E-07", I = 10, SOLUTIONTIME = 3.517188E-07
ZONETYPE = ORDERED
DATAPACKING = BLOCK
STRANDID = 2
 7.8740000000000E-04  8.4102222222222E-04  8.9464444444444E-04  9.4826666666667E-04  1.0018888888889E-03  1.0555111111111E-03  1.1091333333333E-03  1.1627555555556E-03  1.2163777777778E-03  1.2700000000000E-03 
 1.0376595671476E-08  1.0376595671476E-08  1.0376595671476E-08  1.0376595671476E-08  1.0376595671476E-08  1.0376595671476E-08  1.0376595671476E-08  1.0376595671476E-08  1.0376531898377E-08  9.8003777653985E-09 
 9.1999999999496E-01  9.2000000000000E-01  9.2000000000000E-01  9.2000000000000E-01  9.2000000000000E-01  9.2000000000000E-01  9.2000000000000E-01  9.2000000000000E-01  9.2000000000000E-01  9.2000000000555E-01 
 4.0000000002519E-02  4.0000000000002E-02  4.0000000000000E-02  4.0000000000000E-02  4.0000000000000E-02  4.0000000000000E-02  4.0000000000000E-02  4.0000000000000E-02  3.9999999999998E-02  3.9999999997223E-02 