TITLE = "Solution on Domain BulkDomain1D_2"
VARIABLES = "x [m]"  
"Vel_axial(0)" 	"MF_sp(ECDMC)" 	"MF_sp(Li+)" 	"MF_sp(PF6-)" 	"Volt(Electroly)" 	"Volt(CathodeVo)" 	
"Potential Drop Electrode-Electrolyte [V]" 	"Surf_0 Equilibrium Potential Drop Electrode-Electrolyte [V]" 	"Overpotential_0 [V]" 	"Current Source [A/m^2]" 	"Li+ flux [kmol/m^2/s]" 	"Electrolyte Current [A/m^2]" 	"Electrode Current [A/m^2]" 	
"Capacity discharged [A-s]" 	"Depth of discharge [-]" 	"Capacity remaining [A-s]" 	"Initial capacity [A-s]" 	"Porosity []" 	"Surface Area [m2/m2] (area per area)" 	"Specific current (per particle area) [A/m^2]" 	"Control volume thickness [m]" 	
"Moles LiCoO2 [mol/m^2] (per electrode area)" 	"Moles CoO2 [mol/m^2] (per electrode area)" 	

ZONE T = "t = 0 [s]" I = 10 SOLUTIONTIME = 0.0000000000000E+00
0.00127 	0 	0.92 	0.04 	0.04 	-0.07 	3.8 	
0 	0 	0 	0 	0 	0.119132 	0 	
0 	0 	0 	0 	0.35 	6.604 	-0.0360787 	3.38667e-05 	
0.000900955 	0.000600637 	
0.00133773 	0 	0.92 	0.04 	0.04 	-0.07 	3.8 	
0 	0 	0 	0 	0 	0 	-0 	
0 	0 	0 	0 	0.35 	13.208 	-0.0360787 	6.77333e-05 	
0.00180191 	0.00120127 	
0.00140547 	0 	0.92 	0.04 	0.04 	-0.07 	3.8 	
0 	0 	0 	0 	0 	0 	-0 	
0 	0 	0 	0 	0.35 	13.208 	-0.0360787 	6.77333e-05 	
0.00180191 	0.00120127 	
0.0014732 	0 	0.92 	0.04 	0.04 	-0.07 	3.8 	
0 	0 	0 	0 	0 	0 	-0 	
0 	0 	0 	0 	0.35 	13.208 	-0.0360787 	6.77333e-05 	
0.00180191 	0.00120127 	
0.00154093 	0 	0.92 	0.04 	0.04 	-0.07 	3.8 	
0 	0 	0 	0 	0 	0 	-0 	
0 	0 	0 	0 	0.35 	13.208 	-0.0360787 	6.77333e-05 	
0.00180191 	0.00120127 	
0.00160867 	0 	0.92 	0.04 	0.04 	-0.07 	3.8 	
0 	0 	0 	0 	0 	0 	-0 	
0 	0 	0 	0 	0.35 	13.208 	-0.0360787 	6.77333e-05 	
0.00180191 	0.00120127 	
0.0016764 	0 	0.92 	0.04 	0.04 	-0.07 	3.8 	
0 	0 	0 	0 	0 	0 	-0 	
0 	0 	0 	0 	0.35 	13.208 	-0.0360787 	6.77333e-05 	
0.00180191 	0.00120127 	
0.00174413 	0 	0.92 	0.04 	0.04 	-0.07 	3.8 	
0 	0 	0 	0 	0 	0 	-0 	
0 	0 	0 	0 	0.35 	13.208 	-0.0360787 	6.77333e-05 	
0.00180191 	0.00120127 	
0.00181187 	0 	0.92 	0.04 	0.04 	-0.07 	3.8 	
0 	0 	0 	0 	0 	0 	-0 	
0 	0 	0 	0 	0.35 	13.208 	-0.0360787 	6.77333e-05 	
0.00180191 	0.00120127 	
0.0018796 	0 	0.92 	0.04 	0.04 	-0.07 	3.8 	
0 	0 	0 	0 	0 	0 	0.119132 	
0 	0 	0 	0 	0.35 	6.604 	-0.0360787 	3.38667e-05 	
0.000900955 	0.000600637 	
ZONE T = "t = 1e-08 [s]" I = 10 SOLUTIONTIME = 1.0000000000000E-08
0.00127 	1.18517e-08 	0.92 	0.04 	0.04 	0.017974 	3.85054 	
3.87 	3.97141 	-0.101414 	-0.238264 	-0 	17.5697 	0.501796 	
-0 	7244.08 	123.46 	141.616 	0.35 	6.604 	-0.152112 	3.38667e-05 	
0.000900955 	0.000600637 	
0.00133773 	1.04579e-08 	0.92 	0.04 	0.04 	0.0179739 	3.85054 	
3.87 	3.97141 	-0.101414 	-0.476527 	-0 	16.0638 	2.00719 	
-0 	14488.2 	246.919 	283.231 	0.35 	13.208 	-0.152113 	6.77333e-05 	
0.00180191 	0.00120127 	
0.00140547 	9.06403e-09 	0.92 	0.04 	0.04 	0.0179738 	3.85054 	
3.87 	3.97141 	-0.101414 	-0.476527 	-0 	14.0566 	4.01443 	
-0 	14488.2 	246.919 	283.231 	0.35 	13.208 	-0.152119 	6.77333e-05 	
0.00180191 	0.00120127 	
0.0014732 	7.67007e-09 	0.92 	0.04 	0.04 	0.0179737 	3.85053 	
3.87 	3.97141 	-0.101414 	-0.476527 	-0 	12.0492 	6.02178 	
-0 	14488.2 	246.919 	283.231 	0.35 	13.208 	-0.152129 	6.77333e-05 	
0.00180191 	0.00120127 	
0.00154093 	6.27599e-09 	0.92 	0.04 	0.04 	0.0179736 	3.85053 	
3.87 	3.97141 	-0.101414 	-0.476527 	-0 	10.0417 	8.02928 	
-0 	14488.2 	246.919 	283.231 	0.35 	13.208 	-0.152143 	6.77333e-05 	
0.00180191 	0.00120127 	
0.00160867 	4.88174e-09 	0.92 	0.04 	0.04 	0.0179735 	3.85052 	
3.87 	3.97141 	-0.101414 	-0.476527 	-0 	8.03401 	10.037 	
-0 	14488.2 	246.919 	283.231 	0.35 	13.208 	-0.152161 	6.77333e-05 	
0.00180191 	0.00120127 	
0.0016764 	3.48729e-09 	0.92 	0.04 	0.04 	0.0179735 	3.85051 	
3.87 	3.97141 	-0.101414 	-0.476527 	-0 	6.02604 	12.045 	
-0 	14488.2 	246.919 	283.231 	0.35 	13.208 	-0.152183 	6.77333e-05 	
0.00180191 	0.00120127 	
0.00174413 	2.0926e-09 	0.92 	0.04 	0.04 	0.0179734 	3.85051 	
3.87 	3.97141 	-0.101414 	-0.476527 	-0 	4.01775 	14.0533 	
-0 	14488.2 	246.919 	283.231 	0.35 	13.208 	-0.152209 	6.77333e-05 	
0.00180191 	0.00120127 	
0.00181187 	6.97639e-10 	0.92 	0.04 	0.04 	0.0179734 	3.8505 	
3.87 	3.97141 	-0.101414 	-0.476527 	-0 	2.00909 	16.0619 	
-0 	14488.2 	246.919 	283.231 	0.35 	13.208 	-0.15224 	6.77333e-05 	
0.00180191 	0.00120127 	
0.0018796 	0 	0.92 	0.04 	0.04 	0.0179734 	3.85048 	
3.87 	3.97141 	-0.101414 	-0.238264 	-0 	0.502328 	17.5692 	
-0 	7244.08 	123.46 	141.616 	0.35 	6.604 	-0.152274 	3.38667e-05 	
0.000900955 	0.000600637 	
ZONE T = "t = 2e-08 [s]" I = 10 SOLUTIONTIME = 2.0000000000000E-08
0.00127 	9.79842e-09 	0.92 	0.04 	0.04 	0.0350294 	3.84178 	
3.83256 	3.97141 	-0.138849 	-1.00455 	8.84457e-08 	14.5258 	0.414886 	
2.51769e-11 	7244.08 	123.46 	141.616 	0.35 	6.604 	-0.12576 	3.38667e-05 	
0.000900955 	0.000600637 	
0.00133773 	8.64601e-09 	0.92 	0.04 	0.04 	0.0350293 	3.84178 	
3.83256 	3.97141 	-0.13885 	-2.00911 	7.8044e-08 	13.2807 	1.65955 	
5.03544e-11 	14488.2 	246.919 	283.231 	0.35 	13.208 	-0.125761 	6.77333e-05 	
0.00180191 	0.00120127 	
0.00140547 	7.49357e-09 	0.92 	0.04 	0.04 	0.0350292 	3.84178 	
3.83256 	3.97141 	-0.138852 	-2.00919 	6.7642e-08 	11.6211 	3.31914 	
5.03563e-11 	14488.2 	246.919 	283.231 	0.35 	13.208 	-0.125765 	6.77333e-05 	
0.00180191 	0.00120127 	
0.0014732 	6.34106e-09 	0.92 	0.04 	0.04 	0.0350291 	3.84178 	
3.83256 	3.97141 	-0.138855 	-2.00932 	5.72394e-08 	9.96148 	4.97879 	
5.03596e-11 	14488.2 	246.919 	283.231 	0.35 	13.208 	-0.125772 	6.77333e-05 	
0.00180191 	0.00120127 	
0.00154093 	5.18847e-09 	0.92 	0.04 	0.04 	0.0350291 	3.84177 	
3.83255 	3.97141 	-0.13886 	-2.0095 	4.68357e-08 	8.30172 	6.63856 	
5.03642e-11 	14488.2 	246.919 	283.231 	0.35 	13.208 	-0.125782 	6.77333e-05 	
0.00180191 	0.00120127 	
0.00160867 	4.03576e-09 	0.92 	0.04 	0.04 	0.035029 	3.84177 	
3.83255 	3.97141 	-0.138866 	-2.00974 	3.64309e-08 	6.64181 	8.29846 	
5.03702e-11 	14488.2 	246.919 	283.231 	0.35 	13.208 	-0.125794 	6.77333e-05 	
0.00180191 	0.00120127 	
0.0016764 	2.88292e-09 	0.92 	0.04 	0.04 	0.035029 	3.84176 	
3.83254 	3.97141 	-0.138873 	-2.01003 	2.60246e-08 	4.98172 	9.95855 	
5.03775e-11 	14488.2 	246.919 	283.231 	0.35 	13.208 	-0.125809 	6.77333e-05 	
0.00180191 	0.00120127 	
0.00174413 	1.72991e-09 	0.92 	0.04 	0.04 	0.035029 	3.84176 	
3.83253 	3.97141 	-0.138882 	-2.01038 	1.56164e-08 	3.32142 	11.6189 	
5.03861e-11 	14488.2 	246.919 	283.231 	0.35 	13.208 	-0.125827 	6.77333e-05 	
0.00180191 	0.00120127 	
0.00181187 	5.76707e-10 	0.92 	0.04 	0.04 	0.0350289 	3.84175 	
3.83252 	3.97141 	-0.138892 	-2.01078 	5.20626e-09 	1.66085 	13.2794 	
5.03962e-11 	14488.2 	246.919 	283.231 	0.35 	13.208 	-0.125847 	6.77333e-05 	
0.00180191 	0.00120127 	
0.0018796 	0 	0.92 	0.04 	0.04 	0.0350289 	3.84174 	
3.83251 	3.97141 	-0.138904 	-1.00562 	5.20626e-09 	0.415252 	14.5254 	
2.52038e-11 	7244.08 	123.46 	141.616 	0.35 	6.604 	-0.125871 	3.38667e-05 	
0.000900955 	0.000600637 	
ZONE T = "t = 3e-08 [s]" I = 10 SOLUTIONTIME = 3.0000000000000E-08
0.00127 	9.79135e-09 	0.92 	0.04 	0.04 	0.0350335 	3.84175 	
3.80675 	3.97141 	-0.16466 	-0.830521 	7.31227e-08 	14.5159 	0.414587 	
4.59923e-11 	7244.08 	123.46 	141.616 	0.35 	6.604 	-0.125844 	3.38667e-05 	
0.000900955 	0.000600637 	
0.00133773 	8.63977e-09 	0.92 	0.04 	0.04 	0.0350334 	3.84175 	
3.80675 	3.97141 	-0.164661 	-1.66106 	6.45225e-08 	13.2711 	1.65835 	
9.19855e-11 	14488.2 	246.919 	283.231 	0.35 	13.208 	-0.125846 	6.77333e-05 	
0.00180191 	0.00120127 	
0.00140547 	7.48816e-09 	0.92 	0.04 	0.04 	0.0350333 	3.84175 	
3.80675 	3.97141 	-0.164663 	-1.66111 	5.59221e-08 	11.6128 	3.31674 	
9.19887e-11 	14488.2 	246.919 	283.231 	0.35 	13.208 	-0.125849 	6.77333e-05 	
0.00180191 	0.00120127 	
0.0014732 	6.33649e-09 	0.92 	0.04 	0.04 	0.0350332 	3.84175 	
3.80675 	3.97141 	-0.164665 	-1.6612 	4.73213e-08 	9.95429 	4.9752 	
9.19942e-11 	14488.2 	246.919 	283.231 	0.35 	13.208 	-0.125856 	6.77333e-05 	
0.00180191 	0.00120127 	
0.00154093 	5.18472e-09 	0.92 	0.04 	0.04 	0.0350332 	3.84174 	
3.80675 	3.97141 	-0.164669 	-1.66132 	3.87199e-08 	8.29573 	6.63377 	
9.20019e-11 	14488.2 	246.919 	283.231 	0.35 	13.208 	-0.125866 	6.77333e-05 	
0.00180191 	0.00120127 	
0.00160867 	4.03285e-09 	0.92 	0.04 	0.04 	0.0350331 	3.84174 	
3.80674 	3.97141 	-0.164674 	-1.66149 	3.01176e-08 	6.63702 	8.29247 	
9.2012e-11 	14488.2 	246.919 	283.231 	0.35 	13.208 	-0.125878 	6.77333e-05 	
0.00180191 	0.00120127 	
0.0016764 	2.88084e-09 	0.92 	0.04 	0.04 	0.0350331 	3.84173 	
3.80673 	3.97141 	-0.16468 	-1.66168 	2.15143e-08 	4.97813 	9.95137 	
9.20243e-11 	14488.2 	246.919 	283.231 	0.35 	13.208 	-0.125893 	6.77333e-05 	
0.00180191 	0.00120127 	
0.00174413 	1.72866e-09 	0.92 	0.04 	0.04 	0.035033 	3.84173 	
3.80673 	3.97141 	-0.164688 	-1.66192 	1.29097e-08 	3.31902 	11.6105 	
9.20389e-11 	14488.2 	246.919 	283.231 	0.35 	13.208 	-0.125911 	6.77333e-05 	
0.00180191 	0.00120127 	
0.00181187 	5.76292e-10 	0.92 	0.04 	0.04 	0.035033 	3.84172 	
3.80672 	3.97141 	-0.164696 	-1.66219 	4.30379e-09 	1.65966 	13.2698 	
9.20557e-11 	14488.2 	246.919 	283.231 	0.35 	13.208 	-0.125932 	6.77333e-05 	
0.00180191 	0.00120127 	
0.0018796 	0 	0.92 	0.04 	0.04 	0.035033 	3.84171 	
3.80671 	3.97141 	-0.164706 	-0.831252 	4.30379e-09 	0.414953 	14.5155 	
4.60374e-11 	7244.08 	123.46 	141.616 	0.35 	6.604 	-0.125955 	3.38667e-05 	
0.000900955 	0.000600637 	
ZONE T = "t = 4e-08 [s]" I = 10 SOLUTIONTIME = 4.0000000000000E-08
0.00127 	9.80303e-09 	0.92 	0.04 	0.04 	0.035027 	3.8418 	
3.80672 	3.97141 	-0.164695 	-0.831077 	7.307e-08 	14.5322 	0.415082 	
6.68216e-11 	7244.08 	123.46 	141.616 	0.35 	6.604 	-0.125706 	3.38667e-05 	
0.000900955 	0.000600637 	
0.00133773 	8.65008e-09 	0.92 	0.04 	0.04 	0.0350269 	3.8418 	
3.80672 	3.97141 	-0.164695 	-1.66217 	6.44759e-08 	13.287 	1.66033 	
1.33644e-10 	14488.2 	246.919 	283.231 	0.35 	13.208 	-0.125707 	6.77333e-05 	
0.00180191 	0.00120127 	
0.00140547 	7.49709e-09 	0.92 	0.04 	0.04 	0.0350268 	3.8418 	
3.80672 	3.97141 	-0.164697 	-1.66222 	5.58818e-08 	11.6266 	3.3207 	
1.33649e-10 	14488.2 	246.919 	283.231 	0.35 	13.208 	-0.125711 	6.77333e-05 	
0.00180191 	0.00120127 	
0.0014732 	6.34404e-09 	0.92 	0.04 	0.04 	0.0350267 	3.8418 	
3.80671 	3.97141 	-0.1647 	-1.66231 	4.72872e-08 	9.96616 	4.98114 	
1.33657e-10 	14488.2 	246.919 	283.231 	0.35 	13.208 	-0.125718 	6.77333e-05 	
0.00180191 	0.00120127 	
0.00154093 	5.1909e-09 	0.92 	0.04 	0.04 	0.0350267 	3.84179 	
3.80671 	3.97141 	-0.164703 	-1.66243 	3.8692e-08 	8.30562 	6.64168 	
1.33668e-10 	14488.2 	246.919 	283.231 	0.35 	13.208 	-0.125727 	6.77333e-05 	
0.00180191 	0.00120127 	
0.00160867 	4.03766e-09 	0.92 	0.04 	0.04 	0.0350266 	3.84179 	
3.80671 	3.97141 	-0.164708 	-1.6626 	3.00959e-08 	6.64493 	8.30237 	
1.33682e-10 	14488.2 	246.919 	283.231 	0.35 	13.208 	-0.12574 	6.77333e-05 	
0.00180191 	0.00120127 	
0.0016764 	2.88427e-09 	0.92 	0.04 	0.04 	0.0350266 	3.84178 	
3.8067 	3.97141 	-0.164715 	-1.6628 	2.14988e-08 	4.98406 	9.96324 	
1.33699e-10 	14488.2 	246.919 	283.231 	0.35 	13.208 	-0.125755 	6.77333e-05 	
0.00180191 	0.00120127 	
0.00174413 	1.73072e-09 	0.92 	0.04 	0.04 	0.0350265 	3.84178 	
3.80669 	3.97141 	-0.164722 	-1.66303 	1.29004e-08 	3.32297 	11.6243 	
1.33719e-10 	14488.2 	246.919 	283.231 	0.35 	13.208 	-0.125773 	6.77333e-05 	
0.00180191 	0.00120127 	
0.00181187 	5.76978e-10 	0.92 	0.04 	0.04 	0.0350265 	3.84177 	
3.80668 	3.97141 	-0.16473 	-1.6633 	4.30068e-09 	1.66163 	13.2857 	
1.33743e-10 	14488.2 	246.919 	283.231 	0.35 	13.208 	-0.125793 	6.77333e-05 	
0.00180191 	0.00120127 	
0.0018796 	0 	0.92 	0.04 	0.04 	0.0350265 	3.84176 	
3.80667 	3.97141 	-0.16474 	-0.831807 	4.30068e-09 	0.415447 	14.5319 	
6.6885e-11 	7244.08 	123.46 	141.616 	0.35 	6.604 	-0.125817 	3.38667e-05 	
0.000900955 	0.000600637 	
ZONE T = "t = 5.1052e-08 [s]" I = 10 SOLUTIONTIME = 5.1052003985648E-08
0.00127 	9.80303e-09 	0.92 	0.04 	0.04 	0.035027 	3.8418 	
3.80678 	3.97141 	-0.164638 	-0.830163 	7.31572e-08 	14.5322 	0.415082 	
8.7628e-11 	7244.08 	123.46 	141.616 	0.35 	6.604 	-0.125706 	3.38667e-05 	
0.000900955 	0.000600637 	
0.00133773 	8.65008e-09 	0.92 	0.04 	0.04 	0.0350269 	3.8418 	
3.80678 	3.97141 	-0.164639 	-1.66034 	6.45528e-08 	13.287 	1.66033 	
1.75258e-10 	14488.2 	246.919 	283.231 	0.35 	13.208 	-0.125707 	6.77333e-05 	
0.00180191 	0.00120127 	
0.00140547 	7.49709e-09 	0.92 	0.04 	0.04 	0.0350268 	3.8418 	
3.80677 	3.97141 	-0.16464 	-1.66039 	5.59484e-08 	11.6266 	3.3207 	
1.75263e-10 	14488.2 	246.919 	283.231 	0.35 	13.208 	-0.125711 	6.77333e-05 	
0.00180191 	0.00120127 	
0.0014732 	6.34404e-09 	0.92 	0.04 	0.04 	0.0350267 	3.8418 	
3.80677 	3.97141 	-0.164643 	-1.66048 	4.73436e-08 	9.96616 	4.98114 	
1.75273e-10 	14488.2 	246.919 	283.231 	0.35 	13.208 	-0.125718 	6.77333e-05 	
0.00180191 	0.00120127 	
0.00154093 	5.1909e-09 	0.92 	0.04 	0.04 	0.0350267 	3.84179 	
3.80677 	3.97141 	-0.164647 	-1.66061 	3.87381e-08 	8.30562 	6.64168 	
1.75287e-10 	14488.2 	246.919 	283.231 	0.35 	13.208 	-0.125727 	6.77333e-05 	
0.00180191 	0.00120127 	
0.00160867 	4.03766e-09 	0.92 	0.04 	0.04 	0.0350266 	3.84179 	
3.80676 	3.97141 	-0.164652 	-1.66077 	3.01318e-08 	6.64493 	8.30237 	
1.75305e-10 	14488.2 	246.919 	283.231 	0.35 	13.208 	-0.12574 	6.77333e-05 	
0.00180191 	0.00120127 	
0.0016764 	2.88427e-09 	0.92 	0.04 	0.04 	0.0350266 	3.84178 	
3.80676 	3.97141 	-0.164658 	-1.66097 	2.15244e-08 	4.98406 	9.96324 	
1.75328e-10 	14488.2 	246.919 	283.231 	0.35 	13.208 	-0.125755 	6.77333e-05 	
0.00180191 	0.00120127 	
0.00174413 	1.73072e-09 	0.92 	0.04 	0.04 	0.0350265 	3.84178 	
3.80675 	3.97141 	-0.164666 	-1.6612 	1.29158e-08 	3.32297 	11.6243 	
1.75354e-10 	14488.2 	246.919 	283.231 	0.35 	13.208 	-0.125773 	6.77333e-05 	
0.00180191 	0.00120127 	
0.00181187 	5.76978e-10 	0.92 	0.04 	0.04 	0.0350265 	3.84177 	
3.80674 	3.97141 	-0.164674 	-1.66148 	4.3058e-09 	1.66163 	13.2857 	
1.75385e-10 	14488.2 	246.919 	283.231 	0.35 	13.208 	-0.125793 	6.77333e-05 	
0.00180191 	0.00120127 	
0.0018796 	0 	0.92 	0.04 	0.04 	0.0350265 	3.84176 	
3.80673 	3.97141 	-0.164683 	-0.830894 	4.3058e-09 	0.415447 	14.5319 	
8.77097e-11 	7244.08 	123.46 	141.616 	0.35 	6.604 	-0.125817 	3.38667e-05 	
0.000900955 	0.000600637 	
ZONE T = "t = 6.57784e-08 [s]" I = 10 SOLUTIONTIME = 6.5778413498371E-08
0.00127 	9.80303e-09 	0.92 	0.04 	0.04 	0.035027 	3.8418 	
3.80678 	3.97141 	-0.164638 	-0.830163 	7.31573e-08 	14.5322 	0.415082 	
1.10623e-10 	7244.08 	123.46 	141.616 	0.35 	6.604 	-0.125706 	3.38667e-05 	
0.000900955 	0.000600637 	
0.00133773 	8.65008e-09 	0.92 	0.04 	0.04 	0.0350269 	3.8418 	
3.80678 	3.97141 	-0.164639 	-1.66034 	6.45528e-08 	13.287 	1.66033 	
2.21248e-10 	14488.2 	246.919 	283.231 	0.35 	13.208 	-0.125707 	6.77333e-05 	
0.00180191 	0.00120127 	
0.00140547 	7.49709e-09 	0.92 	0.04 	0.04 	0.0350268 	3.8418 	
3.80677 	3.97141 	-0.16464 	-1.66039 	5.59484e-08 	11.6266 	3.3207 	
2.21256e-10 	14488.2 	246.919 	283.231 	0.35 	13.208 	-0.125711 	6.77333e-05 	
0.00180191 	0.00120127 	
0.0014732 	6.34404e-09 	0.92 	0.04 	0.04 	0.0350267 	3.8418 	
3.80677 	3.97141 	-0.164643 	-1.66048 	4.73436e-08 	9.96616 	4.98114 	
2.21268e-10 	14488.2 	246.919 	283.231 	0.35 	13.208 	-0.125718 	6.77333e-05 	
0.00180191 	0.00120127 	
0.00154093 	5.1909e-09 	0.92 	0.04 	0.04 	0.0350267 	3.84179 	
3.80677 	3.97141 	-0.164647 	-1.66061 	3.87381e-08 	8.30562 	6.64168 	
2.21286e-10 	14488.2 	246.919 	283.231 	0.35 	13.208 	-0.125727 	6.77333e-05 	
0.00180191 	0.00120127 	
0.00160867 	4.03766e-09 	0.92 	0.04 	0.04 	0.0350266 	3.84179 	
3.80676 	3.97141 	-0.164652 	-1.66077 	3.01318e-08 	6.64493 	8.30237 	
2.21308e-10 	14488.2 	246.919 	283.231 	0.35 	13.208 	-0.12574 	6.77333e-05 	
0.00180191 	0.00120127 	
0.0016764 	2.88427e-09 	0.92 	0.04 	0.04 	0.0350266 	3.84178 	
3.80676 	3.97141 	-0.164658 	-1.66097 	2.15244e-08 	4.98406 	9.96324 	
2.21336e-10 	14488.2 	246.919 	283.231 	0.35 	13.208 	-0.125755 	6.77333e-05 	
0.00180191 	0.00120127 	
0.00174413 	1.73072e-09 	0.92 	0.04 	0.04 	0.0350265 	3.84178 	
3.80675 	3.97141 	-0.164666 	-1.6612 	1.29158e-08 	3.32297 	11.6243 	
2.21369e-10 	14488.2 	246.919 	283.231 	0.35 	13.208 	-0.125773 	6.77333e-05 	
0.00180191 	0.00120127 	
0.00181187 	5.76978e-10 	0.92 	0.04 	0.04 	0.0350265 	3.84177 	
3.80674 	3.97141 	-0.164674 	-1.66148 	4.3058e-09 	1.66163 	13.2857 	
2.21407e-10 	14488.2 	246.919 	283.231 	0.35 	13.208 	-0.125793 	6.77333e-05 	
0.00180191 	0.00120127 	
0.0018796 	0 	0.92 	0.04 	0.04 	0.0350265 	3.84176 	
3.80673 	3.97141 	-0.164683 	-0.830894 	4.3058e-09 	0.415447 	14.5319 	
1.10725e-10 	7244.08 	123.46 	141.616 	0.35 	6.604 	-0.125817 	3.38667e-05 	
0.000900955 	0.000600637 	
ZONE T = "t = 8.7868e-08 [s]" I = 10 SOLUTIONTIME = 8.7868027767455E-08
0.00127 	9.80303e-09 	0.92 	0.04 	0.04 	0.035027 	3.8418 	
3.80678 	3.97141 	-0.164638 	-0.830163 	7.31574e-08 	14.5322 	0.415082 	
1.41264e-10 	7244.08 	123.46 	141.616 	0.35 	6.604 	-0.125706 	3.38667e-05 	
0.000900955 	0.000600637 	
0.00133773 	8.65008e-09 	0.92 	0.04 	0.04 	0.0350269 	3.8418 	
3.80678 	3.97141 	-0.164639 	-1.66034 	6.45528e-08 	13.287 	1.66033 	
2.8253e-10 	14488.2 	246.919 	283.231 	0.35 	13.208 	-0.125707 	6.77333e-05 	
0.00180191 	0.00120127 	
0.00140547 	7.49709e-09 	0.92 	0.04 	0.04 	0.0350268 	3.8418 	
3.80677 	3.97141 	-0.16464 	-1.66039 	5.59484e-08 	11.6266 	3.3207 	
2.82539e-10 	14488.2 	246.919 	283.231 	0.35 	13.208 	-0.125711 	6.77333e-05 	
0.00180191 	0.00120127 	
0.0014732 	6.34404e-09 	0.92 	0.04 	0.04 	0.0350267 	3.8418 	
3.80677 	3.97141 	-0.164643 	-1.66048 	4.73436e-08 	9.96616 	4.98114 	
2.82554e-10 	14488.2 	246.919 	283.231 	0.35 	13.208 	-0.125718 	6.77333e-05 	
0.00180191 	0.00120127 	
0.00154093 	5.1909e-09 	0.92 	0.04 	0.04 	0.0350267 	3.84179 	
3.80677 	3.97141 	-0.164647 	-1.66061 	3.87381e-08 	8.30562 	6.64168 	
2.82577e-10 	14488.2 	246.919 	283.231 	0.35 	13.208 	-0.125727 	6.77333e-05 	
0.00180191 	0.00120127 	
0.00160867 	4.03766e-09 	0.92 	0.04 	0.04 	0.0350266 	3.84179 	
3.80676 	3.97141 	-0.164652 	-1.66077 	3.01318e-08 	6.64493 	8.30237 	
2.82605e-10 	14488.2 	246.919 	283.231 	0.35 	13.208 	-0.12574 	6.77333e-05 	
0.00180191 	0.00120127 	
0.0016764 	2.88427e-09 	0.92 	0.04 	0.04 	0.0350266 	3.84178 	
3.80676 	3.97141 	-0.164658 	-1.66097 	2.15244e-08 	4.98406 	9.96324 	
2.8264e-10 	14488.2 	246.919 	283.231 	0.35 	13.208 	-0.125755 	6.77333e-05 	
0.00180191 	0.00120127 	
0.00174413 	1.73072e-09 	0.92 	0.04 	0.04 	0.0350265 	3.84178 	
3.80675 	3.97141 	-0.164666 	-1.6612 	1.29158e-08 	3.32297 	11.6243 	
2.82682e-10 	14488.2 	246.919 	283.231 	0.35 	13.208 	-0.125773 	6.77333e-05 	
0.00180191 	0.00120127 	
0.00181187 	5.76978e-10 	0.92 	0.04 	0.04 	0.0350265 	3.84177 	
3.80674 	3.97141 	-0.164674 	-1.66148 	4.3058e-09 	1.66163 	13.2857 	
2.8273e-10 	14488.2 	246.919 	283.231 	0.35 	13.208 	-0.125793 	6.77333e-05 	
0.00180191 	0.00120127 	
0.0018796 	0 	0.92 	0.04 	0.04 	0.0350265 	3.84176 	
3.80673 	3.97141 	-0.164683 	-0.830894 	4.3058e-09 	0.415447 	14.5319 	
1.41392e-10 	7244.08 	123.46 	141.616 	0.35 	6.604 	-0.125817 	3.38667e-05 	
0.000900955 	0.000600637 	
ZONE T = "t = 1.21002e-07 [s]" I = 10 SOLUTIONTIME = 1.2100244917108E-07
0.00127 	9.80303e-09 	0.92 	0.04 	0.04 	0.035027 	3.8418 	
3.80678 	3.97141 	-0.164638 	-0.830163 	7.31575e-08 	14.5322 	0.415082 	
1.87224e-10 	7244.08 	123.46 	141.616 	0.35 	6.604 	-0.125706 	3.38667e-05 	
0.000900955 	0.000600637 	
0.00133773 	8.65008e-09 	0.92 	0.04 	0.04 	0.0350269 	3.8418 	
3.80678 	3.97141 	-0.164639 	-1.66034 	6.45528e-08 	13.287 	1.66033 	
3.74451e-10 	14488.2 	246.919 	283.231 	0.35 	13.208 	-0.125707 	6.77333e-05 	
0.00180191 	0.00120127 	
0.00140547 	7.49709e-09 	0.92 	0.04 	0.04 	0.0350268 	3.8418 	
3.80677 	3.97141 	-0.16464 	-1.66039 	5.59484e-08 	11.6266 	3.3207 	
3.74463e-10 	14488.2 	246.919 	283.231 	0.35 	13.208 	-0.125711 	6.77333e-05 	
0.00180191 	0.00120127 	
0.0014732 	6.34404e-09 	0.92 	0.04 	0.04 	0.0350267 	3.8418 	
3.80677 	3.97141 	-0.164643 	-1.66048 	4.73436e-08 	9.96616 	4.98114 	
3.74484e-10 	14488.2 	246.919 	283.231 	0.35 	13.208 	-0.125718 	6.77333e-05 	
0.00180191 	0.00120127 	
0.00154093 	5.1909e-09 	0.92 	0.04 	0.04 	0.0350267 	3.84179 	
3.80677 	3.97141 	-0.164647 	-1.66061 	3.87381e-08 	8.30562 	6.64168 	
3.74513e-10 	14488.2 	246.919 	283.231 	0.35 	13.208 	-0.125727 	6.77333e-05 	
0.00180191 	0.00120127 	
0.00160867 	4.03766e-09 	0.92 	0.04 	0.04 	0.0350266 	3.84179 	
3.80676 	3.97141 	-0.164652 	-1.66077 	3.01318e-08 	6.64493 	8.30237 	
3.74551e-10 	14488.2 	246.919 	283.231 	0.35 	13.208 	-0.12574 	6.77333e-05 	
0.00180191 	0.00120127 	
0.0016764 	2.88427e-09 	0.92 	0.04 	0.04 	0.0350266 	3.84178 	
3.80676 	3.97141 	-0.164658 	-1.66097 	2.15244e-08 	4.98406 	9.96324 	
3.74597e-10 	14488.2 	246.919 	283.231 	0.35 	13.208 	-0.125755 	6.77333e-05 	
0.00180191 	0.00120127 	
0.00174413 	1.73072e-09 	0.92 	0.04 	0.04 	0.0350265 	3.84178 	
3.80675 	3.97141 	-0.164666 	-1.6612 	1.29158e-08 	3.32297 	11.6243 	
3.74652e-10 	14488.2 	246.919 	283.231 	0.35 	13.208 	-0.125773 	6.77333e-05 	
0.00180191 	0.00120127 	
0.00181187 	5.76978e-10 	0.92 	0.04 	0.04 	0.0350265 	3.84177 	
3.80674 	3.97141 	-0.164674 	-1.66148 	4.3058e-09 	1.66163 	13.2857 	
3.74715e-10 	14488.2 	246.919 	283.231 	0.35 	13.208 	-0.125793 	6.77333e-05 	
0.00180191 	0.00120127 	
0.0018796 	0 	0.92 	0.04 	0.04 	0.0350265 	3.84176 	
3.80673 	3.97141 	-0.164683 	-0.830894 	4.3058e-09 	0.415447 	14.5319 	
1.87393e-10 	7244.08 	123.46 	141.616 	0.35 	6.604 	-0.125817 	3.38667e-05 	
0.000900955 	0.000600637 	
ZONE T = "t = 1.70704e-07 [s]" I = 10 SOLUTIONTIME = 1.7070408127652E-07
0.00127 	9.80303e-09 	0.92 	0.04 	0.04 	0.035027 	3.8418 	
3.80678 	3.97141 	-0.164638 	-0.830163 	7.31577e-08 	14.5322 	0.415082 	
2.56165e-10 	7244.08 	123.46 	141.616 	0.35 	6.604 	-0.125706 	3.38667e-05 	
0.000900955 	0.000600637 	
0.00133773 	8.65008e-09 	0.92 	0.04 	0.04 	0.0350269 	3.8418 	
3.80678 	3.97141 	-0.164639 	-1.66034 	6.45528e-08 	13.287 	1.66033 	
5.12334e-10 	14488.2 	246.919 	283.231 	0.35 	13.208 	-0.125707 	6.77333e-05 	
0.00180191 	0.00120127 	
0.00140547 	7.49709e-09 	0.92 	0.04 	0.04 	0.0350268 	3.8418 	
3.80677 	3.97141 	-0.16464 	-1.66039 	5.59484e-08 	11.6266 	3.3207 	
5.1235e-10 	14488.2 	246.919 	283.231 	0.35 	13.208 	-0.125711 	6.77333e-05 	
0.00180191 	0.00120127 	
0.0014732 	6.34404e-09 	0.92 	0.04 	0.04 	0.0350267 	3.8418 	
3.80677 	3.97141 	-0.164643 	-1.66048 	4.73436e-08 	9.96616 	4.98114 	
5.12378e-10 	14488.2 	246.919 	283.231 	0.35 	13.208 	-0.125718 	6.77333e-05 	
0.00180191 	0.00120127 	
0.00154093 	5.1909e-09 	0.92 	0.04 	0.04 	0.0350267 	3.84179 	
3.80677 	3.97141 	-0.164647 	-1.66061 	3.87381e-08 	8.30562 	6.64168 	
5.12418e-10 	14488.2 	246.919 	283.231 	0.35 	13.208 	-0.125727 	6.77333e-05 	
0.00180191 	0.00120127 	
0.00160867 	4.03766e-09 	0.92 	0.04 	0.04 	0.0350266 	3.84179 	
3.80676 	3.97141 	-0.164652 	-1.66077 	3.01318e-08 	6.64493 	8.30237 	
5.12469e-10 	14488.2 	246.919 	283.231 	0.35 	13.208 	-0.12574 	6.77333e-05 	
0.00180191 	0.00120127 	
0.0016764 	2.88427e-09 	0.92 	0.04 	0.04 	0.0350266 	3.84178 	
3.80676 	3.97141 	-0.164658 	-1.66097 	2.15244e-08 	4.98406 	9.96324 	
5.12532e-10 	14488.2 	246.919 	283.231 	0.35 	13.208 	-0.125755 	6.77333e-05 	
0.00180191 	0.00120127 	
0.00174413 	1.73072e-09 	0.92 	0.04 	0.04 	0.0350265 	3.84178 	
3.80675 	3.97141 	-0.164666 	-1.6612 	1.29158e-08 	3.32297 	11.6243 	
5.12606e-10 	14488.2 	246.919 	283.231 	0.35 	13.208 	-0.125773 	6.77333e-05 	
0.00180191 	0.00120127 	
0.00181187 	5.76978e-10 	0.92 	0.04 	0.04 	0.0350265 	3.84177 	
3.80674 	3.97141 	-0.164674 	-1.66148 	4.3058e-09 	1.66163 	13.2857 	
5.12692e-10 	14488.2 	246.919 	283.231 	0.35 	13.208 	-0.125793 	6.77333e-05 	
0.00180191 	0.00120127 	
0.0018796 	0 	0.92 	0.04 	0.04 	0.0350265 	3.84176 	
3.80673 	3.97141 	-0.164683 	-0.830894 	4.3058e-09 	0.415447 	14.5319 	
2.56395e-10 	7244.08 	123.46 	141.616 	0.35 	6.604 	-0.125817 	3.38667e-05 	
0.000900955 	0.000600637 	
ZONE T = "t = 2.45257e-07 [s]" I = 10 SOLUTIONTIME = 2.4525652943468E-07
0.00127 	9.80303e-09 	0.92 	0.04 	0.04 	0.035027 	3.8418 	
3.80678 	3.97141 	-0.164638 	-0.830163 	7.31581e-08 	14.5322 	0.415082 	
3.59576e-10 	7244.08 	123.46 	141.616 	0.35 	6.604 	-0.125706 	3.38667e-05 	
0.000900955 	0.000600637 	
0.00133773 	8.65008e-09 	0.92 	0.04 	0.04 	0.0350269 	3.8418 	
3.80678 	3.97141 	-0.164639 	-1.66034 	6.45528e-08 	13.287 	1.66033 	
7.19158e-10 	14488.2 	246.919 	283.231 	0.35 	13.208 	-0.125707 	6.77333e-05 	
0.00180191 	0.00120127 	
0.00140547 	7.49709e-09 	0.92 	0.04 	0.04 	0.0350268 	3.8418 	
3.80677 	3.97141 	-0.16464 	-1.66039 	5.59484e-08 	11.6266 	3.3207 	
7.19181e-10 	14488.2 	246.919 	283.231 	0.35 	13.208 	-0.125711 	6.77333e-05 	
0.00180191 	0.00120127 	
0.0014732 	6.34404e-09 	0.92 	0.04 	0.04 	0.0350267 	3.8418 	
3.80677 	3.97141 	-0.164643 	-1.66048 	4.73436e-08 	9.96616 	4.98114 	
7.1922e-10 	14488.2 	246.919 	283.231 	0.35 	13.208 	-0.125718 	6.77333e-05 	
0.00180191 	0.00120127 	
0.00154093 	5.1909e-09 	0.92 	0.04 	0.04 	0.0350267 	3.84179 	
3.80677 	3.97141 	-0.164647 	-1.66061 	3.87381e-08 	8.30562 	6.64168 	
7.19275e-10 	14488.2 	246.919 	283.231 	0.35 	13.208 	-0.125727 	6.77333e-05 	
0.00180191 	0.00120127 	
0.00160867 	4.03766e-09 	0.92 	0.04 	0.04 	0.0350266 	3.84179 	
3.80676 	3.97141 	-0.164652 	-1.66077 	3.01318e-08 	6.64493 	8.30237 	
7.19346e-10 	14488.2 	246.919 	283.231 	0.35 	13.208 	-0.12574 	6.77333e-05 	
0.00180191 	0.00120127 	
0.0016764 	2.88427e-09 	0.92 	0.04 	0.04 	0.0350266 	3.84178 	
3.80676 	3.97141 	-0.164658 	-1.66097 	2.15244e-08 	4.98406 	9.96324 	
7.19434e-10 	14488.2 	246.919 	283.231 	0.35 	13.208 	-0.125755 	6.77333e-05 	
0.00180191 	0.00120127 	
0.00174413 	1.73072e-09 	0.92 	0.04 	0.04 	0.0350265 	3.84178 	
3.80675 	3.97141 	-0.164666 	-1.6612 	1.29158e-08 	3.32297 	11.6243 	
7.19538e-10 	14488.2 	246.919 	283.231 	0.35 	13.208 	-0.125773 	6.77333e-05 	
0.00180191 	0.00120127 	
0.00181187 	5.76978e-10 	0.92 	0.04 	0.04 	0.0350265 	3.84177 	
3.80674 	3.97141 	-0.164674 	-1.66148 	4.3058e-09 	1.66163 	13.2857 	
7.19658e-10 	14488.2 	246.919 	283.231 	0.35 	13.208 	-0.125793 	6.77333e-05 	
0.00180191 	0.00120127 	
0.0018796 	0 	0.92 	0.04 	0.04 	0.0350265 	3.84176 	
3.80673 	3.97141 	-0.164683 	-0.830894 	4.3058e-09 	0.415447 	14.5319 	
3.59897e-10 	7244.08 	123.46 	141.616 	0.35 	6.604 	-0.125817 	3.38667e-05 	
0.000900955 	0.000600637 	
