TITLE = "Solution on Domain BulkDomain1D_0"
VARIABLES = "x [m]"  
"Vel_axial(0)" 	"MF_sp(ECDMC)" 	"MF_sp(Li+)" 	"MF_sp(PF6-)" 	"Volt(Electroly)" 	"Volt(AnodeVolt)" 	
"Potential Drop Electrode-Electrolyte [V]" 	"Surf_0 Equilibrium Potential Drop Electrode-Electrolyte [V]" 	"Overpotential_0 [V]" 	"Current Source [A/m^2]" 	"Li+ flux [kmol/m^2/s]" 	"Electrolyte Current [A/m^2]" 	"Electrode Current [A/m^2]" 	
"Capacity discharged [A-s]" 	"Depth of discharge [-]" 	"Capacity remaining [A-s]" 	"Initial capacity [A-s]" 	"Porosity []" 	"Surface Area [m2/m2] (area per area)" 	"Specific current (per particle area) [A/m^2]" 	"Control volume thickness [m]" 	
"Moles Li_C6-bulk [mol/m^2] (per electrode area)" 	"Moles V_C6-bulk [mol/m^2] (per electrode area)" 	"qHeat_accum [J/m3]" 	"qHeat_step [W/m3]" 	"Joule_Lyte [W/m3]" 	"Joule_Solid [W/m3]" 	"electrodHeat [W/m3]" 	"OverpotHeat [W/m3]" 	"deltaSHeat [W/m3]" 	

ZONE T = "t = 0 [s]" I = 10 SOLUTIONTIME = 0.0000000000000E+00
0 	0 	0.92 	0.04 	0.04 	-0.07 	0 	
0 	0 	0 	0 	0 	0 	15.4651 	
0 	0 	0 	0 	0.35 	8.53017 	3.62598 	4.37444e-05 	
0.00379119 	0.000947796 	0 	0.0 	 0.0 	 0.0 	 0.0 	 0.0 	 0.0 	 
8.74889e-05 	0 	0.92 	0.04 	0.04 	-0.07 	0 	
0 	0 	0 	0 	0 	0 	-0 	
0 	0 	0 	0 	0.35 	17.0603 	3.62598 	8.74889e-05 	
0.00758237 	0.00189559 	0 	0.0 	 0.0 	 0.0 	 0.0 	 0.0 	 0.0 	 
0.000174978 	0 	0.92 	0.04 	0.04 	-0.07 	0 	
0 	0 	0 	0 	0 	0 	-0 	
0 	0 	0 	0 	0.35 	17.0603 	3.62598 	8.74889e-05 	
0.00758237 	0.00189559 	0 	0.0 	 0.0 	 0.0 	 0.0 	 0.0 	 0.0 	 
0.000262467 	0 	0.92 	0.04 	0.04 	-0.07 	0 	
0 	0 	0 	0 	0 	0 	-0 	
0 	0 	0 	0 	0.35 	17.0603 	3.62598 	8.74889e-05 	
0.00758237 	0.00189559 	0 	0.0 	 0.0 	 0.0 	 0.0 	 0.0 	 0.0 	 
0.000349956 	0 	0.92 	0.04 	0.04 	-0.07 	0 	
0 	0 	0 	0 	0 	0 	-0 	
0 	0 	0 	0 	0.35 	17.0603 	3.62598 	8.74889e-05 	
0.00758237 	0.00189559 	0 	0.0 	 0.0 	 0.0 	 0.0 	 0.0 	 0.0 	 
0.000437444 	0 	0.92 	0.04 	0.04 	-0.07 	0 	
0 	0 	0 	0 	0 	0 	-0 	
0 	0 	0 	0 	0.35 	17.0603 	3.62598 	8.74889e-05 	
0.00758237 	0.00189559 	0 	0.0 	 0.0 	 0.0 	 0.0 	 0.0 	 0.0 	 
0.000524933 	0 	0.92 	0.04 	0.04 	-0.07 	0 	
0 	0 	0 	0 	0 	0 	-0 	
0 	0 	0 	0 	0.35 	17.0603 	3.62598 	8.74889e-05 	
0.00758237 	0.00189559 	0 	0.0 	 0.0 	 0.0 	 0.0 	 0.0 	 0.0 	 
0.000612422 	0 	0.92 	0.04 	0.04 	-0.07 	0 	
0 	0 	0 	0 	0 	0 	-0 	
0 	0 	0 	0 	0.35 	17.0603 	3.62598 	8.74889e-05 	
0.00758237 	0.00189559 	0 	0.0 	 0.0 	 0.0 	 0.0 	 0.0 	 0.0 	 
0.000699911 	0 	0.92 	0.04 	0.04 	-0.07 	0 	
0 	0 	0 	0 	0 	0 	-0 	
0 	0 	0 	0 	0.35 	17.0603 	3.62598 	8.74889e-05 	
0.00758237 	0.00189559 	0 	0.0 	 0.0 	 0.0 	 0.0 	 0.0 	 0.0 	 
0.0007874 	0 	0.92 	0.04 	0.04 	-0.07 	0 	
0 	0 	0 	0 	0 	15.4651 	0 	
0 	0 	0 	0 	0.35 	8.53017 	3.62598 	4.37444e-05 	
0.00379119 	0.000947796 	0 	0.0 	 0.0 	 0.0 	 0.0 	 0.0 	 0.0 	 
ZONE T = "t = 1e-08 [s]" I = 10 SOLUTIONTIME = 1.0000000000000E-08
0 	5.76338e-10 	0.92 	0.04 	0.04 	0.0350284 	-2.55774e-07 	
0.07 	-0.0409067 	0.110907 	30.9302 	-0 	0.415117 	14.5296 	
0 	91448.4 	916.789 	1145.99 	0.35 	8.53017 	0.0973368 	4.37444e-05 	
0.00379119 	0.000947796 	3.80729e-12 	0.000380729 	7.42386e-05 	0.000306491 	0 	0 	0 	
8.74889e-05 	1.72865e-09 	0.92 	0.04 	0.04 	0.0350284 	-2.57674e-07 	
0.07 	-0.0409067 	0.110907 	61.8605 	-0 	1.66047 	13.2843 	
0 	182897 	1833.58 	2291.97 	0.35 	17.0603 	0.0973369 	8.74889e-05 	
0.00758237 	0.00189559 	6.43749e-12 	0.000643749 	0.000371193 	0.000272555 	0 	0 	0 	
0.000174978 	2.88133e-09 	0.92 	0.04 	0.04 	0.0350284 	-2.5935e-07 	
0.07 	-0.0409067 	0.110907 	61.8605 	-0 	3.32094 	11.6238 	
0 	182897 	1833.58 	2291.97 	0.35 	17.0603 	0.0973372 	8.74889e-05 	
0.00758237 	0.00189559 	1.47099e-11 	0.00147099 	0.00126206 	0.000208926 	0 	0 	0 	
0.000262467 	4.03402e-09 	0.92 	0.04 	0.04 	0.0350283 	-2.60803e-07 	
0.07 	-0.0409067 	0.110907 	61.8605 	-0 	4.98142 	9.96331 	
0 	182897 	1833.58 	2291.97 	0.35 	17.0603 	0.0973378 	8.74889e-05 	
0.00758237 	0.00189559 	2.90063e-11 	0.00290063 	0.00274685 	0.00015378 	0 	0 	0 	
0.000349956 	5.18635e-09 	0.92 	0.04 	0.04 	0.0350283 	-2.62032e-07 	
0.07 	-0.0409067 	0.110907 	61.8605 	-0 	6.64191 	8.30282 	
0 	182897 	1833.58 	2291.97 	0.35 	17.0603 	0.0973387 	8.74889e-05 	
0.00758237 	0.00189559 	4.93269e-11 	0.00493269 	0.00482557 	0.000107117 	0 	0 	0 	
0.000437444 	6.33907e-09 	0.92 	0.04 	0.04 	0.0350282 	-2.63038e-07 	
0.07 	-0.0409067 	0.110907 	61.8605 	-0 	8.30242 	6.64231 	
0 	182897 	1833.58 	2291.97 	0.35 	17.0603 	0.0973399 	8.74889e-05 	
0.00758237 	0.00189559 	7.5672e-11 	0.0075672 	0.00749826 	6.89378e-05 	0 	0 	0 	
0.000524933 	7.4918e-09 	0.92 	0.04 	0.04 	0.0350281 	-2.6382e-07 	
0.07 	-0.0409067 	0.110907 	61.8605 	-0 	9.96296 	4.98177 	
0 	182897 	1833.58 	2291.97 	0.35 	17.0603 	0.0973413 	8.74889e-05 	
0.00758237 	0.00189559 	1.08042e-10 	0.0108042 	0.0107649 	3.92422e-05 	0 	0 	0 	
0.000612422 	8.64418e-09 	0.92 	0.04 	0.04 	0.035028 	-2.64379e-07 	
0.07 	-0.0409067 	0.110907 	61.8605 	-0 	11.6235 	3.32122 	
0 	182897 	1833.58 	2291.97 	0.35 	17.0603 	0.097343 	8.74889e-05 	
0.00758237 	0.00189559 	1.46437e-10 	0.0146437 	0.0146256 	1.80305e-05 	0 	0 	0 	
0.000699911 	9.79659e-09 	0.92 	0.04 	0.04 	0.0350279 	-2.64715e-07 	
0.07 	-0.0409067 	0.110907 	61.8605 	-0 	13.2841 	1.66063 	
0 	182897 	1833.58 	2291.97 	0.35 	17.0603 	0.0973449 	8.74889e-05 	
0.00758237 	0.00189559 	1.90857e-10 	0.0190857 	0.0190804 	5.3032e-06 	0 	0 	0 	
0.0007874 	1.03732e-08 	0.92 	0.04 	0.04 	0.0350278 	-2.64826e-07 	
0.07 	-0.0409067 	0.110907 	30.9302 	-0 	14.5296 	0.415161 	
0 	91448.4 	916.789 	1145.99 	0.35 	8.53017 	0.0973471 	4.37444e-05 	
0.00379119 	0.000947796 	2.14573e-10 	0.0214573 	0.0214563 	1.06067e-06 	0 	0 	0 	
ZONE T = "t = 2e-08 [s]" I = 10 SOLUTIONTIME = 2.0000000000000E-08
0 	5.76887e-10 	0.92 	0.04 	0.04 	0.0350288 	-2.55776e-07 	
-0.0350287 	-0.0409067 	0.00587805 	0.830299 	4.30238e-09 	0.41512 	14.5297 	
2.08098e-11 	91448.4 	916.789 	1145.99 	0.35 	8.53017 	0.0973298 	4.37444e-05 	
0.00379119 	0.000947796 	7.61464e-12 	0.000380735 	0.000148478 	0.000612986 	0 	0 	0 	
8.74889e-05 	1.73102e-09 	0.92 	0.04 	0.04 	0.0350288 	-2.57676e-07 	
-0.0350287 	-0.0409067 	0.00587806 	1.6606 	1.29072e-08 	1.66048 	13.2844 	
4.16196e-11 	182897 	1833.58 	2291.97 	0.35 	17.0603 	0.0973299 	8.74889e-05 	
0.00758237 	0.00189559 	1.28751e-11 	0.000643758 	0.000742392 	0.000545114 	0 	0 	0 	
0.000174978 	2.8848e-09 	0.92 	0.04 	0.04 	0.0350288 	-2.59352e-07 	
-0.0350286 	-0.0409067 	0.00587808 	1.66061 	2.1512e-08 	3.32096 	11.6239 	
4.16198e-11 	182897 	1833.58 	2291.97 	0.35 	17.0603 	0.0973303 	8.74889e-05 	
0.00758237 	0.00189559 	2.94199e-11 	0.00147101 	0.00252414 	0.000417855 	0 	0 	0 	
0.000262467 	4.03859e-09 	0.92 	0.04 	0.04 	0.0350288 	-2.60805e-07 	
-0.0350286 	-0.0409067 	0.00587812 	1.66062 	3.01168e-08 	4.98146 	9.96338 	
4.162e-11 	182897 	1833.58 	2291.97 	0.35 	17.0603 	0.0973309 	8.74889e-05 	
0.00758237 	0.00189559 	5.8013e-11 	0.00290067 	0.00549374 	0.000307562 	0 	0 	0 	
0.000349956 	5.19275e-09 	0.92 	0.04 	0.04 	0.0350287 	-2.62034e-07 	
-0.0350285 	-0.0409067 	0.00587817 	1.66063 	3.87218e-08 	6.64196 	8.30288 	
4.16204e-11 	182897 	1833.58 	2291.97 	0.35 	17.0603 	0.0973318 	8.74889e-05 	
0.00758237 	0.00189559 	9.86545e-11 	0.00493276 	0.00965122 	0.000214236 	0 	0 	0 	
0.000437444 	6.34692e-09 	0.92 	0.04 	0.04 	0.0350286 	-2.6304e-07 	
-0.0350285 	-0.0409067 	0.00587824 	1.66065 	4.73268e-08 	8.30248 	6.64235 	
4.16209e-11 	182897 	1833.58 	2291.97 	0.35 	17.0603 	0.0973329 	8.74889e-05 	
0.00758237 	0.00189559 	1.51345e-10 	0.00756731 	0.0149966 	0.000137877 	0 	0 	0 	
0.000524933 	7.50111e-09 	0.92 	0.04 	0.04 	0.0350285 	-2.63822e-07 	
-0.0350284 	-0.0409067 	0.00587833 	1.66068 	5.5932e-08 	9.96303 	4.98181 	
4.16215e-11 	182897 	1833.58 	2291.97 	0.35 	17.0603 	0.0973344 	8.74889e-05 	
0.00758237 	0.00189559 	2.16085e-10 	0.0108043 	0.02153 	7.8485e-05 	0 	0 	0 	
0.000612422 	8.65532e-09 	0.92 	0.04 	0.04 	0.0350284 	-2.64381e-07 	
-0.0350283 	-0.0409067 	0.00587843 	1.6607 	6.45373e-08 	11.6236 	3.32124 	
4.16222e-11 	182897 	1833.58 	2291.97 	0.35 	17.0603 	0.097336 	8.74889e-05 	
0.00758237 	0.00189559 	2.92875e-10 	0.0146439 	0.0292515 	3.60613e-05 	0 	0 	0 	
0.000699911 	9.80955e-09 	0.92 	0.04 	0.04 	0.0350283 	-2.64716e-07 	
-0.0350282 	-0.0409067 	0.00587855 	1.66074 	7.31428e-08 	13.2842 	1.66064 	
4.16231e-11 	182897 	1833.58 	2291.97 	0.35 	17.0603 	0.097338 	8.74889e-05 	
0.00758237 	0.00189559 	3.81716e-10 	0.019086 	0.038161 	1.06065e-05 	0 	0 	0 	
0.0007874 	1.03861e-08 	0.92 	0.04 	0.04 	0.0350282 	-2.64828e-07 	
-0.035028 	-0.0409067 	0.00587868 	0.830387 	7.31428e-08 	14.5297 	0.415164 	
2.0812e-11 	91448.4 	916.789 	1145.99 	0.35 	8.53017 	0.0973402 	4.37444e-05 	
0.00379119 	0.000947796 	4.2915e-10 	0.0214577 	0.0429129 	2.12135e-06 	0 	0 	0 	
ZONE T = "t = 3e-08 [s]" I = 10 SOLUTIONTIME = 3.0000000000000E-08
0 	5.76342e-10 	0.92 	0.04 	0.04 	0.0350288 	-2.55776e-07 	
-0.0350291 	-0.0409067 	0.00587764 	0.830239 	4.30241e-09 	0.41512 	14.5297 	
4.16181e-11 	91448.4 	916.789 	1145.99 	0.35 	8.53017 	0.0973298 	4.37444e-05 	
0.00379119 	0.000947796 	1.1422e-11 	0.000380735 	0.000222718 	0.000919481 	0 	0 	0 	
8.74889e-05 	1.72903e-09 	0.92 	0.04 	0.04 	0.0350288 	-2.57676e-07 	
-0.0350291 	-0.0409067 	0.00587764 	1.66048 	1.29072e-08 	1.66048 	13.2844 	
8.32362e-11 	182897 	1833.58 	2291.97 	0.35 	17.0603 	0.0973299 	8.74889e-05 	
0.00758237 	0.00189559 	1.93126e-11 	0.000643758 	0.00111359 	0.000817674 	0 	0 	0 	
0.000174978 	2.88172e-09 	0.92 	0.04 	0.04 	0.0350288 	-2.59352e-07 	
-0.035029 	-0.0409067 	0.00587766 	1.66049 	2.15121e-08 	3.32096 	11.6239 	
8.32365e-11 	182897 	1833.58 	2291.97 	0.35 	17.0603 	0.0973303 	8.74889e-05 	
0.00758237 	0.00189559 	4.413e-11 	0.00147101 	0.00378622 	0.000626784 	0 	0 	0 	
0.000262467 	4.03441e-09 	0.92 	0.04 	0.04 	0.0350288 	-2.60805e-07 	
-0.035029 	-0.0409067 	0.0058777 	1.6605 	3.0117e-08 	4.98146 	9.96338 	
8.32371e-11 	182897 	1833.58 	2291.97 	0.35 	17.0603 	0.0973309 	8.74889e-05 	
0.00758237 	0.00189559 	8.70197e-11 	0.00290067 	0.00824063 	0.000461344 	0 	0 	0 	
0.000349956 	5.18712e-09 	0.92 	0.04 	0.04 	0.0350287 	-2.62034e-07 	
-0.035029 	-0.0409067 	0.00587776 	1.66051 	3.8722e-08 	6.64196 	8.30288 	
8.32378e-11 	182897 	1833.58 	2291.97 	0.35 	17.0603 	0.0973318 	8.74889e-05 	
0.00758237 	0.00189559 	1.47982e-10 	0.00493276 	0.0144769 	0.000321354 	0 	0 	0 	
0.000437444 	6.33948e-09 	0.92 	0.04 	0.04 	0.0350286 	-2.6304e-07 	
-0.0350289 	-0.0409067 	0.00587782 	1.66053 	4.73271e-08 	8.30248 	6.64235 	
8.32388e-11 	182897 	1833.58 	2291.97 	0.35 	17.0603 	0.0973329 	8.74889e-05 	
0.00758237 	0.00189559 	2.27018e-10 	0.00756731 	0.022495 	0.000206815 	0 	0 	0 	
0.000524933 	7.49185e-09 	0.92 	0.04 	0.04 	0.0350285 	-2.63822e-07 	
-0.0350288 	-0.0409067 	0.00587791 	1.66056 	5.59324e-08 	9.96303 	4.98181 	
8.324e-11 	182897 	1833.58 	2291.97 	0.35 	17.0603 	0.0973344 	8.74889e-05 	
0.00758237 	0.00189559 	3.24128e-10 	0.0108043 	0.0322951 	0.000117728 	0 	0 	0 	
0.000612422 	8.64461e-09 	0.92 	0.04 	0.04 	0.0350284 	-2.64381e-07 	
-0.0350287 	-0.0409067 	0.00587801 	1.66059 	6.45377e-08 	11.6236 	3.32124 	
8.32415e-11 	182897 	1833.58 	2291.97 	0.35 	17.0603 	0.097336 	8.74889e-05 	
0.00758237 	0.00189559 	4.39314e-10 	0.0146439 	0.0438773 	5.40921e-05 	0 	0 	0 	
0.000699911 	9.79739e-09 	0.92 	0.04 	0.04 	0.0350283 	-2.64716e-07 	
-0.0350286 	-0.0409067 	0.00587813 	1.66062 	7.31434e-08 	13.2842 	1.66064 	
8.32431e-11 	182897 	1833.58 	2291.97 	0.35 	17.0603 	0.097338 	8.74889e-05 	
0.00758237 	0.00189559 	5.72576e-10 	0.019086 	0.0572417 	1.59098e-05 	0 	0 	0 	
0.0007874 	1.0374e-08 	0.92 	0.04 	0.04 	0.0350282 	-2.64828e-07 	
-0.0350285 	-0.0409067 	0.00587826 	0.830328 	7.31434e-08 	14.5297 	0.415164 	
4.16225e-11 	91448.4 	916.789 	1145.99 	0.35 	8.53017 	0.0973402 	4.37444e-05 	
0.00379119 	0.000947796 	6.43726e-10 	0.0214577 	0.0643695 	3.18204e-06 	0 	0 	0 	
ZONE T = "t = 4e-08 [s]" I = 10 SOLUTIONTIME = 4.0000000000000E-08
0 	5.76523e-10 	0.92 	0.04 	0.04 	0.0350288 	-2.55776e-07 	
-0.0350291 	-0.0409067 	0.00587764 	0.830239 	4.30241e-09 	0.41512 	14.5297 	
6.24264e-11 	91448.4 	916.789 	1145.99 	0.35 	8.53017 	0.0973298 	4.37444e-05 	
0.00379119 	0.000947796 	1.52293e-11 	0.000380735 	0.000296957 	0.00122598 	0 	0 	0 	
8.74889e-05 	1.72957e-09 	0.92 	0.04 	0.04 	0.0350288 	-2.57676e-07 	
-0.0350291 	-0.0409067 	0.00587764 	1.66048 	1.29072e-08 	1.66048 	13.2844 	
1.24853e-10 	182897 	1833.58 	2291.97 	0.35 	17.0603 	0.0973299 	8.74889e-05 	
0.00758237 	0.00189559 	2.57502e-11 	0.000643758 	0.00148479 	0.00109023 	0 	0 	0 	
0.000174978 	2.88262e-09 	0.92 	0.04 	0.04 	0.0350288 	-2.59352e-07 	
-0.035029 	-0.0409067 	0.00587766 	1.66049 	2.15121e-08 	3.32096 	11.6239 	
1.24853e-10 	182897 	1833.58 	2291.97 	0.35 	17.0603 	0.0973303 	8.74889e-05 	
0.00758237 	0.00189559 	5.88401e-11 	0.00147101 	0.0050483 	0.000835712 	0 	0 	0 	
0.000262467 	4.03568e-09 	0.92 	0.04 	0.04 	0.0350288 	-2.60805e-07 	
-0.035029 	-0.0409067 	0.0058777 	1.6605 	3.0117e-08 	4.98146 	9.96338 	
1.24854e-10 	182897 	1833.58 	2291.97 	0.35 	17.0603 	0.0973309 	8.74889e-05 	
0.00758237 	0.00189559 	1.16026e-10 	0.00290067 	0.0109875 	0.000615126 	0 	0 	0 	
0.000349956 	5.18875e-09 	0.92 	0.04 	0.04 	0.0350287 	-2.62034e-07 	
-0.035029 	-0.0409067 	0.00587776 	1.66051 	3.8722e-08 	6.64196 	8.30288 	
1.24855e-10 	182897 	1833.58 	2291.97 	0.35 	17.0603 	0.0973318 	8.74889e-05 	
0.00758237 	0.00189559 	1.9731e-10 	0.00493276 	0.0193025 	0.000428473 	0 	0 	0 	
0.000437444 	6.34184e-09 	0.92 	0.04 	0.04 	0.0350286 	-2.6304e-07 	
-0.0350289 	-0.0409067 	0.00587782 	1.66053 	4.73271e-08 	8.30248 	6.64235 	
1.24857e-10 	182897 	1833.58 	2291.97 	0.35 	17.0603 	0.0973329 	8.74889e-05 	
0.00758237 	0.00189559 	3.02691e-10 	0.00756731 	0.0299934 	0.000275754 	0 	0 	0 	
0.000524933 	7.49494e-09 	0.92 	0.04 	0.04 	0.0350285 	-2.63822e-07 	
-0.0350288 	-0.0409067 	0.00587791 	1.66056 	5.59324e-08 	9.96303 	4.98181 	
1.24859e-10 	182897 	1833.58 	2291.97 	0.35 	17.0603 	0.0973344 	8.74889e-05 	
0.00758237 	0.00189559 	4.32172e-10 	0.0108043 	0.0430602 	0.00015697 	0 	0 	0 	
0.000612422 	8.64842e-09 	0.92 	0.04 	0.04 	0.0350284 	-2.64381e-07 	
-0.0350287 	-0.0409067 	0.00587801 	1.66059 	6.45377e-08 	11.6236 	3.32124 	
1.24861e-10 	182897 	1833.58 	2291.97 	0.35 	17.0603 	0.097336 	8.74889e-05 	
0.00758237 	0.00189559 	5.85753e-10 	0.0146439 	0.0585031 	7.21229e-05 	0 	0 	0 	
0.000699911 	9.80156e-09 	0.92 	0.04 	0.04 	0.0350283 	-2.64716e-07 	
-0.0350286 	-0.0409067 	0.00587813 	1.66062 	7.31434e-08 	13.2842 	1.66064 	
1.24863e-10 	182897 	1833.58 	2291.97 	0.35 	17.0603 	0.097338 	8.74889e-05 	
0.00758237 	0.00189559 	7.63436e-10 	0.019086 	0.0763223 	2.1213e-05 	0 	0 	0 	
0.0007874 	1.03774e-08 	0.92 	0.04 	0.04 	0.0350282 	-2.64828e-07 	
-0.0350285 	-0.0409067 	0.00587826 	0.830328 	7.31434e-08 	14.5297 	0.415164 	
6.2433e-11 	91448.4 	916.789 	1145.99 	0.35 	8.53017 	0.0973402 	4.37444e-05 	
0.00379119 	0.000947796 	8.58303e-10 	0.0214577 	0.0858261 	4.24272e-06 	0 	0 	0 	
ZONE T = "t = 5.5e-08 [s]" I = 10 SOLUTIONTIME = 5.5000000000000E-08
0 	5.76402e-10 	0.92 	0.04 	0.04 	0.0350288 	-2.55776e-07 	
-0.0350291 	-0.0409067 	0.00587764 	0.830239 	4.30241e-09 	0.41512 	14.5297 	
8.32347e-11 	91448.4 	916.789 	1145.99 	0.35 	8.53017 	0.0973298 	4.37444e-05 	
0.00379119 	0.000947796 	2.09404e-11 	0.000380735 	0.000272211 	0.00112381 	0 	0 	0 	
8.74889e-05 	1.72945e-09 	0.92 	0.04 	0.04 	0.0350288 	-2.57676e-07 	
-0.0350291 	-0.0409067 	0.00587764 	1.66048 	1.29072e-08 	1.66048 	13.2844 	
1.66469e-10 	182897 	1833.58 	2291.97 	0.35 	17.0603 	0.0973299 	8.74889e-05 	
0.00758237 	0.00189559 	3.54066e-11 	0.000643758 	0.00136106 	0.000999381 	0 	0 	0 	
0.000174978 	2.88226e-09 	0.92 	0.04 	0.04 	0.0350288 	-2.59352e-07 	
-0.035029 	-0.0409067 	0.00587766 	1.66049 	2.15121e-08 	3.32096 	11.6239 	
1.6647e-10 	182897 	1833.58 	2291.97 	0.35 	17.0603 	0.0973303 	8.74889e-05 	
0.00758237 	0.00189559 	8.09052e-11 	0.00147101 	0.00462761 	0.000766071 	0 	0 	0 	
0.000262467 	4.03508e-09 	0.92 	0.04 	0.04 	0.0350288 	-2.60805e-07 	
-0.035029 	-0.0409067 	0.0058777 	1.6605 	3.0117e-08 	4.98146 	9.96338 	
1.66471e-10 	182897 	1833.58 	2291.97 	0.35 	17.0603 	0.0973309 	8.74889e-05 	
0.00758237 	0.00189559 	1.59536e-10 	0.00290067 	0.0100719 	0.000563866 	0 	0 	0 	
0.000349956 	5.18815e-09 	0.92 	0.04 	0.04 	0.0350287 	-2.62034e-07 	
-0.035029 	-0.0409067 	0.00587776 	1.66051 	3.8722e-08 	6.64196 	8.30288 	
1.66473e-10 	182897 	1833.58 	2291.97 	0.35 	17.0603 	0.0973318 	8.74889e-05 	
0.00758237 	0.00189559 	2.71301e-10 	0.00493276 	0.017694 	0.000392767 	0 	0 	0 	
0.000437444 	6.34123e-09 	0.92 	0.04 	0.04 	0.0350286 	-2.6304e-07 	
-0.0350289 	-0.0409067 	0.00587782 	1.66053 	4.73271e-08 	8.30248 	6.64235 	
1.66475e-10 	182897 	1833.58 	2291.97 	0.35 	17.0603 	0.0973329 	8.74889e-05 	
0.00758237 	0.00189559 	4.16201e-10 	0.00756731 	0.0274939 	0.000252775 	0 	0 	0 	
0.000524933 	7.49433e-09 	0.92 	0.04 	0.04 	0.0350285 	-2.63822e-07 	
-0.0350288 	-0.0409067 	0.00587791 	1.66056 	5.59324e-08 	9.96303 	4.98181 	
1.66477e-10 	182897 	1833.58 	2291.97 	0.35 	17.0603 	0.0973344 	8.74889e-05 	
0.00758237 	0.00189559 	5.94236e-10 	0.0108043 	0.0394719 	0.00014389 	0 	0 	0 	
0.000612422 	8.64745e-09 	0.92 	0.04 	0.04 	0.0350284 	-2.64381e-07 	
-0.0350287 	-0.0409067 	0.00587801 	1.66059 	6.45377e-08 	11.6236 	3.32124 	
1.6648e-10 	182897 	1833.58 	2291.97 	0.35 	17.0603 	0.097336 	8.74889e-05 	
0.00758237 	0.00189559 	8.0541e-10 	0.0146439 	0.0536279 	6.61127e-05 	0 	0 	0 	
0.000699911 	9.8006e-09 	0.92 	0.04 	0.04 	0.0350283 	-2.64716e-07 	
-0.0350286 	-0.0409067 	0.00587813 	1.66062 	7.31434e-08 	13.2842 	1.66064 	
1.66483e-10 	182897 	1833.58 	2291.97 	0.35 	17.0603 	0.097338 	8.74889e-05 	
0.00758237 	0.00189559 	1.04973e-09 	0.019086 	0.0699622 	1.94453e-05 	0 	0 	0 	
0.0007874 	1.03777e-08 	0.92 	0.04 	0.04 	0.0350282 	-2.64828e-07 	
-0.0350285 	-0.0409067 	0.00587826 	0.830328 	7.31434e-08 	14.5297 	0.415164 	
8.32435e-11 	91448.4 	916.789 	1145.99 	0.35 	8.53017 	0.0973402 	4.37444e-05 	
0.00379119 	0.000947796 	1.18017e-09 	0.0214577 	0.078674 	3.88917e-06 	0 	0 	0 	
ZONE T = "t = 7.75e-08 [s]" I = 10 SOLUTIONTIME = 7.7500000000000E-08
0 	5.76523e-10 	0.92 	0.04 	0.04 	0.0350288 	-2.55776e-07 	
-0.0350291 	-0.0409067 	0.00587764 	0.830239 	4.30241e-09 	0.41512 	14.5297 	
1.14447e-10 	91448.4 	916.789 	1145.99 	0.35 	8.53017 	0.0973298 	4.37444e-05 	
0.00379119 	0.000947796 	2.95069e-11 	0.000380735 	0.000255714 	0.0010557 	0 	0 	0 	
8.74889e-05 	1.72925e-09 	0.92 	0.04 	0.04 	0.0350288 	-2.57676e-07 	
-0.0350291 	-0.0409067 	0.00587764 	1.66048 	1.29072e-08 	1.66048 	13.2844 	
2.28894e-10 	182897 	1833.58 	2291.97 	0.35 	17.0603 	0.0973299 	8.74889e-05 	
0.00758237 	0.00189559 	4.98911e-11 	0.000643758 	0.00127857 	0.000938813 	0 	0 	0 	
0.000174978 	2.88214e-09 	0.92 	0.04 	0.04 	0.0350288 	-2.59352e-07 	
-0.035029 	-0.0409067 	0.00587766 	1.66049 	2.15121e-08 	3.32096 	11.6239 	
2.28895e-10 	182897 	1833.58 	2291.97 	0.35 	17.0603 	0.0973303 	8.74889e-05 	
0.00758237 	0.00189559 	1.14003e-10 	0.00147101 	0.00434715 	0.000719643 	0 	0 	0 	
0.000262467 	4.03504e-09 	0.92 	0.04 	0.04 	0.0350288 	-2.60805e-07 	
-0.035029 	-0.0409067 	0.0058777 	1.6605 	3.0117e-08 	4.98146 	9.96338 	
2.28897e-10 	182897 	1833.58 	2291.97 	0.35 	17.0603 	0.0973309 	8.74889e-05 	
0.00758237 	0.00189559 	2.24802e-10 	0.00290067 	0.00946149 	0.000529693 	0 	0 	0 	
0.000349956 	5.18778e-09 	0.92 	0.04 	0.04 	0.0350287 	-2.62034e-07 	
-0.035029 	-0.0409067 	0.00587776 	1.66051 	3.8722e-08 	6.64196 	8.30288 	
2.28899e-10 	182897 	1833.58 	2291.97 	0.35 	17.0603 	0.0973318 	8.74889e-05 	
0.00758237 	0.00189559 	3.82288e-10 	0.00493276 	0.0166216 	0.000368963 	0 	0 	0 	
0.000437444 	6.34119e-09 	0.92 	0.04 	0.04 	0.0350286 	-2.6304e-07 	
-0.0350289 	-0.0409067 	0.00587782 	1.66053 	4.73271e-08 	8.30248 	6.64235 	
2.28902e-10 	182897 	1833.58 	2291.97 	0.35 	17.0603 	0.0973329 	8.74889e-05 	
0.00758237 	0.00189559 	5.86465e-10 	0.00756731 	0.0258277 	0.000237455 	0 	0 	0 	
0.000524933 	7.49413e-09 	0.92 	0.04 	0.04 	0.0350285 	-2.63822e-07 	
-0.0350288 	-0.0409067 	0.00587791 	1.66056 	5.59324e-08 	9.96303 	4.98181 	
2.28905e-10 	182897 	1833.58 	2291.97 	0.35 	17.0603 	0.0973344 	8.74889e-05 	
0.00758237 	0.00189559 	8.37334e-10 	0.0108043 	0.0370797 	0.000135169 	0 	0 	0 	
0.000612422 	8.64693e-09 	0.92 	0.04 	0.04 	0.0350284 	-2.64381e-07 	
-0.0350287 	-0.0409067 	0.00587801 	1.66059 	6.45377e-08 	11.6236 	3.32124 	
2.28909e-10 	182897 	1833.58 	2291.97 	0.35 	17.0603 	0.097336 	8.74889e-05 	
0.00758237 	0.00189559 	1.1349e-09 	0.0146439 	0.0503778 	6.2106e-05 	0 	0 	0 	
0.000699911 	9.79975e-09 	0.92 	0.04 	0.04 	0.0350283 	-2.64716e-07 	
-0.0350286 	-0.0409067 	0.00587813 	1.66062 	7.31435e-08 	13.2842 	1.66064 	
2.28913e-10 	182897 	1833.58 	2291.97 	0.35 	17.0603 	0.097338 	8.74889e-05 	
0.00758237 	0.00189559 	1.47916e-09 	0.019086 	0.0657221 	1.82668e-05 	0 	0 	0 	
0.0007874 	1.03766e-08 	0.92 	0.04 	0.04 	0.0350282 	-2.64828e-07 	
-0.0350285 	-0.0409067 	0.00587826 	0.830328 	7.31435e-08 	14.5297 	0.415164 	
1.14459e-10 	91448.4 	916.789 	1145.99 	0.35 	8.53017 	0.0973402 	4.37444e-05 	
0.00379119 	0.000947796 	1.66296e-09 	0.0214577 	0.0739059 	3.65346e-06 	0 	0 	0 	
ZONE T = "t = 1.1125e-07 [s]" I = 10 SOLUTIONTIME = 1.1125000000000E-07
0 	5.76577e-10 	0.92 	0.04 	0.04 	0.0350288 	-2.55776e-07 	
-0.0350291 	-0.0409067 	0.00587764 	0.830239 	4.30241e-09 	0.41512 	14.5297 	
1.61266e-10 	91448.4 	916.789 	1145.99 	0.35 	8.53017 	0.0973298 	4.37444e-05 	
0.00379119 	0.000947796 	4.23567e-11 	0.000380735 	0.000244716 	0.0010103 	0 	0 	0 	
8.74889e-05 	1.72984e-09 	0.92 	0.04 	0.04 	0.0350288 	-2.57676e-07 	
-0.0350291 	-0.0409067 	0.00587764 	1.66048 	1.29072e-08 	1.66048 	13.2844 	
3.22532e-10 	182897 	1833.58 	2291.97 	0.35 	17.0603 	0.0973299 	8.74889e-05 	
0.00758237 	0.00189559 	7.1618e-11 	0.000643758 	0.00122358 	0.000898435 	0 	0 	0 	
0.000174978 	2.883e-09 	0.92 	0.04 	0.04 	0.0350288 	-2.59352e-07 	
-0.035029 	-0.0409067 	0.00587766 	1.66049 	2.15121e-08 	3.32096 	11.6239 	
3.22533e-10 	182897 	1833.58 	2291.97 	0.35 	17.0603 	0.0973303 	8.74889e-05 	
0.00758237 	0.00189559 	1.63649e-10 	0.00147101 	0.00416018 	0.000688691 	0 	0 	0 	
0.000262467 	4.03617e-09 	0.92 	0.04 	0.04 	0.0350288 	-2.60805e-07 	
-0.035029 	-0.0409067 	0.0058777 	1.6605 	3.0117e-08 	4.98146 	9.96338 	
3.22535e-10 	182897 	1833.58 	2291.97 	0.35 	17.0603 	0.0973309 	8.74889e-05 	
0.00758237 	0.00189559 	3.22699e-10 	0.00290067 	0.00905455 	0.00050691 	0 	0 	0 	
0.000349956 	5.18924e-09 	0.92 	0.04 	0.04 	0.0350287 	-2.62034e-07 	
-0.035029 	-0.0409067 	0.00587776 	1.66051 	3.8722e-08 	6.64196 	8.30288 	
3.22538e-10 	182897 	1833.58 	2291.97 	0.35 	17.0603 	0.0973318 	8.74889e-05 	
0.00758237 	0.00189559 	5.48769e-10 	0.00493276 	0.0159067 	0.000353094 	0 	0 	0 	
0.000437444 	6.34211e-09 	0.92 	0.04 	0.04 	0.0350286 	-2.6304e-07 	
-0.0350289 	-0.0409067 	0.00587782 	1.66053 	4.73271e-08 	8.30248 	6.64235 	
3.22542e-10 	182897 	1833.58 	2291.97 	0.35 	17.0603 	0.0973329 	8.74889e-05 	
0.00758237 	0.00189559 	8.41862e-10 	0.00756731 	0.0247168 	0.000227242 	0 	0 	0 	
0.000524933 	7.49531e-09 	0.92 	0.04 	0.04 	0.0350285 	-2.63822e-07 	
-0.0350288 	-0.0409067 	0.00587791 	1.66056 	5.59324e-08 	9.96303 	4.98181 	
3.22547e-10 	182897 	1833.58 	2291.97 	0.35 	17.0603 	0.0973344 	8.74889e-05 	
0.00758237 	0.00189559 	1.20198e-09 	0.0108043 	0.0354849 	0.000129356 	0 	0 	0 	
0.000612422 	8.64843e-09 	0.92 	0.04 	0.04 	0.0350284 	-2.64381e-07 	
-0.0350287 	-0.0409067 	0.00587801 	1.66059 	6.45377e-08 	11.6236 	3.32124 	
3.22552e-10 	182897 	1833.58 	2291.97 	0.35 	17.0603 	0.097336 	8.74889e-05 	
0.00758237 	0.00189559 	1.62913e-09 	0.0146439 	0.048211 	5.94348e-05 	0 	0 	0 	
0.000699911 	9.80158e-09 	0.92 	0.04 	0.04 	0.0350283 	-2.64716e-07 	
-0.0350286 	-0.0409067 	0.00587813 	1.66062 	7.31436e-08 	13.2842 	1.66064 	
3.22559e-10 	182897 	1833.58 	2291.97 	0.35 	17.0603 	0.097338 	8.74889e-05 	
0.00758237 	0.00189559 	2.12331e-09 	0.019086 	0.0628954 	1.74811e-05 	0 	0 	0 	
0.0007874 	1.0378e-08 	0.92 	0.04 	0.04 	0.0350282 	-2.64828e-07 	
-0.0350285 	-0.0409067 	0.00587826 	0.830328 	7.31436e-08 	14.5297 	0.415164 	
1.61283e-10 	91448.4 	916.789 	1145.99 	0.35 	8.53017 	0.0973402 	4.37444e-05 	
0.00379119 	0.000947796 	2.38716e-09 	0.0214577 	0.0707272 	3.49633e-06 	0 	0 	0 	
ZONE T = "t = 1.61875e-07 [s]" I = 10 SOLUTIONTIME = 1.6187500000000E-07
0 	5.76523e-10 	0.92 	0.04 	0.04 	0.0350288 	-2.55776e-07 	
-0.0350291 	-0.0409067 	0.00587764 	0.830239 	4.30241e-09 	0.41512 	14.5297 	
2.31494e-10 	91448.4 	916.789 	1145.99 	0.35 	8.53017 	0.0973298 	4.37444e-05 	
0.00379119 	0.000947796 	6.16314e-11 	0.000380735 	0.000237383 	0.000980027 	0 	0 	0 	
8.74889e-05 	1.72957e-09 	0.92 	0.04 	0.04 	0.0350288 	-2.57676e-07 	
-0.0350291 	-0.0409067 	0.00587764 	1.66048 	1.29072e-08 	1.66048 	13.2844 	
4.62988e-10 	182897 	1833.58 	2291.97 	0.35 	17.0603 	0.0973299 	8.74889e-05 	
0.00758237 	0.00189559 	1.04208e-10 	0.000643758 	0.00118692 	0.000871516 	0 	0 	0 	
0.000174978 	2.88262e-09 	0.92 	0.04 	0.04 	0.0350288 	-2.59352e-07 	
-0.035029 	-0.0409067 	0.00587766 	1.66049 	2.15121e-08 	3.32096 	11.6239 	
4.6299e-10 	182897 	1833.58 	2291.97 	0.35 	17.0603 	0.0973303 	8.74889e-05 	
0.00758237 	0.00189559 	2.38119e-10 	0.00147101 	0.00403553 	0.000668056 	0 	0 	0 	
0.000262467 	4.03568e-09 	0.92 	0.04 	0.04 	0.0350288 	-2.60805e-07 	
-0.035029 	-0.0409067 	0.0058777 	1.6605 	3.0117e-08 	4.98146 	9.96338 	
4.62993e-10 	182897 	1833.58 	2291.97 	0.35 	17.0603 	0.0973309 	8.74889e-05 	
0.00758237 	0.00189559 	4.69546e-10 	0.00290067 	0.00878325 	0.000491722 	0 	0 	0 	
0.000349956 	5.1889e-09 	0.92 	0.04 	0.04 	0.0350287 	-2.62034e-07 	
-0.035029 	-0.0409067 	0.00587776 	1.66051 	3.8722e-08 	6.64196 	8.30288 	
4.62997e-10 	182897 	1833.58 	2291.97 	0.35 	17.0603 	0.0973318 	8.74889e-05 	
0.00758237 	0.00189559 	7.9849e-10 	0.00493276 	0.0154301 	0.000342515 	0 	0 	0 	
0.000437444 	6.34212e-09 	0.92 	0.04 	0.04 	0.0350286 	-2.6304e-07 	
-0.0350289 	-0.0409067 	0.00587782 	1.66053 	4.73271e-08 	8.30248 	6.64235 	
4.63002e-10 	182897 	1833.58 	2291.97 	0.35 	17.0603 	0.0973329 	8.74889e-05 	
0.00758237 	0.00189559 	1.22496e-09 	0.00756731 	0.0239762 	0.000220434 	0 	0 	0 	
0.000524933 	7.49537e-09 	0.92 	0.04 	0.04 	0.0350285 	-2.63822e-07 	
-0.0350288 	-0.0409067 	0.00587791 	1.66056 	5.59324e-08 	9.96303 	4.98181 	
4.63009e-10 	182897 	1833.58 	2291.97 	0.35 	17.0603 	0.0973344 	8.74889e-05 	
0.00758237 	0.00189559 	1.74895e-09 	0.0108043 	0.0344217 	0.00012548 	0 	0 	0 	
0.000612422 	8.64863e-09 	0.92 	0.04 	0.04 	0.0350284 	-2.64381e-07 	
-0.0350287 	-0.0409067 	0.00587801 	1.66059 	6.45377e-08 	11.6236 	3.32124 	
4.63017e-10 	182897 	1833.58 	2291.97 	0.35 	17.0603 	0.097336 	8.74889e-05 	
0.00758237 	0.00189559 	2.37047e-09 	0.0146439 	0.0467665 	5.7654e-05 	0 	0 	0 	
0.000699911 	9.80199e-09 	0.92 	0.04 	0.04 	0.0350283 	-2.64716e-07 	
-0.0350286 	-0.0409067 	0.00587813 	1.66062 	7.31437e-08 	13.2842 	1.66064 	
4.63026e-10 	182897 	1833.58 	2291.97 	0.35 	17.0603 	0.097338 	8.74889e-05 	
0.00758237 	0.00189559 	3.08954e-09 	0.019086 	0.0610109 	1.69574e-05 	0 	0 	0 	
0.0007874 	1.03784e-08 	0.92 	0.04 	0.04 	0.0350282 	-2.64828e-07 	
-0.0350285 	-0.0409067 	0.00587826 	0.830328 	7.31437e-08 	14.5297 	0.415164 	
2.31518e-10 	91448.4 	916.789 	1145.99 	0.35 	8.53017 	0.0973402 	4.37444e-05 	
0.00379119 	0.000947796 	3.47345e-09 	0.0214577 	0.068608 	3.39157e-06 	0 	0 	0 	
ZONE T = "t = 2.37813e-07 [s]" I = 10 SOLUTIONTIME = 2.3781250000000E-07
0 	5.76499e-10 	0.92 	0.04 	0.04 	0.0350288 	-2.55776e-07 	
-0.0350291 	-0.0409067 	0.00587764 	0.830239 	4.30241e-09 	0.41512 	14.5297 	
3.36836e-10 	91448.4 	916.789 	1145.99 	0.35 	8.53017 	0.0973298 	4.37444e-05 	
0.00379119 	0.000947796 	9.05435e-11 	0.000380735 	0.000232495 	0.000959847 	0 	0 	0 	
8.74889e-05 	1.72945e-09 	0.92 	0.04 	0.04 	0.0350288 	-2.57676e-07 	
-0.0350291 	-0.0409067 	0.00587764 	1.66048 	1.29072e-08 	1.66048 	13.2844 	
6.73672e-10 	182897 	1833.58 	2291.97 	0.35 	17.0603 	0.0973299 	8.74889e-05 	
0.00758237 	0.00189559 	1.53094e-10 	0.000643758 	0.00116248 	0.00085357 	0 	0 	0 	
0.000174978 	2.88246e-09 	0.92 	0.04 	0.04 	0.0350288 	-2.59352e-07 	
-0.035029 	-0.0409067 	0.00587766 	1.66049 	2.15121e-08 	3.32096 	11.6239 	
6.73675e-10 	182897 	1833.58 	2291.97 	0.35 	17.0603 	0.0973303 	8.74889e-05 	
0.00758237 	0.00189559 	3.49824e-10 	0.00147101 	0.00395243 	0.000654299 	0 	0 	0 	
0.000262467 	4.03547e-09 	0.92 	0.04 	0.04 	0.0350288 	-2.60805e-07 	
-0.035029 	-0.0409067 	0.0058777 	1.6605 	3.0117e-08 	4.98146 	9.96338 	
6.73679e-10 	182897 	1833.58 	2291.97 	0.35 	17.0603 	0.0973309 	8.74889e-05 	
0.00758237 	0.00189559 	6.89815e-10 	0.00290067 	0.00860239 	0.000481597 	0 	0 	0 	
0.000349956 	5.18849e-09 	0.92 	0.04 	0.04 	0.0350287 	-2.62034e-07 	
-0.035029 	-0.0409067 	0.00587776 	1.66051 	3.8722e-08 	6.64196 	8.30288 	
6.73685e-10 	182897 	1833.58 	2291.97 	0.35 	17.0603 	0.0973318 	8.74889e-05 	
0.00758237 	0.00189559 	1.17307e-09 	0.00493276 	0.0151124 	0.000335462 	0 	0 	0 	
0.000437444 	6.34143e-09 	0.92 	0.04 	0.04 	0.0350286 	-2.6304e-07 	
-0.0350289 	-0.0409067 	0.00587782 	1.66053 	4.73271e-08 	8.30248 	6.64235 	
6.73693e-10 	182897 	1833.58 	2291.97 	0.35 	17.0603 	0.0973329 	8.74889e-05 	
0.00758237 	0.00189559 	1.7996e-09 	0.00756731 	0.0234825 	0.000215895 	0 	0 	0 	
0.000524933 	7.49453e-09 	0.92 	0.04 	0.04 	0.0350285 	-2.63822e-07 	
-0.0350288 	-0.0409067 	0.00587791 	1.66056 	5.59324e-08 	9.96303 	4.98181 	
6.73703e-10 	182897 	1833.58 	2291.97 	0.35 	17.0603 	0.0973344 	8.74889e-05 	
0.00758237 	0.00189559 	2.5694e-09 	0.0108043 	0.0337129 	0.000122896 	0 	0 	0 	
0.000612422 	8.64756e-09 	0.92 	0.04 	0.04 	0.0350284 	-2.64381e-07 	