TITLE = "Solution on Domain BulkDomain1D_1"
VARIABLES = "x [m]"  
"Vel_axial(0)" 	"MF_sp(ECDMC)" 	"MF_sp(Li+)" 	"MF_sp(PF6-)" 	"Volt(Electroly)" 	"qHeat_accum [J/m3]" 	"qHeat_step [W/m3]" 	"Joule_Lyte [W/m3]" 	"Joule_Solid [W/m3]" 	
ZONE T = "t = 0 [s]" I = 10 SOLUTIONTIME = 0.0000000000000E+00
0.0007874 	0 	0.92 	0.04 	0.04 	-0.07 	
0 	0.0 	 0.0 	 0.0 	 
0.000841022 	0 	0.92 	0.04 	0.04 	-0.07 	
0 	0.0 	 0.0 	 0.0 	 
0.000894644 	0 	0.92 	0.04 	0.04 	-0.07 	
0 	0.0 	 0.0 	 0.0 	 
0.000948267 	0 	0.92 	0.04 	0.04 	-0.07 	
0 	0.0 	 0.0 	 0.0 	 
0.00100189 	0 	0.92 	0.04 	0.04 	-0.07 	
0 	0.0 	 0.0 	 0.0 	 
0.00105551 	0 	0.92 	0.04 	0.04 	-0.07 	
0 	0.0 	 0.0 	 0.0 	 
0.00110913 	0 	0.92 	0.04 	0.04 	-0.07 	
0 	0.0 	 0.0 	 0.0 	 
0.00116276 	0 	0.92 	0.04 	0.04 	-0.07 	
0 	0.0 	 0.0 	 0.0 	 
0.00121638 	0 	0.92 	0.04 	0.04 	-0.07 	
0 	0.0 	 0.0 	 0.0 	 
0.00127 	0 	0.92 	0.04 	0.04 	-0.07 	
0 	0.0 	 0.0 	 0.0 	 
ZONE T = "t = 1e-08 [s]" I = 10 SOLUTIONTIME = 1.0000000000000E-08
0.0007874 	1.03732e-08 	0.92 	0.04 	0.04 	0.0350278 	
6.84376e-11 	0.00684376 	0.00684376 	0 	
0.000841022 	1.03732e-08 	0.92 	0.04 	0.04 	0.0350277 	
6.84376e-11 	0.00684376 	0.00684376 	0 	
0.000894644 	1.03732e-08 	0.92 	0.04 	0.04 	0.0350277 	
6.84376e-11 	0.00684376 	0.00684376 	0 	
0.000948267 	1.03732e-08 	0.92 	0.04 	0.04 	0.0350277 	
6.84376e-11 	0.00684376 	0.00684376 	0 	
0.00100189 	1.03732e-08 	0.92 	0.04 	0.04 	0.0350277 	
6.84376e-11 	0.00684376 	0.00684376 	0 	
0.00105551 	1.03732e-08 	0.92 	0.04 	0.04 	0.0350276 	
6.84376e-11 	0.00684376 	0.00684376 	0 	
0.00110913 	1.03732e-08 	0.92 	0.04 	0.04 	0.0350276 	
6.84376e-11 	0.00684376 	0.00684376 	0 	
0.00116276 	1.03732e-08 	0.92 	0.04 	0.04 	0.0350276 	
6.84376e-11 	0.00684376 	0.00684376 	0 	
0.00121638 	1.03732e-08 	0.92 	0.04 	0.04 	0.0350276 	
6.84376e-11 	0.00684376 	0.00684376 	0 	
0.00127 	9.22007e-09 	0.92 	0.04 	0.04 	0.0350275 	
6.84376e-11 	0.00684376 	0.00684376 	0 	
ZONE T = "t = 2e-08 [s]" I = 10 SOLUTIONTIME = 2.0000000000000E-08
0.0007874 	1.03861e-08 	0.92 	0.04 	0.04 	0.0350282 	
1.36876e-10 	0.00684386 	0.00684386 	0 	
0.000841022 	1.03861e-08 	0.92 	0.04 	0.04 	0.0350282 	
1.36876e-10 	0.00684386 	0.00684386 	0 	
0.000894644 	1.03861e-08 	0.92 	0.04 	0.04 	0.0350281 	
1.36876e-10 	0.00684386 	0.00684386 	0 	
0.000948267 	1.03861e-08 	0.92 	0.04 	0.04 	0.0350281 	
1.36876e-10 	0.00684386 	0.00684386 	0 	
0.00100189 	1.03861e-08 	0.92 	0.04 	0.04 	0.0350281 	
1.36876e-10 	0.00684386 	0.00684386 	0 	
0.00105551 	1.03861e-08 	0.92 	0.04 	0.04 	0.0350281 	
1.36876e-10 	0.00684386 	0.00684386 	0 	
0.00110913 	1.03861e-08 	0.92 	0.04 	0.04 	0.035028 	
1.36876e-10 	0.00684386 	0.00684386 	0 	
0.00116276 	1.03861e-08 	0.92 	0.04 	0.04 	0.035028 	
1.36876e-10 	0.00684386 	0.00684386 	0 	
0.00121638 	1.03861e-08 	0.92 	0.04 	0.04 	0.035028 	
1.36876e-10 	0.00684386 	0.00684386 	0 	
0.00127 	9.23466e-09 	0.92 	0.04 	0.04 	0.035028 	
1.36876e-10 	0.00684386 	0.00684386 	0 	
ZONE T = "t = 3e-08 [s]" I = 10 SOLUTIONTIME = 3.0000000000000E-08
0.0007874 	1.0374e-08 	0.92 	0.04 	0.04 	0.0350282 	
2.05315e-10 	0.00684386 	0.00684386 	0 	
0.000841022 	1.0374e-08 	0.92 	0.04 	0.04 	0.0350282 	
2.05315e-10 	0.00684386 	0.00684386 	0 	
0.000894644 	1.0374e-08 	0.92 	0.04 	0.04 	0.0350281 	
2.05315e-10 	0.00684386 	0.00684386 	0 	
0.000948267 	1.0374e-08 	0.92 	0.04 	0.04 	0.0350281 	
2.05315e-10 	0.00684386 	0.00684386 	0 	
0.00100189 	1.0374e-08 	0.92 	0.04 	0.04 	0.0350281 	
2.05315e-10 	0.00684386 	0.00684386 	0 	
0.00105551 	1.0374e-08 	0.92 	0.04 	0.04 	0.0350281 	
2.05315e-10 	0.00684386 	0.00684386 	0 	
0.00110913 	1.0374e-08 	0.92 	0.04 	0.04 	0.035028 	
2.05315e-10 	0.00684386 	0.00684386 	0 	
0.00116276 	1.0374e-08 	0.92 	0.04 	0.04 	0.035028 	
2.05315e-10 	0.00684386 	0.00684386 	0 	
0.00121638 	1.0374e-08 	0.92 	0.04 	0.04 	0.035028 	
2.05315e-10 	0.00684386 	0.00684386 	0 	
0.00127 	9.22086e-09 	0.92 	0.04 	0.04 	0.035028 	
2.05315e-10 	0.00684386 	0.00684386 	0 	
ZONE T = "t = 4e-08 [s]" I = 10 SOLUTIONTIME = 4.0000000000000E-08
0.0007874 	1.03774e-08 	0.92 	0.04 	0.04 	0.0350282 	
2.73753e-10 	0.00684386 	0.00684386 	0 	
0.000841022 	1.03774e-08 	0.92 	0.04 	0.04 	0.0350282 	
2.73753e-10 	0.00684386 	0.00684386 	0 	
0.000894644 	1.03774e-08 	0.92 	0.04 	0.04 	0.0350281 	
2.73753e-10 	0.00684386 	0.00684386 	0 	
0.000948267 	1.03774e-08 	0.92 	0.04 	0.04 	0.0350281 	
2.73753e-10 	0.00684386 	0.00684386 	0 	
0.00100189 	1.03774e-08 	0.92 	0.04 	0.04 	0.0350281 	
2.73753e-10 	0.00684386 	0.00684386 	0 	
0.00105551 	1.03774e-08 	0.92 	0.04 	0.04 	0.0350281 	
2.73753e-10 	0.00684386 	0.00684386 	0 	
0.00110913 	1.03774e-08 	0.92 	0.04 	0.04 	0.035028 	
2.73753e-10 	0.00684386 	0.00684386 	0 	
0.00116276 	1.03774e-08 	0.92 	0.04 	0.04 	0.035028 	
2.73753e-10 	0.00684386 	0.00684386 	0 	
0.00121638 	1.03774e-08 	0.92 	0.04 	0.04 	0.035028 	
2.73753e-10 	0.00684386 	0.00684386 	0 	
0.00127 	9.22486e-09 	0.92 	0.04 	0.04 	0.035028 	
2.73753e-10 	0.00684386 	0.00684386 	0 	
ZONE T = "t = 5.5e-08 [s]" I = 10 SOLUTIONTIME = 5.5000000000000E-08
0.0007874 	1.03777e-08 	0.92 	0.04 	0.04 	0.0350282 	
3.76411e-10 	0.00684386 	0.00684386 	0 	
0.000841022 	1.03777e-08 	0.92 	0.04 	0.04 	0.0350282 	
3.76411e-10 	0.00684386 	0.00684386 	0 	
0.000894644 	1.03777e-08 	0.92 	0.04 	0.04 	0.0350281 	
3.76411e-10 	0.00684386 	0.00684386 	0 	
0.000948267 	1.03777e-08 	0.92 	0.04 	0.04 	0.0350281 	
3.76411e-10 	0.00684386 	0.00684386 	0 	
0.00100189 	1.03777e-08 	0.92 	0.04 	0.04 	0.0350281 	
3.76411e-10 	0.00684386 	0.00684386 	0 	
0.00105551 	1.03777e-08 	0.92 	0.04 	0.04 	0.0350281 	
3.76411e-10 	0.00684386 	0.00684386 	0 	
0.00110913 	1.03777e-08 	0.92 	0.04 	0.04 	0.035028 	
3.76411e-10 	0.00684386 	0.00684386 	0 	
0.00116276 	1.03777e-08 	0.92 	0.04 	0.04 	0.035028 	
3.76411e-10 	0.00684386 	0.00684386 	0 	
0.00121638 	1.03777e-08 	0.92 	0.04 	0.04 	0.035028 	
3.76411e-10 	0.00684386 	0.00684386 	0 	
0.00127 	9.22461e-09 	0.92 	0.04 	0.04 	0.035028 	
3.76411e-10 	0.00684386 	0.00684386 	0 	
ZONE T = "t = 7.75e-08 [s]" I = 10 SOLUTIONTIME = 7.7500000000000E-08
0.0007874 	1.03766e-08 	0.92 	0.04 	0.04 	0.0350282 	
5.30398e-10 	0.00684386 	0.00684386 	0 	
0.000841022 	1.03766e-08 	0.92 	0.04 	0.04 	0.0350282 	
5.30398e-10 	0.00684386 	0.00684386 	0 	
0.000894644 	1.03766e-08 	0.92 	0.04 	0.04 	0.0350281 	
5.30398e-10 	0.00684386 	0.00684386 	0 	
0.000948267 	1.03766e-08 	0.92 	0.04 	0.04 	0.0350281 	
5.30398e-10 	0.00684386 	0.00684386 	0 	
0.00100189 	1.03766e-08 	0.92 	0.04 	0.04 	0.0350281 	
5.30398e-10 	0.00684386 	0.00684386 	0 	
0.00105551 	1.03766e-08 	0.92 	0.04 	0.04 	0.0350281 	
5.30398e-10 	0.00684386 	0.00684386 	0 	
0.00110913 	1.03766e-08 	0.92 	0.04 	0.04 	0.035028 	
5.30398e-10 	0.00684386 	0.00684386 	0 	
0.00116276 	1.03766e-08 	0.92 	0.04 	0.04 	0.035028 	
5.30398e-10 	0.00684386 	0.00684386 	0 	
0.00121638 	1.03766e-08 	0.92 	0.04 	0.04 	0.035028 	
5.30398e-10 	0.00684386 	0.00684386 	0 	
0.00127 	9.22433e-09 	0.92 	0.04 	0.04 	0.035028 	
5.30398e-10 	0.00684386 	0.00684386 	0 	
ZONE T = "t = 1.1125e-07 [s]" I = 10 SOLUTIONTIME = 1.1125000000000E-07
0.0007874 	1.0378e-08 	0.92 	0.04 	0.04 	0.0350282 	
7.61378e-10 	0.00684386 	0.00684386 	0 	
0.000841022 	1.0378e-08 	0.92 	0.04 	0.04 	0.0350282 	
7.61378e-10 	0.00684386 	0.00684386 	0 	
0.000894644 	1.0378e-08 	0.92 	0.04 	0.04 	0.0350281 	
7.61378e-10 	0.00684386 	0.00684386 	0 	
0.000948267 	1.0378e-08 	0.92 	0.04 	0.04 	0.0350281 	
7.61378e-10 	0.00684386 	0.00684386 	0 	
0.00100189 	1.0378e-08 	0.92 	0.04 	0.04 	0.0350281 	
7.61378e-10 	0.00684386 	0.00684386 	0 	
0.00105551 	1.0378e-08 	0.92 	0.04 	0.04 	0.0350281 	
7.61378e-10 	0.00684386 	0.00684386 	0 	
0.00110913 	1.0378e-08 	0.92 	0.04 	0.04 	0.035028 	
7.61378e-10 	0.00684386 	0.00684386 	0 	
0.00116276 	1.0378e-08 	0.92 	0.04 	0.04 	0.035028 	
7.61378e-10 	0.00684386 	0.00684386 	0 	
0.00121638 	1.0378e-08 	0.92 	0.04 	0.04 	0.035028 	
7.61378e-10 	0.00684386 	0.00684386 	0 	
0.00127 	9.22554e-09 	0.92 	0.04 	0.04 	0.035028 	
7.61378e-10 	0.00684386 	0.00684386 	0 	
ZONE T = "t = 1.61875e-07 [s]" I = 10 SOLUTIONTIME = 1.6187500000000E-07
0.0007874 	1.03784e-08 	0.92 	0.04 	0.04 	0.0350282 	
1.10785e-09 	0.00684386 	0.00684386 	0 	
0.000841022 	1.03784e-08 	0.92 	0.04 	0.04 	0.0350282 	
1.10785e-09 	0.00684386 	0.00684386 	0 	
0.000894644 	1.03784e-08 	0.92 	0.04 	0.04 	0.0350281 	
1.10785e-09 	0.00684386 	0.00684386 	0 	
0.000948267 	1.03784e-08 	0.92 	0.04 	0.04 	0.0350281 	
1.10785e-09 	0.00684386 	0.00684386 	0 	
0.00100189 	1.03784e-08 	0.92 	0.04 	0.04 	0.0350281 	
1.10785e-09 	0.00684386 	0.00684386 	0 	
0.00105551 	1.03784e-08 	0.92 	0.04 	0.04 	0.0350281 	
1.10785e-09 	0.00684386 	0.00684386 	0 	
0.00110913 	1.03784e-08 	0.92 	0.04 	0.04 	0.035028 	
1.10785e-09 	0.00684386 	0.00684386 	0 	
0.00116276 	1.03784e-08 	0.92 	0.04 	0.04 	0.035028 	
1.10785e-09 	0.00684386 	0.00684386 	0 	
0.00121638 	1.03783e-08 	0.92 	0.04 	0.04 	0.035028 	
1.10785e-09 	0.00684386 	0.00684386 	0 	
0.00127 	9.22565e-09 	0.92 	0.04 	0.04 	0.035028 	
1.10785e-09 	0.00684386 	0.00684386 	0 	
ZONE T = "t = 2.37813e-07 [s]" I = 10 SOLUTIONTIME = 2.3781250000000E-07
0.0007874 	1.03772e-08 	0.92 	0.04 	0.04 	0.0350282 	
1.62755e-09 	0.00684386 	0.00684386 	0 	
0.000841022 	1.03772e-08 	0.92 	0.04 	0.04 	0.0350282 	
1.62755e-09 	0.00684386 	0.00684386 	0 	
0.000894644 	1.03772e-08 	0.92 	0.04 	0.04 	0.0350281 	
1.62755e-09 	0.00684386 	0.00684386 	0 	
0.000948267 	1.03772e-08 	0.92 	0.04 	0.04 	0.0350281 	
1.62755e-09 	0.00684386 	0.00684386 	0 	
0.00100189 	1.03772e-08 	0.92 	0.04 	0.04 	0.0350281 	
1.62755e-09 	0.00684386 	0.00684386 	0 	
0.00105551 	1.03772e-08 	0.92 	0.04 	0.04 	0.0350281 	
1.62755e-09 	0.00684386 	0.00684386 	0 	
0.00110913 	1.03772e-08 	0.92 	0.04 	0.04 	0.035028 	
1.62755e-09 	0.00684386 	0.00684386 	0 	
0.00116276 	1.03772e-08 	0.92 	0.04 	0.04 	0.035028 	
1.62755e-09 	0.00684386 	0.00684386 	0 	
0.00121638 	1.03772e-08 	0.92 	0.04 	0.04 	0.035028 	
1.62755e-09 	0.00684386 	0.00684386 	0 	
0.00127 	9.2246e-09 	0.92 	0.04 	0.04 	0.035028 	
1.62755e-09 	0.00684386 	0.00684386 	0 	
ZONE T = "t = 3.51719e-07 [s]" I = 10 SOLUTIONTIME = 3.5171875000000E-07
0.0007874 	1.03781e-08 	0.92 	0.04 	0.04 	0.0350282 	
2.40711e-09 	0.00684386 	0.00684386 	0 	
0.000841022 	1.03781e-08 	0.92 	0.04 	0.04 	0.0350282 	
2.40711e-09 	0.00684386 	0.00684386 	0 	
0.000894644 	1.03781e-08 	0.92 	0.04 	0.04 	0.0350281 	
2.40711e-09 	0.00684386 	0.00684386 	0 	
0.000948267 	1.03781e-08 	0.92 	0.04 	0.04 	0.0350281 	
2.40711e-09 	0.00684386 	0.00684386 	0 	
0.00100189 	1.03781e-08 	0.92 	0.04 	0.04 	0.0350281 	
2.40711e-09 	0.00684386 	0.00684386 	0 	
0.00105551 	1.03781e-08 	0.92 	0.04 	0.04 	0.0350281 	
2.40711e-09 	0.00684386 	0.00684386 	0 	
0.00110913 	1.03781e-08 	0.92 	0.04 	0.04 	0.035028 	
2.40711e-09 	0.00684386 	0.00684386 	0 	
0.00116276 	1.03781e-08 	0.92 	0.04 	0.04 	0.035028 	
2.40711e-09 	0.00684386 	0.00684386 	0 	
0.00121638 	1.03781e-08 	0.92 	0.04 	0.04 	0.035028 	
2.40711e-09 	0.00684386 	0.00684386 	0 	
0.00127 	9.22559e-09 	0.92 	0.04 	0.04 	0.035028 	
2.40711e-09 	0.00684386 	0.00684386 	0 	
