TITLE = "Solution on Domain BulkDomain1D_2"
VARIABLES = "x [m]"  
"Vel_axial(0)" 	"MF_sp(ECDMC)" 	"MF_sp(Li+)" 	"MF_sp(PF6-)" 	"Volt(Electroly)" 	"Volt(CathodeVo)" 	
"Potential Drop Electrode-Electrolyte [V]" 	"Surf_0 Equilibrium Potential Drop Electrode-Electrolyte [V]" 	"Overpotential_0 [V]" 	"Current Source [A/m^2]" 	"Li+ flux [kmol/m^2/s]" 	"Electrolyte Current [A/m^2]" 	"Electrode Current [A/m^2]" 	
"Capacity discharged [A-s]" 	"Depth of discharge [-]" 	"Capacity remaining [A-s]" 	"Initial capacity [A-s]" 	"Porosity []" 	"Surface Area [m2/m2] (area per area)" 	"Specific current (per particle area) [A/m^2]" 	"Control volume thickness [m]" 	
"Moles LiCoO2 [mol/m^2] (per electrode area)" 	"Moles CoO2 [mol/m^2] (per electrode area)" 	"qHeat_accum [J/m3]" 	"qHeat_step [W/m3]" 	"Joule_Lyte [W/m3]" 	"Joule_Solid [W/m3]" 	"electrodHeat [W/m3]" 	"OverpotHeat [W/m3]" 	"deltaSHeat [W/m3]" 	

ZONE T = "t = 0 [s]" I = 10 SOLUTIONTIME = 0.0000000000000E+00
0.00127 	0 	0.92 	0.04 	0.04 	-0.07 	3.8 	
0 	0 	0 	0 	0 	0.119132 	0 	
0 	0 	0 	0 	0.35 	6.604 	-0.0360787 	3.38667e-05 	
0.000900955 	0.000600637 	0 	0.0 	 0.0 	 0.0 	 0.0 	 0.0 	 0.0 	 
0.00133773 	0 	0.92 	0.04 	0.04 	-0.07 	3.8 	
0 	0 	0 	0 	0 	0 	-0 	
0 	0 	0 	0 	0.35 	13.208 	-0.0360787 	6.77333e-05 	
0.00180191 	0.00120127 	0 	0.0 	 0.0 	 0.0 	 0.0 	 0.0 	 0.0 	 
0.00140547 	0 	0.92 	0.04 	0.04 	-0.07 	3.8 	
0 	0 	0 	0 	0 	0 	-0 	
0 	0 	0 	0 	0.35 	13.208 	-0.0360787 	6.77333e-05 	
0.00180191 	0.00120127 	0 	0.0 	 0.0 	 0.0 	 0.0 	 0.0 	 0.0 	 
0.0014732 	0 	0.92 	0.04 	0.04 	-0.07 	3.8 	
0 	0 	0 	0 	0 	0 	-0 	
0 	0 	0 	0 	0.35 	13.208 	-0.0360787 	6.77333e-05 	
0.00180191 	0.00120127 	0 	0.0 	 0.0 	 0.0 	 0.0 	 0.0 	 0.0 	 
0.00154093 	0 	0.92 	0.04 	0.04 	-0.07 	3.8 	
0 	0 	0 	0 	0 	0 	-0 	
0 	0 	0 	0 	0.35 	13.208 	-0.0360787 	6.77333e-05 	
0.00180191 	0.00120127 	0 	0.0 	 0.0 	 0.0 	 0.0 	 0.0 	 0.0 	 
0.00160867 	0 	0.92 	0.04 	0.04 	-0.07 	3.8 	
0 	0 	0 	0 	0 	0 	-0 	
0 	0 	0 	0 	0.35 	13.208 	-0.0360787 	6.77333e-05 	
0.00180191 	0.00120127 	0 	0.0 	 0.0 	 0.0 	 0.0 	 0.0 	 0.0 	 
0.0016764 	0 	0.92 	0.04 	0.04 	-0.07 	3.8 	
0 	0 	0 	0 	0 	0 	-0 	
0 	0 	0 	0 	0.35 	13.208 	-0.0360787 	6.77333e-05 	
0.00180191 	0.00120127 	0 	0.0 	 0.0 	 0.0 	 0.0 	 0.0 	 0.0 	 
0.00174413 	0 	0.92 	0.04 	0.04 	-0.07 	3.8 	
0 	0 	0 	0 	0 	0 	-0 	
0 	0 	0 	0 	0.35 	13.208 	-0.0360787 	6.77333e-05 	
0.00180191 	0.00120127 	0 	0.0 	 0.0 	 0.0 	 0.0 	 0.0 	 0.0 	 
0.00181187 	0 	0.92 	0.04 	0.04 	-0.07 	3.8 	
0 	0 	0 	0 	0 	0 	-0 	
0 	0 	0 	0 	0.35 	13.208 	-0.0360787 	6.77333e-05 	
0.00180191 	0.00120127 	0 	0.0 	 0.0 	 0.0 	 0.0 	 0.0 	 0.0 	 
0.0018796 	0 	0.92 	0.04 	0.04 	-0.07 	3.8 	
0 	0 	0 	0 	0 	0 	0.119132 	
0 	0 	0 	0 	0.35 	6.604 	-0.0360787 	3.38667e-05 	
0.000900955 	0.000600637 	0 	0.0 	 0.0 	 0.0 	 0.0 	 0.0 	 0.0 	 
ZONE T = "t = 1e-08 [s]" I = 10 SOLUTIONTIME = 1.0000000000000E-08
0.00127 	1.11673e-08 	0.92 	0.04 	0.04 	0.0180625 	3.85063 	
3.87 	3.97141 	-0.101414 	-0.238264 	-0 	17.5896 	0.502277 	
-0 	7244.08 	123.46 	141.616 	0.35 	6.604 	-0.152113 	3.38667e-05 	
0.000900955 	0.000600637 	4.6972e-10 	0.046972 	0.0314469 	0.0155251 	0 	0 	0 	
0.00133773 	8.37657e-09 	0.92 	0.04 	0.04 	0.0180623 	3.85063 	
3.87 	3.97141 	-0.101414 	-0.476527 	-0 	16.0828 	2.00913 	
-0 	14488.2 	246.919 	283.231 	0.35 	13.208 	-0.152116 	6.77333e-05 	
0.00180191 	0.00120127 	1.05594e-09 	0.105594 	0.0279667 	0.077627 	0 	0 	0 	
0.00140547 	5.58572e-09 	0.92 	0.04 	0.04 	0.0180622 	3.85062 	
3.87 	3.97141 	-0.101414 	-0.476527 	-0 	14.0736 	4.01833 	
-0 	14488.2 	246.919 	283.231 	0.35 	13.208 	-0.152125 	6.77333e-05 	
0.00180191 	0.00120127 	2.85383e-09 	0.285383 	0.021441 	0.263942 	0 	0 	0 	
0.0014732 	2.79458e-09 	0.92 	0.04 	0.04 	0.0180621 	3.85062 	
3.87 	3.97141 	-0.101414 	-0.476527 	-0 	12.0642 	6.02769 	
-0 	14488.2 	246.919 	283.231 	0.35 	13.208 	-0.15214 	6.77333e-05 	
0.00180191 	0.00120127 	5.90286e-09 	0.590286 	0.0157844 	0.574501 	0 	0 	0 	
0.00154093 	3.78188e-12 	0.92 	0.04 	0.04 	0.0180621 	3.85061 	
3.87 	3.97141 	-0.101414 	-0.476527 	-0 	10.0546 	8.0373 	
-0 	14488.2 	246.919 	283.231 	0.35 	13.208 	-0.152162 	6.77333e-05 	
0.00180191 	0.00120127 	1.02035e-08 	1.02035 	0.010997 	1.00935 	0 	0 	0 	
0.00160867 	-2.78826e-09 	0.92 	0.04 	0.04 	0.018062 	3.8506 	
3.87 	3.97141 	-0.101414 	-0.476527 	-0 	8.04466 	10.0472 	
-0 	14488.2 	246.919 	283.231 	0.35 	13.208 	-0.152189 	6.77333e-05 	
0.00180191 	0.00120127 	1.57565e-08 	1.57565 	0.00707898 	1.56857 	0 	0 	0 	
0.0016764 	-5.58092e-09 	0.92 	0.04 	0.04 	0.0180619 	3.85059 	
3.87 	3.97141 	-0.101414 	-0.476527 	-0 	6.03431 	12.0576 	
-0 	14488.2 	246.919 	283.231 	0.35 	13.208 	-0.152224 	6.77333e-05 	
0.00180191 	0.00120127 	2.25627e-08 	2.25627 	0.00403064 	2.25224 	0 	0 	0 	
0.00174413 	-8.3736e-09 	0.92 	0.04 	0.04 	0.0180619 	3.85058 	
3.87 	3.97141 	-0.101414 	-0.476527 	-0 	4.02348 	14.0684 	
-0 	14488.2 	246.919 	283.231 	0.35 	13.208 	-0.152264 	6.77333e-05 	
0.00180191 	0.00120127 	3.06233e-08 	3.06233 	0.00185244 	3.06048 	0 	0 	0 	
0.00181187 	-1.11679e-08 	0.92 	0.04 	0.04 	0.0180619 	3.85056 	
3.87 	3.97141 	-0.101414 	-0.476527 	-0 	2.01207 	16.0798 	
-0 	14488.2 	246.919 	283.231 	0.35 	13.208 	-0.152311 	6.77333e-05 	
0.00180191 	0.00120127 	3.99397e-08 	3.99397 	0.000544997 	3.99342 	0 	0 	0 	
0.0018796 	0 	0.92 	0.04 	0.04 	0.0180619 	3.85054 	
3.87 	3.97141 	-0.101414 	-0.238264 	-0 	0.503105 	17.5888 	
-0 	7244.08 	123.46 	141.616 	0.35 	6.604 	-0.152364 	3.38667e-05 	
0.000900955 	0.000600637 	4.49119e-08 	4.49119 	0.000109045 	4.49108 	0 	0 	0 	
ZONE T = "t = 2e-08 [s]" I = 10 SOLUTIONTIME = 2.0000000000000E-08
0.00127 	9.21833e-09 	0.92 	0.04 	0.04 	0.0350304 	3.8418 	
3.83256 	3.97141 	-0.13885 	-1.00455 	8.8549e-08 	14.5234 	0.41475 	
2.51771e-11 	7244.08 	123.46 	141.616 	0.35 	6.604 	-0.12572 	3.38667e-05 	
0.000900955 	0.000600637 	7.89953e-10 	0.0320234 	0.0214377 	0.0105857 	0 	0 	0 	
0.00133773 	6.91425e-09 	0.92 	0.04 	0.04 	0.0350303 	3.8418 	
3.83256 	3.97141 	-0.138851 	-2.00914 	7.81372e-08 	13.2788 	1.65901 	
5.03552e-11 	14488.2 	246.919 	283.231 	0.35 	13.208 	-0.125722 	6.77333e-05 	
0.00180191 	0.00120127 	1.77588e-09 	0.0719945 	0.019065 	0.0529295 	0 	0 	0 	
0.00140547 	4.61006e-09 	0.92 	0.04 	0.04 	0.0350302 	3.8418 	
3.83256 	3.97141 	-0.138854 	-2.00926 	6.7725e-08 	11.6197 	3.31808 	
5.03582e-11 	14488.2 	246.919 	283.231 	0.35 	13.208 	-0.125728 	6.77333e-05 	
0.00180191 	0.00120127 	4.79966e-09 	0.194582 	0.014616 	0.179966 	0 	0 	0 	
0.0014732 	2.30605e-09 	0.92 	0.04 	0.04 	0.0350301 	3.84179 	
3.83256 	3.97141 	-0.138859 	-2.00947 	5.73116e-08 	9.96053 	4.97726 	
5.03632e-11 	14488.2 	246.919 	283.231 	0.35 	13.208 	-0.125738 	6.77333e-05 	
0.00180191 	0.00120127 	9.92759e-09 	0.402473 	0.0107596 	0.391713 	0 	0 	0 	
0.00154093 	1.39521e-12 	0.92 	0.04 	0.04 	0.0350301 	3.84179 	
3.83255 	3.97141 	-0.138866 	-2.00975 	4.68968e-08 	8.30119 	6.6366 	
5.03704e-11 	14488.2 	246.919 	283.231 	0.35 	13.208 	-0.125753 	6.77333e-05 	
0.00180191 	0.00120127 	1.71604e-08 	0.695694 	0.00749595 	0.688198 	0 	0 	0 	
0.00160867 	-2.30433e-09 	0.92 	0.04 	0.04 	0.03503 	3.84178 	
3.83254 	3.97141 	-0.138876 	-2.01012 	3.64801e-08 	6.64162 	8.29617 	
5.03796e-11 	14488.2 	246.919 	283.231 	0.35 	13.208 	-0.125772 	6.77333e-05 	
0.00180191 	0.00120127 	2.64994e-08 	1.07429 	0.00482509 	1.06946 	0 	0 	0 	
0.0016764 	-4.60939e-09 	0.92 	0.04 	0.04 	0.03503 	3.84177 	
3.83253 	3.97141 	-0.138887 	-2.01057 	2.60611e-08 	4.98178 	9.95601 	
5.03909e-11 	14488.2 	246.919 	283.231 	0.35 	13.208 	-0.125795 	6.77333e-05 	
0.00180191 	0.00120127 	3.79457e-08 	1.5383 	0.00274719 	1.53555 	0 	0 	0 	
0.00174413 	-6.91532e-09 	0.92 	0.04 	0.04 	0.0350299 	3.84176 	
3.83251 	3.97141 	-0.138901 	-2.0111 	1.56393e-08 	3.3216 	11.6162 	
5.04042e-11 	14488.2 	246.919 	283.231 	0.35 	13.208 	-0.125823 	6.77333e-05 	
0.00180191 	0.00120127 	5.15014e-08 	2.0878 	0.00126252 	2.08654 	0 	0 	0 	
0.00181187 	-9.2222e-09 	0.92 	0.04 	0.04 	0.0350299 	3.84175 	
3.8325 	3.97141 	-0.138916 	-2.01172 	5.2145e-09 	1.66102 	13.2768 	
5.04197e-11 	14488.2 	246.919 	283.231 	0.35 	13.208 	-0.125854 	6.77333e-05 	
0.00180191 	0.00120127 	6.71683e-08 	2.72286 	0.00037142 	2.72249 	0 	0 	0 	
0.0018796 	0 	0.92 	0.04 	0.04 	0.0350299 	3.84173 	
3.83248 	3.97141 	-0.138934 	-1.00621 	5.2145e-09 	0.415315 	14.5228 	
2.52186e-11 	7244.08 	123.46 	141.616 	0.35 	6.604 	-0.12589 	3.38667e-05 	
0.000900955 	0.000600637 	7.55299e-08 	3.0618 	7.43097e-05 	3.06172 	0 	0 	0 	
ZONE T = "t = 3e-08 [s]" I = 10 SOLUTIONTIME = 3.0000000000000E-08
0.00127 	9.22063e-09 	0.92 	0.04 	0.04 	0.0350345 	3.84177 	
3.80677 	3.97141 	-0.164644 	-0.830252 	7.31112e-08 	14.5136 	0.414454 	
4.59858e-11 	7244.08 	123.46 	141.616 	0.35 	6.604 	-0.125803 	3.38667e-05 	
0.000900955 	0.000600637 	1.10973e-09 	0.0319776 	0.021407 	0.0105706 	0 	0 	0 	
0.00133773 	6.91821e-09 	0.92 	0.04 	0.04 	0.0350344 	3.84177 	
3.80677 	3.97141 	-0.164645 	-1.66053 	6.45137e-08 	13.2693 	1.65783 	
9.1973e-11 	14488.2 	246.919 	283.231 	0.35 	13.208 	-0.125805 	6.77333e-05 	
0.00180191 	0.00120127 	2.4948e-09 	0.0718916 	0.0190377 	0.0528538 	0 	0 	0 	
0.00140547 	4.61567e-09 	0.92 	0.04 	0.04 	0.0350343 	3.84177 	
3.80677 	3.97141 	-0.164647 	-1.66061 	5.5916e-08 	11.6114 	3.31571 	
9.19781e-11 	14488.2 	246.919 	283.231 	0.35 	13.208 	-0.125811 	6.77333e-05 	
0.00180191 	0.00120127 	6.7427e-09 	0.194304 	0.0145951 	0.179709 	0 	0 	0 	
0.0014732 	2.3133e-09 	0.92 	0.04 	0.04 	0.0350342 	3.84176 	
3.80676 	3.97141 	-0.164651 	-1.66075 	4.73176e-08 	9.95341 	4.9737 	
9.19866e-11 	14488.2 	246.919 	283.231 	0.35 	13.208 	-0.125821 	6.77333e-05 	
0.00180191 	0.00120127 	1.39466e-08 	0.401897 	0.0107442 	0.391153 	0 	0 	0 	
0.00154093 	1.06583e-11 	0.92 	0.04 	0.04 	0.0350341 	3.84176 	
3.80676 	3.97141 	-0.164657 	-1.66094 	3.87181e-08 	8.29526 	6.63185 	
9.19986e-11 	14488.2 	246.919 	283.231 	0.35 	13.208 	-0.125836 	6.77333e-05 	
0.00180191 	0.00120127 	2.41074e-08 	0.694699 	0.00748524 	0.687214 	0 	0 	0 	
0.00160867 	-2.29306e-09 	0.92 	0.04 	0.04 	0.0350341 	3.84175 	
3.80675 	3.97141 	-0.164665 	-1.66119 	3.01174e-08 	6.63688 	8.29023 	
9.20141e-11 	14488.2 	246.919 	283.231 	0.35 	13.208 	-0.125855 	6.77333e-05 	
0.00180191 	0.00120127 	3.72269e-08 	1.07275 	0.00481819 	1.06793 	0 	0 	0 	
0.0016764 	-4.5972e-09 	0.92 	0.04 	0.04 	0.035034 	3.84174 	
3.80674 	3.97141 	-0.164675 	-1.6615 	2.15151e-08 	4.97822 	9.94889 	
9.2033e-11 	14488.2 	246.919 	283.231 	0.35 	13.208 	-0.125878 	6.77333e-05 	
0.00180191 	0.00120127 	5.33068e-08 	1.5361 	0.00274327 	1.53336 	0 	0 	0 	
0.00174413 	-6.90184e-09 	0.92 	0.04 	0.04 	0.035034 	3.84173 	
3.80673 	3.97141 	-0.164686 	-1.66186 	1.29108e-08 	3.31922 	11.6079 	
9.20555e-11 	14488.2 	246.919 	283.231 	0.35 	13.208 	-0.125906 	6.77333e-05 	
0.00180191 	0.00120127 	7.23495e-08 	2.08482 	0.00126072 	2.08356 	0 	0 	0 	
0.00181187 	-9.20671e-09 	0.92 	0.04 	0.04 	0.035034 	3.84172 	
3.80672 	3.97141 	-0.164699 	-1.66228 	4.30479e-09 	1.65984 	13.2673 	
9.20815e-11 	14488.2 	246.919 	283.231 	0.35 	13.208 	-0.125938 	6.77333e-05 	
0.00180191 	0.00120127 	9.4358e-08 	2.71897 	0.00037089 	2.7186 	0 	0 	0 	
0.0018796 	0 	0.92 	0.04 	0.04 	0.035034 	3.8417 	
3.8067 	3.97141 	-0.164713 	-0.831381 	4.30479e-09 	0.415019 	14.513 	
4.60555e-11 	7244.08 	123.46 	141.616 	0.35 	6.604 	-0.125974 	3.38667e-05 	
0.000900955 	0.000600637 	1.06104e-07 	3.05742 	7.42036e-05 	3.05734 	0 	0 	0 	
ZONE T = "t = 4e-08 [s]" I = 10 SOLUTIONTIME = 4.0000000000000E-08
0.00127 	9.23049e-09 	0.92 	0.04 	0.04 	0.035028 	3.84182 	
3.80674 	3.97141 	-0.164678 	-0.830803 	7.3059e-08 	14.5299 	0.414947 	
6.68082e-11 	7244.08 	123.46 	141.616 	0.35 	6.604 	-0.125665 	3.38667e-05 	
0.000900955 	0.000600637 	1.43027e-09 	0.0320536 	0.0214579 	0.0105957 	0 	0 	0 	
0.00133773 	6.92496e-09 	0.92 	0.04 	0.04 	0.0350279 	3.84182 	
3.80674 	3.97141 	-0.164679 	-1.66163 	6.44676e-08 	13.285 	1.6598 	
1.33618e-10 	14488.2 	246.919 	283.231 	0.35 	13.208 	-0.125667 	6.77333e-05 	
0.00180191 	0.00120127 	3.21542e-09 	0.0720626 	0.019083 	0.0529796 	0 	0 	0 	
0.00140547 	4.61932e-09 	0.92 	0.04 	0.04 	0.0350278 	3.84182 	
3.80673 	3.97141 	-0.164681 	-1.66171 	5.58761e-08 	11.6252 	3.31965 	
1.33626e-10 	14488.2 	246.919 	283.231 	0.35 	13.208 	-0.125673 	6.77333e-05 	
0.00180191 	0.00120127 	8.69036e-09 	0.194767 	0.0146298 	0.180137 	0 	0 	0 	
0.0014732 	2.31348e-09 	0.92 	0.04 	0.04 	0.0350277 	3.84181 	
3.80673 	3.97141 	-0.164685 	-1.66185 	4.72838e-08 	9.96523 	4.97961 	
1.33637e-10 	14488.2 	246.919 	283.231 	0.35 	13.208 	-0.125684 	6.77333e-05 	
0.00180191 	0.00120127 	1.79751e-08 	0.402854 	0.0107698 	0.392084 	0 	0 	0 	
0.00154093 	7.38155e-12 	0.92 	0.04 	0.04 	0.0350276 	3.84181 	
3.80672 	3.97141 	-0.164691 	-1.66204 	3.86905e-08 	8.3051 	6.63974 	
1.33654e-10 	14488.2 	246.919 	283.231 	0.35 	13.208 	-0.125698 	6.77333e-05 	
0.00180191 	0.00120127 	3.1071e-08 	0.696352 	0.00750302 	0.688849 	0 	0 	0 	
0.00160867 	-2.29871e-09 	0.92 	0.04 	0.04 	0.0350276 	3.8418 	
3.80672 	3.97141 	-0.164699 	-1.66229 	3.00959e-08 	6.64475 	8.30009 	
1.33676e-10 	14488.2 	246.919 	283.231 	0.35 	13.208 	-0.125717 	6.77333e-05 	
0.00180191 	0.00120127 	4.79799e-08 	1.0753 	0.00482963 	1.07047 	0 	0 	0 	
0.0016764 	-4.60558e-09 	0.92 	0.04 	0.04 	0.0350275 	3.84179 	
3.80671 	3.97141 	-0.164709 	-1.6626 	2.14997e-08 	4.98412 	9.96072 	
1.33703e-10 	14488.2 	246.919 	283.231 	0.35 	13.208 	-0.125741 	6.77333e-05 	
0.00180191 	0.00120127 	6.87043e-08 	1.53976 	0.00274978 	1.53701 	0 	0 	0 	
0.00174413 	-6.91296e-09 	0.92 	0.04 	0.04 	0.0350275 	3.84178 	
3.80669 	3.97141 	-0.16472 	-1.66296 	1.29016e-08 	3.32316 	11.6217 	
1.33734e-10 	14488.2 	246.919 	283.231 	0.35 	13.208 	-0.125768 	6.77333e-05 	
0.00180191 	0.00120127 	9.32473e-08 	2.08978 	0.00126371 	2.08851 	0 	0 	0 	
0.00181187 	-9.22057e-09 	0.92 	0.04 	0.04 	0.0350275 	3.84177 	
3.80668 	3.97141 	-0.164733 	-1.66338 	4.30188e-09 	1.6618 	13.283 	
1.33771e-10 	14488.2 	246.919 	283.231 	0.35 	13.208 	-0.1258 	6.77333e-05 	
0.00180191 	0.00120127 	1.21612e-07 	2.72544 	0.00037177 	2.72506 	0 	0 	0 	
0.0018796 	0 	0.92 	0.04 	0.04 	0.0350275 	3.84175 	
3.80667 	3.97141 	-0.164747 	-0.831931 	4.30188e-09 	0.415511 	14.5293 	
6.69062e-11 	7244.08 	123.46 	141.616 	0.35 	6.604 	-0.125836 	3.38667e-05 	
0.000900955 	0.000600637 	1.36751e-07 	3.06469 	7.43795e-05 	3.06461 	0 	0 	0 	
ZONE T = "t = 5.10849e-08 [s]" I = 10 SOLUTIONTIME = 5.1084922842800E-08
0.00127 	9.22358e-09 	0.92 	0.04 	0.04 	0.035028 	3.84182 	
3.80679 	3.97141 	-0.164622 	-0.829893 	7.31458e-08 	14.5299 	0.414947 	
8.76078e-11 	7244.08 	123.46 	141.616 	0.35 	6.604 	-0.125665 	3.38667e-05 	
0.000900955 	0.000600637 	1.78558e-09 	0.0320536 	0.0214579 	0.0105957 	0 	0 	0 	
0.00133773 	6.91809e-09 	0.92 	0.04 	0.04 	0.0350279 	3.84182 	
3.80679 	3.97141 	-0.164623 	-1.65981 	6.45442e-08 	13.285 	1.6598 	
1.75218e-10 	14488.2 	246.919 	283.231 	0.35 	13.208 	-0.125667 	6.77333e-05 	
0.00180191 	0.00120127 	4.01423e-09 	0.0720626 	0.019083 	0.0529796 	0 	0 	0 	
0.00140547 	4.61281e-09 	0.92 	0.04 	0.04 	0.0350278 	3.84182 	
3.80679 	3.97141 	-0.164625 	-1.65989 	5.59424e-08 	11.6252 	3.31965 	
1.75227e-10 	14488.2 	246.919 	283.231 	0.35 	13.208 	-0.125673 	6.77333e-05 	
0.00180191 	0.00120127 	1.08493e-08 	0.194767 	0.0146298 	0.180137 	0 	0 	0 	
0.0014732 	2.30734e-09 	0.92 	0.04 	0.04 	0.0350277 	3.84181 	
3.80678 	3.97141 	-0.164629 	-1.66003 	4.73399e-08 	9.96523 	4.97961 	
1.75243e-10 	14488.2 	246.919 	283.231 	0.35 	13.208 	-0.125684 	6.77333e-05 	
0.00180191 	0.00120127 	2.24407e-08 	0.402854 	0.0107698 	0.392084 	0 	0 	0 	
0.00154093 	1.60191e-12 	0.92 	0.04 	0.04 	0.0350276 	3.84181 	
3.80678 	3.97141 	-0.164635 	-1.66022 	3.87364e-08 	8.3051 	6.63974 	
1.75265e-10 	14488.2 	246.919 	283.231 	0.35 	13.208 	-0.125698 	6.77333e-05 	
0.00180191 	0.00120127 	3.879e-08 	0.696352 	0.00750302 	0.688849 	0 	0 	0 	
0.00160867 	-2.30514e-09 	0.92 	0.04 	0.04 	0.0350276 	3.8418 	
3.80677 	3.97141 	-0.164643 	-1.66047 	3.01316e-08 	6.64475 	8.30009 	
1.75293e-10 	14488.2 	246.919 	283.231 	0.35 	13.208 	-0.125717 	6.77333e-05 	
0.00180191 	0.00120127 	5.98995e-08 	1.0753 	0.00482963 	1.07047 	0 	0 	0 	
0.0016764 	-4.61198e-09 	0.92 	0.04 	0.04 	0.0350275 	3.84179 	
3.80676 	3.97141 	-0.164652 	-1.66078 	2.15252e-08 	4.98412 	9.96072 	
1.75327e-10 	14488.2 	246.919 	283.231 	0.35 	13.208 	-0.125741 	6.77333e-05 	
0.00180191 	0.00120127 	8.57724e-08 	1.53976 	0.00274978 	1.53701 	0 	0 	0 	
0.00174413 	-6.919e-09 	0.92 	0.04 	0.04 	0.0350275 	3.84178 	
3.80675 	3.97141 	-0.164664 	-1.66115 	1.29169e-08 	3.32316 	11.6217 	
1.75368e-10 	14488.2 	246.919 	283.231 	0.35 	13.208 	-0.125768 	6.77333e-05 	
0.00180191 	0.00120127 	1.16412e-07 	2.08978 	0.00126371 	2.08851 	0 	0 	0 	
0.00181187 	-9.22627e-09 	0.92 	0.04 	0.04 	0.0350275 	3.84177 	
3.80674 	3.97141 	-0.164677 	-1.66157 	4.30714e-09 	1.6618 	13.283 	
1.75415e-10 	14488.2 	246.919 	283.231 	0.35 	13.208 	-0.1258 	6.77333e-05 	
0.00180191 	0.00120127 	1.51824e-07 	2.72544 	0.00037177 	2.72506 	0 	0 	0 	
0.0018796 	0 	0.92 	0.04 	0.04 	0.0350275 	3.84175 	
3.80672 	3.97141 	-0.164691 	-0.831021 	4.30714e-09 	0.415511 	14.5293 	
8.77341e-11 	7244.08 	123.46 	141.616 	0.35 	6.604 	-0.125836 	3.38667e-05 	
0.000900955 	0.000600637 	1.70723e-07 	3.06469 	7.43795e-05 	3.06461 	0 	0 	0 	
ZONE T = "t = 6.58626e-08 [s]" I = 10 SOLUTIONTIME = 6.5862639992886E-08
0.00127 	9.22227e-09 	0.92 	0.04 	0.04 	0.035028 	3.84182 	
3.80679 	3.97141 	-0.164622 	-0.829893 	7.31459e-08 	14.5299 	0.414947 	
1.10664e-10 	7244.08 	123.46 	141.616 	0.35 	6.604 	-0.125665 	3.38667e-05 	
0.000900955 	0.000600637 	2.25926e-09 	0.0320536 	0.0214579 	0.0105957 	0 	0 	0 	
0.00133773 	6.91711e-09 	0.92 	0.04 	0.04 	0.0350279 	3.84182 	
3.80679 	3.97141 	-0.164623 	-1.65981 	6.45442e-08 	13.285 	1.6598 	
2.21331e-10 	14488.2 	246.919 	283.231 	0.35 	13.208 	-0.125667 	6.77333e-05 	
0.00180191 	0.00120127 	5.07915e-09 	0.0720626 	0.019083 	0.0529796 	0 	0 	0 	
0.00140547 	4.61207e-09 	0.92 	0.04 	0.04 	0.0350278 	3.84182 	
3.80679 	3.97141 	-0.164625 	-1.65989 	5.59424e-08 	11.6252 	3.31965 	
2.21343e-10 	14488.2 	246.919 	283.231 	0.35 	13.208 	-0.125673 	6.77333e-05 	
0.00180191 	0.00120127 	1.37275e-08 	0.194767 	0.0146298 	0.180137 	0 	0 	0 	
0.0014732 	2.30685e-09 	0.92 	0.04 	0.04 	0.0350277 	3.84181 	
3.80678 	3.97141 	-0.164629 	-1.66003 	4.73399e-08 	9.96523 	4.97961 	
2.21362e-10 	14488.2 	246.919 	283.231 	0.35 	13.208 	-0.125684 	6.77333e-05 	
0.00180191 	0.00120127 	2.8394e-08 	0.402854 	0.0107698 	0.392084 	0 	0 	0 	
0.00154093 	1.35584e-12 	0.92 	0.04 	0.04 	0.0350276 	3.84181 	
3.80678 	3.97141 	-0.164635 	-1.66022 	3.87364e-08 	8.3051 	6.63974 	
2.21389e-10 	14488.2 	246.919 	283.231 	0.35 	13.208 	-0.125698 	6.77333e-05 	
0.00180191 	0.00120127 	4.90805e-08 	0.696352 	0.00750302 	0.688849 	0 	0 	0 	
0.00160867 	-2.30424e-09 	0.92 	0.04 	0.04 	0.0350276 	3.8418 	
3.80677 	3.97141 	-0.164643 	-1.66047 	3.01316e-08 	6.64475 	8.30009 	
2.21424e-10 	14488.2 	246.919 	283.231 	0.35 	13.208 	-0.125717 	6.77333e-05 	
0.00180191 	0.00120127 	7.57901e-08 	1.0753 	0.00482963 	1.07047 	0 	0 	0 	
0.0016764 	-4.61026e-09 	0.92 	0.04 	0.04 	0.0350275 	3.84179 	
3.80676 	3.97141 	-0.164652 	-1.66078 	2.15252e-08 	4.98412 	9.96072 	
2.21467e-10 	14488.2 	246.919 	283.231 	0.35 	13.208 	-0.125741 	6.77333e-05 	
0.00180191 	0.00120127 	1.08526e-07 	1.53976 	0.00274978 	1.53701 	0 	0 	0 	
0.00174413 	-6.91703e-09 	0.92 	0.04 	0.04 	0.0350275 	3.84178 	
3.80675 	3.97141 	-0.164664 	-1.66115 	1.29169e-08 	3.32316 	11.6217 	
2.21518e-10 	14488.2 	246.919 	283.231 	0.35 	13.208 	-0.125768 	6.77333e-05 	
0.00180191 	0.00120127 	1.47294e-07 	2.08978 	0.00126371 	2.08851 	0 	0 	0 	
0.00181187 	-9.22464e-09 	0.92 	0.04 	0.04 	0.0350275 	3.84177 	
3.80674 	3.97141 	-0.164677 	-1.66157 	4.30731e-09 	1.6618 	13.283 	
2.21577e-10 	14488.2 	246.919 	283.231 	0.35 	13.208 	-0.1258 	6.77333e-05 	
0.00180191 	0.00120127 	1.92099e-07 	2.72544 	0.00037177 	2.72506 	0 	0 	0 	
0.0018796 	0 	0.92 	0.04 	0.04 	0.0350275 	3.84175 	
3.80672 	3.97141 	-0.164691 	-0.831021 	4.30731e-09 	0.415511 	14.5293 	
1.10822e-10 	7244.08 	123.46 	141.616 	0.35 	6.604 	-0.125836 	3.38667e-05 	
0.000900955 	0.000600637 	2.16012e-07 	3.06469 	7.43795e-05 	3.06461 	0 	0 	0 	
ZONE T = "t = 8.80292e-08 [s]" I = 10 SOLUTIONTIME = 8.8029215718014E-08
0.00127 	9.22489e-09 	0.92 	0.04 	0.04 	0.035028 	3.84182 	
3.80679 	3.97141 	-0.164622 	-0.829893 	7.3146e-08 	14.5299 	0.414947 	
1.41401e-10 	7244.08 	123.46 	141.616 	0.35 	6.604 	-0.125665 	3.38667e-05 	
0.000900955 	0.000600637 	2.96978e-09 	0.0320536 	0.0214579 	0.0105957 	0 	0 	0 	
0.00133773 	6.91989e-09 	0.92 	0.04 	0.04 	0.0350279 	3.84182 	
3.80679 	3.97141 	-0.164623 	-1.65981 	6.45442e-08 	13.285 	1.6598 	
2.82807e-10 	14488.2 	246.919 	283.231 	0.35 	13.208 	-0.125667 	6.77333e-05 	
0.00180191 	0.00120127 	6.67653e-09 	0.0720626 	0.019083 	0.0529796 	0 	0 	0 	
0.00140547 	4.61461e-09 	0.92 	0.04 	0.04 	0.0350278 	3.84182 	
3.80679 	3.97141 	-0.164625 	-1.65989 	5.59424e-08 	11.6252 	3.31965 	
2.82821e-10 	14488.2 	246.919 	283.231 	0.35 	13.208 	-0.125673 	6.77333e-05 	
0.00180191 	0.00120127 	1.80448e-08 	0.194767 	0.0146298 	0.180137 	0 	0 	0 	
0.0014732 	2.30931e-09 	0.92 	0.04 	0.04 	0.0350277 	3.84181 	
3.80678 	3.97141 	-0.164629 	-1.66003 	4.73399e-08 	9.96523 	4.97961 	
2.82845e-10 	14488.2 	246.919 	283.231 	0.35 	13.208 	-0.125684 	6.77333e-05 	
0.00180191 	0.00120127 	3.73238e-08 	0.402854 	0.0107698 	0.392084 	0 	0 	0 	
0.00154093 	3.56787e-12 	0.92 	0.04 	0.04 	0.0350276 	3.84181 	
3.80678 	3.97141 	-0.164635 	-1.66022 	3.87364e-08 	8.3051 	6.63974 	
2.82879e-10 	14488.2 	246.919 	283.231 	0.35 	13.208 	-0.125698 	6.77333e-05 	
0.00180191 	0.00120127 	6.45162e-08 	0.696352 	0.00750302 	0.688849 	0 	0 	0 	
0.00160867 	-2.30252e-09 	0.92 	0.04 	0.04 	0.0350276 	3.8418 	
3.80677 	3.97141 	-0.164643 	-1.66047 	3.01316e-08 	6.64475 	8.30009 	
2.82924e-10 	14488.2 	246.919 	283.231 	0.35 	13.208 	-0.125717 	6.77333e-05 	
0.00180191 	0.00120127 	9.96258e-08 	1.0753 	0.00482963 	1.07047 	0 	0 	0 	
0.0016764 	-4.60903e-09 	0.92 	0.04 	0.04 	0.0350275 	3.84179 	
3.80676 	3.97141 	-0.164652 	-1.66078 	2.15252e-08 	4.98412 	9.96072 	
2.82978e-10 	14488.2 	246.919 	283.231 	0.35 	13.208 	-0.125741 	6.77333e-05 	
0.00180191 	0.00120127 	1.42658e-07 	1.53976 	0.00274978 	1.53701 	0 	0 	0 	
0.00174413 	-6.91605e-09 	0.92 	0.04 	0.04 	0.0350275 	3.84178 	
3.80675 	3.97141 	-0.164664 	-1.66115 	1.29169e-08 	3.32316 	11.6217 	
2.83042e-10 	14488.2 	246.919 	283.231 	0.35 	13.208 	-0.125768 	6.77333e-05 	
0.00180191 	0.00120127 	1.93618e-07 	2.08978 	0.00126371 	2.08851 	0 	0 	0 	
0.00181187 	-9.22365e-09 	0.92 	0.04 	0.04 	0.0350275 	3.84177 	
3.80674 	3.97141 	-0.164677 	-1.66157 	4.30755e-09 	1.6618 	13.283 	
2.83117e-10 	14488.2 	246.919 	283.231 	0.35 	13.208 	-0.1258 	6.77333e-05 	
0.00180191 	0.00120127 	2.52513e-07 	2.72544 	0.00037177 	2.72506 	0 	0 	0 	
0.0018796 	0 	0.92 	0.04 	0.04 	0.0350275 	3.84175 	
3.80672 	3.97141 	-0.164691 	-0.831021 	4.30755e-09 	0.415511 	14.5293 	
1.416e-10 	7244.08 	123.46 	141.616 	0.35 	6.604 	-0.125836 	3.38667e-05 	
0.000900955 	0.000600637 	2.83945e-07 	3.06469 	7.43795e-05 	3.06461 	0 	0 	0 	
ZONE T = "t = 1.21279e-07 [s]" I = 10 SOLUTIONTIME = 1.2127907930571E-07
0.00127 	9.22637e-09 	0.92 	0.04 	0.04 	0.035028 	3.84182 	
3.80679 	3.97141 	-0.164622 	-0.829893 	7.31461e-08 	14.5299 	0.414947 	
1.87507e-10 	7244.08 	123.46 	141.616 	0.35 	6.604 	-0.125665 	3.38667e-05 	
0.000900955 	0.000600637 	4.03556e-09 	0.0320536 	0.0214579 	0.0105957 	0 	0 	0 	
0.00133773 	6.9212e-09 	0.92 	0.04 	0.04 	0.0350279 	3.84182 	
3.80679 	3.97141 	-0.164623 	-1.65981 	6.45442e-08 	13.285 	1.6598 	
3.75019e-10 	14488.2 	246.919 	283.231 	0.35 	13.208 	-0.125667 	6.77333e-05 	
0.00180191 	0.00120127 	9.07261e-09 	0.0720626 	0.019083 	0.0529796 	0 	0 	0 	
0.00140547 	4.61581e-09 	0.92 	0.04 	0.04 	0.0350278 	3.84182 	
3.80679 	3.97141 	-0.164625 	-1.65989 	5.59424e-08 	11.6252 	3.31965 	
3.75038e-10 	14488.2 	246.919 	283.231 	0.35 	13.208 	-0.125673 	6.77333e-05 	
0.00180191 	0.00120127 	2.45208e-08 	0.194767 	0.0146298 	0.180137 	0 	0 	0 	
0.0014732 	2.31034e-09 	0.92 	0.04 	0.04 	0.0350277 	3.84181 	
3.80678 	3.97141 	-0.164629 	-1.66003 	4.73399e-08 	9.96523 	4.97961 	
3.7507e-10 	14488.2 	246.919 	283.231 	0.35 	13.208 	-0.125684 	6.77333e-05 	
0.00180191 	0.00120127 	5.07187e-08 	0.402854 	0.0107698 	0.392084 	0 	0 	0 	
0.00154093 	4.49637e-12 	0.92 	0.04 	0.04 	0.0350276 	3.84181 	
3.80678 	3.97141 	-0.164635 	-1.66022 	3.87364e-08 	8.3051 	6.63974 	
3.75115e-10 	14488.2 	246.919 	283.231 	0.35 	13.208 	-0.125698 	6.77333e-05 	
0.00180191 	0.00120127 	8.76698e-08 	0.696352 	0.00750302 	0.688849 	0 	0 	0 	
0.00160867 	-2.30159e-09 	0.92 	0.04 	0.04 	0.0350276 	3.8418 	
3.80677 	3.97141 	-0.164643 	-1.66047 	3.01316e-08 	6.64475 	8.30009 	
3.75173e-10 	14488.2 	246.919 	283.231 	0.35 	13.208 	-0.125717 	6.77333e-05 	
0.00180191 	0.00120127 	1.35379e-07 	1.0753 	0.00482963 	1.07047 	0 	0 	0 	
0.0016764 	-4.6081e-09 	0.92 	0.04 	0.04 	0.0350275 	3.84179 	
3.80676 	3.97141 	-0.164652 	-1.66078 	2.15252e-08 	4.98412 	9.96072 	
3.75245e-10 	14488.2 	246.919 	283.231 	0.35 	13.208 	-0.125741 	6.77333e-05 	
0.00180191 	0.00120127 	1.93854e-07 	1.53976 	0.00274978 	1.53701 	0 	0 	0 	
0.00174413 	-6.91512e-09 	0.92 	0.04 	0.04 	0.0350275 	3.84178 	
3.80675 	3.97141 	-0.164664 	-1.66115 	1.29169e-08 	3.32316 	11.6217 	
3.75329e-10 	14488.2 	246.919 	283.231 	0.35 	13.208 	-0.125768 	6.77333e-05 	
0.00180191 	0.00120127 	2.63102e-07 	2.08978 	0.00126371 	2.08851 	0 	0 	0 	
0.00181187 	-9.22272e-09 	0.92 	0.04 	0.04 	0.0350275 	3.84177 	
3.80674 	3.97141 	-0.164677 	-1.66157 	4.3079e-09 	1.6618 	13.283 	
3.75427e-10 	14488.2 	246.919 	283.231 	0.35 	13.208 	-0.1258 	6.77333e-05 	
0.00180191 	0.00120127 	3.43133e-07 	2.72544 	0.00037177 	2.72506 	0 	0 	0 	
0.0018796 	0 	0.92 	0.04 	0.04 	0.0350275 	3.84175 	
3.80672 	3.97141 	-0.164691 	-0.831021 	4.3079e-09 	0.415511 	14.5293 	
1.87769e-10 	7244.08 	123.46 	141.616 	0.35 	6.604 	-0.125836 	3.38667e-05 	
0.000900955 	0.000600637 	3.85846e-07 	3.06469 	7.43795e-05 	3.06461 	0 	0 	0 	
ZONE T = "t = 1.71154e-07 [s]" I = 10 SOLUTIONTIME = 1.7115387468725E-07
0.00127 	9.22511e-09 	0.92 	0.04 	0.04 	0.035028 	3.84182 	
3.80679 	3.97141 	-0.164622 	-0.829893 	7.31463e-08 	14.5299 	0.414947 	
2.56665e-10 	7244.08 	123.46 	141.616 	0.35 	6.604 	-0.125665 	3.38667e-05 	
0.000900955 	0.000600637 	5.63423e-09 	0.0320536 	0.0214579 	0.0105957 	0 	0 	0 	
0.00133773 	6.91987e-09 	0.92 	0.04 	0.04 	0.0350279 	3.84182 	
3.80679 	3.97141 	-0.164623 	-1.65981 	6.45442e-08 	13.285 	1.6598 	
5.13338e-10 	14488.2 	246.919 	283.231 	0.35 	13.208 	-0.125667 	6.77333e-05 	
0.00180191 	0.00120127 	1.26667e-08 	0.0720626 	0.019083 	0.0529796 	0 	0 	0 	
0.00140547 	4.61467e-09 	0.92 	0.04 	0.04 	0.0350278 	3.84182 	
3.80679 	3.97141 	-0.164625 	-1.65989 	5.59424e-08 	11.6252 	3.31965 	
5.13364e-10 	14488.2 	246.919 	283.231 	0.35 	13.208 	-0.125673 	6.77333e-05 	
0.00180191 	0.00120127 	3.42347e-08 	0.194767 	0.0146298 	0.180137 	0 	0 	0 	
0.0014732 	2.30912e-09 	0.92 	0.04 	0.04 	0.0350277 	3.84181 	
3.80678 	3.97141 	-0.164629 	-1.66003 	4.73399e-08 	9.96523 	4.97961 	
5.13407e-10 	14488.2 	246.919 	283.231 	0.35 	13.208 	-0.125684 	6.77333e-05 	
0.00180191 	0.00120127 	7.08109e-08 	0.402854 	0.0107698 	0.392084 	0 	0 	0 	
0.00154093 	3.45863e-12 	0.92 	0.04 	0.04 	0.0350276 	3.84181 	
3.80678 	3.97141 	-0.164635 	-1.66022 	3.87364e-08 	8.3051 	6.63974 	
5.13468e-10 	14488.2 	246.919 	283.231 	0.35 	13.208 	-0.125698 	6.77333e-05 	
0.00180191 	0.00120127 	1.224e-07 	0.696352 	0.00750302 	0.688849 	0 	0 	0 	
0.00160867 	-2.30263e-09 	0.92 	0.04 	0.04 	0.0350276 	3.8418 	
3.80677 	3.97141 	-0.164643 	-1.66047 	3.01316e-08 	6.64475 	8.30009 	
5.13547e-10 	14488.2 	246.919 	283.231 	0.35 	13.208 	-0.125717 	6.77333e-05 	
0.00180191 	0.00120127 	1.8901e-07 	1.0753 	0.00482963 	1.07047 	0 	0 	0 	
0.0016764 	-4.60921e-09 	0.92 	0.04 	0.04 	0.0350275 	3.84179 	
3.80676 	3.97141 	-0.164652 	-1.66078 	2.15252e-08 	4.98412 	9.96072 	
5.13644e-10 	14488.2 	246.919 	283.231 	0.35 	13.208 	-0.125741 	6.77333e-05 	
0.00180191 	0.00120127 	2.70649e-07 	1.53976 	0.00274978 	1.53701 	0 	0 	0 	
0.00174413 	-6.91631e-09 	0.92 	0.04 	0.04 	0.0350275 	3.84178 	
3.80675 	3.97141 	-0.164664 	-1.66115 	1.29169e-08 	3.32316 	11.6217 	
5.13759e-10 	14488.2 	246.919 	283.231 	0.35 	13.208 	-0.125768 	6.77333e-05 	
0.00180191 	0.00120127 	3.67329e-07 	2.08978 	0.00126371 	2.08851 	0 	0 	0 	
0.00181187 	-9.22391e-09 	0.92 	0.04 	0.04 	0.0350275 	3.84177 	
3.80674 	3.97141 	-0.164677 	-1.66157 	4.30844e-09 	1.6618 	13.283 	
5.13892e-10 	14488.2 	246.919 	283.231 	0.35 	13.208 	-0.1258 	6.77333e-05 	
0.00180191 	0.00120127 	4.79064e-07 	2.72544 	0.00037177 	2.72506 	0 	0 	0 	
0.0018796 	0 	0.92 	0.04 	0.04 	0.0350275 	3.84175 	
3.80672 	3.97141 	-0.164691 	-0.831021 	4.30844e-09 	0.415511 	14.5293 	
2.57021e-10 	7244.08 	123.46 	141.616 	0.35 	6.604 	-0.125836 	3.38667e-05 	
0.000900955 	0.000600637 	5.38697e-07 	3.06469 	7.43795e-05 	3.06461 	0 	0 	0 	
ZONE T = "t = 2.45966e-07 [s]" I = 10 SOLUTIONTIME = 2.4596606775955E-07
0.00127 	9.22539e-09 	0.92 	0.04 	0.04 	0.035028 	3.84182 	
3.80679 	3.97141 	-0.164622 	-0.829893 	7.31466e-08 	14.5299 	0.414947 	
3.60403e-10 	7244.08 	123.46 	141.616 	0.35 	6.604 	-0.125665 	3.38667e-05 	
0.000900955 	0.000600637 	8.03223e-09 	0.0320536 	0.0214579 	0.0105957 	0 	0 	0 	
0.00133773 	6.92018e-09 	0.92 	0.04 	0.04 	0.0350279 	3.84182 	
3.80679 	3.97141 	-0.164623 	-1.65981 	6.45442e-08 	13.285 	1.6598 	
7.20816e-10 	14488.2 	246.919 	283.231 	0.35 	13.208 	-0.125667 	6.77333e-05 	
0.00180191 	0.00120127 	1.80579e-08 	0.0720626 	0.019083 	0.0529796 	0 	0 	0 	