TITLE = "Solution on Domain BulkDomain1D_2"
VARIABLES = "x [m]"  
"Vel_axial(0)" 	"MF_sp(ECDMC)" 	"MF_sp(Li+)" 	"MF_sp(PF6-)" 	"Volt(Electroly)" 	"Volt(CathodeVo)" 	
"Potential Drop Electrode-Electrolyte [V]" 	"Surf_0 Equilibrium Potential Drop Electrode-Electrolyte [V]" 	"Overpotential_0 [V]" 	"Current Source [A/m^2]" 	"Li+ flux [kmol/m^2/s]" 	"Electrolyte Current [A/m^2]" 	"Electrode Current [A/m^2]" 	
"Capacity discharged [A-s]" 	"Depth of discharge [-]" 	"Capacity remaining [A-s]" 	"Initial capacity [A-s]" 	"Porosity []" 	"Surface Area [m2/m2] (area per area)" 	"Specific current (per particle area) [A/m^2]" 	"Control volume thickness [m]" 	
"Moles LiCoO2 [mol/m^2] (per electrode area)" 	"Moles CoO2 [mol/m^2] (per electrode area)" 	"qHeat_accum [J/m3]" 	"qHeat_step [W/m3]" 	"Joule_Lyte [W/m3]" 	"Joule_Solid [W/m3]" 	"electrodHeat [W/m3]" 	"OverpotHeat [W/m3]" 	"deltaSHeat [W/m3]" 	

ZONE T = "t = 0 [s]" I = 10 SOLUTIONTIME = 0.0000000000000E+00
0.00127 	0 	0.92 	0.04 	0.04 	-0.07 	3.8 	
0 	0 	0 	0 	0 	0.119132 	0 	
0 	0 	0 	0 	0.35 	6.604 	-0.0360787 	3.38667e-05 	
0.000900955 	0.000600637 	0 	0.0 	 0.0 	 0.0 	 0.0 	 0.0 	 0.0 	 
0.00133773 	0 	0.92 	0.04 	0.04 	-0.07 	3.8 	
0 	0 	0 	0 	0 	0 	-0 	
0 	0 	0 	0 	0.35 	13.208 	-0.0360787 	6.77333e-05 	
0.00180191 	0.00120127 	0 	0.0 	 0.0 	 0.0 	 0.0 	 0.0 	 0.0 	 
0.00140547 	0 	0.92 	0.04 	0.04 	-0.07 	3.8 	
0 	0 	0 	0 	0 	0 	-0 	
0 	0 	0 	0 	0.35 	13.208 	-0.0360787 	6.77333e-05 	
0.00180191 	0.00120127 	0 	0.0 	 0.0 	 0.0 	 0.0 	 0.0 	 0.0 	 
0.0014732 	0 	0.92 	0.04 	0.04 	-0.07 	3.8 	
0 	0 	0 	0 	0 	0 	-0 	
0 	0 	0 	0 	0.35 	13.208 	-0.0360787 	6.77333e-05 	
0.00180191 	0.00120127 	0 	0.0 	 0.0 	 0.0 	 0.0 	 0.0 	 0.0 	 
0.00154093 	0 	0.92 	0.04 	0.04 	-0.07 	3.8 	
0 	0 	0 	0 	0 	0 	-0 	
0 	0 	0 	0 	0.35 	13.208 	-0.0360787 	6.77333e-05 	
0.00180191 	0.00120127 	0 	0.0 	 0.0 	 0.0 	 0.0 	 0.0 	 0.0 	 
0.00160867 	0 	0.92 	0.04 	0.04 	-0.07 	3.8 	
0 	0 	0 	0 	0 	0 	-0 	
0 	0 	0 	0 	0.35 	13.208 	-0.0360787 	6.77333e-05 	
0.00180191 	0.00120127 	0 	0.0 	 0.0 	 0.0 	 0.0 	 0.0 	 0.0 	 
0.0016764 	0 	0.92 	0.04 	0.04 	-0.07 	3.8 	
0 	0 	0 	0 	0 	0 	-0 	
0 	0 	0 	0 	0.35 	13.208 	-0.0360787 	6.77333e-05 	
0.00180191 	0.00120127 	0 	0.0 	 0.0 	 0.0 	 0.0 	 0.0 	 0.0 	 
0.00174413 	0 	0.92 	0.04 	0.04 	-0.07 	3.8 	
0 	0 	0 	0 	0 	0 	-0 	
0 	0 	0 	0 	0.35 	13.208 	-0.0360787 	6.77333e-05 	
0.00180191 	0.00120127 	0 	0.0 	 0.0 	 0.0 	 0.0 	 0.0 	 0.0 	 
0.00181187 	0 	0.92 	0.04 	0.04 	-0.07 	3.8 	
0 	0 	0 	0 	0 	0 	-0 	
0 	0 	0 	0 	0.35 	13.208 	-0.0360787 	6.77333e-05 	
0.00180191 	0.00120127 	0 	0.0 	 0.0 	 0.0 	 0.0 	 0.0 	 0.0 	 
0.0018796 	0 	0.92 	0.04 	0.04 	-0.07 	3.8 	
0 	0 	0 	0 	0 	0 	0.119132 	
0 	0 	0 	0 	0.35 	6.604 	-0.0360787 	3.38667e-05 	
0.000900955 	0.000600637 	0 	0.0 	 0.0 	 0.0 	 0.0 	 0.0 	 0.0 	 
ZONE T = "t = 1e-08 [s]" I = 10 SOLUTIONTIME = 1.0000000000000E-08
0.00127 	9.22007e-09 	0.92 	0.04 	0.04 	0.0350275 	3.84182 	
3.87 	3.97141 	-0.101414 	-0.238264 	-0 	14.5298 	0.414944 	
-0 	7244.08 	123.46 	141.616 	0.35 	6.604 	-0.125665 	3.38667e-05 	
0.000900955 	0.000600637 	3.20532e-10 	0.0320532 	0.0214576 	0.0105956 	0 	0 	0 	
0.00133773 	6.91492e-09 	0.92 	0.04 	0.04 	0.0350274 	3.84182 	
3.87 	3.97141 	-0.101414 	-0.476527 	-0 	13.2849 	1.65979 	
-0 	14488.2 	246.919 	283.231 	0.35 	13.208 	-0.125667 	6.77333e-05 	
0.00180191 	0.00120127 	7.20616e-10 	0.0720616 	0.0190827 	0.0529788 	0 	0 	0 	
0.00140547 	4.60966e-09 	0.92 	0.04 	0.04 	0.0350274 	3.84182 	
3.87 	3.97141 	-0.101414 	-0.476527 	-0 	11.6251 	3.31963 	
-0 	14488.2 	246.919 	283.231 	0.35 	13.208 	-0.125673 	6.77333e-05 	
0.00180191 	0.00120127 	1.94764e-09 	0.194764 	0.0146295 	0.180134 	0 	0 	0 	
0.0014732 	2.30421e-09 	0.92 	0.04 	0.04 	0.0350273 	3.84181 	
3.87 	3.97141 	-0.101414 	-0.476527 	-0 	9.96515 	4.97958 	
-0 	14488.2 	246.919 	283.231 	0.35 	13.208 	-0.125683 	6.77333e-05 	
0.00180191 	0.00120127 	4.02848e-09 	0.402848 	0.0107696 	0.392078 	0 	0 	0 	
0.00154093 	-1.51722e-12 	0.92 	0.04 	0.04 	0.0350272 	3.84181 	
3.87 	3.97141 	-0.101414 	-0.476527 	-0 	8.30504 	6.63969 	
-0 	14488.2 	246.919 	283.231 	0.35 	13.208 	-0.125698 	6.77333e-05 	
0.00180191 	0.00120127 	6.96342e-09 	0.696342 	0.00750291 	0.688839 	0 	0 	0 	
0.00160867 	-2.30795e-09 	0.92 	0.04 	0.04 	0.0350272 	3.8418 	
3.87 	3.97141 	-0.101414 	-0.476527 	-0 	6.6447 	8.30003 	
-0 	14488.2 	246.919 	283.231 	0.35 	13.208 	-0.125717 	6.77333e-05 	
0.00180191 	0.00120127 	1.07529e-08 	1.07529 	0.00482956 	1.07046 	0 	0 	0 	
0.0016764 	-4.61481e-09 	0.92 	0.04 	0.04 	0.0350271 	3.84179 	
3.87 	3.97141 	-0.101414 	-0.476527 	-0 	4.98409 	9.96064 	
-0 	14488.2 	246.919 	283.231 	0.35 	13.208 	-0.12574 	6.77333e-05 	
0.00180191 	0.00120127 	1.53973e-08 	1.53973 	0.00274974 	1.53698 	0 	0 	0 	
0.00174413 	-6.92218e-09 	0.92 	0.04 	0.04 	0.0350271 	3.84178 	
3.87 	3.97141 	-0.101414 	-0.476527 	-0 	3.32314 	11.6216 	
-0 	14488.2 	246.919 	283.231 	0.35 	13.208 	-0.125768 	6.77333e-05 	
0.00180191 	0.00120127 	2.08975e-08 	2.08975 	0.00126369 	2.08848 	0 	0 	0 	
0.00181187 	-9.23012e-09 	0.92 	0.04 	0.04 	0.0350271 	3.84176 	
3.87 	3.97141 	-0.101414 	-0.476527 	-0 	1.66179 	13.2829 	
-0 	14488.2 	246.919 	283.231 	0.35 	13.208 	-0.1258 	6.77333e-05 	
0.00180191 	0.00120127 	2.7254e-08 	2.7254 	0.000371764 	2.72503 	0 	0 	0 	
0.0018796 	0 	0.92 	0.04 	0.04 	0.0350271 	3.84175 	
3.87 	3.97141 	-0.101414 	-0.238264 	-0 	0.415508 	14.5292 	
-0 	7244.08 	123.46 	141.616 	0.35 	6.604 	-0.125836 	3.38667e-05 	
0.000900955 	0.000600637 	3.06464e-08 	3.06464 	7.43784e-05 	3.06457 	0 	0 	0 	
ZONE T = "t = 2e-08 [s]" I = 10 SOLUTIONTIME = 2.0000000000000E-08
0.00127 	9.23466e-09 	0.92 	0.04 	0.04 	0.035028 	3.84182 	
3.80679 	3.97141 	-0.164622 	-0.829891 	7.31451e-08 	14.5299 	0.414947 	
2.07996e-11 	7244.08 	123.46 	141.616 	0.35 	6.604 	-0.125665 	3.38667e-05 	
0.000900955 	0.000600637 	6.41068e-10 	0.0320536 	0.0214579 	0.0105957 	0 	0 	0 	
0.00133773 	6.9295e-09 	0.92 	0.04 	0.04 	0.0350279 	3.84182 	
3.80679 	3.97141 	-0.164622 	-1.65981 	6.45437e-08 	13.285 	1.6598 	
4.15998e-11 	14488.2 	246.919 	283.231 	0.35 	13.208 	-0.125667 	6.77333e-05 	
0.00180191 	0.00120127 	1.44124e-09 	0.0720626 	0.019083 	0.0529796 	0 	0 	0 	
0.00140547 	4.62422e-09 	0.92 	0.04 	0.04 	0.0350278 	3.84182 	
3.80679 	3.97141 	-0.164625 	-1.65989 	5.5942e-08 	11.6252 	3.31965 	
4.16018e-11 	14488.2 	246.919 	283.231 	0.35 	13.208 	-0.125673 	6.77333e-05 	
0.00180191 	0.00120127 	3.8953e-09 	0.194767 	0.0146298 	0.180137 	0 	0 	0 	
0.0014732 	2.31911e-09 	0.92 	0.04 	0.04 	0.0350277 	3.84181 	
3.80679 	3.97141 	-0.164629 	-1.66003 	4.73396e-08 	9.96523 	4.97961 	
4.16052e-11 	14488.2 	246.919 	283.231 	0.35 	13.208 	-0.125684 	6.77333e-05 	
0.00180191 	0.00120127 	8.05702e-09 	0.402854 	0.0107698 	0.392084 	0 	0 	0 	
0.00154093 	1.37377e-11 	0.92 	0.04 	0.04 	0.0350276 	3.84181 	
3.80678 	3.97141 	-0.164635 	-1.66022 	3.87361e-08 	8.3051 	6.63974 	
4.16101e-11 	14488.2 	246.919 	283.231 	0.35 	13.208 	-0.125698 	6.77333e-05 	
0.00180191 	0.00120127 	1.39269e-08 	0.696352 	0.00750302 	0.688849 	0 	0 	0 	
0.00160867 	-2.29199e-09 	0.92 	0.04 	0.04 	0.0350276 	3.8418 	
3.80677 	3.97141 	-0.164643 	-1.66047 	3.01314e-08 	6.64475 	8.30009 	
4.16164e-11 	14488.2 	246.919 	283.231 	0.35 	13.208 	-0.125717 	6.77333e-05 	
0.00180191 	0.00120127 	2.15059e-08 	1.0753 	0.00482963 	1.07047 	0 	0 	0 	
0.0016764 	-4.59814e-09 	0.92 	0.04 	0.04 	0.0350275 	3.84179 	
3.80676 	3.97141 	-0.164652 	-1.66078 	2.1525e-08 	4.98412 	9.96072 	
4.16241e-11 	14488.2 	246.919 	283.231 	0.35 	13.208 	-0.125741 	6.77333e-05 	
0.00180191 	0.00120127 	3.07949e-08 	1.53976 	0.00274978 	1.53701 	0 	0 	0 	
0.00174413 	-6.90479e-09 	0.92 	0.04 	0.04 	0.0350275 	3.84178 	
3.80675 	3.97141 	-0.164664 	-1.66114 	1.29168e-08 	3.32316 	11.6217 	
4.16332e-11 	14488.2 	246.919 	283.231 	0.35 	13.208 	-0.125768 	6.77333e-05 	
0.00180191 	0.00120127 	4.17952e-08 	2.08978 	0.00126371 	2.08851 	0 	0 	0 	
0.00181187 	-9.21203e-09 	0.92 	0.04 	0.04 	0.0350275 	3.84177 	
3.80674 	3.97141 	-0.164677 	-1.66156 	4.30659e-09 	1.6618 	13.283 	
4.16437e-11 	14488.2 	246.919 	283.231 	0.35 	13.208 	-0.1258 	6.77333e-05 	
0.00180191 	0.00120127 	5.45083e-08 	2.72544 	0.00037177 	2.72506 	0 	0 	0 	
0.0018796 	0 	0.92 	0.04 	0.04 	0.0350275 	3.84175 	
3.80672 	3.97141 	-0.164691 	-0.831019 	4.30659e-09 	0.415511 	14.5293 	
2.08278e-11 	7244.08 	123.46 	141.616 	0.35 	6.604 	-0.125836 	3.38667e-05 	
0.000900955 	0.000600637 	6.12933e-08 	3.06469 	7.43795e-05 	3.06461 	0 	0 	0 	
ZONE T = "t = 3e-08 [s]" I = 10 SOLUTIONTIME = 3.0000000000000E-08
0.00127 	9.22086e-09 	0.92 	0.04 	0.04 	0.035028 	3.84182 	
3.80679 	3.97141 	-0.164622 	-0.829893 	7.31457e-08 	14.5299 	0.414947 	
4.15992e-11 	7244.08 	123.46 	141.616 	0.35 	6.604 	-0.125665 	3.38667e-05 	
0.000900955 	0.000600637 	9.61605e-10 	0.0320536 	0.0214579 	0.0105957 	0 	0 	0 	
0.00133773 	6.91533e-09 	0.92 	0.04 	0.04 	0.0350279 	3.84182 	
3.80679 	3.97141 	-0.164623 	-1.65981 	6.45442e-08 	13.285 	1.6598 	
8.31996e-11 	14488.2 	246.919 	283.231 	0.35 	13.208 	-0.125667 	6.77333e-05 	
0.00180191 	0.00120127 	2.16187e-09 	0.0720626 	0.019083 	0.0529796 	0 	0 	0 	
0.00140547 	4.61005e-09 	0.92 	0.04 	0.04 	0.0350278 	3.84182 	
3.80679 	3.97141 	-0.164625 	-1.65989 	5.59424e-08 	11.6252 	3.31965 	
8.32037e-11 	14488.2 	246.919 	283.231 	0.35 	13.208 	-0.125673 	6.77333e-05 	
0.00180191 	0.00120127 	5.84297e-09 	0.194767 	0.0146298 	0.180137 	0 	0 	0 	
0.0014732 	2.30422e-09 	0.92 	0.04 	0.04 	0.0350277 	3.84181 	
3.80678 	3.97141 	-0.164629 	-1.66003 	4.73399e-08 	9.96523 	4.97961 	
8.32106e-11 	14488.2 	246.919 	283.231 	0.35 	13.208 	-0.125684 	6.77333e-05 	
0.00180191 	0.00120127 	1.20856e-08 	0.402854 	0.0107698 	0.392084 	0 	0 	0 	
0.00154093 	-1.88025e-12 	0.92 	0.04 	0.04 	0.0350276 	3.84181 	
3.80678 	3.97141 	-0.164635 	-1.66022 	3.87364e-08 	8.3051 	6.63974 	
8.32203e-11 	14488.2 	246.919 	283.231 	0.35 	13.208 	-0.125698 	6.77333e-05 	
0.00180191 	0.00120127 	2.08905e-08 	0.696352 	0.00750302 	0.688849 	0 	0 	0 	
0.00160867 	-2.30797e-09 	0.92 	0.04 	0.04 	0.0350276 	3.8418 	
3.80677 	3.97141 	-0.164643 	-1.66047 	3.01316e-08 	6.64475 	8.30009 	
8.32328e-11 	14488.2 	246.919 	283.231 	0.35 	13.208 	-0.125717 	6.77333e-05 	
0.00180191 	0.00120127 	3.22589e-08 	1.0753 	0.00482963 	1.07047 	0 	0 	0 	
0.0016764 	-4.61484e-09 	0.92 	0.04 	0.04 	0.0350275 	3.84179 	
3.80676 	3.97141 	-0.164652 	-1.66078 	2.15252e-08 	4.98412 	9.96072 	
8.32482e-11 	14488.2 	246.919 	283.231 	0.35 	13.208 	-0.125741 	6.77333e-05 	
0.00180191 	0.00120127 	4.61925e-08 	1.53976 	0.00274978 	1.53701 	0 	0 	0 	
0.00174413 	-6.92223e-09 	0.92 	0.04 	0.04 	0.0350275 	3.84178 	
3.80675 	3.97141 	-0.164664 	-1.66115 	1.29169e-08 	3.32316 	11.6217 	
8.32665e-11 	14488.2 	246.919 	283.231 	0.35 	13.208 	-0.125768 	6.77333e-05 	
0.00180191 	0.00120127 	6.2693e-08 	2.08978 	0.00126371 	2.08851 	0 	0 	0 	
0.00181187 	-9.23019e-09 	0.92 	0.04 	0.04 	0.0350275 	3.84177 	
3.80674 	3.97141 	-0.164677 	-1.66157 	4.30678e-09 	1.6618 	13.283 	
8.32875e-11 	14488.2 	246.919 	283.231 	0.35 	13.208 	-0.1258 	6.77333e-05 	
0.00180191 	0.00120127 	8.17627e-08 	2.72544 	0.00037177 	2.72506 	0 	0 	0 	
0.0018796 	0 	0.92 	0.04 	0.04 	0.0350275 	3.84175 	
3.80672 	3.97141 	-0.164691 	-0.831021 	4.30678e-09 	0.415511 	14.5293 	
4.16557e-11 	7244.08 	123.46 	141.616 	0.35 	6.604 	-0.125836 	3.38667e-05 	
0.000900955 	0.000600637 	9.19402e-08 	3.06469 	7.43795e-05 	3.06461 	0 	0 	0 	
ZONE T = "t = 4e-08 [s]" I = 10 SOLUTIONTIME = 4.0000000000000E-08
0.00127 	9.22486e-09 	0.92 	0.04 	0.04 	0.035028 	3.84182 	
3.80679 	3.97141 	-0.164622 	-0.829893 	7.31457e-08 	14.5299 	0.414947 	
6.23988e-11 	7244.08 	123.46 	141.616 	0.35 	6.604 	-0.125665 	3.38667e-05 	
0.000900955 	0.000600637 	1.28214e-09 	0.0320536 	0.0214579 	0.0105957 	0 	0 	0 	
0.00133773 	6.92005e-09 	0.92 	0.04 	0.04 	0.0350279 	3.84182 	
3.80679 	3.97141 	-0.164623 	-1.65981 	6.45442e-08 	13.285 	1.6598 	
1.24799e-10 	14488.2 	246.919 	283.231 	0.35 	13.208 	-0.125667 	6.77333e-05 	
0.00180191 	0.00120127 	2.88249e-09 	0.0720626 	0.019083 	0.0529796 	0 	0 	0 	
0.00140547 	4.61478e-09 	0.92 	0.04 	0.04 	0.0350278 	3.84182 	
3.80679 	3.97141 	-0.164625 	-1.65989 	5.59424e-08 	11.6252 	3.31965 	
1.24806e-10 	14488.2 	246.919 	283.231 	0.35 	13.208 	-0.125673 	6.77333e-05 	
0.00180191 	0.00120127 	7.79063e-09 	0.194767 	0.0146298 	0.180137 	0 	0 	0 	
0.0014732 	2.30967e-09 	0.92 	0.04 	0.04 	0.0350277 	3.84181 	
3.80678 	3.97141 	-0.164629 	-1.66003 	4.73399e-08 	9.96523 	4.97961 	
1.24816e-10 	14488.2 	246.919 	283.231 	0.35 	13.208 	-0.125684 	6.77333e-05 	
0.00180191 	0.00120127 	1.61141e-08 	0.402854 	0.0107698 	0.392084 	0 	0 	0 	
0.00154093 	4.29429e-12 	0.92 	0.04 	0.04 	0.0350276 	3.84181 	
3.80678 	3.97141 	-0.164635 	-1.66022 	3.87364e-08 	8.3051 	6.63974 	
1.2483e-10 	14488.2 	246.919 	283.231 	0.35 	13.208 	-0.125698 	6.77333e-05 	
0.00180191 	0.00120127 	2.7854e-08 	0.696352 	0.00750302 	0.688849 	0 	0 	0 	
0.00160867 	-2.30179e-09 	0.92 	0.04 	0.04 	0.0350276 	3.8418 	
3.80677 	3.97141 	-0.164643 	-1.66047 	3.01316e-08 	6.64475 	8.30009 	
1.24849e-10 	14488.2 	246.919 	283.231 	0.35 	13.208 	-0.125717 	6.77333e-05 	
0.00180191 	0.00120127 	4.30119e-08 	1.0753 	0.00482963 	1.07047 	0 	0 	0 	
0.0016764 	-4.60794e-09 	0.92 	0.04 	0.04 	0.0350275 	3.84179 	
3.80676 	3.97141 	-0.164652 	-1.66078 	2.15252e-08 	4.98412 	9.96072 	
1.24872e-10 	14488.2 	246.919 	283.231 	0.35 	13.208 	-0.125741 	6.77333e-05 	
0.00180191 	0.00120127 	6.159e-08 	1.53976 	0.00274978 	1.53701 	0 	0 	0 	
0.00174413 	-6.9146e-09 	0.92 	0.04 	0.04 	0.0350275 	3.84178 	
3.80675 	3.97141 	-0.164664 	-1.66115 	1.29169e-08 	3.32316 	11.6217 	
1.249e-10 	14488.2 	246.919 	283.231 	0.35 	13.208 	-0.125768 	6.77333e-05 	
0.00180191 	0.00120127 	8.35907e-08 	2.08978 	0.00126371 	2.08851 	0 	0 	0 	
0.00181187 	-9.22184e-09 	0.92 	0.04 	0.04 	0.0350275 	3.84177 	
3.80674 	3.97141 	-0.164677 	-1.66157 	4.30694e-09 	1.6618 	13.283 	
1.24931e-10 	14488.2 	246.919 	283.231 	0.35 	13.208 	-0.1258 	6.77333e-05 	
0.00180191 	0.00120127 	1.09017e-07 	2.72544 	0.00037177 	2.72506 	0 	0 	0 	
0.0018796 	0 	0.92 	0.04 	0.04 	0.0350275 	3.84175 	
3.80672 	3.97141 	-0.164691 	-0.831021 	4.30694e-09 	0.415511 	14.5293 	
6.24836e-11 	7244.08 	123.46 	141.616 	0.35 	6.604 	-0.125836 	3.38667e-05 	
0.000900955 	0.000600637 	1.22587e-07 	3.06469 	7.43795e-05 	3.06461 	0 	0 	0 	
ZONE T = "t = 5.5e-08 [s]" I = 10 SOLUTIONTIME = 5.5000000000000E-08
0.00127 	9.22461e-09 	0.92 	0.04 	0.04 	0.035028 	3.84182 	
3.80679 	3.97141 	-0.164622 	-0.829893 	7.31458e-08 	14.5299 	0.414947 	
8.31984e-11 	7244.08 	123.46 	141.616 	0.35 	6.604 	-0.125665 	3.38667e-05 	
0.000900955 	0.000600637 	1.76295e-09 	0.0320536 	0.0214579 	0.0105957 	0 	0 	0 	
0.00133773 	6.91945e-09 	0.92 	0.04 	0.04 	0.0350279 	3.84182 	
3.80679 	3.97141 	-0.164623 	-1.65981 	6.45442e-08 	13.285 	1.6598 	
1.66399e-10 	14488.2 	246.919 	283.231 	0.35 	13.208 	-0.125667 	6.77333e-05 	
0.00180191 	0.00120127 	3.96343e-09 	0.0720626 	0.019083 	0.0529796 	0 	0 	0 	
0.00140547 	4.61417e-09 	0.92 	0.04 	0.04 	0.0350278 	3.84182 	
3.80679 	3.97141 	-0.164625 	-1.65989 	5.59424e-08 	11.6252 	3.31965 	
1.66407e-10 	14488.2 	246.919 	283.231 	0.35 	13.208 	-0.125673 	6.77333e-05 	
0.00180191 	0.00120127 	1.07121e-08 	0.194767 	0.0146298 	0.180137 	0 	0 	0 	
0.0014732 	2.30894e-09 	0.92 	0.04 	0.04 	0.0350277 	3.84181 	
3.80678 	3.97141 	-0.164629 	-1.66003 	4.73399e-08 	9.96523 	4.97961 	
1.66421e-10 	14488.2 	246.919 	283.231 	0.35 	13.208 	-0.125684 	6.77333e-05 	
0.00180191 	0.00120127 	2.21569e-08 	0.402854 	0.0107698 	0.392084 	0 	0 	0 	
0.00154093 	3.20466e-12 	0.92 	0.04 	0.04 	0.0350276 	3.84181 	
3.80678 	3.97141 	-0.164635 	-1.66022 	3.87364e-08 	8.3051 	6.63974 	
1.66441e-10 	14488.2 	246.919 	283.231 	0.35 	13.208 	-0.125698 	6.77333e-05 	
0.00180191 	0.00120127 	3.82993e-08 	0.696352 	0.00750302 	0.688849 	0 	0 	0 	
0.00160867 	-2.30288e-09 	0.92 	0.04 	0.04 	0.0350276 	3.8418 	
3.80677 	3.97141 	-0.164643 	-1.66047 	3.01316e-08 	6.64475 	8.30009 	
1.66466e-10 	14488.2 	246.919 	283.231 	0.35 	13.208 	-0.125717 	6.77333e-05 	
0.00180191 	0.00120127 	5.91415e-08 	1.0753 	0.00482963 	1.07047 	0 	0 	0 	
0.0016764 	-4.6094e-09 	0.92 	0.04 	0.04 	0.0350275 	3.84179 	
3.80676 	3.97141 	-0.164652 	-1.66078 	2.15252e-08 	4.98412 	9.96072 	
1.66497e-10 	14488.2 	246.919 	283.231 	0.35 	13.208 	-0.125741 	6.77333e-05 	
0.00180191 	0.00120127 	8.46864e-08 	1.53976 	0.00274978 	1.53701 	0 	0 	0 	
0.00174413 	-6.91641e-09 	0.92 	0.04 	0.04 	0.0350275 	3.84178 	
3.80675 	3.97141 	-0.164664 	-1.66115 	1.29169e-08 	3.32316 	11.6217 	
1.66533e-10 	14488.2 	246.919 	283.231 	0.35 	13.208 	-0.125768 	6.77333e-05 	
0.00180191 	0.00120127 	1.14937e-07 	2.08978 	0.00126371 	2.08851 	0 	0 	0 	
0.00181187 	-9.22377e-09 	0.92 	0.04 	0.04 	0.0350275 	3.84177 	
3.80674 	3.97141 	-0.164677 	-1.66157 	4.3071e-09 	1.6618 	13.283 	
1.66575e-10 	14488.2 	246.919 	283.231 	0.35 	13.208 	-0.1258 	6.77333e-05 	
0.00180191 	0.00120127 	1.49899e-07 	2.72544 	0.00037177 	2.72506 	0 	0 	0 	
0.0018796 	0 	0.92 	0.04 	0.04 	0.0350275 	3.84175 	
3.80672 	3.97141 	-0.164691 	-0.831021 	4.3071e-09 	0.415511 	14.5293 	
8.33115e-11 	7244.08 	123.46 	141.616 	0.35 	6.604 	-0.125836 	3.38667e-05 	
0.000900955 	0.000600637 	1.68557e-07 	3.06469 	7.43795e-05 	3.06461 	0 	0 	0 	
ZONE T = "t = 7.75e-08 [s]" I = 10 SOLUTIONTIME = 7.7500000000000E-08
0.00127 	9.22433e-09 	0.92 	0.04 	0.04 	0.035028 	3.84182 	
3.80679 	3.97141 	-0.164622 	-0.829893 	7.31459e-08 	14.5299 	0.414947 	
1.14398e-10 	7244.08 	123.46 	141.616 	0.35 	6.604 	-0.125665 	3.38667e-05 	
0.000900955 	0.000600637 	2.48415e-09 	0.0320536 	0.0214579 	0.0105957 	0 	0 	0 	
0.00133773 	6.91901e-09 	0.92 	0.04 	0.04 	0.0350279 	3.84182 	
3.80679 	3.97141 	-0.164623 	-1.65981 	6.45442e-08 	13.285 	1.6598 	
2.28799e-10 	14488.2 	246.919 	283.231 	0.35 	13.208 	-0.125667 	6.77333e-05 	
0.00180191 	0.00120127 	5.58484e-09 	0.0720626 	0.019083 	0.0529796 	0 	0 	0 	
0.00140547 	4.61357e-09 	0.92 	0.04 	0.04 	0.0350278 	3.84182 	
3.80679 	3.97141 	-0.164625 	-1.65989 	5.59424e-08 	11.6252 	3.31965 	
2.2881e-10 	14488.2 	246.919 	283.231 	0.35 	13.208 	-0.125673 	6.77333e-05 	
0.00180191 	0.00120127 	1.50944e-08 	0.194767 	0.0146298 	0.180137 	0 	0 	0 	
0.0014732 	2.30793e-09 	0.92 	0.04 	0.04 	0.0350277 	3.84181 	
3.80678 	3.97141 	-0.164629 	-1.66003 	4.73399e-08 	9.96523 	4.97961 	
2.28829e-10 	14488.2 	246.919 	283.231 	0.35 	13.208 	-0.125684 	6.77333e-05 	
0.00180191 	0.00120127 	3.12211e-08 	0.402854 	0.0107698 	0.392084 	0 	0 	0 	
0.00154093 	2.03433e-12 	0.92 	0.04 	0.04 	0.0350276 	3.84181 	
3.80678 	3.97141 	-0.164635 	-1.66022 	3.87364e-08 	8.3051 	6.63974 	
2.28856e-10 	14488.2 	246.919 	283.231 	0.35 	13.208 	-0.125698 	6.77333e-05 	
0.00180191 	0.00120127 	5.39672e-08 	0.696352 	0.00750302 	0.688849 	0 	0 	0 	
0.00160867 	-2.30421e-09 	0.92 	0.04 	0.04 	0.0350276 	3.8418 	
3.80677 	3.97141 	-0.164643 	-1.66047 	3.01316e-08 	6.64475 	8.30009 	
2.2889e-10 	14488.2 	246.919 	283.231 	0.35 	13.208 	-0.125717 	6.77333e-05 	
0.00180191 	0.00120127 	8.33358e-08 	1.0753 	0.00482963 	1.07047 	0 	0 	0 	
0.0016764 	-4.61089e-09 	0.92 	0.04 	0.04 	0.0350275 	3.84179 	
3.80676 	3.97141 	-0.164652 	-1.66078 	2.15252e-08 	4.98412 	9.96072 	
2.28933e-10 	14488.2 	246.919 	283.231 	0.35 	13.208 	-0.125741 	6.77333e-05 	
0.00180191 	0.00120127 	1.19331e-07 	1.53976 	0.00274978 	1.53701 	0 	0 	0 	
0.00174413 	-6.91807e-09 	0.92 	0.04 	0.04 	0.0350275 	3.84178 	
3.80675 	3.97141 	-0.164664 	-1.66115 	1.29169e-08 	3.32316 	11.6217 	
2.28983e-10 	14488.2 	246.919 	283.231 	0.35 	13.208 	-0.125768 	6.77333e-05 	
0.00180191 	0.00120127 	1.61957e-07 	2.08978 	0.00126371 	2.08851 	0 	0 	0 	
0.00181187 	-9.22616e-09 	0.92 	0.04 	0.04 	0.0350275 	3.84177 	
3.80674 	3.97141 	-0.164677 	-1.66157 	4.30734e-09 	1.6618 	13.283 	
2.29041e-10 	14488.2 	246.919 	283.231 	0.35 	13.208 	-0.1258 	6.77333e-05 	
0.00180191 	0.00120127 	2.11221e-07 	2.72544 	0.00037177 	2.72506 	0 	0 	0 	
0.0018796 	0 	0.92 	0.04 	0.04 	0.0350275 	3.84175 	
3.80672 	3.97141 	-0.164691 	-0.831021 	4.30734e-09 	0.415511 	14.5293 	
1.14553e-10 	7244.08 	123.46 	141.616 	0.35 	6.604 	-0.125836 	3.38667e-05 	
0.000900955 	0.000600637 	2.37513e-07 	3.06469 	7.43795e-05 	3.06461 	0 	0 	0 	
ZONE T = "t = 1.1125e-07 [s]" I = 10 SOLUTIONTIME = 1.1125000000000E-07
0.00127 	9.22554e-09 	0.92 	0.04 	0.04 	0.035028 	3.84182 	
3.80679 	3.97141 	-0.164622 	-0.829893 	7.3146e-08 	14.5299 	0.414947 	
1.61197e-10 	7244.08 	123.46 	141.616 	0.35 	6.604 	-0.125665 	3.38667e-05 	
0.000900955 	0.000600637 	3.56596e-09 	0.0320536 	0.0214579 	0.0105957 	0 	0 	0 	
0.00133773 	6.92049e-09 	0.92 	0.04 	0.04 	0.0350279 	3.84182 	
3.80679 	3.97141 	-0.164623 	-1.65981 	6.45442e-08 	13.285 	1.6598 	
3.22399e-10 	14488.2 	246.919 	283.231 	0.35 	13.208 	-0.125667 	6.77333e-05 	
0.00180191 	0.00120127 	8.01695e-09 	0.0720626 	0.019083 	0.0529796 	0 	0 	0 	
0.00140547 	4.61531e-09 	0.92 	0.04 	0.04 	0.0350278 	3.84182 	
3.80679 	3.97141 	-0.164625 	-1.65989 	5.59424e-08 	11.6252 	3.31965 	
3.22414e-10 	14488.2 	246.919 	283.231 	0.35 	13.208 	-0.125673 	6.77333e-05 	
0.00180191 	0.00120127 	2.16677e-08 	0.194767 	0.0146298 	0.180137 	0 	0 	0 	
0.0014732 	2.30984e-09 	0.92 	0.04 	0.04 	0.0350277 	3.84181 	
3.80678 	3.97141 	-0.164629 	-1.66003 	4.73399e-08 	9.96523 	4.97961 	
3.22441e-10 	14488.2 	246.919 	283.231 	0.35 	13.208 	-0.125684 	6.77333e-05 	
0.00180191 	0.00120127 	4.48174e-08 	0.402854 	0.0107698 	0.392084 	0 	0 	0 	
0.00154093 	4.21357e-12 	0.92 	0.04 	0.04 	0.0350276 	3.84181 	
3.80678 	3.97141 	-0.164635 	-1.66022 	3.87364e-08 	8.3051 	6.63974 	
3.22479e-10 	14488.2 	246.919 	283.231 	0.35 	13.208 	-0.125698 	6.77333e-05 	
0.00180191 	0.00120127 	7.74691e-08 	0.696352 	0.00750302 	0.688849 	0 	0 	0 	
0.00160867 	-2.30177e-09 	0.92 	0.04 	0.04 	0.0350276 	3.8418 	
3.80677 	3.97141 	-0.164643 	-1.66047 	3.01316e-08 	6.64475 	8.30009 	
3.22528e-10 	14488.2 	246.919 	283.231 	0.35 	13.208 	-0.125717 	6.77333e-05 	
0.00180191 	0.00120127 	1.19627e-07 	1.0753 	0.00482963 	1.07047 	0 	0 	0 	
0.0016764 	-4.60828e-09 	0.92 	0.04 	0.04 	0.0350275 	3.84179 	
3.80676 	3.97141 	-0.164652 	-1.66078 	2.15252e-08 	4.98412 	9.96072 	
3.22587e-10 	14488.2 	246.919 	283.231 	0.35 	13.208 	-0.125741 	6.77333e-05 	
0.00180191 	0.00120127 	1.71298e-07 	1.53976 	0.00274978 	1.53701 	0 	0 	0 	
0.00174413 	-6.9153e-09 	0.92 	0.04 	0.04 	0.0350275 	3.84178 	
3.80675 	3.97141 	-0.164664 	-1.66115 	1.29169e-08 	3.32316 	11.6217 	
3.22658e-10 	14488.2 	246.919 	283.231 	0.35 	13.208 	-0.125768 	6.77333e-05 	
0.00180191 	0.00120127 	2.32487e-07 	2.08978 	0.00126371 	2.08851 	0 	0 	0 	
0.00181187 	-9.22279e-09 	0.92 	0.04 	0.04 	0.0350275 	3.84177 	
3.80674 	3.97141 	-0.164677 	-1.66157 	4.3077e-09 	1.6618 	13.283 	
3.22739e-10 	14488.2 	246.919 	283.231 	0.35 	13.208 	-0.1258 	6.77333e-05 	
0.00180191 	0.00120127 	3.03204e-07 	2.72544 	0.00037177 	2.72506 	0 	0 	0 	
0.0018796 	0 	0.92 	0.04 	0.04 	0.0350275 	3.84175 	
3.80672 	3.97141 	-0.164691 	-0.831021 	4.3077e-09 	0.415511 	14.5293 	
1.61416e-10 	7244.08 	123.46 	141.616 	0.35 	6.604 	-0.125836 	3.38667e-05 	
0.000900955 	0.000600637 	3.40946e-07 	3.06469 	7.43795e-05 	3.06461 	0 	0 	0 	
ZONE T = "t = 1.61875e-07 [s]" I = 10 SOLUTIONTIME = 1.6187500000000E-07
0.00127 	9.22565e-09 	0.92 	0.04 	0.04 	0.035028 	3.84182 	
3.80679 	3.97141 	-0.164622 	-0.829893 	7.31462e-08 	14.5299 	0.414947 	
2.31396e-10 	7244.08 	123.46 	141.616 	0.35 	6.604 	-0.125665 	3.38667e-05 	
0.000900955 	0.000600637 	5.18868e-09 	0.0320536 	0.0214579 	0.0105957 	0 	0 	0 	
0.00133773 	6.92041e-09 	0.92 	0.04 	0.04 	0.0350279 	3.84182 	
3.80679 	3.97141 	-0.164623 	-1.65981 	6.45442e-08 	13.285 	1.6598 	
4.62798e-10 	14488.2 	246.919 	283.231 	0.35 	13.208 	-0.125667 	6.77333e-05 	
0.00180191 	0.00120127 	1.16651e-08 	0.0720626 	0.019083 	0.0529796 	0 	0 	0 	
0.00140547 	4.61499e-09 	0.92 	0.04 	0.04 	0.0350278 	3.84182 	
3.80679 	3.97141 	-0.164625 	-1.65989 	5.59424e-08 	11.6252 	3.31965 	
4.62821e-10 	14488.2 	246.919 	283.231 	0.35 	13.208 	-0.125673 	6.77333e-05 	
0.00180191 	0.00120127 	3.15278e-08 	0.194767 	0.0146298 	0.180137 	0 	0 	0 	
0.0014732 	2.30945e-09 	0.92 	0.04 	0.04 	0.0350277 	3.84181 	
3.80678 	3.97141 	-0.164629 	-1.66003 	4.73399e-08 	9.96523 	4.97961 	
4.62859e-10 	14488.2 	246.919 	283.231 	0.35 	13.208 	-0.125684 	6.77333e-05 	
0.00180191 	0.00120127 	6.52119e-08 	0.402854 	0.0107698 	0.392084 	0 	0 	0 	
0.00154093 	3.71136e-12 	0.92 	0.04 	0.04 	0.0350276 	3.84181 	
3.80678 	3.97141 	-0.164635 	-1.66022 	3.87364e-08 	8.3051 	6.63974 	
4.62913e-10 	14488.2 	246.919 	283.231 	0.35 	13.208 	-0.125698 	6.77333e-05 	
0.00180191 	0.00120127 	1.12722e-07 	0.696352 	0.00750302 	0.688849 	0 	0 	0 	
0.00160867 	-2.30238e-09 	0.92 	0.04 	0.04 	0.0350276 	3.8418 	
3.80677 	3.97141 	-0.164643 	-1.66047 	3.01316e-08 	6.64475 	8.30009 	
4.62983e-10 	14488.2 	246.919 	283.231 	0.35 	13.208 	-0.125717 	6.77333e-05 	
0.00180191 	0.00120127 	1.74064e-07 	1.0753 	0.00482963 	1.07047 	0 	0 	0 	
0.0016764 	-4.60875e-09 	0.92 	0.04 	0.04 	0.0350275 	3.84179 	
3.80676 	3.97141 	-0.164652 	-1.66078 	2.15252e-08 	4.98412 	9.96072 	
4.63069e-10 	14488.2 	246.919 	283.231 	0.35 	13.208 	-0.125741 	6.77333e-05 	
0.00180191 	0.00120127 	2.49248e-07 	1.53976 	0.00274978 	1.53701 	0 	0 	0 	
0.00174413 	-6.91576e-09 	0.92 	0.04 	0.04 	0.0350275 	3.84178 	
3.80675 	3.97141 	-0.164664 	-1.66115 	1.29169e-08 	3.32316 	11.6217 	
4.6317e-10 	14488.2 	246.919 	283.231 	0.35 	13.208 	-0.125768 	6.77333e-05 	
0.00180191 	0.00120127 	3.38282e-07 	2.08978 	0.00126371 	2.08851 	0 	0 	0 	
0.00181187 	-9.22329e-09 	0.92 	0.04 	0.04 	0.0350275 	3.84177 	
3.80674 	3.97141 	-0.164677 	-1.66157 	4.30824e-09 	1.6618 	13.283 	
4.63287e-10 	14488.2 	246.919 	283.231 	0.35 	13.208 	-0.1258 	6.77333e-05 	
0.00180191 	0.00120127 	4.4118e-07 	2.72544 	0.00037177 	2.72506 	0 	0 	0 	
0.0018796 	0 	0.92 	0.04 	0.04 	0.0350275 	3.84175 	
3.80672 	3.97141 	-0.164691 	-0.831021 	4.30824e-09 	0.415511 	14.5293 	
2.3171e-10 	7244.08 	123.46 	141.616 	0.35 	6.604 	-0.125836 	3.38667e-05 	
0.000900955 	0.000600637 	4.96096e-07 	3.06469 	7.43795e-05 	3.06461 	0 	0 	0 	
ZONE T = "t = 2.37813e-07 [s]" I = 10 SOLUTIONTIME = 2.3781250000000E-07
0.00127 	9.2246e-09 	0.92 	0.04 	0.04 	0.035028 	3.84182 	
3.80679 	3.97141 	-0.164622 	-0.829893 	7.31465e-08 	14.5299 	0.414947 	
3.36694e-10 	7244.08 	123.46 	141.616 	0.35 	6.604 	-0.125665 	3.38667e-05 	
0.000900955 	0.000600637 	7.62275e-09 	0.0320536 	0.0214579 	0.0105957 	0 	0 	0 	
0.00133773 	6.91948e-09 	0.92 	0.04 	0.04 	0.0350279 	3.84182 	
3.80679 	3.97141 	-0.164623 	-1.65981 	6.45442e-08 	13.285 	1.6598 	
6.73397e-10 	14488.2 	246.919 	283.231 	0.35 	13.208 	-0.125667 	6.77333e-05 	
0.00180191 	0.00120127 	1.71374e-08 	0.0720626 	0.019083 	0.0529796 	0 	0 	0 	
0.00140547 	4.61425e-09 	0.92 	0.04 	0.04 	0.0350278 	3.84182 	
3.80679 	3.97141 	-0.164625 	-1.65989 	5.59424e-08 	11.6252 	3.31965 	
6.7343e-10 	14488.2 	246.919 	283.231 	0.35 	13.208 	-0.125673 	6.77333e-05 	
0.00180191 	0.00120127 	4.63179e-08 	0.194767 	0.0146298 	0.180137 	0 	0 	0 	
0.0014732 	2.30883e-09 	0.92 	0.04 	0.04 	0.0350277 	3.84181 	
3.80678 	3.97141 	-0.164629 	-1.66003 	4.73399e-08 	9.96523 	4.97961 	
6.73486e-10 	14488.2 	246.919 	283.231 	0.35 	13.208 	-0.125684 	6.77333e-05 	
0.00180191 	0.00120127 	9.58036e-08 	0.402854 	0.0107698 	0.392084 	0 	0 	0 	
0.00154093 	3.08957e-12 	0.92 	0.04 	0.04 	0.0350276 	3.84181 	
3.80678 	3.97141 	-0.164635 	-1.66022 	3.87364e-08 	8.3051 	6.63974 	
6.73565e-10 	14488.2 	246.919 	283.231 	0.35 	13.208 	-0.125698 	6.77333e-05 	
0.00180191 	0.00120127 	1.65601e-07 	0.696352 	0.00750302 	0.688849 	0 	0 	0 	
0.00160867 	-2.30305e-09 	0.92 	0.04 	0.04 	0.0350276 	3.8418 	
3.80677 	3.97141 	-0.164643 	-1.66047 	3.01316e-08 	6.64475 	8.30009 	
6.73667e-10 	14488.2 	246.919 	283.231 	0.35 	13.208 	-0.125717 	6.77333e-05 	
0.00180191 	0.00120127 	2.5572e-07 	1.0753 	0.00482963 	1.07047 	0 	0 	0 	
0.0016764 	-4.60965e-09 	0.92 	0.04 	0.04 	0.0350275 	3.84179 	
3.80676 	3.97141 	-0.164652 	-1.66078 	2.15252e-08 	4.98412 	9.96072 	
6.73791e-10 	14488.2 	246.919 	283.231 	0.35 	13.208 	-0.125741 	6.77333e-05 	
0.00180191 	0.00120127 	3.66173e-07 	1.53976 	0.00274978 	1.53701 	0 	0 	0 	
0.00174413 	-6.91667e-09 	0.92 	0.04 	0.04 	0.0350275 	3.84178 	
3.80675 	3.97141 	-0.164664 	-1.66115 	1.29169e-08 	3.32316 	11.6217 	
6.73939e-10 	14488.2 	246.919 	283.231 	0.35 	13.208 	-0.125768 	6.77333e-05 	
0.00180191 	0.00120127 	4.96974e-07 	2.08978 	0.00126371 	2.08851 	0 	0 	0 	
0.00181187 	-9.22423e-09 	0.92 	0.04 	0.04 	0.0350275 	3.84177 	
3.80674 	3.97141 	-0.164677 	-1.66157 	4.30905e-09 	1.6618 	13.283 	
6.74109e-10 	14488.2 	246.919 	283.231 	0.35 	13.208 	-0.1258 	6.77333e-05 	
0.00180191 	0.00120127 	6.48142e-07 	2.72544 	0.00037177 	2.72506 	0 	0 	0 	
0.0018796 	0 	0.92 	0.04 	0.04 	0.0350275 	3.84175 	
3.80672 	3.97141 	-0.164691 	-0.831021 	4.30905e-09 	0.415511 	14.5293 	
3.37151e-10 	7244.08 	123.46 	141.616 	0.35 	6.604 	-0.125836 	3.38667e-05 	
0.000900955 	0.000600637 	7.2882e-07 	3.06469 	7.43795e-05 	3.06461 	0 	0 	0 	
ZONE T = "t = 3.51719e-07 [s]" I = 10 SOLUTIONTIME = 3.5171875000000E-07
0.00127 	9.22559e-09 	0.92 	0.04 	0.04 	0.035028 	3.84182 	
3.80679 	3.97141 	-0.164622 	-0.829893 	7.3147e-08 	14.5299 	0.414947 	
4.94641e-10 	7244.08 	123.46 	141.616 	0.35 	6.604 	-0.125665 	3.38667e-05 	
0.000900955 	0.000600637 	1.12739e-08 	0.0320536 	0.0214579 	0.0105957 	0 	0 	0 	
0.00133773 	6.92042e-09 	0.92 	0.04 	0.04 	0.0350279 	3.84182 	
3.80679 	3.97141 	-0.164623 	-1.65981 	6.45442e-08 	13.285 	1.6598 	
9.89296e-10 	14488.2 	246.919 	283.231 	0.35 	13.208 	-0.125667 	6.77333e-05 	
0.00180191 	0.00120127 	2.53458e-08 	0.0720626 	0.019083 	0.0529796 	0 	0 	0 	