TITLE = "Solution on Domain BulkDomain1D_2"
VARIABLES = "x [m]"  
"Vel_axial" 	"MF_sp(ECDMC)" 	"MF_sp(Li+)" 	"MF_sp(PF6-)" 	"Volt(Electroly)" 	"Volt(CathodeVo)" 	
"Potential Drop Electrode-Electrolyte [V]" 	"Surf_0 Equilibrium Potential Drop Electrode-Electrolyte [V]" 	"Overpotential_0 [V]" 	"Current Source [A/m^2]" 	"Li+ flux [kmol/m^2/s]" 	"Electrolyte Current [A/m^2]" 	"Electrode Current [A/m^2]" 	
"CV Capacity discharged [A-s/m^2]" 	"Depth of discharge in CV [A-s/m^2]" 	"CV Capacity remaining [A-s/m^2]" 	"Initial CV capacity [A-s/m^2]" 	"Porosity []" 	"Surface Area [m2/m2] (area per area)" 	"Specific current (per particle area) [A/m^2]" 	"Control volume thickness [m]" 	
"MoleDens LiCoO2 [kmol/m^3]" 	"MoleDens CoO2 [kmol/m^3]" 	"qHeat_accum [J/m3]" 	"qHeat_step [W/m3]" 	"Joule_Lyte [W/m3]" 	"Joule_Solid [W/m3]" 	"electrodHeat [W/m3]" 	"OverpotHeat [W/m3]" 	"deltaSHeat [W/m3]" 	

ZONE T = "CATH, 0.0000E+00", I = 10, SOLUTIONTIME = 0.000000E+00
ZONETYPE = ORDERED
DATAPACKING = BLOCK
STRANDID = 3
 1.2700000000000E-03  1.3377333333333E-03  1.4054666666667E-03  1.4732000000000E-03  1.5409333333333E-03  1.6086666666667E-03  1.6764000000000E-03  1.7441333333333E-03  1.8118666666667E-03  1.8796000000000E-03 
 0.0000000000000E+00  0.0000000000000E+00  0.0000000000000E+00  0.0000000000000E+00  0.0000000000000E+00  0.0000000000000E+00  0.0000000000000E+00  0.0000000000000E+00  0.0000000000000E+00  0.0000000000000E+00 
 9.2000000000000E-01  9.2000000000000E-01  9.2000000000000E-01  9.2000000000000E-01  9.2000000000000E-01  9.2000000000000E-01  9.2000000000000E-01  9.2000000000000E-01  9.2000000000000E-01  9.2000000000000E-01 
 4.0000000000000E-02  4.0000000000000E-02  4.0000000000000E-02  4.0000000000000E-02  4.0000000000000E-02  4.0000000000000E-02  4.0000000000000E-02  4.0000000000000E-02  4.0000000000000E-02  4.0000000000000E-02 
 4.0000000000000E-02  4.0000000000000E-02  4.0000000000000E-02  4.0000000000000E-02  4.0000000000000E-02  4.0000000000000E-02  4.0000000000000E-02  4.0000000000000E-02  4.0000000000000E-02  4.0000000000000E-02 
-7.0000000000000E-02 -7.0000000000000E-02 -7.0000000000000E-02 -7.0000000000000E-02 -7.0000000000000E-02 -7.0000000000000E-02 -7.0000000000000E-02 -7.0000000000000E-02 -7.0000000000000E-02 -7.0000000000000E-02 
 3.8000000000000E+00  3.8000000000000E+00  3.8000000000000E+00  3.8000000000000E+00  3.8000000000000E+00  3.8000000000000E+00  3.8000000000000E+00  3.8000000000000E+00  3.8000000000000E+00  3.8000000000000E+00 
 3.8700000000000E+00  3.8700000000000E+00  3.8700000000000E+00  3.8700000000000E+00  3.8700000000000E+00  3.8700000000000E+00  3.8700000000000E+00  3.8700000000000E+00  3.8700000000000E+00  3.8700000000000E+00 
 3.9714142713289E+00  3.9714142713289E+00  3.9714142713289E+00  3.9714142713289E+00  3.9714142713289E+00  3.9714142713289E+00  3.9714142713289E+00  3.9714142713289E+00  3.9714142713289E+00  3.9714142713289E+00 
-1.0141427132889E-01 -1.0141427132889E-01 -1.0141427132889E-01 -1.0141427132889E-01 -1.0141427132889E-01 -1.0141427132889E-01 -1.0141427132889E-01 -1.0141427132889E-01 -1.0141427132889E-01 -1.0141427132889E-01 
-2.3826357195711E-01 -4.7652714391422E-01 -4.7652714391423E-01 -4.7652714391422E-01 -4.7652714391423E-01 -4.7652714391423E-01 -4.7652714391422E-01 -4.7652714391423E-01 -4.7652714391422E-01 -2.3826357195711E-01 
-0.0000000000000E+00 -0.0000000000000E+00 -0.0000000000000E+00 -0.0000000000000E+00 -0.0000000000000E+00 -0.0000000000000E+00 -0.0000000000000E+00 -0.0000000000000E+00 -0.0000000000000E+00 -0.0000000000000E+00 
 2.3826357195711E-01  0.0000000000000E+00  0.0000000000000E+00  0.0000000000000E+00  0.0000000000000E+00  0.0000000000000E+00  0.0000000000000E+00  0.0000000000000E+00  0.0000000000000E+00  0.0000000000000E+00 
 0.0000000000000E+00 -0.0000000000000E+00 -0.0000000000000E+00 -0.0000000000000E+00 -0.0000000000000E+00 -0.0000000000000E+00 -0.0000000000000E+00 -0.0000000000000E+00 -0.0000000000000E+00  2.3826357195711E-01 
-0.0000000000000E+00 -0.0000000000000E+00 -0.0000000000000E+00 -0.0000000000000E+00 -0.0000000000000E+00 -0.0000000000000E+00 -0.0000000000000E+00 -0.0000000000000E+00 -0.0000000000000E+00 -0.0000000000000E+00 
 7.2440786946225E+03  1.4488157389245E+04  1.4488157389245E+04  1.4488157389245E+04  1.4488157389245E+04  1.4488157389245E+04  1.4488157389245E+04  1.4488157389245E+04  1.4488157389245E+04  7.2440786946225E+03 
 4.9259735123433E+04  9.8519470246865E+04  9.8519470246866E+04  9.8519470246865E+04  9.8519470246866E+04  9.8519470246866E+04  9.8519470246865E+04  9.8519470246866E+04  9.8519470246865E+04  4.9259735123433E+04 
 5.6503813818055E+04  1.1300762763611E+05  1.1300762763611E+05  1.1300762763611E+05  1.1300762763611E+05  1.1300762763611E+05  1.1300762763611E+05  1.1300762763611E+05  1.1300762763611E+05  5.6503813818055E+04 
 3.5000000000000E-01  3.5000000000000E-01  3.5000000000000E-01  3.5000000000000E-01  3.5000000000000E-01  3.5000000000000E-01  3.5000000000000E-01  3.5000000000000E-01  3.5000000000000E-01  3.5000000000000E-01 
 6.6040000000000E+00  1.3208000000000E+01  1.3208000000000E+01  1.3208000000000E+01  1.3208000000000E+01  1.3208000000000E+01  1.3208000000000E+01  1.3208000000000E+01  1.3208000000000E+01  6.6040000000000E+00 
-3.6078675341780E-02 -3.6078675341780E-02 -3.6078675341780E-02 -3.6078675341780E-02 -3.6078675341780E-02 -3.6078675341780E-02 -3.6078675341780E-02 -3.6078675341780E-02 -3.6078675341780E-02 -3.6078675341780E-02 
 3.3866666666667E-05  6.7733333333333E-05  6.7733333333334E-05  6.7733333333333E-05  6.7733333333334E-05  6.7733333333334E-05  6.7733333333333E-05  6.7733333333334E-05  6.7733333333333E-05  3.3866666666667E-05 
 2.6603001364256E+01  2.6603001364256E+01  2.6603001364256E+01  2.6603001364256E+01  2.6603001364256E+01  2.6603001364256E+01  2.6603001364256E+01  2.6603001364256E+01  2.6603001364256E+01  2.6603001364256E+01 
 1.7735334242838E+01  1.7735334242838E+01  1.7735334242838E+01  1.7735334242838E+01  1.7735334242838E+01  1.7735334242838E+01  1.7735334242838E+01  1.7735334242838E+01  1.7735334242838E+01  1.7735334242838E+01 
 0.0000000000000E+00  0.0000000000000E+00  0.0000000000000E+00  0.0000000000000E+00  0.0000000000000E+00  0.0000000000000E+00  0.0000000000000E+00  0.0000000000000E+00  0.0000000000000E+00  0.0000000000000E+00 
 0.0000000000000E+00  0.0000000000000E+00  0.0000000000000E+00  0.0000000000000E+00  0.0000000000000E+00  0.0000000000000E+00  0.0000000000000E+00  0.0000000000000E+00  0.0000000000000E+00  0.0000000000000E+00 
 0.0000000000000E+00  0.0000000000000E+00  0.0000000000000E+00  0.0000000000000E+00  0.0000000000000E+00  0.0000000000000E+00  0.0000000000000E+00  0.0000000000000E+00  0.0000000000000E+00  0.0000000000000E+00 
 0.0000000000000E+00  0.0000000000000E+00  0.0000000000000E+00  0.0000000000000E+00  0.0000000000000E+00  0.0000000000000E+00  0.0000000000000E+00  0.0000000000000E+00  0.0000000000000E+00  0.0000000000000E+00 
 0.0000000000000E+00  0.0000000000000E+00  0.0000000000000E+00  0.0000000000000E+00  0.0000000000000E+00  0.0000000000000E+00  0.0000000000000E+00  0.0000000000000E+00  0.0000000000000E+00  0.0000000000000E+00 
 0.0000000000000E+00  0.0000000000000E+00  0.0000000000000E+00  0.0000000000000E+00  0.0000000000000E+00  0.0000000000000E+00  0.0000000000000E+00  0.0000000000000E+00  0.0000000000000E+00  0.0000000000000E+00 
 0.0000000000000E+00  0.0000000000000E+00  0.0000000000000E+00  0.0000000000000E+00  0.0000000000000E+00  0.0000000000000E+00  0.0000000000000E+00  0.0000000000000E+00  0.0000000000000E+00  0.0000000000000E+00 
ZONE T = "CATH, 1.0000E-08", I = 10, SOLUTIONTIME = 1.000000E-08
ZONETYPE = ORDERED
DATAPACKING = BLOCK
STRANDID = 3
 1.2700000000000E-03  1.3377333333333E-03  1.4054666666667E-03  1.4732000000000E-03  1.5409333333333E-03  1.6086666666667E-03  1.6764000000000E-03  1.7441333333333E-03  1.8118666666667E-03  1.8796000000000E-03 
 9.7953327350773E-09  8.6432000225630E-09  7.4909969204085E-09  6.3386748574043E-09  5.1865484501096E-09  4.0342058715115E-09  2.8815984660402E-09  1.7283143259325E-09  5.7503111394546E-10 -1.8160386392648E-12 
 9.2000000000016E-01  9.2000000000045E-01  9.2000000000045E-01  9.2000000000045E-01  9.2000000000045E-01  9.2000000000045E-01  9.2000000000045E-01  9.2000000000045E-01  9.2000000000045E-01  9.2000000000045E-01 
 3.9999999999921E-02  3.9999999999776E-02  3.9999999999776E-02  3.9999999999776E-02  3.9999999999776E-02  3.9999999999776E-02  3.9999999999776E-02  3.9999999999776E-02  3.9999999999776E-02  3.9999999999776E-02 
 3.9999999999921E-02  3.9999999999776E-02  3.9999999999776E-02  3.9999999999776E-02  3.9999999999776E-02  3.9999999999776E-02  3.9999999999776E-02  3.9999999999776E-02  3.9999999999776E-02  3.9999999999776E-02 
 3.5025799833834E-02  3.5025696892404E-02  3.5025606054740E-02  3.5025527321583E-02  3.5025460694182E-02  3.5025406174298E-02  3.5025363764201E-02  3.5025333466674E-02  3.5025315285010E-02  3.5025309223016E-02 
 3.8418254253660E+00  3.8418243531477E+00  3.8418211364522E+00  3.8418157751485E+00  3.8418082690152E+00  3.8417986177403E+00  3.8417868209215E+00  3.8417728780660E+00  3.8417567885901E+00  3.8417385518194E+00 
 3.8067996255322E+00  3.8067986562553E+00  3.8067955303975E+00  3.8067902478269E+00  3.8067828083210E+00  3.8067732115660E+00  3.8067614571573E+00  3.8067475445993E+00  3.8067314733050E+00  3.8067132425964E+00 
 3.9714142713288E+00  3.9714142713287E+00  3.9714142713287E+00  3.9714142713287E+00  3.9714142713287E+00  3.9714142713287E+00  3.9714142713287E+00  3.9714142713287E+00  3.9714142713287E+00  3.9714142713287E+00 
-1.6461464579661E-01 -1.6461561507337E-01 -1.6461874093120E-01 -1.6462402350176E-01 -1.6463146300772E-01 -1.6464105976272E-01 -1.6465281417138E-01 -1.6466672672940E-01 -1.6468279802366E-01 -1.6470102873228E-01 
-8.2977783760463E-01 -1.6595870831249E+00 -1.6596883757307E+00 -1.6598595700086E+00 -1.6601006946637E+00 -1.6604117901333E+00 -1.6607929086026E+00 -1.6612441140226E+00 -1.6617654821332E+00 -8.3117855024511E-01 
 7.3125313791637E-08  6.4527242511335E-08  5.5928711904781E-08  4.7329293527218E-08  3.8728624766949E-08  3.0126342783005E-08  2.1522084474557E-08  1.2915486422170E-08  4.3061847865464E-09  4.3061847865464E-09 
 1.4940806118383E+01  1.3281446844341E+01  1.1622233288797E+01  9.9628833938066E+00  8.3033271983359E+00  6.6434947066445E+00  4.9833158763848E+00  3.3227206090902E+00  1.6616387344807E+00  0.0000000000000E+00 
 0.0000000000000E+00  1.6591471532331E+00  3.3183607082556E+00  4.9777106034065E+00  6.6372667991865E+00  8.2970992909701E+00  9.9572781206884E+00  1.1617873388167E+01  1.3278955263151E+01  1.4940805178556E+01 
 8.2977783760463E-09  1.6595870831249E-08  1.6596883757307E-08  1.6598595700086E-08  1.6601006946637E-08  1.6604117901333E-08  1.6607929086026E-08  1.6612441140226E-08  1.6617654821331E-08  8.3117855024511E-09 
 7.2440786946308E+03  1.4488157389261E+04  1.4488157389262E+04  1.4488157389261E+04  1.4488157389262E+04  1.4488157389262E+04  1.4488157389261E+04  1.4488157389262E+04  1.4488157389262E+04  7.2440786946308E+03 
 4.9259735123425E+04  9.8519470246849E+04  9.8519470246849E+04  9.8519470246849E+04  9.8519470246849E+04  9.8519470246849E+04  9.8519470246849E+04  9.8519470246849E+04  9.8519470246848E+04  4.9259735123425E+04 
 5.6503813818055E+04  1.1300762763611E+05  1.1300762763611E+05  1.1300762763611E+05  1.1300762763611E+05  1.1300762763611E+05  1.1300762763611E+05  1.1300762763611E+05  1.1300762763611E+05  5.6503813818055E+04 
 3.5000000000000E-01  3.5000000000000E-01  3.5000000000000E-01  3.5000000000000E-01  3.5000000000000E-01  3.5000000000000E-01  3.5000000000000E-01  3.5000000000000E-01  3.5000000000000E-01  3.5000000000000E-01 
 6.6040000000000E+00  1.3208000000000E+01  1.3208000000000E+01  1.3208000000000E+01  1.3208000000000E+01  1.3208000000000E+01  1.3208000000000E+01  1.3208000000000E+01  1.3208000000000E+01  6.6040000000000E+00 
-1.2564776462820E-01 -1.2565014257457E-01 -1.2565781160892E-01 -1.2567077301701E-01 -1.2568902897211E-01 -1.2571258253584E-01 -1.2574143765919E-01 -1.2577559918402E-01 -1.2581507284473E-01 -1.2585986527031E-01 
 3.3866666666667E-05  6.7733333333333E-05  6.7733333333334E-05  6.7733333333333E-05  6.7733333333334E-05  6.7733333333334E-05  6.7733333333333E-05  6.7733333333334E-05  6.7733333333333E-05  3.3866666666667E-05 
 2.6603001364259E+01  2.6603001364259E+01  2.6603001364259E+01  2.6603001364259E+01  2.6603001364259E+01  2.6603001364259E+01  2.6603001364259E+01  2.6603001364259E+01  2.6603001364259E+01  2.6603001364259E+01 
 1.7735334242835E+01  1.7735334242835E+01  1.7735334242835E+01  1.7735334242835E+01  1.7735334242835E+01  1.7735334242835E+01  1.7735334242835E+01  1.7735334242835E+01  1.7735334242835E+01  1.7735334242835E+01 
 3.4578026208572E-10  8.4734242448501E-10  2.3788114171662E-09  4.9671434011081E-09  8.6127748349791E-09  1.3316320573140E-08  1.9078574083722E-08  2.5900507732791E-08  3.3783273130535E-08  3.7990018931841E-08 
 3.4578026208572E-02  8.4734242448501E-02  2.3788114171662E-01  4.9671434011081E-01  8.6127748349791E-01  1.3316320573140E+00  1.9078574083722E+00  2.5900507732791E+00  3.3783273130535E+00  3.7990018931841E+00 
 2.1446005553096E-02  1.9072646206824E-02  1.4622297694221E-02  1.0764675079616E-02  7.4997994324579E-03  4.8277918357846E-03  2.7488734707739E-03  1.2633657409134E-03  3.7169042474985E-04  7.4369871224977E-05 
 1.3132020655477E-02  6.5661596241676E-02  2.2325884402240E-01  4.8594966503119E-01  8.5377768406545E-01  1.3268042654782E+00  1.9051085349015E+00  2.5887874075382E+00  3.3779556226287E+00  3.7989275233129E+00 
 0.0000000000000E+00  0.0000000000000E+00  0.0000000000000E+00  0.0000000000000E+00  0.0000000000000E+00  0.0000000000000E+00  0.0000000000000E+00  0.0000000000000E+00  0.0000000000000E+00  0.0000000000000E+00 
 0.0000000000000E+00  0.0000000000000E+00  0.0000000000000E+00  0.0000000000000E+00  0.0000000000000E+00  0.0000000000000E+00  0.0000000000000E+00  0.0000000000000E+00  0.0000000000000E+00  0.0000000000000E+00 
 0.0000000000000E+00  0.0000000000000E+00  0.0000000000000E+00  0.0000000000000E+00  0.0000000000000E+00  0.0000000000000E+00  0.0000000000000E+00  0.0000000000000E+00  0.0000000000000E+00  0.0000000000000E+00 
ZONE T = "CATH, 2.0000E-08", I = 10, SOLUTIONTIME = 2.000000E-08
ZONETYPE = ORDERED
DATAPACKING = BLOCK
STRANDID = 3
 1.2700000000000E-03  1.3377333333333E-03  1.4054666666667E-03  1.4732000000000E-03  1.5409333333333E-03  1.6086666666667E-03  1.6764000000000E-03  1.7441333333333E-03  1.8118666666667E-03  1.8796000000000E-03 
 9.8004085815753E-09  8.6477210552570E-09  7.4949631838656E-09  6.3417232148783E-09  5.1886789990220E-09  4.0354187357590E-09  2.8815305883124E-09  1.7276922986788E-09  5.7349193307455E-10 -3.8136811418960E-12 
 9.2000000000032E-01  9.2000000000089E-01  9.2000000000089E-01  9.2000000000089E-01  9.2000000000089E-01  9.2000000000089E-01  9.2000000000089E-01  9.2000000000090E-01  9.2000000000090E-01  9.2000000000090E-01 
 3.9999999999842E-02  3.9999999999553E-02  3.9999999999553E-02  3.9999999999553E-02  3.9999999999553E-02  3.9999999999553E-02  3.9999999999553E-02  3.9999999999552E-02  3.9999999999552E-02  3.9999999999552E-02 
 3.9999999999842E-02  3.9999999999553E-02  3.9999999999553E-02  3.9999999999553E-02  3.9999999999553E-02  3.9999999999553E-02  3.9999999999553E-02  3.9999999999552E-02  3.9999999999552E-02  3.9999999999552E-02 
 3.5028603897908E-02  3.5028500939402E-02  3.5028410086676E-02  3.5028331340468E-02  3.5028264702029E-02  3.5028210173117E-02  3.5028167756002E-02  3.5028137453465E-02  3.5028119268797E-02  3.5028113205802E-02 
 3.8418323642205E+00  3.8418312918239E+00  3.8418280745934E+00  3.8418227123982E+00  3.8418152050169E+00  3.8418055521378E+00  3.8417937533588E+00  3.8417798081873E+00  3.8417637160401E+00  3.8417454762431E+00 
 3.8068037603226E+00  3.8068027908845E+00  3.8067996645067E+00  3.8067943810577E+00  3.8067869403148E+00  3.8067773419647E+00  3.8067655856028E+00  3.8067516707339E+00  3.8067355967713E+00  3.8067173630373E+00 
 3.9714142713287E+00  3.9714142713285E+00  3.9714142713285E+00  3.9714142713285E+00  3.9714142713285E+00  3.9714142713285E+00  3.9714142713285E+00  3.9714142713285E+00  3.9714142713285E+00  3.9714142713285E+00 
-1.6461051100611E-01 -1.6461148044404E-01 -1.6461460682178E-01 -1.6461989027082E-01 -1.6462733101370E-01 -1.6463692936386E-01 -1.6464868572571E-01 -1.6466260059466E-01 -1.6467867455726E-01 -1.6469690829124E-01 
-8.2971085017782E-01 -1.6594531109715E+00 -1.6595544123008E+00 -1.6597256213200E+00 -1.6599667667343E+00 -1.6602778889822E+00 -1.6606590402500E+00 -1.6611102844904E+00 -1.6616316974452E+00 -8.3111168333641E-01 
 7.3137509411642E-08  6.4537942271121E-08  5.5937982106064E-08  4.7337134700333E-08  3.8735037632654E-08  3.0131328274692E-08  2.1525643715165E-08  1.2917620722838E-08  4.3068956654369E-09  4.3068956654369E-09 
 1.4943079796860E+01  1.3283649546654E+01  1.1624160095804E+01  9.9645343877978E+00  8.3047025005849E+00  6.6445944769481E+00  4.9841403125866E+00  3.3232699466052E+00  1.6619132462950E+00  0.0000000000000E+00 
 0.0000000000000E+00  1.6594230943106E+00  3.3189125454006E+00  4.9785382531271E+00  6.6383701403679E+00  8.2984781643595E+00  9.9589323285510E+00  1.1619802694801E+01  1.3281159394717E+01  1.4943079782496E+01 
 1.6594886877825E-08  3.3190401940964E-08  3.3192427880315E-08  3.3195851913286E-08  3.3200674613979E-08  3.3206896791155E-08  3.3214519488527E-08  3.3223543985130E-08  3.3233971795784E-08  1.6622902335815E-08 
 7.2440786946391E+03  1.4488157389278E+04  1.4488157389278E+04  1.4488157389278E+04  1.4488157389278E+04  1.4488157389278E+04  1.4488157389278E+04  1.4488157389278E+04  1.4488157389278E+04  7.2440786946391E+03 
 4.9259735123416E+04  9.8519470246832E+04  9.8519470246833E+04  9.8519470246832E+04  9.8519470246833E+04  9.8519470246833E+04  9.8519470246832E+04  9.8519470246833E+04  9.8519470246832E+04  4.9259735123416E+04 
 5.6503813818055E+04  1.1300762763611E+05  1.1300762763611E+05  1.1300762763611E+05  1.1300762763611E+05  1.1300762763611E+05  1.1300762763611E+05  1.1300762763611E+05  1.1300762763611E+05  5.6503813818055E+04 
 3.5000000000000E-01  3.5000000000000E-01  3.5000000000000E-01  3.5000000000000E-01  3.5000000000000E-01  3.5000000000000E-01  3.5000000000000E-01  3.5000000000000E-01  3.5000000000000E-01  3.5000000000000E-01 
 6.6040000000000E+00  1.3208000000000E+01  1.3208000000000E+01  1.3208000000000E+01  1.3208000000000E+01  1.3208000000000E+01  1.3208000000000E+01  1.3208000000000E+01  1.3208000000000E+01  6.6040000000000E+00 
-1.2563762116563E-01 -1.2563999931644E-01 -1.2564766901127E-01 -1.2566063153543E-01 -1.2567888906225E-01 -1.2570244465340E-01 -1.2573130226000E-01 -1.2576546672399E-01 -1.2580494377993E-01 -1.2584974005700E-01 
 3.3866666666667E-05  6.7733333333333E-05  6.7733333333334E-05  6.7733333333333E-05  6.7733333333334E-05  6.7733333333334E-05  6.7733333333333E-05  6.7733333333334E-05  6.7733333333333E-05  3.3866666666667E-05 
 2.6603001364262E+01  2.6603001364262E+01  2.6603001364262E+01  2.6603001364262E+01  2.6603001364262E+01  2.6603001364262E+01  2.6603001364262E+01  2.6603001364262E+01  2.6603001364262E+01  2.6603001364262E+01 
 1.7735334242833E+01  1.7735334242833E+01  1.7735334242833E+01  1.7735334242833E+01  1.7735334242833E+01  1.7735334242833E+01  1.7735334242833E+01  1.7735334242833E+01  1.7735334242833E+01  1.7735334242833E+01 
 6.9167536429827E-10  1.6949665440163E-09  4.7584139239819E-09  9.9359385812000E-09  1.7228413251673E-08  2.6637067394139E-08  3.8163487626668E-08  5.1809618296415E-08  6.7577762170833E-08  7.5992647679068E-08 
 3.4589510221255E-02  8.4762411953130E-02  2.3796025068157E-01  4.9687951800919E-01  8.6156384166936E-01  1.3320746820999E+00  1.9084913542946E+00  2.5909110563624E+00  3.3794489040298E+00  3.8002628747227E+00 
 2.1453120852824E-02  1.9078973122363E-02  1.4627146519066E-02  1.0768243169078E-02  7.5022841265859E-03  4.8293904202781E-03  2.7497831371653E-03  1.2637835490910E-03  3.7181326483717E-04  7.4394426512488E-05 
 1.3136389368430E-02  6.5683438830767E-02  2.2333310416251E-01  4.8611127484012E-01  8.5406155754278E-01  1.3272452916796E+00  1.9057415711574E+00  2.5896472728133E+00  3.3790770907650E+00  3.8001884802962E+00 
 0.0000000000000E+00  0.0000000000000E+00  0.0000000000000E+00  0.0000000000000E+00  0.0000000000000E+00  0.0000000000000E+00  0.0000000000000E+00  0.0000000000000E+00  0.0000000000000E+00  0.0000000000000E+00 
 0.0000000000000E+00  0.0000000000000E+00  0.0000000000000E+00  0.0000000000000E+00  0.0000000000000E+00  0.0000000000000E+00  0.0000000000000E+00  0.0000000000000E+00  0.0000000000000E+00  0.0000000000000E+00 
 0.0000000000000E+00  0.0000000000000E+00  0.0000000000000E+00  0.0000000000000E+00  0.0000000000000E+00  0.0000000000000E+00  0.0000000000000E+00  0.0000000000000E+00  0.0000000000000E+00  0.0000000000000E+00 
ZONE T = "CATH, 3.0000E-08", I = 10, SOLUTIONTIME = 3.000000E-08
ZONETYPE = ORDERED
DATAPACKING = BLOCK
STRANDID = 3
 1.2700000000000E-03  1.3377333333333E-03  1.4054666666667E-03  1.4732000000000E-03  1.5409333333333E-03  1.6086666666667E-03  1.6764000000000E-03  1.7441333333333E-03  1.8118666666667E-03  1.8796000000000E-03 
 9.8019566669682E-09  8.6499843377935E-09  7.4979416649604E-09  6.3457801044710E-09  5.1938143001224E-09  4.0412692444480E-09  2.8884595169268E-09  1.7353364449015E-09  5.8221451084778E-10  5.2665120529515E-12 
 9.2000000000047E-01  9.2000000000134E-01  9.2000000000134E-01  9.2000000000134E-01  9.2000000000134E-01  9.2000000000134E-01  9.2000000000134E-01  9.2000000000134E-01  9.2000000000134E-01  9.2000000000134E-01 
 3.9999999999763E-02  3.9999999999329E-02  3.9999999999329E-02  3.9999999999329E-02  3.9999999999329E-02  3.9999999999329E-02  3.9999999999329E-02  3.9999999999329E-02  3.9999999999328E-02  3.9999999999328E-02 
 3.9999999999763E-02  3.9999999999329E-02  3.9999999999329E-02  3.9999999999329E-02  3.9999999999329E-02  3.9999999999329E-02  3.9999999999329E-02  3.9999999999329E-02  3.9999999999328E-02  3.9999999999328E-02 
 3.5028649912620E-02  3.5028546953113E-02  3.5028456099504E-02  3.5028377352531E-02  3.5028310713445E-02  3.5028256184004E-02  3.5028213766477E-02  3.5028183463646E-02  3.5028165278801E-02  3.5028159215748E-02 
 3.8418327708470E+00  3.8418316984400E+00  3.8418284811782E+00  3.8418231189307E+00  3.8418156114763E+00  3.8418059585033E+00  3.8417941596096E+00  3.8417802143024E+00  3.8417641219987E+00  3.8417458820243E+00 
 3.8068041209344E+00  3.8068031514869E+00  3.8068000250787E+00  3.8067947415782E+00  3.8067873007629E+00  3.8067777023193E+00  3.8067659458431E+00  3.8067520308388E+00  3.8067359567199E+00  3.8067177228086E+00 
 3.9714142713286E+00  3.9714142713283E+00  3.9714142713283E+00  3.9714142713283E+00  3.9714142713283E+00  3.9714142713283E+00  3.9714142713283E+00  3.9714142713283E+00  3.9714142713283E+00  3.9714142713283E+00 
-1.6461015039420E-01 -1.6461111984147E-01 -1.6461424624966E-01 -1.6461952975013E-01 -1.6462697056544E-01 -1.6463656900901E-01 -1.6464832548525E-01 -1.6466224048957E-01 -1.6467831460849E-01 -1.6469654851974E-01 
-8.2970500818549E-01 -1.6594414270670E+00 -1.6595427286741E+00 -1.6597139381626E+00 -1.6599550842380E+00 -1.6602662073389E+00 -1.6606473596517E+00 -1.6610986051292E+00 -1.6616200195136E+00 -8.3110584518173E-01 
 7.3138286240317E-08  6.4538569418415E-08  5.5938525539642E-08  4.7337594458499E-08  3.8735413715398E-08  3.0131620720570E-08  2.1525852564496E-08  1.2917746007223E-08  4.3069374361631E-09  4.3069374361631E-09 
 1.4943211128926E+01  1.3283778643358E+01  1.1624273037812E+01  9.9646311784515E+00  8.3047831436894E+00  6.6446589763081E+00  4.9841886753358E+00  3.3233021794018E+00  1.6619293581752E+00  0.0000000000000E+00 
 0.0000000000000E+00  1.6594392499835E+00  3.3189448553719E+00  4.9785867148200E+00  6.6384347498312E+00  8.2985589167829E+00  9.9590292179216E+00  1.1619915713732E+01  1.3281288534962E+01  1.4943211143096E+01 
 2.4891936959679E-08  4.9784816211634E-08  4.9787855167056E-08  4.9792991294912E-08  4.9800225456359E-08  4.9809558864544E-08  4.9820993085043E-08  4.9834530036422E-08  4.9850171990920E-08  2.4933960787633E-08 
 7.2440786946474E+03  1.4488157389295E+04  1.4488157389295E+04  1.4488157389295E+04  1.4488157389295E+04  1.4488157389295E+04  1.4488157389295E+04  1.4488157389295E+04  1.4488157389295E+04  7.2440786946474E+03 
 4.9259735123408E+04  9.8519470246815E+04  9.8519470246816E+04  9.8519470246815E+04  9.8519470246816E+04  9.8519470246816E+04  9.8519470246815E+04  9.8519470246816E+04  9.8519470246815E+04  4.9259735123408E+04 
 5.6503813818055E+04  1.1300762763611E+05  1.1300762763611E+05  1.1300762763611E+05  1.1300762763611E+05  1.1300762763611E+05  1.1300762763611E+05  1.1300762763611E+05  1.1300762763611E+05  5.6503813818055E+04 
 3.5000000000000E-01  3.5000000000000E-01  3.5000000000000E-01  3.5000000000000E-01  3.5000000000000E-01  3.5000000000000E-01  3.5000000000000E-01  3.5000000000000E-01  3.5000000000000E-01  3.5000000000000E-01 
 6.6040000000000E+00  1.3208000000000E+01  1.3208000000000E+01  1.3208000000000E+01  1.3208000000000E+01  1.3208000000000E+01  1.3208000000000E+01  1.3208000000000E+01  1.3208000000000E+01  6.6040000000000E+00 
-1.2563673655141E-01 -1.2563911470828E-01 -1.2564678442414E-01 -1.2565974698384E-01 -1.2567800456072E-01 -1.2570156021645E-01 -1.2573041790216E-01 -1.2576458245981E-01 -1.2580405962399E-01 -1.2584885602388E-01 
 3.3866666666667E-05  6.7733333333333E-05  6.7733333333334E-05  6.7733333333333E-05  6.7733333333334E-05  6.7733333333334E-05  6.7733333333333E-05  6.7733333333334E-05  6.7733333333333E-05  3.3866666666667E-05 
 2.6603001364264E+01  2.6603001364264E+01  2.6603001364264E+01  2.6603001364264E+01  2.6603001364264E+01  2.6603001364264E+01  2.6603001364264E+01  2.6603001364264E+01  2.6603001364264E+01  2.6603001364264E+01 
 1.7735334242830E+01  1.7735334242830E+01  1.7735334242830E+01  1.7735334242830E+01  1.7735334242830E+01  1.7735334242830E+01  1.7735334242830E+01  1.7735334242830E+01  1.7735334242830E+01  1.7735334242830E+01 
 1.0375771947403E-09  2.5426071614216E-09  7.1380627565029E-09  1.4904830490132E-08  2.5844219371604E-08  3.9958073459790E-08  5.7248772516532E-08  7.7719232862030E-08  1.0137290841377E-07  1.1399601536481E-07 
 3.4590183044202E-02  8.4764061740528E-02  2.3796488325210E-01  4.9688919089318E-01  8.6158061199311E-01  1.3321006065651E+00  1.9085284889864E+00  2.5909614565615E+00  3.3795146242936E+00  3.8003367685739E+00 
 2.1453537879619E-02  1.9079343963434E-02  1.4627430762151E-02  1.0768452367495E-02  7.5024298322280E-03  4.8294841811155E-03  2.7498365032375E-03  1.2638080658204E-03  3.7182047468043E-04  7.4395868482662E-05 
 1.3136645164583E-02  6.5684717777094E-02  2.2333745248995E-01  4.8612073852568E-01  8.5407818216089E-01  1.3272711223840E+00  1.9057786524832E+00  2.5896976484957E+00  3.3791428038189E+00  3.8002623727054E+00 
 0.0000000000000E+00  0.0000000000000E+00  0.0000000000000E+00  0.0000000000000E+00  0.0000000000000E+00  0.0000000000000E+00  0.0000000000000E+00  0.0000000000000E+00  0.0000000000000E+00  0.0000000000000E+00 
 0.0000000000000E+00  0.0000000000000E+00  0.0000000000000E+00  0.0000000000000E+00  0.0000000000000E+00  0.0000000000000E+00  0.0000000000000E+00  0.0000000000000E+00  0.0000000000000E+00  0.0000000000000E+00 
 0.0000000000000E+00  0.0000000000000E+00  0.0000000000000E+00  0.0000000000000E+00  0.0000000000000E+00  0.0000000000000E+00  0.0000000000000E+00  0.0000000000000E+00  0.0000000000000E+00  0.0000000000000E+00 
ZONE T = "CATH, 4.0000E-08", I = 10, SOLUTIONTIME = 4.000000E-08
ZONETYPE = ORDERED
DATAPACKING = BLOCK
STRANDID = 3
 1.2700000000000E-03  1.3377333333333E-03  1.4054666666667E-03  1.4732000000000E-03  1.5409333333333E-03  1.6086666666667E-03  1.6764000000000E-03  1.7441333333333E-03  1.8118666666667E-03  1.8796000000000E-03 
 9.8031852095545E-09  8.6508546998874E-09  7.4984538459054E-09  6.3452076877840E-09  5.1917940766763E-09  4.0388908356547E-09  2.8857229206423E-09  1.7322416586081E-09  5.7839832392603E-10  1.2712270472434E-12 
 9.2000000000063E-01  9.2000000000179E-01  9.2000000000179E-01  9.2000000000179E-01  9.2000000000179E-01  9.2000000000179E-01  9.2000000000179E-01  9.2000000000179E-01  9.2000000000179E-01  9.2000000000179E-01 
 3.9999999999684E-02  3.9999999999106E-02  3.9999999999106E-02  3.9999999999106E-02  3.9999999999105E-02  3.9999999999105E-02  3.9999999999105E-02  3.9999999999105E-02  3.9999999999104E-02  3.9999999999104E-02 
 3.9999999999684E-02  3.9999999999106E-02  3.9999999999106E-02  3.9999999999106E-02  3.9999999999105E-02  3.9999999999105E-02  3.9999999999105E-02  3.9999999999105E-02  3.9999999999104E-02  3.9999999999104E-02 
 3.5028627056511E-02  3.5028524097453E-02  3.5028433244239E-02  3.5028354497610E-02  3.5028287858813E-02  3.5028233329609E-02  3.5028190912267E-02  3.5028160609567E-02  3.5028142424802E-02  3.5028136361775E-02 
 3.8418325886333E+00  3.8418315162309E+00  3.8418282989832E+00  3.8418229367591E+00  3.8418154293375E+00  3.8418057764066E+00  3.8417939775642E+00  3.8417800323179E+00  3.8417639400842E+00  3.8417457001894E+00 
 3.8068039615768E+00  3.8068029921335E+00  3.8067998657389E+00  3.8067945822615E+00  3.8067871414787E+00  3.8067775430769E+00  3.8067657866520E+00  3.8067518717083E+00  3.8067357976594E+00  3.8067175638276E+00 
 3.9714142713285E+00  3.9714142713282E+00  3.9714142713282E+00  3.9714142713282E+00  3.9714142713282E+00  3.9714142713282E+00  3.9714142713282E+00  3.9714142713282E+00  3.9714142713282E+00  3.9714142713282E+00 
-1.6461030975172E-01 -1.6461127919468E-01 -1.6461440558922E-01 -1.6461968906665E-01 -1.6462712984950E-01 -1.6463672825121E-01 -1.6464848467619E-01 -1.6466239961984E-01 -1.6467847366871E-01 -1.6469670750053E-01 
-8.2970758980612E-01 -1.6594465902622E+00 -1.6595478917405E+00 -1.6597191010112E+00 -1.6599602467798E+00 -1.6602713694850E+00 -1.6606525213129E+00 -1.6611037662165E+00 -1.6616251799376E+00 -8.3110842501740E-01 