TITLE = "Solution on Domain BulkDomain1D_2"
VARIABLES = "x [m]"  
"Vel_axial" 	"MF_sp(ECDMC)" 	"MF_sp(Li+)" 	"MF_sp(PF6-)" 	"Volt(Electroly)" 	"Volt(CathodeVo)" 	
"Potential Drop Electrode-Electrolyte [V]" 	"Surf_0 Equilibrium Potential Drop Electrode-Electrolyte [V]" 	"Overpotential_0 [V]" 	"Current Source [A/m^2]" 	"Li+ flux [kmol/m^2/s]" 	"Electrolyte Current [A/m^2]" 	"Electrode Current [A/m^2]" 	
"CV Capacity discharged [A-s/m^2]" 	"Depth of discharge in CV [A-s/m^2]" 	"CV Capacity remaining [A-s/m^2]" 	"Initial CV capacity [A-s/m^2]" 	"Porosity []" 	"Surface Area [m2/m2] (area per area)" 	"Specific current (per particle area) [A/m^2]" 	"Control volume thickness [m]" 	
"MoleDens LiCoO2 [kmol/m^3]" 	"MoleDens CoO2 [kmol/m^3]" 	"qHeat_accum [J/m3]" 	"qHeat_step [W/m3]" 	"Joule_Lyte [W/m3]" 	"Joule_Solid [W/m3]" 	"electrodHeat [W/m3]" 	"OverpotHeat [W/m3]" 	"deltaSHeat [W/m3]" 	

ZONE T = "CATH, 0.0000E+00", I = 10, SOLUTIONTIME = 0.000000E+00
ZONETYPE = ORDERED
DATAPACKING = BLOCK
STRANDID = 3
 1.2700000000000E-03  1.3377333333333E-03  1.4054666666667E-03  1.4732000000000E-03  1.5409333333333E-03  1.6086666666667E-03  1.6764000000000E-03  1.7441333333333E-03  1.8118666666667E-03  1.8796000000000E-03 
 0.0000000000000E+00  0.0000000000000E+00  0.0000000000000E+00  0.0000000000000E+00  0.0000000000000E+00  0.0000000000000E+00  0.0000000000000E+00  0.0000000000000E+00  0.0000000000000E+00  0.0000000000000E+00 
 9.2000000000000E-01  9.2000000000000E-01  9.2000000000000E-01  9.2000000000000E-01  9.2000000000000E-01  9.2000000000000E-01  9.2000000000000E-01  9.2000000000000E-01  9.2000000000000E-01  9.2000000000000E-01 
 4.0000000000000E-02  4.0000000000000E-02  4.0000000000000E-02  4.0000000000000E-02  4.0000000000000E-02  4.0000000000000E-02  4.0000000000000E-02  4.0000000000000E-02  4.0000000000000E-02  4.0000000000000E-02 
 4.0000000000000E-02  4.0000000000000E-02  4.0000000000000E-02  4.0000000000000E-02  4.0000000000000E-02  4.0000000000000E-02  4.0000000000000E-02  4.0000000000000E-02  4.0000000000000E-02  4.0000000000000E-02 
-7.0000000000000E-02 -7.0000000000000E-02 -7.0000000000000E-02 -7.0000000000000E-02 -7.0000000000000E-02 -7.0000000000000E-02 -7.0000000000000E-02 -7.0000000000000E-02 -7.0000000000000E-02 -7.0000000000000E-02 
 3.8000000000000E+00  3.8000000000000E+00  3.8000000000000E+00  3.8000000000000E+00  3.8000000000000E+00  3.8000000000000E+00  3.8000000000000E+00  3.8000000000000E+00  3.8000000000000E+00  3.8000000000000E+00 
 3.8700000000000E+00  3.8700000000000E+00  3.8700000000000E+00  3.8700000000000E+00  3.8700000000000E+00  3.8700000000000E+00  3.8700000000000E+00  3.8700000000000E+00  3.8700000000000E+00  3.8700000000000E+00 
 3.9714142713289E+00  3.9714142713289E+00  3.9714142713289E+00  3.9714142713289E+00  3.9714142713289E+00  3.9714142713289E+00  3.9714142713289E+00  3.9714142713289E+00  3.9714142713289E+00  3.9714142713289E+00 
-1.0141427132889E-01 -1.0141427132889E-01 -1.0141427132889E-01 -1.0141427132889E-01 -1.0141427132889E-01 -1.0141427132889E-01 -1.0141427132889E-01 -1.0141427132889E-01 -1.0141427132889E-01 -1.0141427132889E-01 
-2.3826357195711E-01 -4.7652714391422E-01 -4.7652714391423E-01 -4.7652714391422E-01 -4.7652714391423E-01 -4.7652714391423E-01 -4.7652714391422E-01 -4.7652714391423E-01 -4.7652714391422E-01 -2.3826357195711E-01 
-0.0000000000000E+00 -0.0000000000000E+00 -0.0000000000000E+00 -0.0000000000000E+00 -0.0000000000000E+00 -0.0000000000000E+00 -0.0000000000000E+00 -0.0000000000000E+00 -0.0000000000000E+00 -0.0000000000000E+00 
 2.3826357195711E-01  0.0000000000000E+00  0.0000000000000E+00  0.0000000000000E+00  0.0000000000000E+00  0.0000000000000E+00  0.0000000000000E+00  0.0000000000000E+00  0.0000000000000E+00  0.0000000000000E+00 
 0.0000000000000E+00 -0.0000000000000E+00 -0.0000000000000E+00 -0.0000000000000E+00 -0.0000000000000E+00 -0.0000000000000E+00 -0.0000000000000E+00 -0.0000000000000E+00 -0.0000000000000E+00  2.3826357195711E-01 
-0.0000000000000E+00 -0.0000000000000E+00 -0.0000000000000E+00 -0.0000000000000E+00 -0.0000000000000E+00 -0.0000000000000E+00 -0.0000000000000E+00 -0.0000000000000E+00 -0.0000000000000E+00 -0.0000000000000E+00 
 7.2440786946225E+03  1.4488157389245E+04  1.4488157389245E+04  1.4488157389245E+04  1.4488157389245E+04  1.4488157389245E+04  1.4488157389245E+04  1.4488157389245E+04  1.4488157389245E+04  7.2440786946225E+03 
 4.9259735123433E+04  9.8519470246865E+04  9.8519470246866E+04  9.8519470246865E+04  9.8519470246866E+04  9.8519470246866E+04  9.8519470246865E+04  9.8519470246866E+04  9.8519470246865E+04  4.9259735123433E+04 
 5.6503813818055E+04  1.1300762763611E+05  1.1300762763611E+05  1.1300762763611E+05  1.1300762763611E+05  1.1300762763611E+05  1.1300762763611E+05  1.1300762763611E+05  1.1300762763611E+05  5.6503813818055E+04 
 3.5000000000000E-01  3.5000000000000E-01  3.5000000000000E-01  3.5000000000000E-01  3.5000000000000E-01  3.5000000000000E-01  3.5000000000000E-01  3.5000000000000E-01  3.5000000000000E-01  3.5000000000000E-01 
 6.6040000000000E+00  1.3208000000000E+01  1.3208000000000E+01  1.3208000000000E+01  1.3208000000000E+01  1.3208000000000E+01  1.3208000000000E+01  1.3208000000000E+01  1.3208000000000E+01  6.6040000000000E+00 
-3.6078675341780E-02 -3.6078675341780E-02 -3.6078675341780E-02 -3.6078675341780E-02 -3.6078675341780E-02 -3.6078675341780E-02 -3.6078675341780E-02 -3.6078675341780E-02 -3.6078675341780E-02 -3.6078675341780E-02 
 3.3866666666667E-05  6.7733333333333E-05  6.7733333333334E-05  6.7733333333333E-05  6.7733333333334E-05  6.7733333333334E-05  6.7733333333333E-05  6.7733333333334E-05  6.7733333333333E-05  3.3866666666667E-05 
 2.6603001364256E+01  2.6603001364256E+01  2.6603001364256E+01  2.6603001364256E+01  2.6603001364256E+01  2.6603001364256E+01  2.6603001364256E+01  2.6603001364256E+01  2.6603001364256E+01  2.6603001364256E+01 
 1.7735334242838E+01  1.7735334242838E+01  1.7735334242838E+01  1.7735334242838E+01  1.7735334242838E+01  1.7735334242838E+01  1.7735334242838E+01  1.7735334242838E+01  1.7735334242838E+01  1.7735334242838E+01 
 0.0000000000000E+00  0.0000000000000E+00  0.0000000000000E+00  0.0000000000000E+00  0.0000000000000E+00  0.0000000000000E+00  0.0000000000000E+00  0.0000000000000E+00  0.0000000000000E+00  0.0000000000000E+00 
 0.0000000000000E+00  0.0000000000000E+00  0.0000000000000E+00  0.0000000000000E+00  0.0000000000000E+00  0.0000000000000E+00  0.0000000000000E+00  0.0000000000000E+00  0.0000000000000E+00  0.0000000000000E+00 
 0.0000000000000E+00  0.0000000000000E+00  0.0000000000000E+00  0.0000000000000E+00  0.0000000000000E+00  0.0000000000000E+00  0.0000000000000E+00  0.0000000000000E+00  0.0000000000000E+00  0.0000000000000E+00 
 0.0000000000000E+00  0.0000000000000E+00  0.0000000000000E+00  0.0000000000000E+00  0.0000000000000E+00  0.0000000000000E+00  0.0000000000000E+00  0.0000000000000E+00  0.0000000000000E+00  0.0000000000000E+00 
 0.0000000000000E+00  0.0000000000000E+00  0.0000000000000E+00  0.0000000000000E+00  0.0000000000000E+00  0.0000000000000E+00  0.0000000000000E+00  0.0000000000000E+00  0.0000000000000E+00  0.0000000000000E+00 
 0.0000000000000E+00  0.0000000000000E+00  0.0000000000000E+00  0.0000000000000E+00  0.0000000000000E+00  0.0000000000000E+00  0.0000000000000E+00  0.0000000000000E+00  0.0000000000000E+00  0.0000000000000E+00 
 0.0000000000000E+00  0.0000000000000E+00  0.0000000000000E+00  0.0000000000000E+00  0.0000000000000E+00  0.0000000000000E+00  0.0000000000000E+00  0.0000000000000E+00  0.0000000000000E+00  0.0000000000000E+00 
ZONE T = "CATH, 1.0000E-08", I = 10, SOLUTIONTIME = 1.000000E-08
ZONETYPE = ORDERED
DATAPACKING = BLOCK
STRANDID = 3
 1.2700000000000E-03  1.3377333333333E-03  1.4054666666667E-03  1.4732000000000E-03  1.5409333333333E-03  1.6086666666667E-03  1.6764000000000E-03  1.7441333333333E-03  1.8118666666667E-03  1.8796000000000E-03 
 9.8024551268518E-09  8.6504882566642E-09  7.4984510421234E-09  6.3459317311128E-09  5.1932449670373E-09  4.0403421574933E-09  2.8871746738391E-09  1.7340570507511E-09  5.8021414712712E-10  3.0872656867779E-12 
 9.2000000000016E-01  9.2000000000045E-01  9.2000000000045E-01  9.2000000000045E-01  9.2000000000045E-01  9.2000000000045E-01  9.2000000000045E-01  9.2000000000045E-01  9.2000000000045E-01  9.2000000000045E-01 
 3.9999999999921E-02  3.9999999999776E-02  3.9999999999776E-02  3.9999999999776E-02  3.9999999999776E-02  3.9999999999776E-02  3.9999999999776E-02  3.9999999999776E-02  3.9999999999776E-02  3.9999999999776E-02 
 3.9999999999921E-02  3.9999999999776E-02  3.9999999999776E-02  3.9999999999776E-02  3.9999999999776E-02  3.9999999999776E-02  3.9999999999776E-02  3.9999999999776E-02  3.9999999999776E-02  3.9999999999776E-02 
 3.5028626928688E-02  3.5028523969668E-02  3.5028433116488E-02  3.5028354369888E-02  3.5028287731117E-02  3.5028233201933E-02  3.5028190784607E-02  3.5028160481919E-02  3.5028142297160E-02  3.5028136234135E-02 
 3.8418325729787E+00  3.8418315005767E+00  3.8418282833302E+00  3.8418229211081E+00  3.8418154136893E+00  3.8418057607620E+00  3.8417939619241E+00  3.8417800166829E+00  3.8417639244553E+00  3.8417456845673E+00 
 3.8068039460500E+00  3.8068029766070E+00  3.8067998502137E+00  3.8067945667382E+00  3.8067871259582E+00  3.8067775275601E+00  3.8067657711395E+00  3.8067518562010E+00  3.8067357821582E+00  3.8067175483332E+00 
 3.9714142713288E+00  3.9714142713287E+00  3.9714142713287E+00  3.9714142713287E+00  3.9714142713287E+00  3.9714142713287E+00  3.9714142713287E+00  3.9714142713287E+00  3.9714142713287E+00  3.9714142713287E+00 
-1.6461032527879E-01 -1.6461129472166E-01 -1.6461442111503E-01 -1.6461970459047E-01 -1.6462714537054E-01 -1.6463674376866E-01 -1.6464850018923E-01 -1.6466241512768E-01 -1.6467848917053E-01 -1.6469672299552E-01 
-8.2970784135072E-01 -1.6594470933671E+00 -1.6595483948379E+00 -1.6597196040961E+00 -1.6599607498470E+00 -1.6602718725292E+00 -1.6606530243292E+00 -1.6611042691995E+00 -1.6616256828823E+00 -8.3110867646797E-01 
 7.3137808396790E-08  6.4538264234297E-08  5.5938261082523E-08  4.7337370712949E-08  3.8735230681183E-08  3.0131478379980E-08  2.1525750889983E-08  1.2917684996761E-08  4.3069170610837E-09  4.3069170610837E-09 
 1.4943147211854E+01  1.3283715823852E+01  1.1624218079268E+01  9.9645840794168E+00  8.3047439022618E+00  6.6446275905851E+00  4.9841651415129E+00  3.3232864946253E+00  1.6619215186405E+00  0.0000000000000E+00 
 0.0000000000000E+00  1.6594313883497E+00  3.3189291327916E+00  4.9785631328392E+00  6.6384033099961E+00  8.2985196214986E+00  9.9589820704523E+00  1.1619860717513E+01  1.3281225693946E+01  1.4943147212169E+01 
 8.2970784135072E-09  1.6594470933671E-08  1.6595483948379E-08  1.6597196040961E-08  1.6599607498470E-08  1.6602718725292E-08  1.6606530243292E-08  1.6611042691995E-08  1.6616256828823E-08  8.3110867646797E-09 
 7.2440786946308E+03  1.4488157389261E+04  1.4488157389262E+04  1.4488157389261E+04  1.4488157389262E+04  1.4488157389262E+04  1.4488157389261E+04  1.4488157389262E+04  1.4488157389262E+04  7.2440786946308E+03 
 4.9259735123425E+04  9.8519470246849E+04  9.8519470246849E+04  9.8519470246849E+04  9.8519470246849E+04  9.8519470246849E+04  9.8519470246849E+04  9.8519470246849E+04  9.8519470246848E+04  4.9259735123425E+04 
 5.6503813818055E+04  1.1300762763611E+05  1.1300762763611E+05  1.1300762763611E+05  1.1300762763611E+05  1.1300762763611E+05  1.1300762763611E+05  1.1300762763611E+05  1.1300762763611E+05  5.6503813818055E+04 
 3.5000000000000E-01  3.5000000000000E-01  3.5000000000000E-01  3.5000000000000E-01  3.5000000000000E-01  3.5000000000000E-01  3.5000000000000E-01  3.5000000000000E-01  3.5000000000000E-01  3.5000000000000E-01 
 6.6040000000000E+00  1.3208000000000E+01  1.3208000000000E+01  1.3208000000000E+01  1.3208000000000E+01  1.3208000000000E+01  1.3208000000000E+01  1.3208000000000E+01  1.3208000000000E+01  6.6040000000000E+00 
-1.2563716555886E-01 -1.2563954371344E-01 -1.2564721341898E-01 -1.2566017596124E-01 -1.2567843351355E-01 -1.2570198913758E-01 -1.2573084678446E-01 -1.2576501129615E-01 -1.2580448840720E-01 -1.2584928474681E-01 
 3.3866666666667E-05  6.7733333333333E-05  6.7733333333334E-05  6.7733333333333E-05  6.7733333333334E-05  6.7733333333334E-05  6.7733333333333E-05  6.7733333333334E-05  6.7733333333333E-05  3.3866666666667E-05 
 2.6603001364259E+01  2.6603001364259E+01  2.6603001364259E+01  2.6603001364259E+01  2.6603001364259E+01  2.6603001364259E+01  2.6603001364259E+01  2.6603001364259E+01  2.6603001364259E+01  2.6603001364259E+01 
 1.7735334242835E+01  1.7735334242835E+01  1.7735334242835E+01  1.7735334242835E+01  1.7735334242835E+01  1.7735334242835E+01  1.7735334242835E+01  1.7735334242835E+01  1.7735334242835E+01  1.7735334242835E+01 
 3.4589855648464E-10  8.4763258916944E-10  2.3796262897121E-09  4.9688448395075E-09  8.6157245130539E-09  1.3320879913198E-08  1.9085104187854E-08  2.5909369312202E-08  3.3794826440398E-08  3.8003008110366E-08 
 3.4589855648464E-02  8.4763258916944E-02  2.3796262897121E-01  4.9688448395075E-01  8.6157245130539E-01  1.3320879913198E+00  1.9085104187854E+00  2.5909369312202E+00  3.3794826440398E+00  3.8003008110366E+00 
 2.1453334949676E-02  1.9079163508531E-02  1.4627292446622E-02  1.0768350569609E-02  7.5023589307859E-03  4.8294385563848E-03  2.7498105347774E-03  1.2637961355833E-03  3.7181696653936E-04  7.4395166908907E-05 
 1.3136520698788E-02  6.5684095408414E-02  2.2333533652458E-01  4.8611613338114E-01  8.5407009237460E-01  1.3272585527634E+00  1.9057606082506E+00  2.5896731350846E+00  3.3791108270733E+00  3.8002264158697E+00 
 0.0000000000000E+00  0.0000000000000E+00  0.0000000000000E+00  0.0000000000000E+00  0.0000000000000E+00  0.0000000000000E+00  0.0000000000000E+00  0.0000000000000E+00  0.0000000000000E+00  0.0000000000000E+00 
 0.0000000000000E+00  0.0000000000000E+00  0.0000000000000E+00  0.0000000000000E+00  0.0000000000000E+00  0.0000000000000E+00  0.0000000000000E+00  0.0000000000000E+00  0.0000000000000E+00  0.0000000000000E+00 
 0.0000000000000E+00  0.0000000000000E+00  0.0000000000000E+00  0.0000000000000E+00  0.0000000000000E+00  0.0000000000000E+00  0.0000000000000E+00  0.0000000000000E+00  0.0000000000000E+00  0.0000000000000E+00 
ZONE T = "CATH, 2.0000E-08", I = 10, SOLUTIONTIME = 2.000000E-08
ZONETYPE = ORDERED
DATAPACKING = BLOCK
STRANDID = 3
 1.2700000000000E-03  1.3377333333333E-03  1.4054666666667E-03  1.4732000000000E-03  1.5409333333333E-03  1.6086666666667E-03  1.6764000000000E-03  1.7441333333333E-03  1.8118666666667E-03  1.8796000000000E-03 
 9.7993678600060E-09  8.6463113667713E-09  7.4931845291838E-09  6.3403020105819E-09  5.1872520389153E-09  4.0339860217801E-09  2.8800921228067E-09  1.7258848766717E-09  5.7240518091166E-10 -4.9033043243788E-12 
 9.2000000000032E-01  9.2000000000089E-01  9.2000000000089E-01  9.2000000000089E-01  9.2000000000089E-01  9.2000000000089E-01  9.2000000000089E-01  9.2000000000090E-01  9.2000000000090E-01  9.2000000000090E-01 
 3.9999999999842E-02  3.9999999999553E-02  3.9999999999553E-02  3.9999999999553E-02  3.9999999999553E-02  3.9999999999553E-02  3.9999999999552E-02  3.9999999999552E-02  3.9999999999552E-02  3.9999999999552E-02 
 3.9999999999842E-02  3.9999999999553E-02  3.9999999999553E-02  3.9999999999553E-02  3.9999999999553E-02  3.9999999999553E-02  3.9999999999552E-02  3.9999999999552E-02  3.9999999999552E-02  3.9999999999552E-02 
 3.5028626929334E-02  3.5028523970314E-02  3.5028433117135E-02  3.5028354370535E-02  3.5028287731764E-02  3.5028233202580E-02  3.5028190785254E-02  3.5028160482565E-02  3.5028142297807E-02  3.5028136234782E-02 
 3.8418325729738E+00  3.8418315005718E+00  3.8418282833252E+00  3.8418229211032E+00  3.8418154136843E+00  3.8418057607570E+00  3.8417939619191E+00  3.8417800166780E+00  3.8417639244504E+00  3.8417456845624E+00 
 3.8068039460444E+00  3.8068029766015E+00  3.8067998502081E+00  3.8067945667326E+00  3.8067871259526E+00  3.8067775275545E+00  3.8067657711339E+00  3.8067518561954E+00  3.8067357821526E+00  3.8067175483276E+00 
 3.9714142713287E+00  3.9714142713285E+00  3.9714142713285E+00  3.9714142713285E+00  3.9714142713285E+00  3.9714142713285E+00  3.9714142713285E+00  3.9714142713285E+00  3.9714142713285E+00  3.9714142713285E+00 
-1.6461032528428E-01 -1.6461129472706E-01 -1.6461442112043E-01 -1.6461970459588E-01 -1.6462714537594E-01 -1.6463674377406E-01 -1.6464850019463E-01 -1.6466241513308E-01 -1.6467848917593E-01 -1.6469672300091E-01 
-8.2970784143882E-01 -1.6594470935374E+00 -1.6595483950081E+00 -1.6597196042663E+00 -1.6599607500172E+00 -1.6602718726994E+00 -1.6606530244993E+00 -1.6611042693697E+00 -1.6616256830524E+00 -8.3110867655303E-01 
 7.3137874360901E-08  6.4538264232816E-08  5.5938261092975E-08  4.7337370714477E-08  3.8735230698453E-08  3.0131478400201E-08  2.1525750920130E-08  1.2917685020000E-08  4.3069171029778E-09  4.3069171029778E-09 
 1.4943147209986E+01  1.3283715821888E+01  1.1624218078252E+01  9.9645840784099E+00  8.3047439007886E+00  6.6446275900723E+00  4.9841651414850E+00  3.3232864941312E+00  1.6619215181556E+00  0.0000000000000E+00 
 0.0000000000000E+00  1.6594313881779E+00  3.3189291324480E+00  4.9785631321521E+00  6.6384033093089E+00  8.2985196206397E+00  9.9589820692497E+00  1.1619860716139E+01  1.3281225692228E+01  1.4943147210193E+01 
 1.6594156827895E-08  3.3188941869045E-08  3.3190967898461E-08  3.3194392083623E-08  3.3199214998642E-08  3.3205437452286E-08  3.3213060488285E-08  3.3222085385692E-08  3.3232513659347E-08  1.6622173530210E-08 
 7.2440786946391E+03  1.4488157389278E+04  1.4488157389278E+04  1.4488157389278E+04  1.4488157389278E+04  1.4488157389278E+04  1.4488157389278E+04  1.4488157389278E+04  1.4488157389278E+04  7.2440786946391E+03 
 4.9259735123416E+04  9.8519470246832E+04  9.8519470246833E+04  9.8519470246832E+04  9.8519470246833E+04  9.8519470246833E+04  9.8519470246832E+04  9.8519470246833E+04  9.8519470246832E+04  4.9259735123416E+04 
 5.6503813818055E+04  1.1300762763611E+05  1.1300762763611E+05  1.1300762763611E+05  1.1300762763611E+05  1.1300762763611E+05  1.1300762763611E+05  1.1300762763611E+05  1.1300762763611E+05  5.6503813818055E+04 
 3.5000000000000E-01  3.5000000000000E-01  3.5000000000000E-01  3.5000000000000E-01  3.5000000000000E-01  3.5000000000000E-01  3.5000000000000E-01  3.5000000000000E-01  3.5000000000000E-01  3.5000000000000E-01 
 6.6040000000000E+00  1.3208000000000E+01  1.3208000000000E+01  1.3208000000000E+01  1.3208000000000E+01  1.3208000000000E+01  1.3208000000000E+01  1.3208000000000E+01  1.3208000000000E+01  6.6040000000000E+00 
-1.2563716557220E-01 -1.2563954372633E-01 -1.2564721343187E-01 -1.2566017597413E-01 -1.2567843352644E-01 -1.2570198915047E-01 -1.2573084679734E-01 -1.2576501130903E-01 -1.2580448842008E-01 -1.2584928475970E-01 
 3.3866666666667E-05  6.7733333333333E-05  6.7733333333334E-05  6.7733333333333E-05  6.7733333333334E-05  6.7733333333334E-05  6.7733333333333E-05  6.7733333333334E-05  6.7733333333333E-05  3.3866666666667E-05 
 2.6603001364262E+01  2.6603001364262E+01  2.6603001364262E+01  2.6603001364262E+01  2.6603001364262E+01  2.6603001364262E+01  2.6603001364262E+01  2.6603001364262E+01  2.6603001364262E+01  2.6603001364262E+01 
 1.7735334242833E+01  1.7735334242833E+01  1.7735334242833E+01  1.7735334242833E+01  1.7735334242833E+01  1.7735334242833E+01  1.7735334242833E+01  1.7735334242833E+01  1.7735334242833E+01  1.7735334242833E+01 
 6.9179711280184E-10  1.6952651782292E-09  4.7592525788538E-09  9.9376896776900E-09  1.7231449024340E-08  2.6641759823614E-08  3.8170208371082E-08  5.1818738618306E-08  6.7589652871977E-08  7.6006016209629E-08 
 3.4589855631720E-02  8.4763258905974E-02  2.3796262891417E-01  4.9688448381825E-01  8.6157245112861E-01  1.3320879910415E+00  1.9085104183228E+00  2.5909369306104E+00  3.3794826431579E+00  3.8003008099263E+00 
 2.1453334943811E-02  1.9079163503000E-02  1.4627292443988E-02  1.0768350567677E-02  7.5023589281067E-03  4.8294385555921E-03  2.7498105347620E-03  1.2637961353209E-03  3.7181696628191E-04  7.4395166908490E-05 
 1.3136520687908E-02  6.5684095402974E-02  2.2333533647018E-01  4.8611613325057E-01  8.5407009220050E-01  1.3272585524859E+00  1.9057606077881E+00  2.5896731344751E+00  3.3791108261916E+00  3.8002264147594E+00 
 0.0000000000000E+00  0.0000000000000E+00  0.0000000000000E+00  0.0000000000000E+00  0.0000000000000E+00  0.0000000000000E+00  0.0000000000000E+00  0.0000000000000E+00  0.0000000000000E+00  0.0000000000000E+00 
 0.0000000000000E+00  0.0000000000000E+00  0.0000000000000E+00  0.0000000000000E+00  0.0000000000000E+00  0.0000000000000E+00  0.0000000000000E+00  0.0000000000000E+00  0.0000000000000E+00  0.0000000000000E+00 
 0.0000000000000E+00  0.0000000000000E+00  0.0000000000000E+00  0.0000000000000E+00  0.0000000000000E+00  0.0000000000000E+00  0.0000000000000E+00  0.0000000000000E+00  0.0000000000000E+00  0.0000000000000E+00 
ZONE T = "CATH, 3.0000E-08", I = 10, SOLUTIONTIME = 3.000000E-08
ZONETYPE = ORDERED
DATAPACKING = BLOCK
STRANDID = 3
 1.2700000000000E-03  1.3377333333333E-03  1.4054666666667E-03  1.4732000000000E-03  1.5409333333333E-03  1.6086666666667E-03  1.6764000000000E-03  1.7441333333333E-03  1.8118666666667E-03  1.8796000000000E-03 
 9.7993678599493E-09  8.6474009899046E-09  7.4953637755071E-09  6.3432076723673E-09  5.1908841161625E-09  4.0383445144895E-09  2.8859034464338E-09  1.7327858234888E-09  5.7930612773536E-10  2.3608502304293E-12 
 9.2000000000047E-01  9.2000000000134E-01  9.2000000000134E-01  9.2000000000134E-01  9.2000000000134E-01  9.2000000000134E-01  9.2000000000134E-01  9.2000000000134E-01  9.2000000000134E-01  9.2000000000134E-01 
 3.9999999999763E-02  3.9999999999329E-02  3.9999999999329E-02  3.9999999999329E-02  3.9999999999329E-02  3.9999999999329E-02  3.9999999999329E-02  3.9999999999329E-02  3.9999999999328E-02  3.9999999999328E-02 
 3.9999999999763E-02  3.9999999999329E-02  3.9999999999329E-02  3.9999999999329E-02  3.9999999999329E-02  3.9999999999329E-02  3.9999999999329E-02  3.9999999999329E-02  3.9999999999328E-02  3.9999999999328E-02 
 3.5028626929141E-02  3.5028523970121E-02  3.5028433116942E-02  3.5028354370342E-02  3.5028287731571E-02  3.5028233202387E-02  3.5028190785061E-02  3.5028160482372E-02  3.5028142297614E-02  3.5028136234589E-02 
 3.8418325729735E+00  3.8418315005715E+00  3.8418282833250E+00  3.8418229211029E+00  3.8418154136841E+00  3.8418057607568E+00  3.8417939619189E+00  3.8417800166778E+00  3.8417639244502E+00  3.8417456845622E+00 
 3.8068039460444E+00  3.8068029766014E+00  3.8067998502081E+00  3.8067945667326E+00  3.8067871259525E+00  3.8067775275544E+00  3.8067657711339E+00  3.8067518561954E+00  3.8067357821526E+00  3.8067175483276E+00 
 3.9714142713286E+00  3.9714142713283E+00  3.9714142713283E+00  3.9714142713283E+00  3.9714142713283E+00  3.9714142713283E+00  3.9714142713283E+00  3.9714142713283E+00  3.9714142713283E+00  3.9714142713283E+00 
-1.6461032528423E-01 -1.6461129472692E-01 -1.6461442112029E-01 -1.6461970459573E-01 -1.6462714537579E-01 -1.6463674377391E-01 -1.6464850019448E-01 -1.6466241513293E-01 -1.6467848917578E-01 -1.6469672300077E-01 
-8.2970784143706E-01 -1.6594470935278E+00 -1.6595483949986E+00 -1.6597196042567E+00 -1.6599607500076E+00 -1.6602718726899E+00 -1.6606530244898E+00 -1.6611042693601E+00 -1.6616256830429E+00 -8.3110867654825E-01 
 7.3137940337772E-08  6.4538264243220E-08  5.5938261098497E-08  4.7337370730792E-08  3.8735230718625E-08  3.0131478419545E-08  2.1525750953180E-08  1.2917685051082E-08  4.3069171370301E-09  4.3069171370301E-09 
 1.4943147210882E+01  1.3283715822302E+01  1.1624218077711E+01  9.9645840783542E+00  8.3047439012177E+00  6.6446275895596E+00  4.9841651414571E+00  3.3232864945882E+00  1.6619215176707E+00  0.0000000000000E+00 
 0.0000000000000E+00  1.6594313881779E+00  3.3189291324480E+00  4.9785631321521E+00  6.6384033093089E+00  8.2985196204679E+00  9.9589820690779E+00  1.1619860716139E+01  1.3281225692400E+01  1.4943147210532E+01 
 2.4891235242266E-08  4.9783412804323E-08  4.9786451848447E-08  4.9791588126191E-08  4.9798822498718E-08  4.9808156179185E-08  4.9819590733182E-08  4.9833128079293E-08  4.9848770489775E-08  2.4933260295693E-08 
 7.2440786946474E+03  1.4488157389295E+04  1.4488157389295E+04  1.4488157389295E+04  1.4488157389295E+04  1.4488157389295E+04  1.4488157389295E+04  1.4488157389295E+04  1.4488157389295E+04  7.2440786946474E+03 
 4.9259735123408E+04  9.8519470246815E+04  9.8519470246816E+04  9.8519470246815E+04  9.8519470246816E+04  9.8519470246816E+04  9.8519470246815E+04  9.8519470246816E+04  9.8519470246815E+04  4.9259735123408E+04 
 5.6503813818055E+04  1.1300762763611E+05  1.1300762763611E+05  1.1300762763611E+05  1.1300762763611E+05  1.1300762763611E+05  1.1300762763611E+05  1.1300762763611E+05  1.1300762763611E+05  5.6503813818055E+04 
 3.5000000000000E-01  3.5000000000000E-01  3.5000000000000E-01  3.5000000000000E-01  3.5000000000000E-01  3.5000000000000E-01  3.5000000000000E-01  3.5000000000000E-01  3.5000000000000E-01  3.5000000000000E-01 
 6.6040000000000E+00  1.3208000000000E+01  1.3208000000000E+01  1.3208000000000E+01  1.3208000000000E+01  1.3208000000000E+01  1.3208000000000E+01  1.3208000000000E+01  1.3208000000000E+01  6.6040000000000E+00 
-1.2563716557194E-01 -1.2563954372561E-01 -1.2564721343115E-01 -1.2566017597341E-01 -1.2567843352571E-01 -1.2570198914975E-01 -1.2573084679662E-01 -1.2576501130831E-01 -1.2580448841936E-01 -1.2584928475897E-01 
 3.3866666666667E-05  6.7733333333333E-05  6.7733333333334E-05  6.7733333333333E-05  6.7733333333334E-05  6.7733333333334E-05  6.7733333333333E-05  6.7733333333334E-05  6.7733333333333E-05  3.3866666666667E-05 
 2.6603001364264E+01  2.6603001364264E+01  2.6603001364264E+01  2.6603001364264E+01  2.6603001364264E+01  2.6603001364264E+01  2.6603001364264E+01  2.6603001364264E+01  2.6603001364264E+01  2.6603001364264E+01 
 1.7735334242830E+01  1.7735334242830E+01  1.7735334242830E+01  1.7735334242830E+01  1.7735334242830E+01  1.7735334242830E+01  1.7735334242830E+01  1.7735334242830E+01  1.7735334242830E+01  1.7735334242830E+01 
 1.0376956691471E-09  2.5428977673025E-09  7.1388788679836E-09  1.4906534515870E-08  2.5847173535635E-08  3.9962639733424E-08  5.7255312553710E-08  7.7728107924415E-08  1.0138447930448E-07  1.1400902431074E-07 
 3.4589855634530E-02  8.4763258907332E-02  2.3796262891298E-01  4.9688448381802E-01  8.6157245112950E-01  1.3320879909811E+00  1.9085104182628E+00  2.5909369306109E+00  3.3794826432503E+00  3.8003008101112E+00 
 2.1453334946622E-02  1.9079163504359E-02  1.4627292442801E-02  1.0768350567447E-02  7.5023589290005E-03  4.8294385549694E-03  2.7498105345765E-03  1.2637961357393E-03  3.7181696619469E-04  7.4395166737789E-05 
 1.3136520687908E-02  6.5684095402974E-02  2.2333533647018E-01  4.8611613325057E-01  8.5407009220050E-01  1.3272585524261E+00  1.9057606077282E+00  2.5896731344751E+00  3.3791108262841E+00  3.8002264149445E+00 
 0.0000000000000E+00  0.0000000000000E+00  0.0000000000000E+00  0.0000000000000E+00  0.0000000000000E+00  0.0000000000000E+00  0.0000000000000E+00  0.0000000000000E+00  0.0000000000000E+00  0.0000000000000E+00 
 0.0000000000000E+00  0.0000000000000E+00  0.0000000000000E+00  0.0000000000000E+00  0.0000000000000E+00  0.0000000000000E+00  0.0000000000000E+00  0.0000000000000E+00  0.0000000000000E+00  0.0000000000000E+00 
 0.0000000000000E+00  0.0000000000000E+00  0.0000000000000E+00  0.0000000000000E+00  0.0000000000000E+00  0.0000000000000E+00  0.0000000000000E+00  0.0000000000000E+00  0.0000000000000E+00  0.0000000000000E+00 
ZONE T = "CATH, 4.0000E-08", I = 10, SOLUTIONTIME = 4.000000E-08
ZONETYPE = ORDERED
DATAPACKING = BLOCK
STRANDID = 3
 1.2700000000000E-03  1.3377333333333E-03  1.4054666666667E-03  1.4732000000000E-03  1.5409333333333E-03  1.6086666666667E-03  1.6764000000000E-03  1.7441333333333E-03  1.8118666666667E-03  1.8796000000000E-03 
 9.8000942753491E-09  8.6474009898554E-09  7.4946373600089E-09  6.3421180491480E-09  5.1894312852222E-09  4.0354388526446E-09  2.8819081614122E-09  1.7284273307460E-09  5.7458442727140E-10 -2.5424540941173E-12 
 9.2000000000063E-01  9.2000000000179E-01  9.2000000000179E-01  9.2000000000179E-01  9.2000000000179E-01  9.2000000000179E-01  9.2000000000179E-01  9.2000000000179E-01  9.2000000000179E-01  9.2000000000179E-01 
 3.9999999999684E-02  3.9999999999106E-02  3.9999999999106E-02  3.9999999999105E-02  3.9999999999105E-02  3.9999999999105E-02  3.9999999999105E-02  3.9999999999105E-02  3.9999999999104E-02  3.9999999999104E-02 
 3.9999999999684E-02  3.9999999999106E-02  3.9999999999106E-02  3.9999999999105E-02  3.9999999999105E-02  3.9999999999105E-02  3.9999999999105E-02  3.9999999999105E-02  3.9999999999104E-02  3.9999999999104E-02 
 3.5028626928953E-02  3.5028523969932E-02  3.5028433116753E-02  3.5028354370153E-02  3.5028287731382E-02  3.5028233202198E-02  3.5028190784872E-02  3.5028160482183E-02  3.5028142297425E-02  3.5028136234400E-02 
 3.8418325729733E+00  3.8418315005713E+00  3.8418282833248E+00  3.8418229211027E+00  3.8418154136839E+00  3.8418057607566E+00  3.8417939619187E+00  3.8417800166775E+00  3.8417639244499E+00  3.8417456845619E+00 
 3.8068039460443E+00  3.8068029766014E+00  3.8067998502080E+00  3.8067945667326E+00  3.8067871259525E+00  3.8067775275544E+00  3.8067657711338E+00  3.8067518561954E+00  3.8067357821525E+00  3.8067175483275E+00 
 3.9714142713285E+00  3.9714142713282E+00  3.9714142713282E+00  3.9714142713282E+00  3.9714142713282E+00  3.9714142713282E+00  3.9714142713282E+00  3.9714142713282E+00  3.9714142713282E+00  3.9714142713282E+00 
-1.6461032528419E-01 -1.6461129472678E-01 -1.6461442112015E-01 -1.6461970459559E-01 -1.6462714537565E-01 -1.6463674377377E-01 -1.6464850019434E-01 -1.6466241513279E-01 -1.6467848917564E-01 -1.6469672300063E-01 
-8.2970784143533E-01 -1.6594470935183E+00 -1.6595483949891E+00 -1.6597196042472E+00 -1.6599607499982E+00 -1.6602718726804E+00 -1.6606530244803E+00 -1.6611042693506E+00 -1.6616256830333E+00 -8.3110867654348E-01 