TITLE = "Solution on Domain BulkDomain1D_1"
VARIABLES = "x [m]"  
"Vel_axial" 	"MF_sp(ECDMC)" 	"MF_sp(Li+)" 	"MF_sp(PF6-)" 	"Volt(Electroly)" 	"Porosity []" 	"Control volume thickness [m]" 	"volFrac MgO(S) []" 	"qHeat_accum [J/m3]" 	"qHeat_step [W/m3]" 	"Joule_Lyte [W/m3]" 	"Joule_Solid [W/m3]" 	
ZONE T = "SEP , 0.0000E+00", I = 10, SOLUTIONTIME = 0.000000E+00
ZONETYPE = ORDERED
DATAPACKING = BLOCK
STRANDID = 2
 7.8740000000000E-04  8.4102222222222E-04  8.9464444444444E-04  9.4826666666667E-04  1.0018888888889E-03  1.0555111111111E-03  1.1091333333333E-03  1.1627555555556E-03  1.2163777777778E-03  1.2700000000000E-03 
 0.0000000000000E+00  0.0000000000000E+00  0.0000000000000E+00  0.0000000000000E+00  0.0000000000000E+00  0.0000000000000E+00  0.0000000000000E+00  0.0000000000000E+00  0.0000000000000E+00  0.0000000000000E+00 
 9.2000000000000E-01  9.2000000000000E-01  9.2000000000000E-01  9.2000000000000E-01  9.2000000000000E-01  9.2000000000000E-01  9.2000000000000E-01  9.2000000000000E-01  9.2000000000000E-01  9.2000000000000E-01 
 4.0000000000000E-02  4.0000000000000E-02  4.0000000000000E-02  4.0000000000000E-02  4.0000000000000E-02  4.0000000000000E-02  4.0000000000000E-02  4.0000000000000E-02  4.0000000000000E-02  4.0000000000000E-02 
 4.0000000000000E-02  4.0000000000000E-02  4.0000000000000E-02  4.0000000000000E-02  4.0000000000000E-02  4.0000000000000E-02  4.0000000000000E-02  4.0000000000000E-02  4.0000000000000E-02  4.0000000000000E-02 
-7.0000000000000E-02 -7.0000000000000E-02 -7.0000000000000E-02 -7.0000000000000E-02 -7.0000000000000E-02 -7.0000000000000E-02 -7.0000000000000E-02 -7.0000000000000E-02 -7.0000000000000E-02 -7.0000000000000E-02 
 8.0911499769706E-01  8.0911499769706E-01  8.0911499769706E-01  8.0911499769706E-01  8.0911499769706E-01  8.0911499769706E-01  8.0911499769706E-01  8.0911499769706E-01  8.0911499769706E-01  8.0911499769706E-01 
 2.6811111111111E-05  5.3622222222222E-05  5.3622222222222E-05  5.3622222222222E-05  5.3622222222222E-05  5.3622222222222E-05  5.3622222222222E-05  5.3622222222223E-05  5.3622222222222E-05  2.6811111111111E-05 
 1.9088500230294E-01  1.9088500230294E-01  1.9088500230294E-01  1.9088500230294E-01  1.9088500230294E-01  1.9088500230294E-01  1.9088500230294E-01  1.9088500230294E-01  1.9088500230294E-01  1.9088500230294E-01 
 0.0000000000000E+00  0.0000000000000E+00  0.0000000000000E+00  0.0000000000000E+00  0.0000000000000E+00  0.0000000000000E+00  0.0000000000000E+00  0.0000000000000E+00  0.0000000000000E+00  0.0000000000000E+00 
 0.0000000000000E+00  0.0000000000000E+00  0.0000000000000E+00  0.0000000000000E+00  0.0000000000000E+00  0.0000000000000E+00  0.0000000000000E+00  0.0000000000000E+00  0.0000000000000E+00  0.0000000000000E+00 
 0.0000000000000E+00  0.0000000000000E+00  0.0000000000000E+00  0.0000000000000E+00  0.0000000000000E+00  0.0000000000000E+00  0.0000000000000E+00  0.0000000000000E+00  0.0000000000000E+00  0.0000000000000E+00 
 0.0000000000000E+00  0.0000000000000E+00  0.0000000000000E+00  0.0000000000000E+00  0.0000000000000E+00  0.0000000000000E+00  0.0000000000000E+00  0.0000000000000E+00  0.0000000000000E+00  0.0000000000000E+00 
ZONE T = "SEP , 1.0000E-08", I = 10, SOLUTIONTIME = 1.000000E-08
ZONETYPE = ORDERED
DATAPACKING = BLOCK
STRANDID = 2
 7.8740000000000E-04  8.4102222222222E-04  8.9464444444444E-04  9.4826666666667E-04  1.0018888888889E-03  1.0555111111111E-03  1.1091333333333E-03  1.1627555555556E-03  1.2163777777778E-03  1.2700000000000E-03 
 1.0376515138615E-08  1.0376515138615E-08  1.0376515138615E-08  1.0376515138615E-08  1.0376515138615E-08  1.0376515138615E-08  1.0376515138615E-08  1.0376515138615E-08  1.0376515138615E-08  9.8003663467183E-09 
 9.1999999999986E-01  9.2000000000000E-01  9.2000000000000E-01  9.2000000000000E-01  9.2000000000000E-01  9.2000000000000E-01  9.2000000000000E-01  9.2000000000000E-01  9.2000000000000E-01  9.2000000000016E-01 
 4.0000000000072E-02  4.0000000000000E-02  4.0000000000000E-02  4.0000000000000E-02  4.0000000000000E-02  4.0000000000000E-02  4.0000000000000E-02  4.0000000000000E-02  4.0000000000000E-02  3.9999999999921E-02 
 4.0000000000072E-02  4.0000000000000E-02  4.0000000000000E-02  4.0000000000000E-02  4.0000000000000E-02  4.0000000000000E-02  4.0000000000000E-02  4.0000000000000E-02  4.0000000000000E-02  3.9999999999921E-02 
 3.5028098627615E-02  3.5028074075010E-02  3.5028049522371E-02  3.5028024969638E-02  3.5028000416997E-02  3.5027975864389E-02  3.5027951311623E-02  3.5027926758975E-02  3.5027902206374E-02  3.5027877653733E-02 
 8.0911499769706E-01  8.0911499769706E-01  8.0911499769706E-01  8.0911499769706E-01  8.0911499769706E-01  8.0911499769706E-01  8.0911499769706E-01  8.0911499769706E-01  8.0911499769706E-01  8.0911499769706E-01 
 2.6811111111111E-05  5.3622222222222E-05  5.3622222222222E-05  5.3622222222222E-05  5.3622222222222E-05  5.3622222222222E-05  5.3622222222222E-05  5.3622222222223E-05  5.3622222222222E-05  2.6811111111111E-05 
 1.9088500230294E-01  1.9088500230294E-01  1.9088500230294E-01  1.9088500230294E-01  1.9088500230294E-01  1.9088500230294E-01  1.9088500230294E-01  1.9088500230294E-01  1.9088500230294E-01  1.9088500230294E-01 
 6.8421055068161E-11  6.8421148599828E-11  6.8421505362903E-11  6.8421512130759E-11  6.8421161304021E-11  6.8421510797001E-11  6.8421622099165E-11  6.8421160704611E-11  6.8421143746262E-11  6.8421255628466E-11 
 6.8421055068161E-03  6.8421148599828E-03  6.8421505362903E-03  6.8421512130759E-03  6.8421161304021E-03  6.8421510797001E-03  6.8421622099165E-03  6.8421160704611E-03  6.8421143746262E-03  6.8421255628466E-03 
 6.8421055068161E-03  6.8421148599828E-03  6.8421505362903E-03  6.8421512130759E-03  6.8421161304021E-03  6.8421510797001E-03  6.8421622099165E-03  6.8421160704611E-03  6.8421143746262E-03  6.8421255628466E-03 
 0.0000000000000E+00  0.0000000000000E+00  0.0000000000000E+00  0.0000000000000E+00  0.0000000000000E+00  0.0000000000000E+00  0.0000000000000E+00  0.0000000000000E+00  0.0000000000000E+00  0.0000000000000E+00 
ZONE T = "SEP , 2.0000E-08", I = 10, SOLUTIONTIME = 2.000000E-08
ZONETYPE = ORDERED
DATAPACKING = BLOCK
STRANDID = 2
 7.8740000000000E-04  8.4102222222222E-04  8.9464444444444E-04  9.4826666666667E-04  1.0018888888889E-03  1.0555111111111E-03  1.1091333333333E-03  1.1627555555556E-03  1.2163777777778E-03  1.2700000000000E-03 
 1.0374795577719E-08  1.0374795577719E-08  1.0374795577719E-08  1.0374795577719E-08  1.0374795577719E-08  1.0374795577719E-08  1.0374795577718E-08  1.0374795577718E-08  1.0374795577718E-08  9.7986414446962E-09 
 9.1999999999971E-01  9.2000000000000E-01  9.2000000000000E-01  9.2000000000000E-01  9.2000000000000E-01  9.2000000000000E-01  9.2000000000000E-01  9.2000000000000E-01  9.2000000000000E-01  9.2000000000032E-01 
 4.0000000000143E-02  4.0000000000000E-02  4.0000000000000E-02  4.0000000000000E-02  4.0000000000000E-02  4.0000000000000E-02  4.0000000000000E-02  4.0000000000000E-02  4.0000000000000E-02  3.9999999999842E-02 
 4.0000000000143E-02  4.0000000000000E-02  4.0000000000000E-02  4.0000000000000E-02  4.0000000000000E-02  4.0000000000000E-02  4.0000000000000E-02  4.0000000000000E-02  4.0000000000000E-02  3.9999999999842E-02 
 3.5028847906754E-02  3.5028823353862E-02  3.5028798800969E-02  3.5028774248077E-02  3.5028749695184E-02  3.5028725142292E-02  3.5028700589399E-02  3.5028676036507E-02  3.5028651483614E-02  3.5028626930722E-02 
 8.0911499769706E-01  8.0911499769706E-01  8.0911499769706E-01  8.0911499769706E-01  8.0911499769706E-01  8.0911499769706E-01  8.0911499769706E-01  8.0911499769706E-01  8.0911499769706E-01  8.0911499769706E-01 
 2.6811111111111E-05  5.3622222222222E-05  5.3622222222222E-05  5.3622222222222E-05  5.3622222222222E-05  5.3622222222222E-05  5.3622222222222E-05  5.3622222222223E-05  5.3622222222222E-05  2.6811111111111E-05 
 1.9088500230294E-01  1.9088500230294E-01  1.9088500230294E-01  1.9088500230294E-01  1.9088500230294E-01  1.9088500230294E-01  1.9088500230294E-01  1.9088500230294E-01  1.9088500230294E-01  1.9088500230294E-01 
 1.3684371114743E-10  1.3684380467904E-10  1.3684416144205E-10  1.3684416820991E-10  1.3684381738317E-10  1.3684416687615E-10  1.3684427817831E-10  1.3684381678376E-10  1.3684379982534E-10  1.3684391170748E-10 
 6.8422656079272E-03  6.8422656079210E-03  6.8422656079149E-03  6.8422656079149E-03  6.8422656079149E-03  6.8422656079149E-03  6.8422656079149E-03  6.8422656079149E-03  6.8422656079082E-03  6.8422656079014E-03 
 6.8422656079272E-03  6.8422656079210E-03  6.8422656079149E-03  6.8422656079149E-03  6.8422656079149E-03  6.8422656079149E-03  6.8422656079149E-03  6.8422656079149E-03  6.8422656079082E-03  6.8422656079014E-03 
 0.0000000000000E+00  0.0000000000000E+00  0.0000000000000E+00  0.0000000000000E+00  0.0000000000000E+00  0.0000000000000E+00  0.0000000000000E+00  0.0000000000000E+00  0.0000000000000E+00  0.0000000000000E+00 
ZONE T = "SEP , 3.0000E-08", I = 10, SOLUTIONTIME = 3.000000E-08
ZONETYPE = ORDERED
DATAPACKING = BLOCK
STRANDID = 2
 7.8740000000000E-04  8.4102222222222E-04  8.9464444444444E-04  9.4826666666667E-04  1.0018888888889E-03  1.0555111111111E-03  1.1091333333333E-03  1.1627555555556E-03  1.2163777777778E-03  1.2700000000000E-03 
 1.0374613973797E-08  1.0373161142886E-08  1.0373161142886E-08  1.0373161142886E-08  1.0373161142886E-08  1.0373161142886E-08  1.0373161142886E-08  1.0373161142886E-08  1.0373161142886E-08  9.7964621982732E-09 
 9.1999999999957E-01  9.2000000000000E-01  9.2000000000000E-01  9.2000000000000E-01  9.2000000000000E-01  9.2000000000000E-01  9.2000000000000E-01  9.2000000000000E-01  9.2000000000000E-01  9.2000000000047E-01 
 4.0000000000215E-02  4.0000000000000E-02  4.0000000000000E-02  4.0000000000000E-02  4.0000000000000E-02  4.0000000000000E-02  4.0000000000000E-02  4.0000000000000E-02  4.0000000000000E-02  3.9999999999763E-02 
 4.0000000000215E-02  4.0000000000000E-02  4.0000000000000E-02  4.0000000000000E-02  4.0000000000000E-02  4.0000000000000E-02  4.0000000000000E-02  4.0000000000000E-02  4.0000000000000E-02  3.9999999999763E-02 
 3.5028847906561E-02  3.5028823353669E-02  3.5028798800776E-02  3.5028774247884E-02  3.5028749694991E-02  3.5028725142099E-02  3.5028700589206E-02  3.5028676036314E-02  3.5028651483421E-02  3.5028626930529E-02 
 8.0911499769706E-01  8.0911499769706E-01  8.0911499769706E-01  8.0911499769706E-01  8.0911499769706E-01  8.0911499769706E-01  8.0911499769706E-01  8.0911499769706E-01  8.0911499769706E-01  8.0911499769706E-01 
 2.6811111111111E-05  5.3622222222222E-05  5.3622222222222E-05  5.3622222222222E-05  5.3622222222222E-05  5.3622222222222E-05  5.3622222222222E-05  5.3622222222223E-05  5.3622222222222E-05  2.6811111111111E-05 
 1.9088500230294E-01  1.9088500230294E-01  1.9088500230294E-01  1.9088500230294E-01  1.9088500230294E-01  1.9088500230294E-01  1.9088500230294E-01  1.9088500230294E-01  1.9088500230294E-01  1.9088500230294E-01 
 2.0526636722677E-10  2.0526646075828E-10  2.0526681752120E-10  2.0526682428906E-10  2.0526647344298E-10  2.0526682293596E-10  2.0526693425746E-10  2.0526647286291E-10  2.0526645590439E-10  2.0526656778643E-10 
 6.8422656079333E-03  6.8422656079241E-03  6.8422656079149E-03  6.8422656079149E-03  6.8422656059812E-03  6.8422656059812E-03  6.8422656079149E-03  6.8422656079149E-03  6.8422656079048E-03  6.8422656078947E-03 
 6.8422656079333E-03  6.8422656079241E-03  6.8422656079149E-03  6.8422656079149E-03  6.8422656059812E-03  6.8422656059812E-03  6.8422656079149E-03  6.8422656079149E-03  6.8422656079048E-03  6.8422656078947E-03 
 0.0000000000000E+00  0.0000000000000E+00  0.0000000000000E+00  0.0000000000000E+00  0.0000000000000E+00  0.0000000000000E+00  0.0000000000000E+00  0.0000000000000E+00  0.0000000000000E+00  0.0000000000000E+00 
ZONE T = "SEP , 4.0000E-08", I = 10, SOLUTIONTIME = 4.000000E-08
ZONETYPE = ORDERED
DATAPACKING = BLOCK
STRANDID = 2
 7.8740000000000E-04  8.4102222222222E-04  8.9464444444444E-04  9.4826666666667E-04  1.0018888888889E-03  1.0555111111111E-03  1.1091333333333E-03  1.1627555555556E-03  1.2163777777778E-03  1.2700000000000E-03 
 1.0376974823971E-08  1.0378427654882E-08  1.0378427654882E-08  1.0378427654882E-08  1.0378427654882E-08  1.0378427654882E-08  1.0378427654882E-08  1.0378427654882E-08  1.0378427654882E-08  9.8022735218617E-09 
 9.1999999999943E-01  9.2000000000000E-01  9.2000000000000E-01  9.2000000000000E-01  9.2000000000000E-01  9.2000000000000E-01  9.2000000000000E-01  9.2000000000000E-01  9.2000000000000E-01  9.2000000000063E-01 
 4.0000000000287E-02  4.0000000000000E-02  4.0000000000000E-02  4.0000000000000E-02  4.0000000000000E-02  4.0000000000000E-02  4.0000000000000E-02  4.0000000000000E-02  4.0000000000000E-02  3.9999999999684E-02 
 4.0000000000287E-02  4.0000000000000E-02  4.0000000000000E-02  4.0000000000000E-02  4.0000000000000E-02  4.0000000000000E-02  4.0000000000000E-02  4.0000000000000E-02  4.0000000000000E-02  3.9999999999684E-02 
 3.5028847906372E-02  3.5028823353480E-02  3.5028798800587E-02  3.5028774247695E-02  3.5028749694802E-02  3.5028725141910E-02  3.5028700589017E-02  3.5028676036125E-02  3.5028651483232E-02  3.5028626930340E-02 
 8.0911499769706E-01  8.0911499769706E-01  8.0911499769706E-01  8.0911499769706E-01  8.0911499769706E-01  8.0911499769706E-01  8.0911499769706E-01  8.0911499769706E-01  8.0911499769706E-01  8.0911499769706E-01 
 2.6811111111111E-05  5.3622222222222E-05  5.3622222222222E-05  5.3622222222222E-05  5.3622222222222E-05  5.3622222222222E-05  5.3622222222222E-05  5.3622222222223E-05  5.3622222222222E-05  2.6811111111111E-05 
 1.9088500230294E-01  1.9088500230294E-01  1.9088500230294E-01  1.9088500230294E-01  1.9088500230294E-01  1.9088500230294E-01  1.9088500230294E-01  1.9088500230294E-01  1.9088500230294E-01  1.9088500230294E-01 
 2.7368902330616E-10  2.7368911683755E-10  2.7368947358101E-10  2.7368948034887E-10  2.7368912952213E-10  2.7368947901511E-10  2.7368959033661E-10  2.7368912894206E-10  2.7368911198341E-10  2.7368922386531E-10 
 6.8422656079395E-03  6.8422656079272E-03  6.8422656059812E-03  6.8422656059812E-03  6.8422656079149E-03  6.8422656079149E-03  6.8422656079149E-03  6.8422656079149E-03  6.8422656079014E-03  6.8422656078879E-03 
 6.8422656079395E-03  6.8422656079272E-03  6.8422656059812E-03  6.8422656059812E-03  6.8422656079149E-03  6.8422656079149E-03  6.8422656079149E-03  6.8422656079149E-03  6.8422656079014E-03  6.8422656078879E-03 
 0.0000000000000E+00  0.0000000000000E+00  0.0000000000000E+00  0.0000000000000E+00  0.0000000000000E+00  0.0000000000000E+00  0.0000000000000E+00  0.0000000000000E+00  0.0000000000000E+00  0.0000000000000E+00 
ZONE T = "SEP , 5.5000E-08", I = 10, SOLUTIONTIME = 5.500000E-08
ZONETYPE = ORDERED
DATAPACKING = BLOCK
STRANDID = 2
 7.8740000000000E-04  8.4102222222222E-04  8.9464444444444E-04  9.4826666666667E-04  1.0018888888889E-03  1.0555111111111E-03  1.1091333333333E-03  1.1627555555556E-03  1.2163777777778E-03  1.2700000000000E-03 
 1.0377095893152E-08  1.0377095893152E-08  1.0377095893152E-08  1.0377095893152E-08  1.0377095893152E-08  1.0377095893152E-08  1.0377095893152E-08  1.0377095893152E-08  1.0377095893152E-08  9.8013049678615E-09 
 9.1999999999921E-01  9.2000000000000E-01  9.2000000000000E-01  9.2000000000000E-01  9.2000000000000E-01  9.2000000000000E-01  9.2000000000000E-01  9.2000000000000E-01  9.2000000000000E-01  9.2000000000087E-01 
 4.0000000000394E-02  4.0000000000000E-02  4.0000000000000E-02  4.0000000000000E-02  4.0000000000000E-02  4.0000000000000E-02  4.0000000000000E-02  4.0000000000000E-02  4.0000000000000E-02  3.9999999999566E-02 
 4.0000000000394E-02  4.0000000000000E-02  4.0000000000000E-02  4.0000000000000E-02  4.0000000000000E-02  4.0000000000000E-02  4.0000000000000E-02  4.0000000000000E-02  4.0000000000000E-02  3.9999999999566E-02 
 3.5028847906158E-02  3.5028823353266E-02  3.5028798800374E-02  3.5028774247481E-02  3.5028749694589E-02  3.5028725141696E-02  3.5028700588804E-02  3.5028676035911E-02  3.5028651483019E-02  3.5028626930126E-02 
 8.0911499769706E-01  8.0911499769706E-01  8.0911499769706E-01  8.0911499769706E-01  8.0911499769706E-01  8.0911499769706E-01  8.0911499769706E-01  8.0911499769706E-01  8.0911499769706E-01  8.0911499769706E-01 
 2.6811111111111E-05  5.3622222222222E-05  5.3622222222222E-05  5.3622222222222E-05  5.3622222222222E-05  5.3622222222222E-05  5.3622222222222E-05  5.3622222222223E-05  5.3622222222222E-05  2.6811111111111E-05 
 1.9088500230294E-01  1.9088500230294E-01  1.9088500230294E-01  1.9088500230294E-01  1.9088500230294E-01  1.9088500230294E-01  1.9088500230294E-01  1.9088500230294E-01  1.9088500230294E-01  1.9088500230294E-01 
 3.7632300742539E-10  3.7632310095653E-10  3.7632345769974E-10  3.7632346446759E-10  3.7632311364086E-10  3.7632346310483E-10  3.7632357442633E-10  3.7632311306078E-10  3.7632309610185E-10  3.7632320798347E-10 
 6.8422656079486E-03  6.8422656079318E-03  6.8422656079149E-03  6.8422656079149E-03  6.8422656079149E-03  6.8422656059812E-03  6.8422656059812E-03  6.8422656079149E-03  6.8422656078963E-03  6.8422656078778E-03 
 6.8422656079486E-03  6.8422656079318E-03  6.8422656079149E-03  6.8422656079149E-03  6.8422656079149E-03  6.8422656059812E-03  6.8422656059812E-03  6.8422656079149E-03  6.8422656078963E-03  6.8422656078778E-03 
 0.0000000000000E+00  0.0000000000000E+00  0.0000000000000E+00  0.0000000000000E+00  0.0000000000000E+00  0.0000000000000E+00  0.0000000000000E+00  0.0000000000000E+00  0.0000000000000E+00  0.0000000000000E+00 
ZONE T = "SEP , 7.7500E-08", I = 10, SOLUTIONTIME = 7.750000E-08
ZONETYPE = ORDERED
DATAPACKING = BLOCK
STRANDID = 2
 7.8740000000000E-04  8.4102222222222E-04  8.9464444444444E-04  9.4826666666667E-04  1.0018888888889E-03  1.0555111111111E-03  1.1091333333333E-03  1.1627555555556E-03  1.2163777777778E-03  1.2700000000000E-03 
 1.0375239498002E-08  1.0375239498002E-08  1.0375239498002E-08  1.0375239498002E-08  1.0375239498002E-08  1.0375239498002E-08  1.0375239498002E-08  1.0375239498002E-08  1.0375239498002E-08  9.7990853649863E-09 
 9.1999999999889E-01  9.2000000000000E-01  9.2000000000000E-01  9.2000000000000E-01  9.2000000000000E-01  9.2000000000000E-01  9.2000000000000E-01  9.2000000000000E-01  9.2000000000000E-01  9.2000000000122E-01 
 4.0000000000555E-02  4.0000000000000E-02  4.0000000000000E-02  4.0000000000000E-02  4.0000000000000E-02  4.0000000000000E-02  4.0000000000000E-02  4.0000000000000E-02  4.0000000000000E-02  3.9999999999388E-02 
 4.0000000000555E-02  4.0000000000000E-02  4.0000000000000E-02  4.0000000000000E-02  4.0000000000000E-02  4.0000000000000E-02  4.0000000000000E-02  4.0000000000000E-02  4.0000000000000E-02  3.9999999999388E-02 
 3.5028847905804E-02  3.5028823352912E-02  3.5028798800019E-02  3.5028774247127E-02  3.5028749694234E-02  3.5028725141342E-02  3.5028700588449E-02  3.5028676035557E-02  3.5028651482664E-02  3.5028626929772E-02 
 8.0911499769706E-01  8.0911499769706E-01  8.0911499769706E-01  8.0911499769706E-01  8.0911499769706E-01  8.0911499769706E-01  8.0911499769706E-01  8.0911499769706E-01  8.0911499769706E-01  8.0911499769706E-01 
 2.6811111111111E-05  5.3622222222222E-05  5.3622222222222E-05  5.3622222222222E-05  5.3622222222222E-05  5.3622222222222E-05  5.3622222222222E-05  5.3622222222223E-05  5.3622222222222E-05  2.6811111111111E-05 
 1.9088500230294E-01  1.9088500230294E-01  1.9088500230294E-01  1.9088500230294E-01  1.9088500230294E-01  1.9088500230294E-01  1.9088500230294E-01  1.9088500230294E-01  1.9088500230294E-01  1.9088500230294E-01 
 5.3027398360455E-10  5.3027407713515E-10  5.3027443387782E-10  5.3027444064568E-10  5.3027408981894E-10  5.3027443923941E-10  5.3027455056091E-10  5.3027408923886E-10  5.3027407227935E-10  5.3027418416038E-10 
 6.8422656079624E-03  6.8422656079387E-03  6.8422656079149E-03  6.8422656079149E-03  6.8422656079149E-03  6.8422656059812E-03  6.8422656059812E-03  6.8422656079149E-03  6.8422656078887E-03  6.8422656078626E-03 
 6.8422656079624E-03  6.8422656079387E-03  6.8422656079149E-03  6.8422656079149E-03  6.8422656079149E-03  6.8422656059812E-03  6.8422656059812E-03  6.8422656079149E-03  6.8422656078887E-03  6.8422656078626E-03 
 0.0000000000000E+00  0.0000000000000E+00  0.0000000000000E+00  0.0000000000000E+00  0.0000000000000E+00  0.0000000000000E+00  0.0000000000000E+00  0.0000000000000E+00  0.0000000000000E+00  0.0000000000000E+00 
ZONE T = "SEP , 1.1125E-07", I = 10, SOLUTIONTIME = 1.112500E-07
ZONETYPE = ORDERED
DATAPACKING = BLOCK
STRANDID = 2
 7.8740000000000E-04  8.4102222222222E-04  8.9464444444444E-04  9.4826666666667E-04  1.0018888888889E-03  1.0555111111111E-03  1.1091333333333E-03  1.1627555555556E-03  1.2163777777778E-03  1.2700000000000E-03 
 1.0377526361328E-08  1.0377526361328E-08  1.0377526361328E-08  1.0377526361328E-08  1.0377526361328E-08  1.0377526361328E-08  1.0377526361328E-08  1.0377526361328E-08  1.0377526361328E-08  9.8016412710773E-09 
 9.1999999999841E-01  9.2000000000000E-01  9.2000000000000E-01  9.2000000000000E-01  9.2000000000000E-01  9.2000000000000E-01  9.2000000000000E-01  9.2000000000000E-01  9.2000000000000E-01  9.2000000000176E-01 
 4.0000000000797E-02  4.0000000000000E-02  4.0000000000000E-02  4.0000000000000E-02  4.0000000000000E-02  4.0000000000000E-02  4.0000000000000E-02  4.0000000000000E-02  4.0000000000000E-02  3.9999999999121E-02 
 4.0000000000797E-02  4.0000000000000E-02  4.0000000000000E-02  4.0000000000000E-02  4.0000000000000E-02  4.0000000000000E-02  4.0000000000000E-02  4.0000000000000E-02  4.0000000000000E-02  3.9999999999121E-02 
 3.5028847905272E-02  3.5028823352379E-02  3.5028798799487E-02  3.5028774246594E-02  3.5028749693702E-02  3.5028725140809E-02  3.5028700587917E-02  3.5028676035024E-02  3.5028651482132E-02  3.5028626929239E-02 
 8.0911499769706E-01  8.0911499769706E-01  8.0911499769706E-01  8.0911499769706E-01  8.0911499769706E-01  8.0911499769706E-01  8.0911499769706E-01  8.0911499769706E-01  8.0911499769706E-01  8.0911499769706E-01 
 2.6811111111111E-05  5.3622222222222E-05  5.3622222222222E-05  5.3622222222222E-05  5.3622222222222E-05  5.3622222222222E-05  5.3622222222222E-05  5.3622222222223E-05  5.3622222222222E-05  2.6811111111111E-05 
 1.9088500230294E-01  1.9088500230294E-01  1.9088500230294E-01  1.9088500230294E-01  1.9088500230294E-01  1.9088500230294E-01  1.9088500230294E-01  1.9088500230294E-01  1.9088500230294E-01  1.9088500230294E-01 
 7.6120044787398E-10  7.6120054140343E-10  7.6120089814495E-10  7.6120090484755E-10  7.6120055402081E-10  7.6120090350654E-10  7.6120101482804E-10  7.6120055350599E-10  7.6120053647995E-10  7.6120064829445E-10 
 6.8422656079831E-03  6.8422656079490E-03  6.8422656079149E-03  6.8422656059812E-03  6.8422656059812E-03  6.8422656079149E-03  6.8422656079149E-03  6.8422656079149E-03  6.8422656059436E-03  6.8422656039724E-03 
 6.8422656079831E-03  6.8422656079490E-03  6.8422656079149E-03  6.8422656059812E-03  6.8422656059812E-03  6.8422656079149E-03  6.8422656079149E-03  6.8422656079149E-03  6.8422656059436E-03  6.8422656039724E-03 
 0.0000000000000E+00  0.0000000000000E+00  0.0000000000000E+00  0.0000000000000E+00  0.0000000000000E+00  0.0000000000000E+00  0.0000000000000E+00  0.0000000000000E+00  0.0000000000000E+00  0.0000000000000E+00 
ZONE T = "SEP , 1.6188E-07", I = 10, SOLUTIONTIME = 1.618750E-07
ZONETYPE = ORDERED
DATAPACKING = BLOCK
STRANDID = 2
 7.8740000000000E-04  8.4102222222222E-04  8.9464444444444E-04  9.4826666666667E-04  1.0018888888889E-03  1.0555111111111E-03  1.1091333333333E-03  1.1627555555556E-03  1.2163777777778E-03  1.2700000000000E-03 
 1.0376001785463E-08  1.0376001785463E-08  1.0376001785463E-08  1.0376001785463E-08  1.0376001785463E-08  1.0376001785463E-08  1.0376001785463E-08  1.0376001785463E-08  1.0376001785463E-08  9.7995606735105E-09 
 9.1999999999768E-01  9.2000000000000E-01  9.2000000000000E-01  9.2000000000000E-01  9.2000000000000E-01  9.2000000000000E-01  9.2000000000000E-01  9.2000000000000E-01  9.2000000000000E-01  9.2000000000256E-01 
 4.0000000001160E-02  4.0000000000000E-02  4.0000000000000E-02  4.0000000000000E-02  4.0000000000000E-02  4.0000000000000E-02  4.0000000000000E-02  4.0000000000000E-02  4.0000000000000E-02  3.9999999998721E-02 
 4.0000000001160E-02  4.0000000000000E-02  4.0000000000000E-02  4.0000000000000E-02  4.0000000000000E-02  4.0000000000000E-02  4.0000000000000E-02  4.0000000000000E-02  4.0000000000000E-02  3.9999999998721E-02 
 3.5028847904471E-02  3.5028823351579E-02  3.5028798798686E-02  3.5028774245794E-02  3.5028749692901E-02  3.5028725140009E-02  3.5028700587116E-02  3.5028676034224E-02  3.5028651481331E-02  3.5028626928439E-02 
 8.0911499769706E-01  8.0911499769706E-01  8.0911499769706E-01  8.0911499769706E-01  8.0911499769706E-01  8.0911499769706E-01  8.0911499769706E-01  8.0911499769706E-01  8.0911499769706E-01  8.0911499769706E-01 
 2.6811111111111E-05  5.3622222222222E-05  5.3622222222222E-05  5.3622222222222E-05  5.3622222222222E-05  5.3622222222222E-05  5.3622222222222E-05  5.3622222222223E-05  5.3622222222222E-05  2.6811111111111E-05 
 1.9088500230294E-01  1.9088500230294E-01  1.9088500230294E-01  1.9088500230294E-01  1.9088500230294E-01  1.9088500230294E-01  1.9088500230294E-01  1.9088500230294E-01  1.9088500230294E-01  1.9088500230294E-01 
 1.1075901442797E-09  1.1075902378066E-09  1.1075905944478E-09  1.1075906011503E-09  1.1075902504215E-09  1.1075905999072E-09  1.1075907111308E-09  1.1075902498088E-09  1.1075902328779E-09  1.1075903446896E-09 
 6.8422656080142E-03  6.8422656079645E-03  6.8422656059812E-03  6.8422656059812E-03  6.8422656079149E-03  6.8422656079149E-03  6.8422656059812E-03  6.8422656059812E-03  6.8422656078602E-03  6.8422656078056E-03 
 6.8422656080142E-03  6.8422656079645E-03  6.8422656059812E-03  6.8422656059812E-03  6.8422656079149E-03  6.8422656079149E-03  6.8422656059812E-03  6.8422656059812E-03  6.8422656078602E-03  6.8422656078056E-03 
 0.0000000000000E+00  0.0000000000000E+00  0.0000000000000E+00  0.0000000000000E+00  0.0000000000000E+00  0.0000000000000E+00  0.0000000000000E+00  0.0000000000000E+00  0.0000000000000E+00  0.0000000000000E+00 
ZONE T = "SEP , 2.3781E-07", I = 10, SOLUTIONTIME = 2.378125E-07
ZONETYPE = ORDERED
DATAPACKING = BLOCK
STRANDID = 2
 7.8740000000000E-04  8.4102222222222E-04  8.9464444444444E-04  9.4826666666667E-04  1.0018888888889E-03  1.0555111111111E-03  1.1091333333333E-03  1.1627555555556E-03  1.2163777777778E-03  1.2700000000000E-03 
 1.0377448637319E-08  1.0377448637319E-08  1.0377448637319E-08  1.0377448637319E-08  1.0377448637319E-08  1.0377448637319E-08  1.0377448637319E-08  1.0377448637319E-08  1.0377448637319E-08  9.8013662490569E-09 
 9.1999999999659E-01  9.2000000000000E-01  9.2000000000000E-01  9.2000000000000E-01  9.2000000000000E-01  9.2000000000000E-01  9.2000000000000E-01  9.2000000000000E-01  9.2000000000000E-01  9.2000000000376E-01 
 4.0000000001704E-02  4.0000000000001E-02  4.0000000000000E-02  4.0000000000000E-02  4.0000000000000E-02  4.0000000000000E-02  4.0000000000000E-02  4.0000000000000E-02  3.9999999999999E-02  3.9999999998122E-02 
 4.0000000001704E-02  4.0000000000001E-02  4.0000000000000E-02  4.0000000000000E-02  4.0000000000000E-02  4.0000000000000E-02  4.0000000000000E-02  4.0000000000000E-02  3.9999999999999E-02  3.9999999998122E-02 
 3.5028847903274E-02  3.5028823350381E-02  3.5028798797489E-02  3.5028774244596E-02  3.5028749691704E-02  3.5028725138811E-02  3.5028700585919E-02  3.5028676033026E-02  3.5028651480134E-02  3.5028626927241E-02 
 8.0911499769706E-01  8.0911499769706E-01  8.0911499769706E-01  8.0911499769706E-01  8.0911499769706E-01  8.0911499769706E-01  8.0911499769706E-01  8.0911499769706E-01  8.0911499769706E-01  8.0911499769706E-01 
 2.6811111111111E-05  5.3622222222222E-05  5.3622222222222E-05  5.3622222222222E-05  5.3622222222222E-05  5.3622222222222E-05  5.3622222222222E-05  5.3622222222223E-05  5.3622222222222E-05  2.6811111111111E-05 
 1.9088500230294E-01  1.9088500230294E-01  1.9088500230294E-01  1.9088500230294E-01  1.9088500230294E-01  1.9088500230294E-01  1.9088500230294E-01  1.9088500230294E-01  1.9088500230294E-01  1.9088500230294E-01 
 1.6271746888918E-09  1.6271747822664E-09  1.6271751389020E-09  1.6271751456045E-09  1.6271747948757E-09  1.6271751445083E-09  1.6271752555850E-09  1.6271747942630E-09  1.6271747774728E-09  1.6271748892784E-09 
 6.8422656080607E-03  6.8422656060541E-03  6.8422656059813E-03  6.8422656059812E-03  6.8422656059812E-03  6.8422656079149E-03  6.8422656059812E-03  6.8422656059811E-03  6.8422656078345E-03  6.8422656077542E-03 
 6.8422656080607E-03  6.8422656060541E-03  6.8422656059813E-03  6.8422656059812E-03  6.8422656059812E-03  6.8422656079149E-03  6.8422656059812E-03  6.8422656059811E-03  6.8422656078345E-03  6.8422656077542E-03 
 0.0000000000000E+00  0.0000000000000E+00  0.0000000000000E+00  0.0000000000000E+00  0.0000000000000E+00  0.0000000000000E+00  0.0000000000000E+00  0.0000000000000E+00  0.0000000000000E+00  0.0000000000000E+00 
ZONE T = "SEP , 3.5172E-07", I = 10, SOLUTIONTIME = 3.517188E-07
ZONETYPE = ORDERED
DATAPACKING = BLOCK
STRANDID = 2
 7.8740000000000E-04  8.4102222222222E-04  8.9464444444444E-04  9.4826666666667E-04  1.0018888888889E-03  1.0555111111111E-03  1.1091333333333E-03  1.1627555555556E-03  1.2163777777778E-03  1.2700000000000E-03 
 1.0376547841806E-08  1.0376547841806E-08  1.0376547841806E-08  1.0376547841806E-08  1.0376547841806E-08  1.0376547841806E-08  1.0376547841806E-08  1.0376547841806E-08  1.0376484068707E-08  9.8003299357204E-09 
 9.1999999999496E-01  9.2000000000000E-01  9.2000000000000E-01  9.2000000000000E-01  9.2000000000000E-01  9.2000000000000E-01  9.2000000000000E-01  9.2000000000000E-01  9.2000000000000E-01  9.2000000000555E-01 
 4.0000000002519E-02  4.0000000000002E-02  4.0000000000000E-02  4.0000000000000E-02  4.0000000000000E-02  4.0000000000000E-02  4.0000000000000E-02  4.0000000000000E-02  3.9999999999998E-02  3.9999999997223E-02 