TITLE = "Solution on Domain BulkDomain1D_0"
VARIABLES = "x [m]"  
"Vel_axial" 
"MF_sp(ECDMC)" 
"MF_sp(Li+)" 
"MF_sp(PF6-)" 
"Volt(Electroly)" 
"Volt(AnodeVolt)" 
"Potential Drop Electrode-Electrolyte [V]" 
"Surf_0 Equilibrium Potential Drop Electrode-Electrolyte [V]" 
"Overpotential_0 [V]" 
"Current Source [A/m^2]" 
"Li+ flux [kmol/m^2/s]" 
"Electrolyte Current [A/m^2]" 
"Electrode Current [A/m^2]" 
"CV Capacity discharged [A-s/m^2]" 
"Depth of discharge in CV [A-s/m^2]" 
"CV Capacity remaining [A-s/m^2]" 
"Initial CV capacity [A-s/m^2]" 
"Porosity []" 
"Surface Area [m2/m2] (area per area)" 
"Specific current (per particle area) [A/m^2]" 
"Control volume thickness [m]" 
"MoleDens Li_C6-bulk [kmol/m^3]" 
"MoleDens V_C6-bulk [kmol/m^3]" 
"qHeat_accum [J/m3]" 
"qHeat_step [W/m3]" 
"Joule_Lyte [W/m3]" 
"Joule_Solid [W/m3]" 
"electrodHeat [W/m3]" 
"OverpotHeat [W/m3]" 
"deltaSHeat [W/m3]" 

ZONE T = "ANOD, 0.0000E+00", I = 10, SOLUTIONTIME = 0.000000E+00
ZONETYPE = ORDERED
DATAPACKING = BLOCK
STRANDID = 1
 0.0000000000000E+00  8.7488888888889E-05  1.7497777777778E-04  2.6246666666667E-04  3.4995555555556E-04  4.3744444444444E-04  5.2493333333333E-04  6.1242222222222E-04  6.9991111111111E-04  7.8740000000000E-04 
 0.0000000000000E+00  0.0000000000000E+00  0.0000000000000E+00  0.0000000000000E+00  0.0000000000000E+00  0.0000000000000E+00  0.0000000000000E+00  0.0000000000000E+00  0.0000000000000E+00  0.0000000000000E+00 
 9.2000000000000E-01  9.2000000000000E-01  9.2000000000000E-01  9.2000000000000E-01  9.2000000000000E-01  9.2000000000000E-01  9.2000000000000E-01  9.2000000000000E-01  9.2000000000000E-01  9.2000000000000E-01 
 4.0000000000000E-02  4.0000000000000E-02  4.0000000000000E-02  4.0000000000000E-02  4.0000000000000E-02  4.0000000000000E-02  4.0000000000000E-02  4.0000000000000E-02  4.0000000000000E-02  4.0000000000000E-02 
 4.0000000000000E-02  4.0000000000000E-02  4.0000000000000E-02  4.0000000000000E-02  4.0000000000000E-02  4.0000000000000E-02  4.0000000000000E-02  4.0000000000000E-02  4.0000000000000E-02  4.0000000000000E-02 
-7.0000000000000E-02 -7.0000000000000E-02 -7.0000000000000E-02 -7.0000000000000E-02 -7.0000000000000E-02 -7.0000000000000E-02 -7.0000000000000E-02 -7.0000000000000E-02 -7.0000000000000E-02 -7.0000000000000E-02 
 0.0000000000000E+00  0.0000000000000E+00  0.0000000000000E+00  0.0000000000000E+00  0.0000000000000E+00  0.0000000000000E+00  0.0000000000000E+00  0.0000000000000E+00  0.0000000000000E+00  0.0000000000000E+00 
 7.0000000000000E-02  7.0000000000000E-02  7.0000000000000E-02  7.0000000000000E-02  7.0000000000000E-02  7.0000000000000E-02  7.0000000000000E-02  7.0000000000000E-02  7.0000000000000E-02  7.0000000000000E-02 
-4.0906712753392E-02 -4.0906712753392E-02 -4.0906712753392E-02 -4.0906712753392E-02 -4.0906712753392E-02 -4.0906712753392E-02 -4.0906712753392E-02 -4.0906712753392E-02 -4.0906712753392E-02 -4.0906712753392E-02 
 1.1090671275339E-01  1.1090671275339E-01  1.1090671275339E-01  1.1090671275339E-01  1.1090671275339E-01  1.1090671275339E-01  1.1090671275339E-01  1.1090671275339E-01  1.1090671275339E-01  1.1090671275339E-01 
 3.0930240924008E+01  6.1860481848016E+01  6.1860481848016E+01  6.1860481848016E+01  6.1860481848016E+01  6.1860481848016E+01  6.1860481848016E+01  6.1860481848016E+01  6.1860481848016E+01  3.0930240924008E+01 
-0.0000000000000E+00 -0.0000000000000E+00 -0.0000000000000E+00 -0.0000000000000E+00 -0.0000000000000E+00 -0.0000000000000E+00 -0.0000000000000E+00 -0.0000000000000E+00 -0.0000000000000E+00 -0.0000000000000E+00 
 0.0000000000000E+00  0.0000000000000E+00  0.0000000000000E+00  0.0000000000000E+00  0.0000000000000E+00  0.0000000000000E+00  0.0000000000000E+00  0.0000000000000E+00  0.0000000000000E+00  3.0930240924008E+01 
 3.0930240924008E+01 -0.0000000000000E+00 -0.0000000000000E+00 -0.0000000000000E+00 -0.0000000000000E+00 -0.0000000000000E+00 -0.0000000000000E+00 -0.0000000000000E+00 -0.0000000000000E+00  0.0000000000000E+00 
 0.0000000000000E+00  0.0000000000000E+00  0.0000000000000E+00  0.0000000000000E+00  0.0000000000000E+00  0.0000000000000E+00  0.0000000000000E+00  0.0000000000000E+00  0.0000000000000E+00  0.0000000000000E+00 
 9.1448444543281E+04  1.8289688908656E+05  1.8289688908656E+05  1.8289688908656E+05  1.8289688908656E+05  1.8289688908656E+05  1.8289688908656E+05  1.8289688908656E+05  1.8289688908656E+05  9.1448444543281E+04 
 3.6579377817312E+05  7.3158755634625E+05  7.3158755634625E+05  7.3158755634625E+05  7.3158755634625E+05  7.3158755634625E+05  7.3158755634625E+05  7.3158755634625E+05  7.3158755634625E+05  3.6579377817312E+05 
 4.5724222271640E+05  9.1448444543281E+05  9.1448444543281E+05  9.1448444543281E+05  9.1448444543281E+05  9.1448444543281E+05  9.1448444543281E+05  9.1448444543281E+05  9.1448444543281E+05  4.5724222271640E+05 
 3.5000000000000E-01  3.5000000000000E-01  3.5000000000000E-01  3.5000000000000E-01  3.5000000000000E-01  3.5000000000000E-01  3.5000000000000E-01  3.5000000000000E-01  3.5000000000000E-01  3.5000000000000E-01 
 8.5301666666666E+00  1.7060333333333E+01  1.7060333333333E+01  1.7060333333333E+01  1.7060333333333E+01  1.7060333333333E+01  1.7060333333333E+01  1.7060333333333E+01  1.7060333333333E+01  8.5301666666666E+00 
 3.6259831879809E+00  3.6259831879809E+00  3.6259831879809E+00  3.6259831879809E+00  3.6259831879809E+00  3.6259831879809E+00  3.6259831879809E+00  3.6259831879809E+00  3.6259831879809E+00  3.6259831879809E+00 
 4.3744444444444E-05  8.7488888888889E-05  8.7488888888889E-05  8.7488888888889E-05  8.7488888888889E-05  8.7488888888889E-05  8.7488888888889E-05  8.7488888888889E-05  8.7488888888889E-05  4.3744444444444E-05 
 8.6666666666666E+01  8.6666666666666E+01  8.6666666666666E+01  8.6666666666666E+01  8.6666666666666E+01  8.6666666666666E+01  8.6666666666666E+01  8.6666666666666E+01  8.6666666666666E+01  8.6666666666666E+01 
 2.1666666666667E+01  2.1666666666667E+01  2.1666666666667E+01  2.1666666666667E+01  2.1666666666667E+01  2.1666666666667E+01  2.1666666666667E+01  2.1666666666667E+01  2.1666666666667E+01  2.1666666666667E+01 
 0.0000000000000E+00  0.0000000000000E+00  0.0000000000000E+00  0.0000000000000E+00  0.0000000000000E+00  0.0000000000000E+00  0.0000000000000E+00  0.0000000000000E+00  0.0000000000000E+00  0.0000000000000E+00 
 0.0000000000000E+00  0.0000000000000E+00  0.0000000000000E+00  0.0000000000000E+00  0.0000000000000E+00  0.0000000000000E+00  0.0000000000000E+00  0.0000000000000E+00  0.0000000000000E+00  0.0000000000000E+00 
 0.0000000000000E+00  0.0000000000000E+00  0.0000000000000E+00  0.0000000000000E+00  0.0000000000000E+00  0.0000000000000E+00  0.0000000000000E+00  0.0000000000000E+00  0.0000000000000E+00  0.0000000000000E+00 
 0.0000000000000E+00  0.0000000000000E+00  0.0000000000000E+00  0.0000000000000E+00  0.0000000000000E+00  0.0000000000000E+00  0.0000000000000E+00  0.0000000000000E+00  0.0000000000000E+00  0.0000000000000E+00 
 0.0000000000000E+00  0.0000000000000E+00  0.0000000000000E+00  0.0000000000000E+00  0.0000000000000E+00  0.0000000000000E+00  0.0000000000000E+00  0.0000000000000E+00  0.0000000000000E+00  0.0000000000000E+00 
 0.0000000000000E+00  0.0000000000000E+00  0.0000000000000E+00  0.0000000000000E+00  0.0000000000000E+00  0.0000000000000E+00  0.0000000000000E+00  0.0000000000000E+00  0.0000000000000E+00  0.0000000000000E+00 
 0.0000000000000E+00  0.0000000000000E+00  0.0000000000000E+00  0.0000000000000E+00  0.0000000000000E+00  0.0000000000000E+00  0.0000000000000E+00  0.0000000000000E+00  0.0000000000000E+00  0.0000000000000E+00 
ZONE T = "ANOD, 1.0000E-08", I = 10, SOLUTIONTIME = 1.000000E-08
ZONETYPE = ORDERED
DATAPACKING = BLOCK
STRANDID = 1
 0.0000000000000E+00  8.7488888888889E-05  1.7497777777778E-04  2.6246666666667E-04  3.4995555555556E-04  4.3744444444444E-04  5.2493333333333E-04  6.1242222222222E-04  6.9991111111111E-04  7.8740000000000E-04 
 5.7645286502835E-10  1.7293596718971E-09  2.8822706921546E-09  4.0351890636229E-09  5.1881179218087E-09  6.3410604045313E-09  7.4940196473288E-09  8.6469987880953E-09  9.8000009636879E-09  1.0376515137315E-08 
 9.1999999999965E-01  9.1999999999965E-01  9.1999999999965E-01  9.1999999999965E-01  9.1999999999965E-01  9.1999999999965E-01  9.1999999999965E-01  9.1999999999965E-01  9.1999999999965E-01  9.1999999999986E-01 
 4.0000000000173E-02  4.0000000000173E-02  4.0000000000173E-02  4.0000000000173E-02  4.0000000000173E-02  4.0000000000173E-02  4.0000000000173E-02  4.0000000000173E-02  4.0000000000173E-02  4.0000000000072E-02 
 4.0000000000173E-02  4.0000000000173E-02  4.0000000000173E-02  4.0000000000173E-02  4.0000000000173E-02  4.0000000000173E-02  4.0000000000173E-02  4.0000000000173E-02  4.0000000000173E-02  4.0000000000072E-02 
 3.5028732240932E-02  3.5028724418718E-02  3.5028700951931E-02  3.5028661840546E-02  3.5028607084424E-02  3.5028536683462E-02  3.5028450637519E-02  3.5028348946339E-02  3.5028231609583E-02  3.5028098627038E-02 
-2.5574474147430E-07 -2.5810086586056E-07 -2.6017980916702E-07 -2.6198157038070E-07 -2.6350614773422E-07 -2.6475353870638E-07 -2.6572374002158E-07 -2.6641674765036E-07 -2.6683255680888E-07 -2.6697116195911E-07 
-3.5028987985674E-02 -3.5028982519584E-02 -3.5028961131740E-02 -3.5028923822116E-02 -3.5028870590572E-02 -3.5028801437001E-02 -3.5028716361259E-02 -3.5028615363087E-02 -3.5028498442140E-02 -3.5028365598200E-02 
-4.0906712753147E-02 -4.0906712753145E-02 -4.0906712753147E-02 -4.0906712753147E-02 -4.0906712753142E-02 -4.0906712753145E-02 -4.0906712753145E-02 -4.0906712753142E-02 -4.0906712753142E-02 -4.0906712753207E-02 
 5.8777247674736E-03  5.8777302335612E-03  5.8777516214072E-03  5.8777889310312E-03  5.8778421625699E-03  5.8779113161439E-03  5.8779963918856E-03  5.8780973900552E-03  5.8782143110022E-03  5.8783471550067E-03 
 8.3025205611710E-01  1.6605056631770E+00  1.6605117317431E+00  1.6605223179403E+00  1.6605374218093E+00  1.6605570433818E+00  1.6605811827015E+00  1.6606098398449E+00  1.6606430149114E+00  8.3034035398342E-01 
 4.3018611844699E-09  1.2905663446764E-08  2.1509479217965E-08  3.0113371000010E-08  3.8717320250763E-08  4.7321346799766E-08  5.5925514335234E-08  6.4529867886157E-08  7.3134374174313E-08  7.3134374174313E-08 
 0.0000000000000E+00  1.6602738036809E+00  3.3205566193104E+00  4.9808480720657E+00  6.6411524042931E+00  8.3014697393382E+00  9.9618081347873E+00  1.1622178082366E+01  1.3282577253230E+01  1.4943122829895E+01 
 1.4943122289945E+01  1.3282731419146E+01  1.1622450755977E+01  9.9621617658385E+00  8.3018599316791E+00  6.6415407364540E+00  4.9811996630979E+00  3.3208321944880E+00  1.6604338125605E+00  0.0000000000000E+00 
 8.3025205611710E-09  1.6605056631770E-08  1.6605117317431E-08  1.6605223179403E-08  1.6605374218093E-08  1.6605570433818E-08  1.6605811827015E-08  1.6606098398449E-08  1.6606430149114E-08  8.3034035398342E-09 
 9.1448444543289E+04  1.8289688908658E+05  1.8289688908658E+05  1.8289688908658E+05  1.8289688908658E+05  1.8289688908658E+05  1.8289688908658E+05  1.8289688908658E+05  1.8289688908658E+05  9.1448444543289E+04 
 3.6579377817312E+05  7.3158755634623E+05  7.3158755634623E+05  7.3158755634623E+05  7.3158755634623E+05  7.3158755634623E+05  7.3158755634623E+05  7.3158755634623E+05  7.3158755634623E+05  3.6579377817312E+05 
 4.5724222271640E+05  9.1448444543281E+05  9.1448444543281E+05  9.1448444543281E+05  9.1448444543281E+05  9.1448444543281E+05  9.1448444543281E+05  9.1448444543281E+05  9.1448444543281E+05  4.5724222271640E+05 
 3.5000000000000E-01  3.5000000000000E-01  3.5000000000000E-01  3.5000000000000E-01  3.5000000000000E-01  3.5000000000000E-01  3.5000000000000E-01  3.5000000000000E-01  3.5000000000000E-01  3.5000000000000E-01 
 8.5301666666666E+00  1.7060333333333E+01  1.7060333333333E+01  1.7060333333333E+01  1.7060333333333E+01  1.7060333333333E+01  1.7060333333333E+01  1.7060333333333E+01  1.7060333333333E+01  8.5301666666666E+00 
 9.7331281856600E-02  9.7331372765892E-02  9.7331728477938E-02  9.7332348993201E-02  9.7333234314059E-02  9.7334384442377E-02  9.7335799380718E-02  9.7337479133558E-02  9.7339423706734E-02  9.7341633104092E-02 
 4.3744444444444E-05  8.7488888888889E-05  8.7488888888889E-05  8.7488888888889E-05  8.7488888888889E-05  8.7488888888889E-05  8.7488888888889E-05  8.7488888888889E-05  8.7488888888889E-05  4.3744444444444E-05 
 8.6666666666664E+01  8.6666666666664E+01  8.6666666666664E+01  8.6666666666664E+01  8.6666666666664E+01  8.6666666666664E+01  8.6666666666664E+01  8.6666666666664E+01  8.6666666666664E+01  8.6666666666664E+01 
 2.1666666666669E+01  2.1666666666669E+01  2.1666666666669E+01  2.1666666666669E+01  2.1666666666669E+01  2.1666666666669E+01  2.1666666666669E+01  2.1666666666669E+01  2.1666666666669E+01  2.1666666666669E+01 
 4.5428804254110E-12  7.0909243737579E-12  1.5208502739489E-11  2.9369151299859E-11  4.9573009583758E-11  7.5820225895206E-11  1.0811112266296E-10  1.4644618887961E-10  1.9082568148151E-10  2.1452653246398E-10 
 4.5428804254110E-04  7.0909243737579E-04  1.5208502739489E-03  2.9369151299859E-03  4.9573009583758E-03  7.5820225895206E-03  1.0811112266296E-02  1.4644618887961E-02  1.9082568148151E-02  2.1452653246398E-02 
 7.4220606088804E-05  3.7110716569010E-04  1.2617693882821E-03  2.7462187643821E-03  4.8244692317116E-03  7.4965354910043E-03  1.0762449540986E-02  1.4622259922258E-02  1.9075991855313E-02  2.1451337952005E-02 
 3.8006743645230E-04  3.3798527168570E-04  2.5908088566683E-04  1.9069636560384E-04  1.3283172666424E-04  8.5487098516358E-05  4.8662725310254E-05  2.2358965702293E-05  6.5762928371918E-06  1.3152943929515E-06 
 0.0000000000000E+00  0.0000000000000E+00  0.0000000000000E+00  0.0000000000000E+00  0.0000000000000E+00  0.0000000000000E+00  0.0000000000000E+00  0.0000000000000E+00  0.0000000000000E+00  0.0000000000000E+00 
 0.0000000000000E+00  0.0000000000000E+00  0.0000000000000E+00  0.0000000000000E+00  0.0000000000000E+00  0.0000000000000E+00  0.0000000000000E+00  0.0000000000000E+00  0.0000000000000E+00  0.0000000000000E+00 
 0.0000000000000E+00  0.0000000000000E+00  0.0000000000000E+00  0.0000000000000E+00  0.0000000000000E+00  0.0000000000000E+00  0.0000000000000E+00  0.0000000000000E+00  0.0000000000000E+00  0.0000000000000E+00 
ZONE T = "ANOD, 2.0000E-08", I = 10, SOLUTIONTIME = 2.000000E-08
ZONETYPE = ORDERED
DATAPACKING = BLOCK
STRANDID = 1
 0.0000000000000E+00  8.7488888888889E-05  1.7497777777778E-04  2.6246666666667E-04  3.4995555555556E-04  4.3744444444444E-04  5.2493333333333E-04  6.1242222222222E-04  6.9991111111111E-04  7.8740000000000E-04 
 5.7609501514114E-10  1.7279229146972E-09  2.8801182360642E-09  4.0323209086079E-09  5.1852604848970E-09  6.3382136866217E-09  7.4911836509636E-09  8.6441735151515E-09  9.7982760396556E-09  1.0374795577564E-08 
 9.1999999999931E-01  9.1999999999931E-01  9.1999999999931E-01  9.1999999999931E-01  9.1999999999931E-01  9.1999999999931E-01  9.1999999999931E-01  9.1999999999931E-01  9.1999999999931E-01  9.1999999999971E-01 
 4.0000000000346E-02  4.0000000000346E-02  4.0000000000346E-02  4.0000000000346E-02  4.0000000000346E-02  4.0000000000346E-02  4.0000000000346E-02  4.0000000000346E-02  4.0000000000346E-02  4.0000000000143E-02 
 4.0000000000346E-02  4.0000000000346E-02  4.0000000000346E-02  4.0000000000346E-02  4.0000000000346E-02  4.0000000000346E-02  4.0000000000346E-02  4.0000000000346E-02  4.0000000000346E-02  4.0000000000143E-02 
 3.5029481526569E-02  3.5029473704235E-02  3.5029450237219E-02  3.5029411125464E-02  3.5029356368870E-02  3.5029285967294E-02  3.5029199920552E-02  3.5029098228417E-02  3.5028980890617E-02  3.5028847906841E-02 
-2.5574711934066E-07 -2.5810326563418E-07 -2.6018222827160E-07 -2.6198400623976E-07 -2.6350859777132E-07 -2.6475600034467E-07 -2.6572621068399E-07 -2.6641922475924E-07 -2.6683503778611E-07 -2.6697364422601E-07 
-3.5029737273688E-02 -3.5029731807501E-02 -3.5029710419448E-02 -3.5029673109470E-02 -3.5029619877468E-02 -3.5029550723295E-02 -3.5029465646763E-02 -3.5029364647641E-02 -3.5029247725655E-02 -3.5029114880486E-02 
-4.0906712752895E-02 -4.0906712752900E-02 -4.0906712752895E-02 -4.0906712752895E-02 -4.0906712752896E-02 -4.0906712752900E-02 -4.0906712752900E-02 -4.0906712752896E-02 -4.0906712752896E-02 -4.0906712753026E-02 
 5.8769754792064E-03  5.8769809453988E-03  5.8770023334471E-03  5.8770396434243E-03  5.8770928754282E-03  5.8771620296050E-03  5.8772471061366E-03  5.8773481052544E-03  5.8774650272408E-03  5.8775978725406E-03 
 8.3014575505062E-01  1.6602930610694E+00  1.6602991296847E+00  1.6603097159645E+00  1.6603248199374E+00  1.6603444416501E+00  1.6603685811538E+00  1.6603972385170E+00  1.6604304138233E+00  8.3023405359081E-01 
 4.3019270362464E-09  1.2905789146782E-08  2.1509682706462E-08  3.0113631122919E-08  3.8717657801871E-08  4.7321786180635E-08  5.5926039656421E-08  6.4530441610474E-08  7.3135087249953E-08  7.3135087249953E-08 
 0.0000000000000E+00  1.6602922856203E+00  3.3205883809575E+00  4.9808928037681E+00  6.6412100714407E+00  8.3015447024680E+00  9.9619012142384E+00  1.1622284123772E+01  1.3282697949912E+01  1.4943147210900E+01 
 1.4943147210442E+01  1.3282854924856E+01  1.1622558829479E+01  9.9622544066546E+00  8.3019371387036E+00  6.6416025079099E+00  4.9812459965079E+00  3.3208630866726E+00  1.6604492605024E+00  0.0000000000000E+00 
 1.6603978111677E-08  3.3207987242464E-08  3.3208108614278E-08  3.3208320339049E-08  3.3208622417467E-08  3.3209014850318E-08  3.3209497638553E-08  3.3210070783619E-08  3.3210734287348E-08  1.6605744075742E-08 
 9.1448444543297E+04  1.8289688908659E+05  1.8289688908659E+05  1.8289688908659E+05  1.8289688908659E+05  1.8289688908659E+05  1.8289688908659E+05  1.8289688908659E+05  1.8289688908659E+05  9.1448444543297E+04 
 3.6579377817311E+05  7.3158755634621E+05  7.3158755634621E+05  7.3158755634621E+05  7.3158755634621E+05  7.3158755634621E+05  7.3158755634621E+05  7.3158755634621E+05  7.3158755634621E+05  3.6579377817311E+05 
 4.5724222271640E+05  9.1448444543281E+05  9.1448444543281E+05  9.1448444543281E+05  9.1448444543281E+05  9.1448444543281E+05  9.1448444543281E+05  9.1448444543281E+05  9.1448444543281E+05  4.5724222271640E+05 
 3.5000000000000E-01  3.5000000000000E-01  3.5000000000000E-01  3.5000000000000E-01  3.5000000000000E-01  3.5000000000000E-01  3.5000000000000E-01  3.5000000000000E-01  3.5000000000000E-01  3.5000000000000E-01 
 8.5301666666666E+00  1.7060333333333E+01  1.7060333333333E+01  1.7060333333333E+01  1.7060333333333E+01  1.7060333333333E+01  1.7060333333333E+01  1.7060333333333E+01  1.7060333333333E+01  8.5301666666666E+00 
 9.7318820075883E-02  9.7318910986657E-02  9.7319266701592E-02  9.7319887221697E-02  9.7320772548647E-02  9.7321922685179E-02  9.7323337634306E-02  9.7325017400031E-02  9.7326961987261E-02  9.7329171402374E-02 
 4.3744444444444E-05  8.7488888888889E-05  8.7488888888889E-05  8.7488888888889E-05  8.7488888888889E-05  8.7488888888889E-05  8.7488888888889E-05  8.7488888888889E-05  8.7488888888889E-05  4.3744444444444E-05 
 8.6666666666662E+01  8.6666666666662E+01  8.6666666666662E+01  8.6666666666662E+01  8.6666666666662E+01  8.6666666666662E+01  8.6666666666662E+01  8.6666666666662E+01  8.6666666666662E+01  8.6666666666662E+01 
 2.1666666666671E+01  2.1666666666671E+01  2.1666666666671E+01  2.1666666666671E+01  2.1666666666671E+01  2.1666666666671E+01  2.1666666666671E+01  2.1666666666671E+01  2.1666666666671E+01  2.1666666666671E+01 
 9.0858542524874E-12  1.4181988024022E-11  3.0417294265435E-11  5.8738827769882E-11  9.9146882193802E-11  1.5164182575179E-10  2.1622426655057E-10  2.9289504502350E-10  3.8165483537716E-10  4.2905703788804E-10 
 4.5429738270764E-04  7.0910636502642E-04  1.5208791525946E-03  2.9369676470023E-03  4.9573872610044E-03  7.5821599856579E-03  1.0811314388761E-02  1.4644885614390E-02  1.9082915389566E-02  2.1453050542406E-02 
 1.4844348457211E-04  7.4222197369064E-04  2.5235628369737E-03  5.4924864991015E-03  9.6490222953882E-03  1.4993206787956E-02  2.1525100299151E-02  2.9244786154958E-02  3.8152330829678E-02  4.2903073175541E-02 
 7.6014194067663E-04  6.7597682871157E-04  5.1816658956977E-04  3.8139627788668E-04  2.6566592399200E-04  1.7097578722243E-04  9.7326355906075E-05  4.4718347391938E-05  1.3152708037851E-05  2.6306132627940E-06 
 0.0000000000000E+00  0.0000000000000E+00  0.0000000000000E+00  0.0000000000000E+00  0.0000000000000E+00  0.0000000000000E+00  0.0000000000000E+00  0.0000000000000E+00  0.0000000000000E+00  0.0000000000000E+00 
 0.0000000000000E+00  0.0000000000000E+00  0.0000000000000E+00  0.0000000000000E+00  0.0000000000000E+00  0.0000000000000E+00  0.0000000000000E+00  0.0000000000000E+00  0.0000000000000E+00  0.0000000000000E+00 
 0.0000000000000E+00  0.0000000000000E+00  0.0000000000000E+00  0.0000000000000E+00  0.0000000000000E+00  0.0000000000000E+00  0.0000000000000E+00  0.0000000000000E+00  0.0000000000000E+00  0.0000000000000E+00 
ZONE T = "ANOD, 3.0000E-08", I = 10, SOLUTIONTIME = 3.000000E-08
ZONETYPE = ORDERED
DATAPACKING = BLOCK
STRANDID = 1
 0.0000000000000E+00  8.7488888888889E-05  1.7497777777778E-04  2.6246666666667E-04  3.4995555555556E-04  4.3744444444444E-04  5.2493333333333E-04  6.1242222222222E-04  6.9991111111111E-04  7.8740000000000E-04 
 5.7663982672901E-10  1.7291941417333E-09  2.8824790862761E-09  4.0357713819954E-09  5.1894373737338E-09  6.3413009522679E-09  7.4935445011469E-09  8.6454447421450E-09  9.7980944357317E-09  1.0374613973642E-08 
 9.1999999999896E-01  9.1999999999896E-01  9.1999999999896E-01  9.1999999999896E-01  9.1999999999896E-01  9.1999999999896E-01  9.1999999999896E-01  9.1999999999896E-01  9.1999999999896E-01  9.1999999999957E-01 
 4.0000000000520E-02  4.0000000000520E-02  4.0000000000520E-02  4.0000000000520E-02  4.0000000000520E-02  4.0000000000520E-02  4.0000000000520E-02  4.0000000000520E-02  4.0000000000520E-02  4.0000000000215E-02 
 4.0000000000520E-02  4.0000000000520E-02  4.0000000000520E-02  4.0000000000520E-02  4.0000000000520E-02  4.0000000000520E-02  4.0000000000520E-02  4.0000000000520E-02  4.0000000000520E-02  4.0000000000215E-02 
 3.5029481526376E-02  3.5029473704042E-02  3.5029450237026E-02  3.5029411125271E-02  3.5029356368677E-02  3.5029285967101E-02  3.5029199920359E-02  3.5029098228224E-02  3.5028980890424E-02  3.5028847906648E-02 
-2.5574711933924E-07 -2.5810326563275E-07 -2.6018222827015E-07 -2.6198400623831E-07 -2.6350859776986E-07 -2.6475600034320E-07 -2.6572621068252E-07 -2.6641922475777E-07 -2.6683503778463E-07 -2.6697364422454E-07 
-3.5029737273495E-02 -3.5029731807308E-02 -3.5029710419255E-02 -3.5029673109277E-02 -3.5029619877275E-02 -3.5029550723102E-02 -3.5029465646570E-02 -3.5029364647448E-02 -3.5029247725462E-02 -3.5029114880293E-02 
-4.0906712752646E-02 -4.0906712752646E-02 -4.0906712752646E-02 -4.0906712752646E-02 -4.0906712752648E-02 -4.0906712752644E-02 -4.0906712752644E-02 -4.0906712752648E-02 -4.0906712752648E-02 -4.0906712752843E-02 
 5.8769754791508E-03  5.8769809453382E-03  5.8770023333915E-03  5.8770396433687E-03  5.8770928753731E-03  5.8771620295427E-03  5.8772471060743E-03  5.8773481051993E-03  5.8774650271857E-03  5.8775978725507E-03 
 8.3014575504519E-01  1.6602930610588E+00  1.6602991296739E+00  1.6603097159537E+00  1.6603248199283E+00  1.6603444416395E+00  1.6603685811433E+00  1.6603972385079E+00  1.6604304138141E+00  8.3023405359441E-01 
 4.3019270385201E-09  1.2905789144583E-08  2.1509682706555E-08  3.0113631120795E-08  3.8717657802039E-08  4.7321786180840E-08  5.5926039649024E-08  6.4530441616138E-08  7.3135123117916E-08  7.3135123117916E-08 
 0.0000000000000E+00  1.6602922856274E+00  3.3205883809718E+00  4.9808928037897E+00  6.6412100714694E+00  8.3015447025039E+00  9.9619012139134E+00  1.1622284123822E+01  1.3282697949961E+01  1.4943147210211E+01 
 1.4943147210359E+01  1.3282854924784E+01  1.1622558829418E+01  9.9622544066042E+00  8.3019371386632E+00  6.6416025078793E+00  4.9812459964880E+00  3.3208630866626E+00  1.6604492605014E+00  0.0000000000000E+00 
 2.4905435662129E-08  4.9810917853052E-08  4.9811099911017E-08  4.9811417498586E-08  4.9811870616750E-08  4.9812459266713E-08  4.9813183449986E-08  4.9814043168697E-08  4.9815038425489E-08  2.4908084611686E-08 
 9.1448444543306E+04  1.8289688908661E+05  1.8289688908661E+05  1.8289688908661E+05  1.8289688908661E+05  1.8289688908661E+05  1.8289688908661E+05  1.8289688908661E+05  1.8289688908661E+05  9.1448444543306E+04 
 3.6579377817310E+05  7.3158755634620E+05  7.3158755634620E+05  7.3158755634620E+05  7.3158755634620E+05  7.3158755634620E+05  7.3158755634620E+05  7.3158755634620E+05  7.3158755634620E+05  3.6579377817310E+05 
 4.5724222271640E+05  9.1448444543281E+05  9.1448444543281E+05  9.1448444543281E+05  9.1448444543281E+05  9.1448444543281E+05  9.1448444543281E+05  9.1448444543281E+05  9.1448444543281E+05  4.5724222271640E+05 
 3.5000000000000E-01  3.5000000000000E-01  3.5000000000000E-01  3.5000000000000E-01  3.5000000000000E-01  3.5000000000000E-01  3.5000000000000E-01  3.5000000000000E-01  3.5000000000000E-01  3.5000000000000E-01 
 8.5301666666666E+00  1.7060333333333E+01  1.7060333333333E+01  1.7060333333333E+01  1.7060333333333E+01  1.7060333333333E+01  1.7060333333333E+01  1.7060333333333E+01  1.7060333333333E+01  8.5301666666666E+00 
 9.7318820075246E-02  9.7318910986036E-02  9.7319266700955E-02  9.7319887221060E-02  9.7320772548112E-02  9.7321922684558E-02  9.7323337633690E-02  9.7325017399497E-02  9.7326961986721E-02  9.7329171402795E-02 
 4.3744444444444E-05  8.7488888888889E-05  8.7488888888889E-05  8.7488888888889E-05  8.7488888888889E-05  8.7488888888889E-05  8.7488888888889E-05  8.7488888888889E-05  8.7488888888889E-05  4.3744444444444E-05 
 8.6666666666660E+01  8.6666666666660E+01  8.6666666666660E+01  8.6666666666660E+01  8.6666666666660E+01  8.6666666666660E+01  8.6666666666660E+01  8.6666666666660E+01  8.6666666666660E+01  8.6666666666660E+01 
 2.1666666666672E+01  2.1666666666672E+01  2.1666666666672E+01  2.1666666666672E+01  2.1666666666672E+01  2.1666666666672E+01  2.1666666666672E+01  2.1666666666672E+01  2.1666666666672E+01  2.1666666666672E+01 
 1.3628828079525E-11  2.1273051674266E-11  4.5626085791408E-11  8.8108504240005E-11  1.4872075480404E-10  2.2746342560868E-10  3.2433741043008E-10  4.3934390116935E-10  5.7248398927219E-10  6.4358754329036E-10 
 4.5429738270380E-04  7.0910636502435E-04  1.5208791525973E-03  2.9369676470123E-03  4.9573872610240E-03  7.5821599856896E-03  1.0811314387951E-02  1.4644885614585E-02  1.9082915389503E-02  2.1453050540233E-02 
 2.2266636305574E-04  1.1133367816928E-03  3.7853562856708E-03  8.2387542338329E-03  1.4473575359086E-02  2.2489878084940E-02  3.2287751056507E-02  4.3867312387854E-02  5.7228669803980E-02  6.4354808396904E-02 
 1.1402164448968E-03  1.0139683857338E-03  7.7725229346997E-04  5.7209619016759E-04  3.9850012131847E-04  2.5646447592770E-04  1.4598998650150E-04  6.7077729081442E-05  1.9729123238490E-05  3.9459321326476E-06 
 0.0000000000000E+00  0.0000000000000E+00  0.0000000000000E+00  0.0000000000000E+00  0.0000000000000E+00  0.0000000000000E+00  0.0000000000000E+00  0.0000000000000E+00  0.0000000000000E+00  0.0000000000000E+00 
 0.0000000000000E+00  0.0000000000000E+00  0.0000000000000E+00  0.0000000000000E+00  0.0000000000000E+00  0.0000000000000E+00  0.0000000000000E+00  0.0000000000000E+00  0.0000000000000E+00  0.0000000000000E+00 
 0.0000000000000E+00  0.0000000000000E+00  0.0000000000000E+00  0.0000000000000E+00  0.0000000000000E+00  0.0000000000000E+00  0.0000000000000E+00  0.0000000000000E+00  0.0000000000000E+00  0.0000000000000E+00 
ZONE T = "ANOD, 4.0000E-08", I = 10, SOLUTIONTIME = 4.000000E-08
ZONETYPE = ORDERED
DATAPACKING = BLOCK
STRANDID = 1
 0.0000000000000E+00  8.7488888888889E-05  1.7497777777778E-04  2.6246666666667E-04  3.4995555555556E-04  4.3744444444444E-04  5.2493333333333E-04  6.1242222222222E-04  6.9991111111111E-04  7.8740000000000E-04 
 5.7645822286161E-10  1.7293757455864E-09  2.8822974823945E-09  4.0352265703790E-09  5.1881661466549E-09  6.3414825560931E-09  7.4944525204207E-09  8.6481688000509E-09  9.8011817013584E-09  1.0376974823816E-08 
 9.1999999999861E-01  9.1999999999861E-01  9.1999999999861E-01  9.1999999999861E-01  9.1999999999861E-01  9.1999999999861E-01  9.1999999999861E-01  9.1999999999861E-01  9.1999999999861E-01  9.1999999999943E-01 
 4.0000000000693E-02  4.0000000000693E-02  4.0000000000693E-02  4.0000000000693E-02  4.0000000000693E-02  4.0000000000693E-02  4.0000000000693E-02  4.0000000000693E-02  4.0000000000693E-02  4.0000000000287E-02 
 4.0000000000693E-02  4.0000000000693E-02  4.0000000000693E-02  4.0000000000693E-02  4.0000000000693E-02  4.0000000000693E-02  4.0000000000693E-02  4.0000000000693E-02  4.0000000000693E-02  4.0000000000287E-02 
 3.5029481526187E-02  3.5029473703853E-02  3.5029450236837E-02  3.5029411125082E-02  3.5029356368488E-02  3.5029285966912E-02  3.5029199920170E-02  3.5029098228035E-02  3.5028980890235E-02  3.5028847906460E-02 
-2.5574711933783E-07 -2.5810326563132E-07 -2.6018222826872E-07 -2.6198400623687E-07 -2.6350859776840E-07 -2.6475600034174E-07 -2.6572621068106E-07 -2.6641922475631E-07 -2.6683503778317E-07 -2.6697364422308E-07 
-3.5029737273306E-02 -3.5029731807119E-02 -3.5029710419066E-02 -3.5029673109088E-02 -3.5029619877086E-02 -3.5029550722913E-02 -3.5029465646381E-02 -3.5029364647260E-02 -3.5029247725273E-02 -3.5029114880104E-02 
-4.0906712752400E-02 -4.0906712752400E-02 -4.0906712752400E-02 -4.0906712752400E-02 -4.0906712752397E-02 -4.0906712752397E-02 -4.0906712752397E-02 -4.0906712752397E-02 -4.0906712752397E-02 -4.0906712752658E-02 
 5.8769754790932E-03  5.8769809452806E-03  5.8770023333339E-03  5.8770396433111E-03  5.8770928753114E-03  5.8771620294844E-03  5.8772471060160E-03  5.8773481051376E-03  5.8774650271240E-03  5.8775978725542E-03 
 8.3014575504011E-01  1.6602930610483E+00  1.6602991296637E+00  1.6603097159435E+00  1.6603248199183E+00  1.6603444416295E+00  1.6603685811332E+00  1.6603972384978E+00  1.6604304138042E+00  8.3023405359763E-01 