TITLE = "Solution on Domain BulkDomain1D_0"
VARIABLES = "x [m]"  
"Vel_axial" 
"MF_sp(ECDMC)" 
"MF_sp(Li+)" 
"MF_sp(PF6-)" 
"Volt(Electroly)" 
"Volt(AnodeVolt)" 
"Potential Drop Electrode-Electrolyte [V]" 
"Surf_0 Equilibrium Potential Drop Electrode-Electrolyte [V]" 
"Overpotential_0 [V]" 
"Current Source [A/m^2]" 
"Li+ flux [kmol/m^2/s]" 
"Electrolyte Current [A/m^2]" 
"Electrode Current [A/m^2]" 
"CV Capacity discharged [A-s/m^2]" 
"Depth of discharge in CV [A-s/m^2]" 
"CV Capacity remaining [A-s/m^2]" 
"Initial CV capacity [A-s/m^2]" 
"Porosity []" 
"Surface Area [m2/m2] (area per area)" 
"Specific current (per particle area) [A/m^2]" 
"Control volume thickness [m]" 
"MoleDens Li_C6-bulk [kmol/m^3]" 
"MoleDens V_C6-bulk [kmol/m^3]" 
"qHeat_accum [J/m3]" 
"qHeat_step [W/m3]" 
"Joule_Lyte [W/m3]" 
"Joule_Solid [W/m3]" 
"electrodHeat [W/m3]" 
"OverpotHeat [W/m3]" 
"deltaSHeat [W/m3]" 

ZONE T = "ANOD, 0.0000E+00", I = 10, SOLUTIONTIME = 0.000000E+00
ZONETYPE = ORDERED
DATAPACKING = BLOCK
STRANDID = 1
 0.0000000000000E+00  8.7488888888889E-05  1.7497777777778E-04  2.6246666666667E-04  3.4995555555556E-04  4.3744444444444E-04  5.2493333333333E-04  6.1242222222222E-04  6.9991111111111E-04  7.8740000000000E-04 
 0.0000000000000E+00  0.0000000000000E+00  0.0000000000000E+00  0.0000000000000E+00  0.0000000000000E+00  0.0000000000000E+00  0.0000000000000E+00  0.0000000000000E+00  0.0000000000000E+00  0.0000000000000E+00 
 9.2000000000000E-01  9.2000000000000E-01  9.2000000000000E-01  9.2000000000000E-01  9.2000000000000E-01  9.2000000000000E-01  9.2000000000000E-01  9.2000000000000E-01  9.2000000000000E-01  9.2000000000000E-01 
 4.0000000000000E-02  4.0000000000000E-02  4.0000000000000E-02  4.0000000000000E-02  4.0000000000000E-02  4.0000000000000E-02  4.0000000000000E-02  4.0000000000000E-02  4.0000000000000E-02  4.0000000000000E-02 
 4.0000000000000E-02  4.0000000000000E-02  4.0000000000000E-02  4.0000000000000E-02  4.0000000000000E-02  4.0000000000000E-02  4.0000000000000E-02  4.0000000000000E-02  4.0000000000000E-02  4.0000000000000E-02 
-7.0000000000000E-02 -7.0000000000000E-02 -7.0000000000000E-02 -7.0000000000000E-02 -7.0000000000000E-02 -7.0000000000000E-02 -7.0000000000000E-02 -7.0000000000000E-02 -7.0000000000000E-02 -7.0000000000000E-02 
 0.0000000000000E+00  0.0000000000000E+00  0.0000000000000E+00  0.0000000000000E+00  0.0000000000000E+00  0.0000000000000E+00  0.0000000000000E+00  0.0000000000000E+00  0.0000000000000E+00  0.0000000000000E+00 
 7.0000000000000E-02  7.0000000000000E-02  7.0000000000000E-02  7.0000000000000E-02  7.0000000000000E-02  7.0000000000000E-02  7.0000000000000E-02  7.0000000000000E-02  7.0000000000000E-02  7.0000000000000E-02 
-4.0906712753392E-02 -4.0906712753392E-02 -4.0906712753392E-02 -4.0906712753392E-02 -4.0906712753392E-02 -4.0906712753392E-02 -4.0906712753392E-02 -4.0906712753392E-02 -4.0906712753392E-02 -4.0906712753392E-02 
 1.1090671275339E-01  1.1090671275339E-01  1.1090671275339E-01  1.1090671275339E-01  1.1090671275339E-01  1.1090671275339E-01  1.1090671275339E-01  1.1090671275339E-01  1.1090671275339E-01  1.1090671275339E-01 
 3.0930240924008E+01  6.1860481848016E+01  6.1860481848016E+01  6.1860481848016E+01  6.1860481848016E+01  6.1860481848016E+01  6.1860481848016E+01  6.1860481848016E+01  6.1860481848016E+01  3.0930240924008E+01 
-0.0000000000000E+00 -0.0000000000000E+00 -0.0000000000000E+00 -0.0000000000000E+00 -0.0000000000000E+00 -0.0000000000000E+00 -0.0000000000000E+00 -0.0000000000000E+00 -0.0000000000000E+00 -0.0000000000000E+00 
 0.0000000000000E+00  0.0000000000000E+00  0.0000000000000E+00  0.0000000000000E+00  0.0000000000000E+00  0.0000000000000E+00  0.0000000000000E+00  0.0000000000000E+00  0.0000000000000E+00  3.0930240924008E+01 
 3.0930240924008E+01 -0.0000000000000E+00 -0.0000000000000E+00 -0.0000000000000E+00 -0.0000000000000E+00 -0.0000000000000E+00 -0.0000000000000E+00 -0.0000000000000E+00 -0.0000000000000E+00  0.0000000000000E+00 
 0.0000000000000E+00  0.0000000000000E+00  0.0000000000000E+00  0.0000000000000E+00  0.0000000000000E+00  0.0000000000000E+00  0.0000000000000E+00  0.0000000000000E+00  0.0000000000000E+00  0.0000000000000E+00 
 9.1448444543281E+04  1.8289688908656E+05  1.8289688908656E+05  1.8289688908656E+05  1.8289688908656E+05  1.8289688908656E+05  1.8289688908656E+05  1.8289688908656E+05  1.8289688908656E+05  9.1448444543281E+04 
 3.6579377817312E+05  7.3158755634625E+05  7.3158755634625E+05  7.3158755634625E+05  7.3158755634625E+05  7.3158755634625E+05  7.3158755634625E+05  7.3158755634625E+05  7.3158755634625E+05  3.6579377817312E+05 
 4.5724222271640E+05  9.1448444543281E+05  9.1448444543281E+05  9.1448444543281E+05  9.1448444543281E+05  9.1448444543281E+05  9.1448444543281E+05  9.1448444543281E+05  9.1448444543281E+05  4.5724222271640E+05 
 3.5000000000000E-01  3.5000000000000E-01  3.5000000000000E-01  3.5000000000000E-01  3.5000000000000E-01  3.5000000000000E-01  3.5000000000000E-01  3.5000000000000E-01  3.5000000000000E-01  3.5000000000000E-01 
 8.5301666666666E+00  1.7060333333333E+01  1.7060333333333E+01  1.7060333333333E+01  1.7060333333333E+01  1.7060333333333E+01  1.7060333333333E+01  1.7060333333333E+01  1.7060333333333E+01  8.5301666666666E+00 
 3.6259831879809E+00  3.6259831879809E+00  3.6259831879809E+00  3.6259831879809E+00  3.6259831879809E+00  3.6259831879809E+00  3.6259831879809E+00  3.6259831879809E+00  3.6259831879809E+00  3.6259831879809E+00 
 4.3744444444444E-05  8.7488888888889E-05  8.7488888888889E-05  8.7488888888889E-05  8.7488888888889E-05  8.7488888888889E-05  8.7488888888889E-05  8.7488888888889E-05  8.7488888888889E-05  4.3744444444444E-05 
 8.6666666666666E+01  8.6666666666666E+01  8.6666666666666E+01  8.6666666666666E+01  8.6666666666666E+01  8.6666666666666E+01  8.6666666666666E+01  8.6666666666666E+01  8.6666666666666E+01  8.6666666666666E+01 
 2.1666666666667E+01  2.1666666666667E+01  2.1666666666667E+01  2.1666666666667E+01  2.1666666666667E+01  2.1666666666667E+01  2.1666666666667E+01  2.1666666666667E+01  2.1666666666667E+01  2.1666666666667E+01 
 0.0000000000000E+00  0.0000000000000E+00  0.0000000000000E+00  0.0000000000000E+00  0.0000000000000E+00  0.0000000000000E+00  0.0000000000000E+00  0.0000000000000E+00  0.0000000000000E+00  0.0000000000000E+00 
 0.0000000000000E+00  0.0000000000000E+00  0.0000000000000E+00  0.0000000000000E+00  0.0000000000000E+00  0.0000000000000E+00  0.0000000000000E+00  0.0000000000000E+00  0.0000000000000E+00  0.0000000000000E+00 
 0.0000000000000E+00  0.0000000000000E+00  0.0000000000000E+00  0.0000000000000E+00  0.0000000000000E+00  0.0000000000000E+00  0.0000000000000E+00  0.0000000000000E+00  0.0000000000000E+00  0.0000000000000E+00 
 0.0000000000000E+00  0.0000000000000E+00  0.0000000000000E+00  0.0000000000000E+00  0.0000000000000E+00  0.0000000000000E+00  0.0000000000000E+00  0.0000000000000E+00  0.0000000000000E+00  0.0000000000000E+00 
 0.0000000000000E+00  0.0000000000000E+00  0.0000000000000E+00  0.0000000000000E+00  0.0000000000000E+00  0.0000000000000E+00  0.0000000000000E+00  0.0000000000000E+00  0.0000000000000E+00  0.0000000000000E+00 
 0.0000000000000E+00  0.0000000000000E+00  0.0000000000000E+00  0.0000000000000E+00  0.0000000000000E+00  0.0000000000000E+00  0.0000000000000E+00  0.0000000000000E+00  0.0000000000000E+00  0.0000000000000E+00 
 0.0000000000000E+00  0.0000000000000E+00  0.0000000000000E+00  0.0000000000000E+00  0.0000000000000E+00  0.0000000000000E+00  0.0000000000000E+00  0.0000000000000E+00  0.0000000000000E+00  0.0000000000000E+00 
ZONE T = "ANOD, 1.0000E-08", I = 10, SOLUTIONTIME = 1.000000E-08
ZONETYPE = ORDERED
DATAPACKING = BLOCK
STRANDID = 1
 0.0000000000000E+00  8.7488888888889E-05  1.7497777777778E-04  2.6246666666667E-04  3.4995555555556E-04  4.3744444444444E-04  5.2493333333333E-04  6.1242222222222E-04  6.9991111111111E-04  7.8740000000000E-04 
 5.7645286447110E-10  1.7293596702621E-09  2.8822706906392E-09  4.0351890621979E-09  5.1881179204291E-09  6.3410604031971E-09  7.4940196471958E-09  8.6469987880404E-09  9.8000009636613E-09  1.0376515137897E-08 
 9.1999999999965E-01  9.1999999999965E-01  9.1999999999965E-01  9.1999999999965E-01  9.1999999999965E-01  9.1999999999965E-01  9.1999999999965E-01  9.1999999999965E-01  9.1999999999965E-01  9.1999999999986E-01 
 4.0000000000173E-02  4.0000000000173E-02  4.0000000000173E-02  4.0000000000173E-02  4.0000000000173E-02  4.0000000000173E-02  4.0000000000173E-02  4.0000000000173E-02  4.0000000000173E-02  4.0000000000072E-02 
 4.0000000000173E-02  4.0000000000173E-02  4.0000000000173E-02  4.0000000000173E-02  4.0000000000173E-02  4.0000000000173E-02  4.0000000000173E-02  4.0000000000173E-02  4.0000000000173E-02  4.0000000000072E-02 
 3.5028732240575E-02  3.5028724418357E-02  3.5028700951478E-02  3.5028661840185E-02  3.5028607084067E-02  3.5028536683106E-02  3.5028450637159E-02  3.5028348945980E-02  3.5028231609346E-02  3.5028098626805E-02 
-2.5574474148830E-07 -2.5810086587484E-07 -2.6017980918183E-07 -2.6198157039601E-07 -2.6350614775001E-07 -2.6475353872264E-07 -2.6572374003830E-07 -2.6641674766725E-07 -2.6683255682591E-07 -2.6697116197629E-07 
-3.5028987985317E-02 -3.5028982519223E-02 -3.5028961131287E-02 -3.5028923821755E-02 -3.5028870590215E-02 -3.5028801436644E-02 -3.5028716360899E-02 -3.5028615362727E-02 -3.5028498441903E-02 -3.5028365597967E-02 
-4.0906712753147E-02 -4.0906712753145E-02 -4.0906712753147E-02 -4.0906712753147E-02 -4.0906712753142E-02 -4.0906712753145E-02 -4.0906712753145E-02 -4.0906712753142E-02 -4.0906712753142E-02 -4.0906712753207E-02 
 5.8777247678304E-03  5.8777302339222E-03  5.8777516218602E-03  5.8777889313921E-03  5.8778421629269E-03  5.8779113165006E-03  5.8779963922464E-03  5.8780973904142E-03  5.8782143112389E-03  5.8783471552397E-03 
 8.3025205616766E-01  1.6605056632795E+00  1.6605117318717E+00  1.6605223180427E+00  1.6605374219106E+00  1.6605570434830E+00  1.6605811828039E+00  1.6606098399468E+00  1.6606430149786E+00  8.3034035401651E-01 
 4.3018635657009E-09  1.2905713952522E-08  2.1509428593909E-08  3.0113368935513E-08  3.8717319998902E-08  4.7321349081779E-08  5.5925513362135E-08  6.4529800578219E-08  7.3134372147977E-08  7.3134372147977E-08 
 0.0000000000000E+00  1.6602789064998E+00  3.3205566078964E+00  4.9808429883929E+00  6.6411521807986E+00  8.3014699352181E+00  9.9618082610783E+00  1.1622171494247E+01  1.3282570563489E+01  1.4943122438904E+01 
 1.4943122291618E+01  1.3282731421547E+01  1.1622450759069E+01  9.9621617687764E+00  8.3018599345201E+00  6.6415407392290E+00  4.9811996649721E+00  3.3208321954411E+00  1.6604338134390E+00  0.0000000000000E+00 
 8.3025205616766E-09  1.6605056632795E-08  1.6605117318717E-08  1.6605223180427E-08  1.6605374219106E-08  1.6605570434830E-08  1.6605811828039E-08  1.6606098399468E-08  1.6606430149786E-08  8.3034035401651E-09 
 9.1448444543289E+04  1.8289688908658E+05  1.8289688908658E+05  1.8289688908658E+05  1.8289688908658E+05  1.8289688908658E+05  1.8289688908658E+05  1.8289688908658E+05  1.8289688908658E+05  9.1448444543289E+04 
 3.6579377817312E+05  7.3158755634623E+05  7.3158755634623E+05  7.3158755634623E+05  7.3158755634623E+05  7.3158755634623E+05  7.3158755634623E+05  7.3158755634623E+05  7.3158755634623E+05  3.6579377817312E+05 
 4.5724222271640E+05  9.1448444543281E+05  9.1448444543281E+05  9.1448444543281E+05  9.1448444543281E+05  9.1448444543281E+05  9.1448444543281E+05  9.1448444543281E+05  9.1448444543281E+05  4.5724222271640E+05 
 3.5000000000000E-01  3.5000000000000E-01  3.5000000000000E-01  3.5000000000000E-01  3.5000000000000E-01  3.5000000000000E-01  3.5000000000000E-01  3.5000000000000E-01  3.5000000000000E-01  3.5000000000000E-01 
 8.5301666666666E+00  1.7060333333333E+01  1.7060333333333E+01  1.7060333333333E+01  1.7060333333333E+01  1.7060333333333E+01  1.7060333333333E+01  1.7060333333333E+01  1.7060333333333E+01  8.5301666666666E+00 
 9.7331281862527E-02  9.7331372771898E-02  9.7331728485474E-02  9.7332348999201E-02  9.7333234319998E-02  9.7334384448310E-02  9.7335799386718E-02  9.7337479139533E-02  9.7339423710669E-02  9.7341633107972E-02 
 4.3744444444444E-05  8.7488888888889E-05  8.7488888888889E-05  8.7488888888889E-05  8.7488888888889E-05  8.7488888888889E-05  8.7488888888889E-05  8.7488888888889E-05  8.7488888888889E-05  4.3744444444444E-05 
 8.6666666666664E+01  8.6666666666664E+01  8.6666666666664E+01  8.6666666666664E+01  8.6666666666664E+01  8.6666666666664E+01  8.6666666666664E+01  8.6666666666664E+01  8.6666666666664E+01  8.6666666666664E+01 
 2.1666666666669E+01  2.1666666666669E+01  2.1666666666669E+01  2.1666666666669E+01  2.1666666666669E+01  2.1666666666669E+01  2.1666666666669E+01  2.1666666666669E+01  2.1666666666669E+01  2.1666666666669E+01 
 4.5428812479592E-12  7.0909509274853E-12  1.5208485211068E-11  2.9369105136124E-11  4.9573006700207E-11  7.5820229835807E-11  1.0811112481171E-10  1.4644601250096E-10  1.9082550134188E-10  2.1452652057695E-10 
 4.5428812479592E-04  7.0909509274853E-04  1.5208485211068E-03  2.9369105136124E-03  4.9573006700207E-03  7.5820229835807E-03  1.0811112481171E-02  1.4644601250096E-02  1.9082550134188E-02  2.1452652057695E-02 
 7.4220688256244E-05  3.7110982094359E-04  1.2617676353026E-03  2.7462141478966E-03  4.8244689432663E-03  7.4965358849939E-03  1.0762449755822E-02  1.4622242284381E-02  1.9075973841346E-02  2.1451336763299E-02 
 3.8006743653967E-04  3.3798527180494E-04  2.5908088580425E-04  1.9069636571575E-04  1.3283172675435E-04  8.5487098586806E-05  4.8662725348626E-05  2.2358965714548E-05  6.5762928428187E-06  1.3152943956753E-06 
 0.0000000000000E+00  0.0000000000000E+00  0.0000000000000E+00  0.0000000000000E+00  0.0000000000000E+00  0.0000000000000E+00  0.0000000000000E+00  0.0000000000000E+00  0.0000000000000E+00  0.0000000000000E+00 
 0.0000000000000E+00  0.0000000000000E+00  0.0000000000000E+00  0.0000000000000E+00  0.0000000000000E+00  0.0000000000000E+00  0.0000000000000E+00  0.0000000000000E+00  0.0000000000000E+00  0.0000000000000E+00 
 0.0000000000000E+00  0.0000000000000E+00  0.0000000000000E+00  0.0000000000000E+00  0.0000000000000E+00  0.0000000000000E+00  0.0000000000000E+00  0.0000000000000E+00  0.0000000000000E+00  0.0000000000000E+00 
ZONE T = "ANOD, 2.0000E-08", I = 10, SOLUTIONTIME = 2.000000E-08
ZONETYPE = ORDERED
DATAPACKING = BLOCK
STRANDID = 1
 0.0000000000000E+00  8.7488888888889E-05  1.7497777777778E-04  2.6246666666667E-04  3.4995555555556E-04  4.3744444444444E-04  5.2493333333333E-04  6.1242222222222E-04  6.9991111111111E-04  7.8740000000000E-04 
 5.7609501514972E-10  1.7279229147230E-09  2.8801182361072E-09  4.0323209086680E-09  5.1852604849743E-09  6.3382136867163E-09  7.4911836510754E-09  8.6441735152805E-09  9.7982760398018E-09  1.0374795577719E-08 
 9.1999999999931E-01  9.1999999999931E-01  9.1999999999931E-01  9.1999999999931E-01  9.1999999999931E-01  9.1999999999931E-01  9.1999999999931E-01  9.1999999999931E-01  9.1999999999931E-01  9.1999999999971E-01 
 4.0000000000346E-02  4.0000000000346E-02  4.0000000000346E-02  4.0000000000346E-02  4.0000000000346E-02  4.0000000000346E-02  4.0000000000346E-02  4.0000000000346E-02  4.0000000000346E-02  4.0000000000143E-02 
 4.0000000000346E-02  4.0000000000346E-02  4.0000000000346E-02  4.0000000000346E-02  4.0000000000346E-02  4.0000000000346E-02  4.0000000000346E-02  4.0000000000346E-02  4.0000000000346E-02  4.0000000000143E-02 
 3.5029481526482E-02  3.5029473704148E-02  3.5029450237132E-02  3.5029411125377E-02  3.5029356368782E-02  3.5029285967207E-02  3.5029199920465E-02  3.5029098228329E-02  3.5028980890530E-02  3.5028847906754E-02 
-2.5574711934447E-07 -2.5810326563803E-07 -2.6018222827548E-07 -2.6198400624367E-07 -2.6350859777525E-07 -2.6475600034861E-07 -2.6572621068796E-07 -2.6641922476322E-07 -2.6683503779009E-07 -2.6697364423000E-07 
-3.5029737273601E-02 -3.5029731807413E-02 -3.5029710419360E-02 -3.5029673109383E-02 -3.5029619877380E-02 -3.5029550723207E-02 -3.5029465646676E-02 -3.5029364647554E-02 -3.5029247725568E-02 -3.5029114880398E-02 
-4.0906712752895E-02 -4.0906712752900E-02 -4.0906712752895E-02 -4.0906712752895E-02 -4.0906712752896E-02 -4.0906712752900E-02 -4.0906712752900E-02 -4.0906712752896E-02 -4.0906712752896E-02 -4.0906712753026E-02 
 5.8769754792937E-03  5.8769809454862E-03  5.8770023335344E-03  5.8770396435116E-03  5.8770928755156E-03  5.8771620296924E-03  5.8772471062240E-03  5.8773481053417E-03  5.8774650273281E-03  5.8775978726280E-03 
 8.3014575506301E-01  1.6602930610941E+00  1.6602991297096E+00  1.6603097159894E+00  1.6603248199622E+00  1.6603444416748E+00  1.6603685811786E+00  1.6603972385419E+00  1.6604304138481E+00  8.3023405360319E-01 
 4.3019270324303E-09  1.2905789150598E-08  2.1509682702646E-08  3.0113631126735E-08  3.8717657801871E-08  4.7321786180635E-08  5.5926039656421E-08  6.4530441614290E-08  7.3135087249953E-08  7.3135087249953E-08 
 0.0000000000000E+00  1.6602922856203E+00  3.3205883809575E+00  4.9808928037681E+00  6.6412100718089E+00  8.3015447024680E+00  9.9619012142384E+00  1.1622284124140E+01  1.3282697950281E+01  1.4943147210913E+01 
 1.4943147210665E+01  1.3282854925055E+01  1.1622558829653E+01  9.9622544068032E+00  8.3019371388274E+00  6.6416025080090E+00  4.9812459965823E+00  3.3208630867220E+00  1.6604492605273E+00  0.0000000000000E+00 
 1.6603978112307E-08  3.3207987243736E-08  3.3208108615813E-08  3.3208320340321E-08  3.3208622418728E-08  3.3209014851578E-08  3.3209497639824E-08  3.3210070784887E-08  3.3210734288267E-08  1.6605744076197E-08 
 9.1448444543297E+04  1.8289688908659E+05  1.8289688908659E+05  1.8289688908659E+05  1.8289688908659E+05  1.8289688908659E+05  1.8289688908659E+05  1.8289688908659E+05  1.8289688908659E+05  9.1448444543297E+04 
 3.6579377817311E+05  7.3158755634621E+05  7.3158755634621E+05  7.3158755634621E+05  7.3158755634621E+05  7.3158755634621E+05  7.3158755634621E+05  7.3158755634621E+05  7.3158755634621E+05  3.6579377817311E+05 
 4.5724222271640E+05  9.1448444543281E+05  9.1448444543281E+05  9.1448444543281E+05  9.1448444543281E+05  9.1448444543281E+05  9.1448444543281E+05  9.1448444543281E+05  9.1448444543281E+05  4.5724222271640E+05 
 3.5000000000000E-01  3.5000000000000E-01  3.5000000000000E-01  3.5000000000000E-01  3.5000000000000E-01  3.5000000000000E-01  3.5000000000000E-01  3.5000000000000E-01  3.5000000000000E-01  3.5000000000000E-01 
 8.5301666666666E+00  1.7060333333333E+01  1.7060333333333E+01  1.7060333333333E+01  1.7060333333333E+01  1.7060333333333E+01  1.7060333333333E+01  1.7060333333333E+01  1.7060333333333E+01  8.5301666666666E+00 
 9.7318820077335E-02  9.7318910988109E-02  9.7319266703049E-02  9.7319887223154E-02  9.7320772550098E-02  9.7321922686631E-02  9.7323337635758E-02  9.7325017401488E-02  9.7326961988712E-02  9.7329171403825E-02 
 4.3744444444444E-05  8.7488888888889E-05  8.7488888888889E-05  8.7488888888889E-05  8.7488888888889E-05  8.7488888888889E-05  8.7488888888889E-05  8.7488888888889E-05  8.7488888888889E-05  4.3744444444444E-05 
 8.6666666666662E+01  8.6666666666662E+01  8.6666666666662E+01  8.6666666666662E+01  8.6666666666662E+01  8.6666666666662E+01  8.6666666666662E+01  8.6666666666662E+01  8.6666666666662E+01  8.6666666666662E+01 
 2.1666666666671E+01  2.1666666666671E+01  2.1666666666671E+01  2.1666666666671E+01  2.1666666666671E+01  2.1666666666671E+01  2.1666666666671E+01  2.1666666666671E+01  2.1666666666671E+01  2.1666666666671E+01 
 9.0858550738322E-12  1.4182014579167E-11  3.0417276735775E-11  5.8738781607521E-11  9.9146879314899E-11  1.5164182969241E-10  2.1622426869933E-10  2.9289486865474E-10  3.8165465524742E-10  4.2905702600100E-10 
 4.5429738258730E-04  7.0910636516818E-04  1.5208791524706E-03  2.9369676471397E-03  4.9573872614692E-03  7.5821599856604E-03  1.0811314388762E-02  1.4644885615378E-02  1.9082915390553E-02  2.1453050542406E-02 
 1.4844356660787E-04  7.4222462907581E-04  2.5235610838626E-03  5.4924818827478E-03  9.6490220074038E-03  1.4993207181946E-02  2.1525100513987E-02  2.9244768518069E-02  3.8152312816698E-02  4.2903071986835E-02 
 7.6014194077535E-04  6.7597682884090E-04  5.1816658971491E-04  3.8139627800428E-04  2.6566592408608E-04  1.7097578729543E-04  9.7326355945900E-05  4.4718347404859E-05  1.3152708043675E-05  2.6306132655580E-06 
 0.0000000000000E+00  0.0000000000000E+00  0.0000000000000E+00  0.0000000000000E+00  0.0000000000000E+00  0.0000000000000E+00  0.0000000000000E+00  0.0000000000000E+00  0.0000000000000E+00  0.0000000000000E+00 
 0.0000000000000E+00  0.0000000000000E+00  0.0000000000000E+00  0.0000000000000E+00  0.0000000000000E+00  0.0000000000000E+00  0.0000000000000E+00  0.0000000000000E+00  0.0000000000000E+00  0.0000000000000E+00 
 0.0000000000000E+00  0.0000000000000E+00  0.0000000000000E+00  0.0000000000000E+00  0.0000000000000E+00  0.0000000000000E+00  0.0000000000000E+00  0.0000000000000E+00  0.0000000000000E+00  0.0000000000000E+00 
ZONE T = "ANOD, 3.0000E-08", I = 10, SOLUTIONTIME = 3.000000E-08
ZONETYPE = ORDERED
DATAPACKING = BLOCK
STRANDID = 1
 0.0000000000000E+00  8.7488888888889E-05  1.7497777777778E-04  2.6246666666667E-04  3.4995555555556E-04  4.3744444444444E-04  5.2493333333333E-04  6.1242222222222E-04  6.9991111111111E-04  7.8740000000000E-04 
 5.7663982673764E-10  1.7291941417591E-09  2.8824790863192E-09  4.0357713820557E-09  5.1894373738113E-09  6.3413009523625E-09  7.4935445012587E-09  8.6454447422741E-09  9.7980944358779E-09  1.0374613973797E-08 
 9.1999999999896E-01  9.1999999999896E-01  9.1999999999896E-01  9.1999999999896E-01  9.1999999999896E-01  9.1999999999896E-01  9.1999999999896E-01  9.1999999999896E-01  9.1999999999896E-01  9.1999999999957E-01 
 4.0000000000520E-02  4.0000000000520E-02  4.0000000000520E-02  4.0000000000520E-02  4.0000000000520E-02  4.0000000000520E-02  4.0000000000520E-02  4.0000000000520E-02  4.0000000000520E-02  4.0000000000215E-02 
 4.0000000000520E-02  4.0000000000520E-02  4.0000000000520E-02  4.0000000000520E-02  4.0000000000520E-02  4.0000000000520E-02  4.0000000000520E-02  4.0000000000520E-02  4.0000000000520E-02  4.0000000000215E-02 
 3.5029481526289E-02  3.5029473703955E-02  3.5029450236939E-02  3.5029411125184E-02  3.5029356368589E-02  3.5029285967014E-02  3.5029199920272E-02  3.5029098228136E-02  3.5028980890337E-02  3.5028847906561E-02 
-2.5574711934305E-07 -2.5810326563660E-07 -2.6018222827403E-07 -2.6198400624222E-07 -2.6350859777379E-07 -2.6475600034715E-07 -2.6572621068649E-07 -2.6641922476174E-07 -2.6683503778861E-07 -2.6697364422852E-07 
-3.5029737273408E-02 -3.5029731807220E-02 -3.5029710419167E-02 -3.5029673109190E-02 -3.5029619877187E-02 -3.5029550723014E-02 -3.5029465646483E-02 -3.5029364647361E-02 -3.5029247725375E-02 -3.5029114880205E-02 
-4.0906712752646E-02 -4.0906712752646E-02 -4.0906712752646E-02 -4.0906712752646E-02 -4.0906712752648E-02 -4.0906712752644E-02 -4.0906712752644E-02 -4.0906712752648E-02 -4.0906712752648E-02 -4.0906712752843E-02 
 5.8769754792380E-03  5.8769809454255E-03  5.8770023334787E-03  5.8770396434560E-03  5.8770928754603E-03  5.8771620296300E-03  5.8772471061616E-03  5.8773481052865E-03  5.8774650272730E-03  5.8775978726380E-03 
 8.3014575505757E-01  1.6602930610836E+00  1.6602991296986E+00  1.6603097159784E+00  1.6603248199531E+00  1.6603444416642E+00  1.6603685811680E+00  1.6603972385325E+00  1.6604304138390E+00  8.3023405360679E-01 
 4.3019270347040E-09  1.2905789148399E-08  2.1509682702739E-08  3.0113631124611E-08  3.8717657802039E-08  4.7321786180840E-08  5.5926039652840E-08  6.4530441612322E-08  7.3135123121733E-08  7.3135123121733E-08 
 0.0000000000000E+00  1.6602922856274E+00  3.3205883809718E+00  4.9808928037897E+00  6.6412100718376E+00  8.3015447025039E+00  9.9619012142816E+00  1.1622284123822E+01  1.3282697949961E+01  1.4943147210959E+01 
 1.4943147210581E+01  1.3282854924982E+01  1.1622558829591E+01  9.9622544067526E+00  8.3019371387870E+00  6.6416025079783E+00  4.9812459965622E+00  3.3208630867119E+00  1.6604492605262E+00  0.0000000000000E+00 
 2.4905435662882E-08  4.9810917854573E-08  4.9811099912799E-08  4.9811417500105E-08  4.9811870618259E-08  4.9812459268220E-08  4.9813183451504E-08  4.9814043170212E-08  4.9815038426657E-08  2.4908084612265E-08 
 9.1448444543306E+04  1.8289688908661E+05  1.8289688908661E+05  1.8289688908661E+05  1.8289688908661E+05  1.8289688908661E+05  1.8289688908661E+05  1.8289688908661E+05  1.8289688908661E+05  9.1448444543306E+04 
 3.6579377817310E+05  7.3158755634620E+05  7.3158755634620E+05  7.3158755634620E+05  7.3158755634620E+05  7.3158755634620E+05  7.3158755634620E+05  7.3158755634620E+05  7.3158755634620E+05  3.6579377817310E+05 
 4.5724222271640E+05  9.1448444543281E+05  9.1448444543281E+05  9.1448444543281E+05  9.1448444543281E+05  9.1448444543281E+05  9.1448444543281E+05  9.1448444543281E+05  9.1448444543281E+05  4.5724222271640E+05 
 3.5000000000000E-01  3.5000000000000E-01  3.5000000000000E-01  3.5000000000000E-01  3.5000000000000E-01  3.5000000000000E-01  3.5000000000000E-01  3.5000000000000E-01  3.5000000000000E-01  3.5000000000000E-01 
 8.5301666666666E+00  1.7060333333333E+01  1.7060333333333E+01  1.7060333333333E+01  1.7060333333333E+01  1.7060333333333E+01  1.7060333333333E+01  1.7060333333333E+01  1.7060333333333E+01  8.5301666666666E+00 
 9.7318820076698E-02  9.7318910987493E-02  9.7319266702407E-02  9.7319887222511E-02  9.7320772549564E-02  9.7321922686010E-02  9.7323337635137E-02  9.7325017400943E-02  9.7326961988178E-02  9.7329171404247E-02 
 4.3744444444444E-05  8.7488888888889E-05  8.7488888888889E-05  8.7488888888889E-05  8.7488888888889E-05  8.7488888888889E-05  8.7488888888889E-05  8.7488888888889E-05  8.7488888888889E-05  4.3744444444444E-05 
 8.6666666666660E+01  8.6666666666660E+01  8.6666666666660E+01  8.6666666666660E+01  8.6666666666660E+01  8.6666666666660E+01  8.6666666666660E+01  8.6666666666660E+01  8.6666666666660E+01  8.6666666666660E+01 
 2.1666666666672E+01  2.1666666666672E+01  2.1666666666672E+01  2.1666666666672E+01  2.1666666666672E+01  2.1666666666672E+01  2.1666666666672E+01  2.1666666666672E+01  2.1666666666672E+01  2.1666666666672E+01 
 1.3628828899667E-11  2.1273078230828E-11  4.5626068260508E-11  8.8108458079017E-11  1.4872075192979E-10  2.2746342954933E-10  3.2433741258742E-10  4.3934372479928E-10  5.7248380914377E-10  6.4358753142572E-10 
 4.5429738258344E-04  7.0910636516611E-04  1.5208791524734E-03  2.9369676471496E-03  4.9573872614888E-03  7.5821599856921E-03  1.0811314388809E-02  1.4644885614454E-02  1.9082915389635E-02  2.1453050542471E-02 
 2.2266644495982E-04  1.1133394372096E-03  3.7853545324280E-03  8.2387496176108E-03  1.4473575071562E-02  2.2489878478930E-02  3.2287751272199E-02  4.3867294750832E-02  5.7228651791132E-02  6.4354807210436E-02 
 1.1402164450068E-03  1.0139683858732E-03  7.7725229362284E-04  5.7209619029086E-04  3.9850012141651E-04  2.5646447600325E-04  1.4598998654277E-04  6.7077729095028E-05  1.9729123244509E-05  3.9459321354518E-06 
 0.0000000000000E+00  0.0000000000000E+00  0.0000000000000E+00  0.0000000000000E+00  0.0000000000000E+00  0.0000000000000E+00  0.0000000000000E+00  0.0000000000000E+00  0.0000000000000E+00  0.0000000000000E+00 
 0.0000000000000E+00  0.0000000000000E+00  0.0000000000000E+00  0.0000000000000E+00  0.0000000000000E+00  0.0000000000000E+00  0.0000000000000E+00  0.0000000000000E+00  0.0000000000000E+00  0.0000000000000E+00 
 0.0000000000000E+00  0.0000000000000E+00  0.0000000000000E+00  0.0000000000000E+00  0.0000000000000E+00  0.0000000000000E+00  0.0000000000000E+00  0.0000000000000E+00  0.0000000000000E+00  0.0000000000000E+00 
ZONE T = "ANOD, 4.0000E-08", I = 10, SOLUTIONTIME = 4.000000E-08
ZONETYPE = ORDERED
DATAPACKING = BLOCK
STRANDID = 1
 0.0000000000000E+00  8.7488888888889E-05  1.7497777777778E-04  2.6246666666667E-04  3.4995555555556E-04  4.3744444444444E-04  5.2493333333333E-04  6.1242222222222E-04  6.9991111111111E-04  7.8740000000000E-04 
 5.7645822287020E-10  1.7293757456122E-09  2.8822974824374E-09  4.0352265704392E-09  5.1881661467322E-09  6.3414825561877E-09  7.4944525205326E-09  8.6481688001799E-09  9.8011817015046E-09  1.0376974823971E-08 
 9.1999999999861E-01  9.1999999999861E-01  9.1999999999861E-01  9.1999999999861E-01  9.1999999999861E-01  9.1999999999861E-01  9.1999999999861E-01  9.1999999999861E-01  9.1999999999861E-01  9.1999999999943E-01 
 4.0000000000693E-02  4.0000000000693E-02  4.0000000000693E-02  4.0000000000693E-02  4.0000000000693E-02  4.0000000000693E-02  4.0000000000693E-02  4.0000000000693E-02  4.0000000000693E-02  4.0000000000287E-02 
 4.0000000000693E-02  4.0000000000693E-02  4.0000000000693E-02  4.0000000000693E-02  4.0000000000693E-02  4.0000000000693E-02  4.0000000000693E-02  4.0000000000693E-02  4.0000000000693E-02  4.0000000000287E-02 
 3.5029481526100E-02  3.5029473703766E-02  3.5029450236750E-02  3.5029411124995E-02  3.5029356368401E-02  3.5029285966825E-02  3.5029199920083E-02  3.5029098227947E-02  3.5028980890148E-02  3.5028847906372E-02 
-2.5574711934164E-07 -2.5810326563517E-07 -2.6018222827260E-07 -2.6198400624078E-07 -2.6350859777234E-07 -2.6475600034569E-07 -2.6572621068503E-07 -2.6641922476028E-07 -2.6683503778715E-07 -2.6697364422706E-07 
-3.5029737273219E-02 -3.5029731807032E-02 -3.5029710418978E-02 -3.5029673109001E-02 -3.5029619876998E-02 -3.5029550722825E-02 -3.5029465646294E-02 -3.5029364647172E-02 -3.5029247725186E-02 -3.5029114880016E-02 
-4.0906712752399E-02 -4.0906712752399E-02 -4.0906712752399E-02 -4.0906712752399E-02 -4.0906712752397E-02 -4.0906712752397E-02 -4.0906712752397E-02 -4.0906712752397E-02 -4.0906712752397E-02 -4.0906712752658E-02 
 5.8769754791804E-03  5.8769809453678E-03  5.8770023334211E-03  5.8770396433983E-03  5.8770928753985E-03  5.8771620295716E-03  5.8772471061032E-03  5.8773481052248E-03  5.8774650272112E-03  5.8775978726415E-03 
 8.3014575505249E-01  1.6602930610731E+00  1.6602991296885E+00  1.6603097159683E+00  1.6603248199430E+00  1.6603444416543E+00  1.6603685811581E+00  1.6603972385226E+00  1.6604304138289E+00  8.3023405360997E-01 