TITLE = "Solution on Domain BulkDomain1D_2"
VARIABLES = "x [m]"  
"Vel_axial(0)" 	"MF_sp(ECDMC)" 	"MF_sp(Li+)" 	"MF_sp(PF6-)" 	"Volt(Electroly)" 	"Volt(CathodeVo)" 	
"Potential Drop Electrode-Electrolyte [V]" 	"Surf_0 Equilibrium Potential Drop Electrode-Electrolyte [V]" 	"Overpotential_0 [V]" 	"Current Source [A/m^2]" 	"Li+ flux [kmol/m^2/s]" 	"Electrolyte Current [A/m^2]" 	"Electrode Current [A/m^2]" 	
"Capacity discharged [A-s]" 	"Depth of discharge [-]" 	"Capacity remaining [A-s]" 	"Initial capacity [A-s]" 	"Porosity []" 	"Surface Area [m2/m2] (area per area)" 	"Specific current (per particle area) [A/m^2]" 	"Control volume thickness [m]" 	
"Moles LiCoO2 [mol/m^2] (per electrode area)" 	"Moles CoO2 [mol/m^2] (per electrode area)" 	

ZONE T = "t = 0 [s]" I = 10 SOLUTIONTIME = 0.0000000000000E+00
0.00127 	0 	0.92 	0.04 	0.04 	-0.07 	3.8 	
0 	0 	0 	0 	0 	0.119132 	0 	
0 	0 	0 	0 	0.35 	6.604 	-0.0360787 	3.38667e-05 	
0.000900955 	0.000600637 	
0.00133773 	0 	0.92 	0.04 	0.04 	-0.07 	3.8 	
0 	0 	0 	0 	0 	0 	-0 	
0 	0 	0 	0 	0.35 	13.208 	-0.0360787 	6.77333e-05 	
0.00180191 	0.00120127 	
0.00140547 	0 	0.92 	0.04 	0.04 	-0.07 	3.8 	
0 	0 	0 	0 	0 	0 	-0 	
0 	0 	0 	0 	0.35 	13.208 	-0.0360787 	6.77333e-05 	
0.00180191 	0.00120127 	
0.0014732 	0 	0.92 	0.04 	0.04 	-0.07 	3.8 	
0 	0 	0 	0 	0 	0 	-0 	
0 	0 	0 	0 	0.35 	13.208 	-0.0360787 	6.77333e-05 	
0.00180191 	0.00120127 	
0.00154093 	0 	0.92 	0.04 	0.04 	-0.07 	3.8 	
0 	0 	0 	0 	0 	0 	-0 	
0 	0 	0 	0 	0.35 	13.208 	-0.0360787 	6.77333e-05 	
0.00180191 	0.00120127 	
0.00160867 	0 	0.92 	0.04 	0.04 	-0.07 	3.8 	
0 	0 	0 	0 	0 	0 	-0 	
0 	0 	0 	0 	0.35 	13.208 	-0.0360787 	6.77333e-05 	
0.00180191 	0.00120127 	
0.0016764 	0 	0.92 	0.04 	0.04 	-0.07 	3.8 	
0 	0 	0 	0 	0 	0 	-0 	
0 	0 	0 	0 	0.35 	13.208 	-0.0360787 	6.77333e-05 	
0.00180191 	0.00120127 	
0.00174413 	0 	0.92 	0.04 	0.04 	-0.07 	3.8 	
0 	0 	0 	0 	0 	0 	-0 	
0 	0 	0 	0 	0.35 	13.208 	-0.0360787 	6.77333e-05 	
0.00180191 	0.00120127 	
0.00181187 	0 	0.92 	0.04 	0.04 	-0.07 	3.8 	
0 	0 	0 	0 	0 	0 	-0 	
0 	0 	0 	0 	0.35 	13.208 	-0.0360787 	6.77333e-05 	
0.00180191 	0.00120127 	
0.0018796 	0 	0.92 	0.04 	0.04 	-0.07 	3.8 	
0 	0 	0 	0 	0 	0 	0.119132 	
0 	0 	0 	0 	0.35 	6.604 	-0.0360787 	3.38667e-05 	
0.000900955 	0.000600637 	
ZONE T = "t = 1e-08 [s]" I = 10 SOLUTIONTIME = 1.0000000000000E-08
0.00127 	1.18497e-08 	0.92 	0.04 	0.04 	0.0179749 	3.85056 	
3.87 	3.97141 	-0.101414 	-0.238264 	-0 	17.5665 	0.501606 	
-0 	7244.08 	123.46 	141.616 	0.35 	6.604 	-0.152054 	3.38667e-05 	
0.000900955 	0.000600637 	
0.00133773 	1.04564e-08 	0.92 	0.04 	0.04 	0.0179748 	3.85056 	
3.87 	3.97141 	-0.101414 	-0.476527 	-0 	16.0612 	2.00644 	
-0 	14488.2 	246.919 	283.231 	0.35 	13.208 	-0.152057 	6.77333e-05 	
0.00180191 	0.00120127 	
0.00140547 	9.06298e-09 	0.92 	0.04 	0.04 	0.0179747 	3.85055 	
3.87 	3.97141 	-0.101414 	-0.476527 	-0 	14.0547 	4.01296 	
-0 	14488.2 	246.919 	283.231 	0.35 	13.208 	-0.152066 	6.77333e-05 	
0.00180191 	0.00120127 	
0.0014732 	7.66946e-09 	0.92 	0.04 	0.04 	0.0179746 	3.85055 	
3.87 	3.97141 	-0.101414 	-0.476527 	-0 	12.048 	6.01964 	
-0 	14488.2 	246.919 	283.231 	0.35 	13.208 	-0.152081 	6.77333e-05 	
0.00180191 	0.00120127 	
0.00154093 	6.27575e-09 	0.92 	0.04 	0.04 	0.0179745 	3.85054 	
3.87 	3.97141 	-0.101414 	-0.476527 	-0 	10.0411 	8.02656 	
-0 	14488.2 	246.919 	283.231 	0.35 	13.208 	-0.152103 	6.77333e-05 	
0.00180191 	0.00120127 	
0.00160867 	4.88178e-09 	0.92 	0.04 	0.04 	0.0179744 	3.85053 	
3.87 	3.97141 	-0.101414 	-0.476527 	-0 	8.03386 	10.0338 	
-0 	14488.2 	246.919 	283.231 	0.35 	13.208 	-0.15213 	6.77333e-05 	
0.00180191 	0.00120127 	
0.0016764 	3.4875e-09 	0.92 	0.04 	0.04 	0.0179744 	3.85052 	
3.87 	3.97141 	-0.101414 	-0.476527 	-0 	6.02621 	12.0415 	
-0 	14488.2 	246.919 	283.231 	0.35 	13.208 	-0.152165 	6.77333e-05 	
0.00180191 	0.00120127 	
0.00174413 	2.09285e-09 	0.92 	0.04 	0.04 	0.0179743 	3.85051 	
3.87 	3.97141 	-0.101414 	-0.476527 	-0 	4.01807 	14.0496 	
-0 	14488.2 	246.919 	283.231 	0.35 	13.208 	-0.152205 	6.77333e-05 	
0.00180191 	0.00120127 	
0.00181187 	6.97778e-10 	0.92 	0.04 	0.04 	0.0179743 	3.85049 	
3.87 	3.97141 	-0.101414 	-0.476527 	-0 	2.00936 	16.0583 	
-0 	14488.2 	246.919 	283.231 	0.35 	13.208 	-0.152251 	6.77333e-05 	
0.00180191 	0.00120127 	
0.0018796 	0 	0.92 	0.04 	0.04 	0.0179743 	3.85047 	
3.87 	3.97141 	-0.101414 	-0.238264 	-0 	0.502428 	17.5657 	
-0 	7244.08 	123.46 	141.616 	0.35 	6.604 	-0.152304 	3.38667e-05 	
0.000900955 	0.000600637 	
ZONE T = "t = 2e-08 [s]" I = 10 SOLUTIONTIME = 2.0000000000000E-08
0.00127 	9.79689e-09 	0.92 	0.04 	0.04 	0.0350304 	3.8418 	
3.83258 	3.97141 	-0.13883 	-1.00417 	8.84304e-08 	14.5234 	0.414751 	
2.51674e-11 	7244.08 	123.46 	141.616 	0.35 	6.604 	-0.125719 	3.38667e-05 	
0.000900955 	0.000600637 	
0.00133773 	8.64485e-09 	0.92 	0.04 	0.04 	0.0350303 	3.8418 	
3.83258 	3.97141 	-0.138831 	-2.00837 	7.80325e-08 	13.2788 	1.65902 	
5.03357e-11 	14488.2 	246.919 	283.231 	0.35 	13.208 	-0.125721 	6.77333e-05 	
0.00180191 	0.00120127 	
0.00140547 	7.49276e-09 	0.92 	0.04 	0.04 	0.0350302 	3.8418 	
3.83258 	3.97141 	-0.138834 	-2.00849 	6.76342e-08 	11.6197 	3.31809 	
5.03387e-11 	14488.2 	246.919 	283.231 	0.35 	13.208 	-0.125727 	6.77333e-05 	
0.00180191 	0.00120127 	
0.0014732 	6.34057e-09 	0.92 	0.04 	0.04 	0.0350301 	3.84179 	
3.83258 	3.97141 	-0.138839 	-2.00869 	5.72348e-08 	9.96054 	4.97726 	
5.03437e-11 	14488.2 	246.919 	283.231 	0.35 	13.208 	-0.125738 	6.77333e-05 	
0.00180191 	0.00120127 	
0.00154093 	5.18824e-09 	0.92 	0.04 	0.04 	0.03503 	3.84179 	
3.83257 	3.97141 	-0.138846 	-2.00897 	4.68339e-08 	8.3012 	6.63661 	
5.03509e-11 	14488.2 	246.919 	283.231 	0.35 	13.208 	-0.125753 	6.77333e-05 	
0.00180191 	0.00120127 	
0.00160867 	4.03574e-09 	0.92 	0.04 	0.04 	0.03503 	3.84178 	
3.83256 	3.97141 	-0.138856 	-2.00934 	3.64312e-08 	6.64163 	8.29618 	
5.03601e-11 	14488.2 	246.919 	283.231 	0.35 	13.208 	-0.125772 	6.77333e-05 	
0.00180191 	0.00120127 	
0.0016764 	2.88302e-09 	0.92 	0.04 	0.04 	0.0350299 	3.84177 	
3.83255 	3.97141 	-0.138867 	-2.00979 	2.60261e-08 	4.98178 	9.95602 	
5.03713e-11 	14488.2 	246.919 	283.231 	0.35 	13.208 	-0.125795 	6.77333e-05 	
0.00180191 	0.00120127 	
0.00174413 	1.73006e-09 	0.92 	0.04 	0.04 	0.0350299 	3.84176 	
3.83253 	3.97141 	-0.138881 	-2.01032 	1.56183e-08 	3.3216 	11.6162 	
5.03847e-11 	14488.2 	246.919 	283.231 	0.35 	13.208 	-0.125822 	6.77333e-05 	
0.00180191 	0.00120127 	
0.00181187 	5.76796e-10 	0.92 	0.04 	0.04 	0.0350299 	3.84175 	
3.83252 	3.97141 	-0.138896 	-2.01094 	5.2073e-09 	1.66103 	13.2768 	
5.04001e-11 	14488.2 	246.919 	283.231 	0.35 	13.208 	-0.125854 	6.77333e-05 	
0.00180191 	0.00120127 	
0.0018796 	0 	0.92 	0.04 	0.04 	0.0350299 	3.84173 	
3.8325 	3.97141 	-0.138914 	-1.00582 	5.2073e-09 	0.415316 	14.5229 	
2.52088e-11 	7244.08 	123.46 	141.616 	0.35 	6.604 	-0.12589 	3.38667e-05 	
0.000900955 	0.000600637 	
ZONE T = "t = 3e-08 [s]" I = 10 SOLUTIONTIME = 3.0000000000000E-08
0.00127 	9.78982e-09 	0.92 	0.04 	0.04 	0.0350345 	3.84177 	
3.80677 	3.97141 	-0.164644 	-0.830251 	7.31113e-08 	14.5135 	0.414451 	
4.5976e-11 	7244.08 	123.46 	141.616 	0.35 	6.604 	-0.125804 	3.38667e-05 	
0.000900955 	0.000600637 	
0.00133773 	8.63862e-09 	0.92 	0.04 	0.04 	0.0350344 	3.84177 	
3.80677 	3.97141 	-0.164645 	-1.66053 	6.45138e-08 	13.2692 	1.65782 	
9.19535e-11 	14488.2 	246.919 	283.231 	0.35 	13.208 	-0.125805 	6.77333e-05 	
0.00180191 	0.00120127 	
0.00140547 	7.48735e-09 	0.92 	0.04 	0.04 	0.0350343 	3.84177 	
3.80677 	3.97141 	-0.164647 	-1.66061 	5.59161e-08 	11.6113 	3.31569 	
9.19585e-11 	14488.2 	246.919 	283.231 	0.35 	13.208 	-0.125812 	6.77333e-05 	
0.00180191 	0.00120127 	
0.0014732 	6.33599e-09 	0.92 	0.04 	0.04 	0.0350342 	3.84176 	
3.80676 	3.97141 	-0.164651 	-1.66075 	4.73177e-08 	9.95336 	4.97367 	
9.1967e-11 	14488.2 	246.919 	283.231 	0.35 	13.208 	-0.125822 	6.77333e-05 	
0.00180191 	0.00120127 	
0.00154093 	5.1845e-09 	0.92 	0.04 	0.04 	0.0350341 	3.84176 	
3.80676 	3.97141 	-0.164657 	-1.66094 	3.87182e-08 	8.29521 	6.63182 	
9.1979e-11 	14488.2 	246.919 	283.231 	0.35 	13.208 	-0.125837 	6.77333e-05 	
0.00180191 	0.00120127 	
0.00160867 	4.03283e-09 	0.92 	0.04 	0.04 	0.0350341 	3.84175 	
3.80675 	3.97141 	-0.164665 	-1.66119 	3.01175e-08 	6.63684 	8.29019 	
9.19945e-11 	14488.2 	246.919 	283.231 	0.35 	13.208 	-0.125856 	6.77333e-05 	
0.00180191 	0.00120127 	
0.0016764 	2.88095e-09 	0.92 	0.04 	0.04 	0.035034 	3.84174 	
3.80674 	3.97141 	-0.164675 	-1.6615 	2.15151e-08 	4.97819 	9.94884 	
9.20135e-11 	14488.2 	246.919 	283.231 	0.35 	13.208 	-0.125879 	6.77333e-05 	
0.00180191 	0.00120127 	
0.00174413 	1.72881e-09 	0.92 	0.04 	0.04 	0.035034 	3.84173 	
3.80673 	3.97141 	-0.164686 	-1.66186 	1.29109e-08 	3.31921 	11.6078 	
9.20359e-11 	14488.2 	246.919 	283.231 	0.35 	13.208 	-0.125906 	6.77333e-05 	
0.00180191 	0.00120127 	
0.00181187 	5.7638e-10 	0.92 	0.04 	0.04 	0.035034 	3.84172 	
3.80672 	3.97141 	-0.164699 	-1.66228 	4.30445e-09 	1.65983 	13.2672 	
9.20619e-11 	14488.2 	246.919 	283.231 	0.35 	13.208 	-0.125938 	6.77333e-05 	
0.00180191 	0.00120127 	
0.0018796 	0 	0.92 	0.04 	0.04 	0.035034 	3.8417 	
3.8067 	3.97141 	-0.164713 	-0.831379 	4.30445e-09 	0.415017 	14.513 	
4.60457e-11 	7244.08 	123.46 	141.616 	0.35 	6.604 	-0.125974 	3.38667e-05 	
0.000900955 	0.000600637 	
ZONE T = "t = 4e-08 [s]" I = 10 SOLUTIONTIME = 4.0000000000000E-08
0.00127 	9.8015e-09 	0.92 	0.04 	0.04 	0.035028 	3.84182 	
3.80674 	3.97141 	-0.164678 	-0.830807 	7.30586e-08 	14.5299 	0.414947 	
6.67985e-11 	7244.08 	123.46 	141.616 	0.35 	6.604 	-0.125665 	3.38667e-05 	
0.000900955 	0.000600637 	
0.00133773 	8.64892e-09 	0.92 	0.04 	0.04 	0.0350279 	3.84182 	
3.80674 	3.97141 	-0.164679 	-1.66164 	6.44673e-08 	13.285 	1.6598 	
1.33599e-10 	14488.2 	246.919 	283.231 	0.35 	13.208 	-0.125667 	6.77333e-05 	
0.00180191 	0.00120127 	
0.00140547 	7.49628e-09 	0.92 	0.04 	0.04 	0.0350278 	3.84182 	
3.80673 	3.97141 	-0.164681 	-1.66172 	5.58758e-08 	11.6252 	3.31965 	
1.33606e-10 	14488.2 	246.919 	283.231 	0.35 	13.208 	-0.125673 	6.77333e-05 	
0.00180191 	0.00120127 	
0.0014732 	6.34355e-09 	0.92 	0.04 	0.04 	0.0350277 	3.84181 	
3.80673 	3.97141 	-0.164686 	-1.66186 	4.72835e-08 	9.96523 	4.97961 	
1.33618e-10 	14488.2 	246.919 	283.231 	0.35 	13.208 	-0.125684 	6.77333e-05 	
0.00180191 	0.00120127 	
0.00154093 	5.19068e-09 	0.92 	0.04 	0.04 	0.0350276 	3.84181 	
3.80672 	3.97141 	-0.164692 	-1.66205 	3.86903e-08 	8.3051 	6.63974 	
1.33635e-10 	14488.2 	246.919 	283.231 	0.35 	13.208 	-0.125698 	6.77333e-05 	
0.00180191 	0.00120127 	
0.00160867 	4.03763e-09 	0.92 	0.04 	0.04 	0.0350276 	3.8418 	
3.80671 	3.97141 	-0.164699 	-1.6623 	3.00957e-08 	6.64475 	8.30009 	
1.33657e-10 	14488.2 	246.919 	283.231 	0.35 	13.208 	-0.125717 	6.77333e-05 	
0.00180191 	0.00120127 	
0.0016764 	2.88438e-09 	0.92 	0.04 	0.04 	0.0350275 	3.84179 	
3.80671 	3.97141 	-0.164709 	-1.66261 	2.14996e-08 	4.98412 	9.96072 	
1.33683e-10 	14488.2 	246.919 	283.231 	0.35 	13.208 	-0.125741 	6.77333e-05 	
0.00180191 	0.00120127 	
0.00174413 	1.73087e-09 	0.92 	0.04 	0.04 	0.0350275 	3.84178 	
3.80669 	3.97141 	-0.16472 	-1.66297 	1.29016e-08 	3.32316 	11.6217 	
1.33715e-10 	14488.2 	246.919 	283.231 	0.35 	13.208 	-0.125768 	6.77333e-05 	
0.00180191 	0.00120127 	
0.00181187 	5.77066e-10 	0.92 	0.04 	0.04 	0.0350275 	3.84177 	
3.80668 	3.97141 	-0.164733 	-1.66339 	4.30135e-09 	1.6618 	13.283 	
1.33751e-10 	14488.2 	246.919 	283.231 	0.35 	13.208 	-0.1258 	6.77333e-05 	
0.00180191 	0.00120127 	
0.0018796 	0 	0.92 	0.04 	0.04 	0.0350275 	3.84175 	
3.80667 	3.97141 	-0.164748 	-0.831935 	4.30135e-09 	0.415511 	14.5293 	
6.68965e-11 	7244.08 	123.46 	141.616 	0.35 	6.604 	-0.125836 	3.38667e-05 	
0.000900955 	0.000600637 	
ZONE T = "t = 5.10501e-08 [s]" I = 10 SOLUTIONTIME = 5.1050063748456E-08
0.00127 	9.8015e-09 	0.92 	0.04 	0.04 	0.035028 	3.84182 	
3.80679 	3.97141 	-0.164622 	-0.829893 	7.31458e-08 	14.5299 	0.414947 	
8.75981e-11 	7244.08 	123.46 	141.616 	0.35 	6.604 	-0.125665 	3.38667e-05 	
0.000900955 	0.000600637 	
0.00133773 	8.64892e-09 	0.92 	0.04 	0.04 	0.0350279 	3.84182 	
3.80679 	3.97141 	-0.164623 	-1.65981 	6.45442e-08 	13.285 	1.6598 	
1.75199e-10 	14488.2 	246.919 	283.231 	0.35 	13.208 	-0.125667 	6.77333e-05 	
0.00180191 	0.00120127 	
0.00140547 	7.49628e-09 	0.92 	0.04 	0.04 	0.0350278 	3.84182 	
3.80679 	3.97141 	-0.164625 	-1.65989 	5.59424e-08 	11.6252 	3.31965 	
1.75208e-10 	14488.2 	246.919 	283.231 	0.35 	13.208 	-0.125673 	6.77333e-05 	
0.00180191 	0.00120127 	
0.0014732 	6.34355e-09 	0.92 	0.04 	0.04 	0.0350277 	3.84181 	
3.80678 	3.97141 	-0.164629 	-1.66003 	4.73399e-08 	9.96523 	4.97961 	
1.75223e-10 	14488.2 	246.919 	283.231 	0.35 	13.208 	-0.125684 	6.77333e-05 	
0.00180191 	0.00120127 	
0.00154093 	5.19068e-09 	0.92 	0.04 	0.04 	0.0350276 	3.84181 	
3.80678 	3.97141 	-0.164635 	-1.66022 	3.87364e-08 	8.3051 	6.63974 	
1.75245e-10 	14488.2 	246.919 	283.231 	0.35 	13.208 	-0.125698 	6.77333e-05 	
0.00180191 	0.00120127 	
0.00160867 	4.03763e-09 	0.92 	0.04 	0.04 	0.0350276 	3.8418 	
3.80677 	3.97141 	-0.164643 	-1.66047 	3.01316e-08 	6.64475 	8.30009 	
1.75273e-10 	14488.2 	246.919 	283.231 	0.35 	13.208 	-0.125717 	6.77333e-05 	
0.00180191 	0.00120127 	
0.0016764 	2.88438e-09 	0.92 	0.04 	0.04 	0.0350275 	3.84179 	
3.80676 	3.97141 	-0.164652 	-1.66078 	2.15252e-08 	4.98412 	9.96072 	
1.75308e-10 	14488.2 	246.919 	283.231 	0.35 	13.208 	-0.125741 	6.77333e-05 	
0.00180191 	0.00120127 	
0.00174413 	1.73087e-09 	0.92 	0.04 	0.04 	0.0350275 	3.84178 	
3.80675 	3.97141 	-0.164664 	-1.66115 	1.29169e-08 	3.32316 	11.6217 	
1.75348e-10 	14488.2 	246.919 	283.231 	0.35 	13.208 	-0.125768 	6.77333e-05 	
0.00180191 	0.00120127 	
0.00181187 	5.77066e-10 	0.92 	0.04 	0.04 	0.0350275 	3.84177 	
3.80674 	3.97141 	-0.164677 	-1.66157 	4.30646e-09 	1.6618 	13.283 	
1.75395e-10 	14488.2 	246.919 	283.231 	0.35 	13.208 	-0.1258 	6.77333e-05 	
0.00180191 	0.00120127 	
0.0018796 	0 	0.92 	0.04 	0.04 	0.0350275 	3.84175 	
3.80672 	3.97141 	-0.164691 	-0.831021 	4.30646e-09 	0.415511 	14.5293 	
8.77243e-11 	7244.08 	123.46 	141.616 	0.35 	6.604 	-0.125836 	3.38667e-05 	
0.000900955 	0.000600637 	
ZONE T = "t = 6.57722e-08 [s]" I = 10 SOLUTIONTIME = 6.5772176177784E-08
0.00127 	9.8015e-09 	0.92 	0.04 	0.04 	0.035028 	3.84182 	
3.80679 	3.97141 	-0.164622 	-0.829893 	7.31459e-08 	14.5299 	0.414947 	
1.10582e-10 	7244.08 	123.46 	141.616 	0.35 	6.604 	-0.125665 	3.38667e-05 	
0.000900955 	0.000600637 	
0.00133773 	8.64892e-09 	0.92 	0.04 	0.04 	0.0350279 	3.84182 	
3.80679 	3.97141 	-0.164623 	-1.65981 	6.45442e-08 	13.285 	1.6598 	
2.21167e-10 	14488.2 	246.919 	283.231 	0.35 	13.208 	-0.125667 	6.77333e-05 	
0.00180191 	0.00120127 	
0.00140547 	7.49628e-09 	0.92 	0.04 	0.04 	0.0350278 	3.84182 	
3.80679 	3.97141 	-0.164625 	-1.65989 	5.59424e-08 	11.6252 	3.31965 	
2.21178e-10 	14488.2 	246.919 	283.231 	0.35 	13.208 	-0.125673 	6.77333e-05 	
0.00180191 	0.00120127 	
0.0014732 	6.34355e-09 	0.92 	0.04 	0.04 	0.0350277 	3.84181 	
3.80678 	3.97141 	-0.164629 	-1.66003 	4.73399e-08 	9.96523 	4.97961 	
2.21198e-10 	14488.2 	246.919 	283.231 	0.35 	13.208 	-0.125684 	6.77333e-05 	
0.00180191 	0.00120127 	
0.00154093 	5.19068e-09 	0.92 	0.04 	0.04 	0.0350276 	3.84181 	
3.80678 	3.97141 	-0.164635 	-1.66022 	3.87364e-08 	8.3051 	6.63974 	
2.21225e-10 	14488.2 	246.919 	283.231 	0.35 	13.208 	-0.125698 	6.77333e-05 	
0.00180191 	0.00120127 	
0.00160867 	4.03763e-09 	0.92 	0.04 	0.04 	0.0350276 	3.8418 	
3.80677 	3.97141 	-0.164643 	-1.66047 	3.01316e-08 	6.64475 	8.30009 	
2.2126e-10 	14488.2 	246.919 	283.231 	0.35 	13.208 	-0.125717 	6.77333e-05 	
0.00180191 	0.00120127 	
0.0016764 	2.88438e-09 	0.92 	0.04 	0.04 	0.0350275 	3.84179 	
3.80676 	3.97141 	-0.164652 	-1.66078 	2.15252e-08 	4.98412 	9.96072 	
2.21303e-10 	14488.2 	246.919 	283.231 	0.35 	13.208 	-0.125741 	6.77333e-05 	
0.00180191 	0.00120127 	
0.00174413 	1.73087e-09 	0.92 	0.04 	0.04 	0.0350275 	3.84178 	
3.80675 	3.97141 	-0.164664 	-1.66115 	1.29169e-08 	3.32316 	11.6217 	
2.21353e-10 	14488.2 	246.919 	283.231 	0.35 	13.208 	-0.125768 	6.77333e-05 	
0.00180191 	0.00120127 	
0.00181187 	5.77066e-10 	0.92 	0.04 	0.04 	0.0350275 	3.84177 	
3.80674 	3.97141 	-0.164677 	-1.66157 	4.30646e-09 	1.6618 	13.283 	
2.21412e-10 	14488.2 	246.919 	283.231 	0.35 	13.208 	-0.1258 	6.77333e-05 	
0.00180191 	0.00120127 	
0.0018796 	0 	0.92 	0.04 	0.04 	0.0350275 	3.84175 	
3.80672 	3.97141 	-0.164691 	-0.831021 	4.30646e-09 	0.415511 	14.5293 	
1.10739e-10 	7244.08 	123.46 	141.616 	0.35 	6.604 	-0.125836 	3.38667e-05 	
0.000900955 	0.000600637 	
ZONE T = "t = 8.78553e-08 [s]" I = 10 SOLUTIONTIME = 8.7855344821776E-08
0.00127 	9.8015e-09 	0.92 	0.04 	0.04 	0.035028 	3.84182 	
3.80679 	3.97141 	-0.164622 	-0.829893 	7.3146e-08 	14.5299 	0.414947 	
1.41203e-10 	7244.08 	123.46 	141.616 	0.35 	6.604 	-0.125665 	3.38667e-05 	
0.000900955 	0.000600637 	
0.00133773 	8.64892e-09 	0.92 	0.04 	0.04 	0.0350279 	3.84182 	
3.80679 	3.97141 	-0.164623 	-1.65981 	6.45442e-08 	13.285 	1.6598 	
2.82411e-10 	14488.2 	246.919 	283.231 	0.35 	13.208 	-0.125667 	6.77333e-05 	
0.00180191 	0.00120127 	
0.00140547 	7.49628e-09 	0.92 	0.04 	0.04 	0.0350278 	3.84182 	
3.80679 	3.97141 	-0.164625 	-1.65989 	5.59424e-08 	11.6252 	3.31965 	
2.82425e-10 	14488.2 	246.919 	283.231 	0.35 	13.208 	-0.125673 	6.77333e-05 	
0.00180191 	0.00120127 	
0.0014732 	6.34355e-09 	0.92 	0.04 	0.04 	0.0350277 	3.84181 	
3.80678 	3.97141 	-0.164629 	-1.66003 	4.73399e-08 	9.96523 	4.97961 	
2.82449e-10 	14488.2 	246.919 	283.231 	0.35 	13.208 	-0.125684 	6.77333e-05 	
0.00180191 	0.00120127 	
0.00154093 	5.19068e-09 	0.92 	0.04 	0.04 	0.0350276 	3.84181 	
3.80678 	3.97141 	-0.164635 	-1.66022 	3.87364e-08 	8.3051 	6.63974 	
2.82484e-10 	14488.2 	246.919 	283.231 	0.35 	13.208 	-0.125698 	6.77333e-05 	
0.00180191 	0.00120127 	
0.00160867 	4.03763e-09 	0.92 	0.04 	0.04 	0.0350276 	3.8418 	
3.80677 	3.97141 	-0.164643 	-1.66047 	3.01316e-08 	6.64475 	8.30009 	
2.82528e-10 	14488.2 	246.919 	283.231 	0.35 	13.208 	-0.125717 	6.77333e-05 	
0.00180191 	0.00120127 	
0.0016764 	2.88438e-09 	0.92 	0.04 	0.04 	0.0350275 	3.84179 	
3.80676 	3.97141 	-0.164652 	-1.66078 	2.15252e-08 	4.98412 	9.96072 	
2.82582e-10 	14488.2 	246.919 	283.231 	0.35 	13.208 	-0.125741 	6.77333e-05 	
0.00180191 	0.00120127 	
0.00174413 	1.73087e-09 	0.92 	0.04 	0.04 	0.0350275 	3.84178 	
3.80675 	3.97141 	-0.164664 	-1.66115 	1.29169e-08 	3.32316 	11.6217 	
2.82646e-10 	14488.2 	246.919 	283.231 	0.35 	13.208 	-0.125768 	6.77333e-05 	
0.00180191 	0.00120127 	
0.00181187 	5.77066e-10 	0.92 	0.04 	0.04 	0.0350275 	3.84177 	
3.80674 	3.97141 	-0.164677 	-1.66157 	4.30646e-09 	1.6618 	13.283 	
2.8272e-10 	14488.2 	246.919 	283.231 	0.35 	13.208 	-0.1258 	6.77333e-05 	
0.00180191 	0.00120127 	
0.0018796 	0 	0.92 	0.04 	0.04 	0.0350275 	3.84175 	
3.80672 	3.97141 	-0.164691 	-0.831021 	4.30646e-09 	0.415511 	14.5293 	
1.41402e-10 	7244.08 	123.46 	141.616 	0.35 	6.604 	-0.125836 	3.38667e-05 	
0.000900955 	0.000600637 	
ZONE T = "t = 1.2098e-07 [s]" I = 10 SOLUTIONTIME = 1.2098009778776E-07
0.00127 	9.8015e-09 	0.92 	0.04 	0.04 	0.035028 	3.84182 	
3.80679 	3.97141 	-0.164622 	-0.829893 	7.31461e-08 	14.5299 	0.414947 	
1.87135e-10 	7244.08 	123.46 	141.616 	0.35 	6.604 	-0.125665 	3.38667e-05 	
0.000900955 	0.000600637 	
0.00133773 	8.64892e-09 	0.92 	0.04 	0.04 	0.0350279 	3.84182 	
3.80679 	3.97141 	-0.164623 	-1.65981 	6.45442e-08 	13.285 	1.6598 	
3.74276e-10 	14488.2 	246.919 	283.231 	0.35 	13.208 	-0.125667 	6.77333e-05 	
0.00180191 	0.00120127 	
0.00140547 	7.49628e-09 	0.92 	0.04 	0.04 	0.0350278 	3.84182 	
3.80679 	3.97141 	-0.164625 	-1.65989 	5.59424e-08 	11.6252 	3.31965 	
3.74295e-10 	14488.2 	246.919 	283.231 	0.35 	13.208 	-0.125673 	6.77333e-05 	
0.00180191 	0.00120127 	
0.0014732 	6.34355e-09 	0.92 	0.04 	0.04 	0.0350277 	3.84181 	
3.80678 	3.97141 	-0.164629 	-1.66003 	4.73399e-08 	9.96523 	4.97961 	
3.74327e-10 	14488.2 	246.919 	283.231 	0.35 	13.208 	-0.125684 	6.77333e-05 	
0.00180191 	0.00120127 	
0.00154093 	5.19068e-09 	0.92 	0.04 	0.04 	0.0350276 	3.84181 	
3.80678 	3.97141 	-0.164635 	-1.66022 	3.87364e-08 	8.3051 	6.63974 	
3.74372e-10 	14488.2 	246.919 	283.231 	0.35 	13.208 	-0.125698 	6.77333e-05 	
0.00180191 	0.00120127 	
0.00160867 	4.03763e-09 	0.92 	0.04 	0.04 	0.0350276 	3.8418 	
3.80677 	3.97141 	-0.164643 	-1.66047 	3.01316e-08 	6.64475 	8.30009 	
3.7443e-10 	14488.2 	246.919 	283.231 	0.35 	13.208 	-0.125717 	6.77333e-05 	
0.00180191 	0.00120127 	
0.0016764 	2.88438e-09 	0.92 	0.04 	0.04 	0.0350275 	3.84179 	
3.80676 	3.97141 	-0.164652 	-1.66078 	2.15252e-08 	4.98412 	9.96072 	
3.74501e-10 	14488.2 	246.919 	283.231 	0.35 	13.208 	-0.125741 	6.77333e-05 	
0.00180191 	0.00120127 	
0.00174413 	1.73087e-09 	0.92 	0.04 	0.04 	0.0350275 	3.84178 	
3.80675 	3.97141 	-0.164664 	-1.66115 	1.29169e-08 	3.32316 	11.6217 	
3.74586e-10 	14488.2 	246.919 	283.231 	0.35 	13.208 	-0.125768 	6.77333e-05 	
0.00180191 	0.00120127 	
0.00181187 	5.77066e-10 	0.92 	0.04 	0.04 	0.0350275 	3.84177 	
3.80674 	3.97141 	-0.164677 	-1.66157 	4.30646e-09 	1.6618 	13.283 	
3.74683e-10 	14488.2 	246.919 	283.231 	0.35 	13.208 	-0.1258 	6.77333e-05 	
0.00180191 	0.00120127 	
0.0018796 	0 	0.92 	0.04 	0.04 	0.0350275 	3.84175 	
3.80672 	3.97141 	-0.164691 	-0.831021 	4.30646e-09 	0.415511 	14.5293 	
1.87397e-10 	7244.08 	123.46 	141.616 	0.35 	6.604 	-0.125836 	3.38667e-05 	
0.000900955 	0.000600637 	
ZONE T = "t = 1.70667e-07 [s]" I = 10 SOLUTIONTIME = 1.7066722723675E-07
0.00127 	9.8015e-09 	0.92 	0.04 	0.04 	0.035028 	3.84182 	
3.80679 	3.97141 	-0.164622 	-0.829893 	7.31464e-08 	14.5299 	0.414947 	
2.56034e-10 	7244.08 	123.46 	141.616 	0.35 	6.604 	-0.125665 	3.38667e-05 	
0.000900955 	0.000600637 	
0.00133773 	8.64892e-09 	0.92 	0.04 	0.04 	0.0350279 	3.84182 	
3.80679 	3.97141 	-0.164623 	-1.65981 	6.45442e-08 	13.285 	1.6598 	
5.12075e-10 	14488.2 	246.919 	283.231 	0.35 	13.208 	-0.125667 	6.77333e-05 	
0.00180191 	0.00120127 	
0.00140547 	7.49628e-09 	0.92 	0.04 	0.04 	0.0350278 	3.84182 	
3.80679 	3.97141 	-0.164625 	-1.65989 	5.59424e-08 	11.6252 	3.31965 	
5.121e-10 	14488.2 	246.919 	283.231 	0.35 	13.208 	-0.125673 	6.77333e-05 	
0.00180191 	0.00120127 	
0.0014732 	6.34355e-09 	0.92 	0.04 	0.04 	0.0350277 	3.84181 	
3.80678 	3.97141 	-0.164629 	-1.66003 	4.73399e-08 	9.96523 	4.97961 	
5.12144e-10 	14488.2 	246.919 	283.231 	0.35 	13.208 	-0.125684 	6.77333e-05 	
0.00180191 	0.00120127 	
0.00154093 	5.19068e-09 	0.92 	0.04 	0.04 	0.0350276 	3.84181 	
3.80678 	3.97141 	-0.164635 	-1.66022 	3.87364e-08 	8.3051 	6.63974 	
5.12205e-10 	14488.2 	246.919 	283.231 	0.35 	13.208 	-0.125698 	6.77333e-05 	
0.00180191 	0.00120127 	
0.00160867 	4.03763e-09 	0.92 	0.04 	0.04 	0.0350276 	3.8418 	
3.80677 	3.97141 	-0.164643 	-1.66047 	3.01316e-08 	6.64475 	8.30009 	
5.12284e-10 	14488.2 	246.919 	283.231 	0.35 	13.208 	-0.125717 	6.77333e-05 	
0.00180191 	0.00120127 	
0.0016764 	2.88438e-09 	0.92 	0.04 	0.04 	0.0350275 	3.84179 	
3.80676 	3.97141 	-0.164652 	-1.66078 	2.15252e-08 	4.98412 	9.96072 	
5.12381e-10 	14488.2 	246.919 	283.231 	0.35 	13.208 	-0.125741 	6.77333e-05 	
0.00180191 	0.00120127 	
0.00174413 	1.73087e-09 	0.92 	0.04 	0.04 	0.0350275 	3.84178 	
3.80675 	3.97141 	-0.164664 	-1.66115 	1.29169e-08 	3.32316 	11.6217 	
5.12495e-10 	14488.2 	246.919 	283.231 	0.35 	13.208 	-0.125768 	6.77333e-05 	
0.00180191 	0.00120127 	
0.00181187 	5.77066e-10 	0.92 	0.04 	0.04 	0.0350275 	3.84177 	
3.80674 	3.97141 	-0.164677 	-1.66157 	4.30646e-09 	1.6618 	13.283 	
5.12627e-10 	14488.2 	246.919 	283.231 	0.35 	13.208 	-0.1258 	6.77333e-05 	
0.00180191 	0.00120127 	
0.0018796 	0 	0.92 	0.04 	0.04 	0.0350275 	3.84175 	
3.80672 	3.97141 	-0.164691 	-0.831021 	4.30646e-09 	0.415511 	14.5293 	
2.56389e-10 	7244.08 	123.46 	141.616 	0.35 	6.604 	-0.125836 	3.38667e-05 	
0.000900955 	0.000600637 	
ZONE T = "t = 2.45198e-07 [s]" I = 10 SOLUTIONTIME = 2.4519792141022E-07
0.00127 	9.8015e-09 	0.92 	0.04 	0.04 	0.035028 	3.84182 	
3.80679 	3.97141 	-0.164622 	-0.829893 	7.31467e-08 	14.5299 	0.414947 	
3.59381e-10 	7244.08 	123.46 	141.616 	0.35 	6.604 	-0.125665 	3.38667e-05 	
0.000900955 	0.000600637 	
0.00133773 	8.64892e-09 	0.92 	0.04 	0.04 	0.0350279 	3.84182 	
3.80679 	3.97141 	-0.164623 	-1.65981 	6.45442e-08 	13.285 	1.6598 	
7.18773e-10 	14488.2 	246.919 	283.231 	0.35 	13.208 	-0.125667 	6.77333e-05 	
0.00180191 	0.00120127 	
0.00140547 	7.49628e-09 	0.92 	0.04 	0.04 	0.0350278 	3.84182 	
3.80679 	3.97141 	-0.164625 	-1.65989 	5.59424e-08 	11.6252 	3.31965 	
7.18808e-10 	14488.2 	246.919 	283.231 	0.35 	13.208 	-0.125673 	6.77333e-05 	
0.00180191 	0.00120127 	
0.0014732 	6.34355e-09 	0.92 	0.04 	0.04 	0.0350277 	3.84181 	
3.80678 	3.97141 	-0.164629 	-1.66003 	4.73399e-08 	9.96523 	4.97961 	
7.18869e-10 	14488.2 	246.919 	283.231 	0.35 	13.208 	-0.125684 	6.77333e-05 	
0.00180191 	0.00120127 	
0.00154093 	5.19068e-09 	0.92 	0.04 	0.04 	0.0350276 	3.84181 	
3.80678 	3.97141 	-0.164635 	-1.66022 	3.87364e-08 	8.3051 	6.63974 	
7.18954e-10 	14488.2 	246.919 	283.231 	0.35 	13.208 	-0.125698 	6.77333e-05 	
0.00180191 	0.00120127 	
0.00160867 	4.03763e-09 	0.92 	0.04 	0.04 	0.0350276 	3.8418 	
3.80677 	3.97141 	-0.164643 	-1.66047 	3.01316e-08 	6.64475 	8.30009 	
7.19064e-10 	14488.2 	246.919 	283.231 	0.35 	13.208 	-0.125717 	6.77333e-05 	
0.00180191 	0.00120127 	
0.0016764 	2.88438e-09 	0.92 	0.04 	0.04 	0.0350275 	3.84179 	
3.80676 	3.97141 	-0.164652 	-1.66078 	2.15252e-08 	4.98412 	9.96072 	
7.19199e-10 	14488.2 	246.919 	283.231 	0.35 	13.208 	-0.125741 	6.77333e-05 	
0.00180191 	0.00120127 	
0.00174413 	1.73087e-09 	0.92 	0.04 	0.04 	0.0350275 	3.84178 	
3.80675 	3.97141 	-0.164664 	-1.66115 	1.29169e-08 	3.32316 	11.6217 	
7.19359e-10 	14488.2 	246.919 	283.231 	0.35 	13.208 	-0.125768 	6.77333e-05 	
0.00180191 	0.00120127 	
0.00181187 	5.77066e-10 	0.92 	0.04 	0.04 	0.0350275 	3.84177 	
3.80674 	3.97141 	-0.164677 	-1.66157 	4.30646e-09 	1.6618 	13.283 	
7.19544e-10 	14488.2 	246.919 	283.231 	0.35 	13.208 	-0.1258 	6.77333e-05 	
0.00180191 	0.00120127 	
0.0018796 	0 	0.92 	0.04 	0.04 	0.0350275 	3.84175 	
3.80672 	3.97141 	-0.164691 	-0.831021 	4.30646e-09 	0.415511 	14.5293 	
3.59877e-10 	7244.08 	123.46 	141.616 	0.35 	6.604 	-0.125836 	3.38667e-05 	
0.000900955 	0.000600637 	
