TITLE = "Solution on Domain BulkDomain1D_2"
VARIABLES = "x [m]"  
"Vel_axial" 	"MF_sp(ECDMC)" 	"MF_sp(Li+)" 	"MF_sp(PF6-)" 	"Volt(Electroly)" 	"Volt(CathodeVo)" 	
"Potential Drop Electrode-Electrolyte [V]" 	"Surf_0 Equilibrium Potential Drop Electrode-Electrolyte [V]" 	"Overpotential_0 [V]" 	"Current Source [A/m^2]" 	"Li+ flux [kmol/m^2/s]" 	"Electrolyte Current [A/m^2]" 	"Electrode Current [A/m^2]" 	
"Capacity discharged [A-s]" 	"Depth of discharge [-]" 	"Capacity remaining [A-s]" 	"Initial capacity [A-s]" 	"Porosity []" 	"Surface Area [m2/m2] (area per area)" 	"Specific current (per particle area) [A/m^2]" 	"Control volume thickness [m]" 	
"Moles LiCoO2 [mol/m^2] (per electrode area)" 	"Moles CoO2 [mol/m^2] (per electrode area)" 	"qHeat_accum [J/m3]" 	"qHeat_step [W/m3]" 	"Joule_Lyte [W/m3]" 	"Joule_Solid [W/m3]" 	"electrodHeat [W/m3]" 	"OverpotHeat [W/m3]" 	"deltaSHeat [W/m3]" 	

ZONE T = "t = 0 [s]" I = 10 SOLUTIONTIME = 0.0000000000000E+00
0.00127 	0 	0.92 	0.04 	0.04 	-0.07 	3.8 	
0 	0 	0 	0 	0 	0.119132 	0 	
0 	0 	0 	0 	0.35 	6.604 	-0.0360787 	3.38667e-05 	
0.000900955 	0.000600637 	0 	0.0 	 0.0 	 0.0 	 0.0 	 0.0 	 0.0 	 
0.00133773 	0 	0.92 	0.04 	0.04 	-0.07 	3.8 	
0 	0 	0 	0 	0 	0 	-0 	
0 	0 	0 	0 	0.35 	13.208 	-0.0360787 	6.77333e-05 	
0.00180191 	0.00120127 	0 	0.0 	 0.0 	 0.0 	 0.0 	 0.0 	 0.0 	 
0.00140547 	0 	0.92 	0.04 	0.04 	-0.07 	3.8 	
0 	0 	0 	0 	0 	0 	-0 	
0 	0 	0 	0 	0.35 	13.208 	-0.0360787 	6.77333e-05 	
0.00180191 	0.00120127 	0 	0.0 	 0.0 	 0.0 	 0.0 	 0.0 	 0.0 	 
0.0014732 	0 	0.92 	0.04 	0.04 	-0.07 	3.8 	
0 	0 	0 	0 	0 	0 	-0 	
0 	0 	0 	0 	0.35 	13.208 	-0.0360787 	6.77333e-05 	
0.00180191 	0.00120127 	0 	0.0 	 0.0 	 0.0 	 0.0 	 0.0 	 0.0 	 
0.00154093 	0 	0.92 	0.04 	0.04 	-0.07 	3.8 	
0 	0 	0 	0 	0 	0 	-0 	
0 	0 	0 	0 	0.35 	13.208 	-0.0360787 	6.77333e-05 	
0.00180191 	0.00120127 	0 	0.0 	 0.0 	 0.0 	 0.0 	 0.0 	 0.0 	 
0.00160867 	0 	0.92 	0.04 	0.04 	-0.07 	3.8 	
0 	0 	0 	0 	0 	0 	-0 	
0 	0 	0 	0 	0.35 	13.208 	-0.0360787 	6.77333e-05 	
0.00180191 	0.00120127 	0 	0.0 	 0.0 	 0.0 	 0.0 	 0.0 	 0.0 	 
0.0016764 	0 	0.92 	0.04 	0.04 	-0.07 	3.8 	
0 	0 	0 	0 	0 	0 	-0 	
0 	0 	0 	0 	0.35 	13.208 	-0.0360787 	6.77333e-05 	
0.00180191 	0.00120127 	0 	0.0 	 0.0 	 0.0 	 0.0 	 0.0 	 0.0 	 
0.00174413 	0 	0.92 	0.04 	0.04 	-0.07 	3.8 	
0 	0 	0 	0 	0 	0 	-0 	
0 	0 	0 	0 	0.35 	13.208 	-0.0360787 	6.77333e-05 	
0.00180191 	0.00120127 	0 	0.0 	 0.0 	 0.0 	 0.0 	 0.0 	 0.0 	 
0.00181187 	0 	0.92 	0.04 	0.04 	-0.07 	3.8 	
0 	0 	0 	0 	0 	0 	-0 	
0 	0 	0 	0 	0.35 	13.208 	-0.0360787 	6.77333e-05 	
0.00180191 	0.00120127 	0 	0.0 	 0.0 	 0.0 	 0.0 	 0.0 	 0.0 	 
0.0018796 	0 	0.92 	0.04 	0.04 	-0.07 	3.8 	
0 	0 	0 	0 	0 	0 	0.119132 	
0 	0 	0 	0 	0.35 	6.604 	-0.0360787 	3.38667e-05 	
0.000900955 	0.000600637 	0 	0.0 	 0.0 	 0.0 	 0.0 	 0.0 	 0.0 	 
ZONE T = "t = 1e-08 [s]" I = 10 SOLUTIONTIME = 1.0000000000000E-08
0.00127 	9.22315e-09 	0.92 	0.04 	0.04 	0.0350282 	3.84183 	
3.87 	3.97141 	-0.101414 	-0.238264 	-0 	14.5282 	0.414851 	
-0 	7244.08 	123.46 	141.616 	0.35 	6.604 	-0.125637 	3.38667e-05 	
0.000900955 	0.000600637 	3.45894e-10 	0.0345894 	0.021453 	0.0131363 	0 	0 	0 	
0.00133773 	6.91814e-09 	0.92 	0.04 	0.04 	0.0350281 	3.84183 	
3.87 	3.97141 	-0.101414 	-0.476527 	-0 	13.2836 	1.65942 	
-0 	14488.2 	246.919 	283.231 	0.35 	13.208 	-0.125639 	6.77333e-05 	
0.00180191 	0.00120127 	8.4762e-10 	0.084762 	0.0190789 	0.0656831 	0 	0 	0 	
0.00140547 	4.61299e-09 	0.92 	0.04 	0.04 	0.035028 	3.84183 	
3.87 	3.97141 	-0.101414 	-0.476527 	-0 	11.6241 	3.31891 	
-0 	14488.2 	246.919 	283.231 	0.35 	13.208 	-0.125647 	6.77333e-05 	
0.00180191 	0.00120127 	2.37959e-09 	0.237959 	0.0146271 	0.223332 	0 	0 	0 	
0.0014732 	2.30761e-09 	0.92 	0.04 	0.04 	0.0350279 	3.84182 	
3.87 	3.97141 	-0.101414 	-0.476527 	-0 	9.96451 	4.97853 	
-0 	14488.2 	246.919 	283.231 	0.35 	13.208 	-0.12566 	6.77333e-05 	
0.00180191 	0.00120127 	4.96877e-09 	0.496877 	0.0107682 	0.486109 	0 	0 	0 	
0.00154093 	2.25073e-12 	0.92 	0.04 	0.04 	0.0350279 	3.84182 	
3.87 	3.97141 	-0.101414 	-0.476527 	-0 	8.30468 	6.63836 	
-0 	14488.2 	246.919 	283.231 	0.35 	13.208 	-0.125678 	6.77333e-05 	
0.00180191 	0.00120127 	8.6156e-09 	0.86156 	0.00750225 	0.854058 	0 	0 	0 	
0.00160867 	-2.3039e-09 	0.92 	0.04 	0.04 	0.0350278 	3.84181 	
3.87 	3.97141 	-0.101414 	-0.476527 	-0 	6.64458 	8.29846 	
-0 	14488.2 	246.919 	283.231 	0.35 	13.208 	-0.125702 	6.77333e-05 	
0.00180191 	0.00120127 	1.33207e-08 	1.33207 	0.00482937 	1.32724 	0 	0 	0 	
0.0016764 	-4.61058e-09 	0.92 	0.04 	0.04 	0.0350278 	3.84179 	
3.87 	3.97141 	-0.101414 	-0.476527 	-0 	4.98413 	9.95891 	
-0 	14488.2 	246.919 	283.231 	0.35 	13.208 	-0.125731 	6.77333e-05 	
0.00180191 	0.00120127 	1.90848e-08 	1.90848 	0.00274977 	1.90573 	0 	0 	0 	
0.00174413 	-6.91789e-09 	0.92 	0.04 	0.04 	0.0350277 	3.84178 	
3.87 	3.97141 	-0.101414 	-0.476527 	-0 	3.32326 	11.6198 	
-0 	14488.2 	246.919 	283.231 	0.35 	13.208 	-0.125765 	6.77333e-05 	
0.00180191 	0.00120127 	2.5909e-08 	2.5909 	0.00126378 	2.58964 	0 	0 	0 	
0.00181187 	-9.22556e-09 	0.92 	0.04 	0.04 	0.0350277 	3.84176 	
3.87 	3.97141 	-0.101414 	-0.476527 	-0 	1.66191 	13.2811 	
-0 	14488.2 	246.919 	283.231 	0.35 	13.208 	-0.125804 	6.77333e-05 	
0.00180191 	0.00120127 	3.37943e-08 	3.37943 	0.000371812 	3.37906 	0 	0 	0 	
0.0018796 	0 	0.92 	0.04 	0.04 	0.0350277 	3.84175 	
3.87 	3.97141 	-0.101414 	-0.238264 	-0 	0.415551 	14.5275 	
-0 	7244.08 	123.46 	141.616 	0.35 	6.604 	-0.125849 	3.38667e-05 	
0.000900955 	0.000600637 	3.80025e-08 	3.80025 	7.43941e-05 	3.80017 	0 	0 	0 	
ZONE T = "t = 2e-08 [s]" I = 10 SOLUTIONTIME = 2.0000000000000E-08
0.00127 	9.22212e-09 	0.92 	0.04 	0.04 	0.0350286 	3.84183 	
3.8068 	3.97141 	-0.16461 	-0.829706 	7.31373e-08 	14.5283 	0.414854 	
2.07949e-11 	7244.08 	123.46 	141.616 	0.35 	6.604 	-0.125637 	3.38667e-05 	
0.000900955 	0.000600637 	6.91792e-10 	0.0345899 	0.0214533 	0.0131365 	0 	0 	0 	
0.00133773 	6.9171e-09 	0.92 	0.04 	0.04 	0.0350285 	3.84183 	
3.8068 	3.97141 	-0.164611 	-1.65944 	6.45378e-08 	13.2837 	1.65943 	
4.15906e-11 	14488.2 	246.919 	283.231 	0.35 	13.208 	-0.12564 	6.77333e-05 	
0.00180191 	0.00120127 	1.69525e-09 	0.0847633 	0.0190792 	0.0656841 	0 	0 	0 	
0.00140547 	4.61266e-09 	0.92 	0.04 	0.04 	0.0350284 	3.84183 	
3.8068 	3.97141 	-0.164614 	-1.65954 	5.59379e-08 	11.6242 	3.31893 	
4.15932e-11 	14488.2 	246.919 	283.231 	0.35 	13.208 	-0.125647 	6.77333e-05 	
0.00180191 	0.00120127 	4.75922e-09 	0.237963 	0.0146273 	0.223335 	0 	0 	0 	
0.0014732 	2.30799e-09 	0.92 	0.04 	0.04 	0.0350284 	3.84182 	
3.80679 	3.97141 	-0.16462 	-1.65972 	4.7337e-08 	9.96458 	4.97856 	
4.15975e-11 	14488.2 	246.919 	283.231 	0.35 	13.208 	-0.12566 	6.77333e-05 	
0.00180191 	0.00120127 	9.93762e-09 	0.496884 	0.0107684 	0.486116 	0 	0 	0 	
0.00154093 	2.97737e-12 	0.92 	0.04 	0.04 	0.0350283 	3.84182 	
3.80679 	3.97141 	-0.164627 	-1.65996 	3.87349e-08 	8.30474 	6.6384 	
4.16035e-11 	14488.2 	246.919 	283.231 	0.35 	13.208 	-0.125678 	6.77333e-05 	
0.00180191 	0.00120127 	1.72313e-08 	0.861572 	0.00750236 	0.85407 	0 	0 	0 	
0.00160867 	-2.30247e-09 	0.92 	0.04 	0.04 	0.0350282 	3.84181 	
3.80678 	3.97141 	-0.164637 	-1.66027 	3.01313e-08 	6.64463 	8.29852 	
4.16113e-11 	14488.2 	246.919 	283.231 	0.35 	13.208 	-0.125702 	6.77333e-05 	
0.00180191 	0.00120127 	2.66416e-08 	1.33209 	0.00482944 	1.32726 	0 	0 	0 	
0.0016764 	-4.60844e-09 	0.92 	0.04 	0.04 	0.0350282 	3.84179 	
3.80677 	3.97141 	-0.164648 	-1.66065 	2.15256e-08 	4.98417 	9.95898 	
4.16209e-11 	14488.2 	246.919 	283.231 	0.35 	13.208 	-0.125731 	6.77333e-05 	
0.00180191 	0.00120127 	3.81699e-08 	1.90851 	0.00274981 	1.90576 	0 	0 	0 	
0.00174413 	-6.91504e-09 	0.92 	0.04 	0.04 	0.0350282 	3.84178 	
3.80675 	3.97141 	-0.164662 	-1.6611 	1.29176e-08 	3.32329 	11.6199 	
4.16322e-11 	14488.2 	246.919 	283.231 	0.35 	13.208 	-0.125765 	6.77333e-05 	
0.00180191 	0.00120127 	5.18184e-08 	2.59094 	0.0012638 	2.58967 	0 	0 	0 	
0.00181187 	-9.22236e-09 	0.92 	0.04 	0.04 	0.0350281 	3.84176 	
3.80674 	3.97141 	-0.164678 	-1.66162 	4.30705e-09 	1.66192 	13.2812 	
4.16452e-11 	14488.2 	246.919 	283.231 	0.35 	13.208 	-0.125804 	6.77333e-05 	
0.00180191 	0.00120127 	6.75892e-08 	3.37948 	0.000371817 	3.37911 	0 	0 	0 	
0.0018796 	0 	0.92 	0.04 	0.04 	0.0350281 	3.84175 	
3.80672 	3.97141 	-0.164697 	-0.831107 	4.30705e-09 	0.415554 	14.5276 	
2.083e-11 	7244.08 	123.46 	141.616 	0.35 	6.604 	-0.125849 	3.38667e-05 	
0.000900955 	0.000600637 	7.60055e-08 	3.8003 	7.43952e-05 	3.80023 	0 	0 	0 	
ZONE T = "t = 3e-08 [s]" I = 10 SOLUTIONTIME = 3.0000000000000E-08
0.00127 	9.22249e-09 	0.92 	0.04 	0.04 	0.0350286 	3.84183 	
3.8068 	3.97141 	-0.16461 	-0.829708 	7.31379e-08 	14.5283 	0.414854 	
4.15899e-11 	7244.08 	123.46 	141.616 	0.35 	6.604 	-0.125637 	3.38667e-05 	
0.000900955 	0.000600637 	1.03769e-09 	0.0345899 	0.0214533 	0.0131365 	0 	0 	0 	
0.00133773 	6.91783e-09 	0.92 	0.04 	0.04 	0.0350285 	3.84183 	
3.8068 	3.97141 	-0.164611 	-1.65945 	6.45383e-08 	13.2837 	1.65943 	
8.31814e-11 	14488.2 	246.919 	283.231 	0.35 	13.208 	-0.12564 	6.77333e-05 	
0.00180191 	0.00120127 	2.54289e-09 	0.0847633 	0.0190792 	0.0656841 	0 	0 	0 	
0.00140547 	4.61303e-09 	0.92 	0.04 	0.04 	0.0350284 	3.84183 	
3.8068 	3.97141 	-0.164614 	-1.65955 	5.59383e-08 	11.6242 	3.31893 	
8.31864e-11 	14488.2 	246.919 	283.231 	0.35 	13.208 	-0.125647 	6.77333e-05 	
0.00180191 	0.00120127 	7.13884e-09 	0.237963 	0.0146273 	0.223335 	0 	0 	0 	
0.0014732 	2.30762e-09 	0.92 	0.04 	0.04 	0.0350284 	3.84182 	
3.80679 	3.97141 	-0.16462 	-1.65972 	4.73374e-08 	9.96458 	4.97856 	
8.3195e-11 	14488.2 	246.919 	283.231 	0.35 	13.208 	-0.12566 	6.77333e-05 	
0.00180191 	0.00120127 	1.49065e-08 	0.496884 	0.0107684 	0.486116 	0 	0 	0 	
0.00154093 	2.25095e-12 	0.92 	0.04 	0.04 	0.0350283 	3.84182 	
3.80679 	3.97141 	-0.164627 	-1.65996 	3.87352e-08 	8.30474 	6.6384 	
8.32071e-11 	14488.2 	246.919 	283.231 	0.35 	13.208 	-0.125678 	6.77333e-05 	
0.00180191 	0.00120127 	2.5847e-08 	0.861572 	0.00750236 	0.85407 	0 	0 	0 	
0.00160867 	-2.30355e-09 	0.92 	0.04 	0.04 	0.0350282 	3.84181 	
3.80678 	3.97141 	-0.164637 	-1.66027 	3.01315e-08 	6.64463 	8.29852 	
8.32227e-11 	14488.2 	246.919 	283.231 	0.35 	13.208 	-0.125702 	6.77333e-05 	
0.00180191 	0.00120127 	3.99624e-08 	1.33209 	0.00482944 	1.32726 	0 	0 	0 	
0.0016764 	-4.61025e-09 	0.92 	0.04 	0.04 	0.0350282 	3.84179 	
3.80677 	3.97141 	-0.164649 	-1.66065 	2.15258e-08 	4.98417 	9.95898 	
8.32418e-11 	14488.2 	246.919 	283.231 	0.35 	13.208 	-0.125731 	6.77333e-05 	
0.00180191 	0.00120127 	5.7255e-08 	1.90851 	0.00274981 	1.90576 	0 	0 	0 	
0.00174413 	-6.91721e-09 	0.92 	0.04 	0.04 	0.0350282 	3.84178 	
3.80675 	3.97141 	-0.164662 	-1.6611 	1.29177e-08 	3.32329 	11.6199 	
8.32644e-11 	14488.2 	246.919 	283.231 	0.35 	13.208 	-0.125765 	6.77333e-05 	
0.00180191 	0.00120127 	7.77277e-08 	2.59094 	0.0012638 	2.58967 	0 	0 	0 	
0.00181187 	-9.22454e-09 	0.92 	0.04 	0.04 	0.0350281 	3.84176 	
3.80674 	3.97141 	-0.164678 	-1.66163 	4.30724e-09 	1.66192 	13.2812 	
8.32906e-11 	14488.2 	246.919 	283.231 	0.35 	13.208 	-0.125804 	6.77333e-05 	
0.00180191 	0.00120127 	1.01384e-07 	3.37948 	0.000371817 	3.37911 	0 	0 	0 	
0.0018796 	0 	0.92 	0.04 	0.04 	0.0350281 	3.84175 	
3.80672 	3.97141 	-0.164697 	-0.831109 	4.30724e-09 	0.415554 	14.5276 	
4.16601e-11 	7244.08 	123.46 	141.616 	0.35 	6.604 	-0.125849 	3.38667e-05 	
0.000900955 	0.000600637 	1.14008e-07 	3.8003 	7.43952e-05 	3.80023 	0 	0 	0 	
ZONE T = "t = 4e-08 [s]" I = 10 SOLUTIONTIME = 4.0000000000000E-08
0.00127 	9.22467e-09 	0.92 	0.04 	0.04 	0.0350286 	3.84183 	
3.8068 	3.97141 	-0.16461 	-0.829708 	7.31379e-08 	14.5283 	0.414854 	
6.23849e-11 	7244.08 	123.46 	141.616 	0.35 	6.604 	-0.125637 	3.38667e-05 	
0.000900955 	0.000600637 	1.38359e-09 	0.0345899 	0.0214533 	0.0131365 	0 	0 	0 	
0.00133773 	6.92001e-09 	0.92 	0.04 	0.04 	0.0350285 	3.84183 	
3.8068 	3.97141 	-0.164611 	-1.65945 	6.45383e-08 	13.2837 	1.65943 	
1.24772e-10 	14488.2 	246.919 	283.231 	0.35 	13.208 	-0.12564 	6.77333e-05 	
0.00180191 	0.00120127 	3.39052e-09 	0.0847633 	0.0190792 	0.0656841 	0 	0 	0 	
0.00140547 	4.61521e-09 	0.92 	0.04 	0.04 	0.0350284 	3.84183 	
3.8068 	3.97141 	-0.164614 	-1.65955 	5.59383e-08 	11.6242 	3.31893 	
1.2478e-10 	14488.2 	246.919 	283.231 	0.35 	13.208 	-0.125647 	6.77333e-05 	
0.00180191 	0.00120127 	9.51847e-09 	0.237963 	0.0146273 	0.223335 	0 	0 	0 	
0.0014732 	2.31053e-09 	0.92 	0.04 	0.04 	0.0350284 	3.84182 	
3.80679 	3.97141 	-0.16462 	-1.65972 	4.73374e-08 	9.96458 	4.97856 	
1.24793e-10 	14488.2 	246.919 	283.231 	0.35 	13.208 	-0.12566 	6.77333e-05 	
0.00180191 	0.00120127 	1.98753e-08 	0.496884 	0.0107684 	0.486116 	0 	0 	0 	
0.00154093 	5.15662e-12 	0.92 	0.04 	0.04 	0.0350283 	3.84182 	
3.80679 	3.97141 	-0.164627 	-1.65996 	3.87352e-08 	8.30474 	6.6384 	
1.24811e-10 	14488.2 	246.919 	283.231 	0.35 	13.208 	-0.125678 	6.77333e-05 	
0.00180191 	0.00120127 	3.44628e-08 	0.861572 	0.00750236 	0.85407 	0 	0 	0 	
0.00160867 	-2.30174e-09 	0.92 	0.04 	0.04 	0.0350282 	3.84181 	
3.80678 	3.97141 	-0.164637 	-1.66027 	3.01315e-08 	6.64463 	8.29852 	
1.24834e-10 	14488.2 	246.919 	283.231 	0.35 	13.208 	-0.125702 	6.77333e-05 	
0.00180191 	0.00120127 	5.32833e-08 	1.33209 	0.00482944 	1.32726 	0 	0 	0 	
0.0016764 	-4.60771e-09 	0.92 	0.04 	0.04 	0.0350282 	3.84179 	
3.80677 	3.97141 	-0.164649 	-1.66065 	2.15258e-08 	4.98417 	9.95898 	
1.24863e-10 	14488.2 	246.919 	283.231 	0.35 	13.208 	-0.125731 	6.77333e-05 	
0.00180191 	0.00120127 	7.63401e-08 	1.90851 	0.00274981 	1.90576 	0 	0 	0 	
0.00174413 	-6.91467e-09 	0.92 	0.04 	0.04 	0.0350282 	3.84178 	
3.80675 	3.97141 	-0.164662 	-1.6611 	1.29177e-08 	3.32329 	11.6199 	
1.24897e-10 	14488.2 	246.919 	283.231 	0.35 	13.208 	-0.125765 	6.77333e-05 	
0.00180191 	0.00120127 	1.03637e-07 	2.59094 	0.0012638 	2.58967 	0 	0 	0 	
0.00181187 	-9.22272e-09 	0.92 	0.04 	0.04 	0.0350281 	3.84176 	
3.80674 	3.97141 	-0.164678 	-1.66163 	4.3074e-09 	1.66192 	13.2812 	
1.24936e-10 	14488.2 	246.919 	283.231 	0.35 	13.208 	-0.125804 	6.77333e-05 	
0.00180191 	0.00120127 	1.35179e-07 	3.37948 	0.000371817 	3.37911 	0 	0 	0 	
0.0018796 	0 	0.92 	0.04 	0.04 	0.0350281 	3.84175 	
3.80672 	3.97141 	-0.164697 	-0.831109 	4.3074e-09 	0.415554 	14.5276 	
6.24902e-11 	7244.08 	123.46 	141.616 	0.35 	6.604 	-0.125849 	3.38667e-05 	
0.000900955 	0.000600637 	1.52011e-07 	3.8003 	7.43952e-05 	3.80023 	0 	0 	0 	
ZONE T = "t = 5.5e-08 [s]" I = 10 SOLUTIONTIME = 5.5000000000000E-08
0.00127 	9.22479e-09 	0.92 	0.04 	0.04 	0.0350286 	3.84183 	
3.8068 	3.97141 	-0.16461 	-0.829708 	7.3138e-08 	14.5283 	0.414854 	
8.31798e-11 	7244.08 	123.46 	141.616 	0.35 	6.604 	-0.125637 	3.38667e-05 	
0.000900955 	0.000600637 	1.90244e-09 	0.0345899 	0.0214533 	0.0131365 	0 	0 	0 	
0.00133773 	6.92013e-09 	0.92 	0.04 	0.04 	0.0350285 	3.84183 	
3.8068 	3.97141 	-0.164611 	-1.65945 	6.45383e-08 	13.2837 	1.65943 	
1.66363e-10 	14488.2 	246.919 	283.231 	0.35 	13.208 	-0.12564 	6.77333e-05 	
0.00180191 	0.00120127 	4.66197e-09 	0.0847633 	0.0190792 	0.0656841 	0 	0 	0 	
0.00140547 	4.6146e-09 	0.92 	0.04 	0.04 	0.0350284 	3.84183 	
3.8068 	3.97141 	-0.164614 	-1.65955 	5.59383e-08 	11.6242 	3.31893 	
1.66373e-10 	14488.2 	246.919 	283.231 	0.35 	13.208 	-0.125647 	6.77333e-05 	
0.00180191 	0.00120127 	1.30879e-08 	0.237963 	0.0146273 	0.223335 	0 	0 	0 	
0.0014732 	2.30956e-09 	0.92 	0.04 	0.04 	0.0350284 	3.84182 	
3.80679 	3.97141 	-0.16462 	-1.65972 	4.73374e-08 	9.96458 	4.97856 	
1.6639e-10 	14488.2 	246.919 	283.231 	0.35 	13.208 	-0.12566 	6.77333e-05 	
0.00180191 	0.00120127 	2.73286e-08 	0.496884 	0.0107684 	0.486116 	0 	0 	0 	
0.00154093 	4.18806e-12 	0.92 	0.04 	0.04 	0.0350283 	3.84182 	
3.80679 	3.97141 	-0.164627 	-1.65996 	3.87352e-08 	8.30474 	6.6384 	
1.66414e-10 	14488.2 	246.919 	283.231 	0.35 	13.208 	-0.125678 	6.77333e-05 	
0.00180191 	0.00120127 	4.73864e-08 	0.861572 	0.00750236 	0.85407 	0 	0 	0 	
0.00160867 	-2.30089e-09 	0.92 	0.04 	0.04 	0.0350282 	3.84181 	
3.80678 	3.97141 	-0.164637 	-1.66027 	3.01315e-08 	6.64463 	8.29852 	
1.66445e-10 	14488.2 	246.919 	283.231 	0.35 	13.208 	-0.125702 	6.77333e-05 	
0.00180191 	0.00120127 	7.32646e-08 	1.33209 	0.00482944 	1.32726 	0 	0 	0 	
0.0016764 	-4.60723e-09 	0.92 	0.04 	0.04 	0.0350282 	3.84179 	
3.80677 	3.97141 	-0.164649 	-1.66065 	2.15258e-08 	4.98417 	9.95898 	
1.66484e-10 	14488.2 	246.919 	283.231 	0.35 	13.208 	-0.125731 	6.77333e-05 	
0.00180191 	0.00120127 	1.04968e-07 	1.90851 	0.00274981 	1.90576 	0 	0 	0 	
0.00174413 	-6.91419e-09 	0.92 	0.04 	0.04 	0.0350282 	3.84178 	
3.80675 	3.97141 	-0.164662 	-1.6611 	1.29177e-08 	3.32329 	11.6199 	
1.66529e-10 	14488.2 	246.919 	283.231 	0.35 	13.208 	-0.125765 	6.77333e-05 	
0.00180191 	0.00120127 	1.42501e-07 	2.59094 	0.0012638 	2.58967 	0 	0 	0 	
0.00181187 	-9.22187e-09 	0.92 	0.04 	0.04 	0.0350281 	3.84176 	
3.80674 	3.97141 	-0.164678 	-1.66163 	4.30756e-09 	1.66192 	13.2812 	
1.66581e-10 	14488.2 	246.919 	283.231 	0.35 	13.208 	-0.125804 	6.77333e-05 	
0.00180191 	0.00120127 	1.85871e-07 	3.37948 	0.000371817 	3.37911 	0 	0 	0 	
0.0018796 	0 	0.92 	0.04 	0.04 	0.0350281 	3.84175 	
3.80672 	3.97141 	-0.164697 	-0.831109 	4.30756e-09 	0.415554 	14.5276 	
8.33203e-11 	7244.08 	123.46 	141.616 	0.35 	6.604 	-0.125849 	3.38667e-05 	
0.000900955 	0.000600637 	2.09016e-07 	3.8003 	7.43952e-05 	3.80023 	0 	0 	0 	
ZONE T = "t = 7.75e-08 [s]" I = 10 SOLUTIONTIME = 7.7500000000000E-08
0.00127 	9.22325e-09 	0.92 	0.04 	0.04 	0.0350286 	3.84183 	
3.8068 	3.97141 	-0.16461 	-0.829708 	7.31381e-08 	14.5283 	0.414854 	
1.14372e-10 	7244.08 	123.46 	141.616 	0.35 	6.604 	-0.125637 	3.38667e-05 	
0.000900955 	0.000600637 	2.68071e-09 	0.0345899 	0.0214533 	0.0131365 	0 	0 	0 	
0.00133773 	6.91859e-09 	0.92 	0.04 	0.04 	0.0350285 	3.84183 	
3.8068 	3.97141 	-0.164611 	-1.65945 	6.45383e-08 	13.2837 	1.65943 	
2.28749e-10 	14488.2 	246.919 	283.231 	0.35 	13.208 	-0.12564 	6.77333e-05 	
0.00180191 	0.00120127 	6.56914e-09 	0.0847633 	0.0190792 	0.0656841 	0 	0 	0 	
0.00140547 	4.61428e-09 	0.92 	0.04 	0.04 	0.0350284 	3.84183 	
3.8068 	3.97141 	-0.164614 	-1.65955 	5.59383e-08 	11.6242 	3.31893 	
2.28763e-10 	14488.2 	246.919 	283.231 	0.35 	13.208 	-0.125647 	6.77333e-05 	
0.00180191 	0.00120127 	1.84421e-08 	0.237963 	0.0146273 	0.223335 	0 	0 	0 	
0.0014732 	2.30924e-09 	0.92 	0.04 	0.04 	0.0350284 	3.84182 	
3.80679 	3.97141 	-0.16462 	-1.65972 	4.73374e-08 	9.96458 	4.97856 	
2.28786e-10 	14488.2 	246.919 	283.231 	0.35 	13.208 	-0.12566 	6.77333e-05 	
0.00180191 	0.00120127 	3.85085e-08 	0.496884 	0.0107684 	0.486116 	0 	0 	0 	
0.00154093 	3.86521e-12 	0.92 	0.04 	0.04 	0.0350283 	3.84182 	
3.80679 	3.97141 	-0.164627 	-1.65996 	3.87352e-08 	8.30474 	6.6384 	
2.2882e-10 	14488.2 	246.919 	283.231 	0.35 	13.208 	-0.125678 	6.77333e-05 	
0.00180191 	0.00120127 	6.67717e-08 	0.861572 	0.00750236 	0.85407 	0 	0 	0 	
0.00160867 	-2.3021e-09 	0.92 	0.04 	0.04 	0.0350282 	3.84181 	
3.80678 	3.97141 	-0.164637 	-1.66027 	3.01315e-08 	6.64463 	8.29852 	
2.28863e-10 	14488.2 	246.919 	283.231 	0.35 	13.208 	-0.125702 	6.77333e-05 	
0.00180191 	0.00120127 	1.03237e-07 	1.33209 	0.00482944 	1.32726 	0 	0 	0 	
0.0016764 	-4.60844e-09 	0.92 	0.04 	0.04 	0.0350282 	3.84179 	
3.80677 	3.97141 	-0.164649 	-1.66065 	2.15258e-08 	4.98417 	9.95898 	
2.28915e-10 	14488.2 	246.919 	283.231 	0.35 	13.208 	-0.125731 	6.77333e-05 	
0.00180191 	0.00120127 	1.47909e-07 	1.90851 	0.00274981 	1.90576 	0 	0 	0 	
0.00174413 	-6.91556e-09 	0.92 	0.04 	0.04 	0.0350282 	3.84178 	
3.80675 	3.97141 	-0.164662 	-1.6611 	1.29177e-08 	3.32329 	11.6199 	
2.28977e-10 	14488.2 	246.919 	283.231 	0.35 	13.208 	-0.125765 	6.77333e-05 	
0.00180191 	0.00120127 	2.00797e-07 	2.59094 	0.0012638 	2.58967 	0 	0 	0 	
0.00181187 	-9.22341e-09 	0.92 	0.04 	0.04 	0.0350281 	3.84176 	
3.80674 	3.97141 	-0.164678 	-1.66163 	4.3078e-09 	1.66192 	13.2812 	
2.29049e-10 	14488.2 	246.919 	283.231 	0.35 	13.208 	-0.125804 	6.77333e-05 	
0.00180191 	0.00120127 	2.61909e-07 	3.37948 	0.000371817 	3.37911 	0 	0 	0 	
0.0018796 	0 	0.92 	0.04 	0.04 	0.0350281 	3.84175 	
3.80672 	3.97141 	-0.164697 	-0.831109 	4.3078e-09 	0.415554 	14.5276 	
1.14565e-10 	7244.08 	123.46 	141.616 	0.35 	6.604 	-0.125849 	3.38667e-05 	
0.000900955 	0.000600637 	2.94523e-07 	3.8003 	7.43952e-05 	3.80023 	0 	0 	0 	
ZONE T = "t = 1.1125e-07 [s]" I = 10 SOLUTIONTIME = 1.1125000000000E-07
0.00127 	9.225e-09 	0.92 	0.04 	0.04 	0.0350286 	3.84183 	
3.8068 	3.97141 	-0.16461 	-0.829708 	7.31382e-08 	14.5283 	0.414854 	
1.61161e-10 	7244.08 	123.46 	141.616 	0.35 	6.604 	-0.125637 	3.38667e-05 	
0.000900955 	0.000600637 	3.84812e-09 	0.0345899 	0.0214533 	0.0131365 	0 	0 	0 	
0.00133773 	6.92034e-09 	0.92 	0.04 	0.04 	0.0350285 	3.84183 	
3.8068 	3.97141 	-0.164611 	-1.65945 	6.45383e-08 	13.2837 	1.65943 	
3.22328e-10 	14488.2 	246.919 	283.231 	0.35 	13.208 	-0.12564 	6.77333e-05 	
0.00180191 	0.00120127 	9.4299e-09 	0.0847633 	0.0190792 	0.0656841 	0 	0 	0 	
0.00140547 	4.61554e-09 	0.92 	0.04 	0.04 	0.0350284 	3.84183 	
3.8068 	3.97141 	-0.164614 	-1.65955 	5.59383e-08 	11.6242 	3.31893 	
3.22348e-10 	14488.2 	246.919 	283.231 	0.35 	13.208 	-0.125647 	6.77333e-05 	
0.00180191 	0.00120127 	2.64733e-08 	0.237963 	0.0146273 	0.223335 	0 	0 	0 	
0.0014732 	2.3105e-09 	0.92 	0.04 	0.04 	0.0350284 	3.84182 	
3.80679 	3.97141 	-0.16462 	-1.65972 	4.73374e-08 	9.96458 	4.97856 	
3.22381e-10 	14488.2 	246.919 	283.231 	0.35 	13.208 	-0.12566 	6.77333e-05 	
0.00180191 	0.00120127 	5.52783e-08 	0.496884 	0.0107684 	0.486116 	0 	0 	0 	
0.00154093 	5.12971e-12 	0.92 	0.04 	0.04 	0.0350283 	3.84182 	
3.80679 	3.97141 	-0.164627 	-1.65996 	3.87352e-08 	8.30474 	6.6384 	
3.22428e-10 	14488.2 	246.919 	283.231 	0.35 	13.208 	-0.125678 	6.77333e-05 	
0.00180191 	0.00120127 	9.58498e-08 	0.861572 	0.00750236 	0.85407 	0 	0 	0 	
0.00160867 	-2.30057e-09 	0.92 	0.04 	0.04 	0.0350282 	3.84181 	
3.80678 	3.97141 	-0.164637 	-1.66027 	3.01315e-08 	6.64463 	8.29852 	
3.22488e-10 	14488.2 	246.919 	283.231 	0.35 	13.208 	-0.125702 	6.77333e-05 	
0.00180191 	0.00120127 	1.48195e-07 	1.33209 	0.00482944 	1.32726 	0 	0 	0 	
0.0016764 	-4.6069e-09 	0.92 	0.04 	0.04 	0.0350282 	3.84179 	
3.80677 	3.97141 	-0.164649 	-1.66065 	2.15258e-08 	4.98417 	9.95898 	
3.22562e-10 	14488.2 	246.919 	283.231 	0.35 	13.208 	-0.125731 	6.77333e-05 	
0.00180191 	0.00120127 	2.12322e-07 	1.90851 	0.00274981 	1.90576 	0 	0 	0 	
0.00174413 	-6.91376e-09 	0.92 	0.04 	0.04 	0.0350282 	3.84178 	
3.80675 	3.97141 	-0.164662 	-1.6611 	1.29177e-08 	3.32329 	11.6199 	
3.2265e-10 	14488.2 	246.919 	283.231 	0.35 	13.208 	-0.125765 	6.77333e-05 	
0.00180191 	0.00120127 	2.88241e-07 	2.59094 	0.0012638 	2.58967 	0 	0 	0 	
0.00181187 	-9.22144e-09 	0.92 	0.04 	0.04 	0.0350281 	3.84176 	
3.80674 	3.97141 	-0.164678 	-1.66163 	4.30816e-09 	1.66192 	13.2812 	
3.22751e-10 	14488.2 	246.919 	283.231 	0.35 	13.208 	-0.125804 	6.77333e-05 	
0.00180191 	0.00120127 	3.75967e-07 	3.37948 	0.000371817 	3.37911 	0 	0 	0 	
0.0018796 	0 	0.92 	0.04 	0.04 	0.0350281 	3.84175 	
3.80672 	3.97141 	-0.164697 	-0.831109 	4.30816e-09 	0.415554 	14.5276 	
1.61433e-10 	7244.08 	123.46 	141.616 	0.35 	6.604 	-0.125849 	3.38667e-05 	
0.000900955 	0.000600637 	4.22783e-07 	3.8003 	7.43952e-05 	3.80023 	0 	0 	0 	
ZONE T = "t = 1.61875e-07 [s]" I = 10 SOLUTIONTIME = 1.6187500000000E-07
0.00127 	9.22355e-09 	0.92 	0.04 	0.04 	0.0350286 	3.84183 	
3.8068 	3.97141 	-0.16461 	-0.829708 	7.31384e-08 	14.5283 	0.414854 	
2.31344e-10 	7244.08 	123.46 	141.616 	0.35 	6.604 	-0.125637 	3.38667e-05 	
0.000900955 	0.000600637 	5.59923e-09 	0.0345899 	0.0214533 	0.0131365 	0 	0 	0 	
0.00133773 	6.91882e-09 	0.92 	0.04 	0.04 	0.0350285 	3.84183 	
3.8068 	3.97141 	-0.164611 	-1.65945 	6.45383e-08 	13.2837 	1.65943 	
4.62697e-10 	14488.2 	246.919 	283.231 	0.35 	13.208 	-0.12564 	6.77333e-05 	
0.00180191 	0.00120127 	1.3721e-08 	0.0847633 	0.0190792 	0.0656841 	0 	0 	0 	
0.00140547 	4.61409e-09 	0.92 	0.04 	0.04 	0.0350284 	3.84183 	
3.8068 	3.97141 	-0.164614 	-1.65955 	5.59383e-08 	11.6242 	3.31893 	
4.62725e-10 	14488.2 	246.919 	283.231 	0.35 	13.208 	-0.125647 	6.77333e-05 	
0.00180191 	0.00120127 	3.85202e-08 	0.237963 	0.0146273 	0.223335 	0 	0 	0 	
0.0014732 	2.30898e-09 	0.92 	0.04 	0.04 	0.0350284 	3.84182 	
3.80679 	3.97141 	-0.16462 	-1.65972 	4.73374e-08 	9.96458 	4.97856 	
4.62773e-10 	14488.2 	246.919 	283.231 	0.35 	13.208 	-0.12566 	6.77333e-05 	
0.00180191 	0.00120127 	8.04331e-08 	0.496884 	0.0107684 	0.486116 	0 	0 	0 	
0.00154093 	3.53339e-12 	0.92 	0.04 	0.04 	0.0350283 	3.84182 	
3.80679 	3.97141 	-0.164627 	-1.65996 	3.87352e-08 	8.30474 	6.6384 	
4.6284e-10 	14488.2 	246.919 	283.231 	0.35 	13.208 	-0.125678 	6.77333e-05 	
0.00180191 	0.00120127 	1.39467e-07 	0.861572 	0.00750236 	0.85407 	0 	0 	0 	
0.00160867 	-2.30227e-09 	0.92 	0.04 	0.04 	0.0350282 	3.84181 	
3.80678 	3.97141 	-0.164637 	-1.66027 	3.01315e-08 	6.64463 	8.29852 	
4.62927e-10 	14488.2 	246.919 	283.231 	0.35 	13.208 	-0.125702 	6.77333e-05 	
0.00180191 	0.00120127 	2.15632e-07 	1.33209 	0.00482944 	1.32726 	0 	0 	0 	
0.0016764 	-4.60861e-09 	0.92 	0.04 	0.04 	0.0350282 	3.84179 	
3.80677 	3.97141 	-0.164649 	-1.66065 	2.15258e-08 	4.98417 	9.95898 	
4.63033e-10 	14488.2 	246.919 	283.231 	0.35 	13.208 	-0.125731 	6.77333e-05 	
0.00180191 	0.00120127 	3.0894e-07 	1.90851 	0.00274981 	1.90576 	0 	0 	0 	
0.00174413 	-6.91564e-09 	0.92 	0.04 	0.04 	0.0350282 	3.84178 	
3.80675 	3.97141 	-0.164662 	-1.6611 	1.29177e-08 	3.32329 	11.6199 	
4.63159e-10 	14488.2 	246.919 	283.231 	0.35 	13.208 	-0.125765 	6.77333e-05 	
0.00180191 	0.00120127 	4.19408e-07 	2.59094 	0.0012638 	2.58967 	0 	0 	0 	
0.00181187 	-9.22325e-09 	0.92 	0.04 	0.04 	0.0350281 	3.84176 	
3.80674 	3.97141 	-0.164678 	-1.66163 	4.30869e-09 	1.66192 	13.2812 	
4.63304e-10 	14488.2 	246.919 	283.231 	0.35 	13.208 	-0.125804 	6.77333e-05 	
0.00180191 	0.00120127 	5.47053e-07 	3.37948 	0.000371817 	3.37911 	0 	0 	0 	
0.0018796 	0 	0.92 	0.04 	0.04 	0.0350281 	3.84175 	
3.80672 	3.97141 	-0.164697 	-0.831109 	4.30869e-09 	0.415554 	14.5276 	
2.31735e-10 	7244.08 	123.46 	141.616 	0.35 	6.604 	-0.125849 	3.38667e-05 	
0.000900955 	0.000600637 	6.15173e-07 	3.8003 	7.43952e-05 	3.80023 	0 	0 	0 	
ZONE T = "t = 2.37813e-07 [s]" I = 10 SOLUTIONTIME = 2.3781250000000E-07
0.00127 	9.225e-09 	0.92 	0.04 	0.04 	0.0350286 	3.84183 	
3.8068 	3.97141 	-0.16461 	-0.829708 	7.31387e-08 	14.5283 	0.414854 	
3.36618e-10 	7244.08 	123.46 	141.616 	0.35 	6.604 	-0.125637 	3.38667e-05 	
0.000900955 	0.000600637 	8.2259e-09 	0.0345899 	0.0214533 	0.0131365 	0 	0 	0 	
0.00133773 	6.92038e-09 	0.92 	0.04 	0.04 	0.0350285 	3.84183 	
3.8068 	3.97141 	-0.164611 	-1.65945 	6.45383e-08 	13.2837 	1.65943 	
6.7325e-10 	14488.2 	246.919 	283.231 	0.35 	13.208 	-0.12564 	6.77333e-05 	
0.00180191 	0.00120127 	2.01578e-08 	0.0847633 	0.0190792 	0.0656841 	0 	0 	0 	
0.00140547 	4.61554e-09 	0.92 	0.04 	0.04 	0.0350284 	3.84183 	
3.8068 	3.97141 	-0.164614 	-1.65955 	5.59383e-08 	11.6242 	3.31893 	
6.73291e-10 	14488.2 	246.919 	283.231 	0.35 	13.208 	-0.125647 	6.77333e-05 	
0.00180191 	0.00120127 	5.65905e-08 	0.237963 	0.0146273 	0.223335 	0 	0 	0 	
0.0014732 	2.31055e-09 	0.92 	0.04 	0.04 	0.0350284 	3.84182 	
3.80679 	3.97141 	-0.16462 	-1.65972 	4.73374e-08 	9.96458 	4.97856 	
6.7336e-10 	14488.2 	246.919 	283.231 	0.35 	13.208 	-0.12566 	6.77333e-05 	
0.00180191 	0.00120127 	1.18165e-07 	0.496884 	0.0107684 	0.486116 	0 	0 	0 	
0.00154093 	5.21939e-12 	0.92 	0.04 	0.04 	0.0350283 	3.84182 	
3.80679 	3.97141 	-0.164627 	-1.65996 	3.87352e-08 	8.30474 	6.6384 	
6.73458e-10 	14488.2 	246.919 	283.231 	0.35 	13.208 	-0.125678 	6.77333e-05 	
0.00180191 	0.00120127 	2.04893e-07 	0.861572 	0.00750236 	0.85407 	0 	0 	0 	
0.00160867 	-2.30059e-09 	0.92 	0.04 	0.04 	0.0350282 	3.84181 	
3.80678 	3.97141 	-0.164637 	-1.66027 	3.01315e-08 	6.64463 	8.29852 	
6.73584e-10 	14488.2 	246.919 	283.231 	0.35 	13.208 	-0.125702 	6.77333e-05 	
0.00180191 	0.00120127 	3.16787e-07 	1.33209 	0.00482944 	1.32726 	0 	0 	0 	
0.0016764 	-4.60697e-09 	0.92 	0.04 	0.04 	0.0350282 	3.84179 	
3.80677 	3.97141 	-0.164649 	-1.66065 	2.15258e-08 	4.98417 	9.95898 	
6.73739e-10 	14488.2 	246.919 	283.231 	0.35 	13.208 	-0.125731 	6.77333e-05 	
0.00180191 	0.00120127 	4.53867e-07 	1.90851 	0.00274981 	1.90576 	0 	0 	0 	
0.00174413 	-6.91393e-09 	0.92 	0.04 	0.04 	0.0350282 	3.84178 	
3.80675 	3.97141 	-0.164662 	-1.6611 	1.29177e-08 	3.32329 	11.6199 	
6.73922e-10 	14488.2 	246.919 	283.231 	0.35 	13.208 	-0.125765 	6.77333e-05 	
0.00180191 	0.00120127 	6.16157e-07 	2.59094 	0.0012638 	2.58967 	0 	0 	0 	
0.00181187 	-9.22162e-09 	0.92 	0.04 	0.04 	0.0350281 	3.84176 	
3.80674 	3.97141 	-0.164678 	-1.66163 	4.3095e-09 	1.66192 	13.2812 	
6.74134e-10 	14488.2 	246.919 	283.231 	0.35 	13.208 	-0.125804 	6.77333e-05 	
0.00180191 	0.00120127 	8.03683e-07 	3.37948 	0.000371817 	3.37911 	0 	0 	0 	
0.0018796 	0 	0.92 	0.04 	0.04 	0.0350281 	3.84175 	
3.80672 	3.97141 	-0.164697 	-0.831109 	4.3095e-09 	0.415554 	14.5276 	
3.37187e-10 	7244.08 	123.46 	141.616 	0.35 	6.604 	-0.125849 	3.38667e-05 	
0.000900955 	0.000600637 	9.03758e-07 	3.8003 	7.43952e-05 	3.80023 	0 	0 	0 	
ZONE T = "t = 3.51719e-07 [s]" I = 10 SOLUTIONTIME = 3.5171875000000E-07
0.00127 	9.22422e-09 	0.92 	0.04 	0.04 	0.0350286 	3.84183 	
3.8068 	3.97141 	-0.16461 	-0.829708 	7.31392e-08 	14.5283 	0.414854 	
4.9453e-10 	7244.08 	123.46 	141.616 	0.35 	6.604 	-0.125637 	3.38667e-05 	
0.000900955 	0.000600637 	1.21659e-08 	0.0345899 	0.0214533 	0.0131365 	0 	0 	0 	
0.00133773 	6.91956e-09 	0.92 	0.04 	0.04 	0.0350285 	3.84183 	
3.8068 	3.97141 	-0.164611 	-1.65945 	6.45383e-08 	13.2837 	1.65943 	
9.89079e-10 	14488.2 	246.919 	283.231 	0.35 	13.208 	-0.12564 	6.77333e-05 	
0.00180191 	0.00120127 	2.98128e-08 	0.0847633 	0.0190792 	0.0656841 	0 	0 	0 	