TITLE = "Solution on Domain BulkDomain1D_0"
VARIABLES = "x [m]"  
"Vel_axial" 
"MF_sp(ECDMC)" 
"MF_sp(Li+)" 
"MF_sp(PF6-)" 
"Volt(Electroly)" 
"Volt(AnodeVolt)" 
"Potential Drop Electrode-Electrolyte [V]" 
"Surf_0 Equilibrium Potential Drop Electrode-Electrolyte [V]" 
"Overpotential_0 [V]" 
"Current Source [A/m^2]" 
"Li+ flux [kmol/m^2/s]" 
"Electrolyte Current [A/m^2]" 
"Electrode Current [A/m^2]" 
"CV Capacity discharged [A-s/m^2]" 
"Depth of discharge in CV [A-s/m^2]" 
"CV Capacity remaining [A-s/m^2]" 
"Initial CV capacity [A-s/m^2]" 
"Porosity []" 
"Surface Area [m2/m2] (area per area)" 
"Specific current (per particle area) [A/m^2]" 
"Control volume thickness [m]" 
"MoleDens Li_C6-bulk [kmol/m^3]" 
"MoleDens V_C6-bulk [kmol/m^3]" 
"qHeat_accum [J/m3]" 
"qHeat_step [W/m3]" 
"Joule_Lyte [W/m3]" 
"Joule_Solid [W/m3]" 
"electrodHeat [W/m3]" 
"OverpotHeat [W/m3]" 
"deltaSHeat [W/m3]" 

ZONE T = "ANOD, 0.0000E+00", I = 10, SOLUTIONTIME = 0.000000E+00
ZONETYPE = ORDERED
DATAPACKING = BLOCK
STRANDID = 1
 0.0000000000000E+00  8.7488888888889E-05  1.7497777777778E-04  2.6246666666667E-04  3.4995555555556E-04  4.3744444444444E-04  5.2493333333333E-04  6.1242222222222E-04  6.9991111111111E-04  7.8740000000000E-04 
 0.0000000000000E+00  0.0000000000000E+00  0.0000000000000E+00  0.0000000000000E+00  0.0000000000000E+00  0.0000000000000E+00  0.0000000000000E+00  0.0000000000000E+00  0.0000000000000E+00  0.0000000000000E+00 
 9.2000000000000E-01  9.2000000000000E-01  9.2000000000000E-01  9.2000000000000E-01  9.2000000000000E-01  9.2000000000000E-01  9.2000000000000E-01  9.2000000000000E-01  9.2000000000000E-01  9.2000000000000E-01 
 4.0000000000000E-02  4.0000000000000E-02  4.0000000000000E-02  4.0000000000000E-02  4.0000000000000E-02  4.0000000000000E-02  4.0000000000000E-02  4.0000000000000E-02  4.0000000000000E-02  4.0000000000000E-02 
 4.0000000000000E-02  4.0000000000000E-02  4.0000000000000E-02  4.0000000000000E-02  4.0000000000000E-02  4.0000000000000E-02  4.0000000000000E-02  4.0000000000000E-02  4.0000000000000E-02  4.0000000000000E-02 
-7.0000000000000E-02 -7.0000000000000E-02 -7.0000000000000E-02 -7.0000000000000E-02 -7.0000000000000E-02 -7.0000000000000E-02 -7.0000000000000E-02 -7.0000000000000E-02 -7.0000000000000E-02 -7.0000000000000E-02 
 0.0000000000000E+00  0.0000000000000E+00  0.0000000000000E+00  0.0000000000000E+00  0.0000000000000E+00  0.0000000000000E+00  0.0000000000000E+00  0.0000000000000E+00  0.0000000000000E+00  0.0000000000000E+00 
 7.0000000000000E-02  7.0000000000000E-02  7.0000000000000E-02  7.0000000000000E-02  7.0000000000000E-02  7.0000000000000E-02  7.0000000000000E-02  7.0000000000000E-02  7.0000000000000E-02  7.0000000000000E-02 
-4.0906712753392E-02 -4.0906712753392E-02 -4.0906712753392E-02 -4.0906712753392E-02 -4.0906712753392E-02 -4.0906712753392E-02 -4.0906712753392E-02 -4.0906712753392E-02 -4.0906712753392E-02 -4.0906712753392E-02 
 1.1090671275339E-01  1.1090671275339E-01  1.1090671275339E-01  1.1090671275339E-01  1.1090671275339E-01  1.1090671275339E-01  1.1090671275339E-01  1.1090671275339E-01  1.1090671275339E-01  1.1090671275339E-01 
 3.0930240924008E+01  6.1860481848016E+01  6.1860481848016E+01  6.1860481848016E+01  6.1860481848016E+01  6.1860481848016E+01  6.1860481848016E+01  6.1860481848016E+01  6.1860481848016E+01  3.0930240924008E+01 
-0.0000000000000E+00 -0.0000000000000E+00 -0.0000000000000E+00 -0.0000000000000E+00 -0.0000000000000E+00 -0.0000000000000E+00 -0.0000000000000E+00 -0.0000000000000E+00 -0.0000000000000E+00 -0.0000000000000E+00 
 0.0000000000000E+00  0.0000000000000E+00  0.0000000000000E+00  0.0000000000000E+00  0.0000000000000E+00  0.0000000000000E+00  0.0000000000000E+00  0.0000000000000E+00  0.0000000000000E+00  3.0930240924008E+01 
 3.0930240924008E+01 -0.0000000000000E+00 -0.0000000000000E+00 -0.0000000000000E+00 -0.0000000000000E+00 -0.0000000000000E+00 -0.0000000000000E+00 -0.0000000000000E+00 -0.0000000000000E+00  0.0000000000000E+00 
 0.0000000000000E+00  0.0000000000000E+00  0.0000000000000E+00  0.0000000000000E+00  0.0000000000000E+00  0.0000000000000E+00  0.0000000000000E+00  0.0000000000000E+00  0.0000000000000E+00  0.0000000000000E+00 
 9.1448444543281E+04  1.8289688908656E+05  1.8289688908656E+05  1.8289688908656E+05  1.8289688908656E+05  1.8289688908656E+05  1.8289688908656E+05  1.8289688908656E+05  1.8289688908656E+05  9.1448444543281E+04 
 3.6579377817312E+05  7.3158755634625E+05  7.3158755634625E+05  7.3158755634625E+05  7.3158755634625E+05  7.3158755634625E+05  7.3158755634625E+05  7.3158755634625E+05  7.3158755634625E+05  3.6579377817312E+05 
 4.5724222271640E+05  9.1448444543281E+05  9.1448444543281E+05  9.1448444543281E+05  9.1448444543281E+05  9.1448444543281E+05  9.1448444543281E+05  9.1448444543281E+05  9.1448444543281E+05  4.5724222271640E+05 
 3.5000000000000E-01  3.5000000000000E-01  3.5000000000000E-01  3.5000000000000E-01  3.5000000000000E-01  3.5000000000000E-01  3.5000000000000E-01  3.5000000000000E-01  3.5000000000000E-01  3.5000000000000E-01 
 8.5301666666666E+00  1.7060333333333E+01  1.7060333333333E+01  1.7060333333333E+01  1.7060333333333E+01  1.7060333333333E+01  1.7060333333333E+01  1.7060333333333E+01  1.7060333333333E+01  8.5301666666666E+00 
 3.6259831879809E+00  3.6259831879809E+00  3.6259831879809E+00  3.6259831879809E+00  3.6259831879809E+00  3.6259831879809E+00  3.6259831879809E+00  3.6259831879809E+00  3.6259831879809E+00  3.6259831879809E+00 
 4.3744444444444E-05  8.7488888888889E-05  8.7488888888889E-05  8.7488888888889E-05  8.7488888888889E-05  8.7488888888889E-05  8.7488888888889E-05  8.7488888888889E-05  8.7488888888889E-05  4.3744444444444E-05 
 8.6666666666666E+01  8.6666666666666E+01  8.6666666666666E+01  8.6666666666666E+01  8.6666666666666E+01  8.6666666666666E+01  8.6666666666666E+01  8.6666666666666E+01  8.6666666666666E+01  8.6666666666666E+01 
 2.1666666666667E+01  2.1666666666667E+01  2.1666666666667E+01  2.1666666666667E+01  2.1666666666667E+01  2.1666666666667E+01  2.1666666666667E+01  2.1666666666667E+01  2.1666666666667E+01  2.1666666666667E+01 
 0.0000000000000E+00  0.0000000000000E+00  0.0000000000000E+00  0.0000000000000E+00  0.0000000000000E+00  0.0000000000000E+00  0.0000000000000E+00  0.0000000000000E+00  0.0000000000000E+00  0.0000000000000E+00 
 0.0000000000000E+00  0.0000000000000E+00  0.0000000000000E+00  0.0000000000000E+00  0.0000000000000E+00  0.0000000000000E+00  0.0000000000000E+00  0.0000000000000E+00  0.0000000000000E+00  0.0000000000000E+00 
 0.0000000000000E+00  0.0000000000000E+00  0.0000000000000E+00  0.0000000000000E+00  0.0000000000000E+00  0.0000000000000E+00  0.0000000000000E+00  0.0000000000000E+00  0.0000000000000E+00  0.0000000000000E+00 
 0.0000000000000E+00  0.0000000000000E+00  0.0000000000000E+00  0.0000000000000E+00  0.0000000000000E+00  0.0000000000000E+00  0.0000000000000E+00  0.0000000000000E+00  0.0000000000000E+00  0.0000000000000E+00 
 0.0000000000000E+00  0.0000000000000E+00  0.0000000000000E+00  0.0000000000000E+00  0.0000000000000E+00  0.0000000000000E+00  0.0000000000000E+00  0.0000000000000E+00  0.0000000000000E+00  0.0000000000000E+00 
 0.0000000000000E+00  0.0000000000000E+00  0.0000000000000E+00  0.0000000000000E+00  0.0000000000000E+00  0.0000000000000E+00  0.0000000000000E+00  0.0000000000000E+00  0.0000000000000E+00  0.0000000000000E+00 
 0.0000000000000E+00  0.0000000000000E+00  0.0000000000000E+00  0.0000000000000E+00  0.0000000000000E+00  0.0000000000000E+00  0.0000000000000E+00  0.0000000000000E+00  0.0000000000000E+00  0.0000000000000E+00 
ZONE T = "ANOD, 1.0000E-08", I = 10, SOLUTIONTIME = 1.000000E-08
ZONETYPE = ORDERED
DATAPACKING = BLOCK
STRANDID = 1
 0.0000000000000E+00  8.7488888888889E-05  1.7497777777778E-04  2.6246666666667E-04  3.4995555555556E-04  4.3744444444444E-04  5.2493333333333E-04  6.1242222222222E-04  6.9991111111111E-04  7.8740000000000E-04 
 5.7617812205142E-10  1.7281722354937E-09  2.8805337705768E-09  4.0329026564303E-09  5.1849188222046E-09  6.3373118202630E-09  7.4897215798245E-09  8.6417880301555E-09  9.7946039314892E-09  1.0371024968487E-08 
 9.1999999999965E-01  9.1999999999965E-01  9.1999999999965E-01  9.1999999999965E-01  9.1999999999965E-01  9.1999999999965E-01  9.1999999999965E-01  9.1999999999965E-01  9.1999999999965E-01  9.1999999999986E-01 
 4.0000000000173E-02  4.0000000000173E-02  4.0000000000173E-02  4.0000000000173E-02  4.0000000000173E-02  4.0000000000173E-02  4.0000000000173E-02  4.0000000000173E-02  4.0000000000173E-02  4.0000000000072E-02 
 4.0000000000173E-02  4.0000000000173E-02  4.0000000000173E-02  4.0000000000173E-02  4.0000000000173E-02  4.0000000000173E-02  4.0000000000173E-02  4.0000000000173E-02  4.0000000000173E-02  4.0000000000072E-02 
 3.5026654285050E-02  3.5026646464053E-02  3.5026623001046E-02  3.5026583895974E-02  3.5026529148736E-02  3.5026458759189E-02  3.5026372727150E-02  3.5026271052389E-02  3.5026153734639E-02  3.5026020773585E-02 
-2.5570342192666E-07 -2.5805916564532E-07 -2.6013777306900E-07 -2.6193924318460E-07 -2.6346357422486E-07 -2.6471076366832E-07 -2.6568080823940E-07 -2.6637370390830E-07 -2.6678944589104E-07 -2.6692802864942E-07 
-3.5026909988472E-02 -3.5026904523218E-02 -3.5026883138819E-02 -3.5026845835217E-02 -3.5026792612310E-02 -3.5026723469953E-02 -3.5026638407958E-02 -3.5026537426093E-02 -3.5026420524085E-02 -3.5026287701613E-02 
-4.0906712753147E-02 -4.0906712753143E-02 -4.0906712753147E-02 -4.0906712753147E-02 -4.0906712753140E-02 -4.0906712753146E-02 -4.0906712753146E-02 -4.0906712753140E-02 -4.0906712753140E-02 -4.0906712753206E-02 
 5.8798027646755E-03  5.8798082299245E-03  5.8798296143277E-03  5.8798669179299E-03  5.8799201408305E-03  5.8799892831932E-03  5.8800743451882E-03  5.8801753270471E-03  5.8802922290558E-03  5.8804250515922E-03 
 8.3054686123961E-01  1.6610952731921E+00  1.6611013408085E+00  1.6611119253458E+00  1.6611270268336E+00  1.6611466453149E+00  1.6611707808454E+00  1.6611994334932E+00  1.6612326033390E+00  8.3063514523835E-01 
 4.3011919837874E-09  1.2903583993221E-08  2.1506007444167E-08  3.0108485753451E-08  3.8711042332003E-08  4.7313700582945E-08  5.5916483922583E-08  6.4519415751091E-08  7.3122555358494E-08  7.3122555358494E-08 
 0.0000000000000E+00  1.6600085988532E+00  3.3200210070551E+00  4.9800417423623E+00  6.6400753225313E+00  8.3001262642142E+00  9.9601990847992E+00  1.1620298302043E+01  1.3280428433693E+01  1.4941136938351E+01 
 1.4941136947010E+01  1.3280585398646E+01  1.1620572990214E+01  9.9605522547486E+00  8.3005186749112E+00  6.6404677333261E+00  4.9803949125684E+00  3.3202956951503E+00  1.6601655635103E+00  0.0000000000000E+00 
 8.3054686123961E-09  1.6610952731921E-08  1.6611013408085E-08  1.6611119253458E-08  1.6611270268336E-08  1.6611466453149E-08  1.6611707808454E-08  1.6611994334932E-08  1.6612326033390E-08  8.3063514523835E-09 
 9.1448444543289E+04  1.8289688908658E+05  1.8289688908658E+05  1.8289688908658E+05  1.8289688908658E+05  1.8289688908658E+05  1.8289688908658E+05  1.8289688908658E+05  1.8289688908658E+05  9.1448444543289E+04 
 3.6579377817312E+05  7.3158755634623E+05  7.3158755634623E+05  7.3158755634623E+05  7.3158755634623E+05  7.3158755634623E+05  7.3158755634623E+05  7.3158755634623E+05  7.3158755634623E+05  3.6579377817312E+05 
 4.5724222271640E+05  9.1448444543281E+05  9.1448444543281E+05  9.1448444543281E+05  9.1448444543281E+05  9.1448444543281E+05  9.1448444543281E+05  9.1448444543281E+05  9.1448444543281E+05  4.5724222271640E+05 
 3.5000000000000E-01  3.5000000000000E-01  3.5000000000000E-01  3.5000000000000E-01  3.5000000000000E-01  3.5000000000000E-01  3.5000000000000E-01  3.5000000000000E-01  3.5000000000000E-01  3.5000000000000E-01 
 8.5301666666666E+00  1.7060333333333E+01  1.7060333333333E+01  1.7060333333333E+01  1.7060333333333E+01  1.7060333333333E+01  1.7060333333333E+01  1.7060333333333E+01  1.7060333333333E+01  8.5301666666666E+00 
 9.7365842157005E-02  9.7365933052816E-02  9.7366288709201E-02  9.7366909127165E-02  9.7367794308448E-02  9.7368944255579E-02  9.7370358971811E-02  9.7372038461140E-02  9.7373982728299E-02  9.7376191778788E-02 
 4.3744444444444E-05  8.7488888888889E-05  8.7488888888889E-05  8.7488888888889E-05  8.7488888888889E-05  8.7488888888889E-05  8.7488888888889E-05  8.7488888888889E-05  8.7488888888889E-05  4.3744444444444E-05 
 8.6666666666664E+01  8.6666666666664E+01  8.6666666666664E+01  8.6666666666664E+01  8.6666666666664E+01  8.6666666666664E+01  8.6666666666664E+01  8.6666666666664E+01  8.6666666666664E+01  8.6666666666664E+01 
 2.1666666666669E+01  2.1666666666669E+01  2.1666666666669E+01  2.1666666666669E+01  2.1666666666669E+01  2.1666666666669E+01  2.1666666666669E+01  2.1666666666669E+01  2.1666666666669E+01  2.1666666666669E+01 
 4.5414215140400E-12  7.0886406491504E-12  1.5203594679543E-11  2.9359640835669E-11  4.9556933216792E-11  7.5795691662280E-11  1.0807620178536E-10  1.4639881496256E-10  1.9076394834852E-10  2.1445720135515E-10 
 4.5414215140400E-04  7.0886406491504E-04  1.5203594679543E-03  2.9359640835669E-03  4.9556933216792E-03  7.5795691662280E-03  1.0807620178536E-02  1.4639881496256E-02  1.9076394834852E-02  2.1445720135515E-02 
 7.4197516338789E-05  3.7098799740443E-04  1.2613622916610E-03  2.7453293317447E-03  4.8229045124199E-03  7.4941096879825E-03  1.0758973175633E-02  1.4617529754417E-02  1.9069820666697E-02  2.1444405266063E-02 
 3.7994463506521E-04  3.3787606751061E-04  2.5899717629337E-04  1.9063475182214E-04  1.3278880925935E-04  8.5459478245494E-05  4.8647002902603E-05  2.2351741838999E-05  6.5741681553917E-06  1.3148694521581E-06 
 0.0000000000000E+00  0.0000000000000E+00  0.0000000000000E+00  0.0000000000000E+00  0.0000000000000E+00  0.0000000000000E+00  0.0000000000000E+00  0.0000000000000E+00  0.0000000000000E+00  0.0000000000000E+00 
 0.0000000000000E+00  0.0000000000000E+00  0.0000000000000E+00  0.0000000000000E+00  0.0000000000000E+00  0.0000000000000E+00  0.0000000000000E+00  0.0000000000000E+00  0.0000000000000E+00  0.0000000000000E+00 
 0.0000000000000E+00  0.0000000000000E+00  0.0000000000000E+00  0.0000000000000E+00  0.0000000000000E+00  0.0000000000000E+00  0.0000000000000E+00  0.0000000000000E+00  0.0000000000000E+00  0.0000000000000E+00 
ZONE T = "ANOD, 2.0000E-08", I = 10, SOLUTIONTIME = 2.000000E-08
ZONETYPE = ORDERED
DATAPACKING = BLOCK
STRANDID = 1
 0.0000000000000E+00  8.7488888888889E-05  1.7497777777778E-04  2.6246666666667E-04  3.4995555555556E-04  4.3744444444444E-04  5.2493333333333E-04  6.1242222222222E-04  6.9991111111111E-04  7.8740000000000E-04 
 5.7645534623314E-10  1.7293671156987E-09  2.8822830992259E-09  4.0352064338914E-09  5.1881402567915E-09  6.3410877050534E-09  7.4940519158409E-09  8.6470360263655E-09  9.8000431738963E-09  1.0376559834837E-08 
 9.1999999999931E-01  9.1999999999931E-01  9.1999999999931E-01  9.1999999999931E-01  9.1999999999931E-01  9.1999999999931E-01  9.1999999999931E-01  9.1999999999931E-01  9.1999999999931E-01  9.1999999999971E-01 
 4.0000000000346E-02  4.0000000000346E-02  4.0000000000346E-02  4.0000000000346E-02  4.0000000000346E-02  4.0000000000346E-02  4.0000000000346E-02  4.0000000000346E-02  4.0000000000346E-02  4.0000000000143E-02 
 4.0000000000346E-02  4.0000000000346E-02  4.0000000000346E-02  4.0000000000346E-02  4.0000000000346E-02  4.0000000000346E-02  4.0000000000346E-02  4.0000000000346E-02  4.0000000000346E-02  4.0000000000143E-02 
 3.5029458490878E-02  3.5029450668583E-02  3.5029427201685E-02  3.5029388090125E-02  3.5029333333804E-02  3.5029262932579E-02  3.5029176886267E-02  3.5029075194639E-02  3.5028957857425E-02  3.5028824874312E-02 
-2.5574584311143E-07 -2.5810197764730E-07 -2.6018092991028E-07 -2.6198269888721E-07 -2.6350728281073E-07 -2.6475467915928E-07 -2.6572488465705E-07 -2.6641789527400E-07 -2.6683370622587E-07 -2.6697231197409E-07 
-3.5029714236721E-02 -3.5029708770561E-02 -3.5029687382614E-02 -3.5029650072823E-02 -3.5029596841086E-02 -3.5029527687258E-02 -3.5029442611151E-02 -3.5029341612534E-02 -3.5029224691131E-02 -3.5029091846624E-02 
-4.0906712752895E-02 -4.0906712752899E-02 -4.0906712752895E-02 -4.0906712752895E-02 -4.0906712752896E-02 -4.0906712752899E-02 -4.0906712752899E-02 -4.0906712752896E-02 -4.0906712752896E-02 -4.0906712753026E-02 
 5.8769985161735E-03  5.8770039823376E-03  5.8770253702802E-03  5.8770626800712E-03  5.8771159118095E-03  5.8771850656402E-03  5.8772701417473E-03  5.8773711403621E-03  5.8774880617650E-03  5.8776209064019E-03 
 8.3014902328786E-01  1.6602995975372E+00  1.6603056661216E+00  1.6603162523491E+00  1.6603313562487E+00  1.6603509778641E+00  1.6603751172486E+00  1.6604037744705E+00  1.6604369496130E+00  8.3023732139258E-01 
 4.3019055692613E-09  1.2905724738368E-08  2.1509575367893E-08  3.0113480851248E-08  3.8717464600053E-08  4.7321550034258E-08  5.5925760569302E-08  6.4530119594776E-08  7.3134722283618E-08  7.3134722283618E-08 
 0.0000000000000E+00  1.6602840001210E+00  3.3205718103272E+00  4.9808679483751E+00  6.6411769309166E+00  8.3015032760764E+00  9.9618515023476E+00  1.1622226126382E+01  1.3282631666655E+01  1.4943080052511E+01 
 1.4943080051973E+01  1.3282788640737E+01  1.1622500830548E+01  9.9622046929542E+00  8.3018957103018E+00  6.6415693648995E+00  4.9812211390084E+00  3.3208465148281E+00  1.6604409744825E+00  0.0000000000000E+00 
 1.6606958845275E-08  3.3213948707292E-08  3.3214070069301E-08  3.3214281776949E-08  3.3214583830822E-08  3.3214976231790E-08  3.3215458980940E-08  3.3216032079637E-08  3.3216695529520E-08  1.6608724666309E-08 
 9.1448444543297E+04  1.8289688908659E+05  1.8289688908659E+05  1.8289688908659E+05  1.8289688908659E+05  1.8289688908659E+05  1.8289688908659E+05  1.8289688908659E+05  1.8289688908659E+05  9.1448444543297E+04 
 3.6579377817311E+05  7.3158755634621E+05  7.3158755634621E+05  7.3158755634621E+05  7.3158755634621E+05  7.3158755634621E+05  7.3158755634621E+05  7.3158755634621E+05  7.3158755634621E+05  3.6579377817311E+05 
 4.5724222271640E+05  9.1448444543281E+05  9.1448444543281E+05  9.1448444543281E+05  9.1448444543281E+05  9.1448444543281E+05  9.1448444543281E+05  9.1448444543281E+05  9.1448444543281E+05  4.5724222271640E+05 
 3.5000000000000E-01  3.5000000000000E-01  3.5000000000000E-01  3.5000000000000E-01  3.5000000000000E-01  3.5000000000000E-01  3.5000000000000E-01  3.5000000000000E-01  3.5000000000000E-01  3.5000000000000E-01 
 8.5301666666666E+00  1.7060333333333E+01  1.7060333333333E+01  1.7060333333333E+01  1.7060333333333E+01  1.7060333333333E+01  1.7060333333333E+01  1.7060333333333E+01  1.7060333333333E+01  8.5301666666666E+00 
 9.7319203214615E-02  9.7319294124999E-02  9.7319649838119E-02  9.7320270355158E-02  9.7321155677810E-02  9.7322305808646E-02  9.7323720750782E-02  9.7325400508226E-02  9.7327345085851E-02  9.7329554490054E-02 
 4.3744444444444E-05  8.7488888888889E-05  8.7488888888889E-05  8.7488888888889E-05  8.7488888888889E-05  8.7488888888889E-05  8.7488888888889E-05  8.7488888888889E-05  8.7488888888889E-05  4.3744444444444E-05 
 8.6666666666662E+01  8.6666666666662E+01  8.6666666666662E+01  8.6666666666662E+01  8.6666666666662E+01  8.6666666666662E+01  8.6666666666662E+01  8.6666666666662E+01  8.6666666666662E+01  8.6666666666662E+01 
 2.1666666666671E+01  2.1666666666671E+01  2.1666666666671E+01  2.1666666666671E+01  2.1666666666671E+01  2.1666666666671E+01  2.1666666666671E+01  2.1666666666671E+01  2.1666666666671E+01  2.1666666666671E+01 
 9.0843499999216E-12  1.4179633526884E-11  3.0412234414466E-11  5.8729024188842E-11  9.9130311066837E-11  1.5161653479004E-10  2.1618826666337E-10  2.9284620949511E-10  3.8159119769942E-10  4.2898556568636E-10 
 4.5429284858816E-04  7.0909928777336E-04  1.5208639734923E-03  2.9369383353173E-03  4.9573377850045E-03  7.5820843127763E-03  1.0811206487801E-02  1.4644739453255E-02  1.9082724935090E-02  2.1452836433121E-02 
 1.4841965398907E-04  7.4209910143526E-04  2.5231431470245E-03  5.4915696580380E-03  9.6474094258341E-03  1.4990706165264E-02  2.1521516518522E-02  2.9239910049138E-02  3.8145969252222E-02  4.2895926393442E-02 
 7.6001534600309E-04  6.7586425125314E-04  5.1808029442213E-04  3.8133276084613E-04  2.6562168084964E-04  1.7094731374022E-04  9.7310147815497E-05  4.4710900372666E-05  1.3150517720612E-05  2.6301751945362E-06 
 0.0000000000000E+00  0.0000000000000E+00  0.0000000000000E+00  0.0000000000000E+00  0.0000000000000E+00  0.0000000000000E+00  0.0000000000000E+00  0.0000000000000E+00  0.0000000000000E+00  0.0000000000000E+00 
 0.0000000000000E+00  0.0000000000000E+00  0.0000000000000E+00  0.0000000000000E+00  0.0000000000000E+00  0.0000000000000E+00  0.0000000000000E+00  0.0000000000000E+00  0.0000000000000E+00  0.0000000000000E+00 
 0.0000000000000E+00  0.0000000000000E+00  0.0000000000000E+00  0.0000000000000E+00  0.0000000000000E+00  0.0000000000000E+00  0.0000000000000E+00  0.0000000000000E+00  0.0000000000000E+00  0.0000000000000E+00 
ZONE T = "ANOD, 3.0000E-08", I = 10, SOLUTIONTIME = 3.000000E-08
ZONETYPE = ORDERED
DATAPACKING = BLOCK
STRANDID = 1
 0.0000000000000E+00  8.7488888888889E-05  1.7497777777778E-04  2.6246666666667E-04  3.4995555555556E-04  4.3744444444444E-04  5.2493333333333E-04  6.1242222222222E-04  6.9991111111111E-04  7.8740000000000E-04 
 5.7627934571466E-10  1.7288391141486E-09  2.8821295121405E-09  4.0354272613448E-09  5.1880090834365E-09  6.3413309464877E-09  7.4946695722417E-09  8.6483913056723E-09  9.8021360763545E-09  1.0378658341289E-08 
 9.1999999999896E-01  9.1999999999896E-01  9.1999999999896E-01  9.1999999999896E-01  9.1999999999896E-01  9.1999999999896E-01  9.1999999999896E-01  9.1999999999896E-01  9.1999999999896E-01  9.1999999999957E-01 
 4.0000000000520E-02  4.0000000000520E-02  4.0000000000520E-02  4.0000000000520E-02  4.0000000000520E-02  4.0000000000520E-02  4.0000000000520E-02  4.0000000000520E-02  4.0000000000520E-02  4.0000000000215E-02 
 4.0000000000520E-02  4.0000000000520E-02  4.0000000000520E-02  4.0000000000520E-02  4.0000000000520E-02  4.0000000000520E-02  4.0000000000520E-02  4.0000000000520E-02  4.0000000000520E-02  4.0000000000215E-02 
 3.5029504513897E-02  3.5029496691526E-02  3.5029473224399E-02  3.5029434112459E-02  3.5029379355605E-02  3.5029308953697E-02  3.5029222906548E-02  3.5029121213931E-02  3.5029003875577E-02  3.5028870891172E-02 
-2.5574832905437E-07 -2.5810448649273E-07 -2.6018345896389E-07 -2.6198524545469E-07 -2.6350984419775E-07 -2.6475725267147E-07 -2.6572746760002E-07 -2.6642048495332E-07 -2.6683629994703E-07 -2.6697490704257E-07 
-3.5029760262226E-02 -3.5029754796012E-02 -3.5029733407858E-02 -3.5029696097704E-02 -3.5029642865450E-02 -3.5029573710949E-02 -3.5029488634015E-02 -3.5029387634416E-02 -3.5029270711877E-02 -3.5029137866079E-02 
-4.0906712752646E-02 -4.0906712752650E-02 -4.0906712752646E-02 -4.0906712752646E-02 -4.0906712752646E-02 -4.0906712752644E-02 -4.0906712752644E-02 -4.0906712752646E-02 -4.0906712752646E-02 -4.0906712752842E-02 
 5.8769524904205E-03  5.8769579566372E-03  5.8769793447882E-03  5.8770166549419E-03  5.8770698871965E-03  5.8771390416944E-03  5.8772241186284E-03  5.8773251182299E-03  5.8774420407694E-03  5.8775748867628E-03 
 8.3014249365080E-01  1.6602865382768E+00  1.6602926069207E+00  1.6603031932501E+00  1.6603182972944E+00  1.6603379190978E+00  1.6603620587144E+00  1.6603907162129E+00  1.6604238916745E+00  8.3023079261271E-01 
 4.3019473858340E-09  1.2905850188086E-08  2.1509784450757E-08  3.0113773561185E-08  3.8717840945391E-08  4.7322010016558E-08  5.5926304182491E-08  6.4530746853246E-08  7.3135469047578E-08  7.3135469047578E-08 
 0.0000000000000E+00  1.6603001388654E+00  3.3206040878159E+00  4.9809163642399E+00  6.6412414851575E+00  8.3015839694299E+00  9.9619483348137E+00  1.1622339098697E+01  1.3282760778810E+01  1.4943210705249E+01 
 1.4943210705192E+01  1.3282917754326E+01  1.1622613805572E+01  9.9623015293315E+00  8.3019764079006E+00  6.6416339235397E+00  4.9812695584597E+00  3.3208787948103E+00  1.6604571146667E+00  0.0000000000000E+00 
 2.4908383781783E-08  4.9816814090060E-08  4.9816996138509E-08  4.9817313709450E-08  4.9817766803766E-08  4.9818355422768E-08  4.9819079568085E-08  4.9819939241766E-08  4.9820934446264E-08  2.4911032592436E-08 
 9.1448444543306E+04  1.8289688908661E+05  1.8289688908661E+05  1.8289688908661E+05  1.8289688908661E+05  1.8289688908661E+05  1.8289688908661E+05  1.8289688908661E+05  1.8289688908661E+05  9.1448444543306E+04 
 3.6579377817310E+05  7.3158755634620E+05  7.3158755634620E+05  7.3158755634620E+05  7.3158755634620E+05  7.3158755634620E+05  7.3158755634620E+05  7.3158755634620E+05  7.3158755634620E+05  3.6579377817310E+05 
 4.5724222271640E+05  9.1448444543281E+05  9.1448444543281E+05  9.1448444543281E+05  9.1448444543281E+05  9.1448444543281E+05  9.1448444543281E+05  9.1448444543281E+05  9.1448444543281E+05  4.5724222271640E+05 
 3.5000000000000E-01  3.5000000000000E-01  3.5000000000000E-01  3.5000000000000E-01  3.5000000000000E-01  3.5000000000000E-01  3.5000000000000E-01  3.5000000000000E-01  3.5000000000000E-01  3.5000000000000E-01 
 8.5301666666666E+00  1.7060333333333E+01  1.7060333333333E+01  1.7060333333333E+01  1.7060333333333E+01  1.7060333333333E+01  1.7060333333333E+01  1.7060333333333E+01  1.7060333333333E+01  8.5301666666666E+00 
 9.7318437738708E-02  9.7318528649895E-02  9.7318884366508E-02  9.7319504889514E-02  9.7320390220652E-02  9.7321540362504E-02  9.7322955318250E-02  9.7324635091902E-02  9.7326579688232E-02  9.7328789114638E-02 
 4.3744444444444E-05  8.7488888888889E-05  8.7488888888889E-05  8.7488888888889E-05  8.7488888888889E-05  8.7488888888889E-05  8.7488888888889E-05  8.7488888888889E-05  8.7488888888889E-05  4.3744444444444E-05 
 8.6666666666660E+01  8.6666666666660E+01  8.6666666666660E+01  8.6666666666660E+01  8.6666666666660E+01  8.6666666666660E+01  8.6666666666660E+01  8.6666666666660E+01  8.6666666666660E+01  8.6666666666660E+01 
 2.1666666666672E+01  2.1666666666672E+01  2.1666666666672E+01  2.1666666666672E+01  2.1666666666672E+01  2.1666666666672E+01  2.1666666666672E+01  2.1666666666672E+01  2.1666666666672E+01  2.1666666666672E+01 
 1.3627366804249E-11  2.1270764260155E-11  4.5621169820241E-11  8.8098978506425E-11  1.4870465265788E-10  2.2743885193243E-10  3.2430243332026E-10  4.3929645108723E-10  5.7242215689127E-10  6.4351810061108E-10 
 4.5430168043279E-04  7.0911307332710E-04  1.5208935405775E-03  2.9369954317583E-03  4.9574341591046E-03  7.5822317142390E-03  1.0811416665689E-02  1.4645024159212E-02  1.9083095919185E-02  2.1453253492472E-02 
 2.2264323459515E-04  1.1132174202492E-03  3.7849485326806E-03  8.2378633734416E-03  1.4472008130963E-02  2.2487448382050E-02  3.2284269093243E-02  4.3862574615134E-02  5.7222488693991E-02  6.4347864554600E-02 
 1.1400934458298E-03  1.0138590057663E-03  7.7716844934355E-04  5.7203447720083E-04  3.9845713482495E-04  2.5643681119304E-04  1.4597423878317E-04  6.7070493588666E-05  1.9726995136176E-05  3.9455065077299E-06 
 0.0000000000000E+00  0.0000000000000E+00  0.0000000000000E+00  0.0000000000000E+00  0.0000000000000E+00  0.0000000000000E+00  0.0000000000000E+00  0.0000000000000E+00  0.0000000000000E+00  0.0000000000000E+00 
 0.0000000000000E+00  0.0000000000000E+00  0.0000000000000E+00  0.0000000000000E+00  0.0000000000000E+00  0.0000000000000E+00  0.0000000000000E+00  0.0000000000000E+00  0.0000000000000E+00  0.0000000000000E+00 
 0.0000000000000E+00  0.0000000000000E+00  0.0000000000000E+00  0.0000000000000E+00  0.0000000000000E+00  0.0000000000000E+00  0.0000000000000E+00  0.0000000000000E+00  0.0000000000000E+00  0.0000000000000E+00 
ZONE T = "ANOD, 4.0000E-08", I = 10, SOLUTIONTIME = 4.000000E-08
ZONETYPE = ORDERED
DATAPACKING = BLOCK
STRANDID = 1
 0.0000000000000E+00  8.7488888888889E-05  1.7497777777778E-04  2.6246666666667E-04  3.4995555555556E-04  4.3744444444444E-04  5.2493333333333E-04  6.1242222222222E-04  6.9991111111111E-04  7.8740000000000E-04 
 5.7664004251999E-10  1.7299212045625E-09  2.8839329961451E-09  4.0379521389079E-09  5.1908921467833E-09  6.3438457801009E-09  7.4968161760441E-09  8.6498064718435E-09  9.8035462202431E-09  1.0379339558525E-08 
 9.1999999999861E-01  9.1999999999861E-01  9.1999999999861E-01  9.1999999999861E-01  9.1999999999861E-01  9.1999999999861E-01  9.1999999999861E-01  9.1999999999861E-01  9.1999999999861E-01  9.1999999999943E-01 
 4.0000000000693E-02  4.0000000000693E-02  4.0000000000693E-02  4.0000000000693E-02  4.0000000000693E-02  4.0000000000693E-02  4.0000000000693E-02  4.0000000000693E-02  4.0000000000693E-02  4.0000000000287E-02 
 4.0000000000693E-02  4.0000000000693E-02  4.0000000000693E-02  4.0000000000693E-02  4.0000000000693E-02  4.0000000000693E-02  4.0000000000693E-02  4.0000000000693E-02  4.0000000000693E-02  4.0000000000287E-02 
 3.5029481654066E-02  3.5029473831729E-02  3.5029450364704E-02  3.5029411252934E-02  3.5029356496320E-02  3.5029286094718E-02  3.5029200047943E-02  3.5029098355770E-02  3.5028981017926E-02  3.5028848034101E-02 
-2.5574721507662E-07 -2.5810336225214E-07 -2.6018232566780E-07 -2.6198410431044E-07 -2.6350869641271E-07 -2.6475609945302E-07 -2.6572631015554E-07 -2.6641932449022E-07 -2.6683513767274E-07 -2.6697374416454E-07 
-3.5029737401281E-02 -3.5029731935091E-02 -3.5029710547030E-02 -3.5029673237039E-02 -3.5029620005016E-02 -3.5029550850817E-02 -3.5029465774254E-02 -3.5029364775094E-02 -3.5029247853064E-02 -3.5029115007845E-02 
-4.0906712752399E-02 -4.0906712752399E-02 -4.0906712752399E-02 -4.0906712752399E-02 -4.0906712752396E-02 -4.0906712752401E-02 -4.0906712752401E-02 -4.0906712752396E-02 -4.0906712752396E-02 -4.0906712752657E-02 
 5.8769753511187E-03  5.8769808173082E-03  5.8770022053695E-03  5.8770395153606E-03  5.8770927473797E-03  5.8771619015836E-03  5.8772469781469E-03  5.8773479773015E-03  5.8774648993317E-03  5.8775977448116E-03 
 8.3014573688421E-01  1.6602930247379E+00  1.6602990933547E+00  1.6603096796385E+00  1.6603247836183E+00  1.6603444053378E+00  1.6603685448507E+00  1.6603972022250E+00  1.6604303775436E+00  8.3023403547441E-01 