TITLE = "Solution on Domain BulkDomain1D_2"
VARIABLES = "x [m]"  
"Vel_axial" 	"MF_sp(ECDMC)" 	"MF_sp(Li+)" 	"MF_sp(PF6-)" 	"Volt(Electroly)" 	"Volt(CathodeVo)" 	
"Potential Drop Electrode-Electrolyte [V]" 	"Surf_0 Equilibrium Potential Drop Electrode-Electrolyte [V]" 	"Overpotential_0 [V]" 	"Current Source [A/m^2]" 	"Li+ flux [kmol/m^2/s]" 	"Electrolyte Current [A/m^2]" 	"Electrode Current [A/m^2]" 	
"CV Capacity discharged [A-s/m^2]" 	"Depth of discharge in CV [A-s/m^2]" 	"CV Capacity remaining [A-s/m^2]" 	"Initial CV capacity [A-s/m^2]" 	"Porosity []" 	"Surface Area [m2/m2] (area per area)" 	"Specific current (per particle area) [A/m^2]" 	"Control volume thickness [m]" 	
"MoleDens LiCoO2 [kmol/m^3]" 	"MoleDens CoO2 [kmol/m^3]" 	"qHeat_accum [J/m3]" 	"qHeat_step [W/m3]" 	"Joule_Lyte [W/m3]" 	"Joule_Solid [W/m3]" 	"electrodHeat [W/m3]" 	"OverpotHeat [W/m3]" 	"deltaSHeat [W/m3]" 	

ZONE T = "CATH, 0.0000E+00", I = 10, SOLUTIONTIME = 0.000000E+00
ZONETYPE = ORDERED
DATAPACKING = BLOCK
STRANDID = 3
 1.2700000000000E-03  1.3377333333333E-03  1.4054666666667E-03  1.4732000000000E-03  1.5409333333333E-03  1.6086666666667E-03  1.6764000000000E-03  1.7441333333333E-03  1.8118666666667E-03  1.8796000000000E-03 
 0.0000000000000E+00  0.0000000000000E+00  0.0000000000000E+00  0.0000000000000E+00  0.0000000000000E+00  0.0000000000000E+00  0.0000000000000E+00  0.0000000000000E+00  0.0000000000000E+00  0.0000000000000E+00 
 9.2000000000000E-01  9.2000000000000E-01  9.2000000000000E-01  9.2000000000000E-01  9.2000000000000E-01  9.2000000000000E-01  9.2000000000000E-01  9.2000000000000E-01  9.2000000000000E-01  9.2000000000000E-01 
 4.0000000000000E-02  4.0000000000000E-02  4.0000000000000E-02  4.0000000000000E-02  4.0000000000000E-02  4.0000000000000E-02  4.0000000000000E-02  4.0000000000000E-02  4.0000000000000E-02  4.0000000000000E-02 
 4.0000000000000E-02  4.0000000000000E-02  4.0000000000000E-02  4.0000000000000E-02  4.0000000000000E-02  4.0000000000000E-02  4.0000000000000E-02  4.0000000000000E-02  4.0000000000000E-02  4.0000000000000E-02 
-7.0000000000000E-02 -7.0000000000000E-02 -7.0000000000000E-02 -7.0000000000000E-02 -7.0000000000000E-02 -7.0000000000000E-02 -7.0000000000000E-02 -7.0000000000000E-02 -7.0000000000000E-02 -7.0000000000000E-02 
 3.8000000000000E+00  3.8000000000000E+00  3.8000000000000E+00  3.8000000000000E+00  3.8000000000000E+00  3.8000000000000E+00  3.8000000000000E+00  3.8000000000000E+00  3.8000000000000E+00  3.8000000000000E+00 
 3.8700000000000E+00  3.8700000000000E+00  3.8700000000000E+00  3.8700000000000E+00  3.8700000000000E+00  3.8700000000000E+00  3.8700000000000E+00  3.8700000000000E+00  3.8700000000000E+00  3.8700000000000E+00 
 3.9714142713289E+00  3.9714142713289E+00  3.9714142713289E+00  3.9714142713289E+00  3.9714142713289E+00  3.9714142713289E+00  3.9714142713289E+00  3.9714142713289E+00  3.9714142713289E+00  3.9714142713289E+00 
-1.0141427132889E-01 -1.0141427132889E-01 -1.0141427132889E-01 -1.0141427132889E-01 -1.0141427132889E-01 -1.0141427132889E-01 -1.0141427132889E-01 -1.0141427132889E-01 -1.0141427132889E-01 -1.0141427132889E-01 
-2.3826357195711E-01 -4.7652714391422E-01 -4.7652714391423E-01 -4.7652714391422E-01 -4.7652714391423E-01 -4.7652714391423E-01 -4.7652714391422E-01 -4.7652714391423E-01 -4.7652714391422E-01 -2.3826357195711E-01 
-0.0000000000000E+00 -0.0000000000000E+00 -0.0000000000000E+00 -0.0000000000000E+00 -0.0000000000000E+00 -0.0000000000000E+00 -0.0000000000000E+00 -0.0000000000000E+00 -0.0000000000000E+00 -0.0000000000000E+00 
 2.3826357195711E-01  0.0000000000000E+00  0.0000000000000E+00  0.0000000000000E+00  0.0000000000000E+00  0.0000000000000E+00  0.0000000000000E+00  0.0000000000000E+00  0.0000000000000E+00  0.0000000000000E+00 
 0.0000000000000E+00 -0.0000000000000E+00 -0.0000000000000E+00 -0.0000000000000E+00 -0.0000000000000E+00 -0.0000000000000E+00 -0.0000000000000E+00 -0.0000000000000E+00 -0.0000000000000E+00  2.3826357195711E-01 
-0.0000000000000E+00 -0.0000000000000E+00 -0.0000000000000E+00 -0.0000000000000E+00 -0.0000000000000E+00 -0.0000000000000E+00 -0.0000000000000E+00 -0.0000000000000E+00 -0.0000000000000E+00 -0.0000000000000E+00 
 7.2440786946225E+03  1.4488157389245E+04  1.4488157389245E+04  1.4488157389245E+04  1.4488157389245E+04  1.4488157389245E+04  1.4488157389245E+04  1.4488157389245E+04  1.4488157389245E+04  7.2440786946225E+03 
 4.9259735123433E+04  9.8519470246865E+04  9.8519470246866E+04  9.8519470246865E+04  9.8519470246866E+04  9.8519470246866E+04  9.8519470246865E+04  9.8519470246866E+04  9.8519470246865E+04  4.9259735123433E+04 
 5.6503813818055E+04  1.1300762763611E+05  1.1300762763611E+05  1.1300762763611E+05  1.1300762763611E+05  1.1300762763611E+05  1.1300762763611E+05  1.1300762763611E+05  1.1300762763611E+05  5.6503813818055E+04 
 3.5000000000000E-01  3.5000000000000E-01  3.5000000000000E-01  3.5000000000000E-01  3.5000000000000E-01  3.5000000000000E-01  3.5000000000000E-01  3.5000000000000E-01  3.5000000000000E-01  3.5000000000000E-01 
 6.6040000000000E+00  1.3208000000000E+01  1.3208000000000E+01  1.3208000000000E+01  1.3208000000000E+01  1.3208000000000E+01  1.3208000000000E+01  1.3208000000000E+01  1.3208000000000E+01  6.6040000000000E+00 
-3.6078675341780E-02 -3.6078675341780E-02 -3.6078675341780E-02 -3.6078675341780E-02 -3.6078675341780E-02 -3.6078675341780E-02 -3.6078675341780E-02 -3.6078675341780E-02 -3.6078675341780E-02 -3.6078675341780E-02 
 3.3866666666667E-05  6.7733333333333E-05  6.7733333333334E-05  6.7733333333333E-05  6.7733333333334E-05  6.7733333333334E-05  6.7733333333333E-05  6.7733333333334E-05  6.7733333333333E-05  3.3866666666667E-05 
 2.6603001364256E+01  2.6603001364256E+01  2.6603001364256E+01  2.6603001364256E+01  2.6603001364256E+01  2.6603001364256E+01  2.6603001364256E+01  2.6603001364256E+01  2.6603001364256E+01  2.6603001364256E+01 
 1.7735334242838E+01  1.7735334242838E+01  1.7735334242838E+01  1.7735334242838E+01  1.7735334242838E+01  1.7735334242838E+01  1.7735334242838E+01  1.7735334242838E+01  1.7735334242838E+01  1.7735334242838E+01 
 0.0000000000000E+00  0.0000000000000E+00  0.0000000000000E+00  0.0000000000000E+00  0.0000000000000E+00  0.0000000000000E+00  0.0000000000000E+00  0.0000000000000E+00  0.0000000000000E+00  0.0000000000000E+00 
 0.0000000000000E+00  0.0000000000000E+00  0.0000000000000E+00  0.0000000000000E+00  0.0000000000000E+00  0.0000000000000E+00  0.0000000000000E+00  0.0000000000000E+00  0.0000000000000E+00  0.0000000000000E+00 
 0.0000000000000E+00  0.0000000000000E+00  0.0000000000000E+00  0.0000000000000E+00  0.0000000000000E+00  0.0000000000000E+00  0.0000000000000E+00  0.0000000000000E+00  0.0000000000000E+00  0.0000000000000E+00 
 0.0000000000000E+00  0.0000000000000E+00  0.0000000000000E+00  0.0000000000000E+00  0.0000000000000E+00  0.0000000000000E+00  0.0000000000000E+00  0.0000000000000E+00  0.0000000000000E+00  0.0000000000000E+00 
 0.0000000000000E+00  0.0000000000000E+00  0.0000000000000E+00  0.0000000000000E+00  0.0000000000000E+00  0.0000000000000E+00  0.0000000000000E+00  0.0000000000000E+00  0.0000000000000E+00  0.0000000000000E+00 
 0.0000000000000E+00  0.0000000000000E+00  0.0000000000000E+00  0.0000000000000E+00  0.0000000000000E+00  0.0000000000000E+00  0.0000000000000E+00  0.0000000000000E+00  0.0000000000000E+00  0.0000000000000E+00 
 0.0000000000000E+00  0.0000000000000E+00  0.0000000000000E+00  0.0000000000000E+00  0.0000000000000E+00  0.0000000000000E+00  0.0000000000000E+00  0.0000000000000E+00  0.0000000000000E+00  0.0000000000000E+00 
ZONE T = "CATH, 1.0000E-08", I = 10, SOLUTIONTIME = 1.000000E-08
ZONETYPE = ORDERED
DATAPACKING = BLOCK
STRANDID = 3
 1.2700000000000E-03  1.3377333333333E-03  1.4054666666667E-03  1.4732000000000E-03  1.5409333333333E-03  1.6086666666667E-03  1.6764000000000E-03  1.7441333333333E-03  1.8118666666667E-03  1.8796000000000E-03 
 9.8017287102904E-09  8.6497618402327E-09  7.4977246258222E-09  6.3452053149417E-09  5.1925185509963E-09  4.0396157415825E-09  2.8864482580582E-09  1.7333306351002E-09  5.7948773160592E-10  2.3608502305669E-12 
 9.2000000000016E-01  9.2000000000045E-01  9.2000000000045E-01  9.2000000000045E-01  9.2000000000045E-01  9.2000000000045E-01  9.2000000000045E-01  9.2000000000045E-01  9.2000000000045E-01  9.2000000000045E-01 
 3.9999999999921E-02  3.9999999999776E-02  3.9999999999776E-02  3.9999999999776E-02  3.9999999999776E-02  3.9999999999776E-02  3.9999999999776E-02  3.9999999999776E-02  3.9999999999776E-02  3.9999999999776E-02 
 3.9999999999921E-02  3.9999999999776E-02  3.9999999999776E-02  3.9999999999776E-02  3.9999999999776E-02  3.9999999999776E-02  3.9999999999776E-02  3.9999999999776E-02  3.9999999999776E-02  3.9999999999776E-02 
 3.5028626929524E-02  3.5028523970504E-02  3.5028433117324E-02  3.5028354370724E-02  3.5028287731953E-02  3.5028233202769E-02  3.5028190785443E-02  3.5028160482755E-02  3.5028142297996E-02  3.5028136234971E-02 
 3.8418325729740E+00  3.8418315005720E+00  3.8418282833254E+00  3.8418229211034E+00  3.8418154136846E+00  3.8418057607573E+00  3.8417939619194E+00  3.8417800166782E+00  3.8417639244506E+00  3.8417456845626E+00 
 3.8068039460445E+00  3.8068029766015E+00  3.8067998502081E+00  3.8067945667327E+00  3.8067871259526E+00  3.8067775275545E+00  3.8067657711339E+00  3.8067518561955E+00  3.8067357821526E+00  3.8067175483276E+00 
 3.9714142713288E+00  3.9714142713287E+00  3.9714142713287E+00  3.9714142713287E+00  3.9714142713287E+00  3.9714142713287E+00  3.9714142713287E+00  3.9714142713287E+00  3.9714142713287E+00  3.9714142713287E+00 
-1.6461032528434E-01 -1.6461129472721E-01 -1.6461442112058E-01 -1.6461970459603E-01 -1.6462714537609E-01 -1.6463674377421E-01 -1.6464850019478E-01 -1.6466241513322E-01 -1.6467848917608E-01 -1.6469672300106E-01 
-8.2970784144068E-01 -1.6594470935471E+00 -1.6595483950179E+00 -1.6597196042760E+00 -1.6599607500269E+00 -1.6602718727092E+00 -1.6606530245091E+00 -1.6611042693794E+00 -1.6616256830622E+00 -8.3110867655792E-01 
 7.3137808391861E-08  6.4538264221526E-08  5.5938261080506E-08  4.7337370708020E-08  3.8735230679167E-08  3.0131478377068E-08  2.1525750889983E-08  1.2917684991832E-08  4.3069170561546E-09  4.3069170561546E-09 
 1.4943147210993E+01  1.3283715822425E+01  1.1624218077841E+01  9.9645840784656E+00  8.3047439013106E+00  6.6446275901095E+00  4.9841651415129E+00  3.3232864941498E+00  1.6619215176893E+00  0.0000000000000E+00 
 0.0000000000000E+00  1.6594313881779E+00  3.3189291324480E+00  4.9785631321521E+00  6.6384033093089E+00  8.2985196206397E+00  9.9589820692497E+00  1.1619860716139E+01  1.3281225692400E+01  1.4943147210541E+01 
 8.2970784144068E-09  1.6594470935471E-08  1.6595483950179E-08  1.6597196042760E-08  1.6599607500269E-08  1.6602718727092E-08  1.6606530245091E-08  1.6611042693794E-08  1.6616256830622E-08  8.3110867655792E-09 
 7.2440786946308E+03  1.4488157389261E+04  1.4488157389262E+04  1.4488157389261E+04  1.4488157389262E+04  1.4488157389262E+04  1.4488157389261E+04  1.4488157389262E+04  1.4488157389262E+04  7.2440786946308E+03 
 4.9259735123425E+04  9.8519470246849E+04  9.8519470246849E+04  9.8519470246849E+04  9.8519470246849E+04  9.8519470246849E+04  9.8519470246849E+04  9.8519470246849E+04  9.8519470246848E+04  4.9259735123425E+04 
 5.6503813818055E+04  1.1300762763611E+05  1.1300762763611E+05  1.1300762763611E+05  1.1300762763611E+05  1.1300762763611E+05  1.1300762763611E+05  1.1300762763611E+05  1.1300762763611E+05  5.6503813818055E+04 
 3.5000000000000E-01  3.5000000000000E-01  3.5000000000000E-01  3.5000000000000E-01  3.5000000000000E-01  3.5000000000000E-01  3.5000000000000E-01  3.5000000000000E-01  3.5000000000000E-01  3.5000000000000E-01 
 6.6040000000000E+00  1.3208000000000E+01  1.3208000000000E+01  1.3208000000000E+01  1.3208000000000E+01  1.3208000000000E+01  1.3208000000000E+01  1.3208000000000E+01  1.3208000000000E+01  6.6040000000000E+00 
-1.2563716557248E-01 -1.2563954372707E-01 -1.2564721343261E-01 -1.2566017597486E-01 -1.2567843352717E-01 -1.2570198915121E-01 -1.2573084679808E-01 -1.2576501130977E-01 -1.2580448842082E-01 -1.2584928476044E-01 
 3.3866666666667E-05  6.7733333333333E-05  6.7733333333334E-05  6.7733333333333E-05  6.7733333333334E-05  6.7733333333334E-05  6.7733333333333E-05  6.7733333333334E-05  6.7733333333333E-05  3.3866666666667E-05 
 2.6603001364259E+01  2.6603001364259E+01  2.6603001364259E+01  2.6603001364259E+01  2.6603001364259E+01  2.6603001364259E+01  2.6603001364259E+01  2.6603001364259E+01  2.6603001364259E+01  2.6603001364259E+01 
 1.7735334242835E+01  1.7735334242835E+01  1.7735334242835E+01  1.7735334242835E+01  1.7735334242835E+01  1.7735334242835E+01  1.7735334242835E+01  1.7735334242835E+01  1.7735334242835E+01  1.7735334242835E+01 
 3.4589855634692E-10  8.4763258907507E-10  2.3796262891315E-09  4.9688448381814E-09  8.6157245112959E-09  1.3320879910416E-08  1.9085104183229E-08  2.5909369306104E-08  3.3794826432503E-08  3.8003008101112E-08 
 3.4589855634692E-02  8.4763258907507E-02  2.3796262891315E-01  4.9688448381814E-01  8.6157245112959E-01  1.3320879910416E+00  1.9085104183229E+00  2.5909369306104E+00  3.3794826432503E+00  3.8003008101112E+00 
 2.1453334946784E-02  1.9079163504533E-02  1.4627292442964E-02  1.0768350567568E-02  7.5023589290844E-03  4.8294385556191E-03  2.7498105347774E-03  1.2637961353279E-03  3.7181696619885E-04  7.4395166738622E-05 
 1.3136520687908E-02  6.5684095402974E-02  2.2333533647018E-01  4.8611613325057E-01  8.5407009220050E-01  1.3272585524859E+00  1.9057606077881E+00  2.5896731344751E+00  3.3791108262841E+00  3.8002264149445E+00 
 0.0000000000000E+00  0.0000000000000E+00  0.0000000000000E+00  0.0000000000000E+00  0.0000000000000E+00  0.0000000000000E+00  0.0000000000000E+00  0.0000000000000E+00  0.0000000000000E+00  0.0000000000000E+00 
 0.0000000000000E+00  0.0000000000000E+00  0.0000000000000E+00  0.0000000000000E+00  0.0000000000000E+00  0.0000000000000E+00  0.0000000000000E+00  0.0000000000000E+00  0.0000000000000E+00  0.0000000000000E+00 
 0.0000000000000E+00  0.0000000000000E+00  0.0000000000000E+00  0.0000000000000E+00  0.0000000000000E+00  0.0000000000000E+00  0.0000000000000E+00  0.0000000000000E+00  0.0000000000000E+00  0.0000000000000E+00 
ZONE T = "CATH, 2.0000E-08", I = 10, SOLUTIONTIME = 2.000000E-08
ZONETYPE = ORDERED
DATAPACKING = BLOCK
STRANDID = 3
 1.2700000000000E-03  1.3377333333333E-03  1.4054666666667E-03  1.4732000000000E-03  1.5409333333333E-03  1.6086666666667E-03  1.6764000000000E-03  1.7441333333333E-03  1.8118666666667E-03  1.8796000000000E-03 
 9.7979150290945E-09  8.6448585358598E-09  7.4917316982723E-09  6.3388491796704E-09  5.1857992080036E-09  4.0325331908683E-09  2.8786392918949E-09  1.7244320457599E-09  5.7095234999979E-10 -6.3561352362457E-12 
 9.2000000000032E-01  9.2000000000089E-01  9.2000000000089E-01  9.2000000000089E-01  9.2000000000089E-01  9.2000000000089E-01  9.2000000000089E-01  9.2000000000090E-01  9.2000000000090E-01  9.2000000000090E-01 
 3.9999999999842E-02  3.9999999999553E-02  3.9999999999553E-02  3.9999999999553E-02  3.9999999999553E-02  3.9999999999553E-02  3.9999999999552E-02  3.9999999999552E-02  3.9999999999552E-02  3.9999999999552E-02 
 3.9999999999842E-02  3.9999999999553E-02  3.9999999999553E-02  3.9999999999553E-02  3.9999999999553E-02  3.9999999999553E-02  3.9999999999552E-02  3.9999999999552E-02  3.9999999999552E-02  3.9999999999552E-02 
 3.5028626929334E-02  3.5028523970314E-02  3.5028433117135E-02  3.5028354370535E-02  3.5028287731764E-02  3.5028233202580E-02  3.5028190785254E-02  3.5028160482565E-02  3.5028142297807E-02  3.5028136234782E-02 
 3.8418325729738E+00  3.8418315005718E+00  3.8418282833252E+00  3.8418229211032E+00  3.8418154136843E+00  3.8418057607570E+00  3.8417939619191E+00  3.8417800166780E+00  3.8417639244504E+00  3.8417456845624E+00 
 3.8068039460444E+00  3.8068029766015E+00  3.8067998502081E+00  3.8067945667326E+00  3.8067871259526E+00  3.8067775275545E+00  3.8067657711339E+00  3.8067518561954E+00  3.8067357821526E+00  3.8067175483276E+00 
 3.9714142713287E+00  3.9714142713285E+00  3.9714142713285E+00  3.9714142713285E+00  3.9714142713285E+00  3.9714142713285E+00  3.9714142713285E+00  3.9714142713285E+00  3.9714142713285E+00  3.9714142713285E+00 
-1.6461032528428E-01 -1.6461129472706E-01 -1.6461442112043E-01 -1.6461970459588E-01 -1.6462714537594E-01 -1.6463674377406E-01 -1.6464850019463E-01 -1.6466241513308E-01 -1.6467848917593E-01 -1.6469672300091E-01 
-8.2970784143882E-01 -1.6594470935374E+00 -1.6595483950081E+00 -1.6597196042663E+00 -1.6599607500172E+00 -1.6602718726994E+00 -1.6606530244993E+00 -1.6611042693697E+00 -1.6616256830524E+00 -8.3110867655303E-01 
 7.3137874360901E-08  6.4538264234832E-08  5.5938261090958E-08  4.7337370714477E-08  3.8735230706295E-08  3.0131478392359E-08  2.1525750920130E-08  1.2917685020000E-08  4.3069171029778E-09  4.3069171029778E-09 
 1.4943147209986E+01  1.3283715822364E+01  1.1624218078252E+01  9.9645840779343E+00  8.3047439012642E+00  6.6446275900723E+00  4.9841651410094E+00  3.3232864941312E+00  1.6619215181556E+00  0.0000000000000E+00 
 0.0000000000000E+00  1.6594313881779E+00  3.3189291324480E+00  4.9785631321521E+00  6.6384033093089E+00  8.2985196206397E+00  9.9589820692497E+00  1.1619860716139E+01  1.3281225692228E+01  1.4943147210193E+01 
 1.6594156828795E-08  3.3188941870844E-08  3.3190967900260E-08  3.3194392085423E-08  3.3199215000441E-08  3.3205437454086E-08  3.3213060490084E-08  3.3222085387491E-08  3.3232513661146E-08  1.6622173531110E-08 
 7.2440786946391E+03  1.4488157389278E+04  1.4488157389278E+04  1.4488157389278E+04  1.4488157389278E+04  1.4488157389278E+04  1.4488157389278E+04  1.4488157389278E+04  1.4488157389278E+04  7.2440786946391E+03 
 4.9259735123416E+04  9.8519470246832E+04  9.8519470246833E+04  9.8519470246832E+04  9.8519470246833E+04  9.8519470246833E+04  9.8519470246832E+04  9.8519470246833E+04  9.8519470246832E+04  4.9259735123416E+04 
 5.6503813818055E+04  1.1300762763611E+05  1.1300762763611E+05  1.1300762763611E+05  1.1300762763611E+05  1.1300762763611E+05  1.1300762763611E+05  1.1300762763611E+05  1.1300762763611E+05  5.6503813818055E+04 
 3.5000000000000E-01  3.5000000000000E-01  3.5000000000000E-01  3.5000000000000E-01  3.5000000000000E-01  3.5000000000000E-01  3.5000000000000E-01  3.5000000000000E-01  3.5000000000000E-01  3.5000000000000E-01 
 6.6040000000000E+00  1.3208000000000E+01  1.3208000000000E+01  1.3208000000000E+01  1.3208000000000E+01  1.3208000000000E+01  1.3208000000000E+01  1.3208000000000E+01  1.3208000000000E+01  6.6040000000000E+00 
-1.2563716557220E-01 -1.2563954372633E-01 -1.2564721343187E-01 -1.2566017597413E-01 -1.2567843352644E-01 -1.2570198915047E-01 -1.2573084679734E-01 -1.2576501130903E-01 -1.2580448842008E-01 -1.2584928475970E-01 
 3.3866666666667E-05  6.7733333333333E-05  6.7733333333334E-05  6.7733333333333E-05  6.7733333333334E-05  6.7733333333334E-05  6.7733333333333E-05  6.7733333333334E-05  6.7733333333333E-05  3.3866666666667E-05 
 2.6603001364262E+01  2.6603001364262E+01  2.6603001364262E+01  2.6603001364262E+01  2.6603001364262E+01  2.6603001364262E+01  2.6603001364262E+01  2.6603001364262E+01  2.6603001364262E+01  2.6603001364262E+01 
 1.7735334242833E+01  1.7735334242833E+01  1.7735334242833E+01  1.7735334242833E+01  1.7735334242833E+01  1.7735334242833E+01  1.7735334242833E+01  1.7735334242833E+01  1.7735334242833E+01  1.7735334242833E+01 
 6.9179711266412E-10  1.6952651781476E-09  4.7592525782749E-09  9.9376896763528E-09  1.7231449022590E-08  2.6641759820833E-08  3.8170208366451E-08  5.1818738612209E-08  6.7589652864082E-08  7.6006016200375E-08 
 3.4589855631720E-02  8.4763258907249E-02  2.3796262891434E-01  4.9688448381714E-01  8.6157245112938E-01  1.3320879910417E+00  1.9085104183223E+00  2.5909369306104E+00  3.3794826431579E+00  3.8003008099263E+00 
 2.1453334943811E-02  1.9079163504276E-02  1.4627292444158E-02  1.0768350566572E-02  7.5023589288724E-03  4.8294385557621E-03  2.7498105341663E-03  1.2637961353209E-03  3.7181696628191E-04  7.4395166908490E-05 
 1.3136520687908E-02  6.5684095402974E-02  2.2333533647018E-01  4.8611613325057E-01  8.5407009220050E-01  1.3272585524859E+00  1.9057606077881E+00  2.5896731344751E+00  3.3791108261916E+00  3.8002264147594E+00 
 0.0000000000000E+00  0.0000000000000E+00  0.0000000000000E+00  0.0000000000000E+00  0.0000000000000E+00  0.0000000000000E+00  0.0000000000000E+00  0.0000000000000E+00  0.0000000000000E+00  0.0000000000000E+00 
 0.0000000000000E+00  0.0000000000000E+00  0.0000000000000E+00  0.0000000000000E+00  0.0000000000000E+00  0.0000000000000E+00  0.0000000000000E+00  0.0000000000000E+00  0.0000000000000E+00  0.0000000000000E+00 
 0.0000000000000E+00  0.0000000000000E+00  0.0000000000000E+00  0.0000000000000E+00  0.0000000000000E+00  0.0000000000000E+00  0.0000000000000E+00  0.0000000000000E+00  0.0000000000000E+00  0.0000000000000E+00 
ZONE T = "CATH, 3.0000E-08", I = 10, SOLUTIONTIME = 3.000000E-08
ZONETYPE = ORDERED
DATAPACKING = BLOCK
STRANDID = 3
 1.2700000000000E-03  1.3377333333333E-03  1.4054666666667E-03  1.4732000000000E-03  1.5409333333333E-03  1.6086666666667E-03  1.6764000000000E-03  1.7441333333333E-03  1.8118666666667E-03  1.8796000000000E-03 
 9.7993678599493E-09  8.6474009899045E-09  7.4953637755070E-09  6.3432076723673E-09  5.1908841161627E-09  4.0383445144896E-09  2.8859034464340E-09  1.7327858234890E-09  5.7930612773553E-10  2.3608502305925E-12 
 9.2000000000047E-01  9.2000000000134E-01  9.2000000000134E-01  9.2000000000134E-01  9.2000000000134E-01  9.2000000000134E-01  9.2000000000134E-01  9.2000000000134E-01  9.2000000000134E-01  9.2000000000134E-01 
 3.9999999999763E-02  3.9999999999329E-02  3.9999999999329E-02  3.9999999999329E-02  3.9999999999329E-02  3.9999999999329E-02  3.9999999999329E-02  3.9999999999329E-02  3.9999999999328E-02  3.9999999999328E-02 
 3.9999999999763E-02  3.9999999999329E-02  3.9999999999329E-02  3.9999999999329E-02  3.9999999999329E-02  3.9999999999329E-02  3.9999999999329E-02  3.9999999999329E-02  3.9999999999328E-02  3.9999999999328E-02 
 3.5028626929142E-02  3.5028523970122E-02  3.5028433116942E-02  3.5028354370342E-02  3.5028287731571E-02  3.5028233202387E-02  3.5028190785061E-02  3.5028160482372E-02  3.5028142297614E-02  3.5028136234589E-02 
 3.8418325729735E+00  3.8418315005715E+00  3.8418282833250E+00  3.8418229211029E+00  3.8418154136841E+00  3.8418057607568E+00  3.8417939619189E+00  3.8417800166778E+00  3.8417639244502E+00  3.8417456845622E+00 
 3.8068039460444E+00  3.8068029766014E+00  3.8067998502081E+00  3.8067945667326E+00  3.8067871259525E+00  3.8067775275544E+00  3.8067657711339E+00  3.8067518561954E+00  3.8067357821526E+00  3.8067175483276E+00 
 3.9714142713286E+00  3.9714142713283E+00  3.9714142713283E+00  3.9714142713283E+00  3.9714142713283E+00  3.9714142713283E+00  3.9714142713283E+00  3.9714142713283E+00  3.9714142713283E+00  3.9714142713283E+00 
-1.6461032528423E-01 -1.6461129472692E-01 -1.6461442112029E-01 -1.6461970459573E-01 -1.6462714537579E-01 -1.6463674377391E-01 -1.6464850019448E-01 -1.6466241513293E-01 -1.6467848917578E-01 -1.6469672300077E-01 
-8.2970784143706E-01 -1.6594470935278E+00 -1.6595483949986E+00 -1.6597196042567E+00 -1.6599607500076E+00 -1.6602718726899E+00 -1.6606530244898E+00 -1.6611042693601E+00 -1.6616256830429E+00 -8.3110867654824E-01 
 7.3137940332843E-08  6.4538264240307E-08  5.5938261106339E-08  4.7337370725863E-08  3.8735230723564E-08  3.0131478419535E-08  2.1525750948251E-08  1.2917685051082E-08  4.3069171419592E-09  4.3069171419592E-09 
 1.4943147209931E+01  1.3283715821827E+01  1.1624218078187E+01  9.9645840783542E+00  8.3047439007421E+00  6.6446275900352E+00  4.9841651414571E+00  3.3232864941126E+00  1.6619215181463E+00  0.0000000000000E+00 
 0.0000000000000E+00  1.6594313881779E+00  3.3189291324480E+00  4.9785631321521E+00  6.6384033093089E+00  8.2985196204679E+00  9.9589820690779E+00  1.1619860716139E+01  1.3281225692228E+01  1.4943147210188E+01 
 2.4891235243166E-08  4.9783412806122E-08  4.9786451850246E-08  4.9791588127990E-08  4.9798822500517E-08  4.9808156180984E-08  4.9819590734982E-08  4.9833128081092E-08  4.9848770491575E-08  2.4933260296592E-08 
 7.2440786946474E+03  1.4488157389295E+04  1.4488157389295E+04  1.4488157389295E+04  1.4488157389295E+04  1.4488157389295E+04  1.4488157389295E+04  1.4488157389295E+04  1.4488157389295E+04  7.2440786946474E+03 
 4.9259735123408E+04  9.8519470246815E+04  9.8519470246816E+04  9.8519470246815E+04  9.8519470246816E+04  9.8519470246816E+04  9.8519470246815E+04  9.8519470246816E+04  9.8519470246815E+04  4.9259735123408E+04 
 5.6503813818055E+04  1.1300762763611E+05  1.1300762763611E+05  1.1300762763611E+05  1.1300762763611E+05  1.1300762763611E+05  1.1300762763611E+05  1.1300762763611E+05  1.1300762763611E+05  5.6503813818055E+04 
 3.5000000000000E-01  3.5000000000000E-01  3.5000000000000E-01  3.5000000000000E-01  3.5000000000000E-01  3.5000000000000E-01  3.5000000000000E-01  3.5000000000000E-01  3.5000000000000E-01  3.5000000000000E-01 
 6.6040000000000E+00  1.3208000000000E+01  1.3208000000000E+01  1.3208000000000E+01  1.3208000000000E+01  1.3208000000000E+01  1.3208000000000E+01  1.3208000000000E+01  1.3208000000000E+01  6.6040000000000E+00 
-1.2563716557194E-01 -1.2563954372561E-01 -1.2564721343115E-01 -1.2566017597341E-01 -1.2567843352571E-01 -1.2570198914975E-01 -1.2573084679662E-01 -1.2576501130831E-01 -1.2580448841936E-01 -1.2584928475897E-01 
 3.3866666666667E-05  6.7733333333333E-05  6.7733333333334E-05  6.7733333333333E-05  6.7733333333334E-05  6.7733333333334E-05  6.7733333333333E-05  6.7733333333334E-05  6.7733333333333E-05  3.3866666666667E-05 
 2.6603001364264E+01  2.6603001364264E+01  2.6603001364264E+01  2.6603001364264E+01  2.6603001364264E+01  2.6603001364264E+01  2.6603001364264E+01  2.6603001364264E+01  2.6603001364264E+01  2.6603001364264E+01 
 1.7735334242830E+01  1.7735334242830E+01  1.7735334242830E+01  1.7735334242830E+01  1.7735334242830E+01  1.7735334242830E+01  1.7735334242830E+01  1.7735334242830E+01  1.7735334242830E+01  1.7735334242830E+01 
 1.0376956689805E-09  2.5428977672064E-09  7.1388788674158E-09  1.4906534514535E-08  2.5847173533875E-08  3.9962639730649E-08  5.7255312549081E-08  7.7728107918313E-08  1.0138447929566E-07  1.1400902429964E-07 
 3.4589855631638E-02  8.4763258905886E-02  2.3796262891409E-01  4.9688448381819E-01  8.6157245112857E-01  1.3320879909817E+00  1.9085104182630E+00  2.5909369306104E+00  3.3794826431579E+00  3.8003008099263E+00 
 2.1453334943730E-02  1.9079163502913E-02  1.4627292443906E-02  1.0768350567617E-02  7.5023589280647E-03  4.8294385555650E-03  2.7498105347466E-03  1.2637961353138E-03  3.7181696627983E-04  7.4395166908074E-05 
 1.3136520687908E-02  6.5684095402974E-02  2.2333533647018E-01  4.8611613325057E-01  8.5407009220050E-01  1.3272585524261E+00  1.9057606077282E+00  2.5896731344751E+00  3.3791108261916E+00  3.8002264147594E+00 
 0.0000000000000E+00  0.0000000000000E+00  0.0000000000000E+00  0.0000000000000E+00  0.0000000000000E+00  0.0000000000000E+00  0.0000000000000E+00  0.0000000000000E+00  0.0000000000000E+00  0.0000000000000E+00 
 0.0000000000000E+00  0.0000000000000E+00  0.0000000000000E+00  0.0000000000000E+00  0.0000000000000E+00  0.0000000000000E+00  0.0000000000000E+00  0.0000000000000E+00  0.0000000000000E+00  0.0000000000000E+00 
 0.0000000000000E+00  0.0000000000000E+00  0.0000000000000E+00  0.0000000000000E+00  0.0000000000000E+00  0.0000000000000E+00  0.0000000000000E+00  0.0000000000000E+00  0.0000000000000E+00  0.0000000000000E+00 
ZONE T = "CATH, 4.0000E-08", I = 10, SOLUTIONTIME = 4.000000E-08
ZONETYPE = ORDERED
DATAPACKING = BLOCK
STRANDID = 3
 1.2700000000000E-03  1.3377333333333E-03  1.4054666666667E-03  1.4732000000000E-03  1.5409333333333E-03  1.6086666666667E-03  1.6764000000000E-03  1.7441333333333E-03  1.8118666666667E-03  1.8796000000000E-03 
 9.8000942753488E-09  8.6474009898551E-09  7.4950005677364E-09  6.3424812568755E-09  5.1897944929496E-09  4.0358020603720E-09  2.8822713691396E-09  1.7287905384734E-09  5.7494763499879E-10 -2.1792463667279E-12 
 9.2000000000063E-01  9.2000000000179E-01  9.2000000000179E-01  9.2000000000179E-01  9.2000000000179E-01  9.2000000000179E-01  9.2000000000179E-01  9.2000000000179E-01  9.2000000000179E-01  9.2000000000179E-01 
 3.9999999999684E-02  3.9999999999106E-02  3.9999999999106E-02  3.9999999999105E-02  3.9999999999105E-02  3.9999999999105E-02  3.9999999999105E-02  3.9999999999105E-02  3.9999999999104E-02  3.9999999999104E-02 
 3.9999999999684E-02  3.9999999999106E-02  3.9999999999106E-02  3.9999999999105E-02  3.9999999999105E-02  3.9999999999105E-02  3.9999999999105E-02  3.9999999999105E-02  3.9999999999104E-02  3.9999999999104E-02 
 3.5028626928953E-02  3.5028523969932E-02  3.5028433116753E-02  3.5028354370153E-02  3.5028287731382E-02  3.5028233202198E-02  3.5028190784872E-02  3.5028160482183E-02  3.5028142297425E-02  3.5028136234400E-02 
 3.8418325729733E+00  3.8418315005713E+00  3.8418282833248E+00  3.8418229211027E+00  3.8418154136839E+00  3.8418057607566E+00  3.8417939619187E+00  3.8417800166775E+00  3.8417639244499E+00  3.8417456845619E+00 
 3.8068039460443E+00  3.8068029766014E+00  3.8067998502080E+00  3.8067945667326E+00  3.8067871259525E+00  3.8067775275544E+00  3.8067657711338E+00  3.8067518561954E+00  3.8067357821525E+00  3.8067175483275E+00 
 3.9714142713285E+00  3.9714142713282E+00  3.9714142713282E+00  3.9714142713282E+00  3.9714142713282E+00  3.9714142713282E+00  3.9714142713282E+00  3.9714142713282E+00  3.9714142713282E+00  3.9714142713282E+00 
-1.6461032528419E-01 -1.6461129472678E-01 -1.6461442112015E-01 -1.6461970459559E-01 -1.6462714537565E-01 -1.6463674377377E-01 -1.6464850019434E-01 -1.6466241513279E-01 -1.6467848917564E-01 -1.6469672300063E-01 
-8.2970784143533E-01 -1.6594470935183E+00 -1.6595483949891E+00 -1.6597196042472E+00 -1.6599607499982E+00 -1.6602718726804E+00 -1.6606530244803E+00 -1.6611042693506E+00 -1.6616256830333E+00 -8.3110867654348E-01 