TITLE = "Solution on Domain BulkDomain1D_1"
VARIABLES = "x [m]"  
"Vel_axial(0)" 	"MF_sp(ECDMC)" 	"MF_sp(Li+)" 	"MF_sp(PF6-)" 	"Volt(Electroly)" 	"qHeat_accum [J/m3]" 	"qHeat_step [W/m3]" 	"Joule_Lyte [W/m3]" 	"Joule_Solid [W/m3]" 	
ZONE T = "t = 0 [s]" I = 10 SOLUTIONTIME = 0.0000000000000E+00
0.0007874 	0 	0.92 	0.04 	0.04 	-0.07 	
0 	0.0 	 0.0 	 0.0 	 
0.000841022 	0 	0.92 	0.04 	0.04 	-0.07 	
0 	0.0 	 0.0 	 0.0 	 
0.000894644 	0 	0.92 	0.04 	0.04 	-0.07 	
0 	0.0 	 0.0 	 0.0 	 
0.000948267 	0 	0.92 	0.04 	0.04 	-0.07 	
0 	0.0 	 0.0 	 0.0 	 
0.00100189 	0 	0.92 	0.04 	0.04 	-0.07 	
0 	0.0 	 0.0 	 0.0 	 
0.00105551 	0 	0.92 	0.04 	0.04 	-0.07 	
0 	0.0 	 0.0 	 0.0 	 
0.00110913 	0 	0.92 	0.04 	0.04 	-0.07 	
0 	0.0 	 0.0 	 0.0 	 
0.00116276 	0 	0.92 	0.04 	0.04 	-0.07 	
0 	0.0 	 0.0 	 0.0 	 
0.00121638 	0 	0.92 	0.04 	0.04 	-0.07 	
0 	0.0 	 0.0 	 0.0 	 
0.00127 	0 	0.92 	0.04 	0.04 	-0.07 	
0 	0.0 	 0.0 	 0.0 	 
ZONE T = "t = 1e-08 [s]" I = 10 SOLUTIONTIME = 1.0000000000000E-08
0.0007874 	1.0376e-08 	0.92 	0.04 	0.04 	0.0350284 	
6.84221e-11 	0.00684221 	0.00684221 	0 	
0.000841022 	1.0376e-08 	0.92 	0.04 	0.04 	0.0350284 	
6.84221e-11 	0.00684221 	0.00684221 	0 	
0.000894644 	1.0376e-08 	0.92 	0.04 	0.04 	0.0350284 	
6.84221e-11 	0.00684221 	0.00684221 	0 	
0.000948267 	1.0376e-08 	0.92 	0.04 	0.04 	0.0350284 	
6.84221e-11 	0.00684221 	0.00684221 	0 	
0.00100189 	1.0376e-08 	0.92 	0.04 	0.04 	0.0350283 	
6.84221e-11 	0.00684221 	0.00684221 	0 	
0.00105551 	1.0376e-08 	0.92 	0.04 	0.04 	0.0350283 	
6.84221e-11 	0.00684221 	0.00684221 	0 	
0.00110913 	1.0376e-08 	0.92 	0.04 	0.04 	0.0350283 	
6.84221e-11 	0.00684221 	0.00684221 	0 	
0.00116276 	1.0376e-08 	0.92 	0.04 	0.04 	0.0350283 	
6.84221e-11 	0.00684221 	0.00684221 	0 	
0.00121638 	1.0376e-08 	0.92 	0.04 	0.04 	0.0350282 	
6.84221e-11 	0.00684221 	0.00684221 	0 	
0.00127 	9.22315e-09 	0.92 	0.04 	0.04 	0.0350282 	
6.84221e-11 	0.00684221 	0.00684221 	0 	
ZONE T = "t = 2e-08 [s]" I = 10 SOLUTIONTIME = 2.0000000000000E-08
0.0007874 	1.03733e-08 	0.92 	0.04 	0.04 	0.0350288 	
1.36845e-10 	0.00684231 	0.00684231 	0 	
0.000841022 	1.03733e-08 	0.92 	0.04 	0.04 	0.0350288 	
1.36845e-10 	0.00684231 	0.00684231 	0 	
0.000894644 	1.03733e-08 	0.92 	0.04 	0.04 	0.0350288 	
1.36845e-10 	0.00684231 	0.00684231 	0 	
0.000948267 	1.03733e-08 	0.92 	0.04 	0.04 	0.0350288 	
1.36845e-10 	0.00684231 	0.00684231 	0 	
0.00100189 	1.03733e-08 	0.92 	0.04 	0.04 	0.0350287 	
1.36845e-10 	0.00684231 	0.00684231 	0 	
0.00105551 	1.03733e-08 	0.92 	0.04 	0.04 	0.0350287 	
1.36845e-10 	0.00684231 	0.00684231 	0 	
0.00110913 	1.03733e-08 	0.92 	0.04 	0.04 	0.0350287 	
1.36845e-10 	0.00684231 	0.00684231 	0 	
0.00116276 	1.03733e-08 	0.92 	0.04 	0.04 	0.0350287 	
1.36845e-10 	0.00684231 	0.00684231 	0 	
0.00121638 	1.03733e-08 	0.92 	0.04 	0.04 	0.0350287 	
1.36845e-10 	0.00684231 	0.00684231 	0 	
0.00127 	9.22212e-09 	0.92 	0.04 	0.04 	0.0350286 	
1.36845e-10 	0.00684231 	0.00684231 	0 	
ZONE T = "t = 3e-08 [s]" I = 10 SOLUTIONTIME = 3.0000000000000E-08
0.0007874 	1.03753e-08 	0.92 	0.04 	0.04 	0.0350288 	
2.05268e-10 	0.00684231 	0.00684231 	0 	
0.000841022 	1.03753e-08 	0.92 	0.04 	0.04 	0.0350288 	
2.05268e-10 	0.00684231 	0.00684231 	0 	
0.000894644 	1.03753e-08 	0.92 	0.04 	0.04 	0.0350288 	
2.05268e-10 	0.00684231 	0.00684231 	0 	
0.000948267 	1.03753e-08 	0.92 	0.04 	0.04 	0.0350288 	
2.05268e-10 	0.00684231 	0.00684231 	0 	
0.00100189 	1.03753e-08 	0.92 	0.04 	0.04 	0.0350287 	
2.05268e-10 	0.00684231 	0.00684231 	0 	
0.00105551 	1.03753e-08 	0.92 	0.04 	0.04 	0.0350287 	
2.05268e-10 	0.00684231 	0.00684231 	0 	
0.00110913 	1.03753e-08 	0.92 	0.04 	0.04 	0.0350287 	
2.05268e-10 	0.00684231 	0.00684231 	0 	
0.00116276 	1.03753e-08 	0.92 	0.04 	0.04 	0.0350287 	
2.05268e-10 	0.00684231 	0.00684231 	0 	
0.00121638 	1.03753e-08 	0.92 	0.04 	0.04 	0.0350287 	
2.05268e-10 	0.00684231 	0.00684231 	0 	
0.00127 	9.22249e-09 	0.92 	0.04 	0.04 	0.0350286 	
2.05268e-10 	0.00684231 	0.00684231 	0 	
ZONE T = "t = 4e-08 [s]" I = 10 SOLUTIONTIME = 4.0000000000000E-08
0.0007874 	1.0377e-08 	0.92 	0.04 	0.04 	0.0350288 	
2.73691e-10 	0.00684231 	0.00684231 	0 	
0.000841022 	1.0377e-08 	0.92 	0.04 	0.04 	0.0350288 	
2.73691e-10 	0.00684231 	0.00684231 	0 	
0.000894644 	1.0377e-08 	0.92 	0.04 	0.04 	0.0350288 	
2.73691e-10 	0.00684231 	0.00684231 	0 	
0.000948267 	1.0377e-08 	0.92 	0.04 	0.04 	0.0350288 	
2.73691e-10 	0.00684231 	0.00684231 	0 	
0.00100189 	1.0377e-08 	0.92 	0.04 	0.04 	0.0350287 	
2.73691e-10 	0.00684231 	0.00684231 	0 	
0.00105551 	1.0377e-08 	0.92 	0.04 	0.04 	0.0350287 	
2.73691e-10 	0.00684231 	0.00684231 	0 	
0.00110913 	1.0377e-08 	0.92 	0.04 	0.04 	0.0350287 	
2.73691e-10 	0.00684231 	0.00684231 	0 	
0.00116276 	1.0377e-08 	0.92 	0.04 	0.04 	0.0350287 	
2.73691e-10 	0.00684231 	0.00684231 	0 	
0.00121638 	1.0377e-08 	0.92 	0.04 	0.04 	0.0350287 	
2.73691e-10 	0.00684231 	0.00684231 	0 	
0.00127 	9.22467e-09 	0.92 	0.04 	0.04 	0.0350286 	
2.73691e-10 	0.00684231 	0.00684231 	0 	
ZONE T = "t = 5.5e-08 [s]" I = 10 SOLUTIONTIME = 5.5000000000000E-08
0.0007874 	1.03771e-08 	0.92 	0.04 	0.04 	0.0350288 	
3.76326e-10 	0.00684231 	0.00684231 	0 	
0.000841022 	1.03771e-08 	0.92 	0.04 	0.04 	0.0350288 	
3.76326e-10 	0.00684231 	0.00684231 	0 	
0.000894644 	1.03771e-08 	0.92 	0.04 	0.04 	0.0350288 	
3.76326e-10 	0.00684231 	0.00684231 	0 	
0.000948267 	1.03771e-08 	0.92 	0.04 	0.04 	0.0350288 	
3.76326e-10 	0.00684231 	0.00684231 	0 	
0.00100189 	1.03771e-08 	0.92 	0.04 	0.04 	0.0350287 	
3.76326e-10 	0.00684231 	0.00684231 	0 	
0.00105551 	1.03771e-08 	0.92 	0.04 	0.04 	0.0350287 	
3.76326e-10 	0.00684231 	0.00684231 	0 	
0.00110913 	1.03771e-08 	0.92 	0.04 	0.04 	0.0350287 	
3.76326e-10 	0.00684231 	0.00684231 	0 	
0.00116276 	1.03771e-08 	0.92 	0.04 	0.04 	0.0350287 	
3.76326e-10 	0.00684231 	0.00684231 	0 	
0.00121638 	1.03771e-08 	0.92 	0.04 	0.04 	0.0350287 	
3.76326e-10 	0.00684231 	0.00684231 	0 	
0.00127 	9.22479e-09 	0.92 	0.04 	0.04 	0.0350286 	
3.76326e-10 	0.00684231 	0.00684231 	0 	
ZONE T = "t = 7.75e-08 [s]" I = 10 SOLUTIONTIME = 7.7500000000000E-08
0.0007874 	1.03752e-08 	0.92 	0.04 	0.04 	0.0350288 	
5.30278e-10 	0.00684231 	0.00684231 	0 	
0.000841022 	1.03752e-08 	0.92 	0.04 	0.04 	0.0350288 	
5.30278e-10 	0.00684231 	0.00684231 	0 	
0.000894644 	1.03752e-08 	0.92 	0.04 	0.04 	0.0350288 	
5.30278e-10 	0.00684231 	0.00684231 	0 	
0.000948267 	1.03752e-08 	0.92 	0.04 	0.04 	0.0350288 	
5.30278e-10 	0.00684231 	0.00684231 	0 	
0.00100189 	1.03752e-08 	0.92 	0.04 	0.04 	0.0350287 	
5.30278e-10 	0.00684231 	0.00684231 	0 	
0.00105551 	1.03752e-08 	0.92 	0.04 	0.04 	0.0350287 	
5.30278e-10 	0.00684231 	0.00684231 	0 	
0.00110913 	1.03752e-08 	0.92 	0.04 	0.04 	0.0350287 	
5.30278e-10 	0.00684231 	0.00684231 	0 	
0.00116276 	1.03752e-08 	0.92 	0.04 	0.04 	0.0350287 	
5.30278e-10 	0.00684231 	0.00684231 	0 	
0.00121638 	1.03752e-08 	0.92 	0.04 	0.04 	0.0350287 	
5.30278e-10 	0.00684231 	0.00684231 	0 	
0.00127 	9.22325e-09 	0.92 	0.04 	0.04 	0.0350286 	
5.30278e-10 	0.00684231 	0.00684231 	0 	
ZONE T = "t = 1.1125e-07 [s]" I = 10 SOLUTIONTIME = 1.1125000000000E-07
0.0007874 	1.03773e-08 	0.92 	0.04 	0.04 	0.0350288 	
7.61206e-10 	0.00684231 	0.00684231 	0 	
0.000841022 	1.03773e-08 	0.92 	0.04 	0.04 	0.0350288 	
7.61206e-10 	0.00684231 	0.00684231 	0 	
0.000894644 	1.03773e-08 	0.92 	0.04 	0.04 	0.0350288 	
7.61206e-10 	0.00684231 	0.00684231 	0 	
0.000948267 	1.03773e-08 	0.92 	0.04 	0.04 	0.0350288 	
7.61206e-10 	0.00684231 	0.00684231 	0 	
0.00100189 	1.03773e-08 	0.92 	0.04 	0.04 	0.0350287 	
7.61206e-10 	0.00684231 	0.00684231 	0 	
0.00105551 	1.03773e-08 	0.92 	0.04 	0.04 	0.0350287 	
7.61206e-10 	0.00684231 	0.00684231 	0 	
0.00110913 	1.03773e-08 	0.92 	0.04 	0.04 	0.0350287 	
7.61206e-10 	0.00684231 	0.00684231 	0 	
0.00116276 	1.03773e-08 	0.92 	0.04 	0.04 	0.0350287 	
7.61206e-10 	0.00684231 	0.00684231 	0 	
0.00121638 	1.03773e-08 	0.92 	0.04 	0.04 	0.0350287 	
7.61206e-10 	0.00684231 	0.00684231 	0 	
0.00127 	9.225e-09 	0.92 	0.04 	0.04 	0.0350286 	
7.61206e-10 	0.00684231 	0.00684231 	0 	
ZONE T = "t = 1.61875e-07 [s]" I = 10 SOLUTIONTIME = 1.6187500000000E-07
0.0007874 	1.0376e-08 	0.92 	0.04 	0.04 	0.0350288 	
1.1076e-09 	0.00684231 	0.00684231 	0 	
0.000841022 	1.0376e-08 	0.92 	0.04 	0.04 	0.0350288 	
1.1076e-09 	0.00684231 	0.00684231 	0 	
0.000894644 	1.0376e-08 	0.92 	0.04 	0.04 	0.0350288 	
1.1076e-09 	0.00684231 	0.00684231 	0 	
0.000948267 	1.0376e-08 	0.92 	0.04 	0.04 	0.0350288 	
1.1076e-09 	0.00684231 	0.00684231 	0 	
0.00100189 	1.0376e-08 	0.92 	0.04 	0.04 	0.0350287 	
1.1076e-09 	0.00684231 	0.00684231 	0 	
0.00105551 	1.0376e-08 	0.92 	0.04 	0.04 	0.0350287 	
1.1076e-09 	0.00684231 	0.00684231 	0 	
0.00110913 	1.0376e-08 	0.92 	0.04 	0.04 	0.0350287 	
1.1076e-09 	0.00684231 	0.00684231 	0 	
0.00116276 	1.0376e-08 	0.92 	0.04 	0.04 	0.0350287 	
1.1076e-09 	0.00684231 	0.00684231 	0 	
0.00121638 	1.03759e-08 	0.92 	0.04 	0.04 	0.0350287 	
1.1076e-09 	0.00684231 	0.00684231 	0 	
0.00127 	9.22355e-09 	0.92 	0.04 	0.04 	0.0350286 	
1.1076e-09 	0.00684231 	0.00684231 	0 	
ZONE T = "t = 2.37813e-07 [s]" I = 10 SOLUTIONTIME = 2.3781250000000E-07
0.0007874 	1.03774e-08 	0.92 	0.04 	0.04 	0.0350288 	
1.62719e-09 	0.00684231 	0.00684231 	0 	
0.000841022 	1.03774e-08 	0.92 	0.04 	0.04 	0.0350288 	
1.62719e-09 	0.00684231 	0.00684231 	0 	
0.000894644 	1.03774e-08 	0.92 	0.04 	0.04 	0.0350288 	
1.62719e-09 	0.00684231 	0.00684231 	0 	
0.000948267 	1.03774e-08 	0.92 	0.04 	0.04 	0.0350288 	
1.62719e-09 	0.00684231 	0.00684231 	0 	
0.00100189 	1.03774e-08 	0.92 	0.04 	0.04 	0.0350287 	
1.62719e-09 	0.00684231 	0.00684231 	0 	
0.00105551 	1.03774e-08 	0.92 	0.04 	0.04 	0.0350287 	
1.62719e-09 	0.00684231 	0.00684231 	0 	
0.00110913 	1.03774e-08 	0.92 	0.04 	0.04 	0.0350287 	
1.62719e-09 	0.00684231 	0.00684231 	0 	
0.00116276 	1.03774e-08 	0.92 	0.04 	0.04 	0.0350287 	
1.62719e-09 	0.00684231 	0.00684231 	0 	
0.00121638 	1.03774e-08 	0.92 	0.04 	0.04 	0.0350287 	
1.62719e-09 	0.00684231 	0.00684231 	0 	
0.00127 	9.225e-09 	0.92 	0.04 	0.04 	0.0350286 	
1.62719e-09 	0.00684231 	0.00684231 	0 	
ZONE T = "t = 3.51719e-07 [s]" I = 10 SOLUTIONTIME = 3.5171875000000E-07
0.0007874 	1.03766e-08 	0.92 	0.04 	0.04 	0.0350288 	
2.40657e-09 	0.00684231 	0.00684231 	0 	
0.000841022 	1.03766e-08 	0.92 	0.04 	0.04 	0.0350288 	
2.40657e-09 	0.00684231 	0.00684231 	0 	
0.000894644 	1.03766e-08 	0.92 	0.04 	0.04 	0.0350288 	
2.40657e-09 	0.00684231 	0.00684231 	0 	
0.000948267 	1.03766e-08 	0.92 	0.04 	0.04 	0.0350288 	
2.40657e-09 	0.00684231 	0.00684231 	0 	
0.00100189 	1.03766e-08 	0.92 	0.04 	0.04 	0.0350287 	
2.40657e-09 	0.00684231 	0.00684231 	0 	
0.00105551 	1.03766e-08 	0.92 	0.04 	0.04 	0.0350287 	
2.40657e-09 	0.00684231 	0.00684231 	0 	
0.00110913 	1.03766e-08 	0.92 	0.04 	0.04 	0.0350287 	
2.40657e-09 	0.00684231 	0.00684231 	0 	
0.00116276 	1.03766e-08 	0.92 	0.04 	0.04 	0.0350287 	
2.40657e-09 	0.00684231 	0.00684231 	0 	
0.00121638 	1.03765e-08 	0.92 	0.04 	0.04 	0.0350287 	
2.40657e-09 	0.00684231 	0.00684231 	0 	
0.00127 	9.22422e-09 	0.92 	0.04 	0.04 	0.0350286 	
2.40657e-09 	0.00684231 	0.00684231 	0 	
