TITLE = "Solution on Domain BulkDomain1D_2"
VARIABLES = "x [m]"  
"Vel_axial" 	"MF_sp(ECDMC)" 	"MF_sp(Li+)" 	"MF_sp(PF6-)" 	"Volt(Electroly)" 	"Volt(CathodeVo)" 	
"Potential Drop Electrode-Electrolyte [V]" 	"Surf_0 Equilibrium Potential Drop Electrode-Electrolyte [V]" 	"Overpotential_0 [V]" 	"Current Source [A/m^2]" 	"Li+ flux [kmol/m^2/s]" 	"Electrolyte Current [A/m^2]" 	"Electrode Current [A/m^2]" 	
"CV Capacity discharged [A-s/m^2]" 	"Depth of discharge in CV [A-s/m^2]" 	"CV Capacity remaining [A-s/m^2]" 	"Initial CV capacity [A-s/m^2]" 	"Porosity []" 	"Surface Area [m2/m2] (area per area)" 	"Specific current (per particle area) [A/m^2]" 	"Control volume thickness [m]" 	
"MoleDens LiCoO2 [kmol/m^3]" 	"MoleDens CoO2 [kmol/m^3]" 	"qHeat_accum [J/m3]" 	"qHeat_step [W/m3]" 	"Joule_Lyte [W/m3]" 	"Joule_Solid [W/m3]" 	"electrodHeat [W/m3]" 	"OverpotHeat [W/m3]" 	"deltaSHeat [W/m3]" 	

ZONE T = "CATH, 0.0000E+00", I = 10, SOLUTIONTIME = 0.000000E+00
ZONETYPE = ORDERED
DATAPACKING = BLOCK
STRANDID = 3
 1.2700000000000E-03  1.3377333333333E-03  1.4054666666667E-03  1.4732000000000E-03  1.5409333333333E-03  1.6086666666667E-03  1.6764000000000E-03  1.7441333333333E-03  1.8118666666667E-03  1.8796000000000E-03 
 0.0000000000000E+00  0.0000000000000E+00  0.0000000000000E+00  0.0000000000000E+00  0.0000000000000E+00  0.0000000000000E+00  0.0000000000000E+00  0.0000000000000E+00  0.0000000000000E+00  0.0000000000000E+00 
 9.2000000000000E-01  9.2000000000000E-01  9.2000000000000E-01  9.2000000000000E-01  9.2000000000000E-01  9.2000000000000E-01  9.2000000000000E-01  9.2000000000000E-01  9.2000000000000E-01  9.2000000000000E-01 
 4.0000000000000E-02  4.0000000000000E-02  4.0000000000000E-02  4.0000000000000E-02  4.0000000000000E-02  4.0000000000000E-02  4.0000000000000E-02  4.0000000000000E-02  4.0000000000000E-02  4.0000000000000E-02 
 4.0000000000000E-02  4.0000000000000E-02  4.0000000000000E-02  4.0000000000000E-02  4.0000000000000E-02  4.0000000000000E-02  4.0000000000000E-02  4.0000000000000E-02  4.0000000000000E-02  4.0000000000000E-02 
-7.0000000000000E-02 -7.0000000000000E-02 -7.0000000000000E-02 -7.0000000000000E-02 -7.0000000000000E-02 -7.0000000000000E-02 -7.0000000000000E-02 -7.0000000000000E-02 -7.0000000000000E-02 -7.0000000000000E-02 
 3.8000000000000E+00  3.8000000000000E+00  3.8000000000000E+00  3.8000000000000E+00  3.8000000000000E+00  3.8000000000000E+00  3.8000000000000E+00  3.8000000000000E+00  3.8000000000000E+00  3.8000000000000E+00 
 3.8700000000000E+00  3.8700000000000E+00  3.8700000000000E+00  3.8700000000000E+00  3.8700000000000E+00  3.8700000000000E+00  3.8700000000000E+00  3.8700000000000E+00  3.8700000000000E+00  3.8700000000000E+00 
 3.9714142713289E+00  3.9714142713289E+00  3.9714142713289E+00  3.9714142713289E+00  3.9714142713289E+00  3.9714142713289E+00  3.9714142713289E+00  3.9714142713289E+00  3.9714142713289E+00  3.9714142713289E+00 
-1.0141427132889E-01 -1.0141427132889E-01 -1.0141427132889E-01 -1.0141427132889E-01 -1.0141427132889E-01 -1.0141427132889E-01 -1.0141427132889E-01 -1.0141427132889E-01 -1.0141427132889E-01 -1.0141427132889E-01 
-2.3826357195711E-01 -4.7652714391422E-01 -4.7652714391423E-01 -4.7652714391422E-01 -4.7652714391423E-01 -4.7652714391423E-01 -4.7652714391422E-01 -4.7652714391423E-01 -4.7652714391422E-01 -2.3826357195711E-01 
-0.0000000000000E+00 -0.0000000000000E+00 -0.0000000000000E+00 -0.0000000000000E+00 -0.0000000000000E+00 -0.0000000000000E+00 -0.0000000000000E+00 -0.0000000000000E+00 -0.0000000000000E+00 -0.0000000000000E+00 
 2.3826357195711E-01  0.0000000000000E+00  0.0000000000000E+00  0.0000000000000E+00  0.0000000000000E+00  0.0000000000000E+00  0.0000000000000E+00  0.0000000000000E+00  0.0000000000000E+00  0.0000000000000E+00 
 0.0000000000000E+00 -0.0000000000000E+00 -0.0000000000000E+00 -0.0000000000000E+00 -0.0000000000000E+00 -0.0000000000000E+00 -0.0000000000000E+00 -0.0000000000000E+00 -0.0000000000000E+00  2.3826357195711E-01 
-0.0000000000000E+00 -0.0000000000000E+00 -0.0000000000000E+00 -0.0000000000000E+00 -0.0000000000000E+00 -0.0000000000000E+00 -0.0000000000000E+00 -0.0000000000000E+00 -0.0000000000000E+00 -0.0000000000000E+00 
 7.2440786946225E+03  1.4488157389245E+04  1.4488157389245E+04  1.4488157389245E+04  1.4488157389245E+04  1.4488157389245E+04  1.4488157389245E+04  1.4488157389245E+04  1.4488157389245E+04  7.2440786946225E+03 
 4.9259735123433E+04  9.8519470246865E+04  9.8519470246866E+04  9.8519470246865E+04  9.8519470246866E+04  9.8519470246866E+04  9.8519470246865E+04  9.8519470246866E+04  9.8519470246865E+04  4.9259735123433E+04 
 5.6503813818055E+04  1.1300762763611E+05  1.1300762763611E+05  1.1300762763611E+05  1.1300762763611E+05  1.1300762763611E+05  1.1300762763611E+05  1.1300762763611E+05  1.1300762763611E+05  5.6503813818055E+04 
 3.5000000000000E-01  3.5000000000000E-01  3.5000000000000E-01  3.5000000000000E-01  3.5000000000000E-01  3.5000000000000E-01  3.5000000000000E-01  3.5000000000000E-01  3.5000000000000E-01  3.5000000000000E-01 
 6.6040000000000E+00  1.3208000000000E+01  1.3208000000000E+01  1.3208000000000E+01  1.3208000000000E+01  1.3208000000000E+01  1.3208000000000E+01  1.3208000000000E+01  1.3208000000000E+01  6.6040000000000E+00 
-3.6078675341780E-02 -3.6078675341780E-02 -3.6078675341780E-02 -3.6078675341780E-02 -3.6078675341780E-02 -3.6078675341780E-02 -3.6078675341780E-02 -3.6078675341780E-02 -3.6078675341780E-02 -3.6078675341780E-02 
 3.3866666666667E-05  6.7733333333333E-05  6.7733333333334E-05  6.7733333333333E-05  6.7733333333334E-05  6.7733333333334E-05  6.7733333333333E-05  6.7733333333334E-05  6.7733333333333E-05  3.3866666666667E-05 
 2.6603001364256E+01  2.6603001364256E+01  2.6603001364256E+01  2.6603001364256E+01  2.6603001364256E+01  2.6603001364256E+01  2.6603001364256E+01  2.6603001364256E+01  2.6603001364256E+01  2.6603001364256E+01 
 1.7735334242838E+01  1.7735334242838E+01  1.7735334242838E+01  1.7735334242838E+01  1.7735334242838E+01  1.7735334242838E+01  1.7735334242838E+01  1.7735334242838E+01  1.7735334242838E+01  1.7735334242838E+01 
 0.0000000000000E+00  0.0000000000000E+00  0.0000000000000E+00  0.0000000000000E+00  0.0000000000000E+00  0.0000000000000E+00  0.0000000000000E+00  0.0000000000000E+00  0.0000000000000E+00  0.0000000000000E+00 
 0.0000000000000E+00  0.0000000000000E+00  0.0000000000000E+00  0.0000000000000E+00  0.0000000000000E+00  0.0000000000000E+00  0.0000000000000E+00  0.0000000000000E+00  0.0000000000000E+00  0.0000000000000E+00 
 0.0000000000000E+00  0.0000000000000E+00  0.0000000000000E+00  0.0000000000000E+00  0.0000000000000E+00  0.0000000000000E+00  0.0000000000000E+00  0.0000000000000E+00  0.0000000000000E+00  0.0000000000000E+00 
 0.0000000000000E+00  0.0000000000000E+00  0.0000000000000E+00  0.0000000000000E+00  0.0000000000000E+00  0.0000000000000E+00  0.0000000000000E+00  0.0000000000000E+00  0.0000000000000E+00  0.0000000000000E+00 
 0.0000000000000E+00  0.0000000000000E+00  0.0000000000000E+00  0.0000000000000E+00  0.0000000000000E+00  0.0000000000000E+00  0.0000000000000E+00  0.0000000000000E+00  0.0000000000000E+00  0.0000000000000E+00 
 0.0000000000000E+00  0.0000000000000E+00  0.0000000000000E+00  0.0000000000000E+00  0.0000000000000E+00  0.0000000000000E+00  0.0000000000000E+00  0.0000000000000E+00  0.0000000000000E+00  0.0000000000000E+00 
 0.0000000000000E+00  0.0000000000000E+00  0.0000000000000E+00  0.0000000000000E+00  0.0000000000000E+00  0.0000000000000E+00  0.0000000000000E+00  0.0000000000000E+00  0.0000000000000E+00  0.0000000000000E+00 
ZONE T = "CATH, 1.0000E-08", I = 10, SOLUTIONTIME = 1.000000E-08
ZONETYPE = ORDERED
DATAPACKING = BLOCK
STRANDID = 3
 1.2700000000000E-03  1.3377333333333E-03  1.4054666666667E-03  1.4732000000000E-03  1.5409333333333E-03  1.6086666666667E-03  1.6764000000000E-03  1.7441333333333E-03  1.8118666666667E-03  1.8796000000000E-03 
 9.8003663455722E-09  8.6476837436272E-09  7.4949308010599E-09  6.3420589768021E-09  5.1890197092439E-09  4.0357644089386E-09  2.8822444496574E-09  1.7284111612331E-09  5.7421582128975E-10 -3.2688700918748E-12 
 9.2000000000016E-01  9.2000000000045E-01  9.2000000000045E-01  9.2000000000045E-01  9.2000000000045E-01  9.2000000000045E-01  9.2000000000045E-01  9.2000000000045E-01  9.2000000000045E-01  9.2000000000045E-01 
 3.9999999999921E-02  3.9999999999776E-02  3.9999999999776E-02  3.9999999999776E-02  3.9999999999776E-02  3.9999999999776E-02  3.9999999999776E-02  3.9999999999776E-02  3.9999999999776E-02  3.9999999999776E-02 
 3.9999999999921E-02  3.9999999999776E-02  3.9999999999776E-02  3.9999999999776E-02  3.9999999999776E-02  3.9999999999776E-02  3.9999999999776E-02  3.9999999999776E-02  3.9999999999776E-02  3.9999999999776E-02 
 3.5027877651645E-02  3.5027774693521E-02  3.5027683841182E-02  3.5027605095336E-02  3.5027538457275E-02  3.5027483928496E-02  3.5027441511663E-02  3.5027411209167E-02  3.5027393024585E-02  3.5027386961702E-02 
 3.8418321840292E+00  3.8418311116372E+00  3.8418278944204E+00  3.8418225322481E+00  3.8418150248989E+00  3.8418053720612E+00  3.8417935733328E+00  3.8417796282211E+00  3.8417635361430E+00  3.8417452964245E+00 
 3.8068043063775E+00  3.8068033369436E+00  3.8068002105792E+00  3.8067949271528E+00  3.8067874864416E+00  3.8067778881327E+00  3.8067661318211E+00  3.8067522170119E+00  3.8067361431184E+00  3.8067179094628E+00 
 3.9714142713288E+00  3.9714142713287E+00  3.9714142713287E+00  3.9714142713287E+00  3.9714142713287E+00  3.9714142713287E+00  3.9714142713287E+00  3.9714142713287E+00  3.9714142713287E+00  3.9714142713287E+00 
-1.6460996495126E-01 -1.6461093438507E-01 -1.6461406074949E-01 -1.6461934417593E-01 -1.6462678488707E-01 -1.6463638319604E-01 -1.6464813950761E-01 -1.6466205431677E-01 -1.6467812821033E-01 -1.6469636186592E-01 
-8.2970200398743E-01 -1.6594354181274E+00 -1.6595367179522E+00 -1.6597079244254E+00 -1.6599490662566E+00 -1.6602601838736E+00 -1.6606413294733E+00 -1.6610925669936E+00 -1.6616139721837E+00 -8.3110281629845E-01 
 7.3137171643221E-08  6.4537667345250E-08  5.5937725558723E-08  4.7336866330289E-08  3.8734943120555E-08  3.0131128032500E-08  2.1525614040550E-08  1.2917559871624E-08  4.3068156596926E-09  4.3068156596926E-09 
 1.4943018500288E+01  1.3283596795710E+01  1.1624108817752E+01  9.9644837436922E+00  8.3046674913472E+00  6.6445660417211E+00  4.9841181341548E+00  3.3232612177253E+00  1.6618996621522E+00  0.0000000000000E+00 
 0.0000000000000E+00  1.6594160127931E+00  3.3188983586579E+00  4.9785169444954E+00  6.6383417302906E+00  8.2984426191649E+00  9.9588896221264E+00  1.1619752808249E+01  1.3281102284918E+01  1.4943010176341E+01 
 8.2970200398743E-09  1.6594354181274E-08  1.6595367179522E-08  1.6597079244254E-08  1.6599490662566E-08  1.6602601838736E-08  1.6606413294733E-08  1.6610925669936E-08  1.6616139721837E-08  8.3110281629845E-09 
 7.2440786946308E+03  1.4488157389261E+04  1.4488157389262E+04  1.4488157389261E+04  1.4488157389262E+04  1.4488157389262E+04  1.4488157389261E+04  1.4488157389262E+04  1.4488157389262E+04  7.2440786946308E+03 
 4.9259735123425E+04  9.8519470246849E+04  9.8519470246849E+04  9.8519470246849E+04  9.8519470246849E+04  9.8519470246849E+04  9.8519470246849E+04  9.8519470246849E+04  9.8519470246848E+04  4.9259735123425E+04 
 5.6503813818055E+04  1.1300762763611E+05  1.1300762763611E+05  1.1300762763611E+05  1.1300762763611E+05  1.1300762763611E+05  1.1300762763611E+05  1.1300762763611E+05  1.1300762763611E+05  5.6503813818055E+04 
 3.5000000000000E-01  3.5000000000000E-01  3.5000000000000E-01  3.5000000000000E-01  3.5000000000000E-01  3.5000000000000E-01  3.5000000000000E-01  3.5000000000000E-01  3.5000000000000E-01  3.5000000000000E-01 
 6.6040000000000E+00  1.3208000000000E+01  1.3208000000000E+01  1.3208000000000E+01  1.3208000000000E+01  1.3208000000000E+01  1.3208000000000E+01  1.3208000000000E+01  1.3208000000000E+01  6.6040000000000E+00 
-1.2563628164558E-01 -1.2563865976132E-01 -1.2564632934223E-01 -1.2565929167364E-01 -1.2567754892918E-01 -1.2570110416972E-01 -1.2572996134716E-01 -1.2576412530236E-01 -1.2580360177042E-01 -1.2584839738014E-01 
 3.3866666666667E-05  6.7733333333333E-05  6.7733333333334E-05  6.7733333333333E-05  6.7733333333334E-05  6.7733333333334E-05  6.7733333333333E-05  6.7733333333334E-05  6.7733333333333E-05  3.3866666666667E-05 
 2.6603001364259E+01  2.6603001364259E+01  2.6603001364259E+01  2.6603001364259E+01  2.6603001364259E+01  2.6603001364259E+01  2.6603001364259E+01  2.6603001364259E+01  2.6603001364259E+01  2.6603001364259E+01 
 1.7735334242835E+01  1.7735334242835E+01  1.7735334242835E+01  1.7735334242835E+01  1.7735334242835E+01  1.7735334242835E+01  1.7735334242835E+01  1.7735334242835E+01  1.7735334242835E+01  1.7735334242835E+01 
 3.4589238138944E-10  8.4761700974560E-10  2.3795821162503E-09  4.9687524864298E-09  8.6155646558886E-09  1.3320632725551E-08  1.9084749821597E-08  2.5908888138737E-08  3.3794198372823E-08  3.8002301593578E-08 
 3.4589238138944E-02  8.4761700974560E-02  2.3795821162503E-01  4.9687524864298E-01  8.6155646558886E-01  1.3320632725551E+00  1.9084749821597E+00  2.5908888138737E+00  3.3794198372823E+00  3.8002301593578E+00 
 2.1452961397931E-02  1.9078822235465E-02  1.4627017806079E-02  1.0768134669120E-02  7.5022185001361E-03  4.8293515452874E-03  2.7497563826150E-03  1.2637778385638E-03  3.7180873256630E-04  7.4391663853443E-05 
 1.3136276741013E-02  6.5682878739095E-02  2.2333119381895E-01  4.8610711397386E-01  8.5405424708872E-01  1.3272339210098E+00  1.9057252257771E+00  2.5896250360352E+00  3.3790480285497E+00  3.8001557676940E+00 
 0.0000000000000E+00  0.0000000000000E+00  0.0000000000000E+00  0.0000000000000E+00  0.0000000000000E+00  0.0000000000000E+00  0.0000000000000E+00  0.0000000000000E+00  0.0000000000000E+00  0.0000000000000E+00 
 0.0000000000000E+00  0.0000000000000E+00  0.0000000000000E+00  0.0000000000000E+00  0.0000000000000E+00  0.0000000000000E+00  0.0000000000000E+00  0.0000000000000E+00  0.0000000000000E+00  0.0000000000000E+00 
 0.0000000000000E+00  0.0000000000000E+00  0.0000000000000E+00  0.0000000000000E+00  0.0000000000000E+00  0.0000000000000E+00  0.0000000000000E+00  0.0000000000000E+00  0.0000000000000E+00  0.0000000000000E+00 
ZONE T = "CATH, 2.0000E-08", I = 10, SOLUTIONTIME = 2.000000E-08
ZONETYPE = ORDERED
DATAPACKING = BLOCK
STRANDID = 3
 1.2700000000000E-03  1.3377333333333E-03  1.4054666666667E-03  1.4732000000000E-03  1.5409333333333E-03  1.6086666666667E-03  1.6764000000000E-03  1.7441333333333E-03  1.8118666666667E-03  1.8796000000000E-03 
 9.7986414445500E-09  8.6455849513153E-09  7.4924581137278E-09  6.3395755951259E-09  5.1865256234591E-09  4.0332596063238E-09  2.8793657073504E-09  1.7251584612154E-09  5.7167876545534E-10 -5.6297197806995E-12 
 9.2000000000032E-01  9.2000000000089E-01  9.2000000000089E-01  9.2000000000089E-01  9.2000000000089E-01  9.2000000000089E-01  9.2000000000089E-01  9.2000000000090E-01  9.2000000000090E-01  9.2000000000090E-01 
 3.9999999999842E-02  3.9999999999553E-02  3.9999999999553E-02  3.9999999999553E-02  3.9999999999553E-02  3.9999999999553E-02  3.9999999999552E-02  3.9999999999552E-02  3.9999999999552E-02  3.9999999999552E-02 
 3.9999999999842E-02  3.9999999999553E-02  3.9999999999553E-02  3.9999999999553E-02  3.9999999999553E-02  3.9999999999553E-02  3.9999999999552E-02  3.9999999999552E-02  3.9999999999552E-02  3.9999999999552E-02 
 3.5028626929334E-02  3.5028523970314E-02  3.5028433117135E-02  3.5028354370535E-02  3.5028287731764E-02  3.5028233202580E-02  3.5028190785254E-02  3.5028160482565E-02  3.5028142297807E-02  3.5028136234782E-02 
 3.8418325729738E+00  3.8418315005718E+00  3.8418282833252E+00  3.8418229211032E+00  3.8418154136843E+00  3.8418057607570E+00  3.8417939619191E+00  3.8417800166780E+00  3.8417639244504E+00  3.8417456845624E+00 
 3.8068039460444E+00  3.8068029766015E+00  3.8067998502081E+00  3.8067945667326E+00  3.8067871259526E+00  3.8067775275545E+00  3.8067657711339E+00  3.8067518561954E+00  3.8067357821526E+00  3.8067175483276E+00 
 3.9714142713287E+00  3.9714142713285E+00  3.9714142713285E+00  3.9714142713285E+00  3.9714142713285E+00  3.9714142713285E+00  3.9714142713285E+00  3.9714142713285E+00  3.9714142713285E+00  3.9714142713285E+00 
-1.6461032528428E-01 -1.6461129472706E-01 -1.6461442112043E-01 -1.6461970459588E-01 -1.6462714537594E-01 -1.6463674377406E-01 -1.6464850019463E-01 -1.6466241513308E-01 -1.6467848917593E-01 -1.6469672300091E-01 
-8.2970784143882E-01 -1.6594470935374E+00 -1.6595483950081E+00 -1.6597196042663E+00 -1.6599607500172E+00 -1.6602718726994E+00 -1.6606530244993E+00 -1.6611042693697E+00 -1.6616256830524E+00 -8.3110867655303E-01 
 7.3137874355962E-08  6.4538264239771E-08  5.5938261090958E-08  4.7337370714477E-08  3.8735230703382E-08  3.0131478395272E-08  2.1525750920130E-08  1.2917685020000E-08  4.3069171029778E-09  4.3069171029778E-09 
 1.4943147209986E+01  1.3283715822364E+01  1.1624218078252E+01  9.9645840779343E+00  8.3047439012642E+00  6.6446275900723E+00  4.9841651410094E+00  3.3232864941312E+00  1.6619215181556E+00  0.0000000000000E+00 
 0.0000000000000E+00  1.6594313881779E+00  3.3189291324480E+00  4.9785631321521E+00  6.6384033093089E+00  8.2985196206397E+00  9.9589820692497E+00  1.1619860716139E+01  1.3281225692400E+01  1.4943147210537E+01 
 1.6594098454263E-08  3.3188825116648E-08  3.3190851129604E-08  3.3194275286917E-08  3.3199098162738E-08  3.3205320565731E-08  3.3212943539726E-08  3.3221968363633E-08  3.3232396552361E-08  1.6622114928515E-08 
 7.2440786946391E+03  1.4488157389278E+04  1.4488157389278E+04  1.4488157389278E+04  1.4488157389278E+04  1.4488157389278E+04  1.4488157389278E+04  1.4488157389278E+04  1.4488157389278E+04  7.2440786946391E+03 
 4.9259735123416E+04  9.8519470246832E+04  9.8519470246833E+04  9.8519470246832E+04  9.8519470246833E+04  9.8519470246833E+04  9.8519470246832E+04  9.8519470246833E+04  9.8519470246832E+04  4.9259735123416E+04 
 5.6503813818055E+04  1.1300762763611E+05  1.1300762763611E+05  1.1300762763611E+05  1.1300762763611E+05  1.1300762763611E+05  1.1300762763611E+05  1.1300762763611E+05  1.1300762763611E+05  5.6503813818055E+04 
 3.5000000000000E-01  3.5000000000000E-01  3.5000000000000E-01  3.5000000000000E-01  3.5000000000000E-01  3.5000000000000E-01  3.5000000000000E-01  3.5000000000000E-01  3.5000000000000E-01  3.5000000000000E-01 
 6.6040000000000E+00  1.3208000000000E+01  1.3208000000000E+01  1.3208000000000E+01  1.3208000000000E+01  1.3208000000000E+01  1.3208000000000E+01  1.3208000000000E+01  1.3208000000000E+01  6.6040000000000E+00 
-1.2563716557220E-01 -1.2563954372633E-01 -1.2564721343187E-01 -1.2566017597413E-01 -1.2567843352644E-01 -1.2570198915047E-01 -1.2573084679734E-01 -1.2576501130903E-01 -1.2580448842008E-01 -1.2584928475970E-01 
 3.3866666666667E-05  6.7733333333333E-05  6.7733333333334E-05  6.7733333333333E-05  6.7733333333334E-05  6.7733333333334E-05  6.7733333333333E-05  6.7733333333334E-05  6.7733333333333E-05  3.3866666666667E-05 
 2.6603001364262E+01  2.6603001364262E+01  2.6603001364262E+01  2.6603001364262E+01  2.6603001364262E+01  2.6603001364262E+01  2.6603001364262E+01  2.6603001364262E+01  2.6603001364262E+01  2.6603001364262E+01 
 1.7735334242833E+01  1.7735334242833E+01  1.7735334242833E+01  1.7735334242833E+01  1.7735334242833E+01  1.7735334242833E+01  1.7735334242833E+01  1.7735334242833E+01  1.7735334242833E+01  1.7735334242833E+01 
 6.9179093770664E-10  1.6952495988181E-09  4.7592084053937E-09  9.9375973246013E-09  1.7231289167182E-08  2.6641512635968E-08  3.8169854004820E-08  5.1818257444842E-08  6.7589024805327E-08  7.6005309694692E-08 
 3.4589855631720E-02  8.4763258907249E-02  2.3796262891434E-01  4.9688448381714E-01  8.6157245112938E-01  1.3320879910417E+00  1.9085104183223E+00  2.5909369306104E+00  3.3794826432504E+00  3.8003008101114E+00 
 2.1453334943811E-02  1.9079163504276E-02  1.4627292444158E-02  1.0768350566572E-02  7.5023589288724E-03  4.8294385557621E-03  2.7498105341663E-03  1.2637961353209E-03  3.7181696628191E-04  7.4395166908490E-05 
 1.3136520687908E-02  6.5684095402974E-02  2.2333533647018E-01  4.8611613325057E-01  8.5407009220050E-01  1.3272585524859E+00  1.9057606077881E+00  2.5896731344751E+00  3.3791108262841E+00  3.8002264149445E+00 
 0.0000000000000E+00  0.0000000000000E+00  0.0000000000000E+00  0.0000000000000E+00  0.0000000000000E+00  0.0000000000000E+00  0.0000000000000E+00  0.0000000000000E+00  0.0000000000000E+00  0.0000000000000E+00 
 0.0000000000000E+00  0.0000000000000E+00  0.0000000000000E+00  0.0000000000000E+00  0.0000000000000E+00  0.0000000000000E+00  0.0000000000000E+00  0.0000000000000E+00  0.0000000000000E+00  0.0000000000000E+00 
 0.0000000000000E+00  0.0000000000000E+00  0.0000000000000E+00  0.0000000000000E+00  0.0000000000000E+00  0.0000000000000E+00  0.0000000000000E+00  0.0000000000000E+00  0.0000000000000E+00  0.0000000000000E+00 
ZONE T = "CATH, 3.0000E-08", I = 10, SOLUTIONTIME = 3.000000E-08
ZONETYPE = ORDERED
DATAPACKING = BLOCK
STRANDID = 3
 1.2700000000000E-03  1.3377333333333E-03  1.4054666666667E-03  1.4732000000000E-03  1.5409333333333E-03  1.6086666666667E-03  1.6764000000000E-03  1.7441333333333E-03  1.8118666666667E-03  1.8796000000000E-03 
 9.7979150290382E-09  8.6459481589934E-09  7.4939109445959E-09  6.3417548414562E-09  5.1894312852515E-09  4.0368916835785E-09  2.8844506155228E-09  1.7313329925778E-09  5.7785329682438E-10  9.0801931945334E-13 
 9.2000000000047E-01  9.2000000000134E-01  9.2000000000134E-01  9.2000000000134E-01  9.2000000000134E-01  9.2000000000134E-01  9.2000000000134E-01  9.2000000000134E-01  9.2000000000134E-01  9.2000000000134E-01 
 3.9999999999763E-02  3.9999999999329E-02  3.9999999999329E-02  3.9999999999329E-02  3.9999999999329E-02  3.9999999999329E-02  3.9999999999329E-02  3.9999999999329E-02  3.9999999999328E-02  3.9999999999328E-02 
 3.9999999999763E-02  3.9999999999329E-02  3.9999999999329E-02  3.9999999999329E-02  3.9999999999329E-02  3.9999999999329E-02  3.9999999999329E-02  3.9999999999329E-02  3.9999999999328E-02  3.9999999999328E-02 
 3.5028626929141E-02  3.5028523970121E-02  3.5028433116942E-02  3.5028354370342E-02  3.5028287731571E-02  3.5028233202387E-02  3.5028190785061E-02  3.5028160482372E-02  3.5028142297614E-02  3.5028136234589E-02 
 3.8418325729735E+00  3.8418315005715E+00  3.8418282833250E+00  3.8418229211029E+00  3.8418154136841E+00  3.8418057607568E+00  3.8417939619189E+00  3.8417800166778E+00  3.8417639244502E+00  3.8417456845622E+00 
 3.8068039460444E+00  3.8068029766014E+00  3.8067998502081E+00  3.8067945667326E+00  3.8067871259525E+00  3.8067775275544E+00  3.8067657711339E+00  3.8067518561954E+00  3.8067357821526E+00  3.8067175483276E+00 
 3.9714142713286E+00  3.9714142713283E+00  3.9714142713283E+00  3.9714142713283E+00  3.9714142713283E+00  3.9714142713283E+00  3.9714142713283E+00  3.9714142713283E+00  3.9714142713283E+00  3.9714142713283E+00 
-1.6461032528423E-01 -1.6461129472692E-01 -1.6461442112029E-01 -1.6461970459573E-01 -1.6462714537579E-01 -1.6463674377391E-01 -1.6464850019448E-01 -1.6466241513293E-01 -1.6467848917578E-01 -1.6469672300077E-01 
-8.2970784143706E-01 -1.6594470935278E+00 -1.6595483949986E+00 -1.6597196042567E+00 -1.6599607500076E+00 -1.6602718726898E+00 -1.6606530244898E+00 -1.6611042693601E+00 -1.6616256830429E+00 -8.3110867654824E-01 
 7.3137940329930E-08  6.4538264248149E-08  5.5938261101410E-08  4.7337370728776E-08  3.8735230720642E-08  3.0131478419545E-08  2.1525750948251E-08  1.2917685051082E-08  4.3069171419592E-09  4.3069171419592E-09 
 1.4943147209931E+01  1.3283715822302E+01  1.1624218078187E+01  9.9645840778786E+00  8.3047439012177E+00  6.6446275900352E+00  4.9841651409815E+00  3.3232864941126E+00  1.6619215181463E+00  0.0000000000000E+00 
 0.0000000000000E+00  1.6594313881779E+00  3.3189291324480E+00  4.9785631319803E+00  6.6384033091371E+00  8.2985196206397E+00  9.9589820692497E+00  1.1619860716139E+01  1.3281225692228E+01  1.4943147210188E+01 
 2.4891176868633E-08  4.9783296051926E-08  4.9786335079589E-08  4.9791471329484E-08  4.9798705662814E-08  4.9808039292629E-08  4.9819473784623E-08  4.9833011057234E-08  4.9848653382790E-08  2.4933201693997E-08 
 7.2440786946474E+03  1.4488157389295E+04  1.4488157389295E+04  1.4488157389295E+04  1.4488157389295E+04  1.4488157389295E+04  1.4488157389295E+04  1.4488157389295E+04  1.4488157389295E+04  7.2440786946474E+03 
 4.9259735123408E+04  9.8519470246815E+04  9.8519470246816E+04  9.8519470246815E+04  9.8519470246816E+04  9.8519470246816E+04  9.8519470246815E+04  9.8519470246816E+04  9.8519470246815E+04  4.9259735123408E+04 
 5.6503813818055E+04  1.1300762763611E+05  1.1300762763611E+05  1.1300762763611E+05  1.1300762763611E+05  1.1300762763611E+05  1.1300762763611E+05  1.1300762763611E+05  1.1300762763611E+05  5.6503813818055E+04 
 3.5000000000000E-01  3.5000000000000E-01  3.5000000000000E-01  3.5000000000000E-01  3.5000000000000E-01  3.5000000000000E-01  3.5000000000000E-01  3.5000000000000E-01  3.5000000000000E-01  3.5000000000000E-01 
 6.6040000000000E+00  1.3208000000000E+01  1.3208000000000E+01  1.3208000000000E+01  1.3208000000000E+01  1.3208000000000E+01  1.3208000000000E+01  1.3208000000000E+01  1.3208000000000E+01  6.6040000000000E+00 
-1.2563716557194E-01 -1.2563954372561E-01 -1.2564721343115E-01 -1.2566017597341E-01 -1.2567843352571E-01 -1.2570198914975E-01 -1.2573084679662E-01 -1.2576501130831E-01 -1.2580448841936E-01 -1.2584928475897E-01 
 3.3866666666667E-05  6.7733333333333E-05  6.7733333333334E-05  6.7733333333333E-05  6.7733333333334E-05  6.7733333333334E-05  6.7733333333333E-05  6.7733333333334E-05  6.7733333333333E-05  3.3866666666667E-05 
 2.6603001364264E+01  2.6603001364264E+01  2.6603001364264E+01  2.6603001364264E+01  2.6603001364264E+01  2.6603001364264E+01  2.6603001364264E+01  2.6603001364264E+01  2.6603001364264E+01  2.6603001364264E+01 
 1.7735334242830E+01  1.7735334242830E+01  1.7735334242830E+01  1.7735334242830E+01  1.7735334242830E+01  1.7735334242830E+01  1.7735334242830E+01  1.7735334242830E+01  1.7735334242830E+01  1.7735334242830E+01 
 1.0376894940230E-09  2.5428821878897E-09  7.1388346945363E-09  1.4906442162391E-08  2.5847013678095E-08  3.9962392546385E-08  5.7254958188042E-08  7.7727626750946E-08  1.0138385123691E-07  1.1400831779396E-07 
 3.4589855631638E-02  8.4763258907162E-02  2.3796262891426E-01  4.9688448377900E-01  8.6157245109125E-01  1.3320879910417E+00  1.9085104183222E+00  2.5909369306104E+00  3.3794826431579E+00  3.8003008099263E+00 
 2.1453334943730E-02  1.9079163504189E-02  1.4627292444076E-02  1.0768350566511E-02  7.5023589288304E-03  4.8294385557351E-03  2.7498105341510E-03  1.2637961353138E-03  3.7181696627983E-04  7.4395166908074E-05 
 1.3136520687908E-02  6.5684095402974E-02  2.2333533647018E-01  4.8611613321249E-01  8.5407009216242E-01  1.3272585524859E+00  1.9057606077881E+00  2.5896731344751E+00  3.3791108261916E+00  3.8002264147594E+00 
 0.0000000000000E+00  0.0000000000000E+00  0.0000000000000E+00  0.0000000000000E+00  0.0000000000000E+00  0.0000000000000E+00  0.0000000000000E+00  0.0000000000000E+00  0.0000000000000E+00  0.0000000000000E+00 
 0.0000000000000E+00  0.0000000000000E+00  0.0000000000000E+00  0.0000000000000E+00  0.0000000000000E+00  0.0000000000000E+00  0.0000000000000E+00  0.0000000000000E+00  0.0000000000000E+00  0.0000000000000E+00 
 0.0000000000000E+00  0.0000000000000E+00  0.0000000000000E+00  0.0000000000000E+00  0.0000000000000E+00  0.0000000000000E+00  0.0000000000000E+00  0.0000000000000E+00  0.0000000000000E+00  0.0000000000000E+00 
ZONE T = "CATH, 4.0000E-08", I = 10, SOLUTIONTIME = 4.000000E-08
ZONETYPE = ORDERED
DATAPACKING = BLOCK
STRANDID = 3
 1.2700000000000E-03  1.3377333333333E-03  1.4054666666667E-03  1.4732000000000E-03  1.5409333333333E-03  1.6086666666667E-03  1.6764000000000E-03  1.7441333333333E-03  1.8118666666667E-03  1.8796000000000E-03 
 9.8008206908044E-09  8.6481274053106E-09  7.4957269831920E-09  6.3432076723310E-09  5.1905209084052E-09  4.0365284758276E-09  2.8829977845952E-09  1.7295169539290E-09  5.7567405045437E-10 -1.4528309111463E-12 
 9.2000000000063E-01  9.2000000000179E-01  9.2000000000179E-01  9.2000000000179E-01  9.2000000000179E-01  9.2000000000179E-01  9.2000000000179E-01  9.2000000000179E-01  9.2000000000179E-01  9.2000000000179E-01 
 3.9999999999684E-02  3.9999999999106E-02  3.9999999999106E-02  3.9999999999105E-02  3.9999999999105E-02  3.9999999999105E-02  3.9999999999105E-02  3.9999999999105E-02  3.9999999999104E-02  3.9999999999104E-02 
 3.9999999999684E-02  3.9999999999106E-02  3.9999999999106E-02  3.9999999999105E-02  3.9999999999105E-02  3.9999999999105E-02  3.9999999999105E-02  3.9999999999105E-02  3.9999999999104E-02  3.9999999999104E-02 
 3.5028626928953E-02  3.5028523969932E-02  3.5028433116753E-02  3.5028354370153E-02  3.5028287731382E-02  3.5028233202198E-02  3.5028190784872E-02  3.5028160482183E-02  3.5028142297425E-02  3.5028136234400E-02 
 3.8418325729733E+00  3.8418315005713E+00  3.8418282833248E+00  3.8418229211027E+00  3.8418154136839E+00  3.8418057607566E+00  3.8417939619187E+00  3.8417800166775E+00  3.8417639244499E+00  3.8417456845619E+00 
 3.8068039460443E+00  3.8068029766014E+00  3.8067998502080E+00  3.8067945667326E+00  3.8067871259525E+00  3.8067775275544E+00  3.8067657711338E+00  3.8067518561954E+00  3.8067357821525E+00  3.8067175483275E+00 
 3.9714142713285E+00  3.9714142713282E+00  3.9714142713282E+00  3.9714142713282E+00  3.9714142713282E+00  3.9714142713282E+00  3.9714142713282E+00  3.9714142713282E+00  3.9714142713282E+00  3.9714142713282E+00 
-1.6461032528419E-01 -1.6461129472678E-01 -1.6461442112015E-01 -1.6461970459559E-01 -1.6462714537565E-01 -1.6463674377377E-01 -1.6464850019434E-01 -1.6466241513279E-01 -1.6467848917564E-01 -1.6469672300063E-01 
-8.2970784143533E-01 -1.6594470935183E+00 -1.6595483949891E+00 -1.6597196042473E+00 -1.6599607499982E+00 -1.6602718726804E+00 -1.6606530244803E+00 -1.6611042693506E+00 -1.6616256830333E+00 -8.3110867654349E-01 