TITLE = "Solution on Domain BulkDomain1D_1"
VARIABLES = "x [m]"  
"Vel_axial" 	"MF_sp(ECDMC)" 	"MF_sp(Li+)" 	"MF_sp(PF6-)" 	"Volt(Electroly)" 	"Porosity []" 	"Control volume thickness [m]" 	"volFrac MgO(S) []" 	"qHeat_accum [J/m3]" 	"qHeat_step [W/m3]" 	"Joule_Lyte [W/m3]" 	"Joule_Solid [W/m3]" 	
ZONE T = "SEP , 0.0000E+00", I = 10, SOLUTIONTIME = 0.000000E+00
ZONETYPE = ORDERED
DATAPACKING = BLOCK
STRANDID = 2
 7.8740000000000E-04  8.4102222222222E-04  8.9464444444444E-04  9.4826666666667E-04  1.0018888888889E-03  1.0555111111111E-03  1.1091333333333E-03  1.1627555555556E-03  1.2163777777778E-03  1.2700000000000E-03 
 0.0000000000000E+00  0.0000000000000E+00  0.0000000000000E+00  0.0000000000000E+00  0.0000000000000E+00  0.0000000000000E+00  0.0000000000000E+00  0.0000000000000E+00  0.0000000000000E+00  0.0000000000000E+00 
 9.2000000000000E-01  9.2000000000000E-01  9.2000000000000E-01  9.2000000000000E-01  9.2000000000000E-01  9.2000000000000E-01  9.2000000000000E-01  9.2000000000000E-01  9.2000000000000E-01  9.2000000000000E-01 
 4.0000000000000E-02  4.0000000000000E-02  4.0000000000000E-02  4.0000000000000E-02  4.0000000000000E-02  4.0000000000000E-02  4.0000000000000E-02  4.0000000000000E-02  4.0000000000000E-02  4.0000000000000E-02 
 4.0000000000000E-02  4.0000000000000E-02  4.0000000000000E-02  4.0000000000000E-02  4.0000000000000E-02  4.0000000000000E-02  4.0000000000000E-02  4.0000000000000E-02  4.0000000000000E-02  4.0000000000000E-02 
-7.0000000000000E-02 -7.0000000000000E-02 -7.0000000000000E-02 -7.0000000000000E-02 -7.0000000000000E-02 -7.0000000000000E-02 -7.0000000000000E-02 -7.0000000000000E-02 -7.0000000000000E-02 -7.0000000000000E-02 
 8.0911139820575E-01  8.0911139820575E-01  8.0911139820575E-01  8.0911139820575E-01  8.0911139820575E-01  8.0911139820575E-01  8.0911139820575E-01  8.0911139820575E-01  8.0911139820575E-01  8.0911139820575E-01 
 2.6811111111111E-05  5.3622222222222E-05  5.3622222222222E-05  5.3622222222222E-05  5.3622222222222E-05  5.3622222222222E-05  5.3622222222222E-05  5.3622222222223E-05  5.3622222222222E-05  2.6811111111111E-05 
 1.9088860179425E-01  1.9088860179425E-01  1.9088860179425E-01  1.9088860179425E-01  1.9088860179425E-01  1.9088860179425E-01  1.9088860179425E-01  1.9088860179425E-01  1.9088860179425E-01  1.9088860179425E-01 
 0.0000000000000E+00  0.0000000000000E+00  0.0000000000000E+00  0.0000000000000E+00  0.0000000000000E+00  0.0000000000000E+00  0.0000000000000E+00  0.0000000000000E+00  0.0000000000000E+00  0.0000000000000E+00 
 0.0000000000000E+00  0.0000000000000E+00  0.0000000000000E+00  0.0000000000000E+00  0.0000000000000E+00  0.0000000000000E+00  0.0000000000000E+00  0.0000000000000E+00  0.0000000000000E+00  0.0000000000000E+00 
 0.0000000000000E+00  0.0000000000000E+00  0.0000000000000E+00  0.0000000000000E+00  0.0000000000000E+00  0.0000000000000E+00  0.0000000000000E+00  0.0000000000000E+00  0.0000000000000E+00  0.0000000000000E+00 
 0.0000000000000E+00  0.0000000000000E+00  0.0000000000000E+00  0.0000000000000E+00  0.0000000000000E+00  0.0000000000000E+00  0.0000000000000E+00  0.0000000000000E+00  0.0000000000000E+00  0.0000000000000E+00 
ZONE T = "SEP , 1.0000E-08", I = 10, SOLUTIONTIME = 1.000000E-08
ZONETYPE = ORDERED
DATAPACKING = BLOCK
STRANDID = 2
 7.8740000000000E-04  8.4102222222222E-04  8.9464444444444E-04  9.4826666666667E-04  1.0018888888889E-03  1.0555111111111E-03  1.1091333333333E-03  1.1627555555556E-03  1.2163777777778E-03  1.2700000000000E-03 
 1.0378609259932E-08  1.0378609259932E-08  1.0378609259932E-08  1.0378609259932E-08  1.0378609259932E-08  1.0378609259932E-08  1.0378609259932E-08  1.0378609259932E-08  1.0378609259932E-08  9.8024551268518E-09 
 9.1999999999986E-01  9.2000000000000E-01  9.2000000000000E-01  9.2000000000000E-01  9.2000000000000E-01  9.2000000000000E-01  9.2000000000000E-01  9.2000000000000E-01  9.2000000000000E-01  9.2000000000016E-01 
 4.0000000000072E-02  4.0000000000000E-02  4.0000000000000E-02  4.0000000000000E-02  4.0000000000000E-02  4.0000000000000E-02  4.0000000000000E-02  4.0000000000000E-02  4.0000000000000E-02  3.9999999999921E-02 
 4.0000000000072E-02  4.0000000000000E-02  4.0000000000000E-02  4.0000000000000E-02  4.0000000000000E-02  4.0000000000000E-02  4.0000000000000E-02  4.0000000000000E-02  4.0000000000000E-02  3.9999999999921E-02 
 3.5028847906195E-02  3.5028823353139E-02  3.5028798800082E-02  3.5028774247026E-02  3.5028749693970E-02  3.5028725140913E-02  3.5028700587857E-02  3.5028676034801E-02  3.5028651481744E-02  3.5028626928688E-02 
 8.0911139820575E-01  8.0911139820575E-01  8.0911139820575E-01  8.0911139820575E-01  8.0911139820575E-01  8.0911139820575E-01  8.0911139820575E-01  8.0911139820575E-01  8.0911139820575E-01  8.0911139820575E-01 
 2.6811111111111E-05  5.3622222222222E-05  5.3622222222222E-05  5.3622222222222E-05  5.3622222222222E-05  5.3622222222222E-05  5.3622222222222E-05  5.3622222222223E-05  5.3622222222222E-05  2.6811111111111E-05 
 1.9088860179425E-01  1.9088860179425E-01  1.9088860179425E-01  1.9088860179425E-01  1.9088860179425E-01  1.9088860179425E-01  1.9088860179425E-01  1.9088860179425E-01  1.9088860179425E-01  1.9088860179425E-01 
 6.8423112658383E-11  6.8423112677689E-11  6.8423112677658E-11  6.8423112677658E-11  6.8423112696995E-11  6.8423112677658E-11  6.8423112677658E-11  6.8423112677658E-11  6.8423112677625E-11  6.8423112696928E-11 
 6.8423112658383E-03  6.8423112677689E-03  6.8423112677658E-03  6.8423112677658E-03  6.8423112696995E-03  6.8423112677658E-03  6.8423112677658E-03  6.8423112677658E-03  6.8423112677625E-03  6.8423112696928E-03 
 6.8423112658383E-03  6.8423112677689E-03  6.8423112677658E-03  6.8423112677658E-03  6.8423112696995E-03  6.8423112677658E-03  6.8423112677658E-03  6.8423112677658E-03  6.8423112677625E-03  6.8423112696928E-03 
 0.0000000000000E+00  0.0000000000000E+00  0.0000000000000E+00  0.0000000000000E+00  0.0000000000000E+00  0.0000000000000E+00  0.0000000000000E+00  0.0000000000000E+00  0.0000000000000E+00  0.0000000000000E+00 
ZONE T = "SEP , 2.0000E-08", I = 10, SOLUTIONTIME = 2.000000E-08
ZONETYPE = ORDERED
DATAPACKING = BLOCK
STRANDID = 2
 7.8740000000000E-04  8.4102222222222E-04  8.9464444444444E-04  9.4826666666667E-04  1.0018888888889E-03  1.0555111111111E-03  1.1091333333333E-03  1.1627555555556E-03  1.2163777777778E-03  1.2700000000000E-03 
 1.0375521993020E-08  1.0375521993020E-08  1.0375521993020E-08  1.0375521993020E-08  1.0375521993020E-08  1.0375521993020E-08  1.0375521993020E-08  1.0375521993020E-08  1.0375521993020E-08  9.7993678600060E-09 
 9.1999999999971E-01  9.2000000000000E-01  9.2000000000000E-01  9.2000000000000E-01  9.2000000000000E-01  9.2000000000000E-01  9.2000000000000E-01  9.2000000000000E-01  9.2000000000000E-01  9.2000000000032E-01 
 4.0000000000143E-02  4.0000000000000E-02  4.0000000000000E-02  4.0000000000000E-02  4.0000000000000E-02  4.0000000000000E-02  4.0000000000000E-02  4.0000000000000E-02  4.0000000000000E-02  3.9999999999842E-02 
 4.0000000000143E-02  4.0000000000000E-02  4.0000000000000E-02  4.0000000000000E-02  4.0000000000000E-02  4.0000000000000E-02  4.0000000000000E-02  4.0000000000000E-02  4.0000000000000E-02  3.9999999999842E-02 
 3.5028847906841E-02  3.5028823353785E-02  3.5028798800729E-02  3.5028774247672E-02  3.5028749694616E-02  3.5028725141560E-02  3.5028700588503E-02  3.5028676035447E-02  3.5028651482391E-02  3.5028626929334E-02 
 8.0911139820575E-01  8.0911139820575E-01  8.0911139820575E-01  8.0911139820575E-01  8.0911139820575E-01  8.0911139820575E-01  8.0911139820575E-01  8.0911139820575E-01  8.0911139820575E-01  8.0911139820575E-01 
 2.6811111111111E-05  5.3622222222222E-05  5.3622222222222E-05  5.3622222222222E-05  5.3622222222222E-05  5.3622222222222E-05  5.3622222222222E-05  5.3622222222223E-05  5.3622222222222E-05  2.6811111111111E-05 
 1.9088860179425E-01  1.9088860179425E-01  1.9088860179425E-01  1.9088860179425E-01  1.9088860179425E-01  1.9088860179425E-01  1.9088860179425E-01  1.9088860179425E-01  1.9088860179425E-01  1.9088860179425E-01 
 1.3684622531683E-10  1.3684622533607E-10  1.3684622533598E-10  1.3684622533598E-10  1.3684622535532E-10  1.3684622533598E-10  1.3684622533598E-10  1.3684622535532E-10  1.3684622535522E-10  1.3684622535511E-10 
 6.8423112658444E-03  6.8423112658382E-03  6.8423112658321E-03  6.8423112658321E-03  6.8423112658321E-03  6.8423112658321E-03  6.8423112658321E-03  6.8423112677658E-03  6.8423112677591E-03  6.8423112658186E-03 
 6.8423112658444E-03  6.8423112658382E-03  6.8423112658321E-03  6.8423112658321E-03  6.8423112658321E-03  6.8423112658321E-03  6.8423112658321E-03  6.8423112677658E-03  6.8423112677591E-03  6.8423112658186E-03 
 0.0000000000000E+00  0.0000000000000E+00  0.0000000000000E+00  0.0000000000000E+00  0.0000000000000E+00  0.0000000000000E+00  0.0000000000000E+00  0.0000000000000E+00  0.0000000000000E+00  0.0000000000000E+00 
ZONE T = "SEP , 3.0000E-08", I = 10, SOLUTIONTIME = 3.000000E-08
ZONETYPE = ORDERED
DATAPACKING = BLOCK
STRANDID = 2
 7.8740000000000E-04  8.4102222222222E-04  8.9464444444444E-04  9.4826666666667E-04  1.0018888888889E-03  1.0555111111111E-03  1.1091333333333E-03  1.1627555555556E-03  1.2163777777778E-03  1.2700000000000E-03 
 1.0376066804553E-08  1.0376066804553E-08  1.0376066804553E-08  1.0376066804553E-08  1.0376066804553E-08  1.0376066804553E-08  1.0376066804553E-08  1.0376066804553E-08  1.0376066804554E-08  9.7993678599493E-09 
 9.1999999999957E-01  9.2000000000000E-01  9.2000000000000E-01  9.2000000000000E-01  9.2000000000000E-01  9.2000000000000E-01  9.2000000000000E-01  9.2000000000000E-01  9.2000000000000E-01  9.2000000000047E-01 
 4.0000000000215E-02  4.0000000000000E-02  4.0000000000000E-02  4.0000000000000E-02  4.0000000000000E-02  4.0000000000000E-02  4.0000000000000E-02  4.0000000000000E-02  4.0000000000000E-02  3.9999999999763E-02 
 4.0000000000215E-02  4.0000000000000E-02  4.0000000000000E-02  4.0000000000000E-02  4.0000000000000E-02  4.0000000000000E-02  4.0000000000000E-02  4.0000000000000E-02  4.0000000000000E-02  3.9999999999763E-02 
 3.5028847906648E-02  3.5028823353592E-02  3.5028798800536E-02  3.5028774247479E-02  3.5028749694423E-02  3.5028725141367E-02  3.5028700588310E-02  3.5028676035254E-02  3.5028651482198E-02  3.5028626929141E-02 
 8.0911139820575E-01  8.0911139820575E-01  8.0911139820575E-01  8.0911139820575E-01  8.0911139820575E-01  8.0911139820575E-01  8.0911139820575E-01  8.0911139820575E-01  8.0911139820575E-01  8.0911139820575E-01 
 2.6811111111111E-05  5.3622222222222E-05  5.3622222222222E-05  5.3622222222222E-05  5.3622222222222E-05  5.3622222222222E-05  5.3622222222222E-05  5.3622222222223E-05  5.3622222222222E-05  2.6811111111111E-05 
 1.9088860179425E-01  1.9088860179425E-01  1.9088860179425E-01  1.9088860179425E-01  1.9088860179425E-01  1.9088860179425E-01  1.9088860179425E-01  1.9088860179425E-01  1.9088860179425E-01  1.9088860179425E-01 
 2.0526933797533E-10  2.0526933799448E-10  2.0526933799430E-10  2.0526933799430E-10  2.0526933801364E-10  2.0526933799430E-10  2.0526933799430E-10  2.0526933801364E-10  2.0526933801344E-10  2.0526933801323E-10 
 6.8423112658505E-03  6.8423112658413E-03  6.8423112658321E-03  6.8423112658321E-03  6.8423112658321E-03  6.8423112658321E-03  6.8423112658321E-03  6.8423112658321E-03  6.8423112658220E-03  6.8423112658119E-03 
 6.8423112658505E-03  6.8423112658413E-03  6.8423112658321E-03  6.8423112658321E-03  6.8423112658321E-03  6.8423112658321E-03  6.8423112658321E-03  6.8423112658321E-03  6.8423112658220E-03  6.8423112658119E-03 
 0.0000000000000E+00  0.0000000000000E+00  0.0000000000000E+00  0.0000000000000E+00  0.0000000000000E+00  0.0000000000000E+00  0.0000000000000E+00  0.0000000000000E+00  0.0000000000000E+00  0.0000000000000E+00 
ZONE T = "SEP , 4.0000E-08", I = 10, SOLUTIONTIME = 4.000000E-08
ZONETYPE = ORDERED
DATAPACKING = BLOCK
STRANDID = 2
 7.8740000000000E-04  8.4102222222222E-04  8.9464444444444E-04  9.4826666666667E-04  1.0018888888889E-03  1.0555111111111E-03  1.1091333333333E-03  1.1627555555556E-03  1.2163777777778E-03  1.2700000000000E-03 
 1.0376248408360E-08  1.0376248408360E-08  1.0376248408360E-08  1.0376248408360E-08  1.0376248408360E-08  1.0376248408360E-08  1.0376248408360E-08  1.0376248408360E-08  1.0376248408360E-08  9.8000942753491E-09 
 9.1999999999943E-01  9.2000000000000E-01  9.2000000000000E-01  9.2000000000000E-01  9.2000000000000E-01  9.2000000000000E-01  9.2000000000000E-01  9.2000000000000E-01  9.2000000000000E-01  9.2000000000063E-01 
 4.0000000000287E-02  4.0000000000000E-02  4.0000000000000E-02  4.0000000000000E-02  4.0000000000000E-02  4.0000000000000E-02  4.0000000000000E-02  4.0000000000000E-02  4.0000000000000E-02  3.9999999999684E-02 
 4.0000000000287E-02  4.0000000000000E-02  4.0000000000000E-02  4.0000000000000E-02  4.0000000000000E-02  4.0000000000000E-02  4.0000000000000E-02  4.0000000000000E-02  4.0000000000000E-02  3.9999999999684E-02 
 3.5028847906459E-02  3.5028823353403E-02  3.5028798800347E-02  3.5028774247290E-02  3.5028749694234E-02  3.5028725141178E-02  3.5028700588121E-02  3.5028676035065E-02  3.5028651482009E-02  3.5028626928953E-02 
 8.0911139820575E-01  8.0911139820575E-01  8.0911139820575E-01  8.0911139820575E-01  8.0911139820575E-01  8.0911139820575E-01  8.0911139820575E-01  8.0911139820575E-01  8.0911139820575E-01  8.0911139820575E-01 
 2.6811111111111E-05  5.3622222222222E-05  5.3622222222222E-05  5.3622222222222E-05  5.3622222222222E-05  5.3622222222222E-05  5.3622222222222E-05  5.3622222222223E-05  5.3622222222222E-05  2.6811111111111E-05 
 1.9088860179425E-01  1.9088860179425E-01  1.9088860179425E-01  1.9088860179425E-01  1.9088860179425E-01  1.9088860179425E-01  1.9088860179425E-01  1.9088860179425E-01  1.9088860179425E-01  1.9088860179425E-01 
 2.7369245063390E-10  2.7369245065293E-10  2.7369245065262E-10  2.7369245067196E-10  2.7369245069130E-10  2.7369245065262E-10  2.7369245065262E-10  2.7369245067196E-10  2.7369245067162E-10  2.7369245067128E-10 
 6.8423112658567E-03  6.8423112658444E-03  6.8423112658321E-03  6.8423112677658E-03  6.8423112677658E-03  6.8423112658321E-03  6.8423112658321E-03  6.8423112658321E-03  6.8423112658186E-03  6.8423112658051E-03 
 6.8423112658567E-03  6.8423112658444E-03  6.8423112658321E-03  6.8423112677658E-03  6.8423112677658E-03  6.8423112658321E-03  6.8423112658321E-03  6.8423112658321E-03  6.8423112658186E-03  6.8423112658051E-03 
 0.0000000000000E+00  0.0000000000000E+00  0.0000000000000E+00  0.0000000000000E+00  0.0000000000000E+00  0.0000000000000E+00  0.0000000000000E+00  0.0000000000000E+00  0.0000000000000E+00  0.0000000000000E+00 
ZONE T = "SEP , 5.5000E-08", I = 10, SOLUTIONTIME = 5.500000E-08
ZONETYPE = ORDERED
DATAPACKING = BLOCK
STRANDID = 2
 7.8740000000000E-04  8.4102222222222E-04  8.9464444444444E-04  9.4826666666667E-04  1.0018888888889E-03  1.0555111111111E-03  1.1091333333333E-03  1.1627555555556E-03  1.2163777777778E-03  1.2700000000000E-03 
 1.0377095892997E-08  1.0377095892997E-08  1.0377095892997E-08  1.0377095892997E-08  1.0377095892997E-08  1.0377095892997E-08  1.0377095892997E-08  1.0377095892997E-08  1.0377095892997E-08  9.8013049677153E-09 
 9.1999999999921E-01  9.2000000000000E-01  9.2000000000000E-01  9.2000000000000E-01  9.2000000000000E-01  9.2000000000000E-01  9.2000000000000E-01  9.2000000000000E-01  9.2000000000000E-01  9.2000000000087E-01 
 4.0000000000394E-02  4.0000000000000E-02  4.0000000000000E-02  4.0000000000000E-02  4.0000000000000E-02  4.0000000000000E-02  4.0000000000000E-02  4.0000000000000E-02  4.0000000000000E-02  3.9999999999566E-02 
 4.0000000000394E-02  4.0000000000000E-02  4.0000000000000E-02  4.0000000000000E-02  4.0000000000000E-02  4.0000000000000E-02  4.0000000000000E-02  4.0000000000000E-02  4.0000000000000E-02  3.9999999999566E-02 
 3.5028847906246E-02  3.5028823353189E-02  3.5028798800133E-02  3.5028774247077E-02  3.5028749694020E-02  3.5028725140964E-02  3.5028700587908E-02  3.5028676034851E-02  3.5028651481795E-02  3.5028626928739E-02 
 8.0911139820575E-01  8.0911139820575E-01  8.0911139820575E-01  8.0911139820575E-01  8.0911139820575E-01  8.0911139820575E-01  8.0911139820575E-01  8.0911139820575E-01  8.0911139820575E-01  8.0911139820575E-01 
 2.6811111111111E-05  5.3622222222222E-05  5.3622222222222E-05  5.3622222222222E-05  5.3622222222222E-05  5.3622222222222E-05  5.3622222222222E-05  5.3622222222223E-05  5.3622222222222E-05  2.6811111111111E-05 
 1.9088860179425E-01  1.9088860179425E-01  1.9088860179425E-01  1.9088860179425E-01  1.9088860179425E-01  1.9088860179425E-01  1.9088860179425E-01  1.9088860179425E-01  1.9088860179425E-01  1.9088860179425E-01 
 3.7632711962189E-10  3.7632711964066E-10  3.7632711964010E-10  3.7632711968845E-10  3.7632711970778E-10  3.7632711964011E-10  3.7632711964011E-10  3.7632711965944E-10  3.7632711965883E-10  3.7632711965821E-10 
 6.8423112658659E-03  6.8423112658490E-03  6.8423112658321E-03  6.8423112677658E-03  6.8423112677658E-03  6.8423112658321E-03  6.8423112658321E-03  6.8423112658321E-03  6.8423112658136E-03  6.8423112657950E-03 
 6.8423112658659E-03  6.8423112658490E-03  6.8423112658321E-03  6.8423112677658E-03  6.8423112677658E-03  6.8423112658321E-03  6.8423112658321E-03  6.8423112658321E-03  6.8423112658136E-03  6.8423112657950E-03 
 0.0000000000000E+00  0.0000000000000E+00  0.0000000000000E+00  0.0000000000000E+00  0.0000000000000E+00  0.0000000000000E+00  0.0000000000000E+00  0.0000000000000E+00  0.0000000000000E+00  0.0000000000000E+00 
ZONE T = "SEP , 7.7500E-08", I = 10, SOLUTIONTIME = 7.750000E-08
ZONETYPE = ORDERED
DATAPACKING = BLOCK
STRANDID = 2
 7.8740000000000E-04  8.4102222222222E-04  8.9464444444444E-04  9.4826666666667E-04  1.0018888888889E-03  1.0555111111111E-03  1.1091333333333E-03  1.1627555555556E-03  1.2163777777778E-03  1.2700000000000E-03 
 1.0375239497848E-08  1.0375239497848E-08  1.0375239497848E-08  1.0375239497848E-08  1.0375239497848E-08  1.0375239497848E-08  1.0375239497848E-08  1.0375239497848E-08  1.0375239497848E-08  9.7990853648402E-09 
 9.1999999999889E-01  9.2000000000000E-01  9.2000000000000E-01  9.2000000000000E-01  9.2000000000000E-01  9.2000000000000E-01  9.2000000000000E-01  9.2000000000000E-01  9.2000000000000E-01  9.2000000000122E-01 
 4.0000000000555E-02  4.0000000000000E-02  4.0000000000000E-02  4.0000000000000E-02  4.0000000000000E-02  4.0000000000000E-02  4.0000000000000E-02  4.0000000000000E-02  4.0000000000000E-02  3.9999999999388E-02 
 4.0000000000555E-02  4.0000000000000E-02  4.0000000000000E-02  4.0000000000000E-02  4.0000000000000E-02  4.0000000000000E-02  4.0000000000000E-02  4.0000000000000E-02  4.0000000000000E-02  3.9999999999388E-02 
 3.5028847905892E-02  3.5028823352835E-02  3.5028798799779E-02  3.5028774246723E-02  3.5028749693666E-02  3.5028725140610E-02  3.5028700587554E-02  3.5028676034497E-02  3.5028651481441E-02  3.5028626928385E-02 
 8.0911139820575E-01  8.0911139820575E-01  8.0911139820575E-01  8.0911139820575E-01  8.0911139820575E-01  8.0911139820575E-01  8.0911139820575E-01  8.0911139820575E-01  8.0911139820575E-01  8.0911139820575E-01 
 2.6811111111111E-05  5.3622222222222E-05  5.3622222222222E-05  5.3622222222222E-05  5.3622222222222E-05  5.3622222222222E-05  5.3622222222222E-05  5.3622222222223E-05  5.3622222222222E-05  2.6811111111111E-05 
 1.9088860179425E-01  1.9088860179425E-01  1.9088860179425E-01  1.9088860179425E-01  1.9088860179425E-01  1.9088860179425E-01  1.9088860179425E-01  1.9088860179425E-01  1.9088860179425E-01  1.9088860179425E-01 
 5.3027912310418E-10  5.3027912312242E-10  5.3027912312133E-10  5.3027912316967E-10  5.3027912318901E-10  5.3027912312133E-10  5.3027912312133E-10  5.3027912314066E-10  5.3027912313946E-10  5.3027912313825E-10 
 6.8423112658797E-03  6.8423112658559E-03  6.8423112658321E-03  6.8423112658321E-03  6.8423112658321E-03  6.8423112658321E-03  6.8423112658321E-03  6.8423112658321E-03  6.8423112658060E-03  6.8423112657798E-03 
 6.8423112658797E-03  6.8423112658559E-03  6.8423112658321E-03  6.8423112658321E-03  6.8423112658321E-03  6.8423112658321E-03  6.8423112658321E-03  6.8423112658321E-03  6.8423112658060E-03  6.8423112657798E-03 
 0.0000000000000E+00  0.0000000000000E+00  0.0000000000000E+00  0.0000000000000E+00  0.0000000000000E+00  0.0000000000000E+00  0.0000000000000E+00  0.0000000000000E+00  0.0000000000000E+00  0.0000000000000E+00 
ZONE T = "SEP , 1.1125E-07", I = 10, SOLUTIONTIME = 1.112500E-07
ZONETYPE = ORDERED
DATAPACKING = BLOCK
STRANDID = 2
 7.8740000000000E-04  8.4102222222222E-04  8.9464444444444E-04  9.4826666666667E-04  1.0018888888889E-03  1.0555111111111E-03  1.1091333333333E-03  1.1627555555556E-03  1.2163777777778E-03  1.2700000000000E-03 
 1.0376773041442E-08  1.0376773041442E-08  1.0376773041442E-08  1.0376773041442E-08  1.0376773041442E-08  1.0376773041442E-08  1.0376773041442E-08  1.0376773041442E-08  1.0376773041442E-08  9.8007803340948E-09 
 9.1999999999841E-01  9.2000000000000E-01  9.2000000000000E-01  9.2000000000000E-01  9.2000000000000E-01  9.2000000000000E-01  9.2000000000000E-01  9.2000000000000E-01  9.2000000000000E-01  9.2000000000176E-01 
 4.0000000000797E-02  4.0000000000000E-02  4.0000000000000E-02  4.0000000000000E-02  4.0000000000000E-02  4.0000000000000E-02  4.0000000000000E-02  4.0000000000000E-02  4.0000000000000E-02  3.9999999999121E-02 
 4.0000000000797E-02  4.0000000000000E-02  4.0000000000000E-02  4.0000000000000E-02  4.0000000000000E-02  4.0000000000000E-02  4.0000000000000E-02  4.0000000000000E-02  4.0000000000000E-02  3.9999999999121E-02 
 3.5028847905359E-02  3.5028823352303E-02  3.5028798799246E-02  3.5028774246190E-02  3.5028749693134E-02  3.5028725140077E-02  3.5028700587021E-02  3.5028676033965E-02  3.5028651480908E-02  3.5028626927852E-02 
 8.0911139820575E-01  8.0911139820575E-01  8.0911139820575E-01  8.0911139820575E-01  8.0911139820575E-01  8.0911139820575E-01  8.0911139820575E-01  8.0911139820575E-01  8.0911139820575E-01  8.0911139820575E-01 
 2.6811111111111E-05  5.3622222222222E-05  5.3622222222222E-05  5.3622222222222E-05  5.3622222222222E-05  5.3622222222222E-05  5.3622222222222E-05  5.3622222222223E-05  5.3622222222222E-05  2.6811111111111E-05 
 1.9088860179425E-01  1.9088860179425E-01  1.9088860179425E-01  1.9088860179425E-01  1.9088860179425E-01  1.9088860179425E-01  1.9088860179425E-01  1.9088860179425E-01  1.9088860179425E-01  1.9088860179425E-01 
 7.6120712819779E-10  7.6120712828014E-10  7.6120712834316E-10  7.6120712839150E-10  7.6120712841084E-10  7.6120712834316E-10  7.6120712834316E-10  7.6120712836249E-10  7.6120712836003E-10  7.6120712835755E-10 
 6.8423112620330E-03  6.8423112639325E-03  6.8423112658321E-03  6.8423112658321E-03  6.8423112658321E-03  6.8423112658321E-03  6.8423112658321E-03  6.8423112658321E-03  6.8423112657946E-03  6.8423112657570E-03 
 6.8423112620330E-03  6.8423112639325E-03  6.8423112658321E-03  6.8423112658321E-03  6.8423112658321E-03  6.8423112658321E-03  6.8423112658321E-03  6.8423112658321E-03  6.8423112657946E-03  6.8423112657570E-03 
 0.0000000000000E+00  0.0000000000000E+00  0.0000000000000E+00  0.0000000000000E+00  0.0000000000000E+00  0.0000000000000E+00  0.0000000000000E+00  0.0000000000000E+00  0.0000000000000E+00  0.0000000000000E+00 
ZONE T = "SEP , 1.6188E-07", I = 10, SOLUTIONTIME = 1.618750E-07
ZONETYPE = ORDERED
DATAPACKING = BLOCK
STRANDID = 2
 7.8740000000000E-04  8.4102222222222E-04  8.9464444444444E-04  9.4826666666667E-04  1.0018888888889E-03  1.0555111111111E-03  1.1091333333333E-03  1.1627555555556E-03  1.2163777777778E-03  1.2700000000000E-03 
 1.0376288764254E-08  1.0376288764254E-08  1.0376288764254E-08  1.0376288764254E-08  1.0376288764254E-08  1.0376288764254E-08  1.0376288764254E-08  1.0376288764254E-08  1.0376288764254E-08  9.7999193970461E-09 
 9.1999999999768E-01  9.2000000000000E-01  9.2000000000000E-01  9.2000000000000E-01  9.2000000000000E-01  9.2000000000000E-01  9.2000000000000E-01  9.2000000000000E-01  9.2000000000000E-01  9.2000000000256E-01 
 4.0000000001160E-02  4.0000000000000E-02  4.0000000000000E-02  4.0000000000000E-02  4.0000000000000E-02  4.0000000000000E-02  4.0000000000000E-02  4.0000000000000E-02  4.0000000000000E-02  3.9999999998721E-02 
 4.0000000001160E-02  4.0000000000000E-02  4.0000000000000E-02  4.0000000000000E-02  4.0000000000000E-02  4.0000000000000E-02  4.0000000000000E-02  4.0000000000000E-02  4.0000000000000E-02  3.9999999998721E-02 
 3.5028847904558E-02  3.5028823351502E-02  3.5028798798446E-02  3.5028774245389E-02  3.5028749692333E-02  3.5028725139277E-02  3.5028700586220E-02  3.5028676033164E-02  3.5028651480108E-02  3.5028626927051E-02 
 8.0911139820575E-01  8.0911139820575E-01  8.0911139820575E-01  8.0911139820575E-01  8.0911139820575E-01  8.0911139820575E-01  8.0911139820575E-01  8.0911139820575E-01  8.0911139820575E-01  8.0911139820575E-01 
 2.6811111111111E-05  5.3622222222222E-05  5.3622222222222E-05  5.3622222222222E-05  5.3622222222222E-05  5.3622222222222E-05  5.3622222222222E-05  5.3622222222223E-05  5.3622222222222E-05  2.6811111111111E-05 
 1.9088860179425E-01  1.9088860179425E-01  1.9088860179425E-01  1.9088860179425E-01  1.9088860179425E-01  1.9088860179425E-01  1.9088860179425E-01  1.9088860179425E-01  1.9088860179425E-01  1.9088860179425E-01 
 1.1075991360356E-09  1.1075991361154E-09  1.1075991361759E-09  1.1075991362243E-09  1.1075991362436E-09  1.1075991361759E-09  1.1075991361759E-09  1.1075991361952E-09  1.1075991361900E-09  1.1075991361848E-09 
 6.8423112659314E-03  6.8423112658817E-03  6.8423112658321E-03  6.8423112658321E-03  6.8423112658321E-03  6.8423112658321E-03  6.8423112658321E-03  6.8423112658321E-03  6.8423112657774E-03  6.8423112657228E-03 
 6.8423112659314E-03  6.8423112658817E-03  6.8423112658321E-03  6.8423112658321E-03  6.8423112658321E-03  6.8423112658321E-03  6.8423112658321E-03  6.8423112658321E-03  6.8423112657774E-03  6.8423112657228E-03 
 0.0000000000000E+00  0.0000000000000E+00  0.0000000000000E+00  0.0000000000000E+00  0.0000000000000E+00  0.0000000000000E+00  0.0000000000000E+00  0.0000000000000E+00  0.0000000000000E+00  0.0000000000000E+00 
ZONE T = "SEP , 2.3781E-07", I = 10, SOLUTIONTIME = 2.378125E-07
ZONETYPE = ORDERED
DATAPACKING = BLOCK
STRANDID = 2
 7.8740000000000E-04  8.4102222222222E-04  8.9464444444444E-04  9.4826666666667E-04  1.0018888888889E-03  1.0555111111111E-03  1.1091333333333E-03  1.1627555555556E-03  1.2163777777778E-03  1.2700000000000E-03 
 1.0377281232780E-08  1.0377281232780E-08  1.0377281232780E-08  1.0377281232780E-08  1.0377281232780E-08  1.0377281232780E-08  1.0377281232780E-08  1.0377281232780E-08  1.0377281232780E-08  9.8011988445259E-09 
 9.1999999999659E-01  9.2000000000000E-01  9.2000000000000E-01  9.2000000000000E-01  9.2000000000000E-01  9.2000000000000E-01  9.2000000000000E-01  9.2000000000000E-01  9.2000000000000E-01  9.2000000000376E-01 
 4.0000000001704E-02  4.0000000000001E-02  4.0000000000000E-02  4.0000000000000E-02  4.0000000000000E-02  4.0000000000000E-02  4.0000000000000E-02  4.0000000000000E-02  3.9999999999999E-02  3.9999999998122E-02 
 4.0000000001704E-02  4.0000000000001E-02  4.0000000000000E-02  4.0000000000000E-02  4.0000000000000E-02  4.0000000000000E-02  4.0000000000000E-02  4.0000000000000E-02  3.9999999999999E-02  3.9999999998122E-02 
 3.5028847903361E-02  3.5028823350305E-02  3.5028798797249E-02  3.5028774244192E-02  3.5028749691136E-02  3.5028725138080E-02  3.5028700585023E-02  3.5028676031967E-02  3.5028651478911E-02  3.5028626925854E-02 
 8.0911139820575E-01  8.0911139820575E-01  8.0911139820575E-01  8.0911139820575E-01  8.0911139820575E-01  8.0911139820575E-01  8.0911139820575E-01  8.0911139820575E-01  8.0911139820575E-01  8.0911139820575E-01 
 2.6811111111111E-05  5.3622222222222E-05  5.3622222222222E-05  5.3622222222222E-05  5.3622222222222E-05  5.3622222222222E-05  5.3622222222222E-05  5.3622222222223E-05  5.3622222222222E-05  2.6811111111111E-05 
 1.9088860179425E-01  1.9088860179425E-01  1.9088860179425E-01  1.9088860179425E-01  1.9088860179425E-01  1.9088860179425E-01  1.9088860179425E-01  1.9088860179425E-01  1.9088860179425E-01  1.9088860179425E-01 
 1.6271871477958E-09  1.6271871477232E-09  1.6271871477782E-09  1.6271871479734E-09  1.6271871479927E-09  1.6271871479250E-09  1.6271871477782E-09  1.6271871477975E-09  1.6271871479330E-09  1.6271871479217E-09 
 6.8423112659779E-03  6.8423112639713E-03  6.8423112638985E-03  6.8423112658321E-03  6.8423112658321E-03  6.8423112658321E-03  6.8423112638985E-03  6.8423112638983E-03  6.8423112657518E-03  6.8423112656715E-03 
 6.8423112659779E-03  6.8423112639713E-03  6.8423112638985E-03  6.8423112658321E-03  6.8423112658321E-03  6.8423112658321E-03  6.8423112638985E-03  6.8423112638983E-03  6.8423112657518E-03  6.8423112656715E-03 
 0.0000000000000E+00  0.0000000000000E+00  0.0000000000000E+00  0.0000000000000E+00  0.0000000000000E+00  0.0000000000000E+00  0.0000000000000E+00  0.0000000000000E+00  0.0000000000000E+00  0.0000000000000E+00 
ZONE T = "SEP , 3.5172E-07", I = 10, SOLUTIONTIME = 3.517188E-07
ZONETYPE = ORDERED
DATAPACKING = BLOCK
STRANDID = 2
 7.8740000000000E-04  8.4102222222222E-04  8.9464444444444E-04  9.4826666666667E-04  1.0018888888889E-03  1.0555111111111E-03  1.1091333333333E-03  1.1627555555556E-03  1.2163777777778E-03  1.2700000000000E-03 
 1.0376627558025E-08  1.0376627558025E-08  1.0376627558025E-08  1.0376627558025E-08  1.0376627558025E-08  1.0376627558025E-08  1.0376627558025E-08  1.0376627558025E-08  1.0376563784926E-08  9.8004096519480E-09 
 9.1999999999496E-01  9.2000000000000E-01  9.2000000000000E-01  9.2000000000000E-01  9.2000000000000E-01  9.2000000000000E-01  9.2000000000000E-01  9.2000000000000E-01  9.2000000000000E-01  9.2000000000555E-01 
 4.0000000002519E-02  4.0000000000002E-02  4.0000000000000E-02  4.0000000000000E-02  4.0000000000000E-02  4.0000000000000E-02  4.0000000000000E-02  4.0000000000000E-02  3.9999999999998E-02  3.9999999997223E-02 