TITLE = "Solution on Domain BulkDomain1D_2"
VARIABLES = "x [m]"  
"Vel_axial" 	"MF_sp(ECDMC)" 	"MF_sp(Li+)" 	"MF_sp(PF6-)" 	"Volt(Electroly)" 	"Volt(CathodeVo)" 	
"Potential Drop Electrode-Electrolyte [V]" 	"Surf_0 Equilibrium Potential Drop Electrode-Electrolyte [V]" 	"Overpotential_0 [V]" 	"Current Source [A/m^2]" 	"Li+ flux [kmol/m^2/s]" 	"Electrolyte Current [A/m^2]" 	"Electrode Current [A/m^2]" 	
"CV Capacity discharged [A-s/m^2]" 	"Depth of discharge in CV [A-s/m^2]" 	"CV Capacity remaining [A-s/m^2]" 	"Initial CV capacity [A-s/m^2]" 	"Porosity []" 	"Surface Area [m2/m2] (area per area)" 	"Specific current (per particle area) [A/m^2]" 	"Control volume thickness [m]" 	
"MoleDens LiCoO2 [kmol/m^3]" 	"MoleDens CoO2 [kmol/m^3]" 	"qHeat_accum [J/m3]" 	"qHeat_step [W/m3]" 	"Joule_Lyte [W/m3]" 	"Joule_Solid [W/m3]" 	"electrodHeat [W/m3]" 	"OverpotHeat [W/m3]" 	"deltaSHeat [W/m3]" 	

ZONE T = "CATH, 0.0000E+00", I = 10, SOLUTIONTIME = 0.000000E+00
ZONETYPE = ORDERED
DATAPACKING = BLOCK
STRANDID = 3
 1.2700000000000E-03  1.3377333333333E-03  1.4054666666667E-03  1.4732000000000E-03  1.5409333333333E-03  1.6086666666667E-03  1.6764000000000E-03  1.7441333333333E-03  1.8118666666667E-03  1.8796000000000E-03 
 0.0000000000000E+00  0.0000000000000E+00  0.0000000000000E+00  0.0000000000000E+00  0.0000000000000E+00  0.0000000000000E+00  0.0000000000000E+00  0.0000000000000E+00  0.0000000000000E+00  0.0000000000000E+00 
 9.2000000000000E-01  9.2000000000000E-01  9.2000000000000E-01  9.2000000000000E-01  9.2000000000000E-01  9.2000000000000E-01  9.2000000000000E-01  9.2000000000000E-01  9.2000000000000E-01  9.2000000000000E-01 
 4.0000000000000E-02  4.0000000000000E-02  4.0000000000000E-02  4.0000000000000E-02  4.0000000000000E-02  4.0000000000000E-02  4.0000000000000E-02  4.0000000000000E-02  4.0000000000000E-02  4.0000000000000E-02 
 4.0000000000000E-02  4.0000000000000E-02  4.0000000000000E-02  4.0000000000000E-02  4.0000000000000E-02  4.0000000000000E-02  4.0000000000000E-02  4.0000000000000E-02  4.0000000000000E-02  4.0000000000000E-02 
-7.0000000000000E-02 -7.0000000000000E-02 -7.0000000000000E-02 -7.0000000000000E-02 -7.0000000000000E-02 -7.0000000000000E-02 -7.0000000000000E-02 -7.0000000000000E-02 -7.0000000000000E-02 -7.0000000000000E-02 
 3.8000000000000E+00  3.8000000000000E+00  3.8000000000000E+00  3.8000000000000E+00  3.8000000000000E+00  3.8000000000000E+00  3.8000000000000E+00  3.8000000000000E+00  3.8000000000000E+00  3.8000000000000E+00 
 3.8700000000000E+00  3.8700000000000E+00  3.8700000000000E+00  3.8700000000000E+00  3.8700000000000E+00  3.8700000000000E+00  3.8700000000000E+00  3.8700000000000E+00  3.8700000000000E+00  3.8700000000000E+00 
 3.9714142713289E+00  3.9714142713289E+00  3.9714142713289E+00  3.9714142713289E+00  3.9714142713289E+00  3.9714142713289E+00  3.9714142713289E+00  3.9714142713289E+00  3.9714142713289E+00  3.9714142713289E+00 
-1.0141427132889E-01 -1.0141427132889E-01 -1.0141427132889E-01 -1.0141427132889E-01 -1.0141427132889E-01 -1.0141427132889E-01 -1.0141427132889E-01 -1.0141427132889E-01 -1.0141427132889E-01 -1.0141427132889E-01 
-2.3826357195711E-01 -4.7652714391422E-01 -4.7652714391423E-01 -4.7652714391422E-01 -4.7652714391423E-01 -4.7652714391423E-01 -4.7652714391422E-01 -4.7652714391423E-01 -4.7652714391422E-01 -2.3826357195711E-01 
-0.0000000000000E+00 -0.0000000000000E+00 -0.0000000000000E+00 -0.0000000000000E+00 -0.0000000000000E+00 -0.0000000000000E+00 -0.0000000000000E+00 -0.0000000000000E+00 -0.0000000000000E+00 -0.0000000000000E+00 
 2.3826357195711E-01  0.0000000000000E+00  0.0000000000000E+00  0.0000000000000E+00  0.0000000000000E+00  0.0000000000000E+00  0.0000000000000E+00  0.0000000000000E+00  0.0000000000000E+00  0.0000000000000E+00 
 0.0000000000000E+00 -0.0000000000000E+00 -0.0000000000000E+00 -0.0000000000000E+00 -0.0000000000000E+00 -0.0000000000000E+00 -0.0000000000000E+00 -0.0000000000000E+00 -0.0000000000000E+00  2.3826357195711E-01 
-0.0000000000000E+00 -0.0000000000000E+00 -0.0000000000000E+00 -0.0000000000000E+00 -0.0000000000000E+00 -0.0000000000000E+00 -0.0000000000000E+00 -0.0000000000000E+00 -0.0000000000000E+00 -0.0000000000000E+00 
 7.2440786946225E+03  1.4488157389245E+04  1.4488157389245E+04  1.4488157389245E+04  1.4488157389245E+04  1.4488157389245E+04  1.4488157389245E+04  1.4488157389245E+04  1.4488157389245E+04  7.2440786946225E+03 
 4.9259735123433E+04  9.8519470246865E+04  9.8519470246866E+04  9.8519470246865E+04  9.8519470246866E+04  9.8519470246866E+04  9.8519470246865E+04  9.8519470246866E+04  9.8519470246865E+04  4.9259735123433E+04 
 5.6503813818055E+04  1.1300762763611E+05  1.1300762763611E+05  1.1300762763611E+05  1.1300762763611E+05  1.1300762763611E+05  1.1300762763611E+05  1.1300762763611E+05  1.1300762763611E+05  5.6503813818055E+04 
 3.5000000000000E-01  3.5000000000000E-01  3.5000000000000E-01  3.5000000000000E-01  3.5000000000000E-01  3.5000000000000E-01  3.5000000000000E-01  3.5000000000000E-01  3.5000000000000E-01  3.5000000000000E-01 
 6.6040000000000E+00  1.3208000000000E+01  1.3208000000000E+01  1.3208000000000E+01  1.3208000000000E+01  1.3208000000000E+01  1.3208000000000E+01  1.3208000000000E+01  1.3208000000000E+01  6.6040000000000E+00 
-3.6078675341780E-02 -3.6078675341780E-02 -3.6078675341780E-02 -3.6078675341780E-02 -3.6078675341780E-02 -3.6078675341780E-02 -3.6078675341780E-02 -3.6078675341780E-02 -3.6078675341780E-02 -3.6078675341780E-02 
 3.3866666666667E-05  6.7733333333333E-05  6.7733333333334E-05  6.7733333333333E-05  6.7733333333334E-05  6.7733333333334E-05  6.7733333333333E-05  6.7733333333334E-05  6.7733333333333E-05  3.3866666666667E-05 
 2.6603001364256E+01  2.6603001364256E+01  2.6603001364256E+01  2.6603001364256E+01  2.6603001364256E+01  2.6603001364256E+01  2.6603001364256E+01  2.6603001364256E+01  2.6603001364256E+01  2.6603001364256E+01 
 1.7735334242838E+01  1.7735334242838E+01  1.7735334242838E+01  1.7735334242838E+01  1.7735334242838E+01  1.7735334242838E+01  1.7735334242838E+01  1.7735334242838E+01  1.7735334242838E+01  1.7735334242838E+01 
 0.0000000000000E+00  0.0000000000000E+00  0.0000000000000E+00  0.0000000000000E+00  0.0000000000000E+00  0.0000000000000E+00  0.0000000000000E+00  0.0000000000000E+00  0.0000000000000E+00  0.0000000000000E+00 
 0.0000000000000E+00  0.0000000000000E+00  0.0000000000000E+00  0.0000000000000E+00  0.0000000000000E+00  0.0000000000000E+00  0.0000000000000E+00  0.0000000000000E+00  0.0000000000000E+00  0.0000000000000E+00 
 0.0000000000000E+00  0.0000000000000E+00  0.0000000000000E+00  0.0000000000000E+00  0.0000000000000E+00  0.0000000000000E+00  0.0000000000000E+00  0.0000000000000E+00  0.0000000000000E+00  0.0000000000000E+00 
 0.0000000000000E+00  0.0000000000000E+00  0.0000000000000E+00  0.0000000000000E+00  0.0000000000000E+00  0.0000000000000E+00  0.0000000000000E+00  0.0000000000000E+00  0.0000000000000E+00  0.0000000000000E+00 
 0.0000000000000E+00  0.0000000000000E+00  0.0000000000000E+00  0.0000000000000E+00  0.0000000000000E+00  0.0000000000000E+00  0.0000000000000E+00  0.0000000000000E+00  0.0000000000000E+00  0.0000000000000E+00 
 0.0000000000000E+00  0.0000000000000E+00  0.0000000000000E+00  0.0000000000000E+00  0.0000000000000E+00  0.0000000000000E+00  0.0000000000000E+00  0.0000000000000E+00  0.0000000000000E+00  0.0000000000000E+00 
 0.0000000000000E+00  0.0000000000000E+00  0.0000000000000E+00  0.0000000000000E+00  0.0000000000000E+00  0.0000000000000E+00  0.0000000000000E+00  0.0000000000000E+00  0.0000000000000E+00  0.0000000000000E+00 
ZONE T = "CATH, 1.0000E-08", I = 10, SOLUTIONTIME = 1.000000E-08
ZONETYPE = ORDERED
DATAPACKING = BLOCK
STRANDID = 3
 1.2700000000000E-03  1.3377333333333E-03  1.4054666666667E-03  1.4732000000000E-03  1.5409333333333E-03  1.6086666666667E-03  1.6764000000000E-03  1.7441333333333E-03  1.8118666666667E-03  1.8796000000000E-03 
 9.7978238918006E-09  8.6451412897227E-09  7.4923883474880E-09  6.3395165236717E-09  5.1864772561876E-09  4.0332219553515E-09  2.8797019955384E-09  1.7258687074135E-09  5.7167336772592E-10 -5.8113238057058E-12 
 9.2000000000016E-01  9.2000000000045E-01  9.2000000000045E-01  9.2000000000045E-01  9.2000000000045E-01  9.2000000000045E-01  9.2000000000045E-01  9.2000000000045E-01  9.2000000000045E-01  9.2000000000045E-01 
 3.9999999999921E-02  3.9999999999776E-02  3.9999999999776E-02  3.9999999999776E-02  3.9999999999776E-02  3.9999999999776E-02  3.9999999999776E-02  3.9999999999776E-02  3.9999999999776E-02  3.9999999999776E-02 
 3.9999999999921E-02  3.9999999999776E-02  3.9999999999776E-02  3.9999999999776E-02  3.9999999999776E-02  3.9999999999776E-02  3.9999999999776E-02  3.9999999999776E-02  3.9999999999776E-02  3.9999999999776E-02 
 3.5027877652571E-02  3.5027774694539E-02  3.5027683842110E-02  3.5027605096350E-02  3.5027538458164E-02  3.5027483929514E-02  3.5027441512545E-02  3.5027411210090E-02  3.5027393025602E-02  3.5027386962624E-02 
 3.8418321840296E+00  3.8418311116376E+00  3.8418278944208E+00  3.8418225322486E+00  3.8418150248994E+00  3.8418053720616E+00  3.8417935733332E+00  3.8417796282215E+00  3.8417635361434E+00  3.8417452964249E+00 
 3.8068043063771E+00  3.8068033369431E+00  3.8068002105787E+00  3.8067949271522E+00  3.8067874864412E+00  3.8067778881321E+00  3.8067661318207E+00  3.8067522170115E+00  3.8067361431178E+00  3.8067179094623E+00 
 3.9714142713288E+00  3.9714142713287E+00  3.9714142713287E+00  3.9714142713287E+00  3.9714142713287E+00  3.9714142713287E+00  3.9714142713287E+00  3.9714142713287E+00  3.9714142713287E+00  3.9714142713287E+00 
-1.6460996495174E-01 -1.6461093438565E-01 -1.6461406074998E-01 -1.6461934417650E-01 -1.6462678488751E-01 -1.6463638319662E-01 -1.6464813950804E-01 -1.6466205431725E-01 -1.6467812821090E-01 -1.6469636186640E-01 
-8.2970200399525E-01 -1.6594354181461E+00 -1.6595367179680E+00 -1.6597079244440E+00 -1.6599490662711E+00 -1.6602601838922E+00 -1.6606413294875E+00 -1.6610925670092E+00 -1.6616139722024E+00 -8.3110281630621E-01 
 7.3137106110872E-08  6.4537731364367E-08  5.5937664501994E-08  4.7336954349181E-08  3.8734852149134E-08  3.0131224425929E-08  2.1525584741995E-08  1.2917492771821E-08  4.3068841495005E-09  4.3068841495005E-09 
 1.4943005854474E+01  1.3283596649706E+01  1.1624109103579E+01  9.9644863451455E+00  8.3046672064715E+00  6.6445665648653E+00  4.9841246078262E+00  3.3232519166974E+00  1.6618997962674E+00  0.0000000000000E+00 
 0.0000000000000E+00  1.6594160131367E+00  3.3188983588297E+00  4.9785169439800E+00  6.6383417296034E+00  8.2984426186496E+00  9.9588896224700E+00  1.1619752808765E+01  1.3281102284918E+01  1.4943010176348E+01 
 8.2970200399525E-09  1.6594354181461E-08  1.6595367179680E-08  1.6597079244440E-08  1.6599490662711E-08  1.6602601838922E-08  1.6606413294875E-08  1.6610925670092E-08  1.6616139722024E-08  8.3110281630621E-09 
 7.2440786946308E+03  1.4488157389261E+04  1.4488157389262E+04  1.4488157389261E+04  1.4488157389262E+04  1.4488157389262E+04  1.4488157389261E+04  1.4488157389262E+04  1.4488157389262E+04  7.2440786946308E+03 
 4.9259735123425E+04  9.8519470246849E+04  9.8519470246849E+04  9.8519470246849E+04  9.8519470246849E+04  9.8519470246849E+04  9.8519470246849E+04  9.8519470246849E+04  9.8519470246848E+04  4.9259735123425E+04 
 5.6503813818055E+04  1.1300762763611E+05  1.1300762763611E+05  1.1300762763611E+05  1.1300762763611E+05  1.1300762763611E+05  1.1300762763611E+05  1.1300762763611E+05  1.1300762763611E+05  5.6503813818055E+04 
 3.5000000000000E-01  3.5000000000000E-01  3.5000000000000E-01  3.5000000000000E-01  3.5000000000000E-01  3.5000000000000E-01  3.5000000000000E-01  3.5000000000000E-01  3.5000000000000E-01  3.5000000000000E-01 
 6.6040000000000E+00  1.3208000000000E+01  1.3208000000000E+01  1.3208000000000E+01  1.3208000000000E+01  1.3208000000000E+01  1.3208000000000E+01  1.3208000000000E+01  1.3208000000000E+01  6.6040000000000E+00 
-1.2563628164677E-01 -1.2563865976273E-01 -1.2564632934343E-01 -1.2565929167504E-01 -1.2567754893028E-01 -1.2570110417113E-01 -1.2572996134823E-01 -1.2576412530354E-01 -1.2580360177183E-01 -1.2584839738132E-01 
 3.3866666666667E-05  6.7733333333333E-05  6.7733333333334E-05  6.7733333333333E-05  6.7733333333334E-05  6.7733333333334E-05  6.7733333333333E-05  6.7733333333334E-05  6.7733333333333E-05  3.3866666666667E-05 
 2.6603001364259E+01  2.6603001364259E+01  2.6603001364259E+01  2.6603001364259E+01  2.6603001364259E+01  2.6603001364259E+01  2.6603001364259E+01  2.6603001364259E+01  2.6603001364259E+01  2.6603001364259E+01 
 1.7735334242835E+01  1.7735334242835E+01  1.7735334242835E+01  1.7735334242835E+01  1.7735334242835E+01  1.7735334242835E+01  1.7735334242835E+01  1.7735334242835E+01  1.7735334242835E+01  1.7735334242835E+01 
 3.4589199694373E-10  8.4761698355385E-10  2.3795821450318E-09  4.9687525155228E-09  8.6155646799268E-09  1.3320632699135E-08  1.9084749914313E-08  2.5908888080803E-08  3.3794198349890E-08  3.8002301617239E-08 
 3.4589199694373E-02  8.4761698355385E-02  2.3795821450318E-01  4.9687525155228E-01  8.6155646799268E-01  1.3320632699135E+00  1.9084749914313E+00  2.5908888080803E+00  3.3794198349890E+00  3.8002301617239E+00 
 2.1452922953360E-02  1.9078819583651E-02  1.4627020678783E-02  1.0768137681777E-02  7.5022210780583E-03  4.8293490614239E-03  2.7497655018804E-03  1.2637718329286E-03  3.7180643934030E-04  7.4394029922356E-05 
 1.3136276741013E-02  6.5682878771734E-02  2.2333119382439E-01  4.8610711387050E-01  8.5405424691463E-01  1.3272339208520E+00  1.9057252259295E+00  2.5896250362474E+00  3.3790480285497E+00  3.8001557676940E+00 
 0.0000000000000E+00  0.0000000000000E+00  0.0000000000000E+00  0.0000000000000E+00  0.0000000000000E+00  0.0000000000000E+00  0.0000000000000E+00  0.0000000000000E+00  0.0000000000000E+00  0.0000000000000E+00 
 0.0000000000000E+00  0.0000000000000E+00  0.0000000000000E+00  0.0000000000000E+00  0.0000000000000E+00  0.0000000000000E+00  0.0000000000000E+00  0.0000000000000E+00  0.0000000000000E+00  0.0000000000000E+00 
 0.0000000000000E+00  0.0000000000000E+00  0.0000000000000E+00  0.0000000000000E+00  0.0000000000000E+00  0.0000000000000E+00  0.0000000000000E+00  0.0000000000000E+00  0.0000000000000E+00  0.0000000000000E+00 
ZONE T = "CATH, 2.0000E-08", I = 10, SOLUTIONTIME = 2.000000E-08
ZONETYPE = ORDERED
DATAPACKING = BLOCK
STRANDID = 3
 1.2700000000000E-03  1.3377333333333E-03  1.4054666666667E-03  1.4732000000000E-03  1.5409333333333E-03  1.6086666666667E-03  1.6764000000000E-03  1.7441333333333E-03  1.8118666666667E-03  1.8796000000000E-03 
 9.8019103142461E-09  8.6488538209942E-09  7.4957269833896E-09  6.3424812570427E-09  5.1894312853587E-09  4.0361652682063E-09  2.8822713692157E-09  1.7280641230635E-09  5.7458442728617E-10 -2.7240579584919E-12 
 9.2000000000032E-01  9.2000000000089E-01  9.2000000000089E-01  9.2000000000089E-01  9.2000000000089E-01  9.2000000000089E-01  9.2000000000089E-01  9.2000000000090E-01  9.2000000000090E-01  9.2000000000090E-01 
 3.9999999999842E-02  3.9999999999553E-02  3.9999999999553E-02  3.9999999999553E-02  3.9999999999553E-02  3.9999999999553E-02  3.9999999999552E-02  3.9999999999552E-02  3.9999999999552E-02  3.9999999999552E-02 
 3.9999999999842E-02  3.9999999999553E-02  3.9999999999553E-02  3.9999999999553E-02  3.9999999999553E-02  3.9999999999553E-02  3.9999999999552E-02  3.9999999999552E-02  3.9999999999552E-02  3.9999999999552E-02 
 3.5028626930721E-02  3.5028523971701E-02  3.5028433118521E-02  3.5028354371921E-02  3.5028287733150E-02  3.5028233203966E-02  3.5028190786640E-02  3.5028160483952E-02  3.5028142299193E-02  3.5028136236168E-02 
 3.8418325729744E+00  3.8418315005724E+00  3.8418282833258E+00  3.8418229211038E+00  3.8418154136850E+00  3.8418057607577E+00  3.8417939619198E+00  3.8417800166786E+00  3.8417639244510E+00  3.8417456845630E+00 
 3.8068039460437E+00  3.8068029766007E+00  3.8067998502073E+00  3.8067945667319E+00  3.8067871259518E+00  3.8067775275537E+00  3.8067657711331E+00  3.8067518561947E+00  3.8067357821518E+00  3.8067175483268E+00 
 3.9714142713287E+00  3.9714142713285E+00  3.9714142713285E+00  3.9714142713285E+00  3.9714142713285E+00  3.9714142713285E+00  3.9714142713285E+00  3.9714142713285E+00  3.9714142713285E+00  3.9714142713285E+00 
-1.6461032528505E-01 -1.6461129472783E-01 -1.6461442112119E-01 -1.6461970459664E-01 -1.6462714537670E-01 -1.6463674377482E-01 -1.6464850019539E-01 -1.6466241513384E-01 -1.6467848917669E-01 -1.6469672300168E-01 
-8.2970784145119E-01 -1.6594470935621E+00 -1.6595483950329E+00 -1.6597196042910E+00 -1.6599607500419E+00 -1.6602718727242E+00 -1.6606530245241E+00 -1.6611042693945E+00 -1.6616256830772E+00 -8.3110867656544E-01 
 7.3137874360891E-08  6.4538264234842E-08  5.5938261090958E-08  4.7337370719406E-08  3.8735230698453E-08  3.0131478400201E-08  2.1525750920130E-08  1.2917685020000E-08  4.3069171029778E-09  4.3069171029778E-09 
 1.4943147210950E+01  1.3283715822364E+01  1.1624218077776E+01  9.9645840784099E+00  8.3047439012642E+00  6.6446275900723E+00  4.9841651414850E+00  3.3232864941312E+00  1.6619215181556E+00  0.0000000000000E+00 
 0.0000000000000E+00  1.6594313881779E+00  3.3189291324480E+00  4.9785631321521E+00  6.6384033094807E+00  8.2985196208115E+00  9.9589820692497E+00  1.1619860716311E+01  1.3281225692571E+01  1.4943147210549E+01 
 1.6594098454464E-08  3.3188825117082E-08  3.3190851130009E-08  3.3194275287349E-08  3.3199098163130E-08  3.3205320566164E-08  3.3212943540116E-08  3.3221968364036E-08  3.3232396552796E-08  1.6622114928716E-08 
 7.2440786946391E+03  1.4488157389278E+04  1.4488157389278E+04  1.4488157389278E+04  1.4488157389278E+04  1.4488157389278E+04  1.4488157389278E+04  1.4488157389278E+04  1.4488157389278E+04  7.2440786946391E+03 
 4.9259735123416E+04  9.8519470246832E+04  9.8519470246833E+04  9.8519470246832E+04  9.8519470246833E+04  9.8519470246833E+04  9.8519470246832E+04  9.8519470246833E+04  9.8519470246832E+04  4.9259735123416E+04 
 5.6503813818055E+04  1.1300762763611E+05  1.1300762763611E+05  1.1300762763611E+05  1.1300762763611E+05  1.1300762763611E+05  1.1300762763611E+05  1.1300762763611E+05  1.1300762763611E+05  5.6503813818055E+04 
 3.5000000000000E-01  3.5000000000000E-01  3.5000000000000E-01  3.5000000000000E-01  3.5000000000000E-01  3.5000000000000E-01  3.5000000000000E-01  3.5000000000000E-01  3.5000000000000E-01  3.5000000000000E-01 
 6.6040000000000E+00  1.3208000000000E+01  1.3208000000000E+01  1.3208000000000E+01  1.3208000000000E+01  1.3208000000000E+01  1.3208000000000E+01  1.3208000000000E+01  1.3208000000000E+01  6.6040000000000E+00 
-1.2563716557407E-01 -1.2563954372820E-01 -1.2564721343374E-01 -1.2566017597600E-01 -1.2567843352831E-01 -1.2570198915234E-01 -1.2573084679922E-01 -1.2576501131091E-01 -1.2580448842196E-01 -1.2584928476157E-01 
 3.3866666666667E-05  6.7733333333333E-05  6.7733333333334E-05  6.7733333333333E-05  6.7733333333334E-05  6.7733333333334E-05  6.7733333333333E-05  6.7733333333334E-05  6.7733333333333E-05  3.3866666666667E-05 
 2.6603001364262E+01  2.6603001364262E+01  2.6603001364262E+01  2.6603001364262E+01  2.6603001364262E+01  2.6603001364262E+01  2.6603001364262E+01  2.6603001364262E+01  2.6603001364262E+01  2.6603001364262E+01 
 1.7735334242833E+01  1.7735334242833E+01  1.7735334242833E+01  1.7735334242833E+01  1.7735334242833E+01  1.7735334242833E+01  1.7735334242833E+01  1.7735334242833E+01  1.7735334242833E+01  1.7735334242833E+01 
 6.9179055328985E-10  1.6952495726280E-09  4.7592084341624E-09  9.9375973537035E-09  1.7231289191712E-08  2.6641512610040E-08  3.8169854097542E-08  5.1818257387724E-08  6.7589024783211E-08  7.6005309718353E-08 
 3.4589855634611E-02  8.4763258907419E-02  2.3796262891306E-01  4.9688448381808E-01  8.6157245117851E-01  1.3320879910905E+00  1.9085104183228E+00  2.5909369306921E+00  3.3794826433321E+00  3.8003008101114E+00 
 2.1453334946703E-02  1.9079163504446E-02  1.4627292442882E-02  1.0768350567507E-02  7.5023589290425E-03  4.8294385555921E-03  2.7498105347620E-03  1.2637961353209E-03  3.7181696628191E-04  7.4395166908490E-05 
 1.3136520687908E-02  6.5684095402974E-02  2.2333533647018E-01  4.8611613325057E-01  8.5407009224947E-01  1.3272585525349E+00  1.9057606077881E+00  2.5896731345567E+00  3.3791108263658E+00  3.8002264149445E+00 
 0.0000000000000E+00  0.0000000000000E+00  0.0000000000000E+00  0.0000000000000E+00  0.0000000000000E+00  0.0000000000000E+00  0.0000000000000E+00  0.0000000000000E+00  0.0000000000000E+00  0.0000000000000E+00 
 0.0000000000000E+00  0.0000000000000E+00  0.0000000000000E+00  0.0000000000000E+00  0.0000000000000E+00  0.0000000000000E+00  0.0000000000000E+00  0.0000000000000E+00  0.0000000000000E+00  0.0000000000000E+00 
 0.0000000000000E+00  0.0000000000000E+00  0.0000000000000E+00  0.0000000000000E+00  0.0000000000000E+00  0.0000000000000E+00  0.0000000000000E+00  0.0000000000000E+00  0.0000000000000E+00  0.0000000000000E+00 
ZONE T = "CATH, 3.0000E-08", I = 10, SOLUTIONTIME = 3.000000E-08
ZONETYPE = ORDERED
DATAPACKING = BLOCK
STRANDID = 3
 1.2700000000000E-03  1.3377333333333E-03  1.4054666666667E-03  1.4732000000000E-03  1.5409333333333E-03  1.6086666666667E-03  1.6764000000000E-03  1.7441333333333E-03  1.8118666666667E-03  1.8796000000000E-03 
 9.7944645557702E-09  8.6424976857082E-09  7.4904604712936E-09  6.3383043681367E-09  5.1859808119149E-09  4.0334412102247E-09  2.8810001421519E-09  1.7278825191897E-09  5.7440282341902E-10 -2.5424540945127E-12 
 9.2000000000047E-01  9.2000000000134E-01  9.2000000000134E-01  9.2000000000134E-01  9.2000000000134E-01  9.2000000000134E-01  9.2000000000134E-01  9.2000000000134E-01  9.2000000000134E-01  9.2000000000134E-01 
 3.9999999999763E-02  3.9999999999329E-02  3.9999999999329E-02  3.9999999999329E-02  3.9999999999329E-02  3.9999999999329E-02  3.9999999999329E-02  3.9999999999329E-02  3.9999999999328E-02  3.9999999999328E-02 
 3.9999999999763E-02  3.9999999999329E-02  3.9999999999329E-02  3.9999999999329E-02  3.9999999999329E-02  3.9999999999329E-02  3.9999999999329E-02  3.9999999999329E-02  3.9999999999328E-02  3.9999999999328E-02 
 3.5028626930527E-02  3.5028523971507E-02  3.5028433118327E-02  3.5028354371727E-02  3.5028287732956E-02  3.5028233203772E-02  3.5028190786446E-02  3.5028160483757E-02  3.5028142298999E-02  3.5028136235974E-02 
 3.8418325729741E+00  3.8418315005722E+00  3.8418282833256E+00  3.8418229211036E+00  3.8418154136847E+00  3.8418057607574E+00  3.8417939619195E+00  3.8417800166784E+00  3.8417639244508E+00  3.8417456845628E+00 
 3.8068039460436E+00  3.8068029766007E+00  3.8067998502073E+00  3.8067945667318E+00  3.8067871259518E+00  3.8067775275537E+00  3.8067657711331E+00  3.8067518561946E+00  3.8067357821518E+00  3.8067175483268E+00 
 3.9714142713286E+00  3.9714142713283E+00  3.9714142713283E+00  3.9714142713283E+00  3.9714142713283E+00  3.9714142713283E+00  3.9714142713283E+00  3.9714142713283E+00  3.9714142713283E+00  3.9714142713283E+00 
-1.6461032528500E-01 -1.6461129472768E-01 -1.6461442112105E-01 -1.6461970459650E-01 -1.6462714537656E-01 -1.6463674377467E-01 -1.6464850019525E-01 -1.6466241513369E-01 -1.6467848917655E-01 -1.6469672300153E-01 
-8.2970784144941E-01 -1.6594470935525E+00 -1.6595483950233E+00 -1.6597196042815E+00 -1.6599607500323E+00 -1.6602718727146E+00 -1.6606530245145E+00 -1.6611042693849E+00 -1.6616256830676E+00 -8.3110867656062E-01 
 7.3137940329930E-08  6.4538264248149E-08  5.5938261101410E-08  4.7337370733705E-08  3.8735230715713E-08  3.0131478419545E-08  2.1525750953180E-08  1.2917685051082E-08  4.3069171419592E-09  4.3069171419592E-09 
 1.4943147209943E+01  1.3283715822302E+01  1.1624218078187E+01  9.9645840783542E+00  8.3047439012177E+00  6.6446275895596E+00  4.9841651414571E+00  3.3232864945882E+00  1.6619215181463E+00  0.0000000000000E+00 
 0.0000000000000E+00  1.6594313881779E+00  3.3189291324480E+00  4.9785631321521E+00  6.6384033093089E+00  8.2985196206397E+00  9.9589820694215E+00  1.1619860716311E+01  1.3281225692400E+01  1.4943147210544E+01 
 2.4891176868959E-08  4.9783296052607E-08  4.9786335080241E-08  4.9791471330164E-08  4.9798705663454E-08  4.9808039293310E-08  4.9819473785260E-08  4.9833011057885E-08  4.9848653383472E-08  2.4933201694323E-08 
 7.2440786946474E+03  1.4488157389295E+04  1.4488157389295E+04  1.4488157389295E+04  1.4488157389295E+04  1.4488157389295E+04  1.4488157389295E+04  1.4488157389295E+04  1.4488157389295E+04  7.2440786946474E+03 
 4.9259735123408E+04  9.8519470246815E+04  9.8519470246816E+04  9.8519470246815E+04  9.8519470246816E+04  9.8519470246816E+04  9.8519470246815E+04  9.8519470246816E+04  9.8519470246815E+04  4.9259735123408E+04 
 5.6503813818055E+04  1.1300762763611E+05  1.1300762763611E+05  1.1300762763611E+05  1.1300762763611E+05  1.1300762763611E+05  1.1300762763611E+05  1.1300762763611E+05  1.1300762763611E+05  5.6503813818055E+04 
 3.5000000000000E-01  3.5000000000000E-01  3.5000000000000E-01  3.5000000000000E-01  3.5000000000000E-01  3.5000000000000E-01  3.5000000000000E-01  3.5000000000000E-01  3.5000000000000E-01  3.5000000000000E-01 
 6.6040000000000E+00  1.3208000000000E+01  1.3208000000000E+01  1.3208000000000E+01  1.3208000000000E+01  1.3208000000000E+01  1.3208000000000E+01  1.3208000000000E+01  1.3208000000000E+01  6.6040000000000E+00 
-1.2563716557381E-01 -1.2563954372748E-01 -1.2564721343301E-01 -1.2566017597528E-01 -1.2567843352758E-01 -1.2570198915162E-01 -1.2573084679849E-01 -1.2576501131018E-01 -1.2580448842123E-01 -1.2584928476084E-01 
 3.3866666666667E-05  6.7733333333333E-05  6.7733333333334E-05  6.7733333333333E-05  6.7733333333334E-05  6.7733333333334E-05  6.7733333333333E-05  6.7733333333334E-05  6.7733333333333E-05  3.3866666666667E-05 
 2.6603001364264E+01  2.6603001364264E+01  2.6603001364264E+01  2.6603001364264E+01  2.6603001364264E+01  2.6603001364264E+01  2.6603001364264E+01  2.6603001364264E+01  2.6603001364264E+01  2.6603001364264E+01 
 1.7735334242830E+01  1.7735334242830E+01  1.7735334242830E+01  1.7735334242830E+01  1.7735334242830E+01  1.7735334242830E+01  1.7735334242830E+01  1.7735334242830E+01  1.7735334242830E+01  1.7735334242830E+01 
 1.0376891096062E-09  2.5428821616997E-09  7.1388347233050E-09  1.4906442191884E-08  2.5847013703007E-08  3.9962392520449E-08  5.7254958281476E-08  7.7727626694540E-08  1.0138385121571E-07  1.1400831781947E-07 
 3.4589855631638E-02  8.4763258907162E-02  2.3796262891426E-01  4.9688448381802E-01  8.6157245112950E-01  1.3320879910409E+00  1.9085104183934E+00  2.5909369306816E+00  3.3794826432504E+00  3.8003008101114E+00 
 2.1453334943730E-02  1.9079163504189E-02  1.4627292444076E-02  1.0768350567447E-02  7.5023589290005E-03  4.8294385549694E-03  2.7498105345765E-03  1.2637961357393E-03  3.7181696627983E-04  7.4395166908073E-05 
 1.3136520687908E-02  6.5684095402974E-02  2.2333533647018E-01  4.8611613325057E-01  8.5407009220050E-01  1.3272585524859E+00  1.9057606078588E+00  2.5896731345459E+00  3.3791108262841E+00  3.8002264149445E+00 
 0.0000000000000E+00  0.0000000000000E+00  0.0000000000000E+00  0.0000000000000E+00  0.0000000000000E+00  0.0000000000000E+00  0.0000000000000E+00  0.0000000000000E+00  0.0000000000000E+00  0.0000000000000E+00 
 0.0000000000000E+00  0.0000000000000E+00  0.0000000000000E+00  0.0000000000000E+00  0.0000000000000E+00  0.0000000000000E+00  0.0000000000000E+00  0.0000000000000E+00  0.0000000000000E+00  0.0000000000000E+00 
 0.0000000000000E+00  0.0000000000000E+00  0.0000000000000E+00  0.0000000000000E+00  0.0000000000000E+00  0.0000000000000E+00  0.0000000000000E+00  0.0000000000000E+00  0.0000000000000E+00  0.0000000000000E+00 
ZONE T = "CATH, 4.0000E-08", I = 10, SOLUTIONTIME = 4.000000E-08
ZONETYPE = ORDERED
DATAPACKING = BLOCK
STRANDID = 3
 1.2700000000000E-03  1.3377333333333E-03  1.4054666666667E-03  1.4732000000000E-03  1.5409333333333E-03  1.6086666666667E-03  1.6764000000000E-03  1.7441333333333E-03  1.8118666666667E-03  1.8796000000000E-03 
 9.8026367295892E-09  8.6499434440783E-09  7.4971798142147E-09  6.3446605033366E-09  5.1919737393936E-09  4.0390709299822E-09  2.8859034464604E-09  1.7324226157770E-09  5.7857971228523E-10  1.4528309111214E-12 
 9.2000000000063E-01  9.2000000000179E-01  9.2000000000179E-01  9.2000000000179E-01  9.2000000000179E-01  9.2000000000179E-01  9.2000000000179E-01  9.2000000000179E-01  9.2000000000179E-01  9.2000000000179E-01 
 3.9999999999684E-02  3.9999999999106E-02  3.9999999999106E-02  3.9999999999105E-02  3.9999999999105E-02  3.9999999999105E-02  3.9999999999105E-02  3.9999999999105E-02  3.9999999999104E-02  3.9999999999104E-02 
 3.9999999999684E-02  3.9999999999106E-02  3.9999999999106E-02  3.9999999999105E-02  3.9999999999105E-02  3.9999999999105E-02  3.9999999999105E-02  3.9999999999105E-02  3.9999999999104E-02  3.9999999999104E-02 
 3.5028626930337E-02  3.5028523971317E-02  3.5028433118137E-02  3.5028354371537E-02  3.5028287732766E-02  3.5028233203582E-02  3.5028190786256E-02  3.5028160483568E-02  3.5028142298809E-02  3.5028136235784E-02 
 3.8418325729739E+00  3.8418315005719E+00  3.8418282833254E+00  3.8418229211033E+00  3.8418154136845E+00  3.8418057607572E+00  3.8417939619193E+00  3.8417800166782E+00  3.8417639244506E+00  3.8417456845625E+00 
 3.8068039460436E+00  3.8068029766006E+00  3.8067998502072E+00  3.8067945667318E+00  3.8067871259517E+00  3.8067775275536E+00  3.8067657711331E+00  3.8067518561946E+00  3.8067357821518E+00  3.8067175483268E+00 
 3.9714142713285E+00  3.9714142713282E+00  3.9714142713282E+00  3.9714142713282E+00  3.9714142713282E+00  3.9714142713282E+00  3.9714142713282E+00  3.9714142713282E+00  3.9714142713282E+00  3.9714142713282E+00 
-1.6461032528495E-01 -1.6461129472754E-01 -1.6461442112091E-01 -1.6461970459635E-01 -1.6462714537642E-01 -1.6463674377453E-01 -1.6464850019511E-01 -1.6466241513355E-01 -1.6467848917640E-01 -1.6469672300139E-01 
-8.2970784144767E-01 -1.6594470935431E+00 -1.6595483950138E+00 -1.6597196042720E+00 -1.6599607500229E+00 -1.6602718727051E+00 -1.6606530245050E+00 -1.6611042693753E+00 -1.6616256830581E+00 -8.3110867655586E-01 