TITLE = "Solution on Domain BulkDomain1D_2"
VARIABLES = "x [m]"  
"Vel_axial" 	"MF_sp(ECDMC)" 	"MF_sp(Li+)" 	"MF_sp(PF6-)" 	"Volt(Electroly)" 	"Volt(CathodeVo)" 	"Temperature" 	
"Potential Drop Electrode-Electrolyte [V]" 	"Surf_0 Equilibrium Potential Drop Electrode-Electrolyte [V]" 	"Overpotential_0 [V]" 	"Current Source [A/m^2]" 	"Li+ flux [kmol/m^2/s]" 	"Electrolyte Current [A/m^2]" 	"Electrode Current [A/m^2]" 	
"Capacity discharged [A-s]" 	"Depth of discharge [-]" 	"Capacity remaining [A-s]" 	"Initial capacity [A-s]" 	"Porosity []" 	"Surface Area [m2/m2] (area per area)" 	"Specific current (per particle area) [A/m^2]" 	"Control volume thickness [m]" 	
"Moles LiCoO2 [mol/m^2] (per electrode area)" 	"Moles CoO2 [mol/m^2] (per electrode area)" 	"qHeat_accum [J/m3]" 	"qHeat_step [W/m3]" 	"Joule_Lyte [W/m3]" 	"Joule_Solid [W/m3]" 	"electrodHeat [W/m3]" 	"OverpotHeat [W/m3]" 	"deltaSHeat [W/m3]" 	

ZONE T = "t = 0 [s]" I = 10 SOLUTIONTIME = 0.0000000000000E+00
0.00127 	0 	0.92 	0.04 	0.04 	-0.07 	3.8 	298.15 	
0 	0 	0 	0 	0 	0.119132 	0 	
0 	0 	0 	0 	0.35 	6.604 	-0.0360787 	3.38667e-05 	
0.000900955 	0.000600637 	0 	0.0 	 0.0 	 0.0 	 0.0 	 0.0 	 0.0 	 
0.00133773 	0 	0.92 	0.04 	0.04 	-0.07 	3.8 	298.15 	
0 	0 	0 	0 	0 	0 	-0 	
0 	0 	0 	0 	0.35 	13.208 	-0.0360787 	6.77333e-05 	
0.00180191 	0.00120127 	0 	0.0 	 0.0 	 0.0 	 0.0 	 0.0 	 0.0 	 
0.00140547 	0 	0.92 	0.04 	0.04 	-0.07 	3.8 	298.15 	
0 	0 	0 	0 	0 	0 	-0 	
0 	0 	0 	0 	0.35 	13.208 	-0.0360787 	6.77333e-05 	
0.00180191 	0.00120127 	0 	0.0 	 0.0 	 0.0 	 0.0 	 0.0 	 0.0 	 
0.0014732 	0 	0.92 	0.04 	0.04 	-0.07 	3.8 	298.15 	
0 	0 	0 	0 	0 	0 	-0 	
0 	0 	0 	0 	0.35 	13.208 	-0.0360787 	6.77333e-05 	
0.00180191 	0.00120127 	0 	0.0 	 0.0 	 0.0 	 0.0 	 0.0 	 0.0 	 
0.00154093 	0 	0.92 	0.04 	0.04 	-0.07 	3.8 	298.15 	
0 	0 	0 	0 	0 	0 	-0 	
0 	0 	0 	0 	0.35 	13.208 	-0.0360787 	6.77333e-05 	
0.00180191 	0.00120127 	0 	0.0 	 0.0 	 0.0 	 0.0 	 0.0 	 0.0 	 
0.00160867 	0 	0.92 	0.04 	0.04 	-0.07 	3.8 	298.15 	
0 	0 	0 	0 	0 	0 	-0 	
0 	0 	0 	0 	0.35 	13.208 	-0.0360787 	6.77333e-05 	
0.00180191 	0.00120127 	0 	0.0 	 0.0 	 0.0 	 0.0 	 0.0 	 0.0 	 
0.0016764 	0 	0.92 	0.04 	0.04 	-0.07 	3.8 	298.15 	
0 	0 	0 	0 	0 	0 	-0 	
0 	0 	0 	0 	0.35 	13.208 	-0.0360787 	6.77333e-05 	
0.00180191 	0.00120127 	0 	0.0 	 0.0 	 0.0 	 0.0 	 0.0 	 0.0 	 
0.00174413 	0 	0.92 	0.04 	0.04 	-0.07 	3.8 	298.15 	
0 	0 	0 	0 	0 	0 	-0 	
0 	0 	0 	0 	0.35 	13.208 	-0.0360787 	6.77333e-05 	
0.00180191 	0.00120127 	0 	0.0 	 0.0 	 0.0 	 0.0 	 0.0 	 0.0 	 
0.00181187 	0 	0.92 	0.04 	0.04 	-0.07 	3.8 	298.15 	
0 	0 	0 	0 	0 	0 	-0 	
0 	0 	0 	0 	0.35 	13.208 	-0.0360787 	6.77333e-05 	
0.00180191 	0.00120127 	0 	0.0 	 0.0 	 0.0 	 0.0 	 0.0 	 0.0 	 
0.0018796 	0 	0.92 	0.04 	0.04 	-0.07 	3.8 	298 	
0 	0 	0 	0 	0 	0 	0.117621 	
0 	0 	0 	0 	0.35 	6.604 	-0.0356212 	3.38667e-05 	
0.000900955 	0.000600637 	0 	0.0 	 0.0 	 0.0 	 0.0 	 0.0 	 0.0 	 
ZONE T = "t = 1e-08 [s]" I = 10 SOLUTIONTIME = 1.0000000000000E-08
0.00127 	2.1146e-08 	0.92 	0.04 	0.04 	0.0342607 	3.8002 	299.284 	
3.87 	3.97141 	-0.101414 	-0.238264 	-0 	33.4684 	1.00604 	
-0 	7244.08 	123.46 	141.616 	0.35 	6.604 	-0.304676 	3.38667e-05 	
0.000900955 	0.000600637 	1.40731e+06 	1.40731e+14 	0.113902 	0.0772541 	1.40731e+14 	1.40731e+14 	0 	
0.00133773 	1.56209e-08 	0.92 	0.04 	0.04 	0.0342604 	3.8002 	299.137 	
3.87 	3.97141 	-0.101414 	-0.476527 	-0 	30.4732 	4.00122 	
-0 	14488.2 	246.919 	283.231 	0.35 	13.208 	-0.301202 	6.77333e-05 	
0.00180191 	0.00120127 	1.22531e+06 	1.22531e+14 	0.100777 	0.381004 	1.22531e+14 	1.22531e+14 	0 	
0.00140547 	1.01575e-08 	0.92 	0.04 	0.04 	0.0342602 	3.80019 	298.992 	
3.87 	3.97141 	-0.101414 	-0.476527 	-0 	26.5173 	7.95714 	
-0 	14488.2 	246.919 	283.231 	0.35 	13.208 	-0.297817 	6.77333e-05 	
0.00180191 	0.00120127 	1.04457e+06 	1.04457e+14 	0.076368 	1.28203 	1.04457e+14 	1.04457e+14 	0 	
0.0014732 	4.75504e-09 	0.92 	0.04 	0.04 	0.0342601 	3.80018 	298.847 	
3.87 	3.97141 	-0.101414 	-0.476527 	-0 	22.6055 	11.8689 	
-0 	14488.2 	246.919 	283.231 	0.35 	13.208 	-0.29452 	6.77333e-05 	
0.00180191 	0.00120127 	865094 	8.65094e+13 	0.0555769 	2.76034 	8.65094e+13 	8.65094e+13 	0 	
0.00154093 	-5.88897e-10 	0.92 	0.04 	0.04 	0.0342599 	3.80016 	298.703 	
3.87 	3.97141 	-0.101414 	-0.476527 	-0 	18.7367 	15.7377 	
-0 	14488.2 	246.919 	283.231 	0.35 	13.208 	-0.291307 	6.77333e-05 	
0.00180191 	0.00120127 	686858 	6.86858e+13 	0.0382823 	4.79685 	6.86858e+13 	6.86858e+13 	0 	
0.00160867 	-5.87505e-09 	0.92 	0.04 	0.04 	0.0342598 	3.80014 	298.561 	
3.87 	3.97141 	-0.101414 	-0.476527 	-0 	14.9098 	19.5646 	
-0 	14488.2 	246.919 	283.231 	0.35 	13.208 	-0.288177 	6.77333e-05 	
0.00180191 	0.00120127 	509850 	5.0985e+13 	0.0243678 	7.37333 	5.0985e+13 	5.0985e+13 	0 	
0.0016764 	-1.11053e-08 	0.92 	0.04 	0.04 	0.0342597 	3.80011 	298.419 	
3.87 	3.97141 	-0.101414 	-0.476527 	-0 	11.1237 	23.3507 	
-0 	14488.2 	246.919 	283.231 	0.35 	13.208 	-0.285127 	6.77333e-05 	
0.00180191 	0.00120127 	334059 	3.34059e+13 	0.0137222 	10.4724 	3.34059e+13 	3.34059e+13 	0 	
0.00174413 	-1.6281e-08 	0.92 	0.04 	0.04 	0.0342596 	3.80008 	298.279 	
3.87 	3.97141 	-0.101414 	-0.476527 	-0 	7.37738 	27.0971 	
-0 	14488.2 	246.919 	283.231 	0.35 	13.208 	-0.282155 	6.77333e-05 	
0.00180191 	0.00120127 	159471 	1.59471e+13 	0.00623918 	14.0774 	1.59471e+13 	1.59471e+13 	0 	
0.00181187 	-2.14035e-08 	0.92 	0.04 	0.04 	0.0342596 	3.80004 	298.139 	
3.87 	3.97141 	-0.101414 	-0.476527 	-0 	3.66981 	30.8047 	
-0 	14488.2 	246.919 	283.231 	0.35 	13.208 	-0.279259 	6.77333e-05 	
0.00180191 	0.00120127 	-13927.5 	-1.39275e+12 	0.00181708 	18.1726 	-1.39275e+12 	-1.39275e+12 	0 	
0.0018796 	0 	0.92 	0.04 	0.04 	0.0342596 	3.8 	298 	
3.87 	3.97154 	-0.101535 	-0.235242 	-0 	0.912791 	33.5617 	
-0 	7244.08 	123.46 	141.616 	0.35 	6.604 	-0.276436 	3.38667e-05 	
0.000900955 	0.000600637 	0.000111098 	11109.8 	0.000358851 	20.3407 	11089.5 	11089.5 	0 	
ZONE T = "t = 2e-08 [s]" I = 10 SOLUTIONTIME = 2.0000000000000E-08
0.00127 	2.11447e-08 	0.92 	0.04 	0.04 	0.0342607 	3.8002 	299.284 	
3.76594 	3.9705 	-0.204555 	-2.01208 	1.68225e-07 	33.4684 	1.00604 	
5.04288e-11 	7244.08 	123.46 	141.616 	0.35 	6.604 	-0.304676 	3.38667e-05 	
0.000900955 	0.000600637 	1.40731e+06 	690312 	0.113902 	0.0772541 	690312 	690312 	0 	
0.00133773 	1.56193e-08 	0.92 	0.04 	0.04 	0.0342604 	3.8002 	299.137 	
3.76594 	3.97062 	-0.204676 	-3.97827 	1.47608e-07 	30.4732 	4.00122 	
9.97074e-11 	14488.2 	246.919 	283.231 	0.35 	13.208 	-0.301202 	6.77333e-05 	
0.00180191 	0.00120127 	1.22531e+06 	614800 	0.100777 	0.381004 	614799 	614799 	0 	
0.00140547 	1.01566e-08 	0.92 	0.04 	0.04 	0.0342602 	3.80019 	298.992 	
3.76593 	3.97073 	-0.204801 	-3.93357 	1.27224e-07 	26.5173 	7.95714 	
9.8587e-11 	14488.2 	246.919 	283.231 	0.35 	13.208 	-0.297817 	6.77333e-05 	
0.00180191 	0.00120127 	1.04457e+06 	539236 	0.076368 	1.28203 	539235 	539235 	0 	
0.0014732 	4.75413e-09 	0.92 	0.04 	0.04 	0.0342601 	3.80018 	298.847 	
3.76592 	3.97085 	-0.204931 	-3.89002 	1.07066e-07 	22.6055 	11.8689 	
9.74955e-11 	14488.2 	246.919 	283.231 	0.35 	13.208 	-0.29452 	6.77333e-05 	
0.00180191 	0.00120127 	865094 	464146 	0.0555769 	2.76034 	464143 	464143 	0 	
0.00154093 	-5.89441e-10 	0.92 	0.04 	0.04 	0.0342599 	3.80016 	298.703 	
3.7659 	3.97097 	-0.205064 	-3.84759 	8.71269e-08 	18.7367 	15.7377 	
9.6432e-11 	14488.2 	246.919 	283.231 	0.35 	13.208 	-0.291307 	6.77333e-05 	
0.00180191 	0.00120127 	686858 	388464 	0.0382823 	4.79685 	388459 	388459 	0 	
0.00160867 	-5.87596e-09 	0.92 	0.04 	0.04 	0.0342598 	3.80014 	298.561 	
3.76588 	3.97108 	-0.205202 	-3.80624 	6.74025e-08 	14.9098 	19.5646 	
9.53959e-11 	14488.2 	246.919 	283.231 	0.35 	13.208 	-0.288177 	6.77333e-05 	
0.00180191 	0.00120127 	509850 	313146 	0.0243678 	7.37333 	313139 	313139 	0 	
0.0016764 	-1.11062e-08 	0.92 	0.04 	0.04 	0.0342597 	3.80011 	298.419 	
3.76585 	3.9712 	-0.205344 	-3.76596 	4.78867e-08 	11.1237 	23.3507 	
9.43863e-11 	14488.2 	246.919 	283.231 	0.35 	13.208 	-0.285127 	6.77333e-05 	
0.00180191 	0.00120127 	334059 	237496 	0.0137222 	10.4724 	237485 	237485 	0 	
0.00174413 	-1.62819e-08 	0.92 	0.04 	0.04 	0.0342596 	3.80008 	298.279 	
3.76582 	3.97131 	-0.205491 	-3.72671 	2.85744e-08 	7.37738 	27.0971 	
9.34024e-11 	14488.2 	246.919 	283.231 	0.35 	13.208 	-0.282155 	6.77333e-05 	
0.00180191 	0.00120127 	159471 	161514 	0.00623918 	14.0774 	161500 	161500 	0 	
0.00181187 	-2.14044e-08 	0.92 	0.04 	0.04 	0.0342596 	3.80004 	298.139 	
3.76578 	3.97142 	-0.205641 	-3.68845 	9.46078e-09 	3.66981 	30.8047 	
9.24436e-11 	14488.2 	246.919 	283.231 	0.35 	13.208 	-0.279259 	6.77333e-05 	
0.00180191 	0.00120127 	-13927.5 	86546.2 	0.00181708 	18.1726 	86528 	86528 	0 	
0.0018796 	0 	0.92 	0.04 	0.04 	0.0342596 	3.8 	298 	
3.76574 	3.97154 	-0.205795 	-1.82558 	9.46078e-09 	0.912791 	33.5617 	
4.57546e-11 	7244.08 	123.46 	141.616 	0.35 	6.604 	-0.276436 	3.38667e-05 	
0.000900955 	0.000600637 	0.000224876 	11377.7 	0.000358851 	20.3407 	11357.4 	11357.4 	0 	
ZONE T = "t = 3e-08 [s]" I = 10 SOLUTIONTIME = 3.0000000000000E-08
0.00127 	2.11447e-08 	0.92 	0.04 	0.04 	0.0342607 	3.8002 	299.284 	
3.76594 	3.9705 	-0.204555 	-2.01208 	1.68225e-07 	33.4684 	1.00604 	
1.00858e-10 	7244.08 	123.46 	141.616 	0.35 	6.604 	-0.304676 	3.38667e-05 	
0.000900955 	0.000600637 	1.40731e+06 	690421 	0.113902 	0.0772541 	690420 	690420 	0 	
0.00133773 	1.56196e-08 	0.92 	0.04 	0.04 	0.0342604 	3.8002 	299.137 	
3.76594 	3.97062 	-0.204676 	-3.97827 	1.47608e-07 	30.4732 	4.00122 	
1.99415e-10 	14488.2 	246.919 	283.231 	0.35 	13.208 	-0.301202 	6.77333e-05 	
0.00180191 	0.00120127 	1.22531e+06 	614913 	0.100777 	0.381004 	614912 	614912 	0 	
0.00140547 	1.01563e-08 	0.92 	0.04 	0.04 	0.0342602 	3.80019 	298.992 	
3.76593 	3.97073 	-0.204801 	-3.93357 	1.27224e-07 	26.5173 	7.95714 	
1.97174e-10 	14488.2 	246.919 	283.231 	0.35 	13.208 	-0.297817 	6.77333e-05 	
0.00180191 	0.00120127 	1.04457e+06 	539349 	0.076368 	1.28203 	539348 	539348 	0 	
0.0014732 	4.75341e-09 	0.92 	0.04 	0.04 	0.0342601 	3.80018 	298.847 	
3.76592 	3.97085 	-0.204931 	-3.89002 	1.07066e-07 	22.6055 	11.8689 	
1.94991e-10 	14488.2 	246.919 	283.231 	0.35 	13.208 	-0.29452 	6.77333e-05 	
0.00180191 	0.00120127 	865094 	463740 	0.0555769 	2.76034 	463737 	463737 	0 	
0.00154093 	-5.89441e-10 	0.92 	0.04 	0.04 	0.0342599 	3.80016 	298.703 	
3.7659 	3.97097 	-0.205064 	-3.84759 	8.71269e-08 	18.7367 	15.7377 	
1.92864e-10 	14488.2 	246.919 	283.231 	0.35 	13.208 	-0.291307 	6.77333e-05 	
0.00180191 	0.00120127 	686858 	388334 	0.0382823 	4.79685 	388330 	388330 	0 	
0.00160867 	-5.8756e-09 	0.92 	0.04 	0.04 	0.0342598 	3.80014 	298.561 	
3.76588 	3.97108 	-0.205202 	-3.80624 	6.74024e-08 	14.9098 	19.5646 	
1.90792e-10 	14488.2 	246.919 	283.231 	0.35 	13.208 	-0.288177 	6.77333e-05 	
0.00180191 	0.00120127 	509850 	313017 	0.0243678 	7.37333 	313009 	313009 	0 	
0.0016764 	-1.11058e-08 	0.92 	0.04 	0.04 	0.0342597 	3.80011 	298.419 	
3.76585 	3.9712 	-0.205344 	-3.76596 	4.78867e-08 	11.1237 	23.3507 	
1.88773e-10 	14488.2 	246.919 	283.231 	0.35 	13.208 	-0.285127 	6.77333e-05 	
0.00180191 	0.00120127 	334059 	237215 	0.0137222 	10.4724 	237205 	237205 	0 	
0.00174413 	-1.62815e-08 	0.92 	0.04 	0.04 	0.0342596 	3.80008 	298.279 	
3.76582 	3.97131 	-0.205491 	-3.72671 	2.85744e-08 	7.37738 	27.0971 	
1.86805e-10 	14488.2 	246.919 	283.231 	0.35 	13.208 	-0.282155 	6.77333e-05 	
0.00180191 	0.00120127 	159471 	162046 	0.00623918 	14.0774 	162031 	162031 	0 	
0.00181187 	-2.14041e-08 	0.92 	0.04 	0.04 	0.0342596 	3.80004 	298.139 	
3.76578 	3.97142 	-0.205641 	-3.68845 	9.46114e-09 	3.66981 	30.8047 	
1.84887e-10 	14488.2 	246.919 	283.231 	0.35 	13.208 	-0.279259 	6.77333e-05 	
0.00180191 	0.00120127 	-13927.5 	86131.8 	0.00181708 	18.1726 	86113.6 	86113.6 	0 	
0.0018796 	0 	0.92 	0.04 	0.04 	0.0342596 	3.8 	298 	
3.76574 	3.97154 	-0.205795 	-1.82558 	9.46114e-09 	0.912791 	33.5617 	
9.15091e-11 	7244.08 	123.46 	141.616 	0.35 	6.604 	-0.276436 	3.38667e-05 	
0.000900955 	0.000600637 	0.000333295 	10842 	0.000358851 	20.3407 	10821.6 	10821.6 	0 	
ZONE T = "t = 4e-08 [s]" I = 10 SOLUTIONTIME = 4.0000000000000E-08
0.00127 	2.1147e-08 	0.92 	0.04 	0.04 	0.0342607 	3.8002 	299.284 	
3.76594 	3.9705 	-0.204555 	-2.01208 	1.68225e-07 	33.4684 	1.00604 	
1.51287e-10 	7244.08 	123.46 	141.616 	0.35 	6.604 	-0.304676 	3.38667e-05 	
0.000900955 	0.000600637 	1.40731e+06 	689726 	0.113902 	0.0772541 	689726 	689726 	0 	
0.00133773 	1.5622e-08 	0.92 	0.04 	0.04 	0.0342604 	3.8002 	299.137 	
3.76594 	3.97062 	-0.204676 	-3.97827 	1.47608e-07 	30.4732 	4.00122 	
2.99122e-10 	14488.2 	246.919 	283.231 	0.35 	13.208 	-0.301202 	6.77333e-05 	
0.00180191 	0.00120127 	1.22531e+06 	614344 	0.100777 	0.381004 	614343 	614343 	0 	
0.00140547 	1.01594e-08 	0.92 	0.04 	0.04 	0.0342602 	3.80019 	298.992 	
3.76593 	3.97073 	-0.204801 	-3.93357 	1.27224e-07 	26.5173 	7.95714 	
2.95761e-10 	14488.2 	246.919 	283.231 	0.35 	13.208 	-0.297817 	6.77333e-05 	
0.00180191 	0.00120127 	1.04457e+06 	539475 	0.076368 	1.28203 	539473 	539473 	0 	
0.0014732 	4.75686e-09 	0.92 	0.04 	0.04 	0.0342601 	3.80018 	298.847 	
3.76592 	3.97085 	-0.204931 	-3.89002 	1.07066e-07 	22.6055 	11.8689 	
2.92486e-10 	14488.2 	246.919 	283.231 	0.35 	13.208 	-0.29452 	6.77333e-05 	
0.00180191 	0.00120127 	865094 	463987 	0.0555769 	2.76034 	463984 	463984 	0 	
0.00154093 	-5.87081e-10 	0.92 	0.04 	0.04 	0.0342599 	3.80016 	298.703 	
3.7659 	3.97097 	-0.205064 	-3.84759 	8.71269e-08 	18.7367 	15.7377 	
2.89296e-10 	14488.2 	246.919 	283.231 	0.35 	13.208 	-0.291307 	6.77333e-05 	
0.00180191 	0.00120127 	686858 	388180 	0.0382823 	4.79685 	388175 	388175 	0 	
0.00160867 	-5.8736e-09 	0.92 	0.04 	0.04 	0.0342598 	3.80014 	298.561 	
3.76588 	3.97108 	-0.205202 	-3.80624 	6.74024e-08 	14.9098 	19.5646 	
2.86188e-10 	14488.2 	246.919 	283.231 	0.35 	13.208 	-0.288177 	6.77333e-05 	
0.00180191 	0.00120127 	509850 	312853 	0.0243678 	7.37333 	312846 	312846 	0 	
0.0016764 	-1.11038e-08 	0.92 	0.04 	0.04 	0.0342597 	3.80011 	298.419 	
3.76585 	3.9712 	-0.205344 	-3.76596 	4.78867e-08 	11.1237 	23.3507 	
2.83159e-10 	14488.2 	246.919 	283.231 	0.35 	13.208 	-0.285127 	6.77333e-05 	
0.00180191 	0.00120127 	334059 	237492 	0.0137222 	10.4724 	237481 	237481 	0 	
0.00174413 	-1.62795e-08 	0.92 	0.04 	0.04 	0.0342596 	3.80008 	298.279 	
3.76582 	3.97131 	-0.205491 	-3.72671 	2.85744e-08 	7.37738 	27.0971 	
2.80207e-10 	14488.2 	246.919 	283.231 	0.35 	13.208 	-0.282155 	6.77333e-05 	
0.00180191 	0.00120127 	159471 	162313 	0.00623918 	14.0774 	162299 	162299 	0 	
0.00181187 	-2.14021e-08 	0.92 	0.04 	0.04 	0.0342596 	3.80004 	298.139 	
3.76578 	3.97142 	-0.205641 	-3.68845 	9.46151e-09 	3.66981 	30.8047 	
2.77331e-10 	14488.2 	246.919 	283.231 	0.35 	13.208 	-0.279259 	6.77333e-05 	
0.00180191 	0.00120127 	-13927.5 	86140.2 	0.00181708 	18.1726 	86122 	86122 	0 	
0.0018796 	0 	0.92 	0.04 	0.04 	0.0342596 	3.8 	298 	
3.76574 	3.97154 	-0.205795 	-1.82558 	9.46151e-09 	0.912791 	33.5617 	
1.37264e-10 	7244.08 	123.46 	141.616 	0.35 	6.604 	-0.276436 	3.38667e-05 	
0.000900955 	0.000600637 	0.000444394 	11109.8 	0.000358851 	20.3407 	11089.5 	11089.5 	0 	
ZONE T = "t = 5.5e-08 [s]" I = 10 SOLUTIONTIME = 5.5000000000000E-08
0.00127 	2.11451e-08 	0.92 	0.04 	0.04 	0.0342607 	3.8002 	299.284 	
3.76594 	3.9705 	-0.204555 	-2.01208 	1.68225e-07 	33.4684 	1.00604 	
2.01715e-10 	7244.08 	123.46 	141.616 	0.35 	6.604 	-0.304676 	3.38667e-05 	
0.000900955 	0.000600637 	1.40731e+06 	690391 	0.113902 	0.0772541 	690391 	690391 	0 	
0.00133773 	1.56196e-08 	0.92 	0.04 	0.04 	0.0342604 	3.8002 	299.137 	
3.76594 	3.97062 	-0.204676 	-3.97827 	1.47608e-07 	30.4732 	4.00122 	
3.9883e-10 	14488.2 	246.919 	283.231 	0.35 	13.208 	-0.301202 	6.77333e-05 	
0.00180191 	0.00120127 	1.22531e+06 	614701 	0.100777 	0.381004 	614700 	614700 	0 	
0.00140547 	1.01566e-08 	0.92 	0.04 	0.04 	0.0342602 	3.80019 	298.992 	
3.76593 	3.97073 	-0.204801 	-3.93357 	1.27224e-07 	26.5173 	7.95714 	
3.94348e-10 	14488.2 	246.919 	283.231 	0.35 	13.208 	-0.297817 	6.77333e-05 	
0.00180191 	0.00120127 	1.04457e+06 	539045 	0.076368 	1.28203 	539044 	539044 	0 	
0.0014732 	4.75407e-09 	0.92 	0.04 	0.04 	0.0342601 	3.80018 	298.847 	
3.76592 	3.97085 	-0.204931 	-3.89002 	1.07066e-07 	22.6055 	11.8689 	
3.89982e-10 	14488.2 	246.919 	283.231 	0.35 	13.208 	-0.29452 	6.77333e-05 	
0.00180191 	0.00120127 	865094 	463343 	0.0555769 	2.76034 	463340 	463340 	0 	
0.00154093 	-5.89502e-10 	0.92 	0.04 	0.04 	0.0342599 	3.80016 	298.703 	
3.7659 	3.97097 	-0.205064 	-3.84759 	8.71269e-08 	18.7367 	15.7377 	
3.85728e-10 	14488.2 	246.919 	283.231 	0.35 	13.208 	-0.291307 	6.77333e-05 	
0.00180191 	0.00120127 	686858 	388393 	0.0382823 	4.79685 	388388 	388388 	0 	
0.00160867 	-5.87542e-09 	0.92 	0.04 	0.04 	0.0342598 	3.80014 	298.561 	
3.76588 	3.97108 	-0.205202 	-3.80624 	6.74024e-08 	14.9098 	19.5646 	
3.81584e-10 	14488.2 	246.919 	283.231 	0.35 	13.208 	-0.288177 	6.77333e-05 	
0.00180191 	0.00120127 	509850 	312853 	0.0243678 	7.37333 	312846 	312846 	0 	
0.0016764 	-1.11056e-08 	0.92 	0.04 	0.04 	0.0342597 	3.80011 	298.419 	
3.76585 	3.9712 	-0.205344 	-3.76596 	4.78867e-08 	11.1237 	23.3507 	
3.77545e-10 	14488.2 	246.919 	283.231 	0.35 	13.208 	-0.285127 	6.77333e-05 	
0.00180191 	0.00120127 	334059 	237605 	0.0137222 	10.4724 	237594 	237594 	0 	
0.00174413 	-1.62813e-08 	0.92 	0.04 	0.04 	0.0342596 	3.80008 	298.279 	
3.76582 	3.97131 	-0.205491 	-3.72671 	2.85744e-08 	7.37738 	27.0971 	
3.7361e-10 	14488.2 	246.919 	283.231 	0.35 	13.208 	-0.282155 	6.77333e-05 	
0.00180191 	0.00120127 	159471 	162037 	0.00623918 	14.0774 	162023 	162023 	0 	
0.00181187 	-2.14039e-08 	0.92 	0.04 	0.04 	0.0342596 	3.80004 	298.139 	
3.76578 	3.97142 	-0.205641 	-3.68845 	9.46188e-09 	3.66981 	30.8047 	
3.69774e-10 	14488.2 	246.919 	283.231 	0.35 	13.208 	-0.279259 	6.77333e-05 	
0.00180191 	0.00120127 	-13927.5 	86406.7 	0.00181708 	18.1726 	86388.5 	86388.5 	0 	
0.0018796 	0 	0.92 	0.04 	0.04 	0.0342596 	3.8 	298 	
3.76574 	3.97154 	-0.205795 	-1.82558 	9.46188e-09 	0.912791 	33.5617 	
1.83018e-10 	7244.08 	123.46 	141.616 	0.35 	6.604 	-0.276436 	3.38667e-05 	
0.000900955 	0.000600637 	0.000611648 	11150.3 	0.000358851 	20.3407 	11130 	11130 	0 	
ZONE T = "t = 7.75e-08 [s]" I = 10 SOLUTIONTIME = 7.7500000000000E-08
0.00127 	2.11434e-08 	0.92 	0.04 	0.04 	0.0342607 	3.8002 	299.284 	
3.76594 	3.9705 	-0.204555 	-2.01208 	1.68225e-07 	33.4684 	1.00604 	
2.77359e-10 	7244.08 	123.46 	141.616 	0.35 	6.604 	-0.304676 	3.38667e-05 	
0.000900955 	0.000600637 	1.40731e+06 	690129 	0.113902 	0.0772541 	690129 	690129 	0 	
0.00133773 	1.56183e-08 	0.92 	0.04 	0.04 	0.0342604 	3.8002 	299.137 	
3.76594 	3.97062 	-0.204676 	-3.97827 	1.47608e-07 	30.4732 	4.00122 	
5.48391e-10 	14488.2 	246.919 	283.231 	0.35 	13.208 	-0.301202 	6.77333e-05 	
0.00180191 	0.00120127 	1.22531e+06 	614745 	0.100777 	0.381004 	614745 	614745 	0 	
0.00140547 	1.0155e-08 	0.92 	0.04 	0.04 	0.0342602 	3.80019 	298.992 	
3.76593 	3.97073 	-0.204801 	-3.93357 	1.27224e-07 	26.5173 	7.95714 	
5.42228e-10 	14488.2 	246.919 	283.231 	0.35 	13.208 	-0.297817 	6.77333e-05 	
0.00180191 	0.00120127 	1.04457e+06 	539243 	0.076368 	1.28203 	539242 	539242 	0 	
0.0014732 	4.7527e-09 	0.92 	0.04 	0.04 	0.0342601 	3.80018 	298.847 	
3.76592 	3.97085 	-0.204931 	-3.89002 	1.07066e-07 	22.6055 	11.8689 	
5.36225e-10 	14488.2 	246.919 	283.231 	0.35 	13.208 	-0.29452 	6.77333e-05 	
0.00180191 	0.00120127 	865094 	463693 	0.0555769 	2.76034 	463690 	463690 	0 	
0.00154093 	-5.90874e-10 	0.92 	0.04 	0.04 	0.0342599 	3.80016 	298.703 	
3.7659 	3.97097 	-0.205064 	-3.84759 	8.71269e-08 	18.7367 	15.7377 	
5.30376e-10 	14488.2 	246.919 	283.231 	0.35 	13.208 	-0.291307 	6.77333e-05 	
0.00180191 	0.00120127 	686858 	388211 	0.0382823 	4.79685 	388206 	388206 	0 	
0.00160867 	-5.87719e-09 	0.92 	0.04 	0.04 	0.0342598 	3.80014 	298.561 	
3.76588 	3.97108 	-0.205202 	-3.80624 	6.74024e-08 	14.9098 	19.5646 	
5.24677e-10 	14488.2 	246.919 	283.231 	0.35 	13.208 	-0.288177 	6.77333e-05 	
0.00180191 	0.00120127 	509850 	312844 	0.0243678 	7.37333 	312837 	312837 	0 	
0.0016764 	-1.11074e-08 	0.92 	0.04 	0.04 	0.0342597 	3.80011 	298.419 	
3.76585 	3.9712 	-0.205344 	-3.76596 	4.78867e-08 	11.1237 	23.3507 	
5.19125e-10 	14488.2 	246.919 	283.231 	0.35 	13.208 	-0.285127 	6.77333e-05 	
0.00180191 	0.00120127 	334059 	237363 	0.0137222 	10.4724 	237352 	237352 	0 	
0.00174413 	-1.62831e-08 	0.92 	0.04 	0.04 	0.0342596 	3.80008 	298.279 	
3.76582 	3.97131 	-0.205491 	-3.72671 	2.85744e-08 	7.37738 	27.0971 	
5.13713e-10 	14488.2 	246.919 	283.231 	0.35 	13.208 	-0.282155 	6.77333e-05 	
0.00180191 	0.00120127 	159471 	161763 	0.00623918 	14.0774 	161749 	161749 	0 	
0.00181187 	-2.14055e-08 	0.92 	0.04 	0.04 	0.0342596 	3.80004 	298.139 	
3.76578 	3.97142 	-0.205641 	-3.68845 	9.46243e-09 	3.66981 	30.8047 	
5.0844e-10 	14488.2 	246.919 	283.231 	0.35 	13.208 	-0.279259 	6.77333e-05 	
0.00180191 	0.00120127 	-13927.4 	86698.7 	0.00181708 	18.1726 	86680.5 	86680.5 	0 	
0.0018796 	0 	0.92 	0.04 	0.04 	0.0342596 	3.8 	298 	
3.76574 	3.97154 	-0.205795 	-1.82558 	9.46243e-09 	0.912791 	33.5617 	
2.5165e-10 	7244.08 	123.46 	141.616 	0.35 	6.604 	-0.276436 	3.38667e-05 	
0.000900955 	0.000600637 	0.000862656 	11155.9 	0.000358851 	20.3407 	11135.5 	11135.5 	0 	
ZONE T = "t = 1.1125e-07 [s]" I = 10 SOLUTIONTIME = 1.1125000000000E-07
0.00127 	2.11459e-08 	0.92 	0.04 	0.04 	0.0342607 	3.8002 	299.284 	
3.76594 	3.9705 	-0.204555 	-2.01208 	1.68226e-07 	33.4684 	1.00604 	
3.90824e-10 	7244.08 	123.46 	141.616 	0.35 	6.604 	-0.304676 	3.38667e-05 	
0.000900955 	0.000600637 	1.40731e+06 	689977 	0.113902 	0.0772541 	689976 	689976 	0 	
0.00133773 	1.56209e-08 	0.92 	0.04 	0.04 	0.0342604 	3.8002 	299.137 	
3.76594 	3.97062 	-0.204676 	-3.97827 	1.47608e-07 	30.4732 	4.00122 	
7.72733e-10 	14488.2 	246.919 	283.231 	0.35 	13.208 	-0.301202 	6.77333e-05 	
0.00180191 	0.00120127 	1.22531e+06 	614611 	0.100777 	0.381004 	614610 	614610 	0 	
0.00140547 	1.0158e-08 	0.92 	0.04 	0.04 	0.0342602 	3.80019 	298.992 	
3.76593 	3.97073 	-0.204801 	-3.93357 	1.27224e-07 	26.5173 	7.95714 	
7.64049e-10 	14488.2 	246.919 	283.231 	0.35 	13.208 	-0.297817 	6.77333e-05 	
0.00180191 	0.00120127 	1.04457e+06 	539036 	0.076368 	1.28203 	539034 	539034 	0 	
0.0014732 	4.7555e-09 	0.92 	0.04 	0.04 	0.0342601 	3.80018 	298.847 	
3.76592 	3.97085 	-0.204931 	-3.89002 	1.07066e-07 	22.6055 	11.8689 	
7.5559e-10 	14488.2 	246.919 	283.231 	0.35 	13.208 	-0.29452 	6.77333e-05 	
0.00180191 	0.00120127 	865094 	463648 	0.0555769 	2.76034 	463645 	463645 	0 	
0.00154093 	-5.88076e-10 	0.92 	0.04 	0.04 	0.0342599 	3.80016 	298.703 	
3.7659 	3.97097 	-0.205064 	-3.84759 	8.71269e-08 	18.7367 	15.7377 	
7.47348e-10 	14488.2 	246.919 	283.231 	0.35 	13.208 	-0.291307 	6.77333e-05 	
0.00180191 	0.00120127 	686858 	388205 	0.0382823 	4.79685 	388200 	388200 	0 	
0.00160867 	-5.87423e-09 	0.92 	0.04 	0.04 	0.0342598 	3.80014 	298.561 	
3.76588 	3.97108 	-0.205202 	-3.80624 	6.74024e-08 	14.9098 	19.5646 	
7.39318e-10 	14488.2 	246.919 	283.231 	0.35 	13.208 	-0.288177 	6.77333e-05 	
0.00180191 	0.00120127 	509851 	312907 	0.0243678 	7.37333 	312899 	312899 	0 	
0.0016764 	-1.11044e-08 	0.92 	0.04 	0.04 	0.0342597 	3.80011 	298.419 	
3.76585 	3.9712 	-0.205344 	-3.76596 	4.78867e-08 	11.1237 	23.3507 	
7.31494e-10 	14488.2 	246.919 	283.231 	0.35 	13.208 	-0.285127 	6.77333e-05 	
0.00180191 	0.00120127 	334059 	237396 	0.0137222 	10.4724 	237385 	237385 	0 	
0.00174413 	-1.62801e-08 	0.92 	0.04 	0.04 	0.0342596 	3.80008 	298.279 	
3.76582 	3.97131 	-0.205491 	-3.72671 	2.85744e-08 	7.37738 	27.0971 	
7.23869e-10 	14488.2 	246.919 	283.231 	0.35 	13.208 	-0.282155 	6.77333e-05 	
0.00180191 	0.00120127 	159471 	161814 	0.00623918 	14.0774 	161800 	161800 	0 	
0.00181187 	-2.14028e-08 	0.92 	0.04 	0.04 	0.0342596 	3.80004 	298.139 	
3.76578 	3.97142 	-0.205641 	-3.68845 	9.46325e-09 	3.66981 	30.8047 	
7.16438e-10 	14488.2 	246.919 	283.231 	0.35 	13.208 	-0.279259 	6.77333e-05 	
0.00180191 	0.00120127 	-13927.4 	86578.4 	0.00181708 	18.1726 	86560.2 	86560.2 	0 	
0.0018796 	0 	0.92 	0.04 	0.04 	0.0342596 	3.8 	298 	
3.76574 	3.97154 	-0.205795 	-1.82558 	9.46325e-09 	0.912791 	33.5617 	
3.54598e-10 	7244.08 	123.46 	141.616 	0.35 	6.604 	-0.276436 	3.38667e-05 	
0.000900955 	0.000600637 	0.0012391 	11154 	0.000358851 	20.3407 	11133.7 	11133.7 	0 	
ZONE T = "t = 1.61875e-07 [s]" I = 10 SOLUTIONTIME = 1.6187500000000E-07
0.00127 	2.11447e-08 	0.92 	0.04 	0.04 	0.0342607 	3.8002 	299.284 	
3.76594 	3.9705 	-0.204555 	-2.01208 	1.68226e-07 	33.4684 	1.00604 	
5.61021e-10 	7244.08 	123.46 	141.616 	0.35 	6.604 	-0.304676 	3.38667e-05 	
0.000900955 	0.000600637 	1.40731e+06 	690125 	0.113902 	0.0772541 	690125 	690125 	0 	
0.00133773 	1.56197e-08 	0.92 	0.04 	0.04 	0.0342604 	3.8002 	299.137 	
3.76594 	3.97062 	-0.204676 	-3.97827 	1.47608e-07 	30.4732 	4.00122 	
1.10925e-09 	14488.2 	246.919 	283.231 	0.35 	13.208 	-0.301202 	6.77333e-05 	
0.00180191 	0.00120127 	1.22531e+06 	614515 	0.100777 	0.381004 	614514 	614514 	0 	
0.00140547 	1.01568e-08 	0.92 	0.04 	0.04 	0.0342602 	3.80019 	298.992 	
3.76593 	3.97073 	-0.204801 	-3.93357 	1.27224e-07 	26.5173 	7.95714 	
1.09678e-09 	14488.2 	246.919 	283.231 	0.35 	13.208 	-0.297817 	6.77333e-05 	
0.00180191 	0.00120127 	1.04457e+06 	539120 	0.076368 	1.28203 	539118 	539118 	0 	
0.0014732 	4.75428e-09 	0.92 	0.04 	0.04 	0.0342601 	3.80018 	298.847 	
3.76592 	3.97085 	-0.204931 	-3.89002 	1.07066e-07 	22.6055 	11.8689 	
1.08464e-09 	14488.2 	246.919 	283.231 	0.35 	13.208 	-0.29452 	6.77333e-05 	
0.00180191 	0.00120127 	865094 	463642 	0.0555769 	2.76034 	463639 	463639 	0 	
0.00154093 	-5.89296e-10 	0.92 	0.04 	0.04 	0.0342599 	3.80016 	298.703 	
3.7659 	3.97097 	-0.205064 	-3.84759 	8.71269e-08 	18.7367 	15.7377 	
1.07281e-09 	14488.2 	246.919 	283.231 	0.35 	13.208 	-0.291307 	6.77333e-05 	
0.00180191 	0.00120127 	686858 	388139 	0.0382823 	4.79685 	388134 	388134 	0 	
0.00160867 	-5.87538e-09 	0.92 	0.04 	0.04 	0.0342598 	3.80014 	298.561 	
3.76588 	3.97108 	-0.205202 	-3.80624 	6.74024e-08 	14.9098 	19.5646 	
1.06128e-09 	14488.2 	246.919 	283.231 	0.35 	13.208 	-0.288177 	6.77333e-05 	
0.00180191 	0.00120127 	509851 	312794 	0.0243678 	7.37333 	312787 	312787 	0 	
0.0016764 	-1.11056e-08 	0.92 	0.04 	0.04 	0.0342597 	3.80011 	298.419 	
3.76585 	3.9712 	-0.205344 	-3.76596 	4.78867e-08 	11.1237 	23.3507 	
1.05005e-09 	14488.2 	246.919 	283.231 	0.35 	13.208 	-0.285127 	6.77333e-05 	
0.00180191 	0.00120127 	334059 	237359 	0.0137222 	10.4724 	237349 	237349 	0 	
0.00174413 	-1.62812e-08 	0.92 	0.04 	0.04 	0.0342596 	3.80008 	298.279 	
3.76582 	3.97131 	-0.205491 	-3.72671 	2.85744e-08 	7.37738 	27.0971 	
1.0391e-09 	14488.2 	246.919 	283.231 	0.35 	13.208 	-0.282155 	6.77333e-05 	
0.00180191 	0.00120127 	159471 	162004 	0.00623918 	14.0774 	161990 	161990 	0 	
0.00181187 	-2.14038e-08 	0.92 	0.04 	0.04 	0.0342596 	3.80004 	298.139 	
3.76578 	3.97142 	-0.205641 	-3.68845 	9.46449e-09 	3.66981 	30.8047 	
1.02843e-09 	14488.2 	246.919 	283.231 	0.35 	13.208 	-0.279259 	6.77333e-05 	
0.00180191 	0.00120127 	-13927.4 	86532.5 	0.00181708 	18.1726 	86514.4 	86514.4 	0 	
0.0018796 	0 	0.92 	0.04 	0.04 	0.0342596 	3.8 	298 	
3.76574 	3.97154 	-0.205795 	-1.82558 	9.46449e-09 	0.912791 	33.5617 	
5.09019e-10 	7244.08 	123.46 	141.616 	0.35 	6.604 	-0.276436 	3.38667e-05 	
0.000900955 	0.000600637 	0.00180114 	11101.9 	0.000358851 	20.3407 	11081.6 	11081.6 	0 	
ZONE T = "t = 2.37813e-07 [s]" I = 10 SOLUTIONTIME = 2.3781250000000E-07
0.00127 	2.11445e-08 	0.92 	0.04 	0.04 	0.0342607 	3.8002 	299.284 	
3.76594 	3.9705 	-0.204555 	-2.01208 	1.68227e-07 	33.4684 	1.00604 	
8.16317e-10 	7244.08 	123.46 	141.616 	0.35 	6.604 	-0.304676 	3.38667e-05 	
0.000900955 	0.000600637 	1.40731e+06 	689905 	0.113902 	0.0772541 	689905 	689905 	0 	
0.00133773 	1.56193e-08 	0.92 	0.04 	0.04 	0.0342604 	3.8002 	299.137 	
3.76594 	3.97062 	-0.204676 	-3.97827 	1.47608e-07 	30.4732 	4.00122 	
1.61401e-09 	14488.2 	246.919 	283.231 	0.35 	13.208 	-0.301202 	6.77333e-05 	
0.00180191 	0.00120127 	1.22531e+06 	614463 	0.100777 	0.381004 	614462 	614462 	0 	
0.00140547 	1.01563e-08 	0.92 	0.04 	0.04 	0.0342602 	3.80019 	298.992 	
3.76593 	3.97073 	-0.204801 	-3.93357 	1.27224e-07 	26.5173 	7.95714 	
1.59588e-09 	14488.2 	246.919 	283.231 	0.35 	13.208 	-0.297817 	6.77333e-05 	
0.00180191 	0.00120127 	1.04457e+06 	538986 	0.076368 	1.28203 	538985 	538985 	0 	
0.0014732 	4.75381e-09 	0.92 	0.04 	0.04 	0.0342601 	3.80018 	298.847 	
3.76592 	3.97085 	-0.204931 	-3.89002 	1.07066e-07 	22.6055 	11.8689 	
1.57821e-09 	14488.2 	246.919 	283.231 	0.35 	13.208 	-0.29452 	6.77333e-05 	
0.00180191 	0.00120127 	865094 	463494 	0.0555769 	2.76034 	463491 	463491 	0 	
0.00154093 	-5.89762e-10 	0.92 	0.04 	0.04 	0.0342599 	3.80016 	298.703 	
3.7659 	3.97097 	-0.205064 	-3.84759 	8.71269e-08 	18.7367 	15.7377 	
1.56099e-09 	14488.2 	246.919 	283.231 	0.35 	13.208 	-0.291307 	6.77333e-05 	
0.00180191 	0.00120127 	686858 	388087 	0.0382823 	4.79685 	388082 	388082 	0 	
0.00160867 	-5.87592e-09 	0.92 	0.04 	0.04 	0.0342598 	3.80014 	298.561 	
3.76588 	3.97108 	-0.205202 	-3.80624 	6.74024e-08 	14.9098 	19.5646 	
1.54422e-09 	14488.2 	246.919 	283.231 	0.35 	13.208 	-0.288177 	6.77333e-05 	
0.00180191 	0.00120127 	509851 	312714 	0.0243678 	7.37333 	312706 	312706 	0 	
0.0016764 	-1.11061e-08 	0.92 	0.04 	0.04 	0.0342597 	3.80011 	298.419 	
3.76585 	3.9712 	-0.205344 	-3.76596 	4.78867e-08 	11.1237 	23.3507 	
1.52788e-09 	14488.2 	246.919 	283.231 	0.35 	13.208 	-0.285127 	6.77333e-05 	
0.00180191 	0.00120127 	334059 	237335 	0.0137222 	10.4724 	237325 	237325 	0 	
0.00174413 	-1.62819e-08 	0.92 	0.04 	0.04 	0.0342596 	3.80008 	298.279 	