TITLE = "Solution on Domain BulkDomain1D_1"
VARIABLES = "x [m]"  
"Vel_axial" 	"MF_sp(ECDMC)" 	"MF_sp(Li+)" 	"MF_sp(PF6-)" 	"Volt(Electroly)" 	"Temperature" 	"Porosity []" 	"Control volume thickness [m]" 	"volFrac MgO(S) []" 	"qHeat_accum [J/m3]" 	"qHeat_step [W/m3]" 	"Joule_Lyte [W/m3]" 	"Joule_Solid [W/m3]" 	
ZONE T = "SEP , 0.0000E+00", I = 10, SOLUTIONTIME = 0.000000E+00
ZONETYPE = ORDERED
DATAPACKING = BLOCK
STRANDID = 2
 7.8740000000000E-04  8.4102222222222E-04  8.9464444444444E-04  9.4826666666667E-04  1.0018888888889E-03  1.0555111111111E-03  1.1091333333333E-03  1.1627555555556E-03  1.2163777777778E-03  1.2700000000000E-03 
 0.0000000000000E+00  0.0000000000000E+00  0.0000000000000E+00  0.0000000000000E+00  0.0000000000000E+00  0.0000000000000E+00  0.0000000000000E+00  0.0000000000000E+00  0.0000000000000E+00  0.0000000000000E+00 
 9.2000000000000E-01  9.2000000000000E-01  9.2000000000000E-01  9.2000000000000E-01  9.2000000000000E-01  9.2000000000000E-01  9.2000000000000E-01  9.2000000000000E-01  9.2000000000000E-01  9.2000000000000E-01 
 4.0000000000000E-02  4.0000000000000E-02  4.0000000000000E-02  4.0000000000000E-02  4.0000000000000E-02  4.0000000000000E-02  4.0000000000000E-02  4.0000000000000E-02  4.0000000000000E-02  4.0000000000000E-02 
 4.0000000000000E-02  4.0000000000000E-02  4.0000000000000E-02  4.0000000000000E-02  4.0000000000000E-02  4.0000000000000E-02  4.0000000000000E-02  4.0000000000000E-02  4.0000000000000E-02  4.0000000000000E-02 
-7.0000000000000E-02 -7.0000000000000E-02 -7.0000000000000E-02 -7.0000000000000E-02 -7.0000000000000E-02 -7.0000000000000E-02 -7.0000000000000E-02 -7.0000000000000E-02 -7.0000000000000E-02 -7.0000000000000E-02 
 2.9815000000000E+02  2.9815000000000E+02  2.9815000000000E+02  2.9815000000000E+02  2.9815000000000E+02  2.9815000000000E+02  2.9815000000000E+02  2.9815000000000E+02  2.9815000000000E+02  2.9815000000000E+02 
 8.0911499769706E-01  8.0911499769706E-01  8.0911499769706E-01  8.0911499769706E-01  8.0911499769706E-01  8.0911499769706E-01  8.0911499769706E-01  8.0911499769706E-01  8.0911499769706E-01  8.0911499769706E-01 
 2.6811111111111E-05  5.3622222222222E-05  5.3622222222222E-05  5.3622222222222E-05  5.3622222222222E-05  5.3622222222222E-05  5.3622222222222E-05  5.3622222222223E-05  5.3622222222222E-05  2.6811111111111E-05 
 1.9088500230294E-01  1.9088500230294E-01  1.9088500230294E-01  1.9088500230294E-01  1.9088500230294E-01  1.9088500230294E-01  1.9088500230294E-01  1.9088500230294E-01  1.9088500230294E-01  1.9088500230294E-01 
 0.0000000000000E+00  0.0000000000000E+00  0.0000000000000E+00  0.0000000000000E+00  0.0000000000000E+00  0.0000000000000E+00  0.0000000000000E+00  0.0000000000000E+00  0.0000000000000E+00  0.0000000000000E+00 
 0.0000000000000E+00  0.0000000000000E+00  0.0000000000000E+00  0.0000000000000E+00  0.0000000000000E+00  0.0000000000000E+00  0.0000000000000E+00  0.0000000000000E+00  0.0000000000000E+00  0.0000000000000E+00 
 0.0000000000000E+00  0.0000000000000E+00  0.0000000000000E+00  0.0000000000000E+00  0.0000000000000E+00  0.0000000000000E+00  0.0000000000000E+00  0.0000000000000E+00  0.0000000000000E+00  0.0000000000000E+00 
 0.0000000000000E+00  0.0000000000000E+00  0.0000000000000E+00  0.0000000000000E+00  0.0000000000000E+00  0.0000000000000E+00  0.0000000000000E+00  0.0000000000000E+00  0.0000000000000E+00  0.0000000000000E+00 
ZONE T = "SEP , 1.0000E-08", I = 10, SOLUTIONTIME = 1.000000E-08
ZONETYPE = ORDERED
DATAPACKING = BLOCK
STRANDID = 2
 7.8740000000000E-04  8.4102222222222E-04  8.9464444444444E-04  9.4826666666667E-04  1.0018888888889E-03  1.0555111111111E-03  1.1091333333333E-03  1.1627555555556E-03  1.2163777777778E-03  1.2700000000000E-03 
 2.0865060385492E-08  2.0865060385492E-08  2.0865060385492E-08  2.0865060385492E-08  2.0865060385492E-08  2.0865060385492E-08  2.0865060385492E-08  2.0865060385492E-08  2.0865060385492E-08  1.9707213521772E-08 
 9.1999999999971E-01  9.2000000000000E-01  9.2000000000000E-01  9.2000000000000E-01  9.2000000000000E-01  9.2000000000000E-01  9.2000000000000E-01  9.2000000000000E-01  9.2000000000000E-01  9.2000000000032E-01 
 4.0000000000144E-02  4.0000000000000E-02  4.0000000000000E-02  4.0000000000000E-02  4.0000000000000E-02  4.0000000000000E-02  4.0000000000000E-02  4.0000000000000E-02  4.0000000000000E-02  3.9999999999841E-02 
 4.0000000000144E-02  4.0000000000000E-02  4.0000000000000E-02  4.0000000000000E-02  4.0000000000000E-02  4.0000000000000E-02  4.0000000000000E-02  4.0000000000000E-02  4.0000000000000E-02  3.9999999999841E-02 
 2.9171459899276E-02  2.9171410529732E-02  2.9171361160174E-02  2.9171311790620E-02  2.9171262421076E-02  2.9171213051518E-02  2.9171163681974E-02  2.9171114312416E-02  2.9171064942863E-02  2.9171015573319E-02 
 2.9814999956426E+02  2.9814999998706E+02  2.9814999999876E+02  2.9814999999291E+02  2.9814999999704E+02  2.9814999999429E+02  2.9815000001216E+02  2.9815000000078E+02  2.9815000000442E+02  2.9815000104863E+02 
 8.0911499769706E-01  8.0911499769706E-01  8.0911499769706E-01  8.0911499769706E-01  8.0911499769706E-01  8.0911499769706E-01  8.0911499769706E-01  8.0911499769706E-01  8.0911499769706E-01  8.0911499769706E-01 
 2.6811111111111E-05  5.3622222222222E-05  5.3622222222222E-05  5.3622222222222E-05  5.3622222222222E-05  5.3622222222222E-05  5.3622222222222E-05  5.3622222222223E-05  5.3622222222222E-05  2.6811111111111E-05 
 1.9088500230294E-01  1.9088500230294E-01  1.9088500230294E-01  1.9088500230294E-01  1.9088500230294E-01  1.9088500230294E-01  1.9088500230294E-01  1.9088500230294E-01  1.9088500230294E-01  1.9088500230294E-01 
 2.7663863824096E-10  2.7663871773053E-10  2.7663876852414E-10  2.7663868945747E-10  2.7663872034897E-10  2.7663871785672E-10  2.7663871513000E-10  2.7663876798981E-10  2.7663868749666E-10  2.7663863517144E-10 
 2.7663863824096E-02  2.7663871773053E-02  2.7663876852414E-02  2.7663868945747E-02  2.7663872034897E-02  2.7663871785672E-02  2.7663871513000E-02  2.7663876798981E-02  2.7663868749666E-02  2.7663863517144E-02 
 2.7663863824096E-02  2.7663871773053E-02  2.7663876852414E-02  2.7663868945747E-02  2.7663872034897E-02  2.7663871785672E-02  2.7663871513000E-02  2.7663876798981E-02  2.7663868749666E-02  2.7663863517144E-02 
 0.0000000000000E+00  0.0000000000000E+00  0.0000000000000E+00  0.0000000000000E+00  0.0000000000000E+00  0.0000000000000E+00  0.0000000000000E+00  0.0000000000000E+00  0.0000000000000E+00  0.0000000000000E+00 
ZONE T = "SEP , 2.0000E-08", I = 10, SOLUTIONTIME = 2.000000E-08
ZONETYPE = ORDERED
DATAPACKING = BLOCK
STRANDID = 2
 7.8740000000000E-04  8.4102222222222E-04  8.9464444444444E-04  9.4826666666667E-04  1.0018888888889E-03  1.0555111111111E-03  1.1091333333333E-03  1.1627555555556E-03  1.2163777777778E-03  1.2700000000000E-03 
 2.0867089418344E-08  2.0865636587433E-08  2.0865636587433E-08  2.0865636587433E-08  2.0865636587433E-08  2.0865636587432E-08  2.0865636587432E-08  2.0865636587432E-08  2.0865636587432E-08  1.9706755074274E-08 
 9.1999999999942E-01  9.2000000000000E-01  9.2000000000000E-01  9.2000000000000E-01  9.2000000000000E-01  9.2000000000000E-01  9.2000000000000E-01  9.2000000000000E-01  9.2000000000000E-01  9.2000000000064E-01 
 4.0000000000288E-02  4.0000000000000E-02  4.0000000000000E-02  4.0000000000000E-02  4.0000000000000E-02  4.0000000000000E-02  4.0000000000000E-02  4.0000000000000E-02  4.0000000000000E-02  3.9999999999682E-02 
 4.0000000000288E-02  4.0000000000000E-02  4.0000000000000E-02  4.0000000000000E-02  4.0000000000000E-02  4.0000000000000E-02  4.0000000000000E-02  4.0000000000000E-02  4.0000000000000E-02  3.9999999999682E-02 
 2.9176841385468E-02  2.9176792010685E-02  2.9176742635902E-02  2.9176693261120E-02  2.9176643886337E-02  2.9176594511554E-02  2.9176545136771E-02  2.9176495761989E-02  2.9176446387206E-02  2.9176397012423E-02 
 2.9814999914340E+02  2.9814999996819E+02  2.9815000000904E+02  2.9814999999307E+02  2.9814999999687E+02  2.9815000000005E+02  2.9815000001707E+02  2.9815000000131E+02  2.9815000002460E+02  2.9815000213643E+02 
 8.0911499769706E-01  8.0911499769706E-01  8.0911499769706E-01  8.0911499769706E-01  8.0911499769706E-01  8.0911499769706E-01  8.0911499769706E-01  8.0911499769706E-01  8.0911499769706E-01  8.0911499769706E-01 
 2.6811111111111E-05  5.3622222222222E-05  5.3622222222222E-05  5.3622222222222E-05  5.3622222222222E-05  5.3622222222222E-05  5.3622222222222E-05  5.3622222222223E-05  5.3622222222222E-05  2.6811111111111E-05 
 1.9088500230294E-01  1.9088500230294E-01  1.9088500230294E-01  1.9088500230294E-01  1.9088500230294E-01  1.9088500230294E-01  1.9088500230294E-01  1.9088500230294E-01  1.9088500230294E-01  1.9088500230294E-01 
 5.5333598788512E-10  5.5333606758166E-10  5.5333611857646E-10  5.5333603950684E-10  5.5333607041899E-10  5.5333606792044E-10  5.5333606518874E-10  5.5333611806594E-10  5.5333603806672E-10  5.5333598623716E-10 
 2.7669734964416E-02  2.7669734985113E-02  2.7669735005232E-02  2.7669735004937E-02  2.7669735007002E-02  2.7669735006371E-02  2.7669735005873E-02  2.7669735007613E-02  2.7669735057005E-02  2.7669735106572E-02 
 2.7669734964416E-02  2.7669734985113E-02  2.7669735005232E-02  2.7669735004937E-02  2.7669735007002E-02  2.7669735006371E-02  2.7669735005873E-02  2.7669735007613E-02  2.7669735057005E-02  2.7669735106572E-02 
 0.0000000000000E+00  0.0000000000000E+00  0.0000000000000E+00  0.0000000000000E+00  0.0000000000000E+00  0.0000000000000E+00  0.0000000000000E+00  0.0000000000000E+00  0.0000000000000E+00  0.0000000000000E+00 
ZONE T = "SEP , 3.0000E-08", I = 10, SOLUTIONTIME = 3.000000E-08
ZONETYPE = ORDERED
DATAPACKING = BLOCK
STRANDID = 2
 7.8740000000000E-04  8.4102222222222E-04  8.9464444444444E-04  9.4826666666667E-04  1.0018888888889E-03  1.0555111111111E-03  1.1091333333333E-03  1.1627555555556E-03  1.2163777777778E-03  1.2700000000000E-03 
 2.0873380073090E-08  2.0874832904001E-08  2.0874832904001E-08  2.0874832904001E-08  2.0874832904001E-08  2.0874832904001E-08  2.0874832904001E-08  2.0874832904001E-08  2.0874832904001E-08  1.9717282888847E-08 
 9.1999999999914E-01  9.2000000000000E-01  9.2000000000000E-01  9.2000000000000E-01  9.2000000000000E-01  9.2000000000000E-01  9.2000000000000E-01  9.2000000000000E-01  9.2000000000000E-01  9.2000000000095E-01 
 4.0000000000432E-02  4.0000000000000E-02  4.0000000000000E-02  4.0000000000000E-02  4.0000000000000E-02  4.0000000000000E-02  4.0000000000000E-02  4.0000000000000E-02  4.0000000000000E-02  3.9999999999524E-02 
 4.0000000000432E-02  4.0000000000000E-02  4.0000000000000E-02  4.0000000000000E-02  4.0000000000000E-02  4.0000000000000E-02  4.0000000000000E-02  4.0000000000000E-02  4.0000000000000E-02  3.9999999999524E-02 
 2.9182234748115E-02  2.9182185368331E-02  2.9182135988547E-02  2.9182086608762E-02  2.9182037228978E-02  2.9181987849194E-02  2.9181938469409E-02  2.9181889089625E-02  2.9181839709841E-02  2.9181790330056E-02 
 2.9814999864997E+02  2.9814999996983E+02  2.9815000000170E+02  2.9815000000430E+02  2.9814999999681E+02  2.9815000000572E+02  2.9815000001590E+02  2.9815000000289E+02  2.9815000005008E+02  2.9815000323595E+02 
 8.0911499769706E-01  8.0911499769706E-01  8.0911499769706E-01  8.0911499769706E-01  8.0911499769706E-01  8.0911499769706E-01  8.0911499769706E-01  8.0911499769706E-01  8.0911499769706E-01  8.0911499769706E-01 
 2.6811111111111E-05  5.3622222222222E-05  5.3622222222222E-05  5.3622222222222E-05  5.3622222222222E-05  5.3622222222222E-05  5.3622222222222E-05  5.3622222222223E-05  5.3622222222222E-05  2.6811111111111E-05 
 1.9088500230294E-01  1.9088500230294E-01  1.9088500230294E-01  1.9088500230294E-01  1.9088500230294E-01  1.9088500230294E-01  1.9088500230294E-01  1.9088500230294E-01  1.9088500230294E-01  1.9088500230294E-01 
 8.3008939765559E-10  8.3008947765994E-10  8.3008952897400E-10  8.3008944991696E-10  8.3008948082991E-10  8.3008947832660E-10  8.3008947559112E-10  8.3008952848050E-10  8.3008944923895E-10  8.3008939815556E-10 
 2.7675340977048E-02  2.7675341007828E-02  2.7675341039754E-02  2.7675341041012E-02  2.7675341041092E-02  2.7675341040616E-02  2.7675341040239E-02  2.7675341041456E-02  2.7675341117224E-02  2.7675341191840E-02 
 2.7675340977048E-02  2.7675341007828E-02  2.7675341039754E-02  2.7675341041012E-02  2.7675341041092E-02  2.7675341040616E-02  2.7675341040239E-02  2.7675341041456E-02  2.7675341117224E-02  2.7675341191840E-02 
 0.0000000000000E+00  0.0000000000000E+00  0.0000000000000E+00  0.0000000000000E+00  0.0000000000000E+00  0.0000000000000E+00  0.0000000000000E+00  0.0000000000000E+00  0.0000000000000E+00  0.0000000000000E+00 
ZONE T = "SEP , 4.0000E-08", I = 10, SOLUTIONTIME = 4.000000E-08
ZONETYPE = ORDERED
DATAPACKING = BLOCK
STRANDID = 2
 7.8740000000000E-04  8.4102222222222E-04  8.9464444444444E-04  9.4826666666667E-04  1.0018888888889E-03  1.0555111111111E-03  1.1091333333333E-03  1.1627555555556E-03  1.2163777777778E-03  1.2700000000000E-03 
 2.0867871942390E-08  2.0867871942390E-08  2.0867871942390E-08  2.0867871942390E-08  2.0867871942390E-08  2.0867871942390E-08  2.0867871942390E-08  2.0867871942390E-08  2.0867871942390E-08  1.9710563518024E-08 
 9.1999999999885E-01  9.2000000000000E-01  9.2000000000000E-01  9.2000000000000E-01  9.2000000000000E-01  9.2000000000000E-01  9.2000000000000E-01  9.2000000000000E-01  9.2000000000000E-01  9.2000000000127E-01 
 4.0000000000576E-02  4.0000000000000E-02  4.0000000000000E-02  4.0000000000000E-02  4.0000000000000E-02  4.0000000000000E-02  4.0000000000000E-02  4.0000000000000E-02  4.0000000000000E-02  3.9999999999365E-02 
 4.0000000000576E-02  4.0000000000000E-02  4.0000000000000E-02  4.0000000000000E-02  4.0000000000000E-02  4.0000000000000E-02  4.0000000000000E-02  4.0000000000000E-02  4.0000000000000E-02  3.9999999999365E-02 
 2.9187639998438E-02  2.9187590613639E-02  2.9187541228841E-02  2.9187491844042E-02  2.9187442459243E-02  2.9187393074444E-02  2.9187343689646E-02  2.9187294304847E-02  2.9187244920048E-02  2.9187195535249E-02 
 2.9814999822157E+02  2.9814999996425E+02  2.9814999999394E+02  2.9815000000402E+02  2.9814999999683E+02  2.9815000000047E+02  2.9815000001950E+02  2.9815000000059E+02  2.9815000007718E+02  2.9815000437909E+02 
 8.0911499769706E-01  8.0911499769706E-01  8.0911499769706E-01  8.0911499769706E-01  8.0911499769706E-01  8.0911499769706E-01  8.0911499769706E-01  8.0911499769706E-01  8.0911499769706E-01  8.0911499769706E-01 
 2.6811111111111E-05  5.3622222222222E-05  5.3622222222222E-05  5.3622222222222E-05  5.3622222222222E-05  5.3622222222222E-05  5.3622222222222E-05  5.3622222222223E-05  5.3622222222222E-05  2.6811111111111E-05 
 1.9088500230294E-01  1.9088500230294E-01  1.9088500230294E-01  1.9088500230294E-01  1.9088500230294E-01  1.9088500230294E-01  1.9088500230294E-01  1.9088500230294E-01  1.9088500230294E-01  1.9088500230294E-01 
 1.1068990182382E-09  1.1068990986470E-09  1.1068991503757E-09  1.1068990713282E-09  1.1068991022413E-09  1.1068990997335E-09  1.1068990970122E-09  1.1068991499076E-09  1.1068990716967E-09  1.1068990216572E-09 
 2.7680962058265E-02  2.7680962098704E-02  2.7680962140165E-02  2.7680962141120E-02  2.7680962141135E-02  2.7680962140691E-02  2.7680962142107E-02  2.7680962142710E-02  2.7680962245770E-02  2.7680962350169E-02 
 2.7680962058265E-02  2.7680962098704E-02  2.7680962140165E-02  2.7680962141120E-02  2.7680962141135E-02  2.7680962140691E-02  2.7680962142107E-02  2.7680962142710E-02  2.7680962245770E-02  2.7680962350169E-02 
 0.0000000000000E+00  0.0000000000000E+00  0.0000000000000E+00  0.0000000000000E+00  0.0000000000000E+00  0.0000000000000E+00  0.0000000000000E+00  0.0000000000000E+00  0.0000000000000E+00  0.0000000000000E+00 
ZONE T = "SEP , 5.5000E-08", I = 10, SOLUTIONTIME = 5.500000E-08
ZONETYPE = ORDERED
DATAPACKING = BLOCK
STRANDID = 2
 7.8740000000000E-04  8.4102222222222E-04  8.9464444444444E-04  9.4826666666667E-04  1.0018888888889E-03  1.0555111111111E-03  1.1091333333333E-03  1.1627555555556E-03  1.2163777777778E-03  1.2700000000000E-03 
 2.0874808248480E-08  2.0874808248480E-08  2.0874808248480E-08  2.0874808248480E-08  2.0874808248480E-08  2.0874808248480E-08  2.0874808248480E-08  2.0874808248480E-08  2.0874808248480E-08  1.9715803831819E-08 
 9.1999999999842E-01  9.2000000000000E-01  9.2000000000000E-01  9.2000000000000E-01  9.2000000000000E-01  9.2000000000000E-01  9.2000000000000E-01  9.2000000000000E-01  9.2000000000000E-01  9.2000000000175E-01 
 4.0000000000791E-02  4.0000000000000E-02  4.0000000000000E-02  4.0000000000000E-02  4.0000000000000E-02  4.0000000000000E-02  4.0000000000000E-02  4.0000000000000E-02  4.0000000000000E-02  3.9999999999127E-02 
 4.0000000000791E-02  4.0000000000000E-02  4.0000000000000E-02  4.0000000000000E-02  4.0000000000000E-02  4.0000000000000E-02  4.0000000000000E-02  4.0000000000000E-02  4.0000000000000E-02  3.9999999999127E-02 
 2.9195755597446E-02  2.9195706205116E-02  2.9195656812785E-02  2.9195607420454E-02  2.9195558028124E-02  2.9195508635793E-02  2.9195459243462E-02  2.9195409851132E-02  2.9195360458801E-02  2.9195311066470E-02 
 2.9814999752047E+02  2.9814999992844E+02  2.9814999998645E+02  2.9815000000297E+02  2.9814999999712E+02  2.9815000000375E+02  2.9815000001851E+02  2.9815000000150E+02  2.9815000014860E+02  2.9815000613274E+02 
 8.0911499769706E-01  8.0911499769706E-01  8.0911499769706E-01  8.0911499769706E-01  8.0911499769706E-01  8.0911499769706E-01  8.0911499769706E-01  8.0911499769706E-01  8.0911499769706E-01  8.0911499769706E-01 
 2.6811111111111E-05  5.3622222222222E-05  5.3622222222222E-05  5.3622222222222E-05  5.3622222222222E-05  5.3622222222222E-05  5.3622222222222E-05  5.3622222222223E-05  5.3622222222222E-05  2.6811111111111E-05 
 1.9088500230294E-01  1.9088500230294E-01  1.9088500230294E-01  1.9088500230294E-01  1.9088500230294E-01  1.9088500230294E-01  1.9088500230294E-01  1.9088500230294E-01  1.9088500230294E-01  1.9088500230294E-01 
 1.5222401109832E-09  1.5222401922815E-09  1.5222402448738E-09  1.5222401658550E-09  1.5222401967933E-09  1.5222401942486E-09  1.5222401915498E-09  1.5222402445174E-09  1.5222401684706E-09  1.5222401205532E-09 
 2.7689406182994E-02  2.7689406242301E-02  2.7689406299878E-02  2.7689406301789E-02  2.7689406303469E-02  2.7689406301009E-02  2.7689406302510E-02  2.7689406307321E-02  2.7689406451598E-02  2.7689406593061E-02 
 2.7689406182994E-02  2.7689406242301E-02  2.7689406299878E-02  2.7689406301789E-02  2.7689406303469E-02  2.7689406301009E-02  2.7689406302510E-02  2.7689406307321E-02  2.7689406451598E-02  2.7689406593061E-02 
 0.0000000000000E+00  0.0000000000000E+00  0.0000000000000E+00  0.0000000000000E+00  0.0000000000000E+00  0.0000000000000E+00  0.0000000000000E+00  0.0000000000000E+00  0.0000000000000E+00  0.0000000000000E+00 
ZONE T = "SEP , 7.7500E-08", I = 10, SOLUTIONTIME = 7.750000E-08
ZONETYPE = ORDERED
DATAPACKING = BLOCK
STRANDID = 2
 7.8740000000000E-04  8.4102222222222E-04  8.9464444444444E-04  9.4826666666667E-04  1.0018888888889E-03  1.0555111111111E-03  1.1091333333333E-03  1.1627555555556E-03  1.2163777777778E-03  1.2700000000000E-03 
 2.0878780537417E-08  2.0878780537417E-08  2.0878780537417E-08  2.0878780537417E-08  2.0878780537417E-08  2.0878780537417E-08  2.0878780537417E-08  2.0878780537417E-08  2.0878780537417E-08  1.9720268779602E-08 
 9.1999999999777E-01  9.2000000000000E-01  9.2000000000000E-01  9.2000000000000E-01  9.2000000000000E-01  9.2000000000000E-01  9.2000000000000E-01  9.2000000000000E-01  9.2000000000000E-01  9.2000000000246E-01 
 4.0000000001114E-02  4.0000000000000E-02  4.0000000000000E-02  4.0000000000000E-02  4.0000000000000E-02  4.0000000000000E-02  4.0000000000000E-02  4.0000000000000E-02  4.0000000000000E-02  3.9999999998769E-02 
 4.0000000001114E-02  4.0000000000000E-02  4.0000000000000E-02  4.0000000000000E-02  4.0000000000000E-02  4.0000000000000E-02  4.0000000000000E-02  4.0000000000000E-02  4.0000000000000E-02  3.9999999998769E-02 
 2.9207934081085E-02  2.9207884677446E-02  2.9207835273806E-02  2.9207785870167E-02  2.9207736466527E-02  2.9207687062887E-02  2.9207637659248E-02  2.9207588255608E-02  2.9207538851969E-02  2.9207489448328E-02 
 2.9814999645089E+02  2.9814999987002E+02  2.9814999999281E+02  2.9815000000603E+02  2.9814999999800E+02  2.9815000000343E+02  2.9815000002137E+02  2.9815000000500E+02  2.9815000032804E+02  2.9815000880935E+02 
 8.0911499769706E-01  8.0911499769706E-01  8.0911499769706E-01  8.0911499769706E-01  8.0911499769706E-01  8.0911499769706E-01  8.0911499769706E-01  8.0911499769706E-01  8.0911499769706E-01  8.0911499769706E-01 
 2.6811111111111E-05  5.3622222222222E-05  5.3622222222222E-05  5.3622222222222E-05  5.3622222222222E-05  5.3622222222222E-05  5.3622222222222E-05  5.3622222222223E-05  5.3622222222222E-05  2.6811111111111E-05 
 1.9088500230294E-01  1.9088500230294E-01  1.9088500230294E-01  1.9088500230294E-01  1.9088500230294E-01  1.9088500230294E-01  1.9088500230294E-01  1.9088500230294E-01  1.9088500230294E-01  1.9088500230294E-01 
 2.1455370729702E-09  2.1455371561337E-09  2.1455372106514E-09  2.1455371317339E-09  2.1455371626708E-09  2.1455371601153E-09  2.1455371574472E-09  2.1455372105601E-09  2.1455371392891E-09  2.1455370960012E-09 
 2.7702087199426E-02  2.7702087282321E-02  2.7702087367893E-02  2.7702087372395E-02  2.7702087372334E-02  2.7702087371852E-02  2.7702087373218E-02  2.7702087379676E-02  2.7702087591931E-02  2.7702087797692E-02 
 2.7702087199426E-02  2.7702087282321E-02  2.7702087367893E-02  2.7702087372395E-02  2.7702087372334E-02  2.7702087371852E-02  2.7702087373218E-02  2.7702087379676E-02  2.7702087591931E-02  2.7702087797692E-02 
 0.0000000000000E+00  0.0000000000000E+00  0.0000000000000E+00  0.0000000000000E+00  0.0000000000000E+00  0.0000000000000E+00  0.0000000000000E+00  0.0000000000000E+00  0.0000000000000E+00  0.0000000000000E+00 
ZONE T = "SEP , 1.1125E-07", I = 10, SOLUTIONTIME = 1.112500E-07
ZONETYPE = ORDERED
DATAPACKING = BLOCK
STRANDID = 2
 7.8740000000000E-04  8.4102222222222E-04  8.9464444444444E-04  9.4826666666667E-04  1.0018888888889E-03  1.0555111111111E-03  1.1091333333333E-03  1.1627555555556E-03  1.2163777777778E-03  1.2700000000000E-03 
 2.0886700380224E-08  2.0886700380224E-08  2.0886700380224E-08  2.0886700380224E-08  2.0886700380224E-08  2.0886700380224E-08  2.0886700380224E-08  2.0886700380224E-08  2.0886700380224E-08  1.9727454913437E-08 
 9.1999999999680E-01  9.2000000000000E-01  9.2000000000000E-01  9.2000000000000E-01  9.2000000000000E-01  9.2000000000000E-01  9.2000000000000E-01  9.2000000000000E-01  9.2000000000000E-01  9.2000000000353E-01 
 4.0000000001598E-02  4.0000000000000E-02  4.0000000000000E-02  4.0000000000000E-02  4.0000000000000E-02  4.0000000000000E-02  4.0000000000000E-02  4.0000000000000E-02  4.0000000000000E-02  3.9999999998233E-02 
 4.0000000001598E-02  4.0000000000000E-02  4.0000000000000E-02  4.0000000000000E-02  4.0000000000000E-02  4.0000000000000E-02  4.0000000000000E-02  4.0000000000000E-02  4.0000000000000E-02  3.9999999998233E-02 
 2.9226182012237E-02  2.9226132591640E-02  2.9226083171043E-02  2.9226033750447E-02  2.9225984329850E-02  2.9225934909253E-02  2.9225885488656E-02  2.9225836068059E-02  2.9225786647462E-02  2.9225737226864E-02 
 2.9814999495009E+02  2.9814999972918E+02  2.9814999998261E+02  2.9814999999854E+02  2.9814999999970E+02  2.9815000000842E+02  2.9815000002012E+02  2.9815000003184E+02  2.9815000067940E+02  2.9815001294784E+02 
 8.0911499769706E-01  8.0911499769706E-01  8.0911499769706E-01  8.0911499769706E-01  8.0911499769706E-01  8.0911499769706E-01  8.0911499769706E-01  8.0911499769706E-01  8.0911499769706E-01  8.0911499769706E-01 
 2.6811111111111E-05  5.3622222222222E-05  5.3622222222222E-05  5.3622222222222E-05  5.3622222222222E-05  5.3622222222222E-05  5.3622222222222E-05  5.3622222222223E-05  5.3622222222222E-05  2.6811111111111E-05 
 1.9088500230294E-01  1.9088500230294E-01  1.9088500230294E-01  1.9088500230294E-01  1.9088500230294E-01  1.9088500230294E-01  1.9088500230294E-01  1.9088500230294E-01  1.9088500230294E-01  1.9088500230294E-01 
 3.0811244430088E-09  3.0811245301623E-09  3.0811245888528E-09  3.0811245101703E-09  3.0811245411517E-09  3.0811245386382E-09  3.0811245360014E-09  3.0811245896296E-09  3.0811245289790E-09  3.0811244957779E-09 
 2.7721107260401E-02  2.7721107378624E-02  2.7721107502263E-02  2.7721107509227E-02  2.7721107510546E-02  2.7721107511788E-02  2.7721107512715E-02  2.7721107527983E-02  2.7721107842663E-02  2.7721108141530E-02 
 2.7721107260401E-02  2.7721107378624E-02  2.7721107502263E-02  2.7721107509227E-02  2.7721107510546E-02  2.7721107511788E-02  2.7721107512715E-02  2.7721107527983E-02  2.7721107842663E-02  2.7721108141530E-02 
 0.0000000000000E+00  0.0000000000000E+00  0.0000000000000E+00  0.0000000000000E+00  0.0000000000000E+00  0.0000000000000E+00  0.0000000000000E+00  0.0000000000000E+00  0.0000000000000E+00  0.0000000000000E+00 
ZONE T = "SEP , 1.6188E-07", I = 10, SOLUTIONTIME = 1.618750E-07
ZONETYPE = ORDERED
DATAPACKING = BLOCK
STRANDID = 2
 7.8740000000000E-04  8.4102222222222E-04  8.9464444444444E-04  9.4826666666667E-04  1.0018888888889E-03  1.0555111111111E-03  1.1091333333333E-03  1.1627555555556E-03  1.2163777777778E-03  1.2700000000000E-03 
 2.0897020225048E-08  2.0896733246103E-08  2.0896733246103E-08  2.0896733246103E-08  2.0896733246103E-08  2.0896733246103E-08  2.0896733246103E-08  2.0896733246103E-08  2.0896733246103E-08  1.9737322168044E-08 
 9.1999999999536E-01  9.2000000000000E-01  9.2000000000000E-01  9.2000000000000E-01  9.2000000000000E-01  9.2000000000000E-01  9.2000000000000E-01  9.2000000000000E-01  9.2000000000000E-01  9.2000000000514E-01 
 4.0000000002321E-02  4.0000000000001E-02  4.0000000000000E-02  4.0000000000000E-02  4.0000000000000E-02  4.0000000000000E-02  4.0000000000000E-02  4.0000000000000E-02  3.9999999999999E-02  3.9999999997428E-02 
 4.0000000002321E-02  4.0000000000001E-02  4.0000000000000E-02  4.0000000000000E-02  4.0000000000000E-02  4.0000000000000E-02  4.0000000000000E-02  4.0000000000000E-02  3.9999999999999E-02  3.9999999997428E-02 
 2.9253439861250E-02  2.9253390415302E-02  2.9253340969352E-02  2.9253291523403E-02  2.9253242077454E-02  2.9253192631505E-02  2.9253143185556E-02  2.9253093739607E-02  2.9253044293658E-02  2.9252994847707E-02 
 2.9814999260276E+02  2.9814999944014E+02  2.9814999995183E+02  2.9814999998590E+02  2.9815000000078E+02  2.9815000000598E+02  2.9815000002300E+02  2.9815000009288E+02  2.9815000144280E+02  2.9815001940259E+02 
 8.0911499769706E-01  8.0911499769706E-01  8.0911499769706E-01  8.0911499769706E-01  8.0911499769706E-01  8.0911499769706E-01  8.0911499769706E-01  8.0911499769706E-01  8.0911499769706E-01  8.0911499769706E-01 
 2.6811111111111E-05  5.3622222222222E-05  5.3622222222222E-05  5.3622222222222E-05  5.3622222222222E-05  5.3622222222222E-05  5.3622222222222E-05  5.3622222222223E-05  5.3622222222222E-05  2.6811111111111E-05 
 1.9088500230294E-01  1.9088500230294E-01  1.9088500230294E-01  1.9088500230294E-01  1.9088500230294E-01  1.9088500230294E-01  1.9088500230294E-01  1.9088500230294E-01  1.9088500230294E-01  1.9088500230294E-01 
 4.4859457013227E-09  4.4859457971476E-09  4.4859458650494E-09  4.4859457870464E-09  4.4859458181436E-09  4.4859458156788E-09  4.4859458132092E-09  4.4859458686111E-09  4.4859458324110E-09  4.4859458219815E-09 
 2.7749555719782E-02  2.7749555891067E-02  2.7749556073020E-02  2.7749556086441E-02  2.7749556088729E-02  2.7749556089691E-02  2.7749556092994E-02  2.7749556128030E-02  2.7749556611004E-02  2.7749557060812E-02 
 2.7749555719782E-02  2.7749555891067E-02  2.7749556073020E-02  2.7749556086441E-02  2.7749556088729E-02  2.7749556089691E-02  2.7749556092994E-02  2.7749556128030E-02  2.7749556611004E-02  2.7749557060812E-02 
 0.0000000000000E+00  0.0000000000000E+00  0.0000000000000E+00  0.0000000000000E+00  0.0000000000000E+00  0.0000000000000E+00  0.0000000000000E+00  0.0000000000000E+00  0.0000000000000E+00  0.0000000000000E+00 
ZONE T = "SEP , 2.3781E-07", I = 10, SOLUTIONTIME = 2.378125E-07
ZONETYPE = ORDERED
DATAPACKING = BLOCK
STRANDID = 2
 7.8740000000000E-04  8.4102222222222E-04  8.9464444444444E-04  9.4826666666667E-04  1.0018888888889E-03  1.0555111111111E-03  1.1091333333333E-03  1.1627555555556E-03  1.2163777777778E-03  1.2700000000000E-03 
 2.0913379753338E-08  2.0913666732284E-08  2.0913666732284E-08  2.0913666732284E-08  2.0913666732284E-08  2.0913666732284E-08  2.0913666732284E-08  2.0913666732284E-08  2.0913571072635E-08  1.9752768480714E-08 
 9.1999999999319E-01  9.2000000000000E-01  9.2000000000000E-01  9.2000000000000E-01  9.2000000000000E-01  9.2000000000000E-01  9.2000000000000E-01  9.2000000000000E-01  9.2000000000000E-01  9.2000000000756E-01 
 4.0000000003403E-02  4.0000000000002E-02  4.0000000000000E-02  4.0000000000000E-02  4.0000000000000E-02  4.0000000000000E-02  4.0000000000000E-02  4.0000000000000E-02  3.9999999999998E-02  3.9999999996220E-02 
 4.0000000003403E-02  4.0000000000002E-02  4.0000000000000E-02  4.0000000000000E-02  4.0000000000000E-02  4.0000000000000E-02  4.0000000000000E-02  4.0000000000000E-02  3.9999999999998E-02  3.9999999996220E-02 
 2.9293951385411E-02  2.9293901901743E-02  2.9293852418075E-02  2.9293802934407E-02  2.9293753450738E-02  2.9293703967070E-02  2.9293654483401E-02  2.9293604999733E-02  2.9293555516064E-02  2.9293506032393E-02 
 2.9814998903793E+02  2.9814999886287E+02  2.9814999988655E+02  2.9814999999173E+02  2.9814999999217E+02  2.9815000000903E+02  2.9815000002904E+02  2.9815000027147E+02  2.9815000303635E+02  2.9815002946188E+02 
 8.0911499769706E-01  8.0911499769706E-01  8.0911499769706E-01  8.0911499769706E-01  8.0911499769706E-01  8.0911499769706E-01  8.0911499769706E-01  8.0911499769706E-01  8.0911499769706E-01  8.0911499769706E-01 
 2.6811111111111E-05  5.3622222222222E-05  5.3622222222222E-05  5.3622222222222E-05  5.3622222222222E-05  5.3622222222222E-05  5.3622222222222E-05  5.3622222222223E-05  5.3622222222222E-05  2.6811111111111E-05 