TITLE = "Solution on Domain BulkDomain1D_1"
VARIABLES = "x [m]"  
"Vel_axial" 	"MF_sp(ECDMC)" 	"MF_sp(Li+)" 	"MF_sp(PF6-)" 	"Volt(Electroly)" 	"Temperature" 	"Porosity []" 	"Control volume thickness [m]" 	"volFrac MgO(S) []" 	"qHeat_accum [J/m3]" 	"qHeat_step [W/m3]" 	"Joule_Lyte [W/m3]" 	"Joule_Solid [W/m3]" 	
ZONE T = "SEP , 0.0000E+00", I = 10, SOLUTIONTIME = 0.000000E+00
ZONETYPE = ORDERED
DATAPACKING = BLOCK
STRANDID = 2
 7.8740000000000E-04  8.4102222222222E-04  8.9464444444444E-04  9.4826666666667E-04  1.0018888888889E-03  1.0555111111111E-03  1.1091333333333E-03  1.1627555555556E-03  1.2163777777778E-03  1.2700000000000E-03 
 0.0000000000000E+00  0.0000000000000E+00  0.0000000000000E+00  0.0000000000000E+00  0.0000000000000E+00  0.0000000000000E+00  0.0000000000000E+00  0.0000000000000E+00  0.0000000000000E+00  0.0000000000000E+00 
 9.2000000000000E-01  9.2000000000000E-01  9.2000000000000E-01  9.2000000000000E-01  9.2000000000000E-01  9.2000000000000E-01  9.2000000000000E-01  9.2000000000000E-01  9.2000000000000E-01  9.2000000000000E-01 
 4.0000000000000E-02  4.0000000000000E-02  4.0000000000000E-02  4.0000000000000E-02  4.0000000000000E-02  4.0000000000000E-02  4.0000000000000E-02  4.0000000000000E-02  4.0000000000000E-02  4.0000000000000E-02 
 4.0000000000000E-02  4.0000000000000E-02  4.0000000000000E-02  4.0000000000000E-02  4.0000000000000E-02  4.0000000000000E-02  4.0000000000000E-02  4.0000000000000E-02  4.0000000000000E-02  4.0000000000000E-02 
-7.0000000000000E-02 -7.0000000000000E-02 -7.0000000000000E-02 -7.0000000000000E-02 -7.0000000000000E-02 -7.0000000000000E-02 -7.0000000000000E-02 -7.0000000000000E-02 -7.0000000000000E-02 -7.0000000000000E-02 
 2.9815000000000E+02  2.9815000000000E+02  2.9815000000000E+02  2.9815000000000E+02  2.9815000000000E+02  2.9815000000000E+02  2.9815000000000E+02  2.9815000000000E+02  2.9815000000000E+02  2.9815000000000E+02 
 8.0911139820575E-01  8.0911139820575E-01  8.0911139820575E-01  8.0911139820575E-01  8.0911139820575E-01  8.0911139820575E-01  8.0911139820575E-01  8.0911139820575E-01  8.0911139820575E-01  8.0911139820575E-01 
 2.6811111111111E-05  5.3622222222222E-05  5.3622222222222E-05  5.3622222222222E-05  5.3622222222222E-05  5.3622222222222E-05  5.3622222222222E-05  5.3622222222223E-05  5.3622222222222E-05  2.6811111111111E-05 
 1.9088860179425E-01  1.9088860179425E-01  1.9088860179425E-01  1.9088860179425E-01  1.9088860179425E-01  1.9088860179425E-01  1.9088860179425E-01  1.9088860179425E-01  1.9088860179425E-01  1.9088860179425E-01 
 0.0000000000000E+00  0.0000000000000E+00  0.0000000000000E+00  0.0000000000000E+00  0.0000000000000E+00  0.0000000000000E+00  0.0000000000000E+00  0.0000000000000E+00  0.0000000000000E+00  0.0000000000000E+00 
 0.0000000000000E+00  0.0000000000000E+00  0.0000000000000E+00  0.0000000000000E+00  0.0000000000000E+00  0.0000000000000E+00  0.0000000000000E+00  0.0000000000000E+00  0.0000000000000E+00  0.0000000000000E+00 
 0.0000000000000E+00  0.0000000000000E+00  0.0000000000000E+00  0.0000000000000E+00  0.0000000000000E+00  0.0000000000000E+00  0.0000000000000E+00  0.0000000000000E+00  0.0000000000000E+00  0.0000000000000E+00 
 0.0000000000000E+00  0.0000000000000E+00  0.0000000000000E+00  0.0000000000000E+00  0.0000000000000E+00  0.0000000000000E+00  0.0000000000000E+00  0.0000000000000E+00  0.0000000000000E+00  0.0000000000000E+00 
ZONE T = "SEP , 1.0000E-08", I = 10, SOLUTIONTIME = 1.000000E-08
ZONETYPE = ORDERED
DATAPACKING = BLOCK
STRANDID = 2
 7.8740000000000E-04  8.4102222222222E-04  8.9464444444444E-04  9.4826666666667E-04  1.0018888888889E-03  1.0555111111111E-03  1.1091333333333E-03  1.1627555555556E-03  1.2163777777778E-03  1.2700000000000E-03 
 2.0864800489781E-08  2.0864800489781E-08  2.0864800489781E-08  2.0864800489781E-08  2.0864800489781E-08  2.0864800489781E-08  2.0864800489781E-08  2.0864800489781E-08  2.0864800489780E-08  1.9707311205154E-08 
 9.1999999999971E-01  9.2000000000000E-01  9.2000000000000E-01  9.2000000000000E-01  9.2000000000000E-01  9.2000000000000E-01  9.2000000000000E-01  9.2000000000000E-01  9.2000000000000E-01  9.2000000000032E-01 
 4.0000000000144E-02  4.0000000000000E-02  4.0000000000000E-02  4.0000000000000E-02  4.0000000000000E-02  4.0000000000000E-02  4.0000000000000E-02  4.0000000000000E-02  4.0000000000000E-02  3.9999999999841E-02 
 4.0000000000144E-02  4.0000000000000E-02  4.0000000000000E-02  4.0000000000000E-02  4.0000000000000E-02  4.0000000000000E-02  4.0000000000000E-02  4.0000000000000E-02  4.0000000000000E-02  3.9999999999841E-02 
 2.9171462026328E-02  2.9171412656203E-02  2.9171363286077E-02  2.9171313915951E-02  2.9171264545825E-02  2.9171215175699E-02  2.9171165805573E-02  2.9171116435447E-02  2.9171067065321E-02  2.9171017695195E-02 
 2.9814999953790E+02  2.9814999999641E+02  2.9814999998813E+02  2.9814999999962E+02  2.9814999999961E+02  2.9814999999448E+02  2.9814999999973E+02  2.9814999999913E+02  2.9814999999797E+02  2.9815000108052E+02 
 8.0911139820575E-01  8.0911139820575E-01  8.0911139820575E-01  8.0911139820575E-01  8.0911139820575E-01  8.0911139820575E-01  8.0911139820575E-01  8.0911139820575E-01  8.0911139820575E-01  8.0911139820575E-01 
 2.6811111111111E-05  5.3622222222222E-05  5.3622222222222E-05  5.3622222222222E-05  5.3622222222222E-05  5.3622222222222E-05  5.3622222222222E-05  5.3622222222223E-05  5.3622222222222E-05  2.6811111111111E-05 
 1.9088860179425E-01  1.9088860179425E-01  1.9088860179425E-01  1.9088860179425E-01  1.9088860179425E-01  1.9088860179425E-01  1.9088860179425E-01  1.9088860179425E-01  1.9088860179425E-01  1.9088860179425E-01 
 2.7664331201281E-10  2.7664331212198E-10  2.7664331223039E-10  2.7664331222699E-10  2.7664331222551E-10  2.7664331222668E-10  2.7664331224502E-10  2.7664331224434E-10  2.7664331247965E-10  2.7664331273399E-10 
 2.7664331201281E-02  2.7664331212198E-02  2.7664331223039E-02  2.7664331222699E-02  2.7664331222551E-02  2.7664331222668E-02  2.7664331224502E-02  2.7664331224434E-02  2.7664331247965E-02  2.7664331273399E-02 
 2.7664331201281E-02  2.7664331212198E-02  2.7664331223039E-02  2.7664331222699E-02  2.7664331222551E-02  2.7664331222668E-02  2.7664331224502E-02  2.7664331224434E-02  2.7664331247965E-02  2.7664331273399E-02 
 0.0000000000000E+00  0.0000000000000E+00  0.0000000000000E+00  0.0000000000000E+00  0.0000000000000E+00  0.0000000000000E+00  0.0000000000000E+00  0.0000000000000E+00  0.0000000000000E+00  0.0000000000000E+00 
ZONE T = "SEP , 2.0000E-08", I = 10, SOLUTIONTIME = 2.000000E-08
ZONETYPE = ORDERED
DATAPACKING = BLOCK
STRANDID = 2
 7.8740000000000E-04  8.4102222222222E-04  8.9464444444444E-04  9.4826666666667E-04  1.0018888888889E-03  1.0555111111111E-03  1.1091333333333E-03  1.1627555555556E-03  1.2163777777778E-03  1.2700000000000E-03 
 2.0866544731793E-08  2.0866544731793E-08  2.0866544731793E-08  2.0866544731793E-08  2.0866544731793E-08  2.0866544731793E-08  2.0866544731793E-08  2.0866544731793E-08  2.0866544731792E-08  1.9707663217533E-08 
 9.1999999999942E-01  9.2000000000000E-01  9.2000000000000E-01  9.2000000000000E-01  9.2000000000000E-01  9.2000000000000E-01  9.2000000000000E-01  9.2000000000000E-01  9.2000000000000E-01  9.2000000000064E-01 
 4.0000000000288E-02  4.0000000000000E-02  4.0000000000000E-02  4.0000000000000E-02  4.0000000000000E-02  4.0000000000000E-02  4.0000000000000E-02  4.0000000000000E-02  4.0000000000000E-02  3.9999999999682E-02 
 4.0000000000288E-02  4.0000000000000E-02  4.0000000000000E-02  4.0000000000000E-02  4.0000000000000E-02  4.0000000000000E-02  4.0000000000000E-02  4.0000000000000E-02  4.0000000000000E-02  3.9999999999682E-02 
 2.9176841334098E-02  2.9176791958985E-02  2.9176742583873E-02  2.9176693208760E-02  2.9176643833648E-02  2.9176594458535E-02  2.9176545083423E-02  2.9176495708310E-02  2.9176446333198E-02  2.9176396958085E-02 
 2.9814999915019E+02  2.9814999998708E+02  2.9814999998831E+02  2.9815000001019E+02  2.9814999999416E+02  2.9815000000542E+02  2.9814999999963E+02  2.9814999999936E+02  2.9815000001887E+02  2.9815000216198E+02 
 8.0911139820575E-01  8.0911139820575E-01  8.0911139820575E-01  8.0911139820575E-01  8.0911139820575E-01  8.0911139820575E-01  8.0911139820575E-01  8.0911139820575E-01  8.0911139820575E-01  8.0911139820575E-01 
 2.6811111111111E-05  5.3622222222222E-05  5.3622222222222E-05  5.3622222222222E-05  5.3622222222222E-05  5.3622222222222E-05  5.3622222222222E-05  5.3622222222223E-05  5.3622222222222E-05  2.6811111111111E-05 
 1.9088860179425E-01  1.9088860179425E-01  1.9088860179425E-01  1.9088860179425E-01  1.9088860179425E-01  1.9088860179425E-01  1.9088860179425E-01  1.9088860179425E-01  1.9088860179425E-01  1.9088860179425E-01 
 5.5334251139373E-10  5.5334251169679E-10  5.5334251201320E-10  5.5334251202251E-10  5.5334251202079E-10  5.5334251200235E-10  5.5334251202082E-10  5.5334251203653E-10  5.5334251277610E-10  5.5334251353917E-10 
 2.7669919938091E-02  2.7669919957482E-02  2.7669919978280E-02  2.7669919979553E-02  2.7669919979528E-02  2.7669919977567E-02  2.7669919977581E-02  2.7669919979219E-02  2.7669920029645E-02  2.7669920080517E-02 
 2.7669919938091E-02  2.7669919957482E-02  2.7669919978280E-02  2.7669919979553E-02  2.7669919979528E-02  2.7669919977567E-02  2.7669919977581E-02  2.7669919979219E-02  2.7669920029645E-02  2.7669920080517E-02 
 0.0000000000000E+00  0.0000000000000E+00  0.0000000000000E+00  0.0000000000000E+00  0.0000000000000E+00  0.0000000000000E+00  0.0000000000000E+00  0.0000000000000E+00  0.0000000000000E+00  0.0000000000000E+00 
ZONE T = "SEP , 3.0000E-08", I = 10, SOLUTIONTIME = 3.000000E-08
ZONETYPE = ORDERED
DATAPACKING = BLOCK
STRANDID = 2
 7.8740000000000E-04  8.4102222222222E-04  8.9464444444444E-04  9.4826666666667E-04  1.0018888888889E-03  1.0555111111111E-03  1.1091333333333E-03  1.1627555555556E-03  1.2163777777778E-03  1.2700000000000E-03 
 2.0872653817779E-08  2.0872653817779E-08  2.0872653817779E-08  2.0872653817779E-08  2.0872653817779E-08  2.0872653817779E-08  2.0872653817779E-08  2.0872653817779E-08  2.0872653817779E-08  1.9715648609445E-08 
 9.1999999999914E-01  9.2000000000000E-01  9.2000000000000E-01  9.2000000000000E-01  9.2000000000000E-01  9.2000000000000E-01  9.2000000000000E-01  9.2000000000000E-01  9.2000000000000E-01  9.2000000000095E-01 
 4.0000000000432E-02  4.0000000000000E-02  4.0000000000000E-02  4.0000000000000E-02  4.0000000000000E-02  4.0000000000000E-02  4.0000000000000E-02  4.0000000000000E-02  4.0000000000000E-02  3.9999999999524E-02 
 4.0000000000432E-02  4.0000000000000E-02  4.0000000000000E-02  4.0000000000000E-02  4.0000000000000E-02  4.0000000000000E-02  4.0000000000000E-02  4.0000000000000E-02  4.0000000000000E-02  3.9999999999524E-02 
 2.9182234795336E-02  2.9182185415222E-02  2.9182136035108E-02  2.9182086654994E-02  2.9182037274880E-02  2.9181987894766E-02  2.9181938514651E-02  2.9181889134537E-02  2.9181839754423E-02  2.9181790374309E-02 
 2.9814999867802E+02  2.9814999998320E+02  2.9814999998853E+02  2.9815000000356E+02  2.9814999999451E+02  2.9815000000474E+02  2.9814999999431E+02  2.9815000000566E+02  2.9815000005100E+02  2.9815000327732E+02 
 8.0911139820575E-01  8.0911139820575E-01  8.0911139820575E-01  8.0911139820575E-01  8.0911139820575E-01  8.0911139820575E-01  8.0911139820575E-01  8.0911139820575E-01  8.0911139820575E-01  8.0911139820575E-01 
 2.6811111111111E-05  5.3622222222222E-05  5.3622222222222E-05  5.3622222222222E-05  5.3622222222222E-05  5.3622222222222E-05  5.3622222222222E-05  5.3622222222223E-05  5.3622222222222E-05  2.6811111111111E-05 
 1.9088860179425E-01  1.9088860179425E-01  1.9088860179425E-01  1.9088860179425E-01  1.9088860179425E-01  1.9088860179425E-01  1.9088860179425E-01  1.9088860179425E-01  1.9088860179425E-01  1.9088860179425E-01 
 8.3009777221621E-10  8.3009777281720E-10  8.3009777344625E-10  8.3009777346890E-10  8.3009777346552E-10  8.3009777344685E-10  8.3009777346515E-10  8.3009777348693E-10  8.3009777498945E-10  8.3009777650916E-10 
 2.7675526082248E-02  2.7675526112041E-02  2.7675526143305E-02  2.7675526144639E-02  2.7675526144473E-02  2.7675526144450E-02  2.7675526144433E-02  2.7675526145040E-02  2.7675526221335E-02  2.7675526297000E-02 
 2.7675526082248E-02  2.7675526112041E-02  2.7675526143305E-02  2.7675526144639E-02  2.7675526144473E-02  2.7675526144450E-02  2.7675526144433E-02  2.7675526145040E-02  2.7675526221335E-02  2.7675526297000E-02 
 0.0000000000000E+00  0.0000000000000E+00  0.0000000000000E+00  0.0000000000000E+00  0.0000000000000E+00  0.0000000000000E+00  0.0000000000000E+00  0.0000000000000E+00  0.0000000000000E+00  0.0000000000000E+00 
ZONE T = "SEP , 4.0000E-08", I = 10, SOLUTIONTIME = 4.000000E-08
ZONETYPE = ORDERED
DATAPACKING = BLOCK
STRANDID = 2
 7.8740000000000E-04  8.4102222222222E-04  8.9464444444444E-04  9.4826666666667E-04  1.0018888888889E-03  1.0555111111111E-03  1.1091333333333E-03  1.1627555555556E-03  1.2163777777778E-03  1.2700000000000E-03 
 2.0868598545093E-08  2.0868598545093E-08  2.0868598545093E-08  2.0868598545093E-08  2.0868598545093E-08  2.0868598545093E-08  2.0868598545093E-08  2.0868598545093E-08  2.0868598545093E-08  1.9710382096084E-08 
 9.1999999999885E-01  9.2000000000000E-01  9.2000000000000E-01  9.2000000000000E-01  9.2000000000000E-01  9.2000000000000E-01  9.2000000000000E-01  9.2000000000000E-01  9.2000000000000E-01  9.2000000000127E-01 
 4.0000000000576E-02  4.0000000000000E-02  4.0000000000000E-02  4.0000000000000E-02  4.0000000000000E-02  4.0000000000000E-02  4.0000000000000E-02  4.0000000000000E-02  4.0000000000000E-02  3.9999999999365E-02 
 4.0000000000576E-02  4.0000000000000E-02  4.0000000000000E-02  4.0000000000000E-02  4.0000000000000E-02  4.0000000000000E-02  4.0000000000000E-02  4.0000000000000E-02  4.0000000000000E-02  3.9999999999365E-02 
 2.9187640124675E-02  2.9187590739546E-02  2.9187541354417E-02  2.9187491969288E-02  2.9187442584160E-02  2.9187393199031E-02  2.9187343813902E-02  2.9187294428773E-02  2.9187245043645E-02  2.9187195658516E-02 
 2.9814999824161E+02  2.9814999995553E+02  2.9814999998848E+02  2.9815000000183E+02  2.9814999999513E+02  2.9815000000354E+02  2.9814999998942E+02  2.9815000000199E+02  2.9815000009088E+02  2.9815000440711E+02 
 8.0911139820575E-01  8.0911139820575E-01  8.0911139820575E-01  8.0911139820575E-01  8.0911139820575E-01  8.0911139820575E-01  8.0911139820575E-01  8.0911139820575E-01  8.0911139820575E-01  8.0911139820575E-01 
 2.6811111111111E-05  5.3622222222222E-05  5.3622222222222E-05  5.3622222222222E-05  5.3622222222222E-05  5.3622222222222E-05  5.3622222222222E-05  5.3622222222223E-05  5.3622222222222E-05  2.6811111111111E-05 
 1.9088860179425E-01  1.9088860179425E-01  1.9088860179425E-01  1.9088860179425E-01  1.9088860179425E-01  1.9088860179425E-01  1.9088860179425E-01  1.9088860179425E-01  1.9088860179425E-01  1.9088860179425E-01 
 1.1069092449154E-09  1.1069092459267E-09  1.1069092469747E-09  1.1069092470045E-09  1.1069092469992E-09  1.1069092469815E-09  1.1069092470015E-09  1.1069092470584E-09  1.1069092495946E-09  1.1069092521132E-09 
 2.7681147269917E-02  2.7681147310948E-02  2.7681147352849E-02  2.7681147353565E-02  2.7681147353371E-02  2.7681147353463E-02  2.7681147353632E-02  2.7681147357147E-02  2.7681147460517E-02  2.7681147560408E-02 
 2.7681147269917E-02  2.7681147310948E-02  2.7681147352849E-02  2.7681147353565E-02  2.7681147353371E-02  2.7681147353463E-02  2.7681147353632E-02  2.7681147357147E-02  2.7681147460517E-02  2.7681147560408E-02 
 0.0000000000000E+00  0.0000000000000E+00  0.0000000000000E+00  0.0000000000000E+00  0.0000000000000E+00  0.0000000000000E+00  0.0000000000000E+00  0.0000000000000E+00  0.0000000000000E+00  0.0000000000000E+00 
ZONE T = "SEP , 5.5000E-08", I = 10, SOLUTIONTIME = 5.500000E-08
ZONETYPE = ORDERED
DATAPACKING = BLOCK
STRANDID = 2
 7.8740000000000E-04  8.4102222222222E-04  8.9464444444444E-04  9.4826666666667E-04  1.0018888888889E-03  1.0555111111111E-03  1.1091333333333E-03  1.1627555555556E-03  1.2163777777778E-03  1.2700000000000E-03 
 2.0875050593373E-08  2.0875050593373E-08  2.0875050593373E-08  2.0875050593373E-08  2.0875050593373E-08  2.0875050593373E-08  2.0875050593373E-08  2.0875050593373E-08  2.0875050593373E-08  1.9716288312793E-08 
 9.1999999999842E-01  9.2000000000000E-01  9.2000000000000E-01  9.2000000000000E-01  9.2000000000000E-01  9.2000000000000E-01  9.2000000000000E-01  9.2000000000000E-01  9.2000000000000E-01  9.2000000000175E-01 
 4.0000000000791E-02  4.0000000000000E-02  4.0000000000000E-02  4.0000000000000E-02  4.0000000000000E-02  4.0000000000000E-02  4.0000000000000E-02  4.0000000000000E-02  4.0000000000000E-02  3.9999999999127E-02 
 4.0000000000791E-02  4.0000000000000E-02  4.0000000000000E-02  4.0000000000000E-02  4.0000000000000E-02  4.0000000000000E-02  4.0000000000000E-02  4.0000000000000E-02  4.0000000000000E-02  3.9999999999127E-02 
 2.9195755730970E-02  2.9195706338310E-02  2.9195656945649E-02  2.9195607552988E-02  2.9195558160327E-02  2.9195508767667E-02  2.9195459375006E-02  2.9195409982345E-02  2.9195360589684E-02  2.9195311197023E-02 
 2.9814999755805E+02  2.9814999993195E+02  2.9814999998707E+02  2.9814999999876E+02  2.9814999999630E+02  2.9815000000089E+02  2.9814999998854E+02  2.9815000000542E+02  2.9815000015922E+02  2.9815000612724E+02 
 8.0911139820575E-01  8.0911139820575E-01  8.0911139820575E-01  8.0911139820575E-01  8.0911139820575E-01  8.0911139820575E-01  8.0911139820575E-01  8.0911139820575E-01  8.0911139820575E-01  8.0911139820575E-01 
 2.6811111111111E-05  5.3622222222222E-05  5.3622222222222E-05  5.3622222222222E-05  5.3622222222222E-05  5.3622222222222E-05  5.3622222222222E-05  5.3622222222223E-05  5.3622222222222E-05  2.6811111111111E-05 
 1.9088860179425E-01  1.9088860179425E-01  1.9088860179425E-01  1.9088860179425E-01  1.9088860179425E-01  1.9088860179425E-01  1.9088860179425E-01  1.9088860179425E-01  1.9088860179425E-01  1.9088860179425E-01 
 1.5222531175075E-09  1.5222531193630E-09  1.5222531212902E-09  1.5222531213519E-09  1.5222531213426E-09  1.5222531212977E-09  1.5222531213188E-09  1.5222531214606E-09  1.5222531261792E-09  1.5222531308231E-09 
 2.7689591506143E-02  2.7689591562418E-02  2.7689591621032E-02  2.7689591623157E-02  2.7689591622893E-02  2.7689591621079E-02  2.7689591621154E-02  2.7689591626810E-02  2.7689591772308E-02  2.7689591913988E-02 
 2.7689591506143E-02  2.7689591562418E-02  2.7689591621032E-02  2.7689591623157E-02  2.7689591622893E-02  2.7689591621079E-02  2.7689591621154E-02  2.7689591626810E-02  2.7689591772308E-02  2.7689591913988E-02 
 0.0000000000000E+00  0.0000000000000E+00  0.0000000000000E+00  0.0000000000000E+00  0.0000000000000E+00  0.0000000000000E+00  0.0000000000000E+00  0.0000000000000E+00  0.0000000000000E+00  0.0000000000000E+00 
ZONE T = "SEP , 7.7500E-08", I = 10, SOLUTIONTIME = 7.750000E-08
ZONETYPE = ORDERED
DATAPACKING = BLOCK
STRANDID = 2
 7.8740000000000E-04  8.4102222222222E-04  8.9464444444444E-04  9.4826666666667E-04  1.0018888888889E-03  1.0555111111111E-03  1.1091333333333E-03  1.1627555555556E-03  1.2163777777778E-03  1.2700000000000E-03 
 2.0878619282600E-08  2.0878619282600E-08  2.0878619282600E-08  2.0878619282600E-08  2.0878619282600E-08  2.0878619282600E-08  2.0878619282600E-08  2.0878619282600E-08  2.0878619282600E-08  1.9719946095114E-08 
 9.1999999999777E-01  9.2000000000000E-01  9.2000000000000E-01  9.2000000000000E-01  9.2000000000000E-01  9.2000000000000E-01  9.2000000000000E-01  9.2000000000000E-01  9.2000000000000E-01  9.2000000000246E-01 
 4.0000000001114E-02  4.0000000000000E-02  4.0000000000000E-02  4.0000000000000E-02  4.0000000000000E-02  4.0000000000000E-02  4.0000000000000E-02  4.0000000000000E-02  4.0000000000000E-02  3.9999999998769E-02 
 4.0000000001114E-02  4.0000000000000E-02  4.0000000000000E-02  4.0000000000000E-02  4.0000000000000E-02  4.0000000000000E-02  4.0000000000000E-02  4.0000000000000E-02  4.0000000000000E-02  3.9999999998769E-02 
 2.9207934255555E-02  2.9207884851585E-02  2.9207835447616E-02  2.9207786043646E-02  2.9207736639676E-02  2.9207687235707E-02  2.9207637831737E-02  2.9207588427767E-02  2.9207539023798E-02  2.9207489619827E-02 
 2.9814999648184E+02  2.9814999986952E+02  2.9814999998662E+02  2.9815000000394E+02  2.9814999999321E+02  2.9815000000662E+02  2.9814999998876E+02  2.9815000001120E+02  2.9815000032362E+02  2.9815000881125E+02 
 8.0911139820575E-01  8.0911139820575E-01  8.0911139820575E-01  8.0911139820575E-01  8.0911139820575E-01  8.0911139820575E-01  8.0911139820575E-01  8.0911139820575E-01  8.0911139820575E-01  8.0911139820575E-01 
 2.6811111111111E-05  5.3622222222222E-05  5.3622222222222E-05  5.3622222222222E-05  5.3622222222222E-05  5.3622222222222E-05  5.3622222222222E-05  5.3622222222223E-05  5.3622222222222E-05  2.6811111111111E-05 
 1.9088860179425E-01  1.9088860179425E-01  1.9088860179425E-01  1.9088860179425E-01  1.9088860179425E-01  1.9088860179425E-01  1.9088860179425E-01  1.9088860179425E-01  1.9088860179425E-01  1.9088860179425E-01 
 2.1455542491041E-09  2.1455542527565E-09  2.1455542565419E-09  2.1455542567049E-09  2.1455542566908E-09  2.1455542566468E-09  2.1455542566678E-09  2.1455542569824E-09  2.1455542665080E-09  2.1455542757399E-09 
 2.7702272515404E-02  2.7702272595270E-02  2.7702272677851E-02  2.7702272682357E-02  2.7702272682142E-02  2.7702272682183E-02  2.7702272682180E-02  2.7702272689858E-02  2.7702272903503E-02  2.7702273107416E-02 
 2.7702272515404E-02  2.7702272595270E-02  2.7702272677851E-02  2.7702272682357E-02  2.7702272682142E-02  2.7702272682183E-02  2.7702272682180E-02  2.7702272689858E-02  2.7702272903503E-02  2.7702273107416E-02 
 0.0000000000000E+00  0.0000000000000E+00  0.0000000000000E+00  0.0000000000000E+00  0.0000000000000E+00  0.0000000000000E+00  0.0000000000000E+00  0.0000000000000E+00  0.0000000000000E+00  0.0000000000000E+00 
ZONE T = "SEP , 1.1125E-07", I = 10, SOLUTIONTIME = 1.112500E-07
ZONETYPE = ORDERED
DATAPACKING = BLOCK
STRANDID = 2
 7.8740000000000E-04  8.4102222222222E-04  8.9464444444444E-04  9.4826666666667E-04  1.0018888888889E-03  1.0555111111111E-03  1.1091333333333E-03  1.1627555555556E-03  1.2163777777778E-03  1.2700000000000E-03 
 2.0886700499110E-08  2.0886700499110E-08  2.0886700499110E-08  2.0886700499110E-08  2.0886700499110E-08  2.0886700499110E-08  2.0886700499110E-08  2.0886700499110E-08  2.0886700499110E-08  1.9727455029532E-08 
 9.1999999999680E-01  9.2000000000000E-01  9.2000000000000E-01  9.2000000000000E-01  9.2000000000000E-01  9.2000000000000E-01  9.2000000000000E-01  9.2000000000000E-01  9.2000000000000E-01  9.2000000000353E-01 
 4.0000000001598E-02  4.0000000000000E-02  4.0000000000000E-02  4.0000000000000E-02  4.0000000000000E-02  4.0000000000000E-02  4.0000000000000E-02  4.0000000000000E-02  4.0000000000000E-02  3.9999999998233E-02 
 4.0000000001598E-02  4.0000000000000E-02  4.0000000000000E-02  4.0000000000000E-02  4.0000000000000E-02  4.0000000000000E-02  4.0000000000000E-02  4.0000000000000E-02  4.0000000000000E-02  3.9999999998233E-02 
 2.9226182184582E-02  2.9226132763655E-02  2.9226083342728E-02  2.9226033921801E-02  2.9225984500874E-02  2.9225935079947E-02  2.9225885659020E-02  2.9225836238093E-02  2.9225786817166E-02  2.9225737396238E-02 
 2.9814999497751E+02  2.9814999973009E+02  2.9814999997866E+02  2.9815000000864E+02  2.9814999999069E+02  2.9815000000750E+02  2.9814999999204E+02  2.9815000002346E+02  2.9815000067479E+02  2.9815001293676E+02 
 8.0911139820575E-01  8.0911139820575E-01  8.0911139820575E-01  8.0911139820575E-01  8.0911139820575E-01  8.0911139820575E-01  8.0911139820575E-01  8.0911139820575E-01  8.0911139820575E-01  8.0911139820575E-01 
 2.6811111111111E-05  5.3622222222222E-05  5.3622222222222E-05  5.3622222222222E-05  5.3622222222222E-05  5.3622222222222E-05  5.3622222222222E-05  5.3622222222223E-05  5.3622222222222E-05  2.6811111111111E-05 
 1.9088860179425E-01  1.9088860179425E-01  1.9088860179425E-01  1.9088860179425E-01  1.9088860179425E-01  1.9088860179425E-01  1.9088860179425E-01  1.9088860179425E-01  1.9088860179425E-01  1.9088860179425E-01 
 3.0811478731708E-09  3.0811478807064E-09  3.0811478886162E-09  3.0811478890768E-09  3.0811478890541E-09  3.0811478889442E-09  3.0811478890174E-09  3.0811478899004E-09  3.0811479100958E-09  3.0811479294822E-09 
 2.7721292564938E-02  2.7721292679997E-02  2.7721292802203E-02  2.7721292811018E-02  2.7721292810765E-02  2.7721292808814E-02  2.7721292810358E-02  2.7721292827200E-02  2.7721293143341E-02  2.7721293444214E-02 
 2.7721292564938E-02  2.7721292679997E-02  2.7721292802203E-02  2.7721292811018E-02  2.7721292810765E-02  2.7721292808814E-02  2.7721292810358E-02  2.7721292827200E-02  2.7721293143341E-02  2.7721293444214E-02 
 0.0000000000000E+00  0.0000000000000E+00  0.0000000000000E+00  0.0000000000000E+00  0.0000000000000E+00  0.0000000000000E+00  0.0000000000000E+00  0.0000000000000E+00  0.0000000000000E+00  0.0000000000000E+00 
ZONE T = "SEP , 1.6188E-07", I = 10, SOLUTIONTIME = 1.618750E-07
ZONETYPE = ORDERED
DATAPACKING = BLOCK
STRANDID = 2
 7.8740000000000E-04  8.4102222222222E-04  8.9464444444444E-04  9.4826666666667E-04  1.0018888888889E-03  1.0555111111111E-03  1.1091333333333E-03  1.1627555555556E-03  1.2163777777778E-03  1.2700000000000E-03 
 2.0896912653377E-08  2.0896912653377E-08  2.0896912653377E-08  2.0896912653377E-08  2.0896912653377E-08  2.0896912653377E-08  2.0896912653377E-08  2.0896912653377E-08  2.0896912653377E-08  1.9737429829658E-08 
 9.1999999999536E-01  9.2000000000000E-01  9.2000000000000E-01  9.2000000000000E-01  9.2000000000000E-01  9.2000000000000E-01  9.2000000000000E-01  9.2000000000000E-01  9.2000000000000E-01  9.2000000000514E-01 
 4.0000000002321E-02  4.0000000000001E-02  4.0000000000000E-02  4.0000000000000E-02  4.0000000000000E-02  4.0000000000000E-02  4.0000000000000E-02  4.0000000000000E-02  3.9999999999999E-02  3.9999999997428E-02 
 4.0000000002321E-02  4.0000000000001E-02  4.0000000000000E-02  4.0000000000000E-02  4.0000000000000E-02  4.0000000000000E-02  4.0000000000000E-02  4.0000000000000E-02  3.9999999999999E-02  3.9999999997428E-02 
 2.9253439906088E-02  2.9253390459809E-02  2.9253341013530E-02  2.9253291567251E-02  2.9253242120972E-02  2.9253192674692E-02  2.9253143228413E-02  2.9253093782134E-02  2.9253044335855E-02  2.9252994889574E-02 
 2.9814999256701E+02  2.9814999944677E+02  2.9814999995289E+02  2.9814999999913E+02  2.9814999998949E+02  2.9815000000647E+02  2.9814999999913E+02  2.9815000007758E+02  2.9815000141944E+02  2.9815001940231E+02 
 8.0911139820575E-01  8.0911139820575E-01  8.0911139820575E-01  8.0911139820575E-01  8.0911139820575E-01  8.0911139820575E-01  8.0911139820575E-01  8.0911139820575E-01  8.0911139820575E-01  8.0911139820575E-01 
 2.6811111111111E-05  5.3622222222222E-05  5.3622222222222E-05  5.3622222222222E-05  5.3622222222222E-05  5.3622222222222E-05  5.3622222222222E-05  5.3622222222223E-05  5.3622222222222E-05  2.6811111111111E-05 
 1.9088860179425E-01  1.9088860179425E-01  1.9088860179425E-01  1.9088860179425E-01  1.9088860179425E-01  1.9088860179425E-01  1.9088860179425E-01  1.9088860179425E-01  1.9088860179425E-01  1.9088860179425E-01 
 4.4859785118795E-09  4.4859785281416E-09  4.4859785454087E-09  4.4859785465555E-09  4.4859785465796E-09  4.4859785465483E-09  4.4859785467235E-09  4.4859785492996E-09  4.4859785939271E-09  4.4859786360672E-09 
 2.7749741011530E-02  2.7749741183906E-02  2.7749741368740E-02  2.7749741382295E-02  2.7749741383220E-02  2.7749741384772E-02  2.7749741386787E-02  2.7749741420232E-02  2.7749741902841E-02  2.7749742352296E-02 
 2.7749741011530E-02  2.7749741183906E-02  2.7749741368740E-02  2.7749741382295E-02  2.7749741383220E-02  2.7749741384772E-02  2.7749741386787E-02  2.7749741420232E-02  2.7749741902841E-02  2.7749742352296E-02 
 0.0000000000000E+00  0.0000000000000E+00  0.0000000000000E+00  0.0000000000000E+00  0.0000000000000E+00  0.0000000000000E+00  0.0000000000000E+00  0.0000000000000E+00  0.0000000000000E+00  0.0000000000000E+00 
ZONE T = "SEP , 2.3781E-07", I = 10, SOLUTIONTIME = 2.378125E-07
ZONETYPE = ORDERED
DATAPACKING = BLOCK
STRANDID = 2
 7.8740000000000E-04  8.4102222222222E-04  8.9464444444444E-04  9.4826666666667E-04  1.0018888888889E-03  1.0555111111111E-03  1.1091333333333E-03  1.1627555555556E-03  1.2163777777778E-03  1.2700000000000E-03 
 2.0912973258488E-08  2.0913068918137E-08  2.0913068918137E-08  2.0913068918137E-08  2.0913068918137E-08  2.0913068918137E-08  2.0913068918137E-08  2.0913068918137E-08  2.0912973258488E-08  1.9752218496463E-08 
 9.1999999999319E-01  9.2000000000000E-01  9.2000000000000E-01  9.2000000000000E-01  9.2000000000000E-01  9.2000000000000E-01  9.2000000000000E-01  9.2000000000000E-01  9.2000000000000E-01  9.2000000000756E-01 
 4.0000000003403E-02  4.0000000000001E-02  4.0000000000000E-02  4.0000000000000E-02  4.0000000000000E-02  4.0000000000000E-02  4.0000000000000E-02  4.0000000000000E-02  3.9999999999998E-02  3.9999999996220E-02 
 4.0000000003403E-02  4.0000000000001E-02  4.0000000000000E-02  4.0000000000000E-02  4.0000000000000E-02  4.0000000000000E-02  4.0000000000000E-02  4.0000000000000E-02  3.9999999999998E-02  3.9999999996220E-02 
 2.9293951420125E-02  2.9293901936127E-02  2.9293852452129E-02  2.9293802968130E-02  2.9293753484131E-02  2.9293704000132E-02  2.9293654516134E-02  2.9293605032135E-02  2.9293555548136E-02  2.9293506064134E-02 
 2.9814998900099E+02  2.9814999885841E+02  2.9814999988942E+02  2.9815000000257E+02  2.9814999999025E+02  2.9815000000506E+02  2.9815000001626E+02  2.9815000024768E+02  2.9815000302458E+02  2.9815002945333E+02 
 8.0911139820575E-01  8.0911139820575E-01  8.0911139820575E-01  8.0911139820575E-01  8.0911139820575E-01  8.0911139820575E-01  8.0911139820575E-01  8.0911139820575E-01  8.0911139820575E-01  8.0911139820575E-01 
 2.6811111111111E-05  5.3622222222222E-05  5.3622222222222E-05  5.3622222222222E-05  5.3622222222222E-05  5.3622222222222E-05  5.3622222222222E-05  5.3622222222223E-05  5.3622222222222E-05  2.6811111111111E-05 