TITLE = "Solution on Domain BulkDomain1D_0"
VARIABLES = "x [m]"  
"Vel_axial" 
"MF_sp(ECDMC)" 
"MF_sp(Li+)" 
"MF_sp(PF6-)" 
"Volt(Electroly)" 
"Volt(AnodeVolt)" 
"Temperature" 
"Potential Drop Electrode-Electrolyte [V]" 
"Surf_0 Equilibrium Potential Drop Electrode-Electrolyte [V]" 
"Overpotential_0 [V]" 
"Current Source [A/m^2]" 
"Li+ flux [kmol/m^2/s]" 
"Electrolyte Current [A/m^2]" 
"Electrode Current [A/m^2]" 
"CV Capacity discharged [A-s/m^2]" 
"Depth of discharge in CV [A-s/m^2]" 
"CV Capacity remaining [A-s/m^2]" 
"Initial CV capacity [A-s/m^2]" 
"Porosity []" 
"Surface Area [m2/m2] (area per area)" 
"Specific current (per particle area) [A/m^2]" 
"Control volume thickness [m]" 
"MoleDens Li_C6-bulk [kmol/m^3]" 
"MoleDens V_C6-bulk [kmol/m^3]" 
"qHeat_accum [J/m3]" 
"qHeat_step [W/m3]" 
"Joule_Lyte [W/m3]" 
"Joule_Solid [W/m3]" 
"electrodHeat [W/m3]" 
"OverpotHeat [W/m3]" 
"deltaSHeat [W/m3]" 

ZONE T = "ANOD, 0.0000E+00", I = 10, SOLUTIONTIME = 0.000000E+00
ZONETYPE = ORDERED
DATAPACKING = BLOCK
STRANDID = 1
 0.0000000000000E+00  8.7488888888889E-05  1.7497777777778E-04  2.6246666666667E-04  3.4995555555556E-04  4.3744444444444E-04  5.2493333333333E-04  6.1242222222222E-04  6.9991111111111E-04  7.8740000000000E-04 
 0.0000000000000E+00  0.0000000000000E+00  0.0000000000000E+00  0.0000000000000E+00  0.0000000000000E+00  0.0000000000000E+00  0.0000000000000E+00  0.0000000000000E+00  0.0000000000000E+00  0.0000000000000E+00 
 9.2000000000000E-01  9.2000000000000E-01  9.2000000000000E-01  9.2000000000000E-01  9.2000000000000E-01  9.2000000000000E-01  9.2000000000000E-01  9.2000000000000E-01  9.2000000000000E-01  9.2000000000000E-01 
 4.0000000000000E-02  4.0000000000000E-02  4.0000000000000E-02  4.0000000000000E-02  4.0000000000000E-02  4.0000000000000E-02  4.0000000000000E-02  4.0000000000000E-02  4.0000000000000E-02  4.0000000000000E-02 
 4.0000000000000E-02  4.0000000000000E-02  4.0000000000000E-02  4.0000000000000E-02  4.0000000000000E-02  4.0000000000000E-02  4.0000000000000E-02  4.0000000000000E-02  4.0000000000000E-02  4.0000000000000E-02 
-7.0000000000000E-02 -7.0000000000000E-02 -7.0000000000000E-02 -7.0000000000000E-02 -7.0000000000000E-02 -7.0000000000000E-02 -7.0000000000000E-02 -7.0000000000000E-02 -7.0000000000000E-02 -7.0000000000000E-02 
 0.0000000000000E+00  0.0000000000000E+00  0.0000000000000E+00  0.0000000000000E+00  0.0000000000000E+00  0.0000000000000E+00  0.0000000000000E+00  0.0000000000000E+00  0.0000000000000E+00  0.0000000000000E+00 
 2.9815000000000E+02  2.9815000000000E+02  2.9815000000000E+02  2.9815000000000E+02  2.9815000000000E+02  2.9815000000000E+02  2.9815000000000E+02  2.9815000000000E+02  2.9815000000000E+02  2.9815000000000E+02 
 7.0000000000000E-02  7.0000000000000E-02  7.0000000000000E-02  7.0000000000000E-02  7.0000000000000E-02  7.0000000000000E-02  7.0000000000000E-02  7.0000000000000E-02  7.0000000000000E-02  7.0000000000000E-02 
-4.0906712753391E-02 -4.0906712753391E-02 -4.0906712753391E-02 -4.0906712753391E-02 -4.0906712753391E-02 -4.0906712753391E-02 -4.0906712753391E-02 -4.0906712753391E-02 -4.0906712753391E-02 -4.0906712753391E-02 
 1.1090671275339E-01  1.1090671275339E-01  1.1090671275339E-01  1.1090671275339E-01  1.1090671275339E-01  1.1090671275339E-01  1.1090671275339E-01  1.1090671275339E-01  1.1090671275339E-01  1.1090671275339E-01 
 3.0930240924008E+01  6.1860481848017E+01  6.1860481848017E+01  6.1860481848017E+01  6.1860481848017E+01  6.1860481848017E+01  6.1860481848017E+01  6.1860481848017E+01  6.1860481848017E+01  3.0930240924008E+01 
-0.0000000000000E+00 -0.0000000000000E+00 -0.0000000000000E+00 -0.0000000000000E+00 -0.0000000000000E+00 -0.0000000000000E+00 -0.0000000000000E+00 -0.0000000000000E+00 -0.0000000000000E+00 -0.0000000000000E+00 
 0.0000000000000E+00  0.0000000000000E+00  0.0000000000000E+00  0.0000000000000E+00  0.0000000000000E+00  0.0000000000000E+00  0.0000000000000E+00  0.0000000000000E+00  0.0000000000000E+00  3.0930240924008E+01 
 3.0930240924008E+01 -0.0000000000000E+00 -0.0000000000000E+00 -0.0000000000000E+00 -0.0000000000000E+00 -0.0000000000000E+00 -0.0000000000000E+00 -0.0000000000000E+00 -0.0000000000000E+00  0.0000000000000E+00 
 0.0000000000000E+00  0.0000000000000E+00  0.0000000000000E+00  0.0000000000000E+00  0.0000000000000E+00  0.0000000000000E+00  0.0000000000000E+00  0.0000000000000E+00  0.0000000000000E+00  0.0000000000000E+00 
 4.5724222271641E+04  9.1448444543281E+04  9.1448444543281E+04  9.1448444543281E+04  9.1448444543281E+04  9.1448444543281E+04  9.1448444543281E+04  9.1448444543281E+04  9.1448444543281E+04  4.5724222271641E+04 
 3.3835924481014E+05  6.7671848962028E+05  6.7671848962028E+05  6.7671848962028E+05  6.7671848962028E+05  6.7671848962028E+05  6.7671848962028E+05  6.7671848962028E+05  6.7671848962028E+05  3.3835924481014E+05 
 3.8408346708178E+05  7.6816693416356E+05  7.6816693416356E+05  7.6816693416356E+05  7.6816693416356E+05  7.6816693416356E+05  7.6816693416356E+05  7.6816693416356E+05  7.6816693416356E+05  3.8408346708178E+05 
 3.5000000000000E-01  3.5000000000000E-01  3.5000000000000E-01  3.5000000000000E-01  3.5000000000000E-01  3.5000000000000E-01  3.5000000000000E-01  3.5000000000000E-01  3.5000000000000E-01  3.5000000000000E-01 
 8.5301666666667E+00  1.7060333333333E+01  1.7060333333333E+01  1.7060333333333E+01  1.7060333333333E+01  1.7060333333333E+01  1.7060333333333E+01  1.7060333333333E+01  1.7060333333333E+01  8.5301666666667E+00 
 3.6259831879809E+00  3.6259831879809E+00  3.6259831879809E+00  3.6259831879809E+00  3.6259831879809E+00  3.6259831879809E+00  3.6259831879809E+00  3.6259831879809E+00  3.6259831879809E+00  3.6259831879809E+00 
 4.3744444444444E-05  8.7488888888889E-05  8.7488888888889E-05  8.7488888888889E-05  8.7488888888889E-05  8.7488888888889E-05  8.7488888888889E-05  8.7488888888889E-05  8.7488888888889E-05  4.3744444444444E-05 
 8.6666666666667E+01  8.6666666666667E+01  8.6666666666667E+01  8.6666666666667E+01  8.6666666666667E+01  8.6666666666667E+01  8.6666666666667E+01  8.6666666666667E+01  8.6666666666667E+01  8.6666666666667E+01 
 2.1666666666667E+01  2.1666666666667E+01  2.1666666666667E+01  2.1666666666667E+01  2.1666666666667E+01  2.1666666666667E+01  2.1666666666667E+01  2.1666666666667E+01  2.1666666666667E+01  2.1666666666667E+01 
 0.0000000000000E+00  0.0000000000000E+00  0.0000000000000E+00  0.0000000000000E+00  0.0000000000000E+00  0.0000000000000E+00  0.0000000000000E+00  0.0000000000000E+00  0.0000000000000E+00  0.0000000000000E+00 
 0.0000000000000E+00  0.0000000000000E+00  0.0000000000000E+00  0.0000000000000E+00  0.0000000000000E+00  0.0000000000000E+00  0.0000000000000E+00  0.0000000000000E+00  0.0000000000000E+00  0.0000000000000E+00 
 0.0000000000000E+00  0.0000000000000E+00  0.0000000000000E+00  0.0000000000000E+00  0.0000000000000E+00  0.0000000000000E+00  0.0000000000000E+00  0.0000000000000E+00  0.0000000000000E+00  0.0000000000000E+00 
 0.0000000000000E+00  0.0000000000000E+00  0.0000000000000E+00  0.0000000000000E+00  0.0000000000000E+00  0.0000000000000E+00  0.0000000000000E+00  0.0000000000000E+00  0.0000000000000E+00  0.0000000000000E+00 
 0.0000000000000E+00  0.0000000000000E+00  0.0000000000000E+00  0.0000000000000E+00  0.0000000000000E+00  0.0000000000000E+00  0.0000000000000E+00  0.0000000000000E+00  0.0000000000000E+00  0.0000000000000E+00 
 0.0000000000000E+00  0.0000000000000E+00  0.0000000000000E+00  0.0000000000000E+00  0.0000000000000E+00  0.0000000000000E+00  0.0000000000000E+00  0.0000000000000E+00  0.0000000000000E+00  0.0000000000000E+00 
 0.0000000000000E+00  0.0000000000000E+00  0.0000000000000E+00  0.0000000000000E+00  0.0000000000000E+00  0.0000000000000E+00  0.0000000000000E+00  0.0000000000000E+00  0.0000000000000E+00  0.0000000000000E+00 
ZONE T = "ANOD, 1.0000E-08", I = 10, SOLUTIONTIME = 1.000000E-08
ZONETYPE = ORDERED
DATAPACKING = BLOCK
STRANDID = 1
 0.0000000000000E+00  8.7488888888889E-05  1.7497777777778E-04  2.6246666666667E-04  3.4995555555556E-04  4.3744444444444E-04  5.2493333333333E-04  6.1242222222222E-04  6.9991111111111E-04  7.8740000000000E-04 
 1.1699649039378E-09  3.4871750333835E-09  5.8041065939661E-09  8.1210496321354E-09  1.0438014128444E-08  1.2755006555270E-08  1.5072033432537E-08  1.7389101108095E-08  1.9706215976787E-08  2.0864800489781E-08 
 9.1999999999930E-01  9.1999999999930E-01  9.1999999999930E-01  9.1999999999930E-01  9.1999999999930E-01  9.1999999999930E-01  9.1999999999930E-01  9.1999999999930E-01  9.1999999999930E-01  9.1999999999971E-01 
 4.0000000000352E-02  4.0000000000348E-02  4.0000000000348E-02  4.0000000000348E-02  4.0000000000348E-02  4.0000000000348E-02  4.0000000000348E-02  4.0000000000348E-02  4.0000000000348E-02  4.0000000000144E-02 
 4.0000000000352E-02  4.0000000000348E-02  4.0000000000348E-02  4.0000000000348E-02  4.0000000000348E-02  4.0000000000348E-02  4.0000000000348E-02  4.0000000000348E-02  4.0000000000348E-02  4.0000000000144E-02 
 2.9172736796365E-02  2.9172720919061E-02  2.9172673599283E-02  2.9172594839614E-02  2.9172484639849E-02  2.9172342999698E-02  2.9172169918781E-02  2.9171965396631E-02  2.9171729432693E-02  2.9171462026328E-02 
 0.0000000000000E+00 -4.7350191374211E-09 -8.9129361725917E-09 -1.2533818078851E-08 -1.5597662096764E-08 -1.8104463067381E-08 -2.0054214275665E-08 -2.1446907439064E-08 -2.2282532748880E-08 -2.2561078858973E-08 
 2.9819800362808E+02  2.9815060797845E+02  2.9815000617405E+02  2.9814999859786E+02  2.9814999846650E+02  2.9814999842924E+02  2.9814999858550E+02  2.9814999857452E+02  2.9814999849450E+02  2.9814999953790E+02 
-2.9172736796365E-02 -2.9172725654080E-02 -2.9172682512220E-02 -2.9172607373432E-02 -2.9172500237511E-02 -2.9172361104161E-02 -2.9172189972995E-02 -2.9171986843538E-02 -2.9171751715226E-02 -2.9171484587407E-02 
-4.0940234657713E-02 -4.0907137304408E-02 -4.0906717064428E-02 -4.0906711773978E-02 -4.0906711682253E-02 -4.0906711656232E-02 -4.0906711765348E-02 -4.0906711757682E-02 -4.0906711701801E-02 -4.0906712430538E-02 
 1.1767497861348E-02  1.1734411650327E-02  1.1734034552208E-02  1.1734104400546E-02  1.1734211444741E-02  1.1734350552071E-02  1.1734521792352E-02  1.1734724914144E-02  1.1734959986575E-02  1.1735227843130E-02 
 1.6848426477953E+00  3.3369671490614E+00  3.3365659877100E+00  3.3365825163502E+00  3.3366134177797E+00  3.3366536399493E+00  3.3367032513266E+00  3.3367620041148E+00  3.3368299659885E+00  1.6684539784027E+00 
 8.7310825792687E-09  2.6023694290859E-08  4.3314228313250E-08  6.0604847999113E-08  7.7895627823689E-08  9.5186616081729E-08  1.1247786143443E-07  1.2976941125182E-07  1.4706138534622E-07  1.4706138534622E-07 
 0.0000000000000E+00  3.3533262223713E+00  6.6900927907770E+00  1.0026667042784E+01  1.3363265009791E+01  1.6699898538609E+01  2.0036576984282E+01  2.3373309611980E+01  2.6710105597223E+01  3.0046974558831E+01 
 3.0046974558481E+01  2.6693648336155E+01  2.3356881767769E+01  2.0020307515739E+01  1.6683709548675E+01  1.3347076019810E+01  1.0010397574172E+01  6.6736649464505E+00  3.3368689613977E+00  0.0000000000000E+00 
 1.6848426477953E-08  3.3369671490614E-08  3.3365659877100E-08  3.3365825163502E-08  3.3366134177797E-08  3.3366536399493E-08  3.3367032513266E-08  3.3367620041148E-08  3.3368299659885E-08  1.6684539784027E-08 
 4.5724222271657E+04  9.1448444543315E+04  9.1448444543315E+04  9.1448444543315E+04  9.1448444543315E+04  9.1448444543315E+04  9.1448444543315E+04  9.1448444543315E+04  9.1448444543315E+04  4.5724222271657E+04 
 3.3835924481012E+05  6.7671848962025E+05  6.7671848962025E+05  6.7671848962025E+05  6.7671848962025E+05  6.7671848962025E+05  6.7671848962025E+05  6.7671848962025E+05  6.7671848962025E+05  3.3835924481012E+05 
 3.8408346708178E+05  7.6816693416356E+05  7.6816693416356E+05  7.6816693416356E+05  7.6816693416356E+05  7.6816693416356E+05  7.6816693416356E+05  7.6816693416356E+05  7.6816693416356E+05  3.8408346708178E+05 
 3.5000000000000E-01  3.5000000000000E-01  3.5000000000000E-01  3.5000000000000E-01  3.5000000000000E-01  3.5000000000000E-01  3.5000000000000E-01  3.5000000000000E-01  3.5000000000000E-01  3.5000000000000E-01 
 8.5301666666667E+00  1.7060333333333E+01  1.7060333333333E+01  1.7060333333333E+01  1.7060333333333E+01  1.7060333333333E+01  1.7060333333333E+01  1.7060333333333E+01  1.7060333333333E+01  8.5301666666667E+00 
 1.9751579466544E-01  1.9559800408714E-01  1.9557448981321E-01  1.9557545864775E-01  1.9557726995055E-01  1.9557962759321E-01  1.9558253558899E-01  1.9558597941315E-01  1.9558996303248E-01  1.9559453450335E-01 
 4.3744444444444E-05  8.7488888888889E-05  8.7488888888889E-05  8.7488888888889E-05  8.7488888888889E-05  8.7488888888889E-05  8.7488888888889E-05  8.7488888888889E-05  8.7488888888889E-05  4.3744444444444E-05 
 8.6666666666663E+01  8.6666666666663E+01  8.6666666666663E+01  8.6666666666663E+01  8.6666666666663E+01  8.6666666666663E+01  8.6666666666663E+01  8.6666666666663E+01  8.6666666666663E+01  8.6666666666663E+01 
 2.1666666666671E+01  2.1666666666671E+01  2.1666666666671E+01  2.1666666666671E+01  2.1666666666671E+01  2.1666666666671E+01  2.1666666666671E+01  2.1666666666671E+01  2.1666666666671E+01  2.1666666666671E+01 
-7.5673978543976E-05 -7.4934588975136E-05 -7.4925472595491E-05 -7.4925757055810E-05 -7.4926328384787E-05 -7.4927072416981E-05 -7.4927990697349E-05 -7.4929077623573E-05 -7.4930334721685E-05 -7.4931888502176E-05 
-7.5673978543976E+03 -7.4934588975136E+03 -7.4925472595491E+03 -7.4925757055810E+03 -7.4926328384787E+03 -7.4927072416981E+03 -7.4927990697349E+03 -7.4929077623573E+03 -7.4930334721685E+03 -7.4931888502176E+03 
 3.0576177223096E-04  1.5109443341717E-03  5.1202721431389E-03  1.1127610553844E-02  1.9533084622509E-02  3.0336785888668E-02  4.3538831377819E-02  5.9139364529760E-02  7.7138555049575E-02  8.6737837545430E-02 
 1.5349976331933E-03  1.3650207619166E-03  1.0463323935376E-03  7.7015248342628E-04  5.3645864539198E-04  3.4525116585559E-04  1.9653104617974E-04  9.0299765539760E-05  2.6559277248377E-05  5.3120044322688E-06 
-7.5673996951570E+03 -7.4934617734787E+03 -7.4925534261536E+03 -7.4925876033441E+03 -7.4926529080219E+03 -7.4927379237351E+03 -7.4928428050973E+03 -7.4929669920216E+03 -7.4931106372829E+03 -7.4932755933671E+03 
 4.5323200481378E+02  4.4756936210702E+02  4.4750117510328E+02  4.4750605575022E+02  4.4751428268861E+02  4.4752498265786E+02  4.4753816759266E+02  4.4755379477648E+02  4.4757187605108E+02  4.4759255332075E+02 
-8.0206316999708E+03 -7.9410311355857E+03 -7.9400546012569E+03 -7.9400936590943E+03 -7.9401671907105E+03 -7.9402629063930E+03 -7.9403809726900E+03 -7.9405207867980E+03 -7.9406825133339E+03 -7.9408681466879E+03 
ZONE T = "ANOD, 2.0000E-08", I = 10, SOLUTIONTIME = 2.000000E-08
ZONETYPE = ORDERED
DATAPACKING = BLOCK
STRANDID = 1
 0.0000000000000E+00  8.7488888888889E-05  1.7497777777778E-04  2.6246666666667E-04  3.4995555555556E-04  4.3744444444444E-04  5.2493333333333E-04  6.1242222222222E-04  6.9991111111111E-04  7.8740000000000E-04 
 1.1806863083701E-09  3.4973809427164E-09  5.8132418394319E-09  8.1291037618179E-09  1.0444987018607E-08  1.2760898168340E-08  1.5076843733207E-08  1.7392830133317E-08  1.9708500588332E-08  2.0866544731793E-08 
 9.1999999999859E-01  9.1999999999861E-01  9.1999999999861E-01  9.1999999999861E-01  9.1999999999861E-01  9.1999999999861E-01  9.1999999999861E-01  9.1999999999861E-01  9.1999999999861E-01  9.1999999999942E-01 
 4.0000000000706E-02  4.0000000000696E-02  4.0000000000696E-02  4.0000000000696E-02  4.0000000000696E-02  4.0000000000696E-02  4.0000000000696E-02  4.0000000000696E-02  4.0000000000696E-02  4.0000000000288E-02 
 4.0000000000706E-02  4.0000000000696E-02  4.0000000000696E-02  4.0000000000696E-02  4.0000000000696E-02  4.0000000000696E-02  4.0000000000696E-02  4.0000000000696E-02  4.0000000000696E-02  4.0000000000288E-02 
 2.9178116949126E-02  2.9178100925041E-02  2.9178053466676E-02  2.9177974583042E-02  2.9177864273986E-02  2.9177722539216E-02  2.9177549378353E-02  2.9177344790929E-02  2.9177108776392E-02  2.9176841334098E-02 
 0.0000000000000E+00 -4.7329481762221E-09 -8.9089181851790E-09 -1.2528110473512E-08 -1.5590524794630E-08 -1.8096156019329E-08 -2.0044997441608E-08 -2.1437040787403E-08 -2.2272276239131E-08 -2.2550692433943E-08 
 2.9824461148137E+02  2.9815179256208E+02  2.9815002713240E+02  2.9814999759454E+02  2.9814999715824E+02  2.9814999700328E+02  2.9814999705326E+02  2.9814999709400E+02  2.9814999714049E+02  2.9814999915019E+02 
-2.9178116949126E-02 -2.9178105657989E-02 -2.9178062375595E-02 -2.9177987111152E-02 -2.9177879864511E-02 -2.9177740635372E-02 -2.9177569423350E-02 -2.9177366227970E-02 -2.9177131048668E-02 -2.9176863884790E-02 
-4.0972783751488E-02 -4.0907964499702E-02 -4.0906731699339E-02 -4.0906711073065E-02 -4.0906710768395E-02 -4.0906710660186E-02 -4.0906710695088E-02 -4.0906710723538E-02 -4.0906710755999E-02 -4.0906712159630E-02 
 1.1794666802362E-02  1.1729858841712E-02  1.1728669323744E-02  1.1728723961912E-02  1.1728830903884E-02  1.1728970024813E-02  1.1729141271738E-02  1.1729344495567E-02  1.1729579707331E-02  1.1729848274840E-02 
 1.7002823242331E+00  3.3362247950549E+00  3.3350241464673E+00  3.3350256235133E+00  3.3350563467491E+00  3.3350965148130E+00  3.3351460753476E+00  3.3352048813498E+00  3.3352729433048E+00  1.6676758032357E+00 
 8.8110954317072E-09  2.6099857840184E-08  4.3382401786437E-08  6.0664953440406E-08  7.7947664319891E-08  9.5230583341463E-08  1.1251375919674E-07  1.2979723979687E-07  1.4708121724164E-07  1.4708121724164E-07 
 0.0000000000000E+00  3.3683947216766E+00  6.7040191923697E+00  1.0039044077443E+01  1.3374085062579E+01  1.6709161493302E+01  2.0044282788458E+01  2.3379458266774E+01  2.6714697179081E+01  3.0050009454011E+01 
 3.0050009454071E+01  2.6681614732308E+01  2.3345990261546E+01  2.0010965376558E+01  1.6675924391425E+01  1.3340847960643E+01  1.0005726665564E+01  6.6705511872153E+00  3.3353122748882E+00  0.0000000000000E+00 
 3.3851249720285E-08  6.6731919441163E-08  6.6715901341773E-08  6.6716081398635E-08  6.6716697645288E-08  6.6717501547624E-08  6.6718493266742E-08  6.6719668854646E-08  6.6721029092933E-08  3.3361297816383E-08 
 4.5724222271674E+04  9.1448444543348E+04  9.1448444543348E+04  9.1448444543348E+04  9.1448444543348E+04  9.1448444543348E+04  9.1448444543348E+04  9.1448444543348E+04  9.1448444543348E+04  4.5724222271674E+04 
 3.3835924481011E+05  6.7671848962021E+05  6.7671848962021E+05  6.7671848962021E+05  6.7671848962021E+05  6.7671848962021E+05  6.7671848962021E+05  6.7671848962021E+05  6.7671848962021E+05  3.3835924481011E+05 
 3.8408346708178E+05  7.6816693416356E+05  7.6816693416356E+05  7.6816693416356E+05  7.6816693416356E+05  7.6816693416356E+05  7.6816693416356E+05  7.6816693416356E+05  7.6816693416356E+05  3.8408346708178E+05 
 3.5000000000000E-01  3.5000000000000E-01  3.5000000000000E-01  3.5000000000000E-01  3.5000000000000E-01  3.5000000000000E-01  3.5000000000000E-01  3.5000000000000E-01  3.5000000000000E-01  3.5000000000000E-01 
 8.5301666666667E+00  1.7060333333333E+01  1.7060333333333E+01  1.7060333333333E+01  1.7060333333333E+01  1.7060333333333E+01  1.7060333333333E+01  1.7060333333333E+01  1.7060333333333E+01  8.5301666666667E+00 
 1.9932580343094E-01  1.9555449063451E-01  1.9548411401500E-01  1.9548420059279E-01  1.9548600145068E-01  1.9548835592191E-01  1.9549126093751E-01  1.9549470788084E-01  1.9549869736649E-01  1.9550330824748E-01 
 4.3744444444444E-05  8.7488888888889E-05  8.7488888888889E-05  8.7488888888889E-05  8.7488888888889E-05  8.7488888888889E-05  8.7488888888889E-05  8.7488888888889E-05  8.7488888888889E-05  4.3744444444444E-05 
 8.6666666666659E+01  8.6666666666659E+01  8.6666666666659E+01  8.6666666666659E+01  8.6666666666659E+01  8.6666666666659E+01  8.6666666666659E+01  8.6666666666659E+01  8.6666666666659E+01  8.6666666666659E+01 
 2.1666666666675E+01  2.1666666666675E+01  2.1666666666675E+01  2.1666666666675E+01  2.1666666666675E+01  2.1666666666675E+01  2.1666666666675E+01  2.1666666666675E+01  2.1666666666675E+01  2.1666666666675E+01 
-1.5204813884695E-04 -1.4985467448154E-04 -1.4981837440748E-04 -1.4981860309217E-04 -1.4981974166844E-04 -1.4982122849583E-04 -1.4982306393388E-04 -1.4982523905555E-04 -1.4982775562056E-04 -1.4983087848389E-04 
-7.6374160302975E+03 -7.4920085506401E+03 -7.4892901811986E+03 -7.4892846036359E+03 -7.4893413283653E+03 -7.4894156078849E+03 -7.4895073236533E+03 -7.4896161431978E+03 -7.4897420898877E+03 -7.4898989981717E+03 
 6.1717809804512E-04  3.0326796233608E-03  1.0260360301293E-02  2.2281690077779E-02  3.9097047968343E-02  6.0706622486275E-02  8.7110647534070E-02  1.1830941014600E-01  1.5430325018241E-01  1.7349898540344E-01 
 3.0686528323806E-03  2.7288135127174E-03  2.0916892324115E-03  1.5395863774040E-03  1.0724167494485E-03  6.9018020175639E-04  3.9287872933466E-04  1.8051528679444E-04  5.3093778752364E-05  1.0619054929928E-05 
-7.6374178753690E+03 -7.4920114361681E+03 -7.4892963666436E+03 -7.4892965271494E+03 -7.4893614282868E+03 -7.4894463226506E+03 -7.4895510918171E+03 -7.4896754034590E+03 -7.4898192811174E+03 -7.4899857646266E+03 
 4.5844138014216E+02  4.4729618135464E+02  4.4708986361729E+02  4.4709214440378E+02  4.4710033975136E+02  4.4711102803610E+02  4.4712420030914E+02  4.4713983128849E+02  4.4715792292925E+02  4.4717870788311E+02 
-8.0958592555111E+03 -7.9393076175227E+03 -7.9363862302609E+03 -7.9363886715531E+03 -7.9364617680382E+03 -7.9365573506867E+03 -7.9366752921262E+03 -7.9368152347474E+03 -7.9369772040466E+03 -7.9371644725097E+03 
ZONE T = "ANOD, 3.0000E-08", I = 10, SOLUTIONTIME = 3.000000E-08
ZONETYPE = ORDERED
DATAPACKING = BLOCK
STRANDID = 1
 0.0000000000000E+00  8.7488888888889E-05  1.7497777777778E-04  2.6246666666667E-04  3.4995555555556E-04  4.3744444444444E-04  5.2493333333333E-04  6.1242222222222E-04  6.9991111111111E-04  7.8740000000000E-04 
 1.1911678281287E-09  3.5076039757887E-09  5.8224016923063E-09  8.1371798319941E-09  1.0451978919326E-08  1.2767895639502E-08  1.5083846693362E-08  1.7398749018540E-08  1.9715151472717E-08  2.0872653817779E-08 
 9.1999999999787E-01  9.1999999999791E-01  9.1999999999791E-01  9.1999999999791E-01  9.1999999999791E-01  9.1999999999791E-01  9.1999999999791E-01  9.1999999999791E-01  9.1999999999791E-01  9.1999999999914E-01 
 4.0000000001064E-02  4.0000000001044E-02  4.0000000001044E-02  4.0000000001044E-02  4.0000000001044E-02  4.0000000001044E-02  4.0000000001044E-02  4.0000000001044E-02  4.0000000001044E-02  4.0000000000432E-02 
 4.0000000001064E-02  4.0000000001044E-02  4.0000000001044E-02  4.0000000001044E-02  4.0000000001044E-02  4.0000000001044E-02  4.0000000001044E-02  4.0000000001044E-02  4.0000000001044E-02  4.0000000000432E-02 
 2.9183511253925E-02  2.9183495086313E-02  2.9183447489083E-02  2.9183368481147E-02  2.9183258062503E-02  2.9183116232856E-02  2.9182942991826E-02  2.9182738338947E-02  2.9182502273665E-02  2.9182234795336E-02 
 0.0000000000000E+00 -4.7309364148961E-09 -8.9049568077226E-09 -1.2522455088994E-08 -1.5583435965358E-08 -1.8087894400596E-08 -2.0035823660645E-08 -2.1427215491023E-08 -2.2262060059902E-08 -2.2540345995908E-08 
 2.9828987877061E+02  2.9815352213508E+02  2.9815006970367E+02  2.9814999690691E+02  2.9814999561387E+02  2.9814999566451E+02  2.9814999551131E+02  2.9814999565050E+02  2.9814999575215E+02  2.9814999867802E+02 
-2.9183511253925E-02 -2.9183499817249E-02 -2.9183456394040E-02 -2.9183381003603E-02 -2.9183273645939E-02 -2.9183134320750E-02 -2.9182963027650E-02 -2.9182759766163E-02 -2.9182524535725E-02 -2.9182257335682E-02 
-4.1004398427714E-02 -4.0909172263615E-02 -4.0906761426540E-02 -4.0906710592588E-02 -4.0906709689659E-02 -4.0906709725021E-02 -4.0906709618039E-02 -4.0906709715233E-02 -4.0906709786221E-02 -4.0906711829745E-02 
 1.1820887173788E-02  1.1725672446365E-02  1.1723305032500E-02  1.1723329588985E-02  1.1723436043720E-02  1.1723575404271E-02  1.1723746590389E-02  1.1723949949071E-02  1.1724185250496E-02  1.1724454494062E-02 
 1.7153765474149E+00  3.3358525536426E+00  3.3334930822969E+00  3.3334648901053E+00  3.3334950563798E+00  3.3335353925233E+00  3.3335848357636E+00  3.3336437271015E+00  3.3337118401163E+00  1.6668955703879E+00 
 8.8893192234930E-09  2.6176149217259E-08  4.3450758901265E-08  6.0725222618738E-08  7.7999842680442E-08  9.5274671756060E-08  1.1254975706015E-07  1.2982514755085E-07  1.4710110716352E-07  1.4710110716352E-07 
 0.0000000000000E+00  3.3833028241532E+00  6.7179756423412E+00  1.0051454628398E+01  1.3384934601637E+01  1.6718449826078E+01  2.0052009940089E+01  2.3385624221836E+01  2.6719302005338E+01  3.0053053495481E+01 
 3.0053053495735E+01  2.6669750671498E+01  2.3335077853527E+01  2.0001598867326E+01  1.6668118894083E+01  1.3334603669631E+01  1.0001043555488E+01  6.6674292740549E+00  3.3337514904456E+00  0.0000000000000E+00 
 5.1005015194434E-08  1.0009044497759E-07  1.0005083216474E-07  1.0005073029969E-07  1.0005164820909E-07  1.0005285547286E-07  1.0005434162438E-07  1.0005610612566E-07  1.0005814749410E-07  5.0030253520262E-08 
 4.5724222271692E+04  9.1448444543381E+04  9.1448444543381E+04  9.1448444543381E+04  9.1448444543381E+04  9.1448444543381E+04  9.1448444543381E+04  9.1448444543381E+04  9.1448444543381E+04  4.5724222271691E+04 
 3.3835924481009E+05  6.7671848962018E+05  6.7671848962018E+05  6.7671848962018E+05  6.7671848962018E+05  6.7671848962018E+05  6.7671848962018E+05  6.7671848962018E+05  6.7671848962018E+05  3.3835924481009E+05 
 3.8408346708178E+05  7.6816693416356E+05  7.6816693416356E+05  7.6816693416356E+05  7.6816693416356E+05  7.6816693416356E+05  7.6816693416356E+05  7.6816693416356E+05  7.6816693416356E+05  3.8408346708178E+05 
 3.5000000000000E-01  3.5000000000000E-01  3.5000000000000E-01  3.5000000000000E-01  3.5000000000000E-01  3.5000000000000E-01  3.5000000000000E-01  3.5000000000000E-01  3.5000000000000E-01  3.5000000000000E-01 
 8.5301666666667E+00  1.7060333333333E+01  1.7060333333333E+01  1.7060333333333E+01  1.7060333333333E+01  1.7060333333333E+01  1.7060333333333E+01  1.7060333333333E+01  1.7060333333333E+01  8.5301666666667E+00 
 2.0109531436450E-01  1.9553267151732E-01  1.9539436992030E-01  1.9539271742084E-01  1.9539448563215E-01  1.9539684995545E-01  1.9539974809579E-01  1.9540320004112E-01  1.9540719251966E-01  1.9541184076761E-01 
 4.3744444444444E-05  8.7488888888889E-05  8.7488888888889E-05  8.7488888888889E-05  8.7488888888889E-05  8.7488888888889E-05  8.7488888888889E-05  8.7488888888889E-05  8.7488888888889E-05  4.3744444444444E-05 
 8.6666666666655E+01  8.6666666666655E+01  8.6666666666655E+01  8.6666666666655E+01  8.6666666666655E+01  8.6666666666655E+01  8.6666666666655E+01  8.6666666666655E+01  8.6666666666655E+01  8.6666666666655E+01 
 2.1666666666679E+01  2.1666666666679E+01  2.1666666666679E+01  2.1666666666679E+01  2.1666666666679E+01  2.1666666666679E+01  2.1666666666679E+01  2.1666666666679E+01  2.1666666666679E+01  2.1666666666679E+01 
-2.2910695579943E-04 -2.2476862568363E-04 -2.2467895305411E-04 -2.2467845536923E-04 -2.2468014855121E-04 -2.2468238195788E-04 -2.2468513192929E-04 -2.2468839724183E-04 -2.2469217453515E-04 -2.2469688099706E-04 
-7.7058816952475E+03 -7.4913951202094E+03 -7.4860578646636E+03 -7.4859852277058E+03 -7.4860406882767E+03 -7.4861153462046E+03 -7.4862067995409E+03 -7.4863158186278E+03 -7.4864418914587E+03 -7.4866002513167E+03 
 9.3417312881243E-04  4.5652059620578E-03  1.5420353274918E-02  3.3462343719692E-02  5.8691999641690E-02  9.1109619080257E-02  1.3071555287056E-01  1.7751023154899E-01  2.3149416555739E-01  2.6028351519593E-01 
 4.6010045343050E-03  4.0913972401917E-03  3.1360691444359E-03  2.3083001448210E-03  1.6078732384760E-03  1.0347864192843E-03  5.8904265640633E-04  2.7064638277264E-04  7.9603450955849E-05  1.5921140713842E-05 
-7.7058835445942E+03 -7.4913980153195E+03 -7.4860640690364E+03 -7.4859971770732E+03 -7.4860608186848E+03 -7.4861460938074E+03 -7.4862506006102E+03 -7.4863751095803E+03 -7.4865191088838E+03 -7.4866870411486E+03 
 4.6353937935368E+02  4.4708665146961E+02  4.4668022104922E+02  4.4667737900283E+02  4.4668547735131E+02  4.4669619232942E+02  4.4670934045621E+02  4.4672498075672E+02  4.4674307426257E+02  4.4676396076629E+02 
-8.1694229239479E+03 -7.9384846667891E+03 -7.9327442900857E+03 -7.9326745560761E+03 -7.9327462960361E+03 -7.9328422861368E+03 -7.9329599410664E+03 -7.9331000903370E+03 -7.9332621831463E+03 -7.9334510019149E+03 
ZONE T = "ANOD, 4.0000E-08", I = 10, SOLUTIONTIME = 4.000000E-08
ZONETYPE = ORDERED
DATAPACKING = BLOCK
STRANDID = 1
 0.0000000000000E+00  8.7488888888889E-05  1.7497777777778E-04  2.6246666666667E-04  3.4995555555556E-04  4.3744444444444E-04  5.2493333333333E-04  6.1242222222222E-04  6.9991111111111E-04  7.8740000000000E-04 
 1.2014154305100E-09  3.5178364148063E-09  5.8315817057854E-09  8.1452742235055E-09  1.0457897258919E-08  1.2770548285229E-08  1.5084323256533E-08  1.7398139120145E-08  1.9710912753543E-08  2.0868598545093E-08 
 9.1999999999715E-01  9.1999999999722E-01  9.1999999999722E-01  9.1999999999722E-01  9.1999999999722E-01  9.1999999999722E-01  9.1999999999722E-01  9.1999999999722E-01  9.1999999999722E-01  9.1999999999885E-01 
 4.0000000001425E-02  4.0000000001392E-02  4.0000000001391E-02  4.0000000001391E-02  4.0000000001391E-02  4.0000000001391E-02  4.0000000001391E-02  4.0000000001391E-02  4.0000000001391E-02  4.0000000000576E-02 
 4.0000000001425E-02  4.0000000001392E-02  4.0000000001391E-02  4.0000000001391E-02  4.0000000001391E-02  4.0000000001391E-02  4.0000000001391E-02  4.0000000001391E-02  4.0000000001391E-02  4.0000000000576E-02 
 2.9188917425117E-02  2.9188901117151E-02  2.9188853380885E-02  2.9188774248370E-02  2.9188663719887E-02  2.9188521795145E-02  2.9188348473764E-02  2.9188143755276E-02  2.9187907639128E-02  2.9187640124675E-02 
 0.0000000000000E+00 -4.7289822039671E-09 -8.9010520314301E-09 -1.2516852770779E-08 -1.5576397109724E-08 -1.8079680206010E-08 -2.0026695330084E-08 -2.1417434230320E-08 -2.2251887075417E-08 -2.2530042471188E-08 