TITLE = "Solution on Domain BulkDomain1D_2"
VARIABLES = "x [m]"  
"Vel_axial" 	"MF_sp(ECDMC)" 	"MF_sp(Li+)" 	"MF_sp(PF6-)" 	"Volt(Electroly)" 	"Volt(CathodeVo)" 	"Temperature" 	
"Potential Drop Electrode-Electrolyte [V]" 	"Surf_0 Equilibrium Potential Drop Electrode-Electrolyte [V]" 	"Overpotential_0 [V]" 	"Current Source [A/m^2]" 	"Li+ flux [kmol/m^2/s]" 	"Electrolyte Current [A/m^2]" 	"Electrode Current [A/m^2]" 	
"CV Capacity discharged [A-s/m^2]" 	"Depth of discharge in CV [A-s/m^2]" 	"CV Capacity remaining [A-s/m^2]" 	"Initial CV capacity [A-s/m^2]" 	"Porosity []" 	"Surface Area [m2/m2] (area per area)" 	"Specific current (per particle area) [A/m^2]" 	"Control volume thickness [m]" 	
"MoleDens LiCoO2 [kmol/m^3]" 	"MoleDens CoO2 [kmol/m^3]" 	"qHeat_accum [J/m3]" 	"qHeat_step [W/m3]" 	"Joule_Lyte [W/m3]" 	"Joule_Solid [W/m3]" 	"electrodHeat [W/m3]" 	"OverpotHeat [W/m3]" 	"deltaSHeat [W/m3]" 	

ZONE T = "CATH, 0.0000E+00", I = 10, SOLUTIONTIME = 0.000000E+00
ZONETYPE = ORDERED
DATAPACKING = BLOCK
STRANDID = 3
 1.2700000000000E-03  1.3377333333333E-03  1.4054666666667E-03  1.4732000000000E-03  1.5409333333333E-03  1.6086666666667E-03  1.6764000000000E-03  1.7441333333333E-03  1.8118666666667E-03  1.8796000000000E-03 
 0.0000000000000E+00  0.0000000000000E+00  0.0000000000000E+00  0.0000000000000E+00  0.0000000000000E+00  0.0000000000000E+00  0.0000000000000E+00  0.0000000000000E+00  0.0000000000000E+00  0.0000000000000E+00 
 9.2000000000000E-01  9.2000000000000E-01  9.2000000000000E-01  9.2000000000000E-01  9.2000000000000E-01  9.2000000000000E-01  9.2000000000000E-01  9.2000000000000E-01  9.2000000000000E-01  9.2000000000000E-01 
 4.0000000000000E-02  4.0000000000000E-02  4.0000000000000E-02  4.0000000000000E-02  4.0000000000000E-02  4.0000000000000E-02  4.0000000000000E-02  4.0000000000000E-02  4.0000000000000E-02  4.0000000000000E-02 
 4.0000000000000E-02  4.0000000000000E-02  4.0000000000000E-02  4.0000000000000E-02  4.0000000000000E-02  4.0000000000000E-02  4.0000000000000E-02  4.0000000000000E-02  4.0000000000000E-02  4.0000000000000E-02 
-7.0000000000000E-02 -7.0000000000000E-02 -7.0000000000000E-02 -7.0000000000000E-02 -7.0000000000000E-02 -7.0000000000000E-02 -7.0000000000000E-02 -7.0000000000000E-02 -7.0000000000000E-02 -7.0000000000000E-02 
 3.8000000000000E+00  3.8000000000000E+00  3.8000000000000E+00  3.8000000000000E+00  3.8000000000000E+00  3.8000000000000E+00  3.8000000000000E+00  3.8000000000000E+00  3.8000000000000E+00  3.8000000000000E+00 
 2.9815000000000E+02  2.9815000000000E+02  2.9815000000000E+02  2.9815000000000E+02  2.9815000000000E+02  2.9815000000000E+02  2.9815000000000E+02  2.9815000000000E+02  2.9815000000000E+02  2.9815000000000E+02 
 3.8700000000000E+00  3.8700000000000E+00  3.8700000000000E+00  3.8700000000000E+00  3.8700000000000E+00  3.8700000000000E+00  3.8700000000000E+00  3.8700000000000E+00  3.8700000000000E+00  3.8700000000000E+00 
 3.9714142713289E+00  3.9714142713289E+00  3.9714142713289E+00  3.9714142713289E+00  3.9714142713289E+00  3.9714142713289E+00  3.9714142713289E+00  3.9714142713289E+00  3.9714142713289E+00  3.9714142713289E+00 
-1.0141427132889E-01 -1.0141427132889E-01 -1.0141427132889E-01 -1.0141427132889E-01 -1.0141427132889E-01 -1.0141427132889E-01 -1.0141427132889E-01 -1.0141427132889E-01 -1.0141427132889E-01 -1.0141427132889E-01 
-2.3826357195711E-01 -4.7652714391422E-01 -4.7652714391423E-01 -4.7652714391422E-01 -4.7652714391423E-01 -4.7652714391423E-01 -4.7652714391422E-01 -4.7652714391423E-01 -4.7652714391422E-01 -2.3826357195711E-01 
-0.0000000000000E+00 -0.0000000000000E+00 -0.0000000000000E+00 -0.0000000000000E+00 -0.0000000000000E+00 -0.0000000000000E+00 -0.0000000000000E+00 -0.0000000000000E+00 -0.0000000000000E+00 -0.0000000000000E+00 
 2.3826357195711E-01  0.0000000000000E+00  0.0000000000000E+00  0.0000000000000E+00  0.0000000000000E+00  0.0000000000000E+00  0.0000000000000E+00  0.0000000000000E+00  0.0000000000000E+00  0.0000000000000E+00 
 0.0000000000000E+00 -0.0000000000000E+00 -0.0000000000000E+00 -0.0000000000000E+00 -0.0000000000000E+00 -0.0000000000000E+00 -0.0000000000000E+00 -0.0000000000000E+00 -0.0000000000000E+00  2.3826357195711E-01 
-0.0000000000000E+00 -0.0000000000000E+00 -0.0000000000000E+00 -0.0000000000000E+00 -0.0000000000000E+00 -0.0000000000000E+00 -0.0000000000000E+00 -0.0000000000000E+00 -0.0000000000000E+00 -0.0000000000000E+00 
 7.2440786946225E+03  1.4488157389245E+04  1.4488157389245E+04  1.4488157389245E+04  1.4488157389245E+04  1.4488157389245E+04  1.4488157389245E+04  1.4488157389245E+04  1.4488157389245E+04  7.2440786946225E+03 
 4.9259735123433E+04  9.8519470246865E+04  9.8519470246866E+04  9.8519470246865E+04  9.8519470246866E+04  9.8519470246866E+04  9.8519470246865E+04  9.8519470246866E+04  9.8519470246865E+04  4.9259735123433E+04 
 5.6503813818055E+04  1.1300762763611E+05  1.1300762763611E+05  1.1300762763611E+05  1.1300762763611E+05  1.1300762763611E+05  1.1300762763611E+05  1.1300762763611E+05  1.1300762763611E+05  5.6503813818055E+04 
 3.5000000000000E-01  3.5000000000000E-01  3.5000000000000E-01  3.5000000000000E-01  3.5000000000000E-01  3.5000000000000E-01  3.5000000000000E-01  3.5000000000000E-01  3.5000000000000E-01  3.5000000000000E-01 
 6.6040000000000E+00  1.3208000000000E+01  1.3208000000000E+01  1.3208000000000E+01  1.3208000000000E+01  1.3208000000000E+01  1.3208000000000E+01  1.3208000000000E+01  1.3208000000000E+01  6.6040000000000E+00 
-3.6078675341780E-02 -3.6078675341780E-02 -3.6078675341780E-02 -3.6078675341780E-02 -3.6078675341780E-02 -3.6078675341780E-02 -3.6078675341780E-02 -3.6078675341780E-02 -3.6078675341780E-02 -3.6078675341780E-02 
 3.3866666666667E-05  6.7733333333333E-05  6.7733333333334E-05  6.7733333333333E-05  6.7733333333334E-05  6.7733333333334E-05  6.7733333333333E-05  6.7733333333334E-05  6.7733333333333E-05  3.3866666666667E-05 
 2.6603001364256E+01  2.6603001364256E+01  2.6603001364256E+01  2.6603001364256E+01  2.6603001364256E+01  2.6603001364256E+01  2.6603001364256E+01  2.6603001364256E+01  2.6603001364256E+01  2.6603001364256E+01 
 1.7735334242838E+01  1.7735334242838E+01  1.7735334242838E+01  1.7735334242838E+01  1.7735334242838E+01  1.7735334242838E+01  1.7735334242838E+01  1.7735334242838E+01  1.7735334242838E+01  1.7735334242838E+01 
 0.0000000000000E+00  0.0000000000000E+00  0.0000000000000E+00  0.0000000000000E+00  0.0000000000000E+00  0.0000000000000E+00  0.0000000000000E+00  0.0000000000000E+00  0.0000000000000E+00  0.0000000000000E+00 
 0.0000000000000E+00  0.0000000000000E+00  0.0000000000000E+00  0.0000000000000E+00  0.0000000000000E+00  0.0000000000000E+00  0.0000000000000E+00  0.0000000000000E+00  0.0000000000000E+00  0.0000000000000E+00 
 0.0000000000000E+00  0.0000000000000E+00  0.0000000000000E+00  0.0000000000000E+00  0.0000000000000E+00  0.0000000000000E+00  0.0000000000000E+00  0.0000000000000E+00  0.0000000000000E+00  0.0000000000000E+00 
 0.0000000000000E+00  0.0000000000000E+00  0.0000000000000E+00  0.0000000000000E+00  0.0000000000000E+00  0.0000000000000E+00  0.0000000000000E+00  0.0000000000000E+00  0.0000000000000E+00  0.0000000000000E+00 
 0.0000000000000E+00  0.0000000000000E+00  0.0000000000000E+00  0.0000000000000E+00  0.0000000000000E+00  0.0000000000000E+00  0.0000000000000E+00  0.0000000000000E+00  0.0000000000000E+00  0.0000000000000E+00 
 0.0000000000000E+00  0.0000000000000E+00  0.0000000000000E+00  0.0000000000000E+00  0.0000000000000E+00  0.0000000000000E+00  0.0000000000000E+00  0.0000000000000E+00  0.0000000000000E+00  0.0000000000000E+00 
 0.0000000000000E+00  0.0000000000000E+00  0.0000000000000E+00  0.0000000000000E+00  0.0000000000000E+00  0.0000000000000E+00  0.0000000000000E+00  0.0000000000000E+00  0.0000000000000E+00  0.0000000000000E+00 
ZONE T = "CATH, 1.0000E-08", I = 10, SOLUTIONTIME = 1.000000E-08
ZONETYPE = ORDERED
DATAPACKING = BLOCK
STRANDID = 3
 1.2700000000000E-03  1.3377333333333E-03  1.4054666666667E-03  1.4732000000000E-03  1.5409333333333E-03  1.6086666666667E-03  1.6764000000000E-03  1.7441333333333E-03  1.8118666666667E-03  1.8796000000000E-03 
 1.9707213533022E-08  1.7391068176738E-08  1.5074639421407E-08  1.2757731677322E-08  1.0439785964127E-08  8.1213326732166E-09  5.8025387362044E-09  3.4817547266626E-09  1.1595130702786E-09 -2.5424538119347E-12 
 9.2000000000032E-01  9.2000000000090E-01  9.2000000000090E-01  9.2000000000090E-01  9.2000000000090E-01  9.2000000000090E-01  9.2000000000090E-01  9.2000000000090E-01  9.2000000000090E-01  9.2000000000090E-01 
 3.9999999999841E-02  3.9999999999551E-02  3.9999999999551E-02  3.9999999999551E-02  3.9999999999550E-02  3.9999999999550E-02  3.9999999999550E-02  3.9999999999550E-02  3.9999999999549E-02  3.9999999999549E-02 
 3.9999999999841E-02  3.9999999999551E-02  3.9999999999551E-02  3.9999999999551E-02  3.9999999999550E-02  3.9999999999550E-02  3.9999999999550E-02  3.9999999999550E-02  3.9999999999549E-02  3.9999999999549E-02 
 2.9171015673860E-02  2.9170808642914E-02  2.9170625940483E-02  2.9170467569551E-02  2.9170333535168E-02  2.9170223844389E-02  2.9170138506400E-02  2.9170077532371E-02  2.9170040935611E-02  2.9170028731431E-02 
 3.8001746603050E+00  3.8001725051919E+00  3.8001660396883E+00  3.8001552632666E+00  3.8001401750351E+00  3.8001207737381E+00  3.8000970577547E+00  3.8000690250988E+00  3.8000366734183E+00  3.8000000000000E+00 
 2.9815000103845E+02  2.9815000409776E+02  2.9815000421373E+02  2.9815000419589E+02  2.9815000416112E+02  2.9815000423477E+02  2.9815000419360E+02  2.9815000381072E+02  2.9814998664480E+02  2.9814916176651E+02 
 3.7710036446311E+00  3.7710016965490E+00  3.7709954137478E+00  3.7709847956970E+00  3.7709698415000E+00  3.7709505498938E+00  3.7709269192483E+00  3.7708989475664E+00  3.7708666324827E+00  3.7708299712686E+00 
 3.9714142704905E+00  3.9714142680209E+00  3.9714142679273E+00  3.9714142679417E+00  3.9714142679697E+00  3.9714142679103E+00  3.9714142679435E+00  3.9714142682526E+00  3.9714142821086E+00  3.9714149479386E+00 
-2.0041062585938E-01 -2.0041257147183E-01 -2.0041885417943E-01 -2.0042947224465E-01 -2.0044442646974E-01 -2.0046371801652E-01 -2.0048734869516E-01 -2.0051532068614E-01 -2.0054764962600E-01 -2.0058497666998E-01 
-1.6673997669929E+00 -3.3349268771989E+00 -3.3353350245128E+00 -3.3360248577643E+00 -3.3369966406730E+00 -3.3382507344936E+00 -3.3397875035743E+00 -3.3416074069750E+00 -3.3437066940496E+00 -1.6729379499808E+00 
 1.4706617803060E-07  1.2978409362166E-07  1.1250002448208E-07  9.5212367688231E-08  7.7919698763994E-08  6.0620505134698E-08  4.3313376382106E-08  2.5996794213550E-08  8.6693469122957E-09  8.6693469122957E-09 
 3.0046833520091E+01  2.6711978814291E+01  2.3376864647562E+01  2.0041200035318E+01  1.6704705670045E+01  1.3367098169798E+01  1.0028095507866E+01  6.6874151066781E+00  3.3447742650010E+00  0.0000000000000E+00 
 0.0000000000000E+00  3.3348470778892E+00  6.6699618796088E+00  1.0005625630617E+01  1.3342120127417E+01  1.6679727479689E+01  2.0018730159429E+01  2.3359411048877E+01  2.6702051385517E+01  3.0046834285996E+01 
 1.6673997669929E-08  3.3349268771989E-08  3.3353350245128E-08  3.3360248577643E-08  3.3369966406730E-08  3.3382507344936E-08  3.3397875035743E-08  3.3416074069750E-08  3.3437066940496E-08  1.6729379499808E-08 
 7.2440786946392E+03  1.4488157389278E+04  1.4488157389278E+04  1.4488157389278E+04  1.4488157389278E+04  1.4488157389278E+04  1.4488157389278E+04  1.4488157389278E+04  1.4488157389278E+04  7.2440786946392E+03 
 4.9259735123416E+04  9.8519470246832E+04  9.8519470246832E+04  9.8519470246832E+04  9.8519470246832E+04  9.8519470246832E+04  9.8519470246832E+04  9.8519470246832E+04  9.8519470246832E+04  4.9259735123416E+04 
 5.6503813818055E+04  1.1300762763611E+05  1.1300762763611E+05  1.1300762763611E+05  1.1300762763611E+05  1.1300762763611E+05  1.1300762763611E+05  1.1300762763611E+05  1.1300762763611E+05  5.6503813818055E+04 
 3.5000000000000E-01  3.5000000000000E-01  3.5000000000000E-01  3.5000000000000E-01  3.5000000000000E-01  3.5000000000000E-01  3.5000000000000E-01  3.5000000000000E-01  3.5000000000000E-01  3.5000000000000E-01 
 6.6040000000000E+00  1.3208000000000E+01  1.3208000000000E+01  1.3208000000000E+01  1.3208000000000E+01  1.3208000000000E+01  1.3208000000000E+01  1.3208000000000E+01  1.3208000000000E+01  6.6040000000000E+00 
-2.5248330814550E-01 -2.5249294951536E-01 -2.5252385103822E-01 -2.5257607947943E-01 -2.5264965480565E-01 -2.5274460436808E-01 -2.5286095575214E-01 -2.5299874371403E-01 -2.5315768428601E-01 -2.5332191853132E-01 
 3.3866666666667E-05  6.7733333333333E-05  6.7733333333334E-05  6.7733333333333E-05  6.7733333333334E-05  6.7733333333334E-05  6.7733333333333E-05  6.7733333333334E-05  6.7733333333333E-05  3.3866666666667E-05 
 2.6603001364262E+01  2.6603001364262E+01  2.6603001364262E+01  2.6603001364262E+01  2.6603001364262E+01  2.6603001364262E+01  2.6603001364262E+01  2.6603001364262E+01  2.6603001364262E+01  2.6603001364262E+01 
 1.7735334242833E+01  1.7735334242833E+01  1.7735334242833E+01  1.7735334242833E+01  1.7735334242833E+01  1.7735334242833E+01  1.7735334242833E+01  1.7735334242833E+01  1.7735334242833E+01  1.7735334242833E+01 
 2.1716042449892E-04  2.1717170278866E-04  2.1720756230405E-04  2.1726817265967E-04  2.1735355766906E-04  2.1746375021094E-04  2.1759878604134E-04  2.1775870981211E-04  2.1794329262977E-04  2.1811962423802E-04 
 2.1716042449892E+04  2.1717170278866E+04  2.1720756230405E+04  2.1726817265967E+04  2.1735355766906E+04  2.1746375021094E+04  2.1759878604134E+04  2.1775870981211E+04  2.1794329262977E+04  2.1811962423802E+04 
 8.6743420822878E-02  7.7148989271648E-02  5.9157006444888E-02  4.3558663230273E-02  3.0354139782035E-02  1.9544412276409E-02  1.1131268842589E-02  5.1173165757882E-03  1.5059699601834E-03  3.0142817403547E-04 
 5.3052424858139E-02  2.6527427854255E-01  9.0200882119356E-01  1.9634657014900E+00  3.4499980718455E+00  5.3621028847877E+00  7.7004212312680E+00  1.0465738752580E+01  1.3658983836123E+01  1.5362713110917E+01 
 2.1715902654046E+04  2.1716827855598E+04  2.1719795064578E+04  2.1724810241603E+04  2.1731875414694E+04  2.1740993373797E+04  2.1752167051634E+04  2.1765400125142E+04  2.1780668773171E+04  2.1796599409263E+04 
 9.8670658718800E+03  9.8675384517361E+03  9.8690554712356E+03  9.8716196107926E+03  9.8752319552970E+03  9.8798940045607E+03  9.8856074084324E+03  9.8923742246711E+03  9.9001848208366E+03  9.9084513681413E+03 
 1.1848836782166E+04  1.1849289403862E+04  1.1850739593342E+04  1.1853190630810E+04  1.1856643459398E+04  1.1861099369236E+04  1.1866559643202E+04  1.1873025900471E+04  1.1880483952334E+04  1.1888148041121E+04 
ZONE T = "CATH, 2.0000E-08", I = 10, SOLUTIONTIME = 2.000000E-08
ZONETYPE = ORDERED
DATAPACKING = BLOCK
STRANDID = 3
 1.2700000000000E-03  1.3377333333333E-03  1.4054666666667E-03  1.4732000000000E-03  1.5409333333333E-03  1.6086666666667E-03  1.6764000000000E-03  1.7441333333333E-03  1.8118666666667E-03  1.8796000000000E-03 
 1.9706755044554E-08  1.7390355840827E-08  1.5074036332801E-08  1.2757237698951E-08  1.0440127307220E-08  8.1217826795822E-09  5.8023706807016E-09  3.4816948420525E-09  1.1592037241110E-09 -2.7240579583923E-12 
 9.2000000000064E-01  9.2000000000180E-01  9.2000000000180E-01  9.2000000000180E-01  9.2000000000180E-01  9.2000000000180E-01  9.2000000000180E-01  9.2000000000180E-01  9.2000000000180E-01  9.2000000000180E-01 
 3.9999999999682E-02  3.9999999999101E-02  3.9999999999101E-02  3.9999999999101E-02  3.9999999999101E-02  3.9999999999100E-02  3.9999999999100E-02  3.9999999999099E-02  3.9999999999099E-02  3.9999999999098E-02 
 3.9999999999682E-02  3.9999999999101E-02  3.9999999999101E-02  3.9999999999101E-02  3.9999999999101E-02  3.9999999999100E-02  3.9999999999100E-02  3.9999999999099E-02  3.9999999999099E-02  3.9999999999098E-02 
 2.9176397080903E-02  2.9176190028059E-02  2.9176007306404E-02  2.9175848918918E-02  2.9175714870635E-02  2.9175605168646E-02  2.9175519822101E-02  2.9175458842214E-02  2.9175422242265E-02  2.9175410037538E-02 
 3.8001746794514E+00  3.8001725241027E+00  3.8001660578909E+00  3.8001552802882E+00  3.8001401904030E+00  3.8001207869788E+00  3.8000970683944E+00  3.8000690326632E+00  3.8000366774326E+00  3.8000000000000E+00 
 2.9815000213391E+02  2.9815000823169E+02  2.9815000851801E+02  2.9815000849364E+02  2.9815000850806E+02  2.9815000853369E+02  2.9815000849611E+02  2.9815000711882E+02  2.9814995742238E+02  2.9814836192447E+02 
 3.7709982823705E+00  3.7709963340746E+00  3.7709900505845E+00  3.7709794313693E+00  3.7709644755324E+00  3.7709451818102E+00  3.7709215485723E+00  3.7708935738210E+00  3.7708612551903E+00  3.7708245899625E+00 
 3.9714142696061E+00  3.9714142646837E+00  3.9714142644525E+00  3.9714142644722E+00  3.9714142644606E+00  3.9714142644399E+00  3.9714142644702E+00  3.9714142655819E+00  3.9714143056962E+00  3.9714155935586E+00 
-2.0041598723555E-01 -2.0041793060901E-01 -2.0042421386806E-01 -2.0043483310289E-01 -2.0044978892821E-01 -2.0046908262971E-01 -2.0049271589787E-01 -2.0052069176098E-01 -2.0055305050586E-01 -2.0059100359617E-01 
-1.6675740640547E+00 -3.3352763033820E+00 -3.3356845832799E+00 -3.3363745626294E+00 -3.3373465668646E+00 -3.3386009168184E+00 -3.3401380164227E+00 -3.3419580463511E+00 -3.3440491450606E+00 -1.6730070281299E+00 
 1.4708186437130E-07  1.2979774852147E-07  1.1251178207503E-07  9.5222240072581E-08  7.7927660999057E-08  6.0626581729426E-08  4.3317536994474E-08  2.5999060616796E-08  8.6697478528549E-09  8.6697478528549E-09 
 3.0050009233292E+01  2.6714797017239E+01  2.3379316573901E+01  2.0043287000899E+01  1.6706426435956E+01  1.3368452694469E+01  1.0029083227929E+01  6.6880351963236E+00  3.3450316006895E+00  0.0000000000000E+00 
 0.0000000000000E+00  3.3352122157489E+00  6.6706926590278E+00  1.0006722231979E+01  1.3343582796731E+01  1.6681556538725E+01  2.0020926005203E+01  2.3361974036487E+01  2.6704977632420E+01  3.0050009233111E+01 
 3.3349738310476E-08  6.6702031805809E-08  6.6710196077927E-08  6.6723994203937E-08  6.6743432075377E-08  6.6768516513120E-08  6.6799255199970E-08  6.6835654533260E-08  6.6877558391102E-08  3.3459449781107E-08 
 7.2440786946558E+03  1.4488157389312E+04  1.4488157389312E+04  1.4488157389312E+04  1.4488157389312E+04  1.4488157389312E+04  1.4488157389312E+04  1.4488157389312E+04  1.4488157389312E+04  7.2440786946559E+03 
 4.9259735123400E+04  9.8519470246798E+04  9.8519470246799E+04  9.8519470246798E+04  9.8519470246799E+04  9.8519470246799E+04  9.8519470246798E+04  9.8519470246799E+04  9.8519470246798E+04  4.9259735123399E+04 
 5.6503813818055E+04  1.1300762763611E+05  1.1300762763611E+05  1.1300762763611E+05  1.1300762763611E+05  1.1300762763611E+05  1.1300762763611E+05  1.1300762763611E+05  1.1300762763611E+05  5.6503813818055E+04 
 3.5000000000000E-01  3.5000000000000E-01  3.5000000000000E-01  3.5000000000000E-01  3.5000000000000E-01  3.5000000000000E-01  3.5000000000000E-01  3.5000000000000E-01  3.5000000000000E-01  3.5000000000000E-01 
 6.6040000000000E+00  1.3208000000000E+01  1.3208000000000E+01  1.3208000000000E+01  1.3208000000000E+01  1.3208000000000E+01  1.3208000000000E+01  1.3208000000000E+01  1.3208000000000E+01  6.6040000000000E+00 
-2.5250970079568E-01 -2.5251940516217E-01 -2.5255031672319E-01 -2.5260255622573E-01 -2.5267614830895E-01 -2.5277111726366E-01 -2.5288749367222E-01 -2.5302529121374E-01 -2.5318361183076E-01 -2.5333237857812E-01 
 3.3866666666667E-05  6.7733333333333E-05  6.7733333333334E-05  6.7733333333333E-05  6.7733333333334E-05  6.7733333333334E-05  6.7733333333333E-05  6.7733333333334E-05  6.7733333333333E-05  3.3866666666667E-05 
 2.6603001364267E+01  2.6603001364267E+01  2.6603001364267E+01  2.6603001364267E+01  2.6603001364267E+01  2.6603001364267E+01  2.6603001364267E+01  2.6603001364267E+01  2.6603001364267E+01  2.6603001364267E+01 
 1.7735334242827E+01  1.7735334242827E+01  1.7735334242827E+01  1.7735334242827E+01  1.7735334242827E+01  1.7735334242827E+01  1.7735334242827E+01  1.7735334242827E+01  1.7735334242827E+01  1.7735334242827E+01 
 4.3434618990284E-04  4.3436880179877E-04  4.3444053182857E-04  4.3456176601518E-04  4.3473255603639E-04  4.3495296500174E-04  4.3522306702457E-04  4.3554293314834E-04  4.3591157334544E-04  4.3625083976475E-04 
 2.1718576540392E+04  2.1719709901012E+04  2.1723296952452E+04  2.1729359335550E+04  2.1737899836733E+04  2.1748921479080E+04  2.1762428098322E+04  2.1778422333623E+04  2.1796828071567E+04  2.1813121552674E+04 
 8.6761770567206E-02  7.7165272560620E-02  5.9169420455237E-02  4.3567739135122E-02  3.0360398623861E-02  1.9548378341371E-02  1.1133469195034E-02  5.1182756346911E-03  1.5062199281156E-03  3.0145562809518E-04 
 5.3064029877858E-02  2.6533238556212E-01  9.0220649460378E-01  1.9638961203141E+00  3.4507545581412E+00  5.3632789560039E+00  7.7021106569956E+00  1.0468035494320E+01  1.3661977515310E+01  1.5366076567580E+01 
 2.1718436714591E+04  2.1719367403353E+04  2.1722335576537E+04  2.1727351871691E+04  2.1734418721776E+04  2.1743538651746E+04  2.1754714854196E+04  2.1767949179853E+04  2.1783164587832E+04  2.1797755174650E+04 
 9.8683612894514E+03  9.8688362411524E+03  9.8703537448324E+03  9.8729184837151E+03  9.8765317161799E+03  9.8811948286750E+03  9.8869095824895E+03  9.8936772533186E+03  9.9014654097105E+03  9.9091582321801E+03 
 1.1850075425140E+04  1.1850531162201E+04  1.1851981831704E+04  1.1854433387976E+04  1.1857887005596E+04  1.1862343823071E+04  1.1867805271707E+04  1.1874271926535E+04  1.1881699178121E+04  1.1888596942470E+04 
ZONE T = "CATH, 3.0000E-08", I = 10, SOLUTIONTIME = 3.000000E-08
ZONETYPE = ORDERED
DATAPACKING = BLOCK
STRANDID = 3
 1.2700000000000E-03  1.3377333333333E-03  1.4054666666667E-03  1.4732000000000E-03  1.5409333333333E-03  1.6086666666667E-03  1.6764000000000E-03  1.7441333333333E-03  1.8118666666667E-03  1.8796000000000E-03 
 1.9717282935294E-08  1.7401366888166E-08  1.5085167245229E-08  1.2767761960077E-08  1.0449681551450E-08  8.1303667407018E-09  5.8107107648686E-09  3.4897910336293E-09  1.1677906506746E-09  6.1745313722232E-12 
 9.2000000000095E-01  9.2000000000270E-01  9.2000000000270E-01  9.2000000000270E-01  9.2000000000270E-01  9.2000000000270E-01  9.2000000000270E-01  9.2000000000270E-01  9.2000000000270E-01  9.2000000000271E-01 
 3.9999999999524E-02  3.9999999998652E-02  3.9999999998652E-02  3.9999999998651E-02  3.9999999998651E-02  3.9999999998650E-02  3.9999999998650E-02  3.9999999998649E-02  3.9999999998648E-02  3.9999999998647E-02 
 3.9999999999524E-02  3.9999999998652E-02  3.9999999998652E-02  3.9999999998651E-02  3.9999999998651E-02  3.9999999998650E-02  3.9999999998650E-02  3.9999999998649E-02  3.9999999998648E-02  3.9999999998647E-02 
 2.9181790545406E-02  2.9181583471628E-02  2.9181400731593E-02  2.9181242328285E-02  2.9181108266737E-02  2.9180998554042E-02  2.9180913199354E-02  2.9180852213886E-02  2.9180815610923E-02  2.9180803405671E-02 
 3.8001746977865E+00  3.8001725422120E+00  3.8001660753215E+00  3.8001552965873E+00  3.8001402051174E+00  3.8001207996551E+00  3.8000970785789E+00  3.8000690399017E+00  3.8000366812712E+00  3.8000000000000E+00 
 2.9815000324735E+02  2.9815001241816E+02  2.9815001283640E+02  2.9815001281385E+02  2.9815001291591E+02  2.9815001285066E+02  2.9815001273194E+02  2.9815000945590E+02  2.9814991357430E+02  2.9814759786574E+02 
 3.7709929072411E+00  3.7709909587403E+00  3.7709846745899E+00  3.7709740542590E+00  3.7709590968506E+00  3.7709398011010E+00  3.7709161653795E+00  3.7708881876878E+00  3.7708558656603E+00  3.7708191965943E+00 
 3.9714142687071E+00  3.9714142613040E+00  3.9714142609664E+00  3.9714142609846E+00  3.9714142609022E+00  3.9714142609549E+00  3.9714142610507E+00  3.9714142636951E+00  3.9714143410894E+00  3.9714162102944E+00 
-2.0042136146601E-01 -2.0042330256369E-01 -2.0042958637651E-01 -2.0044020672560E-01 -2.0045516405161E-01 -2.0047445985387E-01 -2.0049809567121E-01 -2.0052607600733E-01 -2.0055847542912E-01 -2.0059701370011E-01 
-1.6677487996959E+00 -3.3356266155055E+00 -3.3360350160612E+00 -3.3367251407637E+00 -3.3376973723401E+00 -3.3389519616587E+00 -3.3404893626674E+00 -3.3423092711090E+00 -3.3443885437088E+00 -1.6730812569799E+00 
 1.4709686645496E-07  1.2981080265990E-07  1.1252302023001E-07  9.5231661511821E-08  7.7935264530715E-08  6.0632366110739E-08  4.3321500673056E-08  2.6001204221499E-08  8.6701326236409E-09  8.6701326236409E-09 
 3.0053053340551E+01  2.6717491233066E+01  2.3381660417236E+01  2.0045280339024E+01  1.6708069082463E+01  1.3369744415127E+01  1.0030023753132E+01  6.6886244362924E+00  3.3452755288164E+00  0.0000000000000E+00 
 0.0000000000000E+00  3.3355621074127E+00  6.6713929232067E+00  1.0007773001642E+01  1.3344984258273E+01  1.6683308925271E+01  2.0023029587329E+01  2.3364428904213E+01  2.6707777811612E+01  3.0053053340570E+01 
 5.0027226307435E-08  1.0005829796086E-07  1.0007054623854E-07  1.0009124561157E-07  1.0012040579878E-07  1.0015803612971E-07  1.0020414882664E-07  1.0025874724435E-07  1.0032144382819E-07  5.0190262350906E-08 
 7.2440786946725E+03  1.4488157389345E+04  1.4488157389345E+04  1.4488157389345E+04  1.4488157389345E+04  1.4488157389345E+04  1.4488157389345E+04  1.4488157389345E+04  1.4488157389345E+04  7.2440786946727E+03 
 4.9259735123383E+04  9.8519470246765E+04  9.8519470246766E+04  9.8519470246765E+04  9.8519470246766E+04  9.8519470246766E+04  9.8519470246765E+04  9.8519470246765E+04  9.8519470246765E+04  4.9259735123383E+04 
 5.6503813818055E+04  1.1300762763611E+05  1.1300762763611E+05  1.1300762763611E+05  1.1300762763611E+05  1.1300762763611E+05  1.1300762763611E+05  1.1300762763611E+05  1.1300762763611E+05  5.6503813818055E+04 
 3.5000000000000E-01  3.5000000000000E-01  3.5000000000000E-01  3.5000000000000E-01  3.5000000000000E-01  3.5000000000000E-01  3.5000000000000E-01  3.5000000000000E-01  3.5000000000000E-01  3.5000000000000E-01 
 6.6040000000000E+00  1.3208000000000E+01  1.3208000000000E+01  1.3208000000000E+01  1.3208000000000E+01  1.3208000000000E+01  1.3208000000000E+01  1.3208000000000E+01  1.3208000000000E+01  6.6040000000000E+00 
-2.5253615985705E-01 -2.5254592788503E-01 -2.5257684858125E-01 -2.5262909908871E-01 -2.5270270838432E-01 -2.5279769546174E-01 -2.5291409469014E-01 -2.5305188303369E-01 -2.5320930827596E-01 -2.5334361856146E-01 
 3.3866666666667E-05  6.7733333333333E-05  6.7733333333334E-05  6.7733333333333E-05  6.7733333333334E-05  6.7733333333334E-05  6.7733333333333E-05  6.7733333333334E-05  6.7733333333333E-05  3.3866666666667E-05 
 2.6603001364272E+01  2.6603001364272E+01  2.6603001364272E+01  2.6603001364272E+01  2.6603001364272E+01  2.6603001364272E+01  2.6603001364272E+01  2.6603001364272E+01  2.6603001364272E+01  2.6603001364272E+01 
 1.7735334242822E+01  1.7735334242822E+01  1.7735334242822E+01  1.7735334242822E+01  1.7735334242822E+01  1.7735334242822E+01  1.7735334242822E+01  1.7735334242822E+01  1.7735334242822E+01  1.7735334242822E+01 
 6.5155736021142E-04  6.5159136158532E-04  6.5169897227832E-04  6.5188084360719E-04  6.5213705887461E-04  6.5246770683433E-04  6.5287290324182E-04  6.5335271371792E-04  6.5390464676753E-04  6.5439432689026E-04 
 2.1721117030859E+04  2.1722255978655E+04  2.1725844044975E+04  2.1731907759201E+04  2.1740450283822E+04  2.1751474183259E+04  2.1764983621725E+04  2.1780978056957E+04  2.1799307342209E+04  2.1814348712550E+04 
 8.6779314889923E-02  7.7180841119166E-02  5.9181288585807E-02  4.3576409340894E-02  3.0366373761387E-02  1.9552161630735E-02  1.1135564484094E-02  5.1191877194451E-03  1.5064565192339E-03  3.0148197048720E-04 
 5.3075151024291E-02  2.6538807281576E-01  9.0239593347499E-01  1.9643085927589E+00  3.4514794631496E+00  5.3644058434385E+00  7.7037292636071E+00  1.0470235566292E+01  1.3664842389433E+01  1.5369293099744E+01 
 2.1720977176393E+04  2.1721913409741E+04  2.1724882467753E+04  2.1729899874199E+04  2.1736968437985E+04  2.1746090225254E+04  2.1757268756897E+04  2.1770502702203E+04  2.1785640993363E+04  2.1798979117968E+04 
 9.8696599907048E+03  9.8701373385812E+03  9.8716552914516E+03  9.8742206250316E+03  9.8778347587797E+03  9.8824988827632E+03  9.8882148990014E+03  9.8949827205616E+03  9.9027382023104E+03  9.9098947980789E+03 
 1.1851317185688E+04  1.1851776071160E+04  1.1853227176301E+04  1.1855679249167E+04  1.1859133679205E+04  1.1863591342491E+04  1.1869053857896E+04  1.1875519981642E+04  1.1882902791053E+04  1.1889084319889E+04 
ZONE T = "CATH, 4.0000E-08", I = 10, SOLUTIONTIME = 4.000000E-08
ZONETYPE = ORDERED
DATAPACKING = BLOCK
STRANDID = 3
 1.2700000000000E-03  1.3377333333333E-03  1.4054666666667E-03  1.4732000000000E-03  1.5409333333333E-03  1.6086666666667E-03  1.6764000000000E-03  1.7441333333333E-03  1.8118666666667E-03  1.8796000000000E-03 
 1.9710563556879E-08  1.7393677294877E-08  1.5076507343881E-08  1.2759584481850E-08  1.0441259926278E-08  8.1231536039647E-09  5.8025266812392E-09  3.4809995148449E-09  1.1587653706073E-09 -3.2688695501081E-12 
 9.2000000000127E-01  9.2000000000360E-01  9.2000000000360E-01  9.2000000000360E-01  9.2000000000360E-01  9.2000000000360E-01  9.2000000000360E-01  9.2000000000360E-01  9.2000000000360E-01  9.2000000000361E-01 
 3.9999999999365E-02  3.9999999998202E-02  3.9999999998202E-02  3.9999999998202E-02  3.9999999998201E-02  3.9999999998201E-02  3.9999999998200E-02  3.9999999998199E-02  3.9999999998198E-02  3.9999999998197E-02 
 3.9999999999365E-02  3.9999999998202E-02  3.9999999998202E-02  3.9999999998202E-02  3.9999999998201E-02  3.9999999998201E-02  3.9999999998200E-02  3.9999999998199E-02  3.9999999998198E-02  3.9999999998197E-02 
 2.9187195800337E-02  2.9186988705571E-02  2.9186805947109E-02  2.9186647527936E-02  2.9186513453087E-02  2.9186403729656E-02  2.9186318366799E-02  2.9186257375733E-02  2.9186220769740E-02  2.9186208563927E-02 
 3.8001747161578E+00  3.8001725603569E+00  3.8001660927862E+00  3.8001553129179E+00  3.8001402198597E+00  3.8001208123548E+00  3.8000970887811E+00  3.8000690471512E+00  3.8000366851135E+00  3.8000000000000E+00 