TITLE = "Solution on Domain BulkDomain1D_1"
VARIABLES = "x [m]"  
"Vel_axial" 	"MF_sp(ECDMC)" 	"MF_sp(Li+)" 	"MF_sp(PF6-)" 	"Volt(Electroly)" 	"Temperature" 	"Porosity []" 	"Control volume thickness [m]" 	"volFrac MgO(S) []" 	"qHeat_accum [J/m3]" 	"qHeat_step [W/m3]" 	"Joule_Lyte [W/m3]" 	"Joule_Solid [W/m3]" 	
ZONE T = "SEP , 0.0000E+00", I = 10, SOLUTIONTIME = 0.000000E+00
ZONETYPE = ORDERED
DATAPACKING = BLOCK
STRANDID = 2
 7.8740000000000E-04  8.4102222222222E-04  8.9464444444444E-04  9.4826666666667E-04  1.0018888888889E-03  1.0555111111111E-03  1.1091333333333E-03  1.1627555555556E-03  1.2163777777778E-03  1.2700000000000E-03 
 0.0000000000000E+00  0.0000000000000E+00  0.0000000000000E+00  0.0000000000000E+00  0.0000000000000E+00  0.0000000000000E+00  0.0000000000000E+00  0.0000000000000E+00  0.0000000000000E+00  0.0000000000000E+00 
 9.2000000000000E-01  9.2000000000000E-01  9.2000000000000E-01  9.2000000000000E-01  9.2000000000000E-01  9.2000000000000E-01  9.2000000000000E-01  9.2000000000000E-01  9.2000000000000E-01  9.2000000000000E-01 
 4.0000000000000E-02  4.0000000000000E-02  4.0000000000000E-02  4.0000000000000E-02  4.0000000000000E-02  4.0000000000000E-02  4.0000000000000E-02  4.0000000000000E-02  4.0000000000000E-02  4.0000000000000E-02 
 4.0000000000000E-02  4.0000000000000E-02  4.0000000000000E-02  4.0000000000000E-02  4.0000000000000E-02  4.0000000000000E-02  4.0000000000000E-02  4.0000000000000E-02  4.0000000000000E-02  4.0000000000000E-02 
-7.0000000000000E-02 -7.0000000000000E-02 -7.0000000000000E-02 -7.0000000000000E-02 -7.0000000000000E-02 -7.0000000000000E-02 -7.0000000000000E-02 -7.0000000000000E-02 -7.0000000000000E-02 -7.0000000000000E-02 
 2.9815000000000E+02  2.9815000000000E+02  2.9815000000000E+02  2.9815000000000E+02  2.9815000000000E+02  2.9815000000000E+02  2.9815000000000E+02  2.9815000000000E+02  2.9815000000000E+02  2.9815000000000E+02 
 8.0911139820575E-01  8.0911139820575E-01  8.0911139820575E-01  8.0911139820575E-01  8.0911139820575E-01  8.0911139820575E-01  8.0911139820575E-01  8.0911139820575E-01  8.0911139820575E-01  8.0911139820575E-01 
 2.6811111111111E-05  5.3622222222222E-05  5.3622222222222E-05  5.3622222222222E-05  5.3622222222222E-05  5.3622222222222E-05  5.3622222222222E-05  5.3622222222223E-05  5.3622222222222E-05  2.6811111111111E-05 
 1.9088860179425E-01  1.9088860179425E-01  1.9088860179425E-01  1.9088860179425E-01  1.9088860179425E-01  1.9088860179425E-01  1.9088860179425E-01  1.9088860179425E-01  1.9088860179425E-01  1.9088860179425E-01 
 0.0000000000000E+00  0.0000000000000E+00  0.0000000000000E+00  0.0000000000000E+00  0.0000000000000E+00  0.0000000000000E+00  0.0000000000000E+00  0.0000000000000E+00  0.0000000000000E+00  0.0000000000000E+00 
 0.0000000000000E+00  0.0000000000000E+00  0.0000000000000E+00  0.0000000000000E+00  0.0000000000000E+00  0.0000000000000E+00  0.0000000000000E+00  0.0000000000000E+00  0.0000000000000E+00  0.0000000000000E+00 
 0.0000000000000E+00  0.0000000000000E+00  0.0000000000000E+00  0.0000000000000E+00  0.0000000000000E+00  0.0000000000000E+00  0.0000000000000E+00  0.0000000000000E+00  0.0000000000000E+00  0.0000000000000E+00 
 0.0000000000000E+00  0.0000000000000E+00  0.0000000000000E+00  0.0000000000000E+00  0.0000000000000E+00  0.0000000000000E+00  0.0000000000000E+00  0.0000000000000E+00  0.0000000000000E+00  0.0000000000000E+00 
ZONE T = "SEP , 1.0000E-08", I = 10, SOLUTIONTIME = 1.000000E-08
ZONETYPE = ORDERED
DATAPACKING = BLOCK
STRANDID = 2
 7.8740000000000E-04  8.4102222222222E-04  8.9464444444444E-04  9.4826666666667E-04  1.0018888888889E-03  1.0555111111111E-03  1.1091333333333E-03  1.1627555555556E-03  1.2163777777778E-03  1.2700000000000E-03 
 2.0864800518675E-08  2.0864800518675E-08  2.0864800518675E-08  2.0864800518675E-08  2.0864800518675E-08  2.0864800518675E-08  2.0864800518675E-08  2.0864800518675E-08  2.0864800518675E-08  1.9707311234026E-08 
 9.1999999999971E-01  9.2000000000000E-01  9.2000000000000E-01  9.2000000000000E-01  9.2000000000000E-01  9.2000000000000E-01  9.2000000000000E-01  9.2000000000000E-01  9.2000000000000E-01  9.2000000000032E-01 
 4.0000000000144E-02  4.0000000000000E-02  4.0000000000000E-02  4.0000000000000E-02  4.0000000000000E-02  4.0000000000000E-02  4.0000000000000E-02  4.0000000000000E-02  4.0000000000000E-02  3.9999999999841E-02 
 4.0000000000144E-02  4.0000000000000E-02  4.0000000000000E-02  4.0000000000000E-02  4.0000000000000E-02  4.0000000000000E-02  4.0000000000000E-02  4.0000000000000E-02  4.0000000000000E-02  3.9999999999841E-02 
 2.9171462037706E-02  2.9171412667580E-02  2.9171363297454E-02  2.9171313927328E-02  2.9171264557202E-02  2.9171215187076E-02  2.9171165816950E-02  2.9171116446824E-02  2.9171067076699E-02  2.9171017706572E-02 
 2.9814999953353E+02  2.9814999999737E+02  2.9814999999653E+02  2.9814999999451E+02  2.9814999999819E+02  2.9814999999693E+02  2.9815000000129E+02  2.9815000000326E+02  2.9815000000165E+02  2.9815000107798E+02 
 8.0911139820575E-01  8.0911139820575E-01  8.0911139820575E-01  8.0911139820575E-01  8.0911139820575E-01  8.0911139820575E-01  8.0911139820575E-01  8.0911139820575E-01  8.0911139820575E-01  8.0911139820575E-01 
 2.6811111111111E-05  5.3622222222222E-05  5.3622222222222E-05  5.3622222222222E-05  5.3622222222222E-05  5.3622222222222E-05  5.3622222222222E-05  5.3622222222223E-05  5.3622222222222E-05  2.6811111111111E-05 
 1.9088860179425E-01  1.9088860179425E-01  1.9088860179425E-01  1.9088860179425E-01  1.9088860179425E-01  1.9088860179425E-01  1.9088860179425E-01  1.9088860179425E-01  1.9088860179425E-01  1.9088860179425E-01 
 2.7664331279203E-10  2.7664331287879E-10  2.7664331298565E-10  2.7664331300537E-10  2.7664331300442E-10  2.7664331300315E-10  2.7664331300096E-10  2.7664331299941E-10  2.7664331325521E-10  2.7664331351110E-10 
 2.7664331279203E-02  2.7664331287879E-02  2.7664331298565E-02  2.7664331300537E-02  2.7664331300442E-02  2.7664331300315E-02  2.7664331300096E-02  2.7664331299941E-02  2.7664331325521E-02  2.7664331351110E-02 
 2.7664331279203E-02  2.7664331287879E-02  2.7664331298565E-02  2.7664331300537E-02  2.7664331300442E-02  2.7664331300315E-02  2.7664331300096E-02  2.7664331299941E-02  2.7664331325521E-02  2.7664331351110E-02 
 0.0000000000000E+00  0.0000000000000E+00  0.0000000000000E+00  0.0000000000000E+00  0.0000000000000E+00  0.0000000000000E+00  0.0000000000000E+00  0.0000000000000E+00  0.0000000000000E+00  0.0000000000000E+00 
ZONE T = "SEP , 2.0000E-08", I = 10, SOLUTIONTIME = 2.000000E-08
ZONETYPE = ORDERED
DATAPACKING = BLOCK
STRANDID = 2
 7.8740000000000E-04  8.4102222222222E-04  8.9464444444444E-04  9.4826666666667E-04  1.0018888888889E-03  1.0555111111111E-03  1.1091333333333E-03  1.1627555555556E-03  1.2163777777778E-03  1.2700000000000E-03 
 2.0866544745770E-08  2.0866544745770E-08  2.0866544745770E-08  2.0866544745770E-08  2.0866544745770E-08  2.0866544745770E-08  2.0866544745770E-08  2.0866544745770E-08  2.0866544745770E-08  1.9707663229038E-08 
 9.1999999999942E-01  9.2000000000000E-01  9.2000000000000E-01  9.2000000000000E-01  9.2000000000000E-01  9.2000000000000E-01  9.2000000000000E-01  9.2000000000000E-01  9.2000000000000E-01  9.2000000000064E-01 
 4.0000000000288E-02  4.0000000000000E-02  4.0000000000000E-02  4.0000000000000E-02  4.0000000000000E-02  4.0000000000000E-02  4.0000000000000E-02  4.0000000000000E-02  4.0000000000000E-02  3.9999999999682E-02 
 4.0000000000288E-02  4.0000000000000E-02  4.0000000000000E-02  4.0000000000000E-02  4.0000000000000E-02  4.0000000000000E-02  4.0000000000000E-02  4.0000000000000E-02  4.0000000000000E-02  3.9999999999682E-02 
 2.9176841398293E-02  2.9176792023181E-02  2.9176742648068E-02  2.9176693272955E-02  2.9176643897843E-02  2.9176594522730E-02  2.9176545147618E-02  2.9176495772505E-02  2.9176446397393E-02  2.9176397022280E-02 
 2.9814999910243E+02  2.9814999999120E+02  2.9814999999620E+02  2.9814999999455E+02  2.9815000000338E+02  2.9814999999711E+02  2.9815000000636E+02  2.9815000000934E+02  2.9815000002441E+02  2.9815000217317E+02 
 8.0911139820575E-01  8.0911139820575E-01  8.0911139820575E-01  8.0911139820575E-01  8.0911139820575E-01  8.0911139820575E-01  8.0911139820575E-01  8.0911139820575E-01  8.0911139820575E-01  8.0911139820575E-01 
 2.6811111111111E-05  5.3622222222222E-05  5.3622222222222E-05  5.3622222222222E-05  5.3622222222222E-05  5.3622222222222E-05  5.3622222222222E-05  5.3622222222223E-05  5.3622222222222E-05  2.6811111111111E-05 
 1.9088860179425E-01  1.9088860179425E-01  1.9088860179425E-01  1.9088860179425E-01  1.9088860179425E-01  1.9088860179425E-01  1.9088860179425E-01  1.9088860179425E-01  1.9088860179425E-01  1.9088860179425E-01 
 5.5334251254317E-10  5.5334251283036E-10  5.5334251313688E-10  5.5334251315415E-10  5.5334251317039E-10  5.5334251316783E-10  5.5334251316211E-10  5.5334251317297E-10  5.5334251393304E-10  5.5334251469737E-10 
 2.7669919975114E-02  2.7669919995157E-02  2.7669920015123E-02  2.7669920014878E-02  2.7669920016597E-02  2.7669920016468E-02  2.7669920016115E-02  2.7669920017357E-02  2.7669920067782E-02  2.7669920118627E-02 
 2.7669919975114E-02  2.7669919995157E-02  2.7669920015123E-02  2.7669920014878E-02  2.7669920016597E-02  2.7669920016468E-02  2.7669920016115E-02  2.7669920017357E-02  2.7669920067782E-02  2.7669920118627E-02 
 0.0000000000000E+00  0.0000000000000E+00  0.0000000000000E+00  0.0000000000000E+00  0.0000000000000E+00  0.0000000000000E+00  0.0000000000000E+00  0.0000000000000E+00  0.0000000000000E+00  0.0000000000000E+00 
ZONE T = "SEP , 3.0000E-08", I = 10, SOLUTIONTIME = 3.000000E-08
ZONETYPE = ORDERED
DATAPACKING = BLOCK
STRANDID = 2
 7.8740000000000E-04  8.4102222222222E-04  8.9464444444444E-04  9.4826666666667E-04  1.0018888888889E-03  1.0555111111111E-03  1.1091333333333E-03  1.1627555555556E-03  1.2163777777778E-03  1.2700000000000E-03 
 2.0872653769332E-08  2.0872653769332E-08  2.0872653769332E-08  2.0872653769332E-08  2.0872653769332E-08  2.0872653769332E-08  2.0872653769332E-08  2.0872653769332E-08  2.0872653769332E-08  1.9715648562796E-08 
 9.1999999999914E-01  9.2000000000000E-01  9.2000000000000E-01  9.2000000000000E-01  9.2000000000000E-01  9.2000000000000E-01  9.2000000000000E-01  9.2000000000000E-01  9.2000000000000E-01  9.2000000000095E-01 
 4.0000000000432E-02  4.0000000000000E-02  4.0000000000000E-02  4.0000000000000E-02  4.0000000000000E-02  4.0000000000000E-02  4.0000000000000E-02  4.0000000000000E-02  4.0000000000000E-02  3.9999999999524E-02 
 4.0000000000432E-02  4.0000000000000E-02  4.0000000000000E-02  4.0000000000000E-02  4.0000000000000E-02  4.0000000000000E-02  4.0000000000000E-02  4.0000000000000E-02  4.0000000000000E-02  3.9999999999524E-02 
 2.9182234716125E-02  2.9182185336011E-02  2.9182135955897E-02  2.9182086575783E-02  2.9182037195669E-02  2.9181987815555E-02  2.9181938435440E-02  2.9181889055326E-02  2.9181839675212E-02  2.9181790295098E-02 
 2.9814999863553E+02  2.9814999997358E+02  2.9814999999518E+02  2.9814999998947E+02  2.9815000000780E+02  2.9814999998670E+02  2.9815000001089E+02  2.9815000000531E+02  2.9815000005815E+02  2.9815000327704E+02 
 8.0911139820575E-01  8.0911139820575E-01  8.0911139820575E-01  8.0911139820575E-01  8.0911139820575E-01  8.0911139820575E-01  8.0911139820575E-01  8.0911139820575E-01  8.0911139820575E-01  8.0911139820575E-01 
 2.6811111111111E-05  5.3622222222222E-05  5.3622222222222E-05  5.3622222222222E-05  5.3622222222222E-05  5.3622222222222E-05  5.3622222222222E-05  5.3622222222223E-05  5.3622222222222E-05  2.6811111111111E-05 
 1.9088860179425E-01  1.9088860179425E-01  1.9088860179425E-01  1.9088860179425E-01  1.9088860179425E-01  1.9088860179425E-01  1.9088860179425E-01  1.9088860179425E-01  1.9088860179425E-01  1.9088860179425E-01 
 8.3009777206759E-10  8.3009777266075E-10  8.3009777328899E-10  8.3009777329965E-10  8.3009777331360E-10  8.3009777333041E-10  8.3009777331965E-10  8.3009777335412E-10  8.3009777487930E-10  8.3009777638082E-10 
 2.7675525952442E-02  2.7675525983039E-02  2.7675526015211E-02  2.7675526014550E-02  2.7675526014321E-02  2.7675526016258E-02  2.7675526015754E-02  2.7675526018114E-02  2.7675526094626E-02  2.7675526168345E-02 
 2.7675525952442E-02  2.7675525983039E-02  2.7675526015211E-02  2.7675526014550E-02  2.7675526014321E-02  2.7675526016258E-02  2.7675526015754E-02  2.7675526018114E-02  2.7675526094626E-02  2.7675526168345E-02 
 0.0000000000000E+00  0.0000000000000E+00  0.0000000000000E+00  0.0000000000000E+00  0.0000000000000E+00  0.0000000000000E+00  0.0000000000000E+00  0.0000000000000E+00  0.0000000000000E+00  0.0000000000000E+00 
ZONE T = "SEP , 3.5000E-08", I = 10, SOLUTIONTIME = 3.500000E-08
ZONETYPE = ORDERED
DATAPACKING = BLOCK
STRANDID = 2
 7.8740000000000E-04  8.4102222222222E-04  8.9464444444444E-04  9.4826666666667E-04  1.0018888888889E-03  1.0555111111111E-03  1.1091333333333E-03  1.1627555555556E-03  1.2163777777778E-03  1.2700000000000E-03 
 2.0863907376137E-08  2.0863907376137E-08  2.0863907376137E-08  2.0863907376137E-08  2.0863907376137E-08  2.0863907376137E-08  2.0863907376137E-08  2.0863907376137E-08  2.0863907376137E-08  1.9704662074882E-08 
 9.1999999999899E-01  9.2000000000000E-01  9.2000000000000E-01  9.2000000000000E-01  9.2000000000000E-01  9.2000000000000E-01  9.2000000000000E-01  9.2000000000000E-01  9.2000000000000E-01  9.2000000000111E-01 
 4.0000000000504E-02  4.0000000000000E-02  4.0000000000000E-02  4.0000000000000E-02  4.0000000000000E-02  4.0000000000000E-02  4.0000000000000E-02  4.0000000000000E-02  4.0000000000000E-02  3.9999999999444E-02 
 4.0000000000504E-02  4.0000000000000E-02  4.0000000000000E-02  4.0000000000000E-02  4.0000000000000E-02  4.0000000000000E-02  4.0000000000000E-02  4.0000000000000E-02  4.0000000000000E-02  3.9999999999444E-02 
 2.9184939190682E-02  2.9184889808060E-02  2.9184840425437E-02  2.9184791042814E-02  2.9184741660192E-02  2.9184692277569E-02  2.9184642894946E-02  2.9184593512323E-02  2.9184544129701E-02  2.9184494747078E-02 
 2.9814999844198E+02  2.9814999996288E+02  2.9814999999422E+02  2.9814999998703E+02  2.9814999999855E+02  2.9814999998726E+02  2.9815000000729E+02  2.9815000000379E+02  2.9815000006344E+02  2.9815000384775E+02 
 8.0911139820575E-01  8.0911139820575E-01  8.0911139820575E-01  8.0911139820575E-01  8.0911139820575E-01  8.0911139820575E-01  8.0911139820575E-01  8.0911139820575E-01  8.0911139820575E-01  8.0911139820575E-01 
 2.6811111111111E-05  5.3622222222222E-05  5.3622222222222E-05  5.3622222222222E-05  5.3622222222222E-05  5.3622222222222E-05  5.3622222222222E-05  5.3622222222223E-05  5.3622222222222E-05  2.6811111111111E-05 
 1.9088860179425E-01  1.9088860179425E-01  1.9088860179425E-01  1.9088860179425E-01  1.9088860179425E-01  1.9088860179425E-01  1.9088860179425E-01  1.9088860179425E-01  1.9088860179425E-01  1.9088860179425E-01 
 9.6848946222379E-10  9.6848946298641E-10  9.6848946380076E-10  9.6848946381783E-10  9.6848946383126E-10  9.6848946384703E-10  9.6848946383334E-10  9.6848946388853E-10  9.6848946586489E-10  9.6848946780465E-10 
 2.7678338031239E-02  2.7678338065132E-02  2.7678338102353E-02  2.7678338103637E-02  2.7678338103531E-02  2.7678338103323E-02  2.7678338102737E-02  2.7678338106883E-02  2.7678338197118E-02  2.7678338284767E-02 
 2.7678338031239E-02  2.7678338065132E-02  2.7678338102353E-02  2.7678338103637E-02  2.7678338103531E-02  2.7678338103323E-02  2.7678338102737E-02  2.7678338106883E-02  2.7678338197118E-02  2.7678338284767E-02 
 0.0000000000000E+00  0.0000000000000E+00  0.0000000000000E+00  0.0000000000000E+00  0.0000000000000E+00  0.0000000000000E+00  0.0000000000000E+00  0.0000000000000E+00  0.0000000000000E+00  0.0000000000000E+00 
ZONE T = "SEP , 3.9071E-08", I = 10, SOLUTIONTIME = 3.907146E-08
ZONETYPE = ORDERED
DATAPACKING = BLOCK
STRANDID = 2
 7.8740000000000E-04  8.4102222222222E-04  8.9464444444444E-04  9.4826666666667E-04  1.0018888888889E-03  1.0555111111111E-03  1.1091333333333E-03  1.1627555555556E-03  1.2163777777778E-03  1.2700000000000E-03 
 2.0878529061985E-08  2.0878529061985E-08  2.0878529061985E-08  2.0878529061985E-08  2.0878529061985E-08  2.0878529061985E-08  2.0878529061985E-08  2.0878529061985E-08  2.0878529061985E-08  1.9720323781339E-08 
 9.1999999999888E-01  9.2000000000000E-01  9.2000000000000E-01  9.2000000000000E-01  9.2000000000000E-01  9.2000000000000E-01  9.2000000000000E-01  9.2000000000000E-01  9.2000000000000E-01  9.2000000000124E-01 
 4.0000000000562E-02  4.0000000000000E-02  4.0000000000000E-02  4.0000000000000E-02  4.0000000000000E-02  4.0000000000000E-02  4.0000000000000E-02  4.0000000000000E-02  4.0000000000000E-02  3.9999999999380E-02 
 4.0000000000562E-02  4.0000000000000E-02  4.0000000000000E-02  4.0000000000000E-02  4.0000000000000E-02  4.0000000000000E-02  4.0000000000000E-02  4.0000000000000E-02  4.0000000000000E-02  3.9999999999380E-02 
 2.9187143754833E-02  2.9187094370164E-02  2.9187044985496E-02  2.9186995600828E-02  2.9186946216160E-02  2.9186896831492E-02  2.9186847446823E-02  2.9186798062155E-02  2.9186748677487E-02  2.9186699292818E-02 
 2.9814999828434E+02  2.9814999997037E+02  2.9814999999310E+02  2.9814999998509E+02  2.9815000000184E+02  2.9814999998781E+02  2.9815000000414E+02  2.9815000000842E+02  2.9815000006982E+02  2.9815000430662E+02 
 8.0911139820575E-01  8.0911139820575E-01  8.0911139820575E-01  8.0911139820575E-01  8.0911139820575E-01  8.0911139820575E-01  8.0911139820575E-01  8.0911139820575E-01  8.0911139820575E-01  8.0911139820575E-01 
 2.6811111111111E-05  5.3622222222222E-05  5.3622222222222E-05  5.3622222222222E-05  5.3622222222222E-05  5.3622222222222E-05  5.3622222222222E-05  5.3622222222223E-05  5.3622222222222E-05  2.6811111111111E-05 
 1.9088860179425E-01  1.9088860179425E-01  1.9088860179425E-01  1.9088860179425E-01  1.9088860179425E-01  1.9088860179425E-01  1.9088860179425E-01  1.9088860179425E-01  1.9088860179425E-01  1.9088860179425E-01 
 1.0811901085504E-09  1.0811901094679E-09  1.0811901104436E-09  1.0811901104664E-09  1.0811901104787E-09  1.0811901105019E-09  1.0811901104861E-09  1.0811901105489E-09  1.0811901129438E-09  1.0811901152846E-09 
 2.7680630999890E-02  2.7680631037918E-02  2.7680631077549E-02  2.7680631078950E-02  2.7680631078684E-02  2.7680631080512E-02  2.7680631079980E-02  2.7680631081866E-02  2.7680631184662E-02  2.7680631283147E-02 
 2.7680630999890E-02  2.7680631037918E-02  2.7680631077549E-02  2.7680631078950E-02  2.7680631078684E-02  2.7680631080512E-02  2.7680631079980E-02  2.7680631081866E-02  2.7680631184662E-02  2.7680631283147E-02 
 0.0000000000000E+00  0.0000000000000E+00  0.0000000000000E+00  0.0000000000000E+00  0.0000000000000E+00  0.0000000000000E+00  0.0000000000000E+00  0.0000000000000E+00  0.0000000000000E+00  0.0000000000000E+00 
ZONE T = "SEP , 4.3143E-08", I = 10, SOLUTIONTIME = 4.314292E-08
ZONETYPE = ORDERED
DATAPACKING = BLOCK
STRANDID = 2
 7.8740000000000E-04  8.4102222222222E-04  8.9464444444444E-04  9.4826666666667E-04  1.0018888888889E-03  1.0555111111111E-03  1.1091333333333E-03  1.1627555555556E-03  1.2163777777778E-03  1.2700000000000E-03 
 2.0866459073545E-08  2.0866459073545E-08  2.0866459073545E-08  2.0866459073545E-08  2.0866459073545E-08  2.0866459073545E-08  2.0866459073545E-08  2.0866459073545E-08  2.0866459073545E-08  1.9706419985468E-08 
 9.1999999999876E-01  9.2000000000000E-01  9.2000000000000E-01  9.2000000000000E-01  9.2000000000000E-01  9.2000000000000E-01  9.2000000000000E-01  9.2000000000000E-01  9.2000000000000E-01  9.2000000000137E-01 
 4.0000000000621E-02  4.0000000000000E-02  4.0000000000000E-02  4.0000000000000E-02  4.0000000000000E-02  4.0000000000000E-02  4.0000000000000E-02  4.0000000000000E-02  4.0000000000000E-02  3.9999999999315E-02 
 4.0000000000621E-02  4.0000000000000E-02  4.0000000000000E-02  4.0000000000000E-02  4.0000000000000E-02  4.0000000000000E-02  4.0000000000000E-02  4.0000000000000E-02  4.0000000000000E-02  3.9999999999315E-02 
 2.9189350057035E-02  2.9189300670319E-02  2.9189251283604E-02  2.9189201896888E-02  2.9189152510173E-02  2.9189103123457E-02  2.9189053736742E-02  2.9189004350027E-02  2.9188954963311E-02  2.9188905576595E-02 
 2.9814999813660E+02  2.9814999997086E+02  2.9814999999169E+02  2.9814999998871E+02  2.9814999999931E+02  2.9814999998850E+02  2.9815000001177E+02  2.9815000000812E+02  2.9815000009233E+02  2.9815000476675E+02 
 8.0911139820575E-01  8.0911139820575E-01  8.0911139820575E-01  8.0911139820575E-01  8.0911139820575E-01  8.0911139820575E-01  8.0911139820575E-01  8.0911139820575E-01  8.0911139820575E-01  8.0911139820575E-01 
 2.6811111111111E-05  5.3622222222222E-05  5.3622222222222E-05  5.3622222222222E-05  5.3622222222222E-05  5.3622222222222E-05  5.3622222222222E-05  5.3622222222223E-05  5.3622222222222E-05  2.6811111111111E-05 
 1.9088860179425E-01  1.9088860179425E-01  1.9088860179425E-01  1.9088860179425E-01  1.9088860179425E-01  1.9088860179425E-01  1.9088860179425E-01  1.9088860179425E-01  1.9088860179425E-01  1.9088860179425E-01 
 1.1939000989641E-09  1.1939001000542E-09  1.1939001012088E-09  1.1939001012371E-09  1.1939001012408E-09  1.1939001012708E-09  1.1939001012598E-09  1.1939001013290E-09  1.1939001041846E-09  1.1939001069698E-09 
 2.7682926019792E-02  2.7682926062193E-02  2.7682926106124E-02  2.7682926107477E-02  2.7682926105360E-02  2.7682926107021E-02  2.7682926108221E-02  2.7682926109785E-02  2.7682926222928E-02  2.7682926332107E-02 
 2.7682926019792E-02  2.7682926062193E-02  2.7682926106124E-02  2.7682926107477E-02  2.7682926105360E-02  2.7682926107021E-02  2.7682926108221E-02  2.7682926109785E-02  2.7682926222928E-02  2.7682926332107E-02 
 0.0000000000000E+00  0.0000000000000E+00  0.0000000000000E+00  0.0000000000000E+00  0.0000000000000E+00  0.0000000000000E+00  0.0000000000000E+00  0.0000000000000E+00  0.0000000000000E+00  0.0000000000000E+00 
ZONE T = "SEP , 4.7460E-08", I = 10, SOLUTIONTIME = 4.745984E-08
ZONETYPE = ORDERED
DATAPACKING = BLOCK
STRANDID = 2
 7.8740000000000E-04  8.4102222222222E-04  8.9464444444444E-04  9.4826666666667E-04  1.0018888888889E-03  1.0555111111111E-03  1.1091333333333E-03  1.1627555555556E-03  1.2163777777778E-03  1.2700000000000E-03 
 2.0869784925603E-08  2.0869784925603E-08  2.0869784925603E-08  2.0869784925603E-08  2.0869784925603E-08  2.0869784925603E-08  2.0869784925603E-08  2.0869784925603E-08  2.0869784925603E-08  1.9711898005242E-08 
 9.1999999999863E-01  9.2000000000000E-01  9.2000000000000E-01  9.2000000000000E-01  9.2000000000000E-01  9.2000000000000E-01  9.2000000000000E-01  9.2000000000000E-01  9.2000000000000E-01  9.2000000000151E-01 
 4.0000000000683E-02  4.0000000000000E-02  4.0000000000000E-02  4.0000000000000E-02  4.0000000000000E-02  4.0000000000000E-02  4.0000000000000E-02  4.0000000000000E-02  4.0000000000000E-02  3.9999999999246E-02 
 4.0000000000683E-02  4.0000000000000E-02  4.0000000000000E-02  4.0000000000000E-02  4.0000000000000E-02  4.0000000000000E-02  4.0000000000000E-02  4.0000000000000E-02  4.0000000000000E-02  3.9999999999246E-02 
 2.9191690957894E-02  2.9191641569006E-02  2.9191592180118E-02  2.9191542791230E-02  2.9191493402342E-02  2.9191444013454E-02  2.9191394624567E-02  2.9191345235679E-02  2.9191295846791E-02  2.9191246457902E-02 
 2.9814999795628E+02  2.9814999995681E+02  2.9814999998982E+02  2.9814999999249E+02  2.9815000000192E+02  2.9814999998938E+02  2.9815000000849E+02  2.9815000000851E+02  2.9815000010958E+02  2.9815000526230E+02 
 8.0911139820575E-01  8.0911139820575E-01  8.0911139820575E-01  8.0911139820575E-01  8.0911139820575E-01  8.0911139820575E-01  8.0911139820575E-01  8.0911139820575E-01  8.0911139820575E-01  8.0911139820575E-01 
 2.6811111111111E-05  5.3622222222222E-05  5.3622222222222E-05  5.3622222222222E-05  5.3622222222222E-05  5.3622222222222E-05  5.3622222222222E-05  5.3622222222223E-05  5.3622222222222E-05  2.6811111111111E-05 
 1.9088860179425E-01  1.9088860179425E-01  1.9088860179425E-01  1.9088860179425E-01  1.9088860179425E-01  1.9088860179425E-01  1.9088860179425E-01  1.9088860179425E-01  1.9088860179425E-01  1.9088860179425E-01 
 1.3134154547162E-09  1.3134154560133E-09  1.3134154573798E-09  1.3134154574201E-09  1.3134154574229E-09  1.3134154574442E-09  1.3134154574390E-09  1.3134154575214E-09  1.3134154609144E-09  1.3134154642304E-09 
 2.7685361522309E-02  2.7685361570281E-02  2.7685361619369E-02  2.7685361622149E-02  2.7685361621940E-02  2.7685361619915E-02  2.7685361621263E-02  2.7685361624307E-02  2.7685361748805E-02  2.7685361871760E-02 
 2.7685361522309E-02  2.7685361570281E-02  2.7685361619369E-02  2.7685361622149E-02  2.7685361621940E-02  2.7685361619915E-02  2.7685361621263E-02  2.7685361624307E-02  2.7685361748805E-02  2.7685361871760E-02 
 0.0000000000000E+00  0.0000000000000E+00  0.0000000000000E+00  0.0000000000000E+00  0.0000000000000E+00  0.0000000000000E+00  0.0000000000000E+00  0.0000000000000E+00  0.0000000000000E+00  0.0000000000000E+00 
ZONE T = "SEP , 5.1358E-08", I = 10, SOLUTIONTIME = 5.135765E-08
ZONETYPE = ORDERED
DATAPACKING = BLOCK
STRANDID = 2
 7.8740000000000E-04  8.4102222222222E-04  8.9464444444444E-04  9.4826666666667E-04  1.0018888888889E-03  1.0555111111111E-03  1.1091333333333E-03  1.1627555555556E-03  1.2163777777778E-03  1.2700000000000E-03 
 2.0877286559204E-08  2.0877286559204E-08  2.0877286559204E-08  2.0877286559204E-08  2.0877286559204E-08  2.0877286559204E-08  2.0877286559204E-08  2.0877286559204E-08  2.0877286559204E-08  1.9718931365118E-08 
 9.1999999999852E-01  9.2000000000000E-01  9.2000000000000E-01  9.2000000000000E-01  9.2000000000000E-01  9.2000000000000E-01  9.2000000000000E-01  9.2000000000000E-01  9.2000000000000E-01  9.2000000000163E-01 
 4.0000000000739E-02  4.0000000000000E-02  4.0000000000000E-02  4.0000000000000E-02  4.0000000000000E-02  4.0000000000000E-02  4.0000000000000E-02  4.0000000000000E-02  4.0000000000000E-02  3.9999999999185E-02 
 4.0000000000739E-02  4.0000000000000E-02  4.0000000000000E-02  4.0000000000000E-02  4.0000000000000E-02  4.0000000000000E-02  4.0000000000000E-02  4.0000000000000E-02  4.0000000000000E-02  3.9999999999185E-02 
 2.9193805912907E-02  2.9193756522056E-02  2.9193707131206E-02  2.9193657740355E-02  2.9193608349504E-02  2.9193558958653E-02  2.9193509567802E-02  2.9193460176951E-02  2.9193410786101E-02  2.9193361395249E-02 
 2.9814999774673E+02  2.9814999995737E+02  2.9814999998784E+02  2.9814999998478E+02  2.9815000000398E+02  2.9814999999022E+02  2.9814999999990E+02  2.9815000000394E+02  2.9815000011832E+02  2.9815000571762E+02 
 8.0911139820575E-01  8.0911139820575E-01  8.0911139820575E-01  8.0911139820575E-01  8.0911139820575E-01  8.0911139820575E-01  8.0911139820575E-01  8.0911139820575E-01  8.0911139820575E-01  8.0911139820575E-01 
 2.6811111111111E-05  5.3622222222222E-05  5.3622222222222E-05  5.3622222222222E-05  5.3622222222222E-05  5.3622222222222E-05  5.3622222222222E-05  5.3622222222223E-05  5.3622222222222E-05  2.6811111111111E-05 
 1.9088860179425E-01  1.9088860179425E-01  1.9088860179425E-01  1.9088860179425E-01  1.9088860179425E-01  1.9088860179425E-01  1.9088860179425E-01  1.9088860179425E-01  1.9088860179425E-01  1.9088860179425E-01 
 1.4213364139209E-09  1.4213364154242E-09  1.4213364169942E-09  1.4213364170382E-09  1.4213364170466E-09  1.4213364170677E-09  1.4213364170617E-09  1.4213364171549E-09  1.4213364210733E-09  1.4213364249027E-09 
 2.7687562245921E-02  2.7687562298788E-02  2.7687562351019E-02  2.7687562351953E-02  2.7687562353397E-02  2.7687562353365E-02  2.7687562353142E-02  2.7687562355909E-02  2.7687562490710E-02  2.7687562622427E-02 
 2.7687562245921E-02  2.7687562298788E-02  2.7687562351019E-02  2.7687562351953E-02  2.7687562353397E-02  2.7687562353365E-02  2.7687562353142E-02  2.7687562355909E-02  2.7687562490710E-02  2.7687562622427E-02 
 0.0000000000000E+00  0.0000000000000E+00  0.0000000000000E+00  0.0000000000000E+00  0.0000000000000E+00  0.0000000000000E+00  0.0000000000000E+00  0.0000000000000E+00  0.0000000000000E+00  0.0000000000000E+00 
ZONE T = "SEP , 5.5639E-08", I = 10, SOLUTIONTIME = 5.563916E-08
ZONETYPE = ORDERED
DATAPACKING = BLOCK
STRANDID = 2
 7.8740000000000E-04  8.4102222222222E-04  8.9464444444444E-04  9.4826666666667E-04  1.0018888888889E-03  1.0555111111111E-03  1.1091333333333E-03  1.1627555555556E-03  1.2163777777778E-03  1.2700000000000E-03 
 2.0865563845975E-08  2.0865563845975E-08  2.0865563845975E-08  2.0865563845975E-08  2.0865563845975E-08  2.0865563845975E-08  2.0865563845975E-08  2.0865563845975E-08  2.0865563845975E-08  1.9708428815437E-08 
 9.1999999999840E-01  9.2000000000000E-01  9.2000000000000E-01  9.2000000000000E-01  9.2000000000000E-01  9.2000000000000E-01  9.2000000000000E-01  9.2000000000000E-01  9.2000000000000E-01  9.2000000000177E-01 
 4.0000000000800E-02  4.0000000000000E-02  4.0000000000000E-02  4.0000000000000E-02  4.0000000000000E-02  4.0000000000000E-02  4.0000000000000E-02  4.0000000000000E-02  4.0000000000000E-02  3.9999999999117E-02 
 4.0000000000800E-02  4.0000000000000E-02  4.0000000000000E-02  4.0000000000000E-02  4.0000000000000E-02  4.0000000000000E-02  4.0000000000000E-02  4.0000000000000E-02  4.0000000000000E-02  3.9999999999117E-02 
 2.9196130518805E-02  2.9196081125797E-02  2.9196031732788E-02  2.9195982339780E-02  2.9195932946771E-02  2.9195883553762E-02  2.9195834160754E-02  2.9195784767745E-02  2.9195735374737E-02  2.9195685981728E-02 
 2.9814999761706E+02  2.9814999994104E+02  2.9814999998523E+02  2.9814999998748E+02  2.9815000000587E+02  2.9814999999127E+02  2.9815000000686E+02  2.9814999999992E+02  2.9815000014450E+02  2.9815000619152E+02 
 8.0911139820575E-01  8.0911139820575E-01  8.0911139820575E-01  8.0911139820575E-01  8.0911139820575E-01  8.0911139820575E-01  8.0911139820575E-01  8.0911139820575E-01  8.0911139820575E-01  8.0911139820575E-01 
 2.6811111111111E-05  5.3622222222222E-05  5.3622222222222E-05  5.3622222222222E-05  5.3622222222222E-05  5.3622222222222E-05  5.3622222222222E-05  5.3622222222223E-05  5.3622222222222E-05  2.6811111111111E-05 