TITLE = "Solution on Domain BulkDomain1D_0"
VARIABLES = "x [m]"  
"Vel_axial" 	"MF_sp(ECDMC)" 	"MF_sp(Li+)" 	"MF_sp(PF6-)" 	"Volt(Electroly)" 	"Volt(AnodeVolt)" 	"Temperature" 	
"Potential Drop Electrode-Electrolyte [V]" 	"Surf_0 Equilibrium Potential Drop Electrode-Electrolyte [V]" 	"Overpotential_0 [V]" 	"Current Source [A/m^2]" 	"Li+ flux [kmol/m^2/s]" 	"Electrolyte Current [A/m^2]" 	"Electrode Current [A/m^2]" 	
"Capacity discharged [A-s]" 	"Depth of discharge [-]" 	"Capacity remaining [A-s]" 	"Initial capacity [A-s]" 	"Porosity []" 	"Surface Area [m2/m2] (area per area)" 	"Specific current (per particle area) [A/m^2]" 	"Control volume thickness [m]" 	
"Moles Li_C6-bulk [mol/m^2] (per electrode area)" 	"Moles V_C6-bulk [mol/m^2] (per electrode area)" 	"qHeat_accum [J/m3]" 	"qHeat_step [W/m3]" 	"Joule_Lyte [W/m3]" 	"Joule_Solid [W/m3]" 	"electrodHeat [W/m3]" 	"OverpotHeat [W/m3]" 	"deltaSHeat [W/m3]" 	

ZONE T = "t = 0 [s]" I = 10 SOLUTIONTIME = 0.0000000000000E+00
0 	0 	0.92 	0.04 	0.04 	-0.07 	0 	298.15 	
0.07 	-0.0409067 	0.110907 	30.9302 	-0 	0 	15.4651 	
0 	45724.2 	848.03 	962.628 	0.35 	8.53017 	3.62598 	4.37444e-05 	
0.00379119 	0.000947796 	0 	0 	0 	0 	0 	0 	0 	
8.74889e-05 	0 	0.92 	0.04 	0.04 	-0.07 	0 	298.15 	
0.07 	-0.0409067 	0.110907 	61.8605 	-0 	0 	-0 	
0 	91448.4 	1696.06 	1925.26 	0.35 	17.0603 	3.62598 	8.74889e-05 	
0.00758237 	0.00189559 	0 	0 	0 	0 	0 	0 	0 	
0.000174978 	0 	0.92 	0.04 	0.04 	-0.07 	0 	298.15 	
0.07 	-0.0409067 	0.110907 	61.8605 	-0 	0 	-0 	
0 	91448.4 	1696.06 	1925.26 	0.35 	17.0603 	3.62598 	8.74889e-05 	
0.00758237 	0.00189559 	0 	0 	0 	0 	0 	0 	0 	
0.000262467 	0 	0.92 	0.04 	0.04 	-0.07 	0 	298.15 	
0.07 	-0.0409067 	0.110907 	61.8605 	-0 	0 	-0 	
0 	91448.4 	1696.06 	1925.26 	0.35 	17.0603 	3.62598 	8.74889e-05 	
0.00758237 	0.00189559 	0 	0 	0 	0 	0 	0 	0 	
0.000349956 	0 	0.92 	0.04 	0.04 	-0.07 	0 	298.15 	
0.07 	-0.0409067 	0.110907 	61.8605 	-0 	0 	-0 	
0 	91448.4 	1696.06 	1925.26 	0.35 	17.0603 	3.62598 	8.74889e-05 	
0.00758237 	0.00189559 	0 	0 	0 	0 	0 	0 	0 	
0.000437444 	0 	0.92 	0.04 	0.04 	-0.07 	0 	298.15 	
0.07 	-0.0409067 	0.110907 	61.8605 	-0 	0 	-0 	
0 	91448.4 	1696.06 	1925.26 	0.35 	17.0603 	3.62598 	8.74889e-05 	
0.00758237 	0.00189559 	0 	0 	0 	0 	0 	0 	0 	
0.000524933 	0 	0.92 	0.04 	0.04 	-0.07 	0 	298.15 	
0.07 	-0.0409067 	0.110907 	61.8605 	-0 	0 	-0 	
0 	91448.4 	1696.06 	1925.26 	0.35 	17.0603 	3.62598 	8.74889e-05 	
0.00758237 	0.00189559 	0 	0 	0 	0 	0 	0 	0 	
0.000612422 	0 	0.92 	0.04 	0.04 	-0.07 	0 	298.15 	
0.07 	-0.0409067 	0.110907 	61.8605 	-0 	0 	-0 	
0 	91448.4 	1696.06 	1925.26 	0.35 	17.0603 	3.62598 	8.74889e-05 	
0.00758237 	0.00189559 	0 	0 	0 	0 	0 	0 	0 	
0.000699911 	0 	0.92 	0.04 	0.04 	-0.07 	0 	298.15 	
0.07 	-0.0409067 	0.110907 	61.8605 	-0 	0 	-0 	
0 	91448.4 	1696.06 	1925.26 	0.35 	17.0603 	3.62598 	8.74889e-05 	
0.00758237 	0.00189559 	0 	0 	0 	0 	0 	0 	0 	
0.0007874 	0 	0.92 	0.04 	0.04 	-0.07 	0 	298.15 	
0.07 	-0.0409067 	0.110907 	30.9302 	-0 	15.4651 	0 	
0 	45724.2 	848.03 	962.628 	0.35 	8.53017 	3.62598 	4.37444e-05 	
0.00379119 	0.000947796 	0 	0 	0 	0 	0 	0 	0 	
ZONE T = "t = 1e-08 [s]" I = 10 SOLUTIONTIME = 1.0000000000000E-08
0 	1.16996e-09 	0.92 	0.04 	0.04 	0.0291727 	0 	298.198 	
-0.0291727 	-0.0409402 	0.0117675 	1.68484 	8.73103e-09 	0.842416 	29.2044 	
4.22272e-11 	45724.2 	848.03 	962.628 	0.35 	8.53017 	0.197516 	4.37444e-05 	
0.00379119 	0.000947796 	-7.5674e-05 	-7567.4 	0.000305758 	0.00153498 	-7567.4 	453.232 	-8020.63 	
8.74889e-05 	3.48715e-09 	0.92 	0.04 	0.04 	0.0291727 	-4.73499e-09 	298.151 	
-0.0291727 	-0.0409071 	0.0117344 	3.33697 	2.60235e-08 	3.3533 	26.6935 	
8.36344e-11 	91448.4 	1696.06 	1925.26 	0.35 	17.0603 	0.195598 	8.74889e-05 	
0.00758237 	0.00189559 	-7.49346e-05 	-7493.46 	0.00151093 	0.001365 	-7493.46 	447.57 	-7941.03 	
0.000174978 	5.80407e-09 	0.92 	0.04 	0.04 	0.0291727 	-8.91288e-09 	298.15 	
-0.0291727 	-0.0409067 	0.011734 	3.33657 	4.3314e-08 	6.69005 	23.3567 	
8.36244e-11 	91448.4 	1696.06 	1925.26 	0.35 	17.0603 	0.195575 	8.74889e-05 	
0.00758237 	0.00189559 	-7.49255e-05 	-7492.55 	0.00512021 	0.00104632 	-7492.56 	447.501 	-7940.06 	
0.000262467 	8.121e-09 	0.92 	0.04 	0.04 	0.0291726 	-1.25337e-08 	298.15 	
-0.0291726 	-0.0409067 	0.0117341 	3.33658 	6.06045e-08 	10.0266 	20.0202 	
8.36248e-11 	91448.4 	1696.06 	1925.26 	0.35 	17.0603 	0.195575 	8.74889e-05 	
0.00758237 	0.00189559 	-7.49258e-05 	-7492.58 	0.0111275 	0.000770143 	-7492.59 	447.506 	-7940.1 	
0.000349956 	1.04379e-08 	0.92 	0.04 	0.04 	0.0291725 	-1.55976e-08 	298.15 	
-0.0291725 	-0.0409067 	0.0117342 	3.33661 	7.78951e-08 	13.3632 	16.6836 	
8.36256e-11 	91448.4 	1696.06 	1925.26 	0.35 	17.0603 	0.195577 	8.74889e-05 	
0.00758237 	0.00189559 	-7.49263e-05 	-7492.63 	0.0195328 	0.000536452 	-7492.65 	447.514 	-7940.17 	
0.000437444 	1.27549e-08 	0.92 	0.04 	0.04 	0.0291723 	-1.81043e-08 	298.15 	
-0.0291724 	-0.0409067 	0.0117344 	3.33665 	9.5186e-08 	16.6998 	13.347 	
8.36266e-11 	91448.4 	1696.06 	1925.26 	0.35 	17.0603 	0.19558 	8.74889e-05 	
0.00758237 	0.00189559 	-7.49271e-05 	-7492.71 	0.0303364 	0.000345247 	-7492.74 	447.525 	-7940.26 	
0.000524933 	1.50723e-08 	0.92 	0.04 	0.04 	0.0291722 	-2.00541e-08 	298.15 	
-0.0291722 	-0.0409067 	0.0117345 	3.3367 	1.12477e-07 	20.0365 	10.0103 	
8.36278e-11 	91448.4 	1696.06 	1925.26 	0.35 	17.0603 	0.195583 	8.74889e-05 	
0.00758237 	0.00189559 	-7.4928e-05 	-7492.8 	0.0435383 	0.000196529 	-7492.84 	447.538 	-7940.38 	
0.000612422 	1.73894e-08 	0.92 	0.04 	0.04 	0.029172 	-2.14468e-08 	298.15 	
-0.029172 	-0.0409067 	0.0117347 	3.33676 	1.29769e-07 	23.3732 	6.67362 	
8.36293e-11 	91448.4 	1696.06 	1925.26 	0.35 	17.0603 	0.195586 	8.74889e-05 	
0.00758237 	0.00189559 	-7.49291e-05 	-7492.91 	0.0591386 	9.02986e-05 	-7492.97 	447.554 	-7940.52 	
0.000699911 	1.97065e-08 	0.92 	0.04 	0.04 	0.0291717 	-2.22824e-08 	298.15 	
-0.0291717 	-0.0409067 	0.011735 	3.33683 	1.4706e-07 	26.7099 	3.33685 	
8.3631e-11 	91448.4 	1696.06 	1925.26 	0.35 	17.0603 	0.19559 	8.74889e-05 	
0.00758237 	0.00189559 	-7.49304e-05 	-7493.04 	0.0771376 	2.65589e-05 	-7493.11 	447.572 	-7940.68 	
0.0007874 	2.08658e-08 	0.92 	0.04 	0.04 	0.0291715 	-2.25609e-08 	298.15 	
-0.0291715 	-0.0409067 	0.0117352 	1.66845 	1.4706e-07 	29.2126 	0.834222 	
4.18165e-11 	45724.2 	848.03 	962.628 	0.35 	8.53017 	0.195595 	4.37444e-05 	
0.00379119 	0.000947796 	-7.49319e-05 	-7493.19 	0.0867367 	5.31194e-06 	-7493.28 	447.593 	-7940.87 	
ZONE T = "t = 2e-08 [s]" I = 10 SOLUTIONTIME = 2.0000000000000E-08
0 	1.18069e-09 	0.92 	0.04 	0.04 	0.0291781 	0 	298.245 	
-0.0291781 	-0.0409728 	0.0117947 	1.70028 	8.8111e-09 	0.850141 	29.1999 	
8.48414e-11 	45724.2 	848.03 	962.628 	0.35 	8.53017 	0.199326 	4.37444e-05 	
0.00379119 	0.000947796 	-0.000152048 	-7637.42 	0.000617174 	0.00306863 	-7637.42 	458.441 	-8095.86 	
8.74889e-05 	3.49738e-09 	0.92 	0.04 	0.04 	0.0291781 	-4.73295e-09 	298.152 	
-0.0291781 	-0.040908 	0.0117299 	3.33622 	2.60999e-08 	3.36839 	26.6816 	
1.6725e-10 	91448.4 	1696.06 	1925.26 	0.35 	17.0603 	0.195554 	8.74889e-05 	
0.00758237 	0.00189559 	-0.000149855 	-7492.01 	0.00303266 	0.0027288 	-7492.01 	447.296 	-7939.31 	
0.000174978 	5.81324e-09 	0.92 	0.04 	0.04 	0.0291781 	-8.90892e-09 	298.15 	
-0.0291781 	-0.0409067 	0.0117287 	3.33502 	4.33824e-08 	6.70402 	23.346 	
1.6721e-10 	91448.4 	1696.06 	1925.26 	0.35 	17.0603 	0.195484 	8.74889e-05 	
0.00758237 	0.00189559 	-0.000149818 	-7489.29 	0.0102603 	0.00209168 	-7489.3 	447.09 	-7936.39 	
0.000262467 	8.1291e-09 	0.92 	0.04 	0.04 	0.029178 	-1.25281e-08 	298.15 	
-0.029178 	-0.0409067 	0.0117287 	3.33503 	6.0665e-08 	10.039 	20.011 	
1.67211e-10 	91448.4 	1696.06 	1925.26 	0.35 	17.0603 	0.195484 	8.74889e-05 	
0.00758237 	0.00189559 	-0.000149819 	-7489.28 	0.0222815 	0.00153958 	-7489.3 	447.092 	-7936.39 	
0.000349956 	1.0445e-08 	0.92 	0.04 	0.04 	0.0291779 	-1.55905e-08 	298.15 	
-0.0291779 	-0.0409067 	0.0117288 	3.33506 	7.79477e-08 	13.3741 	16.6759 	
1.67212e-10 	91448.4 	1696.06 	1925.26 	0.35 	17.0603 	0.195486 	8.74889e-05 	
0.00758237 	0.00189559 	-0.00014982 	-7489.34 	0.0390968 	0.00107241 	-7489.36 	447.1 	-7936.46 	
0.000437444 	1.27609e-08 	0.92 	0.04 	0.04 	0.0291777 	-1.80962e-08 	298.15 	
-0.0291777 	-0.0409067 	0.011729 	3.3351 	9.52306e-08 	16.7092 	13.3408 	
1.67214e-10 	91448.4 	1696.06 	1925.26 	0.35 	17.0603 	0.195488 	8.74889e-05 	
0.00758237 	0.00189559 	-0.000149821 	-7489.42 	0.0607062 	0.000690176 	-7489.45 	447.111 	-7936.56 	
0.000524933 	1.50768e-08 	0.92 	0.04 	0.04 	0.0291775 	-2.0045e-08 	298.15 	
-0.0291776 	-0.0409067 	0.0117291 	3.33515 	1.12514e-07 	20.0443 	10.0057 	
1.67217e-10 	91448.4 	1696.06 	1925.26 	0.35 	17.0603 	0.195491 	8.74889e-05 	
0.00758237 	0.00189559 	-0.000149823 	-7489.51 	0.0871101 	0.000392876 	-7489.55 	447.124 	-7936.67 	
0.000612422 	1.73928e-08 	0.92 	0.04 	0.04 	0.0291773 	-2.1437e-08 	298.15 	
-0.0291774 	-0.0409067 	0.0117293 	3.3352 	1.29797e-07 	23.3795 	6.67055 	
1.6722e-10 	91448.4 	1696.06 	1925.26 	0.35 	17.0603 	0.195495 	8.74889e-05 	
0.00758237 	0.00189559 	-0.000149825 	-7489.62 	0.118309 	0.000180514 	-7489.68 	447.14 	-7936.82 	
0.000699911 	1.97089e-08 	0.92 	0.04 	0.04 	0.0291771 	-2.22723e-08 	298.15 	
-0.0291771 	-0.0409067 	0.0117296 	3.33527 	1.47081e-07 	26.7147 	3.33531 	
1.67223e-10 	91448.4 	1696.06 	1925.26 	0.35 	17.0603 	0.195499 	8.74889e-05 	
0.00758237 	0.00189559 	-0.000149828 	-7489.74 	0.154302 	5.30934e-05 	-7489.82 	447.158 	-7936.98 	
0.0007874 	2.08669e-08 	0.92 	0.04 	0.04 	0.0291768 	-2.25507e-08 	298.15 	
-0.0291769 	-0.0409067 	0.0117298 	1.66768 	1.47081e-07 	29.2162 	0.833838 	
8.36134e-11 	45724.2 	848.03 	962.628 	0.35 	8.53017 	0.195503 	4.37444e-05 	
0.00379119 	0.000947796 	-0.000149831 	-7489.9 	0.173498 	1.0619e-05 	-7489.99 	447.179 	-7937.17 	
ZONE T = "t = 3e-08 [s]" I = 10 SOLUTIONTIME = 3.0000000000000E-08
0 	1.19117e-09 	0.92 	0.04 	0.04 	0.0291835 	0 	298.29 	
-0.0291835 	-0.0410044 	0.0118209 	1.71538 	8.88932e-09 	0.857688 	29.1954 	
1.27834e-10 	45724.2 	848.03 	962.628 	0.35 	8.53017 	0.201095 	4.37444e-05 	
0.00379119 	0.000947796 	-0.000229107 	-7705.88 	0.000934169 	0.00460099 	-7705.88 	463.539 	-8169.42 	
8.74889e-05 	3.5076e-09 	0.92 	0.04 	0.04 	0.0291835 	-4.73094e-09 	298.154 	
-0.0291835 	-0.0409092 	0.0117257 	3.33585 	2.61761e-08 	3.3833 	26.6698 	
2.50857e-10 	91448.4 	1696.06 	1925.26 	0.35 	17.0603 	0.195533 	8.74889e-05 	
0.00758237 	0.00189559 	-0.000224769 	-7491.4 	0.00456519 	0.00409138 	-7491.4 	447.087 	-7938.48 	
0.000174978 	5.8224e-09 	0.92 	0.04 	0.04 	0.0291834 	-8.90496e-09 	298.15 	
-0.0291835 	-0.0409068 	0.0117233 	3.33349 	4.34508e-08 	6.71798 	23.3351 	
2.50757e-10 	91448.4 	1696.06 	1925.26 	0.35 	17.0603 	0.195394 	8.74889e-05 	
0.00758237 	0.00189559 	-0.000224679 	-7486.06 	0.0154203 	0.00313606 	-7486.06 	446.68 	-7932.74 	
0.000262467 	8.13718e-09 	0.92 	0.04 	0.04 	0.0291834 	-1.25225e-08 	298.15 	
-0.0291834 	-0.0409067 	0.0117233 	3.33346 	6.07252e-08 	10.0515 	20.0016 	
2.50757e-10 	91448.4 	1696.06 	1925.26 	0.35 	17.0603 	0.195393 	8.74889e-05 	
0.00758237 	0.00189559 	-0.000224678 	-7485.98 	0.0334622 	0.00230829 	-7486 	446.677 	-7932.67 	
0.000349956 	1.0452e-08 	0.92 	0.04 	0.04 	0.0291833 	-1.55834e-08 	298.15 	
-0.0291833 	-0.0409067 	0.0117234 	3.33349 	7.79998e-08 	13.3849 	16.6681 	
2.50759e-10 	91448.4 	1696.06 	1925.26 	0.35 	17.0603 	0.195394 	8.74889e-05 	
0.00758237 	0.00189559 	-0.00022468 	-7486.04 	0.0586918 	0.00160787 	-7486.06 	446.685 	-7932.75 	
0.000437444 	1.27679e-08 	0.92 	0.04 	0.04 	0.0291831 	-1.80879e-08 	298.15 	
-0.0291831 	-0.0409067 	0.0117236 	3.33354 	9.52747e-08 	16.7184 	13.3346 	
2.50762e-10 	91448.4 	1696.06 	1925.26 	0.35 	17.0603 	0.195397 	8.74889e-05 	
0.00758237 	0.00189559 	-0.000224682 	-7486.12 	0.0911092 	0.00103478 	-7486.15 	446.696 	-7932.84 	
0.000524933 	1.50838e-08 	0.92 	0.04 	0.04 	0.0291829 	-2.00358e-08 	298.15 	
-0.029183 	-0.0409067 	0.0117237 	3.33358 	1.1255e-07 	20.052 	10.001 	
2.50766e-10 	91448.4 	1696.06 	1925.26 	0.35 	17.0603 	0.1954 	8.74889e-05 	
0.00758237 	0.00189559 	-0.000224685 	-7486.21 	0.130715 	0.00058904 	-7486.25 	446.709 	-7932.96 	
0.000612422 	1.73987e-08 	0.92 	0.04 	0.04 	0.0291827 	-2.14272e-08 	298.15 	
-0.0291828 	-0.0409067 	0.0117239 	3.33364 	1.29825e-07 	23.3856 	6.66743 	
2.50771e-10 	91448.4 	1696.06 	1925.26 	0.35 	17.0603 	0.195403 	8.74889e-05 	
0.00758237 	0.00189559 	-0.000224688 	-7486.32 	0.177509 	0.000270645 	-7486.37 	446.725 	-7933.1 	
0.000699911 	1.97137e-08 	0.92 	0.04 	0.04 	0.0291825 	-2.22621e-08 	298.15 	
-0.0291825 	-0.0409067 	0.0117242 	3.33371 	1.47101e-07 	26.7193 	3.33375 	
2.50776e-10 	91448.4 	1696.06 	1925.26 	0.35 	17.0603 	0.195407 	8.74889e-05 	
0.00758237 	0.00189559 	-0.000224692 	-7486.44 	0.231493 	7.96031e-05 	-7486.52 	446.743 	-7933.26 	
0.0007874 	2.08712e-08 	0.92 	0.04 	0.04 	0.0291822 	-2.25403e-08 	298.15 	
-0.0291823 	-0.0409067 	0.0117245 	1.6669 	1.47101e-07 	29.2196 	0.833448 	
1.25391e-10 	45724.2 	848.03 	962.628 	0.35 	8.53017 	0.195412 	4.37444e-05 	
0.00379119 	0.000947796 	-0.000224697 	-7486.6 	0.260282 	1.59211e-05 	-7486.69 	446.764 	-7933.45 	
ZONE T = "t = 4e-08 [s]" I = 10 SOLUTIONTIME = 4.0000000000000E-08
0 	1.20142e-09 	0.92 	0.04 	0.04 	0.0291889 	0 	298.334 	
-0.0291889 	-0.0410351 	0.0118462 	1.73013 	8.9658e-09 	0.865067 	29.191 	
1.71196e-10 	45724.2 	848.03 	962.628 	0.35 	8.53017 	0.202825 	4.37444e-05 	
0.00379119 	0.000947796 	-0.000306835 	-7772.83 	0.00125667 	0.00613207 	-7772.83 	468.528 	-8241.36 	
8.74889e-05 	3.51784e-09 	0.92 	0.04 	0.04 	0.0291889 	-4.72898e-09 	298.156 	
-0.0291889 	-0.0409107 	0.0117218 	3.33583 	2.62525e-08 	3.39805 	26.6581 	
3.34463e-10 	91448.4 	1696.06 	1925.26 	0.35 	17.0603 	0.195531 	8.74889e-05 	
0.00758237 	0.00189559 	-0.000299684 	-7491.57 	0.0061085 	0.00545277 	-7491.58 	446.937 	-7938.51 	
0.000174978 	5.83158e-09 	0.92 	0.04 	0.04 	0.0291889 	-8.90105e-09 	298.15 	
-0.0291889 	-0.0409068 	0.0117179 	3.33198 	4.35193e-08 	6.73195 	23.3242 	
3.34267e-10 	91448.4 	1696.06 	1925.26 	0.35 	17.0603 	0.195306 	8.74889e-05 	
0.00758237 	0.00189559 	-0.000299508 	-7482.86 	0.0206003 	0.00417946 	-7482.87 	446.273 	-7929.14 	
0.000262467 	8.14527e-09 	0.92 	0.04 	0.04 	0.0291888 	-1.25169e-08 	298.15 	
-0.0291888 	-0.0409067 	0.0117179 	3.3319 	6.07856e-08 	10.0639 	19.9922 	
3.34265e-10 	91448.4 	1696.06 	1925.26 	0.35 	17.0603 	0.195301 	8.74889e-05 	
0.00758237 	0.00189559 	-0.000299505 	-7482.68 	0.0446695 	0.00307628 	-7482.69 	446.262 	-7928.95 	
0.000349956 	1.0459e-08 	0.92 	0.04 	0.04 	0.0291887 	-1.55764e-08 	298.15 	
-0.0291887 	-0.0409067 	0.011718 	3.33193 	7.80521e-08 	13.3958 	16.6603 	
3.34268e-10 	91448.4 	1696.06 	1925.26 	0.35 	17.0603 	0.195303 	8.74889e-05 	
0.00758237 	0.00189559 	-0.000299507 	-7482.73 	0.0783178 	0.00214282 	-7482.75 	446.27 	-7929.02 	
0.000437444 	1.27716e-08 	0.92 	0.04 	0.04 	0.0291885 	-1.80797e-08 	298.15 	
-0.0291885 	-0.0409067 	0.0117182 	3.33197 	9.53189e-08 	16.7278 	13.3283 	
3.34272e-10 	91448.4 	1696.06 	1925.26 	0.35 	17.0603 	0.195305 	8.74889e-05 	
0.00758237 	0.00189559 	-0.00029951 	-7482.81 	0.121545 	0.00137906 	-7482.84 	446.281 	-7929.12 	
0.000524933 	1.50843e-08 	0.92 	0.04 	0.04 	0.0291883 	-2.00267e-08 	298.15 	
-0.0291884 	-0.0409067 	0.0117183 	3.33202 	1.12586e-07 	20.0598 	9.99635 	
3.34277e-10 	91448.4 	1696.06 	1925.26 	0.35 	17.0603 	0.195308 	8.74889e-05 	
0.00758237 	0.00189559 	-0.000299514 	-7482.9 	0.174353 	0.00078502 	-7482.94 	446.294 	-7929.24 	
0.000612422 	1.73981e-08 	0.92 	0.04 	0.04 	0.0291881 	-2.14174e-08 	298.15 	
-0.0291882 	-0.0409067 	0.0117185 	3.33208 	1.29853e-07 	23.3918 	6.6643 	
3.34283e-10 	91448.4 	1696.06 	1925.26 	0.35 	17.0603 	0.195311 	8.74889e-05 	
0.00758237 	0.00189559 	-0.000299518 	-7483.01 	0.236741 	0.000360692 	-7483.07 	446.309 	-7929.38 	
0.000699911 	1.9712e-08 	0.92 	0.04 	0.04 	0.0291879 	-2.22519e-08 	298.15 	
-0.0291879 	-0.0409067 	0.0117188 	3.33215 	1.47121e-07 	26.7239 	3.33219 	
3.34289e-10 	91448.4 	1696.06 	1925.26 	0.35 	17.0603 	0.195315 	8.74889e-05 	
0.00758237 	0.00189559 	-0.000299524 	-7483.13 	0.30871 	0.000106088 	-7483.21 	446.327 	-7929.54 	
0.0007874 	2.08697e-08 	0.92 	0.04 	0.04 	0.0291876 	-2.253e-08 	298.15 	
-0.0291877 	-0.0409067 	0.011719 	1.66611 	1.47121e-07 	29.223 	0.833057 	
1.67149e-10 	45724.2 	848.03 	962.628 	0.35 	8.53017 	0.19532 	4.37444e-05 	
0.00379119 	0.000947796 	-0.00029953 	-7483.3 	0.34709 	2.12182e-05 	-7483.38 	446.349 	-7929.73 	
ZONE T = "t = 5.5e-08 [s]" I = 10 SOLUTIONTIME = 5.5000000000000E-08
0 	1.21626e-09 	0.92 	0.04 	0.04 	0.029197 	0 	298.397 	
-0.029197 	-0.0410793 	0.0118823 	1.75151 	9.07656e-09 	0.875753 	29.1849 	
2.37043e-10 	45724.2 	848.03 	962.628 	0.35 	8.53017 	0.205331 	4.37444e-05 	
0.00379119 	0.000947796 	-0.000424883 	-7869.82 	0.00116833 	0.00561732 	-7869.82 	475.759 	-8345.58 	
8.74889e-05 	3.53316e-09 	0.92 	0.04 	0.04 	0.029197 	-4.72618e-09 	298.16 	
-0.029197 	-0.0409138 	0.0117168 	3.33653 	2.63669e-08 	3.41977 	26.6409 	
4.59898e-10 	91448.4 	1696.06 	1925.26 	0.35 	17.0603 	0.195572 	8.74889e-05 	
0.00758237 	0.00189559 	-0.000412087 	-7493.49 	0.00563175 	0.00499484 	-7493.5 	446.839 	-7940.33 	
0.000174978 	5.84536e-09 	0.92 	0.04 	0.04 	0.029197 	-8.89533e-09 	298.15 	
-0.029197 	-0.0409069 	0.01171 	3.32976 	4.36221e-08 	6.75291 	23.3078 	
4.59447e-10 	91448.4 	1696.06 	1925.26 	0.35 	17.0603 	0.195175 	8.74889e-05 	
0.00758237 	0.00189559 	-0.00041168 	-7478.18 	0.0189435 	0.00382824 	-7478.19 	445.672 	-7923.86 	
0.000262467 	8.15791e-09 	0.92 	0.04 	0.04 	0.0291969 	-1.25086e-08 	298.15 	
-0.0291969 	-0.0409067 	0.0117098 	3.32956 	6.08763e-08 	10.0826 	19.9781 	
4.59438e-10 	91448.4 	1696.06 	1925.26 	0.35 	17.0603 	0.195164 	8.74889e-05 	
0.00758237 	0.00189559 	-0.000411671 	-7477.72 	0.0410271 	0.00281777 	-7477.73 	445.639 	-7923.37 	
0.000349956 	1.047e-08 	0.92 	0.04 	0.04 	0.0291968 	-1.5566e-08 	298.15 	
-0.0291968 	-0.0409067 	0.0117099 	3.32958 	7.81307e-08 	13.4121 	16.6486 	
4.59442e-10 	91448.4 	1696.06 	1925.26 	0.35 	17.0603 	0.195165 	8.74889e-05 	
0.00758237 	0.00189559 	-0.000411674 	-7477.77 	0.0718846 	0.00196275 	-7477.79 	445.646 	-7923.43 	
0.000437444 	1.27821e-08 	0.92 	0.04 	0.04 	0.0291966 	-1.80675e-08 	298.15 	
-0.0291967 	-0.0409067 	0.0117101 	3.32962 	9.53852e-08 	16.7417 	13.319 	
4.59447e-10 	91448.4 	1696.06 	1925.26 	0.35 	17.0603 	0.195167 	8.74889e-05 	
0.00758237 	0.00189559 	-0.000411678 	-7477.84 	0.111517 	0.00126317 	-7477.87 	445.657 	-7923.53 	
0.000524933 	1.50942e-08 	0.92 	0.04 	0.04 	0.0291965 	-2.00131e-08 	298.15 	
-0.0291965 	-0.0409067 	0.0117102 	3.32967 	1.1264e-07 	20.0714 	9.9893 	
4.59454e-10 	91448.4 	1696.06 	1925.26 	0.35 	17.0603 	0.19517 	8.74889e-05 	
0.00758237 	0.00189559 	-0.000411683 	-7477.93 	0.159923 	0.00071905 	-7477.98 	445.67 	-7923.65 	
0.000612422 	1.74064e-08 	0.92 	0.04 	0.04 	0.0291963 	-2.14029e-08 	298.15 	
-0.0291963 	-0.0409067 	0.0117104 	3.32973 	1.29895e-07 	23.4011 	6.6596 	
4.59462e-10 	91448.4 	1696.06 	1925.26 	0.35 	17.0603 	0.195174 	8.74889e-05 	
0.00758237 	0.00189559 	-0.000411689 	-7478.04 	0.217105 	0.000330381 	-7478.1 	445.686 	-7923.79 	
0.000699911 	1.97187e-08 	0.92 	0.04 	0.04 	0.029196 	-2.22368e-08 	298.15 	
-0.029196 	-0.0409067 	0.0117107 	3.3298 	1.47151e-07 	26.7308 	3.32984 	
4.59471e-10 	91448.4 	1696.06 	1925.26 	0.35 	17.0603 	0.195178 	8.74889e-05 	
0.00758237 	0.00189559 	-0.000411696 	-7478.17 	0.283064 	9.71728e-05 	-7478.24 	445.704 	-7923.95 	
0.0007874 	2.08748e-08 	0.92 	0.04 	0.04 	0.0291958 	-2.25147e-08 	298.15 	
-0.0291958 	-0.0409067 	0.0117109 	1.66494 	1.47151e-07 	29.2282 	0.83247 	
2.29741e-10 	45724.2 	848.03 	962.628 	0.35 	8.53017 	0.195183 	4.37444e-05 	
0.00379119 	0.000947796 	-0.000411705 	-7478.33 	0.318237 	1.94351e-05 	-7478.42 	445.725 	-7924.15 	
ZONE T = "t = 7.75e-08 [s]" I = 10 SOLUTIONTIME = 7.7500000000000E-08
0 	1.2374e-09 	0.92 	0.04 	0.04 	0.0292092 	0 	298.486 	
-0.0292092 	-0.0411416 	0.0119324 	1.78196 	9.2344e-09 	0.890981 	29.1766 	
3.37531e-10 	45724.2 	848.03 	962.628 	0.35 	8.53017 	0.208901 	4.37444e-05 	
0.00379119 	0.000947796 	-0.000605065 	-8008.09 	0.00112109 	0.00527161 	-8008.09 	486.075 	-8494.16 	
8.74889e-05 	3.55605e-09 	0.92 	0.04 	0.04 	0.0292092 	-4.72224e-09 	298.169 	
-0.0292092 	-0.04092 	0.0117108 	3.33903 	2.65377e-08 	3.45147 	26.6161 	
6.48191e-10 	91448.4 	1696.06 	1925.26 	0.35 	17.0603 	0.195719 	8.74889e-05 	
0.00758237 	0.00189559 	-0.000580829 	-7499.66 	0.00533788 	0.00468703 	-7499.66 	446.943 	-7946.6 	
0.000174978 	5.86604e-09 	0.92 	0.04 	0.04 	0.0292092 	-8.88704e-09 	298.151 	
-0.0292092 	-0.0409073 	0.0116981 	3.32658 	4.37764e-08 	6.78428 	23.2833 	
6.47039e-10 	91448.4 	1696.06 	1925.26 	0.35 	17.0603 	0.194989 	8.74889e-05 	
0.00758237 	0.00189559 	-0.000579789 	-7471.52 	0.0178842 	0.00359191 	-7471.52 	444.797 	-7916.32 	
0.000262467 	8.17535e-09 	0.92 	0.04 	0.04 	0.0292091 	-1.24965e-08 	298.15 	
-0.0292091 	-0.0409067 	0.0116976 	3.32605 	6.10125e-08 	10.1106 	19.957 	
6.46999e-10 	91448.4 	1696.06 	1925.26 	0.35 	17.0603 	0.194958 	8.74889e-05 	
0.00758237 	0.00189559 	-0.000579753 	-7470.3 	0.0386591 	0.0026438 	-7470.32 	444.707 	-7915.02 	
0.000349956 	1.0485e-08 	0.92 	0.04 	0.04 	0.029209 	-1.55506e-08 	298.15 	
-0.029209 	-0.0409067 	0.0116977 	3.32606 	7.82485e-08 	13.4366 	16.6309 	
6.47004e-10 	91448.4 	1696.06 	1925.26 	0.35 	17.0603 	0.194958 	8.74889e-05 	
0.00758237 	0.00189559 	-0.000579756 	-7470.31 	0.0676661 	0.00184157 	-7470.33 	444.711 	-7915.05 	
0.000437444 	1.27946e-08 	0.92 	0.04 	0.04 	0.0292088 	-1.80495e-08 	298.15 	
-0.0292088 	-0.0409067 	0.0116979 	3.3261 	9.54848e-08 	16.7627 	13.3049 	
6.47012e-10 	91448.4 	1696.06 	1925.26 	0.35 	17.0603 	0.194961 	8.74889e-05 	
0.00758237 	0.00189559 	-0.000579762 	-7470.39 	0.104906 	0.00118519 	-7470.42 	444.722 	-7915.14 	
0.000524933 	1.51043e-08 	0.92 	0.04 	0.04 	0.0292086 	-1.99931e-08 	298.15 	
-0.0292087 	-0.0409067 	0.011698 	3.32615 	1.12721e-07 	20.0888 	9.97873 	
6.47021e-10 	91448.4 	1696.06 	1925.26 	0.35 	17.0603 	0.194964 	8.74889e-05 	
0.00758237 	0.00189559 	-0.000579769 	-7470.48 	0.150378 	0.000674656 	-7470.52 	444.735 	-7915.26 	
0.000612422 	1.74141e-08 	0.92 	0.04 	0.04 	0.0292084 	-2.13814e-08 	298.15 	
-0.0292085 	-0.0409067 	0.0116982 	3.3262 	1.29958e-07 	23.415 	6.65256 	
6.47033e-10 	91448.4 	1696.06 	1925.26 	0.35 	17.0603 	0.194967 	8.74889e-05 	
0.00758237 	0.00189559 	-0.000579777 	-7470.59 	0.204085 	0.000309983 	-7470.65 	444.751 	-7915.4 	
0.000699911 	1.97239e-08 	0.92 	0.04 	0.04 	0.0292082 	-2.22143e-08 	298.15 	
-0.0292082 	-0.0409067 	0.0116985 	3.32627 	1.47196e-07 	26.7413 	3.32632 	
6.47046e-10 	91448.4 	1696.06 	1925.26 	0.35 	17.0603 	0.194971 	8.74889e-05 	
0.00758237 	0.00189559 	-0.000579787 	-7470.71 	0.266025 	9.11734e-05 	-7470.79 	444.769 	-7915.56 	
0.0007874 	2.08788e-08 	0.92 	0.04 	0.04 	0.0292079 	-2.2492e-08 	298.15 	
-0.029208 	-0.0409067 	0.0116988 	1.66318 	1.47196e-07 	29.236 	0.83159 	
3.23531e-10 	45724.2 	848.03 	962.628 	0.35 	8.53017 	0.194976 	4.37444e-05 	
0.00379119 	0.000947796 	-0.0005798 	-7470.89 	0.299054 	1.82352e-05 	-7470.97 	444.791 	-7915.76 	
ZONE T = "t = 1.1125e-07 [s]" I = 10 SOLUTIONTIME = 1.1125000000000E-07
0 	1.26687e-09 	0.92 	0.04 	0.04 	0.0292275 	0 	298.609 	
-0.0292275 	-0.0412273 	0.0119999 	1.82439 	9.45432e-09 	0.912196 	29.1657 	
4.91852e-10 	45724.2 	848.03 	962.628 	0.35 	8.53017 	0.213875 	4.37444e-05 	
0.00379119 	0.000947796 	-0.000881843 	-8200.84 	0.00110617 	0.00503766 	-8200.84 	500.462 	-8701.3 	
8.74889e-05 	3.59001e-09 	0.92 	0.04 	0.04 	0.0292274 	-4.71688e-09 	298.186 	
-0.0292275 	-0.0409319 	0.0117044 	3.34551 	2.67911e-08 	3.49714 	26.5807 	
9.3118e-10 	91448.4 	1696.06 	1925.26 	0.35 	17.0603 	0.196098 	8.74889e-05 	
0.00758237 	0.00189559 	-0.000834463 	-7515.07 	0.00517741 	0.00447826 	-7515.07 	447.569 	-7962.64 	
0.000174978 	5.897e-09 	0.92 	0.04 	0.04 	0.0292274 	-8.87524e-09 	298.152 	
-0.0292274 	-0.0409083 	0.0116809 	3.32225 	4.40075e-08 	6.83102 	23.2469 	
9.2806e-10 	91448.4 	1696.06 	1925.26 	0.35 	17.0603 	0.194735 	8.74889e-05 	
0.00758237 	0.00189559 	-0.000831649 	-7462.5 	0.0172459 	0.00343111 	-7462.51 	443.562 	-7906.07 	
0.000262467 	8.203e-09 	0.92 	0.04 	0.04 	0.0292273 	-1.24789e-08 	298.15 	
-0.0292273 	-0.0409068 	0.0116795 	3.32083 	6.12164e-08 	10.1526 	19.9253 	
9.279e-10 	91448.4 	1696.06 	1925.26 	0.35 	17.0603 	0.194652 	8.74889e-05 	
0.00758237 	0.00189559 	-0.000831503 	-7459.27 	0.0371712 	0.00252539 	-7459.28 	443.318 	-7902.6 	
0.000349956 	1.0509e-08 	0.92 	0.04 	0.04 	0.0292272 	-1.55283e-08 	298.15 	
-0.0292272 	-0.0409067 	0.0116795 	3.32078 	7.84251e-08 	13.4734 	16.6045 	
9.27901e-10 	91448.4 	1696.06 	1925.26 	0.35 	17.0603 	0.194649 	8.74889e-05 	
0.00758237 	0.00189559 	-0.000831502 	-7459.15 	0.0649592 	0.00175909 	-7459.17 	443.313 	-7902.48 	
0.000437444 	1.28151e-08 	0.92 	0.04 	0.04 	0.0292271 	-1.80232e-08 	298.15 	
-0.0292271 	-0.0409067 	0.0116796 	3.32082 	9.56341e-08 	16.7942 	13.2837 	
9.27911e-10 	91448.4 	1696.06 	1925.26 	0.35 	17.0603 	0.194651 	8.74889e-05 	
0.00758237 	0.00189559 	-0.00083151 	-7459.22 	0.100611 	0.00113211 	-7459.25 	443.323 	-7902.57 	
0.000524933 	1.51212e-08 	0.92 	0.04 	0.04 	0.0292269 	-1.99637e-08 	298.15 	
-0.0292269 	-0.0409067 	0.0116798 	3.32086 	1.12843e-07 	20.115 	9.96289 	
9.27925e-10 	91448.4 	1696.06 	1925.26 	0.35 	17.0603 	0.194654 	8.74889e-05 	
0.00758237 	0.00189559 	-0.000831521 	-7459.31 	0.144127 	0.000644441 	-7459.35 	443.336 	-7902.69 	
0.000612422 	1.74273e-08 	0.92 	0.04 	0.04 	0.0292267 	-2.13497e-08 	298.15 	
-0.0292267 	-0.0409067 	0.01168 	3.32092 	1.30053e-07 	23.4359 	6.64199 	
9.27942e-10 	91448.4 	1696.06 	1925.26 	0.35 	17.0603 	0.194658 	8.74889e-05 	
0.00758237 	0.00189559 	-0.000831533 	-7459.42 	0.195508 	0.0002961 	-7459.48 	443.352 	-7902.83 	
0.000699911 	1.97336e-08 	0.92 	0.04 	0.04 	0.0292265 	-2.21814e-08 	298.15 	
-0.0292265 	-0.0409067 	0.0116802 	3.32099 	1.47263e-07 	26.7569 	3.32104 	
9.27961e-10 	91448.4 	1696.06 	1925.26 	0.35 	17.0603 	0.194662 	8.74889e-05 	
0.00758237 	0.00189559 	-0.000831547 	-7459.55 	0.254755 	8.70901e-05 	-7459.62 	443.37 	-7902.99 	
0.0007874 	2.08867e-08 	0.92 	0.04 	0.04 	0.0292262 	-2.24586e-08 	298.15 	
-0.0292262 	-0.0409067 	0.0116805 	1.66054 	1.47263e-07 	29.2476 	0.83027 	
4.63992e-10 	45724.2 	848.03 	962.628 	0.35 	8.53017 	0.194667 	4.37444e-05 	
0.00379119 	0.000947796 	-0.000831566 	-7459.72 	0.286345 	1.74185e-05 	-7459.81 	443.392 	-7903.2 	
ZONE T = "t = 1.61875e-07 [s]" I = 10 SOLUTIONTIME = 1.6187500000000E-07
0 	1.30669e-09 	0.92 	0.04 	0.04 	0.0292547 	0 	298.772 	
-0.0292547 	-0.0413412 	0.0120865 	1.88174 	9.75157e-09 	0.940868 	29.1525 	
7.3061e-10 	45724.2 	848.03 	962.628 	0.35 	8.53017 	0.220598 	4.37444e-05 	
0.00379119 	0.000947796 	-0.00131021 	-8461.57 	0.00111926 	0.00487719 	-8461.57 	519.92 	-8981.49 	
8.74889e-05 	3.63985e-09 	0.92 	0.04 	0.04 	0.0292547 	-4.70989e-09 	298.218 	
-0.0292547 	-0.0409545 	0.0116998 	3.35993 	2.7163e-08 	3.5617 	26.5316 	
1.35749e-09 	91448.4 	1696.06 	1925.26 	0.35 	17.0603 	0.196944 	8.74889e-05 	
0.00758237 	0.00189559 	-0.00121662 	-7548.84 	0.00512228 	0.00433414 	-7548.85 	449.32 	-7998.17 	
0.000174978 	5.94336e-09 	0.92 	0.04 	0.04 	0.0292547 	-8.85883e-09 	298.156 	
-0.0292547 	-0.0409109 	0.0116562 	3.31693 	4.43518e-08 	6.90013 	23.1932 	
1.34892e-09 	91448.4 	1696.06 	1925.26 	0.35 	17.0603 	0.194424 	8.74889e-05 	
0.00758237 	0.00189559 	-0.00120889 	-7451.62 	0.0169217 	0.00331914 	-7451.63 	441.917 	-7893.54 	
0.000262467 	8.24404e-09 	0.92 	0.04 	0.04 	0.0292546 	-1.2454e-08 	298.15 	
-0.0292546 	-0.040907 	0.0116524 	3.31317 	6.15211e-08 	10.2152 	19.8781 	
1.34828e-09 	91448.4 	1696.06 	1925.26 	0.35 	17.0603 	0.194203 	8.74889e-05 	
0.00758237 	0.00189559 	-0.00120831 	-7443.1 	0.0363152 	0.00244285 	-7443.12 	441.272 	-7884.39 	
0.000349956 	1.05445e-08 	0.92 	0.04 	0.04 	0.0292545 	-1.54961e-08 	298.15 	
-0.0292545 	-0.0409067 	0.0116522 	3.31291 	7.8689e-08 	13.5282 	16.5651 	
1.34825e-09 	91448.4 	1696.06 	1925.26 	0.35 	17.0603 	0.194188 	8.74889e-05 	
0.00758237 	0.00189559 	-0.00120828 	-7442.5 	0.0633127 	0.00170158 	-7442.52 	441.231 	-7883.76 	
0.000437444 	1.2845e-08 	0.92 	0.04 	0.04 	0.0292543 	-1.79851e-08 	298.15 	
-0.0292543 	-0.0409067 	0.0116524 	3.31293 	9.58571e-08 	16.8411 	13.2522 	
1.34826e-09 	91448.4 	1696.06 	1925.26 	0.35 	17.0603 	0.194189 	8.74889e-05 	
0.00758237 	0.00189559 	-0.00120829 	-7442.53 	0.0979168 	0.0010951 	-7442.56 	441.238 	-7883.8 	
0.000524933 	1.51455e-08 	0.92 	0.04 	0.04 	0.0292542 	-1.9921e-08 	298.15 	
-0.0292542 	-0.0409067 	0.0116525 	3.31298 	1.13025e-07 	20.1541 	9.93923 	
1.34828e-09 	91448.4 	1696.06 	1925.26 	0.35 	17.0603 	0.194192 	8.74889e-05 	
0.00758237 	0.00189559 	-0.0012083 	-7442.62 	0.140128 	0.000623374 	-7442.67 	441.251 	-7883.92 	
0.000612422 	1.74461e-08 	0.92 	0.04 	0.04 	0.0292539 	-2.13037e-08 	298.15 	
-0.029254 	-0.0409067 	0.0116527 	3.31304 	1.30194e-07 	23.4671 	6.62622 	
1.3483e-09 	91448.4 	1696.06 	1925.26 	0.35 	17.0603 	0.194195 	8.74889e-05 	
0.00758237 	0.00189559 	-0.00120832 	-7442.73 	0.189947 	0.000286421 	-7442.79 	441.266 	-7884.06 	
0.000699911 	1.97463e-08 	0.92 	0.04 	0.04 	0.0292537 	-2.21334e-08 	298.15 	
-0.0292537 	-0.0409067 	0.011653 	3.31311 	1.47364e-07 	26.7802 	3.31315 	
1.34833e-09 	91448.4 	1696.06 	1925.26 	0.35 	17.0603 	0.194199 	8.74889e-05 	
0.00758237 	0.00189559 	-0.00120834 	-7442.86 	0.247375 	8.42431e-05 	-7442.94 	441.285 	-7884.22 	
0.0007874 	2.08969e-08 	0.92 	0.04 	0.04 	0.0292534 	-2.241e-08 	298.15 	
-0.0292535 	-0.0409067 	0.0116532 	1.6566 	1.47364e-07 	29.265 	0.828299 	
6.74184e-10 	45724.2 	848.03 	962.628 	0.35 	8.53017 	0.194205 	4.37444e-05 	