TITLE = "Solution on Domain BulkDomain1D_2"
VARIABLES = "x [m]"  
"Vel_axial" 	"MF_sp(ECDMC)" 	"MF_sp(Li+)" 	"MF_sp(PF6-)" 	"Volt(Electroly)" 	"Volt(CathodeVo)" 	"Temperature" 	
"Potential Drop Electrode-Electrolyte [V]" 	"Surf_0 Equilibrium Potential Drop Electrode-Electrolyte [V]" 	"Overpotential_0 [V]" 	"Current Source [A/m^2]" 	"Li+ flux [kmol/m^2/s]" 	"Electrolyte Current [A/m^2]" 	"Electrode Current [A/m^2]" 	
"CV Capacity discharged [A-s/m^2]" 	"Depth of discharge in CV [A-s/m^2]" 	"CV Capacity remaining [A-s/m^2]" 	"Initial CV capacity [A-s/m^2]" 	"Porosity []" 	"Surface Area [m2/m2] (area per area)" 	"Specific current (per particle area) [A/m^2]" 	"Control volume thickness [m]" 	
"MoleDens LiCoO2 [kmol/m^3]" 	"MoleDens CoO2 [kmol/m^3]" 	"qHeat_accum [J/m3]" 	"qHeat_step [W/m3]" 	"Joule_Lyte [W/m3]" 	"Joule_Solid [W/m3]" 	"electrodHeat [W/m3]" 	"OverpotHeat [W/m3]" 	"deltaSHeat [W/m3]" 	

ZONE T = "CATH, 0.0000E+00", I = 10, SOLUTIONTIME = 0.000000E+00
ZONETYPE = ORDERED
DATAPACKING = BLOCK
STRANDID = 3
 1.2700000000000E-03  1.3377333333333E-03  1.4054666666667E-03  1.4732000000000E-03  1.5409333333333E-03  1.6086666666667E-03  1.6764000000000E-03  1.7441333333333E-03  1.8118666666667E-03  1.8796000000000E-03 
 0.0000000000000E+00  0.0000000000000E+00  0.0000000000000E+00  0.0000000000000E+00  0.0000000000000E+00  0.0000000000000E+00  0.0000000000000E+00  0.0000000000000E+00  0.0000000000000E+00  0.0000000000000E+00 
 9.2000000000000E-01  9.2000000000000E-01  9.2000000000000E-01  9.2000000000000E-01  9.2000000000000E-01  9.2000000000000E-01  9.2000000000000E-01  9.2000000000000E-01  9.2000000000000E-01  9.2000000000000E-01 
 4.0000000000000E-02  4.0000000000000E-02  4.0000000000000E-02  4.0000000000000E-02  4.0000000000000E-02  4.0000000000000E-02  4.0000000000000E-02  4.0000000000000E-02  4.0000000000000E-02  4.0000000000000E-02 
 4.0000000000000E-02  4.0000000000000E-02  4.0000000000000E-02  4.0000000000000E-02  4.0000000000000E-02  4.0000000000000E-02  4.0000000000000E-02  4.0000000000000E-02  4.0000000000000E-02  4.0000000000000E-02 
-7.0000000000000E-02 -7.0000000000000E-02 -7.0000000000000E-02 -7.0000000000000E-02 -7.0000000000000E-02 -7.0000000000000E-02 -7.0000000000000E-02 -7.0000000000000E-02 -7.0000000000000E-02 -7.0000000000000E-02 
 3.8000000000000E+00  3.8000000000000E+00  3.8000000000000E+00  3.8000000000000E+00  3.8000000000000E+00  3.8000000000000E+00  3.8000000000000E+00  3.8000000000000E+00  3.8000000000000E+00  3.8000000000000E+00 
 2.9815000000000E+02  2.9815000000000E+02  2.9815000000000E+02  2.9815000000000E+02  2.9815000000000E+02  2.9815000000000E+02  2.9815000000000E+02  2.9815000000000E+02  2.9815000000000E+02  2.9815000000000E+02 
 3.8700000000000E+00  3.8700000000000E+00  3.8700000000000E+00  3.8700000000000E+00  3.8700000000000E+00  3.8700000000000E+00  3.8700000000000E+00  3.8700000000000E+00  3.8700000000000E+00  3.8700000000000E+00 
 3.9714142713289E+00  3.9714142713289E+00  3.9714142713289E+00  3.9714142713289E+00  3.9714142713289E+00  3.9714142713289E+00  3.9714142713289E+00  3.9714142713289E+00  3.9714142713289E+00  3.9714142713289E+00 
-1.0141427132889E-01 -1.0141427132889E-01 -1.0141427132889E-01 -1.0141427132889E-01 -1.0141427132889E-01 -1.0141427132889E-01 -1.0141427132889E-01 -1.0141427132889E-01 -1.0141427132889E-01 -1.0141427132889E-01 
-2.3826357195711E-01 -4.7652714391422E-01 -4.7652714391423E-01 -4.7652714391422E-01 -4.7652714391423E-01 -4.7652714391423E-01 -4.7652714391422E-01 -4.7652714391423E-01 -4.7652714391422E-01 -2.3826357195711E-01 
-0.0000000000000E+00 -0.0000000000000E+00 -0.0000000000000E+00 -0.0000000000000E+00 -0.0000000000000E+00 -0.0000000000000E+00 -0.0000000000000E+00 -0.0000000000000E+00 -0.0000000000000E+00 -0.0000000000000E+00 
 2.3826357195711E-01  0.0000000000000E+00  0.0000000000000E+00  0.0000000000000E+00  0.0000000000000E+00  0.0000000000000E+00  0.0000000000000E+00  0.0000000000000E+00  0.0000000000000E+00  0.0000000000000E+00 
 0.0000000000000E+00 -0.0000000000000E+00 -0.0000000000000E+00 -0.0000000000000E+00 -0.0000000000000E+00 -0.0000000000000E+00 -0.0000000000000E+00 -0.0000000000000E+00 -0.0000000000000E+00  2.3826357195711E-01 
-0.0000000000000E+00 -0.0000000000000E+00 -0.0000000000000E+00 -0.0000000000000E+00 -0.0000000000000E+00 -0.0000000000000E+00 -0.0000000000000E+00 -0.0000000000000E+00 -0.0000000000000E+00 -0.0000000000000E+00 
 7.2440786946225E+03  1.4488157389245E+04  1.4488157389245E+04  1.4488157389245E+04  1.4488157389245E+04  1.4488157389245E+04  1.4488157389245E+04  1.4488157389245E+04  1.4488157389245E+04  7.2440786946225E+03 
 4.9259735123433E+04  9.8519470246865E+04  9.8519470246866E+04  9.8519470246865E+04  9.8519470246866E+04  9.8519470246866E+04  9.8519470246865E+04  9.8519470246866E+04  9.8519470246865E+04  4.9259735123433E+04 
 5.6503813818055E+04  1.1300762763611E+05  1.1300762763611E+05  1.1300762763611E+05  1.1300762763611E+05  1.1300762763611E+05  1.1300762763611E+05  1.1300762763611E+05  1.1300762763611E+05  5.6503813818055E+04 
 3.5000000000000E-01  3.5000000000000E-01  3.5000000000000E-01  3.5000000000000E-01  3.5000000000000E-01  3.5000000000000E-01  3.5000000000000E-01  3.5000000000000E-01  3.5000000000000E-01  3.5000000000000E-01 
 6.6040000000000E+00  1.3208000000000E+01  1.3208000000000E+01  1.3208000000000E+01  1.3208000000000E+01  1.3208000000000E+01  1.3208000000000E+01  1.3208000000000E+01  1.3208000000000E+01  6.6040000000000E+00 
-3.6078675341780E-02 -3.6078675341780E-02 -3.6078675341780E-02 -3.6078675341780E-02 -3.6078675341780E-02 -3.6078675341780E-02 -3.6078675341780E-02 -3.6078675341780E-02 -3.6078675341780E-02 -3.6078675341780E-02 
 3.3866666666667E-05  6.7733333333333E-05  6.7733333333334E-05  6.7733333333333E-05  6.7733333333334E-05  6.7733333333334E-05  6.7733333333333E-05  6.7733333333334E-05  6.7733333333333E-05  3.3866666666667E-05 
 2.6603001364256E+01  2.6603001364256E+01  2.6603001364256E+01  2.6603001364256E+01  2.6603001364256E+01  2.6603001364256E+01  2.6603001364256E+01  2.6603001364256E+01  2.6603001364256E+01  2.6603001364256E+01 
 1.7735334242838E+01  1.7735334242838E+01  1.7735334242838E+01  1.7735334242838E+01  1.7735334242838E+01  1.7735334242838E+01  1.7735334242838E+01  1.7735334242838E+01  1.7735334242838E+01  1.7735334242838E+01 
 0.0000000000000E+00  0.0000000000000E+00  0.0000000000000E+00  0.0000000000000E+00  0.0000000000000E+00  0.0000000000000E+00  0.0000000000000E+00  0.0000000000000E+00  0.0000000000000E+00  0.0000000000000E+00 
 0.0000000000000E+00  0.0000000000000E+00  0.0000000000000E+00  0.0000000000000E+00  0.0000000000000E+00  0.0000000000000E+00  0.0000000000000E+00  0.0000000000000E+00  0.0000000000000E+00  0.0000000000000E+00 
 0.0000000000000E+00  0.0000000000000E+00  0.0000000000000E+00  0.0000000000000E+00  0.0000000000000E+00  0.0000000000000E+00  0.0000000000000E+00  0.0000000000000E+00  0.0000000000000E+00  0.0000000000000E+00 
 0.0000000000000E+00  0.0000000000000E+00  0.0000000000000E+00  0.0000000000000E+00  0.0000000000000E+00  0.0000000000000E+00  0.0000000000000E+00  0.0000000000000E+00  0.0000000000000E+00  0.0000000000000E+00 
 0.0000000000000E+00  0.0000000000000E+00  0.0000000000000E+00  0.0000000000000E+00  0.0000000000000E+00  0.0000000000000E+00  0.0000000000000E+00  0.0000000000000E+00  0.0000000000000E+00  0.0000000000000E+00 
 0.0000000000000E+00  0.0000000000000E+00  0.0000000000000E+00  0.0000000000000E+00  0.0000000000000E+00  0.0000000000000E+00  0.0000000000000E+00  0.0000000000000E+00  0.0000000000000E+00  0.0000000000000E+00 
 0.0000000000000E+00  0.0000000000000E+00  0.0000000000000E+00  0.0000000000000E+00  0.0000000000000E+00  0.0000000000000E+00  0.0000000000000E+00  0.0000000000000E+00  0.0000000000000E+00  0.0000000000000E+00 
ZONE T = "CATH, 1.0000E-08", I = 10, SOLUTIONTIME = 1.000000E-08
ZONETYPE = ORDERED
DATAPACKING = BLOCK
STRANDID = 3
 1.2700000000000E-03  1.3377333333333E-03  1.4054666666667E-03  1.4732000000000E-03  1.5409333333333E-03  1.6086666666667E-03  1.6764000000000E-03  1.7441333333333E-03  1.8118666666667E-03  1.8796000000000E-03 
 1.9707213485963E-08  1.7391068139734E-08  1.5074639389701E-08  1.2757731653041E-08  1.0439785944505E-08  8.1213326537435E-09  5.8018123094744E-09  3.4813915077685E-09  1.1591498660105E-09 -2.9056616797944E-12 
 9.2000000000032E-01  9.2000000000090E-01  9.2000000000090E-01  9.2000000000090E-01  9.2000000000090E-01  9.2000000000090E-01  9.2000000000090E-01  9.2000000000090E-01  9.2000000000090E-01  9.2000000000090E-01 
 3.9999999999841E-02  3.9999999999551E-02  3.9999999999551E-02  3.9999999999551E-02  3.9999999999550E-02  3.9999999999550E-02  3.9999999999550E-02  3.9999999999550E-02  3.9999999999549E-02  3.9999999999549E-02 
 3.9999999999841E-02  3.9999999999551E-02  3.9999999999551E-02  3.9999999999551E-02  3.9999999999550E-02  3.9999999999550E-02  3.9999999999550E-02  3.9999999999550E-02  3.9999999999549E-02  3.9999999999549E-02 
 2.9171015617513E-02  2.9170808586572E-02  2.9170625884152E-02  2.9170467513220E-02  2.9170333478828E-02  2.9170223788058E-02  2.9170138450054E-02  2.9170077476040E-02  2.9170040879271E-02  2.9170028675101E-02 
 3.8001746603045E+00  3.8001725051915E+00  3.8001660396879E+00  3.8001552632662E+00  3.8001401750348E+00  3.8001207737379E+00  3.8000970577545E+00  3.8000690250986E+00  3.8000366734182E+00  3.8000000000000E+00 
 2.9815000104744E+02  2.9815000405608E+02  2.9815000419862E+02  2.9815000417037E+02  2.9815000414736E+02  2.9815000424811E+02  2.9815000416273E+02  2.9815000382463E+02  2.9814998657851E+02  2.9814916181832E+02 
 3.7710036446870E+00  3.7710016966049E+00  3.7709954138037E+00  3.7709847957530E+00  3.7709698415560E+00  3.7709505499498E+00  3.7709269193045E+00  3.7708989476226E+00  3.7708666325389E+00  3.7708299713249E+00 
 3.9714142704832E+00  3.9714142680545E+00  3.9714142679395E+00  3.9714142679623E+00  3.9714142679808E+00  3.9714142678995E+00  3.9714142679684E+00  3.9714142682413E+00  3.9714142821622E+00  3.9714149478967E+00 
-2.0041062579620E-01 -2.0041257144957E-01 -2.0041885413570E-01 -2.0042947220930E-01 -2.0044442642484E-01 -2.0046371794970E-01 -2.0048734866397E-01 -2.0051532061874E-01 -2.0054764962327E-01 -2.0058497657184E-01 
-1.6673997663679E+00 -3.3349268625256E+00 -3.3353350168781E+00 -3.3360248473655E+00 -3.3369966333855E+00 -3.3382507343869E+00 -3.3397874917346E+00 -3.3416074070121E+00 -3.3437066727824E+00 -1.6729379550286E+00 
 1.4706617404363E-07  1.2978408662978E-07  1.1250002434681E-07  9.5212373806585E-08  7.7919692161523E-08  6.0620515421042E-08  4.3313366214610E-08  2.5996800061744E-08  8.6693403272228E-09  8.6693403272228E-09 
 3.0046832750097E+01  2.6711977754993E+01  2.3376863959895E+01  2.0041200612598E+01  1.6704705623334E+01  1.3367098525238E+01  1.0028095519333E+01  6.6874146899287E+00  3.3447741939029E+00  0.0000000000000E+00 
 0.0000000000000E+00  3.3348470701585E+00  6.6699618605397E+00  1.0005625602443E+01  1.3342120090824E+01  1.6679727439661E+01  2.0018730113045E+01  2.3359410996480E+01  2.6702051322641E+01  3.0046834217516E+01 
 1.6673997663679E-08  3.3349268625256E-08  3.3353350168781E-08  3.3360248473655E-08  3.3369966333855E-08  3.3382507343869E-08  3.3397874917346E-08  3.3416074070121E-08  3.3437066727824E-08  1.6729379550286E-08 
 7.2440786946392E+03  1.4488157389278E+04  1.4488157389278E+04  1.4488157389278E+04  1.4488157389278E+04  1.4488157389278E+04  1.4488157389278E+04  1.4488157389278E+04  1.4488157389278E+04  7.2440786946392E+03 
 4.9259735123416E+04  9.8519470246832E+04  9.8519470246832E+04  9.8519470246832E+04  9.8519470246832E+04  9.8519470246832E+04  9.8519470246832E+04  9.8519470246832E+04  9.8519470246832E+04  4.9259735123416E+04 
 5.6503813818055E+04  1.1300762763611E+05  1.1300762763611E+05  1.1300762763611E+05  1.1300762763611E+05  1.1300762763611E+05  1.1300762763611E+05  1.1300762763611E+05  1.1300762763611E+05  5.6503813818055E+04 
 3.5000000000000E-01  3.5000000000000E-01  3.5000000000000E-01  3.5000000000000E-01  3.5000000000000E-01  3.5000000000000E-01  3.5000000000000E-01  3.5000000000000E-01  3.5000000000000E-01  3.5000000000000E-01 
 6.6040000000000E+00  1.3208000000000E+01  1.3208000000000E+01  1.3208000000000E+01  1.3208000000000E+01  1.3208000000000E+01  1.3208000000000E+01  1.3208000000000E+01  1.3208000000000E+01  6.6040000000000E+00 
-2.5248330805087E-01 -2.5249294840442E-01 -2.5252385046018E-01 -2.5257607869212E-01 -2.5264965425390E-01 -2.5274460436000E-01 -2.5286095485574E-01 -2.5299874371684E-01 -2.5315768267583E-01 -2.5332191929566E-01 
 3.3866666666667E-05  6.7733333333333E-05  6.7733333333334E-05  6.7733333333333E-05  6.7733333333334E-05  6.7733333333334E-05  6.7733333333333E-05  6.7733333333334E-05  6.7733333333333E-05  3.3866666666667E-05 
 2.6603001364262E+01  2.6603001364262E+01  2.6603001364262E+01  2.6603001364262E+01  2.6603001364262E+01  2.6603001364262E+01  2.6603001364262E+01  2.6603001364262E+01  2.6603001364262E+01  2.6603001364262E+01 
 1.7735334242833E+01  1.7735334242833E+01  1.7735334242833E+01  1.7735334242833E+01  1.7735334242833E+01  1.7735334242833E+01  1.7735334242833E+01  1.7735334242833E+01  1.7735334242833E+01  1.7735334242833E+01 
 2.1716042439108E-04  2.1717170180030E-04  2.1720756177735E-04  2.1726817195163E-04  2.1735355716496E-04  2.1746375017780E-04  2.1759878523831E-04  2.1775870978809E-04  2.1794329120768E-04  2.1811962487359E-04 
 2.1716042439108E+04  2.1717170180030E+04  2.1720756177735E+04  2.1726817195163E+04  2.1735355716496E+04  2.1746375017780E+04  2.1759878523831E+04  2.1775870978809E+04  2.1794329120768E+04  2.1811962487359E+04 
 8.6743416114882E-02  7.7148983275051E-02  5.9157002739524E-02  4.3558665502668E-02  3.0354140053873E-02  1.9544412713746E-02  1.1131269576911E-02  5.1173154190823E-03  1.5059703408537E-03  3.0142771610996E-04 
 5.3052424836274E-02  2.6527427708854E-01  9.0200881608792E-01  1.9634656904033E+00  3.4499980530051E+00  5.3621028592960E+00  7.7004211954359E+00  1.0465738705879E+01  1.3658983771367E+01  1.5362713031295E+01 
 2.1715902643267E+04  2.1716827756770E+04  2.1719795011916E+04  2.1724810170807E+04  2.1731875364303E+04  2.1740993370508E+04  2.1752166971366E+04  2.1765400122788E+04  2.1780668631026E+04  2.1796599472900E+04 
 9.8670658650711E+03  9.8675384072237E+03  9.8690554464913E+03  9.8716195782804E+03  9.8752319315188E+03  9.8798940009518E+03  9.8856073718495E+03  9.8923742214558E+03  9.9001847577330E+03  9.9084513931896E+03 
 1.1848836778196E+04  1.1849289349546E+04  1.1850739565425E+04  1.1853190592527E+04  1.1856643432784E+04  1.1861099369556E+04  1.1866559599517E+04  1.1873025901332E+04  1.1880483873293E+04  1.1888148079710E+04 
ZONE T = "CATH, 2.0000E-08", I = 10, SOLUTIONTIME = 2.000000E-08
ZONETYPE = ORDERED
DATAPACKING = BLOCK
STRANDID = 3
 1.2700000000000E-03  1.3377333333333E-03  1.4054666666667E-03  1.4732000000000E-03  1.5409333333333E-03  1.6086666666667E-03  1.6764000000000E-03  1.7441333333333E-03  1.8118666666667E-03  1.8796000000000E-03 
 1.9708026218395E-08  1.7391627009618E-08  1.5076033922529E-08  1.2759598499532E-08  1.0442488115778E-08  8.1241434802557E-09  5.8047314981923E-09  3.4840556761779E-09  1.1615645751054E-09 -3.6320772782482E-13 
 9.2000000000064E-01  9.2000000000180E-01  9.2000000000180E-01  9.2000000000180E-01  9.2000000000180E-01  9.2000000000180E-01  9.2000000000180E-01  9.2000000000180E-01  9.2000000000180E-01  9.2000000000180E-01 
 3.9999999999682E-02  3.9999999999101E-02  3.9999999999101E-02  3.9999999999101E-02  3.9999999999101E-02  3.9999999999100E-02  3.9999999999100E-02  3.9999999999099E-02  3.9999999999099E-02  3.9999999999098E-02 
 3.9999999999682E-02  3.9999999999101E-02  3.9999999999101E-02  3.9999999999101E-02  3.9999999999101E-02  3.9999999999100E-02  3.9999999999100E-02  3.9999999999099E-02  3.9999999999099E-02  3.9999999999098E-02 
 2.9176396948949E-02  2.9176189896105E-02  2.9176007174450E-02  2.9175848786965E-02  2.9175714738683E-02  2.9175605036694E-02  2.9175519690150E-02  2.9175458710263E-02  2.9175422110315E-02  2.9175409905587E-02 
 3.8001746794511E+00  3.8001725241024E+00  3.8001660578906E+00  3.8001552802880E+00  3.8001401904027E+00  3.8001207869786E+00  3.8000970683942E+00  3.8000690326630E+00  3.8000366774325E+00  3.8000000000000E+00 
 2.9815000213856E+02  2.9815000829142E+02  2.9815000852050E+02  2.9815000850894E+02  2.9815000849702E+02  2.9815000860881E+02  2.9815000843712E+02  2.9815000706089E+02  2.9814995736324E+02  2.9814836196511E+02 
 3.7709982825022E+00  3.7709963342063E+00  3.7709900507161E+00  3.7709794315010E+00  3.7709644756640E+00  3.7709451819419E+00  3.7709215487041E+00  3.7708935739527E+00  3.7708612553222E+00  3.7708245900944E+00 
 3.9714142696023E+00  3.9714142646354E+00  3.9714142644505E+00  3.9714142644599E+00  3.9714142644695E+00  3.9714142643792E+00  3.9714142645178E+00  3.9714142656287E+00  3.9714143057439E+00  3.9714155935258E+00 
-2.0041598710011E-01 -2.0041793042911E-01 -2.0042421373438E-01 -2.0043483295885E-01 -2.0044978880543E-01 -2.0046908243736E-01 -2.0049271581376E-01 -2.0052069167597E-01 -2.0055305042175E-01 -2.0059100343141E-01 
-1.6675740603940E+00 -3.3352763106513E+00 -3.3356845753849E+00 -3.3363745581276E+00 -3.3373465553768E+00 -3.3386009281712E+00 -3.3401379922043E+00 -3.3419580223977E+00 -3.3440491207678E+00 -1.6730070292305E+00 
 1.4708186397879E-07  1.2979774808649E-07  1.1251178167981E-07  9.5222239704683E-08  7.7927660687545E-08  6.0626581358104E-08  4.3317536751584E-08  2.5999060496208E-08  8.6697478580529E-09  8.6697478580529E-09 
 3.0050009153327E+01  2.6714796937117E+01  2.3379316493799E+01  2.0043286927270E+01  1.6706426370403E+01  1.3368452628586E+01  1.0029083168667E+01  6.6880351612533E+00  3.3450315895561E+00  0.0000000000000E+00 
 0.0000000000000E+00  3.3352122157489E+00  6.6706926586842E+00  1.0006722225623E+01  1.3343582782300E+01  1.6681556523950E+01  2.0020925984244E+01  2.3361973991477E+01  2.6704977563015E+01  3.0050009152781E+01 
 3.3349738267620E-08  6.6702031731769E-08  6.6710195922630E-08  6.6723994054931E-08  6.6743431887623E-08  6.6768516625581E-08  6.6799254839389E-08  6.6835654294098E-08  6.6877557935502E-08  3.3459449842590E-08 
 7.2440786946558E+03  1.4488157389312E+04  1.4488157389312E+04  1.4488157389312E+04  1.4488157389312E+04  1.4488157389312E+04  1.4488157389312E+04  1.4488157389312E+04  1.4488157389312E+04  7.2440786946559E+03 
 4.9259735123400E+04  9.8519470246798E+04  9.8519470246799E+04  9.8519470246798E+04  9.8519470246799E+04  9.8519470246799E+04  9.8519470246798E+04  9.8519470246799E+04  9.8519470246798E+04  4.9259735123399E+04 
 5.6503813818055E+04  1.1300762763611E+05  1.1300762763611E+05  1.1300762763611E+05  1.1300762763611E+05  1.1300762763611E+05  1.1300762763611E+05  1.1300762763611E+05  1.1300762763611E+05  5.6503813818055E+04 
 3.5000000000000E-01  3.5000000000000E-01  3.5000000000000E-01  3.5000000000000E-01  3.5000000000000E-01  3.5000000000000E-01  3.5000000000000E-01  3.5000000000000E-01  3.5000000000000E-01  3.5000000000000E-01 
 6.6040000000000E+00  1.3208000000000E+01  1.3208000000000E+01  1.3208000000000E+01  1.3208000000000E+01  1.3208000000000E+01  1.3208000000000E+01  1.3208000000000E+01  1.3208000000000E+01  6.6040000000000E+00 
-2.5250970024137E-01 -2.5251940571254E-01 -2.5255031612545E-01 -2.5260255588489E-01 -2.5267614743919E-01 -2.5277111812320E-01 -2.5288749183861E-01 -2.5302528940019E-01 -2.5318360999150E-01 -2.5333237874477E-01 
 3.3866666666667E-05  6.7733333333333E-05  6.7733333333334E-05  6.7733333333333E-05  6.7733333333334E-05  6.7733333333334E-05  6.7733333333333E-05  6.7733333333334E-05  6.7733333333333E-05  3.3866666666667E-05 
 2.6603001364267E+01  2.6603001364267E+01  2.6603001364267E+01  2.6603001364267E+01  2.6603001364267E+01  2.6603001364267E+01  2.6603001364267E+01  2.6603001364267E+01  2.6603001364267E+01  2.6603001364267E+01 
 1.7735334242827E+01  1.7735334242827E+01  1.7735334242827E+01  1.7735334242827E+01  1.7735334242827E+01  1.7735334242827E+01  1.7735334242827E+01  1.7735334242827E+01  1.7735334242827E+01  1.7735334242827E+01 
 4.3434618925397E-04  4.3436880122645E-04  4.3444053072320E-04  4.3456176495100E-04  4.3473255471779E-04  4.3495296565241E-04  4.3522306457161E-04  4.3554293149139E-04  4.3591157026765E-04  4.3625084048278E-04 
 2.1718576486289E+04  2.1719709942615E+04  2.1723296894585E+04  2.1729359299937E+04  2.1737899755283E+04  2.1748921547462E+04  2.1762427933330E+04  2.1778422170330E+04  2.1796827905997E+04  2.1813121560919E+04 
 8.6761770110064E-02  7.7165272109137E-02  5.9169420054742E-02  4.3567738817168E-02  3.0360398387440E-02  1.9548378155232E-02  1.1133469062011E-02  5.1182755789158E-03  1.5062199154516E-03  3.0145562844731E-04 
 5.3064029659191E-02  2.6533238578079E-01  9.0220649427573E-01  1.9638961177444E+00  3.4507545504204E+00  5.3632789469482E+00  7.7021106402365E+00  1.0468035453400E+01  1.3661977443807E+01  1.5366076479391E+01 
 2.1718436660489E+04  2.1719367444958E+04  2.1722335518670E+04  2.1727351836080E+04  2.1734418640335E+04  2.1743538720137E+04  2.1754714689220E+04  2.1767949016601E+04  2.1783164422333E+04  2.1797755182984E+04 
 9.8683612611196E+03  9.8688362538032E+03  9.8703537148873E+03  9.8729184632989E+03  9.8765316761335E+03  9.8811948527949E+03  9.8869095066543E+03  9.8936771782116E+03  9.9014653336287E+03  9.9091582305598E+03 
 1.1850075399370E+04  1.1850531191154E+04  1.1851981803783E+04  1.1854433372782E+04  1.1857886964201E+04  1.1862343867342E+04  1.1867805182566E+04  1.1874271838389E+04  1.1881699088705E+04  1.1888596952424E+04 
ZONE T = "CATH, 3.0000E-08", I = 10, SOLUTIONTIME = 3.000000E-08
ZONETYPE = ORDERED
DATAPACKING = BLOCK
STRANDID = 3
 1.2700000000000E-03  1.3377333333333E-03  1.4054666666667E-03  1.4732000000000E-03  1.5409333333333E-03  1.6086666666667E-03  1.6764000000000E-03  1.7441333333333E-03  1.8118666666667E-03  1.8796000000000E-03 
 1.9714195580519E-08  1.7398279538197E-08  1.5082079904150E-08  1.2764674623880E-08  1.0446594238386E-08  8.1272794239828E-09  5.8076234648229E-09  3.4867037403534E-09  1.1647033855927E-09  3.0872656860811E-12 
 9.2000000000095E-01  9.2000000000270E-01  9.2000000000270E-01  9.2000000000270E-01  9.2000000000270E-01  9.2000000000270E-01  9.2000000000270E-01  9.2000000000270E-01  9.2000000000270E-01  9.2000000000271E-01 
 3.9999999999524E-02  3.9999999998652E-02  3.9999999998652E-02  3.9999999998651E-02  3.9999999998651E-02  3.9999999998650E-02  3.9999999998650E-02  3.9999999998649E-02  3.9999999998648E-02  3.9999999998647E-02 
 3.9999999999524E-02  3.9999999998652E-02  3.9999999998652E-02  3.9999999998651E-02  3.9999999998651E-02  3.9999999998650E-02  3.9999999998650E-02  3.9999999998649E-02  3.9999999998648E-02  3.9999999998647E-02 
 2.9181790376023E-02  2.9181583302245E-02  2.9181400562211E-02  2.9181242158904E-02  2.9181108097357E-02  2.9180998384663E-02  2.9180913029974E-02  2.9180852044508E-02  2.9180815441544E-02  2.9180803236292E-02 
 3.8001746977858E+00  3.8001725422113E+00  3.8001660753209E+00  3.8001552965867E+00  3.8001402051168E+00  3.8001207996546E+00  3.8000970785785E+00  3.8000690399014E+00  3.8000366812710E+00  3.8000000000000E+00 
 2.9815000323741E+02  2.9815001243343E+02  2.9815001282946E+02  2.9815001282871E+02  2.9815001283164E+02  2.9815001291192E+02  2.9815001268287E+02  2.9815000946063E+02  2.9814991346293E+02  2.9814759791384E+02 
 3.7709929074098E+00  3.7709909589090E+00  3.7709846747586E+00  3.7709740544278E+00  3.7709590970194E+00  3.7709398012699E+00  3.7709161655485E+00  3.7708881878569E+00  3.7708558658295E+00  3.7708191967637E+00 
 3.9714142687152E+00  3.9714142612917E+00  3.9714142609720E+00  3.9714142609726E+00  3.9714142609703E+00  3.9714142609055E+00  3.9714142610903E+00  3.9714142636913E+00  3.9714143411793E+00  3.9714162102556E+00 
-2.0042136130533E-01 -2.0042330238265E-01 -2.0042958621338E-01 -2.0044020654484E-01 -2.0045516395082E-01 -2.0047445963553E-01 -2.0049809554184E-01 -2.0052607583443E-01 -2.0055847534981E-01 -2.0059701349191E-01 
-1.6677487928998E+00 -3.3356266085890E+00 -3.3360350032595E+00 -3.3367251337349E+00 -3.3376973390277E+00 -3.3389519669208E+00 -3.3404893386566E+00 -3.3423092613572E+00 -3.3443885031079E+00 -1.6730812578506E+00 
 1.4709686579316E-07  1.2981080203210E-07  1.1252301966660E-07  9.5231660985633E-08  7.7935264176363E-08  6.0632365732423E-08  4.3321500415035E-08  2.6001204016662E-08  8.6701326270254E-09  8.6701326270254E-09 
 3.0053053205094E+01  2.6717491108161E+01  2.3381660302300E+01  2.0045280233893E+01  1.6708068997504E+01  1.3369744344435E+01  1.0030023691735E+01  6.6886243916334E+00  3.3452755093792E+00  0.0000000000000E+00 
 0.0000000000000E+00  3.3355620971051E+00  6.6713929031068E+00  1.0007772971750E+01  1.3344984207937E+01  1.6683308860849E+01  2.0023029513802E+01  2.3364428813849E+01  2.6707777695995E+01  3.0053053205380E+01 
 5.0027226196618E-08  1.0005829781766E-07  1.0007054595523E-07  1.0009124539228E-07  1.0012040527790E-07  1.0015803629479E-07  1.0020414822596E-07  1.0025874690767E-07  1.0032144296658E-07  5.0190262421097E-08 
 7.2440786946725E+03  1.4488157389345E+04  1.4488157389345E+04  1.4488157389345E+04  1.4488157389345E+04  1.4488157389345E+04  1.4488157389345E+04  1.4488157389345E+04  1.4488157389345E+04  7.2440786946727E+03 
 4.9259735123383E+04  9.8519470246765E+04  9.8519470246766E+04  9.8519470246765E+04  9.8519470246766E+04  9.8519470246766E+04  9.8519470246765E+04  9.8519470246765E+04  9.8519470246765E+04  4.9259735123383E+04 
 5.6503813818055E+04  1.1300762763611E+05  1.1300762763611E+05  1.1300762763611E+05  1.1300762763611E+05  1.1300762763611E+05  1.1300762763611E+05  1.1300762763611E+05  1.1300762763611E+05  5.6503813818055E+04 
 3.5000000000000E-01  3.5000000000000E-01  3.5000000000000E-01  3.5000000000000E-01  3.5000000000000E-01  3.5000000000000E-01  3.5000000000000E-01  3.5000000000000E-01  3.5000000000000E-01  3.5000000000000E-01 
 6.6040000000000E+00  1.3208000000000E+01  1.3208000000000E+01  1.3208000000000E+01  1.3208000000000E+01  1.3208000000000E+01  1.3208000000000E+01  1.3208000000000E+01  1.3208000000000E+01  6.6040000000000E+00 
-2.5253615882796E-01 -2.5254592736137E-01 -2.5257684761202E-01 -2.5262909855655E-01 -2.5270270586218E-01 -2.5279769586014E-01 -2.5291409287224E-01 -2.5305188229537E-01 -2.5320930520199E-01 -2.5334361869331E-01 
 3.3866666666667E-05  6.7733333333333E-05  6.7733333333334E-05  6.7733333333333E-05  6.7733333333334E-05  6.7733333333334E-05  6.7733333333333E-05  6.7733333333334E-05  6.7733333333333E-05  3.3866666666667E-05 
 2.6603001364272E+01  2.6603001364272E+01  2.6603001364272E+01  2.6603001364272E+01  2.6603001364272E+01  2.6603001364272E+01  2.6603001364272E+01  2.6603001364272E+01  2.6603001364272E+01  2.6603001364272E+01 
 1.7735334242822E+01  1.7735334242822E+01  1.7735334242822E+01  1.7735334242822E+01  1.7735334242822E+01  1.7735334242822E+01  1.7735334242822E+01  1.7735334242822E+01  1.7735334242822E+01  1.7735334242822E+01 
 6.5155735859308E-04  6.5159136048141E-04  6.5169897025525E-04  6.5188084200388E-04  6.5213705529247E-04  6.5246770775176E-04  6.5287289913491E-04  6.5335271134213E-04  6.5390464094619E-04  6.5439432764265E-04 
 2.1721116933912E+04  2.1722255925495E+04  2.1725843953205E+04  2.1731907705288E+04  2.1740450057468E+04  2.1751474209935E+04  2.1764983456330E+04  2.1780977985073E+04  2.1799307067854E+04  2.1814348715987E+04 
 8.6779314104011E-02  7.7180840399831E-02  5.9181288005505E-02  4.3576408883883E-02  3.0366373447069E-02  1.9552161427660E-02  1.1135564347138E-02  5.1191876527321E-03  1.5064564977326E-03  3.0148197069059E-04 
 5.3075150586912E-02  2.6538807128490E-01  9.0239592795270E-01  1.9643085811231E+00  3.4514794364302E+00  5.3644058026060E+00  7.7037292066529E+00  1.0470235485409E+01  1.3664842270281E+01  1.5369292952376E+01 
 2.1720977079447E+04  2.1721913356584E+04  2.1724882375989E+04  2.1729899820298E+04  2.1736968211658E+04  2.1746090251971E+04  2.1757268591559E+04  2.1770502630400E+04  2.1785640719127E+04  2.1798979121553E+04 
 9.8696599425730E+03  9.8701373092001E+03  9.8716552455359E+03  9.8742205953269E+03  9.8778346552263E+03  9.8824988875746E+03  9.8882148215468E+03  9.8949826831595E+03  9.9027380781751E+03  9.9098947929512E+03 
 1.1851317136874E+04  1.1851776047383E+04  1.1853227130453E+04  1.1855679224971E+04  1.1859133556432E+04  1.1863591364396E+04  1.1869053770013E+04  1.1875519947241E+04  1.1882902640952E+04  1.1889084328601E+04 
ZONE T = "CATH, 4.0000E-08", I = 10, SOLUTIONTIME = 4.000000E-08
ZONETYPE = ORDERED
DATAPACKING = BLOCK
STRANDID = 3
 1.2700000000000E-03  1.3377333333333E-03  1.4054666666667E-03  1.4732000000000E-03  1.5409333333333E-03  1.6086666666667E-03  1.6764000000000E-03  1.7441333333333E-03  1.8118666666667E-03  1.8796000000000E-03 
 1.9711471463103E-08  1.7394585225974E-08  1.5077415287043E-08  1.2760492425357E-08  1.0442167886592E-08  8.1240615775666E-09  5.8034346634903E-09  3.4819075005186E-09  1.1596733924469E-09 -2.3608502306209E-12 
 9.2000000000127E-01  9.2000000000360E-01  9.2000000000360E-01  9.2000000000360E-01  9.2000000000360E-01  9.2000000000360E-01  9.2000000000360E-01  9.2000000000360E-01  9.2000000000360E-01  9.2000000000361E-01 
 3.9999999999365E-02  3.9999999998202E-02  3.9999999998202E-02  3.9999999998202E-02  3.9999999998201E-02  3.9999999998201E-02  3.9999999998200E-02  3.9999999998199E-02  3.9999999998198E-02  3.9999999998197E-02 
 3.9999999999365E-02  3.9999999998202E-02  3.9999999998202E-02  3.9999999998202E-02  3.9999999998201E-02  3.9999999998201E-02  3.9999999998200E-02  3.9999999998199E-02  3.9999999998198E-02  3.9999999998197E-02 
 2.9187195615111E-02  2.9186988520346E-02  2.9186805761885E-02  2.9186647342712E-02  2.9186513267864E-02  2.9186403544434E-02  2.9186318181578E-02  2.9186257190512E-02  2.9186220584519E-02  2.9186208378706E-02 
 3.8001747161568E+00  3.8001725603559E+00  3.8001660927853E+00  3.8001553129171E+00  3.8001402198590E+00  3.8001208123541E+00  3.8000970887805E+00  3.8000690471508E+00  3.8000366851133E+00  3.8000000000000E+00 