TITLE = "Solution on Domain BulkDomain1D_2"
VARIABLES = "x [m]"  
"Vel_axial" 	"MF_sp(ECDMC)" 	"MF_sp(Li+)" 	"MF_sp(PF6-)" 	"Volt(Electroly)" 	"Volt(CathodeVo)" 	"Temperature" 	
"Potential Drop Electrode-Electrolyte [V]" 	"Surf_0 Equilibrium Potential Drop Electrode-Electrolyte [V]" 	"Overpotential_0 [V]" 	"Current Source [A/m^2]" 	"Li+ flux [kmol/m^2/s]" 	"Electrolyte Current [A/m^2]" 	"Electrode Current [A/m^2]" 	
"Capacity discharged [A-s]" 	"Depth of discharge [-]" 	"Capacity remaining [A-s]" 	"Initial capacity [A-s]" 	"Porosity []" 	"Surface Area [m2/m2] (area per area)" 	"Specific current (per particle area) [A/m^2]" 	"Control volume thickness [m]" 	
"Moles LiCoO2 [mol/m^2] (per electrode area)" 	"Moles CoO2 [mol/m^2] (per electrode area)" 	"qHeat_accum [J/m3]" 	"qHeat_step [W/m3]" 	"Joule_Lyte [W/m3]" 	"Joule_Solid [W/m3]" 	"electrodHeat [W/m3]" 	"OverpotHeat [W/m3]" 	"deltaSHeat [W/m3]" 	

ZONE T = "t = 0 [s]" I = 10 SOLUTIONTIME = 0.0000000000000E+00
0.00127 	0 	0.92 	0.04 	0.04 	-0.07 	3.8 	298.15 	
0 	0 	0 	0 	0 	0.119132 	0 	
0 	0 	0 	0 	0.35 	6.604 	-0.0360787 	3.38667e-05 	
0.000900955 	0.000600637 	0 	0.0 	 0.0 	 0.0 	 0.0 	 0.0 	 0.0 	 
0.00133773 	0 	0.92 	0.04 	0.04 	-0.07 	3.8 	298.15 	
0 	0 	0 	0 	0 	0 	-0 	
0 	0 	0 	0 	0.35 	13.208 	-0.0360787 	6.77333e-05 	
0.00180191 	0.00120127 	0 	0.0 	 0.0 	 0.0 	 0.0 	 0.0 	 0.0 	 
0.00140547 	0 	0.92 	0.04 	0.04 	-0.07 	3.8 	298.15 	
0 	0 	0 	0 	0 	0 	-0 	
0 	0 	0 	0 	0.35 	13.208 	-0.0360787 	6.77333e-05 	
0.00180191 	0.00120127 	0 	0.0 	 0.0 	 0.0 	 0.0 	 0.0 	 0.0 	 
0.0014732 	0 	0.92 	0.04 	0.04 	-0.07 	3.8 	298.15 	
0 	0 	0 	0 	0 	0 	-0 	
0 	0 	0 	0 	0.35 	13.208 	-0.0360787 	6.77333e-05 	
0.00180191 	0.00120127 	0 	0.0 	 0.0 	 0.0 	 0.0 	 0.0 	 0.0 	 
0.00154093 	0 	0.92 	0.04 	0.04 	-0.07 	3.8 	298.15 	
0 	0 	0 	0 	0 	0 	-0 	
0 	0 	0 	0 	0.35 	13.208 	-0.0360787 	6.77333e-05 	
0.00180191 	0.00120127 	0 	0.0 	 0.0 	 0.0 	 0.0 	 0.0 	 0.0 	 
0.00160867 	0 	0.92 	0.04 	0.04 	-0.07 	3.8 	298.15 	
0 	0 	0 	0 	0 	0 	-0 	
0 	0 	0 	0 	0.35 	13.208 	-0.0360787 	6.77333e-05 	
0.00180191 	0.00120127 	0 	0.0 	 0.0 	 0.0 	 0.0 	 0.0 	 0.0 	 
0.0016764 	0 	0.92 	0.04 	0.04 	-0.07 	3.8 	298.15 	
0 	0 	0 	0 	0 	0 	-0 	
0 	0 	0 	0 	0.35 	13.208 	-0.0360787 	6.77333e-05 	
0.00180191 	0.00120127 	0 	0.0 	 0.0 	 0.0 	 0.0 	 0.0 	 0.0 	 
0.00174413 	0 	0.92 	0.04 	0.04 	-0.07 	3.8 	298.15 	
0 	0 	0 	0 	0 	0 	-0 	
0 	0 	0 	0 	0.35 	13.208 	-0.0360787 	6.77333e-05 	
0.00180191 	0.00120127 	0 	0.0 	 0.0 	 0.0 	 0.0 	 0.0 	 0.0 	 
0.00181187 	0 	0.92 	0.04 	0.04 	-0.07 	3.8 	298.15 	
0 	0 	0 	0 	0 	0 	-0 	
0 	0 	0 	0 	0.35 	13.208 	-0.0360787 	6.77333e-05 	
0.00180191 	0.00120127 	0 	0.0 	 0.0 	 0.0 	 0.0 	 0.0 	 0.0 	 
0.0018796 	0 	0.92 	0.04 	0.04 	-0.07 	3.8 	298.15 	
0 	0 	0 	0 	0 	0 	0.119132 	
0 	0 	0 	0 	0.35 	6.604 	-0.0360787 	3.38667e-05 	
0.000900955 	0.000600637 	0 	0.0 	 0.0 	 0.0 	 0.0 	 0.0 	 0.0 	 
ZONE T = "t = 1e-08 [s]" I = 10 SOLUTIONTIME = 1.0000000000000E-08
0.00127 	1.97079e-08 	0.92 	0.04 	0.04 	0.029171 	3.80017 	298.15 	
3.87 	3.97141 	-0.101414 	-0.238264 	-0 	29.2131 	0.833695 	
-0 	7244.08 	123.46 	141.616 	0.35 	6.604 	-0.252483 	3.38667e-05 	
0.000900955 	0.000600637 	0.00021716 	21716 	0.0867432 	0.0530523 	21715.9 	9867.07 	11848.8 	
0.00133773 	1.73918e-08 	0.92 	0.04 	0.04 	0.0291708 	3.80017 	298.15 	
3.87 	3.97141 	-0.101414 	-0.476527 	-0 	26.7119 	3.33484 	
-0 	14488.2 	246.919 	283.231 	0.35 	13.208 	-0.252493 	6.77333e-05 	
0.00180191 	0.00120127 	0.000217172 	21717.2 	0.0771488 	0.265274 	21716.8 	9867.54 	11849.3 	
0.00140547 	1.50753e-08 	0.92 	0.04 	0.04 	0.0291706 	3.80017 	298.15 	
3.87 	3.97141 	-0.101414 	-0.476527 	-0 	23.3768 	6.66995 	
-0 	14488.2 	246.919 	283.231 	0.35 	13.208 	-0.252524 	6.77333e-05 	
0.00180191 	0.00120127 	0.000217208 	21720.8 	0.0591568 	0.902006 	21719.8 	9869.06 	11850.7 	
0.0014732 	1.27584e-08 	0.92 	0.04 	0.04 	0.0291705 	3.80016 	298.15 	
3.87 	3.97141 	-0.101414 	-0.476527 	-0 	20.0412 	10.0056 	
-0 	14488.2 	246.919 	283.231 	0.35 	13.208 	-0.252576 	6.77333e-05 	
0.00180191 	0.00120127 	0.000217268 	21726.8 	0.0435585 	1.96346 	21724.8 	9871.62 	11853.2 	
0.00154093 	1.04416e-08 	0.92 	0.04 	0.04 	0.0291703 	3.80014 	298.15 	
3.87 	3.97141 	-0.101414 	-0.476527 	-0 	16.7047 	13.3421 	
-0 	14488.2 	246.919 	283.231 	0.35 	13.208 	-0.25265 	6.77333e-05 	
0.00180191 	0.00120127 	0.000217354 	21735.4 	0.0303541 	3.44999 	21731.9 	9875.23 	11856.6 	
0.00160867 	8.12314e-09 	0.92 	0.04 	0.04 	0.0291702 	3.80012 	298.15 	
3.87 	3.97141 	-0.101414 	-0.476527 	-0 	13.3671 	16.6797 	
-0 	14488.2 	246.919 	283.231 	0.35 	13.208 	-0.252745 	6.77333e-05 	
0.00180191 	0.00120127 	0.000217464 	21746.4 	0.0195444 	5.36209 	21741 	9879.89 	11861.1 	
0.0016764 	5.80362e-09 	0.92 	0.04 	0.04 	0.0291701 	3.8001 	298.15 	
3.87 	3.97141 	-0.101414 	-0.476527 	-0 	10.0281 	20.0187 	
-0 	14488.2 	246.919 	283.231 	0.35 	13.208 	-0.252861 	6.77333e-05 	
0.00180191 	0.00120127 	0.000217599 	21759.9 	0.0111312 	7.7004 	21752.2 	9885.61 	11866.6 	
0.00174413 	3.48284e-09 	0.92 	0.04 	0.04 	0.0291701 	3.80007 	298.15 	
3.87 	3.97141 	-0.101414 	-0.476527 	-0 	6.68741 	23.3594 	
-0 	14488.2 	246.919 	283.231 	0.35 	13.208 	-0.252999 	6.77333e-05 	
0.00180191 	0.00120127 	0.000217759 	21775.9 	0.0051173 	10.4657 	21765.4 	9892.37 	11873 	
0.00181187 	1.1606e-09 	0.92 	0.04 	0.04 	0.02917 	3.80004 	298.15 	
3.87 	3.97141 	-0.101414 	-0.476527 	-0 	3.34477 	26.702 	
-0 	14488.2 	246.919 	283.231 	0.35 	13.208 	-0.253158 	6.77333e-05 	
0.00180191 	0.00120127 	0.000217943 	21794.3 	0.00150597 	13.6589 	21780.7 	9900.18 	11880.5 	
0.0018796 	-1.45283e-12 	0.92 	0.04 	0.04 	0.02917 	3.8 	298.149 	
3.87 	3.97141 	-0.101414 	-0.238264 	-0 	0.836464 	29.2103 	
-0 	7244.08 	123.46 	141.616 	0.35 	6.604 	-0.253322 	3.38667e-05 	
0.000900955 	0.000600637 	0.00021812 	21812 	0.000301427 	15.3627 	21796.6 	9908.45 	11888.1 	
ZONE T = "t = 2e-08 [s]" I = 10 SOLUTIONTIME = 2.0000000000000E-08
0.00127 	1.9708e-08 	0.92 	0.04 	0.04 	0.0291764 	3.80017 	298.15 	
3.771 	3.97141 	-0.200411 	-1.6674 	1.47066e-07 	29.2162 	0.833787 	
4.179e-11 	7244.08 	123.46 	141.616 	0.35 	6.604 	-0.25251 	3.38667e-05 	
0.000900955 	0.000600637 	0.000434346 	21718.6 	0.0867618 	0.053064 	21718.4 	9868.36 	11850.1 	
0.00133773 	1.73916e-08 	0.92 	0.04 	0.04 	0.0291762 	3.80017 	298.15 	
3.771 	3.97141 	-0.200413 	-3.33493 	1.29784e-07 	26.7148 	3.33521 	
8.35833e-11 	14488.2 	246.919 	283.231 	0.35 	13.208 	-0.252519 	6.77333e-05 	
0.00180191 	0.00120127 	0.000434369 	21719.7 	0.0771653 	0.265332 	21719.4 	9868.84 	11850.5 	
0.00140547 	1.5076e-08 	0.92 	0.04 	0.04 	0.029176 	3.80017 	298.15 	
3.771 	3.97141 	-0.200419 	-3.33533 	1.125e-07 	23.3793 	6.67069 	
8.35935e-11 	14488.2 	246.919 	283.231 	0.35 	13.208 	-0.25255 	6.77333e-05 	
0.00180191 	0.00120127 	0.000434441 	21723.3 	0.0591694 	0.902206 	21722.3 	9870.35 	11852 	
0.0014732 	1.27596e-08 	0.92 	0.04 	0.04 	0.0291758 	3.80016 	298.15 	
3.77098 	3.97141 	-0.200429 	-3.33602 	9.52122e-08 	20.0433 	10.0067 	
8.36108e-11 	14488.2 	246.919 	283.231 	0.35 	13.208 	-0.252603 	6.77333e-05 	
0.00180191 	0.00120127 	0.000434562 	21729.4 	0.0435677 	1.9639 	21727.4 	9872.92 	11854.4 	
0.00154093 	1.04432e-08 	0.92 	0.04 	0.04 	0.0291757 	3.80014 	298.15 	
3.77097 	3.97141 	-0.200444 	-3.337 	7.79196e-08 	16.7064 	13.3436 	
8.36351e-11 	14488.2 	246.919 	283.231 	0.35 	13.208 	-0.252676 	6.77333e-05 	
0.00180191 	0.00120127 	0.000434733 	21737.9 	0.0303604 	3.45075 	21734.4 	9876.53 	11857.9 	
0.00160867 	8.12487e-09 	0.92 	0.04 	0.04 	0.0291756 	3.80012 	298.15 	
3.77095 	3.97141 	-0.200464 	-3.33825 	6.06204e-08 	13.3685 	16.6816 	
8.36666e-11 	14488.2 	246.919 	283.231 	0.35 	13.208 	-0.252771 	6.77333e-05 	
0.00180191 	0.00120127 	0.000434953 	21748.9 	0.0195484 	5.36328 	21743.5 	9881.19 	11862.3 	
0.0016764 	5.80546e-09 	0.92 	0.04 	0.04 	0.0291755 	3.8001 	298.15 	
3.77093 	3.97141 	-0.200487 	-3.33979 	4.33133e-08 	10.0291 	20.0209 	
8.37051e-11 	14488.2 	246.919 	283.231 	0.35 	13.208 	-0.252887 	6.77333e-05 	
0.00180191 	0.00120127 	0.000435223 	21762.4 	0.0111335 	7.70211 	21754.7 	9886.91 	11867.8 	
0.00174413 	3.48478e-09 	0.92 	0.04 	0.04 	0.0291755 	3.80007 	298.15 	
3.7709 	3.97141 	-0.200515 	-3.34161 	2.59968e-08 	6.68804 	23.362 	
8.37507e-11 	14488.2 	246.919 	283.231 	0.35 	13.208 	-0.253025 	6.77333e-05 	
0.00180191 	0.00120127 	0.000435543 	21778.4 	0.00511828 	10.468 	21767.9 	9893.68 	11874.3 	
0.00181187 	1.16229e-09 	0.92 	0.04 	0.04 	0.0291754 	3.80004 	298.15 	
3.77087 	3.97141 	-0.200548 	-3.34371 	8.66933e-09 	3.34503 	26.705 	
8.38033e-11 	14488.2 	246.919 	283.231 	0.35 	13.208 	-0.253184 	6.77333e-05 	
0.00180191 	0.00120127 	0.000435912 	21796.8 	0.00150622 	13.662 	21783.2 	9901.47 	11881.7 	
0.0018796 	3.63208e-13 	0.92 	0.04 	0.04 	0.0291754 	3.8 	298.148 	
3.77083 	3.97141 	-0.200585 	-1.67294 	8.66933e-09 	0.836504 	29.2135 	
4.19288e-11 	7244.08 	123.46 	141.616 	0.35 	6.604 	-0.253332 	3.38667e-05 	
0.000900955 	0.000600637 	0.000436251 	21813.1 	0.000301456 	15.3661 	21797.8 	9909.16 	11888.6 	
ZONE T = "t = 3e-08 [s]" I = 10 SOLUTIONTIME = 3.0000000000000E-08
0.00127 	1.97142e-08 	0.92 	0.04 	0.04 	0.0291818 	3.80017 	298.15 	
3.771 	3.97141 	-0.200416 	-1.66757 	1.47082e-07 	29.2192 	0.833874 	
8.35844e-11 	7244.08 	123.46 	141.616 	0.35 	6.604 	-0.252536 	3.38667e-05 	
0.000900955 	0.000600637 	0.000651557 	21721.1 	0.0867793 	0.0530751 	21721 	9869.66 	11851.3 	
0.00133773 	1.73983e-08 	0.92 	0.04 	0.04 	0.0291816 	3.80017 	298.15 	
3.771 	3.97141 	-0.200418 	-3.33528 	1.29798e-07 	26.7175 	3.33556 	
1.67175e-10 	14488.2 	246.919 	283.231 	0.35 	13.208 	-0.252546 	6.77333e-05 	
0.00180191 	0.00120127 	0.000651591 	21722.3 	0.0771808 	0.265388 	21721.9 	9870.14 	11851.8 	
0.00140547 	1.50821e-08 	0.92 	0.04 	0.04 	0.0291814 	3.80017 	298.15 	
3.77099 	3.97141 	-0.200424 	-3.33568 	1.12512e-07 	23.3817 	6.67139 	
1.67196e-10 	14488.2 	246.919 	283.231 	0.35 	13.208 	-0.252577 	6.77333e-05 	
0.00180191 	0.00120127 	0.000651699 	21725.8 	0.0591813 	0.902396 	21724.9 	9871.66 	11853.2 	
0.0014732 	1.27647e-08 	0.92 	0.04 	0.04 	0.0291812 	3.80016 	298.15 	
3.77098 	3.97141 	-0.200435 	-3.33637 	9.52222e-08 	20.0453 	10.0078 	
1.6723e-10 	14488.2 	246.919 	283.231 	0.35 	13.208 	-0.252629 	6.77333e-05 	
0.00180191 	0.00120127 	0.000651881 	21731.9 	0.0435764 	1.96431 	21729.9 	9874.22 	11855.7 	
0.00154093 	1.04473e-08 	0.92 	0.04 	0.04 	0.0291811 	3.80014 	298.15 	
3.77096 	3.97141 	-0.20045 	-3.33735 	7.79277e-08 	16.7081 	13.345 	
1.67279e-10 	14488.2 	246.919 	283.231 	0.35 	13.208 	-0.252703 	6.77333e-05 	
0.00180191 	0.00120127 	0.000652137 	21740.5 	0.0303664 	3.45148 	21737 	9877.83 	11859.1 	
0.00160867 	8.12801e-09 	0.92 	0.04 	0.04 	0.029181 	3.80012 	298.15 	
3.77095 	3.97141 	-0.200469 	-3.3386 	6.06266e-08 	13.3697 	16.6833 	
1.67342e-10 	14488.2 	246.919 	283.231 	0.35 	13.208 	-0.252798 	6.77333e-05 	
0.00180191 	0.00120127 	0.000652468 	21751.5 	0.0195522 	5.36441 	21746.1 	9882.5 	11863.6 	
0.0016764 	5.80835e-09 	0.92 	0.04 	0.04 	0.0291809 	3.8001 	298.15 	
3.77092 	3.97141 	-0.200493 	-3.34014 	4.33175e-08 	10.03 	20.023 	
1.67419e-10 	14488.2 	246.919 	283.231 	0.35 	13.208 	-0.252914 	6.77333e-05 	
0.00180191 	0.00120127 	0.000652873 	21765 	0.0111356 	7.70373 	21757.3 	9888.21 	11869.1 	
0.00174413 	3.48743e-09 	0.92 	0.04 	0.04 	0.0291809 	3.80007 	298.15 	
3.77089 	3.97141 	-0.200521 	-3.34196 	2.59991e-08 	6.68862 	23.3644 	
1.6751e-10 	14488.2 	246.919 	283.231 	0.35 	13.208 	-0.253052 	6.77333e-05 	
0.00180191 	0.00120127 	0.000653353 	21781 	0.00511919 	10.4702 	21770.5 	9894.98 	11875.5 	
0.00181187 	1.16543e-09 	0.92 	0.04 	0.04 	0.0291808 	3.80004 	298.15 	
3.77086 	3.97141 	-0.200553 	-3.34405 	8.66975e-09 	3.34528 	26.7078 	
1.67615e-10 	14488.2 	246.919 	283.231 	0.35 	13.208 	-0.253209 	6.77333e-05 	
0.00180191 	0.00120127 	0.000653905 	21799.3 	0.00150646 	13.6648 	21785.6 	9902.74 	11882.9 	
0.0018796 	3.81368e-12 	0.92 	0.04 	0.04 	0.0291808 	3.8 	298.148 	
3.77082 	3.97142 	-0.200591 	-1.67301 	8.66975e-09 	0.836541 	29.2165 	
8.38594e-11 	7244.08 	123.46 	141.616 	0.35 	6.604 	-0.253344 	3.38667e-05 	
0.000900955 	0.000600637 	0.000654394 	21814.3 	0.000301482 	15.3693 	21799 	9909.89 	11889.1 	
ZONE T = "t = 4e-08 [s]" I = 10 SOLUTIONTIME = 4.0000000000000E-08
0.00127 	1.97115e-08 	0.92 	0.04 	0.04 	0.0291872 	3.80017 	298.15 	
3.77099 	3.97141 	-0.200421 	-1.66775 	1.47097e-07 	29.2221 	0.833962 	
1.25383e-10 	7244.08 	123.46 	141.616 	0.35 	6.604 	-0.252563 	3.38667e-05 	
0.000900955 	0.000600637 	0.000868794 	21723.7 	0.0867969 	0.0530863 	21723.5 	9870.96 	11852.6 	
0.00133773 	1.73946e-08 	0.92 	0.04 	0.04 	0.029187 	3.80017 	298.15 	
3.77099 	3.97141 	-0.200423 	-3.33563 	1.29811e-07 	26.7202 	3.33591 	
2.50776e-10 	14488.2 	246.919 	283.231 	0.35 	13.208 	-0.252573 	6.77333e-05 	
0.00180191 	0.00120127 	0.000868839 	21724.8 	0.0771965 	0.265444 	21724.5 	9871.44 	11853 	
0.00140547 	1.50774e-08 	0.92 	0.04 	0.04 	0.0291868 	3.80017 	298.15 	
3.77098 	3.97141 	-0.20043 	-3.33604 	1.12523e-07 	23.384 	6.67209 	
2.50807e-10 	14488.2 	246.919 	283.231 	0.35 	13.208 	-0.252603 	6.77333e-05 	
0.00180191 	0.00120127 	0.000868983 	21728.4 	0.0591932 	0.902586 	21727.4 	9872.96 	11854.5 	
0.0014732 	1.27605e-08 	0.92 	0.04 	0.04 	0.0291866 	3.80016 	298.15 	
3.77097 	3.97141 	-0.20044 	-3.33673 	9.52317e-08 	20.0473 	10.0088 	
2.50859e-10 	14488.2 	246.919 	283.231 	0.35 	13.208 	-0.252656 	6.77333e-05 	
0.00180191 	0.00120127 	0.000869225 	21734.5 	0.0435851 	1.96472 	21732.5 	9875.53 	11856.9 	
0.00154093 	1.04429e-08 	0.92 	0.04 	0.04 	0.0291865 	3.80014 	298.15 	
3.77096 	3.97141 	-0.200455 	-3.3377 	7.79353e-08 	16.7097 	13.3464 	
2.50932e-10 	14488.2 	246.919 	283.231 	0.35 	13.208 	-0.252729 	6.77333e-05 	
0.00180191 	0.00120127 	0.000869567 	21743 	0.0303724 	3.45221 	21739.5 	9879.14 	11860.4 	
0.00160867 	8.12479e-09 	0.92 	0.04 	0.04 	0.0291864 	3.80012 	298.15 	
3.77094 	3.97141 	-0.200474 	-3.33895 	6.06324e-08 	13.371 	16.6851 	
2.51026e-10 	14488.2 	246.919 	283.231 	0.35 	13.208 	-0.252824 	6.77333e-05 	
0.00180191 	0.00120127 	0.000870008 	21754 	0.019556 	5.36553 	21748.6 	9883.81 	11864.8 	
0.0016764 	5.80416e-09 	0.92 	0.04 	0.04 	0.0291863 	3.8001 	298.15 	
3.77092 	3.97141 	-0.200498 	-3.34049 	4.33215e-08 	10.031 	20.0251 	
2.51142e-10 	14488.2 	246.919 	283.231 	0.35 	13.208 	-0.252941 	6.77333e-05 	
0.00180191 	0.00120127 	0.000870548 	21767.5 	0.0111377 	7.70535 	21759.8 	9889.52 	11870.3 	
0.00174413 	3.48263e-09 	0.92 	0.04 	0.04 	0.0291863 	3.80007 	298.15 	
3.77089 	3.97141 	-0.200526 	-3.34231 	2.60012e-08 	6.68922 	23.3669 	
2.51278e-10 	14488.2 	246.919 	283.231 	0.35 	13.208 	-0.253079 	6.77333e-05 	
0.00180191 	0.00120127 	0.000871188 	21783.5 	0.0051201 	10.4724 	21773.1 	9896.29 	11876.8 	
0.00181187 	1.1604e-09 	0.92 	0.04 	0.04 	0.0291862 	3.80004 	298.15 	
3.77086 	3.97141 	-0.200558 	-3.34439 	8.67013e-09 	3.34552 	26.7106 	
2.51436e-10 	14488.2 	246.919 	283.231 	0.35 	13.208 	-0.253235 	6.77333e-05 	
0.00180191 	0.00120127 	0.000871922 	21801.8 	0.0015067 	13.6677 	21788.1 	9904 	11884.1 	
0.0018796 	-1.63443e-12 	0.92 	0.04 	0.04 	0.0291862 	3.8 	298.147 	
3.77082 	3.97142 	-0.200597 	-1.67308 	8.67013e-09 	0.83658 	29.2195 	
1.25792e-10 	7244.08 	123.46 	141.616 	0.35 	6.604 	-0.253356 	3.38667e-05 	
0.000900955 	0.000600637 	0.000872551 	21815.6 	0.00030151 	15.3725 	21800.3 	9910.66 	11889.6 	
ZONE T = "t = 5.5e-08 [s]" I = 10 SOLUTIONTIME = 5.5000000000000E-08
0.00127 	1.9716e-08 	0.92 	0.04 	0.04 	0.0291953 	3.80017 	298.15 	
3.77099 	3.97141 	-0.200427 	-1.66792 	1.47112e-07 	29.2266 	0.834093 	
1.67186e-10 	7244.08 	123.46 	141.616 	0.35 	6.604 	-0.252602 	3.38667e-05 	
0.000900955 	0.000600637 	0.00119471 	21727.5 	0.0868233 	0.053103 	21727.3 	9872.91 	11854.4 	
0.00133773 	1.73992e-08 	0.92 	0.04 	0.04 	0.0291951 	3.80017 	298.15 	
3.77099 	3.97141 	-0.200429 	-3.33598 	1.29824e-07 	26.7242 	3.33644 	
3.34386e-10 	14488.2 	246.919 	283.231 	0.35 	13.208 	-0.252612 	6.77333e-05 	
0.00180191 	0.00120127 	0.00119477 	21728.6 	0.0772199 	0.265528 	21728.3 	9873.4 	11854.9 	
0.00140547 	1.50815e-08 	0.92 	0.04 	0.04 	0.0291949 	3.80017 	298.15 	
3.77098 	3.97141 	-0.200435 	-3.33639 	1.12534e-07 	23.3875 	6.67315 	
3.34427e-10 	14488.2 	246.919 	283.231 	0.35 	13.208 	-0.252643 	6.77333e-05 	
0.00180191 	0.00120127 	0.00119497 	21732.2 	0.0592111 	0.902871 	21731.3 	9874.92 	11856.3 	
0.0014732 	1.27636e-08 	0.92 	0.04 	0.04 	0.0291948 	3.80016 	298.15 	
3.77097 	3.97141 	-0.200446 	-3.33708 	9.52411e-08 	20.0503 	10.0104 	
3.34496e-10 	14488.2 	246.919 	283.231 	0.35 	13.208 	-0.252696 	6.77333e-05 	
0.00180191 	0.00120127 	0.0011953 	21738.3 	0.0435982 	1.96534 	21736.3 	9877.49 	11858.8 	
0.00154093 	1.0445e-08 	0.92 	0.04 	0.04 	0.0291946 	3.80014 	298.15 	
3.77095 	3.97141 	-0.200461 	-3.33805 	7.79429e-08 	16.7122 	13.3485 	
3.34593e-10 	14488.2 	246.919 	283.231 	0.35 	13.208 	-0.252769 	6.77333e-05 	
0.00180191 	0.00120127 	0.00119577 	21746.8 	0.0303814 	3.4533 	21743.4 	9881.1 	11862.3 	
0.00160867 	8.12559e-09 	0.92 	0.04 	0.04 	0.0291945 	3.80012 	298.15 	
3.77093 	3.97141 	-0.20048 	-3.3393 	6.06382e-08 	13.373 	16.6877 	
3.34719e-10 	14488.2 	246.919 	283.231 	0.35 	13.208 	-0.252864 	6.77333e-05 	
0.00180191 	0.00120127 	0.00119638 	21757.9 	0.0195617 	5.36723 	21752.5 	9885.77 	11866.7 	
0.0016764 	5.80557e-09 	0.92 	0.04 	0.04 	0.0291944 	3.8001 	298.15 	
3.77091 	3.97141 	-0.200503 	-3.34084 	4.33255e-08 	10.0324 	20.0283 	
3.34873e-10 	14488.2 	246.919 	283.231 	0.35 	13.208 	-0.252981 	6.77333e-05 	
0.00180191 	0.00120127 	0.00119712 	21771.4 	0.0111408 	7.70779 	21763.7 	9891.49 	11872.2 	
0.00174413 	3.48452e-09 	0.92 	0.04 	0.04 	0.0291944 	3.80007 	298.15 	
3.77088 	3.97141 	-0.200531 	-3.34266 	2.60034e-08 	6.69011 	23.3706 	
3.35056e-10 	14488.2 	246.919 	283.231 	0.35 	13.208 	-0.253118 	6.77333e-05 	
0.00180191 	0.00120127 	0.001198 	21787.4 	0.00512148 	10.4758 	21776.9 	9898.25 	11878.6 	
0.00181187 	1.16134e-09 	0.92 	0.04 	0.04 	0.0291943 	3.80004 	298.15 	
3.77085 	3.97141 	-0.200564 	-3.34473 	8.67054e-09 	3.3459 	26.7148 	
3.35264e-10 	14488.2 	246.919 	283.231 	0.35 	13.208 	-0.253273 	6.77333e-05 	
0.00180191 	0.00120127 	0.001199 	21805.4 	0.00150706 	13.672 	21791.7 	9905.89 	11885.9 	
0.0018796 	-4.84277e-13 	0.92 	0.04 	0.04 	0.0291943 	3.8 	298.146 	
3.77081 	3.97142 	-0.200603 	-1.67316 	8.67054e-09 	0.836644 	29.224 	
1.67726e-10 	7244.08 	123.46 	141.616 	0.35 	6.604 	-0.253375 	3.38667e-05 	
0.000900955 	0.000600637 	0.00119982 	21817.7 	0.000301556 	15.3773 	21802.3 	9911.86 	11890.5 	
ZONE T = "t = 7.75e-08 [s]" I = 10 SOLUTIONTIME = 7.7500000000000E-08
0.00127 	1.97201e-08 	0.92 	0.04 	0.04 	0.0292075 	3.80017 	298.15 	
3.77098 	3.97141 	-0.200435 	-1.66819 	1.47134e-07 	29.2333 	0.83429 	
2.29901e-10 	7244.08 	123.46 	141.616 	0.35 	6.604 	-0.252662 	3.38667e-05 	
0.000900955 	0.000600637 	0.0016837 	21733.2 	0.086863 	0.0531281 	21733.1 	9875.84 	11857.2 	
0.00133773 	1.74027e-08 	0.92 	0.04 	0.04 	0.0292073 	3.80017 	298.15 	
3.77098 	3.97141 	-0.200437 	-3.3365 	1.29844e-07 	26.7303 	3.33723 	
4.5982e-10 	14488.2 	246.919 	283.231 	0.35 	13.208 	-0.252672 	6.77333e-05 	
0.00180191 	0.00120127 	0.00168379 	21734.4 	0.0772551 	0.265653 	21734 	9876.34 	11857.7 	
0.00140547 	1.50853e-08 	0.92 	0.04 	0.04 	0.0292071 	3.80017 	298.15 	
3.77097 	3.97141 	-0.200443 	-3.33691 	1.12551e-07 	23.3928 	6.67473 	
4.59876e-10 	14488.2 	246.919 	283.231 	0.35 	13.208 	-0.252703 	6.77333e-05 	
0.00180191 	0.00120127 	0.00168407 	21738 	0.0592379 	0.903299 	21737 	9877.86 	11859.2 	
0.0014732 	1.27672e-08 	0.92 	0.04 	0.04 	0.0292069 	3.80016 	298.15 	
3.77096 	3.97141 	-0.200454 	-3.3376 	9.52553e-08 	20.0548 	10.0128 	
4.59971e-10 	14488.2 	246.919 	283.231 	0.35 	13.208 	-0.252756 	6.77333e-05 	
0.00180191 	0.00120127 	0.00168454 	21744.1 	0.0436178 	1.96627 	21742 	9880.43 	11861.6 	
0.00154093 	1.04485e-08 	0.92 	0.04 	0.04 	0.0292068 	3.80014 	298.15 	
3.77095 	3.97141 	-0.200469 	-3.33858 	7.79543e-08 	16.7159 	13.3517 	
4.60105e-10 	14488.2 	246.919 	283.231 	0.35 	13.208 	-0.252829 	6.77333e-05 	
0.00180191 	0.00120127 	0.0016852 	21752.6 	0.0303949 	3.45493 	21749.1 	9884.05 	11865.1 	
0.00160867 	8.12892e-09 	0.92 	0.04 	0.04 	0.0292067 	3.80012 	298.15 	
3.77093 	3.97141 	-0.200488 	-3.33983 	6.06469e-08 	13.3759 	16.6917 	
4.60278e-10 	14488.2 	246.919 	283.231 	0.35 	13.208 	-0.252924 	6.77333e-05 	
0.00180191 	0.00120127 	0.00168606 	21763.6 	0.0195702 	5.36978 	21758.3 	9888.71 	11869.5 	
0.0016764 	5.80827e-09 	0.92 	0.04 	0.04 	0.0292066 	3.8001 	298.15 	
3.7709 	3.97141 	-0.200512 	-3.34137 	4.33315e-08 	10.0345 	20.0331 	
4.6049e-10 	14488.2 	246.919 	283.231 	0.35 	13.208 	-0.253041 	6.77333e-05 	
0.00180191 	0.00120127 	0.00168711 	21777.2 	0.0111456 	7.71144 	21769.4 	9894.44 	11875 	
0.00174413 	3.48603e-09 	0.92 	0.04 	0.04 	0.0292066 	3.80007 	298.15 	
3.77087 	3.97141 	-0.20054 	-3.34319 	2.60066e-08 	6.69145 	23.3761 	
4.60741e-10 	14488.2 	246.919 	283.231 	0.35 	13.208 	-0.253178 	6.77333e-05 	
0.00180191 	0.00120127 	0.00168834 	21793.1 	0.00512355 	10.4807 	21782.6 	9901.19 	11881.4 	
0.00181187 	1.16257e-09 	0.92 	0.04 	0.04 	0.0292065 	3.80004 	298.15 	
3.77084 	3.97141 	-0.200572 	-3.34522 	8.67121e-09 	3.34648 	26.7211 	
4.61026e-10 	14488.2 	246.919 	283.231 	0.35 	13.208 	-0.253328 	6.77333e-05 	
0.00180191 	0.00120127 	0.00168975 	21810.8 	0.0015076 	13.6785 	21797.1 	9908.67 	11888.5 	
0.0018796 	4.84277e-13 	0.92 	0.04 	0.04 	0.0292065 	3.8 	298.144 	
3.77081 	3.97142 	-0.200612 	-1.67329 	8.67121e-09 	0.836749 	29.2308 	
2.30633e-10 	7244.08 	123.46 	141.616 	0.35 	6.604 	-0.253407 	3.38667e-05 	
0.000900955 	0.000600637 	0.00169079 	21821 	0.000301631 	15.3846 	21805.6 	9913.76 	11891.9 	
ZONE T = "t = 1.1125e-07 [s]" I = 10 SOLUTIONTIME = 1.1125000000000E-07
0.00127 	1.97275e-08 	0.92 	0.04 	0.04 	0.0292257 	3.80017 	298.15 	
3.77097 	3.97141 	-0.200447 	-1.66858 	1.47168e-07 	29.2433 	0.834586 	
3.23995e-10 	7244.08 	123.46 	141.616 	0.35 	6.604 	-0.252752 	3.38667e-05 	
0.000900955 	0.000600637 	0.00241749 	21741.8 	0.0869225 	0.0531658 	21741.7 	9880.24 	11861.4 	
0.00133773 	1.74092e-08 	0.92 	0.04 	0.04 	0.0292255 	3.80017 	298.15 	
3.77097 	3.97141 	-0.200449 	-3.3373 	1.29873e-07 	26.7395 	3.33841 	
6.48016e-10 	14488.2 	246.919 	283.231 	0.35 	13.208 	-0.252762 	6.77333e-05 	
0.00180191 	0.00120127 	0.00241762 	21743 	0.077308 	0.265842 	21742.7 	9880.74 	11861.9 	
0.00140547 	1.50906e-08 	0.92 	0.04 	0.04 	0.0292253 	3.80017 	298.15 	
3.77096 	3.97141 	-0.200455 	-3.33771 	1.12577e-07 	23.4008 	6.6771 	
6.48095e-10 	14488.2 	246.919 	283.231 	0.35 	13.208 	-0.252793 	6.77333e-05 	
0.00180191 	0.00120127 	0.00241802 	21746.6 	0.0592782 	0.90394 	21745.6 	9882.27 	11863.4 	
0.0014732 	1.27716e-08 	0.92 	0.04 	0.04 	0.0292252 	3.80016 	298.15 	
3.77095 	3.97141 	-0.200466 	-3.3384 	9.52766e-08 	20.0616 	10.0163 	
6.48229e-10 	14488.2 	246.919 	283.231 	0.35 	13.208 	-0.252845 	6.77333e-05 	
0.00180191 	0.00120127 	0.00241869 	21752.7 	0.0436472 	1.96767 	21750.7 	9884.84 	11865.8 	
0.00154093 	1.04519e-08 	0.92 	0.04 	0.04 	0.0292251 	3.80014 	298.15 	
3.77093 	3.97141 	-0.200481 	-3.33937 	7.79716e-08 	16.7215 	13.3564 	
6.48418e-10 	14488.2 	246.919 	283.231 	0.35 	13.208 	-0.252919 	6.77333e-05 	
0.00180191 	0.00120127 	0.00241965 	21761.2 	0.0304152 	3.45739 	21757.8 	9888.46 	11869.3 	
0.00160867 	8.13123e-09 	0.92 	0.04 	0.04 	0.0292249 	3.80012 	298.15 	
3.77091 	3.97141 	-0.2005 	-3.34063 	6.066e-08 	13.3803 	16.6976 	
6.48662e-10 	14488.2 	246.919 	283.231 	0.35 	13.208 	-0.253014 	6.77333e-05 	
0.00180191 	0.00120127 	0.00242087 	21772.3 	0.0195831 	5.37359 	21766.9 	9893.13 	11873.8 	
0.0016764 	5.80948e-09 	0.92 	0.04 	0.04 	0.0292249 	3.8001 	298.15 	
3.77089 	3.97141 	-0.200524 	-3.34216 	4.33404e-08 	10.0377 	20.0402 	
6.48961e-10 	14488.2 	246.919 	283.231 	0.35 	13.208 	-0.253131 	6.77333e-05 	
0.00180191 	0.00120127 	0.00242238 	21785.8 	0.0111527 	7.71693 	21778.1 	9898.85 	11879.2 	
0.00174413 	3.48659e-09 	0.92 	0.04 	0.04 	0.0292248 	3.80007 	298.15 	
3.77086 	3.97141 	-0.200552 	-3.34398 	2.60115e-08 	6.69346 	23.3844 	
6.49314e-10 	14488.2 	246.919 	283.231 	0.35 	13.208 	-0.253267 	6.77333e-05 	
0.00180191 	0.00120127 	0.00242415 	21801.7 	0.00512667 	10.4882 	21791.2 	9905.57 	11885.6 	
0.00181187 	1.16238e-09 	0.92 	0.04 	0.04 	0.0292248 	3.80004 	298.149 	
3.77083 	3.97141 	-0.200584 	-3.34596 	8.6723e-09 	3.34737 	26.7305 	
6.49711e-10 	14488.2 	246.919 	283.231 	0.35 	13.208 	-0.25341 	6.77333e-05 	
0.00180191 	0.00120127 	0.00242613 	21818.8 	0.00150844 	13.6881 	21805.1 	9912.79 	11892.3 	
0.0018796 	5.69756e-23 	0.92 	0.04 	0.04 	0.0292248 	3.8 	298.143 	
3.77079 	3.97142 	-0.200625 	-1.6735 	8.6723e-09 	0.836923 	29.241 	
3.25004e-10 	7244.08 	123.46 	141.616 	0.35 	6.604 	-0.253459 	3.38667e-05 	
0.000900955 	0.000600637 	0.00242743 	21826.5 	0.000301755 	15.3954 	21811.1 	9916.8 	11894.3 	
ZONE T = "t = 1.61875e-07 [s]" I = 10 SOLUTIONTIME = 1.6187500000000E-07
0.00127 	1.97374e-08 	0.92 	0.04 	0.04 	0.029253 	3.80017 	298.15 	
3.77095 	3.97141 	-0.200465 	-1.66917 	1.47219e-07 	29.2583 	0.835028 	
4.65186e-10 	7244.08 	123.46 	141.616 	0.35 	6.604 	-0.252885 	3.38667e-05 	
0.000900955 	0.000600637 	0.00351882 	21754.7 	0.0870116 	0.053222 	21754.5 	9886.81 	11867.7 	
0.00133773 	1.74179e-08 	0.92 	0.04 	0.04 	0.0292528 	3.80017 	298.15 	
3.77095 	3.97141 	-0.200467 	-3.33848 	1.29917e-07 	26.7531 	3.34018 	
9.3041e-10 	14488.2 	246.919 	283.231 	0.35 	13.208 	-0.252896 	6.77333e-05 	
0.00180191 	0.00120127 	0.00351901 	21755.9 	0.077387 	0.266124 	21755.5 	9887.32 	11868.2 	
0.00140547 	1.50981e-08 	0.92 	0.04 	0.04 	0.0292526 	3.80017 	298.15 	
3.77094 	3.97141 	-0.200473 	-3.33889 	1.12615e-07 	23.4127 	6.68064 	
9.30524e-10 	14488.2 	246.919 	283.231 	0.35 	13.208 	-0.252927 	6.77333e-05 	
0.00180191 	0.00120127 	0.00351959 	21759.5 	0.0593385 	0.904899 	21758.5 	9888.85 	11869.7 	
0.0014732 	1.27779e-08 	0.92 	0.04 	0.04 	0.0292524 	3.80016 	298.15 	
3.77093 	3.97141 	-0.200484 	-3.33958 	9.53086e-08 	20.0717 	10.0217 	
9.30717e-10 	14488.2 	246.919 	283.231 	0.35 	13.208 	-0.25298 	6.77333e-05 	
0.00180191 	0.00120127 	0.00352058 	21765.6 	0.0436913 	1.96976 	21763.6 	9891.43 	11872.1 	
0.00154093 	1.0457e-08 	0.92 	0.04 	0.04 	0.0292523 	3.80014 	298.15 	
3.77092 	3.97141 	-0.200499 	-3.34056 	7.79974e-08 	16.7298 	13.3635 	
9.30988e-10 	14488.2 	246.919 	283.231 	0.35 	13.208 	-0.253054 	6.77333e-05 	
0.00180191 	0.00120127 	0.00352196 	21774.1 	0.0304456 	3.46106 	21770.7 	9895.05 	11875.6 	
0.00160867 	8.13516e-09 	0.92 	0.04 	0.04 	0.0292522 	3.80012 	298.15 	
3.7709 	3.97141 	-0.200518 	-3.34181 	6.06796e-08 	13.3869 	16.7065 	
9.31338e-10 	14488.2 	246.919 	283.231 	0.35 	13.208 	-0.253149 	6.77333e-05 	
0.00180191 	0.00120127 	0.00352375 	21785.2 	0.0196023 	5.3793 	21779.8 	9899.73 	11880.1 	
0.0016764 	5.81235e-09 	0.92 	0.04 	0.04 	0.0292521 	3.8001 	298.15 	
3.77087 	3.97141 	-0.200542 	-3.34335 	4.33539e-08 	10.0425 	20.0508 	
9.31767e-10 	14488.2 	246.919 	283.231 	0.35 	13.208 	-0.253265 	6.77333e-05 	
0.00180191 	0.00120127 	0.00352594 	21798.7 	0.0111634 	7.72512 	21791 	9905.44 	11885.5 	
0.00174413 	3.48825e-09 	0.92 	0.04 	0.04 	0.0292521 	3.80007 	298.15 	
3.77084 	3.97141 	-0.20057 	-3.34515 	2.60189e-08 	6.6965 	23.3968 	
9.32272e-10 	14488.2 	246.919 	283.231 	0.35 	13.208 	-0.253399 	6.77333e-05 	
0.00180191 	0.00120127 	0.00352851 	21814.4 	0.00513136 	10.4993 	21803.9 	9912.09 	11891.8 	
0.00181187 	1.16266e-09 	0.92 	0.04 	0.04 	0.029252 	3.80004 	298.148 	
3.77081 	3.97141 	-0.200603 	-3.34704 	8.6741e-09 	3.34873 	26.7446 	
9.32829e-10 	14488.2 	246.919 	283.231 	0.35 	13.208 	-0.25353 	6.77333e-05 	
0.00180191 	0.00120127 	0.0035313 	21830.4 	0.00150971 	13.7025 	21816.7 	9918.86 	11897.9 	
0.0018796 	-3.58724e-14 	0.92 	0.04 	0.04 	0.029252 	3.8 	298.14 	
3.77078 	3.97142 	-0.200645 	-1.67385 	8.6741e-09 	0.837211 	29.2561 	
4.66591e-10 	7244.08 	123.46 	141.616 	0.35 	6.604 	-0.253547 	3.38667e-05 	
0.000900955 	0.000600637 	0.00353284 	21835.3 	0.000301961 	15.4115 	21819.9 	9921.65 	11898.2 	
ZONE T = "t = 2.37813e-07 [s]" I = 10 SOLUTIONTIME = 2.3781250000000E-07
0.00127 	1.97525e-08 	0.92 	0.04 	0.04 	0.0292935 	3.80018 	298.15 	
3.77092 	3.97141 	-0.200492 	-1.67006 	1.47295e-07 	29.2806 	0.835684 	
6.77085e-10 	7244.08 	123.46 	141.616 	0.35 	6.604 	-0.253084 	3.38667e-05 	
0.000900955 	0.000600637 	0.00517226 	21773.8 	0.0871441 	0.0533058 	21773.6 	9896.58 	11877 	
0.00133773 	1.74312e-08 	0.92 	0.04 	0.04 	0.0292933 	3.80017 	298.15 	
3.77092 	3.97141 	-0.200494 	-3.34025 	1.29984e-07 	26.7735 	3.34281 	
1.35423e-09 	14488.2 	246.919 	283.231 	0.35 	13.208 	-0.253096 	6.77333e-05 	
0.00180191 	0.00120127 	0.00517255 	21775 	0.0775046 	0.266543 	21774.7 	9897.11 	11877.6 	
0.00140547 	1.51096e-08 	0.92 	0.04 	0.04 	0.0292931 	3.80017 	298.15 	
3.77091 	3.97141 	-0.200501 	-3.34066 	1.12672e-07 	23.4304 	6.68591 	
1.35439e-09 	14488.2 	246.919 	283.231 	0.35 	13.208 	-0.253127 	6.77333e-05 	
0.00180191 	0.00120127 	0.00517341 	21778.7 	0.0594282 	0.906327 	21777.7 	9898.65 	11879 	
0.0014732 	1.27874e-08 	0.92 	0.04 	0.04 	0.029293 	3.80016 	298.15 	
3.7709 	3.97141 	-0.200511 	-3.34136 	9.53564e-08 	20.0867 	10.0296 	
1.35467e-09 	14488.2 	246.919 	283.231 	0.35 	13.208 	-0.25318 	6.77333e-05 	
0.00180191 	0.00120127 	0.00517486 	21784.8 	0.0437568 	1.97287 	21782.7 	9901.23 	11881.5 	
0.00154093 	1.04646e-08 	0.92 	0.04 	0.04 	0.0292928 	3.80014 	298.15 	
3.77089 	3.97141 	-0.200526 	-3.34233 	7.8036e-08 	16.7422 	13.374 	
1.35507e-09 	14488.2 	246.919 	283.231 	0.35 	13.208 	-0.253253 	6.77333e-05 	
0.00180191 	0.00120127 	0.00517689 	21793.3 	0.0304908 	3.46652 	21789.8 	9904.86 	11885 	