TITLE = "Solution on Domain BulkDomain1D_1"
VARIABLES = "x [m]"  
"Vel_axial" 	"MF_sp(ECDMC)" 	"MF_sp(Li+)" 	"MF_sp(PF6-)" 	"Volt(Electroly)" 	"Temperature" 	"Porosity []" 	"Control volume thickness [m]" 	"volFrac MgO(S) []" 	"qHeat_accum [J/m3]" 	"qHeat_step [W/m3]" 	"Joule_Lyte [W/m3]" 	"Joule_Solid [W/m3]" 	
ZONE T = "SEP , 0.0000E+00", I = 10, SOLUTIONTIME = 0.000000E+00
ZONETYPE = ORDERED
DATAPACKING = BLOCK
STRANDID = 2
 7.8740000000000E-04  8.4102222222222E-04  8.9464444444444E-04  9.4826666666667E-04  1.0018888888889E-03  1.0555111111111E-03  1.1091333333333E-03  1.1627555555556E-03  1.2163777777778E-03  1.2700000000000E-03 
 0.0000000000000E+00  0.0000000000000E+00  0.0000000000000E+00  0.0000000000000E+00  0.0000000000000E+00  0.0000000000000E+00  0.0000000000000E+00  0.0000000000000E+00  0.0000000000000E+00  0.0000000000000E+00 
 9.2000000000000E-01  9.2000000000000E-01  9.2000000000000E-01  9.2000000000000E-01  9.2000000000000E-01  9.2000000000000E-01  9.2000000000000E-01  9.2000000000000E-01  9.2000000000000E-01  9.2000000000000E-01 
 4.0000000000000E-02  4.0000000000000E-02  4.0000000000000E-02  4.0000000000000E-02  4.0000000000000E-02  4.0000000000000E-02  4.0000000000000E-02  4.0000000000000E-02  4.0000000000000E-02  4.0000000000000E-02 
 4.0000000000000E-02  4.0000000000000E-02  4.0000000000000E-02  4.0000000000000E-02  4.0000000000000E-02  4.0000000000000E-02  4.0000000000000E-02  4.0000000000000E-02  4.0000000000000E-02  4.0000000000000E-02 
-7.0000000000000E-02 -7.0000000000000E-02 -7.0000000000000E-02 -7.0000000000000E-02 -7.0000000000000E-02 -7.0000000000000E-02 -7.0000000000000E-02 -7.0000000000000E-02 -7.0000000000000E-02 -7.0000000000000E-02 
 2.9815000000000E+02  2.9815000000000E+02  2.9815000000000E+02  2.9815000000000E+02  2.9815000000000E+02  2.9815000000000E+02  2.9815000000000E+02  2.9815000000000E+02  2.9815000000000E+02  2.9815000000000E+02 
 8.0911139820575E-01  8.0911139820575E-01  8.0911139820575E-01  8.0911139820575E-01  8.0911139820575E-01  8.0911139820575E-01  8.0911139820575E-01  8.0911139820575E-01  8.0911139820575E-01  8.0911139820575E-01 
 2.6811111111111E-05  5.3622222222222E-05  5.3622222222222E-05  5.3622222222222E-05  5.3622222222222E-05  5.3622222222222E-05  5.3622222222222E-05  5.3622222222223E-05  5.3622222222222E-05  2.6811111111111E-05 
 1.9088860179425E-01  1.9088860179425E-01  1.9088860179425E-01  1.9088860179425E-01  1.9088860179425E-01  1.9088860179425E-01  1.9088860179425E-01  1.9088860179425E-01  1.9088860179425E-01  1.9088860179425E-01 
 0.0000000000000E+00  0.0000000000000E+00  0.0000000000000E+00  0.0000000000000E+00  0.0000000000000E+00  0.0000000000000E+00  0.0000000000000E+00  0.0000000000000E+00  0.0000000000000E+00  0.0000000000000E+00 
 0.0000000000000E+00  0.0000000000000E+00  0.0000000000000E+00  0.0000000000000E+00  0.0000000000000E+00  0.0000000000000E+00  0.0000000000000E+00  0.0000000000000E+00  0.0000000000000E+00  0.0000000000000E+00 
 0.0000000000000E+00  0.0000000000000E+00  0.0000000000000E+00  0.0000000000000E+00  0.0000000000000E+00  0.0000000000000E+00  0.0000000000000E+00  0.0000000000000E+00  0.0000000000000E+00  0.0000000000000E+00 
 0.0000000000000E+00  0.0000000000000E+00  0.0000000000000E+00  0.0000000000000E+00  0.0000000000000E+00  0.0000000000000E+00  0.0000000000000E+00  0.0000000000000E+00  0.0000000000000E+00  0.0000000000000E+00 
ZONE T = "SEP , 1.0000E-08", I = 10, SOLUTIONTIME = 1.000000E-08
ZONETYPE = ORDERED
DATAPACKING = BLOCK
STRANDID = 2
 7.8740000000000E-04  8.4102222222222E-04  8.9464444444444E-04  9.4826666666667E-04  1.0018888888889E-03  1.0555111111111E-03  1.1091333333333E-03  1.1627555555556E-03  1.2163777777778E-03  1.2700000000000E-03 
 2.0865060350568E-08  2.0865060350568E-08  2.0865060350568E-08  2.0865060350568E-08  2.0865060350568E-08  2.0865060350568E-08  2.0865060350568E-08  2.0865060350568E-08  2.0865060350568E-08  1.9707213485963E-08 
 9.1999999999971E-01  9.2000000000000E-01  9.2000000000000E-01  9.2000000000000E-01  9.2000000000000E-01  9.2000000000000E-01  9.2000000000000E-01  9.2000000000000E-01  9.2000000000000E-01  9.2000000000032E-01 
 4.0000000000144E-02  4.0000000000000E-02  4.0000000000000E-02  4.0000000000000E-02  4.0000000000000E-02  4.0000000000000E-02  4.0000000000000E-02  4.0000000000000E-02  4.0000000000000E-02  3.9999999999841E-02 
 4.0000000000144E-02  4.0000000000000E-02  4.0000000000000E-02  4.0000000000000E-02  4.0000000000000E-02  4.0000000000000E-02  4.0000000000000E-02  4.0000000000000E-02  4.0000000000000E-02  3.9999999999841E-02 
 2.9171459946450E-02  2.9171410576575E-02  2.9171361206686E-02  2.9171311836802E-02  2.9171262466927E-02  2.9171213097051E-02  2.9171163727162E-02  2.9171114357278E-02  2.9171064987403E-02  2.9171015617513E-02 
 2.9814999951981E+02  2.9814999999017E+02  2.9814999999054E+02  2.9814999998468E+02  2.9814999999543E+02  2.9814999998750E+02  2.9815000000237E+02  2.9814999999652E+02  2.9815000000277E+02  2.9815000104744E+02 
 8.0911139820575E-01  8.0911139820575E-01  8.0911139820575E-01  8.0911139820575E-01  8.0911139820575E-01  8.0911139820575E-01  8.0911139820575E-01  8.0911139820575E-01  8.0911139820575E-01  8.0911139820575E-01 
 2.6811111111111E-05  5.3622222222222E-05  5.3622222222222E-05  5.3622222222222E-05  5.3622222222222E-05  5.3622222222222E-05  5.3622222222222E-05  5.3622222222223E-05  5.3622222222222E-05  2.6811111111111E-05 
 1.9088860179425E-01  1.9088860179425E-01  1.9088860179425E-01  1.9088860179425E-01  1.9088860179425E-01  1.9088860179425E-01  1.9088860179425E-01  1.9088860179425E-01  1.9088860179425E-01  1.9088860179425E-01 
 2.7664049827316E-10  2.7664058065102E-10  2.7664063340237E-10  2.7664055194557E-10  2.7664050151436E-10  2.7664058361058E-10  2.7664063454176E-10  2.7664055228557E-10  2.7664058100822E-10  2.7664066222110E-10 
 2.7664049827316E-02  2.7664058065102E-02  2.7664063340237E-02  2.7664055194557E-02  2.7664050151436E-02  2.7664058361058E-02  2.7664063454176E-02  2.7664055228557E-02  2.7664058100822E-02  2.7664066222110E-02 
 2.7664049827316E-02  2.7664058065102E-02  2.7664063340237E-02  2.7664055194557E-02  2.7664050151436E-02  2.7664058361058E-02  2.7664063454176E-02  2.7664055228557E-02  2.7664058100822E-02  2.7664066222110E-02 
 0.0000000000000E+00  0.0000000000000E+00  0.0000000000000E+00  0.0000000000000E+00  0.0000000000000E+00  0.0000000000000E+00  0.0000000000000E+00  0.0000000000000E+00  0.0000000000000E+00  0.0000000000000E+00 
ZONE T = "SEP , 2.0000E-08", I = 10, SOLUTIONTIME = 2.000000E-08
ZONETYPE = ORDERED
DATAPACKING = BLOCK
STRANDID = 2
 7.8740000000000E-04  8.4102222222222E-04  8.9464444444444E-04  9.4826666666667E-04  1.0018888888889E-03  1.0555111111111E-03  1.1091333333333E-03  1.1627555555556E-03  1.2163777777778E-03  1.2700000000000E-03 
 2.0866907730332E-08  2.0866907730332E-08  2.0866907730332E-08  2.0866907730332E-08  2.0866907730332E-08  2.0866907730332E-08  2.0866907730332E-08  2.0866907730332E-08  2.0866907730332E-08  1.9708026218395E-08 
 9.1999999999942E-01  9.2000000000000E-01  9.2000000000000E-01  9.2000000000000E-01  9.2000000000000E-01  9.2000000000000E-01  9.2000000000000E-01  9.2000000000000E-01  9.2000000000000E-01  9.2000000000064E-01 
 4.0000000000288E-02  4.0000000000000E-02  4.0000000000000E-02  4.0000000000000E-02  4.0000000000000E-02  4.0000000000000E-02  4.0000000000000E-02  4.0000000000000E-02  4.0000000000000E-02  3.9999999999682E-02 
 4.0000000000288E-02  4.0000000000000E-02  4.0000000000000E-02  4.0000000000000E-02  4.0000000000000E-02  4.0000000000000E-02  4.0000000000000E-02  4.0000000000000E-02  4.0000000000000E-02  3.9999999999682E-02 
 2.9176841324957E-02  2.9176791949845E-02  2.9176742574733E-02  2.9176693199621E-02  2.9176643824509E-02  2.9176594449397E-02  2.9176545074285E-02  2.9176495699173E-02  2.9176446324061E-02  2.9176396948949E-02 
 2.9814999907408E+02  2.9814999998025E+02  2.9814999999014E+02  2.9814999997936E+02  2.9814999998951E+02  2.9814999998764E+02  2.9814999999101E+02  2.9814999999682E+02  2.9815000001744E+02  2.9815000213856E+02 
 8.0911139820575E-01  8.0911139820575E-01  8.0911139820575E-01  8.0911139820575E-01  8.0911139820575E-01  8.0911139820575E-01  8.0911139820575E-01  8.0911139820575E-01  8.0911139820575E-01  8.0911139820575E-01 
 2.6811111111111E-05  5.3622222222222E-05  5.3622222222222E-05  5.3622222222222E-05  5.3622222222222E-05  5.3622222222222E-05  5.3622222222222E-05  5.3622222222223E-05  5.3622222222222E-05  2.6811111111111E-05 
 1.9088860179425E-01  1.9088860179425E-01  1.9088860179425E-01  1.9088860179425E-01  1.9088860179425E-01  1.9088860179425E-01  1.9088860179425E-01  1.9088860179425E-01  1.9088860179425E-01  1.9088860179425E-01 
 5.5333969205413E-10  5.5333977466614E-10  5.5333982763241E-10  5.5333974615652E-10  5.5333969574297E-10  5.5333977785637E-10  5.5333982876563E-10  5.5333974652061E-10  5.5333977575070E-10  5.5333985743826E-10 
 2.7669919378097E-02  2.7669919401512E-02  2.7669919423004E-02  2.7669919421094E-02  2.7669919422861E-02  2.7669919424579E-02  2.7669919422387E-02  2.7669919423504E-02  2.7669919474248E-02  2.7669919521716E-02 
 2.7669919378097E-02  2.7669919401512E-02  2.7669919423004E-02  2.7669919421094E-02  2.7669919422861E-02  2.7669919424579E-02  2.7669919422387E-02  2.7669919423504E-02  2.7669919474248E-02  2.7669919521716E-02 
 0.0000000000000E+00  0.0000000000000E+00  0.0000000000000E+00  0.0000000000000E+00  0.0000000000000E+00  0.0000000000000E+00  0.0000000000000E+00  0.0000000000000E+00  0.0000000000000E+00  0.0000000000000E+00 
ZONE T = "SEP , 3.0000E-08", I = 10, SOLUTIONTIME = 3.000000E-08
ZONETYPE = ORDERED
DATAPACKING = BLOCK
STRANDID = 2
 7.8740000000000E-04  8.4102222222222E-04  8.9464444444444E-04  9.4826666666667E-04  1.0018888888889E-03  1.0555111111111E-03  1.1091333333333E-03  1.1627555555556E-03  1.2163777777778E-03  1.2700000000000E-03 
 2.0871200785259E-08  2.0871200785259E-08  2.0871200785259E-08  2.0871200785259E-08  2.0871200785259E-08  2.0871200785259E-08  2.0871200785259E-08  2.0871200785259E-08  2.0871200785259E-08  1.9714195580519E-08 
 9.1999999999914E-01  9.2000000000000E-01  9.2000000000000E-01  9.2000000000000E-01  9.2000000000000E-01  9.2000000000000E-01  9.2000000000000E-01  9.2000000000000E-01  9.2000000000000E-01  9.2000000000095E-01 
 4.0000000000432E-02  4.0000000000000E-02  4.0000000000000E-02  4.0000000000000E-02  4.0000000000000E-02  4.0000000000000E-02  4.0000000000000E-02  4.0000000000000E-02  4.0000000000000E-02  3.9999999999524E-02 
 4.0000000000432E-02  4.0000000000000E-02  4.0000000000000E-02  4.0000000000000E-02  4.0000000000000E-02  4.0000000000000E-02  4.0000000000000E-02  4.0000000000000E-02  4.0000000000000E-02  3.9999999999524E-02 
 2.9182234797046E-02  2.9182185416933E-02  2.9182136036819E-02  2.9182086656705E-02  2.9182037276592E-02  2.9181987896478E-02  2.9181938516364E-02  2.9181889136251E-02  2.9181839756137E-02  2.9181790376023E-02 
 2.9814999857353E+02  2.9814999996875E+02  2.9814999998901E+02  2.9814999997441E+02  2.9814999998331E+02  2.9814999998790E+02  2.9815000000695E+02  2.9814999999230E+02  2.9815000003242E+02  2.9815000323741E+02 
 8.0911139820575E-01  8.0911139820575E-01  8.0911139820575E-01  8.0911139820575E-01  8.0911139820575E-01  8.0911139820575E-01  8.0911139820575E-01  8.0911139820575E-01  8.0911139820575E-01  8.0911139820575E-01 
 2.6811111111111E-05  5.3622222222222E-05  5.3622222222222E-05  5.3622222222222E-05  5.3622222222222E-05  5.3622222222222E-05  5.3622222222222E-05  5.3622222222223E-05  5.3622222222222E-05  2.6811111111111E-05 
 1.9088860179425E-01  1.9088860179425E-01  1.9088860179425E-01  1.9088860179425E-01  1.9088860179425E-01  1.9088860179425E-01  1.9088860179425E-01  1.9088860179425E-01  1.9088860179425E-01  1.9088860179425E-01 
 8.3009494744838E-10  8.3009503041173E-10  8.3009508370858E-10  8.3009500223270E-10  8.3009495183680E-10  8.3009503394158E-10  8.3009508484433E-10  8.3009500261182E-10  8.3009503261826E-10  8.3009511506864E-10 
 2.7675525539425E-02  2.7675525574559E-02  2.7675525607618E-02  2.7675525607619E-02  2.7675525609382E-02  2.7675525608521E-02  2.7675525607870E-02  2.7675525609121E-02  2.7675525686756E-02  2.7675525763037E-02 
 2.7675525539425E-02  2.7675525574559E-02  2.7675525607618E-02  2.7675525607619E-02  2.7675525609382E-02  2.7675525608521E-02  2.7675525607870E-02  2.7675525609121E-02  2.7675525686756E-02  2.7675525763037E-02 
 0.0000000000000E+00  0.0000000000000E+00  0.0000000000000E+00  0.0000000000000E+00  0.0000000000000E+00  0.0000000000000E+00  0.0000000000000E+00  0.0000000000000E+00  0.0000000000000E+00  0.0000000000000E+00 
ZONE T = "SEP , 4.0000E-08", I = 10, SOLUTIONTIME = 4.000000E-08
ZONETYPE = ORDERED
DATAPACKING = BLOCK
STRANDID = 2
 7.8740000000000E-04  8.4102222222222E-04  8.9464444444444E-04  9.4826666666667E-04  1.0018888888889E-03  1.0555111111111E-03  1.1091333333333E-03  1.1627555555556E-03  1.2163777777778E-03  1.2700000000000E-03 
 2.0869687908366E-08  2.0869687908366E-08  2.0869687908366E-08  2.0869687908366E-08  2.0869687908366E-08  2.0869687908366E-08  2.0869687908366E-08  2.0869687908366E-08  2.0869687908366E-08  1.9711471463103E-08 
 9.1999999999885E-01  9.2000000000000E-01  9.2000000000000E-01  9.2000000000000E-01  9.2000000000000E-01  9.2000000000000E-01  9.2000000000000E-01  9.2000000000000E-01  9.2000000000000E-01  9.2000000000127E-01 
 4.0000000000576E-02  4.0000000000000E-02  4.0000000000000E-02  4.0000000000000E-02  4.0000000000000E-02  4.0000000000000E-02  4.0000000000000E-02  4.0000000000000E-02  4.0000000000000E-02  3.9999999999365E-02 
 4.0000000000576E-02  4.0000000000000E-02  4.0000000000000E-02  4.0000000000000E-02  4.0000000000000E-02  4.0000000000000E-02  4.0000000000000E-02  4.0000000000000E-02  4.0000000000000E-02  3.9999999999365E-02 
 2.9187640081264E-02  2.9187590696136E-02  2.9187541311008E-02  2.9187491925880E-02  2.9187442540752E-02  2.9187393155624E-02  2.9187343770496E-02  2.9187294385367E-02  2.9187245000239E-02  2.9187195615111E-02 
 2.9814999815989E+02  2.9814999995427E+02  2.9814999998716E+02  2.9814999998057E+02  2.9814999998813E+02  2.9814999998822E+02  2.9815000000016E+02  2.9814999998922E+02  2.9815000006045E+02  2.9815000437647E+02 
 8.0911139820575E-01  8.0911139820575E-01  8.0911139820575E-01  8.0911139820575E-01  8.0911139820575E-01  8.0911139820575E-01  8.0911139820575E-01  8.0911139820575E-01  8.0911139820575E-01  8.0911139820575E-01 
 2.6811111111111E-05  5.3622222222222E-05  5.3622222222222E-05  5.3622222222222E-05  5.3622222222222E-05  5.3622222222222E-05  5.3622222222222E-05  5.3622222222223E-05  5.3622222222222E-05  2.6811111111111E-05 
 1.9088860179425E-01  1.9088860179425E-01  1.9088860179425E-01  1.9088860179425E-01  1.9088860179425E-01  1.9088860179425E-01  1.9088860179425E-01  1.9088860179425E-01  1.9088860179425E-01  1.9088860179425E-01 
 1.1069064131852E-09  1.1069064965986E-09  1.1069065503393E-09  1.1069064688571E-09  1.1069064184786E-09  1.1069065005788E-09  1.1069065514786E-09  1.1069064692707E-09  1.1069065003051E-09  1.1069065837780E-09 
 2.7681146573685E-02  2.7681146618683E-02  2.7681146663072E-02  2.7681146662439E-02  2.7681146664183E-02  2.7681146663727E-02  2.7681146663424E-02  2.7681146665891E-02  2.7681146768687E-02  2.7681146870937E-02 
 2.7681146573685E-02  2.7681146618683E-02  2.7681146663072E-02  2.7681146662439E-02  2.7681146664183E-02  2.7681146663727E-02  2.7681146663424E-02  2.7681146665891E-02  2.7681146768687E-02  2.7681146870937E-02 
 0.0000000000000E+00  0.0000000000000E+00  0.0000000000000E+00  0.0000000000000E+00  0.0000000000000E+00  0.0000000000000E+00  0.0000000000000E+00  0.0000000000000E+00  0.0000000000000E+00  0.0000000000000E+00 
ZONE T = "SEP , 5.5000E-08", I = 10, SOLUTIONTIME = 5.500000E-08
ZONETYPE = ORDERED
DATAPACKING = BLOCK
STRANDID = 2
 7.8740000000000E-04  8.4102222222222E-04  8.9464444444444E-04  9.4826666666667E-04  1.0018888888889E-03  1.0555111111111E-03  1.1091333333333E-03  1.1627555555556E-03  1.2163777777778E-03  1.2700000000000E-03 
 2.0874808213172E-08  2.0874808213172E-08  2.0874808213172E-08  2.0874808213172E-08  2.0874808213172E-08  2.0874808213172E-08  2.0874808213172E-08  2.0874808213172E-08  2.0874808213172E-08  1.9716045933678E-08 
 9.1999999999842E-01  9.2000000000000E-01  9.2000000000000E-01  9.2000000000000E-01  9.2000000000000E-01  9.2000000000000E-01  9.2000000000000E-01  9.2000000000000E-01  9.2000000000000E-01  9.2000000000175E-01 
 4.0000000000791E-02  4.0000000000000E-02  4.0000000000000E-02  4.0000000000000E-02  4.0000000000000E-02  4.0000000000000E-02  4.0000000000000E-02  4.0000000000000E-02  4.0000000000000E-02  3.9999999999127E-02 
 4.0000000000791E-02  4.0000000000000E-02  4.0000000000000E-02  4.0000000000000E-02  4.0000000000000E-02  4.0000000000000E-02  4.0000000000000E-02  4.0000000000000E-02  4.0000000000000E-02  3.9999999999127E-02 
 2.9195755680353E-02  2.9195706287693E-02  2.9195656895033E-02  2.9195607502373E-02  2.9195558109712E-02  2.9195508717052E-02  2.9195459324392E-02  2.9195409931732E-02  2.9195360539072E-02  2.9195311146411E-02 
 2.9814999748576E+02  2.9814999992117E+02  2.9814999998797E+02  2.9814999998442E+02  2.9814999998955E+02  2.9814999998907E+02  2.9815000000582E+02  2.9814999999445E+02  2.9815000015008E+02  2.9815000612732E+02 
 8.0911139820575E-01  8.0911139820575E-01  8.0911139820575E-01  8.0911139820575E-01  8.0911139820575E-01  8.0911139820575E-01  8.0911139820575E-01  8.0911139820575E-01  8.0911139820575E-01  8.0911139820575E-01 
 2.6811111111111E-05  5.3622222222222E-05  5.3622222222222E-05  5.3622222222222E-05  5.3622222222222E-05  5.3622222222222E-05  5.3622222222222E-05  5.3622222222223E-05  5.3622222222222E-05  2.6811111111111E-05 
 1.9088860179425E-01  1.9088860179425E-01  1.9088860179425E-01  1.9088860179425E-01  1.9088860179425E-01  1.9088860179425E-01  1.9088860179425E-01  1.9088860179425E-01  1.9088860179425E-01  1.9088860179425E-01 
 1.5222502760909E-09  1.5222503603812E-09  1.5222504150061E-09  1.5222503335597E-09  1.5222502831790E-09  1.5222503652720E-09  1.5222504161933E-09  1.5222503340501E-09  1.5222503672723E-09  1.5222504528665E-09 
 2.7689590860378E-02  2.7689590918844E-02  2.7689590977786E-02  2.7689590980171E-02  2.7689590980026E-02  2.7689590979541E-02  2.7689590980983E-02  2.7689590985289E-02  2.7689591131143E-02  2.7689591272566E-02 
 2.7689590860378E-02  2.7689590918844E-02  2.7689590977786E-02  2.7689590980171E-02  2.7689590980026E-02  2.7689590979541E-02  2.7689590980983E-02  2.7689590985289E-02  2.7689591131143E-02  2.7689591272566E-02 
 0.0000000000000E+00  0.0000000000000E+00  0.0000000000000E+00  0.0000000000000E+00  0.0000000000000E+00  0.0000000000000E+00  0.0000000000000E+00  0.0000000000000E+00  0.0000000000000E+00  0.0000000000000E+00 
ZONE T = "SEP , 7.7500E-08", I = 10, SOLUTIONTIME = 7.750000E-08
ZONETYPE = ORDERED
DATAPACKING = BLOCK
STRANDID = 2
 7.8740000000000E-04  8.4102222222222E-04  8.9464444444444E-04  9.4826666666667E-04  1.0018888888889E-03  1.0555111111111E-03  1.1091333333333E-03  1.1627555555556E-03  1.2163777777778E-03  1.2700000000000E-03 
 2.0878780545675E-08  2.0878780545675E-08  2.0878780545675E-08  2.0878780545675E-08  2.0878780545675E-08  2.0878780545675E-08  2.0878780545675E-08  2.0878780545675E-08  2.0878780545675E-08  1.9720107358772E-08 
 9.1999999999777E-01  9.2000000000000E-01  9.2000000000000E-01  9.2000000000000E-01  9.2000000000000E-01  9.2000000000000E-01  9.2000000000000E-01  9.2000000000000E-01  9.2000000000000E-01  9.2000000000246E-01 
 4.0000000001114E-02  4.0000000000000E-02  4.0000000000000E-02  4.0000000000000E-02  4.0000000000000E-02  4.0000000000000E-02  4.0000000000000E-02  4.0000000000000E-02  4.0000000000000E-02  3.9999999998769E-02 
 4.0000000001114E-02  4.0000000000000E-02  4.0000000000000E-02  4.0000000000000E-02  4.0000000000000E-02  4.0000000000000E-02  4.0000000000000E-02  4.0000000000000E-02  4.0000000000000E-02  3.9999999998769E-02 
 2.9207934304434E-02  2.9207884900465E-02  2.9207835496495E-02  2.9207786092526E-02  2.9207736688557E-02  2.9207687284587E-02  2.9207637880618E-02  2.9207588476649E-02  2.9207539072679E-02  2.9207489668709E-02 
 2.9814999641784E+02  2.9814999985990E+02  2.9814999998380E+02  2.9814999997947E+02  2.9814999999119E+02  2.9814999999097E+02  2.9815000000769E+02  2.9814999999871E+02  2.9815000031723E+02  2.9815000879253E+02 
 8.0911139820575E-01  8.0911139820575E-01  8.0911139820575E-01  8.0911139820575E-01  8.0911139820575E-01  8.0911139820575E-01  8.0911139820575E-01  8.0911139820575E-01  8.0911139820575E-01  8.0911139820575E-01 
 2.6811111111111E-05  5.3622222222222E-05  5.3622222222222E-05  5.3622222222222E-05  5.3622222222222E-05  5.3622222222222E-05  5.3622222222222E-05  5.3622222222223E-05  5.3622222222222E-05  2.6811111111111E-05 
 1.9088860179425E-01  1.9088860179425E-01  1.9088860179425E-01  1.9088860179425E-01  1.9088860179425E-01  1.9088860179425E-01  1.9088860179425E-01  1.9088860179425E-01  1.9088860179425E-01  1.9088860179425E-01 
 2.1455513978720E-09  2.1455514840149E-09  2.1455515405611E-09  2.1455514591796E-09  2.1455514087891E-09  2.1455514908674E-09  2.1455515418199E-09  2.1455514599048E-09  2.1455514978629E-09  2.1455515880047E-09 
 2.7702272079159E-02  2.7702272161495E-02  2.7702272246890E-02  2.7702272249777E-02  2.7702272249338E-02  2.7702272248688E-02  2.7702272250071E-02  2.7702272260209E-02  2.7702272470696E-02  2.7702272672809E-02 
 2.7702272079159E-02  2.7702272161495E-02  2.7702272246890E-02  2.7702272249777E-02  2.7702272249338E-02  2.7702272248688E-02  2.7702272250071E-02  2.7702272260209E-02  2.7702272470696E-02  2.7702272672809E-02 
 0.0000000000000E+00  0.0000000000000E+00  0.0000000000000E+00  0.0000000000000E+00  0.0000000000000E+00  0.0000000000000E+00  0.0000000000000E+00  0.0000000000000E+00  0.0000000000000E+00  0.0000000000000E+00 
ZONE T = "SEP , 1.1125E-07", I = 10, SOLUTIONTIME = 1.112500E-07
ZONETYPE = ORDERED
DATAPACKING = BLOCK
STRANDID = 2
 7.8740000000000E-04  8.4102222222222E-04  8.9464444444444E-04  9.4826666666667E-04  1.0018888888889E-03  1.0555111111111E-03  1.1091333333333E-03  1.1627555555556E-03  1.2163777777778E-03  1.2700000000000E-03 
 2.0886700336583E-08  2.0886700336583E-08  2.0886700336583E-08  2.0886700336583E-08  2.0886700336583E-08  2.0886700336583E-08  2.0886700336583E-08  2.0886700336583E-08  2.0886700336583E-08  1.9727454868574E-08 
 9.1999999999680E-01  9.2000000000000E-01  9.2000000000000E-01  9.2000000000000E-01  9.2000000000000E-01  9.2000000000000E-01  9.2000000000000E-01  9.2000000000000E-01  9.2000000000000E-01  9.2000000000353E-01 
 4.0000000001598E-02  4.0000000000000E-02  4.0000000000000E-02  4.0000000000000E-02  4.0000000000000E-02  4.0000000000000E-02  4.0000000000000E-02  4.0000000000000E-02  4.0000000000000E-02  3.9999999998233E-02 
 4.0000000001598E-02  4.0000000000000E-02  4.0000000000000E-02  4.0000000000000E-02  4.0000000000000E-02  4.0000000000000E-02  4.0000000000000E-02  4.0000000000000E-02  4.0000000000000E-02  3.9999999998233E-02 
 2.9226182161823E-02  2.9226132740897E-02  2.9226083319970E-02  2.9226033899043E-02  2.9225984478117E-02  2.9225935057190E-02  2.9225885636264E-02  2.9225836215337E-02  2.9225786794411E-02  2.9225737373483E-02 
 2.9814999487895E+02  2.9814999971904E+02  2.9814999997867E+02  2.9814999997352E+02  2.9814999999744E+02  2.9814999999487E+02  2.9815000001074E+02  2.9815000003057E+02  2.9815000066729E+02  2.9815001292501E+02 
 8.0911139820575E-01  8.0911139820575E-01  8.0911139820575E-01  8.0911139820575E-01  8.0911139820575E-01  8.0911139820575E-01  8.0911139820575E-01  8.0911139820575E-01  8.0911139820575E-01  8.0911139820575E-01 
 2.6811111111111E-05  5.3622222222222E-05  5.3622222222222E-05  5.3622222222222E-05  5.3622222222222E-05  5.3622222222222E-05  5.3622222222222E-05  5.3622222222223E-05  5.3622222222222E-05  2.6811111111111E-05 
 1.9088860179425E-01  1.9088860179425E-01  1.9088860179425E-01  1.9088860179425E-01  1.9088860179425E-01  1.9088860179425E-01  1.9088860179425E-01  1.9088860179425E-01  1.9088860179425E-01  1.9088860179425E-01 
 3.0811450071355E-09  3.0811450973470E-09  3.0811451580906E-09  3.0811450768889E-09  3.0811450265326E-09  3.0811451086494E-09  3.0811451596291E-09  3.0811450782217E-09  3.0811451268850E-09  3.0811452271961E-09 
 2.7721292126325E-02  2.7721292246877E-02  2.7721292371245E-02  2.7721292376570E-02  2.7721292377583E-02  2.7721292378724E-02  2.7721292379531E-02  2.7721292394577E-02  2.7721292711765E-02  2.7721293013077E-02 
 2.7721292126325E-02  2.7721292246877E-02  2.7721292371245E-02  2.7721292376570E-02  2.7721292377583E-02  2.7721292378724E-02  2.7721292379531E-02  2.7721292394577E-02  2.7721292711765E-02  2.7721293013077E-02 
 0.0000000000000E+00  0.0000000000000E+00  0.0000000000000E+00  0.0000000000000E+00  0.0000000000000E+00  0.0000000000000E+00  0.0000000000000E+00  0.0000000000000E+00  0.0000000000000E+00  0.0000000000000E+00 
ZONE T = "SEP , 1.6188E-07", I = 10, SOLUTIONTIME = 1.618750E-07
ZONETYPE = ORDERED
DATAPACKING = BLOCK
STRANDID = 2
 7.8740000000000E-04  8.4102222222222E-04  8.9464444444444E-04  9.4826666666667E-04  1.0018888888889E-03  1.0555111111111E-03  1.1091333333333E-03  1.1627555555556E-03  1.2163777777778E-03  1.2700000000000E-03 
 2.0896912537732E-08  2.0896912537732E-08  2.0896912537732E-08  2.0896912537732E-08  2.0896912537732E-08  2.0896912537732E-08  2.0896912537732E-08  2.0896912537732E-08  2.0896912537732E-08  1.9737429714159E-08 
 9.1999999999536E-01  9.2000000000000E-01  9.2000000000000E-01  9.2000000000000E-01  9.2000000000000E-01  9.2000000000000E-01  9.2000000000000E-01  9.2000000000000E-01  9.2000000000000E-01  9.2000000000514E-01 
 4.0000000002321E-02  4.0000000000001E-02  4.0000000000000E-02  4.0000000000000E-02  4.0000000000000E-02  4.0000000000000E-02  4.0000000000000E-02  4.0000000000000E-02  3.9999999999999E-02  3.9999999997428E-02 
 4.0000000002321E-02  4.0000000000001E-02  4.0000000000000E-02  4.0000000000000E-02  4.0000000000000E-02  4.0000000000000E-02  4.0000000000000E-02  4.0000000000000E-02  3.9999999999999E-02  3.9999999997428E-02 
 2.9253439956361E-02  2.9253390510083E-02  2.9253341063804E-02  2.9253291617525E-02  2.9253242171246E-02  2.9253192724967E-02  2.9253143278688E-02  2.9253093832409E-02  2.9253044386130E-02  2.9252994939849E-02 
 2.9814999248586E+02  2.9814999943731E+02  2.9814999995934E+02  2.9814999998049E+02  2.9814999999406E+02  2.9814999999650E+02  2.9815000000970E+02  2.9815000008572E+02  2.9815000142558E+02  2.9815001938828E+02 
 8.0911139820575E-01  8.0911139820575E-01  8.0911139820575E-01  8.0911139820575E-01  8.0911139820575E-01  8.0911139820575E-01  8.0911139820575E-01  8.0911139820575E-01  8.0911139820575E-01  8.0911139820575E-01 
 2.6811111111111E-05  5.3622222222222E-05  5.3622222222222E-05  5.3622222222222E-05  5.3622222222222E-05  5.3622222222222E-05  5.3622222222222E-05  5.3622222222223E-05  5.3622222222222E-05  2.6811111111111E-05 
 1.9088860179425E-01  1.9088860179425E-01  1.9088860179425E-01  1.9088860179425E-01  1.9088860179425E-01  1.9088860179425E-01  1.9088860179425E-01  1.9088860179425E-01  1.9088860179425E-01  1.9088860179425E-01 
 4.4859756300891E-09  4.4859757291211E-09  4.4859757993267E-09  4.4859757188242E-09  4.4859756685068E-09  4.4859757506848E-09  4.4859758017382E-09  4.4859757221064E-09  4.4859757952331E-09  4.4859759182254E-09 
 2.7749740700319E-02  2.7749740874550E-02  2.7749741061454E-02  2.7749741075267E-02  2.7749741076033E-02  2.7749741077244E-02  2.7749741078698E-02  2.7749741113772E-02  2.7749741596999E-02  2.7749742045024E-02 
 2.7749740700319E-02  2.7749740874550E-02  2.7749741061454E-02  2.7749741075267E-02  2.7749741076033E-02  2.7749741077244E-02  2.7749741078698E-02  2.7749741113772E-02  2.7749741596999E-02  2.7749742045024E-02 
 0.0000000000000E+00  0.0000000000000E+00  0.0000000000000E+00  0.0000000000000E+00  0.0000000000000E+00  0.0000000000000E+00  0.0000000000000E+00  0.0000000000000E+00  0.0000000000000E+00  0.0000000000000E+00 
ZONE T = "SEP , 2.3781E-07", I = 10, SOLUTIONTIME = 2.378125E-07
ZONETYPE = ORDERED
DATAPACKING = BLOCK
STRANDID = 2
 7.8740000000000E-04  8.4102222222222E-04  8.9464444444444E-04  9.4826666666667E-04  1.0018888888889E-03  1.0555111111111E-03  1.1091333333333E-03  1.1627555555556E-03  1.2163777777778E-03  1.2700000000000E-03 
 2.0913164410302E-08  2.0913260069950E-08  2.0913260069950E-08  2.0913260069950E-08  2.0913260069950E-08  2.0913260069950E-08  2.0913260069950E-08  2.0913260069950E-08  2.0913164410302E-08  1.9752409648860E-08 
 9.1999999999319E-01  9.2000000000000E-01  9.2000000000000E-01  9.2000000000000E-01  9.2000000000000E-01  9.2000000000000E-01  9.2000000000000E-01  9.2000000000000E-01  9.2000000000000E-01  9.2000000000756E-01 
 4.0000000003403E-02  4.0000000000001E-02  4.0000000000000E-02  4.0000000000000E-02  4.0000000000000E-02  4.0000000000000E-02  4.0000000000000E-02  4.0000000000000E-02  3.9999999999998E-02  3.9999999996220E-02 
 4.0000000003403E-02  4.0000000000001E-02  4.0000000000000E-02  4.0000000000000E-02  4.0000000000000E-02  4.0000000000000E-02  4.0000000000000E-02  4.0000000000000E-02  3.9999999999998E-02  3.9999999996220E-02 
 2.9293951366407E-02  2.9293901882409E-02  2.9293852398411E-02  2.9293802914413E-02  2.9293753430414E-02  2.9293703946416E-02  2.9293654462418E-02  2.9293604978419E-02  2.9293555494421E-02  2.9293506010420E-02 
 2.9814998892265E+02  2.9814999883627E+02  2.9814999989326E+02  2.9814999997636E+02  2.9814999999718E+02  2.9814999999715E+02  2.9815000001958E+02  2.9815000026068E+02  2.9815000302457E+02  2.9815002945992E+02 
 8.0911139820575E-01  8.0911139820575E-01  8.0911139820575E-01  8.0911139820575E-01  8.0911139820575E-01  8.0911139820575E-01  8.0911139820575E-01  8.0911139820575E-01  8.0911139820575E-01  8.0911139820575E-01 
 2.6811111111111E-05  5.3622222222222E-05  5.3622222222222E-05  5.3622222222222E-05  5.3622222222222E-05  5.3622222222222E-05  5.3622222222222E-05  5.3622222222223E-05  5.3622222222222E-05  2.6811111111111E-05 