TITLE = "Solution on Domain BulkDomain1D_2"
VARIABLES = "x [m]"  
"Vel_axial" 	"MF_sp(ECDMC)" 	"MF_sp(Li+)" 	"MF_sp(PF6-)" 	"Volt(Electroly)" 	"Volt(CathodeVo)" 	"Temperature" 	
"Potential Drop Electrode-Electrolyte [V]" 	"Surf_0 Equilibrium Potential Drop Electrode-Electrolyte [V]" 	"Overpotential_0 [V]" 	"Current Source [A/m^2]" 	"Li+ flux [kmol/m^2/s]" 	"Electrolyte Current [A/m^2]" 	"Electrode Current [A/m^2]" 	
"CV Capacity discharged [A-s/m^2]" 	"Depth of discharge in CV [A-s/m^2]" 	"CV Capacity remaining [A-s/m^2]" 	"Initial CV capacity [A-s/m^2]" 	"Porosity []" 	"Surface Area [m2/m2] (area per area)" 	"Specific current (per particle area) [A/m^2]" 	"Control volume thickness [m]" 	
"MoleDens LiCoO2 [kmol/m^3]" 	"MoleDens CoO2 [kmol/m^3]" 	"qHeat_accum [J/m3]" 	"qHeat_step [W/m3]" 	"Joule_Lyte [W/m3]" 	"Joule_Solid [W/m3]" 	"electrodHeat [W/m3]" 	"OverpotHeat [W/m3]" 	"deltaSHeat [W/m3]" 	

ZONE T = "CATH, 0.0000E+00", I = 10, SOLUTIONTIME = 0.000000E+00
ZONETYPE = ORDERED
DATAPACKING = BLOCK
STRANDID = 3
 1.2700000000000E-03  1.3377333333333E-03  1.4054666666667E-03  1.4732000000000E-03  1.5409333333333E-03  1.6086666666667E-03  1.6764000000000E-03  1.7441333333333E-03  1.8118666666667E-03  1.8796000000000E-03 
 0.0000000000000E+00  0.0000000000000E+00  0.0000000000000E+00  0.0000000000000E+00  0.0000000000000E+00  0.0000000000000E+00  0.0000000000000E+00  0.0000000000000E+00  0.0000000000000E+00  0.0000000000000E+00 
 9.2000000000000E-01  9.2000000000000E-01  9.2000000000000E-01  9.2000000000000E-01  9.2000000000000E-01  9.2000000000000E-01  9.2000000000000E-01  9.2000000000000E-01  9.2000000000000E-01  9.2000000000000E-01 
 4.0000000000000E-02  4.0000000000000E-02  4.0000000000000E-02  4.0000000000000E-02  4.0000000000000E-02  4.0000000000000E-02  4.0000000000000E-02  4.0000000000000E-02  4.0000000000000E-02  4.0000000000000E-02 
 4.0000000000000E-02  4.0000000000000E-02  4.0000000000000E-02  4.0000000000000E-02  4.0000000000000E-02  4.0000000000000E-02  4.0000000000000E-02  4.0000000000000E-02  4.0000000000000E-02  4.0000000000000E-02 
-7.0000000000000E-02 -7.0000000000000E-02 -7.0000000000000E-02 -7.0000000000000E-02 -7.0000000000000E-02 -7.0000000000000E-02 -7.0000000000000E-02 -7.0000000000000E-02 -7.0000000000000E-02 -7.0000000000000E-02 
 3.8000000000000E+00  3.8000000000000E+00  3.8000000000000E+00  3.8000000000000E+00  3.8000000000000E+00  3.8000000000000E+00  3.8000000000000E+00  3.8000000000000E+00  3.8000000000000E+00  3.8000000000000E+00 
 2.9815000000000E+02  2.9815000000000E+02  2.9815000000000E+02  2.9815000000000E+02  2.9815000000000E+02  2.9815000000000E+02  2.9815000000000E+02  2.9815000000000E+02  2.9815000000000E+02  2.9815000000000E+02 
 3.8700000000000E+00  3.8700000000000E+00  3.8700000000000E+00  3.8700000000000E+00  3.8700000000000E+00  3.8700000000000E+00  3.8700000000000E+00  3.8700000000000E+00  3.8700000000000E+00  3.8700000000000E+00 
 3.9714142713289E+00  3.9714142713289E+00  3.9714142713289E+00  3.9714142713289E+00  3.9714142713289E+00  3.9714142713289E+00  3.9714142713289E+00  3.9714142713289E+00  3.9714142713289E+00  3.9714142713289E+00 
-1.0141427132889E-01 -1.0141427132889E-01 -1.0141427132889E-01 -1.0141427132889E-01 -1.0141427132889E-01 -1.0141427132889E-01 -1.0141427132889E-01 -1.0141427132889E-01 -1.0141427132889E-01 -1.0141427132889E-01 
-2.3826357195711E-01 -4.7652714391422E-01 -4.7652714391423E-01 -4.7652714391422E-01 -4.7652714391423E-01 -4.7652714391423E-01 -4.7652714391422E-01 -4.7652714391423E-01 -4.7652714391422E-01 -2.3826357195711E-01 
-0.0000000000000E+00 -0.0000000000000E+00 -0.0000000000000E+00 -0.0000000000000E+00 -0.0000000000000E+00 -0.0000000000000E+00 -0.0000000000000E+00 -0.0000000000000E+00 -0.0000000000000E+00 -0.0000000000000E+00 
 2.3826357195711E-01  0.0000000000000E+00  0.0000000000000E+00  0.0000000000000E+00  0.0000000000000E+00  0.0000000000000E+00  0.0000000000000E+00  0.0000000000000E+00  0.0000000000000E+00  0.0000000000000E+00 
 0.0000000000000E+00 -0.0000000000000E+00 -0.0000000000000E+00 -0.0000000000000E+00 -0.0000000000000E+00 -0.0000000000000E+00 -0.0000000000000E+00 -0.0000000000000E+00 -0.0000000000000E+00  2.3826357195711E-01 
-0.0000000000000E+00 -0.0000000000000E+00 -0.0000000000000E+00 -0.0000000000000E+00 -0.0000000000000E+00 -0.0000000000000E+00 -0.0000000000000E+00 -0.0000000000000E+00 -0.0000000000000E+00 -0.0000000000000E+00 
 7.2440786946225E+03  1.4488157389245E+04  1.4488157389245E+04  1.4488157389245E+04  1.4488157389245E+04  1.4488157389245E+04  1.4488157389245E+04  1.4488157389245E+04  1.4488157389245E+04  7.2440786946225E+03 
 4.9259735123433E+04  9.8519470246865E+04  9.8519470246866E+04  9.8519470246865E+04  9.8519470246866E+04  9.8519470246866E+04  9.8519470246865E+04  9.8519470246866E+04  9.8519470246865E+04  4.9259735123433E+04 
 5.6503813818055E+04  1.1300762763611E+05  1.1300762763611E+05  1.1300762763611E+05  1.1300762763611E+05  1.1300762763611E+05  1.1300762763611E+05  1.1300762763611E+05  1.1300762763611E+05  5.6503813818055E+04 
 3.5000000000000E-01  3.5000000000000E-01  3.5000000000000E-01  3.5000000000000E-01  3.5000000000000E-01  3.5000000000000E-01  3.5000000000000E-01  3.5000000000000E-01  3.5000000000000E-01  3.5000000000000E-01 
 6.6040000000000E+00  1.3208000000000E+01  1.3208000000000E+01  1.3208000000000E+01  1.3208000000000E+01  1.3208000000000E+01  1.3208000000000E+01  1.3208000000000E+01  1.3208000000000E+01  6.6040000000000E+00 
-3.6078675341780E-02 -3.6078675341780E-02 -3.6078675341780E-02 -3.6078675341780E-02 -3.6078675341780E-02 -3.6078675341780E-02 -3.6078675341780E-02 -3.6078675341780E-02 -3.6078675341780E-02 -3.6078675341780E-02 
 3.3866666666667E-05  6.7733333333333E-05  6.7733333333334E-05  6.7733333333333E-05  6.7733333333334E-05  6.7733333333334E-05  6.7733333333333E-05  6.7733333333334E-05  6.7733333333333E-05  3.3866666666667E-05 
 2.6603001364256E+01  2.6603001364256E+01  2.6603001364256E+01  2.6603001364256E+01  2.6603001364256E+01  2.6603001364256E+01  2.6603001364256E+01  2.6603001364256E+01  2.6603001364256E+01  2.6603001364256E+01 
 1.7735334242838E+01  1.7735334242838E+01  1.7735334242838E+01  1.7735334242838E+01  1.7735334242838E+01  1.7735334242838E+01  1.7735334242838E+01  1.7735334242838E+01  1.7735334242838E+01  1.7735334242838E+01 
 0.0000000000000E+00  0.0000000000000E+00  0.0000000000000E+00  0.0000000000000E+00  0.0000000000000E+00  0.0000000000000E+00  0.0000000000000E+00  0.0000000000000E+00  0.0000000000000E+00  0.0000000000000E+00 
 0.0000000000000E+00  0.0000000000000E+00  0.0000000000000E+00  0.0000000000000E+00  0.0000000000000E+00  0.0000000000000E+00  0.0000000000000E+00  0.0000000000000E+00  0.0000000000000E+00  0.0000000000000E+00 
 0.0000000000000E+00  0.0000000000000E+00  0.0000000000000E+00  0.0000000000000E+00  0.0000000000000E+00  0.0000000000000E+00  0.0000000000000E+00  0.0000000000000E+00  0.0000000000000E+00  0.0000000000000E+00 
 0.0000000000000E+00  0.0000000000000E+00  0.0000000000000E+00  0.0000000000000E+00  0.0000000000000E+00  0.0000000000000E+00  0.0000000000000E+00  0.0000000000000E+00  0.0000000000000E+00  0.0000000000000E+00 
 0.0000000000000E+00  0.0000000000000E+00  0.0000000000000E+00  0.0000000000000E+00  0.0000000000000E+00  0.0000000000000E+00  0.0000000000000E+00  0.0000000000000E+00  0.0000000000000E+00  0.0000000000000E+00 
 0.0000000000000E+00  0.0000000000000E+00  0.0000000000000E+00  0.0000000000000E+00  0.0000000000000E+00  0.0000000000000E+00  0.0000000000000E+00  0.0000000000000E+00  0.0000000000000E+00  0.0000000000000E+00 
 0.0000000000000E+00  0.0000000000000E+00  0.0000000000000E+00  0.0000000000000E+00  0.0000000000000E+00  0.0000000000000E+00  0.0000000000000E+00  0.0000000000000E+00  0.0000000000000E+00  0.0000000000000E+00 
ZONE T = "CATH, 1.0000E-08", I = 10, SOLUTIONTIME = 1.000000E-08
ZONETYPE = ORDERED
DATAPACKING = BLOCK
STRANDID = 3
 1.2700000000000E-03  1.3377333333333E-03  1.4054666666667E-03  1.4732000000000E-03  1.5409333333333E-03  1.6086666666667E-03  1.6764000000000E-03  1.7441333333333E-03  1.8118666666667E-03  1.8796000000000E-03 
 1.9687005855036E-08  1.7373456108671E-08  1.5059622409073E-08  1.2745308852388E-08  1.0430319346739E-08  8.1144575872463E-09  5.7975270107754E-09  3.4793307160402E-09  1.1596745024995E-09 -1.2712270888370E-12 
 9.2000000000032E-01  9.2000000000090E-01  9.2000000000090E-01  9.2000000000090E-01  9.2000000000090E-01  9.2000000000090E-01  9.2000000000090E-01  9.2000000000090E-01  9.2000000000090E-01  9.2000000000090E-01 
 3.9999999999841E-02  3.9999999999551E-02  3.9999999999551E-02  3.9999999999551E-02  3.9999999999551E-02  3.9999999999551E-02  3.9999999999550E-02  3.9999999999550E-02  3.9999999999550E-02  3.9999999999550E-02 
 3.9999999999841E-02  3.9999999999551E-02  3.9999999999551E-02  3.9999999999551E-02  3.9999999999551E-02  3.9999999999551E-02  3.9999999999550E-02  3.9999999999550E-02  3.9999999999550E-02  3.9999999999550E-02 
 2.9186677489402E-02  2.9186470657391E-02  2.9186288130449E-02  2.9186129911562E-02  2.9185996005770E-02  2.9185886420175E-02  2.9185801163941E-02  2.9185740248295E-02  2.9185703686536E-02  2.9185691494017E-02 
 3.8001744921762E+00  3.8001723391410E+00  3.8001658798704E+00  3.8001551138358E+00  3.8001400401441E+00  3.8001206575372E+00  3.8000969643915E+00  3.8000689587175E+00  3.8000366381595E+00  3.8000000000000E+00 
 2.9815000116435E+02  2.9815000424483E+02  2.9815000433767E+02  2.9815000429795E+02  2.9815000430647E+02  2.9815000433277E+02  2.9815000424830E+02  2.9815000401012E+02  2.9814998673683E+02  2.9814916184150E+02 
 3.7709878146868E+00  3.7709858684836E+00  3.7709795917399E+00  3.7709689839243E+00  3.7709540441384E+00  3.7709347711170E+00  3.7709111632275E+00  3.7708832184692E+00  3.7708509344730E+00  3.7708143085060E+00 
 3.9714142703889E+00  3.9714142679022E+00  3.9714142678272E+00  3.9714142678593E+00  3.9714142678524E+00  3.9714142678312E+00  3.9714142678993E+00  3.9714142680916E+00  3.9714142820344E+00  3.9714149478780E+00 
-2.0042645570206E-01 -2.0042839941854E-01 -2.0043467608728E-01 -2.0044528393502E-01 -2.0046022371403E-01 -2.0047949671415E-01 -2.0050310467183E-01 -2.0053104962238E-01 -2.0056334756142E-01 -2.0060063937204E-01 
-1.6679139505375E+00 -3.3359551670115E+00 -3.3363630402104E+00 -3.3370524146983E+00 -3.3380235709968E+00 -3.3392768288334E+00 -3.3408125773313E+00 -3.3426313239893E+00 -3.3447291996233E+00 -1.6734483841555E+00 
 1.4692486287788E-07  1.2965943381876E-07  1.1239201816092E-07  9.5121021491004E-08  7.7844980417274E-08  6.0562429992475E-08  4.3271903320955E-08  2.5971930987984E-08  8.6610637273573E-09  8.6610637273573E-09 
 3.0020078048131E+01  2.6686316143232E+01  2.3354415778213E+01  2.0021965440788E+01  1.6688682876929E+01  1.3354285545252E+01  1.0018490565689E+01  6.6810146277348E+00  3.3415761224310E+00  0.0000000000000E+00 
 0.0000000000000E+00  3.3316320660079E+00  6.6635324294659E+00  9.9959827667920E+00  1.3329265330601E+01  1.6663662662120E+01  1.9999457641701E+01  2.3336933579864E+01  2.6676372085168E+01  3.0020065321721E+01 
 1.6679139505375E-08  3.3359551670115E-08  3.3363630402104E-08  3.3370524146983E-08  3.3380235709968E-08  3.3392768288334E-08  3.3408125773313E-08  3.3426313239893E-08  3.3447291996233E-08  1.6734483841555E-08 
 7.2440786946392E+03  1.4488157389278E+04  1.4488157389278E+04  1.4488157389278E+04  1.4488157389278E+04  1.4488157389278E+04  1.4488157389278E+04  1.4488157389278E+04  1.4488157389278E+04  7.2440786946392E+03 
 4.9259735123416E+04  9.8519470246832E+04  9.8519470246832E+04  9.8519470246832E+04  9.8519470246832E+04  9.8519470246832E+04  9.8519470246832E+04  9.8519470246832E+04  9.8519470246832E+04  4.9259735123416E+04 
 5.6503813818055E+04  1.1300762763611E+05  1.1300762763611E+05  1.1300762763611E+05  1.1300762763611E+05  1.1300762763611E+05  1.1300762763611E+05  1.1300762763611E+05  1.1300762763611E+05  5.6503813818055E+04 
 3.5000000000000E-01  3.5000000000000E-01  3.5000000000000E-01  3.5000000000000E-01  3.5000000000000E-01  3.5000000000000E-01  3.5000000000000E-01  3.5000000000000E-01  3.5000000000000E-01  3.5000000000000E-01 
 6.6040000000000E+00  1.3208000000000E+01  1.3208000000000E+01  1.3208000000000E+01  1.3208000000000E+01  1.3208000000000E+01  1.3208000000000E+01  1.3208000000000E+01  1.3208000000000E+01  6.6040000000000E+00 
-2.5256116755564E-01 -2.5257080307477E-01 -2.5260168384391E-01 -2.5265387755135E-01 -2.5272740543585E-01 -2.5282229170453E-01 -2.5293856581854E-01 -2.5307626620149E-01 -2.5323509991091E-01 -2.5339921019919E-01 
 3.3866666666667E-05  6.7733333333333E-05  6.7733333333334E-05  6.7733333333333E-05  6.7733333333334E-05  6.7733333333334E-05  6.7733333333333E-05  6.7733333333334E-05  6.7733333333333E-05  3.3866666666667E-05 
 2.6603001364262E+01  2.6603001364262E+01  2.6603001364262E+01  2.6603001364262E+01  2.6603001364262E+01  2.6603001364262E+01  2.6603001364262E+01  2.6603001364262E+01  2.6603001364262E+01  2.6603001364262E+01 
 1.7735334242833E+01  1.7735334242833E+01  1.7735334242833E+01  1.7735334242833E+01  1.7735334242833E+01  1.7735334242833E+01  1.7735334242833E+01  1.7735334242833E+01  1.7735334242833E+01  1.7735334242833E+01 
 2.1723518428598E-04  2.1724645330888E-04  2.1728228197146E-04  2.1734284048234E-04  2.1742815375731E-04  2.1753825195077E-04  2.1767317244297E-04  2.1783296306264E-04  2.1801738712677E-04  2.1819357253389E-04 
 2.1723518428598E+04  2.1724645330888E+04  2.1728228197146E+04  2.1734284048234E+04  2.1742815375731E+04  2.1753825195077E+04  2.1767317244297E+04  2.1783296306264E+04  2.1801738712677E+04  2.1819357253389E+04 
 8.6576798318676E-02  7.7000821908086E-02  5.9043441818171E-02  4.3475089923101E-02  3.0295936225882E-02  1.9506960704111E-02  1.1109955051604E-02  5.1075245110258E-03  1.5030910144231E-03  3.0085244619247E-04 
 5.2950174630927E-02  2.6476304887989E-01  9.0027072481874E-01  1.9596830399314E+00  3.4433534297101E+00  5.3517792058619E+00  7.6856018847247E+00  1.0445607621081E+01  1.3632725334749E+01  1.5333187091127E+01 
 2.1723378901625E+04  2.1724303567018E+04  2.1727268882979E+04  2.1732280890104E+04  2.1739341726365E+04  2.1748453908911E+04  2.1759620532458E+04  2.1772845591118E+04  2.1788104484252E+04  2.1804023765445E+04 
 9.8708882339293E+03  9.8713605510397E+03  9.8728766526835E+03  9.8754392535120E+03  9.8790494853200E+03  9.8837087308273E+03  9.8894187088967E+03  9.8961816127146E+03  9.9039874748598E+03  9.9122484985681E+03 
 1.1852490667696E+04  1.1852943015978E+04  1.1854392230296E+04  1.1856841636592E+04  1.1860292241045E+04  1.1864745178084E+04  1.1870201823561E+04  1.1876663978404E+04  1.1884117009392E+04  1.1891775266877E+04 
ZONE T = "CATH, 2.0000E-08", I = 10, SOLUTIONTIME = 2.000000E-08
ZONETYPE = ORDERED
DATAPACKING = BLOCK
STRANDID = 3
 1.2700000000000E-03  1.3377333333333E-03  1.4054666666667E-03  1.4732000000000E-03  1.5409333333333E-03  1.6086666666667E-03  1.6764000000000E-03  1.7441333333333E-03  1.8118666666667E-03  1.8796000000000E-03 
 1.9704871944455E-08  1.7388865042136E-08  1.5072937872024E-08  1.2756531594859E-08  1.0439813599981E-08  8.1211349997099E-09  5.8013890978653E-09  3.4818322374189E-09  1.1593705611070E-09 -2.3608502307823E-12 
 9.2000000000063E-01  9.2000000000180E-01  9.2000000000180E-01  9.2000000000180E-01  9.2000000000180E-01  9.2000000000180E-01  9.2000000000180E-01  9.2000000000180E-01  9.2000000000180E-01  9.2000000000180E-01 
 3.9999999999683E-02  3.9999999999102E-02  3.9999999999102E-02  3.9999999999101E-02  3.9999999999101E-02  3.9999999999101E-02  3.9999999999100E-02  3.9999999999100E-02  3.9999999999099E-02  3.9999999999099E-02 
 3.9999999999683E-02  3.9999999999102E-02  3.9999999999102E-02  3.9999999999101E-02  3.9999999999101E-02  3.9999999999101E-02  3.9999999999100E-02  3.9999999999100E-02  3.9999999999099E-02  3.9999999999099E-02 
 2.9176600980174E-02  2.9176393929942E-02  2.9176211210594E-02  2.9176052825108E-02  2.9175918778520E-02  2.9175809077918E-02  2.9175723732454E-02  2.9175662753340E-02  2.9175626153856E-02  2.9175613949284E-02 
 3.8001746772523E+00  3.8001725219306E+00  3.8001660558001E+00  3.8001552783329E+00  3.8001401886374E+00  3.8001207854572E+00  3.8000970671713E+00  3.8000690317931E+00  3.8000366769702E+00  3.8000000000000E+00 
 2.9815000224593E+02  2.9815000847483E+02  2.9815000864796E+02  2.9815000866270E+02  2.9815000865591E+02  2.9815000868500E+02  2.9815000857857E+02  2.9815000729428E+02  2.9814995754981E+02  2.9814836201408E+02 
 3.7709980762721E+00  3.7709961280007E+00  3.7709898445895E+00  3.7709792255078E+00  3.7709642698588E+00  3.7709449763793E+00  3.7709213434389E+00  3.7708933690397E+00  3.7708610508163E+00  3.7708243860507E+00 
 3.9714142695156E+00  3.9714142644874E+00  3.9714142643476E+00  3.9714142643357E+00  3.9714142643412E+00  3.9714142643177E+00  3.9714142644036E+00  3.9714142654403E+00  3.9714143055933E+00  3.9714155934863E+00 
-2.0041619324356E-01 -2.0041813648670E-01 -2.0042441975818E-01 -2.0043503882797E-01 -2.0044999448238E-01 -2.0046928793843E-01 -2.0049292096478E-01 -2.0052089640058E-01 -2.0055325477704E-01 -2.0059120743558E-01 
-1.6675807727849E+00 -3.3352897545000E+00 -3.3356980009254E+00 -3.3363879847352E+00 -3.3373599750306E+00 -3.3386143151532E+00 -3.3401513833044E+00 -3.3419714222582E+00 -3.3440624900504E+00 -1.6730136844842E+00 
 1.4708000853184E-07  1.2979610992992E-07  1.1251036086869E-07  9.5221036394685E-08  7.7926675152839E-08  6.0625814058363E-08  4.3316988009408E-08  2.5998730706926E-08  8.6696376495588E-09  8.6696376495588E-09 
 3.0049657843871E+01  2.6714459867825E+01  2.3379021347992E+01  2.0043033738623E+01  1.6706215179547E+01  1.3368283505483E+01  1.0028956189920E+01  6.6879503958500E+00  3.3449891359415E+00  0.0000000000000E+00 
 0.0000000000000E+00  3.3351703050738E+00  6.6706088247932E+00  1.0006596434673E+01  1.3343414993575E+01  1.6681346667531E+01  2.0020673983338E+01  2.3361679777195E+01  2.6704641036919E+01  3.0049658094937E+01 
 3.3354947233224E-08  6.6712449215115E-08  6.6720610411359E-08  6.6734403994334E-08  6.6753835460274E-08  6.6778911439866E-08  6.6809639606358E-08  6.6846027462475E-08  6.6887916896737E-08  3.3464620686396E-08 
 7.2440786946558E+03  1.4488157389312E+04  1.4488157389312E+04  1.4488157389312E+04  1.4488157389312E+04  1.4488157389312E+04  1.4488157389312E+04  1.4488157389312E+04  1.4488157389312E+04  7.2440786946559E+03 
 4.9259735123400E+04  9.8519470246798E+04  9.8519470246799E+04  9.8519470246798E+04  9.8519470246799E+04  9.8519470246799E+04  9.8519470246798E+04  9.8519470246799E+04  9.8519470246798E+04  4.9259735123399E+04 
 5.6503813818055E+04  1.1300762763611E+05  1.1300762763611E+05  1.1300762763611E+05  1.1300762763611E+05  1.1300762763611E+05  1.1300762763611E+05  1.1300762763611E+05  1.1300762763611E+05  5.6503813818055E+04 
 3.5000000000000E-01  3.5000000000000E-01  3.5000000000000E-01  3.5000000000000E-01  3.5000000000000E-01  3.5000000000000E-01  3.5000000000000E-01  3.5000000000000E-01  3.5000000000000E-01  3.5000000000000E-01 
 6.6040000000000E+00  1.3208000000000E+01  1.3208000000000E+01  1.3208000000000E+01  1.3208000000000E+01  1.3208000000000E+01  1.3208000000000E+01  1.3208000000000E+01  1.3208000000000E+01  6.6040000000000E+00 
-2.5251071665428E-01 -2.5252042356905E-01 -2.5255133259581E-01 -2.5260357243604E-01 -2.5267716346386E-01 -2.5277213167423E-01 -2.5288850570143E-01 -2.5302630392627E-01 -2.5318462220248E-01 -2.5333338650578E-01 
 3.3866666666667E-05  6.7733333333333E-05  6.7733333333334E-05  6.7733333333333E-05  6.7733333333334E-05  6.7733333333334E-05  6.7733333333333E-05  6.7733333333334E-05  6.7733333333333E-05  3.3866666666667E-05 
 2.6603001364267E+01  2.6603001364267E+01  2.6603001364267E+01  2.6603001364267E+01  2.6603001364267E+01  2.6603001364267E+01  2.6603001364267E+01  2.6603001364267E+01  2.6603001364267E+01  2.6603001364267E+01 
 1.7735334242827E+01  1.7735334242827E+01  1.7735334242827E+01  1.7735334242827E+01  1.7735334242827E+01  1.7735334242827E+01  1.7735334242827E+01  1.7735334242827E+01  1.7735334242827E+01  1.7735334242827E+01 
 4.3442192489386E-04  4.3444452967602E-04  4.3451622648947E-04  4.3463740883992E-04  4.3480812581196E-04  4.3502843926684E-04  4.3529842325350E-04  4.3561815606585E-04  4.3598663460937E-04  4.3632575219163E-04 
 2.1718674060788E+04  2.1719807636713E+04  2.1723394451801E+04  2.1729456835758E+04  2.1737997205465E+04  2.1749018731607E+04  2.1762525081052E+04  2.1778519300321E+04  2.1796924748260E+04  2.1813217965774E+04 
 8.6759581304719E-02  7.7163324953277E-02  5.9167926187614E-02  4.3566638173315E-02  3.0359630846852E-02  1.9547883578559E-02  1.1133187166367E-02  5.1181458622207E-03  1.5061816964296E-03  3.0144796450020E-04 
 5.3062695821808E-02  2.6532571765369E-01  9.0218381680283E-01  1.9638467421670E+00  3.4506677661703E+00  5.3631440025707E+00  7.7019167461292E+00  1.0467771786772E+01  1.3661633112309E+01  1.5365689080317E+01 
 2.1718534238511E+04  2.1719465147671E+04  2.1722433100058E+04  2.1727449422378E+04  2.1734516178068E+04  2.1743636039721E+04  2.1754812031119E+04  2.1768046410388E+04  2.1783261608966E+04  2.1797851975246E+04 
 9.8684111340905E+03  9.8688861797398E+03  9.8704035874747E+03  9.8729683356279E+03  9.8765815243343E+03  9.8812446032595E+03  9.8869592613811E+03  9.8937269488775E+03  9.9015150082439E+03  9.9092077271872E+03 
 1.1850123104420E+04  1.1850578967931E+04  1.1852029512583E+04  1.1854481086750E+04  1.1857934653734E+04  1.1862391436461E+04  1.1867852769738E+04  1.1874319461511E+04  1.1881746600722E+04  1.1888644248059E+04 
ZONE T = "CATH, 3.0000E-08", I = 10, SOLUTIONTIME = 3.000000E-08
ZONETYPE = ORDERED
DATAPACKING = BLOCK
STRANDID = 3
 1.2700000000000E-03  1.3377333333333E-03  1.4054666666667E-03  1.4732000000000E-03  1.5409333333333E-03  1.6086666666667E-03  1.6764000000000E-03  1.7441333333333E-03  1.8118666666667E-03  1.8796000000000E-03 
 1.9709119432948E-08  1.7392433424269E-08  1.5075463808027E-08  1.2758014926570E-08  1.0439890875538E-08  8.1212587493851E-09  5.8001061345380E-09  3.4795056888140E-09  1.1574612986071E-09 -4.3584927347240E-12 
 9.2000000000095E-01  9.2000000000270E-01  9.2000000000270E-01  9.2000000000270E-01  9.2000000000270E-01  9.2000000000270E-01  9.2000000000270E-01  9.2000000000270E-01  9.2000000000270E-01  9.2000000000270E-01 
 3.9999999999524E-02  3.9999999998652E-02  3.9999999998652E-02  3.9999999998652E-02  3.9999999998651E-02  3.9999999998651E-02  3.9999999998650E-02  3.9999999998650E-02  3.9999999998649E-02  3.9999999998648E-02 
 3.9999999999524E-02  3.9999999998652E-02  3.9999999998652E-02  3.9999999998652E-02  3.9999999998651E-02  3.9999999998651E-02  3.9999999998650E-02  3.9999999998650E-02  3.9999999998649E-02  3.9999999998648E-02 
 2.9181484836976E-02  2.9181277759291E-02  2.9181095015806E-02  2.9180936609506E-02  2.9180802545424E-02  2.9180692830655E-02  2.9180607474350E-02  2.9180546487727E-02  2.9180509884070E-02  2.9180497678586E-02 
 3.8001747010756E+00  3.8001725454606E+00  3.8001660784486E+00  3.8001552995117E+00  3.8001402077580E+00  3.8001208019307E+00  3.8000970804081E+00  3.8000690412030E+00  3.8000366819628E+00  3.8000000000000E+00 
 2.9815000334745E+02  2.9815001262217E+02  2.9815001297715E+02  2.9815001295334E+02  2.9815001301219E+02  2.9815001305020E+02  2.9815001288989E+02  2.9815000968808E+02  2.9814991364031E+02  2.9814759795668E+02 
 3.7709932162387E+00  3.7709912677013E+00  3.7709849834328E+00  3.7709743629022E+00  3.7709594052126E+00  3.7709401091001E+00  3.7709164729338E+00  3.7708884947152E+00  3.7708561720787E+00  3.7708195023214E+00 
 3.9714142686263E+00  3.9714142611394E+00  3.9714142608528E+00  3.9714142608720E+00  3.9714142608245E+00  3.9714142607938E+00  3.9714142609232E+00  3.9714142635077E+00  3.9714143410361E+00  3.9714162102210E+00 
-2.0042105238766E-01 -2.0042299343806E-01 -2.0042927742005E-01 -2.0043989796979E-01 -2.0045485561192E-01 -2.0047415169376E-01 -2.0049778798946E-01 -2.0052576879245E-01 -2.0055816895738E-01 -2.0059670789963E-01 
-1.6677387759920E+00 -3.3356065972292E+00 -3.3360149862524E+00 -3.3367051194570E+00 -3.3376773520373E+00 -3.3389319848285E+00 -3.3404693945555E+00 -3.3422893461314E+00 -3.3443686018826E+00 -1.6730713065541E+00 
 1.4709964154700E-07  1.2981325291142E-07  1.1252514542101E-07  9.5233461348771E-08  7.7936738681052E-08  6.0633513921086E-08  4.3322321547995E-08  2.6001697323741E-08  8.6702973105831E-09  8.6702973105831E-09 
 3.0053578852664E+01  2.6717995413754E+01  2.3382101879588E+01  2.0045659046947E+01  1.6708384974985E+01  1.3369997395885E+01  1.0030213702199E+01  6.6887512158228E+00  3.3453389957416E+00  0.0000000000000E+00 
 0.0000000000000E+00  3.3356247977660E+00  6.6715183317439E+00  1.0007961164611E+01  1.3345235236662E+01  1.6683622815799E+01  2.0023406509393E+01  2.3364868995764E+01  2.6708281215925E+01  3.0053578481160E+01 
 5.0032334993144E-08  1.0006851518741E-07  1.0008076027388E-07  1.0010145518890E-07  1.0013060898065E-07  1.0016823128815E-07  1.0021433355191E-07  1.0026892092379E-07  1.0033160291556E-07  5.0195333751938E-08 
 7.2440786946725E+03  1.4488157389345E+04  1.4488157389345E+04  1.4488157389345E+04  1.4488157389345E+04  1.4488157389345E+04  1.4488157389345E+04  1.4488157389345E+04  1.4488157389345E+04  7.2440786946727E+03 
 4.9259735123383E+04  9.8519470246765E+04  9.8519470246766E+04  9.8519470246765E+04  9.8519470246766E+04  9.8519470246766E+04  9.8519470246765E+04  9.8519470246765E+04  9.8519470246765E+04  4.9259735123383E+04 
 5.6503813818055E+04  1.1300762763611E+05  1.1300762763611E+05  1.1300762763611E+05  1.1300762763611E+05  1.1300762763611E+05  1.1300762763611E+05  1.1300762763611E+05  1.1300762763611E+05  5.6503813818055E+04 
 3.5000000000000E-01  3.5000000000000E-01  3.5000000000000E-01  3.5000000000000E-01  3.5000000000000E-01  3.5000000000000E-01  3.5000000000000E-01  3.5000000000000E-01  3.5000000000000E-01  3.5000000000000E-01 
 6.6040000000000E+00  1.3208000000000E+01  1.3208000000000E+01  1.3208000000000E+01  1.3208000000000E+01  1.3208000000000E+01  1.3208000000000E+01  1.3208000000000E+01  1.3208000000000E+01  6.6040000000000E+00 
-2.5253464203392E-01 -2.5254441226750E-01 -2.5257533209058E-01 -2.5262758324175E-01 -2.5270119261336E-01 -2.5279618298217E-01 -2.5291258287065E-01 -2.5305037447997E-01 -2.5320779844660E-01 -2.5334211183436E-01 
 3.3866666666667E-05  6.7733333333333E-05  6.7733333333334E-05  6.7733333333333E-05  6.7733333333334E-05  6.7733333333334E-05  6.7733333333333E-05  6.7733333333334E-05  6.7733333333333E-05  3.3866666666667E-05 
 2.6603001364272E+01  2.6603001364272E+01  2.6603001364272E+01  2.6603001364272E+01  2.6603001364272E+01  2.6603001364272E+01  2.6603001364272E+01  2.6603001364272E+01  2.6603001364272E+01  2.6603001364272E+01 
 1.7735334242822E+01  1.7735334242822E+01  1.7735334242822E+01  1.7735334242822E+01  1.7735334242822E+01  1.7735334242822E+01  1.7735334242822E+01  1.7735334242822E+01  1.7735334242822E+01  1.7735334242822E+01 
 6.5163163760394E-04  6.5166563385676E-04  6.5177321082815E-04  6.5195503130337E-04  6.5221117418627E-04  6.5254173026088E-04  6.5294681015318E-04  6.5342649127337E-04  6.5397826286797E-04  6.5446779762501E-04 
 2.1720971271009E+04  2.1722110418075E+04  2.1725698433868E+04  2.1731762246345E+04  2.1740304837431E+04  2.1751329099404E+04  2.1764838689968E+04  2.1780833520752E+04  2.1799162825860E+04  2.1814204543338E+04 
 8.6782589436278E-02  7.7183754075877E-02  5.9183523361121E-02  4.3578055874724E-02  3.0367521988275E-02  1.9552901538985E-02  1.1135986235343E-02  5.1193817695410E-03  1.5065136681600E-03  3.0149342382099E-04 
 5.3077145493441E-02  2.6539804919831E-01  9.0242986068022E-01  1.9643824595537E+00  3.4516092903669E+00  5.3646077090551E+00  7.7040193094232E+00  1.0470630013431E+01  1.3665357531412E+01  1.5369872666783E+01 
 2.1720831411274E+04  2.1721767836271E+04  2.1724736820484E+04  2.1729754285830E+04  2.1736822860618E+04  2.1745944938793E+04  2.1757123534672E+04  2.1770357771357E+04  2.1785495961815E+04  2.1798834369177E+04 
 9.8695854505571E+03  9.8700628811425E+03  9.8715808044976E+03  9.8741461668337E+03  9.8777603102772E+03  9.8824245652943E+03  9.8881406169662E+03  9.8949085727479E+03  9.9026640223389E+03  9.9098207532451E+03 
 1.1851245960717E+04  1.1851704955129E+04  1.1853156015986E+04  1.1855608118996E+04  1.1859062550341E+04  1.1863520373499E+04  1.1868982917706E+04  1.1875449198609E+04  1.1882831939476E+04  1.1889013615932E+04 
ZONE T = "CATH, 4.0000E-08", I = 10, SOLUTIONTIME = 4.000000E-08
ZONETYPE = ORDERED
DATAPACKING = BLOCK
STRANDID = 3
 1.2700000000000E-03  1.3377333333333E-03  1.4054666666667E-03  1.4732000000000E-03  1.5409333333333E-03  1.6086666666667E-03  1.6764000000000E-03  1.7441333333333E-03  1.8118666666667E-03  1.8796000000000E-03 
 1.9712036552560E-08  1.7395874355966E-08  1.5079428454668E-08  1.2762503216563E-08  1.0444902709481E-08  8.1264308080221E-09  5.8065279153058E-09  3.4849983629690E-09  1.1620354337273E-09  1.8160386390492E-13 
 9.2000000000127E-01  9.2000000000359E-01  9.2000000000359E-01  9.2000000000360E-01  9.2000000000360E-01  9.2000000000360E-01  9.2000000000360E-01  9.2000000000360E-01  9.2000000000360E-01  9.2000000000361E-01 
 3.9999999999365E-02  3.9999999998203E-02  3.9999999998203E-02  3.9999999998202E-02  3.9999999998202E-02  3.9999999998201E-02  3.9999999998200E-02  3.9999999998199E-02  3.9999999998198E-02  3.9999999998197E-02 
 3.9999999999365E-02  3.9999999998203E-02  3.9999999998203E-02  3.9999999998202E-02  3.9999999998202E-02  3.9999999998201E-02  3.9999999998200E-02  3.9999999998199E-02  3.9999999998198E-02  3.9999999998197E-02 
 2.9187178742306E-02  2.9186971647328E-02  2.9186788888679E-02  2.9186630469343E-02  2.9186496394357E-02  2.9186386670814E-02  2.9186301307869E-02  2.9186240316740E-02  2.9186203710710E-02  2.9186191504885E-02 
 3.8001747163362E+00  3.8001725605331E+00  3.8001660929559E+00  3.8001553130766E+00  3.8001402200030E+00  3.8001208124782E+00  3.8000970888803E+00  3.8000690472218E+00  3.8000366851510E+00  3.8000000000000E+00 