TITLE = "Solution on Domain BulkDomain1D_1"
VARIABLES = "x [m]"  
"Vel_axial" 	"MF_sp(ECDMC)" 	"MF_sp(Li+)" 	"MF_sp(PF6-)" 	"Volt(Electroly)" 	"Temperature" 	"Porosity []" 	"Control volume thickness [m]" 	"volFrac MgO(S) []" 	"qHeat_accum [J/m3]" 	"qHeat_step [W/m3]" 	"Joule_Lyte [W/m3]" 	"Joule_Solid [W/m3]" 	
ZONE T = "SEP , 0.0000E+00", I = 10, SOLUTIONTIME = 0.000000E+00
ZONETYPE = ORDERED
DATAPACKING = BLOCK
STRANDID = 2
 7.8740000000000E-04  8.4102222222222E-04  8.9464444444444E-04  9.4826666666667E-04  1.0018888888889E-03  1.0555111111111E-03  1.1091333333333E-03  1.1627555555556E-03  1.2163777777778E-03  1.2700000000000E-03 
 0.0000000000000E+00  0.0000000000000E+00  0.0000000000000E+00  0.0000000000000E+00  0.0000000000000E+00  0.0000000000000E+00  0.0000000000000E+00  0.0000000000000E+00  0.0000000000000E+00  0.0000000000000E+00 
 9.2000000000000E-01  9.2000000000000E-01  9.2000000000000E-01  9.2000000000000E-01  9.2000000000000E-01  9.2000000000000E-01  9.2000000000000E-01  9.2000000000000E-01  9.2000000000000E-01  9.2000000000000E-01 
 4.0000000000000E-02  4.0000000000000E-02  4.0000000000000E-02  4.0000000000000E-02  4.0000000000000E-02  4.0000000000000E-02  4.0000000000000E-02  4.0000000000000E-02  4.0000000000000E-02  4.0000000000000E-02 
 4.0000000000000E-02  4.0000000000000E-02  4.0000000000000E-02  4.0000000000000E-02  4.0000000000000E-02  4.0000000000000E-02  4.0000000000000E-02  4.0000000000000E-02  4.0000000000000E-02  4.0000000000000E-02 
-7.0000000000000E-02 -7.0000000000000E-02 -7.0000000000000E-02 -7.0000000000000E-02 -7.0000000000000E-02 -7.0000000000000E-02 -7.0000000000000E-02 -7.0000000000000E-02 -7.0000000000000E-02 -7.0000000000000E-02 
 2.9815000000000E+02  2.9815000000000E+02  2.9815000000000E+02  2.9815000000000E+02  2.9815000000000E+02  2.9815000000000E+02  2.9815000000000E+02  2.9815000000000E+02  2.9815000000000E+02  2.9815000000000E+02 
 8.0911499769706E-01  8.0911499769706E-01  8.0911499769706E-01  8.0911499769706E-01  8.0911499769706E-01  8.0911499769706E-01  8.0911499769706E-01  8.0911499769706E-01  8.0911499769706E-01  8.0911499769706E-01 
 2.6811111111111E-05  5.3622222222222E-05  5.3622222222222E-05  5.3622222222222E-05  5.3622222222222E-05  5.3622222222222E-05  5.3622222222222E-05  5.3622222222223E-05  5.3622222222222E-05  2.6811111111111E-05 
 1.9088500230294E-01  1.9088500230294E-01  1.9088500230294E-01  1.9088500230294E-01  1.9088500230294E-01  1.9088500230294E-01  1.9088500230294E-01  1.9088500230294E-01  1.9088500230294E-01  1.9088500230294E-01 
 0.0000000000000E+00  0.0000000000000E+00  0.0000000000000E+00  0.0000000000000E+00  0.0000000000000E+00  0.0000000000000E+00  0.0000000000000E+00  0.0000000000000E+00  0.0000000000000E+00  0.0000000000000E+00 
 0.0000000000000E+00  0.0000000000000E+00  0.0000000000000E+00  0.0000000000000E+00  0.0000000000000E+00  0.0000000000000E+00  0.0000000000000E+00  0.0000000000000E+00  0.0000000000000E+00  0.0000000000000E+00 
 0.0000000000000E+00  0.0000000000000E+00  0.0000000000000E+00  0.0000000000000E+00  0.0000000000000E+00  0.0000000000000E+00  0.0000000000000E+00  0.0000000000000E+00  0.0000000000000E+00  0.0000000000000E+00 
 0.0000000000000E+00  0.0000000000000E+00  0.0000000000000E+00  0.0000000000000E+00  0.0000000000000E+00  0.0000000000000E+00  0.0000000000000E+00  0.0000000000000E+00  0.0000000000000E+00  0.0000000000000E+00 
ZONE T = "SEP , 1.0000E-08", I = 10, SOLUTIONTIME = 1.000000E-08
ZONETYPE = ORDERED
DATAPACKING = BLOCK
STRANDID = 2
 7.8740000000000E-04  8.4102222222222E-04  8.9464444444444E-04  9.4826666666667E-04  1.0018888888889E-03  1.0555111111111E-03  1.1091333333333E-03  1.1627555555556E-03  1.2163777777778E-03  1.2700000000000E-03 
 2.0865060398055E-08  2.0865060398055E-08  2.0865060398055E-08  2.0865060398055E-08  2.0865060398055E-08  2.0865060398055E-08  2.0865060398055E-08  2.0865060398055E-08  2.0865060398055E-08  1.9707213533022E-08 
 9.1999999999971E-01  9.2000000000000E-01  9.2000000000000E-01  9.2000000000000E-01  9.2000000000000E-01  9.2000000000000E-01  9.2000000000000E-01  9.2000000000000E-01  9.2000000000000E-01  9.2000000000032E-01 
 4.0000000000144E-02  4.0000000000000E-02  4.0000000000000E-02  4.0000000000000E-02  4.0000000000000E-02  4.0000000000000E-02  4.0000000000000E-02  4.0000000000000E-02  4.0000000000000E-02  3.9999999999841E-02 
 4.0000000000144E-02  4.0000000000000E-02  4.0000000000000E-02  4.0000000000000E-02  4.0000000000000E-02  4.0000000000000E-02  4.0000000000000E-02  4.0000000000000E-02  4.0000000000000E-02  3.9999999999841E-02 
 2.9171459999817E-02  2.9171410630274E-02  2.9171361260720E-02  2.9171311891163E-02  2.9171262521618E-02  2.9171213152060E-02  2.9171163782515E-02  2.9171114412962E-02  2.9171065043404E-02  2.9171015673860E-02 
 2.9814999952098E+02  2.9814999998809E+02  2.9814999999210E+02  2.9814999999272E+02  2.9814999999152E+02  2.9814999999282E+02  2.9814999999711E+02  2.9814999999922E+02  2.9814999999870E+02  2.9815000103845E+02 
 8.0911499769706E-01  8.0911499769706E-01  8.0911499769706E-01  8.0911499769706E-01  8.0911499769706E-01  8.0911499769706E-01  8.0911499769706E-01  8.0911499769706E-01  8.0911499769706E-01  8.0911499769706E-01 
 2.6811111111111E-05  5.3622222222222E-05  5.3622222222222E-05  5.3622222222222E-05  5.3622222222222E-05  5.3622222222222E-05  5.3622222222222E-05  5.3622222222223E-05  5.3622222222222E-05  2.6811111111111E-05 
 1.9088500230294E-01  1.9088500230294E-01  1.9088500230294E-01  1.9088500230294E-01  1.9088500230294E-01  1.9088500230294E-01  1.9088500230294E-01  1.9088500230294E-01  1.9088500230294E-01  1.9088500230294E-01 
 2.7663862850128E-10  2.7663868749176E-10  2.7663876928523E-10  2.7663871543328E-10  2.7663872037136E-10  2.7663872153649E-10  2.7663868980632E-10  2.7663876801479E-10  2.7663871565232E-10  2.7663863377908E-10 
 2.7663862850128E-02  2.7663868749176E-02  2.7663876928523E-02  2.7663871543328E-02  2.7663872037136E-02  2.7663872153649E-02  2.7663868980632E-02  2.7663876801479E-02  2.7663871565232E-02  2.7663863377908E-02 
 2.7663862850128E-02  2.7663868749176E-02  2.7663876928523E-02  2.7663871543328E-02  2.7663872037136E-02  2.7663872153649E-02  2.7663868980632E-02  2.7663876801479E-02  2.7663871565232E-02  2.7663863377908E-02 
 0.0000000000000E+00  0.0000000000000E+00  0.0000000000000E+00  0.0000000000000E+00  0.0000000000000E+00  0.0000000000000E+00  0.0000000000000E+00  0.0000000000000E+00  0.0000000000000E+00  0.0000000000000E+00 
ZONE T = "SEP , 2.0000E-08", I = 10, SOLUTIONTIME = 2.000000E-08
ZONETYPE = ORDERED
DATAPACKING = BLOCK
STRANDID = 2
 7.8740000000000E-04  8.4102222222222E-04  8.9464444444444E-04  9.4826666666667E-04  1.0018888888889E-03  1.0555111111111E-03  1.1091333333333E-03  1.1627555555556E-03  1.2163777777778E-03  1.2700000000000E-03 
 2.0867089389944E-08  2.0865636559033E-08  2.0865636559033E-08  2.0865636559033E-08  2.0865636559033E-08  2.0865636559033E-08  2.0865636559033E-08  2.0865636559033E-08  2.0865636559033E-08  1.9706755044554E-08 
 9.1999999999942E-01  9.2000000000000E-01  9.2000000000000E-01  9.2000000000000E-01  9.2000000000000E-01  9.2000000000000E-01  9.2000000000000E-01  9.2000000000000E-01  9.2000000000000E-01  9.2000000000064E-01 
 4.0000000000288E-02  4.0000000000000E-02  4.0000000000000E-02  4.0000000000000E-02  4.0000000000000E-02  4.0000000000000E-02  4.0000000000000E-02  4.0000000000000E-02  4.0000000000000E-02  3.9999999999682E-02 
 4.0000000000288E-02  4.0000000000000E-02  4.0000000000000E-02  4.0000000000000E-02  4.0000000000000E-02  4.0000000000000E-02  4.0000000000000E-02  4.0000000000000E-02  4.0000000000000E-02  3.9999999999682E-02 
 2.9176841453947E-02  2.9176792079165E-02  2.9176742704382E-02  2.9176693329599E-02  2.9176643954817E-02  2.9176594580034E-02  2.9176545205251E-02  2.9176495830469E-02  2.9176446455686E-02  2.9176397080903E-02 
 2.9814999910121E+02  2.9814999997405E+02  2.9814999998630E+02  2.9814999999254E+02  2.9814999999137E+02  2.9814999998195E+02  2.9815000000785E+02  2.9815000000492E+02  2.9815000001353E+02  2.9815000213391E+02 
 8.0911499769706E-01  8.0911499769706E-01  8.0911499769706E-01  8.0911499769706E-01  8.0911499769706E-01  8.0911499769706E-01  8.0911499769706E-01  8.0911499769706E-01  8.0911499769706E-01  8.0911499769706E-01 
 2.6811111111111E-05  5.3622222222222E-05  5.3622222222222E-05  5.3622222222222E-05  5.3622222222222E-05  5.3622222222222E-05  5.3622222222222E-05  5.3622222222223E-05  5.3622222222222E-05  2.6811111111111E-05 
 1.9088500230294E-01  1.9088500230294E-01  1.9088500230294E-01  1.9088500230294E-01  1.9088500230294E-01  1.9088500230294E-01  1.9088500230294E-01  1.9088500230294E-01  1.9088500230294E-01  1.9088500230294E-01 
 5.5333597738459E-10  5.5333603657752E-10  5.5333611856915E-10  5.5333606471174E-10  5.5333606967054E-10  5.5333607083430E-10  5.5333603909498E-10  5.5333611733569E-10  5.5333606546899E-10  5.5333598407339E-10 
 2.7669734888331E-02  2.7669734908576E-02  2.7669734928392E-02  2.7669734927846E-02  2.7669734929918E-02  2.7669734929781E-02  2.7669734928866E-02  2.7669734932090E-02  2.7669734981667E-02  2.7669735029431E-02 
 2.7669734888331E-02  2.7669734908576E-02  2.7669734928392E-02  2.7669734927846E-02  2.7669734929918E-02  2.7669734929781E-02  2.7669734928866E-02  2.7669734932090E-02  2.7669734981667E-02  2.7669735029431E-02 
 0.0000000000000E+00  0.0000000000000E+00  0.0000000000000E+00  0.0000000000000E+00  0.0000000000000E+00  0.0000000000000E+00  0.0000000000000E+00  0.0000000000000E+00  0.0000000000000E+00  0.0000000000000E+00 
ZONE T = "SEP , 3.0000E-08", I = 10, SOLUTIONTIME = 3.000000E-08
ZONETYPE = ORDERED
DATAPACKING = BLOCK
STRANDID = 2
 7.8740000000000E-04  8.4102222222222E-04  8.9464444444444E-04  9.4826666666667E-04  1.0018888888889E-03  1.0555111111111E-03  1.1091333333333E-03  1.1627555555556E-03  1.2163777777778E-03  1.2700000000000E-03 
 2.0873380125434E-08  2.0874832956346E-08  2.0874832956346E-08  2.0874832956346E-08  2.0874832956346E-08  2.0874832956346E-08  2.0874832956346E-08  2.0874832956346E-08  2.0874832956346E-08  1.9717282935294E-08 
 9.1999999999914E-01  9.2000000000000E-01  9.2000000000000E-01  9.2000000000000E-01  9.2000000000000E-01  9.2000000000000E-01  9.2000000000000E-01  9.2000000000000E-01  9.2000000000000E-01  9.2000000000095E-01 
 4.0000000000432E-02  4.0000000000000E-02  4.0000000000000E-02  4.0000000000000E-02  4.0000000000000E-02  4.0000000000000E-02  4.0000000000000E-02  4.0000000000000E-02  4.0000000000000E-02  3.9999999999524E-02 
 4.0000000000432E-02  4.0000000000000E-02  4.0000000000000E-02  4.0000000000000E-02  4.0000000000000E-02  4.0000000000000E-02  4.0000000000000E-02  4.0000000000000E-02  4.0000000000000E-02  3.9999999999524E-02 
 2.9182234963466E-02  2.9182185583682E-02  2.9182136203897E-02  2.9182086824113E-02  2.9182037444329E-02  2.9181988064544E-02  2.9181938684760E-02  2.9181889304975E-02  2.9181839925191E-02  2.9181790545406E-02 
 2.9814999864170E+02  2.9814999996844E+02  2.9814999999112E+02  2.9814999998671E+02  2.9814999998539E+02  2.9814999997727E+02  2.9815000000691E+02  2.9815000001655E+02  2.9815000003969E+02  2.9815000324735E+02 
 8.0911499769706E-01  8.0911499769706E-01  8.0911499769706E-01  8.0911499769706E-01  8.0911499769706E-01  8.0911499769706E-01  8.0911499769706E-01  8.0911499769706E-01  8.0911499769706E-01  8.0911499769706E-01 
 2.6811111111111E-05  5.3622222222222E-05  5.3622222222222E-05  5.3622222222222E-05  5.3622222222222E-05  5.3622222222222E-05  5.3622222222222E-05  5.3622222222223E-05  5.3622222222222E-05  2.6811111111111E-05 
 1.9088500230294E-01  1.9088500230294E-01  1.9088500230294E-01  1.9088500230294E-01  1.9088500230294E-01  1.9088500230294E-01  1.9088500230294E-01  1.9088500230294E-01  1.9088500230294E-01  1.9088500230294E-01 
 8.3008938855958E-10  8.3008944804141E-10  8.3008953033713E-10  8.3008947649626E-10  8.3008948145858E-10  8.3008948261954E-10  8.3008945088556E-10  8.3008952912898E-10  8.3008947802082E-10  8.3008939739136E-10 
 2.7675341117499E-02  2.7675341146389E-02  2.7675341176799E-02  2.7675341178452E-02  2.7675341178804E-02  2.7675341178524E-02  2.7675341179058E-02  2.7675341179329E-02  2.7675341255183E-02  2.7675341331797E-02 
 2.7675341117499E-02  2.7675341146389E-02  2.7675341176799E-02  2.7675341178452E-02  2.7675341178804E-02  2.7675341178524E-02  2.7675341179058E-02  2.7675341179329E-02  2.7675341255183E-02  2.7675341331797E-02 
 0.0000000000000E+00  0.0000000000000E+00  0.0000000000000E+00  0.0000000000000E+00  0.0000000000000E+00  0.0000000000000E+00  0.0000000000000E+00  0.0000000000000E+00  0.0000000000000E+00  0.0000000000000E+00 
ZONE T = "SEP , 4.0000E-08", I = 10, SOLUTIONTIME = 4.000000E-08
ZONETYPE = ORDERED
DATAPACKING = BLOCK
STRANDID = 2
 7.8740000000000E-04  8.4102222222222E-04  8.9464444444444E-04  9.4826666666667E-04  1.0018888888889E-03  1.0555111111111E-03  1.1091333333333E-03  1.1627555555556E-03  1.2163777777778E-03  1.2700000000000E-03 
 2.0867871987088E-08  2.0867871987088E-08  2.0867871987088E-08  2.0867871987088E-08  2.0867871987088E-08  2.0867871987088E-08  2.0867871987088E-08  2.0867871987088E-08  2.0867871987088E-08  1.9710563556879E-08 
 9.1999999999885E-01  9.2000000000000E-01  9.2000000000000E-01  9.2000000000000E-01  9.2000000000000E-01  9.2000000000000E-01  9.2000000000000E-01  9.2000000000000E-01  9.2000000000000E-01  9.2000000000127E-01 
 4.0000000000576E-02  4.0000000000000E-02  4.0000000000000E-02  4.0000000000000E-02  4.0000000000000E-02  4.0000000000000E-02  4.0000000000000E-02  4.0000000000000E-02  4.0000000000000E-02  3.9999999999365E-02 
 4.0000000000576E-02  4.0000000000000E-02  4.0000000000000E-02  4.0000000000000E-02  4.0000000000000E-02  4.0000000000000E-02  4.0000000000000E-02  4.0000000000000E-02  4.0000000000000E-02  3.9999999999365E-02 
 2.9187640263527E-02  2.9187590878728E-02  2.9187541493930E-02  2.9187492109131E-02  2.9187442724332E-02  2.9187393339533E-02  2.9187343954734E-02  2.9187294569935E-02  2.9187245185136E-02  2.9187195800337E-02 
 2.9814999820067E+02  2.9814999996107E+02  2.9814999999497E+02  2.9814999998110E+02  2.9814999999009E+02  2.9814999997873E+02  2.9815000000560E+02  2.9815000001773E+02  2.9815000007352E+02  2.9815000437765E+02 
 8.0911499769706E-01  8.0911499769706E-01  8.0911499769706E-01  8.0911499769706E-01  8.0911499769706E-01  8.0911499769706E-01  8.0911499769706E-01  8.0911499769706E-01  8.0911499769706E-01  8.0911499769706E-01 
 2.6811111111111E-05  5.3622222222222E-05  5.3622222222222E-05  5.3622222222222E-05  5.3622222222222E-05  5.3622222222222E-05  5.3622222222222E-05  5.3622222222223E-05  5.3622222222222E-05  2.6811111111111E-05 
 1.9088500230294E-01  1.9088500230294E-01  1.9088500230294E-01  1.9088500230294E-01  1.9088500230294E-01  1.9088500230294E-01  1.9088500230294E-01  1.9088500230294E-01  1.9088500230294E-01  1.9088500230294E-01 
 1.1068990102813E-09  1.1068990702013E-09  1.1068991529306E-09  1.1068990990668E-09  1.1068991040308E-09  1.1068991052081E-09  1.1068990734810E-09  1.1068991517579E-09  1.1068991016823E-09  1.1068990220622E-09 
 2.7680962172175E-02  2.7680962215994E-02  2.7680962259349E-02  2.7680962257052E-02  2.7680962257221E-02  2.7680962258860E-02  2.7680962259540E-02  2.7680962262892E-02  2.7680962366145E-02  2.7680962467086E-02 
 2.7680962172175E-02  2.7680962215994E-02  2.7680962259349E-02  2.7680962257052E-02  2.7680962257221E-02  2.7680962258860E-02  2.7680962259540E-02  2.7680962262892E-02  2.7680962366145E-02  2.7680962467086E-02 
 0.0000000000000E+00  0.0000000000000E+00  0.0000000000000E+00  0.0000000000000E+00  0.0000000000000E+00  0.0000000000000E+00  0.0000000000000E+00  0.0000000000000E+00  0.0000000000000E+00  0.0000000000000E+00 
ZONE T = "SEP , 5.5000E-08", I = 10, SOLUTIONTIME = 5.500000E-08
ZONETYPE = ORDERED
DATAPACKING = BLOCK
STRANDID = 2
 7.8740000000000E-04  8.4102222222222E-04  8.9464444444444E-04  9.4826666666667E-04  1.0018888888889E-03  1.0555111111111E-03  1.1091333333333E-03  1.1627555555556E-03  1.2163777777778E-03  1.2700000000000E-03 
 2.0874808325461E-08  2.0874808325461E-08  2.0874808325461E-08  2.0874808325461E-08  2.0874808325461E-08  2.0874808325461E-08  2.0874808325461E-08  2.0874808325461E-08  2.0874808325461E-08  1.9715803903551E-08 
 9.1999999999842E-01  9.2000000000000E-01  9.2000000000000E-01  9.2000000000000E-01  9.2000000000000E-01  9.2000000000000E-01  9.2000000000000E-01  9.2000000000000E-01  9.2000000000000E-01  9.2000000000175E-01 
 4.0000000000791E-02  4.0000000000000E-02  4.0000000000000E-02  4.0000000000000E-02  4.0000000000000E-02  4.0000000000000E-02  4.0000000000000E-02  4.0000000000000E-02  4.0000000000000E-02  3.9999999999127E-02 
 4.0000000000791E-02  4.0000000000000E-02  4.0000000000000E-02  4.0000000000000E-02  4.0000000000000E-02  4.0000000000000E-02  4.0000000000000E-02  4.0000000000000E-02  4.0000000000000E-02  3.9999999999127E-02 
 2.9195755848045E-02  2.9195706455715E-02  2.9195657063384E-02  2.9195607671053E-02  2.9195558278722E-02  2.9195508886391E-02  2.9195459494060E-02  2.9195410101730E-02  2.9195360709399E-02  2.9195311317067E-02 
 2.9814999754181E+02  2.9814999992835E+02  2.9814999998785E+02  2.9814999997852E+02  2.9814999998550E+02  2.9814999997604E+02  2.9814999999809E+02  2.9815000002195E+02  2.9815000013949E+02  2.9815000612845E+02 
 8.0911499769706E-01  8.0911499769706E-01  8.0911499769706E-01  8.0911499769706E-01  8.0911499769706E-01  8.0911499769706E-01  8.0911499769706E-01  8.0911499769706E-01  8.0911499769706E-01  8.0911499769706E-01 
 2.6811111111111E-05  5.3622222222222E-05  5.3622222222222E-05  5.3622222222222E-05  5.3622222222222E-05  5.3622222222222E-05  5.3622222222222E-05  5.3622222222223E-05  5.3622222222222E-05  2.6811111111111E-05 
 1.9088500230294E-01  1.9088500230294E-01  1.9088500230294E-01  1.9088500230294E-01  1.9088500230294E-01  1.9088500230294E-01  1.9088500230294E-01  1.9088500230294E-01  1.9088500230294E-01  1.9088500230294E-01 
 1.5222401061039E-09  1.5222401668913E-09  1.5222402504997E-09  1.5222401966484E-09  1.5222402015849E-09  1.5222402027879E-09  1.5222401710987E-09  1.5222402493979E-09  1.5222402015203E-09  1.5222401240600E-09 
 2.7689406388174E-02  2.7689406445999E-02  2.7689406504605E-02  2.7689406505440E-02  2.7689406503607E-02  2.7689406505317E-02  2.7689406507849E-02  2.7689406509335E-02  2.7689406655868E-02  2.7689406799850E-02 
 2.7689406388174E-02  2.7689406445999E-02  2.7689406504605E-02  2.7689406505440E-02  2.7689406503607E-02  2.7689406505317E-02  2.7689406507849E-02  2.7689406509335E-02  2.7689406655868E-02  2.7689406799850E-02 
 0.0000000000000E+00  0.0000000000000E+00  0.0000000000000E+00  0.0000000000000E+00  0.0000000000000E+00  0.0000000000000E+00  0.0000000000000E+00  0.0000000000000E+00  0.0000000000000E+00  0.0000000000000E+00 
ZONE T = "SEP , 7.7500E-08", I = 10, SOLUTIONTIME = 7.750000E-08
ZONETYPE = ORDERED
DATAPACKING = BLOCK
STRANDID = 2
 7.8740000000000E-04  8.4102222222222E-04  8.9464444444444E-04  9.4826666666667E-04  1.0018888888889E-03  1.0555111111111E-03  1.1091333333333E-03  1.1627555555556E-03  1.2163777777778E-03  1.2700000000000E-03 
 2.0878780652237E-08  2.0878780652237E-08  2.0878780652237E-08  2.0878780652237E-08  2.0878780652237E-08  2.0878780652237E-08  2.0878780652237E-08  2.0878780652237E-08  2.0878780652237E-08  1.9720268884662E-08 
 9.1999999999777E-01  9.2000000000000E-01  9.2000000000000E-01  9.2000000000000E-01  9.2000000000000E-01  9.2000000000000E-01  9.2000000000000E-01  9.2000000000000E-01  9.2000000000000E-01  9.2000000000246E-01 
 4.0000000001114E-02  4.0000000000000E-02  4.0000000000000E-02  4.0000000000000E-02  4.0000000000000E-02  4.0000000000000E-02  4.0000000000000E-02  4.0000000000000E-02  4.0000000000000E-02  3.9999999998769E-02 
 4.0000000001114E-02  4.0000000000000E-02  4.0000000000000E-02  4.0000000000000E-02  4.0000000000000E-02  4.0000000000000E-02  4.0000000000000E-02  4.0000000000000E-02  4.0000000000000E-02  3.9999999998769E-02 
 2.9207934431046E-02  2.9207885027407E-02  2.9207835623767E-02  2.9207786220127E-02  2.9207736816487E-02  2.9207687412847E-02  2.9207638009207E-02  2.9207588605567E-02  2.9207539201927E-02  2.9207489798287E-02 
 2.9814999648685E+02  2.9814999987555E+02  2.9814999999879E+02  2.9814999997043E+02  2.9814999998331E+02  2.9814999997858E+02  2.9814999999267E+02  2.9815000002700E+02  2.9815000029744E+02  2.9815000882978E+02 
 8.0911499769706E-01  8.0911499769706E-01  8.0911499769706E-01  8.0911499769706E-01  8.0911499769706E-01  8.0911499769706E-01  8.0911499769706E-01  8.0911499769706E-01  8.0911499769706E-01  8.0911499769706E-01 
 2.6811111111111E-05  5.3622222222222E-05  5.3622222222222E-05  5.3622222222222E-05  5.3622222222222E-05  5.3622222222222E-05  5.3622222222222E-05  5.3622222222223E-05  5.3622222222222E-05  2.6811111111111E-05 
 1.9088500230294E-01  1.9088500230294E-01  1.9088500230294E-01  1.9088500230294E-01  1.9088500230294E-01  1.9088500230294E-01  1.9088500230294E-01  1.9088500230294E-01  1.9088500230294E-01  1.9088500230294E-01 
 2.1455370749636E-09  2.1455371376318E-09  2.1455372231589E-09  2.1455371693099E-09  2.1455371742502E-09  2.1455371754879E-09  2.1455371438122E-09  2.1455372222770E-09  2.1455371791770E-09  2.1455371063471E-09 
 2.7702087504875E-02  2.7702087588466E-02  2.7702087673745E-02  2.7702087673846E-02  2.7702087674016E-02  2.7702087675555E-02  2.7702087676158E-02  2.7702087683517E-02  2.7702087895853E-02  2.7702088101651E-02 
 2.7702087504875E-02  2.7702087588466E-02  2.7702087673745E-02  2.7702087673846E-02  2.7702087674016E-02  2.7702087675555E-02  2.7702087676158E-02  2.7702087683517E-02  2.7702087895853E-02  2.7702088101651E-02 
 0.0000000000000E+00  0.0000000000000E+00  0.0000000000000E+00  0.0000000000000E+00  0.0000000000000E+00  0.0000000000000E+00  0.0000000000000E+00  0.0000000000000E+00  0.0000000000000E+00  0.0000000000000E+00 
ZONE T = "SEP , 1.1125E-07", I = 10, SOLUTIONTIME = 1.112500E-07
ZONETYPE = ORDERED
DATAPACKING = BLOCK
STRANDID = 2
 7.8740000000000E-04  8.4102222222222E-04  8.9464444444444E-04  9.4826666666667E-04  1.0018888888889E-03  1.0555111111111E-03  1.1091333333333E-03  1.1627555555556E-03  1.2163777777778E-03  1.2700000000000E-03 
 2.0886700456649E-08  2.0886700456649E-08  2.0886700456649E-08  2.0886700456649E-08  2.0886700456649E-08  2.0886700456649E-08  2.0886700456649E-08  2.0886700456649E-08  2.0886700456649E-08  1.9727454982371E-08 
 9.1999999999680E-01  9.2000000000000E-01  9.2000000000000E-01  9.2000000000000E-01  9.2000000000000E-01  9.2000000000000E-01  9.2000000000000E-01  9.2000000000000E-01  9.2000000000000E-01  9.2000000000353E-01 
 4.0000000001598E-02  4.0000000000000E-02  4.0000000000000E-02  4.0000000000000E-02  4.0000000000000E-02  4.0000000000000E-02  4.0000000000000E-02  4.0000000000000E-02  4.0000000000000E-02  3.9999999998233E-02 
 4.0000000001598E-02  4.0000000000000E-02  4.0000000000000E-02  4.0000000000000E-02  4.0000000000000E-02  4.0000000000000E-02  4.0000000000000E-02  4.0000000000000E-02  4.0000000000000E-02  3.9999999998233E-02 
 2.9226182330006E-02  2.9226132909409E-02  2.9226083488812E-02  2.9226034068215E-02  2.9225984647618E-02  2.9225935227021E-02  2.9225885806424E-02  2.9225836385827E-02  2.9225786965230E-02  2.9225737544632E-02 
 2.9814999489041E+02  2.9814999973723E+02  2.9814999999824E+02  2.9814999997136E+02  2.9814999997903E+02  2.9814999997826E+02  2.9815000000230E+02  2.9815000004092E+02  2.9815000064941E+02  2.9815001295137E+02 
 8.0911499769706E-01  8.0911499769706E-01  8.0911499769706E-01  8.0911499769706E-01  8.0911499769706E-01  8.0911499769706E-01  8.0911499769706E-01  8.0911499769706E-01  8.0911499769706E-01  8.0911499769706E-01 
 2.6811111111111E-05  5.3622222222222E-05  5.3622222222222E-05  5.3622222222222E-05  5.3622222222222E-05  5.3622222222222E-05  5.3622222222222E-05  5.3622222222223E-05  5.3622222222222E-05  2.6811111111111E-05 
 1.9088500230294E-01  1.9088500230294E-01  1.9088500230294E-01  1.9088500230294E-01  1.9088500230294E-01  1.9088500230294E-01  1.9088500230294E-01  1.9088500230294E-01  1.9088500230294E-01  1.9088500230294E-01 
 3.0811244519139E-09  3.0811245185131E-09  3.0811246082473E-09  3.0811245545580E-09  3.0811245594423E-09  3.0811245607877E-09  3.0811245291760E-09  3.0811246081348E-09  3.0811245757348E-09  3.0811245131274E-09 
 2.7721107465195E-02  2.7721107581667E-02  2.7721107706320E-02  2.7721107711055E-02  2.7721107709395E-02  2.7721107712586E-02  2.7721107714480E-02  2.7721107729119E-02  2.7721108046157E-02  2.7721108349045E-02 
 2.7721107465195E-02  2.7721107581667E-02  2.7721107706320E-02  2.7721107711055E-02  2.7721107709395E-02  2.7721107712586E-02  2.7721107714480E-02  2.7721107729119E-02  2.7721108046157E-02  2.7721108349045E-02 
 0.0000000000000E+00  0.0000000000000E+00  0.0000000000000E+00  0.0000000000000E+00  0.0000000000000E+00  0.0000000000000E+00  0.0000000000000E+00  0.0000000000000E+00  0.0000000000000E+00  0.0000000000000E+00 
ZONE T = "SEP , 1.6188E-07", I = 10, SOLUTIONTIME = 1.618750E-07
ZONETYPE = ORDERED
DATAPACKING = BLOCK
STRANDID = 2
 7.8740000000000E-04  8.4102222222222E-04  8.9464444444444E-04  9.4826666666667E-04  1.0018888888889E-03  1.0555111111111E-03  1.1091333333333E-03  1.1627555555556E-03  1.2163777777778E-03  1.2700000000000E-03 
 2.0897020274292E-08  2.0896733295347E-08  2.0896733295347E-08  2.0896733295347E-08  2.0896733295347E-08  2.0896733295347E-08  2.0896733295347E-08  2.0896733295347E-08  2.0896733295347E-08  1.9737322211975E-08 
 9.1999999999536E-01  9.2000000000000E-01  9.2000000000000E-01  9.2000000000000E-01  9.2000000000000E-01  9.2000000000000E-01  9.2000000000000E-01  9.2000000000000E-01  9.2000000000000E-01  9.2000000000514E-01 
 4.0000000002321E-02  4.0000000000001E-02  4.0000000000000E-02  4.0000000000000E-02  4.0000000000000E-02  4.0000000000000E-02  4.0000000000000E-02  4.0000000000000E-02  3.9999999999999E-02  3.9999999997428E-02 
 4.0000000002321E-02  4.0000000000001E-02  4.0000000000000E-02  4.0000000000000E-02  4.0000000000000E-02  4.0000000000000E-02  4.0000000000000E-02  4.0000000000000E-02  3.9999999999999E-02  3.9999999997428E-02 
 2.9253440064660E-02  2.9253390618711E-02  2.9253341172762E-02  2.9253291726813E-02  2.9253242280864E-02  2.9253192834914E-02  2.9253143388965E-02  2.9253093943016E-02  2.9253044497066E-02  2.9252995051115E-02 
 2.9814999249228E+02  2.9814999944806E+02  2.9814999997720E+02  2.9814999997430E+02  2.9814999998233E+02  2.9814999997998E+02  2.9815000000047E+02  2.9815000008758E+02  2.9815000138996E+02  2.9815001941043E+02 
 8.0911499769706E-01  8.0911499769706E-01  8.0911499769706E-01  8.0911499769706E-01  8.0911499769706E-01  8.0911499769706E-01  8.0911499769706E-01  8.0911499769706E-01  8.0911499769706E-01  8.0911499769706E-01 
 2.6811111111111E-05  5.3622222222222E-05  5.3622222222222E-05  5.3622222222222E-05  5.3622222222222E-05  5.3622222222222E-05  5.3622222222222E-05  5.3622222222223E-05  5.3622222222222E-05  2.6811111111111E-05 
 1.9088500230294E-01  1.9088500230294E-01  1.9088500230294E-01  1.9088500230294E-01  1.9088500230294E-01  1.9088500230294E-01  1.9088500230294E-01  1.9088500230294E-01  1.9088500230294E-01  1.9088500230294E-01 
 4.4859457163838E-09  4.4859457918885E-09  4.4859458911898E-09  4.4859458381561E-09  4.4859458429291E-09  4.4859458443449E-09  4.4859458129794E-09  4.4859458936248E-09  4.4859458855969E-09  4.4859458457455E-09 
 2.7749555841380E-02  2.7749556017293E-02  2.7749556206273E-02  2.7749556219221E-02  2.7749556217023E-02  2.7749556218416E-02  2.7749556223279E-02  2.7749556256592E-02  2.7749556738017E-02  2.7749557187519E-02 
 2.7749555841380E-02  2.7749556017293E-02  2.7749556206273E-02  2.7749556219221E-02  2.7749556217023E-02  2.7749556218416E-02  2.7749556223279E-02  2.7749556256592E-02  2.7749556738017E-02  2.7749557187519E-02 
 0.0000000000000E+00  0.0000000000000E+00  0.0000000000000E+00  0.0000000000000E+00  0.0000000000000E+00  0.0000000000000E+00  0.0000000000000E+00  0.0000000000000E+00  0.0000000000000E+00  0.0000000000000E+00 
ZONE T = "SEP , 2.3781E-07", I = 10, SOLUTIONTIME = 2.378125E-07
ZONETYPE = ORDERED
DATAPACKING = BLOCK
STRANDID = 2
 7.8740000000000E-04  8.4102222222222E-04  8.9464444444444E-04  9.4826666666667E-04  1.0018888888889E-03  1.0555111111111E-03  1.1091333333333E-03  1.1627555555556E-03  1.2163777777778E-03  1.2700000000000E-03 
 2.0913379765587E-08  2.0913666744532E-08  2.0913666744532E-08  2.0913666744532E-08  2.0913666744532E-08  2.0913666744532E-08  2.0913666744532E-08  2.0913666744532E-08  2.0913571084884E-08  1.9752768486607E-08 
 9.1999999999319E-01  9.2000000000000E-01  9.2000000000000E-01  9.2000000000000E-01  9.2000000000000E-01  9.2000000000000E-01  9.2000000000000E-01  9.2000000000000E-01  9.2000000000000E-01  9.2000000000756E-01 
 4.0000000003403E-02  4.0000000000002E-02  4.0000000000000E-02  4.0000000000000E-02  4.0000000000000E-02  4.0000000000000E-02  4.0000000000000E-02  4.0000000000000E-02  3.9999999999998E-02  3.9999999996220E-02 
 4.0000000003403E-02  4.0000000000002E-02  4.0000000000000E-02  4.0000000000000E-02  4.0000000000000E-02  4.0000000000000E-02  4.0000000000000E-02  4.0000000000000E-02  3.9999999999998E-02  3.9999999996220E-02 
 2.9293951556815E-02  2.9293902073148E-02  2.9293852589479E-02  2.9293803105811E-02  2.9293753622143E-02  2.9293704138474E-02  2.9293654654806E-02  2.9293605171137E-02  2.9293555687469E-02  2.9293506203798E-02 
 2.9814998892873E+02  2.9814999886907E+02  2.9814999991267E+02  2.9814999997613E+02  2.9814999998595E+02  2.9814999997663E+02  2.9815000001968E+02  2.9815000025710E+02  2.9815000300026E+02  2.9815002948880E+02 
 8.0911499769706E-01  8.0911499769706E-01  8.0911499769706E-01  8.0911499769706E-01  8.0911499769706E-01  8.0911499769706E-01  8.0911499769706E-01  8.0911499769706E-01  8.0911499769706E-01  8.0911499769706E-01 
 2.6811111111111E-05  5.3622222222222E-05  5.3622222222222E-05  5.3622222222222E-05  5.3622222222222E-05  5.3622222222222E-05  5.3622222222222E-05  5.3622222222223E-05  5.3622222222222E-05  2.6811111111111E-05 