TITLE = "Solution on Domain BulkDomain1D_1"
VARIABLES = "x [m]"  
"Vel_axial" 	"MF_sp(ECDMC)" 	"MF_sp(Li+)" 	"MF_sp(PF6-)" 	"Volt(Electroly)" 	"Temperature" 	"Porosity []" 	"Control volume thickness [m]" 	"volFrac MgO(S) []" 	"qHeat_accum [J/m3]" 	"qHeat_step [W/m3]" 	"Joule_Lyte [W/m3]" 	"Joule_Solid [W/m3]" 	
ZONE T = "SEP , 0.0000E+00", I = 10, SOLUTIONTIME = 0.000000E+00
ZONETYPE = ORDERED
DATAPACKING = BLOCK
STRANDID = 2
 7.8740000000000E-04  8.4102222222222E-04  8.9464444444444E-04  9.4826666666667E-04  1.0018888888889E-03  1.0555111111111E-03  1.1091333333333E-03  1.1627555555556E-03  1.2163777777778E-03  1.2700000000000E-03 
 0.0000000000000E+00  0.0000000000000E+00  0.0000000000000E+00  0.0000000000000E+00  0.0000000000000E+00  0.0000000000000E+00  0.0000000000000E+00  0.0000000000000E+00  0.0000000000000E+00  0.0000000000000E+00 
 9.2000000000000E-01  9.2000000000000E-01  9.2000000000000E-01  9.2000000000000E-01  9.2000000000000E-01  9.2000000000000E-01  9.2000000000000E-01  9.2000000000000E-01  9.2000000000000E-01  9.2000000000000E-01 
 4.0000000000000E-02  4.0000000000000E-02  4.0000000000000E-02  4.0000000000000E-02  4.0000000000000E-02  4.0000000000000E-02  4.0000000000000E-02  4.0000000000000E-02  4.0000000000000E-02  4.0000000000000E-02 
 4.0000000000000E-02  4.0000000000000E-02  4.0000000000000E-02  4.0000000000000E-02  4.0000000000000E-02  4.0000000000000E-02  4.0000000000000E-02  4.0000000000000E-02  4.0000000000000E-02  4.0000000000000E-02 
-7.0000000000000E-02 -7.0000000000000E-02 -7.0000000000000E-02 -7.0000000000000E-02 -7.0000000000000E-02 -7.0000000000000E-02 -7.0000000000000E-02 -7.0000000000000E-02 -7.0000000000000E-02 -7.0000000000000E-02 
 2.9815000000000E+02  2.9815000000000E+02  2.9815000000000E+02  2.9815000000000E+02  2.9815000000000E+02  2.9815000000000E+02  2.9815000000000E+02  2.9815000000000E+02  2.9815000000000E+02  2.9815000000000E+02 
 8.0911139820575E-01  8.0911139820575E-01  8.0911139820575E-01  8.0911139820575E-01  8.0911139820575E-01  8.0911139820575E-01  8.0911139820575E-01  8.0911139820575E-01  8.0911139820575E-01  8.0911139820575E-01 
 2.6811111111111E-05  5.3622222222222E-05  5.3622222222222E-05  5.3622222222222E-05  5.3622222222222E-05  5.3622222222222E-05  5.3622222222222E-05  5.3622222222223E-05  5.3622222222222E-05  2.6811111111111E-05 
 1.9088860179425E-01  1.9088860179425E-01  1.9088860179425E-01  1.9088860179425E-01  1.9088860179425E-01  1.9088860179425E-01  1.9088860179425E-01  1.9088860179425E-01  1.9088860179425E-01  1.9088860179425E-01 
 0.0000000000000E+00  0.0000000000000E+00  0.0000000000000E+00  0.0000000000000E+00  0.0000000000000E+00  0.0000000000000E+00  0.0000000000000E+00  0.0000000000000E+00  0.0000000000000E+00  0.0000000000000E+00 
 0.0000000000000E+00  0.0000000000000E+00  0.0000000000000E+00  0.0000000000000E+00  0.0000000000000E+00  0.0000000000000E+00  0.0000000000000E+00  0.0000000000000E+00  0.0000000000000E+00  0.0000000000000E+00 
 0.0000000000000E+00  0.0000000000000E+00  0.0000000000000E+00  0.0000000000000E+00  0.0000000000000E+00  0.0000000000000E+00  0.0000000000000E+00  0.0000000000000E+00  0.0000000000000E+00  0.0000000000000E+00 
 0.0000000000000E+00  0.0000000000000E+00  0.0000000000000E+00  0.0000000000000E+00  0.0000000000000E+00  0.0000000000000E+00  0.0000000000000E+00  0.0000000000000E+00  0.0000000000000E+00  0.0000000000000E+00 
ZONE T = "SEP , 1.0000E-08", I = 10, SOLUTIONTIME = 1.000000E-08
ZONETYPE = ORDERED
DATAPACKING = BLOCK
STRANDID = 2
 7.8740000000000E-04  8.4102222222222E-04  8.9464444444444E-04  9.4826666666667E-04  1.0018888888889E-03  1.0555111111111E-03  1.1091333333333E-03  1.1627555555556E-03  1.2163777777778E-03  1.2700000000000E-03 
 2.0844281209000E-08  2.0844281209000E-08  2.0844281209000E-08  2.0844281209000E-08  2.0844281209000E-08  2.0844281209000E-08  2.0844281209000E-08  2.0844281209000E-08  2.0844281209000E-08  1.9687005855036E-08 
 9.1999999999971E-01  9.2000000000000E-01  9.2000000000000E-01  9.2000000000000E-01  9.2000000000000E-01  9.2000000000000E-01  9.2000000000000E-01  9.2000000000000E-01  9.2000000000000E-01  9.2000000000032E-01 
 4.0000000000144E-02  4.0000000000000E-02  4.0000000000000E-02  4.0000000000000E-02  4.0000000000000E-02  4.0000000000000E-02  4.0000000000000E-02  4.0000000000000E-02  4.0000000000000E-02  3.9999999999841E-02 
 4.0000000000144E-02  4.0000000000000E-02  4.0000000000000E-02  4.0000000000000E-02  4.0000000000000E-02  4.0000000000000E-02  4.0000000000000E-02  4.0000000000000E-02  4.0000000000000E-02  3.9999999999841E-02 
 2.9187121391297E-02  2.9187072068864E-02  2.9187022746432E-02  2.9186973423999E-02  2.9186924101566E-02  2.9186874779133E-02  2.9186825456701E-02  2.9186776134268E-02  2.9186726811835E-02  2.9186677489402E-02 
 2.9814999955179E+02  2.9814999999199E+02  2.9814999998865E+02  2.9814999998881E+02  2.9814999999421E+02  2.9814999998876E+02  2.9814999999444E+02  2.9814999999902E+02  2.9814999999323E+02  2.9815000116435E+02 
 8.0911139820575E-01  8.0911139820575E-01  8.0911139820575E-01  8.0911139820575E-01  8.0911139820575E-01  8.0911139820575E-01  8.0911139820575E-01  8.0911139820575E-01  8.0911139820575E-01  8.0911139820575E-01 
 2.6811111111111E-05  5.3622222222222E-05  5.3622222222222E-05  5.3622222222222E-05  5.3622222222222E-05  5.3622222222222E-05  5.3622222222222E-05  5.3622222222223E-05  5.3622222222222E-05  2.6811111111111E-05 
 1.9088860179425E-01  1.9088860179425E-01  1.9088860179425E-01  1.9088860179425E-01  1.9088860179425E-01  1.9088860179425E-01  1.9088860179425E-01  1.9088860179425E-01  1.9088860179425E-01  1.9088860179425E-01 
 2.7610907741132E-10  2.7610907750415E-10  2.7610907757829E-10  2.7610907759717E-10  2.7610907761531E-10  2.7610907759585E-10  2.7610907759342E-10  2.7610907759132E-10  2.7610907790420E-10  2.7610907821679E-10 
 2.7610907741132E-02  2.7610907750415E-02  2.7610907757829E-02  2.7610907759717E-02  2.7610907761531E-02  2.7610907759585E-02  2.7610907759342E-02  2.7610907759132E-02  2.7610907790420E-02  2.7610907821679E-02 
 2.7610907741132E-02  2.7610907750415E-02  2.7610907757829E-02  2.7610907759717E-02  2.7610907761531E-02  2.7610907759585E-02  2.7610907759342E-02  2.7610907759132E-02  2.7610907790420E-02  2.7610907821679E-02 
 0.0000000000000E+00  0.0000000000000E+00  0.0000000000000E+00  0.0000000000000E+00  0.0000000000000E+00  0.0000000000000E+00  0.0000000000000E+00  0.0000000000000E+00  0.0000000000000E+00  0.0000000000000E+00 
ZONE T = "SEP , 2.0000E-08", I = 10, SOLUTIONTIME = 2.000000E-08
ZONETYPE = ORDERED
DATAPACKING = BLOCK
STRANDID = 2
 7.8740000000000E-04  8.4102222222222E-04  8.9464444444444E-04  9.4826666666667E-04  1.0018888888889E-03  1.0555111111111E-03  1.1091333333333E-03  1.1627555555556E-03  1.2163777777778E-03  1.2700000000000E-03 
 2.0863738902744E-08  2.0863738902744E-08  2.0863738902744E-08  2.0863738902744E-08  2.0863738902744E-08  2.0863738902744E-08  2.0863738902744E-08  2.0863738902744E-08  2.0863738902744E-08  1.9704871944455E-08 
 9.1999999999942E-01  9.2000000000000E-01  9.2000000000000E-01  9.2000000000000E-01  9.2000000000000E-01  9.2000000000000E-01  9.2000000000000E-01  9.2000000000000E-01  9.2000000000000E-01  9.2000000000063E-01 
 4.0000000000288E-02  4.0000000000000E-02  4.0000000000000E-02  4.0000000000000E-02  4.0000000000000E-02  4.0000000000000E-02  4.0000000000000E-02  4.0000000000000E-02  4.0000000000000E-02  3.9999999999683E-02 
 4.0000000000288E-02  4.0000000000000E-02  4.0000000000000E-02  4.0000000000000E-02  4.0000000000000E-02  4.0000000000000E-02  4.0000000000000E-02  4.0000000000000E-02  4.0000000000000E-02  3.9999999999683E-02 
 2.9177045350578E-02  2.9176995976089E-02  2.9176946601600E-02  2.9176897227110E-02  2.9176847852621E-02  2.9176798478132E-02  2.9176749103643E-02  2.9176699729153E-02  2.9176650354664E-02  2.9176600980174E-02 
 2.9814999911574E+02  2.9814999999346E+02  2.9814999998856E+02  2.9814999998879E+02  2.9814999999393E+02  2.9814999998885E+02  2.9814999999432E+02  2.9814999999906E+02  2.9815000001011E+02  2.9815000224593E+02 
 8.0911139820575E-01  8.0911139820575E-01  8.0911139820575E-01  8.0911139820575E-01  8.0911139820575E-01  8.0911139820575E-01  8.0911139820575E-01  8.0911139820575E-01  8.0911139820575E-01  8.0911139820575E-01 
 2.6811111111111E-05  5.3622222222222E-05  5.3622222222222E-05  5.3622222222222E-05  5.3622222222222E-05  5.3622222222222E-05  5.3622222222222E-05  5.3622222222223E-05  5.3622222222222E-05  2.6811111111111E-05 
 1.9088860179425E-01  1.9088860179425E-01  1.9088860179425E-01  1.9088860179425E-01  1.9088860179425E-01  1.9088860179425E-01  1.9088860179425E-01  1.9088860179425E-01  1.9088860179425E-01  1.9088860179425E-01 
 5.5280129204226E-10  5.5280129232094E-10  5.5280129260146E-10  5.5280129262017E-10  5.5280129263706E-10  5.5280129261749E-10  5.5280129261260E-10  5.5280129262392E-10  5.5280129346119E-10  5.5280129430184E-10 
 2.7669221463094E-02  2.7669221481679E-02  2.7669221502317E-02  2.7669221502301E-02  2.7669221502175E-02  2.7669221502164E-02  2.7669221501918E-02  2.7669221503259E-02  2.7669221555699E-02  2.7669221608505E-02 
 2.7669221463094E-02  2.7669221481679E-02  2.7669221502317E-02  2.7669221502301E-02  2.7669221502175E-02  2.7669221502164E-02  2.7669221501918E-02  2.7669221503259E-02  2.7669221555699E-02  2.7669221608505E-02 
 0.0000000000000E+00  0.0000000000000E+00  0.0000000000000E+00  0.0000000000000E+00  0.0000000000000E+00  0.0000000000000E+00  0.0000000000000E+00  0.0000000000000E+00  0.0000000000000E+00  0.0000000000000E+00 
ZONE T = "SEP , 3.0000E-08", I = 10, SOLUTIONTIME = 3.000000E-08
ZONETYPE = ORDERED
DATAPACKING = BLOCK
STRANDID = 2
 7.8740000000000E-04  8.4102222222222E-04  8.9464444444444E-04  9.4826666666667E-04  1.0018888888889E-03  1.0555111111111E-03  1.1091333333333E-03  1.1627555555556E-03  1.2163777777778E-03  1.2700000000000E-03 
 2.0867962440493E-08  2.0867962440493E-08  2.0867962440493E-08  2.0867962440493E-08  2.0867962440493E-08  2.0867962440493E-08  2.0867962440493E-08  2.0867962440493E-08  2.0867962440493E-08  1.9709119432948E-08 
 9.1999999999914E-01  9.2000000000000E-01  9.2000000000000E-01  9.2000000000000E-01  9.2000000000000E-01  9.2000000000000E-01  9.2000000000000E-01  9.2000000000000E-01  9.2000000000000E-01  9.2000000000095E-01 
 4.0000000000432E-02  4.0000000000000E-02  4.0000000000000E-02  4.0000000000000E-02  4.0000000000000E-02  4.0000000000000E-02  4.0000000000000E-02  4.0000000000000E-02  4.0000000000000E-02  3.9999999999524E-02 
 4.0000000000432E-02  4.0000000000000E-02  4.0000000000000E-02  4.0000000000000E-02  4.0000000000000E-02  4.0000000000000E-02  4.0000000000000E-02  4.0000000000000E-02  4.0000000000000E-02  3.9999999999524E-02 
 2.9181929266384E-02  2.9181879885339E-02  2.9181830504294E-02  2.9181781123248E-02  2.9181731742203E-02  2.9181682361158E-02  2.9181632980112E-02  2.9181583599067E-02  2.9181534218022E-02  2.9181484836976E-02 
 2.9814999859944E+02  2.9814999998796E+02  2.9814999998833E+02  2.9814999998876E+02  2.9814999999338E+02  2.9814999998902E+02  2.9814999999425E+02  2.9815000001039E+02  2.9815000003491E+02  2.9815000334745E+02 
 8.0911139820575E-01  8.0911139820575E-01  8.0911139820575E-01  8.0911139820575E-01  8.0911139820575E-01  8.0911139820575E-01  8.0911139820575E-01  8.0911139820575E-01  8.0911139820575E-01  8.0911139820575E-01 
 2.6811111111111E-05  5.3622222222222E-05  5.3622222222222E-05  5.3622222222222E-05  5.3622222222222E-05  5.3622222222222E-05  5.3622222222222E-05  5.3622222222223E-05  5.3622222222222E-05  2.6811111111111E-05 
 1.9088860179425E-01  1.9088860179425E-01  1.9088860179425E-01  1.9088860179425E-01  1.9088860179425E-01  1.9088860179425E-01  1.9088860179425E-01  1.9088860179425E-01  1.9088860179425E-01  1.9088860179425E-01 
 8.2956699059080E-10  8.2956699116866E-10  8.2956699176762E-10  8.2956699180442E-10  8.2956699182007E-10  8.2956699180024E-10  8.2956699179019E-10  8.2956699182600E-10  8.2956699345365E-10  8.2956699505522E-10 
 2.7676569854854E-02  2.7676569884772E-02  2.7676569916616E-02  2.7676569918424E-02  2.7676569918301E-02  2.7676569918275E-02  2.7676569917759E-02  2.7676569920208E-02  2.7676569999246E-02  2.7676570075338E-02 
 2.7676569854854E-02  2.7676569884772E-02  2.7676569916616E-02  2.7676569918424E-02  2.7676569918301E-02  2.7676569918275E-02  2.7676569917759E-02  2.7676569920208E-02  2.7676569999246E-02  2.7676570075338E-02 
 0.0000000000000E+00  0.0000000000000E+00  0.0000000000000E+00  0.0000000000000E+00  0.0000000000000E+00  0.0000000000000E+00  0.0000000000000E+00  0.0000000000000E+00  0.0000000000000E+00  0.0000000000000E+00 
ZONE T = "SEP , 4.0000E-08", I = 10, SOLUTIONTIME = 4.000000E-08
ZONETYPE = ORDERED
DATAPACKING = BLOCK
STRANDID = 2
 7.8740000000000E-04  8.4102222222222E-04  8.9464444444444E-04  9.4826666666667E-04  1.0018888888889E-03  1.0555111111111E-03  1.1091333333333E-03  1.1627555555556E-03  1.2163777777778E-03  1.2700000000000E-03 
 2.0868982953359E-08  2.0868982953359E-08  2.0868982953359E-08  2.0868982953359E-08  2.0868982953359E-08  2.0868982953359E-08  2.0868982953359E-08  2.0868982953359E-08  2.0868982953359E-08  1.9712036552560E-08 
 9.1999999999885E-01  9.2000000000000E-01  9.2000000000000E-01  9.2000000000000E-01  9.2000000000000E-01  9.2000000000000E-01  9.2000000000000E-01  9.2000000000000E-01  9.2000000000000E-01  9.2000000000127E-01 
 4.0000000000576E-02  4.0000000000000E-02  4.0000000000000E-02  4.0000000000000E-02  4.0000000000000E-02  4.0000000000000E-02  4.0000000000000E-02  4.0000000000000E-02  4.0000000000000E-02  3.9999999999365E-02 
 4.0000000000576E-02  4.0000000000000E-02  4.0000000000000E-02  4.0000000000000E-02  4.0000000000000E-02  4.0000000000000E-02  4.0000000000000E-02  4.0000000000000E-02  4.0000000000000E-02  3.9999999999365E-02 
 2.9187623208917E-02  2.9187573823738E-02  2.9187524438559E-02  2.9187475053380E-02  2.9187425668201E-02  2.9187376283022E-02  2.9187326897843E-02  2.9187277512664E-02  2.9187228127486E-02  2.9187178742306E-02 
 2.9814999815006E+02  2.9814999996781E+02  2.9814999998770E+02  2.9814999998877E+02  2.9814999999796E+02  2.9814999998918E+02  2.9814999998903E+02  2.9815000001121E+02  2.9815000007468E+02  2.9815000448075E+02 
 8.0911139820575E-01  8.0911139820575E-01  8.0911139820575E-01  8.0911139820575E-01  8.0911139820575E-01  8.0911139820575E-01  8.0911139820575E-01  8.0911139820575E-01  8.0911139820575E-01  8.0911139820575E-01 
 2.6811111111111E-05  5.3622222222222E-05  5.3622222222222E-05  5.3622222222222E-05  5.3622222222222E-05  5.3622222222222E-05  5.3622222222222E-05  5.3622222222223E-05  5.3622222222222E-05  2.6811111111111E-05 
 1.9088860179425E-01  1.9088860179425E-01  1.9088860179425E-01  1.9088860179425E-01  1.9088860179425E-01  1.9088860179425E-01  1.9088860179425E-01  1.9088860179425E-01  1.9088860179425E-01  1.9088860179425E-01 
 1.1063790256118E-09  1.1063790266178E-09  1.1063790276595E-09  1.1063790276890E-09  1.1063790277022E-09  1.1063790277038E-09  1.1063790276907E-09  1.1063790277404E-09  1.1063790304294E-09  1.1063790330733E-09 
 2.7681203502104E-02  2.7681203544917E-02  2.7681203589188E-02  2.7681203588463E-02  2.7681203588216E-02  2.7681203590358E-02  2.7681203590054E-02  2.7681203591444E-02  2.7681203697575E-02  2.7681203801805E-02 
 2.7681203502104E-02  2.7681203544917E-02  2.7681203589188E-02  2.7681203588463E-02  2.7681203588216E-02  2.7681203590358E-02  2.7681203590054E-02  2.7681203591444E-02  2.7681203697575E-02  2.7681203801805E-02 
 0.0000000000000E+00  0.0000000000000E+00  0.0000000000000E+00  0.0000000000000E+00  0.0000000000000E+00  0.0000000000000E+00  0.0000000000000E+00  0.0000000000000E+00  0.0000000000000E+00  0.0000000000000E+00 
ZONE T = "SEP , 5.5000E-08", I = 10, SOLUTIONTIME = 5.500000E-08
ZONETYPE = ORDERED
DATAPACKING = BLOCK
STRANDID = 2
 7.8740000000000E-04  8.4102222222222E-04  8.9464444444444E-04  9.4826666666667E-04  1.0018888888889E-03  1.0555111111111E-03  1.1091333333333E-03  1.1627555555556E-03  1.2163777777778E-03  1.2700000000000E-03 
 2.0874434674283E-08  2.0874434674283E-08  2.0874434674283E-08  2.0874434674283E-08  2.0874434674283E-08  2.0874434674283E-08  2.0874434674283E-08  2.0874434674283E-08  2.0874434674283E-08  1.9715551899537E-08 
 9.1999999999842E-01  9.2000000000000E-01  9.2000000000000E-01  9.2000000000000E-01  9.2000000000000E-01  9.2000000000000E-01  9.2000000000000E-01  9.2000000000000E-01  9.2000000000000E-01  9.2000000000175E-01 
 4.0000000000791E-02  4.0000000000000E-02  4.0000000000000E-02  4.0000000000000E-02  4.0000000000000E-02  4.0000000000000E-02  4.0000000000000E-02  4.0000000000000E-02  4.0000000000000E-02  3.9999999999127E-02 
 4.0000000000791E-02  4.0000000000000E-02  4.0000000000000E-02  4.0000000000000E-02  4.0000000000000E-02  4.0000000000000E-02  4.0000000000000E-02  4.0000000000000E-02  4.0000000000000E-02  3.9999999999127E-02 
 2.9195763657104E-02  2.9195714264469E-02  2.9195664871833E-02  2.9195615479197E-02  2.9195566086561E-02  2.9195516693926E-02  2.9195467301290E-02  2.9195417908654E-02  2.9195368516018E-02  2.9195319123382E-02 
 2.9814999745645E+02  2.9814999994097E+02  2.9814999998552E+02  2.9814999998888E+02  2.9814999999867E+02  2.9814999998952E+02  2.9814999998743E+02  2.9815000001534E+02  2.9815000014624E+02  2.9815000624097E+02 
 8.0911139820575E-01  8.0911139820575E-01  8.0911139820575E-01  8.0911139820575E-01  8.0911139820575E-01  8.0911139820575E-01  8.0911139820575E-01  8.0911139820575E-01  8.0911139820575E-01  8.0911139820575E-01 
 2.6811111111111E-05  5.3622222222222E-05  5.3622222222222E-05  5.3622222222222E-05  5.3622222222222E-05  5.3622222222222E-05  5.3622222222222E-05  5.3622222222223E-05  5.3622222222222E-05  2.6811111111111E-05 
 1.9088860179425E-01  1.9088860179425E-01  1.9088860179425E-01  1.9088860179425E-01  1.9088860179425E-01  1.9088860179425E-01  1.9088860179425E-01  1.9088860179425E-01  1.9088860179425E-01  1.9088860179425E-01 
 1.5217224773951E-09  1.5217224792687E-09  1.5217224812197E-09  1.5217224812863E-09  1.5217224812947E-09  1.5217224812708E-09  1.5217224812818E-09  1.5217224814131E-09  1.5217224862817E-09  1.5217224910729E-09 
 2.7689563452217E-02  2.7689563510059E-02  2.7689563570679E-02  2.7689563573151E-02  2.7689563572831E-02  2.7689563571132E-02  2.7689563572738E-02  2.7689563578177E-02  2.7689563723484E-02  2.7689563866644E-02 
 2.7689563452217E-02  2.7689563510059E-02  2.7689563570679E-02  2.7689563573151E-02  2.7689563572831E-02  2.7689563571132E-02  2.7689563572738E-02  2.7689563578177E-02  2.7689563723484E-02  2.7689563866644E-02 
 0.0000000000000E+00  0.0000000000000E+00  0.0000000000000E+00  0.0000000000000E+00  0.0000000000000E+00  0.0000000000000E+00  0.0000000000000E+00  0.0000000000000E+00  0.0000000000000E+00  0.0000000000000E+00 
ZONE T = "SEP , 7.7500E-08", I = 10, SOLUTIONTIME = 7.750000E-08
ZONETYPE = ORDERED
DATAPACKING = BLOCK
STRANDID = 2
 7.8740000000000E-04  8.4102222222222E-04  8.9464444444444E-04  9.4826666666667E-04  1.0018888888889E-03  1.0555111111111E-03  1.1091333333333E-03  1.1627555555556E-03  1.2163777777778E-03  1.2700000000000E-03 
 2.0878699074102E-08  2.0878699074102E-08  2.0878699074102E-08  2.0878699074102E-08  2.0878699074102E-08  2.0878699074102E-08  2.0878699074102E-08  2.0878699074102E-08  2.0878699074102E-08  1.9720510207580E-08 
 9.1999999999777E-01  9.2000000000000E-01  9.2000000000000E-01  9.2000000000000E-01  9.2000000000000E-01  9.2000000000000E-01  9.2000000000000E-01  9.2000000000000E-01  9.2000000000000E-01  9.2000000000246E-01 
 4.0000000001114E-02  4.0000000000000E-02  4.0000000000000E-02  4.0000000000000E-02  4.0000000000000E-02  4.0000000000000E-02  4.0000000000000E-02  4.0000000000000E-02  4.0000000000000E-02  3.9999999998769E-02 
 4.0000000001114E-02  4.0000000000000E-02  4.0000000000000E-02  4.0000000000000E-02  4.0000000000000E-02  4.0000000000000E-02  4.0000000000000E-02  4.0000000000000E-02  4.0000000000000E-02  3.9999999998769E-02 
 2.9207934823079E-02  2.9207885419112E-02  2.9207836015145E-02  2.9207786611177E-02  2.9207737207210E-02  2.9207687803242E-02  2.9207638399275E-02  2.9207588995307E-02  2.9207539591339E-02  2.9207490187371E-02 
 2.9814999641827E+02  2.9814999986590E+02  2.9814999998321E+02  2.9814999998915E+02  2.9814999999888E+02  2.9814999999014E+02  2.9814999998659E+02  2.9815000002569E+02  2.9815000030444E+02  2.9815000891699E+02 
 8.0911139820575E-01  8.0911139820575E-01  8.0911139820575E-01  8.0911139820575E-01  8.0911139820575E-01  8.0911139820575E-01  8.0911139820575E-01  8.0911139820575E-01  8.0911139820575E-01  8.0911139820575E-01 
 2.6811111111111E-05  5.3622222222222E-05  5.3622222222222E-05  5.3622222222222E-05  5.3622222222222E-05  5.3622222222222E-05  5.3622222222222E-05  5.3622222222223E-05  5.3622222222222E-05  2.6811111111111E-05 
 1.9088860179425E-01  1.9088860179425E-01  1.9088860179425E-01  1.9088860179425E-01  1.9088860179425E-01  1.9088860179425E-01  1.9088860179425E-01  1.9088860179425E-01  1.9088860179425E-01  1.9088860179425E-01 
 2.1450235538217E-09  2.1450235575921E-09  2.1450235614631E-09  2.1450235615885E-09  2.1450235616319E-09  2.1450235616139E-09  2.1450235616128E-09  2.1450235619533E-09  2.1450235716338E-09  2.1450235810093E-09 
 2.7702270063403E-02  2.7702270147708E-02  2.7702270233042E-02  2.7702270235651E-02  2.7702270237209E-02  2.7702270237472E-02  2.7702270236932E-02  2.7702270246231E-02  2.7702270460097E-02  2.7702270663837E-02 
 2.7702270063403E-02  2.7702270147708E-02  2.7702270233042E-02  2.7702270235651E-02  2.7702270237209E-02  2.7702270237472E-02  2.7702270236932E-02  2.7702270246231E-02  2.7702270460097E-02  2.7702270663837E-02 
 0.0000000000000E+00  0.0000000000000E+00  0.0000000000000E+00  0.0000000000000E+00  0.0000000000000E+00  0.0000000000000E+00  0.0000000000000E+00  0.0000000000000E+00  0.0000000000000E+00  0.0000000000000E+00 
ZONE T = "SEP , 1.1125E-07", I = 10, SOLUTIONTIME = 1.112500E-07
ZONETYPE = ORDERED
DATAPACKING = BLOCK
STRANDID = 2
 7.8740000000000E-04  8.4102222222222E-04  8.9464444444444E-04  9.4826666666667E-04  1.0018888888889E-03  1.0555111111111E-03  1.1091333333333E-03  1.1627555555556E-03  1.2163777777778E-03  1.2700000000000E-03 
 2.0887131064176E-08  2.0887131064176E-08  2.0887131064176E-08  2.0887131064176E-08  2.0887131064176E-08  2.0887131064176E-08  2.0887131064176E-08  2.0887131064176E-08  2.0887131064176E-08  1.9727724157278E-08 
 9.1999999999680E-01  9.2000000000000E-01  9.2000000000000E-01  9.2000000000000E-01  9.2000000000000E-01  9.2000000000000E-01  9.2000000000000E-01  9.2000000000000E-01  9.2000000000000E-01  9.2000000000353E-01 
 4.0000000001598E-02  4.0000000000000E-02  4.0000000000000E-02  4.0000000000000E-02  4.0000000000000E-02  4.0000000000000E-02  4.0000000000000E-02  4.0000000000000E-02  4.0000000000000E-02  3.9999999998233E-02 
 4.0000000001598E-02  4.0000000000000E-02  4.0000000000000E-02  4.0000000000000E-02  4.0000000000000E-02  4.0000000000000E-02  4.0000000000000E-02  4.0000000000000E-02  4.0000000000000E-02  3.9999999998233E-02 
 2.9226181761165E-02  2.9226132340238E-02  2.9226082919311E-02  2.9226033498384E-02  2.9225984077457E-02  2.9225934656530E-02  2.9225885235603E-02  2.9225835814675E-02  2.9225786393748E-02  2.9225736972820E-02 
 2.9814999486321E+02  2.9814999973793E+02  2.9814999996674E+02  2.9814999998873E+02  2.9814999999838E+02  2.9814999999107E+02  2.9814999998863E+02  2.9815000004142E+02  2.9815000065628E+02  2.9815001305633E+02 
 8.0911139820575E-01  8.0911139820575E-01  8.0911139820575E-01  8.0911139820575E-01  8.0911139820575E-01  8.0911139820575E-01  8.0911139820575E-01  8.0911139820575E-01  8.0911139820575E-01  8.0911139820575E-01 
 2.6811111111111E-05  5.3622222222222E-05  5.3622222222222E-05  5.3622222222222E-05  5.3622222222222E-05  5.3622222222222E-05  5.3622222222222E-05  5.3622222222223E-05  5.3622222222222E-05  2.6811111111111E-05 
 1.9088860179425E-01  1.9088860179425E-01  1.9088860179425E-01  1.9088860179425E-01  1.9088860179425E-01  1.9088860179425E-01  1.9088860179425E-01  1.9088860179425E-01  1.9088860179425E-01  1.9088860179425E-01 
 3.0806171863311E-09  3.0806171941015E-09  3.0806172021698E-09  3.0806172025334E-09  3.0806172026158E-09  3.0806172026036E-09  3.0806172026363E-09  3.0806172035301E-09  3.0806172239439E-09  3.0806172435255E-09 
 2.7721292815094E-02  2.7721292933612E-02  2.7721293057976E-02  2.7721293065034E-02  2.7721293066190E-02  2.7721293066362E-02  2.7721293067364E-02  2.7721293083758E-02  2.7721293401780E-02  2.7721293704184E-02 
 2.7721292815094E-02  2.7721292933612E-02  2.7721293057976E-02  2.7721293065034E-02  2.7721293066190E-02  2.7721293066362E-02  2.7721293067364E-02  2.7721293083758E-02  2.7721293401780E-02  2.7721293704184E-02 
 0.0000000000000E+00  0.0000000000000E+00  0.0000000000000E+00  0.0000000000000E+00  0.0000000000000E+00  0.0000000000000E+00  0.0000000000000E+00  0.0000000000000E+00  0.0000000000000E+00  0.0000000000000E+00 
ZONE T = "SEP , 1.6188E-07", I = 10, SOLUTIONTIME = 1.618750E-07
ZONETYPE = ORDERED
DATAPACKING = BLOCK
STRANDID = 2
 7.8740000000000E-04  8.4102222222222E-04  8.9464444444444E-04  9.4826666666667E-04  1.0018888888889E-03  1.0555111111111E-03  1.1091333333333E-03  1.1627555555556E-03  1.2163777777778E-03  1.2700000000000E-03 
 2.0896408748344E-08  2.0896408748344E-08  2.0896408748344E-08  2.0896408748344E-08  2.0896408748344E-08  2.0896408748344E-08  2.0896408748344E-08  2.0896408748344E-08  2.0896408748344E-08  1.9736854270344E-08 
 9.1999999999536E-01  9.2000000000000E-01  9.2000000000000E-01  9.2000000000000E-01  9.2000000000000E-01  9.2000000000000E-01  9.2000000000000E-01  9.2000000000000E-01  9.2000000000000E-01  9.2000000000514E-01 
 4.0000000002321E-02  4.0000000000001E-02  4.0000000000000E-02  4.0000000000000E-02  4.0000000000000E-02  4.0000000000000E-02  4.0000000000000E-02  4.0000000000000E-02  3.9999999999999E-02  3.9999999997428E-02 
 4.0000000002321E-02  4.0000000000001E-02  4.0000000000000E-02  4.0000000000000E-02  4.0000000000000E-02  4.0000000000000E-02  4.0000000000000E-02  4.0000000000000E-02  3.9999999999999E-02  3.9999999997428E-02 
 2.9253440982567E-02  2.9253391536292E-02  2.9253342090017E-02  2.9253292643742E-02  2.9253243197467E-02  2.9253193751191E-02  2.9253144304916E-02  2.9253094858641E-02  2.9253045412366E-02  2.9252995966089E-02 
 2.9814999249885E+02  2.9814999943643E+02  2.9814999993901E+02  2.9814999998594E+02  2.9815000000569E+02  2.9814999999355E+02  2.9814999999030E+02  2.9815000010151E+02  2.9815000142329E+02  2.9815001951081E+02 
 8.0911139820575E-01  8.0911139820575E-01  8.0911139820575E-01  8.0911139820575E-01  8.0911139820575E-01  8.0911139820575E-01  8.0911139820575E-01  8.0911139820575E-01  8.0911139820575E-01  8.0911139820575E-01 
 2.6811111111111E-05  5.3622222222222E-05  5.3622222222222E-05  5.3622222222222E-05  5.3622222222222E-05  5.3622222222222E-05  5.3622222222222E-05  5.3622222222223E-05  5.3622222222222E-05  2.6811111111111E-05 
 1.9088860179425E-01  1.9088860179425E-01  1.9088860179425E-01  1.9088860179425E-01  1.9088860179425E-01  1.9088860179425E-01  1.9088860179425E-01  1.9088860179425E-01  1.9088860179425E-01  1.9088860179425E-01 
 4.4854475973278E-09  4.4854476139580E-09  4.4854476315201E-09  4.4854476325378E-09  4.4854476326313E-09  4.4854476326283E-09  4.4854476328476E-09  4.4854476355734E-09  4.4854476805019E-09  4.4854477229346E-09 
 2.7749736513516E-02  2.7749736688523E-02  2.7749736876055E-02  2.7749736888976E-02  2.7749736889194E-02  2.7749736889376E-02  2.7749736893063E-02  2.7749736929250E-02  2.7749737413490E-02  2.7749737864872E-02 
 2.7749736513516E-02  2.7749736688523E-02  2.7749736876055E-02  2.7749736888976E-02  2.7749736889194E-02  2.7749736889376E-02  2.7749736893063E-02  2.7749736929250E-02  2.7749737413490E-02  2.7749737864872E-02 
 0.0000000000000E+00  0.0000000000000E+00  0.0000000000000E+00  0.0000000000000E+00  0.0000000000000E+00  0.0000000000000E+00  0.0000000000000E+00  0.0000000000000E+00  0.0000000000000E+00  0.0000000000000E+00 
ZONE T = "SEP , 2.3781E-07", I = 10, SOLUTIONTIME = 2.378125E-07
ZONETYPE = ORDERED
DATAPACKING = BLOCK
STRANDID = 2
 7.8740000000000E-04  8.4102222222222E-04  8.9464444444444E-04  9.4826666666667E-04  1.0018888888889E-03  1.0555111111111E-03  1.1091333333333E-03  1.1627555555556E-03  1.2163777777778E-03  1.2700000000000E-03 
 2.0913325582654E-08  2.0913421242302E-08  2.0913421242302E-08  2.0913421242302E-08  2.0913421242302E-08  2.0913421242302E-08  2.0913421242302E-08  2.0913421242302E-08  2.0913325582654E-08  1.9752714659928E-08 
 9.1999999999319E-01  9.2000000000000E-01  9.2000000000000E-01  9.2000000000000E-01  9.2000000000000E-01  9.2000000000000E-01  9.2000000000000E-01  9.2000000000000E-01  9.2000000000000E-01  9.2000000000756E-01 
 4.0000000003403E-02  4.0000000000001E-02  4.0000000000000E-02  4.0000000000000E-02  4.0000000000000E-02  4.0000000000000E-02  4.0000000000000E-02  4.0000000000000E-02  3.9999999999998E-02  3.9999999996221E-02 
 4.0000000003403E-02  4.0000000000001E-02  4.0000000000000E-02  4.0000000000000E-02  4.0000000000000E-02  4.0000000000000E-02  4.0000000000000E-02  4.0000000000000E-02  3.9999999999998E-02  3.9999999996221E-02 
 2.9293956256516E-02  2.9293906772533E-02  2.9293857288550E-02  2.9293807804566E-02  2.9293758320583E-02  2.9293708836599E-02  2.9293659352615E-02  2.9293609868632E-02  2.9293560384648E-02  2.9293510900662E-02 
 2.9814998895516E+02  2.9814999884411E+02  2.9814999986749E+02  2.9814999998085E+02  2.9814999999784E+02  2.9815000000253E+02  2.9815000000587E+02  2.9815000027304E+02  2.9815000302378E+02  2.9815002956798E+02 
 8.0911139820575E-01  8.0911139820575E-01  8.0911139820575E-01  8.0911139820575E-01  8.0911139820575E-01  8.0911139820575E-01  8.0911139820575E-01  8.0911139820575E-01  8.0911139820575E-01  8.0911139820575E-01 
 2.6811111111111E-05  5.3622222222222E-05  5.3622222222222E-05  5.3622222222222E-05  5.3622222222222E-05  5.3622222222222E-05  5.3622222222222E-05  5.3622222222223E-05  5.3622222222222E-05  2.6811111111111E-05 