TITLE = "Solution on Domain BulkDomain1D_0"
VARIABLES = "x [m]"  
"Vel_axial" 
"MF_sp(ECDMC)" 
"MF_sp(Li+)" 
"MF_sp(PF6-)" 
"Volt(Electroly)" 
"Volt(AnodeVolt)" 
"Temperature" 
"Potential Drop Electrode-Electrolyte [V]" 
"Surf_0 Equilibrium Potential Drop Electrode-Electrolyte [V]" 
"Overpotential_0 [V]" 
"Current Source [A/m^2]" 
"Li+ flux [kmol/m^2/s]" 
"Electrolyte Current [A/m^2]" 
"Electrode Current [A/m^2]" 
"CV Capacity discharged [A-s/m^2]" 
"Depth of discharge in CV [A-s/m^2]" 
"CV Capacity remaining [A-s/m^2]" 
"Initial CV capacity [A-s/m^2]" 
"Porosity []" 
"Surface Area [m2/m2] (area per area)" 
"Specific current (per particle area) [A/m^2]" 
"Control volume thickness [m]" 
"MoleDens Li_C6-bulk [kmol/m^3]" 
"MoleDens V_C6-bulk [kmol/m^3]" 
"qHeat_accum [J/m3]" 
"qHeat_step [W/m3]" 
"Joule_Lyte [W/m3]" 
"Joule_Solid [W/m3]" 
"electrodHeat [W/m3]" 
"OverpotHeat [W/m3]" 
"deltaSHeat [W/m3]" 

ZONE T = "ANOD, 0.0000E+00", I = 10, SOLUTIONTIME = 0.000000E+00
ZONETYPE = ORDERED
DATAPACKING = BLOCK
STRANDID = 1
 0.0000000000000E+00  8.7488888888889E-05  1.7497777777778E-04  2.6246666666667E-04  3.4995555555556E-04  4.3744444444444E-04  5.2493333333333E-04  6.1242222222222E-04  6.9991111111111E-04  7.8740000000000E-04 
 0.0000000000000E+00  0.0000000000000E+00  0.0000000000000E+00  0.0000000000000E+00  0.0000000000000E+00  0.0000000000000E+00  0.0000000000000E+00  0.0000000000000E+00  0.0000000000000E+00  0.0000000000000E+00 
 9.2000000000000E-01  9.2000000000000E-01  9.2000000000000E-01  9.2000000000000E-01  9.2000000000000E-01  9.2000000000000E-01  9.2000000000000E-01  9.2000000000000E-01  9.2000000000000E-01  9.2000000000000E-01 
 4.0000000000000E-02  4.0000000000000E-02  4.0000000000000E-02  4.0000000000000E-02  4.0000000000000E-02  4.0000000000000E-02  4.0000000000000E-02  4.0000000000000E-02  4.0000000000000E-02  4.0000000000000E-02 
 4.0000000000000E-02  4.0000000000000E-02  4.0000000000000E-02  4.0000000000000E-02  4.0000000000000E-02  4.0000000000000E-02  4.0000000000000E-02  4.0000000000000E-02  4.0000000000000E-02  4.0000000000000E-02 
-7.0000000000000E-02 -7.0000000000000E-02 -7.0000000000000E-02 -7.0000000000000E-02 -7.0000000000000E-02 -7.0000000000000E-02 -7.0000000000000E-02 -7.0000000000000E-02 -7.0000000000000E-02 -7.0000000000000E-02 
 0.0000000000000E+00  0.0000000000000E+00  0.0000000000000E+00  0.0000000000000E+00  0.0000000000000E+00  0.0000000000000E+00  0.0000000000000E+00  0.0000000000000E+00  0.0000000000000E+00  0.0000000000000E+00 
 2.9815000000000E+02  2.9815000000000E+02  2.9815000000000E+02  2.9815000000000E+02  2.9815000000000E+02  2.9815000000000E+02  2.9815000000000E+02  2.9815000000000E+02  2.9815000000000E+02  2.9815000000000E+02 
 7.0000000000000E-02  7.0000000000000E-02  7.0000000000000E-02  7.0000000000000E-02  7.0000000000000E-02  7.0000000000000E-02  7.0000000000000E-02  7.0000000000000E-02  7.0000000000000E-02  7.0000000000000E-02 
-4.0906712753390E-02 -4.0906712753390E-02 -4.0906712753390E-02 -4.0906712753390E-02 -4.0906712753390E-02 -4.0906712753390E-02 -4.0906712753390E-02 -4.0906712753390E-02 -4.0906712753390E-02 -4.0906712753390E-02 
 1.1090671275339E-01  1.1090671275339E-01  1.1090671275339E-01  1.1090671275339E-01  1.1090671275339E-01  1.1090671275339E-01  1.1090671275339E-01  1.1090671275339E-01  1.1090671275339E-01  1.1090671275339E-01 
 3.0930240924008E+01  6.1860481848017E+01  6.1860481848017E+01  6.1860481848017E+01  6.1860481848017E+01  6.1860481848017E+01  6.1860481848017E+01  6.1860481848017E+01  6.1860481848017E+01  3.0930240924008E+01 
-0.0000000000000E+00 -0.0000000000000E+00 -0.0000000000000E+00 -0.0000000000000E+00 -0.0000000000000E+00 -0.0000000000000E+00 -0.0000000000000E+00 -0.0000000000000E+00 -0.0000000000000E+00 -0.0000000000000E+00 
 0.0000000000000E+00  0.0000000000000E+00  0.0000000000000E+00  0.0000000000000E+00  0.0000000000000E+00  0.0000000000000E+00  0.0000000000000E+00  0.0000000000000E+00  0.0000000000000E+00  3.0930240924008E+01 
 3.0930240924008E+01 -0.0000000000000E+00 -0.0000000000000E+00 -0.0000000000000E+00 -0.0000000000000E+00 -0.0000000000000E+00 -0.0000000000000E+00 -0.0000000000000E+00 -0.0000000000000E+00  0.0000000000000E+00 
 0.0000000000000E+00  0.0000000000000E+00  0.0000000000000E+00  0.0000000000000E+00  0.0000000000000E+00  0.0000000000000E+00  0.0000000000000E+00  0.0000000000000E+00  0.0000000000000E+00  0.0000000000000E+00 
 4.5724222271641E+04  9.1448444543281E+04  9.1448444543281E+04  9.1448444543281E+04  9.1448444543281E+04  9.1448444543281E+04  9.1448444543281E+04  9.1448444543281E+04  9.1448444543281E+04  4.5724222271641E+04 
 3.3835924481014E+05  6.7671848962028E+05  6.7671848962028E+05  6.7671848962028E+05  6.7671848962028E+05  6.7671848962028E+05  6.7671848962028E+05  6.7671848962028E+05  6.7671848962028E+05  3.3835924481014E+05 
 3.8408346708178E+05  7.6816693416356E+05  7.6816693416356E+05  7.6816693416356E+05  7.6816693416356E+05  7.6816693416356E+05  7.6816693416356E+05  7.6816693416356E+05  7.6816693416356E+05  3.8408346708178E+05 
 3.5000000000000E-01  3.5000000000000E-01  3.5000000000000E-01  3.5000000000000E-01  3.5000000000000E-01  3.5000000000000E-01  3.5000000000000E-01  3.5000000000000E-01  3.5000000000000E-01  3.5000000000000E-01 
 8.5301666666667E+00  1.7060333333333E+01  1.7060333333333E+01  1.7060333333333E+01  1.7060333333333E+01  1.7060333333333E+01  1.7060333333333E+01  1.7060333333333E+01  1.7060333333333E+01  8.5301666666667E+00 
 3.6259831879809E+00  3.6259831879809E+00  3.6259831879809E+00  3.6259831879809E+00  3.6259831879809E+00  3.6259831879809E+00  3.6259831879809E+00  3.6259831879809E+00  3.6259831879809E+00  3.6259831879809E+00 
 4.3744444444444E-05  8.7488888888889E-05  8.7488888888889E-05  8.7488888888889E-05  8.7488888888889E-05  8.7488888888889E-05  8.7488888888889E-05  8.7488888888889E-05  8.7488888888889E-05  4.3744444444444E-05 
 8.6666666666667E+01  8.6666666666667E+01  8.6666666666667E+01  8.6666666666667E+01  8.6666666666667E+01  8.6666666666667E+01  8.6666666666667E+01  8.6666666666667E+01  8.6666666666667E+01  8.6666666666667E+01 
 2.1666666666667E+01  2.1666666666667E+01  2.1666666666667E+01  2.1666666666667E+01  2.1666666666667E+01  2.1666666666667E+01  2.1666666666667E+01  2.1666666666667E+01  2.1666666666667E+01  2.1666666666667E+01 
 0.0000000000000E+00  0.0000000000000E+00  0.0000000000000E+00  0.0000000000000E+00  0.0000000000000E+00  0.0000000000000E+00  0.0000000000000E+00  0.0000000000000E+00  0.0000000000000E+00  0.0000000000000E+00 
 0.0000000000000E+00  0.0000000000000E+00  0.0000000000000E+00  0.0000000000000E+00  0.0000000000000E+00  0.0000000000000E+00  0.0000000000000E+00  0.0000000000000E+00  0.0000000000000E+00  0.0000000000000E+00 
 0.0000000000000E+00  0.0000000000000E+00  0.0000000000000E+00  0.0000000000000E+00  0.0000000000000E+00  0.0000000000000E+00  0.0000000000000E+00  0.0000000000000E+00  0.0000000000000E+00  0.0000000000000E+00 
 0.0000000000000E+00  0.0000000000000E+00  0.0000000000000E+00  0.0000000000000E+00  0.0000000000000E+00  0.0000000000000E+00  0.0000000000000E+00  0.0000000000000E+00  0.0000000000000E+00  0.0000000000000E+00 
 0.0000000000000E+00  0.0000000000000E+00  0.0000000000000E+00  0.0000000000000E+00  0.0000000000000E+00  0.0000000000000E+00  0.0000000000000E+00  0.0000000000000E+00  0.0000000000000E+00  0.0000000000000E+00 
 0.0000000000000E+00  0.0000000000000E+00  0.0000000000000E+00  0.0000000000000E+00  0.0000000000000E+00  0.0000000000000E+00  0.0000000000000E+00  0.0000000000000E+00  0.0000000000000E+00  0.0000000000000E+00 
 0.0000000000000E+00  0.0000000000000E+00  0.0000000000000E+00  0.0000000000000E+00  0.0000000000000E+00  0.0000000000000E+00  0.0000000000000E+00  0.0000000000000E+00  0.0000000000000E+00  0.0000000000000E+00 
ZONE T = "ANOD, 1.0000E-08", I = 10, SOLUTIONTIME = 1.000000E-08
ZONETYPE = ORDERED
DATAPACKING = BLOCK
STRANDID = 1
 0.0000000000000E+00  8.7488888888889E-05  1.7497777777778E-04  2.6246666666667E-04  3.4995555555556E-04  4.3744444444444E-04  5.2493333333333E-04  6.1242222222222E-04  6.9991111111111E-04  7.8740000000000E-04 
 1.1699590700114E-09  3.4871577359238E-09  5.8040778392080E-09  8.1210094204741E-09  1.0437962432012E-08  1.2754943416725E-08  1.5071958778816E-08  1.7389014985481E-08  1.9705755182526E-08  2.0865060385492E-08 
 9.1999999999930E-01  9.1999999999930E-01  9.1999999999930E-01  9.1999999999930E-01  9.1999999999930E-01  9.1999999999930E-01  9.1999999999930E-01  9.1999999999930E-01  9.1999999999930E-01  9.1999999999971E-01 
 4.0000000000352E-02  4.0000000000348E-02  4.0000000000348E-02  4.0000000000348E-02  4.0000000000348E-02  4.0000000000348E-02  4.0000000000348E-02  4.0000000000348E-02  4.0000000000348E-02  4.0000000000144E-02 
 4.0000000000352E-02  4.0000000000348E-02  4.0000000000348E-02  4.0000000000348E-02  4.0000000000348E-02  4.0000000000348E-02  4.0000000000348E-02  4.0000000000348E-02  4.0000000000348E-02  4.0000000000144E-02 
 2.9172734663005E-02  2.9172718785783E-02  2.9172671466229E-02  2.9172592706954E-02  2.9172482507739E-02  2.9172340868291E-02  2.9172167788229E-02  2.9171963267083E-02  2.9171727304315E-02  2.9171459899276E-02 
 0.0000000000000E+00 -4.7349957017592E-09 -8.9128920573221E-09 -1.2533756038536E-08 -1.5597584885873E-08 -1.8104373447080E-08 -2.0054114996862E-08 -2.1446801270234E-08 -2.2282422447373E-08 -2.2560967180946E-08 
 2.9819800342923E+02  2.9815060797647E+02  2.9815000618220E+02  2.9814999860509E+02  2.9814999841525E+02  2.9814999846747E+02  2.9814999847096E+02  2.9814999855504E+02  2.9814999848480E+02  2.9814999956426E+02 
-2.9172734663005E-02 -2.9172723520778E-02 -2.9172680379121E-02 -2.9172605240710E-02 -2.9172498105324E-02 -2.9172358972665E-02 -2.9172187842344E-02 -2.9171984713884E-02 -2.9171749586737E-02 -2.9171482460243E-02 
-4.0940234518847E-02 -4.0907137303024E-02 -4.0906717070113E-02 -4.0906711779023E-02 -4.0906711646460E-02 -4.0906711682928E-02 -4.0906711685365E-02 -4.0906711744079E-02 -4.0906711695027E-02 -4.0906712448944E-02 
 1.1767499855843E-02  1.1734413782245E-02  1.1734036690992E-02  1.1734106538313E-02  1.1734213541136E-02  1.1734352710263E-02  1.1734523843021E-02  1.1734727030195E-02  1.1734962108290E-02  1.1735229988701E-02 
 1.6848428896214E+00  3.3369677648643E+00  3.3365666103583E+00  3.3365831382601E+00  3.3366139993387E+00  3.3366542828133E+00  3.3367037889448E+00  3.3367626067821E+00  3.3368305750421E+00  1.6684542951307E+00 
 8.7310380544946E-09  2.6023570966616E-08  4.3314011146917E-08  6.0604545869634E-08  7.7895240827983E-08  9.5186146170937E-08  1.1247730922937E-07  1.2976876822119E-07  1.4706065597145E-07  1.4706065597145E-07 
 0.0000000000000E+00  3.3533100268160E+00  6.6900599380604E+00  1.0026616938352E+01  1.3363198519467E+01  1.6699815859849E+01  2.0036478365308E+01  2.3373194289263E+01  2.6709973180227E+01  3.0046834128055E+01 
 3.0046834423824E+01  2.6693516213870E+01  2.3356766149415E+01  2.0020208396563E+01  1.6683626948457E+01  1.3347009927891E+01  1.0010348012434E+01  6.6736319341867E+00  3.3368524617214E+00  0.0000000000000E+00 
 1.6848428896214E-08  3.3369677648643E-08  3.3365666103583E-08  3.3365831382601E-08  3.3366139993387E-08  3.3366542828133E-08  3.3367037889448E-08  3.3367626067821E-08  3.3368305750421E-08  1.6684542951307E-08 
 4.5724222271657E+04  9.1448444543315E+04  9.1448444543315E+04  9.1448444543315E+04  9.1448444543315E+04  9.1448444543315E+04  9.1448444543315E+04  9.1448444543315E+04  9.1448444543315E+04  4.5724222271657E+04 
 3.3835924481012E+05  6.7671848962025E+05  6.7671848962025E+05  6.7671848962025E+05  6.7671848962025E+05  6.7671848962025E+05  6.7671848962025E+05  6.7671848962025E+05  6.7671848962025E+05  3.3835924481012E+05 
 3.8408346708178E+05  7.6816693416356E+05  7.6816693416356E+05  7.6816693416356E+05  7.6816693416356E+05  7.6816693416356E+05  7.6816693416356E+05  7.6816693416356E+05  7.6816693416356E+05  3.8408346708178E+05 
 3.5000000000000E-01  3.5000000000000E-01  3.5000000000000E-01  3.5000000000000E-01  3.5000000000000E-01  3.5000000000000E-01  3.5000000000000E-01  3.5000000000000E-01  3.5000000000000E-01  3.5000000000000E-01 
 8.5301666666667E+00  1.7060333333333E+01  1.7060333333333E+01  1.7060333333333E+01  1.7060333333333E+01  1.7060333333333E+01  1.7060333333333E+01  1.7060333333333E+01  1.7060333333333E+01  8.5301666666667E+00 
 1.9751582301496E-01  1.9559804018274E-01  1.9557452631005E-01  1.9557549510131E-01  1.9557730403892E-01  1.9557966527500E-01  1.9558256710174E-01  1.9558601473880E-01  1.9558999873247E-01  1.9559457163369E-01 
 4.3744444444444E-05  8.7488888888889E-05  8.7488888888889E-05  8.7488888888889E-05  8.7488888888889E-05  8.7488888888889E-05  8.7488888888889E-05  8.7488888888889E-05  8.7488888888889E-05  4.3744444444444E-05 
 8.6666666666663E+01  8.6666666666663E+01  8.6666666666663E+01  8.6666666666663E+01  8.6666666666663E+01  8.6666666666663E+01  8.6666666666663E+01  8.6666666666663E+01  8.6666666666663E+01  8.6666666666663E+01 
 2.1666666666671E+01  2.1666666666671E+01  2.1666666666671E+01  2.1666666666671E+01  2.1666666666671E+01  2.1666666666671E+01  2.1666666666671E+01  2.1666666666671E+01  2.1666666666671E+01  2.1666666666671E+01 
-7.5673988564451E-05 -7.4934601989958E-05 -7.4925485765512E-05 -7.4925770209870E-05 -7.4926340628038E-05 -7.4927086046882E-05 -7.4928001950563E-05 -7.4929090348667E-05 -7.4930347593357E-05 -7.4931901926753E-05 
-7.5673988564451E+03 -7.4934601989958E+03 -7.4925485765512E+03 -7.4925770209870E+03 -7.4926340628038E+03 -7.4927086046882E+03 -7.4928001950563E+03 -7.4929090348667E+03 -7.4930347593357E+03 -7.4931901926753E+03 
 3.0575865346993E-04  1.5109299029247E-03  5.1202215459822E-03  1.1127499391658E-02  1.9532890284847E-02  3.0336485594042E-02  4.3538402876780E-02  5.9138780751414E-02  7.7137790191452E-02  8.6736977171515E-02 
 1.5349824384938E-03  1.3650072494236E-03  1.0463220347656E-03  7.7014485756504E-04  5.3645333338247E-04  3.4524774678415E-04  1.9652909992436E-04  9.0298872146825E-05  2.6559014565592E-05  5.3119519306477E-06 
-7.5674006971862E+03 -7.4934630749330E+03 -7.4925547430948E+03 -7.4925889186312E+03 -7.4926541321474E+03 -7.4927392864216E+03 -7.4928439299882E+03 -7.4929682639463E+03 -7.4931119236849E+03 -7.4932769349644E+03 
 4.5323214668545E+02  4.4756952601613E+02  4.4750134017992E+02  4.4750622068994E+02  4.4751444064004E+02  4.4752515119049E+02  4.4753831791077E+02  4.4755395631581E+02  4.4757203866630E+02  4.4759272012278E+02 
-8.0206328438716E+03 -7.9410326009491E+03 -7.9400560832747E+03 -7.9400951393212E+03 -7.9401685727875E+03 -7.9402644376120E+03 -7.9403822478990E+03 -7.9405222202621E+03 -7.9406839623512E+03 -7.9408696550872E+03 
ZONE T = "ANOD, 2.0000E-08", I = 10, SOLUTIONTIME = 2.000000E-08
ZONETYPE = ORDERED
DATAPACKING = BLOCK
STRANDID = 1
 0.0000000000000E+00  8.7488888888889E-05  1.7497777777778E-04  2.6246666666667E-04  3.4995555555556E-04  4.3744444444444E-04  5.2493333333333E-04  6.1242222222222E-04  6.9991111111111E-04  7.8740000000000E-04 
 1.1808678359673E-09  3.4975624712759E-09  5.8134235000511E-09  8.1292853833543E-09  1.0445168575195E-08  1.2761079748741E-08  1.5077025348518E-08  1.7393011692284E-08  1.9709045281658E-08  2.0867089418344E-08 
 9.1999999999859E-01  9.1999999999861E-01  9.1999999999861E-01  9.1999999999861E-01  9.1999999999861E-01  9.1999999999861E-01  9.1999999999861E-01  9.1999999999861E-01  9.1999999999861E-01  9.1999999999942E-01 
 4.0000000000706E-02  4.0000000000696E-02  4.0000000000696E-02  4.0000000000696E-02  4.0000000000696E-02  4.0000000000696E-02  4.0000000000696E-02  4.0000000000696E-02  4.0000000000696E-02  4.0000000000288E-02 
 4.0000000000706E-02  4.0000000000696E-02  4.0000000000696E-02  4.0000000000696E-02  4.0000000000696E-02  4.0000000000696E-02  4.0000000000696E-02  4.0000000000696E-02  4.0000000000696E-02  4.0000000000288E-02 
 2.9178117000492E-02  2.9178100976408E-02  2.9178053518044E-02  2.9177974634409E-02  2.9177864325353E-02  2.9177722590584E-02  2.9177549429721E-02  2.9177344842297E-02  2.9177108827760E-02  2.9176841385468E-02 
 0.0000000000000E+00 -4.7329481644959E-09 -8.9089181614954E-09 -1.2528110406121E-08 -1.5590524692928E-08 -1.8096155898931E-08 -2.0044997296789E-08 -2.1437040609769E-08 -2.2272276042230E-08 -2.2550692235413E-08 
 2.9824461118878E+02  2.9815179258576E+02  2.9815002743083E+02  2.9814999753423E+02  2.9814999704373E+02  2.9814999707487E+02  2.9814999714804E+02  2.9814999699754E+02  2.9814999700833E+02  2.9814999914340E+02 
-2.9178117000492E-02 -2.9178105709356E-02 -2.9178062426963E-02 -2.9177987162520E-02 -2.9177879915878E-02 -2.9177740686740E-02 -2.9177569474718E-02 -2.9177366279338E-02 -2.9177131100036E-02 -2.9176863936160E-02 
-4.0972783547148E-02 -4.0907964516238E-02 -4.0906731907734E-02 -4.0906711030946E-02 -4.0906710688432E-02 -4.0906710710176E-02 -4.0906710761273E-02 -4.0906710656176E-02 -4.0906710663708E-02 -4.0906712154896E-02 
 1.1794666546656E-02  1.1729858806881E-02  1.1728669480772E-02  1.1728723868426E-02  1.1728830772554E-02  1.1728970023437E-02  1.1729141286555E-02  1.1729344376838E-02  1.1729579563672E-02  1.1729848218736E-02 
 1.7002822144139E+00  3.3362247964661E+00  3.3350243366518E+00  3.3350255672148E+00  3.3350562532115E+00  3.3350965491405E+00  3.3351461256113E+00  3.3352048002126E+00  3.3352728376353E+00  1.6676757934749E+00 
 8.8110948614536E-09  2.6099857282304E-08  4.3382402211778E-08  6.0664953571453E-08  7.7947663962281E-08  9.5230583168321E-08  1.1251375928066E-07  1.2979723946503E-07  1.4708121635432E-07  1.4708121635432E-07 
 0.0000000000000E+00  3.3683946124593E+00  6.7040191792127E+00  1.0039044131060E+01  1.3374085041088E+01  1.6709161442310E+01  2.0044282779850E+01  2.3379458242703E+01  2.6714697061450E+01  3.0050009273762E+01 
 3.0050009274014E+01  2.6681614661378E+01  2.3345990094834E+01  2.0010965142898E+01  1.6675924232673E+01  1.3340847831510E+01  1.0005726494147E+01  6.6705510312329E+00  3.3353122123041E+00  0.0000000000000E+00 
 3.3851251040353E-08  6.6731925613304E-08  6.6715909470101E-08  6.6716087054749E-08  6.6716702525502E-08  6.6717508319538E-08  6.6718499145561E-08  6.6719674069948E-08  6.6721034126774E-08  3.3361300886056E-08 
 4.5724222271674E+04  9.1448444543348E+04  9.1448444543348E+04  9.1448444543348E+04  9.1448444543348E+04  9.1448444543348E+04  9.1448444543348E+04  9.1448444543348E+04  9.1448444543348E+04  4.5724222271674E+04 
 3.3835924481011E+05  6.7671848962021E+05  6.7671848962021E+05  6.7671848962021E+05  6.7671848962021E+05  6.7671848962021E+05  6.7671848962021E+05  6.7671848962021E+05  6.7671848962021E+05  3.3835924481011E+05 
 3.8408346708178E+05  7.6816693416356E+05  7.6816693416356E+05  7.6816693416356E+05  7.6816693416356E+05  7.6816693416356E+05  7.6816693416356E+05  7.6816693416356E+05  7.6816693416356E+05  3.8408346708178E+05 
 3.5000000000000E-01  3.5000000000000E-01  3.5000000000000E-01  3.5000000000000E-01  3.5000000000000E-01  3.5000000000000E-01  3.5000000000000E-01  3.5000000000000E-01  3.5000000000000E-01  3.5000000000000E-01 
 8.5301666666667E+00  1.7060333333333E+01  1.7060333333333E+01  1.7060333333333E+01  1.7060333333333E+01  1.7060333333333E+01  1.7060333333333E+01  1.7060333333333E+01  1.7060333333333E+01  8.5301666666667E+00 
 1.9932579055671E-01  1.9555449071723E-01  1.9548412516276E-01  1.9548419729283E-01  1.9548599596792E-01  1.9548835793403E-01  1.9549126388374E-01  1.9549470312495E-01  1.9549869117262E-01  1.9550330710321E-01 
 4.3744444444444E-05  8.7488888888889E-05  8.7488888888889E-05  8.7488888888889E-05  8.7488888888889E-05  8.7488888888889E-05  8.7488888888889E-05  8.7488888888889E-05  8.7488888888889E-05  4.3744444444444E-05 
 8.6666666666659E+01  8.6666666666659E+01  8.6666666666659E+01  8.6666666666659E+01  8.6666666666659E+01  8.6666666666659E+01  8.6666666666659E+01  8.6666666666659E+01  8.6666666666659E+01  8.6666666666659E+01 
 2.1666666666675E+01  2.1666666666675E+01  2.1666666666675E+01  2.1666666666675E+01  2.1666666666675E+01  2.1666666666675E+01  2.1666666666675E+01  2.1666666666675E+01  2.1666666666675E+01  2.1666666666675E+01 
-1.5204814392544E-04 -1.4985468754994E-04 -1.4981839189699E-04 -1.4981861499567E-04 -1.4981975181961E-04 -1.4982124292315E-04 -1.4982307634464E-04 -1.4982524996879E-04 -1.4982776612601E-04 -1.4983089148902E-04 
-7.6374155360991E+03 -7.4920085559986E+03 -7.4892906131481E+03 -7.4892844785805E+03 -7.4893411191568E+03 -7.4894156876271E+03 -7.4895074394080E+03 -7.4896159620125E+03 -7.4897418532650E+03 -7.4898989562265E+03 
 6.1717493883396E-04  3.0326651138292E-03  1.0260309721590E-02  2.2281579020659E-02  3.9096853548972E-02  6.0706322018470E-02  8.7110219009931E-02  1.1830882621879E-01  1.5430248460533E-01  1.7349812396699E-01 
 3.0686376300817E-03  2.7287999930061E-03  2.0916788593908E-03  1.5395787335189E-03  1.0724114270379E-03  6.9017677621927E-04  3.9287677669345E-04  1.8051438917233E-04  5.3093514936721E-05  1.0619002366213E-05 
-7.6374173811706E+03 -7.4920114415265E+03 -7.4892967985931E+03 -7.4892964020940E+03 -7.4893612190782E+03 -7.4894464023925E+03 -7.4895512075719E+03 -7.4896752222735E+03 -7.4898190444939E+03 -7.4899857226804E+03 
 4.5844134059305E+02  4.4729618021564E+02  4.4708989509903E+02  4.4709213329278E+02  4.4710032220535E+02  4.4711103258564E+02  4.4712420761254E+02  4.4713981588457E+02  4.4715790328558E+02  4.4717870312693E+02 
-8.0958587217637E+03 -7.9393076217422E+03 -7.9363866936922E+03 -7.9363885353867E+03 -7.9364615412835E+03 -7.9365574349782E+03 -7.9366754151844E+03 -7.9368150381581E+03 -7.9369769477795E+03 -7.9371644258073E+03 
ZONE T = "ANOD, 3.0000E-08", I = 10, SOLUTIONTIME = 3.000000E-08
ZONETYPE = ORDERED
DATAPACKING = BLOCK
STRANDID = 1
 0.0000000000000E+00  8.7488888888889E-05  1.7497777777778E-04  2.6246666666667E-04  3.4995555555556E-04  4.3744444444444E-04  5.2493333333333E-04  6.1242222222222E-04  6.9991111111111E-04  7.8740000000000E-04 
 1.1911677791777E-09  3.5076039395265E-09  5.8234913998798E-09  8.1393592106414E-09  1.0455247900155E-08  1.2770074966469E-08  1.5086026050779E-08  1.7400928261289E-08  1.9715877729975E-08  2.0873380073090E-08 
 9.1999999999787E-01  9.1999999999791E-01  9.1999999999791E-01  9.1999999999791E-01  9.1999999999791E-01  9.1999999999791E-01  9.1999999999791E-01  9.1999999999791E-01  9.1999999999791E-01  9.1999999999914E-01 
 4.0000000001064E-02  4.0000000001044E-02  4.0000000001044E-02  4.0000000001044E-02  4.0000000001044E-02  4.0000000001044E-02  4.0000000001044E-02  4.0000000001044E-02  4.0000000001044E-02  4.0000000000432E-02 
 4.0000000001064E-02  4.0000000001044E-02  4.0000000001044E-02  4.0000000001044E-02  4.0000000001044E-02  4.0000000001044E-02  4.0000000001044E-02  4.0000000001044E-02  4.0000000001044E-02  4.0000000000432E-02 
 2.9183511206707E-02  2.9183495039095E-02  2.9183447441866E-02  2.9183368433929E-02  2.9183258015283E-02  2.9183116185634E-02  2.9182942944603E-02  2.9182738291723E-02  2.9182502226442E-02  2.9182234748115E-02 
 0.0000000000000E+00 -4.7309363881633E-09 -8.9049567512062E-09 -1.2522454973687E-08 -1.5583435779746E-08 -1.8087894149729E-08 -2.0035823351898E-08 -2.1427215117076E-08 -2.2262059648323E-08 -2.2540345583860E-08 
 2.9828987855079E+02  2.9815352214180E+02  2.9815006993677E+02  2.9814999698740E+02  2.9814999554994E+02  2.9814999558031E+02  2.9814999555526E+02  2.9814999539019E+02  2.9814999540822E+02  2.9814999864997E+02 
-2.9183511206707E-02 -2.9183499770032E-02 -2.9183456346823E-02 -2.9183380956384E-02 -2.9183273598719E-02 -2.9183134273528E-02 -2.9182962980427E-02 -2.9182759718939E-02 -2.9182524488501E-02 -2.9182257288461E-02 
-4.1004398274192E-02 -4.0909172268308E-02 -4.0906761589320E-02 -4.0906710648794E-02 -4.0906709645013E-02 -4.0906709666225E-02 -4.0906709648730E-02 -4.0906709533458E-02 -4.0906709546056E-02 -4.0906711810162E-02 
 1.1820887067485E-02  1.1725672498276E-02  1.1723305242497E-02  1.1723329692410E-02  1.1723436046294E-02  1.1723575392696E-02  1.1723746668303E-02  1.1723949814520E-02  1.1724185057554E-02  1.1724454521701E-02 
 1.7153764769270E+00  3.3358525719287E+00  3.3334932560636E+00  3.3334649590500E+00  3.3334950261260E+00  3.3335353483505E+00  3.3335848796116E+00  3.3336435619639E+00  3.3337116175406E+00  1.6668955675860E+00 
 8.8893188585061E-09  2.6176148951750E-08  4.3450759529054E-08  6.0725223605068E-08  7.7999843510734E-08  9.5274672359367E-08  1.1254975788519E-07  1.2982514752664E-07  1.4710110598001E-07  1.4710110598001E-07 
 0.0000000000000E+00  3.3833027628844E+00  6.7179756768607E+00  1.0051454784355E+01  1.3384934777132E+01  1.6718449964248E+01  2.0052010078121E+01  2.3385624299038E+01  2.6719301888812E+01  3.0053053265168E+01 
 3.0053053265120E+01  2.6669750502235E+01  2.3335077588253E+01  2.0001598480694E+01  1.6668118488090E+01  1.3334603300849E+01  1.0001043186871E+01  6.6674289660790E+00  3.3337513763389E+00  0.0000000000000E+00 
 5.1005015809623E-08  1.0009045133259E-07  1.0005084203074E-07  1.0005073664525E-07  1.0005165278676E-07  1.0005286180304E-07  1.0005434794168E-07  1.0005610968959E-07  1.0005815030218E-07  5.0030256561916E-08 
 4.5724222271692E+04  9.1448444543381E+04  9.1448444543381E+04  9.1448444543381E+04  9.1448444543381E+04  9.1448444543381E+04  9.1448444543381E+04  9.1448444543381E+04  9.1448444543381E+04  4.5724222271691E+04 
 3.3835924481009E+05  6.7671848962018E+05  6.7671848962018E+05  6.7671848962018E+05  6.7671848962018E+05  6.7671848962018E+05  6.7671848962018E+05  6.7671848962018E+05  6.7671848962018E+05  3.3835924481009E+05 
 3.8408346708178E+05  7.6816693416356E+05  7.6816693416356E+05  7.6816693416356E+05  7.6816693416356E+05  7.6816693416356E+05  7.6816693416356E+05  7.6816693416356E+05  7.6816693416356E+05  3.8408346708178E+05 
 3.5000000000000E-01  3.5000000000000E-01  3.5000000000000E-01  3.5000000000000E-01  3.5000000000000E-01  3.5000000000000E-01  3.5000000000000E-01  3.5000000000000E-01  3.5000000000000E-01  3.5000000000000E-01 
 8.5301666666667E+00  1.7060333333333E+01  1.7060333333333E+01  1.7060333333333E+01  1.7060333333333E+01  1.7060333333333E+01  1.7060333333333E+01  1.7060333333333E+01  1.7060333333333E+01  8.5301666666667E+00 
 2.0109530610113E-01  1.9553267258917E-01  1.9539438010572E-01  1.9539272146207E-01  1.9539448385881E-01  1.9539684736624E-01  1.9539975066596E-01  1.9540319036149E-01  1.9540717947328E-01  1.9541184043915E-01 
 4.3744444444444E-05  8.7488888888889E-05  8.7488888888889E-05  8.7488888888889E-05  8.7488888888889E-05  8.7488888888889E-05  8.7488888888889E-05  8.7488888888889E-05  8.7488888888889E-05  4.3744444444444E-05 
 8.6666666666655E+01  8.6666666666655E+01  8.6666666666655E+01  8.6666666666655E+01  8.6666666666655E+01  8.6666666666655E+01  8.6666666666655E+01  8.6666666666655E+01  8.6666666666655E+01  8.6666666666655E+01 
 2.1666666666679E+01  2.1666666666679E+01  2.1666666666679E+01  2.1666666666679E+01  2.1666666666679E+01  2.1666666666679E+01  2.1666666666679E+01  2.1666666666679E+01  2.1666666666679E+01  2.1666666666679E+01 
-2.2910695767091E-04 -2.2476863914534E-04 -2.2467897445060E-04 -2.2467846881086E-04 -2.2468015799875E-04 -2.2468239536702E-04 -2.2468514531102E-04 -2.2468840440325E-04 -2.2469217999077E-04 -2.2469689385563E-04 
-7.7058813745467E+03 -7.4913951595401E+03 -7.4860582553611E+03 -7.4859853815190E+03 -7.4860406179140E+03 -7.4861152443869E+03 -7.4862068966381E+03 -7.4863154434463E+03 -7.4864413864767E+03 -7.4866002366616E+03 
 9.3416994345698E-04  4.5651914116591E-03  1.5420302778812E-02  3.3462233014935E-02  5.8691805719998E-02  9.1109319097863E-02  1.3071512494004E-01  1.7750964793750E-01  2.3149339920848E-01  2.6028265231421E-01 
 4.6009893146885E-03  4.0913837033103E-03  3.1360587483433E-03  2.3082924716416E-03  1.6078678901427E-03  1.0347829748390E-03  5.8904068983504E-04  2.7064547678857E-04  7.9603184980360E-05  1.5921088132293E-05 
-7.7058832238933E+03 -7.4913980546501E+03 -7.4860644597340E+03 -7.4859973308867E+03 -7.4860607483227E+03 -7.4861459919902E+03 -7.4862506977079E+03 -7.4863747343991E+03 -7.4865186039010E+03 -7.4866870264921E+03 
 4.6353935613746E+02  4.4708665589970E+02  4.4668025233482E+02  4.4667739218194E+02  4.4668547339541E+02  4.4669618596920E+02  4.4670934930070E+02  4.4672495350057E+02  4.4674303708380E+02  4.4676396106850E+02 
-8.1694225800308E+03 -7.9384847105498E+03 -7.9327447120688E+03 -7.9326747230687E+03 -7.9327462217181E+03 -7.9328421779594E+03 -7.9329600470086E+03 -7.9330996878996E+03 -7.9332616409848E+03 -7.9334509875606E+03 
ZONE T = "ANOD, 4.0000E-08", I = 10, SOLUTIONTIME = 4.000000E-08
ZONETYPE = ORDERED
DATAPACKING = BLOCK
STRANDID = 1
 0.0000000000000E+00  8.7488888888889E-05  1.7497777777778E-04  2.6246666666667E-04  3.4995555555556E-04  4.3744444444444E-04  5.2493333333333E-04  6.1242222222222E-04  6.9991111111111E-04  7.8740000000000E-04 
 1.2014153950887E-09  3.5178364961902E-09  5.8304921973815E-09  8.1430950927438E-09  1.0456807660641E-08  1.2770548236467E-08  1.5083233651048E-08  1.7397049485033E-08  1.9710912558396E-08  2.0867871942390E-08 
 9.1999999999715E-01  9.1999999999722E-01  9.1999999999722E-01  9.1999999999722E-01  9.1999999999722E-01  9.1999999999722E-01  9.1999999999722E-01  9.1999999999722E-01  9.1999999999722E-01  9.1999999999885E-01 
 4.0000000001425E-02  4.0000000001392E-02  4.0000000001391E-02  4.0000000001391E-02  4.0000000001391E-02  4.0000000001391E-02  4.0000000001391E-02  4.0000000001391E-02  4.0000000001391E-02  4.0000000000576E-02 
 4.0000000001425E-02  4.0000000001392E-02  4.0000000001391E-02  4.0000000001391E-02  4.0000000001391E-02  4.0000000001391E-02  4.0000000001391E-02  4.0000000001391E-02  4.0000000001391E-02  4.0000000000576E-02 
 2.9188917298881E-02  2.9188900990915E-02  2.9188853254648E-02  2.9188774122132E-02  2.9188663593648E-02  2.9188521668905E-02  2.9188348347524E-02  2.9188143629036E-02  2.9187907512889E-02  2.9187639998438E-02 
 0.0000000000000E+00 -4.7289821674651E-09 -8.9010519303439E-09 -1.2516852597079E-08 -1.5576396863213E-08 -1.8079679908493E-08 -2.0026694999273E-08 -2.1417433850236E-08 -2.2251886653183E-08 -2.2530042050853E-08 