TITLE = "Solution on Domain BulkDomain1D_0"
VARIABLES = "x [m]"  
"Vel_axial" 
"MF_sp(ECDMC)" 
"MF_sp(Li+)" 
"MF_sp(PF6-)" 
"Volt(Electroly)" 
"Volt(AnodeVolt)" 
"Temperature" 
"Potential Drop Electrode-Electrolyte [V]" 
"Surf_0 Equilibrium Potential Drop Electrode-Electrolyte [V]" 
"Overpotential_0 [V]" 
"Current Source [A/m^2]" 
"Li+ flux [kmol/m^2/s]" 
"Electrolyte Current [A/m^2]" 
"Electrode Current [A/m^2]" 
"CV Capacity discharged [A-s/m^2]" 
"Depth of discharge in CV [A-s/m^2]" 
"CV Capacity remaining [A-s/m^2]" 
"Initial CV capacity [A-s/m^2]" 
"Porosity []" 
"Surface Area [m2/m2] (area per area)" 
"Specific current (per particle area) [A/m^2]" 
"Control volume thickness [m]" 
"MoleDens Li_C6-bulk [kmol/m^3]" 
"MoleDens V_C6-bulk [kmol/m^3]" 
"qHeat_accum [J/m3]" 
"qHeat_step [W/m3]" 
"Joule_Lyte [W/m3]" 
"Joule_Solid [W/m3]" 
"electrodHeat [W/m3]" 
"OverpotHeat [W/m3]" 
"deltaSHeat [W/m3]" 

ZONE T = "ANOD, 0.0000E+00", I = 10, SOLUTIONTIME = 0.000000E+00
ZONETYPE = ORDERED
DATAPACKING = BLOCK
STRANDID = 1
 0.0000000000000E+00  8.7488888888889E-05  1.7497777777778E-04  2.6246666666667E-04  3.4995555555556E-04  4.3744444444444E-04  5.2493333333333E-04  6.1242222222222E-04  6.9991111111111E-04  7.8740000000000E-04 
 0.0000000000000E+00  0.0000000000000E+00  0.0000000000000E+00  0.0000000000000E+00  0.0000000000000E+00  0.0000000000000E+00  0.0000000000000E+00  0.0000000000000E+00  0.0000000000000E+00  0.0000000000000E+00 
 9.2000000000000E-01  9.2000000000000E-01  9.2000000000000E-01  9.2000000000000E-01  9.2000000000000E-01  9.2000000000000E-01  9.2000000000000E-01  9.2000000000000E-01  9.2000000000000E-01  9.2000000000000E-01 
 4.0000000000000E-02  4.0000000000000E-02  4.0000000000000E-02  4.0000000000000E-02  4.0000000000000E-02  4.0000000000000E-02  4.0000000000000E-02  4.0000000000000E-02  4.0000000000000E-02  4.0000000000000E-02 
 4.0000000000000E-02  4.0000000000000E-02  4.0000000000000E-02  4.0000000000000E-02  4.0000000000000E-02  4.0000000000000E-02  4.0000000000000E-02  4.0000000000000E-02  4.0000000000000E-02  4.0000000000000E-02 
-7.0000000000000E-02 -7.0000000000000E-02 -7.0000000000000E-02 -7.0000000000000E-02 -7.0000000000000E-02 -7.0000000000000E-02 -7.0000000000000E-02 -7.0000000000000E-02 -7.0000000000000E-02 -7.0000000000000E-02 
 0.0000000000000E+00  0.0000000000000E+00  0.0000000000000E+00  0.0000000000000E+00  0.0000000000000E+00  0.0000000000000E+00  0.0000000000000E+00  0.0000000000000E+00  0.0000000000000E+00  0.0000000000000E+00 
 2.9815000000000E+02  2.9815000000000E+02  2.9815000000000E+02  2.9815000000000E+02  2.9815000000000E+02  2.9815000000000E+02  2.9815000000000E+02  2.9815000000000E+02  2.9815000000000E+02  2.9815000000000E+02 
 7.0000000000000E-02  7.0000000000000E-02  7.0000000000000E-02  7.0000000000000E-02  7.0000000000000E-02  7.0000000000000E-02  7.0000000000000E-02  7.0000000000000E-02  7.0000000000000E-02  7.0000000000000E-02 
-4.0906712753390E-02 -4.0906712753390E-02 -4.0906712753390E-02 -4.0906712753390E-02 -4.0906712753390E-02 -4.0906712753390E-02 -4.0906712753390E-02 -4.0906712753390E-02 -4.0906712753390E-02 -4.0906712753390E-02 
 1.1090671275339E-01  1.1090671275339E-01  1.1090671275339E-01  1.1090671275339E-01  1.1090671275339E-01  1.1090671275339E-01  1.1090671275339E-01  1.1090671275339E-01  1.1090671275339E-01  1.1090671275339E-01 
 3.0930240924008E+01  6.1860481848017E+01  6.1860481848017E+01  6.1860481848017E+01  6.1860481848017E+01  6.1860481848017E+01  6.1860481848017E+01  6.1860481848017E+01  6.1860481848017E+01  3.0930240924008E+01 
-0.0000000000000E+00 -0.0000000000000E+00 -0.0000000000000E+00 -0.0000000000000E+00 -0.0000000000000E+00 -0.0000000000000E+00 -0.0000000000000E+00 -0.0000000000000E+00 -0.0000000000000E+00 -0.0000000000000E+00 
 0.0000000000000E+00  0.0000000000000E+00  0.0000000000000E+00  0.0000000000000E+00  0.0000000000000E+00  0.0000000000000E+00  0.0000000000000E+00  0.0000000000000E+00  0.0000000000000E+00  3.0930240924008E+01 
 3.0930240924008E+01 -0.0000000000000E+00 -0.0000000000000E+00 -0.0000000000000E+00 -0.0000000000000E+00 -0.0000000000000E+00 -0.0000000000000E+00 -0.0000000000000E+00 -0.0000000000000E+00  0.0000000000000E+00 
 0.0000000000000E+00  0.0000000000000E+00  0.0000000000000E+00  0.0000000000000E+00  0.0000000000000E+00  0.0000000000000E+00  0.0000000000000E+00  0.0000000000000E+00  0.0000000000000E+00  0.0000000000000E+00 
 4.5724222271641E+04  9.1448444543281E+04  9.1448444543281E+04  9.1448444543281E+04  9.1448444543281E+04  9.1448444543281E+04  9.1448444543281E+04  9.1448444543281E+04  9.1448444543281E+04  4.5724222271641E+04 
 3.3835924481014E+05  6.7671848962028E+05  6.7671848962028E+05  6.7671848962028E+05  6.7671848962028E+05  6.7671848962028E+05  6.7671848962028E+05  6.7671848962028E+05  6.7671848962028E+05  3.3835924481014E+05 
 3.8408346708178E+05  7.6816693416356E+05  7.6816693416356E+05  7.6816693416356E+05  7.6816693416356E+05  7.6816693416356E+05  7.6816693416356E+05  7.6816693416356E+05  7.6816693416356E+05  3.8408346708178E+05 
 3.5000000000000E-01  3.5000000000000E-01  3.5000000000000E-01  3.5000000000000E-01  3.5000000000000E-01  3.5000000000000E-01  3.5000000000000E-01  3.5000000000000E-01  3.5000000000000E-01  3.5000000000000E-01 
 8.5301666666667E+00  1.7060333333333E+01  1.7060333333333E+01  1.7060333333333E+01  1.7060333333333E+01  1.7060333333333E+01  1.7060333333333E+01  1.7060333333333E+01  1.7060333333333E+01  8.5301666666667E+00 
 3.6259831879809E+00  3.6259831879809E+00  3.6259831879809E+00  3.6259831879809E+00  3.6259831879809E+00  3.6259831879809E+00  3.6259831879809E+00  3.6259831879809E+00  3.6259831879809E+00  3.6259831879809E+00 
 4.3744444444444E-05  8.7488888888889E-05  8.7488888888889E-05  8.7488888888889E-05  8.7488888888889E-05  8.7488888888889E-05  8.7488888888889E-05  8.7488888888889E-05  8.7488888888889E-05  4.3744444444444E-05 
 8.6666666666667E+01  8.6666666666667E+01  8.6666666666667E+01  8.6666666666667E+01  8.6666666666667E+01  8.6666666666667E+01  8.6666666666667E+01  8.6666666666667E+01  8.6666666666667E+01  8.6666666666667E+01 
 2.1666666666667E+01  2.1666666666667E+01  2.1666666666667E+01  2.1666666666667E+01  2.1666666666667E+01  2.1666666666667E+01  2.1666666666667E+01  2.1666666666667E+01  2.1666666666667E+01  2.1666666666667E+01 
 0.0000000000000E+00  0.0000000000000E+00  0.0000000000000E+00  0.0000000000000E+00  0.0000000000000E+00  0.0000000000000E+00  0.0000000000000E+00  0.0000000000000E+00  0.0000000000000E+00  0.0000000000000E+00 
 0.0000000000000E+00  0.0000000000000E+00  0.0000000000000E+00  0.0000000000000E+00  0.0000000000000E+00  0.0000000000000E+00  0.0000000000000E+00  0.0000000000000E+00  0.0000000000000E+00  0.0000000000000E+00 
 0.0000000000000E+00  0.0000000000000E+00  0.0000000000000E+00  0.0000000000000E+00  0.0000000000000E+00  0.0000000000000E+00  0.0000000000000E+00  0.0000000000000E+00  0.0000000000000E+00  0.0000000000000E+00 
 0.0000000000000E+00  0.0000000000000E+00  0.0000000000000E+00  0.0000000000000E+00  0.0000000000000E+00  0.0000000000000E+00  0.0000000000000E+00  0.0000000000000E+00  0.0000000000000E+00  0.0000000000000E+00 
 0.0000000000000E+00  0.0000000000000E+00  0.0000000000000E+00  0.0000000000000E+00  0.0000000000000E+00  0.0000000000000E+00  0.0000000000000E+00  0.0000000000000E+00  0.0000000000000E+00  0.0000000000000E+00 
 0.0000000000000E+00  0.0000000000000E+00  0.0000000000000E+00  0.0000000000000E+00  0.0000000000000E+00  0.0000000000000E+00  0.0000000000000E+00  0.0000000000000E+00  0.0000000000000E+00  0.0000000000000E+00 
 0.0000000000000E+00  0.0000000000000E+00  0.0000000000000E+00  0.0000000000000E+00  0.0000000000000E+00  0.0000000000000E+00  0.0000000000000E+00  0.0000000000000E+00  0.0000000000000E+00  0.0000000000000E+00 
ZONE T = "ANOD, 1.0000E-08", I = 10, SOLUTIONTIME = 1.000000E-08
ZONETYPE = ORDERED
DATAPACKING = BLOCK
STRANDID = 1
 0.0000000000000E+00  8.7488888888889E-05  1.7497777777778E-04  2.6246666666667E-04  3.4995555555556E-04  4.3744444444444E-04  5.2493333333333E-04  6.1242222222222E-04  6.9991111111111E-04  7.8740000000000E-04 
 1.1699590959829E-09  3.4871577724045E-09  5.8040779161855E-09  8.1210094985012E-09  1.0437962532354E-08  1.2754943511288E-08  1.5071958912483E-08  1.7389015046907E-08  1.9705755215797E-08  2.0865060398055E-08 
 9.1999999999930E-01  9.1999999999930E-01  9.1999999999930E-01  9.1999999999930E-01  9.1999999999930E-01  9.1999999999930E-01  9.1999999999930E-01  9.1999999999930E-01  9.1999999999930E-01  9.1999999999971E-01 
 4.0000000000352E-02  4.0000000000348E-02  4.0000000000348E-02  4.0000000000348E-02  4.0000000000348E-02  4.0000000000348E-02  4.0000000000348E-02  4.0000000000348E-02  4.0000000000348E-02  4.0000000000144E-02 
 4.0000000000352E-02  4.0000000000348E-02  4.0000000000348E-02  4.0000000000348E-02  4.0000000000348E-02  4.0000000000348E-02  4.0000000000348E-02  4.0000000000348E-02  4.0000000000348E-02  4.0000000000144E-02 
 2.9172734763555E-02  2.9172718886333E-02  2.9172671566793E-02  2.9172592807503E-02  2.9172482608287E-02  2.9172340968837E-02  2.9172167888774E-02  2.9171963367631E-02  2.9171727404871E-02  2.9171459999817E-02 
 0.0000000000000E+00 -4.7349956985419E-09 -8.9128920483615E-09 -1.2533756014096E-08 -1.5597584845701E-08 -1.8104373385811E-08 -2.0054114915886E-08 -2.1446801160148E-08 -2.2282422325547E-08 -2.2560967054147E-08 
 2.9819800357790E+02  2.9815060804006E+02  2.9815000630611E+02  2.9814999864828E+02  2.9814999850198E+02  2.9814999849899E+02  2.9814999859254E+02  2.9814999844669E+02  2.9814999846824E+02  2.9814999952098E+02 
-2.9172734763555E-02 -2.9172723621329E-02 -2.9172680479685E-02 -2.9172605341259E-02 -2.9172498205872E-02 -2.9172359073211E-02 -2.9172187942889E-02 -2.9171984814432E-02 -2.9171749687294E-02 -2.9171482560784E-02 
-4.0940234622669E-02 -4.0907137347423E-02 -4.0906717156641E-02 -4.0906711809183E-02 -4.0906711707022E-02 -4.0906711704934E-02 -4.0906711770264E-02 -4.0906711668419E-02 -4.0906711683463E-02 -4.0906712418723E-02 
 1.1767499859113E-02  1.1734413726094E-02  1.1734036676957E-02  1.1734106467924E-02  1.1734213501150E-02  1.1734352631723E-02  1.1734523827375E-02  1.1734726853986E-02  1.1734961996170E-02  1.1735229857939E-02 
 1.6848429265184E+00  3.3369677794815E+00  3.3365666664335E+00  3.3365831388589E+00  3.3366140298620E+00  3.3366542753884E+00  3.3367038434242E+00  3.3367625032248E+00  3.3368305345700E+00  1.6684542657150E+00 
 8.7310381963860E-09  2.6023563520910E-08  4.3314019427111E-08  6.0604546236129E-08  7.7895241911567E-08  9.5186146551003E-08  1.1247730748865E-07  1.2976876372441E-07  1.4706066439112E-07  1.4706066439112E-07 
 0.0000000000000E+00  3.3533093221049E+00  6.6900600185762E+00  1.0026617772631E+01  1.3363198659378E+01  1.6699816001069E+01  2.0036478234025E+01  2.3373193687436E+01  2.6709973558729E+01  3.0046835723388E+01 
 3.0046834441450E+01  2.6693516187034E+01  2.3356766085853E+01  2.0020208303087E+01  1.6683626838157E+01  1.3347009805684E+01  1.0010347866232E+01  6.6736318118438E+00  3.3368524116669E+00  0.0000000000000E+00 
 1.6848429265184E-08  3.3369677794815E-08  3.3365666664335E-08  3.3365831388589E-08  3.3366140298620E-08  3.3366542753884E-08  3.3367038434242E-08  3.3367625032248E-08  3.3368305345700E-08  1.6684542657150E-08 
 4.5724222271657E+04  9.1448444543315E+04  9.1448444543315E+04  9.1448444543315E+04  9.1448444543315E+04  9.1448444543315E+04  9.1448444543315E+04  9.1448444543315E+04  9.1448444543315E+04  4.5724222271657E+04 
 3.3835924481012E+05  6.7671848962025E+05  6.7671848962025E+05  6.7671848962025E+05  6.7671848962025E+05  6.7671848962025E+05  6.7671848962025E+05  6.7671848962025E+05  6.7671848962025E+05  3.3835924481012E+05 
 3.8408346708178E+05  7.6816693416356E+05  7.6816693416356E+05  7.6816693416356E+05  7.6816693416356E+05  7.6816693416356E+05  7.6816693416356E+05  7.6816693416356E+05  7.6816693416356E+05  3.8408346708178E+05 
 3.5000000000000E-01  3.5000000000000E-01  3.5000000000000E-01  3.5000000000000E-01  3.5000000000000E-01  3.5000000000000E-01  3.5000000000000E-01  3.5000000000000E-01  3.5000000000000E-01  3.5000000000000E-01 
 8.5301666666667E+00  1.7060333333333E+01  1.7060333333333E+01  1.7060333333333E+01  1.7060333333333E+01  1.7060333333333E+01  1.7060333333333E+01  1.7060333333333E+01  1.7060333333333E+01  8.5301666666667E+00 
 1.9751582734043E-01  1.9559804103954E-01  1.9557452959693E-01  1.9557549513641E-01  1.9557730582806E-01  1.9557966483979E-01  1.9558257029508E-01  1.9558600866873E-01  1.9558999636017E-01  1.9559456818527E-01 
 4.3744444444444E-05  8.7488888888889E-05  8.7488888888889E-05  8.7488888888889E-05  8.7488888888889E-05  8.7488888888889E-05  8.7488888888889E-05  8.7488888888889E-05  8.7488888888889E-05  4.3744444444444E-05 
 8.6666666666663E+01  8.6666666666663E+01  8.6666666666663E+01  8.6666666666663E+01  8.6666666666663E+01  8.6666666666663E+01  8.6666666666663E+01  8.6666666666663E+01  8.6666666666663E+01  8.6666666666663E+01 
 2.1666666666671E+01  2.1666666666671E+01  2.1666666666671E+01  2.1666666666671E+01  2.1666666666671E+01  2.1666666666671E+01  2.1666666666671E+01  2.1666666666671E+01  2.1666666666671E+01  2.1666666666671E+01 
-7.5673990275007E-05 -7.4934602362750E-05 -7.4925487075136E-05 -7.4925770265853E-05 -7.4926341360250E-05 -7.4927085921560E-05 -7.4928003224132E-05 -7.4929088051037E-05 -7.4930346721237E-05 -7.4931900639689E-05 
-7.5673990275007E+03 -7.4934602362750E+03 -7.4925487075136E+03 -7.4925770265853E+03 -7.4926341360250E+03 -7.4927085921560E+03 -7.4928003224132E+03 -7.4929088051037E+03 -7.4930346721237E+03 -7.4931900639689E+03 
 3.0575866351676E-04  1.5109291312609E-03  5.1202222087525E-03  1.1127500921801E-02  1.9532890716466E-02  3.0336486084732E-02  4.3538402241855E-02  5.9138777619297E-02  7.7137792805620E-02  8.6736987094720E-02 
 1.5349824364078E-03  1.3650072467379E-03  1.0463220292855E-03  7.7014485042766E-04  5.3645332646171E-04  3.4524774053264E-04  1.9652909451812E-04  9.0298868699607E-05  2.6559013799061E-05  5.3119517410161E-06 
-7.5674008682418E+03 -7.4934631122114E+03 -7.4925548740578E+03 -7.4925889242310E+03 -7.4926542053690E+03 -7.4927392738899E+03 -7.4928440573445E+03 -7.4929680341802E+03 -7.4931118364756E+03 -7.4932768062679E+03 
 4.5323215673692E+02  4.4756952583498E+02  4.4750134716547E+02  4.4750621808582E+02  4.4751444320894E+02  4.4752514719927E+02  4.4753832462118E+02  4.4755393570538E+02  4.4757202896146E+02  4.4759270724412E+02 
-8.0206330249787E+03 -7.9410326380464E+03 -7.9400562212233E+03 -7.9400951423168E+03 -7.9401686485780E+03 -7.9402644210891E+03 -7.9403823819657E+03 -7.9405219698856E+03 -7.9406838654370E+03 -7.9408695135120E+03 
ZONE T = "ANOD, 2.0000E-08", I = 10, SOLUTIONTIME = 2.000000E-08
ZONETYPE = ORDERED
DATAPACKING = BLOCK
STRANDID = 1
 0.0000000000000E+00  8.7488888888889E-05  1.7497777777778E-04  2.6246666666667E-04  3.4995555555556E-04  4.3744444444444E-04  5.2493333333333E-04  6.1242222222222E-04  6.9991111111111E-04  7.8740000000000E-04 
 1.1808678709245E-09  3.4975624788241E-09  5.8134234857095E-09  8.1292854096408E-09  1.0445168598679E-08  1.2761079756713E-08  1.5077025373322E-08  1.7393011722083E-08  1.9709045270206E-08  2.0867089389944E-08 
 9.1999999999859E-01  9.1999999999861E-01  9.1999999999861E-01  9.1999999999861E-01  9.1999999999861E-01  9.1999999999861E-01  9.1999999999861E-01  9.1999999999861E-01  9.1999999999861E-01  9.1999999999942E-01 
 4.0000000000706E-02  4.0000000000696E-02  4.0000000000696E-02  4.0000000000696E-02  4.0000000000696E-02  4.0000000000696E-02  4.0000000000696E-02  4.0000000000696E-02  4.0000000000696E-02  4.0000000000288E-02 
 4.0000000000706E-02  4.0000000000696E-02  4.0000000000696E-02  4.0000000000696E-02  4.0000000000696E-02  4.0000000000696E-02  4.0000000000696E-02  4.0000000000696E-02  4.0000000000696E-02  4.0000000000288E-02 
 2.9178117068973E-02  2.9178101044889E-02  2.9178053586525E-02  2.9177974702890E-02  2.9177864393834E-02  2.9177722659064E-02  2.9177549498201E-02  2.9177344910777E-02  2.9177108896240E-02  2.9176841453947E-02 
 0.0000000000000E+00 -4.7329481492637E-09 -8.9089181376206E-09 -1.2528110378866E-08 -1.5590524652526E-08 -1.8096155846055E-08 -2.0044997235168E-08 -2.1437040535358E-08 -2.2272275953826E-08 -2.2550692142935E-08 
 2.9824461136139E+02  2.9815179255715E+02  2.9815002741378E+02  2.9814999764824E+02  2.9814999706667E+02  2.9814999707115E+02  2.9814999721215E+02  2.9814999703682E+02  2.9814999695074E+02  2.9814999910121E+02 
-2.9178117068973E-02 -2.9178105777837E-02 -2.9178062495443E-02 -2.9177987231001E-02 -2.9177879984359E-02 -2.9177740755220E-02 -2.9177569543198E-02 -2.9177366347818E-02 -2.9177131168516E-02 -2.9176864004640E-02 
-4.0972783667697E-02 -4.0907964496256E-02 -4.0906731895828E-02 -4.0906711110560E-02 -4.0906710704453E-02 -4.0906710707582E-02 -4.0906710806037E-02 -4.0906710683604E-02 -4.0906710623495E-02 -4.0906712125428E-02 
 1.1794666598724E-02  1.1729858718419E-02  1.1728669400385E-02  1.1728723879559E-02  1.1728830720094E-02  1.1728969952362E-02  1.1729141262838E-02  1.1729344335787E-02  1.1729579454979E-02  1.1729848120789E-02 
 1.7002822647112E+00  3.3362247569862E+00  3.3350243051268E+00  3.3350256257382E+00  3.3350562491658E+00  3.3350965267787E+00  3.3351461498474E+00  3.3352048073913E+00  3.3352727782561E+00  1.6676757690736E+00 
 8.8110951225928E-09  2.6099857339636E-08  4.3382402103598E-08  6.0664953767404E-08  7.7947664139123E-08  9.5230583227366E-08  1.1251375946532E-07  1.2979723968653E-07  1.4708121627018E-07  1.4708121627018E-07 
 0.0000000000000E+00  3.3683946431871E+00  6.7040191743066E+00  1.0039044139529E+01  1.3374085077057E+01  1.6709161465069E+01  2.0044282803363E+01  2.3379458281891E+01  2.6714697074703E+01  3.0050009233123E+01 
 3.0050009233072E+01  2.6681614589874E+01  2.3345990058828E+01  2.0010965093400E+01  1.6675924155939E+01  1.3340847767963E+01  1.0005726429650E+01  6.6705509510180E+00  3.3353121581954E+00  0.0000000000000E+00 
 3.3851251912297E-08  6.6731925364677E-08  6.6715909715603E-08  6.6716087645971E-08  6.6716702790278E-08  6.6717508021672E-08  6.6718499932717E-08  6.6719673106161E-08  6.6721033128261E-08  3.3361300347887E-08 
 4.5724222271674E+04  9.1448444543348E+04  9.1448444543348E+04  9.1448444543348E+04  9.1448444543348E+04  9.1448444543348E+04  9.1448444543348E+04  9.1448444543348E+04  9.1448444543348E+04  4.5724222271674E+04 
 3.3835924481011E+05  6.7671848962021E+05  6.7671848962021E+05  6.7671848962021E+05  6.7671848962021E+05  6.7671848962021E+05  6.7671848962021E+05  6.7671848962021E+05  6.7671848962021E+05  3.3835924481011E+05 
 3.8408346708178E+05  7.6816693416356E+05  7.6816693416356E+05  7.6816693416356E+05  7.6816693416356E+05  7.6816693416356E+05  7.6816693416356E+05  7.6816693416356E+05  7.6816693416356E+05  3.8408346708178E+05 
 3.5000000000000E-01  3.5000000000000E-01  3.5000000000000E-01  3.5000000000000E-01  3.5000000000000E-01  3.5000000000000E-01  3.5000000000000E-01  3.5000000000000E-01  3.5000000000000E-01  3.5000000000000E-01 
 8.5301666666667E+00  1.7060333333333E+01  1.7060333333333E+01  1.7060333333333E+01  1.7060333333333E+01  1.7060333333333E+01  1.7060333333333E+01  1.7060333333333E+01  1.7060333333333E+01  8.5301666666667E+00 
 1.9932579645313E-01  1.9555448840309E-01  1.9548412331491E-01  1.9548420072321E-01  1.9548599573079E-01  1.9548835662328E-01  1.9549126530436E-01  1.9549470354573E-01  1.9549868769208E-01  1.9550330424263E-01 
 4.3744444444444E-05  8.7488888888889E-05  8.7488888888889E-05  8.7488888888889E-05  8.7488888888889E-05  8.7488888888889E-05  8.7488888888889E-05  8.7488888888889E-05  8.7488888888889E-05  4.3744444444444E-05 
 8.6666666666659E+01  8.6666666666659E+01  8.6666666666659E+01  8.6666666666659E+01  8.6666666666659E+01  8.6666666666659E+01  8.6666666666659E+01  8.6666666666659E+01  8.6666666666659E+01  8.6666666666659E+01 
 2.1666666666675E+01  2.1666666666675E+01  2.1666666666675E+01  2.1666666666675E+01  2.1666666666675E+01  2.1666666666675E+01  2.1666666666675E+01  2.1666666666675E+01  2.1666666666675E+01  2.1666666666675E+01 
-1.5204814793903E-04 -1.4985468705948E-04 -1.4981839252312E-04 -1.4981861640309E-04 -1.4981975248930E-04 -1.4982124232141E-04 -1.4982307819481E-04 -1.4982524786229E-04 -1.4982776394095E-04 -1.4983088912803E-04 
-7.6374157664018E+03 -7.4920084696733E+03 -7.4892905447985E+03 -7.4892846137233E+03 -7.4893411129053E+03 -7.4894156399847E+03 -7.4895074970679E+03 -7.4896159811258E+03 -7.4897417219711E+03 -7.4898988488342E+03 
 6.1717496741522E-04  3.0326643573293E-03  1.0260310372048E-02  2.2281580581964E-02  3.9096854085639E-02  6.0706322589231E-02  8.7110218487125E-02  1.1830882328866E-01  1.5430248727687E-01  1.7349813377640E-01 
 3.0686376181240E-03  2.7287999829135E-03  2.0916788506022E-03  1.5395787227875E-03  1.0724114152207E-03  6.9017676666120E-04  3.9287676890143E-04  1.8051438370591E-04  5.3093513292392E-05  1.0619002021251E-05 
-7.6374176114733E+03 -7.4920113552013E+03 -7.4892967302435E+03 -7.4892965372368E+03 -7.4893612128268E+03 -7.4894463547502E+03 -7.4895512652318E+03 -7.4896752413870E+03 -7.4898189132001E+03 -7.4899856152880E+03 
 4.5844135617836E+02  4.4729617154912E+02  4.4708988780851E+02  4.4709214156280E+02  4.4710031966323E+02  4.4711102687837E+02  4.4712420995765E+02  4.4713981528203E+02  4.4715789118107E+02  4.4717869284981E+02 
-8.0958589676517E+03 -7.9393075267504E+03 -7.9363866180520E+03 -7.9363886787996E+03 -7.9364615324900E+03 -7.9365573816286E+03 -7.9366754751895E+03 -7.9368150566690E+03 -7.9369768043811E+03 -7.9371643081378E+03 
ZONE T = "ANOD, 3.0000E-08", I = 10, SOLUTIONTIME = 3.000000E-08
ZONETYPE = ORDERED
DATAPACKING = BLOCK
STRANDID = 1
 0.0000000000000E+00  8.7488888888889E-05  1.7497777777778E-04  2.6246666666667E-04  3.4995555555556E-04  4.3744444444444E-04  5.2493333333333E-04  6.1242222222222E-04  6.9991111111111E-04  7.8740000000000E-04 
 1.1911677421339E-09  3.5076038754171E-09  5.8234913573198E-09  8.1393592166597E-09  1.0455247937361E-08  1.2770074945850E-08  1.5086026034545E-08  1.7400928349409E-08  1.9715877805921E-08  2.0873380125434E-08 
 9.1999999999787E-01  9.1999999999791E-01  9.1999999999791E-01  9.1999999999791E-01  9.1999999999791E-01  9.1999999999791E-01  9.1999999999791E-01  9.1999999999791E-01  9.1999999999791E-01  9.1999999999914E-01 
 4.0000000001064E-02  4.0000000001044E-02  4.0000000001044E-02  4.0000000001044E-02  4.0000000001044E-02  4.0000000001044E-02  4.0000000001044E-02  4.0000000001044E-02  4.0000000001044E-02  4.0000000000432E-02 
 4.0000000001064E-02  4.0000000001044E-02  4.0000000001044E-02  4.0000000001044E-02  4.0000000001044E-02  4.0000000001044E-02  4.0000000001044E-02  4.0000000001044E-02  4.0000000001044E-02  4.0000000000432E-02 
 2.9183511422059E-02  2.9183495254448E-02  2.9183447657220E-02  2.9183368649283E-02  2.9183258230636E-02  2.9183116400987E-02  2.9182943159957E-02  2.9182738507077E-02  2.9182502441794E-02  2.9182234963466E-02 
 0.0000000000000E+00 -4.7309364096539E-09 -8.9049568006946E-09 -1.2522455045992E-08 -1.5583435863189E-08 -1.8087894236812E-08 -2.0035823456523E-08 -2.1427215238188E-08 -2.2262059760834E-08 -2.2540345690697E-08 
 2.9828987848966E+02  2.9815352217577E+02  2.9815007007261E+02  2.9814999717995E+02  2.9814999570599E+02  2.9814999554974E+02  2.9814999565513E+02  2.9814999569963E+02  2.9814999547337E+02  2.9814999864170E+02 
-2.9183511422059E-02 -2.9183499985384E-02 -2.9183456562177E-02 -2.9183381171738E-02 -2.9183273814072E-02 -2.9183134488882E-02 -2.9182963195780E-02 -2.9182759934292E-02 -2.9182524703853E-02 -2.9182257503812E-02 
-4.1004398231494E-02 -4.0909172292028E-02 -4.0906761684176E-02 -4.0906710783252E-02 -4.0906709753984E-02 -4.0906709644878E-02 -4.0906709718472E-02 -4.0906709749544E-02 -4.0906709591543E-02 -4.0906711804381E-02 
 1.1820886809435E-02  1.1725672306644E-02  1.1723305122000E-02  1.1723329611514E-02  1.1723435939912E-02  1.1723575155996E-02  1.1723746522692E-02  1.1723949815252E-02  1.1724184887690E-02  1.1724454300569E-02 
 1.7153764235852E+00  3.3358525329496E+00  3.3334932870693E+00  3.3334650290057E+00  3.3334950710170E+00  3.3335352650605E+00  3.3335848859188E+00  3.3336437122176E+00  3.3337115999921E+00  1.6668955335967E+00 
 8.8893185823120E-09  2.6176148473013E-08  4.3450759211288E-08  6.0725223649705E-08  7.7999843788158E-08  9.5274672207098E-08  1.1254975776404E-07  1.2982514818349E-07  1.4710110654603E-07  1.4710110654603E-07 
 0.0000000000000E+00  3.3833026900446E+00  6.7179756000099E+00  1.0051454758002E+01  1.3384934808206E+01  1.6718449976324E+01  2.0052010051741E+01  2.3385624350726E+01  2.6719302006801E+01  3.0053053340403E+01 
 3.0053053340505E+01  2.6669750650450E+01  2.3335077740440E+01  2.0001598582385E+01  1.6668118532347E+01  1.3334603364286E+01  1.0001043288787E+01  6.6674289896983E+00  3.3337513335858E+00  0.0000000000000E+00 
 5.1005016148149E-08  1.0009045069417E-07  1.0005084258630E-07  1.0005073793603E-07  1.0005165350045E-07  1.0005286067228E-07  1.0005434879190E-07  1.0005611022834E-07  1.0005814912818E-07  5.0030255683854E-08 
 4.5724222271692E+04  9.1448444543381E+04  9.1448444543381E+04  9.1448444543381E+04  9.1448444543381E+04  9.1448444543381E+04  9.1448444543381E+04  9.1448444543381E+04  9.1448444543381E+04  4.5724222271691E+04 
 3.3835924481009E+05  6.7671848962018E+05  6.7671848962018E+05  6.7671848962018E+05  6.7671848962018E+05  6.7671848962018E+05  6.7671848962018E+05  6.7671848962018E+05  6.7671848962018E+05  3.3835924481009E+05 
 3.8408346708178E+05  7.6816693416356E+05  7.6816693416356E+05  7.6816693416356E+05  7.6816693416356E+05  7.6816693416356E+05  7.6816693416356E+05  7.6816693416356E+05  7.6816693416356E+05  3.8408346708178E+05 
 3.5000000000000E-01  3.5000000000000E-01  3.5000000000000E-01  3.5000000000000E-01  3.5000000000000E-01  3.5000000000000E-01  3.5000000000000E-01  3.5000000000000E-01  3.5000000000000E-01  3.5000000000000E-01 
 8.5301666666667E+00  1.7060333333333E+01  1.7060333333333E+01  1.7060333333333E+01  1.7060333333333E+01  1.7060333333333E+01  1.7060333333333E+01  1.7060333333333E+01  1.7060333333333E+01  8.5301666666667E+00 
 2.0109529984782E-01  1.9553267030439E-01  1.9539438192313E-01  1.9539272556255E-01  1.9539448649012E-01  1.9539684248415E-01  1.9539975103567E-01  1.9540319916869E-01  1.9540717844466E-01  1.9541183645455E-01 
 4.3744444444444E-05  8.7488888888889E-05  8.7488888888889E-05  8.7488888888889E-05  8.7488888888889E-05  8.7488888888889E-05  8.7488888888889E-05  8.7488888888889E-05  8.7488888888889E-05  4.3744444444444E-05 
 8.6666666666655E+01  8.6666666666655E+01  8.6666666666655E+01  8.6666666666655E+01  8.6666666666655E+01  8.6666666666655E+01  8.6666666666655E+01  8.6666666666655E+01  8.6666666666655E+01  8.6666666666655E+01 
 2.1666666666679E+01  2.1666666666679E+01  2.1666666666679E+01  2.1666666666679E+01  2.1666666666679E+01  2.1666666666679E+01  2.1666666666679E+01  2.1666666666679E+01  2.1666666666679E+01  2.1666666666679E+01 
-2.2910695936658E-04 -2.2476863786494E-04 -2.2467897586830E-04 -2.2467847189006E-04 -2.2468015977379E-04 -2.2468239297391E-04 -2.2468514739460E-04 -2.2468840578316E-04 -2.2469217750001E-04 -2.2469689004930E-04 
-7.7058811427556E+03 -7.4913950805458E+03 -7.4860583345174E+03 -7.4859855486970E+03 -7.4860407284490E+03 -7.4861150652500E+03 -7.4862069199794E+03 -7.4863157920865E+03 -7.4864413559065E+03 -7.4866000921271E+03 
 9.3416995232550E-04  4.5651905954348E-03  1.5420303326112E-02  3.3462234538144E-02  5.8691806361212E-02  9.1109319701909E-02  1.3071512432392E-01  1.7750964533338E-01  2.3149340258133E-01  2.6028266279976E-01 
 4.6009893166526E-03  4.0913837081795E-03  3.1360587532067E-03  2.3082924688954E-03  1.6078678812837E-03  1.0347829682444E-03  5.8904068595310E-04  2.7064547240114E-04  7.9603182736312E-05  1.5921087571120E-05 
-7.7058829921023E+03 -7.4913979756557E+03 -7.4860645388903E+03 -7.4859974980647E+03 -7.4860608588577E+03 -7.4861458128533E+03 -7.4862507210491E+03 -7.4863750830396E+03 -7.4865185733315E+03 -7.4866868819582E+03 
 4.6353933160407E+02  4.4708664336881E+02  4.4668025189834E+02  4.4667739847358E+02  4.4668547535739E+02  4.4669616578945E+02  4.4670934459766E+02  4.4672497366323E+02  4.4674302825957E+02  4.4676394353235E+02 
-8.1694223237064E+03 -7.9384846190245E+03 -7.9327447907887E+03 -7.9326748965383E+03 -7.9327463342151E+03 -7.9328419786427E+03 -7.9329600656468E+03 -7.9331000567029E+03 -7.9332616015911E+03 -7.9334508254906E+03 
ZONE T = "ANOD, 4.0000E-08", I = 10, SOLUTIONTIME = 4.000000E-08
ZONETYPE = ORDERED
DATAPACKING = BLOCK
STRANDID = 1
 0.0000000000000E+00  8.7488888888889E-05  1.7497777777778E-04  2.6246666666667E-04  3.4995555555556E-04  4.3744444444444E-04  5.2493333333333E-04  6.1242222222222E-04  6.9991111111111E-04  7.8740000000000E-04 
 1.2014153980170E-09  3.5178363892843E-09  5.8304922330129E-09  8.1430952144987E-09  1.0456807880146E-08  1.2770548414280E-08  1.5083233762655E-08  1.7397049623020E-08  1.9710912634702E-08  2.0867871987088E-08 
 9.1999999999715E-01  9.1999999999722E-01  9.1999999999722E-01  9.1999999999722E-01  9.1999999999722E-01  9.1999999999722E-01  9.1999999999722E-01  9.1999999999722E-01  9.1999999999722E-01  9.1999999999885E-01 
 4.0000000001425E-02  4.0000000001392E-02  4.0000000001391E-02  4.0000000001391E-02  4.0000000001391E-02  4.0000000001391E-02  4.0000000001391E-02  4.0000000001391E-02  4.0000000001391E-02  4.0000000000576E-02 
 4.0000000001425E-02  4.0000000001392E-02  4.0000000001391E-02  4.0000000001391E-02  4.0000000001391E-02  4.0000000001391E-02  4.0000000001391E-02  4.0000000001391E-02  4.0000000001391E-02  4.0000000000576E-02 
 2.9188917563981E-02  2.9188901256015E-02  2.9188853519749E-02  2.9188774387232E-02  2.9188663858747E-02  2.9188521934001E-02  2.9188348612618E-02  2.9188143894129E-02  2.9187907777979E-02  2.9187640263527E-02 
 0.0000000000000E+00 -4.7289821775075E-09 -8.9010519768350E-09 -1.2516852645750E-08 -1.5576396893358E-08 -1.8079679896612E-08 -2.0026694955388E-08 -2.1417433790265E-08 -2.2251886570783E-08 -2.2530041960854E-08 