TITLE = "Solution on Domain BulkDomain1D_0"
VARIABLES = "x [m]"  
"Vel_axial" 
"MF_sp(ECDMC)" 
"MF_sp(Li+)" 
"MF_sp(PF6-)" 
"Volt(Electroly)" 
"Volt(AnodeVolt)" 
"Temperature" 
"Potential Drop Electrode-Electrolyte [V]" 
"Surf_0 Equilibrium Potential Drop Electrode-Electrolyte [V]" 
"Overpotential_0 [V]" 
"Current Source [A/m^2]" 
"Li+ flux [kmol/m^2/s]" 
"Electrolyte Current [A/m^2]" 
"Electrode Current [A/m^2]" 
"CV Capacity discharged [A-s/m^2]" 
"Depth of discharge in CV [A-s/m^2]" 
"CV Capacity remaining [A-s/m^2]" 
"Initial CV capacity [A-s/m^2]" 
"Porosity []" 
"Surface Area [m2/m2] (area per area)" 
"Specific current (per particle area) [A/m^2]" 
"Control volume thickness [m]" 
"MoleDens Li_C6-bulk [kmol/m^3]" 
"MoleDens V_C6-bulk [kmol/m^3]" 
"qHeat_accum [J/m3]" 
"qHeat_step [W/m3]" 
"Joule_Lyte [W/m3]" 
"Joule_Solid [W/m3]" 
"electrodHeat [W/m3]" 
"OverpotHeat [W/m3]" 
"deltaSHeat [W/m3]" 

ZONE T = "ANOD, 0.0000E+00", I = 10, SOLUTIONTIME = 0.000000E+00
ZONETYPE = ORDERED
DATAPACKING = BLOCK
STRANDID = 1
 0.0000000000000E+00  8.7488888888889E-05  1.7497777777778E-04  2.6246666666667E-04  3.4995555555556E-04  4.3744444444444E-04  5.2493333333333E-04  6.1242222222222E-04  6.9991111111111E-04  7.8740000000000E-04 
 0.0000000000000E+00  0.0000000000000E+00  0.0000000000000E+00  0.0000000000000E+00  0.0000000000000E+00  0.0000000000000E+00  0.0000000000000E+00  0.0000000000000E+00  0.0000000000000E+00  0.0000000000000E+00 
 9.2000000000000E-01  9.2000000000000E-01  9.2000000000000E-01  9.2000000000000E-01  9.2000000000000E-01  9.2000000000000E-01  9.2000000000000E-01  9.2000000000000E-01  9.2000000000000E-01  9.2000000000000E-01 
 4.0000000000000E-02  4.0000000000000E-02  4.0000000000000E-02  4.0000000000000E-02  4.0000000000000E-02  4.0000000000000E-02  4.0000000000000E-02  4.0000000000000E-02  4.0000000000000E-02  4.0000000000000E-02 
 4.0000000000000E-02  4.0000000000000E-02  4.0000000000000E-02  4.0000000000000E-02  4.0000000000000E-02  4.0000000000000E-02  4.0000000000000E-02  4.0000000000000E-02  4.0000000000000E-02  4.0000000000000E-02 
-7.0000000000000E-02 -7.0000000000000E-02 -7.0000000000000E-02 -7.0000000000000E-02 -7.0000000000000E-02 -7.0000000000000E-02 -7.0000000000000E-02 -7.0000000000000E-02 -7.0000000000000E-02 -7.0000000000000E-02 
 0.0000000000000E+00  0.0000000000000E+00  0.0000000000000E+00  0.0000000000000E+00  0.0000000000000E+00  0.0000000000000E+00  0.0000000000000E+00  0.0000000000000E+00  0.0000000000000E+00  0.0000000000000E+00 
 2.9815000000000E+02  2.9815000000000E+02  2.9815000000000E+02  2.9815000000000E+02  2.9815000000000E+02  2.9815000000000E+02  2.9815000000000E+02  2.9815000000000E+02  2.9815000000000E+02  2.9815000000000E+02 
 7.0000000000000E-02  7.0000000000000E-02  7.0000000000000E-02  7.0000000000000E-02  7.0000000000000E-02  7.0000000000000E-02  7.0000000000000E-02  7.0000000000000E-02  7.0000000000000E-02  7.0000000000000E-02 
-4.0906712753391E-02 -4.0906712753391E-02 -4.0906712753391E-02 -4.0906712753391E-02 -4.0906712753391E-02 -4.0906712753391E-02 -4.0906712753391E-02 -4.0906712753391E-02 -4.0906712753391E-02 -4.0906712753391E-02 
 1.1090671275339E-01  1.1090671275339E-01  1.1090671275339E-01  1.1090671275339E-01  1.1090671275339E-01  1.1090671275339E-01  1.1090671275339E-01  1.1090671275339E-01  1.1090671275339E-01  1.1090671275339E-01 
 3.0930240924008E+01  6.1860481848017E+01  6.1860481848017E+01  6.1860481848017E+01  6.1860481848017E+01  6.1860481848017E+01  6.1860481848017E+01  6.1860481848017E+01  6.1860481848017E+01  3.0930240924008E+01 
-0.0000000000000E+00 -0.0000000000000E+00 -0.0000000000000E+00 -0.0000000000000E+00 -0.0000000000000E+00 -0.0000000000000E+00 -0.0000000000000E+00 -0.0000000000000E+00 -0.0000000000000E+00 -0.0000000000000E+00 
 0.0000000000000E+00  0.0000000000000E+00  0.0000000000000E+00  0.0000000000000E+00  0.0000000000000E+00  0.0000000000000E+00  0.0000000000000E+00  0.0000000000000E+00  0.0000000000000E+00  3.0930240924008E+01 
 3.0930240924008E+01 -0.0000000000000E+00 -0.0000000000000E+00 -0.0000000000000E+00 -0.0000000000000E+00 -0.0000000000000E+00 -0.0000000000000E+00 -0.0000000000000E+00 -0.0000000000000E+00  0.0000000000000E+00 
 0.0000000000000E+00  0.0000000000000E+00  0.0000000000000E+00  0.0000000000000E+00  0.0000000000000E+00  0.0000000000000E+00  0.0000000000000E+00  0.0000000000000E+00  0.0000000000000E+00  0.0000000000000E+00 
 4.5724222271641E+04  9.1448444543281E+04  9.1448444543281E+04  9.1448444543281E+04  9.1448444543281E+04  9.1448444543281E+04  9.1448444543281E+04  9.1448444543281E+04  9.1448444543281E+04  4.5724222271641E+04 
 3.3835924481014E+05  6.7671848962028E+05  6.7671848962028E+05  6.7671848962028E+05  6.7671848962028E+05  6.7671848962028E+05  6.7671848962028E+05  6.7671848962028E+05  6.7671848962028E+05  3.3835924481014E+05 
 3.8408346708178E+05  7.6816693416356E+05  7.6816693416356E+05  7.6816693416356E+05  7.6816693416356E+05  7.6816693416356E+05  7.6816693416356E+05  7.6816693416356E+05  7.6816693416356E+05  3.8408346708178E+05 
 3.5000000000000E-01  3.5000000000000E-01  3.5000000000000E-01  3.5000000000000E-01  3.5000000000000E-01  3.5000000000000E-01  3.5000000000000E-01  3.5000000000000E-01  3.5000000000000E-01  3.5000000000000E-01 
 8.5301666666667E+00  1.7060333333333E+01  1.7060333333333E+01  1.7060333333333E+01  1.7060333333333E+01  1.7060333333333E+01  1.7060333333333E+01  1.7060333333333E+01  1.7060333333333E+01  8.5301666666667E+00 
 3.6259831879809E+00  3.6259831879809E+00  3.6259831879809E+00  3.6259831879809E+00  3.6259831879809E+00  3.6259831879809E+00  3.6259831879809E+00  3.6259831879809E+00  3.6259831879809E+00  3.6259831879809E+00 
 4.3744444444444E-05  8.7488888888889E-05  8.7488888888889E-05  8.7488888888889E-05  8.7488888888889E-05  8.7488888888889E-05  8.7488888888889E-05  8.7488888888889E-05  8.7488888888889E-05  4.3744444444444E-05 
 8.6666666666667E+01  8.6666666666667E+01  8.6666666666667E+01  8.6666666666667E+01  8.6666666666667E+01  8.6666666666667E+01  8.6666666666667E+01  8.6666666666667E+01  8.6666666666667E+01  8.6666666666667E+01 
 2.1666666666667E+01  2.1666666666667E+01  2.1666666666667E+01  2.1666666666667E+01  2.1666666666667E+01  2.1666666666667E+01  2.1666666666667E+01  2.1666666666667E+01  2.1666666666667E+01  2.1666666666667E+01 
 0.0000000000000E+00  0.0000000000000E+00  0.0000000000000E+00  0.0000000000000E+00  0.0000000000000E+00  0.0000000000000E+00  0.0000000000000E+00  0.0000000000000E+00  0.0000000000000E+00  0.0000000000000E+00 
 0.0000000000000E+00  0.0000000000000E+00  0.0000000000000E+00  0.0000000000000E+00  0.0000000000000E+00  0.0000000000000E+00  0.0000000000000E+00  0.0000000000000E+00  0.0000000000000E+00  0.0000000000000E+00 
 0.0000000000000E+00  0.0000000000000E+00  0.0000000000000E+00  0.0000000000000E+00  0.0000000000000E+00  0.0000000000000E+00  0.0000000000000E+00  0.0000000000000E+00  0.0000000000000E+00  0.0000000000000E+00 
 0.0000000000000E+00  0.0000000000000E+00  0.0000000000000E+00  0.0000000000000E+00  0.0000000000000E+00  0.0000000000000E+00  0.0000000000000E+00  0.0000000000000E+00  0.0000000000000E+00  0.0000000000000E+00 
 0.0000000000000E+00  0.0000000000000E+00  0.0000000000000E+00  0.0000000000000E+00  0.0000000000000E+00  0.0000000000000E+00  0.0000000000000E+00  0.0000000000000E+00  0.0000000000000E+00  0.0000000000000E+00 
 0.0000000000000E+00  0.0000000000000E+00  0.0000000000000E+00  0.0000000000000E+00  0.0000000000000E+00  0.0000000000000E+00  0.0000000000000E+00  0.0000000000000E+00  0.0000000000000E+00  0.0000000000000E+00 
 0.0000000000000E+00  0.0000000000000E+00  0.0000000000000E+00  0.0000000000000E+00  0.0000000000000E+00  0.0000000000000E+00  0.0000000000000E+00  0.0000000000000E+00  0.0000000000000E+00  0.0000000000000E+00 
ZONE T = "ANOD, 1.0000E-08", I = 10, SOLUTIONTIME = 1.000000E-08
ZONETYPE = ORDERED
DATAPACKING = BLOCK
STRANDID = 1
 0.0000000000000E+00  8.7488888888889E-05  1.7497777777778E-04  2.6246666666667E-04  3.4995555555556E-04  4.3744444444444E-04  5.2493333333333E-04  6.1242222222222E-04  6.9991111111111E-04  7.8740000000000E-04 
 1.1699648993084E-09  3.4871750435813E-09  5.8041066572934E-09  8.1210496899290E-09  1.0438014198092E-08  1.2755006664888E-08  1.5072033504624E-08  1.7389101167309E-08  1.9706216007870E-08  2.0864800518675E-08 
 9.1999999999930E-01  9.1999999999930E-01  9.1999999999930E-01  9.1999999999930E-01  9.1999999999930E-01  9.1999999999930E-01  9.1999999999930E-01  9.1999999999930E-01  9.1999999999930E-01  9.1999999999971E-01 
 4.0000000000352E-02  4.0000000000348E-02  4.0000000000348E-02  4.0000000000348E-02  4.0000000000348E-02  4.0000000000348E-02  4.0000000000348E-02  4.0000000000348E-02  4.0000000000348E-02  4.0000000000144E-02 
 4.0000000000352E-02  4.0000000000348E-02  4.0000000000348E-02  4.0000000000348E-02  4.0000000000348E-02  4.0000000000348E-02  4.0000000000348E-02  4.0000000000348E-02  4.0000000000348E-02  4.0000000000144E-02 
 2.9172736807749E-02  2.9172720930445E-02  2.9172673610667E-02  2.9172594850997E-02  2.9172484651231E-02  2.9172343011079E-02  2.9172169930161E-02  2.9171965408009E-02  2.9171729444071E-02  2.9171462037706E-02 
 0.0000000000000E+00 -4.7350191454808E-09 -8.9129361851464E-09 -1.2533818083127E-08 -1.5597662094093E-08 -1.8104463054911E-08 -2.0054214243788E-08 -2.1446907396802E-08 -2.2282532699329E-08 -2.2561078808895E-08 
 2.9819800361360E+02  2.9815060801431E+02  2.9815000629017E+02  2.9814999859105E+02  2.9814999849609E+02  2.9814999851776E+02  2.9814999851162E+02  2.9814999855230E+02  2.9814999844035E+02  2.9814999953353E+02 
-2.9172736807749E-02 -2.9172725665465E-02 -2.9172682523604E-02 -2.9172607384815E-02 -2.9172500248894E-02 -2.9172361115542E-02 -2.9172189984375E-02 -2.9171986854917E-02 -2.9171751726604E-02 -2.9171484598785E-02 
-4.0940234647599E-02 -4.0907137329447E-02 -4.0906717145509E-02 -4.0906711769218E-02 -4.0906711702913E-02 -4.0906711718046E-02 -4.0906711713757E-02 -4.0906711742168E-02 -4.0906711663989E-02 -4.0906712427486E-02 
 1.1767497839851E-02  1.1734411663983E-02  1.1734034621905E-02  1.1734104384403E-02  1.1734211454019E-02  1.1734350602503E-02  1.1734521729382E-02  1.1734724887251E-02  1.1734959937385E-02  1.1735227828701E-02 
 1.6848426411157E+00  3.3369671704161E+00  3.3365660642207E+00  3.3365825083742E+00  3.3366134348220E+00  3.3366536974982E+00  3.3367031972550E+00  3.3367619855517E+00  3.3368299254791E+00  1.6684539752546E+00 
 8.7310825446139E-09  2.6023694366272E-08  4.3314228786136E-08  6.0604848429923E-08  7.7895628346674E-08  9.5186616897593E-08  1.1247786197345E-07  1.2976941169393E-07  1.4706138557626E-07  1.4706138557626E-07 
 0.0000000000000E+00  3.3533262263039E+00  6.6900928436799E+00  1.0026667129977E+01  1.3363265101601E+01  1.6699898667788E+01  2.0036577115226E+01  2.3373309706645E+01  2.6710105662076E+01  3.0046974600074E+01 
 3.0046974600078E+01  2.6693648373756E+01  2.3356881756438E+01  2.0020307470137E+01  1.6683709498522E+01  1.3347075932342E+01  1.0010397484948E+01  6.6736648935181E+00  3.3368689379903E+00  0.0000000000000E+00 
 1.6848426411157E-08  3.3369671704161E-08  3.3365660642207E-08  3.3365825083742E-08  3.3366134348220E-08  3.3366536974982E-08  3.3367031972550E-08  3.3367619855517E-08  3.3368299254791E-08  1.6684539752546E-08 
 4.5724222271657E+04  9.1448444543315E+04  9.1448444543315E+04  9.1448444543315E+04  9.1448444543315E+04  9.1448444543315E+04  9.1448444543315E+04  9.1448444543315E+04  9.1448444543315E+04  4.5724222271657E+04 
 3.3835924481012E+05  6.7671848962025E+05  6.7671848962025E+05  6.7671848962025E+05  6.7671848962025E+05  6.7671848962025E+05  6.7671848962025E+05  6.7671848962025E+05  6.7671848962025E+05  3.3835924481012E+05 
 3.8408346708178E+05  7.6816693416356E+05  7.6816693416356E+05  7.6816693416356E+05  7.6816693416356E+05  7.6816693416356E+05  7.6816693416356E+05  7.6816693416356E+05  7.6816693416356E+05  3.8408346708178E+05 
 3.5000000000000E-01  3.5000000000000E-01  3.5000000000000E-01  3.5000000000000E-01  3.5000000000000E-01  3.5000000000000E-01  3.5000000000000E-01  3.5000000000000E-01  3.5000000000000E-01  3.5000000000000E-01 
 8.5301666666667E+00  1.7060333333333E+01  1.7060333333333E+01  1.7060333333333E+01  1.7060333333333E+01  1.7060333333333E+01  1.7060333333333E+01  1.7060333333333E+01  1.7060333333333E+01  8.5301666666667E+00 
 1.9751579388238E-01  1.9559800533886E-01  1.9557449429792E-01  1.9557545818024E-01  1.9557727094949E-01  1.9557963096646E-01  1.9558253241955E-01  1.9558597832506E-01  1.9558996065800E-01  1.9559453413430E-01 
 4.3744444444444E-05  8.7488888888889E-05  8.7488888888889E-05  8.7488888888889E-05  8.7488888888889E-05  8.7488888888889E-05  8.7488888888889E-05  8.7488888888889E-05  8.7488888888889E-05  4.3744444444444E-05 
 8.6666666666663E+01  8.6666666666663E+01  8.6666666666663E+01  8.6666666666663E+01  8.6666666666663E+01  8.6666666666663E+01  8.6666666666663E+01  8.6666666666663E+01  8.6666666666663E+01  8.6666666666663E+01 
 2.1666666666671E+01  2.1666666666671E+01  2.1666666666671E+01  2.1666666666671E+01  2.1666666666671E+01  2.1666666666671E+01  2.1666666666671E+01  2.1666666666671E+01  2.1666666666671E+01  2.1666666666671E+01 
-7.5673978246923E-05 -7.4934589462507E-05 -7.4925474329249E-05 -7.4925756880378E-05 -7.4926328774704E-05 -7.4927073722242E-05 -7.4927989480268E-05 -7.4929077208897E-05 -7.4930333811080E-05 -7.4931888364702E-05 
-7.5673978246923E+03 -7.4934589462507E+03 -7.4925474329249E+03 -7.4925756880378E+03 -7.4926328774704E+03 -7.4927073722242E+03 -7.4927989480268E+03 -7.4929077208897E+03 -7.4930333811080E+03 -7.4931888364702E+03 
 3.0576176981470E-04  1.5109443411807E-03  5.1202722341939E-03  1.1127610741677E-02  1.9533084892595E-02  3.0336786366528E-02  4.3538831929656E-02  5.9139364994602E-02  7.7138555406774E-02  8.6737837808278E-02 
 1.5349976384189E-03  1.3650207658152E-03  1.0463323927711E-03  7.7015247991663E-04  5.3645864225296E-04  3.4525116158332E-04  1.9653104259891E-04  9.0299764132569E-05  2.6559276821304E-05  5.3120044122027E-06 
-7.5673996654517E+03 -7.4934618222158E+03 -7.4925535995295E+03 -7.4925875858010E+03 -7.4926529470140E+03 -7.4927380542617E+03 -7.4928426833898E+03 -7.4929669505544E+03 -7.4931105462227E+03 -7.4932755796200E+03 
 4.5323200218892E+02  4.4756936549204E+02  4.4750118802295E+02  4.4750605406482E+02  4.4751428532820E+02  4.4752499229992E+02  4.4753815793867E+02  4.4755379126098E+02  4.4757186874143E+02  4.4759255192587E+02 
-8.0206316676406E+03 -7.9410311877079E+03 -7.9400547875525E+03 -7.9400936398658E+03 -7.9401672323422E+03 -7.9402630465616E+03 -7.9403808413285E+03 -7.9405207418154E+03 -7.9406824149641E+03 -7.9408681315459E+03 
ZONE T = "ANOD, 2.0000E-08", I = 10, SOLUTIONTIME = 2.000000E-08
ZONETYPE = ORDERED
DATAPACKING = BLOCK
STRANDID = 1
 0.0000000000000E+00  8.7488888888889E-05  1.7497777777778E-04  2.6246666666667E-04  3.4995555555556E-04  4.3744444444444E-04  5.2493333333333E-04  6.1242222222222E-04  6.9991111111111E-04  7.8740000000000E-04 
 1.1806862646244E-09  3.4973809163450E-09  5.8132419096215E-09  8.1291037711595E-09  1.0444987009666E-08  1.2760898200917E-08  1.5076843772712E-08  1.7392830221011E-08  1.9708500620152E-08  2.0866544745770E-08 
 9.1999999999859E-01  9.1999999999861E-01  9.1999999999861E-01  9.1999999999861E-01  9.1999999999861E-01  9.1999999999861E-01  9.1999999999861E-01  9.1999999999861E-01  9.1999999999861E-01  9.1999999999942E-01 
 4.0000000000706E-02  4.0000000000696E-02  4.0000000000696E-02  4.0000000000696E-02  4.0000000000696E-02  4.0000000000696E-02  4.0000000000696E-02  4.0000000000696E-02  4.0000000000696E-02  4.0000000000288E-02 
 4.0000000000706E-02  4.0000000000696E-02  4.0000000000696E-02  4.0000000000696E-02  4.0000000000696E-02  4.0000000000696E-02  4.0000000000696E-02  4.0000000000696E-02  4.0000000000696E-02  4.0000000000288E-02 
 2.9178117013324E-02  2.9178100989240E-02  2.9178053530875E-02  2.9177974647240E-02  2.9177864338184E-02  2.9177722603414E-02  2.9177549442550E-02  2.9177344855126E-02  2.9177108840588E-02  2.9176841398293E-02 
 0.0000000000000E+00 -4.7329481900999E-09 -8.9089182087575E-09 -1.2528110483576E-08 -1.5590524805808E-08 -1.8096156036018E-08 -2.0044997453825E-08 -2.1437040793482E-08 -2.2272276227488E-08 -2.2550692418010E-08 
 2.9824461132780E+02  2.9815179262549E+02  2.9815002736178E+02  2.9814999749405E+02  2.9814999714695E+02  2.9814999711732E+02  2.9814999709479E+02  2.9814999722201E+02  2.9814999705039E+02  2.9814999910243E+02 
-2.9178117013324E-02 -2.9178105722188E-02 -2.9178062439794E-02 -2.9177987175350E-02 -2.9177879928709E-02 -2.9177740699570E-02 -2.9177569487548E-02 -2.9177366292167E-02 -2.9177131112864E-02 -2.9176863948985E-02 
-4.0972783644238E-02 -4.0907964543984E-02 -4.0906731859515E-02 -4.0906711002886E-02 -4.0906710760510E-02 -4.0906710739817E-02 -4.0906710724085E-02 -4.0906710812925E-02 -4.0906710693079E-02 -4.0906712126280E-02 
 1.1794666630914E-02  1.1729858821796E-02  1.1728669419722E-02  1.1728723827536E-02  1.1728830831801E-02  1.1728970040247E-02  1.1729141236537E-02  1.1729344520758E-02  1.1729579580215E-02  1.1729848177295E-02 
 1.7002822611313E+00  3.3362248200632E+00  3.3350242854980E+00  3.3350255358939E+00  3.3350563204217E+00  3.3350965745942E+00  3.3351460853097E+00  3.3352049507329E+00  3.3352728628248E+00  1.6676757775420E+00 
 8.8110951049097E-09  2.6099857644198E-08  4.3382402309403E-08  6.0664953510928E-08  7.7947664253035E-08  9.5230583583744E-08  1.1251375949103E-07  1.2979724045261E-07  1.4708121747790E-07  1.4708121747790E-07 
 0.0000000000000E+00  3.3683946712356E+00  6.7040192239184E+00  1.0039044134706E+01  1.3374085062933E+01  1.6709161510228E+01  2.0044282840229E+01  2.3379458358438E+01  2.6714697265146E+01  3.0050009473908E+01 
 3.0050009474096E+01  2.6681614802924E+01  2.3345990250124E+01  2.0010965339421E+01  1.6675924411266E+01  1.3340847963753E+01  1.0005726633790E+01  6.6705511157559E+00  3.3353122089622E+00  0.0000000000000E+00 
 3.3851249022470E-08  6.6731919904793E-08  6.6715903497187E-08  6.6716080442681E-08  6.6716697552437E-08  6.6717502720924E-08  6.6718492825647E-08  6.6719669362846E-08  6.6721027883040E-08  3.3361297527966E-08 
 4.5724222271674E+04  9.1448444543348E+04  9.1448444543348E+04  9.1448444543348E+04  9.1448444543348E+04  9.1448444543348E+04  9.1448444543348E+04  9.1448444543348E+04  9.1448444543348E+04  4.5724222271674E+04 
 3.3835924481011E+05  6.7671848962021E+05  6.7671848962021E+05  6.7671848962021E+05  6.7671848962021E+05  6.7671848962021E+05  6.7671848962021E+05  6.7671848962021E+05  6.7671848962021E+05  3.3835924481011E+05 
 3.8408346708178E+05  7.6816693416356E+05  7.6816693416356E+05  7.6816693416356E+05  7.6816693416356E+05  7.6816693416356E+05  7.6816693416356E+05  7.6816693416356E+05  7.6816693416356E+05  3.8408346708178E+05 
 3.5000000000000E-01  3.5000000000000E-01  3.5000000000000E-01  3.5000000000000E-01  3.5000000000000E-01  3.5000000000000E-01  3.5000000000000E-01  3.5000000000000E-01  3.5000000000000E-01  3.5000000000000E-01 
 8.5301666666667E+00  1.7060333333333E+01  1.7060333333333E+01  1.7060333333333E+01  1.7060333333333E+01  1.7060333333333E+01  1.7060333333333E+01  1.7060333333333E+01  1.7060333333333E+01  8.5301666666667E+00 
 1.9932579603344E-01  1.9555449210038E-01  1.9548412216436E-01  1.9548419545694E-01  1.9548599990749E-01  1.9548835942601E-01  1.9549126152144E-01  1.9549471194777E-01  1.9549869264912E-01  1.9550330523538E-01 
 4.3744444444444E-05  8.7488888888889E-05  8.7488888888889E-05  8.7488888888889E-05  8.7488888888889E-05  8.7488888888889E-05  8.7488888888889E-05  8.7488888888889E-05  8.7488888888889E-05  4.3744444444444E-05 
 8.6666666666659E+01  8.6666666666659E+01  8.6666666666659E+01  8.6666666666659E+01  8.6666666666659E+01  8.6666666666659E+01  8.6666666666659E+01  8.6666666666659E+01  8.6666666666659E+01  8.6666666666659E+01 
 2.1666666666675E+01  2.1666666666675E+01  2.1666666666675E+01  2.1666666666675E+01  2.1666666666675E+01  2.1666666666675E+01  2.1666666666675E+01  2.1666666666675E+01  2.1666666666675E+01  2.1666666666675E+01 
-1.5204813572517E-04 -1.4985467556116E-04 -1.4981837931017E-04 -1.4981860096381E-04 -1.4981974149051E-04 -1.4982123117913E-04 -1.4982306296903E-04 -1.4982524023589E-04 -1.4982775291837E-04 -1.4983087721227E-04 
-7.6374157478249E+03 -7.4920086098656E+03 -7.4892904980918E+03 -7.4892844083429E+03 -7.4893412715807E+03 -7.4894157456890E+03 -7.4895073488758E+03 -7.4896163026996E+03 -7.4897419107289E+03 -7.4898988847568E+03 
 6.1717807248134E-04  3.0326795989515E-03  1.0260360464311E-02  2.2281690373194E-02  3.9097048235404E-02  6.0706623042614E-02  8.7110648323201E-02  1.1830941109437E-01  1.5430325101245E-01  1.7349898592496E-01 
 3.0686528466001E-03  2.7288135238864E-03  2.0916892310698E-03  1.5395863707794E-03  1.0724167474884E-03  6.9018019783269E-04  3.9287872457225E-04  1.8051528378888E-04  5.3093777230066E-05  1.0619054746323E-05 
-7.6374175928965E+03 -7.4920114953936E+03 -7.4892966835369E+03 -7.4892963318564E+03 -7.4893613715021E+03 -7.4894464604547E+03 -7.4895511170398E+03 -7.4896755629612E+03 -7.4898191019590E+03 -7.4899856512120E+03 
 4.5844135646427E+02  4.4729618394811E+02  4.4708988591422E+02  4.4709212753520E+02  4.4710033347410E+02  4.4711103663884E+02  4.4712420030282E+02  4.4713984155074E+02  4.4715790729342E+02  4.4717869727476E+02 
-8.0958589493607E+03 -7.9393076793418E+03 -7.9363865694511E+03 -7.9363884593916E+03 -7.9364617049762E+03 -7.9365574970935E+03 -7.9366753173427E+03 -7.9368154045119E+03 -7.9369770092524E+03 -7.9371643484868E+03 
ZONE T = "ANOD, 3.0000E-08", I = 10, SOLUTIONTIME = 3.000000E-08
ZONETYPE = ORDERED
DATAPACKING = BLOCK
STRANDID = 1
 0.0000000000000E+00  8.7488888888889E-05  1.7497777777778E-04  2.6246666666667E-04  3.4995555555556E-04  4.3744444444444E-04  5.2493333333333E-04  6.1242222222222E-04  6.9991111111111E-04  7.8740000000000E-04 
 1.1911677966904E-09  3.5076040435072E-09  5.8224018545057E-09  8.1371800189413E-09  1.0451979053346E-08  1.2767895677497E-08  1.5083846804545E-08  1.7398749093598E-08  1.9715151426447E-08  2.0872653769332E-08 
 9.1999999999787E-01  9.1999999999791E-01  9.1999999999791E-01  9.1999999999791E-01  9.1999999999791E-01  9.1999999999791E-01  9.1999999999791E-01  9.1999999999791E-01  9.1999999999791E-01  9.1999999999914E-01 
 4.0000000001064E-02  4.0000000001044E-02  4.0000000001044E-02  4.0000000001044E-02  4.0000000001044E-02  4.0000000001044E-02  4.0000000001044E-02  4.0000000001044E-02  4.0000000001044E-02  4.0000000000432E-02 
 4.0000000001064E-02  4.0000000001044E-02  4.0000000001044E-02  4.0000000001044E-02  4.0000000001044E-02  4.0000000001044E-02  4.0000000001044E-02  4.0000000001044E-02  4.0000000001044E-02  4.0000000000432E-02 
 2.9183511174723E-02  2.9183495007111E-02  2.9183447409880E-02  2.9183368401942E-02  2.9183257983295E-02  2.9183116153646E-02  2.9182942912616E-02  2.9182738259736E-02  2.9182502194453E-02  2.9182234716125E-02 
 0.0000000000000E+00 -4.7309364108070E-09 -8.9049567757051E-09 -1.2522455006333E-08 -1.5583435826104E-08 -1.8087894217473E-08 -2.0035823456740E-08 -2.1427215248740E-08 -2.2262059787926E-08 -2.2540345723408E-08 
 2.9828987860893E+02  2.9815352230950E+02  2.9815006986841E+02  2.9814999692546E+02  2.9814999546957E+02  2.9814999542983E+02  2.9814999563139E+02  2.9814999554142E+02  2.9814999546444E+02  2.9814999863553E+02 
-2.9183511174723E-02 -2.9183499738047E-02 -2.9183456314837E-02 -2.9183380924397E-02 -2.9183273566731E-02 -2.9183134241540E-02 -2.9182962948439E-02 -2.9182759686951E-02 -2.9182524456513E-02 -2.9182257256470E-02 
-4.1004398314797E-02 -4.0909172385411E-02 -4.0906761541583E-02 -4.0906710605540E-02 -4.0906709588893E-02 -4.0906709561145E-02 -4.0906709701893E-02 -4.0906709639065E-02 -4.0906709585311E-02 -4.0906711800076E-02 
 1.1820887140074E-02  1.1725672647364E-02  1.1723305226746E-02  1.1723329681143E-02  1.1723436022163E-02  1.1723575319605E-02  1.1723746753454E-02  1.1723949952114E-02  1.1724185128799E-02  1.1724454543605E-02 
 1.7153765021371E+00  3.3358526964422E+00  3.3334932183627E+00  3.3334649257574E+00  3.3334949801793E+00  3.3335352542467E+00  3.3335849411562E+00  3.3336436750940E+00  3.3337116654069E+00  1.6668955672523E+00 
 8.8893189905783E-09  2.6176149723262E-08  4.3450760109053E-08  6.0725224016779E-08  7.7999843678309E-08  9.5274672041495E-08  1.1254975788998E-07  1.2982514810852E-07  1.4710110681948E-07  1.4710110681948E-07 
 0.0000000000000E+00  3.3833028505021E+00  6.7179758076968E+00  1.0051454879823E+01  1.3384934832807E+01  1.6718449949898E+01  2.0052010047696E+01  2.3385624355710E+01  2.6719302025951E+01  3.0053053425956E+01 
 3.0053053425964E+01  2.6669750575608E+01  2.3335077618210E+01  2.0001598546159E+01  1.6668118593206E+01  1.3334603476006E+01  1.0001043378306E+01  6.6674290701866E+00  3.3337513999499E+00  0.0000000000000E+00 
 5.1005014043841E-08  1.0009044686922E-07  1.0005083568081E-07  1.0005072970025E-07  1.0005164735423E-07  1.0005285526339E-07  1.0005434223721E-07  1.0005610611379E-07  1.0005814453711E-07  5.0030253200489E-08 
 4.5724222271692E+04  9.1448444543381E+04  9.1448444543381E+04  9.1448444543381E+04  9.1448444543381E+04  9.1448444543381E+04  9.1448444543381E+04  9.1448444543381E+04  9.1448444543381E+04  4.5724222271691E+04 
 3.3835924481009E+05  6.7671848962018E+05  6.7671848962018E+05  6.7671848962018E+05  6.7671848962018E+05  6.7671848962018E+05  6.7671848962018E+05  6.7671848962018E+05  6.7671848962018E+05  3.3835924481009E+05 
 3.8408346708178E+05  7.6816693416356E+05  7.6816693416356E+05  7.6816693416356E+05  7.6816693416356E+05  7.6816693416356E+05  7.6816693416356E+05  7.6816693416356E+05  7.6816693416356E+05  3.8408346708178E+05 
 3.5000000000000E-01  3.5000000000000E-01  3.5000000000000E-01  3.5000000000000E-01  3.5000000000000E-01  3.5000000000000E-01  3.5000000000000E-01  3.5000000000000E-01  3.5000000000000E-01  3.5000000000000E-01 
 8.5301666666667E+00  1.7060333333333E+01  1.7060333333333E+01  1.7060333333333E+01  1.7060333333333E+01  1.7060333333333E+01  1.7060333333333E+01  1.7060333333333E+01  1.7060333333333E+01  8.5301666666667E+00 
 2.0109530905654E-01  1.9553267988759E-01  1.9539437789586E-01  1.9539271951060E-01  1.9539448116563E-01  1.9539684185030E-01  1.9539975427343E-01  1.9540319699267E-01  1.9540718227898E-01  1.9541184040003E-01 
 4.3744444444444E-05  8.7488888888889E-05  8.7488888888889E-05  8.7488888888889E-05  8.7488888888889E-05  8.7488888888889E-05  8.7488888888889E-05  8.7488888888889E-05  8.7488888888889E-05  4.3744444444444E-05 
 8.6666666666655E+01  8.6666666666655E+01  8.6666666666655E+01  8.6666666666655E+01  8.6666666666655E+01  8.6666666666655E+01  8.6666666666655E+01  8.6666666666655E+01  8.6666666666655E+01  8.6666666666655E+01 
 2.1666666666679E+01  2.1666666666679E+01  2.1666666666679E+01  2.1666666666679E+01  2.1666666666679E+01  2.1666666666679E+01  2.1666666666679E+01  2.1666666666679E+01  2.1666666666679E+01  2.1666666666679E+01 
-2.2910695059642E-04 -2.2476862995691E-04 -2.2467896099829E-04 -2.2467845401313E-04 -2.2468014661782E-04 -2.2468238148288E-04 -2.2468513331274E-04 -2.2468839721344E-04 -2.2469216785134E-04 -2.2469687955030E-04 
-7.7058814871246E+03 -7.4913954395751E+03 -7.4860581688122E+03 -7.4859853049319E+03 -7.4860405127305E+03 -7.4861150303750E+03 -7.4862070343710E+03 -7.4863156977546E+03 -7.4864414932971E+03 -7.4866002338025E+03 
 9.3417308664384E-04  4.5652059832493E-03  1.5420353703477E-02  3.3462344565673E-02  5.8692000552085E-02  9.1109620046573E-02  1.3071555414030E-01  1.7751023314029E-01  2.3149416642832E-01  2.6028351526345E-01 
 4.6010045458756E-03  4.0913972420551E-03  3.1360691225703E-03  2.3083001137934E-03  1.6078732171338E-03  1.0347864050670E-03  5.8904264521640E-04  2.7064637441399E-04  7.9603447726417E-05  1.5921140510298E-05 
-7.7058833364713E+03 -7.4913983346852E+03 -7.4860643731853E+03 -7.4859972542998E+03 -7.4860606431393E+03 -7.4861457779782E+03 -7.4862508354407E+03 -7.4863749887078E+03 -7.4865187107222E+03 -7.4866870236340E+03 
 4.6353936579639E+02  4.4708667827214E+02  4.4668024668286E+02  4.4667738729149E+02  4.4668546631914E+02  4.4669617057427E+02  4.4670936079235E+02  4.4672497390342E+02  4.4674304621297E+02  4.4676396181373E+02 
-8.1694227022677E+03 -7.9384850129574E+03 -7.9327446198682E+03 -7.9326746415913E+03 -7.9327461094585E+03 -7.9328419485525E+03 -7.9329601962331E+03 -7.9330999626112E+03 -7.9332617569352E+03 -7.9334509854477E+03 
ZONE T = "ANOD, 3.5000E-08", I = 10, SOLUTIONTIME = 3.500000E-08
ZONETYPE = ORDERED
DATAPACKING = BLOCK
STRANDID = 1
 0.0000000000000E+00  8.7488888888889E-05  1.7497777777778E-04  2.6246666666667E-04  3.4995555555556E-04  4.3744444444444E-04  5.2493333333333E-04  6.1242222222222E-04  6.9991111111111E-04  7.8740000000000E-04 
 1.1974485357930E-09  3.5138170995524E-09  5.8280846433332E-09  8.1423195233096E-09  1.0454395691504E-08  1.2766499822210E-08  1.5080817750274E-08  1.7395176434981E-08  1.9707403110695E-08  2.0863907376137E-08 
 9.1999999999751E-01  9.1999999999756E-01  9.1999999999756E-01  9.1999999999756E-01  9.1999999999756E-01  9.1999999999756E-01  9.1999999999756E-01  9.1999999999756E-01  9.1999999999756E-01  9.1999999999899E-01 
 4.0000000001244E-02  4.0000000001218E-02  4.0000000001218E-02  4.0000000001218E-02  4.0000000001218E-02  4.0000000001218E-02  4.0000000001218E-02  4.0000000001218E-02  4.0000000001218E-02  4.0000000000504E-02 
 4.0000000001244E-02  4.0000000001218E-02  4.0000000001218E-02  4.0000000001218E-02  4.0000000001218E-02  4.0000000001218E-02  4.0000000001218E-02  4.0000000001218E-02  4.0000000001218E-02  4.0000000000504E-02 
 2.9186216071392E-02  2.9186199832687E-02  2.9186152165851E-02  2.9186073095582E-02  2.9185962621979E-02  2.9185820744752E-02  2.9185647463520E-02  2.9185442777815E-02  2.9185206687083E-02  2.9184939190682E-02 
 0.0000000000000E+00 -4.7299432624932E-09 -8.9029867513927E-09 -1.2519635592510E-08 -1.5579897638855E-08 -1.8083767953516E-08 -2.0031239813766E-08 -2.1422304912878E-08 -2.2256953452168E-08 -2.2535174074858E-08 