TITLE = "Solution on Domain BulkDomain1D_0"
VARIABLES = "x [m]"  
"Vel_axial" 
"MF_sp(ECDMC)" 
"MF_sp(Li+)" 
"MF_sp(PF6-)" 
"Volt(Electroly)" 
"Volt(AnodeVolt)" 
"Temperature" 
"Potential Drop Electrode-Electrolyte [V]" 
"Surf_0 Equilibrium Potential Drop Electrode-Electrolyte [V]" 
"Overpotential_0 [V]" 
"Current Source [A/m^2]" 
"Li+ flux [kmol/m^2/s]" 
"Electrolyte Current [A/m^2]" 
"Electrode Current [A/m^2]" 
"CV Capacity discharged [A-s/m^2]" 
"Depth of discharge in CV [A-s/m^2]" 
"CV Capacity remaining [A-s/m^2]" 
"Initial CV capacity [A-s/m^2]" 
"Porosity []" 
"Surface Area [m2/m2] (area per area)" 
"Specific current (per particle area) [A/m^2]" 
"Control volume thickness [m]" 
"MoleDens Li_C6-bulk [kmol/m^3]" 
"MoleDens V_C6-bulk [kmol/m^3]" 
"qHeat_accum [J/m3]" 
"qHeat_step [W/m3]" 
"Joule_Lyte [W/m3]" 
"Joule_Solid [W/m3]" 
"electrodHeat [W/m3]" 
"OverpotHeat [W/m3]" 
"deltaSHeat [W/m3]" 

ZONE T = "ANOD, 0.0000E+00", I = 10, SOLUTIONTIME = 0.000000E+00
ZONETYPE = ORDERED
DATAPACKING = BLOCK
STRANDID = 1
 0.0000000000000E+00  8.7488888888889E-05  1.7497777777778E-04  2.6246666666667E-04  3.4995555555556E-04  4.3744444444444E-04  5.2493333333333E-04  6.1242222222222E-04  6.9991111111111E-04  7.8740000000000E-04 
 0.0000000000000E+00  0.0000000000000E+00  0.0000000000000E+00  0.0000000000000E+00  0.0000000000000E+00  0.0000000000000E+00  0.0000000000000E+00  0.0000000000000E+00  0.0000000000000E+00  0.0000000000000E+00 
 9.2000000000000E-01  9.2000000000000E-01  9.2000000000000E-01  9.2000000000000E-01  9.2000000000000E-01  9.2000000000000E-01  9.2000000000000E-01  9.2000000000000E-01  9.2000000000000E-01  9.2000000000000E-01 
 4.0000000000000E-02  4.0000000000000E-02  4.0000000000000E-02  4.0000000000000E-02  4.0000000000000E-02  4.0000000000000E-02  4.0000000000000E-02  4.0000000000000E-02  4.0000000000000E-02  4.0000000000000E-02 
 4.0000000000000E-02  4.0000000000000E-02  4.0000000000000E-02  4.0000000000000E-02  4.0000000000000E-02  4.0000000000000E-02  4.0000000000000E-02  4.0000000000000E-02  4.0000000000000E-02  4.0000000000000E-02 
-7.0000000000000E-02 -7.0000000000000E-02 -7.0000000000000E-02 -7.0000000000000E-02 -7.0000000000000E-02 -7.0000000000000E-02 -7.0000000000000E-02 -7.0000000000000E-02 -7.0000000000000E-02 -7.0000000000000E-02 
 0.0000000000000E+00  0.0000000000000E+00  0.0000000000000E+00  0.0000000000000E+00  0.0000000000000E+00  0.0000000000000E+00  0.0000000000000E+00  0.0000000000000E+00  0.0000000000000E+00  0.0000000000000E+00 
 2.9815000000000E+02  2.9815000000000E+02  2.9815000000000E+02  2.9815000000000E+02  2.9815000000000E+02  2.9815000000000E+02  2.9815000000000E+02  2.9815000000000E+02  2.9815000000000E+02  2.9815000000000E+02 
 7.0000000000000E-02  7.0000000000000E-02  7.0000000000000E-02  7.0000000000000E-02  7.0000000000000E-02  7.0000000000000E-02  7.0000000000000E-02  7.0000000000000E-02  7.0000000000000E-02  7.0000000000000E-02 
-4.0906712753390E-02 -4.0906712753390E-02 -4.0906712753390E-02 -4.0906712753390E-02 -4.0906712753390E-02 -4.0906712753390E-02 -4.0906712753390E-02 -4.0906712753390E-02 -4.0906712753390E-02 -4.0906712753390E-02 
 1.1090671275339E-01  1.1090671275339E-01  1.1090671275339E-01  1.1090671275339E-01  1.1090671275339E-01  1.1090671275339E-01  1.1090671275339E-01  1.1090671275339E-01  1.1090671275339E-01  1.1090671275339E-01 
 3.0930240924008E+01  6.1860481848017E+01  6.1860481848017E+01  6.1860481848017E+01  6.1860481848017E+01  6.1860481848017E+01  6.1860481848017E+01  6.1860481848017E+01  6.1860481848017E+01  3.0930240924008E+01 
-0.0000000000000E+00 -0.0000000000000E+00 -0.0000000000000E+00 -0.0000000000000E+00 -0.0000000000000E+00 -0.0000000000000E+00 -0.0000000000000E+00 -0.0000000000000E+00 -0.0000000000000E+00 -0.0000000000000E+00 
 0.0000000000000E+00  0.0000000000000E+00  0.0000000000000E+00  0.0000000000000E+00  0.0000000000000E+00  0.0000000000000E+00  0.0000000000000E+00  0.0000000000000E+00  0.0000000000000E+00  3.0930240924008E+01 
 3.0930240924008E+01 -0.0000000000000E+00 -0.0000000000000E+00 -0.0000000000000E+00 -0.0000000000000E+00 -0.0000000000000E+00 -0.0000000000000E+00 -0.0000000000000E+00 -0.0000000000000E+00  0.0000000000000E+00 
 0.0000000000000E+00  0.0000000000000E+00  0.0000000000000E+00  0.0000000000000E+00  0.0000000000000E+00  0.0000000000000E+00  0.0000000000000E+00  0.0000000000000E+00  0.0000000000000E+00  0.0000000000000E+00 
 4.5724222271641E+04  9.1448444543281E+04  9.1448444543281E+04  9.1448444543281E+04  9.1448444543281E+04  9.1448444543281E+04  9.1448444543281E+04  9.1448444543281E+04  9.1448444543281E+04  4.5724222271641E+04 
 3.3835924481014E+05  6.7671848962028E+05  6.7671848962028E+05  6.7671848962028E+05  6.7671848962028E+05  6.7671848962028E+05  6.7671848962028E+05  6.7671848962028E+05  6.7671848962028E+05  3.3835924481014E+05 
 3.8408346708178E+05  7.6816693416356E+05  7.6816693416356E+05  7.6816693416356E+05  7.6816693416356E+05  7.6816693416356E+05  7.6816693416356E+05  7.6816693416356E+05  7.6816693416356E+05  3.8408346708178E+05 
 3.5000000000000E-01  3.5000000000000E-01  3.5000000000000E-01  3.5000000000000E-01  3.5000000000000E-01  3.5000000000000E-01  3.5000000000000E-01  3.5000000000000E-01  3.5000000000000E-01  3.5000000000000E-01 
 8.5301666666667E+00  1.7060333333333E+01  1.7060333333333E+01  1.7060333333333E+01  1.7060333333333E+01  1.7060333333333E+01  1.7060333333333E+01  1.7060333333333E+01  1.7060333333333E+01  8.5301666666667E+00 
 3.6259831879809E+00  3.6259831879809E+00  3.6259831879809E+00  3.6259831879809E+00  3.6259831879809E+00  3.6259831879809E+00  3.6259831879809E+00  3.6259831879809E+00  3.6259831879809E+00  3.6259831879809E+00 
 4.3744444444444E-05  8.7488888888889E-05  8.7488888888889E-05  8.7488888888889E-05  8.7488888888889E-05  8.7488888888889E-05  8.7488888888889E-05  8.7488888888889E-05  8.7488888888889E-05  4.3744444444444E-05 
 8.6666666666667E+01  8.6666666666667E+01  8.6666666666667E+01  8.6666666666667E+01  8.6666666666667E+01  8.6666666666667E+01  8.6666666666667E+01  8.6666666666667E+01  8.6666666666667E+01  8.6666666666667E+01 
 2.1666666666667E+01  2.1666666666667E+01  2.1666666666667E+01  2.1666666666667E+01  2.1666666666667E+01  2.1666666666667E+01  2.1666666666667E+01  2.1666666666667E+01  2.1666666666667E+01  2.1666666666667E+01 
 0.0000000000000E+00  0.0000000000000E+00  0.0000000000000E+00  0.0000000000000E+00  0.0000000000000E+00  0.0000000000000E+00  0.0000000000000E+00  0.0000000000000E+00  0.0000000000000E+00  0.0000000000000E+00 
 0.0000000000000E+00  0.0000000000000E+00  0.0000000000000E+00  0.0000000000000E+00  0.0000000000000E+00  0.0000000000000E+00  0.0000000000000E+00  0.0000000000000E+00  0.0000000000000E+00  0.0000000000000E+00 
 0.0000000000000E+00  0.0000000000000E+00  0.0000000000000E+00  0.0000000000000E+00  0.0000000000000E+00  0.0000000000000E+00  0.0000000000000E+00  0.0000000000000E+00  0.0000000000000E+00  0.0000000000000E+00 
 0.0000000000000E+00  0.0000000000000E+00  0.0000000000000E+00  0.0000000000000E+00  0.0000000000000E+00  0.0000000000000E+00  0.0000000000000E+00  0.0000000000000E+00  0.0000000000000E+00  0.0000000000000E+00 
 0.0000000000000E+00  0.0000000000000E+00  0.0000000000000E+00  0.0000000000000E+00  0.0000000000000E+00  0.0000000000000E+00  0.0000000000000E+00  0.0000000000000E+00  0.0000000000000E+00  0.0000000000000E+00 
 0.0000000000000E+00  0.0000000000000E+00  0.0000000000000E+00  0.0000000000000E+00  0.0000000000000E+00  0.0000000000000E+00  0.0000000000000E+00  0.0000000000000E+00  0.0000000000000E+00  0.0000000000000E+00 
 0.0000000000000E+00  0.0000000000000E+00  0.0000000000000E+00  0.0000000000000E+00  0.0000000000000E+00  0.0000000000000E+00  0.0000000000000E+00  0.0000000000000E+00  0.0000000000000E+00  0.0000000000000E+00 
ZONE T = "ANOD, 1.0000E-08", I = 10, SOLUTIONTIME = 1.000000E-08
ZONETYPE = ORDERED
DATAPACKING = BLOCK
STRANDID = 1
 0.0000000000000E+00  8.7488888888889E-05  1.7497777777778E-04  2.6246666666667E-04  3.4995555555556E-04  4.3744444444444E-04  5.2493333333333E-04  6.1242222222222E-04  6.9991111111111E-04  7.8740000000000E-04 
 1.1699591066291E-09  3.4871578042873E-09  5.8040779367263E-09  8.1210094543918E-09  1.0437962474542E-08  1.2754943463779E-08  1.5071958818521E-08  1.7389014959154E-08  1.9705755153109E-08  2.0865060349706E-08 
 9.1999999999930E-01  9.1999999999930E-01  9.1999999999930E-01  9.1999999999930E-01  9.1999999999930E-01  9.1999999999930E-01  9.1999999999930E-01  9.1999999999930E-01  9.1999999999930E-01  9.1999999999971E-01 
 4.0000000000352E-02  4.0000000000348E-02  4.0000000000348E-02  4.0000000000348E-02  4.0000000000348E-02  4.0000000000348E-02  4.0000000000348E-02  4.0000000000348E-02  4.0000000000348E-02  4.0000000000144E-02 
 4.0000000000352E-02  4.0000000000348E-02  4.0000000000348E-02  4.0000000000348E-02  4.0000000000348E-02  4.0000000000348E-02  4.0000000000348E-02  4.0000000000348E-02  4.0000000000348E-02  4.0000000000144E-02 
 2.9172734701890E-02  2.9172718824667E-02  2.9172671505127E-02  2.9172592745841E-02  2.9172482546627E-02  2.9172340907173E-02  2.9172167827115E-02  2.9171963305968E-02  2.9171727343210E-02  2.9171459938172E-02 
 0.0000000000000E+00 -4.7349956843528E-09 -8.9128920148773E-09 -1.2533755964043E-08 -1.5597584794622E-08 -1.8104373337002E-08 -2.0054114866869E-08 -2.1446801122093E-08 -2.2282422296959E-08 -2.2560967029001E-08 
 2.9819800359755E+02  2.9815060805779E+02  2.9815000625785E+02  2.9814999848956E+02  2.9814999844998E+02  2.9814999849453E+02  2.9814999847187E+02  2.9814999843336E+02  2.9814999849466E+02  2.9814999955381E+02 
-2.9172734701890E-02 -2.9172723559662E-02 -2.9172680418019E-02 -2.9172605279597E-02 -2.9172498144211E-02 -2.9172359011546E-02 -2.9172187881230E-02 -2.9171984752769E-02 -2.9171749625632E-02 -2.9171482499139E-02 
-4.0940234636388E-02 -4.0907137359807E-02 -4.0906717122945E-02 -4.0906711698349E-02 -4.0906711670714E-02 -4.0906711701825E-02 -4.0906711686000E-02 -4.0906711659108E-02 -4.0906711701910E-02 -4.0906712441651E-02 
 1.1767499934498E-02  1.1734413800144E-02  1.1734036704925E-02  1.1734106418752E-02  1.1734213526502E-02  1.1734352690279E-02  1.1734523804771E-02  1.1734726906339E-02  1.1734962076278E-02  1.1735229942512E-02 
 1.6848429423131E+00  3.3369678095097E+00  3.3365666511044E+00  3.3365830476082E+00  3.3366140119605E+00  3.3366542901644E+00  3.3367037783230E+00  3.3367625118967E+00  3.3368305705650E+00  1.6684542859153E+00 
 8.7310386518226E-09  2.6023563180704E-08  4.3314017284154E-08  6.0604545627893E-08  7.7895244315437E-08  9.5186143615426E-08  1.1247730964139E-07  1.2976876271031E-07  1.4706065574454E-07  1.4706065574454E-07 
 0.0000000000000E+00  3.3533093332230E+00  6.6900597789875E+00  1.0026617507181E+01  1.3363198832631E+01  1.6699815949767E+01  2.0036478158492E+01  2.3373193797297E+01  2.6709972626614E+01  3.0046834075053E+01 
 3.0046834372253E+01  2.6693516086751E+01  2.3356765978444E+01  2.0020208250393E+01  1.6683626841882E+01  1.3347009811859E+01  1.0010347898437E+01  6.6736318730265E+00  3.3368524503301E+00  0.0000000000000E+00 
 1.6848429423131E-08  3.3369678095097E-08  3.3365666511044E-08  3.3365830476082E-08  3.3366140119605E-08  3.3366542901644E-08  3.3367037783230E-08  3.3367625118967E-08  3.3368305705650E-08  1.6684542859153E-08 
 4.5724222271657E+04  9.1448444543315E+04  9.1448444543315E+04  9.1448444543315E+04  9.1448444543315E+04  9.1448444543315E+04  9.1448444543315E+04  9.1448444543315E+04  9.1448444543315E+04  4.5724222271657E+04 
 3.3835924481012E+05  6.7671848962025E+05  6.7671848962025E+05  6.7671848962025E+05  6.7671848962025E+05  6.7671848962025E+05  6.7671848962025E+05  6.7671848962025E+05  6.7671848962025E+05  3.3835924481012E+05 
 3.8408346708178E+05  7.6816693416356E+05  7.6816693416356E+05  7.6816693416356E+05  7.6816693416356E+05  7.6816693416356E+05  7.6816693416356E+05  7.6816693416356E+05  7.6816693416356E+05  3.8408346708178E+05 
 3.5000000000000E-01  3.5000000000000E-01  3.5000000000000E-01  3.5000000000000E-01  3.5000000000000E-01  3.5000000000000E-01  3.5000000000000E-01  3.5000000000000E-01  3.5000000000000E-01  3.5000000000000E-01 
 8.5301666666667E+00  1.7060333333333E+01  1.7060333333333E+01  1.7060333333333E+01  1.7060333333333E+01  1.7060333333333E+01  1.7060333333333E+01  1.7060333333333E+01  1.7060333333333E+01  8.5301666666667E+00 
 1.9751582919205E-01  1.9559804279965E-01  1.9557452869841E-01  1.9557548978771E-01  1.9557730477875E-01  1.9557966570589E-01  1.9558256647914E-01  1.9558600917704E-01  1.9558999847004E-01  1.9559457055336E-01 
 4.3744444444444E-05  8.7488888888889E-05  8.7488888888889E-05  8.7488888888889E-05  8.7488888888889E-05  8.7488888888889E-05  8.7488888888889E-05  8.7488888888889E-05  8.7488888888889E-05  4.3744444444444E-05 
 8.6666666666663E+01  8.6666666666663E+01  8.6666666666663E+01  8.6666666666663E+01  8.6666666666663E+01  8.6666666666663E+01  8.6666666666663E+01  8.6666666666663E+01  8.6666666666663E+01  8.6666666666663E+01 
 2.1666666666671E+01  2.1666666666671E+01  2.1666666666671E+01  2.1666666666671E+01  2.1666666666671E+01  2.1666666666671E+01  2.1666666666671E+01  2.1666666666671E+01  2.1666666666671E+01  2.1666666666671E+01 
-7.5673990962598E-05 -7.4934603015266E-05 -7.4925486702696E-05 -7.4925768177778E-05 -7.4926340929672E-05 -7.4927086229419E-05 -7.4928001726968E-05 -7.4929088220951E-05 -7.4930347508644E-05 -7.4931901526698E-05 
-7.5673990962598E+03 -7.4934603015266E+03 -7.4925486702696E+03 -7.4925768177778E+03 -7.4926340929672E+03 -7.4927086229419E+03 -7.4928001726968E+03 -7.4929088220951E+03 -7.4930347508644E+03 -7.4931901526698E+03 
 3.0575869543447E-04  1.5109291116427E-03  5.1202217996034E-03  1.1127500397787E-02  1.9532891315861E-02  3.0336485710084E-02  4.3538402082777E-02  5.9138778057650E-02  7.7137787183087E-02  8.6736976903763E-02 
 1.5349824272082E-03  1.3650072366189E-03  1.0463220196590E-03  7.7014484610515E-04  5.3645332663605E-04  3.4524774089445E-04  1.9652909553555E-04  9.0298870286371E-05  2.6559014406357E-05  5.3119518722802E-06 
-7.5674009370009E+03 -7.4934631774630E+03 -7.4925548368134E+03 -7.4925887154231E+03 -7.4926541623118E+03 -7.4927393046753E+03 -7.4928439076279E+03 -7.4929680511721E+03 -7.4931119152106E+03 -7.4932768949586E+03 
 4.5323216388927E+02  4.4756953268688E+02  4.4750134617617E+02  4.4750620397187E+02  4.4751444177482E+02  4.4752515141427E+02  4.4753831502730E+02  4.4755393886523E+02  4.4757203684483E+02  4.4759271588891E+02 
-8.0206331008902E+03 -7.9410327101498E+03 -7.9400561829896E+03 -7.9400949193949E+03 -7.9401686040866E+03 -7.9402644560896E+03 -7.9403822226552E+03 -7.9405219900373E+03 -7.9406839520554E+03 -7.9408696108475E+03 
ZONE T = "ANOD, 2.0000E-08", I = 10, SOLUTIONTIME = 2.000000E-08
ZONETYPE = ORDERED
DATAPACKING = BLOCK
STRANDID = 1
 0.0000000000000E+00  8.7488888888889E-05  1.7497777777778E-04  2.6246666666667E-04  3.4995555555556E-04  4.3744444444444E-04  5.2493333333333E-04  6.1242222222222E-04  6.9991111111111E-04  7.8740000000000E-04 
 1.1808678807571E-09  3.4975624764903E-09  5.8134234715757E-09  8.1292853036933E-09  1.0445168537090E-08  1.2761079734409E-08  1.5077025271014E-08  1.7393011617128E-08  1.9709045212120E-08  2.0867089345195E-08 
 9.1999999999859E-01  9.1999999999861E-01  9.1999999999861E-01  9.1999999999861E-01  9.1999999999861E-01  9.1999999999861E-01  9.1999999999861E-01  9.1999999999861E-01  9.1999999999861E-01  9.1999999999942E-01 
 4.0000000000706E-02  4.0000000000696E-02  4.0000000000696E-02  4.0000000000696E-02  4.0000000000696E-02  4.0000000000696E-02  4.0000000000696E-02  4.0000000000696E-02  4.0000000000696E-02  4.0000000000288E-02 
 4.0000000000706E-02  4.0000000000696E-02  4.0000000000696E-02  4.0000000000696E-02  4.0000000000696E-02  4.0000000000696E-02  4.0000000000696E-02  4.0000000000696E-02  4.0000000000696E-02  4.0000000000288E-02 
 2.9178117014778E-02  2.9178100990693E-02  2.9178053532330E-02  2.9177974648695E-02  2.9177864339640E-02  2.9177722604871E-02  2.9177549444008E-02  2.9177344856586E-02  2.9177108842050E-02  2.9176841399758E-02 
 0.0000000000000E+00 -4.7329481361412E-09 -8.9089181143006E-09 -1.2528110348186E-08 -1.5590524636558E-08 -1.8096155834136E-08 -2.0044997217853E-08 -2.1437040531881E-08 -2.2272275964824E-08 -2.2550692157139E-08 
 2.9824461137922E+02  2.9815179250884E+02  2.9815002736620E+02  2.9814999743301E+02  2.9814999713686E+02  2.9814999713065E+02  2.9814999702165E+02  2.9814999700846E+02  2.9814999702616E+02  2.9814999913429E+02 
-2.9178117014778E-02 -2.9178105723641E-02 -2.9178062441248E-02 -2.9177987176805E-02 -2.9177879930165E-02 -2.9177740701027E-02 -2.9177569489005E-02 -2.9177366293626E-02 -2.9177131114326E-02 -2.9176863950450E-02 
-4.0972783680146E-02 -4.0907964462525E-02 -4.0906731862601E-02 -4.0906710960262E-02 -4.0906710753462E-02 -4.0906710749127E-02 -4.0906710673011E-02 -4.0906710663804E-02 -4.0906710676163E-02 -4.0906712148531E-02 
 1.1794666665368E-02  1.1729858738883E-02  1.1728669421354E-02  1.1728723783457E-02  1.1728830823297E-02  1.1728970048101E-02  1.1729141184006E-02  1.1729344370178E-02  1.1729579561837E-02  1.1729848198081E-02 
 1.7002822788916E+00  3.3362247394664E+00  3.3350242881128E+00  3.3350254935332E+00  3.3350563130634E+00  3.3350965833341E+00  3.3351460346334E+00  3.3352048035823E+00  3.3352728457564E+00  1.6676757882778E+00 
 8.8110951955369E-09  2.6099857320936E-08  4.3382401998696E-08  6.0664952976969E-08  7.7947663677599E-08  9.5230583061300E-08  1.1251375870142E-07  1.2979723890544E-07  1.4708121583509E-07  1.4708121583509E-07 
 0.0000000000000E+00  3.3683946484209E+00  6.7040191623809E+00  1.0039044053142E+01  1.3374084956261E+01  1.6709161404516E+01  2.0044282713636E+01  2.3379458132822E+01  2.6714696957360E+01  3.0050009168369E+01 
 3.0050009168650E+01  2.6681614520032E+01  2.3345990006243E+01  2.0010965115421E+01  1.6675924212129E+01  1.3340847763926E+01  1.0005726454932E+01  6.6705510358138E+00  3.3353122111489E+00  0.0000000000000E+00 
 3.3851252212047E-08  6.6731925489761E-08  6.6715909392172E-08  6.6716085411414E-08  6.6716703250239E-08  6.6717508734985E-08  6.6718498129563E-08  6.6719673154790E-08  6.6721034163214E-08  3.3361300741931E-08 
 4.5724222271674E+04  9.1448444543348E+04  9.1448444543348E+04  9.1448444543348E+04  9.1448444543348E+04  9.1448444543348E+04  9.1448444543348E+04  9.1448444543348E+04  9.1448444543348E+04  4.5724222271674E+04 
 3.3835924481011E+05  6.7671848962021E+05  6.7671848962021E+05  6.7671848962021E+05  6.7671848962021E+05  6.7671848962021E+05  6.7671848962021E+05  6.7671848962021E+05  6.7671848962021E+05  3.3835924481011E+05 
 3.8408346708178E+05  7.6816693416356E+05  7.6816693416356E+05  7.6816693416356E+05  7.6816693416356E+05  7.6816693416356E+05  7.6816693416356E+05  7.6816693416356E+05  7.6816693416356E+05  3.8408346708178E+05 
 3.5000000000000E-01  3.5000000000000E-01  3.5000000000000E-01  3.5000000000000E-01  3.5000000000000E-01  3.5000000000000E-01  3.5000000000000E-01  3.5000000000000E-01  3.5000000000000E-01  3.5000000000000E-01 
 8.5301666666667E+00  1.7060333333333E+01  1.7060333333333E+01  1.7060333333333E+01  1.7060333333333E+01  1.7060333333333E+01  1.7060333333333E+01  1.7060333333333E+01  1.7060333333333E+01  8.5301666666667E+00 
 1.9932579811550E-01  1.9555448737616E-01  1.9548412231762E-01  1.9548419297395E-01  1.9548599947618E-01  1.9548835993830E-01  1.9549125855103E-01  1.9549470332246E-01  1.9549869164864E-01  1.9550330649395E-01 
 4.3744444444444E-05  8.7488888888889E-05  8.7488888888889E-05  8.7488888888889E-05  8.7488888888889E-05  8.7488888888889E-05  8.7488888888889E-05  8.7488888888889E-05  8.7488888888889E-05  4.3744444444444E-05 
 8.6666666666659E+01  8.6666666666659E+01  8.6666666666659E+01  8.6666666666659E+01  8.6666666666659E+01  8.6666666666659E+01  8.6666666666659E+01  8.6666666666659E+01  8.6666666666659E+01  8.6666666666659E+01 
 2.1666666666675E+01  2.1666666666675E+01  2.1666666666675E+01  2.1666666666675E+01  2.1666666666675E+01  2.1666666666675E+01  2.1666666666675E+01  2.1666666666675E+01  2.1666666666675E+01  2.1666666666675E+01 
-1.5204814924428E-04 -1.4985468729320E-04 -1.4981839174332E-04 -1.4981861130455E-04 -1.4981975347981E-04 -1.4982124388443E-04 -1.4982307407116E-04 -1.4982524792326E-04 -1.4982776623086E-04 -1.4983089086012E-04 
-7.6374158281681E+03 -7.4920084277929E+03 -7.4892905040622E+03 -7.4892843126774E+03 -7.4893412550142E+03 -7.4894157655014E+03 -7.4895072344191E+03 -7.4896159702311E+03 -7.4897418722212E+03 -7.4898989333421E+03 
 6.1717500447324E-04  3.0326643381041E-03  1.0260309940806E-02  2.2281579843924E-02  3.9096854349291E-02  6.0706322005529E-02  8.7110217906600E-02  1.1830882296905E-01  1.5430248100164E-01  1.7349812308793E-01 
 3.0686376004200E-03  2.7287999656269E-03  2.0916788362363E-03  1.5395787197260E-03  1.0724114191744E-03  6.9017676699750E-04  3.9287677051770E-04  1.8051438743926E-04  5.3093514788530E-05  1.0619002274745E-05 
-7.6374176732396E+03 -7.4920113133209E+03 -7.4892966895072E+03 -7.4892962361907E+03 -7.4893613549353E+03 -7.4894464802667E+03 -7.4895510025826E+03 -7.4896752304916E+03 -7.4898190634495E+03 -7.4899856997953E+03 
 4.5844136259211E+02  4.4729616998056E+02  4.4708988632696E+02  4.4709212017609E+02  4.4710033216347E+02  4.4711103810991E+02  4.4712419150639E+02  4.4713981608242E+02  4.4715790430444E+02  4.4717870094594E+02 
-8.0958590358317E+03 -7.9393074833014E+03 -7.9363865758341E+03 -7.9363883563668E+03 -7.9364616870988E+03 -7.9365575183766E+03 -7.9366751940890E+03 -7.9368150465740E+03 -7.9369769677540E+03 -7.9371644007412E+03 
ZONE T = "ANOD, 3.0000E-08", I = 10, SOLUTIONTIME = 3.000000E-08
ZONETYPE = ORDERED
DATAPACKING = BLOCK
STRANDID = 1
 0.0000000000000E+00  8.7488888888889E-05  1.7497777777778E-04  2.6246666666667E-04  3.4995555555556E-04  4.3744444444444E-04  5.2493333333333E-04  6.1242222222222E-04  6.9991111111111E-04  7.8740000000000E-04 
 1.1911678047982E-09  3.5076039424084E-09  5.8224017417155E-09  8.1371797975991E-09  1.0453068560364E-08  1.2767895618718E-08  1.5083846704226E-08  1.7398748924925E-08  1.9713698421661E-08  2.0871200766620E-08 
 9.1999999999787E-01  9.1999999999791E-01  9.1999999999791E-01  9.1999999999791E-01  9.1999999999791E-01  9.1999999999791E-01  9.1999999999791E-01  9.1999999999791E-01  9.1999999999791E-01  9.1999999999914E-01 
 4.0000000001064E-02  4.0000000001044E-02  4.0000000001044E-02  4.0000000001044E-02  4.0000000001044E-02  4.0000000001044E-02  4.0000000001044E-02  4.0000000001044E-02  4.0000000001044E-02  4.0000000000432E-02 
 4.0000000001064E-02  4.0000000001044E-02  4.0000000001044E-02  4.0000000001044E-02  4.0000000001044E-02  4.0000000001044E-02  4.0000000001044E-02  4.0000000001044E-02  4.0000000001044E-02  4.0000000000432E-02 
 2.9183511233597E-02  2.9183495065985E-02  2.9183447468756E-02  2.9183368460819E-02  2.9183258042175E-02  2.9183116212528E-02  2.9182942971498E-02  2.9182738318620E-02  2.9182502253339E-02  2.9182234775013E-02 
 0.0000000000000E+00 -4.7309363675536E-09 -8.9049567154536E-09 -1.2522454931894E-08 -1.5583435763576E-08 -1.8087894141570E-08 -2.0035823353664E-08 -2.1427215128478E-08 -2.2262059666912E-08 -2.2540345602893E-08 
 2.9828987866674E+02  2.9815352210547E+02  2.9815006986872E+02  2.9814999672265E+02  2.9814999571486E+02  2.9814999557497E+02  2.9814999556909E+02  2.9814999542290E+02  2.9814999547829E+02  2.9814999866903E+02 
-2.9183511233597E-02 -2.9183499796921E-02 -2.9183456373713E-02 -2.9183380983274E-02 -2.9183273625611E-02 -2.9183134300422E-02 -2.9182963007322E-02 -2.9182759745835E-02 -2.9182524515399E-02 -2.9182257315359E-02 
-4.1004398355172E-02 -4.0909172242936E-02 -4.0906761541801E-02 -4.0906710463921E-02 -4.0906709760175E-02 -4.0906709662498E-02 -4.0906709658392E-02 -4.0906709556302E-02 -4.0906709594984E-02 -4.0906711823463E-02 
 1.1820887121575E-02  1.1725672446015E-02  1.1723305168088E-02  1.1723329480647E-02  1.1723436134565E-02  1.1723575362076E-02  1.1723746651070E-02  1.1723949810468E-02  1.1724185079586E-02  1.1724454508104E-02 
 1.7153765138151E+00  3.3358525391756E+00  3.3334932015446E+00  3.3334647694323E+00  3.3334951316200E+00  3.3335353369056E+00  3.3335848813357E+00  3.3336435766527E+00  3.3337116578891E+00  1.6668955702382E+00 
 8.8893190499850E-09  2.6176148971249E-08  4.3450759269007E-08  6.0725222362000E-08  7.7999842812507E-08  9.5274671604334E-08  1.1254975713799E-07  1.2982514685553E-07  1.4710110551727E-07  1.4710110551727E-07 
 0.0000000000000E+00  3.3833027834583E+00  6.7179756538689E+00  1.0051454639109E+01  1.3384934589608E+01  1.6718449824030E+01  2.0052009933178E+01  2.3385624162192E+01  2.6719301779412E+01  3.0053053178525E+01 
 3.0053053178559E+01  2.6669750395159E+01  2.3335077524812E+01  2.0001598539341E+01  1.6668118588819E+01  1.3334603354566E+01  1.0001043245456E+01  6.6674290164653E+00  3.3337513991917E+00  0.0000000000000E+00 
 5.1005017350198E-08  1.0009045088152E-07  1.0005084140762E-07  1.0005073310574E-07  1.0005165456644E-07  1.0005286210404E-07  1.0005434694292E-07  1.0005610892132E-07  1.0005815074211E-07  5.0030256444313E-08 
 4.5724222271692E+04  9.1448444543381E+04  9.1448444543381E+04  9.1448444543381E+04  9.1448444543381E+04  9.1448444543381E+04  9.1448444543381E+04  9.1448444543381E+04  9.1448444543381E+04  4.5724222271691E+04 
 3.3835924481009E+05  6.7671848962018E+05  6.7671848962018E+05  6.7671848962018E+05  6.7671848962018E+05  6.7671848962018E+05  6.7671848962018E+05  6.7671848962018E+05  6.7671848962018E+05  3.3835924481009E+05 
 3.8408346708178E+05  7.6816693416356E+05  7.6816693416356E+05  7.6816693416356E+05  7.6816693416356E+05  7.6816693416356E+05  7.6816693416356E+05  7.6816693416356E+05  7.6816693416356E+05  3.8408346708178E+05 
 3.5000000000000E-01  3.5000000000000E-01  3.5000000000000E-01  3.5000000000000E-01  3.5000000000000E-01  3.5000000000000E-01  3.5000000000000E-01  3.5000000000000E-01  3.5000000000000E-01  3.5000000000000E-01 
 8.5301666666667E+00  1.7060333333333E+01  1.7060333333333E+01  1.7060333333333E+01  1.7060333333333E+01  1.7060333333333E+01  1.7060333333333E+01  1.7060333333333E+01  1.7060333333333E+01  8.5301666666667E+00 
 2.0109531042556E-01  1.9553267066933E-01  1.9539437691006E-01  1.9539271034753E-01  1.9539449004240E-01  1.9539684669539E-01  1.9539975076703E-01  1.9540319122249E-01  1.9540718183833E-01  1.9541184075007E-01 
 4.3744444444444E-05  8.7488888888889E-05  8.7488888888889E-05  8.7488888888889E-05  8.7488888888889E-05  8.7488888888889E-05  8.7488888888889E-05  8.7488888888889E-05  8.7488888888889E-05  4.3744444444444E-05 
 8.6666666666655E+01  8.6666666666655E+01  8.6666666666655E+01  8.6666666666655E+01  8.6666666666655E+01  8.6666666666655E+01  8.6666666666655E+01  8.6666666666655E+01  8.6666666666655E+01  8.6666666666655E+01 
 2.1666666666679E+01  2.1666666666679E+01  2.1666666666679E+01  2.1666666666679E+01  2.1666666666679E+01  2.1666666666679E+01  2.1666666666679E+01  2.1666666666679E+01  2.1666666666679E+01  2.1666666666679E+01 
-2.2910696466900E-04 -2.2476863815977E-04 -2.2467897307622E-04 -2.2467846084598E-04 -2.2468016205433E-04 -2.2468239608102E-04 -2.2468514308786E-04 -2.2468840270103E-04 -2.2469218101880E-04 -2.2469689335796E-04 
-7.7058815424723E+03 -7.4913950866573E+03 -7.4860581332900E+03 -7.4859849541427E+03 -7.4860408574519E+03 -7.4861152196584E+03 -7.4862069016700E+03 -7.4863154777767E+03 -7.4864414787943E+03 -7.4866002497846E+03 
 9.3417002279493E-04  4.5651906448267E-03  1.5420302952642E-02  3.3462233486239E-02  5.8691806000626E-02  9.1109318581515E-02  1.3071512321317E-01  1.7750964400886E-01  2.3149339499466E-01  2.6028265090212E-01 
 4.6009892716759E-03  4.0913836649282E-03  3.1360587193655E-03  2.3082924617224E-03  1.6078678890224E-03  1.0347829683145E-03  5.8904068590089E-04  2.7064547638429E-04  7.9603185251407E-05  1.5921088057722E-05 
-7.7058833918190E+03 -7.4913979817673E+03 -7.4860643376629E+03 -7.4859969035100E+03 -7.4860609878600E+03 -7.4861459672612E+03 -7.4862507027392E+03 -7.4863747687289E+03 -7.4865186962180E+03 -7.4866870396145E+03 
 4.6353936822664E+02  4.4708664951731E+02  4.4668024219430E+02  4.4667735870505E+02  4.4668549089480E+02  4.4669618326887E+02  4.4670934887510E+02  4.4672495531455E+02  4.4674304333031E+02  4.4676396126123E+02 
-8.1694227600456E+03 -7.9384846312846E+03 -7.9327445798572E+03 -7.9326742622151E+03 -7.9327464787548E+03 -7.9328421505300E+03 -7.9329600516143E+03 -7.9330997240434E+03 -7.9332617395483E+03 -7.9334510008758E+03 
ZONE T = "ANOD, 4.0000E-08", I = 10, SOLUTIONTIME = 4.000000E-08
ZONETYPE = ORDERED
DATAPACKING = BLOCK
STRANDID = 1
 0.0000000000000E+00  8.7488888888889E-05  1.7497777777778E-04  2.6246666666667E-04  3.4995555555556E-04  4.3744444444444E-04  5.2493333333333E-04  6.1242222222222E-04  6.9991111111111E-04  7.8740000000000E-04 
 1.2014154376538E-09  3.5178364568915E-09  5.8315817279506E-09  8.1452741867295E-09  1.0458986901629E-08  1.2772727504162E-08  1.5085412839451E-08  1.7399228674512E-08  1.9713091761833E-08  2.0870777564192E-08 
 9.1999999999715E-01  9.1999999999722E-01  9.1999999999722E-01  9.1999999999722E-01  9.1999999999722E-01  9.1999999999722E-01  9.1999999999722E-01  9.1999999999722E-01  9.1999999999722E-01  9.1999999999885E-01 
 4.0000000001425E-02  4.0000000001392E-02  4.0000000001391E-02  4.0000000001391E-02  4.0000000001391E-02  4.0000000001391E-02  4.0000000001391E-02  4.0000000001391E-02  4.0000000001391E-02  4.0000000000576E-02 
 4.0000000001425E-02  4.0000000001392E-02  4.0000000001391E-02  4.0000000001391E-02  4.0000000001391E-02  4.0000000001391E-02  4.0000000001391E-02  4.0000000001391E-02  4.0000000001391E-02  4.0000000000576E-02 
 2.9188917384419E-02  2.9188901076453E-02  2.9188853340186E-02  2.9188774207671E-02  2.9188663679189E-02  2.9188521754447E-02  2.9188348433065E-02  2.9188143714579E-02  2.9187907598432E-02  2.9187640083981E-02 
 0.0000000000000E+00 -4.7289821476100E-09 -8.9010519103154E-09 -1.2516852589695E-08 -1.5576396882843E-08 -1.8079679919795E-08 -2.0026694995825E-08 -2.1417433851102E-08 -2.2251886658104E-08 -2.2530042056474E-08 