TITLE = "Solution on Domain BulkDomain1D_1"
VARIABLES = "x [m]"  
"Vel_axial" 	"MF_sp(ECDMC)" 	"MF_sp(Li+)" 	"MF_sp(PF6-)" 	"Volt(Electroly)" 	"Temperature" 	"qHeat_accum [J/m3]" 	"qHeat_step [W/m3]" 	"Joule_Lyte [W/m3]" 	"Joule_Solid [W/m3]" 	
ZONE T = "t = 0 [s]" I = 10 SOLUTIONTIME = 0.0000000000000E+00
0.0007874 	0 	0.92 	0.04 	0.04 	-0.07 	0 	
0 	0.0 	 0.0 	 0.0 	 
0.000841022 	0 	0.92 	0.04 	0.04 	-0.07 	298.15 	
0 	0.0 	 0.0 	 0.0 	 
0.000894644 	0 	0.92 	0.04 	0.04 	-0.07 	298.15 	
0 	0.0 	 0.0 	 0.0 	 
0.000948267 	0 	0.92 	0.04 	0.04 	-0.07 	298.15 	
0 	0.0 	 0.0 	 0.0 	 
0.00100189 	0 	0.92 	0.04 	0.04 	-0.07 	298.15 	
0 	0.0 	 0.0 	 0.0 	 
0.00105551 	0 	0.92 	0.04 	0.04 	-0.07 	298.15 	
0 	0.0 	 0.0 	 0.0 	 
0.00110913 	0 	0.92 	0.04 	0.04 	-0.07 	298.15 	
0 	0.0 	 0.0 	 0.0 	 
0.00116276 	0 	0.92 	0.04 	0.04 	-0.07 	298.15 	
0 	0.0 	 0.0 	 0.0 	 
0.00121638 	0 	0.92 	0.04 	0.04 	-0.07 	298.15 	
0 	0.0 	 0.0 	 0.0 	 
0.00127 	0 	0.92 	0.04 	0.04 	-0.07 	3.8 	
0 	0.0 	 0.0 	 0.0 	 
ZONE T = "t = 1e-08 [s]" I = 10 SOLUTIONTIME = 1.0000000000000E-08
0.0007874 	2.08657e-08 	0.92 	0.04 	0.04 	0.0291715 	-2.25609e-08 	
2.76639e-10 	0.0276639 	0.0276639 	0 	
0.000841022 	2.08657e-08 	0.92 	0.04 	0.04 	0.0291715 	298.15 	
2.76639e-10 	0.0276639 	0.0276639 	0 	
0.000894644 	2.08657e-08 	0.92 	0.04 	0.04 	0.0291714 	298.15 	
2.76639e-10 	0.0276639 	0.0276639 	0 	
0.000948267 	2.08657e-08 	0.92 	0.04 	0.04 	0.0291714 	298.15 	
2.76639e-10 	0.0276639 	0.0276639 	0 	
0.00100189 	2.08657e-08 	0.92 	0.04 	0.04 	0.0291713 	298.15 	
2.76639e-10 	0.0276639 	0.0276639 	0 	
0.00105551 	2.08657e-08 	0.92 	0.04 	0.04 	0.0291713 	298.15 	
2.76639e-10 	0.0276639 	0.0276639 	0 	
0.00110913 	2.08657e-08 	0.92 	0.04 	0.04 	0.0291712 	298.15 	
2.76639e-10 	0.0276639 	0.0276639 	0 	
0.00116276 	2.08657e-08 	0.92 	0.04 	0.04 	0.0291712 	298.15 	
2.76639e-10 	0.0276639 	0.0276639 	0 	
0.00121638 	2.08657e-08 	0.92 	0.04 	0.04 	0.0291711 	298.15 	
2.76639e-10 	0.0276639 	0.0276639 	0 	
0.00127 	1.97079e-08 	0.92 	0.04 	0.04 	0.0291711 	3.80017 	
2.76639e-10 	0.0276639 	0.0276639 	0 	
ZONE T = "t = 2e-08 [s]" I = 10 SOLUTIONTIME = 2.0000000000000E-08
0.0007874 	2.08669e-08 	0.92 	0.04 	0.04 	0.029177 	-2.25506e-08 	
5.53338e-10 	0.0276698 	0.0276698 	0 	
0.000841022 	2.08669e-08 	0.92 	0.04 	0.04 	0.0291769 	298.15 	
5.53338e-10 	0.0276698 	0.0276698 	0 	
0.000894644 	2.08669e-08 	0.92 	0.04 	0.04 	0.0291769 	298.15 	
5.53338e-10 	0.0276698 	0.0276698 	0 	
0.000948267 	2.08669e-08 	0.92 	0.04 	0.04 	0.0291768 	298.15 	
5.53338e-10 	0.0276698 	0.0276698 	0 	
0.00100189 	2.08669e-08 	0.92 	0.04 	0.04 	0.0291768 	298.15 	
5.53338e-10 	0.0276698 	0.0276698 	0 	
0.00105551 	2.08669e-08 	0.92 	0.04 	0.04 	0.0291767 	298.15 	
5.53338e-10 	0.0276698 	0.0276698 	0 	
0.00110913 	2.08669e-08 	0.92 	0.04 	0.04 	0.0291767 	298.15 	
5.53338e-10 	0.0276698 	0.0276698 	0 	
0.00116276 	2.08669e-08 	0.92 	0.04 	0.04 	0.0291766 	298.15 	
5.53338e-10 	0.0276698 	0.0276698 	0 	
0.00121638 	2.08669e-08 	0.92 	0.04 	0.04 	0.0291766 	298.15 	
5.53338e-10 	0.0276698 	0.0276698 	0 	
0.00127 	1.9708e-08 	0.92 	0.04 	0.04 	0.0291765 	3.80017 	
5.53338e-10 	0.0276698 	0.0276698 	0 	
ZONE T = "t = 3e-08 [s]" I = 10 SOLUTIONTIME = 3.0000000000000E-08
0.0007874 	2.08711e-08 	0.92 	0.04 	0.04 	0.0291824 	-2.25403e-08 	
8.30091e-10 	0.0276754 	0.0276754 	0 	
0.000841022 	2.08711e-08 	0.92 	0.04 	0.04 	0.0291823 	298.15 	
8.30091e-10 	0.0276754 	0.0276754 	0 	
0.000894644 	2.08711e-08 	0.92 	0.04 	0.04 	0.0291823 	298.15 	
8.30091e-10 	0.0276754 	0.0276754 	0 	
0.000948267 	2.08711e-08 	0.92 	0.04 	0.04 	0.0291823 	298.15 	
8.30091e-10 	0.0276754 	0.0276754 	0 	
0.00100189 	2.08711e-08 	0.92 	0.04 	0.04 	0.0291822 	298.15 	
8.30091e-10 	0.0276754 	0.0276754 	0 	
0.00105551 	2.08711e-08 	0.92 	0.04 	0.04 	0.0291822 	298.15 	
8.30091e-10 	0.0276754 	0.0276754 	0 	
0.00110913 	2.08711e-08 	0.92 	0.04 	0.04 	0.0291821 	298.15 	
8.30091e-10 	0.0276754 	0.0276754 	0 	
0.00116276 	2.08711e-08 	0.92 	0.04 	0.04 	0.0291821 	298.15 	
8.30091e-10 	0.0276754 	0.0276754 	0 	
0.00121638 	2.08711e-08 	0.92 	0.04 	0.04 	0.029182 	298.15 	
8.30091e-10 	0.0276754 	0.0276754 	0 	
0.00127 	1.97141e-08 	0.92 	0.04 	0.04 	0.029182 	3.80017 	
8.30091e-10 	0.0276754 	0.0276754 	0 	
ZONE T = "t = 4e-08 [s]" I = 10 SOLUTIONTIME = 4.0000000000000E-08
0.0007874 	2.08696e-08 	0.92 	0.04 	0.04 	0.0291879 	-2.25299e-08 	
1.1069e-09 	0.027681 	0.027681 	0 	
0.000841022 	2.08696e-08 	0.92 	0.04 	0.04 	0.0291878 	298.15 	
1.1069e-09 	0.027681 	0.027681 	0 	
0.000894644 	2.08696e-08 	0.92 	0.04 	0.04 	0.0291878 	298.15 	
1.1069e-09 	0.027681 	0.027681 	0 	
0.000948267 	2.08696e-08 	0.92 	0.04 	0.04 	0.0291877 	298.15 	
1.1069e-09 	0.027681 	0.027681 	0 	
0.00100189 	2.08696e-08 	0.92 	0.04 	0.04 	0.0291877 	298.15 	
1.1069e-09 	0.027681 	0.027681 	0 	
0.00105551 	2.08696e-08 	0.92 	0.04 	0.04 	0.0291876 	298.15 	
1.1069e-09 	0.027681 	0.027681 	0 	
0.00110913 	2.08696e-08 	0.92 	0.04 	0.04 	0.0291876 	298.15 	
1.1069e-09 	0.027681 	0.027681 	0 	
0.00116276 	2.08696e-08 	0.92 	0.04 	0.04 	0.0291875 	298.15 	
1.1069e-09 	0.027681 	0.027681 	0 	
0.00121638 	2.08696e-08 	0.92 	0.04 	0.04 	0.0291875 	298.15 	
1.1069e-09 	0.027681 	0.027681 	0 	
0.00127 	1.97114e-08 	0.92 	0.04 	0.04 	0.0291874 	3.80017 	
1.1069e-09 	0.027681 	0.027681 	0 	
ZONE T = "t = 5.5e-08 [s]" I = 10 SOLUTIONTIME = 5.5000000000000E-08
0.0007874 	2.08742e-08 	0.92 	0.04 	0.04 	0.0291961 	-2.25146e-08 	
1.52224e-09 	0.0276893 	0.0276893 	0 	
0.000841022 	2.08742e-08 	0.92 	0.04 	0.04 	0.029196 	298.15 	
1.52224e-09 	0.0276893 	0.0276893 	0 	
0.000894644 	2.08742e-08 	0.92 	0.04 	0.04 	0.029196 	298.15 	
1.52224e-09 	0.0276893 	0.0276893 	0 	
0.000948267 	2.08742e-08 	0.92 	0.04 	0.04 	0.0291959 	298.15 	
1.52224e-09 	0.0276893 	0.0276893 	0 	
0.00100189 	2.08742e-08 	0.92 	0.04 	0.04 	0.0291959 	298.15 	
1.52224e-09 	0.0276893 	0.0276893 	0 	
0.00105551 	2.08742e-08 	0.92 	0.04 	0.04 	0.0291958 	298.15 	
1.52224e-09 	0.0276893 	0.0276893 	0 	
0.00110913 	2.08742e-08 	0.92 	0.04 	0.04 	0.0291958 	298.15 	
1.52224e-09 	0.0276893 	0.0276893 	0 	
0.00116276 	2.08742e-08 	0.92 	0.04 	0.04 	0.0291957 	298.15 	
1.52224e-09 	0.0276893 	0.0276893 	0 	
0.00121638 	2.08742e-08 	0.92 	0.04 	0.04 	0.0291957 	298.15 	
1.52224e-09 	0.0276893 	0.0276893 	0 	
0.00127 	1.97155e-08 	0.92 	0.04 	0.04 	0.0291956 	3.80017 	
1.52224e-09 	0.0276893 	0.0276893 	0 	
ZONE T = "t = 7.75e-08 [s]" I = 10 SOLUTIONTIME = 7.7500000000000E-08
0.0007874 	2.08786e-08 	0.92 	0.04 	0.04 	0.0292084 	-2.24918e-08 	
2.14553e-09 	0.0277019 	0.0277019 	0 	
0.000841022 	2.08786e-08 	0.92 	0.04 	0.04 	0.0292083 	298.15 	
2.14553e-09 	0.0277019 	0.0277019 	0 	
0.000894644 	2.08786e-08 	0.92 	0.04 	0.04 	0.0292083 	298.15 	
2.14553e-09 	0.0277019 	0.0277019 	0 	
0.000948267 	2.08786e-08 	0.92 	0.04 	0.04 	0.0292082 	298.15 	
2.14553e-09 	0.0277019 	0.0277019 	0 	
0.00100189 	2.08786e-08 	0.92 	0.04 	0.04 	0.0292082 	298.15 	
2.14553e-09 	0.0277019 	0.0277019 	0 	
0.00105551 	2.08786e-08 	0.92 	0.04 	0.04 	0.0292081 	298.15 	
2.14553e-09 	0.0277019 	0.0277019 	0 	
0.00110913 	2.08786e-08 	0.92 	0.04 	0.04 	0.0292081 	298.15 	
2.14553e-09 	0.0277019 	0.0277019 	0 	
0.00116276 	2.08786e-08 	0.92 	0.04 	0.04 	0.029208 	298.15 	
2.14553e-09 	0.0277019 	0.0277019 	0 	
0.00121638 	2.08786e-08 	0.92 	0.04 	0.04 	0.029208 	298.15 	
2.14553e-09 	0.0277019 	0.0277019 	0 	
0.00127 	1.972e-08 	0.92 	0.04 	0.04 	0.0292079 	3.80017 	
2.14553e-09 	0.0277019 	0.0277019 	0 	
ZONE T = "t = 1.1125e-07 [s]" I = 10 SOLUTIONTIME = 1.1125000000000E-07
0.0007874 	2.08866e-08 	0.92 	0.04 	0.04 	0.0292268 	-2.24583e-08 	
3.08111e-09 	0.0277208 	0.0277208 	0 	
0.000841022 	2.08866e-08 	0.92 	0.04 	0.04 	0.0292267 	298.15 	
3.08111e-09 	0.0277208 	0.0277208 	0 	
0.000894644 	2.08866e-08 	0.92 	0.04 	0.04 	0.0292267 	298.15 	
3.08111e-09 	0.0277208 	0.0277208 	0 	
0.000948267 	2.08866e-08 	0.92 	0.04 	0.04 	0.0292266 	298.15 	
3.08111e-09 	0.0277208 	0.0277208 	0 	
0.00100189 	2.08866e-08 	0.92 	0.04 	0.04 	0.0292266 	298.15 	
3.08111e-09 	0.0277208 	0.0277208 	0 	
0.00105551 	2.08866e-08 	0.92 	0.04 	0.04 	0.0292265 	298.15 	
3.08111e-09 	0.0277208 	0.0277208 	0 	
0.00110913 	2.08866e-08 	0.92 	0.04 	0.04 	0.0292265 	298.15 	
3.08111e-09 	0.0277208 	0.0277208 	0 	
0.00116276 	2.08866e-08 	0.92 	0.04 	0.04 	0.0292264 	298.15 	
3.08111e-09 	0.0277208 	0.0277208 	0 	
0.00121638 	2.08866e-08 	0.92 	0.04 	0.04 	0.0292264 	298.15 	
3.08111e-09 	0.0277208 	0.0277208 	0 	
0.00127 	1.97274e-08 	0.92 	0.04 	0.04 	0.0292263 	3.80017 	
3.08111e-09 	0.0277208 	0.0277208 	0 	
ZONE T = "t = 1.61875e-07 [s]" I = 10 SOLUTIONTIME = 1.6187500000000E-07
0.0007874 	2.08965e-08 	0.92 	0.04 	0.04 	0.0292543 	-2.24096e-08 	
4.4859e-09 	0.027749 	0.027749 	0 	
0.000841022 	2.08965e-08 	0.92 	0.04 	0.04 	0.0292543 	298.15 	
4.4859e-09 	0.027749 	0.027749 	0 	
0.000894644 	2.08965e-08 	0.92 	0.04 	0.04 	0.0292542 	298.15 	
4.4859e-09 	0.027749 	0.027749 	0 	
0.000948267 	2.08965e-08 	0.92 	0.04 	0.04 	0.0292542 	298.15 	
4.4859e-09 	0.027749 	0.027749 	0 	
0.00100189 	2.08965e-08 	0.92 	0.04 	0.04 	0.0292541 	298.15 	
4.4859e-09 	0.027749 	0.027749 	0 	
0.00105551 	2.08965e-08 	0.92 	0.04 	0.04 	0.0292541 	298.15 	
4.4859e-09 	0.027749 	0.027749 	0 	
0.00110913 	2.08965e-08 	0.92 	0.04 	0.04 	0.029254 	298.15 	
4.4859e-09 	0.027749 	0.027749 	0 	
0.00116276 	2.08965e-08 	0.92 	0.04 	0.04 	0.029254 	298.15 	
4.4859e-09 	0.027749 	0.027749 	0 	
0.00121638 	2.08965e-08 	0.92 	0.04 	0.04 	0.0292539 	298.15 	
4.4859e-09 	0.027749 	0.027749 	0 	
0.00127 	1.9737e-08 	0.92 	0.04 	0.04 	0.0292539 	3.80017 	
4.4859e-09 	0.027749 	0.027749 	0 	
ZONE T = "t = 2.37813e-07 [s]" I = 10 SOLUTIONTIME = 2.3781250000000E-07
0.0007874 	2.09126e-08 	0.92 	0.04 	0.04 	0.0292952 	-2.23396e-08 	
6.59628e-09 	0.027791 	0.027791 	0 	
0.000841022 	2.09127e-08 	0.92 	0.04 	0.04 	0.0292952 	298.15 	
6.59628e-09 	0.027791 	0.027791 	0 	
0.000894644 	2.09127e-08 	0.92 	0.04 	0.04 	0.0292951 	298.15 	
6.59628e-09 	0.027791 	0.027791 	0 	
0.000948267 	2.09127e-08 	0.92 	0.04 	0.04 	0.0292951 	298.15 	
6.59628e-09 	0.027791 	0.027791 	0 	
0.00100189 	2.09127e-08 	0.92 	0.04 	0.04 	0.029295 	298.15 	
6.59628e-09 	0.027791 	0.027791 	0 	
0.00105551 	2.09127e-08 	0.92 	0.04 	0.04 	0.029295 	298.15 	
6.59628e-09 	0.027791 	0.027791 	0 	
0.00110913 	2.09127e-08 	0.92 	0.04 	0.04 	0.0292949 	298.15 	
6.59628e-09 	0.027791 	0.027791 	0 	
0.00116276 	2.09127e-08 	0.92 	0.04 	0.04 	0.0292949 	298.15 	
6.59628e-09 	0.027791 	0.027791 	0 	
0.00121638 	2.09126e-08 	0.92 	0.04 	0.04 	0.0292948 	298.15 	
6.59628e-09 	0.027791 	0.027791 	0 	
0.00127 	1.97519e-08 	0.92 	0.04 	0.04 	0.0292948 	3.80018 	
6.59628e-09 	0.027791 	0.027791 	0 	
ZONE T = "t = 3.51719e-07 [s]" I = 10 SOLUTIONTIME = 3.5171875000000E-07
0.0007874 	2.09362e-08 	0.92 	0.04 	0.04 	0.0293556 	-2.22409e-08 	
9.76893e-09 	0.0278531 	0.0278531 	0 	
0.000841022 	2.09361e-08 	0.92 	0.04 	0.04 	0.0293556 	298.15 	
9.76893e-09 	0.0278531 	0.0278531 	0 	
0.000894644 	2.09361e-08 	0.92 	0.04 	0.04 	0.0293555 	298.15 	
9.76893e-09 	0.0278531 	0.0278531 	0 	
0.000948267 	2.09361e-08 	0.92 	0.04 	0.04 	0.0293555 	298.15 	
9.76893e-09 	0.0278531 	0.0278531 	0 	
0.00100189 	2.09361e-08 	0.92 	0.04 	0.04 	0.0293554 	298.15 	
9.76893e-09 	0.0278531 	0.0278531 	0 	
0.00105551 	2.09361e-08 	0.92 	0.04 	0.04 	0.0293554 	298.15 	
9.76893e-09 	0.0278531 	0.0278531 	0 	
0.00110913 	2.09361e-08 	0.92 	0.04 	0.04 	0.0293553 	298.15 	
9.76893e-09 	0.0278531 	0.0278531 	0 	
0.00116276 	2.09361e-08 	0.92 	0.04 	0.04 	0.0293553 	298.15 	
9.76893e-09 	0.0278531 	0.0278531 	0 	
0.00121638 	2.09361e-08 	0.92 	0.04 	0.04 	0.0293552 	298.15 	
9.76893e-09 	0.0278531 	0.0278531 	0 	
0.00127 	1.97741e-08 	0.92 	0.04 	0.04 	0.0293552 	3.80018 	
9.76893e-09 	0.0278531 	0.0278531 	0 	
ZONE T = "t = 5.22578e-07 [s]" I = 10 SOLUTIONTIME = 5.2257812500000E-07
0.0007874 	2.09702e-08 	0.92 	0.04 	0.04 	0.0294441 	-2.21047e-08 	
1.45435e-08 	0.0279445 	0.0279445 	0 	
0.000841022 	2.09702e-08 	0.92 	0.04 	0.04 	0.029444 	298.15 	
1.45435e-08 	0.0279445 	0.0279445 	0 	
0.000894644 	2.09702e-08 	0.92 	0.04 	0.04 	0.029444 	298.15 	
1.45435e-08 	0.0279445 	0.0279445 	0 	
0.000948267 	2.09702e-08 	0.92 	0.04 	0.04 	0.0294439 	298.15 	
1.45435e-08 	0.0279445 	0.0279445 	0 	
0.00100189 	2.09702e-08 	0.92 	0.04 	0.04 	0.0294439 	298.15 	
1.45435e-08 	0.0279445 	0.0279445 	0 	
0.00105551 	2.09702e-08 	0.92 	0.04 	0.04 	0.0294438 	298.15 	
1.45435e-08 	0.0279445 	0.0279445 	0 	
0.00110913 	2.09702e-08 	0.92 	0.04 	0.04 	0.0294438 	298.15 	
1.45435e-08 	0.0279445 	0.0279445 	0 	
0.00116276 	2.09702e-08 	0.92 	0.04 	0.04 	0.0294437 	298.15 	
1.45435e-08 	0.0279445 	0.0279445 	0 	
0.00121638 	2.09702e-08 	0.92 	0.04 	0.04 	0.0294437 	298.15 	
1.45435e-08 	0.0279445 	0.0279445 	0 	
0.00127 	1.98062e-08 	0.92 	0.04 	0.04 	0.0294436 	3.80018 	
1.45435e-08 	0.0279445 	0.0279445 	0 	
ZONE T = "t = 7.78867e-07 [s]" I = 10 SOLUTIONTIME = 7.7886718750000E-07
0.0007874 	2.10201e-08 	0.92 	0.04 	0.04 	0.0295726 	-2.19214e-08 	
2.17395e-08 	0.0280778 	0.0280778 	0 	
0.000841022 	2.10201e-08 	0.92 	0.04 	0.04 	0.0295726 	298.15 	
2.17395e-08 	0.0280778 	0.0280778 	0 	
0.000894644 	2.10201e-08 	0.92 	0.04 	0.04 	0.0295725 	298.15 	
2.17395e-08 	0.0280778 	0.0280778 	0 	
0.000948267 	2.10201e-08 	0.92 	0.04 	0.04 	0.0295725 	298.15 	
2.17395e-08 	0.0280778 	0.0280778 	0 	
0.00100189 	2.10201e-08 	0.92 	0.04 	0.04 	0.0295724 	298.15 	
2.17395e-08 	0.0280778 	0.0280778 	0 	
0.00105551 	2.10201e-08 	0.92 	0.04 	0.04 	0.0295724 	298.15 	
2.17395e-08 	0.0280778 	0.0280778 	0 	
0.00110913 	2.10201e-08 	0.92 	0.04 	0.04 	0.0295723 	298.15 	
2.17395e-08 	0.0280778 	0.0280778 	0 	
0.00116276 	2.10201e-08 	0.92 	0.04 	0.04 	0.0295723 	298.15 	
2.17395e-08 	0.0280778 	0.0280778 	0 	
0.00121638 	2.10201e-08 	0.92 	0.04 	0.04 	0.0295722 	298.15 	
2.17395e-08 	0.0280778 	0.0280778 	0 	
0.00127 	1.98532e-08 	0.92 	0.04 	0.04 	0.0295722 	3.80018 	
2.17395e-08 	0.0280778 	0.0280778 	0 	
ZONE T = "t = 1.1633e-06 [s]" I = 10 SOLUTIONTIME = 1.1633007812500E-06
0.0007874 	2.10924e-08 	0.92 	0.04 	0.04 	0.029758 	-2.16826e-08 	
3.26079e-08 	0.0282711 	0.0282711 	0 	
0.000841022 	2.10924e-08 	0.92 	0.04 	0.04 	0.0297579 	298.15 	
3.26079e-08 	0.0282711 	0.0282711 	0 	
0.000894644 	2.10924e-08 	0.92 	0.04 	0.04 	0.0297579 	298.15 	
3.26079e-08 	0.0282711 	0.0282711 	0 	
0.000948267 	2.10924e-08 	0.92 	0.04 	0.04 	0.0297578 	298.15 	
3.26079e-08 	0.0282711 	0.0282711 	0 	
0.00100189 	2.10924e-08 	0.92 	0.04 	0.04 	0.0297578 	298.15 	
3.26079e-08 	0.0282711 	0.0282711 	0 	
0.00105551 	2.10924e-08 	0.92 	0.04 	0.04 	0.0297577 	298.15 	
3.26079e-08 	0.0282711 	0.0282711 	0 	
0.00110913 	2.10924e-08 	0.92 	0.04 	0.04 	0.0297577 	298.15 	
3.26079e-08 	0.0282711 	0.0282711 	0 	
0.00116276 	2.10924e-08 	0.92 	0.04 	0.04 	0.0297576 	298.15 	
3.26079e-08 	0.0282711 	0.0282711 	0 	
0.00121638 	2.10924e-08 	0.92 	0.04 	0.04 	0.0297576 	298.15 	
3.26079e-08 	0.0282711 	0.0282711 	0 	
0.00127 	1.99213e-08 	0.92 	0.04 	0.04 	0.0297575 	3.80018 	
3.26079e-08 	0.0282711 	0.0282711 	0 	
ZONE T = "t = 1.73995e-06 [s]" I = 10 SOLUTIONTIME = 1.7399511718750E-06
0.0007874 	2.11958e-08 	0.92 	0.04 	0.04 	0.0300221 	-2.13846e-08 	
4.90706e-08 	0.0285489 	0.0285489 	0 	
0.000841022 	2.11958e-08 	0.92 	0.04 	0.04 	0.030022 	298.15 	
4.90706e-08 	0.0285489 	0.0285489 	0 	
0.000894644 	2.11958e-08 	0.92 	0.04 	0.04 	0.030022 	298.15 	
4.90706e-08 	0.0285489 	0.0285489 	0 	
0.000948267 	2.11958e-08 	0.92 	0.04 	0.04 	0.0300219 	298.15 	
4.90706e-08 	0.0285489 	0.0285489 	0 	
0.00100189 	2.11958e-08 	0.92 	0.04 	0.04 	0.0300219 	298.15 	
4.90706e-08 	0.0285489 	0.0285489 	0 	
0.00105551 	2.11958e-08 	0.92 	0.04 	0.04 	0.0300218 	298.15 	
4.90706e-08 	0.0285489 	0.0285489 	0 	
0.00110913 	2.11958e-08 	0.92 	0.04 	0.04 	0.0300218 	298.15 	
4.90706e-08 	0.0285489 	0.0285489 	0 	
0.00116276 	2.11958e-08 	0.92 	0.04 	0.04 	0.0300217 	298.15 	
4.90706e-08 	0.0285489 	0.0285489 	0 	
0.00121638 	2.11957e-08 	0.92 	0.04 	0.04 	0.0300217 	298.15 	
4.90706e-08 	0.0285489 	0.0285489 	0 	
0.00127 	2.00186e-08 	0.92 	0.04 	0.04 	0.0300216 	3.80018 	
4.90706e-08 	0.0285489 	0.0285489 	0 	
ZONE T = "t = 2.60493e-06 [s]" I = 10 SOLUTIONTIME = 2.6049267578125E-06
0.0007874 	2.13415e-08 	0.92 	0.04 	0.04 	0.0303917 	-2.10351e-08 	
7.41053e-08 	0.0289427 	0.0289427 	0 	
0.000841022 	2.13415e-08 	0.92 	0.04 	0.04 	0.0303917 	298.15 	
7.41053e-08 	0.0289427 	0.0289427 	0 	
0.000894644 	2.13415e-08 	0.92 	0.04 	0.04 	0.0303916 	298.15 	
7.41053e-08 	0.0289427 	0.0289427 	0 	
0.000948267 	2.13415e-08 	0.92 	0.04 	0.04 	0.0303916 	298.15 	
7.41053e-08 	0.0289427 	0.0289427 	0 	
0.00100189 	2.13415e-08 	0.92 	0.04 	0.04 	0.0303915 	298.15 	
7.41053e-08 	0.0289427 	0.0289427 	0 	
0.00105551 	2.13415e-08 	0.92 	0.04 	0.04 	0.0303915 	298.15 	
7.41053e-08 	0.0289427 	0.0289427 	0 	
0.00110913 	2.13415e-08 	0.92 	0.04 	0.04 	0.0303914 	298.15 	
7.41053e-08 	0.0289427 	0.0289427 	0 	
0.00116276 	2.13415e-08 	0.92 	0.04 	0.04 	0.0303914 	298.15 	
7.41053e-08 	0.0289427 	0.0289427 	0 	
0.00121638 	2.13415e-08 	0.92 	0.04 	0.04 	0.0303913 	298.15 	
7.41053e-08 	0.0289427 	0.0289427 	0 	
0.00127 	2.01559e-08 	0.92 	0.04 	0.04 	0.0303913 	3.80018 	
7.41053e-08 	0.0289427 	0.0289427 	0 	
ZONE T = "t = 3.90239e-06 [s]" I = 10 SOLUTIONTIME = 3.9023901367188E-06
0.0007874 	2.15412e-08 	0.92 	0.04 	0.04 	0.0308938 	-2.06578e-08 	
1.12364e-07 	0.0294869 	0.0294869 	0 	
0.000841022 	2.15412e-08 	0.92 	0.04 	0.04 	0.0308938 	298.15 	
1.12364e-07 	0.0294869 	0.0294869 	0 	
0.000894644 	2.15412e-08 	0.92 	0.04 	0.04 	0.0308937 	298.15 	
1.12364e-07 	0.0294869 	0.0294869 	0 	
0.000948267 	2.15412e-08 	0.92 	0.04 	0.04 	0.0308937 	298.15 	
1.12364e-07 	0.0294869 	0.0294869 	0 	
0.00100189 	2.15412e-08 	0.92 	0.04 	0.04 	0.0308936 	298.15 	
1.12364e-07 	0.0294869 	0.0294869 	0 	
0.00105551 	2.15412e-08 	0.92 	0.04 	0.04 	0.0308936 	298.15 	
1.12364e-07 	0.0294869 	0.0294869 	0 	
0.00110913 	2.15412e-08 	0.92 	0.04 	0.04 	0.0308935 	298.15 	
1.12364e-07 	0.0294869 	0.0294869 	0 	
0.00116276 	2.15412e-08 	0.92 	0.04 	0.04 	0.0308935 	298.15 	
1.12364e-07 	0.0294869 	0.0294869 	0 	
0.00121638 	2.15412e-08 	0.92 	0.04 	0.04 	0.0308934 	298.15 	
1.12364e-07 	0.0294869 	0.0294869 	0 	
0.00127 	2.0344e-08 	0.92 	0.04 	0.04 	0.0308934 	3.80018 	
1.12364e-07 	0.0294869 	0.0294869 	0 	
ZONE T = "t = 5.33738e-06 [s]" I = 10 SOLUTIONTIME = 5.3373813095585E-06
0.0007874 	2.17413e-08 	0.92 	0.04 	0.04 	0.0313916 	-2.03582e-08 	
1.55467e-07 	0.0300374 	0.0300374 	0 	
0.000841022 	2.17413e-08 	0.92 	0.04 	0.04 	0.0313915 	298.15 	
1.55467e-07 	0.0300374 	0.0300374 	0 	
0.000894644 	2.17413e-08 	0.92 	0.04 	0.04 	0.0313915 	298.15 	
1.55467e-07 	0.0300374 	0.0300374 	0 	
0.000948267 	2.17413e-08 	0.92 	0.04 	0.04 	0.0313914 	298.15 	
1.55467e-07 	0.0300374 	0.0300374 	0 	
0.00100189 	2.17413e-08 	0.92 	0.04 	0.04 	0.0313914 	298.15 	
1.55467e-07 	0.0300374 	0.0300374 	0 	
0.00105551 	2.17413e-08 	0.92 	0.04 	0.04 	0.0313913 	298.15 	
1.55467e-07 	0.0300374 	0.0300374 	0 	
0.00110913 	2.17413e-08 	0.92 	0.04 	0.04 	0.0313913 	298.15 	
1.55467e-07 	0.0300374 	0.0300374 	0 	
0.00116276 	2.17413e-08 	0.92 	0.04 	0.04 	0.0313912 	298.15 	
1.55467e-07 	0.0300374 	0.0300374 	0 	
0.00121638 	2.17413e-08 	0.92 	0.04 	0.04 	0.0313912 	298.15 	
1.55467e-07 	0.0300374 	0.0300374 	0 	
0.00127 	2.05324e-08 	0.92 	0.04 	0.04 	0.0313911 	3.80018 	
1.55467e-07 	0.0300374 	0.0300374 	0 	
ZONE T = "t = 6.8547e-06 [s]" I = 10 SOLUTIONTIME = 6.8546984808181E-06
0.0007874 	2.19314e-08 	0.92 	0.04 	0.04 	0.0318595 	-2.01282e-08 	
2.01844e-07 	0.030565 	0.030565 	0 	
0.000841022 	2.19314e-08 	0.92 	0.04 	0.04 	0.0318595 	298.15 	
2.01844e-07 	0.030565 	0.030565 	0 	
0.000894644 	2.19314e-08 	0.92 	0.04 	0.04 	0.0318594 	298.15 	
2.01844e-07 	0.030565 	0.030565 	0 	
0.000948267 	2.19314e-08 	0.92 	0.04 	0.04 	0.0318594 	298.15 	
2.01844e-07 	0.030565 	0.030565 	0 	
0.00100189 	2.19314e-08 	0.92 	0.04 	0.04 	0.0318593 	298.15 	
2.01844e-07 	0.030565 	0.030565 	0 	
0.00105551 	2.19314e-08 	0.92 	0.04 	0.04 	0.0318593 	298.15 	
2.01844e-07 	0.030565 	0.030565 	0 	
0.00110913 	2.19314e-08 	0.92 	0.04 	0.04 	0.0318592 	298.15 	
2.01844e-07 	0.030565 	0.030565 	0 	
0.00116276 	2.19314e-08 	0.92 	0.04 	0.04 	0.0318592 	298.15 	
2.01844e-07 	0.030565 	0.030565 	0 	
0.00121638 	2.19314e-08 	0.92 	0.04 	0.04 	0.0318591 	298.15 	
2.01844e-07 	0.030565 	0.030565 	0 	
0.00127 	2.07115e-08 	0.92 	0.04 	0.04 	0.0318591 	3.80018 	
2.01844e-07 	0.030565 	0.030565 	0 	
ZONE T = "t = 8.45049e-06 [s]" I = 10 SOLUTIONTIME = 8.4504865974101E-06
0.0007874 	2.21098e-08 	0.92 	0.04 	0.04 	0.0322942 	-1.99492e-08 	
2.51416e-07 	0.0310643 	0.0310643 	0 	
0.000841022 	2.21098e-08 	0.92 	0.04 	0.04 	0.0322942 	298.15 	
2.51416e-07 	0.0310643 	0.0310643 	0 	
0.000894644 	2.21098e-08 	0.92 	0.04 	0.04 	0.0322941 	298.15 	
2.51416e-07 	0.0310643 	0.0310643 	0 	
0.000948267 	2.21098e-08 	0.92 	0.04 	0.04 	0.0322941 	298.15 	
2.51416e-07 	0.0310643 	0.0310643 	0 	
0.00100189 	2.21098e-08 	0.92 	0.04 	0.04 	0.032294 	298.15 	
2.51416e-07 	0.0310643 	0.0310643 	0 	
0.00105551 	2.21098e-08 	0.92 	0.04 	0.04 	0.032294 	298.15 	
2.51416e-07 	0.0310643 	0.0310643 	0 	
0.00110913 	2.21098e-08 	0.92 	0.04 	0.04 	0.0322939 	298.15 	
2.51416e-07 	0.0310643 	0.0310643 	0 	
0.00116276 	2.21098e-08 	0.92 	0.04 	0.04 	0.0322939 	298.15 	
2.51416e-07 	0.0310643 	0.0310643 	0 	
0.00121638 	2.21098e-08 	0.92 	0.04 	0.04 	0.0322938 	298.15 	
2.51416e-07 	0.0310643 	0.0310643 	0 	
0.00127 	2.08796e-08 	0.92 	0.04 	0.04 	0.0322938 	3.80019 	
2.51416e-07 	0.0310643 	0.0310643 	0 	
ZONE T = "t = 1.01429e-05 [s]" I = 10 SOLUTIONTIME = 1.0142882320974E-05
0.0007874 	2.22774e-08 	0.92 	0.04 	0.04 	0.0326985 	-1.98055e-08 	
3.04789e-07 	0.0315369 	0.0315369 	0 	
0.000841022 	2.22774e-08 	0.92 	0.04 	0.04 	0.0326985 	298.15 	
3.04789e-07 	0.0315369 	0.0315369 	0 	
0.000894644 	2.22774e-08 	0.92 	0.04 	0.04 	0.0326984 	298.15 	
3.04789e-07 	0.0315369 	0.0315369 	0 	
0.000948267 	2.22774e-08 	0.92 	0.04 	0.04 	0.0326984 	298.15 	
3.04789e-07 	0.0315369 	0.0315369 	0 	
0.00100189 	2.22774e-08 	0.92 	0.04 	0.04 	0.0326983 	298.15 	
3.04789e-07 	0.0315369 	0.0315369 	0 	
0.00105551 	2.22774e-08 	0.92 	0.04 	0.04 	0.0326983 	298.15 	
3.04789e-07 	0.0315369 	0.0315369 	0 	
0.00110913 	2.22774e-08 	0.92 	0.04 	0.04 	0.0326982 	298.15 	
3.04789e-07 	0.0315369 	0.0315369 	0 	
0.00116276 	2.22773e-08 	0.92 	0.04 	0.04 	0.0326982 	298.15 	
3.04789e-07 	0.0315369 	0.0315369 	0 	
0.00121638 	2.22773e-08 	0.92 	0.04 	0.04 	0.0326981 	298.15 	
3.04789e-07 	0.0315369 	0.0315369 	0 	
0.00127 	2.10374e-08 	0.92 	0.04 	0.04 	0.0326981 	3.80019 	
3.04789e-07 	0.0315369 	0.0315369 	0 	
ZONE T = "t = 1.19507e-05 [s]" I = 10 SOLUTIONTIME = 1.1950716122995E-05
0.0007874 	2.24345e-08 	0.92 	0.04 	0.04 	0.0330744 	-1.96863e-08 	
3.6261e-07 	0.0319835 	0.0319835 	0 	
0.000841022 	2.24345e-08 	0.92 	0.04 	0.04 	0.0330744 	298.15 	
3.6261e-07 	0.0319835 	0.0319835 	0 	
0.000894644 	2.24345e-08 	0.92 	0.04 	0.04 	0.0330743 	298.15 	
3.6261e-07 	0.0319835 	0.0319835 	0 	
0.000948267 	2.24345e-08 	0.92 	0.04 	0.04 	0.0330743 	298.15 	
3.6261e-07 	0.0319835 	0.0319835 	0 	
0.00100189 	2.24345e-08 	0.92 	0.04 	0.04 	0.0330742 	298.15 	
3.6261e-07 	0.0319835 	0.0319835 	0 	
0.00105551 	2.24345e-08 	0.92 	0.04 	0.04 	0.0330742 	298.15 	
3.6261e-07 	0.0319835 	0.0319835 	0 	
0.00110913 	2.24345e-08 	0.92 	0.04 	0.04 	0.0330741 	298.15 	
3.6261e-07 	0.0319835 	0.0319835 	0 	
0.00116276 	2.24345e-08 	0.92 	0.04 	0.04 	0.0330741 	298.15 	
3.6261e-07 	0.0319835 	0.0319835 	0 	
0.00121638 	2.24345e-08 	0.92 	0.04 	0.04 	0.033074 	298.15 	
3.6261e-07 	0.0319835 	0.0319835 	0 	
0.00127 	2.11856e-08 	0.92 	0.04 	0.04 	0.033074 	3.80019 	
3.6261e-07 	0.0319835 	0.0319835 	0 	
ZONE T = "t = 1.38932e-05 [s]" I = 10 SOLUTIONTIME = 1.3893228678136E-05
0.0007874 	2.25815e-08 	0.92 	0.04 	0.04 	0.0334229 	-1.95846e-08 	
4.25555e-07 	0.032404 	0.032404 	0 	
0.000841022 	2.25815e-08 	0.92 	0.04 	0.04 	0.0334228 	298.15 	
4.25555e-07 	0.032404 	0.032404 	0 	
0.000894644 	2.25815e-08 	0.92 	0.04 	0.04 	0.0334228 	298.15 	
4.25555e-07 	0.032404 	0.032404 	0 	
0.000948267 	2.25815e-08 	0.92 	0.04 	0.04 	0.0334227 	298.15 	
4.25555e-07 	0.032404 	0.032404 	0 	
0.00100189 	2.25815e-08 	0.92 	0.04 	0.04 	0.0334227 	298.15 	
4.25555e-07 	0.032404 	0.032404 	0 	
0.00105551 	2.25815e-08 	0.92 	0.04 	0.04 	0.0334226 	298.15 	
4.25555e-07 	0.032404 	0.032404 	0 	
0.00110913 	2.25815e-08 	0.92 	0.04 	0.04 	0.0334226 	298.15 	
4.25555e-07 	0.032404 	0.032404 	0 	
0.00116276 	2.25815e-08 	0.92 	0.04 	0.04 	0.0334225 	298.15 	
4.25555e-07 	0.032404 	0.032404 	0 	
0.00121638 	2.25815e-08 	0.92 	0.04 	0.04 	0.0334225 	298.15 	
4.25555e-07 	0.032404 	0.032404 	0 	
0.00127 	2.13241e-08 	0.92 	0.04 	0.04 	0.0334224 	3.80019 	
4.25555e-07 	0.032404 	0.032404 	0 	
ZONE T = "t = 1.59916e-05 [s]" I = 10 SOLUTIONTIME = 1.5991574217408E-05
0.0007874 	2.27183e-08 	0.92 	0.04 	0.04 	0.0337444 	-1.94957e-08 	
4.94376e-07 	0.0327977 	0.0327977 	0 	
0.000841022 	2.27183e-08 	0.92 	0.04 	0.04 	0.0337444 	298.15 	
4.94376e-07 	0.0327977 	0.0327977 	0 	
0.000894644 	2.27183e-08 	0.92 	0.04 	0.04 	0.0337443 	298.15 	
4.94376e-07 	0.0327977 	0.0327977 	0 	
0.000948267 	2.27183e-08 	0.92 	0.04 	0.04 	0.0337443 	298.15 	
4.94376e-07 	0.0327977 	0.0327977 	0 	
0.00100189 	2.27183e-08 	0.92 	0.04 	0.04 	0.0337442 	298.15 	
4.94376e-07 	0.0327977 	0.0327977 	0 	
0.00105551 	2.27183e-08 	0.92 	0.04 	0.04 	0.0337442 	298.15 	
4.94376e-07 	0.0327977 	0.0327977 	0 	
0.00110913 	2.27183e-08 	0.92 	0.04 	0.04 	0.0337441 	298.15 	
4.94376e-07 	0.0327977 	0.0327977 	0 	
0.00116276 	2.27183e-08 	0.92 	0.04 	0.04 	0.0337441 	298.15 	
4.94376e-07 	0.0327977 	0.0327977 	0 	
0.00121638 	2.27183e-08 	0.92 	0.04 	0.04 	0.033744 	298.15 	
4.94376e-07 	0.0327977 	0.0327977 	0 	
0.00127 	2.1453e-08 	0.92 	0.04 	0.04 	0.033744 	3.80019 	
4.94376e-07 	0.0327977 	0.0327977 	0 	
ZONE T = "t = 1.82703e-05 [s]" I = 10 SOLUTIONTIME = 1.8270285998366E-05
0.0007874 	2.28447e-08 	0.92 	0.04 	0.04 	0.0340394 	-1.94166e-08 	
5.69947e-07 	0.0331638 	0.0331638 	0 	
0.000841022 	2.28447e-08 	0.92 	0.04 	0.04 	0.0340394 	298.15 	
5.69947e-07 	0.0331638 	0.0331638 	0 	
0.000894644 	2.28447e-08 	0.92 	0.04 	0.04 	0.0340393 	298.15 	
5.69946e-07 	0.0331638 	0.0331638 	0 	
0.000948267 	2.28447e-08 	0.92 	0.04 	0.04 	0.0340393 	298.15 	
5.69946e-07 	0.0331638 	0.0331638 	0 	
0.00100189 	2.28447e-08 	0.92 	0.04 	0.04 	0.0340392 	298.15 	
5.69946e-07 	0.0331638 	0.0331638 	0 	
0.00105551 	2.28447e-08 	0.92 	0.04 	0.04 	0.0340392 	298.15 	
5.69946e-07 	0.0331638 	0.0331638 	0 	
0.00110913 	2.28447e-08 	0.92 	0.04 	0.04 	0.0340391 	298.15 	
5.69946e-07 	0.0331638 	0.0331638 	0 	
0.00116276 	2.28447e-08 	0.92 	0.04 	0.04 	0.034039 	298.15 	
5.69946e-07 	0.0331638 	0.0331638 	0 	
0.00121638 	2.28447e-08 	0.92 	0.04 	0.04 	0.034039 	298.15 	
5.69946e-07 	0.0331638 	0.0331638 	0 	
0.00127 	2.15722e-08 	0.92 	0.04 	0.04 	0.0340389 	3.80019 	
5.69946e-07 	0.0331638 	0.0331638 	0 	
ZONE T = "t = 2.07589e-05 [s]" I = 10 SOLUTIONTIME = 2.0758905823961E-05
0.0007874 	2.29607e-08 	0.92 	0.04 	0.04 	0.034308 	-1.93455e-08 	
6.53319e-07 	0.0335015 	0.0335015 	0 	
0.000841022 	2.29607e-08 	0.92 	0.04 	0.04 	0.034308 	298.15 	
6.53319e-07 	0.0335014 	0.0335014 	0 	
0.000894644 	2.29607e-08 	0.92 	0.04 	0.04 	0.0343079 	298.15 	
6.53319e-07 	0.0335014 	0.0335014 	0 	
0.000948267 	2.29607e-08 	0.92 	0.04 	0.04 	0.0343079 	298.15 	
6.53319e-07 	0.0335014 	0.0335014 	0 	
0.00100189 	2.29607e-08 	0.92 	0.04 	0.04 	0.0343078 	298.15 	
6.53319e-07 	0.0335014 	0.0335014 	0 	
0.00105551 	2.29607e-08 	0.92 	0.04 	0.04 	0.0343077 	298.15 	
6.53319e-07 	0.0335014 	0.0335014 	0 	
0.00110913 	2.29607e-08 	0.92 	0.04 	0.04 	0.0343077 	298.15 	
6.53319e-07 	0.0335014 	0.0335014 	0 	
0.00116276 	2.29607e-08 	0.92 	0.04 	0.04 	0.0343076 	298.15 	
6.53319e-07 	0.0335014 	0.0335014 	0 	
0.00121638 	2.29607e-08 	0.92 	0.04 	0.04 	0.0343076 	298.15 	
6.53319e-07 	0.0335014 	0.0335014 	0 	
0.00127 	2.16815e-08 	0.92 	0.04 	0.04 	0.0343075 	3.80019 	
6.53319e-07 	0.0335014 	0.0335014 	0 	
ZONE T = "t = 2.34941e-05 [s]" I = 10 SOLUTIONTIME = 2.3494084180190E-05
0.0007874 	2.30661e-08 	0.92 	0.04 	0.04 	0.0345505 	-1.92815e-08 	
7.45795e-07 	0.0338098 	0.0338098 	0 	
0.000841022 	2.30661e-08 	0.92 	0.04 	0.04 	0.0345504 	298.15 	
7.45795e-07 	0.0338098 	0.0338098 	0 	
0.000894644 	2.30661e-08 	0.92 	0.04 	0.04 	0.0345504 	298.15 	
7.45794e-07 	0.0338097 	0.0338097 	0 	
0.000948267 	2.30661e-08 	0.92 	0.04 	0.04 	0.0345503 	298.15 	
7.45794e-07 	0.0338097 	0.0338097 	0 	
0.00100189 	2.30661e-08 	0.92 	0.04 	0.04 	0.0345502 	298.15 	
7.45794e-07 	0.0338097 	0.0338097 	0 	
0.00105551 	2.30661e-08 	0.92 	0.04 	0.04 	0.0345502 	298.15 	
7.45794e-07 	0.0338097 	0.0338097 	0 	
0.00110913 	2.30661e-08 	0.92 	0.04 	0.04 	0.0345501 	298.15 	
7.45794e-07 	0.0338097 	0.0338097 	0 	
0.00116276 	2.30661e-08 	0.92 	0.04 	0.04 	0.0345501 	298.15 	
7.45794e-07 	0.0338097 	0.0338097 	0 	
0.00121638 	2.30661e-08 	0.92 	0.04 	0.04 	0.03455 	298.15 	
7.45794e-07 	0.0338097 	0.0338097 	0 	
0.00127 	2.17809e-08 	0.92 	0.04 	0.04 	0.03455 	3.80019 	
7.45794e-07 	0.0338097 	0.0338097 	0 	
ZONE T = "t = 2.65224e-05 [s]" I = 10 SOLUTIONTIME = 2.6522400403759E-05
0.0007874 	2.31609e-08 	0.92 	0.04 	0.04 	0.034767 	-1.92241e-08 	
8.49025e-07 	0.0340882 	0.0340882 	0 	
0.000841022 	2.31609e-08 	0.92 	0.04 	0.04 	0.034767 	298.15 	
8.49024e-07 	0.0340882 	0.0340882 	0 	
0.000894644 	2.31609e-08 	0.92 	0.04 	0.04 	0.0347669 	298.15 	
8.49024e-07 	0.0340881 	0.0340881 	0 	
0.000948267 	2.31609e-08 	0.92 	0.04 	0.04 	0.0347669 	298.15 	
8.49024e-07 	0.0340881 	0.0340881 	0 	
0.00100189 	2.31609e-08 	0.92 	0.04 	0.04 	0.0347668 	298.15 	
8.49024e-07 	0.0340881 	0.0340881 	0 	