TITLE = "Solution on Domain BulkDomain1D_2"
VARIABLES = "x [m]"  
"Vel_axial" 	"MF_sp(ECDMC)" 	"MF_sp(Li+)" 	"MF_sp(PF6-)" 	"Volt(Electroly)" 	"Volt(CathodeVo)" 	"Temperature" 	
"Potential Drop Electrode-Electrolyte [V]" 	"Surf_0 Equilibrium Potential Drop Electrode-Electrolyte [V]" 	"Overpotential_0 [V]" 	"Current Source [A/m^2]" 	"Li+ flux [kmol/m^2/s]" 	"Electrolyte Current [A/m^2]" 	"Electrode Current [A/m^2]" 	
"Capacity discharged [A-s]" 	"Depth of discharge [-]" 	"Capacity remaining [A-s]" 	"Initial capacity [A-s]" 	"Porosity []" 	"Surface Area [m2/m2] (area per area)" 	"Specific current (per particle area) [A/m^2]" 	"Control volume thickness [m]" 	
"Moles LiCoO2 [mol/m^2] (per electrode area)" 	"Moles CoO2 [mol/m^2] (per electrode area)" 	"qHeat_accum [J/m3]" 	"qHeat_step [W/m3]" 	"Joule_Lyte [W/m3]" 	"Joule_Solid [W/m3]" 	"electrodHeat [W/m3]" 	"OverpotHeat [W/m3]" 	"deltaSHeat [W/m3]" 	

ZONE T = "t = 0 [s]" I = 10 SOLUTIONTIME = 0.0000000000000E+00
0.00127 	0 	0.92 	0.04 	0.04 	-0.07 	3.8 	298.15 	
0 	0 	0 	0 	0 	0.119132 	0 	
0 	0 	0 	0 	0.35 	6.604 	-0.0360787 	3.38667e-05 	
0.000900955 	0.000600637 	0 	0.0 	 0.0 	 0.0 	 0.0 	 0.0 	 0.0 	 
0.00133773 	0 	0.92 	0.04 	0.04 	-0.07 	3.8 	298.15 	
0 	0 	0 	0 	0 	0 	-0 	
0 	0 	0 	0 	0.35 	13.208 	-0.0360787 	6.77333e-05 	
0.00180191 	0.00120127 	0 	0.0 	 0.0 	 0.0 	 0.0 	 0.0 	 0.0 	 
0.00140547 	0 	0.92 	0.04 	0.04 	-0.07 	3.8 	298.15 	
0 	0 	0 	0 	0 	0 	-0 	
0 	0 	0 	0 	0.35 	13.208 	-0.0360787 	6.77333e-05 	
0.00180191 	0.00120127 	0 	0.0 	 0.0 	 0.0 	 0.0 	 0.0 	 0.0 	 
0.0014732 	0 	0.92 	0.04 	0.04 	-0.07 	3.8 	298.15 	
0 	0 	0 	0 	0 	0 	-0 	
0 	0 	0 	0 	0.35 	13.208 	-0.0360787 	6.77333e-05 	
0.00180191 	0.00120127 	0 	0.0 	 0.0 	 0.0 	 0.0 	 0.0 	 0.0 	 
0.00154093 	0 	0.92 	0.04 	0.04 	-0.07 	3.8 	298.15 	
0 	0 	0 	0 	0 	0 	-0 	
0 	0 	0 	0 	0.35 	13.208 	-0.0360787 	6.77333e-05 	
0.00180191 	0.00120127 	0 	0.0 	 0.0 	 0.0 	 0.0 	 0.0 	 0.0 	 
0.00160867 	0 	0.92 	0.04 	0.04 	-0.07 	3.8 	298.15 	
0 	0 	0 	0 	0 	0 	-0 	
0 	0 	0 	0 	0.35 	13.208 	-0.0360787 	6.77333e-05 	
0.00180191 	0.00120127 	0 	0.0 	 0.0 	 0.0 	 0.0 	 0.0 	 0.0 	 
0.0016764 	0 	0.92 	0.04 	0.04 	-0.07 	3.8 	298.15 	
0 	0 	0 	0 	0 	0 	-0 	
0 	0 	0 	0 	0.35 	13.208 	-0.0360787 	6.77333e-05 	
0.00180191 	0.00120127 	0 	0.0 	 0.0 	 0.0 	 0.0 	 0.0 	 0.0 	 
0.00174413 	0 	0.92 	0.04 	0.04 	-0.07 	3.8 	298.15 	
0 	0 	0 	0 	0 	0 	-0 	
0 	0 	0 	0 	0.35 	13.208 	-0.0360787 	6.77333e-05 	
0.00180191 	0.00120127 	0 	0.0 	 0.0 	 0.0 	 0.0 	 0.0 	 0.0 	 
0.00181187 	0 	0.92 	0.04 	0.04 	-0.07 	3.8 	298.15 	
0 	0 	0 	0 	0 	0 	-0 	
0 	0 	0 	0 	0.35 	13.208 	-0.0360787 	6.77333e-05 	
0.00180191 	0.00120127 	0 	0.0 	 0.0 	 0.0 	 0.0 	 0.0 	 0.0 	 
0.0018796 	0 	0.92 	0.04 	0.04 	-0.07 	3.8 	298.15 	
0 	0 	0 	0 	0 	0 	0.119132 	
0 	0 	0 	0 	0.35 	6.604 	-0.0360787 	3.38667e-05 	
0.000900955 	0.000600637 	0 	0.0 	 0.0 	 0.0 	 0.0 	 0.0 	 0.0 	 
ZONE T = "t = 1e-08 [s]" I = 10 SOLUTIONTIME = 1.0000000000000E-08
0.00127 	1.97079e-08 	0.92 	0.04 	0.04 	0.029171 	3.80017 	298.15 	
3.87 	3.97141 	-0.101414 	-0.238264 	-0 	29.213 	0.833695 	
-0 	7244.08 	123.46 	141.616 	0.35 	6.604 	-0.252483 	3.38667e-05 	
0.000900955 	0.000600637 	0.055332 	5.5332e+06 	0.0867429 	0.0530523 	5.5332e+06 	5.5332e+06 	0 	
0.00133773 	1.73917e-08 	0.92 	0.04 	0.04 	0.0291708 	3.80017 	298.15 	
3.87 	3.97141 	-0.101414 	-0.476527 	-0 	26.7119 	3.33484 	
-0 	14488.2 	246.919 	283.231 	0.35 	13.208 	-0.252493 	6.77333e-05 	
0.00180191 	0.00120127 	-26.2469 	-2.62469e+09 	0.0771485 	0.265273 	-2.62469e+09 	-2.62469e+09 	0 	
0.00140547 	1.50753e-08 	0.92 	0.04 	0.04 	0.0291706 	3.80017 	298.15 	
3.87 	3.97141 	-0.101414 	-0.476527 	-0 	23.3768 	6.66995 	
-0 	14488.2 	246.919 	283.231 	0.35 	13.208 	-0.252523 	6.77333e-05 	
0.00180191 	0.00120127 	-26.7627 	-2.67627e+09 	0.0591566 	0.902004 	-2.67627e+09 	-2.67627e+09 	0 	
0.0014732 	1.27584e-08 	0.92 	0.04 	0.04 	0.0291705 	3.80016 	298.15 	
3.87 	3.97141 	-0.101414 	-0.476527 	-0 	20.0411 	10.0056 	
-0 	14488.2 	246.919 	283.231 	0.35 	13.208 	-0.252576 	6.77333e-05 	
0.00180191 	0.00120127 	-26.826 	-2.6826e+09 	0.0435584 	1.96346 	-2.6826e+09 	-2.6826e+09 	0 	
0.00154093 	1.04416e-08 	0.92 	0.04 	0.04 	0.0291704 	3.80014 	298.15 	
3.87 	3.97141 	-0.101414 	-0.476527 	-0 	16.7047 	13.3421 	
-0 	14488.2 	246.919 	283.231 	0.35 	13.208 	-0.252649 	6.77333e-05 	
0.00180191 	0.00120127 	-26.7337 	-2.67337e+09 	0.030354 	3.44998 	-2.67337e+09 	-2.67337e+09 	0 	
0.00160867 	8.12312e-09 	0.92 	0.04 	0.04 	0.0291702 	3.80012 	298.15 	
3.87 	3.97141 	-0.101414 	-0.476527 	-0 	13.3671 	16.6797 	
-0 	14488.2 	246.919 	283.231 	0.35 	13.208 	-0.252744 	6.77333e-05 	
0.00180191 	0.00120127 	-26.7742 	-2.67742e+09 	0.0195443 	5.36207 	-2.67742e+09 	-2.67742e+09 	0 	
0.0016764 	5.80361e-09 	0.92 	0.04 	0.04 	0.0291702 	3.8001 	298.15 	
3.87 	3.97141 	-0.101414 	-0.476527 	-0 	10.0281 	20.0187 	
-0 	14488.2 	246.919 	283.231 	0.35 	13.208 	-0.252861 	6.77333e-05 	
0.00180191 	0.00120127 	-26.8111 	-2.68111e+09 	0.0111312 	7.70038 	-2.68111e+09 	-2.68111e+09 	0 	
0.00174413 	3.48283e-09 	0.92 	0.04 	0.04 	0.0291701 	3.80007 	298.15 	
3.87 	3.97141 	-0.101414 	-0.476527 	-0 	6.68739 	23.3593 	
-0 	14488.2 	246.919 	283.231 	0.35 	13.208 	-0.252998 	6.77333e-05 	
0.00180191 	0.00120127 	-27.288 	-2.7288e+09 	0.00511728 	10.4657 	-2.7288e+09 	-2.7288e+09 	0 	
0.00181187 	1.1606e-09 	0.92 	0.04 	0.04 	0.0291701 	3.80004 	298.15 	
3.87 	3.97141 	-0.101414 	-0.476527 	-0 	3.34476 	26.702 	
-0 	14488.2 	246.919 	283.231 	0.35 	13.208 	-0.253157 	6.77333e-05 	
0.00180191 	0.00120127 	-48.6127 	-4.86127e+09 	0.00150596 	13.6589 	-4.86127e+09 	-4.86127e+09 	0 	
0.0018796 	-1.45283e-12 	0.92 	0.04 	0.04 	0.02917 	3.8 	298.149 	
3.87 	3.97141 	-0.101414 	-0.238264 	-0 	0.836462 	29.2103 	
-0 	7244.08 	123.46 	141.616 	0.35 	6.604 	-0.253321 	3.38667e-05 	
0.000900955 	0.000600637 	-1072.02 	-1.07202e+11 	0.000301426 	15.3626 	-1.07202e+11 	-1.07202e+11 	0 	
ZONE T = "t = 2e-08 [s]" I = 10 SOLUTIONTIME = 2.0000000000000E-08
0.00127 	1.9708e-08 	0.92 	0.04 	0.04 	0.0291764 	3.80017 	298.15 	
3.771 	3.97141 	-0.200411 	-1.6674 	1.47066e-07 	29.2161 	0.833787 	
4.17901e-11 	7244.08 	123.46 	141.616 	0.35 	6.604 	-0.25251 	3.38667e-05 	
0.000900955 	0.000600637 	0.110563 	5.52305e+06 	0.0867612 	0.0530641 	5.52305e+06 	5.52305e+06 	0 	
0.00133773 	1.73916e-08 	0.92 	0.04 	0.04 	0.0291762 	3.80017 	298.15 	
3.771 	3.97141 	-0.200413 	-3.33492 	1.29784e-07 	26.7147 	3.33521 	
8.35831e-11 	14488.2 	246.919 	283.231 	0.35 	13.208 	-0.252519 	6.77333e-05 	
0.00180191 	0.00120127 	-51.6811 	-2.54342e+09 	0.0771647 	0.265331 	-2.54342e+09 	-2.54342e+09 	0 	
0.00140547 	1.5076e-08 	0.92 	0.04 	0.04 	0.029176 	3.80017 	298.15 	
3.771 	3.97141 	-0.200419 	-3.33533 	1.125e-07 	23.3792 	6.67068 	
8.35934e-11 	14488.2 	246.919 	283.231 	0.35 	13.208 	-0.252549 	6.77333e-05 	
0.00180191 	0.00120127 	-53.211 	-2.64482e+09 	0.059169 	0.902202 	-2.64482e+09 	-2.64482e+09 	0 	
0.0014732 	1.27596e-08 	0.92 	0.04 	0.04 	0.0291759 	3.80016 	298.15 	
3.77098 	3.97141 	-0.20043 	-3.33602 	9.52121e-08 	20.0432 	10.0067 	
8.36106e-11 	14488.2 	246.919 	283.231 	0.35 	13.208 	-0.252602 	6.77333e-05 	
0.00180191 	0.00120127 	-53.3661 	-2.65401e+09 	0.0435674 	1.96389 	-2.65401e+09 	-2.65401e+09 	0 	
0.00154093 	1.04432e-08 	0.92 	0.04 	0.04 	0.0291758 	3.80014 	298.15 	
3.77097 	3.97141 	-0.200444 	-3.33699 	7.79195e-08 	16.7064 	13.3435 	
8.3635e-11 	14488.2 	246.919 	283.231 	0.35 	13.208 	-0.252675 	6.77333e-05 	
0.00180191 	0.00120127 	-53.3234 	-2.65897e+09 	0.0303602 	3.45073 	-2.65897e+09 	-2.65897e+09 	0 	
0.00160867 	8.12484e-09 	0.92 	0.04 	0.04 	0.0291756 	3.80012 	298.15 	
3.77095 	3.97141 	-0.200464 	-3.33825 	6.06203e-08 	13.3684 	16.6815 	
8.36664e-11 	14488.2 	246.919 	283.231 	0.35 	13.208 	-0.25277 	6.77333e-05 	
0.00180191 	0.00120127 	-53.373 	-2.65988e+09 	0.0195482 	5.36325 	-2.65988e+09 	-2.65988e+09 	0 	
0.0016764 	5.80544e-09 	0.92 	0.04 	0.04 	0.0291756 	3.8001 	298.15 	
3.77093 	3.97141 	-0.200487 	-3.33978 	4.33132e-08 	10.029 	20.0209 	
8.3705e-11 	14488.2 	246.919 	283.231 	0.35 	13.208 	-0.252887 	6.77333e-05 	
0.00180191 	0.00120127 	-53.52 	-2.67089e+09 	0.0111334 	7.70206 	-2.67089e+09 	-2.67089e+09 	0 	
0.00174413 	3.48477e-09 	0.92 	0.04 	0.04 	0.0291755 	3.80007 	298.15 	
3.7709 	3.97141 	-0.200515 	-3.3416 	2.59967e-08 	6.68801 	23.3619 	
8.37506e-11 	14488.2 	246.919 	283.231 	0.35 	13.208 	-0.253024 	6.77333e-05 	
0.00180191 	0.00120127 	-55.2636 	-2.79755e+09 	0.00511824 	10.468 	-2.79755e+09 	-2.79755e+09 	0 	
0.00181187 	1.16229e-09 	0.92 	0.04 	0.04 	0.0291755 	3.80004 	298.15 	
3.77087 	3.97141 	-0.200548 	-3.3437 	8.66932e-09 	3.34502 	26.7049 	
8.38032e-11 	14488.2 	246.919 	283.231 	0.35 	13.208 	-0.253183 	6.77333e-05 	
0.00180191 	0.00120127 	-116.845 	-6.8232e+09 	0.00150621 	13.6619 	-6.8232e+09 	-6.8232e+09 	0 	
0.0018796 	3.63208e-13 	0.92 	0.04 	0.04 	0.0291754 	3.8 	298.148 	
3.77083 	3.97141 	-0.200585 	-1.67294 	8.66932e-09 	0.836501 	29.2134 	
4.19288e-11 	7244.08 	123.46 	141.616 	0.35 	6.604 	-0.253332 	3.38667e-05 	
0.000900955 	0.000600637 	-2096.39 	-1.02437e+11 	0.000301454 	15.366 	-1.02437e+11 	-1.02437e+11 	0 	
ZONE T = "t = 3e-08 [s]" I = 10 SOLUTIONTIME = 3.0000000000000E-08
0.00127 	1.97141e-08 	0.92 	0.04 	0.04 	0.0291818 	3.80017 	298.15 	
3.771 	3.97141 	-0.200416 	-1.66757 	1.47081e-07 	29.219 	0.833875 	
8.35845e-11 	7244.08 	123.46 	141.616 	0.35 	6.604 	-0.252536 	3.38667e-05 	
0.000900955 	0.000600637 	0.165672 	5.51096e+06 	0.0867784 	0.0530752 	5.51096e+06 	5.51096e+06 	0 	
0.00133773 	1.73982e-08 	0.92 	0.04 	0.04 	0.0291816 	3.80017 	298.15 	
3.771 	3.97141 	-0.200418 	-3.33527 	1.29797e-07 	26.7174 	3.33556 	
1.67175e-10 	14488.2 	246.919 	283.231 	0.35 	13.208 	-0.252545 	6.77333e-05 	
0.00180191 	0.00120127 	-76.7182 	-2.50371e+09 	0.07718 	0.265387 	-2.50371e+09 	-2.50371e+09 	0 	
0.00140547 	1.50813e-08 	0.92 	0.04 	0.04 	0.0291815 	3.80017 	298.15 	
3.77099 	3.97141 	-0.200424 	-3.33567 	1.12511e-07 	23.3815 	6.67137 	
1.67195e-10 	14488.2 	246.919 	283.231 	0.35 	13.208 	-0.252576 	6.77333e-05 	
0.00180191 	0.00120127 	-79.7903 	-2.65794e+09 	0.0591807 	0.90239 	-2.65794e+09 	-2.65794e+09 	0 	
0.0014732 	1.27639e-08 	0.92 	0.04 	0.04 	0.0291813 	3.80016 	298.15 	
3.77098 	3.97141 	-0.200435 	-3.33636 	9.52219e-08 	20.0452 	10.0077 	
1.6723e-10 	14488.2 	246.919 	283.231 	0.35 	13.208 	-0.252628 	6.77333e-05 	
0.00180191 	0.00120127 	-79.9661 	-2.66001e+09 	0.043576 	1.96429 	-2.66001e+09 	-2.66001e+09 	0 	
0.00154093 	1.04458e-08 	0.92 	0.04 	0.04 	0.0291812 	3.80014 	298.15 	
3.77096 	3.97141 	-0.20045 	-3.33734 	7.79274e-08 	16.708 	13.3449 	
1.67279e-10 	14488.2 	246.919 	283.231 	0.35 	13.208 	-0.252701 	6.77333e-05 	
0.00180191 	0.00120127 	-79.9568 	-2.66334e+09 	0.0303661 	3.45145 	-2.66334e+09 	-2.66334e+09 	0 	
0.00160867 	8.12688e-09 	0.92 	0.04 	0.04 	0.0291811 	3.80012 	298.15 	
3.77095 	3.97141 	-0.200469 	-3.33859 	6.06264e-08 	13.3697 	16.6832 	
1.67342e-10 	14488.2 	246.919 	283.231 	0.35 	13.208 	-0.252796 	6.77333e-05 	
0.00180191 	0.00120127 	-80.0069 	-2.66338e+09 	0.019552 	5.36436 	-2.66338e+09 	-2.66338e+09 	0 	
0.0016764 	5.80723e-09 	0.92 	0.04 	0.04 	0.029181 	3.8001 	298.15 	
3.77092 	3.97141 	-0.200493 	-3.34013 	4.33174e-08 	10.03 	20.0229 	
1.67419e-10 	14488.2 	246.919 	283.231 	0.35 	13.208 	-0.252913 	6.77333e-05 	
0.00180191 	0.00120127 	-80.2599 	-2.67399e+09 	0.0111354 	7.70366 	-2.67399e+09 	-2.67399e+09 	0 	
0.00174413 	3.48632e-09 	0.92 	0.04 	0.04 	0.0291809 	3.80007 	298.15 	
3.77089 	3.97141 	-0.200521 	-3.34195 	2.5999e-08 	6.68859 	23.3643 	
1.6751e-10 	14488.2 	246.919 	283.231 	0.35 	13.208 	-0.253051 	6.77333e-05 	
0.00180191 	0.00120127 	-84.417 	-2.91534e+09 	0.00511913 	10.4701 	-2.91534e+09 	-2.91534e+09 	0 	
0.00181187 	1.16433e-09 	0.92 	0.04 	0.04 	0.0291809 	3.80004 	298.15 	
3.77086 	3.97141 	-0.200553 	-3.34404 	8.66972e-09 	3.34526 	26.7077 	
1.67615e-10 	14488.2 	246.919 	283.231 	0.35 	13.208 	-0.253208 	6.77333e-05 	
0.00180191 	0.00120127 	-203.292 	-8.64471e+09 	0.00150644 	13.6647 	-8.64471e+09 	-8.64471e+09 	0 	
0.0018796 	2.72406e-12 	0.92 	0.04 	0.04 	0.0291809 	3.8 	298.148 	
3.77082 	3.97142 	-0.200591 	-1.673 	8.66972e-09 	0.836536 	29.2164 	
8.38592e-11 	7244.08 	123.46 	141.616 	0.35 	6.604 	-0.253342 	3.38667e-05 	
0.000900955 	0.000600637 	-3076.06 	-9.79669e+10 	0.000301479 	15.3691 	-9.79669e+10 	-9.79669e+10 	0 	
ZONE T = "t = 4e-08 [s]" I = 10 SOLUTIONTIME = 4.0000000000000E-08
0.00127 	1.97113e-08 	0.92 	0.04 	0.04 	0.0291873 	3.80017 	298.15 	
3.77099 	3.97141 	-0.200421 	-1.66775 	1.47096e-07 	29.222 	0.833963 	
1.25383e-10 	7244.08 	123.46 	141.616 	0.35 	6.604 	-0.252563 	3.38667e-05 	
0.000900955 	0.000600637 	0.220693 	5.50207e+06 	0.0867957 	0.0530864 	5.50207e+06 	5.50207e+06 	0 	
0.00133773 	1.73945e-08 	0.92 	0.04 	0.04 	0.0291871 	3.80017 	298.15 	
3.77099 	3.97141 	-0.200423 	-3.33561 	1.2981e-07 	26.72 	3.3359 	
2.50775e-10 	14488.2 	246.919 	283.231 	0.35 	13.208 	-0.252571 	6.77333e-05 	
0.00180191 	0.00120127 	-101.243 	-2.45248e+09 	0.0771954 	0.265442 	-2.45248e+09 	-2.45248e+09 	0 	
0.00140547 	1.50773e-08 	0.92 	0.04 	0.04 	0.0291869 	3.80017 	298.15 	
3.77098 	3.97141 	-0.20043 	-3.33602 	1.12522e-07 	23.3839 	6.67206 	
2.50806e-10 	14488.2 	246.919 	283.231 	0.35 	13.208 	-0.252602 	6.77333e-05 	
0.00180191 	0.00120127 	-106.251 	-2.64607e+09 	0.0591924 	0.902577 	-2.64607e+09 	-2.64607e+09 	0 	
0.0014732 	1.27604e-08 	0.92 	0.04 	0.04 	0.0291867 	3.80016 	298.15 	
3.77097 	3.97141 	-0.20044 	-3.33671 	9.52312e-08 	20.0471 	10.0088 	
2.50858e-10 	14488.2 	246.919 	283.231 	0.35 	13.208 	-0.252654 	6.77333e-05 	
0.00180191 	0.00120127 	-106.575 	-2.66086e+09 	0.0435845 	1.9647 	-2.66086e+09 	-2.66086e+09 	0 	
0.00154093 	1.04421e-08 	0.92 	0.04 	0.04 	0.0291866 	3.80014 	298.15 	
3.77096 	3.97141 	-0.200455 	-3.33768 	7.79349e-08 	16.7096 	13.3463 	
2.50931e-10 	14488.2 	246.919 	283.231 	0.35 	13.208 	-0.252728 	6.77333e-05 	
0.00180191 	0.00120127 	-106.45 	-2.64929e+09 	0.0303719 	3.45217 	-2.64929e+09 	-2.64929e+09 	0 	
0.00160867 	8.12364e-09 	0.92 	0.04 	0.04 	0.0291865 	3.80012 	298.15 	
3.77094 	3.97141 	-0.200475 	-3.33894 	6.06321e-08 	13.3709 	16.685 	
2.51025e-10 	14488.2 	246.919 	283.231 	0.35 	13.208 	-0.252823 	6.77333e-05 	
0.00180191 	0.00120127 	-106.554 	-2.65468e+09 	0.0195557 	5.36547 	-2.65468e+09 	-2.65468e+09 	0 	
0.0016764 	5.80303e-09 	0.92 	0.04 	0.04 	0.0291864 	3.8001 	298.15 	
3.77092 	3.97141 	-0.200498 	-3.34047 	4.33213e-08 	10.0309 	20.025 	
2.51141e-10 	14488.2 	246.919 	283.231 	0.35 	13.208 	-0.252939 	6.77333e-05 	
0.00180191 	0.00120127 	-107.054 	-2.67945e+09 	0.0111375 	7.70526 	-2.67945e+09 	-2.67945e+09 	0 	
0.00174413 	3.48188e-09 	0.92 	0.04 	0.04 	0.0291863 	3.80007 	298.15 	
3.77089 	3.97141 	-0.200526 	-3.34229 	2.60011e-08 	6.68917 	23.3667 	
2.51278e-10 	14488.2 	246.919 	283.231 	0.35 	13.208 	-0.253077 	6.77333e-05 	
0.00180191 	0.00120127 	-114.997 	-3.05797e+09 	0.00512003 	10.4723 	-3.05797e+09 	-3.05797e+09 	0 	
0.00181187 	1.15967e-09 	0.92 	0.04 	0.04 	0.0291863 	3.80004 	298.15 	
3.77086 	3.97141 	-0.200559 	-3.34437 	8.67009e-09 	3.3455 	26.7104 	
2.51435e-10 	14488.2 	246.919 	283.231 	0.35 	13.208 	-0.253233 	6.77333e-05 	
0.00180191 	0.00120127 	-306.364 	-1.03072e+10 	0.00150667 	13.6675 	-1.03072e+10 	-1.03072e+10 	0 	
0.0018796 	-2.36085e-12 	0.92 	0.04 	0.04 	0.0291863 	3.8 	298.147 	
3.77082 	3.97142 	-0.200597 	-1.67307 	8.67009e-09 	0.836575 	29.2193 	
1.25791e-10 	7244.08 	123.46 	141.616 	0.35 	6.604 	-0.253354 	3.38667e-05 	
0.000900955 	0.000600637 	-4013.98 	-9.37925e+10 	0.000301506 	15.3723 	-9.37925e+10 	-9.37925e+10 	0 	
ZONE T = "t = 5.5e-08 [s]" I = 10 SOLUTIONTIME = 5.5000000000000E-08
0.00127 	1.97159e-08 	0.92 	0.04 	0.04 	0.0291954 	3.80017 	298.15 	
3.77099 	3.97141 	-0.200427 	-1.66793 	1.47111e-07 	29.2263 	0.834095 	
1.67187e-10 	7244.08 	123.46 	141.616 	0.35 	6.604 	-0.252603 	3.38667e-05 	
0.000900955 	0.000600637 	0.303011 	5.48787e+06 	0.0868217 	0.0531032 	5.48787e+06 	5.48787e+06 	0 	
0.00133773 	1.7399e-08 	0.92 	0.04 	0.04 	0.0291952 	3.80017 	298.15 	
3.77099 	3.97141 	-0.200429 	-3.33596 	1.29823e-07 	26.724 	3.33643 	
3.34384e-10 	14488.2 	246.919 	283.231 	0.35 	13.208 	-0.25261 	6.77333e-05 	
0.00180191 	0.00120127 	-136.858 	-2.37431e+09 	0.0772184 	0.265525 	-2.37431e+09 	-2.37431e+09 	0 	
0.00140547 	1.50814e-08 	0.92 	0.04 	0.04 	0.029195 	3.80017 	298.15 	
3.77098 	3.97141 	-0.200435 	-3.33636 	1.12534e-07 	23.3873 	6.67311 	
3.34425e-10 	14488.2 	246.919 	283.231 	0.35 	13.208 	-0.252641 	6.77333e-05 	
0.00180191 	0.00120127 	-145.707 	-2.63038e+09 	0.0592099 	0.902859 	-2.63038e+09 	-2.63038e+09 	0 	
0.0014732 	1.27635e-08 	0.92 	0.04 	0.04 	0.0291949 	3.80016 	298.15 	
3.77097 	3.97141 	-0.200446 	-3.33705 	9.52405e-08 	20.0501 	10.0103 	
3.34494e-10 	14488.2 	246.919 	283.231 	0.35 	13.208 	-0.252693 	6.77333e-05 	
0.00180191 	0.00120127 	-146.411 	-2.65574e+09 	0.0435973 	1.96531 	-2.65574e+09 	-2.65574e+09 	0 	
0.00154093 	1.04449e-08 	0.92 	0.04 	0.04 	0.0291947 	3.80014 	298.15 	
3.77095 	3.97141 	-0.200461 	-3.33803 	7.79424e-08 	16.712 	13.3484 	
3.34592e-10 	14488.2 	246.919 	283.231 	0.35 	13.208 	-0.252767 	6.77333e-05 	
0.00180191 	0.00120127 	-146.324 	-2.65826e+09 	0.0303808 	3.45324 	-2.65826e+09 	-2.65826e+09 	0 	
0.00160867 	8.12552e-09 	0.92 	0.04 	0.04 	0.0291946 	3.80012 	298.15 	
3.77093 	3.97141 	-0.20048 	-3.33928 	6.06378e-08 	13.3729 	16.6876 	
3.34718e-10 	14488.2 	246.919 	283.231 	0.35 	13.208 	-0.252862 	6.77333e-05 	
0.00180191 	0.00120127 	-146.495 	-2.66277e+09 	0.0195613 	5.36715 	-2.66277e+09 	-2.66277e+09 	0 	
0.0016764 	5.80551e-09 	0.92 	0.04 	0.04 	0.0291945 	3.8001 	298.15 	
3.77091 	3.97141 	-0.200504 	-3.34082 	4.33252e-08 	10.0323 	20.0281 	
3.34872e-10 	14488.2 	246.919 	283.231 	0.35 	13.208 	-0.252978 	6.77333e-05 	
0.00180191 	0.00120127 	-147.466 	-2.6941e+09 	0.0111406 	7.70766 	-2.6941e+09 	-2.6941e+09 	0 	
0.00174413 	3.48425e-09 	0.92 	0.04 	0.04 	0.0291945 	3.80007 	298.15 	
3.77088 	3.97141 	-0.200532 	-3.34264 	2.60032e-08 	6.69004 	23.3704 	
3.35054e-10 	14488.2 	246.919 	283.231 	0.35 	13.208 	-0.253116 	6.77333e-05 	
0.00180191 	0.00120127 	-165.015 	-3.33455e+09 	0.00512138 	10.4756 	-3.33455e+09 	-3.33455e+09 	0 	
0.00181187 	1.16108e-09 	0.92 	0.04 	0.04 	0.0291944 	3.80004 	298.15 	
3.77085 	3.97141 	-0.200564 	-3.3447 	8.67048e-09 	3.34587 	26.7146 	
3.35263e-10 	14488.2 	246.919 	283.231 	0.35 	13.208 	-0.25327 	6.77333e-05 	
0.00180191 	0.00120127 	-493.411 	-1.24698e+10 	0.00150703 	13.6718 	-1.24698e+10 	-1.24698e+10 	0 	
0.0018796 	-7.26415e-13 	0.92 	0.04 	0.04 	0.0291944 	3.8 	298.146 	
3.77081 	3.97142 	-0.200603 	-1.67315 	8.67048e-09 	0.836637 	29.2238 	
1.67726e-10 	7244.08 	123.46 	141.616 	0.35 	6.604 	-0.253373 	3.38667e-05 	
0.000900955 	0.000600637 	-5335.12 	-8.80763e+10 	0.00030155 	15.3771 	-8.80763e+10 	-8.80763e+10 	0 	
ZONE T = "t = 7.75e-08 [s]" I = 10 SOLUTIONTIME = 7.7500000000000E-08
0.00127 	1.97195e-08 	0.92 	0.04 	0.04 	0.0292076 	3.80017 	298.15 	
3.77098 	3.97141 	-0.200435 	-1.66819 	1.47133e-07 	29.2329 	0.834293 	
2.29901e-10 	7244.08 	123.46 	141.616 	0.35 	6.604 	-0.252663 	3.38667e-05 	
0.000900955 	0.000600637 	0.425997 	5.46607e+06 	0.0868607 	0.0531284 	5.46607e+06 	5.46607e+06 	0 	
0.00133773 	1.74021e-08 	0.92 	0.04 	0.04 	0.0292074 	3.80017 	298.15 	
3.77098 	3.97141 	-0.200437 	-3.33648 	1.29842e-07 	26.73 	3.33721 	
4.59818e-10 	14488.2 	246.919 	283.231 	0.35 	13.208 	-0.252669 	6.77333e-05 	
0.00180191 	0.00120127 	-188.192 	-2.28154e+09 	0.0772531 	0.26565 	-2.28154e+09 	-2.28154e+09 	0 	
0.00140547 	1.50847e-08 	0.92 	0.04 	0.04 	0.0292072 	3.80017 	298.15 	
3.77097 	3.97141 	-0.200443 	-3.33688 	1.1255e-07 	23.3925 	6.67467 	
4.59874e-10 	14488.2 	246.919 	283.231 	0.35 	13.208 	-0.2527 	6.77333e-05 	
0.00180191 	0.00120127 	-204.798 	-2.6263e+09 	0.0592363 	0.903283 	-2.6263e+09 	-2.6263e+09 	0 	
0.0014732 	1.27667e-08 	0.92 	0.04 	0.04 	0.0292071 	3.80016 	298.15 	
3.77096 	3.97141 	-0.200454 	-3.33757 	9.52544e-08 	20.0545 	10.0127 	
4.59969e-10 	14488.2 	246.919 	283.231 	0.35 	13.208 	-0.252752 	6.77333e-05 	
0.00180191 	0.00120127 	-206.144 	-2.65478e+09 	0.0436166 	1.96624 	-2.65478e+09 	-2.65478e+09 	0 	
0.00154093 	1.04481e-08 	0.92 	0.04 	0.04 	0.0292069 	3.80014 	298.15 	
3.77095 	3.97141 	-0.200469 	-3.33855 	7.79536e-08 	16.7157 	13.3515 	
4.60103e-10 	14488.2 	246.919 	283.231 	0.35 	13.208 	-0.252826 	6.77333e-05 	
0.00180191 	0.00120127 	-206.092 	-2.65636e+09 	0.0303941 	3.45486 	-2.65636e+09 	-2.65636e+09 	0 	
0.00160867 	8.12849e-09 	0.92 	0.04 	0.04 	0.0292068 	3.80012 	298.15 	
3.77093 	3.97141 	-0.200488 	-3.3398 	6.06463e-08 	13.3757 	16.6915 	
4.60276e-10 	14488.2 	246.919 	283.231 	0.35 	13.208 	-0.252921 	6.77333e-05 	
0.00180191 	0.00120127 	-206.534 	-2.66837e+09 	0.0195697 	5.36966 	-2.66837e+09 	-2.66837e+09 	0 	
0.0016764 	5.80771e-09 	0.92 	0.04 	0.04 	0.0292068 	3.8001 	298.15 	
3.7709 	3.97141 	-0.200512 	-3.34134 	4.33311e-08 	10.0344 	20.0328 	
4.60488e-10 	14488.2 	246.919 	283.231 	0.35 	13.208 	-0.253038 	6.77333e-05 	
0.00180191 	0.00120127 	-209.37 	-2.75131e+09 	0.0111453 	7.71127 	-2.75131e+09 	-2.75131e+09 	0 	
0.00174413 	3.4855e-09 	0.92 	0.04 	0.04 	0.0292067 	3.80007 	298.15 	
3.77087 	3.97141 	-0.20054 	-3.34316 	2.60064e-08 	6.69136 	23.3758 	
4.60739e-10 	14488.2 	246.919 	283.231 	0.35 	13.208 	-0.253175 	6.77333e-05 	
0.00180191 	0.00120127 	-251.416 	-3.84006e+09 	0.00512342 	10.4805 	-3.84006e+09 	-3.84006e+09 	0 	
0.00181187 	1.16207e-09 	0.92 	0.04 	0.04 	0.0292067 	3.80004 	298.149 	
3.77084 	3.97141 	-0.200572 	-3.34519 	8.67113e-09 	3.34643 	26.7208 	
4.61024e-10 	14488.2 	246.919 	283.231 	0.35 	13.208 	-0.253325 	6.77333e-05 	
0.00180191 	0.00120127 	-833.662 	-1.51223e+10 	0.00150756 	13.6781 	-1.51223e+10 	-1.51223e+10 	0 	
0.0018796 	-5.06832e-23 	0.92 	0.04 	0.04 	0.0292066 	3.8 	298.144 	
3.77081 	3.97142 	-0.200612 	-1.67327 	8.67113e-09 	0.836739 	29.2305 	
2.30631e-10 	7244.08 	123.46 	141.616 	0.35 	6.604 	-0.253404 	3.38667e-05 	
0.000900955 	0.000600637 	-7148.78 	-8.0607e+10 	0.000301623 	15.3842 	-8.0607e+10 	-8.0607e+10 	0 	
ZONE T = "t = 1.1125e-07 [s]" I = 10 SOLUTIONTIME = 1.1125000000000E-07
0.00127 	1.9727e-08 	0.92 	0.04 	0.04 	0.0292259 	3.80017 	298.15 	
3.77097 	3.97141 	-0.200447 	-1.66859 	1.47167e-07 	29.2428 	0.834589 	
3.23996e-10 	7244.08 	123.46 	141.616 	0.35 	6.604 	-0.252753 	3.38667e-05 	
0.000900955 	0.000600637 	0.609478 	5.43645e+06 	0.0869193 	0.0531662 	5.43645e+06 	5.43645e+06 	0 	
0.00133773 	1.74088e-08 	0.92 	0.04 	0.04 	0.0292257 	3.80017 	298.15 	
3.77097 	3.97141 	-0.200449 	-3.33726 	1.29871e-07 	26.739 	3.33839 	
6.48011e-10 	14488.2 	246.919 	283.231 	0.35 	13.208 	-0.252758 	6.77333e-05 	
0.00180191 	0.00120127 	-261.044 	-2.15855e+09 	0.077305 	0.265838 	-2.15855e+09 	-2.15855e+09 	0 	
0.00140547 	1.50903e-08 	0.92 	0.04 	0.04 	0.0292255 	3.80017 	298.15 	
3.77096 	3.97141 	-0.200455 	-3.33766 	1.12575e-07 	23.4004 	6.67702 	
6.4809e-10 	14488.2 	246.919 	283.231 	0.35 	13.208 	-0.252788 	6.77333e-05 	
0.00180191 	0.00120127 	-292.424 	-2.59632e+09 	0.0592759 	0.903918 	-2.59632e+09 	-2.59632e+09 	0 	
0.0014732 	1.27713e-08 	0.92 	0.04 	0.04 	0.0292254 	3.80016 	298.15 	
3.77095 	3.97141 	-0.200466 	-3.33835 	9.52754e-08 	20.0612 	10.0162 	
6.48224e-10 	14488.2 	246.919 	283.231 	0.35 	13.208 	-0.252841 	6.77333e-05 	
0.00180191 	0.00120127 	-295.759 	-2.65528e+09 	0.0436455 	1.96762 	-2.65528e+09 	-2.65528e+09 	0 	
0.00154093 	1.04517e-08 	0.92 	0.04 	0.04 	0.0292253 	3.80014 	298.15 	
3.77093 	3.97141 	-0.200481 	-3.33933 	7.79705e-08 	16.7212 	13.3562 	
6.48413e-10 	14488.2 	246.919 	283.231 	0.35 	13.208 	-0.252914 	6.77333e-05 	
0.00180191 	0.00120127 	-295.887 	-2.6606e+09 	0.030414 	3.45728 	-2.6606e+09 	-2.6606e+09 	0 	
0.00160867 	8.13103e-09 	0.92 	0.04 	0.04 	0.0292251 	3.80012 	298.15 	
3.77091 	3.97141 	-0.2005 	-3.34058 	6.06592e-08 	13.38 	16.6973 	
6.48657e-10 	14488.2 	246.919 	283.231 	0.35 	13.208 	-0.25301 	6.77333e-05 	
0.00180191 	0.00120127 	-296.927 	-2.67832e+09 	0.0195823 	5.37342 	-2.67832e+09 	-2.67832e+09 	0 	
0.0016764 	5.80964e-09 	0.92 	0.04 	0.04 	0.0292251 	3.8001 	298.15 	
3.77089 	3.97141 	-0.200524 	-3.34212 	4.33399e-08 	10.0375 	20.0398 	
6.48956e-10 	14488.2 	246.919 	283.231 	0.35 	13.208 	-0.253126 	6.77333e-05 	
0.00180191 	0.00120127 	-306.063 	-2.86497e+09 	0.0111523 	7.71667 	-2.86497e+09 	-2.86497e+09 	0 	
0.00174413 	3.48679e-09 	0.92 	0.04 	0.04 	0.029225 	3.80007 	298.15 	
3.77086 	3.97141 	-0.200552 	-3.34393 	2.60112e-08 	6.69334 	23.384 	
6.49309e-10 	14488.2 	246.919 	283.231 	0.35 	13.208 	-0.253262 	6.77333e-05 	
0.00180191 	0.00120127 	-409.529 	-4.68481e+09 	0.00512648 	10.4878 	-4.68481e+09 	-4.68481e+09 	0 	
0.00181187 	1.16263e-09 	0.92 	0.04 	0.04 	0.029225 	3.80004 	298.149 	
3.77083 	3.97141 	-0.200585 	-3.34592 	8.67218e-09 	3.3473 	26.7301 	
6.49706e-10 	14488.2 	246.919 	283.231 	0.35 	13.208 	-0.253405 	6.77333e-05 	
0.00180191 	0.00120127 	-1442.87 	-1.80506e+10 	0.00150838 	13.6877 	-1.80506e+10 	-1.80506e+10 	0 	
0.0018796 	2.69043e-13 	0.92 	0.04 	0.04 	0.0292249 	3.8 	298.142 	
3.77079 	3.97142 	-0.200626 	-1.67348 	8.67218e-09 	0.836908 	29.2405 	
3.25002e-10 	7244.08 	123.46 	141.616 	0.35 	6.604 	-0.253455 	3.38667e-05 	
0.000900955 	0.000600637 	-9557.43 	-7.13672e+10 	0.000301744 	15.3948 	-7.13672e+10 	-7.13672e+10 	0 	
ZONE T = "t = 1.61875e-07 [s]" I = 10 SOLUTIONTIME = 1.6187500000000E-07
0.00127 	1.97368e-08 	0.92 	0.04 	0.04 	0.0292533 	3.80017 	298.15 	
3.77095 	3.97141 	-0.200465 	-1.66918 	1.47217e-07 	29.2575 	0.835032 	
4.65188e-10 	7244.08 	123.46 	141.616 	0.35 	6.604 	-0.252887 	3.38667e-05 	
0.000900955 	0.000600637 	0.882584 	5.39469e+06 	0.0870069 	0.0532227 	5.39469e+06 	5.39469e+06 	0 	
0.00133773 	1.74172e-08 	0.92 	0.04 	0.04 	0.0292531 	3.80017 	298.15 	
3.77095 	3.97141 	-0.200467 	-3.33843 	1.29915e-07 	26.7524 	3.34015 	
9.30401e-10 	14488.2 	246.919 	283.231 	0.35 	13.208 	-0.252891 	6.77333e-05 	
0.00180191 	0.00120127 	-362.239 	-1.99893e+09 	0.0773827 	0.266118 	-1.99893e+09 	-1.99893e+09 	0 	
0.00140547 	1.50975e-08 	0.92 	0.04 	0.04 	0.0292529 	3.80017 	298.15 	
3.77094 	3.97141 	-0.200474 	-3.33883 	1.12613e-07 	23.412 	6.68053 	
9.30514e-10 	14488.2 	246.919 	283.231 	0.35 	13.208 	-0.252921 	6.77333e-05 	
0.00180191 	0.00120127 	-421.51 	-2.54984e+09 	0.0593351 	0.904869 	-2.54984e+09 	-2.54984e+09 	0 	
0.0014732 	1.27773e-08 	0.92 	0.04 	0.04 	0.0292527 	3.80016 	298.15 	
3.77093 	3.97141 	-0.200484 	-3.33952 	9.53068e-08 	20.0711 	10.0215 	
9.30706e-10 	14488.2 	246.919 	283.231 	0.35 	13.208 	-0.252973 	6.77333e-05 	
0.00180191 	0.00120127 	-429.621 	-2.64417e+09 	0.0436888 	1.96968 	-2.64417e+09 	-2.64417e+09 	0 	
0.00154093 	1.04564e-08 	0.92 	0.04 	0.04 	0.0292526 	3.80014 	298.15 	
3.77092 	3.97141 	-0.200499 	-3.34049 	7.79959e-08 	16.7294 	13.3632 	
9.30978e-10 	14488.2 	246.919 	283.231 	0.35 	13.208 	-0.253047 	6.77333e-05 	
0.00180191 	0.00120127 	-430.862 	-2.66617e+09 	0.0304439 	3.46091 	-2.66617e+09 	-2.66617e+09 	0 	
0.00160867 	8.13461e-09 	0.92 	0.04 	0.04 	0.0292525 	3.80012 	298.15 	
3.7709 	3.97141 	-0.200519 	-3.34175 	6.06785e-08 	13.3865 	16.7061 	
9.31328e-10 	14488.2 	246.919 	283.231 	0.35 	13.208 	-0.253142 	6.77333e-05 	
0.00180191 	0.00120127 	-434.622 	-2.71991e+09 	0.0196012 	5.37905 	-2.71991e+09 	-2.71991e+09 	0 	
0.0016764 	5.81173e-09 	0.92 	0.04 	0.04 	0.0292524 	3.8001 	298.15 	
3.77087 	3.97141 	-0.200542 	-3.34329 	4.33531e-08 	10.0422 	20.0503 	
9.31757e-10 	14488.2 	246.919 	283.231 	0.35 	13.208 	-0.253258 	6.77333e-05 	
0.00180191 	0.00120127 	-464.932 	-3.13815e+09 	0.0111628 	7.72476 	-3.13815e+09 	-3.13815e+09 	0 	
0.00174413 	3.48762e-09 	0.92 	0.04 	0.04 	0.0292523 	3.80007 	298.149 	
3.77084 	3.97141 	-0.20057 	-3.34509 	2.60184e-08 	6.69631 	23.3963 	
9.32262e-10 	14488.2 	246.919 	283.231 	0.35 	13.208 	-0.253392 	6.77333e-05 	
0.00180191 	0.00120127 	-713.328 	-6.00098e+09 	0.00513107 	10.4988 	-6.00098e+09 	-6.00098e+09 	0 	
0.00181187 	1.16238e-09 	0.92 	0.04 	0.04 	0.0292523 	3.80004 	298.148 	
3.77081 	3.97142 	-0.200603 	-3.34698 	8.67394e-09 	3.34864 	26.7439 	
9.32819e-10 	14488.2 	246.919 	283.231 	0.35 	13.208 	-0.253523 	6.77333e-05 	
0.00180191 	0.00120127 	-2496.94 	-2.08211e+10 	0.00150962 	13.7018 	-2.08211e+10 	-2.08211e+10 	0 	
0.0018796 	-2.86979e-13 	0.92 	0.04 	0.04 	0.0292523 	3.8 	298.14 	
3.77078 	3.97142 	-0.200645 	-1.67382 	8.67394e-09 	0.837189 	29.2554 	
4.66586e-10 	7244.08 	123.46 	141.616 	0.35 	6.604 	-0.25354 	3.38667e-05 	
0.000900955 	0.000600637 	-12633.9 	-6.077e+10 	0.000301945 	15.4107 	-6.077e+10 	-6.077e+10 	0 	
ZONE T = "t = 2.37813e-07 [s]" I = 10 SOLUTIONTIME = 2.3781250000000E-07
0.00127 	1.97514e-08 	0.92 	0.04 	0.04 	0.0292939 	3.80018 	298.15 	
3.77092 	3.97141 	-0.200493 	-1.67006 	1.47291e-07 	29.2795 	0.835691 	
6.77088e-10 	7244.08 	123.46 	141.616 	0.35 	6.604 	-0.253086 	3.38667e-05 	
0.000900955 	0.000600637 	1.28794 	5.33803e+06 	0.0871373 	0.0533067 	5.33803e+06 	5.33803e+06 	0 	
0.00133773 	1.74302e-08 	0.92 	0.04 	0.04 	0.0292937 	3.80017 	298.15 	
3.77092 	3.97141 	-0.200495 	-3.34018 	1.2998e-07 	26.7724 	3.34278 	
1.35421e-09 	14488.2 	246.919 	283.231 	0.35 	13.208 	-0.253088 	6.77333e-05 	
0.00180191 	0.00120127 	-499.678 	-1.80989e+09 	0.0774984 	0.266535 	-1.80989e+09 	-1.80989e+09 	0 	
0.00140547 	1.51086e-08 	0.92 	0.04 	0.04 	0.0292935 	3.80017 	298.15 	
3.77091 	3.97141 	-0.200501 	-3.34058 	1.12669e-07 	23.4294 	6.68575 	
1.35437e-09 	14488.2 	246.919 	283.231 	0.35 	13.208 	-0.253117 	6.77333e-05 	
0.00180191 	0.00120127 	-608.909 	-2.46781e+09 	0.0594233 	0.906284 	-2.46781e+09 	-2.46781e+09 	0 	
0.0014732 	1.27866e-08 	0.92 	0.04 	0.04 	0.0292934 	3.80016 	298.149 	