TITLE = "Solution on Domain BulkDomain1D_0"
VARIABLES = "x [m]"  
"Vel_axial" 	"MF_sp(ECDMC)" 	"MF_sp(Li+)" 	"MF_sp(PF6-)" 	"Volt(Electroly)" 	"Volt(AnodeVolt)" 	"Temperature" 	
"Potential Drop Electrode-Electrolyte [V]" 	"Surf_0 Equilibrium Potential Drop Electrode-Electrolyte [V]" 	"Overpotential_0 [V]" 	"Current Source [A/m^2]" 	"Li+ flux [kmol/m^2/s]" 	"Electrolyte Current [A/m^2]" 	"Electrode Current [A/m^2]" 	
"Capacity discharged [A-s]" 	"Depth of discharge [-]" 	"Capacity remaining [A-s]" 	"Initial capacity [A-s]" 	"Porosity []" 	"Surface Area [m2/m2] (area per area)" 	"Specific current (per particle area) [A/m^2]" 	"Control volume thickness [m]" 	
"Moles Li_C6-bulk [mol/m^2] (per electrode area)" 	"Moles V_C6-bulk [mol/m^2] (per electrode area)" 	"qHeat_accum [J/m3]" 	"qHeat_step [W/m3]" 	"Joule_Lyte [W/m3]" 	"Joule_Solid [W/m3]" 	"electrodHeat [W/m3]" 	"OverpotHeat [W/m3]" 	"deltaSHeat [W/m3]" 	

ZONE T = "t = 0 [s]" I = 10 SOLUTIONTIME = 0.0000000000000E+00
0 	0 	0.92 	0.04 	0.04 	-0.07 	0 	298.15 	
0 	0 	0 	0 	0 	0 	15.4651 	
0 	0 	0 	0 	0.35 	8.53017 	3.62598 	4.37444e-05 	
0.00379119 	0.000947796 	0 	0.0 	 0.0 	 0.0 	 0.0 	 0.0 	 0.0 	 
8.74889e-05 	0 	0.92 	0.04 	0.04 	-0.07 	0 	298.15 	
0 	0 	0 	0 	0 	0 	-0 	
0 	0 	0 	0 	0.35 	17.0603 	3.62598 	8.74889e-05 	
0.00758237 	0.00189559 	0 	0.0 	 0.0 	 0.0 	 0.0 	 0.0 	 0.0 	 
0.000174978 	0 	0.92 	0.04 	0.04 	-0.07 	0 	298.15 	
0 	0 	0 	0 	0 	0 	-0 	
0 	0 	0 	0 	0.35 	17.0603 	3.62598 	8.74889e-05 	
0.00758237 	0.00189559 	0 	0.0 	 0.0 	 0.0 	 0.0 	 0.0 	 0.0 	 
0.000262467 	0 	0.92 	0.04 	0.04 	-0.07 	0 	298.15 	
0 	0 	0 	0 	0 	0 	-0 	
0 	0 	0 	0 	0.35 	17.0603 	3.62598 	8.74889e-05 	
0.00758237 	0.00189559 	0 	0.0 	 0.0 	 0.0 	 0.0 	 0.0 	 0.0 	 
0.000349956 	0 	0.92 	0.04 	0.04 	-0.07 	0 	298.15 	
0 	0 	0 	0 	0 	0 	-0 	
0 	0 	0 	0 	0.35 	17.0603 	3.62598 	8.74889e-05 	
0.00758237 	0.00189559 	0 	0.0 	 0.0 	 0.0 	 0.0 	 0.0 	 0.0 	 
0.000437444 	0 	0.92 	0.04 	0.04 	-0.07 	0 	298.15 	
0 	0 	0 	0 	0 	0 	-0 	
0 	0 	0 	0 	0.35 	17.0603 	3.62598 	8.74889e-05 	
0.00758237 	0.00189559 	0 	0.0 	 0.0 	 0.0 	 0.0 	 0.0 	 0.0 	 
0.000524933 	0 	0.92 	0.04 	0.04 	-0.07 	0 	298.15 	
0 	0 	0 	0 	0 	0 	-0 	
0 	0 	0 	0 	0.35 	17.0603 	3.62598 	8.74889e-05 	
0.00758237 	0.00189559 	0 	0.0 	 0.0 	 0.0 	 0.0 	 0.0 	 0.0 	 
0.000612422 	0 	0.92 	0.04 	0.04 	-0.07 	0 	298.15 	
0 	0 	0 	0 	0 	0 	-0 	
0 	0 	0 	0 	0.35 	17.0603 	3.62598 	8.74889e-05 	
0.00758237 	0.00189559 	0 	0.0 	 0.0 	 0.0 	 0.0 	 0.0 	 0.0 	 
0.000699911 	0 	0.92 	0.04 	0.04 	-0.07 	0 	298.15 	
0 	0 	0 	0 	0 	0 	-0 	
0 	0 	0 	0 	0.35 	17.0603 	3.62598 	8.74889e-05 	
0.00758237 	0.00189559 	0 	0.0 	 0.0 	 0.0 	 0.0 	 0.0 	 0.0 	 
0.0007874 	0 	0.92 	0.04 	0.04 	-0.07 	0 	298.15 	
0 	0 	0 	0 	0 	15.4651 	0 	
0 	0 	0 	0 	0.35 	8.53017 	3.62598 	4.37444e-05 	
0.00379119 	0.000947796 	0 	0.0 	 0.0 	 0.0 	 0.0 	 0.0 	 0.0 	 
ZONE T = "t = 1e-08 [s]" I = 10 SOLUTIONTIME = 1.0000000000000E-08
0 	1.16996e-09 	0.92 	0.04 	0.04 	0.0291728 	0 	298.198 	
0.07 	-0.0409067 	0.110907 	30.9302 	-0 	0.842415 	29.2043 	
0 	45724.2 	848.03 	962.628 	0.35 	8.53017 	0.197516 	4.37444e-05 	
0.00379119 	0.000947796 	21645.6 	2.16456e+12 	0.000305758 	0.00153498 	2.16456e+12 	2.16456e+12 	0 	
8.74889e-05 	3.48715e-09 	0.92 	0.04 	0.04 	0.0291728 	-4.73499e-09 	298.151 	
0.07 	-0.0409067 	0.110907 	61.8605 	-0 	3.3533 	26.6935 	
0 	91448.4 	1696.06 	1925.26 	0.35 	17.0603 	0.195598 	8.74889e-05 	
0.00758237 	0.00189559 	282.984 	2.82984e+10 	0.00151092 	0.001365 	2.82984e+10 	2.82984e+10 	0 	
0.000174978 	5.80407e-09 	0.92 	0.04 	0.04 	0.0291727 	-8.91287e-09 	298.15 	
0.07 	-0.0409067 	0.110907 	61.8605 	-0 	6.69005 	23.3567 	
0 	91448.4 	1696.06 	1925.26 	0.35 	17.0603 	0.195574 	8.74889e-05 	
0.00758237 	0.00189559 	11.7792 	1.17792e+09 	0.0051202 	0.00104632 	1.17792e+09 	1.17792e+09 	0 	
0.000262467 	8.12099e-09 	0.92 	0.04 	0.04 	0.0291726 	-1.25337e-08 	298.15 	
0.07 	-0.0409067 	0.110907 	61.8605 	-0 	10.0266 	20.0202 	
0 	91448.4 	1696.06 	1925.26 	0.35 	17.0603 	0.195575 	8.74889e-05 	
0.00758237 	0.00189559 	8.3182 	8.3182e+08 	0.0111275 	0.000770141 	8.3182e+08 	8.3182e+08 	0 	
0.000349956 	1.04379e-08 	0.92 	0.04 	0.04 	0.0291725 	-1.55975e-08 	298.15 	
0.07 	-0.0409067 	0.110907 	61.8605 	-0 	13.3632 	16.6836 	
0 	91448.4 	1696.06 	1925.26 	0.35 	17.0603 	0.195577 	8.74889e-05 	
0.00758237 	0.00189559 	8.33803 	8.33803e+08 	0.0195328 	0.000536451 	8.33803e+08 	8.33803e+08 	0 	
0.000437444 	1.27549e-08 	0.92 	0.04 	0.04 	0.0291724 	-1.81043e-08 	298.15 	
0.07 	-0.0409067 	0.110907 	61.8605 	-0 	16.6998 	13.347 	
0 	91448.4 	1696.06 	1925.26 	0.35 	17.0603 	0.19558 	8.74889e-05 	
0.00758237 	0.00189559 	8.31765 	8.31765e+08 	0.0303364 	0.000345246 	8.31765e+08 	8.31765e+08 	0 	
0.000524933 	1.50723e-08 	0.92 	0.04 	0.04 	0.0291722 	-2.00541e-08 	298.15 	
0.07 	-0.0409067 	0.110907 	61.8605 	-0 	20.0364 	10.0103 	
0 	91448.4 	1696.06 	1925.26 	0.35 	17.0603 	0.195582 	8.74889e-05 	
0.00758237 	0.00189559 	8.34027 	8.34027e+08 	0.0435382 	0.000196528 	8.34027e+08 	8.34027e+08 	0 	
0.000612422 	1.73893e-08 	0.92 	0.04 	0.04 	0.029172 	-2.14468e-08 	298.15 	
0.07 	-0.0409067 	0.110907 	61.8605 	-0 	23.3731 	6.67361 	
0 	91448.4 	1696.06 	1925.26 	0.35 	17.0603 	0.195586 	8.74889e-05 	
0.00758237 	0.00189559 	8.35613 	8.35613e+08 	0.0591385 	9.02983e-05 	8.35613e+08 	8.35613e+08 	0 	
0.000699911 	1.97064e-08 	0.92 	0.04 	0.04 	0.0291718 	-2.22824e-08 	298.15 	
0.07 	-0.0409067 	0.110907 	61.8605 	-0 	26.7099 	3.33684 	
0 	91448.4 	1696.06 	1925.26 	0.35 	17.0603 	0.19559 	8.74889e-05 	
0.00758237 	0.00189559 	8.20856 	8.20856e+08 	0.0771375 	2.65588e-05 	8.20856e+08 	8.20856e+08 	0 	
0.0007874 	2.08657e-08 	0.92 	0.04 	0.04 	0.0291715 	-2.25609e-08 	298.15 	
0.07 	-0.0409067 	0.110907 	30.9302 	-0 	29.2125 	0.834218 	
0 	45724.2 	848.03 	962.628 	0.35 	8.53017 	0.195594 	4.37444e-05 	
0.00379119 	0.000947796 	-0.0199626 	-1.99626e+06 	0.0867366 	5.31189e-06 	-1.99626e+06 	-1.99626e+06 	0 	
ZONE T = "t = 2e-08 [s]" I = 10 SOLUTIONTIME = 2.0000000000000E-08
0 	1.18068e-09 	0.92 	0.04 	0.04 	0.0291782 	0 	298.245 	
-0.0291728 	-0.0409402 	0.0117675 	1.68484 	8.73102e-09 	0.85014 	29.1998 	
4.22272e-11 	45724.2 	848.03 	962.628 	0.35 	8.53017 	0.199326 	4.37444e-05 	
0.00379119 	0.000947796 	64307.7 	2.10165e+12 	0.000922931 	0.0046036 	2.10165e+12 	2.10165e+12 	0 	
8.74889e-05 	3.49738e-09 	0.92 	0.04 	0.04 	0.0291782 	-4.73294e-09 	298.152 	
-0.0291728 	-0.0409072 	0.0117344 	3.33697 	2.60235e-08 	3.36839 	26.6816 	
8.36344e-11 	91448.4 	1696.06 	1925.26 	0.35 	17.0603 	0.195554 	8.74889e-05 	
0.00758237 	0.00189559 	1108.97 	5.43e+10 	0.00454358 	0.00409379 	5.43e+10 	5.43e+10 	0 	
0.000174978 	5.81323e-09 	0.92 	0.04 	0.04 	0.0291782 	-8.9089e-09 	298.15 	
-0.0291727 	-0.0409067 	0.011734 	3.33656 	4.33139e-08 	6.70401 	23.3459 	
8.36243e-11 	91448.4 	1696.06 	1925.26 	0.35 	17.0603 	0.195484 	8.74889e-05 	
0.00758237 	0.00189559 	42.0306 	1.84723e+09 	0.0153805 	0.00313799 	1.84723e+09 	1.84723e+09 	0 	
0.000262467 	8.12909e-09 	0.92 	0.04 	0.04 	0.0291781 	-1.25281e-08 	298.15 	
-0.0291727 	-0.0409067 	0.0117341 	3.33658 	6.06044e-08 	10.039 	20.0109 	
8.36247e-11 	91448.4 	1696.06 	1925.26 	0.35 	17.0603 	0.195484 	8.74889e-05 	
0.00758237 	0.00189559 	25.1759 	8.53947e+08 	0.033409 	0.00230971 	8.53947e+08 	8.53947e+08 	0 	
0.000349956 	1.0445e-08 	0.92 	0.04 	0.04 	0.029178 	-1.55905e-08 	298.15 	
-0.0291726 	-0.0409067 	0.0117342 	3.33661 	7.78951e-08 	13.3741 	16.6759 	
8.36255e-11 	91448.4 	1696.06 	1925.26 	0.35 	17.0603 	0.195486 	8.74889e-05 	
0.00758237 	0.00189559 	24.9677 	8.29158e+08 	0.0586295 	0.00160886 	8.29158e+08 	8.29158e+08 	0 	
0.000437444 	1.27609e-08 	0.92 	0.04 	0.04 	0.0291778 	-1.80961e-08 	298.15 	
-0.0291724 	-0.0409067 	0.0117343 	3.33665 	9.5186e-08 	16.7091 	13.3408 	
8.36265e-11 	91448.4 	1696.06 	1925.26 	0.35 	17.0603 	0.195488 	8.74889e-05 	
0.00758237 	0.00189559 	24.9091 	8.27379e+08 	0.0910425 	0.00103542 	8.27379e+08 	8.27379e+08 	0 	
0.000524933 	1.50768e-08 	0.92 	0.04 	0.04 	0.0291777 	-2.0045e-08 	298.15 	
-0.0291722 	-0.0409067 	0.0117345 	3.3367 	1.12477e-07 	20.0443 	10.0057 	
8.36278e-11 	91448.4 	1696.06 	1925.26 	0.35 	17.0603 	0.195491 	8.74889e-05 	
0.00758237 	0.00189559 	24.9721 	8.29155e+08 	0.130648 	0.000589403 	8.29155e+08 	8.29155e+08 	0 	
0.000612422 	1.73928e-08 	0.92 	0.04 	0.04 	0.0291775 	-2.1437e-08 	298.15 	
-0.029172 	-0.0409067 	0.0117347 	3.33676 	1.29769e-07 	23.3794 	6.67053 	
8.36292e-11 	91448.4 	1696.06 	1925.26 	0.35 	17.0603 	0.195494 	8.74889e-05 	
0.00758237 	0.00189559 	25.0304 	8.3181e+08 	0.177447 	0.000270812 	8.3181e+08 	8.3181e+08 	0 	
0.000699911 	1.97088e-08 	0.92 	0.04 	0.04 	0.0291772 	-2.22722e-08 	298.15 	
-0.0291718 	-0.0409067 	0.0117349 	3.33683 	1.4706e-07 	26.7147 	3.33529 	
8.36309e-11 	91448.4 	1696.06 	1925.26 	0.35 	17.0603 	0.195498 	8.74889e-05 	
0.00758237 	0.00189559 	24.5341 	8.11696e+08 	0.231439 	7.96519e-05 	8.11696e+08 	8.11696e+08 	0 	
0.0007874 	2.08669e-08 	0.92 	0.04 	0.04 	0.029177 	-2.25506e-08 	298.15 	
-0.0291715 	-0.0409067 	0.0117352 	1.66845 	1.4706e-07 	29.2161 	0.83383 	
4.18163e-11 	45724.2 	848.03 	962.628 	0.35 	8.53017 	0.195501 	4.37444e-05 	
0.00379119 	0.000947796 	-0.0598583 	-1.9933e+06 	0.260234 	1.59307e-05 	-1.9933e+06 	-1.9933e+06 	0 	
ZONE T = "t = 3e-08 [s]" I = 10 SOLUTIONTIME = 3.0000000000000E-08
0 	1.19117e-09 	0.92 	0.04 	0.04 	0.0291837 	0 	298.29 	
-0.0291782 	-0.0409728 	0.0117946 	1.70028 	8.81108e-09 	0.857687 	29.1953 	
8.48413e-11 	45724.2 	848.03 	962.628 	0.35 	8.53017 	0.201095 	4.37444e-05 	
0.00379119 	0.000947796 	105737 	2.04124e+12 	0.00155134 	0.00766959 	2.04124e+12 	2.04124e+12 	0 	
8.74889e-05 	3.5076e-09 	0.92 	0.04 	0.04 	0.0291837 	-4.73092e-09 	298.154 	
-0.0291782 	-0.040908 	0.0117298 	3.33622 	2.60998e-08 	3.3833 	26.6697 	
1.6725e-10 	91448.4 	1696.06 	1925.26 	0.35 	17.0603 	0.195532 	8.74889e-05 	
0.00758237 	0.00189559 	2440.59 	7.88619e+10 	0.00759783 	0.00682015 	7.88619e+10 	7.88619e+10 	0 	
0.000174978 	5.82239e-09 	0.92 	0.04 	0.04 	0.0291836 	-8.90493e-09 	298.15 	
-0.0291782 	-0.0409068 	0.0117286 	3.33502 	4.33823e-08 	6.71796 	23.335 	
1.6721e-10 	91448.4 	1696.06 	1925.26 	0.35 	17.0603 	0.195394 	8.74889e-05 	
0.00758237 	0.00189559 	88.6767 	2.81737e+09 	0.0256805 	0.00522771 	2.81737e+09 	2.81737e+09 	0 	
0.000262467 	8.13716e-09 	0.92 	0.04 	0.04 	0.0291835 	-1.25224e-08 	298.15 	
-0.0291781 	-0.0409067 	0.0117286 	3.33502 	6.06649e-08 	10.0514 	20.0015 	
1.6721e-10 	91448.4 	1696.06 	1925.26 	0.35 	17.0603 	0.195392 	8.74889e-05 	
0.00758237 	0.00189559 	42.4587 	8.74337e+08 	0.0557436 	0.00384785 	8.74337e+08 	8.74337e+08 	0 	
0.000349956 	1.0452e-08 	0.92 	0.04 	0.04 	0.0291834 	-1.55834e-08 	298.15 	
-0.029178 	-0.0409067 	0.0117287 	3.33505 	7.79476e-08 	13.3849 	16.6681 	
1.67212e-10 	91448.4 	1696.06 	1925.26 	0.35 	17.0603 	0.195394 	8.74889e-05 	
0.00758237 	0.00189559 	41.5574 	8.29814e+08 	0.0977883 	0.00268027 	8.29814e+08 	8.29814e+08 	0 	
0.000437444 	1.27679e-08 	0.92 	0.04 	0.04 	0.0291833 	-1.80878e-08 	298.15 	
-0.0291779 	-0.0409067 	0.0117289 	3.33509 	9.52305e-08 	16.7184 	13.3346 	
1.67214e-10 	91448.4 	1696.06 	1925.26 	0.35 	17.0603 	0.195396 	8.74889e-05 	
0.00758237 	0.00189559 	41.4476 	8.26474e+08 	0.151815 	0.00172495 	8.26474e+08 	8.26474e+08 	0 	
0.000524933 	1.50838e-08 	0.92 	0.04 	0.04 	0.0291831 	-2.00358e-08 	298.15 	
-0.0291777 	-0.0409067 	0.0117291 	3.33514 	1.12514e-07 	20.052 	10.001 	
1.67216e-10 	91448.4 	1696.06 	1925.26 	0.35 	17.0603 	0.195399 	8.74889e-05 	
0.00758237 	0.00189559 	41.4794 	8.2158e+08 	0.217825 	0.000981912 	8.2158e+08 	8.2158e+08 	0 	
0.000612422 	1.73987e-08 	0.92 	0.04 	0.04 	0.0291829 	-2.14271e-08 	298.15 	
-0.0291775 	-0.0409067 	0.0117293 	3.3352 	1.29797e-07 	23.3856 	6.6674 	
1.67219e-10 	91448.4 	1696.06 	1925.26 	0.35 	17.0603 	0.195403 	8.74889e-05 	
0.00758237 	0.00189559 	41.6013 	8.25289e+08 	0.295818 	0.000451157 	8.25289e+08 	8.25289e+08 	0 	
0.000699911 	1.97137e-08 	0.92 	0.04 	0.04 	0.0291827 	-2.2262e-08 	298.15 	
-0.0291772 	-0.0409067 	0.0117295 	3.33527 	1.47081e-07 	26.7193 	3.33372 	
1.67223e-10 	91448.4 	1696.06 	1925.26 	0.35 	17.0603 	0.195407 	8.74889e-05 	
0.00758237 	0.00189559 	40.6336 	7.9826e+08 	0.385795 	0.000132695 	7.9826e+08 	7.9826e+08 	0 	
0.0007874 	2.08711e-08 	0.92 	0.04 	0.04 	0.0291824 	-2.25403e-08 	298.15 	
-0.029177 	-0.0409067 	0.0117297 	1.66766 	1.47081e-07 	29.2195 	0.833436 	
8.36128e-11 	45724.2 	848.03 	962.628 	0.35 	8.53017 	0.195409 	4.37444e-05 	
0.00379119 	0.000947796 	-0.0997072 	-1.99159e+06 	0.433779 	2.65396e-05 	-1.99159e+06 	-1.99159e+06 	0 	
ZONE T = "t = 4e-08 [s]" I = 10 SOLUTIONTIME = 4.0000000000000E-08
0 	1.20141e-09 	0.92 	0.04 	0.04 	0.0291891 	0 	298.334 	
-0.0291837 	-0.0410044 	0.0118208 	1.71537 	8.8893e-09 	0.865065 	29.1909 	
1.27834e-10 	45724.2 	848.03 	962.628 	0.35 	8.53017 	0.202825 	4.37444e-05 	
0.00379119 	0.000947796 	145981 	1.98319e+12 	0.00219083 	0.010733 	1.98319e+12 	1.98319e+12 	0 	
8.74889e-05 	3.51783e-09 	0.92 	0.04 	0.04 	0.0291891 	-4.72897e-09 	298.156 	
-0.0291837 	-0.0409092 	0.0117256 	3.33585 	2.61761e-08 	3.39804 	26.658 	
2.50856e-10 	91448.4 	1696.06 	1925.26 	0.35 	17.0603 	0.195531 	8.74889e-05 	
0.00758237 	0.00189559 	4250.03 	1.02083e+11 	0.0106737 	0.00954411 	1.02083e+11 	1.02083e+11 	0 	
0.000174978 	5.83157e-09 	0.92 	0.04 	0.04 	0.0291891 	-8.90102e-09 	298.15 	
-0.0291836 	-0.0409068 	0.0117232 	3.33349 	4.34507e-08 	6.73194 	23.3241 	
2.50757e-10 	91448.4 	1696.06 	1925.26 	0.35 	17.0603 	0.195305 	8.74889e-05 	
0.00758237 	0.00189559 	157.373 	4.05222e+09 	0.0360205 	0.00731548 	4.05222e+09 	4.05222e+09 	0 	
0.000262467 	8.14525e-09 	0.92 	0.04 	0.04 	0.029189 	-1.25168e-08 	298.15 	
-0.0291835 	-0.0409068 	0.0117232 	3.33346 	6.07251e-08 	10.0639 	19.9921 	
2.50757e-10 	91448.4 	1696.06 	1925.26 	0.35 	17.0603 	0.195301 	8.74889e-05 	
0.00758237 	0.00189559 	60.3939 	9.19187e+08 	0.0781315 	0.00538455 	9.19187e+08 	9.19187e+08 	0 	
0.000349956 	1.0459e-08 	0.92 	0.04 	0.04 	0.0291889 	-1.55763e-08 	298.15 	
-0.0291834 	-0.0409068 	0.0117233 	3.33349 	7.79997e-08 	13.3958 	16.6602 	
2.50759e-10 	91448.4 	1696.06 	1925.26 	0.35 	17.0603 	0.195302 	8.74889e-05 	
0.00758237 	0.00189559 	58.1739 	8.3184e+08 	0.137009 	0.00375067 	8.3184e+08 	8.3184e+08 	0 	
0.000437444 	1.27716e-08 	0.92 	0.04 	0.04 	0.0291887 	-1.80796e-08 	298.15 	
-0.0291833 	-0.0409068 	0.0117235 	3.33353 	9.52745e-08 	16.7277 	13.3283 	
2.50762e-10 	91448.4 	1696.06 	1925.26 	0.35 	17.0603 	0.195305 	8.74889e-05 	
0.00758237 	0.00189559 	58.0363 	8.32396e+08 	0.212654 	0.00241383 	8.32396e+08 	8.32396e+08 	0 	
0.000524933 	1.50843e-08 	0.92 	0.04 	0.04 	0.0291886 	-2.00266e-08 	298.15 	
-0.0291831 	-0.0409068 	0.0117236 	3.33358 	1.1255e-07 	20.0597 	9.9963 	
2.50766e-10 	91448.4 	1696.06 	1925.26 	0.35 	17.0603 	0.195308 	8.74889e-05 	
0.00758237 	0.00189559 	58.0292 	8.33397e+08 	0.305067 	0.00137405 	8.33397e+08 	8.33397e+08 	0 	
0.000612422 	1.73981e-08 	0.92 	0.04 	0.04 	0.0291884 	-2.14173e-08 	298.15 	
-0.0291829 	-0.0409068 	0.0117238 	3.33364 	1.29825e-07 	23.3917 	6.66426 	
2.5077e-10 	91448.4 	1696.06 	1925.26 	0.35 	17.0603 	0.195311 	8.74889e-05 	
0.00758237 	0.00189559 	58.2043 	8.35005e+08 	0.41425 	0.000631332 	8.35005e+08 	8.35005e+08 	0 	
0.000699911 	1.9712e-08 	0.92 	0.04 	0.04 	0.0291881 	-2.22518e-08 	298.15 	
-0.0291827 	-0.0409068 	0.0117241 	3.3337 	1.47101e-07 	26.7239 	3.33215 	
2.50775e-10 	91448.4 	1696.06 	1925.26 	0.35 	17.0603 	0.195315 	8.74889e-05 	
0.00758237 	0.00189559 	56.5238 	7.90754e+08 	0.540202 	0.000185689 	7.90754e+08 	7.90754e+08 	0 	
0.0007874 	2.08696e-08 	0.92 	0.04 	0.04 	0.0291879 	-2.25299e-08 	298.15 	
-0.0291824 	-0.0409067 	0.0117243 	1.66687 	1.47101e-07 	29.223 	0.833041 	
1.2539e-10 	45724.2 	848.03 	962.628 	0.35 	8.53017 	0.195317 	4.37444e-05 	
0.00379119 	0.000947796 	-0.139513 	-1.98894e+06 	0.607371 	3.71385e-05 	-1.98894e+06 	-1.98894e+06 	0 	
ZONE T = "t = 5.5e-08 [s]" I = 10 SOLUTIONTIME = 5.5000000000000E-08
0 	1.21625e-09 	0.92 	0.04 	0.04 	0.0291973 	0 	298.397 	
-0.0291891 	-0.0410352 	0.011846 	1.73013 	8.96578e-09 	0.87575 	29.1848 	
1.71196e-10 	45724.2 	848.03 	962.628 	0.35 	8.53017 	0.20533 	4.37444e-05 	
0.00379119 	0.000947796 	194330 	1.90116e+12 	0.0020061 	0.00970532 	1.90116e+12 	1.90116e+12 	0 	
8.74889e-05 	3.53315e-09 	0.92 	0.04 	0.04 	0.0291973 	-4.72616e-09 	298.16 	
-0.0291891 	-0.0409108 	0.0117217 	3.33582 	2.62524e-08 	3.41976 	26.6408 	
3.34462e-10 	91448.4 	1696.06 	1925.26 	0.35 	17.0603 	0.195572 	8.74889e-05 	
0.00758237 	0.00189559 	7282.56 	1.34113e+11 	0.00970405 	0.00862997 	1.34113e+11 	1.34113e+11 	0 	
0.000174978 	5.84535e-09 	0.92 	0.04 	0.04 	0.0291973 	-8.89529e-09 	298.15 	
-0.0291891 	-0.0409069 	0.0117178 	3.33197 	4.35192e-08 	6.75289 	23.3077 	
3.34266e-10 	91448.4 	1696.06 	1925.26 	0.35 	17.0603 	0.195175 	8.74889e-05 	
0.00758237 	0.00189559 	294.424 	6.43527e+09 	0.0326769 	0.00661451 	6.43527e+09 	6.43527e+09 	0 	
0.000262467 	8.15789e-09 	0.92 	0.04 	0.04 	0.0291972 	-1.25085e-08 	298.15 	
-0.029189 	-0.0409068 	0.0117178 	3.33189 	6.07855e-08 	10.0825 	19.978 	
3.34264e-10 	91448.4 	1696.06 	1925.26 	0.35 	17.0603 	0.195163 	8.74889e-05 	
0.00758237 	0.00189559 	84.8815 	1.01971e+09 	0.0708065 	0.00486859 	1.01971e+09 	1.01971e+09 	0 	
0.000349956 	1.047e-08 	0.92 	0.04 	0.04 	0.0291971 	-1.55659e-08 	298.15 	
-0.0291889 	-0.0409068 	0.0117179 	3.33192 	7.80519e-08 	13.4121 	16.6485 	
3.34267e-10 	91448.4 	1696.06 	1925.26 	0.35 	17.0603 	0.195164 	8.74889e-05 	
0.00758237 	0.00189559 	78.9727 	8.32023e+08 	0.124096 	0.00339127 	8.32023e+08 	8.32023e+08 	0 	
0.000437444 	1.27821e-08 	0.92 	0.04 	0.04 	0.0291969 	-1.80674e-08 	298.15 	
-0.0291888 	-0.0409068 	0.011718 	3.33196 	9.53186e-08 	16.7417 	13.3189 	
3.34271e-10 	91448.4 	1696.06 	1925.26 	0.35 	17.0603 	0.195167 	8.74889e-05 	
0.00758237 	0.00189559 	78.7392 	8.25265e+08 	0.192546 	0.00218254 	8.25265e+08 	8.25265e+08 	0 	
0.000524933 	1.50942e-08 	0.92 	0.04 	0.04 	0.0291968 	-2.0013e-08 	298.15 	
-0.0291886 	-0.0409068 	0.0117182 	3.33201 	1.12586e-07 	20.0713 	9.98923 	
3.34276e-10 	91448.4 	1696.06 	1925.26 	0.35 	17.0603 	0.19517 	8.74889e-05 	
0.00758237 	0.00189559 	78.8211 	8.30532e+08 	0.276158 	0.00124239 	8.30532e+08 	8.30532e+08 	0 	
0.000612422 	1.74064e-08 	0.92 	0.04 	0.04 	0.0291966 	-2.14028e-08 	298.15 	
-0.0291884 	-0.0409068 	0.0117184 	3.33207 	1.29853e-07 	23.401 	6.65954 	
3.34282e-10 	91448.4 	1696.06 	1925.26 	0.35 	17.0603 	0.195173 	8.74889e-05 	
0.00758237 	0.00189559 	78.9582 	8.26923e+08 	0.374932 	0.000570836 	8.26923e+08 	8.26923e+08 	0 	
0.000699911 	1.97186e-08 	0.92 	0.04 	0.04 	0.0291963 	-2.22366e-08 	298.15 	
-0.0291881 	-0.0409068 	0.0117186 	3.33214 	1.47121e-07 	26.7308 	3.32979 	
3.34289e-10 	91448.4 	1696.06 	1925.26 	0.35 	17.0603 	0.195177 	8.74889e-05 	
0.00758237 	0.00189559 	76.0794 	7.7654e+08 	0.488869 	0.000167896 	7.7654e+08 	7.7654e+08 	0 	
0.0007874 	2.08742e-08 	0.92 	0.04 	0.04 	0.0291961 	-2.25146e-08 	298.15 	
-0.0291879 	-0.0409067 	0.0117188 	1.66608 	1.47121e-07 	29.2281 	0.832449 	
1.67147e-10 	45724.2 	848.03 	962.628 	0.35 	8.53017 	0.195178 	4.37444e-05 	
0.00379119 	0.000947796 	-0.189179 	-1.98516e+06 	0.549628 	3.35796e-05 	-1.98516e+06 	-1.98516e+06 	0 	
ZONE T = "t = 7.75e-08 [s]" I = 10 SOLUTIONTIME = 7.7500000000000E-08
0 	1.2374e-09 	0.92 	0.04 	0.04 	0.0292096 	0 	298.486 	
-0.0291973 	-0.0410794 	0.011882 	1.7515 	9.07653e-09 	0.890977 	29.1764 	
2.37043e-10 	45724.2 	848.03 	962.628 	0.35 	8.53017 	0.2089 	4.37444e-05 	
0.00379119 	0.000947796 	263086 	1.78835e+12 	0.00189997 	0.00901642 	1.78835e+12 	1.78835e+12 	0 	
8.74889e-05 	3.55603e-09 	0.92 	0.04 	0.04 	0.0292096 	-4.72221e-09 	298.169 	
-0.0291973 	-0.0409139 	0.0117166 	3.33652 	2.63668e-08 	3.45146 	26.6159 	
4.59897e-10 	91448.4 	1696.06 	1925.26 	0.35 	17.0603 	0.195718 	8.74889e-05 	
0.00758237 	0.00189559 	13265.7 	1.7651e+11 	0.00909234 	0.00801686 	1.7651e+11 	1.7651e+11 	0 	
0.000174978 	5.86602e-09 	0.92 	0.04 	0.04 	0.0292096 	-8.88698e-09 	298.151 	
-0.0291973 	-0.040907 	0.0117097 	3.32974 	4.3622e-08 	6.78425 	23.2831 	
4.59446e-10 	91448.4 	1696.06 	1925.26 	0.35 	17.0603 	0.194988 	8.74889e-05 	
0.00758237 	0.00189559 	638.485 	1.10014e+10 	0.0305131 	0.00614403 	1.10014e+10 	1.10014e+10 	0 	
0.000262467 	8.17531e-09 	0.92 	0.04 	0.04 	0.0292095 	-1.24964e-08 	298.15 	
-0.0291972 	-0.0409068 	0.0117096 	3.32955 	6.08761e-08 	10.1105 	19.9568 	
4.59437e-10 	91448.4 	1696.06 	1925.26 	0.35 	17.0603 	0.194957 	8.74889e-05 	
0.00758237 	0.00189559 	129.154 	1.28787e+09 	0.0660102 	0.00452227 	1.28787e+09 	1.28787e+09 	0 	
0.000349956 	1.04849e-08 	0.92 	0.04 	0.04 	0.0292094 	-1.55505e-08 	298.15 	
-0.0291971 	-0.0409068 	0.0117097 	3.32957 	7.81304e-08 	13.4366 	16.6308 	
4.59441e-10 	91448.4 	1696.06 	1925.26 	0.35 	17.0603 	0.194958 	8.74889e-05 	
0.00758237 	0.00189559 	110.473 	8.45342e+08 	0.115589 	0.00315004 	8.45342e+08 	8.45342e+08 	0 	
0.000437444 	1.27946e-08 	0.92 	0.04 	0.04 	0.0292092 	-1.80494e-08 	298.15 	
-0.029197 	-0.0409068 	0.0117098 	3.32961 	9.53849e-08 	16.7626 	13.3047 	
4.59446e-10 	91448.4 	1696.06 	1925.26 	0.35 	17.0603 	0.19496 	8.74889e-05 	
0.00758237 	0.00189559 	109.804 	8.30495e+08 	0.179249 	0.00202728 	8.30495e+08 	8.30495e+08 	0 	
0.000524933 	1.51043e-08 	0.92 	0.04 	0.04 	0.0292091 	-1.99929e-08 	298.15 	
-0.0291968 	-0.0409068 	0.01171 	3.32966 	1.1264e-07 	20.0887 	9.97862 	
4.59453e-10 	91448.4 	1696.06 	1925.26 	0.35 	17.0603 	0.194963 	8.74889e-05 	
0.00758237 	0.00189559 	109.907 	8.27887e+08 	0.256993 	0.00115401 	8.27887e+08 	8.27887e+08 	0 	
0.000612422 	1.7414e-08 	0.92 	0.04 	0.04 	0.0292089 	-2.13812e-08 	298.15 	
-0.0291966 	-0.0409068 	0.0117102 	3.32972 	1.29895e-07 	23.4149 	6.65246 	
4.59461e-10 	91448.4 	1696.06 	1925.26 	0.35 	17.0603 	0.194966 	8.74889e-05 	
0.00758237 	0.00189559 	109.852 	8.21785e+08 	0.34882 	0.00053023 	8.21785e+08 	8.21785e+08 	0 	
0.000699911 	1.97238e-08 	0.92 	0.04 	0.04 	0.0292086 	-2.22142e-08 	298.15 	
-0.0291963 	-0.0409068 	0.0117104 	3.32978 	1.4715e-07 	26.7411 	3.32624 	
4.5947e-10 	91448.4 	1696.06 	1925.26 	0.35 	17.0603 	0.19497 	8.74889e-05 	
0.00758237 	0.00189559 	104.647 	7.51991e+08 	0.454732 	0.000155952 	7.51991e+08 	7.51991e+08 	0 	
0.0007874 	2.08786e-08 	0.92 	0.04 	0.04 	0.0292084 	-2.24918e-08 	298.15 	
-0.0291961 	-0.0409067 	0.0117106 	1.6649 	1.4715e-07 	29.2358 	0.831559 	
2.29738e-10 	45724.2 	848.03 	962.628 	0.35 	8.53017 	0.194969 	4.37444e-05 	
0.00379119 	0.000947796 	-0.263521 	-1.98063e+06 	0.511209 	3.11908e-05 	-1.98063e+06 	-1.98063e+06 	0 	
ZONE T = "t = 1.1125e-07 [s]" I = 10 SOLUTIONTIME = 1.1125000000000E-07
0 	1.26686e-09 	0.92 	0.04 	0.04 	0.0292281 	0 	298.609 	
-0.0292096 	-0.0411417 	0.0119321 	1.78195 	9.23437e-09 	0.912192 	29.1654 	
3.3753e-10 	45724.2 	848.03 	962.628 	0.35 	8.53017 	0.213874 	4.37444e-05 	
0.00379119 	0.000947796 	358646 	1.63919e+12 	0.00185355 	0.00855198 	1.63919e+12 	1.63919e+12 	0 	
8.74889e-05 	3.58999e-09 	0.92 	0.04 	0.04 	0.029228 	-4.71684e-09 	298.186 	
-0.0292096 	-0.0409201 	0.0117104 	3.33901 	2.65375e-08 	3.49713 	26.5805 	
6.48189e-10 	91448.4 	1696.06 	1925.26 	0.35 	17.0603 	0.196097 	8.74889e-05 	
0.00758237 	0.00189559 	24974.9 	2.29264e+11 	0.00873594 	0.00760286 	2.29264e+11 	2.29264e+11 	0 	
0.000174978 	5.89696e-09 	0.92 	0.04 	0.04 	0.029228 	-8.87515e-09 	298.152 	
-0.0292096 	-0.0409074 	0.0116978 	3.32656 	4.37762e-08 	6.83098 	23.2466 	
6.47037e-10 	91448.4 	1696.06 	1925.26 	0.35 	17.0603 	0.194734 	8.74889e-05 	
0.00758237 	0.00189559 	1542.67 	1.94564e+10 	0.0291685 	0.00582566 	1.94564e+10 	1.94564e+10 	0 	
0.000262467 	8.20295e-09 	0.92 	0.04 	0.04 	0.0292279 	-1.24788e-08 	298.15 	
-0.0292095 	-0.0409068 	0.0116973 	3.32603 	6.10122e-08 	10.1525 	19.9251 	
6.46997e-10 	91448.4 	1696.06 	1925.26 	0.35 	17.0603 	0.194651 	8.74889e-05 	
0.00758237 	0.00189559 	225.628 	1.99991e+09 	0.0629436 	0.00428788 	1.99991e+09 	1.99991e+09 	0 	
0.000349956 	1.05089e-08 	0.92 	0.04 	0.04 	0.0292278 	-1.55281e-08 	298.15 	
-0.0292094 	-0.0409068 	0.0116974 	3.32604 	7.82482e-08 	13.4733 	16.6043 	
6.47002e-10 	91448.4 	1696.06 	1925.26 	0.35 	17.0603 	0.194648 	8.74889e-05 	
0.00758237 	0.00189559 	159.681 	8.94451e+08 	0.110069 	0.00298677 	8.94451e+08 	8.94451e+08 	0 	
0.000437444 	1.28149e-08 	0.92 	0.04 	0.04 	0.0292277 	-1.8023e-08 	298.15 	
-0.0292093 	-0.0409068 	0.0116976 	3.32608 	9.54844e-08 	16.7941 	13.2836 	
6.4701e-10 	91448.4 	1696.06 	1925.26 	0.35 	17.0603 	0.19465 	8.74889e-05 	
0.00758237 	0.00189559 	156.511 	8.30244e+08 	0.170547 	0.0019222 	8.30244e+08 	8.30244e+08 	0 	
0.000524933 	1.5121e-08 	0.92 	0.04 	0.04 	0.0292275 	-1.99634e-08 	298.15 	
-0.0292091 	-0.0409068 	0.0116977 	3.32613 	1.12721e-07 	20.1149 	9.96273 	
6.47019e-10 	91448.4 	1696.06 	1925.26 	0.35 	17.0603 	0.194653 	8.74889e-05 	
0.00758237 	0.00189559 	156.389 	8.25328e+08 	0.244378 	0.0010942 	8.25328e+08 	8.25328e+08 	0 	
0.000612422 	1.74273e-08 	0.92 	0.04 	0.04 	0.0292273 	-2.13495e-08 	298.15 	
-0.0292089 	-0.0409068 	0.0116979 	3.32619 	1.29958e-07 	23.4357 	6.64186 	
6.47031e-10 	91448.4 	1696.06 	1925.26 	0.35 	17.0603 	0.194656 	8.74889e-05 	
0.00758237 	0.00189559 	156.02 	8.20084e+08 	0.331563 	0.000502746 	8.20084e+08 	8.20084e+08 	0 	
0.000699911 	1.97336e-08 	0.92 	0.04 	0.04 	0.0292271 	-2.21811e-08 	298.15 	
-0.0292086 	-0.0409068 	0.0116982 	3.32625 	1.47195e-07 	26.7567 	3.32093 	
6.47043e-10 	91448.4 	1696.06 	1925.26 	0.35 	17.0603 	0.19466 	8.74889e-05 	
0.00758237 	0.00189559 	146.037 	7.2504e+08 	0.432102 	0.000147868 	7.2504e+08 	7.2504e+08 	0 	
0.0007874 	2.08866e-08 	0.92 	0.04 	0.04 	0.0292268 	-2.24583e-08 	298.15 	
-0.0292084 	-0.0409067 	0.0116983 	1.66312 	1.47195e-07 	29.2474 	0.830227 	
3.23524e-10 	45724.2 	848.03 	962.628 	0.35 	8.53017 	0.194657 	4.37444e-05 	
0.00379119 	0.000947796 	-0.374647 	-1.97222e+06 	0.48571 	2.95737e-05 	-1.97222e+06 	-1.97222e+06 	0 	
ZONE T = "t = 1.61875e-07 [s]" I = 10 SOLUTIONTIME = 1.6187500000000E-07
0 	1.30668e-09 	0.92 	0.04 	0.04 	0.0292556 	0 	298.772 	
-0.0292281 	-0.0412275 	0.0119994 	1.82438 	9.45428e-09 	0.940863 	29.152 	
4.91851e-10 	45724.2 	848.03 	962.628 	0.35 	8.53017 	0.220597 	4.37444e-05 	
0.00379119 	0.000947796 	487492 	1.4523e+12 	0.00185669 	0.00823551 	1.4523e+12 	1.4523e+12 	0 	
8.74889e-05 	3.63982e-09 	0.92 	0.04 	0.04 	0.0292556 	-4.70982e-09 	298.219 	
-0.0292281 	-0.0409321 	0.011704 	3.34548 	2.6791e-08 	3.56168 	26.5312 	
9.31176e-10 	91448.4 	1696.06 	1925.26 	0.35 	17.0603 	0.196942 	8.74889e-05 	
0.00758237 	0.00189559 	47351.3 	2.89161e+11 	0.00857381 	0.00731954 	2.89161e+11 	2.89161e+11 	0 	
0.000174978 	5.94331e-09 	0.92 	0.04 	0.04 	0.0292555 	-8.85871e-09 	298.156 	
-0.029228 	-0.0409084 	0.0116804 	3.32223 	4.40072e-08 	6.90008 	23.1928 	
9.28057e-10 	91448.4 	1696.06 	1925.26 	0.35 	17.0603 	0.194422 	8.74889e-05 	
0.00758237 	0.00189559 	3933.72 	3.42596e+10 	0.0284187 	0.00560646 	3.42596e+10 	3.42596e+10 	0 	
0.000262467 	8.24397e-09 	0.92 	0.04 	0.04 	0.0292554 	-1.24538e-08 	298.151 	
-0.0292279 	-0.0409069 	0.011679 	3.3208 	6.1216e-08 	10.2151 	19.8778 	
9.27896e-10 	91448.4 	1696.06 	1925.26 	0.35 	17.0603 	0.194201 	8.74889e-05 	
0.00758237 	0.00189559 	486.759 	3.82486e+09 	0.0610955 	0.00412638 	3.82486e+09 	3.82486e+09 	0 	
0.000349956 	1.05445e-08 	0.92 	0.04 	0.04 	0.0292553 	-1.54959e-08 	298.15 	
-0.0292278 	-0.0409069 	0.011679 	3.32076 	7.84247e-08 	13.5281 	16.5648 	
9.27897e-10 	91448.4 	1696.06 	1925.26 	0.35 	17.0603 	0.194186 	8.74889e-05 	
0.00758237 	0.00189559 	243.338 	1.05618e+09 	0.106618 	0.00287426 	1.05618e+09 	1.05618e+09 	0 	
0.000437444 	1.28449e-08 	0.92 	0.04 	0.04 	0.0292552 	-1.79848e-08 	298.15 	
-0.0292277 	-0.0409069 	0.0116792 	3.32079 	9.56335e-08 	16.841 	13.2519 	
9.27908e-10 	91448.4 	1696.06 	1925.26 	0.35 	17.0603 	0.194187 	8.74889e-05 	
0.00758237 	0.00189559 	227.043 	8.39718e+08 	0.164989 	0.0018498 	8.39718e+08 	8.39718e+08 	0 	
0.000524933 	1.51454e-08 	0.92 	0.04 	0.04 	0.029255 	-1.99206e-08 	298.15 	
-0.0292275 	-0.0409069 	0.0116793 	3.32084 	1.12843e-07 	20.1539 	9.939 	
9.27921e-10 	91448.4 	1696.06 	1925.26 	0.35 	17.0603 	0.19419 	8.74889e-05 	
0.00758237 	0.00189559 	225.975 	8.24316e+08 	0.236211 	0.00105298 	8.24316e+08 	8.24316e+08 	0 	
0.000612422 	1.74458e-08 	0.92 	0.04 	0.04 	0.0292548 	-2.13034e-08 	298.15 	
-0.0292273 	-0.0409069 	0.0116795 	3.3209 	1.30052e-07 	23.4669 	6.62603 	
9.27938e-10 	91448.4 	1696.06 	1925.26 	0.35 	17.0603 	0.194193 	8.74889e-05 	
0.00758237 	0.00189559 	224.611 	8.08163e+08 	0.320283 	0.000483807 	8.08163e+08 	8.08163e+08 	0 	
0.000699911 	1.97463e-08 	0.92 	0.04 	0.04 	0.0292546 	-2.2133e-08 	298.15 	
-0.0292271 	-0.0409068 	0.0116798 	3.32096 	1.47262e-07 	26.7799 	3.313 	
9.27956e-10 	91448.4 	1696.06 	1925.26 	0.35 	17.0603 	0.194196 	8.74889e-05 	
0.00758237 	0.00189559 	205.148 	6.84259e+08 	0.417207 	0.000142297 	6.84259e+08 	6.84259e+08 	0 	
0.0007874 	2.08965e-08 	0.92 	0.04 	0.04 	0.0292543 	-2.24096e-08 	298.15 	
-0.0292268 	-0.0409067 	0.0116799 	1.66045 	1.47262e-07 	29.2647 	0.828237 	
4.63978e-10 	45724.2 	848.03 	962.628 	0.35 	8.53017 	0.19419 	4.37444e-05 	
0.00379119 	0.000947796 	-0.540566 	-1.96259e+06 	0.468882 	2.84593e-05 	-1.96259e+06 	-1.96259e+06 	0 	
ZONE T = "t = 2.37813e-07 [s]" I = 10 SOLUTIONTIME = 2.3781250000000E-07
0 	1.35846e-09 	0.92 	0.04 	0.04 	0.0292965 	0 	298.98 	
-0.0292556 	-0.0413415 	0.0120859 	1.88173 	9.75151e-09 	0.978144 	29.1375 	
7.30607e-10 	45724.2 	848.03 	962.628 	0.35 	8.53017 	0.229338 	4.37444e-05 	
0.00379119 	0.000947796 	654745 	1.2343e+12 	0.00190518 	0.00801594 	1.2343e+12 	1.2343e+12 	0 	
8.74889e-05 	3.71153e-09 	0.92 	0.04 	0.04 	0.0292965 	-4.70117e-09 	298.277 	