TITLE = "Solution on Domain BulkDomain1D_2"
VARIABLES = "x [m]"  
"Vel_axial" 	"MF_sp(ECDMC)" 	"MF_sp(Li+)" 	"MF_sp(PF6-)" 	"Volt(Electroly)" 	"Volt(CathodeVo)" 	"Temperature" 	
"Potential Drop Electrode-Electrolyte [V]" 	"Surf_0 Equilibrium Potential Drop Electrode-Electrolyte [V]" 	"Overpotential_0 [V]" 	"Current Source [A/m^2]" 	"Li+ flux [kmol/m^2/s]" 	"Electrolyte Current [A/m^2]" 	"Electrode Current [A/m^2]" 	
"CV Capacity discharged [A-s/m^2]" 	"Depth of discharge in CV [A-s/m^2]" 	"CV Capacity remaining [A-s/m^2]" 	"Initial CV capacity [A-s/m^2]" 	"Porosity []" 	"Surface Area [m2/m2] (area per area)" 	"Specific current (per particle area) [A/m^2]" 	"Control volume thickness [m]" 	
"MoleDens LiCoO2 [kmol/m^3]" 	"MoleDens CoO2 [kmol/m^3]" 	"qHeat_accum [J/m3]" 	"qHeat_step [W/m3]" 	"Joule_Lyte [W/m3]" 	"Joule_Solid [W/m3]" 	"electrodHeat [W/m3]" 	"OverpotHeat [W/m3]" 	"deltaSHeat [W/m3]" 	

ZONE T = "CATH, 0.0000E+00", I = 10, SOLUTIONTIME = 0.000000E+00
ZONETYPE = ORDERED
DATAPACKING = BLOCK
STRANDID = 3
 1.2700000000000E-03  1.3377333333333E-03  1.4054666666667E-03  1.4732000000000E-03  1.5409333333333E-03  1.6086666666667E-03  1.6764000000000E-03  1.7441333333333E-03  1.8118666666667E-03  1.8796000000000E-03 
 0.0000000000000E+00  0.0000000000000E+00  0.0000000000000E+00  0.0000000000000E+00  0.0000000000000E+00  0.0000000000000E+00  0.0000000000000E+00  0.0000000000000E+00  0.0000000000000E+00  0.0000000000000E+00 
 9.2000000000000E-01  9.2000000000000E-01  9.2000000000000E-01  9.2000000000000E-01  9.2000000000000E-01  9.2000000000000E-01  9.2000000000000E-01  9.2000000000000E-01  9.2000000000000E-01  9.2000000000000E-01 
 4.0000000000000E-02  4.0000000000000E-02  4.0000000000000E-02  4.0000000000000E-02  4.0000000000000E-02  4.0000000000000E-02  4.0000000000000E-02  4.0000000000000E-02  4.0000000000000E-02  4.0000000000000E-02 
 4.0000000000000E-02  4.0000000000000E-02  4.0000000000000E-02  4.0000000000000E-02  4.0000000000000E-02  4.0000000000000E-02  4.0000000000000E-02  4.0000000000000E-02  4.0000000000000E-02  4.0000000000000E-02 
-7.0000000000000E-02 -7.0000000000000E-02 -7.0000000000000E-02 -7.0000000000000E-02 -7.0000000000000E-02 -7.0000000000000E-02 -7.0000000000000E-02 -7.0000000000000E-02 -7.0000000000000E-02 -7.0000000000000E-02 
 3.8000000000000E+00  3.8000000000000E+00  3.8000000000000E+00  3.8000000000000E+00  3.8000000000000E+00  3.8000000000000E+00  3.8000000000000E+00  3.8000000000000E+00  3.8000000000000E+00  3.8000000000000E+00 
 2.9815000000000E+02  2.9815000000000E+02  2.9815000000000E+02  2.9815000000000E+02  2.9815000000000E+02  2.9815000000000E+02  2.9815000000000E+02  2.9815000000000E+02  2.9815000000000E+02  2.9815000000000E+02 
 3.8700000000000E+00  3.8700000000000E+00  3.8700000000000E+00  3.8700000000000E+00  3.8700000000000E+00  3.8700000000000E+00  3.8700000000000E+00  3.8700000000000E+00  3.8700000000000E+00  3.8700000000000E+00 
 3.9714142713289E+00  3.9714142713289E+00  3.9714142713289E+00  3.9714142713289E+00  3.9714142713289E+00  3.9714142713289E+00  3.9714142713289E+00  3.9714142713289E+00  3.9714142713289E+00  3.9714142713289E+00 
-1.0141427132889E-01 -1.0141427132889E-01 -1.0141427132889E-01 -1.0141427132889E-01 -1.0141427132889E-01 -1.0141427132889E-01 -1.0141427132889E-01 -1.0141427132889E-01 -1.0141427132889E-01 -1.0141427132889E-01 
-2.3826357195711E-01 -4.7652714391422E-01 -4.7652714391423E-01 -4.7652714391422E-01 -4.7652714391423E-01 -4.7652714391423E-01 -4.7652714391422E-01 -4.7652714391423E-01 -4.7652714391422E-01 -2.3826357195711E-01 
-0.0000000000000E+00 -0.0000000000000E+00 -0.0000000000000E+00 -0.0000000000000E+00 -0.0000000000000E+00 -0.0000000000000E+00 -0.0000000000000E+00 -0.0000000000000E+00 -0.0000000000000E+00 -0.0000000000000E+00 
 2.3826357195711E-01  0.0000000000000E+00  0.0000000000000E+00  0.0000000000000E+00  0.0000000000000E+00  0.0000000000000E+00  0.0000000000000E+00  0.0000000000000E+00  0.0000000000000E+00  0.0000000000000E+00 
 0.0000000000000E+00 -0.0000000000000E+00 -0.0000000000000E+00 -0.0000000000000E+00 -0.0000000000000E+00 -0.0000000000000E+00 -0.0000000000000E+00 -0.0000000000000E+00 -0.0000000000000E+00  2.3826357195711E-01 
-0.0000000000000E+00 -0.0000000000000E+00 -0.0000000000000E+00 -0.0000000000000E+00 -0.0000000000000E+00 -0.0000000000000E+00 -0.0000000000000E+00 -0.0000000000000E+00 -0.0000000000000E+00 -0.0000000000000E+00 
 7.2440786946225E+03  1.4488157389245E+04  1.4488157389245E+04  1.4488157389245E+04  1.4488157389245E+04  1.4488157389245E+04  1.4488157389245E+04  1.4488157389245E+04  1.4488157389245E+04  7.2440786946225E+03 
 4.9259735123433E+04  9.8519470246865E+04  9.8519470246866E+04  9.8519470246865E+04  9.8519470246866E+04  9.8519470246866E+04  9.8519470246865E+04  9.8519470246866E+04  9.8519470246865E+04  4.9259735123433E+04 
 5.6503813818055E+04  1.1300762763611E+05  1.1300762763611E+05  1.1300762763611E+05  1.1300762763611E+05  1.1300762763611E+05  1.1300762763611E+05  1.1300762763611E+05  1.1300762763611E+05  5.6503813818055E+04 
 3.5000000000000E-01  3.5000000000000E-01  3.5000000000000E-01  3.5000000000000E-01  3.5000000000000E-01  3.5000000000000E-01  3.5000000000000E-01  3.5000000000000E-01  3.5000000000000E-01  3.5000000000000E-01 
 6.6040000000000E+00  1.3208000000000E+01  1.3208000000000E+01  1.3208000000000E+01  1.3208000000000E+01  1.3208000000000E+01  1.3208000000000E+01  1.3208000000000E+01  1.3208000000000E+01  6.6040000000000E+00 
-3.6078675341780E-02 -3.6078675341780E-02 -3.6078675341780E-02 -3.6078675341780E-02 -3.6078675341780E-02 -3.6078675341780E-02 -3.6078675341780E-02 -3.6078675341780E-02 -3.6078675341780E-02 -3.6078675341780E-02 
 3.3866666666667E-05  6.7733333333333E-05  6.7733333333334E-05  6.7733333333333E-05  6.7733333333334E-05  6.7733333333334E-05  6.7733333333333E-05  6.7733333333334E-05  6.7733333333333E-05  3.3866666666667E-05 
 2.6603001364256E+01  2.6603001364256E+01  2.6603001364256E+01  2.6603001364256E+01  2.6603001364256E+01  2.6603001364256E+01  2.6603001364256E+01  2.6603001364256E+01  2.6603001364256E+01  2.6603001364256E+01 
 1.7735334242838E+01  1.7735334242838E+01  1.7735334242838E+01  1.7735334242838E+01  1.7735334242838E+01  1.7735334242838E+01  1.7735334242838E+01  1.7735334242838E+01  1.7735334242838E+01  1.7735334242838E+01 
 0.0000000000000E+00  0.0000000000000E+00  0.0000000000000E+00  0.0000000000000E+00  0.0000000000000E+00  0.0000000000000E+00  0.0000000000000E+00  0.0000000000000E+00  0.0000000000000E+00  0.0000000000000E+00 
 0.0000000000000E+00  0.0000000000000E+00  0.0000000000000E+00  0.0000000000000E+00  0.0000000000000E+00  0.0000000000000E+00  0.0000000000000E+00  0.0000000000000E+00  0.0000000000000E+00  0.0000000000000E+00 
 0.0000000000000E+00  0.0000000000000E+00  0.0000000000000E+00  0.0000000000000E+00  0.0000000000000E+00  0.0000000000000E+00  0.0000000000000E+00  0.0000000000000E+00  0.0000000000000E+00  0.0000000000000E+00 
 0.0000000000000E+00  0.0000000000000E+00  0.0000000000000E+00  0.0000000000000E+00  0.0000000000000E+00  0.0000000000000E+00  0.0000000000000E+00  0.0000000000000E+00  0.0000000000000E+00  0.0000000000000E+00 
 0.0000000000000E+00  0.0000000000000E+00  0.0000000000000E+00  0.0000000000000E+00  0.0000000000000E+00  0.0000000000000E+00  0.0000000000000E+00  0.0000000000000E+00  0.0000000000000E+00  0.0000000000000E+00 
 0.0000000000000E+00  0.0000000000000E+00  0.0000000000000E+00  0.0000000000000E+00  0.0000000000000E+00  0.0000000000000E+00  0.0000000000000E+00  0.0000000000000E+00  0.0000000000000E+00  0.0000000000000E+00 
 0.0000000000000E+00  0.0000000000000E+00  0.0000000000000E+00  0.0000000000000E+00  0.0000000000000E+00  0.0000000000000E+00  0.0000000000000E+00  0.0000000000000E+00  0.0000000000000E+00  0.0000000000000E+00 
ZONE T = "CATH, 1.0000E-08", I = 10, SOLUTIONTIME = 1.000000E-08
ZONETYPE = ORDERED
DATAPACKING = BLOCK
STRANDID = 3
 1.2700000000000E-03  1.3377333333333E-03  1.4054666666667E-03  1.4732000000000E-03  1.5409333333333E-03  1.6086666666667E-03  1.6764000000000E-03  1.7441333333333E-03  1.8118666666667E-03  1.8796000000000E-03 
 1.9705664490513E-08  1.7389530386411E-08  1.5073112895110E-08  1.2756216431458E-08  1.0439371617537E-08  8.1209296416025E-09  5.8014206271412E-09  3.4806479821140E-09  1.1584177294908E-09 -3.6320778990413E-12 
 9.2000000000037E-01  9.2000000000090E-01  9.2000000000090E-01  9.2000000000090E-01  9.2000000000090E-01  9.2000000000090E-01  9.2000000000090E-01  9.2000000000090E-01  9.2000000000090E-01  9.2000000000090E-01 
 3.9999999999813E-02  3.9999999999551E-02  3.9999999999551E-02  3.9999999999551E-02  3.9999999999550E-02  3.9999999999550E-02  3.9999999999550E-02  3.9999999999550E-02  3.9999999999549E-02  3.9999999999549E-02 
 3.9999999999813E-02  3.9999999999551E-02  3.9999999999551E-02  3.9999999999551E-02  3.9999999999550E-02  3.9999999999550E-02  3.9999999999550E-02  3.9999999999550E-02  3.9999999999549E-02  3.9999999999549E-02 
 2.9170834580645E-02  2.9170627550707E-02  2.9170444849173E-02  2.9170286479022E-02  2.9170152445286E-02  2.9170042755053E-02  2.9169957417471E-02  2.9169896443750E-02  2.9169859847167E-02  2.9169847643048E-02 
 3.8001746594529E+00  3.8001725043505E+00  3.8001660388785E+00  3.8001552625093E+00  3.8001401743514E+00  3.8001207731489E+00  3.8000970572811E+00  3.8000690247619E+00  3.8000366732392E+00  3.8000000000000E+00 
 2.9815000000022E+02  2.9815000405351E+02  2.9815000414383E+02  2.9815000410297E+02  2.9815000418616E+02  2.9815000416393E+02  2.9815000414190E+02  2.9815000378979E+02  2.9814998660975E+02  2.9814916179159E+02 
 3.7710038248723E+00  3.7710018767998E+00  3.7709955940293E+00  3.7709849760302E+00  3.7709700219061E+00  3.7709507303939E+00  3.7709270998636E+00  3.7708991283181E+00  3.7708668133920E+00  3.7708301523570E+00 
 3.9714142713285E+00  3.9714142680566E+00  3.9714142679837E+00  3.9714142680167E+00  3.9714142679495E+00  3.9714142679675E+00  3.9714142679852E+00  3.9714142682695E+00  3.9714142821369E+00  3.9714149479183E+00 
-2.0041044645625E-01 -2.0041239125677E-01 -2.0041867395439E-01 -2.0042929198642E-01 -2.0044424604339E-01 -2.0046353757358E-01 -2.0048716812159E-01 -2.0051513995133E-01 -2.0054746874492E-01 -2.0058479556136E-01 
-1.6673937760573E+00 -3.3349151575301E+00 -3.3353232946245E+00 -3.3360131159895E+00 -3.3369849220106E+00 -3.3382389799009E+00 -3.3397757411644E+00 -3.3415956374571E+00 -3.3436949031292E+00 -1.6729320528428E+00 
 1.4706544870813E-07  1.2978345679974E-07  1.1249946963692E-07  9.5211908047975E-08  7.7919310902663E-08  6.0620215643581E-08  4.3313157412233E-08  2.5996669100262E-08  8.6693031074899E-09  8.6693031074899E-09 
 3.0046689308425E+01  2.6711848259949E+01  2.3376749669162E+01  2.0041102152633E+01  1.6704623898764E+01  1.3367032814938E+01  1.0028046448641E+01  6.6873819079796E+00  3.3447579671629E+00  0.0000000000000E+00 
 0.0000000000000E+00  3.3348307450969E+00  6.6699293337644E+00  1.0005576851621E+01  1.3342055107366E+01  1.6679646193330E+01  2.0018632561580E+01  2.3359297104493E+01  2.6701921047182E+01  3.0046689839116E+01 
 1.6673937760573E-08  3.3349151575301E-08  3.3353232946245E-08  3.3360131159895E-08  3.3369849220106E-08  3.3382389799009E-08  3.3397757411644E-08  3.3415956374571E-08  3.3436949031292E-08  1.6729320528428E-08 
 7.2440786946392E+03  1.4488157389278E+04  1.4488157389278E+04  1.4488157389278E+04  1.4488157389278E+04  1.4488157389278E+04  1.4488157389278E+04  1.4488157389278E+04  1.4488157389278E+04  7.2440786946392E+03 
 4.9259735123416E+04  9.8519470246832E+04  9.8519470246832E+04  9.8519470246832E+04  9.8519470246832E+04  9.8519470246832E+04  9.8519470246832E+04  9.8519470246832E+04  9.8519470246832E+04  4.9259735123416E+04 
 5.6503813818055E+04  1.1300762763611E+05  1.1300762763611E+05  1.1300762763611E+05  1.1300762763611E+05  1.1300762763611E+05  1.1300762763611E+05  1.1300762763611E+05  1.1300762763611E+05  5.6503813818055E+04 
 3.5000000000000E-01  3.5000000000000E-01  3.5000000000000E-01  3.5000000000000E-01  3.5000000000000E-01  3.5000000000000E-01  3.5000000000000E-01  3.5000000000000E-01  3.5000000000000E-01  3.5000000000000E-01 
 6.6040000000000E+00  1.3208000000000E+01  1.3208000000000E+01  1.3208000000000E+01  1.3208000000000E+01  1.3208000000000E+01  1.3208000000000E+01  1.3208000000000E+01  1.3208000000000E+01  6.6040000000000E+00 
-2.5248240097778E-01 -2.5249206219943E-01 -2.5252296294855E-01 -2.5257519048982E-01 -2.5264876756591E-01 -2.5274371440801E-01 -2.5286006520022E-01 -2.5299785262394E-01 -2.5315679157550E-01 -2.5332102556675E-01 
 3.3866666666667E-05  6.7733333333333E-05  6.7733333333334E-05  6.7733333333333E-05  6.7733333333334E-05  6.7733333333334E-05  6.7733333333333E-05  6.7733333333334E-05  6.7733333333333E-05  3.3866666666667E-05 
 2.6603001364262E+01  2.6603001364262E+01  2.6603001364262E+01  2.6603001364262E+01  2.6603001364262E+01  2.6603001364262E+01  2.6603001364262E+01  2.6603001364262E+01  2.6603001364262E+01  2.6603001364262E+01 
 1.7735334242833E+01  1.7735334242833E+01  1.7735334242833E+01  1.7735334242833E+01  1.7735334242833E+01  1.7735334242833E+01  1.7735334242833E+01  1.7735334242833E+01  1.7735334242833E+01  1.7735334242833E+01 
 2.1715955536646E-04  2.1717085082418E-04  2.1720670957367E-04  2.1726731898821E-04  2.1735270528637E-04  2.1746289517773E-04  2.1759793013525E-04  2.1775785301292E-04  2.1794243393257E-04  2.1811876495325E-04 
 2.1715955536646E+04  2.1717085082418E+04  2.1720670957367E+04  2.1726731898821E+04  2.1735270528637E+04  2.1746289517773E+04  2.1759793013525E+04  2.1775785301292E+04  2.1794243393257E+04  2.1811876495325E+04 
 8.6742575707801E-02  7.7148235233142E-02  5.9156424614214E-02  4.3558237361435E-02  3.0353843052826E-02  1.9544220681697E-02  1.1131160419554E-02  5.1172654928695E-03  1.5059553925995E-03  3.0142512790258E-04 
 5.3051901100333E-02  2.6527168422576E-01  9.0200002025328E-01  1.9634465577365E+00  3.4499644470084E+00  5.3620506211262E+00  7.7003461458631E+00  1.0465636649532E+01  1.3658850488455E+01  1.5362563079020E+01 
 2.1715815742170E+04  2.1716742662499E+04  2.1719709800922E+04  2.1724724894026E+04  2.1731790210347E+04  2.1740907922931E+04  2.1752081536219E+04  2.1765314547377E+04  2.1780583036814E+04  2.1796513630821E+04 
 9.8670215869552E+03  9.8674949019687E+03  9.8690118885647E+03  9.8715759876399E+03  9.8751883870798E+03  9.8798503225088E+03  9.8855636886055E+03  9.8923304661383E+03  9.9001409804947E+03  9.9084074943308E+03 
 1.1848794155214E+04  1.1849247760530E+04  1.1850697912358E+04  1.1853148906386E+04  1.1856601823267E+04  1.1861057600422E+04  1.1866517847613E+04  1.1872984081239E+04  1.1880442056319E+04  1.1888106136490E+04 
ZONE T = "CATH, 2.0000E-08", I = 10, SOLUTIONTIME = 2.000000E-08
ZONETYPE = ORDERED
DATAPACKING = BLOCK
STRANDID = 3
 1.2700000000000E-03  1.3377333333333E-03  1.4054666666667E-03  1.4732000000000E-03  1.5409333333333E-03  1.6086666666667E-03  1.6764000000000E-03  1.7441333333333E-03  1.8118666666667E-03  1.8796000000000E-03 
 1.9707593915747E-08  1.7391202823706E-08  1.5075617848373E-08  1.2759190541973E-08  1.0442814687927E-08  8.1244782065562E-09  5.8050743465704E-09  3.4844066563433E-09  1.1619236929867E-09  3.2827847901766E-22 
 9.2000000000075E-01  9.2000000000180E-01  9.2000000000180E-01  9.2000000000180E-01  9.2000000000180E-01  9.2000000000180E-01  9.2000000000180E-01  9.2000000000180E-01  9.2000000000180E-01  9.2000000000180E-01 
 3.9999999999625E-02  3.9999999999101E-02  3.9999999999101E-02  3.9999999999101E-02  3.9999999999101E-02  3.9999999999100E-02  3.9999999999100E-02  3.9999999999099E-02  3.9999999999099E-02  3.9999999999098E-02 
 3.9999999999625E-02  3.9999999999101E-02  3.9999999999101E-02  3.9999999999101E-02  3.9999999999101E-02  3.9999999999100E-02  3.9999999999100E-02  3.9999999999099E-02  3.9999999999099E-02  3.9999999999098E-02 
 2.9176216643590E-02  2.9176009591473E-02  2.9175826870459E-02  2.9175668483529E-02  2.9175534435716E-02  2.9175424734112E-02  2.9175339387868E-02  2.9175278408195E-02  2.9175241808375E-02  2.9175229603691E-02 
 3.8001746788358E+00  3.8001725234950E+00  3.8001660573061E+00  3.8001552797416E+00  3.8001401899096E+00  3.8001207865538E+00  3.8000970680529E+00  3.8000690324203E+00  3.8000366773036E+00  3.8000000000000E+00 
 2.9815000000046E+02  2.9815000823277E+02  2.9815000849981E+02  2.9815000848024E+02  2.9815000850682E+02  2.9815000843512E+02  2.9815000847829E+02  2.9815000709749E+02  2.9814995742312E+02  2.9814836185519E+02 
 3.7709984621922E+00  3.7709965139035E+00  3.7709902304357E+00  3.7709796112581E+00  3.7709646554739E+00  3.7709453618197E+00  3.7709217286651E+00  3.7708937540121E+00  3.7708614354952E+00  3.7708247703963E+00 
 3.9714142713281E+00  3.9714142646828E+00  3.9714142644672E+00  3.9714142644830E+00  3.9714142644616E+00  3.9714142645194E+00  3.9714142644846E+00  3.9714142655992E+00  3.9714143056956E+00  3.9714155936145E+00 
-2.0041580913594E-01 -2.0041775077929E-01 -2.0042403403154E-01 -2.0043465322492E-01 -2.0044960898766E-01 -2.0046890269976E-01 -2.0049253581952E-01 -2.0052051158702E-01 -2.0055287020038E-01 -2.0059082321824E-01 
-1.6675679410571E+00 -3.3352646219048E+00 -3.3356728938116E+00 -3.3363628695805E+00 -3.3373348702081E+00 -3.3385891855454E+00 -3.3401262957661E+00 -3.3419463119762E+00 -3.3440374018094E+00 -1.6730011395257E+00 
 1.4708132225535E-07  1.2979729302732E-07  1.1251138715433E-07  9.5221905745679E-08  7.7927387289921E-08  6.0626368814565E-08  4.3317384810992E-08  2.5998969244098E-08  8.6697173381718E-09  8.6697173381718E-09 
 3.0049903530928E+01  2.6714703279049E+01  2.3379234521339E+01  2.0043216639761E+01  1.6706367769676E+01  1.3368405741827E+01  1.0029048001293E+01  6.6880116972857E+00  3.3450198403445E+00  0.0000000000000E+00 
 0.0000000000000E+00  3.3352002518479E+00  6.6706690098756E+00  1.0006686891563E+01  1.3343535761443E+01  1.6681497789496E+01  2.0020855530008E+01  2.3361891833779E+01  2.6704883690690E+01  3.0049903531203E+01 
 3.3349617171144E-08  6.6701797794349E-08  6.6709961884361E-08  6.6723759855700E-08  6.6743197922186E-08  6.6768281654463E-08  6.6799020369305E-08  6.6835419494332E-08  6.6877323049386E-08  3.3459331923685E-08 
 7.2440786946558E+03  1.4488157389312E+04  1.4488157389312E+04  1.4488157389312E+04  1.4488157389312E+04  1.4488157389312E+04  1.4488157389312E+04  1.4488157389312E+04  1.4488157389312E+04  7.2440786946559E+03 
 4.9259735123400E+04  9.8519470246798E+04  9.8519470246799E+04  9.8519470246798E+04  9.8519470246799E+04  9.8519470246799E+04  9.8519470246798E+04  9.8519470246799E+04  9.8519470246798E+04  4.9259735123399E+04 
 5.6503813818055E+04  1.1300762763611E+05  1.1300762763611E+05  1.1300762763611E+05  1.1300762763611E+05  1.1300762763611E+05  1.1300762763611E+05  1.1300762763611E+05  1.1300762763611E+05  5.6503813818055E+04 
 3.5000000000000E-01  3.5000000000000E-01  3.5000000000000E-01  3.5000000000000E-01  3.5000000000000E-01  3.5000000000000E-01  3.5000000000000E-01  3.5000000000000E-01  3.5000000000000E-01  3.5000000000000E-01 
 6.6040000000000E+00  1.3208000000000E+01  1.3208000000000E+01  1.3208000000000E+01  1.3208000000000E+01  1.3208000000000E+01  1.3208000000000E+01  1.3208000000000E+01  1.3208000000000E+01  6.6040000000000E+00 
-2.5250877363069E-01 -2.5251852073780E-01 -2.5254943169379E-01 -2.5260167092523E-01 -2.5267526273532E-01 -2.5277022906915E-01 -2.5288660628150E-01 -2.5302440278438E-01 -2.5318272272936E-01 -2.5333148690576E-01 
 3.3866666666667E-05  6.7733333333333E-05  6.7733333333334E-05  6.7733333333333E-05  6.7733333333334E-05  6.7733333333334E-05  6.7733333333333E-05  6.7733333333334E-05  6.7733333333333E-05  3.3866666666667E-05 
 2.6603001364267E+01  2.6603001364267E+01  2.6603001364267E+01  2.6603001364267E+01  2.6603001364267E+01  2.6603001364267E+01  2.6603001364267E+01  2.6603001364267E+01  2.6603001364267E+01  2.6603001364267E+01 
 1.7735334242827E+01  1.7735334242827E+01  1.7735334242827E+01  1.7735334242827E+01  1.7735334242827E+01  1.7735334242827E+01  1.7735334242827E+01  1.7735334242827E+01  1.7735334242827E+01  1.7735334242827E+01 
 4.3434443449205E-04  4.3436710056087E-04  4.3443882922554E-04  4.3456006210967E-04  4.3473085300496E-04  4.3495125681917E-04  4.3522135838404E-04  4.3554122238134E-04  4.3590985971301E-04  4.3624912302518E-04 
 2.1718487912559E+04  2.1719624973669E+04  2.1723211965187E+04  2.1729274312146E+04  2.1737814771860E+04  2.1748836164144E+04  2.1762342824879E+04  2.1778336936842E+04  2.1796742578043E+04  2.1813035807193E+04 
 8.6761161453224E-02  7.7164730886625E-02  5.9169005132306E-02  4.3567433251619E-02  3.0360185398875E-02  1.9548241021593E-02  1.1133390984095E-02  5.1182396687441E-03  1.5062093395972E-03  3.0145350581078E-04 
 5.3063640192424E-02  2.6533049098164E-01  9.0220010191019E-01  1.9638822515247E+00  3.4507302329605E+00  5.3632411800312E+00  7.7020564342429E+00  1.0467961828430E+01  1.3661881396986E+01  1.5365968470456E+01 
 2.1718348087757E+04  2.1719282478447E+04  2.1722250596079E+04  2.1727266862461E+04  2.1734333681441E+04  2.1743453374723E+04  2.1754629635053E+04  2.1767863856774E+04  2.1783079190437E+04  2.1797669537269E+04 
 9.8683162853243E+03  9.8687928215089E+03  9.8703102990405E+03  9.8728750216213E+03  9.8764882351631E+03  9.8811512390631E+03  9.8868660088078E+03  9.8936336246276E+03  9.9014217370759E+03  9.9091144435922E+03 
 1.1850031802433E+04  1.1850489656938E+04  1.1851940297039E+04  1.1854391840840E+04  1.1857845446278E+04  1.1862302135660E+04  1.1867763626246E+04  1.1874230232147E+04  1.1881657453361E+04  1.1888555093677E+04 
ZONE T = "CATH, 3.0000E-08", I = 10, SOLUTIONTIME = 3.000000E-08
ZONETYPE = ORDERED
DATAPACKING = BLOCK
STRANDID = 3
 1.2700000000000E-03  1.3377333333333E-03  1.4054666666667E-03  1.4732000000000E-03  1.5409333333333E-03  1.6086666666667E-03  1.6764000000000E-03  1.7441333333333E-03  1.8118666666667E-03  1.8796000000000E-03 
 1.9712492072431E-08  1.7396584157789E-08  1.5079666208789E-08  1.2762269045725E-08  1.0444196765844E-08  8.1252533126464E-09  5.8056054804848E-09  3.4846938835737E-09  1.1627016536200E-09  1.0896231840908E-12 
 9.2000000000112E-01  9.2000000000270E-01  9.2000000000270E-01  9.2000000000270E-01  9.2000000000270E-01  9.2000000000270E-01  9.2000000000270E-01  9.2000000000270E-01  9.2000000000270E-01  9.2000000000271E-01 
 3.9999999999438E-02  3.9999999998652E-02  3.9999999998652E-02  3.9999999998651E-02  3.9999999998651E-02  3.9999999998650E-02  3.9999999998650E-02  3.9999999998649E-02  3.9999999998648E-02  3.9999999998647E-02 
 3.9999999999438E-02  3.9999999998652E-02  3.9999999998652E-02  3.9999999998651E-02  3.9999999998651E-02  3.9999999998650E-02  3.9999999998650E-02  3.9999999998649E-02  3.9999999998648E-02  3.9999999998647E-02 
 2.9181610167199E-02  2.9181403094149E-02  2.9181220354755E-02  2.9181061952003E-02  2.9180927890925E-02  2.9180818178616E-02  2.9180732824227E-02  2.9180671838974E-02  2.9180635236139E-02  2.9180623030930E-02 
 3.8001746971689E+00  3.8001725416024E+00  3.8001660747352E+00  3.8001552960393E+00  3.8001402046229E+00  3.8001207992292E+00  3.8000970782367E+00  3.8000690396584E+00  3.8000366811420E+00  3.8000000000000E+00 
 2.9815000000070E+02  2.9815001229589E+02  2.9815001285057E+02  2.9815001277741E+02  2.9815001286913E+02  2.9815001272270E+02  2.9815001267817E+02  2.9815000950106E+02  2.9814991357356E+02  2.9814759778638E+02 
 3.7709930870017E+00  3.7709911385083E+00  3.7709848543805E+00  3.7709742340873E+00  3.7709592767319E+00  3.7709399810505E+00  3.7709163454125E+00  3.7708883678194E+00  3.7708560459058E+00  3.7708193769691E+00 
 3.9714142713277E+00  3.9714142614027E+00  3.9714142609550E+00  3.9714142610140E+00  3.9714142609400E+00  3.9714142610582E+00  3.9714142610941E+00  3.9714142636587E+00  3.9714143410900E+00  3.9714162103585E+00 
-2.0042118432604E-01 -2.0042312289444E-01 -2.0042940657453E-01 -2.0044002692670E-01 -2.0045498420807E-01 -2.0047428000766E-01 -2.0049791568166E-01 -2.0052589583924E-01 -2.0055829518416E-01 -2.0059683338943E-01 
-1.6677425305870E+00 -3.3356149040816E+00 -3.3360233378894E+00 -3.3367134443119E+00 -3.3376856662999E+00 -3.3389402252641E+00 -3.3404776351317E+00 -3.3422975570278E+00 -3.3443768027375E+00 -1.6730753686866E+00 
 1.4709631119292E-07  1.2981034721268E-07  1.1252262530263E-07  9.5231327183992E-08  7.7934990879782E-08  6.0632153281839E-08  4.3321348605208E-08  2.6001112861185E-08  8.6701021135754E-09  8.6701021135754E-09 
 3.0052947471992E+01  2.6717397489362E+01  2.3381578368555E+01  2.0045209977347E+01  1.6708010421990E+01  1.3369697476199E+01  1.0029988545947E+01  6.6886009500829E+00  3.3452637701118E+00  0.0000000000000E+00 
 0.0000000000000E+00  3.3355499827126E+00  6.6713691036349E+00  1.0007737494757E+01  1.3344937049989E+01  1.6683249995659E+01  2.0022958925910E+01  2.3364346522152E+01  2.6707683702039E+01  3.0052947471989E+01 
 5.0027042477013E-08  1.0005794683516E-07  1.0007019526326E-07  1.0009089429882E-07  1.0012005458519E-07  1.0015768390710E-07  1.0020379672062E-07  1.0025839506461E-07  1.0032109107676E-07  5.0190085610550E-08 
 7.2440786946725E+03  1.4488157389345E+04  1.4488157389345E+04  1.4488157389345E+04  1.4488157389345E+04  1.4488157389345E+04  1.4488157389345E+04  1.4488157389345E+04  1.4488157389345E+04  7.2440786946727E+03 
 4.9259735123383E+04  9.8519470246765E+04  9.8519470246766E+04  9.8519470246765E+04  9.8519470246766E+04  9.8519470246766E+04  9.8519470246765E+04  9.8519470246765E+04  9.8519470246765E+04  4.9259735123383E+04 
 5.6503813818055E+04  1.1300762763611E+05  1.1300762763611E+05  1.1300762763611E+05  1.1300762763611E+05  1.1300762763611E+05  1.1300762763611E+05  1.1300762763611E+05  1.1300762763611E+05  5.6503813818055E+04 
 3.5000000000000E-01  3.5000000000000E-01  3.5000000000000E-01  3.5000000000000E-01  3.5000000000000E-01  3.5000000000000E-01  3.5000000000000E-01  3.5000000000000E-01  3.5000000000000E-01  3.5000000000000E-01 
 6.6040000000000E+00  1.3208000000000E+01  1.3208000000000E+01  1.3208000000000E+01  1.3208000000000E+01  1.3208000000000E+01  1.3208000000000E+01  1.3208000000000E+01  1.3208000000000E+01  6.6040000000000E+00 
-2.5253521056738E-01 -2.5254504119334E-01 -2.5257596440713E-01 -2.5262821353058E-01 -2.5270182210023E-01 -2.5279680687947E-01 -2.5291320677859E-01 -2.5305099614081E-01 -2.5320841934718E-01 -2.5334272693619E-01 
 3.3866666666667E-05  6.7733333333333E-05  6.7733333333334E-05  6.7733333333333E-05  6.7733333333334E-05  6.7733333333334E-05  6.7733333333333E-05  6.7733333333334E-05  6.7733333333333E-05  3.3866666666667E-05 
 2.6603001364272E+01  2.6603001364272E+01  2.6603001364272E+01  2.6603001364272E+01  2.6603001364272E+01  2.6603001364272E+01  2.6603001364272E+01  2.6603001364272E+01  2.6603001364272E+01  2.6603001364272E+01 
 1.7735334242822E+01  1.7735334242822E+01  1.7735334242822E+01  1.7735334242822E+01  1.7735334242822E+01  1.7735334242822E+01  1.7735334242822E+01  1.7735334242822E+01  1.7735334242822E+01  1.7735334242822E+01 
 6.5155469936364E-04  6.5158880911953E-04  6.5169642055322E-04  6.5187828925368E-04  6.5213450458778E-04  6.5246514517490E-04  6.5287034142363E-04  6.5335015032237E-04  6.5390207835731E-04  6.5439175274941E-04 
 2.1721026487159E+04  2.1722170855867E+04  2.1725759132769E+04  2.1731822714400E+04  2.1740365158281E+04  2.1751388835572E+04  2.1764898303959E+04  2.1780892794102E+04  2.1799221864430E+04  2.1814262972422E+04 
 8.6778705411603E-02  7.7180299258423E-02  5.9180873237876E-02  4.3576103422663E-02  3.0366160530685E-02  1.9552024333995E-02  1.1135486305972E-02  5.1191517727340E-03  1.5064459316228E-03  3.0147984828589E-04 
 5.3074752003745E-02  2.6538615662640E-01  9.0238949704790E-01  1.9642946588556E+00  3.4514550469671E+00  5.3643679485143E+00  7.7036748926096E+00  1.0470161733414E+01  1.3664746090007E+01  1.5369184810446E+01 
 2.1720886633701E+04  2.1721828289411E+04  2.1724797562398E+04  2.1729814843638E+04  2.1736883337074E+04  2.1746004915599E+04  2.1757183493580E+04  2.1770417513217E+04  2.1785555611894E+04  2.1798893486132E+04 
 9.8696141672644E+03  9.8700938363717E+03  9.8716118789311E+03  9.8741771549044E+03  9.8777912529128E+03  9.8824552802568E+03  9.8881713074716E+03  9.8949391503731E+03  9.9026945375705E+03  9.9098510132145E+03 
 1.1851272466437E+04  1.1851734453039E+04  1.1853185683467E+04  1.1855637688734E+04  1.1859092084161E+04  1.1863549635343E+04  1.1869012186108E+04  1.1875478362844E+04  1.1882861074324E+04  1.1889042472918E+04 
ZONE T = "CATH, 4.0000E-08", I = 10, SOLUTIONTIME = 4.000000E-08
ZONETYPE = ORDERED
DATAPACKING = BLOCK
STRANDID = 3
 1.2700000000000E-03  1.3377333333333E-03  1.4054666666667E-03  1.4732000000000E-03  1.5409333333333E-03  1.6086666666667E-03  1.6764000000000E-03  1.7441333333333E-03  1.8118666666667E-03  1.8796000000000E-03 
 1.9710131210259E-08  1.7393253093908E-08  1.5076091246629E-08  1.2759176507339E-08  1.0441586487143E-08  8.1231251045118E-09  5.8025063173870E-09  3.4813504833653E-09  1.1591244886491E-09 -2.9056618222895E-12 
 9.2000000000150E-01  9.2000000000360E-01  9.2000000000360E-01  9.2000000000360E-01  9.2000000000360E-01  9.2000000000360E-01  9.2000000000360E-01  9.2000000000360E-01  9.2000000000360E-01  9.2000000000361E-01 
 3.9999999999251E-02  3.9999999998202E-02  3.9999999998202E-02  3.9999999998202E-02  3.9999999998201E-02  3.9999999998201E-02  3.9999999998200E-02  3.9999999998199E-02  3.9999999998198E-02  3.9999999998197E-02 
 3.9999999999251E-02  3.9999999998202E-02  3.9999999998202E-02  3.9999999998202E-02  3.9999999998201E-02  3.9999999998201E-02  3.9999999998200E-02  3.9999999998199E-02  3.9999999998198E-02  3.9999999998197E-02 
 2.9187015497088E-02  2.9186808403050E-02  2.9186625645229E-02  2.9186467226611E-02  2.9186333152232E-02  2.9186223429187E-02  2.9186138066629E-02  2.9186077075777E-02  2.9186040469913E-02  2.9186028264143E-02 
 3.8001747155385E+00  3.8001725597458E+00  3.8001660921987E+00  3.8001553123689E+00  3.8001402193644E+00  3.8001208119282E+00  3.8000970884384E+00  3.8000690469076E+00  3.8000366849842E+00  3.8000000000000E+00 