TITLE = "Solution on Domain BulkDomain1D_0"
VARIABLES = "x [m]"  
"Vel_axial" 
"MF_sp(ECDMC)" 
"MF_sp(Li+)" 
"MF_sp(PF6-)" 
"Volt(Electroly)" 
"Volt(AnodeVolt)" 
"Temperature" 
"Potential Drop Electrode-Electrolyte [V]" 
"Surf_0 Equilibrium Potential Drop Electrode-Electrolyte [V]" 
"Overpotential_0 [V]" 
"Current Source [A/m^2]" 
"Li+ flux [kmol/m^2/s]" 
"Electrolyte Current [A/m^2]" 
"Electrode Current [A/m^2]" 
"CV Capacity discharged [A-s/m^2]" 
"Depth of discharge in CV [A-s/m^2]" 
"CV Capacity remaining [A-s/m^2]" 
"Initial CV capacity [A-s/m^2]" 
"Porosity []" 
"Surface Area [m2/m2] (area per area)" 
"Specific current (per particle area) [A/m^2]" 
"Control volume thickness [m]" 
"MoleDens Li_C6-bulk [kmol/m^3]" 
"MoleDens V_C6-bulk [kmol/m^3]" 
"qHeat_accum [J/m3]" 
"qHeat_step [W/m3]" 
"Joule_Lyte [W/m3]" 
"Joule_Solid [W/m3]" 
"electrodHeat [W/m3]" 
"OverpotHeat [W/m3]" 
"deltaSHeat [W/m3]" 

ZONE T = "ANOD, 0.0000E+00", I = 10, SOLUTIONTIME = 0.000000E+00
ZONETYPE = ORDERED
DATAPACKING = BLOCK
STRANDID = 1
 0.0000000000000E+00  8.7488888888889E-05  1.7497777777778E-04  2.6246666666667E-04  3.4995555555556E-04  4.3744444444444E-04  5.2493333333333E-04  6.1242222222222E-04  6.9991111111111E-04  7.8740000000000E-04 
 0.0000000000000E+00  0.0000000000000E+00  0.0000000000000E+00  0.0000000000000E+00  0.0000000000000E+00  0.0000000000000E+00  0.0000000000000E+00  0.0000000000000E+00  0.0000000000000E+00  0.0000000000000E+00 
 9.2000000000000E-01  9.2000000000000E-01  9.2000000000000E-01  9.2000000000000E-01  9.2000000000000E-01  9.2000000000000E-01  9.2000000000000E-01  9.2000000000000E-01  9.2000000000000E-01  9.2000000000000E-01 
 4.0000000000000E-02  4.0000000000000E-02  4.0000000000000E-02  4.0000000000000E-02  4.0000000000000E-02  4.0000000000000E-02  4.0000000000000E-02  4.0000000000000E-02  4.0000000000000E-02  4.0000000000000E-02 
 4.0000000000000E-02  4.0000000000000E-02  4.0000000000000E-02  4.0000000000000E-02  4.0000000000000E-02  4.0000000000000E-02  4.0000000000000E-02  4.0000000000000E-02  4.0000000000000E-02  4.0000000000000E-02 
-7.0000000000000E-02 -7.0000000000000E-02 -7.0000000000000E-02 -7.0000000000000E-02 -7.0000000000000E-02 -7.0000000000000E-02 -7.0000000000000E-02 -7.0000000000000E-02 -7.0000000000000E-02 -7.0000000000000E-02 
 0.0000000000000E+00  0.0000000000000E+00  0.0000000000000E+00  0.0000000000000E+00  0.0000000000000E+00  0.0000000000000E+00  0.0000000000000E+00  0.0000000000000E+00  0.0000000000000E+00  0.0000000000000E+00 
 2.9815000000000E+02  2.9815000000000E+02  2.9815000000000E+02  2.9815000000000E+02  2.9815000000000E+02  2.9815000000000E+02  2.9815000000000E+02  2.9815000000000E+02  2.9815000000000E+02  2.9815000000000E+02 
 7.0000000000000E-02  7.0000000000000E-02  7.0000000000000E-02  7.0000000000000E-02  7.0000000000000E-02  7.0000000000000E-02  7.0000000000000E-02  7.0000000000000E-02  7.0000000000000E-02  7.0000000000000E-02 
-4.0906712753391E-02 -4.0906712753391E-02 -4.0906712753391E-02 -4.0906712753391E-02 -4.0906712753391E-02 -4.0906712753391E-02 -4.0906712753391E-02 -4.0906712753391E-02 -4.0906712753391E-02 -4.0906712753391E-02 
 1.1090671275339E-01  1.1090671275339E-01  1.1090671275339E-01  1.1090671275339E-01  1.1090671275339E-01  1.1090671275339E-01  1.1090671275339E-01  1.1090671275339E-01  1.1090671275339E-01  1.1090671275339E-01 
 3.0930240924008E+01  6.1860481848017E+01  6.1860481848017E+01  6.1860481848017E+01  6.1860481848017E+01  6.1860481848017E+01  6.1860481848017E+01  6.1860481848017E+01  6.1860481848017E+01  3.0930240924008E+01 
-0.0000000000000E+00 -0.0000000000000E+00 -0.0000000000000E+00 -0.0000000000000E+00 -0.0000000000000E+00 -0.0000000000000E+00 -0.0000000000000E+00 -0.0000000000000E+00 -0.0000000000000E+00 -0.0000000000000E+00 
 0.0000000000000E+00  0.0000000000000E+00  0.0000000000000E+00  0.0000000000000E+00  0.0000000000000E+00  0.0000000000000E+00  0.0000000000000E+00  0.0000000000000E+00  0.0000000000000E+00  3.0930240924008E+01 
 3.0930240924008E+01 -0.0000000000000E+00 -0.0000000000000E+00 -0.0000000000000E+00 -0.0000000000000E+00 -0.0000000000000E+00 -0.0000000000000E+00 -0.0000000000000E+00 -0.0000000000000E+00  0.0000000000000E+00 
 0.0000000000000E+00  0.0000000000000E+00  0.0000000000000E+00  0.0000000000000E+00  0.0000000000000E+00  0.0000000000000E+00  0.0000000000000E+00  0.0000000000000E+00  0.0000000000000E+00  0.0000000000000E+00 
 4.5724222271641E+04  9.1448444543281E+04  9.1448444543281E+04  9.1448444543281E+04  9.1448444543281E+04  9.1448444543281E+04  9.1448444543281E+04  9.1448444543281E+04  9.1448444543281E+04  4.5724222271641E+04 
 3.3835924481014E+05  6.7671848962028E+05  6.7671848962028E+05  6.7671848962028E+05  6.7671848962028E+05  6.7671848962028E+05  6.7671848962028E+05  6.7671848962028E+05  6.7671848962028E+05  3.3835924481014E+05 
 3.8408346708178E+05  7.6816693416356E+05  7.6816693416356E+05  7.6816693416356E+05  7.6816693416356E+05  7.6816693416356E+05  7.6816693416356E+05  7.6816693416356E+05  7.6816693416356E+05  3.8408346708178E+05 
 3.5000000000000E-01  3.5000000000000E-01  3.5000000000000E-01  3.5000000000000E-01  3.5000000000000E-01  3.5000000000000E-01  3.5000000000000E-01  3.5000000000000E-01  3.5000000000000E-01  3.5000000000000E-01 
 8.5301666666667E+00  1.7060333333333E+01  1.7060333333333E+01  1.7060333333333E+01  1.7060333333333E+01  1.7060333333333E+01  1.7060333333333E+01  1.7060333333333E+01  1.7060333333333E+01  8.5301666666667E+00 
 3.6259831879809E+00  3.6259831879809E+00  3.6259831879809E+00  3.6259831879809E+00  3.6259831879809E+00  3.6259831879809E+00  3.6259831879809E+00  3.6259831879809E+00  3.6259831879809E+00  3.6259831879809E+00 
 4.3744444444444E-05  8.7488888888889E-05  8.7488888888889E-05  8.7488888888889E-05  8.7488888888889E-05  8.7488888888889E-05  8.7488888888889E-05  8.7488888888889E-05  8.7488888888889E-05  4.3744444444444E-05 
 8.6666666666667E+01  8.6666666666667E+01  8.6666666666667E+01  8.6666666666667E+01  8.6666666666667E+01  8.6666666666667E+01  8.6666666666667E+01  8.6666666666667E+01  8.6666666666667E+01  8.6666666666667E+01 
 2.1666666666667E+01  2.1666666666667E+01  2.1666666666667E+01  2.1666666666667E+01  2.1666666666667E+01  2.1666666666667E+01  2.1666666666667E+01  2.1666666666667E+01  2.1666666666667E+01  2.1666666666667E+01 
 0.0000000000000E+00  0.0000000000000E+00  0.0000000000000E+00  0.0000000000000E+00  0.0000000000000E+00  0.0000000000000E+00  0.0000000000000E+00  0.0000000000000E+00  0.0000000000000E+00  0.0000000000000E+00 
 0.0000000000000E+00  0.0000000000000E+00  0.0000000000000E+00  0.0000000000000E+00  0.0000000000000E+00  0.0000000000000E+00  0.0000000000000E+00  0.0000000000000E+00  0.0000000000000E+00  0.0000000000000E+00 
 0.0000000000000E+00  0.0000000000000E+00  0.0000000000000E+00  0.0000000000000E+00  0.0000000000000E+00  0.0000000000000E+00  0.0000000000000E+00  0.0000000000000E+00  0.0000000000000E+00  0.0000000000000E+00 
 0.0000000000000E+00  0.0000000000000E+00  0.0000000000000E+00  0.0000000000000E+00  0.0000000000000E+00  0.0000000000000E+00  0.0000000000000E+00  0.0000000000000E+00  0.0000000000000E+00  0.0000000000000E+00 
 0.0000000000000E+00  0.0000000000000E+00  0.0000000000000E+00  0.0000000000000E+00  0.0000000000000E+00  0.0000000000000E+00  0.0000000000000E+00  0.0000000000000E+00  0.0000000000000E+00  0.0000000000000E+00 
 0.0000000000000E+00  0.0000000000000E+00  0.0000000000000E+00  0.0000000000000E+00  0.0000000000000E+00  0.0000000000000E+00  0.0000000000000E+00  0.0000000000000E+00  0.0000000000000E+00  0.0000000000000E+00 
 0.0000000000000E+00  0.0000000000000E+00  0.0000000000000E+00  0.0000000000000E+00  0.0000000000000E+00  0.0000000000000E+00  0.0000000000000E+00  0.0000000000000E+00  0.0000000000000E+00  0.0000000000000E+00 
ZONE T = "ANOD, 1.0000E-08", I = 10, SOLUTIONTIME = 1.000000E-08
ZONETYPE = ORDERED
DATAPACKING = BLOCK
STRANDID = 1
 0.0000000000000E+00  8.7488888888889E-05  1.7497777777778E-04  2.6246666666667E-04  3.4995555555556E-04  4.3744444444444E-04  5.2493333333333E-04  6.1242222222222E-04  6.9991111111111E-04  7.8740000000000E-04 
 1.1699574804525E-09  3.4871529634201E-09  5.8040699354876E-09  8.1209982368521E-09  1.0437948083247E-08  1.2754925896091E-08  1.5072301236457E-08  1.7389354210266E-08  1.9706454401754E-08  2.0865758103848E-08 
 9.1999999999930E-01  9.1999999999930E-01  9.1999999999930E-01  9.1999999999930E-01  9.1999999999930E-01  9.1999999999930E-01  9.1999999999930E-01  9.1999999999930E-01  9.1999999999930E-01  9.1999999999971E-01 
 4.0000000000352E-02  4.0000000000348E-02  4.0000000000348E-02  4.0000000000348E-02  4.0000000000348E-02  4.0000000000348E-02  4.0000000000348E-02  4.0000000000348E-02  4.0000000000348E-02  4.0000000000144E-02 
 4.0000000000352E-02  4.0000000000348E-02  4.0000000000348E-02  4.0000000000348E-02  4.0000000000348E-02  4.0000000000348E-02  4.0000000000348E-02  4.0000000000348E-02  4.0000000000348E-02  4.0000000000144E-02 
 2.9172734224030E-02  2.9172718346827E-02  2.9172671027349E-02  2.9172592268177E-02  2.9172482069110E-02  2.9172340429855E-02  2.9172167350032E-02  2.9171962829177E-02  2.9171726866733E-02  2.9171459462062E-02 
 0.0000000000000E+00 -4.7349891846759E-09 -8.9128797883975E-09 -1.2533738770569E-08 -1.5597563407407E-08 -1.8104348519071E-08 -2.0054087381886E-08 -2.1446771744676E-08 -2.2282391788468E-08 -2.2560936161219E-08 
 2.9819800355295E+02  2.9815060802809E+02  2.9815000634027E+02  2.9814999845538E+02  2.9814999850468E+02  2.9814999854124E+02  2.9814999842578E+02  2.9814999850245E+02  2.9814999847447E+02  2.9814999999981E+02 
-2.9172734224030E-02 -2.9172723081817E-02 -2.9172679940229E-02 -2.9172604801915E-02 -2.9172497666673E-02 -2.9172358534203E-02 -2.9172187404120E-02 -2.9171984275948E-02 -2.9171749149125E-02 -2.9171482022998E-02 
-4.0940234605246E-02 -4.0907137339071E-02 -4.0906717180494E-02 -4.0906711674482E-02 -4.0906711708908E-02 -4.0906711734443E-02 -4.0906711653814E-02 -4.0906711707354E-02 -4.0906711687814E-02 -4.0906712753094E-02 
 1.1767500381216E-02  1.1734414257255E-02  1.1734037240265E-02  1.1734106872566E-02  1.1734214042235E-02  1.1734353200240E-02  1.1734524249695E-02  1.1734727431406E-02  1.1734962538688E-02  1.1735230730097E-02 
 1.6848429964619E+00  3.3369679273409E+00  3.3365668459605E+00  3.3365831622971E+00  3.3366141876942E+00  3.3366544603531E+00  3.3367038846590E+00  3.3367626973183E+00  3.3368306945306E+00  1.6684545080630E+00 
 8.7310271808149E-09  2.6023529584832E-08  4.3313954738992E-08  6.0604464447122E-08  7.7895134938506E-08  9.5186014141960E-08  1.1247714945572E-07  1.2976858955825E-07  1.4706045412213E-07  1.4706045412213E-07 
 0.0000000000000E+00  3.3533049853651E+00  6.6900505032226E+00  1.0026603639670E+01  1.3363180446607E+01  1.6699792904055E+01  2.0036450210198E+01  2.3373161635095E+01  2.6709936466591E+01  3.0046795389987E+01 
 3.0046795494206E+01  2.6693479469261E+01  2.3356733951234E+01  2.0020180814602E+01  1.6683604007146E+01  1.3346991549452E+01  1.0010334243082E+01  6.6736228178238E+00  3.3368479867850E+00  0.0000000000000E+00 
 1.6848429964619E-08  3.3369679273409E-08  3.3365668459605E-08  3.3365831622971E-08  3.3366141876942E-08  3.3366544603531E-08  3.3367038846590E-08  3.3367626973183E-08  3.3368306945306E-08  1.6684545080630E-08 
 4.5724222271657E+04  9.1448444543315E+04  9.1448444543315E+04  9.1448444543315E+04  9.1448444543315E+04  9.1448444543315E+04  9.1448444543315E+04  9.1448444543315E+04  9.1448444543315E+04  4.5724222271657E+04 
 3.3835924481012E+05  6.7671848962025E+05  6.7671848962025E+05  6.7671848962025E+05  6.7671848962025E+05  6.7671848962025E+05  6.7671848962025E+05  6.7671848962025E+05  6.7671848962025E+05  3.3835924481012E+05 
 3.8408346708178E+05  7.6816693416356E+05  7.6816693416356E+05  7.6816693416356E+05  7.6816693416356E+05  7.6816693416356E+05  7.6816693416356E+05  7.6816693416356E+05  7.6816693416356E+05  3.8408346708178E+05 
 3.5000000000000E-01  3.5000000000000E-01  3.5000000000000E-01  3.5000000000000E-01  3.5000000000000E-01  3.5000000000000E-01  3.5000000000000E-01  3.5000000000000E-01  3.5000000000000E-01  3.5000000000000E-01 
 8.5301666666667E+00  1.7060333333333E+01  1.7060333333333E+01  1.7060333333333E+01  1.7060333333333E+01  1.7060333333333E+01  1.7060333333333E+01  1.7060333333333E+01  1.7060333333333E+01  8.5301666666667E+00 
 1.9751583553997E-01  1.9559804970639E-01  1.9557454012000E-01  1.9557549651026E-01  1.9557731507947E-01  1.9557967568159E-01  1.9558257271208E-01  1.9558602004562E-01  1.9559000573634E-01  1.9559459659596E-01 
 4.3744444444444E-05  8.7488888888889E-05  8.7488888888889E-05  8.7488888888889E-05  8.7488888888889E-05  8.7488888888889E-05  8.7488888888889E-05  8.7488888888889E-05  8.7488888888889E-05  4.3744444444444E-05 
 8.6666666666663E+01  8.6666666666663E+01  8.6666666666663E+01  8.6666666666663E+01  8.6666666666663E+01  8.6666666666663E+01  8.6666666666663E+01  8.6666666666663E+01  8.6666666666663E+01  8.6666666666663E+01 
 2.1666666666671E+01  2.1666666666671E+01  2.1666666666671E+01  2.1666666666671E+01  2.1666666666671E+01  2.1666666666671E+01  2.1666666666671E+01  2.1666666666671E+01  2.1666666666671E+01  2.1666666666671E+01 
-7.5673993206284E-05 -7.4934605476199E-05 -7.4925490904343E-05 -7.4925770568043E-05 -7.4926344699680E-05 -7.4927089874493E-05 -7.4928003929604E-05 -7.4929092211238E-05 -7.4930350110773E-05 -7.4931911367873E-05 
-7.5673993206284E+03 -7.4934605476199E+03 -7.4925490904343E+03 -7.4925770568043E+03 -7.4926344699680E+03 -7.4927089874493E+03 -7.4928003929604E+03 -7.4929092211238E+03 -7.4930350110773E+03 -7.4931911367873E+03 
 3.0575789197340E-04  1.5109252040779E-03  5.1202074289769E-03  1.1127469801141E-02  1.9532837416047E-02  3.0336402114091E-02  4.3538280394371E-02  5.9138615683700E-02  7.7137578182775E-02  8.6736739130294E-02 
 1.5349782131039E-03  1.3650034914916E-03  1.0463191502669E-03  7.7014273509751E-04  5.3645185814735E-04  3.4524679607795E-04  1.9652855907499E-04  9.0298625135345E-05  2.6558942845570E-05  5.3119381686560E-06 
-7.5674011613645E+03 -7.4934634235486E+03 -7.4925552569608E+03 -7.4925889544168E+03 -7.4926545392573E+03 -7.4927396690982E+03 -7.4928441277694E+03 -7.4929684500381E+03 -7.4931121752145E+03 -7.4932778788384E+03 
 4.5323219566119E+02  4.4756956592586E+02  4.4750139272660E+02  4.4750623666131E+02  4.4751448501343E+02  4.4752519368957E+02  4.4753834625852E+02  4.4755398376114E+02  4.4757207110881E+02  4.4759280552322E+02 
-8.0206333570257E+03 -7.9410329894745E+03 -7.9400566496875E+03 -7.9400951910781E+03 -7.9401690242707E+03 -7.9402648627877E+03 -7.9403824740279E+03 -7.9405224337993E+03 -7.9406842463233E+03 -7.9408706843616E+03 
ZONE T = "ANOD, 2.0000E-08", I = 10, SOLUTIONTIME = 2.000000E-08
ZONETYPE = ORDERED
DATAPACKING = BLOCK
STRANDID = 1
 0.0000000000000E+00  8.7488888888889E-05  1.7497777777778E-04  2.6246666666667E-04  3.4995555555556E-04  4.3744444444444E-04  5.2493333333333E-04  6.1242222222222E-04  6.9991111111111E-04  7.8740000000000E-04 
 1.1806862522478E-09  3.4973808340988E-09  5.8132418111302E-09  8.1291035857710E-09  1.0444986739329E-08  1.2760897932191E-08  1.5076843392505E-08  1.7392829725459E-08  1.9708863242090E-08  2.0866907566072E-08 
 9.1999999999859E-01  9.1999999999861E-01  9.1999999999861E-01  9.1999999999861E-01  9.1999999999861E-01  9.1999999999861E-01  9.1999999999861E-01  9.1999999999861E-01  9.1999999999861E-01  9.1999999999942E-01 
 4.0000000000706E-02  4.0000000000696E-02  4.0000000000696E-02  4.0000000000696E-02  4.0000000000696E-02  4.0000000000696E-02  4.0000000000696E-02  4.0000000000696E-02  4.0000000000696E-02  4.0000000000288E-02 
 4.0000000000706E-02  4.0000000000696E-02  4.0000000000696E-02  4.0000000000696E-02  4.0000000000696E-02  4.0000000000696E-02  4.0000000000696E-02  4.0000000000696E-02  4.0000000000696E-02  4.0000000000288E-02 
 2.9178117169429E-02  2.9178101145344E-02  2.9178053686981E-02  2.9177974803347E-02  2.9177864494294E-02  2.9177722759528E-02  2.9177549598668E-02  2.9177345011249E-02  2.9177108996717E-02  2.9176841554430E-02 
 0.0000000000000E+00 -4.7329480999308E-09 -8.9089180452173E-09 -1.2528110250570E-08 -1.5590524524229E-08 -1.8096155726288E-08 -2.0044997115557E-08 -2.1437040453479E-08 -2.2272275913480E-08 -2.2550692151693E-08 
 2.9824461134183E+02  2.9815179254484E+02  2.9815002739349E+02  2.9814999737763E+02  2.9814999703463E+02  2.9814999718643E+02  2.9814999692688E+02  2.9814999704601E+02  2.9814999692702E+02  2.9814999999963E+02 
-2.9178117169429E-02 -2.9178105878293E-02 -2.9178062595899E-02 -2.9177987331457E-02 -2.9177880084819E-02 -2.9177740855683E-02 -2.9177569643665E-02 -2.9177366448289E-02 -2.9177131268993E-02 -2.9176864105122E-02 
-4.0972783654031E-02 -4.0907964487661E-02 -4.0906731881660E-02 -4.0906710921588E-02 -4.0906710682079E-02 -4.0906710788078E-02 -4.0906710606838E-02 -4.0906710690020E-02 -4.0906710606934E-02 -4.0906712752794E-02 
 1.1794666484603E-02  1.1729858609368E-02  1.1728669285760E-02  1.1728723590131E-02  1.1728830597261E-02  1.1728969932395E-02  1.1729140963173E-02  1.1729344241731E-02  1.1729579337941E-02  1.1729848647672E-02 
 1.7002822431364E+00  3.3362247194608E+00  3.3350242621280E+00  3.3350254107472E+00  3.3350561980924E+00  3.3350965769198E+00  3.3351459247837E+00  3.3352047846396E+00  3.3352727328966E+00  1.6676760632006E+00 
 8.8110950162392E-09  2.6099857026222E-08  4.3382401575247E-08  6.0664952130577E-08  7.7947662231654E-08  9.5230581581165E-08  1.1251375665379E-07  1.2979723675479E-07  1.4708121310269E-07  1.4708121310269E-07 
 0.0000000000000E+00  3.3683946030546E+00  6.7040190938265E+00  1.0039043930252E+01  1.3374084734715E+01  1.6709161122192E+01  2.0044282373041E+01  2.3379457727749E+01  2.6714696486434E+01  3.0050008916018E+01 
 3.0050008916000E+01  2.6681614313132E+01  2.3345989822338E+01  2.0010964985901E+01  1.6675924181482E+01  1.3340847793976E+01  1.0005726543124E+01  6.6705511884133E+00  3.3353124296472E+00  0.0000000000000E+00 
 3.3851252395983E-08  6.6731926468017E-08  6.6715911080885E-08  6.6716085730444E-08  6.6716703857866E-08  6.6717510372729E-08  6.6718498094427E-08  6.6719674819579E-08  6.6721034274272E-08  3.3361305712636E-08 
 4.5724222271674E+04  9.1448444543348E+04  9.1448444543348E+04  9.1448444543348E+04  9.1448444543348E+04  9.1448444543348E+04  9.1448444543348E+04  9.1448444543348E+04  9.1448444543348E+04  4.5724222271674E+04 
 3.3835924481011E+05  6.7671848962021E+05  6.7671848962021E+05  6.7671848962021E+05  6.7671848962021E+05  6.7671848962021E+05  6.7671848962021E+05  6.7671848962021E+05  6.7671848962021E+05  3.3835924481011E+05 
 3.8408346708178E+05  7.6816693416356E+05  7.6816693416356E+05  7.6816693416356E+05  7.6816693416356E+05  7.6816693416356E+05  7.6816693416356E+05  7.6816693416356E+05  7.6816693416356E+05  3.8408346708178E+05 
 3.5000000000000E-01  3.5000000000000E-01  3.5000000000000E-01  3.5000000000000E-01  3.5000000000000E-01  3.5000000000000E-01  3.5000000000000E-01  3.5000000000000E-01  3.5000000000000E-01  3.5000000000000E-01 
 8.5301666666667E+00  1.7060333333333E+01  1.7060333333333E+01  1.7060333333333E+01  1.7060333333333E+01  1.7060333333333E+01  1.7060333333333E+01  1.7060333333333E+01  1.7060333333333E+01  8.5301666666667E+00 
 1.9932579392389E-01  1.9555448620352E-01  1.9548412079451E-01  1.9548418812141E-01  1.9548599273710E-01  1.9548835956233E-01  1.9549125211213E-01  1.9549470221213E-01  1.9549868503331E-01  1.9550333872343E-01 
 4.3744444444444E-05  8.7488888888889E-05  8.7488888888889E-05  8.7488888888889E-05  8.7488888888889E-05  8.7488888888889E-05  8.7488888888889E-05  8.7488888888889E-05  8.7488888888889E-05  4.3744444444444E-05 
 8.6666666666659E+01  8.6666666666659E+01  8.6666666666659E+01  8.6666666666659E+01  8.6666666666659E+01  8.6666666666659E+01  8.6666666666659E+01  8.6666666666659E+01  8.6666666666659E+01  8.6666666666659E+01 
 2.1666666666675E+01  2.1666666666675E+01  2.1666666666675E+01  2.1666666666675E+01  2.1666666666675E+01  2.1666666666675E+01  2.1666666666675E+01  2.1666666666675E+01  2.1666666666675E+01  2.1666666666675E+01 
-1.5204814993830E-04 -1.4985468936735E-04 -1.4981839542305E-04 -1.4981861188930E-04 -1.4981975471699E-04 -1.4982124744986E-04 -1.4982307385672E-04 -1.4982525155080E-04 -1.4982776634790E-04 -1.4983091319202E-04 
-7.6374156732014E+03 -7.4920083891150E+03 -7.4892904518703E+03 -7.4892841321260E+03 -7.4893410017314E+03 -7.4894157575364E+03 -7.4895069927111E+03 -7.4896159339561E+03 -7.4897416237130E+03 -7.4899001824149E+03 
 6.1717418806707E-04  3.0326603941625E-03  1.0260295466422E-02  2.2281548964612E-02  3.9096799787688E-02  6.0706237390056E-02  8.7110094724246E-02  1.1830865854577E-01  1.5430226932338E-01  1.7349788220233E-01 
 3.0686333628486E-03  2.7287961993675E-03  2.0916759503758E-03  1.5395765985635E-03  1.0724099483694E-03  6.9017582369055E-04  3.9287623707526E-04  1.8051414611278E-04  5.3093445649916E-05  1.0618990320889E-05 
-7.6374175182728E+03 -7.4920112746429E+03 -7.4892966373151E+03 -7.4892960556390E+03 -7.4893611016519E+03 -7.4894464723007E+03 -7.4895507608731E+03 -7.4896751942145E+03 -7.4898188149386E+03 -7.4899869488650E+03 
 4.5844134592548E+02  4.4729616235954E+02  4.4708987767472E+02  4.4709210170834E+02  4.4710030813391E+02  4.4711103283927E+02  4.4712416836115E+02  4.4713980864624E+02  4.4715788063798E+02  4.4717879180490E+02 
-8.0958588641983E+03 -7.9393074370025E+03 -7.9363865149898E+03 -7.9363881573473E+03 -7.9364614097858E+03 -7.9365575051399E+03 -7.9366749292343E+03 -7.9368150028607E+03 -7.9369766955766E+03 -7.9371657406699E+03 
ZONE T = "ANOD, 3.0000E-08", I = 10, SOLUTIONTIME = 3.000000E-08
ZONETYPE = ORDERED
DATAPACKING = BLOCK
STRANDID = 1
 0.0000000000000E+00  8.7488888888889E-05  1.7497777777778E-04  2.6246666666667E-04  3.4995555555556E-04  4.3744444444444E-04  5.2493333333333E-04  6.1242222222222E-04  6.9991111111111E-04  7.8740000000000E-04 
 1.1911677637851E-09  3.5076038994811E-09  5.8224016647878E-09  8.1371796953900E-09  1.0451978701506E-08  1.2767895421183E-08  1.5083846294309E-08  1.7398748499205E-08  1.9713697934882E-08  2.0871200562217E-08 
 9.1999999999787E-01  9.1999999999791E-01  9.1999999999791E-01  9.1999999999791E-01  9.1999999999791E-01  9.1999999999791E-01  9.1999999999791E-01  9.1999999999791E-01  9.1999999999791E-01  9.1999999999914E-01 
 4.0000000001064E-02  4.0000000001044E-02  4.0000000001044E-02  4.0000000001044E-02  4.0000000001044E-02  4.0000000001044E-02  4.0000000001044E-02  4.0000000001044E-02  4.0000000001044E-02  4.0000000000432E-02 
 4.0000000001064E-02  4.0000000001044E-02  4.0000000001044E-02  4.0000000001044E-02  4.0000000001044E-02  4.0000000001044E-02  4.0000000001044E-02  4.0000000001044E-02  4.0000000001044E-02  4.0000000000432E-02 
 2.9183511581121E-02  2.9183495413509E-02  2.9183447816281E-02  2.9183368808345E-02  2.9183258389702E-02  2.9183116560058E-02  2.9182943319031E-02  2.9182738666159E-02  2.9182502600884E-02  2.9182235122564E-02 
 0.0000000000000E+00 -4.7309363282713E-09 -8.9049566373492E-09 -1.2522454823142E-08 -1.5583435630254E-08 -1.8087894015766E-08 -2.0035823226209E-08 -2.1427215050433E-08 -2.2262059642076E-08 -2.2540345645945E-08 
 2.9828987864478E+02  2.9815352224780E+02  2.9815006994377E+02  2.9814999681599E+02  2.9814999558139E+02  2.9814999580126E+02  2.9814999527018E+02  2.9814999553612E+02  2.9814999549666E+02  2.9814999999941E+02 
-2.9183511581121E-02 -2.9183500144446E-02 -2.9183456721238E-02 -2.9183381330800E-02 -2.9183273973138E-02 -2.9183134647952E-02 -2.9182963354855E-02 -2.9182760093374E-02 -2.9182524862943E-02 -2.9182257662910E-02 
-4.1004398339834E-02 -4.0909172342327E-02 -4.0906761594202E-02 -4.0906710529095E-02 -4.0906709666975E-02 -4.0906709820513E-02 -4.0906709449659E-02 -4.0906709635362E-02 -4.0906709607810E-02 -4.0906712752476E-02 
 1.1820886758713E-02  1.1725672197881E-02  1.1723304872965E-02  1.1723329198295E-02  1.1723435693837E-02  1.1723575172561E-02  1.1723746094805E-02  1.1723949541988E-02  1.1724184744867E-02  1.1724455089566E-02 
 1.7153764547612E+00  3.3358525364181E+00  3.3334931525608E+00  3.3334647330111E+00  3.3334949394230E+00  3.3335353918036E+00  3.3335845754959E+00  3.3336435538884E+00  3.3337115699725E+00  1.6668959768847E+00 
 8.8893187471410E-09  2.6176148644281E-08  4.3450758695775E-08  6.0725221603219E-08  7.7999841050348E-08  9.5274670131832E-08  1.1254975408046E-07  1.2982514367636E-07  1.4710110188555E-07  1.4710110188555E-07 
 0.0000000000000E+00  3.3833027229082E+00  6.7179755674480E+00  1.0051454510371E+01  1.3384934346374E+01  1.6718449511933E+01  2.0052009495661E+01  2.3385623560442E+01  2.6719301122479E+01  3.0053052884356E+01 
 3.0053052884209E+01  2.6669750161241E+01  2.3335077316755E+01  2.0001598373969E+01  1.6668118537751E+01  1.3334603372137E+01  1.0001043388489E+01  6.6674293238001E+00  3.3337517618709E+00  0.0000000000000E+00 
 5.1005016943595E-08  1.0009045183220E-07  1.0005084260649E-07  1.0005073306055E-07  1.0005165325210E-07  1.0005286429077E-07  1.0005434384939E-07  1.0005611035846E-07  1.0005814997400E-07  5.0030265481483E-08 
 4.5724222271692E+04  9.1448444543381E+04  9.1448444543381E+04  9.1448444543381E+04  9.1448444543381E+04  9.1448444543381E+04  9.1448444543381E+04  9.1448444543381E+04  9.1448444543381E+04  4.5724222271691E+04 
 3.3835924481009E+05  6.7671848962018E+05  6.7671848962018E+05  6.7671848962018E+05  6.7671848962018E+05  6.7671848962018E+05  6.7671848962018E+05  6.7671848962018E+05  6.7671848962018E+05  3.3835924481009E+05 
 3.8408346708178E+05  7.6816693416356E+05  7.6816693416356E+05  7.6816693416356E+05  7.6816693416356E+05  7.6816693416356E+05  7.6816693416356E+05  7.6816693416356E+05  7.6816693416356E+05  3.8408346708178E+05 
 3.5000000000000E-01  3.5000000000000E-01  3.5000000000000E-01  3.5000000000000E-01  3.5000000000000E-01  3.5000000000000E-01  3.5000000000000E-01  3.5000000000000E-01  3.5000000000000E-01  3.5000000000000E-01 
 8.5301666666667E+00  1.7060333333333E+01  1.7060333333333E+01  1.7060333333333E+01  1.7060333333333E+01  1.7060333333333E+01  1.7060333333333E+01  1.7060333333333E+01  1.7060333333333E+01  8.5301666666667E+00 
 2.0109530350261E-01  1.9553267050770E-01  1.9539437403885E-01  1.9539270821268E-01  1.9539447877667E-01  1.9539684991327E-01  1.9539973284007E-01  1.9540318988815E-01  1.9540717668505E-01  1.9541188842165E-01 
 4.3744444444444E-05  8.7488888888889E-05  8.7488888888889E-05  8.7488888888889E-05  8.7488888888889E-05  8.7488888888889E-05  8.7488888888889E-05  8.7488888888889E-05  8.7488888888889E-05  4.3744444444444E-05 
 8.6666666666655E+01  8.6666666666655E+01  8.6666666666655E+01  8.6666666666655E+01  8.6666666666655E+01  8.6666666666655E+01  8.6666666666655E+01  8.6666666666655E+01  8.6666666666655E+01  8.6666666666655E+01 
 2.1666666666679E+01  2.1666666666679E+01  2.1666666666679E+01  2.1666666666679E+01  2.1666666666679E+01  2.1666666666679E+01  2.1666666666679E+01  2.1666666666679E+01  2.1666666666679E+01  2.1666666666679E+01 
-2.2910696284425E-04 -2.2476864031836E-04 -2.2467897579562E-04 -2.2467846075431E-04 -2.2468015909477E-04 -2.2468240103372E-04 -2.2468513610852E-04 -2.2468840596081E-04 -2.2469217929576E-04 -2.2469693421584E-04 
-7.7058812905955E+03 -7.4913950951008E+03 -7.4860580372577E+03 -7.4859848865005E+03 -7.4860404377774E+03 -7.4861153583867E+03 -7.4862062251806E+03 -7.4863154410015E+03 -7.4864412947852E+03 -7.4866021023816E+03 
 9.3416918469293E-04  4.5651866566853E-03  1.5420288346081E-02  3.3462202322258E-02  5.8691750704529E-02  9.1109232851656E-02  1.3071499807600E-01  1.7750947654981E-01  2.3149317962527E-01  2.6028240592763E-01 
 4.6009850086574E-03  4.0913798748510E-03  3.1360558148202E-03  2.3082903278204E-03  1.6078664143576E-03  1.0347820260764E-03  5.8904015694502E-04  2.7064524280584E-04  7.9603120447518E-05  1.5921078690786E-05 
-7.7058831399422E+03 -7.4913979902107E+03 -7.4860642416305E+03 -7.4859968358676E+03 -7.4860605681848E+03 -7.4861461059884E+03 -7.4862500262479E+03 -7.4863747319506E+03 -7.4865185122052E+03 -7.4866888922074E+03 
 4.6353933803964E+02  4.4708663968669E+02  4.4668022438582E+02  4.4667734306664E+02  4.4668544834798E+02  4.4669618340426E+02  4.4670928669639E+02  4.4672494203398E+02  4.4674301879453E+02  4.4676409240807E+02 
-8.1694224779818E+03 -7.9384846298974E+03 -7.9327444660163E+03 -7.9326741789342E+03 -7.9327460165328E+03 -7.9328422893926E+03 -7.9329593129443E+03 -7.9330996739846E+03 -7.9332615309997E+03 -7.9334529846154E+03 
ZONE T = "ANOD, 4.0000E-08", I = 10, SOLUTIONTIME = 4.000000E-08
ZONETYPE = ORDERED
DATAPACKING = BLOCK
STRANDID = 1
 0.0000000000000E+00  8.7488888888889E-05  1.7497777777778E-04  2.6246666666667E-04  3.4995555555556E-04  4.3744444444444E-04  5.2493333333333E-04  6.1242222222222E-04  6.9991111111111E-04  7.8740000000000E-04 
 1.2014153823127E-09  3.5178364034438E-09  5.8315816883225E-09  8.1452740434515E-09  1.0458986582149E-08  1.2771637547863E-08  1.5084322615485E-08  1.7398138337426E-08  1.9712001387158E-08  2.0869687565614E-08 
 9.1999999999715E-01  9.1999999999722E-01  9.1999999999722E-01  9.1999999999722E-01  9.1999999999722E-01  9.1999999999722E-01  9.1999999999722E-01  9.1999999999722E-01  9.1999999999722E-01  9.1999999999885E-01 
 4.0000000001425E-02  4.0000000001392E-02  4.0000000001391E-02  4.0000000001391E-02  4.0000000001391E-02  4.0000000001391E-02  4.0000000001391E-02  4.0000000001391E-02  4.0000000001391E-02  4.0000000000576E-02 
 4.0000000001425E-02  4.0000000001392E-02  4.0000000001391E-02  4.0000000001391E-02  4.0000000001391E-02  4.0000000001391E-02  4.0000000001391E-02  4.0000000001391E-02  4.0000000001391E-02  4.0000000000576E-02 
 2.9188917744870E-02  2.9188901436905E-02  2.9188853700639E-02  2.9188774568124E-02  2.9188664039644E-02  2.9188522114907E-02  2.9188348793530E-02  2.9188144075051E-02  2.9187907958914E-02  2.9187640444473E-02 
 0.0000000000000E+00 -4.7289820706629E-09 -8.9010517559661E-09 -1.2516852354621E-08 -1.5576396591963E-08 -1.8079679615472E-08 -2.0026694681338E-08 -2.1417433590803E-08 -2.2251886479189E-08 -2.2530041967979E-08 