TITLE = "Solution on Domain BulkDomain1D_1"
VARIABLES = "x [m]"  
"Vel_axial" 	"MF_sp(ECDMC)" 	"MF_sp(Li+)" 	"MF_sp(PF6-)" 	"Volt(Electroly)" 	"Temperature" 	"Porosity []" 	"Control volume thickness [m]" 	"volFrac MgO(S) []" 	"qHeat_accum [J/m3]" 	"qHeat_step [W/m3]" 	"Joule_Lyte [W/m3]" 	"Joule_Solid [W/m3]" 	
ZONE T = "SEP , 0.0000E+00", I = 10, SOLUTIONTIME = 0.000000E+00
ZONETYPE = ORDERED
DATAPACKING = BLOCK
STRANDID = 2
 7.8740000000000E-04  8.4102222222222E-04  8.9464444444444E-04  9.4826666666667E-04  1.0018888888889E-03  1.0555111111111E-03  1.1091333333333E-03  1.1627555555556E-03  1.2163777777778E-03  1.2700000000000E-03 
 0.0000000000000E+00  0.0000000000000E+00  0.0000000000000E+00  0.0000000000000E+00  0.0000000000000E+00  0.0000000000000E+00  0.0000000000000E+00  0.0000000000000E+00  0.0000000000000E+00  0.0000000000000E+00 
 9.2000000000000E-01  9.2000000000000E-01  9.2000000000000E-01  9.2000000000000E-01  9.2000000000000E-01  9.2000000000000E-01  9.2000000000000E-01  9.2000000000000E-01  9.2000000000000E-01  9.2000000000000E-01 
 4.0000000000000E-02  4.0000000000000E-02  4.0000000000000E-02  4.0000000000000E-02  4.0000000000000E-02  4.0000000000000E-02  4.0000000000000E-02  4.0000000000000E-02  4.0000000000000E-02  4.0000000000000E-02 
 4.0000000000000E-02  4.0000000000000E-02  4.0000000000000E-02  4.0000000000000E-02  4.0000000000000E-02  4.0000000000000E-02  4.0000000000000E-02  4.0000000000000E-02  4.0000000000000E-02  4.0000000000000E-02 
-7.0000000000000E-02 -7.0000000000000E-02 -7.0000000000000E-02 -7.0000000000000E-02 -7.0000000000000E-02 -7.0000000000000E-02 -7.0000000000000E-02 -7.0000000000000E-02 -7.0000000000000E-02 -7.0000000000000E-02 
 2.9815000000000E+02  2.9815000000000E+02  2.9815000000000E+02  2.9815000000000E+02  2.9815000000000E+02  2.9815000000000E+02  2.9815000000000E+02  2.9815000000000E+02  2.9815000000000E+02  2.9815000000000E+02 
 8.0911499769706E-01  8.0911499769706E-01  8.0911499769706E-01  8.0911499769706E-01  8.0911499769706E-01  8.0911499769706E-01  8.0911499769706E-01  8.0911499769706E-01  8.0911499769706E-01  8.0911499769706E-01 
 2.6811111111111E-05  5.3622222222222E-05  5.3622222222222E-05  5.3622222222222E-05  5.3622222222222E-05  5.3622222222222E-05  5.3622222222222E-05  5.3622222222223E-05  5.3622222222222E-05  2.6811111111111E-05 
 1.9088500230294E-01  1.9088500230294E-01  1.9088500230294E-01  1.9088500230294E-01  1.9088500230294E-01  1.9088500230294E-01  1.9088500230294E-01  1.9088500230294E-01  1.9088500230294E-01  1.9088500230294E-01 
 0.0000000000000E+00  0.0000000000000E+00  0.0000000000000E+00  0.0000000000000E+00  0.0000000000000E+00  0.0000000000000E+00  0.0000000000000E+00  0.0000000000000E+00  0.0000000000000E+00  0.0000000000000E+00 
 0.0000000000000E+00  0.0000000000000E+00  0.0000000000000E+00  0.0000000000000E+00  0.0000000000000E+00  0.0000000000000E+00  0.0000000000000E+00  0.0000000000000E+00  0.0000000000000E+00  0.0000000000000E+00 
 0.0000000000000E+00  0.0000000000000E+00  0.0000000000000E+00  0.0000000000000E+00  0.0000000000000E+00  0.0000000000000E+00  0.0000000000000E+00  0.0000000000000E+00  0.0000000000000E+00  0.0000000000000E+00 
 0.0000000000000E+00  0.0000000000000E+00  0.0000000000000E+00  0.0000000000000E+00  0.0000000000000E+00  0.0000000000000E+00  0.0000000000000E+00  0.0000000000000E+00  0.0000000000000E+00  0.0000000000000E+00 
ZONE T = "SEP , 1.0000E-08", I = 10, SOLUTIONTIME = 1.000000E-08
ZONETYPE = ORDERED
DATAPACKING = BLOCK
STRANDID = 2
 7.8740000000000E-04  8.4102222222222E-04  8.9464444444444E-04  9.4826666666667E-04  1.0018888888889E-03  1.0555111111111E-03  1.1091333333333E-03  1.1627555555556E-03  1.2163777777778E-03  1.2700000000000E-03 
 2.0865060380232E-08  2.0865060380232E-08  2.0865060380232E-08  2.0865060380232E-08  2.0865060380232E-08  2.0865060380232E-08  2.0865060380232E-08  2.0865060380232E-08  2.0865060380232E-08  1.9707213516488E-08 
 9.1999999999971E-01  9.2000000000000E-01  9.2000000000000E-01  9.2000000000000E-01  9.2000000000000E-01  9.2000000000000E-01  9.2000000000000E-01  9.2000000000000E-01  9.2000000000000E-01  9.2000000000032E-01 
 4.0000000000144E-02  4.0000000000000E-02  4.0000000000000E-02  4.0000000000000E-02  4.0000000000000E-02  4.0000000000000E-02  4.0000000000000E-02  4.0000000000000E-02  4.0000000000000E-02  3.9999999999841E-02 
 4.0000000000144E-02  4.0000000000000E-02  4.0000000000000E-02  4.0000000000000E-02  4.0000000000000E-02  4.0000000000000E-02  4.0000000000000E-02  4.0000000000000E-02  4.0000000000000E-02  3.9999999999841E-02 
 2.9171459967093E-02  2.9171410597540E-02  2.9171361227981E-02  2.9171311858437E-02  2.9171262488879E-02  2.9171213119335E-02  2.9171163749776E-02  2.9171114380223E-02  2.9171065010679E-02  2.9171015641121E-02 
 2.9814999957780E+02  2.9814999999231E+02  2.9815000000148E+02  2.9814999999450E+02  2.9814999999672E+02  2.9814999999163E+02  2.9814999998606E+02  2.9815000000174E+02  2.9814999999759E+02  2.9815000103232E+02 
 8.0911499769706E-01  8.0911499769706E-01  8.0911499769706E-01  8.0911499769706E-01  8.0911499769706E-01  8.0911499769706E-01  8.0911499769706E-01  8.0911499769706E-01  8.0911499769706E-01  8.0911499769706E-01 
 2.6811111111111E-05  5.3622222222222E-05  5.3622222222222E-05  5.3622222222222E-05  5.3622222222222E-05  5.3622222222222E-05  5.3622222222222E-05  5.3622222222223E-05  5.3622222222222E-05  2.6811111111111E-05 
 1.9088500230294E-01  1.9088500230294E-01  1.9088500230294E-01  1.9088500230294E-01  1.9088500230294E-01  1.9088500230294E-01  1.9088500230294E-01  1.9088500230294E-01  1.9088500230294E-01  1.9088500230294E-01 
 2.7663873951878E-10  2.7663876774549E-10  2.7663872052197E-10  2.7663871834519E-10  2.7663871484762E-10  2.7663871768912E-10  2.7663876862413E-10  2.7663868935899E-10  2.7663871759775E-10  2.7663879642414E-10 
 2.7663873951878E-02  2.7663876774549E-02  2.7663872052197E-02  2.7663871834519E-02  2.7663871484762E-02  2.7663871768912E-02  2.7663876862413E-02  2.7663868935899E-02  2.7663871759775E-02  2.7663879642414E-02 
 2.7663873951878E-02  2.7663876774549E-02  2.7663872052197E-02  2.7663871834519E-02  2.7663871484762E-02  2.7663871768912E-02  2.7663876862413E-02  2.7663868935899E-02  2.7663871759775E-02  2.7663879642414E-02 
 0.0000000000000E+00  0.0000000000000E+00  0.0000000000000E+00  0.0000000000000E+00  0.0000000000000E+00  0.0000000000000E+00  0.0000000000000E+00  0.0000000000000E+00  0.0000000000000E+00  0.0000000000000E+00 
ZONE T = "SEP , 2.0000E-08", I = 10, SOLUTIONTIME = 2.000000E-08
ZONETYPE = ORDERED
DATAPACKING = BLOCK
STRANDID = 2
 7.8740000000000E-04  8.4102222222222E-04  8.9464444444444E-04  9.4826666666667E-04  1.0018888888889E-03  1.0555111111111E-03  1.1091333333333E-03  1.1627555555556E-03  1.2163777777778E-03  1.2700000000000E-03 
 2.0866907780718E-08  2.0865454949807E-08  2.0865454949807E-08  2.0865454949807E-08  2.0865454949807E-08  2.0865454949807E-08  2.0865454949807E-08  2.0865454949807E-08  2.0865454949807E-08  1.9706573433788E-08 
 9.1999999999942E-01  9.2000000000000E-01  9.2000000000000E-01  9.2000000000000E-01  9.2000000000000E-01  9.2000000000000E-01  9.2000000000000E-01  9.2000000000000E-01  9.2000000000000E-01  9.2000000000064E-01 
 4.0000000000288E-02  4.0000000000000E-02  4.0000000000000E-02  4.0000000000000E-02  4.0000000000000E-02  4.0000000000000E-02  4.0000000000000E-02  4.0000000000000E-02  4.0000000000000E-02  3.9999999999682E-02 
 4.0000000000288E-02  4.0000000000000E-02  4.0000000000000E-02  4.0000000000000E-02  4.0000000000000E-02  4.0000000000000E-02  4.0000000000000E-02  4.0000000000000E-02  4.0000000000000E-02  3.9999999999682E-02 
 2.9176841438732E-02  2.9176792063949E-02  2.9176742689166E-02  2.9176693314384E-02  2.9176643939601E-02  2.9176594564818E-02  2.9176545190036E-02  2.9176495815253E-02  2.9176446440470E-02  2.9176397065688E-02 
 2.9814999916448E+02  2.9814999996833E+02  2.9814999998992E+02  2.9814999999441E+02  2.9814999999104E+02  2.9814999999148E+02  2.9814999998637E+02  2.9815000000714E+02  2.9815000002354E+02  2.9815000215444E+02 
 8.0911499769706E-01  8.0911499769706E-01  8.0911499769706E-01  8.0911499769706E-01  8.0911499769706E-01  8.0911499769706E-01  8.0911499769706E-01  8.0911499769706E-01  8.0911499769706E-01  8.0911499769706E-01 
 2.6811111111111E-05  5.3622222222222E-05  5.3622222222222E-05  5.3622222222222E-05  5.3622222222222E-05  5.3622222222222E-05  5.3622222222222E-05  5.3622222222223E-05  5.3622222222222E-05  2.6811111111111E-05 
 1.9088500230294E-01  1.9088500230294E-01  1.9088500230294E-01  1.9088500230294E-01  1.9088500230294E-01  1.9088500230294E-01  1.9088500230294E-01  1.9088500230294E-01  1.9088500230294E-01  1.9088500230294E-01 
 5.5333608829761E-10  5.5333611670172E-10  5.5333606966900E-10  5.5333606750536E-10  5.5333606400821E-10  5.5333606683203E-10  5.5333611776449E-10  5.5333603852597E-10  5.5333606728784E-10  5.5333614662650E-10 
 2.7669734877883E-02  2.7669734895624E-02  2.7669734914703E-02  2.7669734916016E-02  2.7669734916059E-02  2.7669734914291E-02  2.7669734914036E-02  2.7669734916698E-02  2.7669734969009E-02  2.7669735020237E-02 
 2.7669734877883E-02  2.7669734895624E-02  2.7669734914703E-02  2.7669734916016E-02  2.7669734916059E-02  2.7669734914291E-02  2.7669734914036E-02  2.7669734916698E-02  2.7669734969009E-02  2.7669735020237E-02 
 0.0000000000000E+00  0.0000000000000E+00  0.0000000000000E+00  0.0000000000000E+00  0.0000000000000E+00  0.0000000000000E+00  0.0000000000000E+00  0.0000000000000E+00  0.0000000000000E+00  0.0000000000000E+00 
ZONE T = "SEP , 3.0000E-08", I = 10, SOLUTIONTIME = 3.000000E-08
ZONETYPE = ORDERED
DATAPACKING = BLOCK
STRANDID = 2
 7.8740000000000E-04  8.4102222222222E-04  8.9464444444444E-04  9.4826666666667E-04  1.0018888888889E-03  1.0555111111111E-03  1.1091333333333E-03  1.1627555555556E-03  1.2163777777778E-03  1.2700000000000E-03 
 2.0871200829025E-08  2.0872653659936E-08  2.0872653659936E-08  2.0872653659936E-08  2.0872653659936E-08  2.0872653659936E-08  2.0872653659936E-08  2.0872653659936E-08  2.0872653659936E-08  1.9715103637770E-08 
 9.1999999999914E-01  9.2000000000000E-01  9.2000000000000E-01  9.2000000000000E-01  9.2000000000000E-01  9.2000000000000E-01  9.2000000000000E-01  9.2000000000000E-01  9.2000000000000E-01  9.2000000000095E-01 
 4.0000000000432E-02  4.0000000000000E-02  4.0000000000000E-02  4.0000000000000E-02  4.0000000000000E-02  4.0000000000000E-02  4.0000000000000E-02  4.0000000000000E-02  4.0000000000000E-02  3.9999999999524E-02 
 4.0000000000432E-02  4.0000000000000E-02  4.0000000000000E-02  4.0000000000000E-02  4.0000000000000E-02  4.0000000000000E-02  4.0000000000000E-02  4.0000000000000E-02  4.0000000000000E-02  3.9999999999524E-02 
 2.9182234906953E-02  2.9182185527169E-02  2.9182136147384E-02  2.9182086767600E-02  2.9182037387816E-02  2.9181988008032E-02  2.9181938628247E-02  2.9181889248463E-02  2.9181839868679E-02  2.9181790488894E-02 
 2.9814999874710E+02  2.9814999996027E+02  2.9814999998358E+02  2.9814999999389E+02  2.9814999998565E+02  2.9814999999632E+02  2.9814999998707E+02  2.9815000000188E+02  2.9815000003900E+02  2.9815000327326E+02 
 8.0911499769706E-01  8.0911499769706E-01  8.0911499769706E-01  8.0911499769706E-01  8.0911499769706E-01  8.0911499769706E-01  8.0911499769706E-01  8.0911499769706E-01  8.0911499769706E-01  8.0911499769706E-01 
 2.6811111111111E-05  5.3622222222222E-05  5.3622222222222E-05  5.3622222222222E-05  5.3622222222222E-05  5.3622222222222E-05  5.3622222222222E-05  5.3622222222223E-05  5.3622222222222E-05  2.6811111111111E-05 
 1.9088500230294E-01  1.9088500230294E-01  1.9088500230294E-01  1.9088500230294E-01  1.9088500230294E-01  1.9088500230294E-01  1.9088500230294E-01  1.9088500230294E-01  1.9088500230294E-01  1.9088500230294E-01 
 8.3008949814411E-10  8.3008952684389E-10  8.3008948011847E-10  8.3008947796599E-10  8.3008947446780E-10  8.3008947729072E-10  8.3008952822156E-10  8.3008944898914E-10  8.3008947853457E-10  8.3008955864940E-10 
 2.7675340984650E-02  2.7675341014216E-02  2.7675341044947E-02  2.7675341046063E-02  2.7675341045959E-02  2.7675341045870E-02  2.7675341045707E-02  2.7675341046317E-02  2.7675341124673E-02  2.7675341202290E-02 
 2.7675340984650E-02  2.7675341014216E-02  2.7675341044947E-02  2.7675341046063E-02  2.7675341045959E-02  2.7675341045870E-02  2.7675341045707E-02  2.7675341046317E-02  2.7675341124673E-02  2.7675341202290E-02 
 0.0000000000000E+00  0.0000000000000E+00  0.0000000000000E+00  0.0000000000000E+00  0.0000000000000E+00  0.0000000000000E+00  0.0000000000000E+00  0.0000000000000E+00  0.0000000000000E+00  0.0000000000000E+00 
ZONE T = "SEP , 4.0000E-08", I = 10, SOLUTIONTIME = 4.000000E-08
ZONETYPE = ORDERED
DATAPACKING = BLOCK
STRANDID = 2
 7.8740000000000E-04  8.4102222222222E-04  8.9464444444444E-04  9.4826666666667E-04  1.0018888888889E-03  1.0555111111111E-03  1.1091333333333E-03  1.1627555555556E-03  1.2163777777778E-03  1.2700000000000E-03 
 2.0869688010571E-08  2.0869688010571E-08  2.0869688010571E-08  2.0869688010570E-08  2.0869688010570E-08  2.0869688010570E-08  2.0869688010570E-08  2.0869688010570E-08  2.0869688010570E-08  1.9712379580525E-08 
 9.1999999999885E-01  9.2000000000000E-01  9.2000000000000E-01  9.2000000000000E-01  9.2000000000000E-01  9.2000000000000E-01  9.2000000000000E-01  9.2000000000000E-01  9.2000000000000E-01  9.2000000000127E-01 
 4.0000000000576E-02  4.0000000000000E-02  4.0000000000000E-02  4.0000000000000E-02  4.0000000000000E-02  4.0000000000000E-02  4.0000000000000E-02  4.0000000000000E-02  4.0000000000000E-02  3.9999999999365E-02 
 4.0000000000576E-02  4.0000000000000E-02  4.0000000000000E-02  4.0000000000000E-02  4.0000000000000E-02  4.0000000000000E-02  4.0000000000000E-02  4.0000000000000E-02  4.0000000000000E-02  3.9999999999365E-02 
 2.9187640185453E-02  2.9187590800654E-02  2.9187541415855E-02  2.9187492031056E-02  2.9187442646258E-02  2.9187393261459E-02  2.9187343876660E-02  2.9187294491861E-02  2.9187245107062E-02  2.9187195722263E-02 
 2.9814999835370E+02  2.9814999994203E+02  2.9814999998769E+02  2.9814999999304E+02  2.9814999998610E+02  2.9815000001153E+02  2.9814999998816E+02  2.9814999999772E+02  2.9815000007867E+02  2.9815000439500E+02 
 8.0911499769706E-01  8.0911499769706E-01  8.0911499769706E-01  8.0911499769706E-01  8.0911499769706E-01  8.0911499769706E-01  8.0911499769706E-01  8.0911499769706E-01  8.0911499769706E-01  8.0911499769706E-01 
 2.6811111111111E-05  5.3622222222222E-05  5.3622222222222E-05  5.3622222222222E-05  5.3622222222222E-05  5.3622222222222E-05  5.3622222222222E-05  5.3622222222223E-05  5.3622222222222E-05  2.6811111111111E-05 
 1.9088500230294E-01  1.9088500230294E-01  1.9088500230294E-01  1.9088500230294E-01  1.9088500230294E-01  1.9088500230294E-01  1.9088500230294E-01  1.9088500230294E-01  1.9088500230294E-01  1.9088500230294E-01 
 1.1068991195314E-09  1.1068991486288E-09  1.1068991022891E-09  1.1068991001447E-09  1.1068990966620E-09  1.1068990994801E-09  1.1068991504137E-09  1.1068990712024E-09  1.1068991017859E-09  1.1068991829209E-09 
 2.7680962138729E-02  2.7680962178491E-02  2.7680962217068E-02  2.7680962217866E-02  2.7680962219419E-02  2.7680962218942E-02  2.7680962219214E-02  2.7680962221323E-02  2.7680962325130E-02  2.7680962427148E-02 
 2.7680962138729E-02  2.7680962178491E-02  2.7680962217068E-02  2.7680962217866E-02  2.7680962219419E-02  2.7680962218942E-02  2.7680962219214E-02  2.7680962221323E-02  2.7680962325130E-02  2.7680962427148E-02 
 0.0000000000000E+00  0.0000000000000E+00  0.0000000000000E+00  0.0000000000000E+00  0.0000000000000E+00  0.0000000000000E+00  0.0000000000000E+00  0.0000000000000E+00  0.0000000000000E+00  0.0000000000000E+00 
ZONE T = "SEP , 5.5000E-08", I = 10, SOLUTIONTIME = 5.500000E-08
ZONETYPE = ORDERED
DATAPACKING = BLOCK
STRANDID = 2
 7.8740000000000E-04  8.4102222222222E-04  8.9464444444444E-04  9.4826666666667E-04  1.0018888888889E-03  1.0555111111111E-03  1.1091333333333E-03  1.1627555555556E-03  1.2163777777778E-03  1.2700000000000E-03 
 2.0874808287347E-08  2.0874808287347E-08  2.0874808287347E-08  2.0874808287347E-08  2.0874808287347E-08  2.0874808287347E-08  2.0874808287347E-08  2.0874808287347E-08  2.0874808287347E-08  1.9715803867811E-08 
 9.1999999999842E-01  9.2000000000000E-01  9.2000000000000E-01  9.2000000000000E-01  9.2000000000000E-01  9.2000000000000E-01  9.2000000000000E-01  9.2000000000000E-01  9.2000000000000E-01  9.2000000000175E-01 
 4.0000000000791E-02  4.0000000000000E-02  4.0000000000000E-02  4.0000000000000E-02  4.0000000000000E-02  4.0000000000000E-02  4.0000000000000E-02  4.0000000000000E-02  4.0000000000000E-02  3.9999999999127E-02 
 4.0000000000791E-02  4.0000000000000E-02  4.0000000000000E-02  4.0000000000000E-02  4.0000000000000E-02  4.0000000000000E-02  4.0000000000000E-02  4.0000000000000E-02  4.0000000000000E-02  3.9999999999127E-02 
 2.9195755772688E-02  2.9195706380357E-02  2.9195656988026E-02  2.9195607595696E-02  2.9195558203365E-02  2.9195508811034E-02  2.9195459418703E-02  2.9195410026373E-02  2.9195360634042E-02  2.9195311241711E-02 
 2.9814999766090E+02  2.9814999991890E+02  2.9814999999179E+02  2.9814999999150E+02  2.9814999998182E+02  2.9815000000564E+02  2.9814999999023E+02  2.9815000000110E+02  2.9815000016260E+02  2.9815000612104E+02 
 8.0911499769706E-01  8.0911499769706E-01  8.0911499769706E-01  8.0911499769706E-01  8.0911499769706E-01  8.0911499769706E-01  8.0911499769706E-01  8.0911499769706E-01  8.0911499769706E-01  8.0911499769706E-01 
 2.6811111111111E-05  5.3622222222222E-05  5.3622222222222E-05  5.3622222222222E-05  5.3622222222222E-05  5.3622222222222E-05  5.3622222222222E-05  5.3622222222223E-05  5.3622222222222E-05  2.6811111111111E-05 
 1.9088500230294E-01  1.9088500230294E-01  1.9088500230294E-01  1.9088500230294E-01  1.9088500230294E-01  1.9088500230294E-01  1.9088500230294E-01  1.9088500230294E-01  1.9088500230294E-01  1.9088500230294E-01 
 1.5222402139356E-09  1.5222402438530E-09  1.5222401983372E-09  1.5222401962000E-09  1.5222401927159E-09  1.5222401955554E-09  1.5222402464876E-09  1.5222401673345E-09  1.5222402001297E-09  1.5222402833906E-09 
 2.7689406293614E-02  2.7689406348278E-02  2.7689406403202E-02  2.7689406403692E-02  2.7689406403596E-02  2.7689406405017E-02  2.7689406404927E-02  2.7689406408810E-02  2.7689406556258E-02  2.7689406697982E-02 
 2.7689406293614E-02  2.7689406348278E-02  2.7689406403202E-02  2.7689406403692E-02  2.7689406403596E-02  2.7689406405017E-02  2.7689406404927E-02  2.7689406408810E-02  2.7689406556258E-02  2.7689406697982E-02 
 0.0000000000000E+00  0.0000000000000E+00  0.0000000000000E+00  0.0000000000000E+00  0.0000000000000E+00  0.0000000000000E+00  0.0000000000000E+00  0.0000000000000E+00  0.0000000000000E+00  0.0000000000000E+00 
ZONE T = "SEP , 7.7500E-08", I = 10, SOLUTIONTIME = 7.750000E-08
ZONETYPE = ORDERED
DATAPACKING = BLOCK
STRANDID = 2
 7.8740000000000E-04  8.4102222222222E-04  8.9464444444444E-04  9.4826666666667E-04  1.0018888888889E-03  1.0555111111111E-03  1.1091333333333E-03  1.1627555555556E-03  1.2163777777778E-03  1.2700000000000E-03 
 2.0878780574227E-08  2.0878780574227E-08  2.0878780574227E-08  2.0878780574227E-08  2.0878780574227E-08  2.0878780574227E-08  2.0878780574227E-08  2.0878780574227E-08  2.0878780574227E-08  1.9720268812821E-08 
 9.1999999999777E-01  9.2000000000000E-01  9.2000000000000E-01  9.2000000000000E-01  9.2000000000000E-01  9.2000000000000E-01  9.2000000000000E-01  9.2000000000000E-01  9.2000000000000E-01  9.2000000000246E-01 
 4.0000000001114E-02  4.0000000000000E-02  4.0000000000000E-02  4.0000000000000E-02  4.0000000000000E-02  4.0000000000000E-02  4.0000000000000E-02  4.0000000000000E-02  4.0000000000000E-02  3.9999999998769E-02 
 4.0000000001114E-02  4.0000000000000E-02  4.0000000000000E-02  4.0000000000000E-02  4.0000000000000E-02  4.0000000000000E-02  4.0000000000000E-02  4.0000000000000E-02  4.0000000000000E-02  3.9999999998769E-02 
 2.9207934267228E-02  2.9207884863588E-02  2.9207835459949E-02  2.9207786056309E-02  2.9207736652669E-02  2.9207687249029E-02  2.9207637845390E-02  2.9207588441750E-02  2.9207539038110E-02  2.9207489634470E-02 
 2.9814999656171E+02  2.9814999985096E+02  2.9814999998188E+02  2.9814999998859E+02  2.9814999998746E+02  2.9815000000641E+02  2.9814999999427E+02  2.9815000000709E+02  2.9815000032792E+02  2.9815000880278E+02 
 8.0911499769706E-01  8.0911499769706E-01  8.0911499769706E-01  8.0911499769706E-01  8.0911499769706E-01  8.0911499769706E-01  8.0911499769706E-01  8.0911499769706E-01  8.0911499769706E-01  8.0911499769706E-01 
 2.6811111111111E-05  5.3622222222222E-05  5.3622222222222E-05  5.3622222222222E-05  5.3622222222222E-05  5.3622222222222E-05  5.3622222222222E-05  5.3622222222223E-05  5.3622222222222E-05  2.6811111111111E-05 
 1.9088500230294E-01  1.9088500230294E-01  1.9088500230294E-01  1.9088500230294E-01  1.9088500230294E-01  1.9088500230294E-01  1.9088500230294E-01  1.9088500230294E-01  1.9088500230294E-01  1.9088500230294E-01 
 2.1455371781905E-09  2.1455372099490E-09  2.1455371662901E-09  2.1455371642094E-09  2.1455371607568E-09  2.1455371636272E-09  2.1455372145555E-09  2.1455371355341E-09  2.1455371731393E-09  2.1455372610343E-09 
 2.7702087300215E-02  2.7702087382048E-02  2.7702087464574E-02  2.7702087467084E-02  2.7702087468486E-02  2.7702087469859E-02  2.7702087469685E-02  2.7702087475537E-02  2.7702087689312E-02  2.7702087895274E-02 
 2.7702087300215E-02  2.7702087382048E-02  2.7702087464574E-02  2.7702087467084E-02  2.7702087468486E-02  2.7702087469859E-02  2.7702087469685E-02  2.7702087475537E-02  2.7702087689312E-02  2.7702087895274E-02 
 0.0000000000000E+00  0.0000000000000E+00  0.0000000000000E+00  0.0000000000000E+00  0.0000000000000E+00  0.0000000000000E+00  0.0000000000000E+00  0.0000000000000E+00  0.0000000000000E+00  0.0000000000000E+00 
ZONE T = "SEP , 1.1125E-07", I = 10, SOLUTIONTIME = 1.112500E-07
ZONETYPE = ORDERED
DATAPACKING = BLOCK
STRANDID = 2
 7.8740000000000E-04  8.4102222222222E-04  8.9464444444444E-04  9.4826666666667E-04  1.0018888888889E-03  1.0555111111111E-03  1.1091333333333E-03  1.1627555555556E-03  1.2163777777778E-03  1.2700000000000E-03 
 2.0886700356213E-08  2.0886700356213E-08  2.0886700356213E-08  2.0886700356213E-08  2.0886700356213E-08  2.0886700356213E-08  2.0886700356213E-08  2.0886700356213E-08  2.0886700356213E-08  1.9727454890698E-08 
 9.1999999999680E-01  9.2000000000000E-01  9.2000000000000E-01  9.2000000000000E-01  9.2000000000000E-01  9.2000000000000E-01  9.2000000000000E-01  9.2000000000000E-01  9.2000000000000E-01  9.2000000000353E-01 
 4.0000000001598E-02  4.0000000000000E-02  4.0000000000000E-02  4.0000000000000E-02  4.0000000000000E-02  4.0000000000000E-02  4.0000000000000E-02  4.0000000000000E-02  4.0000000000000E-02  3.9999999998233E-02 
 4.0000000001598E-02  4.0000000000000E-02  4.0000000000000E-02  4.0000000000000E-02  4.0000000000000E-02  4.0000000000000E-02  4.0000000000000E-02  4.0000000000000E-02  4.0000000000000E-02  3.9999999998233E-02 
 2.9226182047179E-02  2.9226132626583E-02  2.9226083205986E-02  2.9226033785389E-02  2.9225984364792E-02  2.9225934944195E-02  2.9225885523599E-02  2.9225836103002E-02  2.9225786682405E-02  2.9225737261807E-02 
 2.9814999500365E+02  2.9814999970715E+02  2.9814999997437E+02  2.9814999998401E+02  2.9814999999578E+02  2.9815000000662E+02  2.9815000000137E+02  2.9815000001566E+02  2.9815000067411E+02  2.9815001292531E+02 
 8.0911499769706E-01  8.0911499769706E-01  8.0911499769706E-01  8.0911499769706E-01  8.0911499769706E-01  8.0911499769706E-01  8.0911499769706E-01  8.0911499769706E-01  8.0911499769706E-01  8.0911499769706E-01 
 2.6811111111111E-05  5.3622222222222E-05  5.3622222222222E-05  5.3622222222222E-05  5.3622222222222E-05  5.3622222222222E-05  5.3622222222222E-05  5.3622222222223E-05  5.3622222222222E-05  2.6811111111111E-05 
 1.9088500230294E-01  1.9088500230294E-01  1.9088500230294E-01  1.9088500230294E-01  1.9088500230294E-01  1.9088500230294E-01  1.9088500230294E-01  1.9088500230294E-01  1.9088500230294E-01  1.9088500230294E-01 
 3.0811245462091E-09  3.0811245818092E-09  3.0811245422999E-09  3.0811245405107E-09  3.0811245370236E-09  3.0811245399375E-09  3.0811245909200E-09  3.0811245124146E-09  3.0811245607004E-09  3.0811246587528E-09 
 2.7721107200553E-02  2.7721107314374E-02  2.7721107437329E-02  2.7721107445964E-02  2.7721107444941E-02  2.7721107446231E-02  2.7721107447837E-02  2.7721107463127E-02  2.7721107779588E-02  2.7721108080548E-02 
 2.7721107200553E-02  2.7721107314374E-02  2.7721107437329E-02  2.7721107445964E-02  2.7721107444941E-02  2.7721107446231E-02  2.7721107447837E-02  2.7721107463127E-02  2.7721107779588E-02  2.7721108080548E-02 
 0.0000000000000E+00  0.0000000000000E+00  0.0000000000000E+00  0.0000000000000E+00  0.0000000000000E+00  0.0000000000000E+00  0.0000000000000E+00  0.0000000000000E+00  0.0000000000000E+00  0.0000000000000E+00 
ZONE T = "SEP , 1.6188E-07", I = 10, SOLUTIONTIME = 1.618750E-07
ZONETYPE = ORDERED
DATAPACKING = BLOCK
STRANDID = 2
 7.8740000000000E-04  8.4102222222222E-04  8.9464444444444E-04  9.4826666666667E-04  1.0018888888889E-03  1.0555111111111E-03  1.1091333333333E-03  1.1627555555556E-03  1.2163777777778E-03  1.2700000000000E-03 
 2.0896912519475E-08  2.0896912519475E-08  2.0896912519475E-08  2.0896912519475E-08  2.0896912519475E-08  2.0896912519475E-08  2.0896912519475E-08  2.0896912519475E-08  2.0896912519475E-08  1.9737501442135E-08 
 9.1999999999536E-01  9.2000000000000E-01  9.2000000000000E-01  9.2000000000000E-01  9.2000000000000E-01  9.2000000000000E-01  9.2000000000000E-01  9.2000000000000E-01  9.2000000000000E-01  9.2000000000514E-01 
 4.0000000002321E-02  4.0000000000001E-02  4.0000000000000E-02  4.0000000000000E-02  4.0000000000000E-02  4.0000000000000E-02  4.0000000000000E-02  4.0000000000000E-02  3.9999999999999E-02  3.9999999997428E-02 
 4.0000000002321E-02  4.0000000000001E-02  4.0000000000000E-02  4.0000000000000E-02  4.0000000000000E-02  4.0000000000000E-02  4.0000000000000E-02  4.0000000000000E-02  3.9999999999999E-02  3.9999999997428E-02 
 2.9253439841928E-02  2.9253390395980E-02  2.9253340950031E-02  2.9253291504082E-02  2.9253242058133E-02  2.9253192612184E-02  2.9253143166235E-02  2.9253093720286E-02  2.9253044274337E-02  2.9252994828387E-02 
 2.9814999260319E+02  2.9814999941493E+02  2.9814999995098E+02  2.9814999998631E+02  2.9814999999164E+02  2.9815000000492E+02  2.9814999999183E+02  2.9815000007087E+02  2.9815000141413E+02  2.9815001939929E+02 
 8.0911499769706E-01  8.0911499769706E-01  8.0911499769706E-01  8.0911499769706E-01  8.0911499769706E-01  8.0911499769706E-01  8.0911499769706E-01  8.0911499769706E-01  8.0911499769706E-01  8.0911499769706E-01 
 2.6811111111111E-05  5.3622222222222E-05  5.3622222222222E-05  5.3622222222222E-05  5.3622222222222E-05  5.3622222222222E-05  5.3622222222222E-05  5.3622222222223E-05  5.3622222222222E-05  2.6811111111111E-05 
 1.9088500230294E-01  1.9088500230294E-01  1.9088500230294E-01  1.9088500230294E-01  1.9088500230294E-01  1.9088500230294E-01  1.9088500230294E-01  1.9088500230294E-01  1.9088500230294E-01  1.9088500230294E-01 
 4.4859457925558E-09  4.4859458367301E-09  4.4859458065020E-09  4.4859458055690E-09  4.4859458021106E-09  4.4859458050024E-09  4.4859458562028E-09  4.4859457793942E-09  4.4859458520069E-09  4.4859459728088E-09 
 2.7749555483390E-02  2.7749555652758E-02  2.7749555836091E-02  2.7749555853003E-02  2.7749555853571E-02  2.7749555853134E-02  2.7749555857436E-02  2.7749555890955E-02  2.7749556371488E-02  2.7749556820860E-02 
 2.7749555483390E-02  2.7749555652758E-02  2.7749555836091E-02  2.7749555853003E-02  2.7749555853571E-02  2.7749555853134E-02  2.7749555857436E-02  2.7749555890955E-02  2.7749556371488E-02  2.7749556820860E-02 
 0.0000000000000E+00  0.0000000000000E+00  0.0000000000000E+00  0.0000000000000E+00  0.0000000000000E+00  0.0000000000000E+00  0.0000000000000E+00  0.0000000000000E+00  0.0000000000000E+00  0.0000000000000E+00 
ZONE T = "SEP , 2.3781E-07", I = 10, SOLUTIONTIME = 2.378125E-07
ZONETYPE = ORDERED
DATAPACKING = BLOCK
STRANDID = 2
 7.8740000000000E-04  8.4102222222222E-04  8.9464444444444E-04  9.4826666666667E-04  1.0018888888889E-03  1.0555111111111E-03  1.1091333333333E-03  1.1627555555556E-03  1.2163777777778E-03  1.2700000000000E-03 
 2.0913260115885E-08  2.0913547094831E-08  2.0913547094831E-08  2.0913547094831E-08  2.0913547094831E-08  2.0913547094831E-08  2.0913547094831E-08  2.0913547094831E-08  2.0913451435182E-08  1.9752648843044E-08 
 9.1999999999319E-01  9.2000000000000E-01  9.2000000000000E-01  9.2000000000000E-01  9.2000000000000E-01  9.2000000000000E-01  9.2000000000000E-01  9.2000000000000E-01  9.2000000000000E-01  9.2000000000756E-01 
 4.0000000003403E-02  4.0000000000002E-02  4.0000000000000E-02  4.0000000000000E-02  4.0000000000000E-02  4.0000000000000E-02  4.0000000000000E-02  4.0000000000000E-02  3.9999999999998E-02  3.9999999996220E-02 
 4.0000000003403E-02  4.0000000000002E-02  4.0000000000000E-02  4.0000000000000E-02  4.0000000000000E-02  4.0000000000000E-02  4.0000000000000E-02  4.0000000000000E-02  3.9999999999998E-02  3.9999999996220E-02 
 2.9293951451073E-02  2.9293901967405E-02  2.9293852483737E-02  2.9293803000069E-02  2.9293753516401E-02  2.9293704032732E-02  2.9293654549064E-02  2.9293605065396E-02  2.9293555581727E-02  2.9293506098056E-02 
 2.9814998904570E+02  2.9814999882880E+02  2.9814999988564E+02  2.9814999997796E+02  2.9814999999216E+02  2.9815000000437E+02  2.9815000000017E+02  2.9815000024002E+02  2.9815000301377E+02  2.9815002944799E+02 
 8.0911499769706E-01  8.0911499769706E-01  8.0911499769706E-01  8.0911499769706E-01  8.0911499769706E-01  8.0911499769706E-01  8.0911499769706E-01  8.0911499769706E-01  8.0911499769706E-01  8.0911499769706E-01 
 2.6811111111111E-05  5.3622222222222E-05  5.3622222222222E-05  5.3622222222222E-05  5.3622222222222E-05  5.3622222222222E-05  5.3622222222222E-05  5.3622222222223E-05  5.3622222222222E-05  2.6811111111111E-05 