TITLE = "Solution on Domain BulkDomain1D_2"
VARIABLES = "x [m]"  
"Vel_axial" 	"MF_sp(ECDMC)" 	"MF_sp(Li+)" 	"MF_sp(PF6-)" 	"Volt(Electroly)" 	"Volt(CathodeVo)" 	"Temperature" 	
"Potential Drop Electrode-Electrolyte [V]" 	"Surf_0 Equilibrium Potential Drop Electrode-Electrolyte [V]" 	"Overpotential_0 [V]" 	"Current Source [A/m^2]" 	"Li+ flux [kmol/m^2/s]" 	"Electrolyte Current [A/m^2]" 	"Electrode Current [A/m^2]" 	
"Capacity discharged [A-s]" 	"Depth of discharge [-]" 	"Capacity remaining [A-s]" 	"Initial capacity [A-s]" 	"Porosity []" 	"Surface Area [m2/m2] (area per area)" 	"Specific current (per particle area) [A/m^2]" 	"Control volume thickness [m]" 	
"Moles LiCoO2 [mol/m^2] (per electrode area)" 	"Moles CoO2 [mol/m^2] (per electrode area)" 	"qHeat_accum [J/m3]" 	"qHeat_step [W/m3]" 	"Joule_Lyte [W/m3]" 	"Joule_Solid [W/m3]" 	"electrodHeat [W/m3]" 	"OverpotHeat [W/m3]" 	"deltaSHeat [W/m3]" 	

ZONE T = "t = 0 [s]" I = 10 SOLUTIONTIME = 0.0000000000000E+00
0.00127 	0 	0.92 	0.04 	0.04 	-0.07 	3.8 	298.15 	
0 	0 	0 	0 	0 	0.119132 	0 	
0 	0 	0 	0 	0.35 	6.604 	-0.0360787 	3.38667e-05 	
0.000900955 	0.000600637 	0 	0.0 	 0.0 	 0.0 	 0.0 	 0.0 	 0.0 	 
0.00133773 	0 	0.92 	0.04 	0.04 	-0.07 	3.8 	298.15 	
0 	0 	0 	0 	0 	0 	-0 	
0 	0 	0 	0 	0.35 	13.208 	-0.0360787 	6.77333e-05 	
0.00180191 	0.00120127 	0 	0.0 	 0.0 	 0.0 	 0.0 	 0.0 	 0.0 	 
0.00140547 	0 	0.92 	0.04 	0.04 	-0.07 	3.8 	298.15 	
0 	0 	0 	0 	0 	0 	-0 	
0 	0 	0 	0 	0.35 	13.208 	-0.0360787 	6.77333e-05 	
0.00180191 	0.00120127 	0 	0.0 	 0.0 	 0.0 	 0.0 	 0.0 	 0.0 	 
0.0014732 	0 	0.92 	0.04 	0.04 	-0.07 	3.8 	298.15 	
0 	0 	0 	0 	0 	0 	-0 	
0 	0 	0 	0 	0.35 	13.208 	-0.0360787 	6.77333e-05 	
0.00180191 	0.00120127 	0 	0.0 	 0.0 	 0.0 	 0.0 	 0.0 	 0.0 	 
0.00154093 	0 	0.92 	0.04 	0.04 	-0.07 	3.8 	298.15 	
0 	0 	0 	0 	0 	0 	-0 	
0 	0 	0 	0 	0.35 	13.208 	-0.0360787 	6.77333e-05 	
0.00180191 	0.00120127 	0 	0.0 	 0.0 	 0.0 	 0.0 	 0.0 	 0.0 	 
0.00160867 	0 	0.92 	0.04 	0.04 	-0.07 	3.8 	298.15 	
0 	0 	0 	0 	0 	0 	-0 	
0 	0 	0 	0 	0.35 	13.208 	-0.0360787 	6.77333e-05 	
0.00180191 	0.00120127 	0 	0.0 	 0.0 	 0.0 	 0.0 	 0.0 	 0.0 	 
0.0016764 	0 	0.92 	0.04 	0.04 	-0.07 	3.8 	298.15 	
0 	0 	0 	0 	0 	0 	-0 	
0 	0 	0 	0 	0.35 	13.208 	-0.0360787 	6.77333e-05 	
0.00180191 	0.00120127 	0 	0.0 	 0.0 	 0.0 	 0.0 	 0.0 	 0.0 	 
0.00174413 	0 	0.92 	0.04 	0.04 	-0.07 	3.8 	298.15 	
0 	0 	0 	0 	0 	0 	-0 	
0 	0 	0 	0 	0.35 	13.208 	-0.0360787 	6.77333e-05 	
0.00180191 	0.00120127 	0 	0.0 	 0.0 	 0.0 	 0.0 	 0.0 	 0.0 	 
0.00181187 	0 	0.92 	0.04 	0.04 	-0.07 	3.8 	298.15 	
0 	0 	0 	0 	0 	0 	-0 	
0 	0 	0 	0 	0.35 	13.208 	-0.0360787 	6.77333e-05 	
0.00180191 	0.00120127 	0 	0.0 	 0.0 	 0.0 	 0.0 	 0.0 	 0.0 	 
0.0018796 	0 	0.92 	0.04 	0.04 	-0.07 	3.8 	298.15 	
0 	0 	0 	0 	0 	0 	0.119132 	
0 	0 	0 	0 	0.35 	6.604 	-0.0360787 	3.38667e-05 	
0.000900955 	0.000600637 	0 	0.0 	 0.0 	 0.0 	 0.0 	 0.0 	 0.0 	 
ZONE T = "t = 1e-08 [s]" I = 10 SOLUTIONTIME = 1.0000000000000E-08
0.00127 	1.97079e-08 	0.92 	0.04 	0.04 	0.0291711 	3.80017 	298.15 	
3.87 	3.97141 	-0.101414 	-0.238264 	-0 	29.2131 	0.833696 	
-0 	7244.08 	123.46 	141.616 	0.35 	6.604 	-0.252484 	3.38667e-05 	
0.000900955 	0.000600637 	0.055319 	5.5319e+06 	0.086743 	0.0530524 	5.5319e+06 	5.5319e+06 	0 	
0.00133773 	1.73918e-08 	0.92 	0.04 	0.04 	0.0291709 	3.80017 	298.15 	
3.87 	3.97141 	-0.101414 	-0.476527 	-0 	26.7119 	3.33484 	
-0 	14488.2 	246.919 	283.231 	0.35 	13.208 	-0.252493 	6.77333e-05 	
0.00180191 	0.00120127 	-26.291 	-2.6291e+09 	0.0771486 	0.265273 	-2.6291e+09 	-2.6291e+09 	0 	
0.00140547 	1.50753e-08 	0.92 	0.04 	0.04 	0.0291707 	3.80017 	298.15 	
3.87 	3.97141 	-0.101414 	-0.476527 	-0 	23.3768 	6.66995 	
-0 	14488.2 	246.919 	283.231 	0.35 	13.208 	-0.252524 	6.77333e-05 	
0.00180191 	0.00120127 	-26.846 	-2.6846e+09 	0.0591567 	0.902005 	-2.6846e+09 	-2.6846e+09 	0 	
0.0014732 	1.27584e-08 	0.92 	0.04 	0.04 	0.0291705 	3.80016 	298.15 	
3.87 	3.97141 	-0.101414 	-0.476527 	-0 	20.0412 	10.0056 	
-0 	14488.2 	246.919 	283.231 	0.35 	13.208 	-0.252576 	6.77333e-05 	
0.00180191 	0.00120127 	-26.8297 	-2.68297e+09 	0.0435585 	1.96346 	-2.68297e+09 	-2.68297e+09 	0 	
0.00154093 	1.04416e-08 	0.92 	0.04 	0.04 	0.0291704 	3.80014 	298.15 	
3.87 	3.97141 	-0.101414 	-0.476527 	-0 	16.7047 	13.3421 	
-0 	14488.2 	246.919 	283.231 	0.35 	13.208 	-0.252649 	6.77333e-05 	
0.00180191 	0.00120127 	-26.779 	-2.6779e+09 	0.030354 	3.44998 	-2.6779e+09 	-2.6779e+09 	0 	
0.00160867 	8.12313e-09 	0.92 	0.04 	0.04 	0.0291703 	3.80012 	298.15 	
3.87 	3.97141 	-0.101414 	-0.476527 	-0 	13.3671 	16.6797 	
-0 	14488.2 	246.919 	283.231 	0.35 	13.208 	-0.252744 	6.77333e-05 	
0.00180191 	0.00120127 	-26.7759 	-2.67759e+09 	0.0195443 	5.36208 	-2.67759e+09 	-2.67759e+09 	0 	
0.0016764 	5.80361e-09 	0.92 	0.04 	0.04 	0.0291702 	3.8001 	298.15 	
3.87 	3.97141 	-0.101414 	-0.476527 	-0 	10.0281 	20.0187 	
-0 	14488.2 	246.919 	283.231 	0.35 	13.208 	-0.252861 	6.77333e-05 	
0.00180191 	0.00120127 	-26.8389 	-2.68389e+09 	0.0111312 	7.70039 	-2.68389e+09 	-2.68389e+09 	0 	
0.00174413 	3.48284e-09 	0.92 	0.04 	0.04 	0.0291701 	3.80007 	298.15 	
3.87 	3.97141 	-0.101414 	-0.476527 	-0 	6.6874 	23.3594 	
-0 	14488.2 	246.919 	283.231 	0.35 	13.208 	-0.252998 	6.77333e-05 	
0.00180191 	0.00120127 	-27.2472 	-2.72472e+09 	0.00511729 	10.4657 	-2.72472e+09 	-2.72472e+09 	0 	
0.00181187 	1.1606e-09 	0.92 	0.04 	0.04 	0.0291701 	3.80004 	298.15 	
3.87 	3.97141 	-0.101414 	-0.476527 	-0 	3.34477 	26.702 	
-0 	14488.2 	246.919 	283.231 	0.35 	13.208 	-0.253157 	6.77333e-05 	
0.00180191 	0.00120127 	-48.6112 	-4.86112e+09 	0.00150596 	13.6589 	-4.86112e+09 	-4.86112e+09 	0 	
0.0018796 	-1.45283e-12 	0.92 	0.04 	0.04 	0.0291701 	3.8 	298.149 	
3.87 	3.97141 	-0.101414 	-0.238264 	-0 	0.836463 	29.2103 	
-0 	7244.08 	123.46 	141.616 	0.35 	6.604 	-0.253322 	3.38667e-05 	
0.000900955 	0.000600637 	-1072.02 	-1.07202e+11 	0.000301427 	15.3626 	-1.07202e+11 	-1.07202e+11 	0 	
ZONE T = "t = 2e-08 [s]" I = 10 SOLUTIONTIME = 2.0000000000000E-08
0.00127 	1.9708e-08 	0.92 	0.04 	0.04 	0.0291765 	3.80017 	298.15 	
3.771 	3.97141 	-0.200411 	-1.6674 	1.47066e-07 	29.2162 	0.833789 	
4.17901e-11 	7244.08 	123.46 	141.616 	0.35 	6.604 	-0.25251 	3.38667e-05 	
0.000900955 	0.000600637 	0.110539 	5.52199e+06 	0.0867614 	0.0530642 	5.52199e+06 	5.52199e+06 	0 	
0.00133773 	1.73916e-08 	0.92 	0.04 	0.04 	0.0291763 	3.80017 	298.15 	
3.771 	3.97141 	-0.200413 	-3.33492 	1.29784e-07 	26.7147 	3.33521 	
8.35832e-11 	14488.2 	246.919 	283.231 	0.35 	13.208 	-0.252519 	6.77333e-05 	
0.00180191 	0.00120127 	-51.8055 	-2.55144e+09 	0.077165 	0.265332 	-2.55144e+09 	-2.55144e+09 	0 	
0.00140547 	1.5076e-08 	0.92 	0.04 	0.04 	0.0291761 	3.80017 	298.15 	
3.771 	3.97141 	-0.200419 	-3.33533 	1.125e-07 	23.3793 	6.67069 	
8.35934e-11 	14488.2 	246.919 	283.231 	0.35 	13.208 	-0.25255 	6.77333e-05 	
0.00180191 	0.00120127 	-53.369 	-2.65231e+09 	0.0591692 	0.902205 	-2.65231e+09 	-2.65231e+09 	0 	
0.0014732 	1.27596e-08 	0.92 	0.04 	0.04 	0.029176 	3.80016 	298.15 	
3.77098 	3.97141 	-0.20043 	-3.33602 	9.52121e-08 	20.0432 	10.0067 	
8.36107e-11 	14488.2 	246.919 	283.231 	0.35 	13.208 	-0.252602 	6.77333e-05 	
0.00180191 	0.00120127 	-53.3767 	-2.6547e+09 	0.0435676 	1.96389 	-2.6547e+09 	-2.6547e+09 	0 	
0.00154093 	1.04432e-08 	0.92 	0.04 	0.04 	0.0291758 	3.80014 	298.15 	
3.77097 	3.97141 	-0.200445 	-3.33699 	7.79195e-08 	16.7064 	13.3436 	
8.36351e-11 	14488.2 	246.919 	283.231 	0.35 	13.208 	-0.252676 	6.77333e-05 	
0.00180191 	0.00120127 	-53.3236 	-2.65446e+09 	0.0303603 	3.45074 	-2.65446e+09 	-2.65446e+09 	0 	
0.00160867 	8.12485e-09 	0.92 	0.04 	0.04 	0.0291757 	3.80012 	298.15 	
3.77095 	3.97141 	-0.200464 	-3.33825 	6.06204e-08 	13.3684 	16.6815 	
8.36665e-11 	14488.2 	246.919 	283.231 	0.35 	13.208 	-0.252771 	6.77333e-05 	
0.00180191 	0.00120127 	-53.4168 	-2.66408e+09 	0.0195483 	5.36326 	-2.66408e+09 	-2.66408e+09 	0 	
0.0016764 	5.80545e-09 	0.92 	0.04 	0.04 	0.0291756 	3.8001 	298.15 	
3.77093 	3.97141 	-0.200487 	-3.33978 	4.33133e-08 	10.0291 	20.0209 	
8.3705e-11 	14488.2 	246.919 	283.231 	0.35 	13.208 	-0.252887 	6.77333e-05 	
0.00180191 	0.00120127 	-53.5012 	-2.66623e+09 	0.0111334 	7.70209 	-2.66623e+09 	-2.66623e+09 	0 	
0.00174413 	3.48478e-09 	0.92 	0.04 	0.04 	0.0291756 	3.80007 	298.15 	
3.7709 	3.97141 	-0.200515 	-3.3416 	2.59967e-08 	6.68802 	23.3619 	
8.37506e-11 	14488.2 	246.919 	283.231 	0.35 	13.208 	-0.253025 	6.77333e-05 	
0.00180191 	0.00120127 	-55.1493 	-2.79021e+09 	0.00511825 	10.468 	-2.79021e+09 	-2.79021e+09 	0 	
0.00181187 	1.16229e-09 	0.92 	0.04 	0.04 	0.0291755 	3.80004 	298.15 	
3.77087 	3.97141 	-0.200548 	-3.3437 	8.66933e-09 	3.34503 	26.7049 	
8.38032e-11 	14488.2 	246.919 	283.231 	0.35 	13.208 	-0.253183 	6.77333e-05 	
0.00180191 	0.00120127 	-116.85 	-6.82387e+09 	0.00150621 	13.6619 	-6.82387e+09 	-6.82387e+09 	0 	
0.0018796 	3.63208e-13 	0.92 	0.04 	0.04 	0.0291755 	3.8 	298.148 	
3.77083 	3.97141 	-0.200585 	-1.67294 	8.66933e-09 	0.836502 	29.2135 	
4.19288e-11 	7244.08 	123.46 	141.616 	0.35 	6.604 	-0.253332 	3.38667e-05 	
0.000900955 	0.000600637 	-2096.33 	-1.0243e+11 	0.000301454 	15.366 	-1.0243e+11 	-1.0243e+11 	0 	
ZONE T = "t = 3e-08 [s]" I = 10 SOLUTIONTIME = 3.0000000000000E-08
0.00127 	1.97141e-08 	0.92 	0.04 	0.04 	0.029182 	3.80017 	298.15 	
3.771 	3.97141 	-0.200416 	-1.66758 	1.47082e-07 	29.2191 	0.833877 	
8.35846e-11 	7244.08 	123.46 	141.616 	0.35 	6.604 	-0.252537 	3.38667e-05 	
0.000900955 	0.000600637 	0.165656 	5.51168e+06 	0.0867788 	0.0530755 	5.51167e+06 	5.51167e+06 	0 	
0.00133773 	1.73982e-08 	0.92 	0.04 	0.04 	0.0291817 	3.80017 	298.15 	
3.771 	3.97141 	-0.200418 	-3.33527 	1.29797e-07 	26.7174 	3.33556 	
1.67175e-10 	14488.2 	246.919 	283.231 	0.35 	13.208 	-0.252545 	6.77333e-05 	
0.00180191 	0.00120127 	-76.7544 	-2.49489e+09 	0.0771804 	0.265388 	-2.49489e+09 	-2.49489e+09 	0 	
0.00140547 	1.50813e-08 	0.92 	0.04 	0.04 	0.0291816 	3.80017 	298.15 	
3.77099 	3.97141 	-0.200424 	-3.33568 	1.12512e-07 	23.3816 	6.67138 	
1.67196e-10 	14488.2 	246.919 	283.231 	0.35 	13.208 	-0.252576 	6.77333e-05 	
0.00180191 	0.00120127 	-79.9293 	-2.65603e+09 	0.0591809 	0.902393 	-2.65603e+09 	-2.65603e+09 	0 	
0.0014732 	1.27639e-08 	0.92 	0.04 	0.04 	0.0291814 	3.80016 	298.15 	
3.77098 	3.97141 	-0.200435 	-3.33637 	9.52221e-08 	20.0452 	10.0078 	
1.6723e-10 	14488.2 	246.919 	283.231 	0.35 	13.208 	-0.252628 	6.77333e-05 	
0.00180191 	0.00120127 	-79.9007 	-2.65239e+09 	0.0435761 	1.9643 	-2.65239e+09 	-2.65239e+09 	0 	
0.00154093 	1.04458e-08 	0.92 	0.04 	0.04 	0.0291813 	3.80014 	298.15 	
3.77096 	3.97141 	-0.20045 	-3.33734 	7.79275e-08 	16.708 	13.345 	
1.67279e-10 	14488.2 	246.919 	283.231 	0.35 	13.208 	-0.252702 	6.77333e-05 	
0.00180191 	0.00120127 	-79.8772 	-2.65536e+09 	0.0303662 	3.45146 	-2.65536e+09 	-2.65536e+09 	0 	
0.00160867 	8.12689e-09 	0.92 	0.04 	0.04 	0.0291812 	3.80012 	298.15 	
3.77095 	3.97141 	-0.200469 	-3.33859 	6.06265e-08 	13.3697 	16.6833 	
1.67342e-10 	14488.2 	246.919 	283.231 	0.35 	13.208 	-0.252797 	6.77333e-05 	
0.00180191 	0.00120127 	-79.9591 	-2.65424e+09 	0.019552 	5.36438 	-2.65424e+09 	-2.65424e+09 	0 	
0.0016764 	5.80724e-09 	0.92 	0.04 	0.04 	0.0291811 	3.8001 	298.15 	
3.77092 	3.97141 	-0.200493 	-3.34013 	4.33175e-08 	10.03 	20.023 	
1.67419e-10 	14488.2 	246.919 	283.231 	0.35 	13.208 	-0.252913 	6.77333e-05 	
0.00180191 	0.00120127 	-80.1127 	-2.66115e+09 	0.0111355 	7.70369 	-2.66115e+09 	-2.66115e+09 	0 	
0.00174413 	3.48633e-09 	0.92 	0.04 	0.04 	0.029181 	3.80007 	298.15 	
3.77089 	3.97141 	-0.200521 	-3.34195 	2.5999e-08 	6.6886 	23.3644 	
1.6751e-10 	14488.2 	246.919 	283.231 	0.35 	13.208 	-0.253051 	6.77333e-05 	
0.00180191 	0.00120127 	-84.2785 	-2.91292e+09 	0.00511916 	10.4702 	-2.91292e+09 	-2.91292e+09 	0 	
0.00181187 	1.16434e-09 	0.92 	0.04 	0.04 	0.029181 	3.80004 	298.15 	
3.77086 	3.97141 	-0.200553 	-3.34404 	8.66973e-09 	3.34527 	26.7077 	
1.67615e-10 	14488.2 	246.919 	283.231 	0.35 	13.208 	-0.253209 	6.77333e-05 	
0.00180191 	0.00120127 	-203.294 	-8.64445e+09 	0.00150645 	13.6648 	-8.64445e+09 	-8.64445e+09 	0 	
0.0018796 	2.72406e-12 	0.92 	0.04 	0.04 	0.029181 	3.8 	298.148 	
3.77082 	3.97142 	-0.200591 	-1.673 	8.66973e-09 	0.836538 	29.2164 	
8.38593e-11 	7244.08 	123.46 	141.616 	0.35 	6.604 	-0.253343 	3.38667e-05 	
0.000900955 	0.000600637 	-3076.02 	-9.79691e+10 	0.00030148 	15.3692 	-9.79691e+10 	-9.79691e+10 	0 	
ZONE T = "t = 4e-08 [s]" I = 10 SOLUTIONTIME = 4.0000000000000E-08
0.00127 	1.97114e-08 	0.92 	0.04 	0.04 	0.0291874 	3.80017 	298.15 	
3.77099 	3.97141 	-0.200422 	-1.66775 	1.47096e-07 	29.222 	0.833965 	
1.25383e-10 	7244.08 	123.46 	141.616 	0.35 	6.604 	-0.252564 	3.38667e-05 	
0.000900955 	0.000600637 	0.220676 	5.50202e+06 	0.0867962 	0.0530867 	5.50202e+06 	5.50202e+06 	0 	
0.00133773 	1.73945e-08 	0.92 	0.04 	0.04 	0.0291872 	3.80017 	298.15 	
3.77099 	3.97141 	-0.200424 	-3.33562 	1.2981e-07 	26.7201 	3.33591 	
2.50776e-10 	14488.2 	246.919 	283.231 	0.35 	13.208 	-0.252572 	6.77333e-05 	
0.00180191 	0.00120127 	-101.237 	-2.4483e+09 	0.0771958 	0.265444 	-2.4483e+09 	-2.4483e+09 	0 	
0.00140547 	1.50774e-08 	0.92 	0.04 	0.04 	0.029187 	3.80017 	298.15 	
3.77098 	3.97141 	-0.20043 	-3.33603 	1.12523e-07 	23.3839 	6.67208 	
2.50806e-10 	14488.2 	246.919 	283.231 	0.35 	13.208 	-0.252602 	6.77333e-05 	
0.00180191 	0.00120127 	-106.398 	-2.64689e+09 	0.0591927 	0.902582 	-2.64689e+09 	-2.64689e+09 	0 	
0.0014732 	1.27604e-08 	0.92 	0.04 	0.04 	0.0291869 	3.80016 	298.15 	
3.77097 	3.97141 	-0.20044 	-3.33672 	9.52314e-08 	20.0472 	10.0088 	
2.50858e-10 	14488.2 	246.919 	283.231 	0.35 	13.208 	-0.252655 	6.77333e-05 	
0.00180191 	0.00120127 	-106.445 	-2.65444e+09 	0.0435847 	1.96471 	-2.65444e+09 	-2.65444e+09 	0 	
0.00154093 	1.04429e-08 	0.92 	0.04 	0.04 	0.0291867 	3.80014 	298.15 	
3.77096 	3.97141 	-0.200455 	-3.33769 	7.7935e-08 	16.7097 	13.3464 	
2.50931e-10 	14488.2 	246.919 	283.231 	0.35 	13.208 	-0.252728 	6.77333e-05 	
0.00180191 	0.00120127 	-106.385 	-2.65078e+09 	0.0303721 	3.45219 	-2.65078e+09 	-2.65078e+09 	0 	
0.00160867 	8.12439e-09 	0.92 	0.04 	0.04 	0.0291866 	3.80012 	298.15 	
3.77094 	3.97141 	-0.200475 	-3.33894 	6.06322e-08 	13.371 	16.685 	
2.51026e-10 	14488.2 	246.919 	283.231 	0.35 	13.208 	-0.252823 	6.77333e-05 	
0.00180191 	0.00120127 	-106.529 	-2.65702e+09 	0.0195558 	5.3655 	-2.65702e+09 	-2.65702e+09 	0 	
0.0016764 	5.80378e-09 	0.92 	0.04 	0.04 	0.0291865 	3.8001 	298.15 	
3.77092 	3.97141 	-0.200498 	-3.34048 	4.33214e-08 	10.0309 	20.0251 	
2.51141e-10 	14488.2 	246.919 	283.231 	0.35 	13.208 	-0.25294 	6.77333e-05 	
0.00180191 	0.00120127 	-106.833 	-2.67204e+09 	0.0111376 	7.7053 	-2.67204e+09 	-2.67204e+09 	0 	
0.00174413 	3.48226e-09 	0.92 	0.04 	0.04 	0.0291865 	3.80007 	298.15 	
3.77089 	3.97141 	-0.200526 	-3.3423 	2.60011e-08 	6.68919 	23.3668 	
2.51278e-10 	14488.2 	246.919 	283.231 	0.35 	13.208 	-0.253078 	6.77333e-05 	
0.00180191 	0.00120127 	-114.858 	-3.05792e+09 	0.00512006 	10.4724 	-3.05792e+09 	-3.05792e+09 	0 	
0.00181187 	1.16003e-09 	0.92 	0.04 	0.04 	0.0291864 	3.80004 	298.15 	
3.77086 	3.97141 	-0.200559 	-3.34438 	8.67011e-09 	3.34551 	26.7105 	
2.51435e-10 	14488.2 	246.919 	283.231 	0.35 	13.208 	-0.253234 	6.77333e-05 	
0.00180191 	0.00120127 	-306.314 	-1.03019e+10 	0.00150668 	13.6676 	-1.03019e+10 	-1.03019e+10 	0 	
0.0018796 	-1.99764e-12 	0.92 	0.04 	0.04 	0.0291864 	3.8 	298.147 	
3.77082 	3.97142 	-0.200597 	-1.67308 	8.67011e-09 	0.836577 	29.2194 	
1.25792e-10 	7244.08 	123.46 	141.616 	0.35 	6.604 	-0.253355 	3.38667e-05 	
0.000900955 	0.000600637 	-4013.89 	-9.37871e+10 	0.000301508 	15.3724 	-9.37871e+10 	-9.37871e+10 	0 	
ZONE T = "t = 5.5e-08 [s]" I = 10 SOLUTIONTIME = 5.5000000000000E-08
0.00127 	1.97155e-08 	0.92 	0.04 	0.04 	0.0291956 	3.80017 	298.15 	
3.77099 	3.97141 	-0.200427 	-1.66793 	1.47111e-07 	29.2264 	0.834098 	
1.67187e-10 	7244.08 	123.46 	141.616 	0.35 	6.604 	-0.252604 	3.38667e-05 	
0.000900955 	0.000600637 	0.303003 	5.4885e+06 	0.0868224 	0.0531036 	5.4885e+06 	5.4885e+06 	0 	
0.00133773 	1.73986e-08 	0.92 	0.04 	0.04 	0.0291954 	3.80017 	298.15 	
3.77099 	3.97141 	-0.200429 	-3.33597 	1.29823e-07 	26.7241 	3.33644 	
3.34385e-10 	14488.2 	246.919 	283.231 	0.35 	13.208 	-0.252611 	6.77333e-05 	
0.00180191 	0.00120127 	-136.919 	-2.3788e+09 	0.0772191 	0.265527 	-2.3788e+09 	-2.3788e+09 	0 	
0.00140547 	1.50809e-08 	0.92 	0.04 	0.04 	0.0291952 	3.80017 	298.15 	
3.77098 	3.97141 	-0.200435 	-3.33637 	1.12534e-07 	23.3874 	6.67313 	
3.34426e-10 	14488.2 	246.919 	283.231 	0.35 	13.208 	-0.252642 	6.77333e-05 	
0.00180191 	0.00120127 	-145.847 	-2.62992e+09 	0.0592104 	0.902866 	-2.62992e+09 	-2.62992e+09 	0 	
0.0014732 	1.27631e-08 	0.92 	0.04 	0.04 	0.0291951 	3.80016 	298.15 	
3.77097 	3.97141 	-0.200446 	-3.33706 	9.52407e-08 	20.0502 	10.0104 	
3.34495e-10 	14488.2 	246.919 	283.231 	0.35 	13.208 	-0.252694 	6.77333e-05 	
0.00180191 	0.00120127 	-146.29 	-2.65635e+09 	0.0435977 	1.96533 	-2.65635e+09 	-2.65635e+09 	0 	
0.00154093 	1.04445e-08 	0.92 	0.04 	0.04 	0.0291949 	3.80014 	298.15 	
3.77095 	3.97141 	-0.200461 	-3.33804 	7.79426e-08 	16.7121 	13.3484 	
3.34592e-10 	14488.2 	246.919 	283.231 	0.35 	13.208 	-0.252768 	6.77333e-05 	
0.00180191 	0.00120127 	-146.316 	-2.66207e+09 	0.030381 	3.45327 	-2.66207e+09 	-2.66207e+09 	0 	
0.00160867 	8.12507e-09 	0.92 	0.04 	0.04 	0.0291948 	3.80012 	298.15 	
3.77093 	3.97141 	-0.20048 	-3.33929 	6.06379e-08 	13.3729 	16.6876 	
3.34718e-10 	14488.2 	246.919 	283.231 	0.35 	13.208 	-0.252863 	6.77333e-05 	
0.00180191 	0.00120127 	-146.369 	-2.65601e+09 	0.0195614 	5.36719 	-2.65601e+09 	-2.65601e+09 	0 	
0.0016764 	5.80505e-09 	0.92 	0.04 	0.04 	0.0291947 	3.8001 	298.15 	
3.77091 	3.97141 	-0.200504 	-3.34083 	4.33253e-08 	10.0323 	20.0282 	
3.34872e-10 	14488.2 	246.919 	283.231 	0.35 	13.208 	-0.252979 	6.77333e-05 	
0.00180191 	0.00120127 	-147.198 	-2.69099e+09 	0.0111407 	7.70772 	-2.69099e+09 	-2.69099e+09 	0 	
0.00174413 	3.48378e-09 	0.92 	0.04 	0.04 	0.0291947 	3.80007 	298.15 	
3.77088 	3.97141 	-0.200532 	-3.34265 	2.60033e-08 	6.69007 	23.3705 	
3.35055e-10 	14488.2 	246.919 	283.231 	0.35 	13.208 	-0.253117 	6.77333e-05 	
0.00180191 	0.00120127 	-164.873 	-3.33436e+09 	0.00512142 	10.4757 	-3.33436e+09 	-3.33436e+09 	0 	
0.00181187 	1.1606e-09 	0.92 	0.04 	0.04 	0.0291946 	3.80004 	298.15 	
3.77085 	3.97141 	-0.200564 	-3.34471 	8.67051e-09 	3.34588 	26.7147 	
3.35264e-10 	14488.2 	246.919 	283.231 	0.35 	13.208 	-0.253271 	6.77333e-05 	
0.00180191 	0.00120127 	-493.326 	-1.24675e+10 	0.00150704 	13.6719 	-1.24675e+10 	-1.24675e+10 	0 	
0.0018796 	-1.21069e-12 	0.92 	0.04 	0.04 	0.0291946 	3.8 	298.146 	
3.77081 	3.97142 	-0.200603 	-1.67315 	8.67051e-09 	0.83664 	29.2239 	
1.67726e-10 	7244.08 	123.46 	141.616 	0.35 	6.604 	-0.253374 	3.38667e-05 	
0.000900955 	0.000600637 	-5335.14 	-8.80832e+10 	0.000301552 	15.3772 	-8.80832e+10 	-8.80832e+10 	0 	
ZONE T = "t = 7.75e-08 [s]" I = 10 SOLUTIONTIME = 7.7500000000000E-08
0.00127 	1.972e-08 	0.92 	0.04 	0.04 	0.0292079 	3.80017 	298.15 	
3.77098 	3.97141 	-0.200435 	-1.6682 	1.47134e-07 	29.2331 	0.834297 	
2.29902e-10 	7244.08 	123.46 	141.616 	0.35 	6.604 	-0.252664 	3.38667e-05 	
0.000900955 	0.000600637 	0.425997 	5.46637e+06 	0.0868617 	0.053129 	5.46637e+06 	5.46637e+06 	0 	
0.00133773 	1.74025e-08 	0.92 	0.04 	0.04 	0.0292077 	3.80017 	298.15 	
3.77098 	3.97141 	-0.200437 	-3.33649 	1.29843e-07 	26.7301 	3.33723 	
4.59819e-10 	14488.2 	246.919 	283.231 	0.35 	13.208 	-0.252671 	6.77333e-05 	
0.00180191 	0.00120127 	-188.23 	-2.28048e+09 	0.0772539 	0.265653 	-2.28048e+09 	-2.28048e+09 	0 	
0.00140547 	1.50852e-08 	0.92 	0.04 	0.04 	0.0292075 	3.80017 	298.15 	
3.77097 	3.97141 	-0.200443 	-3.3369 	1.12551e-07 	23.3927 	6.67471 	
4.59875e-10 	14488.2 	246.919 	283.231 	0.35 	13.208 	-0.252701 	6.77333e-05 	
0.00180191 	0.00120127 	-204.873 	-2.62337e+09 	0.059237 	0.903293 	-2.62337e+09 	-2.62337e+09 	0 	
0.0014732 	1.27671e-08 	0.92 	0.04 	0.04 	0.0292074 	3.80016 	298.15 	
3.77096 	3.97141 	-0.200454 	-3.33759 	9.52548e-08 	20.0546 	10.0127 	
4.5997e-10 	14488.2 	246.919 	283.231 	0.35 	13.208 	-0.252754 	6.77333e-05 	
0.00180191 	0.00120127 	-206.143 	-2.66013e+09 	0.0436171 	1.96626 	-2.66013e+09 	-2.66013e+09 	0 	
0.00154093 	1.04484e-08 	0.92 	0.04 	0.04 	0.0292072 	3.80014 	298.15 	
3.77095 	3.97141 	-0.200469 	-3.33856 	7.79539e-08 	16.7158 	13.3516 	
4.60104e-10 	14488.2 	246.919 	283.231 	0.35 	13.208 	-0.252827 	6.77333e-05 	
0.00180191 	0.00120127 	-206.104 	-2.65726e+09 	0.0303944 	3.4549 	-2.65726e+09 	-2.65726e+09 	0 	
0.00160867 	8.12886e-09 	0.92 	0.04 	0.04 	0.0292071 	3.80012 	298.15 	
3.77093 	3.97141 	-0.200488 	-3.33981 	6.06466e-08 	13.3758 	16.6916 	
4.60277e-10 	14488.2 	246.919 	283.231 	0.35 	13.208 	-0.252922 	6.77333e-05 	
0.00180191 	0.00120127 	-206.346 	-2.66561e+09 	0.0195699 	5.36972 	-2.66561e+09 	-2.66561e+09 	0 	
0.0016764 	5.80822e-09 	0.92 	0.04 	0.04 	0.029207 	3.8001 	298.15 	
3.7709 	3.97141 	-0.200512 	-3.34135 	4.33312e-08 	10.0344 	20.0329 	
4.60489e-10 	14488.2 	246.919 	283.231 	0.35 	13.208 	-0.253039 	6.77333e-05 	
0.00180191 	0.00120127 	-209.026 	-2.74792e+09 	0.0111454 	7.71135 	-2.74792e+09 	-2.74792e+09 	0 	
0.00174413 	3.486e-09 	0.92 	0.04 	0.04 	0.029207 	3.80007 	298.15 	
3.77087 	3.97141 	-0.20054 	-3.34317 	2.60065e-08 	6.6914 	23.376 	
4.6074e-10 	14488.2 	246.919 	283.231 	0.35 	13.208 	-0.253176 	6.77333e-05 	
0.00180191 	0.00120127 	-251.15 	-3.83452e+09 	0.00512347 	10.4806 	-3.83452e+09 	-3.83452e+09 	0 	
0.00181187 	1.16256e-09 	0.92 	0.04 	0.04 	0.0292069 	3.80004 	298.149 	
3.77084 	3.97141 	-0.200573 	-3.34521 	8.67116e-09 	3.34645 	26.7209 	
4.61025e-10 	14488.2 	246.919 	283.231 	0.35 	13.208 	-0.253326 	6.77333e-05 	
0.00180191 	0.00120127 	-833.564 	-1.51217e+10 	0.00150758 	13.6783 	-1.51217e+10 	-1.51217e+10 	0 	
0.0018796 	4.84277e-13 	0.92 	0.04 	0.04 	0.0292069 	3.8 	298.144 	
3.77081 	3.97142 	-0.200612 	-1.67328 	8.67116e-09 	0.836743 	29.2306 	
2.30632e-10 	7244.08 	123.46 	141.616 	0.35 	6.604 	-0.253405 	3.38667e-05 	
0.000900955 	0.000600637 	-7148.92 	-8.06126e+10 	0.000301626 	15.3844 	-8.06126e+10 	-8.06126e+10 	0 	
ZONE T = "t = 1.1125e-07 [s]" I = 10 SOLUTIONTIME = 1.1125000000000E-07
0.00127 	1.97274e-08 	0.92 	0.04 	0.04 	0.0292263 	3.80017 	298.15 	
3.77097 	3.97141 	-0.200447 	-1.66859 	1.47167e-07 	29.243 	0.834596 	
3.23997e-10 	7244.08 	123.46 	141.616 	0.35 	6.604 	-0.252755 	3.38667e-05 	
0.000900955 	0.000600637 	0.60946 	5.43596e+06 	0.0869207 	0.053167 	5.43596e+06 	5.43596e+06 	0 	
0.00133773 	1.74091e-08 	0.92 	0.04 	0.04 	0.0292261 	3.80017 	298.15 	
3.77096 	3.97141 	-0.200449 	-3.33727 	1.29872e-07 	26.7392 	3.33842 	
6.48013e-10 	14488.2 	246.919 	283.231 	0.35 	13.208 	-0.25276 	6.77333e-05 	
0.00180191 	0.00120127 	-260.993 	-2.15595e+09 	0.0773062 	0.265842 	-2.15595e+09 	-2.15595e+09 	0 	
0.00140547 	1.50906e-08 	0.92 	0.04 	0.04 	0.0292259 	3.80017 	298.15 	
3.77096 	3.97141 	-0.200456 	-3.33768 	1.12576e-07 	23.4005 	6.67707 	
6.48092e-10 	14488.2 	246.919 	283.231 	0.35 	13.208 	-0.25279 	6.77333e-05 	
0.00180191 	0.00120127 	-292.456 	-2.59505e+09 	0.0592768 	0.903932 	-2.59505e+09 	-2.59505e+09 	0 	
0.0014732 	1.27716e-08 	0.92 	0.04 	0.04 	0.0292258 	3.80016 	298.15 	
3.77095 	3.97141 	-0.200466 	-3.33837 	9.52759e-08 	20.0613 	10.0163 	
6.48226e-10 	14488.2 	246.919 	283.231 	0.35 	13.208 	-0.252843 	6.77333e-05 	
0.00180191 	0.00120127 	-295.612 	-2.65094e+09 	0.0436462 	1.96765 	-2.65094e+09 	-2.65094e+09 	0 	
0.00154093 	1.04519e-08 	0.92 	0.04 	0.04 	0.0292257 	3.80014 	298.15 	
3.77093 	3.97141 	-0.200481 	-3.33934 	7.7971e-08 	16.7213 	13.3563 	
6.48415e-10 	14488.2 	246.919 	283.231 	0.35 	13.208 	-0.252916 	6.77333e-05 	
0.00180191 	0.00120127 	-295.954 	-2.6622e+09 	0.0304145 	3.45734 	-2.6622e+09 	-2.6622e+09 	0 	
0.00160867 	8.13125e-09 	0.92 	0.04 	0.04 	0.0292255 	3.80012 	298.15 	
3.77091 	3.97141 	-0.200501 	-3.3406 	6.06595e-08 	13.3802 	16.6975 	
6.48659e-10 	14488.2 	246.919 	283.231 	0.35 	13.208 	-0.253012 	6.77333e-05 	
0.00180191 	0.00120127 	-296.715 	-2.67762e+09 	0.0195826 	5.37351 	-2.67762e+09 	-2.67762e+09 	0 	
0.0016764 	5.80953e-09 	0.92 	0.04 	0.04 	0.0292255 	3.8001 	298.15 	
3.77089 	3.97141 	-0.200524 	-3.34214 	4.33401e-08 	10.0376 	20.04 	
6.48958e-10 	14488.2 	246.919 	283.231 	0.35 	13.208 	-0.253128 	6.77333e-05 	
0.00180191 	0.00120127 	-305.749 	-2.86585e+09 	0.0111525 	7.71679 	-2.86585e+09 	-2.86585e+09 	0 	
0.00174413 	3.48666e-09 	0.92 	0.04 	0.04 	0.0292254 	3.80007 	298.15 	
3.77086 	3.97141 	-0.200552 	-3.34395 	2.60113e-08 	6.69339 	23.3842 	
6.49311e-10 	14488.2 	246.919 	283.231 	0.35 	13.208 	-0.253264 	6.77333e-05 	
0.00180191 	0.00120127 	-409.247 	-4.68437e+09 	0.00512656 	10.488 	-4.68437e+09 	-4.68437e+09 	0 	
0.00181187 	1.16248e-09 	0.92 	0.04 	0.04 	0.0292254 	3.80004 	298.149 	
3.77083 	3.97141 	-0.200585 	-3.34593 	8.67223e-09 	3.34733 	26.7303 	
6.49708e-10 	14488.2 	246.919 	283.231 	0.35 	13.208 	-0.253407 	6.77333e-05 	
0.00180191 	0.00120127 	-1442.89 	-1.8054e+10 	0.0015084 	13.6879 	-1.8054e+10 	-1.8054e+10 	0 	
0.0018796 	1.07617e-13 	0.92 	0.04 	0.04 	0.0292254 	3.8 	298.142 	
3.77079 	3.97142 	-0.200626 	-1.67349 	8.67223e-09 	0.836914 	29.2407 	
3.25003e-10 	7244.08 	123.46 	141.616 	0.35 	6.604 	-0.253457 	3.38667e-05 	
0.000900955 	0.000600637 	-9557.64 	-7.13696e+10 	0.000301748 	15.3951 	-7.13696e+10 	-7.13696e+10 	0 	
ZONE T = "t = 1.61875e-07 [s]" I = 10 SOLUTIONTIME = 1.6187500000000E-07
0.00127 	1.9737e-08 	0.92 	0.04 	0.04 	0.0292539 	3.80017 	298.15 	
3.77095 	3.97141 	-0.200466 	-1.66919 	1.47218e-07 	29.2579 	0.835042 	
4.6519e-10 	7244.08 	123.46 	141.616 	0.35 	6.604 	-0.25289 	3.38667e-05 	
0.000900955 	0.000600637 	0.882572 	5.39481e+06 	0.0870088 	0.0532239 	5.39481e+06 	5.39481e+06 	0 	
0.00133773 	1.74174e-08 	0.92 	0.04 	0.04 	0.0292537 	3.80017 	298.15 	
3.77095 	3.97141 	-0.200468 	-3.33845 	1.29916e-07 	26.7527 	3.34019 	
9.30405e-10 	14488.2 	246.919 	283.231 	0.35 	13.208 	-0.252893 	6.77333e-05 	
0.00180191 	0.00120127 	-362.201 	-1.99915e+09 	0.0773845 	0.266124 	-1.99915e+09 	-1.99915e+09 	0 	
0.00140547 	1.50977e-08 	0.92 	0.04 	0.04 	0.0292535 	3.80017 	298.15 	
3.77094 	3.97141 	-0.200474 	-3.33886 	1.12614e-07 	23.4123 	6.68061 	
9.30518e-10 	14488.2 	246.919 	283.231 	0.35 	13.208 	-0.252923 	6.77333e-05 	
0.00180191 	0.00120127 	-421.526 	-2.54953e+09 	0.0593365 	0.904889 	-2.54953e+09 	-2.54953e+09 	0 	
0.0014732 	1.27775e-08 	0.92 	0.04 	0.04 	0.0292533 	3.80016 	298.15 	
3.77093 	3.97141 	-0.200485 	-3.33955 	9.53075e-08 	20.0713 	10.0216 	
9.30711e-10 	14488.2 	246.919 	283.231 	0.35 	13.208 	-0.252976 	6.77333e-05 	
0.00180191 	0.00120127 	-429.471 	-2.64413e+09 	0.0436898 	1.96973 	-2.64413e+09 	-2.64413e+09 	0 	
0.00154093 	1.04566e-08 	0.92 	0.04 	0.04 	0.0292532 	3.80014 	298.15 	
3.77091 	3.97141 	-0.2005 	-3.34052 	7.79965e-08 	16.7296 	13.3634 	
9.30982e-10 	14488.2 	246.919 	283.231 	0.35 	13.208 	-0.25305 	6.77333e-05 	
0.00180191 	0.00120127 	-430.911 	-2.66583e+09 	0.0304445 	3.46099 	-2.66583e+09 	-2.66583e+09 	0 	
0.00160867 	8.13488e-09 	0.92 	0.04 	0.04 	0.0292531 	3.80012 	298.15 	
3.7709 	3.97141 	-0.200519 	-3.34178 	6.0679e-08 	13.3866 	16.7063 	
9.31332e-10 	14488.2 	246.919 	283.231 	0.35 	13.208 	-0.253145 	6.77333e-05 	
0.00180191 	0.00120127 	-434.364 	-2.71899e+09 	0.0196017 	5.37918 	-2.71899e+09 	-2.71899e+09 	0 	
0.0016764 	5.81212e-09 	0.92 	0.04 	0.04 	0.029253 	3.8001 	298.15 	
3.77087 	3.97141 	-0.200543 	-3.34331 	4.33535e-08 	10.0423 	20.0506 	
9.31761e-10 	14488.2 	246.919 	283.231 	0.35 	13.208 	-0.253261 	6.77333e-05 	
0.00180191 	0.00120127 	-464.558 	-3.13698e+09 	0.011163 	7.72493 	-3.13698e+09 	-3.13698e+09 	0 	
0.00174413 	3.48805e-09 	0.92 	0.04 	0.04 	0.0292529 	3.80007 	298.149 	
3.77084 	3.97141 	-0.200571 	-3.34512 	2.60186e-08 	6.69639 	23.3965 	
9.32266e-10 	14488.2 	246.919 	283.231 	0.35 	13.208 	-0.253395 	6.77333e-05 	
0.00180191 	0.00120127 	-712.998 	-6.00001e+09 	0.00513119 	10.499 	-6.00001e+09 	-6.00001e+09 	0 	
0.00181187 	1.16278e-09 	0.92 	0.04 	0.04 	0.0292529 	3.80004 	298.148 	
3.77081 	3.97142 	-0.200604 	-3.347 	8.67401e-09 	3.34868 	26.7442 	
9.32823e-10 	14488.2 	246.919 	283.231 	0.35 	13.208 	-0.253526 	6.77333e-05 	
0.00180191 	0.00120127 	-2496.88 	-2.08197e+10 	0.00150966 	13.7022 	-2.08197e+10 	-2.08197e+10 	0 	
0.0018796 	1.07617e-13 	0.92 	0.04 	0.04 	0.0292529 	3.8 	298.14 	
3.77077 	3.97142 	-0.200646 	-1.67383 	8.67401e-09 	0.837198 	29.2557 	
4.66588e-10 	7244.08 	123.46 	141.616 	0.35 	6.604 	-0.253543 	3.38667e-05 	
0.000900955 	0.000600637 	-12634.1 	-6.07695e+10 	0.000301951 	15.4111 	-6.07695e+10 	-6.07695e+10 	0 	
ZONE T = "t = 2.37813e-07 [s]" I = 10 SOLUTIONTIME = 2.3781250000000E-07
0.00127 	1.97519e-08 	0.92 	0.04 	0.04 	0.0292948 	3.80018 	298.15 	
3.77092 	3.97141 	-0.200493 	-1.67008 	1.47293e-07 	29.28 	0.835705 	
6.77092e-10 	7244.08 	123.46 	141.616 	0.35 	6.604 	-0.253091 	3.38667e-05 	
0.000900955 	0.000600637 	1.28794 	5.33816e+06 	0.0871402 	0.0533085 	5.33816e+06 	5.33816e+06 	0 	
0.00133773 	1.74307e-08 	0.92 	0.04 	0.04 	0.0292946 	3.80017 	298.15 	
3.77092 	3.97141 	-0.200495 	-3.34022 	1.29981e-07 	26.7728 	3.34283 	
1.35422e-09 	14488.2 	246.919 	283.231 	0.35 	13.208 	-0.253092 	6.77333e-05 	
0.00180191 	0.00120127 	-499.715 	-1.81089e+09 	0.077501 	0.266544 	-1.81089e+09 	-1.81089e+09 	0 	
0.00140547 	1.51091e-08 	0.92 	0.04 	0.04 	0.0292944 	3.80017 	298.15 	
3.77091 	3.97141 	-0.200502 	-3.34061 	1.1267e-07 	23.4298 	6.68586 	
1.35438e-09 	14488.2 	246.919 	283.231 	0.35 	13.208 	-0.253121 	6.77333e-05 	
0.00180191 	0.00120127 	-608.907 	-2.46758e+09 	0.0594253 	0.906314 	-2.46758e+09 	-2.46758e+09 	0 	
0.0014732 	1.2787e-08 	0.92 	0.04 	0.04 	0.0292942 	3.80016 	298.149 	