TITLE = "Solution on Domain BulkDomain1D_2"
VARIABLES = "x [m]"  
"Vel_axial" 	"MF_sp(ECDMC)" 	"MF_sp(Li+)" 	"MF_sp(PF6-)" 	"Volt(Electroly)" 	"Volt(CathodeVo)" 	"Temperature" 	
"Potential Drop Electrode-Electrolyte [V]" 	"Surf_0 Equilibrium Potential Drop Electrode-Electrolyte [V]" 	"Overpotential_0 [V]" 	"Current Source [A/m^2]" 	"Li+ flux [kmol/m^2/s]" 	"Electrolyte Current [A/m^2]" 	"Electrode Current [A/m^2]" 	
"CV Capacity discharged [A-s/m^2]" 	"Depth of discharge in CV [A-s/m^2]" 	"CV Capacity remaining [A-s/m^2]" 	"Initial CV capacity [A-s/m^2]" 	"Porosity []" 	"Surface Area [m2/m2] (area per area)" 	"Specific current (per particle area) [A/m^2]" 	"Control volume thickness [m]" 	
"MoleDens LiCoO2 [kmol/m^3]" 	"MoleDens CoO2 [kmol/m^3]" 	"qHeat_accum [J/m3]" 	"qHeat_step [W/m3]" 	"Joule_Lyte [W/m3]" 	"Joule_Solid [W/m3]" 	"electrodHeat [W/m3]" 	"OverpotHeat [W/m3]" 	"deltaSHeat [W/m3]" 	

ZONE T = "CATH, 0.0000E+00", I = 10, SOLUTIONTIME = 0.000000E+00
ZONETYPE = ORDERED
DATAPACKING = BLOCK
STRANDID = 3
 1.2700000000000E-03  1.3377333333333E-03  1.4054666666667E-03  1.4732000000000E-03  1.5409333333333E-03  1.6086666666667E-03  1.6764000000000E-03  1.7441333333333E-03  1.8118666666667E-03  1.8796000000000E-03 
 0.0000000000000E+00  0.0000000000000E+00  0.0000000000000E+00  0.0000000000000E+00  0.0000000000000E+00  0.0000000000000E+00  0.0000000000000E+00  0.0000000000000E+00  0.0000000000000E+00  0.0000000000000E+00 
 9.2000000000000E-01  9.2000000000000E-01  9.2000000000000E-01  9.2000000000000E-01  9.2000000000000E-01  9.2000000000000E-01  9.2000000000000E-01  9.2000000000000E-01  9.2000000000000E-01  9.2000000000000E-01 
 4.0000000000000E-02  4.0000000000000E-02  4.0000000000000E-02  4.0000000000000E-02  4.0000000000000E-02  4.0000000000000E-02  4.0000000000000E-02  4.0000000000000E-02  4.0000000000000E-02  4.0000000000000E-02 
 4.0000000000000E-02  4.0000000000000E-02  4.0000000000000E-02  4.0000000000000E-02  4.0000000000000E-02  4.0000000000000E-02  4.0000000000000E-02  4.0000000000000E-02  4.0000000000000E-02  4.0000000000000E-02 
-7.0000000000000E-02 -7.0000000000000E-02 -7.0000000000000E-02 -7.0000000000000E-02 -7.0000000000000E-02 -7.0000000000000E-02 -7.0000000000000E-02 -7.0000000000000E-02 -7.0000000000000E-02 -7.0000000000000E-02 
 3.8000000000000E+00  3.8000000000000E+00  3.8000000000000E+00  3.8000000000000E+00  3.8000000000000E+00  3.8000000000000E+00  3.8000000000000E+00  3.8000000000000E+00  3.8000000000000E+00  3.8000000000000E+00 
 2.9815000000000E+02  2.9815000000000E+02  2.9815000000000E+02  2.9815000000000E+02  2.9815000000000E+02  2.9815000000000E+02  2.9815000000000E+02  2.9815000000000E+02  2.9815000000000E+02  2.9815000000000E+02 
 3.8700000000000E+00  3.8700000000000E+00  3.8700000000000E+00  3.8700000000000E+00  3.8700000000000E+00  3.8700000000000E+00  3.8700000000000E+00  3.8700000000000E+00  3.8700000000000E+00  3.8700000000000E+00 
 3.9714142713289E+00  3.9714142713289E+00  3.9714142713289E+00  3.9714142713289E+00  3.9714142713289E+00  3.9714142713289E+00  3.9714142713289E+00  3.9714142713289E+00  3.9714142713289E+00  3.9714142713289E+00 
-1.0141427132889E-01 -1.0141427132889E-01 -1.0141427132889E-01 -1.0141427132889E-01 -1.0141427132889E-01 -1.0141427132889E-01 -1.0141427132889E-01 -1.0141427132889E-01 -1.0141427132889E-01 -1.0141427132889E-01 
-2.3826357195711E-01 -4.7652714391422E-01 -4.7652714391423E-01 -4.7652714391422E-01 -4.7652714391423E-01 -4.7652714391423E-01 -4.7652714391422E-01 -4.7652714391423E-01 -4.7652714391422E-01 -2.3826357195711E-01 
-0.0000000000000E+00 -0.0000000000000E+00 -0.0000000000000E+00 -0.0000000000000E+00 -0.0000000000000E+00 -0.0000000000000E+00 -0.0000000000000E+00 -0.0000000000000E+00 -0.0000000000000E+00 -0.0000000000000E+00 
 2.3826357195711E-01  0.0000000000000E+00  0.0000000000000E+00  0.0000000000000E+00  0.0000000000000E+00  0.0000000000000E+00  0.0000000000000E+00  0.0000000000000E+00  0.0000000000000E+00  0.0000000000000E+00 
 0.0000000000000E+00 -0.0000000000000E+00 -0.0000000000000E+00 -0.0000000000000E+00 -0.0000000000000E+00 -0.0000000000000E+00 -0.0000000000000E+00 -0.0000000000000E+00 -0.0000000000000E+00  2.3826357195711E-01 
-0.0000000000000E+00 -0.0000000000000E+00 -0.0000000000000E+00 -0.0000000000000E+00 -0.0000000000000E+00 -0.0000000000000E+00 -0.0000000000000E+00 -0.0000000000000E+00 -0.0000000000000E+00 -0.0000000000000E+00 
 7.2440786946225E+03  1.4488157389245E+04  1.4488157389245E+04  1.4488157389245E+04  1.4488157389245E+04  1.4488157389245E+04  1.4488157389245E+04  1.4488157389245E+04  1.4488157389245E+04  7.2440786946225E+03 
 4.9259735123433E+04  9.8519470246865E+04  9.8519470246866E+04  9.8519470246865E+04  9.8519470246866E+04  9.8519470246866E+04  9.8519470246865E+04  9.8519470246866E+04  9.8519470246865E+04  4.9259735123433E+04 
 5.6503813818055E+04  1.1300762763611E+05  1.1300762763611E+05  1.1300762763611E+05  1.1300762763611E+05  1.1300762763611E+05  1.1300762763611E+05  1.1300762763611E+05  1.1300762763611E+05  5.6503813818055E+04 
 3.5000000000000E-01  3.5000000000000E-01  3.5000000000000E-01  3.5000000000000E-01  3.5000000000000E-01  3.5000000000000E-01  3.5000000000000E-01  3.5000000000000E-01  3.5000000000000E-01  3.5000000000000E-01 
 6.6040000000000E+00  1.3208000000000E+01  1.3208000000000E+01  1.3208000000000E+01  1.3208000000000E+01  1.3208000000000E+01  1.3208000000000E+01  1.3208000000000E+01  1.3208000000000E+01  6.6040000000000E+00 
-3.6078675341780E-02 -3.6078675341780E-02 -3.6078675341780E-02 -3.6078675341780E-02 -3.6078675341780E-02 -3.6078675341780E-02 -3.6078675341780E-02 -3.6078675341780E-02 -3.6078675341780E-02 -3.6078675341780E-02 
 3.3866666666667E-05  6.7733333333333E-05  6.7733333333334E-05  6.7733333333333E-05  6.7733333333334E-05  6.7733333333334E-05  6.7733333333333E-05  6.7733333333334E-05  6.7733333333333E-05  3.3866666666667E-05 
 2.6603001364256E+01  2.6603001364256E+01  2.6603001364256E+01  2.6603001364256E+01  2.6603001364256E+01  2.6603001364256E+01  2.6603001364256E+01  2.6603001364256E+01  2.6603001364256E+01  2.6603001364256E+01 
 1.7735334242838E+01  1.7735334242838E+01  1.7735334242838E+01  1.7735334242838E+01  1.7735334242838E+01  1.7735334242838E+01  1.7735334242838E+01  1.7735334242838E+01  1.7735334242838E+01  1.7735334242838E+01 
 0.0000000000000E+00  0.0000000000000E+00  0.0000000000000E+00  0.0000000000000E+00  0.0000000000000E+00  0.0000000000000E+00  0.0000000000000E+00  0.0000000000000E+00  0.0000000000000E+00  0.0000000000000E+00 
 0.0000000000000E+00  0.0000000000000E+00  0.0000000000000E+00  0.0000000000000E+00  0.0000000000000E+00  0.0000000000000E+00  0.0000000000000E+00  0.0000000000000E+00  0.0000000000000E+00  0.0000000000000E+00 
 0.0000000000000E+00  0.0000000000000E+00  0.0000000000000E+00  0.0000000000000E+00  0.0000000000000E+00  0.0000000000000E+00  0.0000000000000E+00  0.0000000000000E+00  0.0000000000000E+00  0.0000000000000E+00 
 0.0000000000000E+00  0.0000000000000E+00  0.0000000000000E+00  0.0000000000000E+00  0.0000000000000E+00  0.0000000000000E+00  0.0000000000000E+00  0.0000000000000E+00  0.0000000000000E+00  0.0000000000000E+00 
 0.0000000000000E+00  0.0000000000000E+00  0.0000000000000E+00  0.0000000000000E+00  0.0000000000000E+00  0.0000000000000E+00  0.0000000000000E+00  0.0000000000000E+00  0.0000000000000E+00  0.0000000000000E+00 
 0.0000000000000E+00  0.0000000000000E+00  0.0000000000000E+00  0.0000000000000E+00  0.0000000000000E+00  0.0000000000000E+00  0.0000000000000E+00  0.0000000000000E+00  0.0000000000000E+00  0.0000000000000E+00 
 0.0000000000000E+00  0.0000000000000E+00  0.0000000000000E+00  0.0000000000000E+00  0.0000000000000E+00  0.0000000000000E+00  0.0000000000000E+00  0.0000000000000E+00  0.0000000000000E+00  0.0000000000000E+00 
ZONE T = "CATH, 1.0000E-08", I = 10, SOLUTIONTIME = 1.000000E-08
ZONETYPE = ORDERED
DATAPACKING = BLOCK
STRANDID = 3
 1.2700000000000E-03  1.3377333333333E-03  1.4054666666667E-03  1.4732000000000E-03  1.5409333333333E-03  1.6086666666667E-03  1.6764000000000E-03  1.7441333333333E-03  1.8118666666667E-03  1.8796000000000E-03 
 1.9707213472527E-08  1.7391068116826E-08  1.5074639377646E-08  1.2757731634564E-08  1.0439785922511E-08  8.1213326402562E-09  5.8018122968872E-09  3.4813915114018E-09  1.1591498611548E-09 -2.9056616260315E-12 
 9.2000000000032E-01  9.2000000000090E-01  9.2000000000090E-01  9.2000000000090E-01  9.2000000000090E-01  9.2000000000090E-01  9.2000000000090E-01  9.2000000000090E-01  9.2000000000090E-01  9.2000000000090E-01 
 3.9999999999841E-02  3.9999999999551E-02  3.9999999999551E-02  3.9999999999551E-02  3.9999999999550E-02  3.9999999999550E-02  3.9999999999550E-02  3.9999999999550E-02  3.9999999999549E-02  3.9999999999549E-02 
 3.9999999999841E-02  3.9999999999551E-02  3.9999999999551E-02  3.9999999999551E-02  3.9999999999550E-02  3.9999999999550E-02  3.9999999999550E-02  3.9999999999550E-02  3.9999999999549E-02  3.9999999999549E-02 
 2.9171015580735E-02  2.9170808549794E-02  2.9170625847359E-02  2.9170467476442E-02  2.9170333442050E-02  2.9170223751281E-02  2.9170138413277E-02  2.9170077439263E-02  2.9170040842494E-02  2.9170028638314E-02 
 3.8001746603045E+00  3.8001725051915E+00  3.8001660396879E+00  3.8001552632661E+00  3.8001401750348E+00  3.8001207737378E+00  3.8000970577545E+00  3.8000690250986E+00  3.8000366734181E+00  3.8000000000000E+00 
 2.9815000104489E+02  2.9815000411583E+02  2.9815000414862E+02  2.9815000421368E+02  2.9815000417707E+02  2.9815000421097E+02  2.9815000416658E+02  2.9815000374605E+02  2.9814998663424E+02  2.9814916177368E+02 
 3.7710036447238E+00  3.7710016966417E+00  3.7709954138405E+00  3.7709847957897E+00  3.7709698415927E+00  3.7709505499865E+00  3.7709269193412E+00  3.7708989476593E+00  3.7708666325757E+00  3.7708299713617E+00 
 3.9714142704853E+00  3.9714142680063E+00  3.9714142679798E+00  3.9714142679273E+00  3.9714142679568E+00  3.9714142679295E+00  3.9714142679653E+00  3.9714142683048E+00  3.9714142821172E+00  3.9714149479328E+00 
-2.0041062576151E-01 -2.0041257136458E-01 -2.0041885413931E-01 -2.0042947213760E-01 -2.0044442636412E-01 -2.0046371794296E-01 -2.0048734862414E-01 -2.0051532064544E-01 -2.0054764954152E-01 -2.0058497657108E-01 
-1.6673997648367E+00 -3.3349268759666E+00 -3.3353350012442E+00 -3.3360248564531E+00 -3.3369966388729E+00 -3.3382507221525E+00 -3.3397874903670E+00 -3.3416073837682E+00 -3.3437066851871E+00 -1.6729379478999E+00 
 1.4706617397776E-07  1.2978409669533E-07  1.1250001390085E-07  9.5212374110388E-08  7.7919691553750E-08  6.0620515749747E-08  4.3313365529964E-08  2.5996800089850E-08  8.6693472204140E-09  8.6693472204140E-09 
 3.0046832735856E+01  2.6711978719816E+01  2.3376863923192E+01  2.0041199634028E+01  1.6704705594006E+01  1.3367098498312E+01  1.0028095484990E+01  6.6874146265823E+00  3.3447748617066E+00  0.0000000000000E+00 
 0.0000000000000E+00  3.3348470754841E+00  6.6699618648345E+00  1.0005625603474E+01  1.3342120098899E+01  1.6679727444299E+01  2.0018730110983E+01  2.3359410982049E+01  2.6702051302713E+01  3.0046834196644E+01 
 1.6673997648367E-08  3.3349268759666E-08  3.3353350012442E-08  3.3360248564531E-08  3.3369966388729E-08  3.3382507221525E-08  3.3397874903670E-08  3.3416073837682E-08  3.3437066851871E-08  1.6729379478999E-08 
 7.2440786946392E+03  1.4488157389278E+04  1.4488157389278E+04  1.4488157389278E+04  1.4488157389278E+04  1.4488157389278E+04  1.4488157389278E+04  1.4488157389278E+04  1.4488157389278E+04  7.2440786946392E+03 
 4.9259735123416E+04  9.8519470246832E+04  9.8519470246832E+04  9.8519470246832E+04  9.8519470246832E+04  9.8519470246832E+04  9.8519470246832E+04  9.8519470246832E+04  9.8519470246832E+04  4.9259735123416E+04 
 5.6503813818055E+04  1.1300762763611E+05  1.1300762763611E+05  1.1300762763611E+05  1.1300762763611E+05  1.1300762763611E+05  1.1300762763611E+05  1.1300762763611E+05  1.1300762763611E+05  5.6503813818055E+04 
 3.5000000000000E-01  3.5000000000000E-01  3.5000000000000E-01  3.5000000000000E-01  3.5000000000000E-01  3.5000000000000E-01  3.5000000000000E-01  3.5000000000000E-01  3.5000000000000E-01  3.5000000000000E-01 
 6.6040000000000E+00  1.3208000000000E+01  1.3208000000000E+01  1.3208000000000E+01  1.3208000000000E+01  1.3208000000000E+01  1.3208000000000E+01  1.3208000000000E+01  1.3208000000000E+01  6.6040000000000E+00 
-2.5248330781900E-01 -2.5249294942206E-01 -2.5252384927651E-01 -2.5257607938015E-01 -2.5264965466936E-01 -2.5274460343371E-01 -2.5286095475220E-01 -2.5299874195701E-01 -2.5315768361501E-01 -2.5332191821621E-01 
 3.3866666666667E-05  6.7733333333333E-05  6.7733333333334E-05  6.7733333333333E-05  6.7733333333334E-05  6.7733333333334E-05  6.7733333333333E-05  6.7733333333334E-05  6.7733333333333E-05  3.3866666666667E-05 
 2.6603001364262E+01  2.6603001364262E+01  2.6603001364262E+01  2.6603001364262E+01  2.6603001364262E+01  2.6603001364262E+01  2.6603001364262E+01  2.6603001364262E+01  2.6603001364262E+01  2.6603001364262E+01 
 1.7735334242833E+01  1.7735334242833E+01  1.7735334242833E+01  1.7735334242833E+01  1.7735334242833E+01  1.7735334242833E+01  1.7735334242833E+01  1.7735334242833E+01  1.7735334242833E+01  1.7735334242833E+01 
 2.1716042417324E-04  2.1717170266504E-04  2.1720756073490E-04  2.1726817253074E-04  2.1735355750800E-04  2.1746374935827E-04  2.1759878513160E-04  2.1775870824596E-04  2.1794329200439E-04  2.1811962392085E-04 
 2.1716042417324E+04  2.1717170266504E+04  2.1720756073490E+04  2.1726817253074E+04  2.1735355750800E+04  2.1746374935827E+04  2.1759878513160E+04  2.1775870824596E+04  2.1794329200439E+04  2.1811962392085E+04 
 8.6743416045507E-02  7.7148988480190E-02  5.9157003265900E-02  4.3558660907455E-02  3.0354139982025E-02  1.9544412603167E-02  1.1131269537012E-02  5.1173153025572E-03  1.5059705834072E-03  3.0142819545994E-04 
 5.3052424748817E-02  2.6527427819271E-01  9.0200881668917E-01  1.9634656910812E+00  3.4499980572806E+00  5.3621028618657E+00  7.7004211938171E+00  1.0465738692269E+01  1.3658983751454E+01  1.5362713016413E+01 
 2.1715902621483E+04  2.1716827843238E+04  2.1719794907670E+04  2.1724810228722E+04  2.1731875398603E+04  2.1740993288552E+04  2.1752166960697E+04  2.1765399968589E+04  2.1780668710717E+04  2.1796599377641E+04 
 9.8670658543017E+03  9.8675384428090E+03  9.8690554004094E+03  9.8716196016400E+03  9.8752319447664E+03  9.8798939644106E+03  9.8856073658375E+03  9.8923741539627E+03  9.9001847904259E+03  9.9084513509304E+03 
 1.1848836767181E+04  1.1849289400429E+04  1.1850739507260E+04  1.1853190627082E+04  1.1856643453836E+04  1.1861099324141E+04  1.1866559594859E+04  1.1873025814626E+04  1.1880483920291E+04  1.1888148026710E+04 
ZONE T = "CATH, 2.0000E-08", I = 10, SOLUTIONTIME = 2.000000E-08
ZONETYPE = ORDERED
DATAPACKING = BLOCK
STRANDID = 3
 1.2700000000000E-03  1.3377333333333E-03  1.4054666666667E-03  1.4732000000000E-03  1.5409333333333E-03  1.6086666666667E-03  1.6764000000000E-03  1.7441333333333E-03  1.8118666666667E-03  1.8796000000000E-03 
 1.9706573431501E-08  1.7390174217228E-08  1.5074581136961E-08  1.2758145705236E-08  1.0441035315006E-08  8.1226906900703E-09  5.8032786944167E-09  3.4826028716715E-09  1.1601117478197E-09 -1.8160386389514E-12 
 9.2000000000064E-01  9.2000000000180E-01  9.2000000000180E-01  9.2000000000180E-01  9.2000000000180E-01  9.2000000000180E-01  9.2000000000180E-01  9.2000000000180E-01  9.2000000000180E-01  9.2000000000180E-01 
 3.9999999999682E-02  3.9999999999101E-02  3.9999999999101E-02  3.9999999999101E-02  3.9999999999101E-02  3.9999999999100E-02  3.9999999999100E-02  3.9999999999099E-02  3.9999999999099E-02  3.9999999999098E-02 
 3.9999999999682E-02  3.9999999999101E-02  3.9999999999101E-02  3.9999999999101E-02  3.9999999999101E-02  3.9999999999100E-02  3.9999999999100E-02  3.9999999999099E-02  3.9999999999099E-02  3.9999999999098E-02 
 2.9176396980190E-02  2.9176189927346E-02  2.9176007205691E-02  2.9175848818205E-02  2.9175714769922E-02  2.9175605067933E-02  2.9175519721389E-02  2.9175458741502E-02  2.9175422141553E-02  2.9175409936826E-02 
 3.8001746794514E+00  3.8001725241027E+00  3.8001660578908E+00  3.8001552802882E+00  3.8001401904029E+00  3.8001207869787E+00  3.8000970683944E+00  3.8000690326631E+00  3.8000366774326E+00  3.8000000000000E+00 
 2.9815000215776E+02  2.9815000831369E+02  2.9815000847581E+02  2.9815000854876E+02  2.9815000852459E+02  2.9815000854370E+02  2.9815000850327E+02  2.9815000705722E+02  2.9814995747911E+02  2.9814836199674E+02 
 3.7709982824712E+00  3.7709963341753E+00  3.7709900506851E+00  3.7709794314700E+00  3.7709644756330E+00  3.7709451819108E+00  3.7709215486730E+00  3.7708935739216E+00  3.7708612552910E+00  3.7708245900632E+00 
 3.9714142695868E+00  3.9714142646175E+00  3.9714142644866E+00  3.9714142644277E+00  3.9714142644472E+00  3.9714142644318E+00  3.9714142644644E+00  3.9714142656317E+00  3.9714143056504E+00  3.9714155935003E+00 
-2.0041598711563E-01 -2.0041793044214E-01 -2.0042421380147E-01 -2.0043483295774E-01 -2.0044978881422E-01 -2.0046908252099E-01 -2.0049271579145E-01 -2.0052069171005E-01 -2.0055305035938E-01 -2.0059100343712E-01 
-1.6675740639438E+00 -3.3352763185666E+00 -3.3356845655614E+00 -3.3363745706962E+00 -3.3373465647028E+00 -3.3386009129279E+00 -3.3401380117746E+00 -3.3419580234501E+00 -3.3440491535700E+00 -1.6730070344503E+00 
 1.4708186430082E-07  1.2979774837479E-07  1.1251178201837E-07  9.5222239979809E-08  7.7927660911795E-08  6.0626581663603E-08  4.3317536951602E-08  2.5999060693409E-08  8.6697478854830E-09  8.6697478854830E-09 
 3.0050009219582E+01  2.6714796996287E+01  2.3379316554282E+01  2.0043286986481E+01  1.6706426418586E+01  1.3368452679699E+01  1.0029083217442E+01  6.6880351995792E+00  3.3450316112297E+00  0.0000000000000E+00 
 0.0000000000000E+00  3.3352122233078E+00  6.6706926652124E+00  1.0006722233354E+01  1.3343582801197E+01  1.6681556539927E+01  2.0020926002282E+01  2.3361974019995E+01  2.6704977608369E+01  3.0050009219503E+01 
 3.3349738287805E-08  6.6702031945332E-08  6.6710195668056E-08  6.6723994271493E-08  6.6743432035756E-08  6.6768516350804E-08  6.6799255021417E-08  6.6835654072182E-08  6.6877558387570E-08  3.3459449823502E-08 
 7.2440786946558E+03  1.4488157389312E+04  1.4488157389312E+04  1.4488157389312E+04  1.4488157389312E+04  1.4488157389312E+04  1.4488157389312E+04  1.4488157389312E+04  1.4488157389312E+04  7.2440786946559E+03 
 4.9259735123400E+04  9.8519470246798E+04  9.8519470246799E+04  9.8519470246798E+04  9.8519470246799E+04  9.8519470246799E+04  9.8519470246798E+04  9.8519470246799E+04  9.8519470246798E+04  4.9259735123399E+04 
 5.6503813818055E+04  1.1300762763611E+05  1.1300762763611E+05  1.1300762763611E+05  1.1300762763611E+05  1.1300762763611E+05  1.1300762763611E+05  1.1300762763611E+05  1.1300762763611E+05  5.6503813818055E+04 
 3.5000000000000E-01  3.5000000000000E-01  3.5000000000000E-01  3.5000000000000E-01  3.5000000000000E-01  3.5000000000000E-01  3.5000000000000E-01  3.5000000000000E-01  3.5000000000000E-01  3.5000000000000E-01 
 6.6040000000000E+00  1.3208000000000E+01  1.3208000000000E+01  1.3208000000000E+01  1.3208000000000E+01  1.3208000000000E+01  1.3208000000000E+01  1.3208000000000E+01  1.3208000000000E+01  6.6040000000000E+00 
-2.5250970077890E-01 -2.5251940631183E-01 -2.5255031538169E-01 -2.5260255683648E-01 -2.5267614814527E-01 -2.5277111696910E-01 -2.5288749332031E-01 -2.5302528947987E-01 -2.5318361247501E-01 -2.5333237953518E-01 
 3.3866666666667E-05  6.7733333333333E-05  6.7733333333334E-05  6.7733333333333E-05  6.7733333333334E-05  6.7733333333334E-05  6.7733333333333E-05  6.7733333333334E-05  6.7733333333333E-05  3.3866666666667E-05 
 2.6603001364267E+01  2.6603001364267E+01  2.6603001364267E+01  2.6603001364267E+01  2.6603001364267E+01  2.6603001364267E+01  2.6603001364267E+01  2.6603001364267E+01  2.6603001364267E+01  2.6603001364267E+01 
 1.7735334242827E+01  1.7735334242827E+01  1.7735334242827E+01  1.7735334242827E+01  1.7735334242827E+01  1.7735334242827E+01  1.7735334242827E+01  1.7735334242827E+01  1.7735334242827E+01  1.7735334242827E+01 
 4.3434618951614E-04  4.3436880262473E-04  4.3444052905071E-04  4.3456176636893E-04  4.3473255568705E-04  4.3495296384734E-04  4.3522306576334E-04  4.3554293003296E-04  4.3591157323156E-04  4.3625084023023E-04 
 2.1718576534290E+04  2.1719709995969E+04  2.1723296831581E+04  2.1729359383819E+04  2.1737899817905E+04  2.1748921448908E+04  2.1762428063173E+04  2.1778422178700E+04  2.1796828122717E+04  2.1813121630937E+04 
 8.6761770499466E-02  7.7165272452649E-02  5.9169420356119E-02  4.3567739076860E-02  3.0360398563886E-02  1.9548378298847E-02  1.1133469171449E-02  5.1182756348770E-03  1.5062199372603E-03  3.0145563042942E-04 
 5.3064029877858E-02  2.6533238700536E-01  9.0220649560965E-01  1.9638961211014E+00  3.4507545603502E+00  5.3632789566272E+00  7.7021106546436E+00  1.0468035478870E+01  1.3661977491061E+01  1.5366076545998E+01 
 2.1718436708490E+04  2.1719367498309E+04  2.1722335455665E+04  2.1727351919959E+04  2.1734418702946E+04  2.1743538621573E+04  2.1754714819050E+04  2.1767949024945E+04  2.1783164639006E+04  2.1797755252936E+04 
 9.8683612828903E+03  9.8688362778658E+03  9.8703536891237E+03  9.8729185004365E+03  9.8765317041658E+03  9.8811948118016E+03  9.8869095634829E+03  9.8936771830087E+03  9.9014654276742E+03  9.9091582617588E+03 
 1.1850075425599E+04  1.1850531220444E+04  1.1851981766541E+04  1.1854433419523E+04  1.1857886998780E+04  1.1862343809771E+04  1.1867805255567E+04  1.1874271841936E+04  1.1881699211332E+04  1.1888596991177E+04 
ZONE T = "CATH, 3.0000E-08", I = 10, SOLUTIONTIME = 3.000000E-08
ZONETYPE = ORDERED
DATAPACKING = BLOCK
STRANDID = 3
 1.2700000000000E-03  1.3377333333333E-03  1.4054666666667E-03  1.4732000000000E-03  1.5409333333333E-03  1.6086666666667E-03  1.6764000000000E-03  1.7441333333333E-03  1.8118666666667E-03  1.8796000000000E-03 
 1.9715103611344E-08  1.7399187570457E-08  1.5082987942729E-08  1.2765582661313E-08  1.0447502270739E-08  8.1281874649076E-09  5.8085314954177E-09  3.4876117864560E-09  1.1656114009232E-09  3.9952850055255E-12 
 9.2000000000095E-01  9.2000000000270E-01  9.2000000000270E-01  9.2000000000270E-01  9.2000000000270E-01  9.2000000000270E-01  9.2000000000270E-01  9.2000000000270E-01  9.2000000000270E-01  9.2000000000271E-01 
 3.9999999999524E-02  3.9999999998652E-02  3.9999999998652E-02  3.9999999998651E-02  3.9999999998651E-02  3.9999999998650E-02  3.9999999998650E-02  3.9999999998649E-02  3.9999999998648E-02  3.9999999998647E-02 
 3.9999999999524E-02  3.9999999998652E-02  3.9999999998652E-02  3.9999999998651E-02  3.9999999998651E-02  3.9999999998650E-02  3.9999999998650E-02  3.9999999998649E-02  3.9999999998648E-02  3.9999999998647E-02 
 2.9181790256594E-02  2.9181583182816E-02  2.9181400442782E-02  2.9181242039474E-02  2.9181107977927E-02  2.9180998265233E-02  2.9180912910544E-02  2.9180851925077E-02  2.9180815322114E-02  2.9180803116862E-02 
 3.8001746977858E+00  3.8001725422112E+00  3.8001660753208E+00  3.8001552965866E+00  3.8001402051168E+00  3.8001207996546E+00  3.8000970785785E+00  3.8000690399014E+00  3.8000366812710E+00  3.8000000000000E+00 
 2.9815000324730E+02  2.9815001245489E+02  2.9815001282439E+02  2.9815001286421E+02  2.9815001288851E+02  2.9815001289465E+02  2.9815001276823E+02  2.9815000940579E+02  2.9814991365907E+02  2.9814759789990E+02 
 3.7709929075292E+00  3.7709909590284E+00  3.7709846748780E+00  3.7709740545472E+00  3.7709590971388E+00  3.7709398013893E+00  3.7709161656679E+00  3.7708881879763E+00  3.7708558659489E+00  3.7708191968831E+00 
 3.9714142687072E+00  3.9714142612744E+00  3.9714142609761E+00  3.9714142609440E+00  3.9714142609244E+00  3.9714142609194E+00  3.9714142610214E+00  3.9714142637356E+00  3.9714143410210E+00  3.9714162102669E+00 
-2.0042136117800E-01 -2.0042330224598E-01 -2.0042958609812E-01 -2.0044020639681E-01 -2.0045516378552E-01 -2.0047445953007E-01 -2.0049809535352E-01 -2.0052607575927E-01 -2.0055847507204E-01 -2.0059701338374E-01 
-1.6677487903331E+00 -3.3356266065210E+00 -3.3360349941606E+00 -3.3367251353842E+00 -3.3376973463430E+00 -3.3389519545772E+00 -3.3404893535327E+00 -3.3423092390275E+00 -3.3443885474194E+00 -1.6730812521062E+00 
 1.4709686587414E-07  1.2981080212957E-07  1.1252301981120E-07  9.5231661118754E-08  7.7935264274697E-08  6.0632365893089E-08  4.3321500499077E-08  2.6001204215058E-08  8.6701325972663E-09  8.6701325972663E-09 
 3.0053053219107E+01  2.6717491125856E+01  2.3381660325657E+01  2.0045280260689E+01  1.6708069019836E+01  1.3369744369425E+01  1.0030023715346E+01  6.6886244188845E+00  3.3452755256502E+00  0.0000000000000E+00 
 0.0000000000000E+00  3.3355620936692E+00  6.6713928938299E+00  1.0007772958693E+01  1.3344984199691E+01  1.6683308850026E+01  2.0023029504009E+01  2.3364428800278E+01  2.6707777693590E+01  3.0053053219563E+01 
 5.0027226191136E-08  1.0005829801054E-07  1.0007054560966E-07  1.0009124562533E-07  1.0012040549919E-07  1.0015803589658E-07  1.0020414855674E-07  1.0025874646246E-07  1.0032144386176E-07  5.0190262344564E-08 
 7.2440786946725E+03  1.4488157389345E+04  1.4488157389345E+04  1.4488157389345E+04  1.4488157389345E+04  1.4488157389345E+04  1.4488157389345E+04  1.4488157389345E+04  1.4488157389345E+04  7.2440786946727E+03 
 4.9259735123383E+04  9.8519470246765E+04  9.8519470246766E+04  9.8519470246765E+04  9.8519470246766E+04  9.8519470246766E+04  9.8519470246765E+04  9.8519470246765E+04  9.8519470246765E+04  4.9259735123383E+04 
 5.6503813818055E+04  1.1300762763611E+05  1.1300762763611E+05  1.1300762763611E+05  1.1300762763611E+05  1.1300762763611E+05  1.1300762763611E+05  1.1300762763611E+05  1.1300762763611E+05  5.6503813818055E+04 
 3.5000000000000E-01  3.5000000000000E-01  3.5000000000000E-01  3.5000000000000E-01  3.5000000000000E-01  3.5000000000000E-01  3.5000000000000E-01  3.5000000000000E-01  3.5000000000000E-01  3.5000000000000E-01 
 6.6040000000000E+00  1.3208000000000E+01  1.3208000000000E+01  1.3208000000000E+01  1.3208000000000E+01  1.3208000000000E+01  1.3208000000000E+01  1.3208000000000E+01  1.3208000000000E+01  6.6040000000000E+00 
-2.5253615843929E-01 -2.5254592720480E-01 -2.5257684692312E-01 -2.5262909868142E-01 -2.5270270641604E-01 -2.5279769492559E-01 -2.5291409399854E-01 -2.5305188060475E-01 -2.5320930855689E-01 -2.5334361782348E-01 
 3.3866666666667E-05  6.7733333333333E-05  6.7733333333334E-05  6.7733333333333E-05  6.7733333333334E-05  6.7733333333334E-05  6.7733333333333E-05  6.7733333333334E-05  6.7733333333333E-05  3.3866666666667E-05 
 2.6603001364272E+01  2.6603001364272E+01  2.6603001364272E+01  2.6603001364272E+01  2.6603001364272E+01  2.6603001364272E+01  2.6603001364272E+01  2.6603001364272E+01  2.6603001364272E+01  2.6603001364272E+01 
 1.7735334242822E+01  1.7735334242822E+01  1.7735334242822E+01  1.7735334242822E+01  1.7735334242822E+01  1.7735334242822E+01  1.7735334242822E+01  1.7735334242822E+01  1.7735334242822E+01  1.7735334242822E+01 
 6.5155735846343E-04  6.5159136168893E-04  6.5169896793077E-04  6.5188084347483E-04  6.5213705668642E-04  6.5246770508167E-04  6.5287290124733E-04  6.5335270836326E-04  6.5390464676231E-04  6.5439432658110E-04 
 2.1721116894729E+04  2.1722255906420E+04  2.1725843888006E+04  2.1731907710590E+04  2.1740450099937E+04  2.1751474123433E+04  2.1764983548399E+04  2.1780977833030E+04  2.1799307353075E+04  2.1814348635088E+04 
 8.6779314209949E-02  7.7180840504479E-02  5.9181288123733E-02  4.3576409004094E-02  3.0366373532276E-02  1.9552161499116E-02  1.1135564401844E-02  5.1191876885368E-03  1.5064565177541E-03  3.0148196871311E-04 
 5.3075150433829E-02  2.6538807078190E-01  9.0239592528450E-01  1.9643085762019E+00  3.4514794324711E+00  5.3644057953099E+00  7.7037291996408E+00  1.0470235472595E+01  1.3664842269255E+01  1.5369292973960E+01 
 2.1720977040264E+04  2.1721913337509E+04  2.1724882310793E+04  2.1729899825605E+04  2.1736968254131E+04  2.1746090165476E+04  2.1757268683635E+04  2.1770502478370E+04  2.1785641004350E+04  2.1798979040632E+04 
 9.8696599211126E+03  9.8701372963501E+03  9.8716552129343E+03  9.8742205929154E+03  9.8778346687302E+03  9.8824988458419E+03  9.8882148562941E+03  9.8949826133431E+03  9.9027381956663E+03  9.9098947535823E+03 
 1.1851317119152E+04  1.1851776041159E+04  1.1853227097859E+04  1.1855679232689E+04  1.1859133585401E+04  1.1863591319634E+04  1.1869053827341E+04  1.1875519865026E+04  1.1882902808683E+04  1.1889084287049E+04 
ZONE T = "CATH, 4.0000E-08", I = 10, SOLUTIONTIME = 4.000000E-08
ZONETYPE = ORDERED
DATAPACKING = BLOCK
STRANDID = 3
 1.2700000000000E-03  1.3377333333333E-03  1.4054666666667E-03  1.4732000000000E-03  1.5409333333333E-03  1.6086666666667E-03  1.6764000000000E-03  1.7441333333333E-03  1.8118666666667E-03  1.8796000000000E-03 
 1.9712379436052E-08  1.7395493197258E-08  1.5078323265134E-08  1.2761400411948E-08  1.0443075884971E-08  8.1249695947518E-09  5.8043426786580E-09  3.4828155510021E-09  1.1605814046168E-09 -1.4528309111768E-12 
 9.2000000000127E-01  9.2000000000360E-01  9.2000000000360E-01  9.2000000000360E-01  9.2000000000360E-01  9.2000000000360E-01  9.2000000000360E-01  9.2000000000360E-01  9.2000000000360E-01  9.2000000000361E-01 
 3.9999999999365E-02  3.9999999998202E-02  3.9999999998202E-02  3.9999999998202E-02  3.9999999998201E-02  3.9999999998201E-02  3.9999999998200E-02  3.9999999998199E-02  3.9999999998198E-02  3.9999999998197E-02 
 3.9999999999365E-02  3.9999999998202E-02  3.9999999998202E-02  3.9999999998202E-02  3.9999999998201E-02  3.9999999998201E-02  3.9999999998200E-02  3.9999999998199E-02  3.9999999998198E-02  3.9999999998197E-02 
 2.9187195443597E-02  2.9186988348832E-02  2.9186805590372E-02  2.9186647171200E-02  2.9186513096352E-02  2.9186403372922E-02  2.9186318010065E-02  2.9186257019000E-02  2.9186220413007E-02  2.9186208207194E-02 
 3.8001747161563E+00  3.8001725603554E+00  3.8001660927848E+00  3.8001553129166E+00  3.8001402198585E+00  3.8001208123537E+00  3.8000970887802E+00  3.8000690471506E+00  3.8000366851132E+00  3.8000000000000E+00 