TITLE = "Solution on Domain BulkDomain1D_2"
VARIABLES = "x [m]"  
"Vel_axial" 	"MF_sp(ECDMC)" 	"MF_sp(Li+)" 	"MF_sp(PF6-)" 	"Volt(Electroly)" 	"Volt(CathodeVo)" 	"Temperature" 	
"Potential Drop Electrode-Electrolyte [V]" 	"Surf_0 Equilibrium Potential Drop Electrode-Electrolyte [V]" 	"Overpotential_0 [V]" 	"Current Source [A/m^2]" 	"Li+ flux [kmol/m^2/s]" 	"Electrolyte Current [A/m^2]" 	"Electrode Current [A/m^2]" 	
"CV Capacity discharged [A-s/m^2]" 	"Depth of discharge in CV [A-s/m^2]" 	"CV Capacity remaining [A-s/m^2]" 	"Initial CV capacity [A-s/m^2]" 	"Porosity []" 	"Surface Area [m2/m2] (area per area)" 	"Specific current (per particle area) [A/m^2]" 	"Control volume thickness [m]" 	
"MoleDens LiCoO2 [kmol/m^3]" 	"MoleDens CoO2 [kmol/m^3]" 	"qHeat_accum [J/m3]" 	"qHeat_step [W/m3]" 	"Joule_Lyte [W/m3]" 	"Joule_Solid [W/m3]" 	"electrodHeat [W/m3]" 	"OverpotHeat [W/m3]" 	"deltaSHeat [W/m3]" 	

ZONE T = "CATH, 0.0000E+00", I = 10, SOLUTIONTIME = 0.000000E+00
ZONETYPE = ORDERED
DATAPACKING = BLOCK
STRANDID = 3
 1.2700000000000E-03  1.3377333333333E-03  1.4054666666667E-03  1.4732000000000E-03  1.5409333333333E-03  1.6086666666667E-03  1.6764000000000E-03  1.7441333333333E-03  1.8118666666667E-03  1.8796000000000E-03 
 0.0000000000000E+00  0.0000000000000E+00  0.0000000000000E+00  0.0000000000000E+00  0.0000000000000E+00  0.0000000000000E+00  0.0000000000000E+00  0.0000000000000E+00  0.0000000000000E+00  0.0000000000000E+00 
 9.2000000000000E-01  9.2000000000000E-01  9.2000000000000E-01  9.2000000000000E-01  9.2000000000000E-01  9.2000000000000E-01  9.2000000000000E-01  9.2000000000000E-01  9.2000000000000E-01  9.2000000000000E-01 
 4.0000000000000E-02  4.0000000000000E-02  4.0000000000000E-02  4.0000000000000E-02  4.0000000000000E-02  4.0000000000000E-02  4.0000000000000E-02  4.0000000000000E-02  4.0000000000000E-02  4.0000000000000E-02 
 4.0000000000000E-02  4.0000000000000E-02  4.0000000000000E-02  4.0000000000000E-02  4.0000000000000E-02  4.0000000000000E-02  4.0000000000000E-02  4.0000000000000E-02  4.0000000000000E-02  4.0000000000000E-02 
-7.0000000000000E-02 -7.0000000000000E-02 -7.0000000000000E-02 -7.0000000000000E-02 -7.0000000000000E-02 -7.0000000000000E-02 -7.0000000000000E-02 -7.0000000000000E-02 -7.0000000000000E-02 -7.0000000000000E-02 
 3.8000000000000E+00  3.8000000000000E+00  3.8000000000000E+00  3.8000000000000E+00  3.8000000000000E+00  3.8000000000000E+00  3.8000000000000E+00  3.8000000000000E+00  3.8000000000000E+00  3.8000000000000E+00 
 2.9815000000000E+02  2.9815000000000E+02  2.9815000000000E+02  2.9815000000000E+02  2.9815000000000E+02  2.9815000000000E+02  2.9815000000000E+02  2.9815000000000E+02  2.9815000000000E+02  2.9815000000000E+02 
 3.8700000000000E+00  3.8700000000000E+00  3.8700000000000E+00  3.8700000000000E+00  3.8700000000000E+00  3.8700000000000E+00  3.8700000000000E+00  3.8700000000000E+00  3.8700000000000E+00  3.8700000000000E+00 
 3.9714142713289E+00  3.9714142713289E+00  3.9714142713289E+00  3.9714142713289E+00  3.9714142713289E+00  3.9714142713289E+00  3.9714142713289E+00  3.9714142713289E+00  3.9714142713289E+00  3.9714142713289E+00 
-1.0141427132889E-01 -1.0141427132889E-01 -1.0141427132889E-01 -1.0141427132889E-01 -1.0141427132889E-01 -1.0141427132889E-01 -1.0141427132889E-01 -1.0141427132889E-01 -1.0141427132889E-01 -1.0141427132889E-01 
-2.3826357195711E-01 -4.7652714391422E-01 -4.7652714391423E-01 -4.7652714391422E-01 -4.7652714391423E-01 -4.7652714391423E-01 -4.7652714391422E-01 -4.7652714391423E-01 -4.7652714391422E-01 -2.3826357195711E-01 
-0.0000000000000E+00 -0.0000000000000E+00 -0.0000000000000E+00 -0.0000000000000E+00 -0.0000000000000E+00 -0.0000000000000E+00 -0.0000000000000E+00 -0.0000000000000E+00 -0.0000000000000E+00 -0.0000000000000E+00 
 2.3826357195711E-01  0.0000000000000E+00  0.0000000000000E+00  0.0000000000000E+00  0.0000000000000E+00  0.0000000000000E+00  0.0000000000000E+00  0.0000000000000E+00  0.0000000000000E+00  0.0000000000000E+00 
 0.0000000000000E+00 -0.0000000000000E+00 -0.0000000000000E+00 -0.0000000000000E+00 -0.0000000000000E+00 -0.0000000000000E+00 -0.0000000000000E+00 -0.0000000000000E+00 -0.0000000000000E+00  2.3826357195711E-01 
-0.0000000000000E+00 -0.0000000000000E+00 -0.0000000000000E+00 -0.0000000000000E+00 -0.0000000000000E+00 -0.0000000000000E+00 -0.0000000000000E+00 -0.0000000000000E+00 -0.0000000000000E+00 -0.0000000000000E+00 
 7.2440786946225E+03  1.4488157389245E+04  1.4488157389245E+04  1.4488157389245E+04  1.4488157389245E+04  1.4488157389245E+04  1.4488157389245E+04  1.4488157389245E+04  1.4488157389245E+04  7.2440786946225E+03 
 4.9259735123433E+04  9.8519470246865E+04  9.8519470246866E+04  9.8519470246865E+04  9.8519470246866E+04  9.8519470246866E+04  9.8519470246865E+04  9.8519470246866E+04  9.8519470246865E+04  4.9259735123433E+04 
 5.6503813818055E+04  1.1300762763611E+05  1.1300762763611E+05  1.1300762763611E+05  1.1300762763611E+05  1.1300762763611E+05  1.1300762763611E+05  1.1300762763611E+05  1.1300762763611E+05  5.6503813818055E+04 
 3.5000000000000E-01  3.5000000000000E-01  3.5000000000000E-01  3.5000000000000E-01  3.5000000000000E-01  3.5000000000000E-01  3.5000000000000E-01  3.5000000000000E-01  3.5000000000000E-01  3.5000000000000E-01 
 6.6040000000000E+00  1.3208000000000E+01  1.3208000000000E+01  1.3208000000000E+01  1.3208000000000E+01  1.3208000000000E+01  1.3208000000000E+01  1.3208000000000E+01  1.3208000000000E+01  6.6040000000000E+00 
-3.6078675341780E-02 -3.6078675341780E-02 -3.6078675341780E-02 -3.6078675341780E-02 -3.6078675341780E-02 -3.6078675341780E-02 -3.6078675341780E-02 -3.6078675341780E-02 -3.6078675341780E-02 -3.6078675341780E-02 
 3.3866666666667E-05  6.7733333333333E-05  6.7733333333334E-05  6.7733333333333E-05  6.7733333333334E-05  6.7733333333334E-05  6.7733333333333E-05  6.7733333333334E-05  6.7733333333333E-05  3.3866666666667E-05 
 2.6603001364256E+01  2.6603001364256E+01  2.6603001364256E+01  2.6603001364256E+01  2.6603001364256E+01  2.6603001364256E+01  2.6603001364256E+01  2.6603001364256E+01  2.6603001364256E+01  2.6603001364256E+01 
 1.7735334242838E+01  1.7735334242838E+01  1.7735334242838E+01  1.7735334242838E+01  1.7735334242838E+01  1.7735334242838E+01  1.7735334242838E+01  1.7735334242838E+01  1.7735334242838E+01  1.7735334242838E+01 
 0.0000000000000E+00  0.0000000000000E+00  0.0000000000000E+00  0.0000000000000E+00  0.0000000000000E+00  0.0000000000000E+00  0.0000000000000E+00  0.0000000000000E+00  0.0000000000000E+00  0.0000000000000E+00 
 0.0000000000000E+00  0.0000000000000E+00  0.0000000000000E+00  0.0000000000000E+00  0.0000000000000E+00  0.0000000000000E+00  0.0000000000000E+00  0.0000000000000E+00  0.0000000000000E+00  0.0000000000000E+00 
 0.0000000000000E+00  0.0000000000000E+00  0.0000000000000E+00  0.0000000000000E+00  0.0000000000000E+00  0.0000000000000E+00  0.0000000000000E+00  0.0000000000000E+00  0.0000000000000E+00  0.0000000000000E+00 
 0.0000000000000E+00  0.0000000000000E+00  0.0000000000000E+00  0.0000000000000E+00  0.0000000000000E+00  0.0000000000000E+00  0.0000000000000E+00  0.0000000000000E+00  0.0000000000000E+00  0.0000000000000E+00 
 0.0000000000000E+00  0.0000000000000E+00  0.0000000000000E+00  0.0000000000000E+00  0.0000000000000E+00  0.0000000000000E+00  0.0000000000000E+00  0.0000000000000E+00  0.0000000000000E+00  0.0000000000000E+00 
 0.0000000000000E+00  0.0000000000000E+00  0.0000000000000E+00  0.0000000000000E+00  0.0000000000000E+00  0.0000000000000E+00  0.0000000000000E+00  0.0000000000000E+00  0.0000000000000E+00  0.0000000000000E+00 
 0.0000000000000E+00  0.0000000000000E+00  0.0000000000000E+00  0.0000000000000E+00  0.0000000000000E+00  0.0000000000000E+00  0.0000000000000E+00  0.0000000000000E+00  0.0000000000000E+00  0.0000000000000E+00 
ZONE T = "CATH, 1.0000E-08", I = 10, SOLUTIONTIME = 1.000000E-08
ZONETYPE = ORDERED
DATAPACKING = BLOCK
STRANDID = 3
 1.2700000000000E-03  1.3377333333333E-03  1.4054666666667E-03  1.4732000000000E-03  1.5409333333333E-03  1.6086666666667E-03  1.6764000000000E-03  1.7441333333333E-03  1.8118666666667E-03  1.8796000000000E-03 
 1.9707311234026E-08  1.7391881002658E-08  1.5075077742036E-08  1.2758158654382E-08  1.0439838338690E-08  8.1217367990736E-09  5.8025681091295E-09  3.4821356537279E-09  1.1602454407337E-09 -1.4528309111357E-12 
 9.2000000000032E-01  9.2000000000090E-01  9.2000000000090E-01  9.2000000000090E-01  9.2000000000090E-01  9.2000000000090E-01  9.2000000000090E-01  9.2000000000090E-01  9.2000000000090E-01  9.2000000000090E-01 
 3.9999999999841E-02  3.9999999999551E-02  3.9999999999551E-02  3.9999999999550E-02  3.9999999999550E-02  3.9999999999550E-02  3.9999999999550E-02  3.9999999999550E-02  3.9999999999549E-02  3.9999999999549E-02 
 3.9999999999841E-02  3.9999999999551E-02  3.9999999999551E-02  3.9999999999550E-02  3.9999999999550E-02  3.9999999999550E-02  3.9999999999550E-02  3.9999999999550E-02  3.9999999999549E-02  3.9999999999549E-02 
 2.9171017706572E-02  2.9170810674597E-02  2.9170627971263E-02  2.9170469599548E-02  2.9170335564486E-02  2.9170225873166E-02  2.9170140534735E-02  2.9170079560407E-02  2.9170042963457E-02  2.9170030759216E-02 
 3.8001746611623E+00  3.8001725060388E+00  3.8001660405037E+00  3.8001552640294E+00  3.8001401757244E+00  3.8001207743325E+00  3.8000970582330E+00  3.8000690254394E+00  3.8000366735995E+00  3.8000000000000E+00 
 2.9815000107798E+02  2.9815000427874E+02  2.9815000431166E+02  2.9815000433752E+02  2.9815000428834E+02  2.9815000432127E+02  2.9815000429823E+02  2.9815000395496E+02  2.9814998674955E+02  2.9814916193822E+02 
 3.7710036434558E+00  3.7710016953642E+00  3.7709954125324E+00  3.7709847944299E+00  3.7709698401599E+00  3.7709505484594E+00  3.7709269176982E+00  3.7708989458790E+00  3.7708666306360E+00  3.7708299692408E+00 
 3.9714142704586E+00  3.9714142678748E+00  3.9714142678482E+00  3.9714142678273E+00  3.9714142678670E+00  3.9714142678405E+00  3.9714142678590E+00  3.9714142681361E+00  3.9714142820241E+00  3.9714149478000E+00 
-2.0041062700282E-01 -2.0041257251055E-01 -2.0041885531577E-01 -2.0042947339745E-01 -2.0044442770712E-01 -2.0046371938107E-01 -2.0048735016080E-01 -2.0051532225716E-01 -2.0054765138805E-01 -2.0058497855917E-01 
-1.6673998103995E+00 -3.3349270020940E+00 -3.3353351294099E+00 -3.3360249776212E+00 -3.3369967614873E+00 -3.3382508506882E+00 -3.3397876321584E+00 -3.3416075550802E+00 -3.3437068421252E+00 -1.6729380388656E+00 
 1.4706690890220E-07  1.2978473575378E-07  1.1250058020493E-07  9.5212849777115E-08  7.7920083432394E-08  6.0620818228780E-08  4.3313589217237E-08  2.5996929119486E-08  8.6693902178523E-09  8.6693902178523E-09 
 3.0046974600281E+01  2.6712111288735E+01  2.3376980222719E+01  2.0041300169214E+01  1.6704789299694E+01  1.3367165493646E+01  1.0028146252323E+01  6.6874486585920E+00  3.3447914597968E+00  0.0000000000000E+00 
 0.0000000000000E+00  3.3348633115565E+00  6.6699943773509E+00  1.0005674430744E+01  1.3342185300364E+01  1.6679809106543E+01  2.0018828347906E+01  2.3359525941565E+01  2.6702183140122E+01  3.0046974599958E+01 
 1.6673998103995E-08  3.3349270020940E-08  3.3353351294099E-08  3.3360249776212E-08  3.3369967614873E-08  3.3382508506882E-08  3.3397876321584E-08  3.3416075550802E-08  3.3437068421252E-08  1.6729380388656E-08 
 7.2440786946392E+03  1.4488157389278E+04  1.4488157389278E+04  1.4488157389278E+04  1.4488157389278E+04  1.4488157389278E+04  1.4488157389278E+04  1.4488157389278E+04  1.4488157389278E+04  7.2440786946392E+03 
 4.9259735123416E+04  9.8519470246832E+04  9.8519470246832E+04  9.8519470246832E+04  9.8519470246832E+04  9.8519470246832E+04  9.8519470246832E+04  9.8519470246832E+04  9.8519470246832E+04  4.9259735123416E+04 
 5.6503813818055E+04  1.1300762763611E+05  1.1300762763611E+05  1.1300762763611E+05  1.1300762763611E+05  1.1300762763611E+05  1.1300762763611E+05  1.1300762763611E+05  1.1300762763611E+05  5.6503813818055E+04 
 3.5000000000000E-01  3.5000000000000E-01  3.5000000000000E-01  3.5000000000000E-01  3.5000000000000E-01  3.5000000000000E-01  3.5000000000000E-01  3.5000000000000E-01  3.5000000000000E-01  3.5000000000000E-01 
 6.6040000000000E+00  1.3208000000000E+01  1.3208000000000E+01  1.3208000000000E+01  1.3208000000000E+01  1.3208000000000E+01  1.3208000000000E+01  1.3208000000000E+01  1.3208000000000E+01  6.6040000000000E+00 
-2.5248331471827E-01 -2.5249295897138E-01 -2.5252385898015E-01 -2.5257608855400E-01 -2.5264966395271E-01 -2.5274461316537E-01 -2.5286096548746E-01 -2.5299875492733E-01 -2.5315769549707E-01 -2.5332193199055E-01 
 3.3866666666667E-05  6.7733333333333E-05  6.7733333333334E-05  6.7733333333333E-05  6.7733333333334E-05  6.7733333333334E-05  6.7733333333333E-05  6.7733333333334E-05  6.7733333333333E-05  3.3866666666667E-05 
 2.6603001364262E+01  2.6603001364262E+01  2.6603001364262E+01  2.6603001364262E+01  2.6603001364262E+01  2.6603001364262E+01  2.6603001364262E+01  2.6603001364262E+01  2.6603001364262E+01  2.6603001364262E+01 
 1.7735334242833E+01  1.7735334242833E+01  1.7735334242833E+01  1.7735334242833E+01  1.7735334242833E+01  1.7735334242833E+01  1.7735334242833E+01  1.7735334242833E+01  1.7735334242833E+01  1.7735334242833E+01 
 2.1716043074953E-04  2.1717171156133E-04  2.1720756983952E-04  2.1726818130277E-04  2.1735356655331E-04  2.1746375902299E-04  2.1759879595016E-04  2.1775872133967E-04  2.1794330454834E-04  2.1811963836058E-04 
 2.1716043074953E+04  2.1717171156133E+04  2.1720756983952E+04  2.1726818130277E+04  2.1735356655331E+04  2.1746375902299E+04  2.1759879595016E+04  2.1775872133967E+04  2.1794330454834E+04  2.1811963836058E+04 
 8.6744283031674E-02  7.7149754630504E-02  5.9157591449565E-02  4.3559098081114E-02  3.0354444098674E-02  1.9544608616271E-02  1.1131381940448E-02  5.1173676161421E-03  1.5059855323077E-03  3.0143118560105E-04 
 5.3052940572431E-02  2.6527686199431E-01  9.0201761144087E-01  1.9634848563038E+00  3.4500317801926E+00  5.3621553719123E+00  7.7004967777653E+00  1.0465841714864E+01  1.3659118644257E+01  1.5362864957735E+01 
 2.1715903277730E+04  2.1716828729516E+04  2.1719795808749E+04  2.1724811086322E+04  2.1731876269107E+04  2.1740994202318E+04  2.1752167966856E+04  2.1765401174884E+04  2.1780669830204E+04  2.1796600669669E+04 
 9.8670661850406E+03  9.8675388724239E+03  9.8690558375751E+03  9.8716200222390E+03  9.8752323737865E+03  9.8798944157026E+03  9.8856078613026E+03  9.8923747406223E+03  9.9001853462500E+03  9.9084519879081E+03 
 1.1848837092689E+04  1.1849289857092E+04  1.1850739971174E+04  1.1853191064083E+04  1.1856643895320E+04  1.1861099786616E+04  1.1866560105553E+04  1.1873026434262E+04  1.1880484483954E+04  1.1888148681761E+04 
ZONE T = "CATH, 2.0000E-08", I = 10, SOLUTIONTIME = 2.000000E-08
ZONETYPE = ORDERED
DATAPACKING = BLOCK
STRANDID = 3
 1.2700000000000E-03  1.3377333333333E-03  1.4054666666667E-03  1.4732000000000E-03  1.5409333333333E-03  1.6086666666667E-03  1.6764000000000E-03  1.7441333333333E-03  1.8118666666667E-03  1.8796000000000E-03 
 1.9707663229038E-08  1.7391263986850E-08  1.5075670882121E-08  1.2759235430027E-08  1.0442851425456E-08  8.1245067911246E-09  5.8050947845080E-09  3.4844189148401E-09  1.1619277869336E-09 -3.3575434739144E-23 
 9.2000000000064E-01  9.2000000000180E-01  9.2000000000180E-01  9.2000000000180E-01  9.2000000000180E-01  9.2000000000180E-01  9.2000000000180E-01  9.2000000000180E-01  9.2000000000180E-01  9.2000000000180E-01 
 3.9999999999682E-02  3.9999999999101E-02  3.9999999999101E-02  3.9999999999101E-02  3.9999999999101E-02  3.9999999999100E-02  3.9999999999100E-02  3.9999999999099E-02  3.9999999999099E-02  3.9999999999098E-02 
 3.9999999999682E-02  3.9999999999101E-02  3.9999999999101E-02  3.9999999999101E-02  3.9999999999101E-02  3.9999999999100E-02  3.9999999999100E-02  3.9999999999099E-02  3.9999999999099E-02  3.9999999999098E-02 
 2.9176397022280E-02  2.9176189969434E-02  2.9176007247777E-02  2.9175848860290E-02  2.9175714812006E-02  2.9175605110016E-02  2.9175519763471E-02  2.9175458783584E-02  2.9175422183635E-02  2.9175409978907E-02 
 3.8001746794530E+00  3.8001725241042E+00  3.8001660578923E+00  3.8001552802896E+00  3.8001401904042E+00  3.8001207869798E+00  3.8000970683953E+00  3.8000690326638E+00  3.8000366774329E+00  3.8000000000000E+00 
 2.9815000217317E+02  2.9815000845551E+02  2.9815000859884E+02  2.9815000864949E+02  2.9815000867646E+02  2.9815000858468E+02  2.9815000855268E+02  2.9815000730165E+02  2.9814995749087E+02  2.9814836199158E+02 
 3.7709982824307E+00  3.7709963341348E+00  3.7709900506446E+00  3.7709794314293E+00  3.7709644755922E+00  3.7709451818698E+00  3.7709215486318E+00  3.7708935738802E+00  3.7708612552493E+00  3.7708245900211E+00 
 3.9714142695744E+00  3.9714142645030E+00  3.9714142643873E+00  3.9714142643464E+00  3.9714142643246E+00  3.9714142643987E+00  3.9714142644245E+00  3.9714142654344E+00  3.9714143056409E+00  3.9714155935045E+00 
-2.0041598714368E-01 -2.0041793036817E-01 -2.0042421374272E-01 -2.0043483291708E-01 -2.0044978873242E-01 -2.0046908252890E-01 -2.0049271579276E-01 -2.0052069155418E-01 -2.0055305039164E-01 -2.0059100348337E-01 
-1.6675740673007E+00 -3.3352763587652E+00 -3.3356846007903E+00 -3.3363746000314E+00 -3.3373466076120E+00 -3.3386009264591E+00 -3.3401380275633E+00 -3.3419580910221E+00 -3.3440491594121E+00 -1.6730070351359E+00 
 1.4708186560567E-07  1.2979774947100E-07  1.1251178292747E-07  9.5222240732606E-08  7.7927661450973E-08  6.0626582127606E-08  4.3317537333994E-08  2.5999060729514E-08  8.6697478878517E-09  8.6697478878517E-09 
 3.0050009474174E+01  2.6714797227391E+01  2.3379316747484E+01  2.0043287147111E+01  1.6706426543523E+01  1.3368452776491E+01  1.0029083299388E+01  6.6880352399580E+00  3.3450316146607E+00  0.0000000000000E+00 
 0.0000000000000E+00  3.3352122466718E+00  6.6706927265428E+00  1.0006722326981E+01  1.3343582930730E+01  1.6681556697634E+01  2.0020926174764E+01  2.3361974234050E+01  2.6704977859188E+01  3.0050009474100E+01 
 3.3349738777002E-08  6.6702033608592E-08  6.6710197302002E-08  6.6723995776526E-08  6.6743433690993E-08  6.6768517771473E-08  6.6799256597217E-08  6.6835656461023E-08  6.6877560015374E-08  3.3459450740015E-08 
 7.2440786946558E+03  1.4488157389312E+04  1.4488157389312E+04  1.4488157389312E+04  1.4488157389312E+04  1.4488157389312E+04  1.4488157389312E+04  1.4488157389312E+04  1.4488157389312E+04  7.2440786946559E+03 
 4.9259735123400E+04  9.8519470246798E+04  9.8519470246799E+04  9.8519470246798E+04  9.8519470246799E+04  9.8519470246799E+04  9.8519470246798E+04  9.8519470246799E+04  9.8519470246798E+04  4.9259735123399E+04 
 5.6503813818055E+04  1.1300762763611E+05  1.1300762763611E+05  1.1300762763611E+05  1.1300762763611E+05  1.1300762763611E+05  1.1300762763611E+05  1.1300762763611E+05  1.1300762763611E+05  5.6503813818055E+04 
 3.5000000000000E-01  3.5000000000000E-01  3.5000000000000E-01  3.5000000000000E-01  3.5000000000000E-01  3.5000000000000E-01  3.5000000000000E-01  3.5000000000000E-01  3.5000000000000E-01  3.5000000000000E-01 
 6.6040000000000E+00  1.3208000000000E+01  1.3208000000000E+01  1.3208000000000E+01  1.3208000000000E+01  1.3208000000000E+01  1.3208000000000E+01  1.3208000000000E+01  1.3208000000000E+01  6.6040000000000E+00 
-2.5250970128720E-01 -2.5251940935533E-01 -2.5255031804893E-01 -2.5260255905750E-01 -2.5267615139400E-01 -2.5277111799357E-01 -2.5288749451570E-01 -2.5302529459586E-01 -2.5318361291733E-01 -2.5333237963899E-01 
 3.3866666666667E-05  6.7733333333333E-05  6.7733333333334E-05  6.7733333333333E-05  6.7733333333334E-05  6.7733333333334E-05  6.7733333333333E-05  6.7733333333334E-05  6.7733333333333E-05  3.3866666666667E-05 
 2.6603001364267E+01  2.6603001364267E+01  2.6603001364267E+01  2.6603001364267E+01  2.6603001364267E+01  2.6603001364267E+01  2.6603001364267E+01  2.6603001364267E+01  2.6603001364267E+01  2.6603001364267E+01 
 1.7735334242827E+01  1.7735334242827E+01  1.7735334242827E+01  1.7735334242827E+01  1.7735334242827E+01  1.7735334242827E+01  1.7735334242827E+01  1.7735334242827E+01  1.7735334242827E+01  1.7735334242827E+01 
 4.3434619655153E-04  4.3436881417658E-04  4.3444054048509E-04  4.3456177708441E-04  4.3473256756670E-04  4.3495297441969E-04  4.3522307763809E-04  4.3554294758115E-04  4.3591158618072E-04  4.3625085478217E-04 
 2.1718576580200E+04  2.1719710261525E+04  2.1723297064557E+04  2.1729359578164E+04  2.1737900101339E+04  2.1748921539670E+04  2.1762428168793E+04  2.1778422624148E+04  2.1796828163238E+04  2.1813121642159E+04 
 8.6761772058334E-02  7.7165273816224E-02  5.9169421360009E-02  4.3567739792917E-02  3.0360399032647E-02  1.9548378585239E-02  1.1133469354182E-02  5.1182757077137E-03  1.5062199413877E-03  3.0145563059748E-04 
 5.3064030074658E-02  2.6533239126947E-01  9.0220651234970E-01  1.9638961577877E+00  3.4507546276716E+00  5.3632790574681E+00  7.7021107869382E+00  1.0468035671869E+01  1.3661977746889E+01  1.5366076820983E+01 
 2.1718436754398E+04  2.1719367763860E+04  2.1722335688623E+04  2.1727352114267E+04  2.1734418986312E+04  2.1743538712234E+04  2.1754714924537E+04  2.1767949470200E+04  2.1783164679271E+04  2.1797755263882E+04 
 9.8683613041372E+03  9.8688363931681E+03  9.8703537904735E+03  9.8729185852419E+03  9.8765318271209E+03  9.8811948522395E+03  9.8869096102828E+03  9.8936773753616E+03  9.9014654465650E+03  9.9091582681042E+03 
 1.1850075450260E+04  1.1850531370692E+04  1.1851981898150E+04  1.1854433529025E+04  1.1857887159191E+04  1.1862343859995E+04  1.1867805314254E+04  1.1874272094839E+04  1.1881699232706E+04  1.1888596995778E+04 
ZONE T = "CATH, 3.0000E-08", I = 10, SOLUTIONTIME = 3.000000E-08
ZONETYPE = ORDERED
DATAPACKING = BLOCK
STRANDID = 3
 1.2700000000000E-03  1.3377333333333E-03  1.4054666666667E-03  1.4732000000000E-03  1.5409333333333E-03  1.6086666666667E-03  1.6764000000000E-03  1.7441333333333E-03  1.8118666666667E-03  1.8796000000000E-03 
 1.9715648562796E-08  1.7399732505806E-08  1.5083532872018E-08  1.2766127556992E-08  1.0448047148550E-08  8.1287323391756E-09  5.8090763661572E-09  3.4881566071186E-09  1.1661562163369E-09  4.5400965972573E-12 
 9.2000000000095E-01  9.2000000000270E-01  9.2000000000270E-01  9.2000000000270E-01  9.2000000000270E-01  9.2000000000270E-01  9.2000000000270E-01  9.2000000000270E-01  9.2000000000270E-01  9.2000000000271E-01 
 3.9999999999524E-02  3.9999999998652E-02  3.9999999998652E-02  3.9999999998651E-02  3.9999999998651E-02  3.9999999998650E-02  3.9999999998650E-02  3.9999999998649E-02  3.9999999998648E-02  3.9999999998647E-02 
 3.9999999999524E-02  3.9999999998652E-02  3.9999999998652E-02  3.9999999998651E-02  3.9999999998651E-02  3.9999999998650E-02  3.9999999998650E-02  3.9999999998649E-02  3.9999999998648E-02  3.9999999998647E-02 
 2.9181790295098E-02  2.9181583221319E-02  2.9181400481284E-02  2.9181242077974E-02  2.9181108016426E-02  2.9180998303731E-02  2.9180912949042E-02  2.9180851963575E-02  2.9180815360611E-02  2.9180803155359E-02 
 3.8001746977869E+00  3.8001725422124E+00  3.8001660753219E+00  3.8001552965877E+00  3.8001402051177E+00  3.8001207996554E+00  3.8000970785791E+00  3.8000690399019E+00  3.8000366812713E+00  3.8000000000000E+00 
 2.9815000327704E+02  2.9815001253327E+02  2.9815001284815E+02  2.9815001303766E+02  2.9815001297638E+02  2.9815001290466E+02  2.9815001277812E+02  2.9815000966815E+02  2.9814991367815E+02  2.9814759793188E+02 
 3.7709929074918E+00  3.7709909589911E+00  3.7709846748406E+00  3.7709740545097E+00  3.7709590971013E+00  3.7709398013517E+00  3.7709161656301E+00  3.7708881879383E+00  3.7708558659107E+00  3.7708191968446E+00 
 3.9714142686832E+00  3.9714142612111E+00  3.9714142609569E+00  3.9714142608040E+00  3.9714142608534E+00  3.9714142609113E+00  3.9714142610135E+00  3.9714142635238E+00  3.9714143410056E+00  3.9714162102411E+00 
-2.0042136119133E-01 -2.0042330222006E-01 -2.0042958611632E-01 -2.0044020629423E-01 -2.0045516375214E-01 -2.0047445955967E-01 -2.0049809538338E-01 -2.0052607558548E-01 -2.0055847509487E-01 -2.0059701339642E-01 
-1.6677487954856E+00 -3.3356266297128E+00 -3.3360350028862E+00 -3.3367251837842E+00 -3.3376973720752E+00 -3.3389519596806E+00 -3.3404893586158E+00 -3.3423093111416E+00 -3.3443885549801E+00 -1.6730812576101E+00 
 1.4709686692448E-07  1.2981080305417E-07  1.1252302069282E-07  9.5231661739975E-08  7.7935264769603E-08  6.0632366359331E-08  4.3321500937256E-08  2.6001204287029E-08  8.6701326260984E-09  8.6701326260984E-09 
 3.0053053425992E+01  2.6717491315652E+01  2.3381660499454E+01  2.0045280405972E+01  1.6708069128002E+01  1.3369744462161E+01  1.0030023802890E+01  6.6886244681065E+00  3.3452755350952E+00  0.0000000000000E+00 
 0.0000000000000E+00  3.3355621103332E+00  6.6713929266425E+00  1.0007773020024E+01  1.3344984297786E+01  1.6683308963753E+01  2.0023029623062E+01  2.3364428957813E+01  2.6707777890809E+01  3.0053053426066E+01 
 5.0027226731858E-08  1.0005829990572E-07  1.0007054733086E-07  1.0009124761437E-07  1.0012040741175E-07  1.0015803736828E-07  1.0020415018337E-07  1.0025874957244E-07  1.0032144556517E-07  5.0190263316116E-08 
 7.2440786946725E+03  1.4488157389345E+04  1.4488157389345E+04  1.4488157389345E+04  1.4488157389345E+04  1.4488157389345E+04  1.4488157389345E+04  1.4488157389345E+04  1.4488157389345E+04  7.2440786946727E+03 
 4.9259735123383E+04  9.8519470246765E+04  9.8519470246766E+04  9.8519470246765E+04  9.8519470246766E+04  9.8519470246766E+04  9.8519470246765E+04  9.8519470246765E+04  9.8519470246765E+04  4.9259735123383E+04 
 5.6503813818055E+04  1.1300762763611E+05  1.1300762763611E+05  1.1300762763611E+05  1.1300762763611E+05  1.1300762763611E+05  1.1300762763611E+05  1.1300762763611E+05  1.1300762763611E+05  5.6503813818055E+04 
 3.5000000000000E-01  3.5000000000000E-01  3.5000000000000E-01  3.5000000000000E-01  3.5000000000000E-01  3.5000000000000E-01  3.5000000000000E-01  3.5000000000000E-01  3.5000000000000E-01  3.5000000000000E-01 
 6.6040000000000E+00  1.3208000000000E+01  1.3208000000000E+01  1.3208000000000E+01  1.3208000000000E+01  1.3208000000000E+01  1.3208000000000E+01  1.3208000000000E+01  1.3208000000000E+01  6.6040000000000E+00 
-2.5253615921950E-01 -2.5254592896069E-01 -2.5257684758375E-01 -2.5262910234586E-01 -2.5270270836427E-01 -2.5279769531198E-01 -2.5291409438339E-01 -2.5305188606463E-01 -2.5320930912932E-01 -2.5334361865689E-01 
 3.3866666666667E-05  6.7733333333333E-05  6.7733333333334E-05  6.7733333333333E-05  6.7733333333334E-05  6.7733333333334E-05  6.7733333333333E-05  6.7733333333334E-05  6.7733333333333E-05  3.3866666666667E-05 
 2.6603001364272E+01  2.6603001364272E+01  2.6603001364272E+01  2.6603001364272E+01  2.6603001364272E+01  2.6603001364272E+01  2.6603001364272E+01  2.6603001364272E+01  2.6603001364272E+01  2.6603001364272E+01 
 1.7735334242822E+01  1.7735334242822E+01  1.7735334242822E+01  1.7735334242822E+01  1.7735334242822E+01  1.7735334242822E+01  1.7735334242822E+01  1.7735334242822E+01  1.7735334242822E+01  1.7735334242822E+01 
 6.5155736619203E-04  6.5159137477933E-04  6.5169897995487E-04  6.5188085738278E-04  6.5213707027196E-04  6.5246771600696E-04  6.5287291347397E-04  6.5335273066190E-04  6.5390466022728E-04  6.5439434187539E-04 
 2.1721116964050E+04  2.1722256060275E+04  2.1725843946978E+04  2.1731908029837E+04  2.1740450270526E+04  2.1751474158727E+04  2.1764983583588E+04  2.1780978308075E+04  2.1799307404656E+04  2.1814348709322E+04 
 8.6779315459156E-02  7.7180841614721E-02  5.9181289014720E-02  4.3576409656566E-02  3.0366373936091E-02  1.9552161769431E-02  1.1135564593824E-02  5.1191877747344E-03  1.5064565266108E-03  3.0148197074406E-04 
 5.3075150761864E-02  2.6538807363587E-01  9.0239593393422E-01  1.9643086011470E+00  3.4514794832517E+00  5.3644058678966E+00  7.7037292907819E+00  1.0470235615357E+01  1.3664842470520E+01  1.5369293191663E+01 
 2.1720977109584E+04  2.1721913491360E+04  2.1724882369755E+04  2.1729900144827E+04  2.1736968424669E+04  2.1746090200697E+04  2.1757268718733E+04  2.1770502953272E+04  2.1785641055729E+04  2.1798979114648E+04 
 9.8696599522618E+03  9.8701373636982E+03  9.8716552396505E+03  9.8742207310899E+03  9.8778347432390E+03  9.8824988624062E+03  9.8882148728131E+03  9.8949828182632E+03  9.9027382191806E+03  9.9098947868090E+03 
 1.1851317157322E+04  1.1851776127662E+04  1.1853227130105E+04  1.1855679413737E+04  1.1859133681430E+04  1.1863591338291E+04  1.1869053845920E+04  1.1875520135009E+04  1.1882902836549E+04  1.1889084327839E+04 
ZONE T = "CATH, 3.5000E-08", I = 10, SOLUTIONTIME = 3.500000E-08
ZONETYPE = ORDERED
DATAPACKING = BLOCK
STRANDID = 3
 1.2700000000000E-03  1.3377333333333E-03  1.4054666666667E-03  1.4732000000000E-03  1.5409333333333E-03  1.6086666666667E-03  1.6764000000000E-03  1.7441333333333E-03  1.8118666666667E-03  1.8796000000000E-03 
 1.9704662074882E-08  1.7387534415471E-08  1.5070123120817E-08  1.2753685355689E-08  1.0435846011221E-08  8.1178618094461E-09  5.7973570767475E-09  3.4755886414744E-09  1.1531074898857E-09 -8.7169854668865E-12 
 9.2000000000111E-01  9.2000000000315E-01  9.2000000000315E-01  9.2000000000315E-01  9.2000000000315E-01  9.2000000000315E-01  9.2000000000315E-01  9.2000000000315E-01  9.2000000000315E-01  9.2000000000316E-01 
 3.9999999999444E-02  3.9999999998427E-02  3.9999999998427E-02  3.9999999998427E-02  3.9999999998426E-02  3.9999999998425E-02  3.9999999998425E-02  3.9999999998424E-02  3.9999999998423E-02  3.9999999998422E-02 
 3.9999999999444E-02  3.9999999998427E-02  3.9999999998427E-02  3.9999999998427E-02  3.9999999998426E-02  3.9999999998425E-02  3.9999999998425E-02  3.9999999998424E-02  3.9999999998423E-02  3.9999999998422E-02 
 2.9184494747078E-02  2.9184287662799E-02  2.9184104913545E-02  2.9183946502299E-02  2.9183812434097E-02  2.9183702716031E-02  2.9183617357256E-02  2.9183556368988E-02  2.9183519764510E-02  2.9183507558984E-02 
 3.8001747069797E+00  3.8001725512919E+00  3.8001660840612E+00  3.8001553047595E+00  3.8001402124949E+00  3.8001208060105E+00  3.8000970836848E+00  3.8000690435303E+00  3.8000366831949E+00  3.8000000000000E+00 