TITLE = "Solution on Domain BulkDomain1D_2"
VARIABLES = "x [m]"  
"Vel_axial" 	"MF_sp(ECDMC)" 	"MF_sp(Li+)" 	"MF_sp(PF6-)" 	"Volt(Electroly)" 	"Volt(CathodeVo)" 	"Temperature" 	
"Potential Drop Electrode-Electrolyte [V]" 	"Surf_0 Equilibrium Potential Drop Electrode-Electrolyte [V]" 	"Overpotential_0 [V]" 	"Current Source [A/m^2]" 	"Li+ flux [kmol/m^2/s]" 	"Electrolyte Current [A/m^2]" 	"Electrode Current [A/m^2]" 	
"CV Capacity discharged [A-s/m^2]" 	"Depth of discharge in CV [A-s/m^2]" 	"CV Capacity remaining [A-s/m^2]" 	"Initial CV capacity [A-s/m^2]" 	"Porosity []" 	"Surface Area [m2/m2] (area per area)" 	"Specific current (per particle area) [A/m^2]" 	"Control volume thickness [m]" 	
"MoleDens LiCoO2 [kmol/m^3]" 	"MoleDens CoO2 [kmol/m^3]" 	"qHeat_accum [J/m3]" 	"qHeat_step [W/m3]" 	"Joule_Lyte [W/m3]" 	"Joule_Solid [W/m3]" 	"electrodHeat [W/m3]" 	"OverpotHeat [W/m3]" 	"deltaSHeat [W/m3]" 	

ZONE T = "CATH, 0.0000E+00", I = 10, SOLUTIONTIME = 0.000000E+00
ZONETYPE = ORDERED
DATAPACKING = BLOCK
STRANDID = 3
 1.2700000000000E-03  1.3377333333333E-03  1.4054666666667E-03  1.4732000000000E-03  1.5409333333333E-03  1.6086666666667E-03  1.6764000000000E-03  1.7441333333333E-03  1.8118666666667E-03  1.8796000000000E-03 
 0.0000000000000E+00  0.0000000000000E+00  0.0000000000000E+00  0.0000000000000E+00  0.0000000000000E+00  0.0000000000000E+00  0.0000000000000E+00  0.0000000000000E+00  0.0000000000000E+00  0.0000000000000E+00 
 9.2000000000000E-01  9.2000000000000E-01  9.2000000000000E-01  9.2000000000000E-01  9.2000000000000E-01  9.2000000000000E-01  9.2000000000000E-01  9.2000000000000E-01  9.2000000000000E-01  9.2000000000000E-01 
 4.0000000000000E-02  4.0000000000000E-02  4.0000000000000E-02  4.0000000000000E-02  4.0000000000000E-02  4.0000000000000E-02  4.0000000000000E-02  4.0000000000000E-02  4.0000000000000E-02  4.0000000000000E-02 
 4.0000000000000E-02  4.0000000000000E-02  4.0000000000000E-02  4.0000000000000E-02  4.0000000000000E-02  4.0000000000000E-02  4.0000000000000E-02  4.0000000000000E-02  4.0000000000000E-02  4.0000000000000E-02 
-7.0000000000000E-02 -7.0000000000000E-02 -7.0000000000000E-02 -7.0000000000000E-02 -7.0000000000000E-02 -7.0000000000000E-02 -7.0000000000000E-02 -7.0000000000000E-02 -7.0000000000000E-02 -7.0000000000000E-02 
 3.8000000000000E+00  3.8000000000000E+00  3.8000000000000E+00  3.8000000000000E+00  3.8000000000000E+00  3.8000000000000E+00  3.8000000000000E+00  3.8000000000000E+00  3.8000000000000E+00  3.8000000000000E+00 
 2.9815000000000E+02  2.9815000000000E+02  2.9815000000000E+02  2.9815000000000E+02  2.9815000000000E+02  2.9815000000000E+02  2.9815000000000E+02  2.9815000000000E+02  2.9815000000000E+02  2.9815000000000E+02 
 3.8700000000000E+00  3.8700000000000E+00  3.8700000000000E+00  3.8700000000000E+00  3.8700000000000E+00  3.8700000000000E+00  3.8700000000000E+00  3.8700000000000E+00  3.8700000000000E+00  3.8700000000000E+00 
 3.9714142713289E+00  3.9714142713289E+00  3.9714142713289E+00  3.9714142713289E+00  3.9714142713289E+00  3.9714142713289E+00  3.9714142713289E+00  3.9714142713289E+00  3.9714142713289E+00  3.9714142713289E+00 
-1.0141427132889E-01 -1.0141427132889E-01 -1.0141427132889E-01 -1.0141427132889E-01 -1.0141427132889E-01 -1.0141427132889E-01 -1.0141427132889E-01 -1.0141427132889E-01 -1.0141427132889E-01 -1.0141427132889E-01 
-2.3826357195711E-01 -4.7652714391422E-01 -4.7652714391423E-01 -4.7652714391422E-01 -4.7652714391423E-01 -4.7652714391423E-01 -4.7652714391422E-01 -4.7652714391423E-01 -4.7652714391422E-01 -2.3826357195711E-01 
-0.0000000000000E+00 -0.0000000000000E+00 -0.0000000000000E+00 -0.0000000000000E+00 -0.0000000000000E+00 -0.0000000000000E+00 -0.0000000000000E+00 -0.0000000000000E+00 -0.0000000000000E+00 -0.0000000000000E+00 
 2.3826357195711E-01  0.0000000000000E+00  0.0000000000000E+00  0.0000000000000E+00  0.0000000000000E+00  0.0000000000000E+00  0.0000000000000E+00  0.0000000000000E+00  0.0000000000000E+00  0.0000000000000E+00 
 0.0000000000000E+00 -0.0000000000000E+00 -0.0000000000000E+00 -0.0000000000000E+00 -0.0000000000000E+00 -0.0000000000000E+00 -0.0000000000000E+00 -0.0000000000000E+00 -0.0000000000000E+00  2.3826357195711E-01 
-0.0000000000000E+00 -0.0000000000000E+00 -0.0000000000000E+00 -0.0000000000000E+00 -0.0000000000000E+00 -0.0000000000000E+00 -0.0000000000000E+00 -0.0000000000000E+00 -0.0000000000000E+00 -0.0000000000000E+00 
 7.2440786946225E+03  1.4488157389245E+04  1.4488157389245E+04  1.4488157389245E+04  1.4488157389245E+04  1.4488157389245E+04  1.4488157389245E+04  1.4488157389245E+04  1.4488157389245E+04  7.2440786946225E+03 
 4.9259735123433E+04  9.8519470246865E+04  9.8519470246866E+04  9.8519470246865E+04  9.8519470246866E+04  9.8519470246866E+04  9.8519470246865E+04  9.8519470246866E+04  9.8519470246865E+04  4.9259735123433E+04 
 5.6503813818055E+04  1.1300762763611E+05  1.1300762763611E+05  1.1300762763611E+05  1.1300762763611E+05  1.1300762763611E+05  1.1300762763611E+05  1.1300762763611E+05  1.1300762763611E+05  5.6503813818055E+04 
 3.5000000000000E-01  3.5000000000000E-01  3.5000000000000E-01  3.5000000000000E-01  3.5000000000000E-01  3.5000000000000E-01  3.5000000000000E-01  3.5000000000000E-01  3.5000000000000E-01  3.5000000000000E-01 
 6.6040000000000E+00  1.3208000000000E+01  1.3208000000000E+01  1.3208000000000E+01  1.3208000000000E+01  1.3208000000000E+01  1.3208000000000E+01  1.3208000000000E+01  1.3208000000000E+01  6.6040000000000E+00 
-3.6078675341780E-02 -3.6078675341780E-02 -3.6078675341780E-02 -3.6078675341780E-02 -3.6078675341780E-02 -3.6078675341780E-02 -3.6078675341780E-02 -3.6078675341780E-02 -3.6078675341780E-02 -3.6078675341780E-02 
 3.3866666666667E-05  6.7733333333333E-05  6.7733333333334E-05  6.7733333333333E-05  6.7733333333334E-05  6.7733333333334E-05  6.7733333333333E-05  6.7733333333334E-05  6.7733333333333E-05  3.3866666666667E-05 
 2.6603001364256E+01  2.6603001364256E+01  2.6603001364256E+01  2.6603001364256E+01  2.6603001364256E+01  2.6603001364256E+01  2.6603001364256E+01  2.6603001364256E+01  2.6603001364256E+01  2.6603001364256E+01 
 1.7735334242838E+01  1.7735334242838E+01  1.7735334242838E+01  1.7735334242838E+01  1.7735334242838E+01  1.7735334242838E+01  1.7735334242838E+01  1.7735334242838E+01  1.7735334242838E+01  1.7735334242838E+01 
 0.0000000000000E+00  0.0000000000000E+00  0.0000000000000E+00  0.0000000000000E+00  0.0000000000000E+00  0.0000000000000E+00  0.0000000000000E+00  0.0000000000000E+00  0.0000000000000E+00  0.0000000000000E+00 
 0.0000000000000E+00  0.0000000000000E+00  0.0000000000000E+00  0.0000000000000E+00  0.0000000000000E+00  0.0000000000000E+00  0.0000000000000E+00  0.0000000000000E+00  0.0000000000000E+00  0.0000000000000E+00 
 0.0000000000000E+00  0.0000000000000E+00  0.0000000000000E+00  0.0000000000000E+00  0.0000000000000E+00  0.0000000000000E+00  0.0000000000000E+00  0.0000000000000E+00  0.0000000000000E+00  0.0000000000000E+00 
 0.0000000000000E+00  0.0000000000000E+00  0.0000000000000E+00  0.0000000000000E+00  0.0000000000000E+00  0.0000000000000E+00  0.0000000000000E+00  0.0000000000000E+00  0.0000000000000E+00  0.0000000000000E+00 
 0.0000000000000E+00  0.0000000000000E+00  0.0000000000000E+00  0.0000000000000E+00  0.0000000000000E+00  0.0000000000000E+00  0.0000000000000E+00  0.0000000000000E+00  0.0000000000000E+00  0.0000000000000E+00 
 0.0000000000000E+00  0.0000000000000E+00  0.0000000000000E+00  0.0000000000000E+00  0.0000000000000E+00  0.0000000000000E+00  0.0000000000000E+00  0.0000000000000E+00  0.0000000000000E+00  0.0000000000000E+00 
 0.0000000000000E+00  0.0000000000000E+00  0.0000000000000E+00  0.0000000000000E+00  0.0000000000000E+00  0.0000000000000E+00  0.0000000000000E+00  0.0000000000000E+00  0.0000000000000E+00  0.0000000000000E+00 
ZONE T = "CATH, 1.0000E-08", I = 10, SOLUTIONTIME = 1.000000E-08
ZONETYPE = ORDERED
DATAPACKING = BLOCK
STRANDID = 3
 1.2700000000000E-03  1.3377333333333E-03  1.4054666666667E-03  1.4732000000000E-03  1.5409333333333E-03  1.6086666666667E-03  1.6764000000000E-03  1.7441333333333E-03  1.8118666666667E-03  1.8796000000000E-03 
 1.9707213525267E-08  1.7391068179224E-08  1.5074639427511E-08  1.2757731680120E-08  1.0439785964240E-08  8.1213326741024E-09  5.8018123268894E-09  3.4813915162487E-09  1.1591498645301E-09 -2.9056616505939E-12 
 9.2000000000032E-01  9.2000000000090E-01  9.2000000000090E-01  9.2000000000090E-01  9.2000000000090E-01  9.2000000000090E-01  9.2000000000090E-01  9.2000000000090E-01  9.2000000000090E-01  9.2000000000090E-01 
 3.9999999999841E-02  3.9999999999551E-02  3.9999999999551E-02  3.9999999999551E-02  3.9999999999550E-02  3.9999999999550E-02  3.9999999999550E-02  3.9999999999550E-02  3.9999999999549E-02  3.9999999999549E-02 
 3.9999999999841E-02  3.9999999999551E-02  3.9999999999551E-02  3.9999999999551E-02  3.9999999999550E-02  3.9999999999550E-02  3.9999999999550E-02  3.9999999999550E-02  3.9999999999549E-02  3.9999999999549E-02 
 2.9171015680934E-02  2.9170808649988E-02  2.9170625947558E-02  2.9170467576640E-02  2.9170333542242E-02  2.9170223851478E-02  2.9170138513474E-02  2.9170077539445E-02  2.9170040942685E-02  2.9170028738505E-02 
 3.8001746603048E+00  3.8001725051918E+00  3.8001660396882E+00  3.8001552632665E+00  3.8001401750351E+00  3.8001207737381E+00  3.8000970577547E+00  3.8000690250988E+00  3.8000366734182E+00  3.8000000000000E+00 
 2.9815000103588E+02  2.9815000403886E+02  2.9815000419255E+02  2.9815000421215E+02  2.9815000417268E+02  2.9815000423041E+02  2.9815000416251E+02  2.9815000385838E+02  2.9814998661787E+02  2.9814916178636E+02 
 3.7710036446239E+00  3.7710016965418E+00  3.7709954137406E+00  3.7709847956898E+00  3.7709698414928E+00  3.7709505498866E+00  3.7709269192412E+00  3.7708989475593E+00  3.7708666324756E+00  3.7708299712615E+00 
 3.9714142704926E+00  3.9714142680684E+00  3.9714142679444E+00  3.9714142679285E+00  3.9714142679604E+00  3.9714142679138E+00  3.9714142679686E+00  3.9714142682141E+00  3.9714142821304E+00  3.9714149479225E+00 
-2.0041062586868E-01 -2.0041257152660E-01 -2.0041885420374E-01 -2.0042947223872E-01 -2.0044442646757E-01 -2.0046371802720E-01 -2.0048734872739E-01 -2.0051532065477E-01 -2.0054764965483E-01 -2.0058497666103E-01 
-1.6673997668878E+00 -3.3349268620670E+00 -3.3353350193694E+00 -3.3360248625376E+00 -3.3369966442016E+00 -3.3382507338015E+00 -3.3397874957916E+00 -3.3416074200855E+00 -3.3437066873605E+00 -1.6729379528492E+00 
 1.4706617754299E-07  1.2978409348383E-07  1.1250001441780E-07  9.5212377980675E-08  7.7919688298580E-08  6.0620515893593E-08  4.3313376427729E-08  2.5996793798602E-08  8.6693473461597E-09  8.6693473461597E-09 
 3.0046833425891E+01  2.6711978753945E+01  2.3376863663206E+01  2.0041200057332E+01  1.6704705653356E+01  1.3367098198115E+01  1.0028096550344E+01  6.6874150710436E+00  3.3447742668261E+00  0.0000000000000E+00 
 0.0000000000000E+00  3.3348470705021E+00  6.6699618620858E+00  1.0005625612751E+01  1.3342120114188E+01  1.6679727467835E+01  2.0018730142937E+01  2.3359411035134E+01  2.6702051374694E+01  3.0046834274434E+01 
 1.6673997668878E-08  3.3349268620670E-08  3.3353350193694E-08  3.3360248625376E-08  3.3369966442016E-08  3.3382507338015E-08  3.3397874957916E-08  3.3416074200855E-08  3.3437066873605E-08  1.6729379528492E-08 
 7.2440786946392E+03  1.4488157389278E+04  1.4488157389278E+04  1.4488157389278E+04  1.4488157389278E+04  1.4488157389278E+04  1.4488157389278E+04  1.4488157389278E+04  1.4488157389278E+04  7.2440786946392E+03 
 4.9259735123416E+04  9.8519470246832E+04  9.8519470246832E+04  9.8519470246832E+04  9.8519470246832E+04  9.8519470246832E+04  9.8519470246832E+04  9.8519470246832E+04  9.8519470246832E+04  4.9259735123416E+04 
 5.6503813818055E+04  1.1300762763611E+05  1.1300762763611E+05  1.1300762763611E+05  1.1300762763611E+05  1.1300762763611E+05  1.1300762763611E+05  1.1300762763611E+05  1.1300762763611E+05  5.6503813818055E+04 
 3.5000000000000E-01  3.5000000000000E-01  3.5000000000000E-01  3.5000000000000E-01  3.5000000000000E-01  3.5000000000000E-01  3.5000000000000E-01  3.5000000000000E-01  3.5000000000000E-01  3.5000000000000E-01 
 6.6040000000000E+00  1.3208000000000E+01  1.3208000000000E+01  1.3208000000000E+01  1.3208000000000E+01  1.3208000000000E+01  1.3208000000000E+01  1.3208000000000E+01  1.3208000000000E+01  6.6040000000000E+00 
-2.5248330812958E-01 -2.5249294836970E-01 -2.5252385064881E-01 -2.5257607984083E-01 -2.5264965507280E-01 -2.5274460431568E-01 -2.5286095516290E-01 -2.5299874470665E-01 -2.5315768377957E-01 -2.5332191896566E-01 
 3.3866666666667E-05  6.7733333333333E-05  6.7733333333334E-05  6.7733333333333E-05  6.7733333333334E-05  6.7733333333334E-05  6.7733333333333E-05  6.7733333333334E-05  6.7733333333333E-05  3.3866666666667E-05 
 2.6603001364262E+01  2.6603001364262E+01  2.6603001364262E+01  2.6603001364262E+01  2.6603001364262E+01  2.6603001364262E+01  2.6603001364262E+01  2.6603001364262E+01  2.6603001364262E+01  2.6603001364262E+01 
 1.7735334242833E+01  1.7735334242833E+01  1.7735334242833E+01  1.7735334242833E+01  1.7735334242833E+01  1.7735334242833E+01  1.7735334242833E+01  1.7735334242833E+01  1.7735334242833E+01  1.7735334242833E+01 
 2.1716042448846E-04  2.1717170179942E-04  2.1720756196991E-04  2.1726817297604E-04  2.1735355790377E-04  2.1746375016877E-04  2.1759878553395E-04  2.1775871067545E-04  2.1794329219405E-04  2.1811962461759E-04 
 2.1716042448846E+04  2.1717170179942E+04  2.1720756196991E+04  2.1726817297604E+04  2.1735355790377E+04  2.1746375016877E+04  2.1759878553395E+04  2.1775871067545E+04  2.1794329219405E+04  2.1811962461759E+04 
 8.6743420238728E-02  7.7148988903290E-02  5.9157001827440E-02  4.3558662620236E-02  3.0354140442801E-02  1.9544411621375E-02  1.1131271465947E-02  5.1173165406013E-03  1.5059699320501E-03  3.0142820420229E-04 
 5.3052424858139E-02  2.6527427713227E-01  9.0200881655804E-01  1.9634656948205E+00  3.4499980652520E+00  5.3621028771872E+00  7.7004212184270E+00  1.0465738740744E+01  1.3658983824863E+01  1.5362713095290E+01 
 2.1715902653001E+04  2.1716827756676E+04  2.1719795031172E+04  2.1724810273246E+04  2.1731875438172E+04  2.1740993369588E+04  2.1752167000905E+04  2.1765400211488E+04  2.1780668729610E+04  2.1796599447235E+04 
 9.8670658717156E+03  9.8675384096597E+03  9.8690554572134E+03  9.8716196246256E+03  9.8752319656321E+03  9.8798940030389E+03  9.8856073869848E+03  9.8923742619355E+03  9.9001848024546E+03  9.9084513846881E+03 
 1.1848836781285E+04  1.1849289347016E+04  1.1850739573959E+04  1.1853190648621E+04  1.1856643472540E+04  1.1861099366549E+04  1.1866559613920E+04  1.1873025949552E+04  1.1880483927155E+04  1.1888148062547E+04 
ZONE T = "CATH, 2.0000E-08", I = 10, SOLUTIONTIME = 2.000000E-08
ZONETYPE = ORDERED
DATAPACKING = BLOCK
STRANDID = 3
 1.2700000000000E-03  1.3377333333333E-03  1.4054666666667E-03  1.4732000000000E-03  1.5409333333333E-03  1.6086666666667E-03  1.6764000000000E-03  1.7441333333333E-03  1.8118666666667E-03  1.8796000000000E-03 
 1.9706573421578E-08  1.7390174210849E-08  1.5074581119805E-08  1.2758145696612E-08  1.0441035297513E-08  8.1226906718318E-09  5.8032786909314E-09  3.4826028520448E-09  1.1601117392282E-09 -1.8160386389545E-12 
 9.2000000000064E-01  9.2000000000180E-01  9.2000000000180E-01  9.2000000000180E-01  9.2000000000180E-01  9.2000000000180E-01  9.2000000000180E-01  9.2000000000180E-01  9.2000000000180E-01  9.2000000000180E-01 
 3.9999999999682E-02  3.9999999999101E-02  3.9999999999101E-02  3.9999999999101E-02  3.9999999999101E-02  3.9999999999100E-02  3.9999999999100E-02  3.9999999999099E-02  3.9999999999099E-02  3.9999999999098E-02 
 3.9999999999682E-02  3.9999999999101E-02  3.9999999999101E-02  3.9999999999101E-02  3.9999999999101E-02  3.9999999999100E-02  3.9999999999100E-02  3.9999999999099E-02  3.9999999999099E-02  3.9999999999098E-02 
 2.9176397061629E-02  2.9176190008785E-02  2.9176007287130E-02  2.9175848899644E-02  2.9175714851361E-02  2.9175605149372E-02  2.9175519802828E-02  2.9175458822941E-02  2.9175422222993E-02  2.9175410018266E-02 
 3.8001746794514E+00  3.8001725241027E+00  3.8001660578908E+00  3.8001552802882E+00  3.8001401904029E+00  3.8001207869787E+00  3.8000970683944E+00  3.8000690326631E+00  3.8000366774326E+00  3.8000000000000E+00 
 2.9815000211545E+02  2.9815000827446E+02  2.9815000851442E+02  2.9815000848243E+02  2.9815000855280E+02  2.9815000852777E+02  2.9815000840322E+02  2.9815000712483E+02  2.9814995739931E+02  2.9814836188365E+02 
 3.7709982823898E+00  3.7709963340939E+00  3.7709900506037E+00  3.7709794313885E+00  3.7709644755516E+00  3.7709451818294E+00  3.7709215485915E+00  3.7708935738402E+00  3.7708612552096E+00  3.7708245899817E+00 
 3.9714142696210E+00  3.9714142646491E+00  3.9714142644554E+00  3.9714142644813E+00  3.9714142644245E+00  3.9714142644447E+00  3.9714142645452E+00  3.9714142655771E+00  3.9714143057148E+00  3.9714155935916E+00 
-2.0041598723121E-01 -2.0041793055525E-01 -2.0042421385173E-01 -2.0043483309271E-01 -2.0044978887287E-01 -2.0046908261528E-01 -2.0049271595366E-01 -2.0052069173691E-01 -2.0055305050524E-01 -2.0059100360984E-01 
-1.6675740609849E+00 -3.3352763134627E+00 -3.3356845810801E+00 -3.3363745584111E+00 -3.3373465774738E+00 -3.3386009140006E+00 -3.3401379905315E+00 -3.3419580466951E+00 -3.3440491376804E+00 -1.6730070220792E+00 
 1.4708186422729E-07  1.2979774832810E-07  1.1251178189052E-07  9.5222239911959E-08  7.7927660784497E-08  6.0626581527521E-08  4.3317536924384E-08  2.5999060548532E-08  8.6697478192800E-09  8.6697478192800E-09 
 3.0050009202433E+01  2.6714796984686E+01  2.3379316537441E+01  2.0043286967599E+01  1.6706426399757E+01  1.3368452654287E+01  1.0029083201686E+01  6.6880351829746E+00  3.3450315908636E+00  0.0000000000000E+00 
 0.0000000000000E+00  3.3352122176386E+00  6.6706926650406E+00  1.0006722234728E+01  1.3343582802572E+01  1.6681556548517E+01  2.0020926000736E+01  2.3361974019307E+01  2.6704977611461E+01  3.0050009202322E+01 
 3.3349738278727E-08  6.6702031755297E-08  6.6710196004495E-08  6.6723994209487E-08  6.6743432216754E-08  6.6768516478021E-08  6.6799254863231E-08  6.6835654667806E-08  6.6877558250410E-08  3.3459449749284E-08 
 7.2440786946558E+03  1.4488157389312E+04  1.4488157389312E+04  1.4488157389312E+04  1.4488157389312E+04  1.4488157389312E+04  1.4488157389312E+04  1.4488157389312E+04  1.4488157389312E+04  7.2440786946559E+03 
 4.9259735123400E+04  9.8519470246798E+04  9.8519470246799E+04  9.8519470246798E+04  9.8519470246799E+04  9.8519470246799E+04  9.8519470246798E+04  9.8519470246799E+04  9.8519470246798E+04  4.9259735123399E+04 
 5.6503813818055E+04  1.1300762763611E+05  1.1300762763611E+05  1.1300762763611E+05  1.1300762763611E+05  1.1300762763611E+05  1.1300762763611E+05  1.1300762763611E+05  1.1300762763611E+05  5.6503813818055E+04 
 3.5000000000000E-01  3.5000000000000E-01  3.5000000000000E-01  3.5000000000000E-01  3.5000000000000E-01  3.5000000000000E-01  3.5000000000000E-01  3.5000000000000E-01  3.5000000000000E-01  3.5000000000000E-01 
 6.6040000000000E+00  1.3208000000000E+01  1.3208000000000E+01  1.3208000000000E+01  1.3208000000000E+01  1.3208000000000E+01  1.3208000000000E+01  1.3208000000000E+01  1.3208000000000E+01  6.6040000000000E+00 
-2.5250970033084E-01 -2.5251940592540E-01 -2.5255031655664E-01 -2.5260255590635E-01 -2.5267614911219E-01 -2.5277111705031E-01 -2.5288749171196E-01 -2.5302529123979E-01 -2.5318361127199E-01 -2.5333237766190E-01 
 3.3866666666667E-05  6.7733333333333E-05  6.7733333333334E-05  6.7733333333333E-05  6.7733333333334E-05  6.7733333333334E-05  6.7733333333333E-05  6.7733333333334E-05  6.7733333333333E-05  3.3866666666667E-05 
 2.6603001364267E+01  2.6603001364267E+01  2.6603001364267E+01  2.6603001364267E+01  2.6603001364267E+01  2.6603001364267E+01  2.6603001364267E+01  2.6603001364267E+01  2.6603001364267E+01  2.6603001364267E+01 
 1.7735334242827E+01  1.7735334242827E+01  1.7735334242827E+01  1.7735334242827E+01  1.7735334242827E+01  1.7735334242827E+01  1.7735334242827E+01  1.7735334242827E+01  1.7735334242827E+01  1.7735334242827E+01 
 4.3434618948077E-04  4.3436880146190E-04  4.3444053134127E-04  4.3456176604596E-04  4.3473255695821E-04  4.3495296476590E-04  4.3522306480965E-04  4.3554293402521E-04  4.3591157241635E-04  4.3625083934103E-04 
 2.1718576499231E+04  2.1719709966248E+04  2.1723296937136E+04  2.1729359306993E+04  2.1737899905444E+04  2.1748921459713E+04  2.1762427927570E+04  2.1778422334976E+04  2.1796828022230E+04  2.1813121472345E+04 
 8.6761770400842E-02  7.7165272378995E-02  5.9169420272904E-02  4.3567738990912E-02  3.0360398497277E-02  1.9548378224791E-02  1.1133469131994E-02  5.1182756148094E-03  1.5062199197752E-03  3.0145562572802E-04 
 5.3064029681057E-02  2.6533238611974E-01  9.0220649607986E-01  1.9638961212107E+00  3.4507545614659E+00  5.3632789621396E+00  7.7021106527724E+00  1.0468035479003E+01  1.3661977493708E+01  1.5366076540788E+01 
 2.1718436673431E+04  2.1719367468589E+04  2.1722335561219E+04  2.1727351843133E+04  2.1734418790484E+04  2.1743538632373E+04  2.1754714683448E+04  2.1767949181221E+04  2.1783164538517E+04  2.1797755094348E+04 
 9.8683612710714E+03  9.8688362683331E+03  9.8703537375187E+03  9.8729184707310E+03  9.8765317448503E+03  9.8811948196240E+03  9.8869095086017E+03  9.8936772531494E+03  9.9014653878279E+03  9.9091581970173E+03 
 1.1850075402359E+04  1.1850531200256E+04  1.1851981823701E+04  1.1854433372402E+04  1.1857887045634E+04  1.1862343812749E+04  1.1867805174846E+04  1.1874271928072E+04  1.1881699150689E+04  1.1888596897331E+04 
ZONE T = "CATH, 3.0000E-08", I = 10, SOLUTIONTIME = 3.000000E-08
ZONETYPE = ORDERED
DATAPACKING = BLOCK
STRANDID = 3
 1.2700000000000E-03  1.3377333333333E-03  1.4054666666667E-03  1.4732000000000E-03  1.5409333333333E-03  1.6086666666667E-03  1.6764000000000E-03  1.7441333333333E-03  1.8118666666667E-03  1.8796000000000E-03 
 1.9715103631989E-08  1.7399187601334E-08  1.5082987950222E-08  1.2765582671588E-08  1.0447502276312E-08  8.1281874790098E-09  5.8085315122993E-09  3.4876117752658E-09  1.1656114068125E-09  3.9952850055285E-12 
 9.2000000000095E-01  9.2000000000270E-01  9.2000000000270E-01  9.2000000000270E-01  9.2000000000270E-01  9.2000000000270E-01  9.2000000000270E-01  9.2000000000270E-01  9.2000000000270E-01  9.2000000000271E-01 
 3.9999999999524E-02  3.9999999998652E-02  3.9999999998652E-02  3.9999999998651E-02  3.9999999998651E-02  3.9999999998650E-02  3.9999999998650E-02  3.9999999998649E-02  3.9999999998648E-02  3.9999999998647E-02 
 3.9999999999524E-02  3.9999999998652E-02  3.9999999998652E-02  3.9999999998651E-02  3.9999999998651E-02  3.9999999998650E-02  3.9999999998650E-02  3.9999999998649E-02  3.9999999998648E-02  3.9999999998647E-02 
 2.9181790413359E-02  2.9181583339582E-02  2.9181400599547E-02  2.9181242196239E-02  2.9181108134692E-02  2.9180998421998E-02  2.9180913067309E-02  2.9180852081842E-02  2.9180815478879E-02  2.9180803273626E-02 
 3.8001746977860E+00  3.8001725422114E+00  3.8001660753210E+00  3.8001552965868E+00  3.8001402051169E+00  3.8001207996547E+00  3.8000970785786E+00  3.8000690399015E+00  3.8000366812711E+00  3.8000000000000E+00 
 2.9815000322606E+02  2.9815001236087E+02  2.9815001291308E+02  2.9815001281070E+02  2.9815001287566E+02  2.9815001280993E+02  2.9815001271473E+02  2.9815000951966E+02  2.9814991352803E+02  2.9814759792528E+02 
 3.7709929073726E+00  3.7709909588718E+00  3.7709846747214E+00  3.7709740543906E+00  3.7709590969822E+00  3.7709398012327E+00  3.7709161655113E+00  3.7708881878196E+00  3.7708558657922E+00  3.7708191967264E+00 
 3.9714142687243E+00  3.9714142613503E+00  3.9714142609045E+00  3.9714142609872E+00  3.9714142609347E+00  3.9714142609878E+00  3.9714142610646E+00  3.9714142636437E+00  3.9714143411267E+00  3.9714162102464E+00 
-2.0042136135172E-01 -2.0042330247845E-01 -2.0042958618309E-01 -2.0044020659660E-01 -2.0045516395252E-01 -2.0047445975510E-01 -2.0049809555337E-01 -2.0052607582403E-01 -2.0055847533454E-01 -2.0059701352002E-01 
-1.6677487926061E+00 -3.3356265917864E+00 -3.3360350278334E+00 -3.3367251313793E+00 -3.3376973531159E+00 -3.3389519422981E+00 -3.3404893495312E+00 -3.3423092794505E+00 -3.3443885228253E+00 -1.6730812605868E+00 
 1.4709686603072E-07  1.2981080235747E-07  1.1252301986617E-07  9.5231661195897E-08  7.7935264317025E-08  6.0632365998331E-08  4.3321500622848E-08  2.6001204134477E-08  8.6701326407000E-09  8.6701326407000E-09 
 3.0053053251596E+01  2.6717491162953E+01  2.3381660352950E+01  2.0045280273436E+01  1.6708069031363E+01  1.3369744383663E+01  1.0030023737442E+01  6.6886244230517E+00  3.3452755220660E+00  0.0000000000000E+00 
 0.0000000000000E+00  3.3355620885154E+00  6.6713928982965E+00  1.0007772977934E+01  1.3344984220306E+01  1.6683308867892E+01  2.0023029513630E+01  2.3364428828280E+01  2.6707777729495E+01  3.0053053251408E+01 
 5.0027226204788E-08  1.0005829767316E-07  1.0007054628283E-07  1.0009124552328E-07  1.0012040574791E-07  1.0015803590100E-07  1.0020414835854E-07  1.0025874746231E-07  1.0032144347866E-07  5.0190262355152E-08 
 7.2440786946725E+03  1.4488157389345E+04  1.4488157389345E+04  1.4488157389345E+04  1.4488157389345E+04  1.4488157389345E+04  1.4488157389345E+04  1.4488157389345E+04  1.4488157389345E+04  7.2440786946727E+03 
 4.9259735123383E+04  9.8519470246765E+04  9.8519470246766E+04  9.8519470246765E+04  9.8519470246766E+04  9.8519470246766E+04  9.8519470246765E+04  9.8519470246765E+04  9.8519470246765E+04  4.9259735123383E+04 
 5.6503813818055E+04  1.1300762763611E+05  1.1300762763611E+05  1.1300762763611E+05  1.1300762763611E+05  1.1300762763611E+05  1.1300762763611E+05  1.1300762763611E+05  1.1300762763611E+05  5.6503813818055E+04 
 3.5000000000000E-01  3.5000000000000E-01  3.5000000000000E-01  3.5000000000000E-01  3.5000000000000E-01  3.5000000000000E-01  3.5000000000000E-01  3.5000000000000E-01  3.5000000000000E-01  3.5000000000000E-01 
 6.6040000000000E+00  1.3208000000000E+01  1.3208000000000E+01  1.3208000000000E+01  1.3208000000000E+01  1.3208000000000E+01  1.3208000000000E+01  1.3208000000000E+01  1.3208000000000E+01  6.6040000000000E+00 
-2.5253615878348E-01 -2.5254592608922E-01 -2.5257684947255E-01 -2.5262909837820E-01 -2.5270270692882E-01 -2.5279769399592E-01 -2.5291409369558E-01 -2.5305188366524E-01 -2.5320930669483E-01 -2.5334361910763E-01 
 3.3866666666667E-05  6.7733333333333E-05  6.7733333333334E-05  6.7733333333333E-05  6.7733333333334E-05  6.7733333333334E-05  6.7733333333333E-05  6.7733333333334E-05  6.7733333333333E-05  3.3866666666667E-05 
 2.6603001364272E+01  2.6603001364272E+01  2.6603001364272E+01  2.6603001364272E+01  2.6603001364272E+01  2.6603001364272E+01  2.6603001364272E+01  2.6603001364272E+01  2.6603001364272E+01  2.6603001364272E+01 
 1.7735334242822E+01  1.7735334242822E+01  1.7735334242822E+01  1.7735334242822E+01  1.7735334242822E+01  1.7735334242822E+01  1.7735334242822E+01  1.7735334242822E+01  1.7735334242822E+01  1.7735334242822E+01 
 6.5155735879854E-04  6.5159135963185E-04  6.5169897250245E-04  6.5188084296153E-04  6.5213705847434E-04  6.5246770526717E-04  6.5287290010362E-04  6.5335271508041E-04  6.5390464440626E-04  6.5439432687776E-04 
 2.1721116931778E+04  2.1722255816995E+04  2.1725844116118E+04  2.1731907691557E+04  2.1740450151612E+04  2.1751474050128E+04  2.1764983529397E+04  2.1780978105520E+04  2.1799307198991E+04  2.1814348753673E+04 
 8.6779314377933E-02  7.7180840706817E-02  5.9181288268387E-02  4.3576409057841E-02  3.0366373570952E-02  1.9552161534237E-02  1.1135564447613E-02  5.1191877019804E-03  1.5064565107955E-03  3.0148197168028E-04 
 5.3075150565043E-02  2.6538806966655E-01  9.0239592749350E-01  1.9643085834196E+00  3.4514794431894E+00  5.3644058062916E+00  7.7037292068610E+00  1.0470235498868E+01  1.3664842305052E+01  1.5369292999266E+01 
 2.1720977077313E+04  2.1721913248085E+04  2.1724882538903E+04  2.1729899806565E+04  2.1736968305796E+04  2.1746090092160E+04  2.1757268664625E+04  2.1770502750834E+04  2.1785640850229E+04  2.1798979159192E+04 
 9.8696599431194E+03  9.8701372641986E+03  9.8716553167607E+03  9.8742205909059E+03  9.8778346970032E+03  9.8824988205917E+03  9.8882148543053E+03  9.8949827362119E+03  9.9027381358045E+03  9.9098948105463E+03 
 1.1851317134193E+04  1.1851775983886E+04  1.1853227222142E+04  1.1855679215659E+04  1.1859133608792E+04  1.1863591271568E+04  1.1869053810320E+04  1.1875520014622E+04  1.1882902714425E+04  1.1889084348645E+04 
ZONE T = "CATH, 4.0000E-08", I = 10, SOLUTIONTIME = 4.000000E-08
ZONETYPE = ORDERED
DATAPACKING = BLOCK
STRANDID = 3
 1.2700000000000E-03  1.3377333333333E-03  1.4054666666667E-03  1.4732000000000E-03  1.5409333333333E-03  1.6086666666667E-03  1.6764000000000E-03  1.7441333333333E-03  1.8118666666667E-03  1.8796000000000E-03 
 1.9712379514052E-08  1.7395493278098E-08  1.5078323324962E-08  1.2761400461949E-08  1.0443075922197E-08  8.1249696256401E-09  5.8043427223724E-09  3.4828155468633E-09  1.1605814082547E-09 -1.4528309111748E-12 
 9.2000000000127E-01  9.2000000000360E-01  9.2000000000360E-01  9.2000000000360E-01  9.2000000000360E-01  9.2000000000360E-01  9.2000000000360E-01  9.2000000000360E-01  9.2000000000360E-01  9.2000000000361E-01 
 3.9999999999365E-02  3.9999999998202E-02  3.9999999998202E-02  3.9999999998202E-02  3.9999999998201E-02  3.9999999998201E-02  3.9999999998200E-02  3.9999999998199E-02  3.9999999998198E-02  3.9999999998197E-02 
 3.9999999999365E-02  3.9999999998202E-02  3.9999999998202E-02  3.9999999998202E-02  3.9999999998201E-02  3.9999999998201E-02  3.9999999998200E-02  3.9999999998199E-02  3.9999999998198E-02  3.9999999998197E-02 
 2.9187195670668E-02  2.9186988575903E-02  2.9186805817441E-02  2.9186647398269E-02  2.9186513323420E-02  2.9186403599990E-02  2.9186318237133E-02  2.9186257246067E-02  2.9186220640074E-02  2.9186208434261E-02 
 3.8001747161569E+00  3.8001725603560E+00  3.8001660927855E+00  3.8001553129172E+00  3.8001402198591E+00  3.8001208123542E+00  3.8000970887806E+00  3.8000690471509E+00  3.8000366851134E+00  3.8000000000000E+00 