TITLE = "Solution on Domain BulkDomain1D_2"
VARIABLES = "x [m]"  
"Vel_axial" 	"MF_sp(ECDMC)" 	"MF_sp(Li+)" 	"MF_sp(PF6-)" 	"Volt(Electroly)" 	"Volt(CathodeVo)" 	"Temperature" 	
"Potential Drop Electrode-Electrolyte [V]" 	"Surf_0 Equilibrium Potential Drop Electrode-Electrolyte [V]" 	"Overpotential_0 [V]" 	"Current Source [A/m^2]" 	"Li+ flux [kmol/m^2/s]" 	"Electrolyte Current [A/m^2]" 	"Electrode Current [A/m^2]" 	
"Capacity discharged [A-s]" 	"Depth of discharge [-]" 	"Capacity remaining [A-s]" 	"Initial capacity [A-s]" 	"Porosity []" 	"Surface Area [m2/m2] (area per area)" 	"Specific current (per particle area) [A/m^2]" 	"Control volume thickness [m]" 	
"Moles LiCoO2 [mol/m^2] (per electrode area)" 	"Moles CoO2 [mol/m^2] (per electrode area)" 	"qHeat_accum [J/m3]" 	"qHeat_step [W/m3]" 	"Joule_Lyte [W/m3]" 	"Joule_Solid [W/m3]" 	"electrodHeat [W/m3]" 	"OverpotHeat [W/m3]" 	"deltaSHeat [W/m3]" 	

ZONE T = "t = 0 [s]" I = 10 SOLUTIONTIME = 0.0000000000000E+00
0.00127 	0 	0.92 	0.04 	0.04 	-0.07 	3.8 	298.15 	
0 	0 	0 	0 	0 	0.119132 	0 	
0 	0 	0 	0 	0.35 	6.604 	-0.0360787 	3.38667e-05 	
0.000900955 	0.000600637 	0 	0.0 	 0.0 	 0.0 	 0.0 	 0.0 	 0.0 	 
0.00133773 	0 	0.92 	0.04 	0.04 	-0.07 	3.8 	298.15 	
0 	0 	0 	0 	0 	0 	-0 	
0 	0 	0 	0 	0.35 	13.208 	-0.0360787 	6.77333e-05 	
0.00180191 	0.00120127 	0 	0.0 	 0.0 	 0.0 	 0.0 	 0.0 	 0.0 	 
0.00140547 	0 	0.92 	0.04 	0.04 	-0.07 	3.8 	298.15 	
0 	0 	0 	0 	0 	0 	-0 	
0 	0 	0 	0 	0.35 	13.208 	-0.0360787 	6.77333e-05 	
0.00180191 	0.00120127 	0 	0.0 	 0.0 	 0.0 	 0.0 	 0.0 	 0.0 	 
0.0014732 	0 	0.92 	0.04 	0.04 	-0.07 	3.8 	298.15 	
0 	0 	0 	0 	0 	0 	-0 	
0 	0 	0 	0 	0.35 	13.208 	-0.0360787 	6.77333e-05 	
0.00180191 	0.00120127 	0 	0.0 	 0.0 	 0.0 	 0.0 	 0.0 	 0.0 	 
0.00154093 	0 	0.92 	0.04 	0.04 	-0.07 	3.8 	298.15 	
0 	0 	0 	0 	0 	0 	-0 	
0 	0 	0 	0 	0.35 	13.208 	-0.0360787 	6.77333e-05 	
0.00180191 	0.00120127 	0 	0.0 	 0.0 	 0.0 	 0.0 	 0.0 	 0.0 	 
0.00160867 	0 	0.92 	0.04 	0.04 	-0.07 	3.8 	298.15 	
0 	0 	0 	0 	0 	0 	-0 	
0 	0 	0 	0 	0.35 	13.208 	-0.0360787 	6.77333e-05 	
0.00180191 	0.00120127 	0 	0.0 	 0.0 	 0.0 	 0.0 	 0.0 	 0.0 	 
0.0016764 	0 	0.92 	0.04 	0.04 	-0.07 	3.8 	298.15 	
0 	0 	0 	0 	0 	0 	-0 	
0 	0 	0 	0 	0.35 	13.208 	-0.0360787 	6.77333e-05 	
0.00180191 	0.00120127 	0 	0.0 	 0.0 	 0.0 	 0.0 	 0.0 	 0.0 	 
0.00174413 	0 	0.92 	0.04 	0.04 	-0.07 	3.8 	298.15 	
0 	0 	0 	0 	0 	0 	-0 	
0 	0 	0 	0 	0.35 	13.208 	-0.0360787 	6.77333e-05 	
0.00180191 	0.00120127 	0 	0.0 	 0.0 	 0.0 	 0.0 	 0.0 	 0.0 	 
0.00181187 	0 	0.92 	0.04 	0.04 	-0.07 	3.8 	298.15 	
0 	0 	0 	0 	0 	0 	-0 	
0 	0 	0 	0 	0.35 	13.208 	-0.0360787 	6.77333e-05 	
0.00180191 	0.00120127 	0 	0.0 	 0.0 	 0.0 	 0.0 	 0.0 	 0.0 	 
0.0018796 	0 	0.92 	0.04 	0.04 	-0.07 	3.8 	298.15 	
0 	0 	0 	0 	0 	0 	0.119132 	
0 	0 	0 	0 	0.35 	6.604 	-0.0360787 	3.38667e-05 	
0.000900955 	0.000600637 	0 	0.0 	 0.0 	 0.0 	 0.0 	 0.0 	 0.0 	 
ZONE T = "t = 1e-08 [s]" I = 10 SOLUTIONTIME = 1.0000000000000E-08
0.00127 	1.97079e-08 	0.92 	0.04 	0.04 	0.029171 	3.80017 	298.15 	
3.87 	3.97141 	-0.101414 	-0.238264 	-0 	29.2131 	0.833695 	
-0 	7244.08 	123.46 	141.616 	0.35 	6.604 	-0.252483 	3.38667e-05 	
0.000900955 	0.000600637 	0.000633498 	63349.8 	0.0867432 	0.0530523 	63349.7 	63349.7 	0 	
0.00133773 	1.73918e-08 	0.92 	0.04 	0.04 	0.0291708 	3.80017 	298.15 	
3.87 	3.97141 	-0.101414 	-0.476527 	-0 	26.7119 	3.33484 	
-0 	14488.2 	246.919 	283.231 	0.35 	13.208 	-0.252493 	6.77333e-05 	
0.00180191 	0.00120127 	5.02903 	5.02903e+08 	0.0771488 	0.265274 	5.02903e+08 	5.02903e+08 	0 	
0.00140547 	1.50753e-08 	0.92 	0.04 	0.04 	0.0291706 	3.80017 	298.15 	
3.87 	3.97141 	-0.101414 	-0.476527 	-0 	23.3768 	6.66995 	
-0 	14488.2 	246.919 	283.231 	0.35 	13.208 	-0.252524 	6.77333e-05 	
0.00180191 	0.00120127 	5.14625 	5.14625e+08 	0.0591568 	0.902006 	5.14625e+08 	5.14625e+08 	0 	
0.0014732 	1.27584e-08 	0.92 	0.04 	0.04 	0.0291705 	3.80016 	298.15 	
3.87 	3.97141 	-0.101414 	-0.476527 	-0 	20.0412 	10.0056 	
-0 	14488.2 	246.919 	283.231 	0.35 	13.208 	-0.252576 	6.77333e-05 	
0.00180191 	0.00120127 	5.0881 	5.0881e+08 	0.0435585 	1.96346 	5.0881e+08 	5.0881e+08 	0 	
0.00154093 	1.04416e-08 	0.92 	0.04 	0.04 	0.0291703 	3.80014 	298.15 	
3.87 	3.97141 	-0.101414 	-0.476527 	-0 	16.7047 	13.3421 	
-0 	14488.2 	246.919 	283.231 	0.35 	13.208 	-0.25265 	6.77333e-05 	
0.00180191 	0.00120127 	5.16433 	5.16433e+08 	0.0303541 	3.44999 	5.16433e+08 	5.16433e+08 	0 	
0.00160867 	8.12314e-09 	0.92 	0.04 	0.04 	0.0291702 	3.80012 	298.15 	
3.87 	3.97141 	-0.101414 	-0.476527 	-0 	13.3671 	16.6797 	
-0 	14488.2 	246.919 	283.231 	0.35 	13.208 	-0.252745 	6.77333e-05 	
0.00180191 	0.00120127 	5.18494 	5.18494e+08 	0.0195444 	5.36209 	5.18494e+08 	5.18494e+08 	0 	
0.0016764 	5.80362e-09 	0.92 	0.04 	0.04 	0.0291701 	3.8001 	298.15 	
3.87 	3.97141 	-0.101414 	-0.476527 	-0 	10.0281 	20.0187 	
-0 	14488.2 	246.919 	283.231 	0.35 	13.208 	-0.252861 	6.77333e-05 	
0.00180191 	0.00120127 	5.14785 	5.14785e+08 	0.0111312 	7.7004 	5.14785e+08 	5.14785e+08 	0 	
0.00174413 	3.48284e-09 	0.92 	0.04 	0.04 	0.0291701 	3.80007 	298.15 	
3.87 	3.97141 	-0.101414 	-0.476527 	-0 	6.68741 	23.3594 	
-0 	14488.2 	246.919 	283.231 	0.35 	13.208 	-0.252999 	6.77333e-05 	
0.00180191 	0.00120127 	4.75033 	4.75033e+08 	0.0051173 	10.4657 	4.75033e+08 	4.75033e+08 	0 	
0.00181187 	1.1606e-09 	0.92 	0.04 	0.04 	0.02917 	3.80004 	298.15 	
3.87 	3.97141 	-0.101414 	-0.476527 	-0 	3.34477 	26.702 	
-0 	14488.2 	246.919 	283.231 	0.35 	13.208 	-0.253158 	6.77333e-05 	
0.00180191 	0.00120127 	-16.5787 	-1.65787e+09 	0.00150597 	13.6589 	-1.65787e+09 	-1.65787e+09 	0 	
0.0018796 	-1.45283e-12 	0.92 	0.04 	0.04 	0.02917 	3.8 	298.149 	
3.87 	3.97141 	-0.101414 	-0.238264 	-0 	0.836464 	29.2103 	
-0 	7244.08 	123.46 	141.616 	0.35 	6.604 	-0.253322 	3.38667e-05 	
0.000900955 	0.000600637 	-1040.2 	-1.0402e+11 	0.000301427 	15.3627 	-1.0402e+11 	-1.0402e+11 	0 	
ZONE T = "t = 2e-08 [s]" I = 10 SOLUTIONTIME = 2.0000000000000E-08
0.00127 	1.9708e-08 	0.92 	0.04 	0.04 	0.0291764 	3.80017 	298.15 	
3.771 	3.97141 	-0.200411 	-1.6674 	1.47066e-07 	29.2162 	0.833787 	
4.179e-11 	7244.08 	123.46 	141.616 	0.35 	6.604 	-0.25251 	3.38667e-05 	
0.000900955 	0.000600637 	0.00130823 	67473.5 	0.0867618 	0.053064 	67473.4 	67473.4 	0 	
0.00133773 	1.73916e-08 	0.92 	0.04 	0.04 	0.0291762 	3.80017 	298.15 	
3.771 	3.97141 	-0.200413 	-3.33493 	1.29784e-07 	26.7148 	3.33521 	
8.35833e-11 	14488.2 	246.919 	283.231 	0.35 	13.208 	-0.252519 	6.77333e-05 	
0.00180191 	0.00120127 	10.1346 	5.1056e+08 	0.0771653 	0.265332 	5.1056e+08 	5.1056e+08 	0 	
0.00140547 	1.5076e-08 	0.92 	0.04 	0.04 	0.029176 	3.80017 	298.15 	
3.771 	3.97141 	-0.200419 	-3.33533 	1.125e-07 	23.3793 	6.67069 	
8.35935e-11 	14488.2 	246.919 	283.231 	0.35 	13.208 	-0.25255 	6.77333e-05 	
0.00180191 	0.00120127 	10.5448 	5.39851e+08 	0.0591694 	0.902206 	5.39851e+08 	5.39851e+08 	0 	
0.0014732 	1.27596e-08 	0.92 	0.04 	0.04 	0.0291758 	3.80016 	298.15 	
3.77098 	3.97141 	-0.200429 	-3.33602 	9.52122e-08 	20.0433 	10.0067 	
8.36108e-11 	14488.2 	246.919 	283.231 	0.35 	13.208 	-0.252603 	6.77333e-05 	
0.00180191 	0.00120127 	10.398 	5.30988e+08 	0.0435677 	1.9639 	5.30988e+08 	5.30988e+08 	0 	
0.00154093 	1.04432e-08 	0.92 	0.04 	0.04 	0.0291757 	3.80014 	298.15 	
3.77097 	3.97141 	-0.200444 	-3.337 	7.79196e-08 	16.7064 	13.3436 	
8.36351e-11 	14488.2 	246.919 	283.231 	0.35 	13.208 	-0.252676 	6.77333e-05 	
0.00180191 	0.00120127 	10.5693 	5.40499e+08 	0.0303604 	3.45075 	5.40499e+08 	5.40499e+08 	0 	
0.00160867 	8.12487e-09 	0.92 	0.04 	0.04 	0.0291756 	3.80012 	298.15 	
3.77095 	3.97141 	-0.200464 	-3.33825 	6.06204e-08 	13.3685 	16.6816 	
8.36666e-11 	14488.2 	246.919 	283.231 	0.35 	13.208 	-0.252771 	6.77333e-05 	
0.00180191 	0.00120127 	10.519 	5.33403e+08 	0.0195484 	5.36328 	5.33403e+08 	5.33403e+08 	0 	
0.0016764 	5.80546e-09 	0.92 	0.04 	0.04 	0.0291755 	3.8001 	298.15 	
3.77093 	3.97141 	-0.200487 	-3.33979 	4.33133e-08 	10.0291 	20.0209 	
8.37051e-11 	14488.2 	246.919 	283.231 	0.35 	13.208 	-0.252887 	6.77333e-05 	
0.00180191 	0.00120127 	10.3684 	5.22054e+08 	0.0111335 	7.70211 	5.22054e+08 	5.22054e+08 	0 	
0.00174413 	3.48478e-09 	0.92 	0.04 	0.04 	0.0291755 	3.80007 	298.15 	
3.7709 	3.97141 	-0.200515 	-3.34161 	2.59968e-08 	6.68804 	23.362 	
8.37507e-11 	14488.2 	246.919 	283.231 	0.35 	13.208 	-0.253025 	6.77333e-05 	
0.00180191 	0.00120127 	8.84645 	4.09612e+08 	0.00511828 	10.468 	4.09612e+08 	4.09612e+08 	0 	
0.00181187 	1.16229e-09 	0.92 	0.04 	0.04 	0.0291754 	3.80004 	298.15 	
3.77087 	3.97141 	-0.200548 	-3.34371 	8.66933e-09 	3.34503 	26.705 	
8.38033e-11 	14488.2 	246.919 	283.231 	0.35 	13.208 	-0.253184 	6.77333e-05 	
0.00180191 	0.00120127 	-52.7963 	-3.62176e+09 	0.00150622 	13.662 	-3.62176e+09 	-3.62176e+09 	0 	
0.0018796 	3.63208e-13 	0.92 	0.04 	0.04 	0.0291754 	3.8 	298.148 	
3.77083 	3.97141 	-0.200585 	-1.67294 	8.66933e-09 	0.836504 	29.2135 	
4.19288e-11 	7244.08 	123.46 	141.616 	0.35 	6.604 	-0.253332 	3.38667e-05 	
0.000900955 	0.000600637 	-2032.82 	-9.92627e+10 	0.000301456 	15.3661 	-9.92627e+10 	-9.92627e+10 	0 	
ZONE T = "t = 3e-08 [s]" I = 10 SOLUTIONTIME = 3.0000000000000E-08
0.00127 	1.97142e-08 	0.92 	0.04 	0.04 	0.0291818 	3.80017 	298.15 	
3.771 	3.97141 	-0.200416 	-1.66757 	1.47082e-07 	29.2192 	0.833874 	
8.35844e-11 	7244.08 	123.46 	141.616 	0.35 	6.604 	-0.252536 	3.38667e-05 	
0.000900955 	0.000600637 	0.00200545 	69722 	0.0867793 	0.0530751 	69721.9 	69721.9 	0 	
0.00133773 	1.73983e-08 	0.92 	0.04 	0.04 	0.0291816 	3.80017 	298.15 	
3.771 	3.97141 	-0.200418 	-3.33528 	1.29798e-07 	26.7175 	3.33556 	
1.67175e-10 	14488.2 	246.919 	283.231 	0.35 	13.208 	-0.252546 	6.77333e-05 	
0.00180191 	0.00120127 	15.1854 	5.05083e+08 	0.0771808 	0.265388 	5.05083e+08 	5.05083e+08 	0 	
0.00140547 	1.50821e-08 	0.92 	0.04 	0.04 	0.0291814 	3.80017 	298.15 	
3.77099 	3.97141 	-0.200424 	-3.33568 	1.12512e-07 	23.3817 	6.67139 	
1.67196e-10 	14488.2 	246.919 	283.231 	0.35 	13.208 	-0.252577 	6.77333e-05 	
0.00180191 	0.00120127 	15.9109 	5.3661e+08 	0.0591813 	0.902396 	5.3661e+08 	5.3661e+08 	0 	
0.0014732 	1.27647e-08 	0.92 	0.04 	0.04 	0.0291812 	3.80016 	298.15 	
3.77098 	3.97141 	-0.200435 	-3.33637 	9.52222e-08 	20.0453 	10.0078 	
1.6723e-10 	14488.2 	246.919 	283.231 	0.35 	13.208 	-0.252629 	6.77333e-05 	
0.00180191 	0.00120127 	15.7827 	5.3847e+08 	0.0435764 	1.96431 	5.3847e+08 	5.3847e+08 	0 	
0.00154093 	1.04473e-08 	0.92 	0.04 	0.04 	0.0291811 	3.80014 	298.15 	
3.77096 	3.97141 	-0.20045 	-3.33735 	7.79277e-08 	16.7081 	13.345 	
1.67279e-10 	14488.2 	246.919 	283.231 	0.35 	13.208 	-0.252703 	6.77333e-05 	
0.00180191 	0.00120127 	15.976 	5.40671e+08 	0.0303664 	3.45148 	5.40671e+08 	5.40671e+08 	0 	
0.00160867 	8.12801e-09 	0.92 	0.04 	0.04 	0.029181 	3.80012 	298.15 	
3.77095 	3.97141 	-0.200469 	-3.3386 	6.06266e-08 	13.3697 	16.6833 	
1.67342e-10 	14488.2 	246.919 	283.231 	0.35 	13.208 	-0.252798 	6.77333e-05 	
0.00180191 	0.00120127 	15.8771 	5.35817e+08 	0.0195522 	5.36441 	5.35817e+08 	5.35817e+08 	0 	
0.0016764 	5.80835e-09 	0.92 	0.04 	0.04 	0.0291809 	3.8001 	298.15 	
3.77092 	3.97141 	-0.200493 	-3.34014 	4.33175e-08 	10.03 	20.023 	
1.67419e-10 	14488.2 	246.919 	283.231 	0.35 	13.208 	-0.252914 	6.77333e-05 	
0.00180191 	0.00120127 	15.6437 	5.27526e+08 	0.0111356 	7.70373 	5.27526e+08 	5.27526e+08 	0 	
0.00174413 	3.48743e-09 	0.92 	0.04 	0.04 	0.0291809 	3.80007 	298.15 	
3.77089 	3.97141 	-0.200521 	-3.34196 	2.59991e-08 	6.68862 	23.3644 	
1.6751e-10 	14488.2 	246.919 	283.231 	0.35 	13.208 	-0.253052 	6.77333e-05 	
0.00180191 	0.00120127 	11.7734 	2.92691e+08 	0.00511919 	10.4702 	2.92691e+08 	2.92691e+08 	0 	
0.00181187 	1.16543e-09 	0.92 	0.04 	0.04 	0.0291808 	3.80004 	298.15 	
3.77086 	3.97141 	-0.200553 	-3.34405 	8.66975e-09 	3.34528 	26.7078 	
1.67615e-10 	14488.2 	246.919 	283.231 	0.35 	13.208 	-0.253209 	6.77333e-05 	
0.00180191 	0.00120127 	-107.247 	-5.44509e+09 	0.00150646 	13.6648 	-5.44509e+09 	-5.44509e+09 	0 	
0.0018796 	3.81368e-12 	0.92 	0.04 	0.04 	0.0291808 	3.8 	298.148 	
3.77082 	3.97142 	-0.200591 	-1.67301 	8.66975e-09 	0.836541 	29.2165 	
8.38594e-11 	7244.08 	123.46 	141.616 	0.35 	6.604 	-0.253344 	3.38667e-05 	
0.000900955 	0.000600637 	-2980.92 	-9.48099e+10 	0.000301482 	15.3693 	-9.48099e+10 	-9.48099e+10 	0 	
ZONE T = "t = 4e-08 [s]" I = 10 SOLUTIONTIME = 4.0000000000000E-08
0.00127 	1.97115e-08 	0.92 	0.04 	0.04 	0.0291872 	3.80017 	298.15 	
3.77099 	3.97141 	-0.200421 	-1.66775 	1.47097e-07 	29.2221 	0.833962 	
1.25383e-10 	7244.08 	123.46 	141.616 	0.35 	6.604 	-0.252563 	3.38667e-05 	
0.000900955 	0.000600637 	0.00273935 	73389.4 	0.0867969 	0.0530863 	73389.3 	73389.3 	0 	
0.00133773 	1.73946e-08 	0.92 	0.04 	0.04 	0.029187 	3.80017 	298.15 	
3.77099 	3.97141 	-0.200423 	-3.33563 	1.29811e-07 	26.7202 	3.33591 	
2.50776e-10 	14488.2 	246.919 	283.231 	0.35 	13.208 	-0.252573 	6.77333e-05 	
0.00180191 	0.00120127 	20.1389 	4.95344e+08 	0.0771965 	0.265444 	4.95343e+08 	4.95343e+08 	0 	
0.00140547 	1.50774e-08 	0.92 	0.04 	0.04 	0.0291868 	3.80017 	298.15 	
3.77098 	3.97141 	-0.20043 	-3.33604 	1.12523e-07 	23.384 	6.67209 	
2.50807e-10 	14488.2 	246.919 	283.231 	0.35 	13.208 	-0.252603 	6.77333e-05 	
0.00180191 	0.00120127 	21.1772 	5.26638e+08 	0.0591932 	0.902586 	5.26638e+08 	5.26638e+08 	0 	
0.0014732 	1.27605e-08 	0.92 	0.04 	0.04 	0.0291866 	3.80016 	298.15 	
3.77097 	3.97141 	-0.20044 	-3.33673 	9.52317e-08 	20.0473 	10.0088 	
2.50859e-10 	14488.2 	246.919 	283.231 	0.35 	13.208 	-0.252656 	6.77333e-05 	
0.00180191 	0.00120127 	21.1194 	5.33673e+08 	0.0435851 	1.96472 	5.33673e+08 	5.33673e+08 	0 	
0.00154093 	1.04429e-08 	0.92 	0.04 	0.04 	0.0291865 	3.80014 	298.15 	
3.77096 	3.97141 	-0.200455 	-3.3377 	7.79353e-08 	16.7097 	13.3464 	
2.50932e-10 	14488.2 	246.919 	283.231 	0.35 	13.208 	-0.252729 	6.77333e-05 	
0.00180191 	0.00120127 	21.4088 	5.4328e+08 	0.0303724 	3.45221 	5.4328e+08 	5.4328e+08 	0 	
0.00160867 	8.12479e-09 	0.92 	0.04 	0.04 	0.0291864 	3.80012 	298.15 	
3.77094 	3.97141 	-0.200474 	-3.33895 	6.06324e-08 	13.371 	16.6851 	
2.51026e-10 	14488.2 	246.919 	283.231 	0.35 	13.208 	-0.252824 	6.77333e-05 	
0.00180191 	0.00120127 	21.269 	5.39182e+08 	0.019556 	5.36553 	5.39182e+08 	5.39182e+08 	0 	
0.0016764 	5.80416e-09 	0.92 	0.04 	0.04 	0.0291863 	3.8001 	298.15 	
3.77092 	3.97141 	-0.200498 	-3.34049 	4.33215e-08 	10.031 	20.0251 	
2.51142e-10 	14488.2 	246.919 	283.231 	0.35 	13.208 	-0.252941 	6.77333e-05 	
0.00180191 	0.00120127 	20.8251 	5.18142e+08 	0.0111377 	7.70535 	5.18142e+08 	5.18142e+08 	0 	
0.00174413 	3.48263e-09 	0.92 	0.04 	0.04 	0.0291863 	3.80007 	298.15 	
3.77089 	3.97141 	-0.200526 	-3.34231 	2.60012e-08 	6.68922 	23.3669 	
2.51278e-10 	14488.2 	246.919 	283.231 	0.35 	13.208 	-0.253079 	6.77333e-05 	
0.00180191 	0.00120127 	13.1513 	1.3779e+08 	0.0051201 	10.4724 	1.3779e+08 	1.3779e+08 	0 	
0.00181187 	1.1604e-09 	0.92 	0.04 	0.04 	0.0291862 	3.80004 	298.15 	
3.77086 	3.97141 	-0.200558 	-3.34439 	8.67013e-09 	3.34552 	26.7106 	
2.51436e-10 	14488.2 	246.919 	283.231 	0.35 	13.208 	-0.253235 	6.77333e-05 	
0.00180191 	0.00120127 	-178.317 	-7.107e+09 	0.0015067 	13.6677 	-7.107e+09 	-7.107e+09 	0 	
0.0018796 	-1.63443e-12 	0.92 	0.04 	0.04 	0.0291862 	3.8 	298.147 	
3.77082 	3.97142 	-0.200597 	-1.67308 	8.67013e-09 	0.83658 	29.2195 	
1.25792e-10 	7244.08 	123.46 	141.616 	0.35 	6.604 	-0.253356 	3.38667e-05 	
0.000900955 	0.000600637 	-3887.52 	-9.06596e+10 	0.00030151 	15.3725 	-9.06596e+10 	-9.06596e+10 	0 	
ZONE T = "t = 5.5e-08 [s]" I = 10 SOLUTIONTIME = 5.5000000000000E-08
0.00127 	1.9716e-08 	0.92 	0.04 	0.04 	0.0291953 	3.80017 	298.15 	
3.77099 	3.97141 	-0.200427 	-1.66792 	1.47112e-07 	29.2266 	0.834093 	
1.67186e-10 	7244.08 	123.46 	141.616 	0.35 	6.604 	-0.252602 	3.38667e-05 	
0.000900955 	0.000600637 	0.00388783 	76565.4 	0.0868233 	0.053103 	76565.2 	76565.2 	0 	
0.00133773 	1.73992e-08 	0.92 	0.04 	0.04 	0.0291951 	3.80017 	298.15 	
3.77099 	3.97141 	-0.200429 	-3.33598 	1.29824e-07 	26.7242 	3.33644 	
3.34386e-10 	14488.2 	246.919 	283.231 	0.35 	13.208 	-0.252612 	6.77333e-05 	
0.00180191 	0.00120127 	27.2853 	4.76425e+08 	0.0772199 	0.265528 	4.76425e+08 	4.76425e+08 	0 	
0.00140547 	1.50815e-08 	0.92 	0.04 	0.04 	0.0291949 	3.80017 	298.15 	
3.77098 	3.97141 	-0.200435 	-3.33639 	1.12534e-07 	23.3875 	6.67315 	
3.34427e-10 	14488.2 	246.919 	283.231 	0.35 	13.208 	-0.252643 	6.77333e-05 	
0.00180191 	0.00120127 	29.2601 	5.38858e+08 	0.0592111 	0.902871 	5.38858e+08 	5.38858e+08 	0 	
0.0014732 	1.27636e-08 	0.92 	0.04 	0.04 	0.0291948 	3.80016 	298.15 	
3.77097 	3.97141 	-0.200446 	-3.33708 	9.52411e-08 	20.0503 	10.0104 	
3.34496e-10 	14488.2 	246.919 	283.231 	0.35 	13.208 	-0.252696 	6.77333e-05 	
0.00180191 	0.00120127 	29.2336 	5.40947e+08 	0.0435982 	1.96534 	5.40947e+08 	5.40947e+08 	0 	
0.00154093 	1.0445e-08 	0.92 	0.04 	0.04 	0.0291946 	3.80014 	298.15 	
3.77095 	3.97141 	-0.200461 	-3.33805 	7.79429e-08 	16.7122 	13.3485 	
3.34593e-10 	14488.2 	246.919 	283.231 	0.35 	13.208 	-0.252769 	6.77333e-05 	
0.00180191 	0.00120127 	29.4223 	5.34233e+08 	0.0303814 	3.4533 	5.34233e+08 	5.34233e+08 	0 	
0.00160867 	8.12559e-09 	0.92 	0.04 	0.04 	0.0291945 	3.80012 	298.15 	
3.77093 	3.97141 	-0.20048 	-3.3393 	6.06382e-08 	13.373 	16.6877 	
3.34719e-10 	14488.2 	246.919 	283.231 	0.35 	13.208 	-0.252864 	6.77333e-05 	
0.00180191 	0.00120127 	29.2706 	5.33443e+08 	0.0195617 	5.36723 	5.33443e+08 	5.33443e+08 	0 	
0.0016764 	5.80557e-09 	0.92 	0.04 	0.04 	0.0291944 	3.8001 	298.15 	
3.77091 	3.97141 	-0.200503 	-3.34084 	4.33255e-08 	10.0324 	20.0283 	
3.34873e-10 	14488.2 	246.919 	283.231 	0.35 	13.208 	-0.252981 	6.77333e-05 	
0.00180191 	0.00120127 	28.3956 	5.047e+08 	0.0111408 	7.70779 	5.047e+08 	5.047e+08 	0 	
0.00174413 	3.48452e-09 	0.92 	0.04 	0.04 	0.0291944 	3.80007 	298.15 	
3.77088 	3.97141 	-0.200531 	-3.34266 	2.60034e-08 	6.69011 	23.3706 	
3.35056e-10 	14488.2 	246.919 	283.231 	0.35 	13.208 	-0.253118 	6.77333e-05 	
0.00180191 	0.00120127 	11.1565 	-1.32983e+08 	0.00512148 	10.4758 	-1.32983e+08 	-1.32983e+08 	0 	
0.00181187 	1.16134e-09 	0.92 	0.04 	0.04 	0.0291943 	3.80004 	298.15 	
3.77085 	3.97141 	-0.200564 	-3.34473 	8.67054e-09 	3.3459 	26.7148 	
3.35264e-10 	14488.2 	246.919 	283.231 	0.35 	13.208 	-0.253273 	6.77333e-05 	
0.00180191 	0.00120127 	-317.455 	-9.27585e+09 	0.00150706 	13.672 	-9.27585e+09 	-9.27585e+09 	0 	
0.0018796 	-4.84277e-13 	0.92 	0.04 	0.04 	0.0291943 	3.8 	298.146 	
3.77081 	3.97142 	-0.200603 	-1.67316 	8.67054e-09 	0.836644 	29.224 	
1.67726e-10 	7244.08 	123.46 	141.616 	0.35 	6.604 	-0.253375 	3.38667e-05 	
0.000900955 	0.000600637 	-5161.97 	-8.49636e+10 	0.000301556 	15.3773 	-8.49636e+10 	-8.49636e+10 	0 	
ZONE T = "t = 7.75e-08 [s]" I = 10 SOLUTIONTIME = 7.7500000000000E-08
0.00127 	1.97201e-08 	0.92 	0.04 	0.04 	0.0292075 	3.80017 	298.15 	
3.77098 	3.97141 	-0.200435 	-1.66819 	1.47134e-07 	29.2333 	0.83429 	
2.29901e-10 	7244.08 	123.46 	141.616 	0.35 	6.604 	-0.252662 	3.38667e-05 	
0.000900955 	0.000600637 	0.00569293 	80226.6 	0.086863 	0.0531281 	80226.4 	80226.4 	0 	
0.00133773 	1.74027e-08 	0.92 	0.04 	0.04 	0.0292073 	3.80017 	298.15 	
3.77098 	3.97141 	-0.200437 	-3.3365 	1.29844e-07 	26.7303 	3.33723 	
4.5982e-10 	14488.2 	246.919 	283.231 	0.35 	13.208 	-0.252672 	6.77333e-05 	
0.00180191 	0.00120127 	37.6777 	4.61887e+08 	0.0772551 	0.265653 	4.61887e+08 	4.61887e+08 	0 	
0.00140547 	1.50853e-08 	0.92 	0.04 	0.04 	0.0292071 	3.80017 	298.15 	
3.77097 	3.97141 	-0.200443 	-3.33691 	1.12551e-07 	23.3928 	6.67473 	
4.59876e-10 	14488.2 	246.919 	283.231 	0.35 	13.208 	-0.252703 	6.77333e-05 	
0.00180191 	0.00120127 	41.226 	5.31817e+08 	0.0592379 	0.903299 	5.31817e+08 	5.31817e+08 	0 	
0.0014732 	1.27672e-08 	0.92 	0.04 	0.04 	0.0292069 	3.80016 	298.15 	
3.77096 	3.97141 	-0.200454 	-3.3376 	9.52553e-08 	20.0548 	10.0128 	
4.59971e-10 	14488.2 	246.919 	283.231 	0.35 	13.208 	-0.252756 	6.77333e-05 	
0.00180191 	0.00120127 	41.2641 	5.34689e+08 	0.0436178 	1.96627 	5.34689e+08 	5.34689e+08 	0 	
0.00154093 	1.04485e-08 	0.92 	0.04 	0.04 	0.0292068 	3.80014 	298.15 	
3.77095 	3.97141 	-0.200469 	-3.33858 	7.79543e-08 	16.7159 	13.3517 	
4.60105e-10 	14488.2 	246.919 	283.231 	0.35 	13.208 	-0.252829 	6.77333e-05 	
0.00180191 	0.00120127 	41.4906 	5.36368e+08 	0.0303949 	3.45493 	5.36368e+08 	5.36368e+08 	0 	
0.00160867 	8.12892e-09 	0.92 	0.04 	0.04 	0.0292067 	3.80012 	298.15 	
3.77093 	3.97141 	-0.200488 	-3.33983 	6.06469e-08 	13.3759 	16.6917 	
4.60278e-10 	14488.2 	246.919 	283.231 	0.35 	13.208 	-0.252924 	6.77333e-05 	
0.00180191 	0.00120127 	41.2207 	5.31115e+08 	0.0195702 	5.36978 	5.31115e+08 	5.31115e+08 	0 	
0.0016764 	5.80827e-09 	0.92 	0.04 	0.04 	0.0292066 	3.8001 	298.15 	
3.7709 	3.97141 	-0.200512 	-3.34137 	4.33315e-08 	10.0345 	20.0331 	
4.6049e-10 	14488.2 	246.919 	283.231 	0.35 	13.208 	-0.253041 	6.77333e-05 	
0.00180191 	0.00120127 	38.511 	4.49575e+08 	0.0111456 	7.71144 	4.49575e+08 	4.49575e+08 	0 	
0.00174413 	3.48603e-09 	0.92 	0.04 	0.04 	0.0292066 	3.80007 	298.15 	
3.77087 	3.97141 	-0.20054 	-3.34319 	2.60066e-08 	6.69145 	23.3761 	
4.60741e-10 	14488.2 	246.919 	283.231 	0.35 	13.208 	-0.253178 	6.77333e-05 	
0.00180191 	0.00120127 	-3.19803 	-6.37979e+08 	0.00512355 	10.4807 	-6.37979e+08 	-6.37979e+08 	0 	
0.00181187 	1.16257e-09 	0.92 	0.04 	0.04 	0.0292065 	3.80004 	298.15 	
3.77084 	3.97141 	-0.200572 	-3.34522 	8.67121e-09 	3.34648 	26.7211 	
4.61026e-10 	14488.2 	246.919 	283.231 	0.35 	13.208 	-0.253328 	6.77333e-05 	
0.00180191 	0.00120127 	-585.816 	-1.19272e+10 	0.0015076 	13.6785 	-1.19272e+10 	-1.19272e+10 	0 	
0.0018796 	4.84277e-13 	0.92 	0.04 	0.04 	0.0292065 	3.8 	298.144 	
3.77081 	3.97142 	-0.200612 	-1.67329 	8.67121e-09 	0.836749 	29.2308 	
2.30633e-10 	7244.08 	123.46 	141.616 	0.35 	6.604 	-0.253407 	3.38667e-05 	
0.000900955 	0.000600637 	-6906.31 	-7.75259e+10 	0.000301631 	15.3846 	-7.75259e+10 	-7.75259e+10 	0 	
ZONE T = "t = 1.1125e-07 [s]" I = 10 SOLUTIONTIME = 1.1125000000000E-07
0.00127 	1.97275e-08 	0.92 	0.04 	0.04 	0.0292257 	3.80017 	298.15 	
3.77097 	3.97141 	-0.200447 	-1.66858 	1.47168e-07 	29.2433 	0.834586 	
3.23995e-10 	7244.08 	123.46 	141.616 	0.35 	6.604 	-0.252752 	3.38667e-05 	
0.000900955 	0.000600637 	0.00865046 	87630.7 	0.0869225 	0.0531658 	87630.5 	87630.5 	0 	
0.00133773 	1.74092e-08 	0.92 	0.04 	0.04 	0.0292255 	3.80017 	298.15 	
3.77097 	3.97141 	-0.200449 	-3.3373 	1.29873e-07 	26.7395 	3.33841 	
6.48016e-10 	14488.2 	246.919 	283.231 	0.35 	13.208 	-0.252762 	6.77333e-05 	
0.00180191 	0.00120127 	52.4904 	4.38895e+08 	0.077308 	0.265842 	4.38895e+08 	4.38895e+08 	0 	
0.00140547 	1.50906e-08 	0.92 	0.04 	0.04 	0.0292253 	3.80017 	298.15 	
3.77096 	3.97141 	-0.200455 	-3.33771 	1.12577e-07 	23.4008 	6.6771 	
6.48095e-10 	14488.2 	246.919 	283.231 	0.35 	13.208 	-0.252793 	6.77333e-05 	
0.00180191 	0.00120127 	58.9853 	5.26201e+08 	0.0592782 	0.90394 	5.26201e+08 	5.26201e+08 	0 	
0.0014732 	1.27716e-08 	0.92 	0.04 	0.04 	0.0292252 	3.80016 	298.15 	
3.77095 	3.97141 	-0.200466 	-3.3384 	9.52766e-08 	20.0616 	10.0163 	
6.48229e-10 	14488.2 	246.919 	283.231 	0.35 	13.208 	-0.252845 	6.77333e-05 	
0.00180191 	0.00120127 	59.3727 	5.36552e+08 	0.0436472 	1.96767 	5.36552e+08 	5.36552e+08 	0 	
0.00154093 	1.04519e-08 	0.92 	0.04 	0.04 	0.0292251 	3.80014 	298.15 	
3.77093 	3.97141 	-0.200481 	-3.33937 	7.79716e-08 	16.7215 	13.3564 	
6.48418e-10 	14488.2 	246.919 	283.231 	0.35 	13.208 	-0.252919 	6.77333e-05 	
0.00180191 	0.00120127 	59.5142 	5.34034e+08 	0.0304152 	3.45739 	5.34034e+08 	5.34034e+08 	0 	
0.00160867 	8.13123e-09 	0.92 	0.04 	0.04 	0.0292249 	3.80012 	298.15 	
3.77091 	3.97141 	-0.2005 	-3.34063 	6.066e-08 	13.3803 	16.6976 	
6.48662e-10 	14488.2 	246.919 	283.231 	0.35 	13.208 	-0.253014 	6.77333e-05 	
0.00180191 	0.00120127 	58.8162 	5.21349e+08 	0.0195831 	5.37359 	5.21349e+08 	5.21349e+08 	0 	
0.0016764 	5.80948e-09 	0.92 	0.04 	0.04 	0.0292249 	3.8001 	298.15 	
3.77089 	3.97141 	-0.200524 	-3.34216 	4.33404e-08 	10.0377 	20.0402 	
6.48961e-10 	14488.2 	246.919 	283.231 	0.35 	13.208 	-0.253131 	6.77333e-05 	
0.00180191 	0.00120127 	49.8952 	3.3731e+08 	0.0111527 	7.71693 	3.3731e+08 	3.3731e+08 	0 	
0.00174413 	3.48659e-09 	0.92 	0.04 	0.04 	0.0292248 	3.80007 	298.15 	
3.77086 	3.97141 	-0.200552 	-3.34398 	2.60115e-08 	6.69346 	23.3844 	
6.49314e-10 	14488.2 	246.919 	283.231 	0.35 	13.208 	-0.253267 	6.77333e-05 	
0.00180191 	0.00120127 	-53.3397 	-1.48568e+09 	0.00512667 	10.4882 	-1.48568e+09 	-1.48568e+09 	0 	
0.00181187 	1.16238e-09 	0.92 	0.04 	0.04 	0.0292248 	3.80004 	298.149 	
3.77083 	3.97141 	-0.200584 	-3.34596 	8.6723e-09 	3.34737 	26.7305 	
6.49711e-10 	14488.2 	246.919 	283.231 	0.35 	13.208 	-0.25341 	6.77333e-05 	
0.00180191 	0.00120127 	-1087.64 	-1.4869e+10 	0.00150844 	13.6881 	-1.4869e+10 	-1.4869e+10 	0 	
0.0018796 	5.69756e-23 	0.92 	0.04 	0.04 	0.0292248 	3.8 	298.143 	
3.77079 	3.97142 	-0.200625 	-1.6735 	8.6723e-09 	0.836923 	29.241 	
3.25004e-10 	7244.08 	123.46 	141.616 	0.35 	6.604 	-0.253459 	3.38667e-05 	
0.000900955 	0.000600637 	-9212.19 	-6.83224e+10 	0.000301755 	15.3954 	-6.83224e+10 	-6.83224e+10 	0 	
ZONE T = "t = 1.61875e-07 [s]" I = 10 SOLUTIONTIME = 1.6187500000000E-07
0.00127 	1.97374e-08 	0.92 	0.04 	0.04 	0.029253 	3.80017 	298.15 	
3.77095 	3.97141 	-0.200465 	-1.66917 	1.47219e-07 	29.2583 	0.835028 	
4.65186e-10 	7244.08 	123.46 	141.616 	0.35 	6.604 	-0.252885 	3.38667e-05 	
0.000900955 	0.000600637 	0.0135305 	96395.9 	0.0870116 	0.053222 	96395.8 	96395.8 	0 	
0.00133773 	1.74179e-08 	0.92 	0.04 	0.04 	0.0292528 	3.80017 	298.15 	
3.77095 	3.97141 	-0.200467 	-3.33848 	1.29917e-07 	26.7531 	3.34018 	
9.3041e-10 	14488.2 	246.919 	283.231 	0.35 	13.208 	-0.252896 	6.77333e-05 	
0.00180191 	0.00120127 	73.0491 	4.06098e+08 	0.077387 	0.266124 	4.06098e+08 	4.06098e+08 	0 	
0.00140547 	1.50981e-08 	0.92 	0.04 	0.04 	0.0292526 	3.80017 	298.15 	
3.77094 	3.97141 	-0.200473 	-3.33889 	1.12615e-07 	23.4127 	6.68064 	
9.30524e-10 	14488.2 	246.919 	283.231 	0.35 	13.208 	-0.252927 	6.77333e-05 	
0.00180191 	0.00120127 	85.0678 	5.15209e+08 	0.0593385 	0.904899 	5.15209e+08 	5.15209e+08 	0 	
0.0014732 	1.27779e-08 	0.92 	0.04 	0.04 	0.0292524 	3.80016 	298.15 	
3.77093 	3.97141 	-0.200484 	-3.33958 	9.53086e-08 	20.0717 	10.0217 	
9.30717e-10 	14488.2 	246.919 	283.231 	0.35 	13.208 	-0.25298 	6.77333e-05 	
0.00180191 	0.00120127 	86.5202 	5.36247e+08 	0.0436913 	1.96976 	5.36247e+08 	5.36247e+08 	0 	
0.00154093 	1.0457e-08 	0.92 	0.04 	0.04 	0.0292523 	3.80014 	298.15 	
3.77092 	3.97141 	-0.200499 	-3.34056 	7.79974e-08 	16.7298 	13.3635 	
9.30988e-10 	14488.2 	246.919 	283.231 	0.35 	13.208 	-0.253054 	6.77333e-05 	
0.00180191 	0.00120127 	86.4929 	5.32911e+08 	0.0304456 	3.46106 	5.32911e+08 	5.32911e+08 	0 	
0.00160867 	8.13516e-09 	0.92 	0.04 	0.04 	0.0292522 	3.80012 	298.15 	
3.7709 	3.97141 	-0.200518 	-3.34181 	6.06796e-08 	13.3869 	16.7065 	
9.31338e-10 	14488.2 	246.919 	283.231 	0.35 	13.208 	-0.253149 	6.77333e-05 	
0.00180191 	0.00120127 	83.129 	4.80252e+08 	0.0196023 	5.3793 	4.80252e+08 	4.80252e+08 	0 	
0.0016764 	5.81235e-09 	0.92 	0.04 	0.04 	0.0292521 	3.8001 	298.15 	
3.77087 	3.97141 	-0.200542 	-3.34335 	4.33539e-08 	10.0425 	20.0508 	
9.31767e-10 	14488.2 	246.919 	283.231 	0.35 	13.208 	-0.253265 	6.77333e-05 	
0.00180191 	0.00120127 	53.158 	6.44493e+07 	0.0111634 	7.72512 	6.44493e+07 	6.44493e+07 	0 	
0.00174413 	3.48825e-09 	0.92 	0.04 	0.04 	0.0292521 	3.80007 	298.15 	
3.77084 	3.97141 	-0.20057 	-3.34515 	2.60189e-08 	6.6965 	23.3968 	
9.32272e-10 	14488.2 	246.919 	283.231 	0.35 	13.208 	-0.253399 	6.77333e-05 	
0.00180191 	0.00120127 	-195.163 	-2.80146e+09 	0.00513136 	10.4993 	-2.80146e+09 	-2.80146e+09 	0 	
0.00181187 	1.16266e-09 	0.92 	0.04 	0.04 	0.029252 	3.80004 	298.148 	
3.77081 	3.97141 	-0.200603 	-3.34704 	8.6741e-09 	3.34873 	26.7446 	
9.32829e-10 	14488.2 	246.919 	283.231 	0.35 	13.208 	-0.25353 	6.77333e-05 	
0.00180191 	0.00120127 	-1981.17 	-1.76499e+10 	0.00150971 	13.7025 	-1.76499e+10 	-1.76499e+10 	0 	
0.0018796 	-3.58724e-14 	0.92 	0.04 	0.04 	0.029252 	3.8 	298.14 	
3.77078 	3.97142 	-0.200645 	-1.67385 	8.6741e-09 	0.837211 	29.2561 	
4.66591e-10 	7244.08 	123.46 	141.616 	0.35 	6.604 	-0.253547 	3.38667e-05 	
0.000900955 	0.000600637 	-12137.1 	-5.77751e+10 	0.000301961 	15.4115 	-5.77751e+10 	-5.77751e+10 	0 	
ZONE T = "t = 2.37813e-07 [s]" I = 10 SOLUTIONTIME = 2.3781250000000E-07
0.00127 	1.97525e-08 	0.92 	0.04 	0.04 	0.0292935 	3.80018 	298.15 	
3.77092 	3.97141 	-0.200492 	-1.67006 	1.47295e-07 	29.2806 	0.835684 	
6.77085e-10 	7244.08 	123.46 	141.616 	0.35 	6.604 	-0.253084 	3.38667e-05 	
0.000900955 	0.000600637 	0.021785 	108701 	0.0871441 	0.0533058 	108701 	108701 	0 	
0.00133773 	1.74312e-08 	0.92 	0.04 	0.04 	0.0292933 	3.80017 	298.15 	
3.77092 	3.97141 	-0.200494 	-3.34025 	1.29984e-07 	26.7735 	3.34281 	
1.35423e-09 	14488.2 	246.919 	283.231 	0.35 	13.208 	-0.253096 	6.77333e-05 	
0.00180191 	0.00120127 	100.95 	3.67424e+08 	0.0775046 	0.266543 	3.67424e+08 	3.67424e+08 	0 	
0.00140547 	1.51096e-08 	0.92 	0.04 	0.04 	0.0292931 	3.80017 	298.15 	
3.77091 	3.97141 	-0.200501 	-3.34066 	1.12672e-07 	23.4304 	6.68591 	
1.35439e-09 	14488.2 	246.919 	283.231 	0.35 	13.208 	-0.253127 	6.77333e-05 	
0.00180191 	0.00120127 	122.979 	4.99237e+08 	0.0594282 	0.906327 	4.99237e+08 	4.99237e+08 	0 	
0.0014732 	1.27874e-08 	0.92 	0.04 	0.04 	0.029293 	3.80016 	298.15 	
3.7709 	3.97141 	-0.200511 	-3.34136 	9.53564e-08 	20.0867 	10.0296 	
1.35467e-09 	14488.2 	246.919 	283.231 	0.35 	13.208 	-0.25318 	6.77333e-05 	
0.00180191 	0.00120127 	126.586 	5.2762e+08 	0.0437568 	1.97287 	5.2762e+08 	5.2762e+08 	0 	
0.00154093 	1.04646e-08 	0.92 	0.04 	0.04 	0.0292928 	3.80014 	298.15 	