TITLE = "Solution on Domain BulkDomain1D_0"
VARIABLES = "x [m]"  
"Vel_axial" 
"MF_sp(ECDMC)" 
"MF_sp(Li+)" 
"MF_sp(PF6-)" 
"Volt(Electroly)" 
"Volt(AnodeVolt)" 
"Temperature" 
"Potential Drop Electrode-Electrolyte [V]" 
"Surf_0 Equilibrium Potential Drop Electrode-Electrolyte [V]" 
"Overpotential_0 [V]" 
"Current Source [A/m^2]" 
"Li+ flux [kmol/m^2/s]" 
"Electrolyte Current [A/m^2]" 
"Electrode Current [A/m^2]" 
"CV Capacity discharged [A-s/m^2]" 
"Depth of discharge in CV [A-s/m^2]" 
"CV Capacity remaining [A-s/m^2]" 
"Initial CV capacity [A-s/m^2]" 
"Porosity []" 
"Surface Area [m2/m2] (area per area)" 
"Specific current (per particle area) [A/m^2]" 
"Control volume thickness [m]" 
"MoleDens Li_C6-bulk [kmol/m^3]" 
"MoleDens V_C6-bulk [kmol/m^3]" 
"qHeat_accum [J/m3]" 
"qHeat_step [W/m3]" 
"Joule_Lyte [W/m3]" 
"Joule_Solid [W/m3]" 
"electrodHeat [W/m3]" 
"OverpotHeat [W/m3]" 
"deltaSHeat [W/m3]" 

ZONE T = "ANOD, 0.0000E+00", I = 10, SOLUTIONTIME = 0.000000E+00
ZONETYPE = ORDERED
DATAPACKING = BLOCK
STRANDID = 1
 0.0000000000000E+00  8.7488888888889E-05  1.7497777777778E-04  2.6246666666667E-04  3.4995555555556E-04  4.3744444444444E-04  5.2493333333333E-04  6.1242222222222E-04  6.9991111111111E-04  7.8740000000000E-04 
 0.0000000000000E+00  0.0000000000000E+00  0.0000000000000E+00  0.0000000000000E+00  0.0000000000000E+00  0.0000000000000E+00  0.0000000000000E+00  0.0000000000000E+00  0.0000000000000E+00  0.0000000000000E+00 
 9.2000000000000E-01  9.2000000000000E-01  9.2000000000000E-01  9.2000000000000E-01  9.2000000000000E-01  9.2000000000000E-01  9.2000000000000E-01  9.2000000000000E-01  9.2000000000000E-01  9.2000000000000E-01 
 4.0000000000000E-02  4.0000000000000E-02  4.0000000000000E-02  4.0000000000000E-02  4.0000000000000E-02  4.0000000000000E-02  4.0000000000000E-02  4.0000000000000E-02  4.0000000000000E-02  4.0000000000000E-02 
 4.0000000000000E-02  4.0000000000000E-02  4.0000000000000E-02  4.0000000000000E-02  4.0000000000000E-02  4.0000000000000E-02  4.0000000000000E-02  4.0000000000000E-02  4.0000000000000E-02  4.0000000000000E-02 
-7.0000000000000E-02 -7.0000000000000E-02 -7.0000000000000E-02 -7.0000000000000E-02 -7.0000000000000E-02 -7.0000000000000E-02 -7.0000000000000E-02 -7.0000000000000E-02 -7.0000000000000E-02 -7.0000000000000E-02 
 0.0000000000000E+00  0.0000000000000E+00  0.0000000000000E+00  0.0000000000000E+00  0.0000000000000E+00  0.0000000000000E+00  0.0000000000000E+00  0.0000000000000E+00  0.0000000000000E+00  0.0000000000000E+00 
 2.9815000000000E+02  2.9815000000000E+02  2.9815000000000E+02  2.9815000000000E+02  2.9815000000000E+02  2.9815000000000E+02  2.9815000000000E+02  2.9815000000000E+02  2.9815000000000E+02  2.9815000000000E+02 
 7.0000000000000E-02  7.0000000000000E-02  7.0000000000000E-02  7.0000000000000E-02  7.0000000000000E-02  7.0000000000000E-02  7.0000000000000E-02  7.0000000000000E-02  7.0000000000000E-02  7.0000000000000E-02 
-4.0906712753390E-02 -4.0906712753390E-02 -4.0906712753390E-02 -4.0906712753390E-02 -4.0906712753390E-02 -4.0906712753390E-02 -4.0906712753390E-02 -4.0906712753390E-02 -4.0906712753390E-02 -4.0906712753390E-02 
 1.1090671275339E-01  1.1090671275339E-01  1.1090671275339E-01  1.1090671275339E-01  1.1090671275339E-01  1.1090671275339E-01  1.1090671275339E-01  1.1090671275339E-01  1.1090671275339E-01  1.1090671275339E-01 
 3.0930240924008E+01  6.1860481848017E+01  6.1860481848017E+01  6.1860481848017E+01  6.1860481848017E+01  6.1860481848017E+01  6.1860481848017E+01  6.1860481848017E+01  6.1860481848017E+01  3.0930240924008E+01 
-0.0000000000000E+00 -0.0000000000000E+00 -0.0000000000000E+00 -0.0000000000000E+00 -0.0000000000000E+00 -0.0000000000000E+00 -0.0000000000000E+00 -0.0000000000000E+00 -0.0000000000000E+00 -0.0000000000000E+00 
 0.0000000000000E+00  0.0000000000000E+00  0.0000000000000E+00  0.0000000000000E+00  0.0000000000000E+00  0.0000000000000E+00  0.0000000000000E+00  0.0000000000000E+00  0.0000000000000E+00  3.0930240924008E+01 
 3.0930240924008E+01 -0.0000000000000E+00 -0.0000000000000E+00 -0.0000000000000E+00 -0.0000000000000E+00 -0.0000000000000E+00 -0.0000000000000E+00 -0.0000000000000E+00 -0.0000000000000E+00  0.0000000000000E+00 
 0.0000000000000E+00  0.0000000000000E+00  0.0000000000000E+00  0.0000000000000E+00  0.0000000000000E+00  0.0000000000000E+00  0.0000000000000E+00  0.0000000000000E+00  0.0000000000000E+00  0.0000000000000E+00 
 4.5724222271641E+04  9.1448444543281E+04  9.1448444543281E+04  9.1448444543281E+04  9.1448444543281E+04  9.1448444543281E+04  9.1448444543281E+04  9.1448444543281E+04  9.1448444543281E+04  4.5724222271641E+04 
 3.3835924481014E+05  6.7671848962028E+05  6.7671848962028E+05  6.7671848962028E+05  6.7671848962028E+05  6.7671848962028E+05  6.7671848962028E+05  6.7671848962028E+05  6.7671848962028E+05  3.3835924481014E+05 
 3.8408346708178E+05  7.6816693416356E+05  7.6816693416356E+05  7.6816693416356E+05  7.6816693416356E+05  7.6816693416356E+05  7.6816693416356E+05  7.6816693416356E+05  7.6816693416356E+05  3.8408346708178E+05 
 3.5000000000000E-01  3.5000000000000E-01  3.5000000000000E-01  3.5000000000000E-01  3.5000000000000E-01  3.5000000000000E-01  3.5000000000000E-01  3.5000000000000E-01  3.5000000000000E-01  3.5000000000000E-01 
 8.5301666666667E+00  1.7060333333333E+01  1.7060333333333E+01  1.7060333333333E+01  1.7060333333333E+01  1.7060333333333E+01  1.7060333333333E+01  1.7060333333333E+01  1.7060333333333E+01  8.5301666666667E+00 
 3.6259831879809E+00  3.6259831879809E+00  3.6259831879809E+00  3.6259831879809E+00  3.6259831879809E+00  3.6259831879809E+00  3.6259831879809E+00  3.6259831879809E+00  3.6259831879809E+00  3.6259831879809E+00 
 4.3744444444444E-05  8.7488888888889E-05  8.7488888888889E-05  8.7488888888889E-05  8.7488888888889E-05  8.7488888888889E-05  8.7488888888889E-05  8.7488888888889E-05  8.7488888888889E-05  4.3744444444444E-05 
 8.6666666666667E+01  8.6666666666667E+01  8.6666666666667E+01  8.6666666666667E+01  8.6666666666667E+01  8.6666666666667E+01  8.6666666666667E+01  8.6666666666667E+01  8.6666666666667E+01  8.6666666666667E+01 
 2.1666666666667E+01  2.1666666666667E+01  2.1666666666667E+01  2.1666666666667E+01  2.1666666666667E+01  2.1666666666667E+01  2.1666666666667E+01  2.1666666666667E+01  2.1666666666667E+01  2.1666666666667E+01 
 0.0000000000000E+00  0.0000000000000E+00  0.0000000000000E+00  0.0000000000000E+00  0.0000000000000E+00  0.0000000000000E+00  0.0000000000000E+00  0.0000000000000E+00  0.0000000000000E+00  0.0000000000000E+00 
 0.0000000000000E+00  0.0000000000000E+00  0.0000000000000E+00  0.0000000000000E+00  0.0000000000000E+00  0.0000000000000E+00  0.0000000000000E+00  0.0000000000000E+00  0.0000000000000E+00  0.0000000000000E+00 
 0.0000000000000E+00  0.0000000000000E+00  0.0000000000000E+00  0.0000000000000E+00  0.0000000000000E+00  0.0000000000000E+00  0.0000000000000E+00  0.0000000000000E+00  0.0000000000000E+00  0.0000000000000E+00 
 0.0000000000000E+00  0.0000000000000E+00  0.0000000000000E+00  0.0000000000000E+00  0.0000000000000E+00  0.0000000000000E+00  0.0000000000000E+00  0.0000000000000E+00  0.0000000000000E+00  0.0000000000000E+00 
 0.0000000000000E+00  0.0000000000000E+00  0.0000000000000E+00  0.0000000000000E+00  0.0000000000000E+00  0.0000000000000E+00  0.0000000000000E+00  0.0000000000000E+00  0.0000000000000E+00  0.0000000000000E+00 
 0.0000000000000E+00  0.0000000000000E+00  0.0000000000000E+00  0.0000000000000E+00  0.0000000000000E+00  0.0000000000000E+00  0.0000000000000E+00  0.0000000000000E+00  0.0000000000000E+00  0.0000000000000E+00 
 0.0000000000000E+00  0.0000000000000E+00  0.0000000000000E+00  0.0000000000000E+00  0.0000000000000E+00  0.0000000000000E+00  0.0000000000000E+00  0.0000000000000E+00  0.0000000000000E+00  0.0000000000000E+00 
ZONE T = "ANOD, 1.0000E-08", I = 10, SOLUTIONTIME = 1.000000E-08
ZONETYPE = ORDERED
DATAPACKING = BLOCK
STRANDID = 1
 0.0000000000000E+00  8.7488888888889E-05  1.7497777777778E-04  2.6246666666667E-04  3.4995555555556E-04  4.3744444444444E-04  5.2493333333333E-04  6.1242222222222E-04  6.9991111111111E-04  7.8740000000000E-04 
 1.1699590903855E-09  3.4871577606136E-09  5.8040778588295E-09  8.1210094035408E-09  1.0437962457675E-08  1.2754943451228E-08  1.5071958813579E-08  1.7389015002264E-08  1.9705755160961E-08  2.0865060361052E-08 
 9.1999999999930E-01  9.1999999999930E-01  9.1999999999930E-01  9.1999999999930E-01  9.1999999999930E-01  9.1999999999930E-01  9.1999999999930E-01  9.1999999999930E-01  9.1999999999930E-01  9.1999999999971E-01 
 4.0000000000352E-02  4.0000000000348E-02  4.0000000000348E-02  4.0000000000348E-02  4.0000000000348E-02  4.0000000000348E-02  4.0000000000348E-02  4.0000000000348E-02  4.0000000000348E-02  4.0000000000144E-02 
 4.0000000000352E-02  4.0000000000348E-02  4.0000000000348E-02  4.0000000000348E-02  4.0000000000348E-02  4.0000000000348E-02  4.0000000000348E-02  4.0000000000348E-02  4.0000000000348E-02  4.0000000000144E-02 
 2.9172734640592E-02  2.9172718763369E-02  2.9172671443829E-02  2.9172592684540E-02  2.9172482485326E-02  2.9172340845878E-02  2.9172167765815E-02  2.9171963244682E-02  2.9171727281915E-02  2.9171459876876E-02 
 0.0000000000000E+00 -4.7349956909877E-09 -8.9128920347415E-09 -1.2533756005365E-08 -1.5597584850898E-08 -1.8104373400062E-08 -2.0054114935675E-08 -2.1446801194816E-08 -2.2282422362047E-08 -2.2560967094931E-08 
 2.9819800350364E+02  2.9815060797478E+02  2.9815000616244E+02  2.9814999852010E+02  2.9814999849414E+02  2.9814999847748E+02  2.9814999846144E+02  2.9814999850716E+02  2.9814999839684E+02  2.9814999954289E+02 
-2.9172734640592E-02 -2.9172723498365E-02 -2.9172680356722E-02 -2.9172605218296E-02 -2.9172498082911E-02 -2.9172358950251E-02 -2.9172187819930E-02 -2.9171984691484E-02 -2.9171749564337E-02 -2.9171482437843E-02 
-4.0940234570810E-02 -4.0907137301842E-02 -4.0906717056316E-02 -4.0906711719672E-02 -4.0906711701549E-02 -4.0906711689920E-02 -4.0906711678719E-02 -4.0906711710645E-02 -4.0906711633607E-02 -4.0906712434025E-02 
 1.1767499930218E-02  1.1734413803477E-02  1.1734036699594E-02  1.1734106501375E-02  1.1734213618639E-02  1.1734352739668E-02  1.1734523858790E-02  1.1734727019161E-02  1.1734962069270E-02  1.1735229996182E-02 
 1.6848429186845E+00  3.3369677701876E+00  3.3365666032566E+00  3.3365830863267E+00  3.3366140600455E+00  3.3366542961789E+00  3.3367037888885E+00  3.3367625803524E+00  3.3368305210651E+00  1.6684542910278E+00 
 8.7310384369142E-09  2.6023563426995E-08  4.3314019004193E-08  6.0604545524899E-08  7.7895241018621E-08  9.5186146649775E-08  1.1247730156416E-07  1.2976876803896E-07  1.4706065603467E-07  1.4706065603467E-07 
 0.0000000000000E+00  3.3533093362510E+00  6.6900599687095E+00  1.0026617663202E+01  1.3363198504599E+01  1.6699815924443E+01  2.0036477671928E+01  2.3373193532100E+01  2.6709973168744E+01  3.0046834136151E+01 
 3.0046834388367E+01  2.6693516146243E+01  2.3356766082327E+01  2.0020208359444E+01  1.6683626906987E+01  1.3347009849387E+01  1.0010347927379E+01  6.6736318618921E+00  3.3368524299852E+00  0.0000000000000E+00 
 1.6848429186845E-08  3.3369677701876E-08  3.3365666032566E-08  3.3365830863267E-08  3.3366140600455E-08  3.3366542961789E-08  3.3367037888885E-08  3.3367625803524E-08  3.3368305210651E-08  1.6684542910278E-08 
 4.5724222271657E+04  9.1448444543315E+04  9.1448444543315E+04  9.1448444543315E+04  9.1448444543315E+04  9.1448444543315E+04  9.1448444543315E+04  9.1448444543315E+04  9.1448444543315E+04  4.5724222271657E+04 
 3.3835924481012E+05  6.7671848962025E+05  6.7671848962025E+05  6.7671848962025E+05  6.7671848962025E+05  6.7671848962025E+05  6.7671848962025E+05  6.7671848962025E+05  6.7671848962025E+05  3.3835924481012E+05 
 3.8408346708178E+05  7.6816693416356E+05  7.6816693416356E+05  7.6816693416356E+05  7.6816693416356E+05  7.6816693416356E+05  7.6816693416356E+05  7.6816693416356E+05  7.6816693416356E+05  3.8408346708178E+05 
 3.5000000000000E-01  3.5000000000000E-01  3.5000000000000E-01  3.5000000000000E-01  3.5000000000000E-01  3.5000000000000E-01  3.5000000000000E-01  3.5000000000000E-01  3.5000000000000E-01  3.5000000000000E-01 
 8.5301666666667E+00  1.7060333333333E+01  1.7060333333333E+01  1.7060333333333E+01  1.7060333333333E+01  1.7060333333333E+01  1.7060333333333E+01  1.7060333333333E+01  1.7060333333333E+01  8.5301666666667E+00 
 1.9751582642206E-01  1.9559804049477E-01  1.9557452589378E-01  1.9557549205721E-01  1.9557730759728E-01  1.9557966605844E-01  1.9558256709844E-01  1.9558601318961E-01  1.9558999556857E-01  1.9559457115271E-01 
 4.3744444444444E-05  8.7488888888889E-05  8.7488888888889E-05  8.7488888888889E-05  8.7488888888889E-05  8.7488888888889E-05  8.7488888888889E-05  8.7488888888889E-05  8.7488888888889E-05  4.3744444444444E-05 
 8.6666666666663E+01  8.6666666666663E+01  8.6666666666663E+01  8.6666666666663E+01  8.6666666666663E+01  8.6666666666663E+01  8.6666666666663E+01  8.6666666666663E+01  8.6666666666663E+01  8.6666666666663E+01 
 2.1666666666671E+01  2.1666666666671E+01  2.1666666666671E+01  2.1666666666671E+01  2.1666666666671E+01  2.1666666666671E+01  2.1666666666671E+01  2.1666666666671E+01  2.1666666666671E+01  2.1666666666671E+01 
-7.5673989868491E-05 -7.4934602100794E-05 -7.4925485595563E-05 -7.4925769026825E-05 -7.4926341990393E-05 -7.4927086339443E-05 -7.4928001939856E-05 -7.4929089741999E-05 -7.4930346364156E-05 -7.4931901731864E-05 
-7.5673989868491E+03 -7.4934602100794E+03 -7.4925485595563E+03 -7.4925769026825E+03 -7.4926341990393E+03 -7.4927086339443E+03 -7.4928001939856E+03 -7.4929089741999E+03 -7.4930346364156E+03 -7.4931901731864E+03 
 3.0575868029169E-04  1.5109291293705E-03  5.1202221232918E-03  1.1127500672065E-02  1.9532890262351E-02  3.0336485838227E-02  4.3538399599346E-02  5.9138777188631E-02  7.7137790118250E-02  8.6736977230181E-02 
 1.5349824315101E-03  1.3650072425539E-03  1.0463220287623E-03  7.7014485456128E-04  5.3645333093727E-04  3.4524774282582E-04  1.9652909667613E-04  9.0298870223080E-05  2.6559013985615E-05  5.3119519043899E-06 
-7.5674008275902E+03 -7.4934630860157E+03 -7.4925547261005E+03 -7.4925888003281E+03 -7.4926542683829E+03 -7.4927393156779E+03 -7.4928439289143E+03 -7.4929682032760E+03 -7.4931118007648E+03 -7.4932769154755E+03 
 4.5323215736820E+02  4.4756952753993E+02  4.4750133955549E+02  4.4750621231587E+02  4.4751445173794E+02  4.4752515410459E+02  4.4753831850463E+02  4.4755395235003E+02  4.4757202993809E+02  4.4759271930747E+02 
-8.0206329849584E+03 -7.9410326135557E+03 -7.9400560656560E+03 -7.9400950126439E+03 -7.9401687201209E+03 -7.9402644697825E+03 -7.9403822474189E+03 -7.9405221556260E+03 -7.9406838307029E+03 -7.9408696347830E+03 
ZONE T = "ANOD, 2.0000E-08", I = 10, SOLUTIONTIME = 2.000000E-08
ZONETYPE = ORDERED
DATAPACKING = BLOCK
STRANDID = 1
 0.0000000000000E+00  8.7488888888889E-05  1.7497777777778E-04  2.6246666666667E-04  3.4995555555556E-04  4.3744444444444E-04  5.2493333333333E-04  6.1242222222222E-04  6.9991111111111E-04  7.8740000000000E-04 
 1.1806862365013E-09  3.4973809239742E-09  5.8132418871859E-09  8.1291036975031E-09  1.0444986936353E-08  1.2760898052217E-08  1.5076843591520E-08  1.7392830026199E-08  1.9708863640458E-08  2.0866907777592E-08 
 9.1999999999859E-01  9.1999999999861E-01  9.1999999999861E-01  9.1999999999861E-01  9.1999999999861E-01  9.1999999999861E-01  9.1999999999861E-01  9.1999999999861E-01  9.1999999999861E-01  9.1999999999942E-01 
 4.0000000000706E-02  4.0000000000696E-02  4.0000000000696E-02  4.0000000000696E-02  4.0000000000696E-02  4.0000000000696E-02  4.0000000000696E-02  4.0000000000696E-02  4.0000000000696E-02  4.0000000000288E-02 
 4.0000000000706E-02  4.0000000000696E-02  4.0000000000696E-02  4.0000000000696E-02  4.0000000000696E-02  4.0000000000696E-02  4.0000000000696E-02  4.0000000000696E-02  4.0000000000696E-02  4.0000000000288E-02 
 2.9178116919277E-02  2.9178100895193E-02  2.9178053436829E-02  2.9177974553194E-02  2.9177864244139E-02  2.9177722509370E-02  2.9177549348508E-02  2.9177344761087E-02  2.9177108746551E-02  2.9176841304259E-02 
 0.0000000000000E+00 -4.7329481545701E-09 -8.9089181291025E-09 -1.2528110367024E-08 -1.5590524664673E-08 -1.8096155870218E-08 -2.0044997281484E-08 -2.1437040622413E-08 -2.2272276060964E-08 -2.2550692254255E-08 
 2.9824461117238E+02  2.9815179266081E+02  2.9815002725922E+02  2.9814999734712E+02  2.9814999710812E+02  2.9814999691977E+02  2.9814999698708E+02  2.9814999715385E+02  2.9814999702630E+02  2.9814999911111E+02 
-2.9178116919277E-02 -2.9178105628141E-02 -2.9178062345747E-02 -2.9177987081304E-02 -2.9177879834664E-02 -2.9177740605526E-02 -2.9177569393506E-02 -2.9177366198128E-02 -2.9177131018827E-02 -2.9176863854951E-02 
-4.0972783535694E-02 -4.0907964568645E-02 -4.0906731787893E-02 -4.0906710900284E-02 -4.0906710733394E-02 -4.0906710601874E-02 -4.0906710648876E-02 -4.0906710765328E-02 -4.0906710676264E-02 -4.0906712132341E-02 
 1.1794666616416E-02  1.1729858940503E-02  1.1728669442146E-02  1.1728723818980E-02  1.1728830898730E-02  1.1728969996348E-02  1.1729141255370E-02  1.1729344567200E-02  1.1729579657437E-02  1.1729848277390E-02 
 1.7002822205928E+00  3.3362248715454E+00  3.3350242422317E+00  3.3350254621458E+00  3.3350563209429E+00  3.3350964660709E+00  3.3351460385107E+00  3.3352049311035E+00  3.3352728734799E+00  1.6676757941251E+00 
 8.8110948949263E-09  2.6099857704390E-08  4.3382402142475E-08  6.0664952960011E-08  7.7947663701289E-08  9.5230582478477E-08  1.1251375813672E-07  1.2979723899969E-07  1.4708121607737E-07  1.4708121607737E-07 
 0.0000000000000E+00  3.3683946564140E+00  6.7040192132510E+00  1.0039044065378E+01  1.3374084956911E+01  1.6709161350568E+01  2.0044282602916E+01  2.3379458087431E+01  2.6714696989831E+01  3.0050009220969E+01 
 3.0050009220739E+01  2.6681614564363E+01  2.3345990007468E+01  2.0010965155293E+01  1.6675924263772E+01  1.3340847870294E+01  1.0005726618008E+01  6.6705511331765E+00  3.3353122308681E+00  0.0000000000000E+00 
 3.3851251392774E-08  6.6731926417331E-08  6.6715908454883E-08  6.6716085484725E-08  6.6716703809884E-08  6.6717507622498E-08  6.6718498273991E-08  6.6719675114560E-08  6.6721033945450E-08  3.3361300851529E-08 
 4.5724222271674E+04  9.1448444543348E+04  9.1448444543348E+04  9.1448444543348E+04  9.1448444543348E+04  9.1448444543348E+04  9.1448444543348E+04  9.1448444543348E+04  9.1448444543348E+04  4.5724222271674E+04 
 3.3835924481011E+05  6.7671848962021E+05  6.7671848962021E+05  6.7671848962021E+05  6.7671848962021E+05  6.7671848962021E+05  6.7671848962021E+05  6.7671848962021E+05  6.7671848962021E+05  3.3835924481011E+05 
 3.8408346708178E+05  7.6816693416356E+05  7.6816693416356E+05  7.6816693416356E+05  7.6816693416356E+05  7.6816693416356E+05  7.6816693416356E+05  7.6816693416356E+05  7.6816693416356E+05  3.8408346708178E+05 
 3.5000000000000E-01  3.5000000000000E-01  3.5000000000000E-01  3.5000000000000E-01  3.5000000000000E-01  3.5000000000000E-01  3.5000000000000E-01  3.5000000000000E-01  3.5000000000000E-01  3.5000000000000E-01 
 8.5301666666667E+00  1.7060333333333E+01  1.7060333333333E+01  1.7060333333333E+01  1.7060333333333E+01  1.7060333333333E+01  1.7060333333333E+01  1.7060333333333E+01  1.7060333333333E+01  8.5301666666667E+00 
 1.9932579128108E-01  1.9555449511804E-01  1.9548411962828E-01  1.9548419113416E-01  1.9548599993804E-01  1.9548835306486E-01  1.9549125877830E-01  1.9549471079718E-01  1.9549869327367E-01  1.9550330717943E-01 
 4.3744444444444E-05  8.7488888888889E-05  8.7488888888889E-05  8.7488888888889E-05  8.7488888888889E-05  8.7488888888889E-05  8.7488888888889E-05  8.7488888888889E-05  8.7488888888889E-05  4.3744444444444E-05 
 8.6666666666659E+01  8.6666666666659E+01  8.6666666666659E+01  8.6666666666659E+01  8.6666666666659E+01  8.6666666666659E+01  8.6666666666659E+01  8.6666666666659E+01  8.6666666666659E+01  8.6666666666659E+01 
 2.1666666666675E+01  2.1666666666675E+01  2.1666666666675E+01  2.1666666666675E+01  2.1666666666675E+01  2.1666666666675E+01  2.1666666666675E+01  2.1666666666675E+01  2.1666666666675E+01  2.1666666666675E+01 
-1.5204814547384E-04 -1.4985468932314E-04 -1.4981838955904E-04 -1.4981861140399E-04 -1.4981975467828E-04 -1.4982124130422E-04 -1.4982307433135E-04 -1.4982525228572E-04 -1.4982776567254E-04 -1.4983089128923E-04 
-7.6374155605347E+03 -7.4920087222343E+03 -7.4892903963479E+03 -7.4892842377163E+03 -7.4893412687885E+03 -7.4894154964776E+03 -7.4895072391498E+03 -7.4896162543724E+03 -7.4897419308387E+03 -7.4898989557370E+03 
 6.1717496805244E-04  3.0326643854348E-03  1.0260310328532E-02  2.2281580136452E-02  3.9096853292746E-02  6.0706321906097E-02  8.7110214942980E-02  1.1830882190723E-01  1.5430248413535E-01  1.7349812369683E-01 
 3.0686376166652E-03  2.7287999764965E-03  2.0916788453027E-03  1.5395787311273E-03  1.0724114267873E-03  6.9017677397128E-04  3.9287677789792E-04  1.8051439026047E-04  5.3093514707087E-05  1.0619002344064E-05 
-7.6374174056061E+03 -7.4920116077623E+03 -7.4892965817929E+03 -7.4892961612296E+03 -7.4893613687097E+03 -7.4894462112427E+03 -7.4895510073128E+03 -7.4896755146326E+03 -7.4898191220672E+03 -7.4899857221905E+03 
 4.5844134497053E+02  4.4729619537712E+02  4.4708988096878E+02  4.4709211732242E+02  4.4710033609530E+02  4.4711102041651E+02  4.4712419474667E+02  4.4713984068956E+02  4.4715791166579E+02  4.4717870553733E+02 
-8.0958587505767E+03 -7.9393078031394E+03 -7.9363864627617E+03 -7.9363882785520E+03 -7.9364617048050E+03 -7.9365572316592E+03 -7.9366752020595E+03 -7.9368153553222E+03 -7.9369770337330E+03 -7.9371644277279E+03 
ZONE T = "ANOD, 3.0000E-08", I = 10, SOLUTIONTIME = 3.000000E-08
ZONETYPE = ORDERED
DATAPACKING = BLOCK
STRANDID = 1
 0.0000000000000E+00  8.7488888888889E-05  1.7497777777778E-04  2.6246666666667E-04  3.4995555555556E-04  4.3744444444444E-04  5.2493333333333E-04  6.1242222222222E-04  6.9991111111111E-04  7.8740000000000E-04 
 1.1911677309678E-09  3.5076040432221E-09  5.8224018118226E-09  8.1371798887496E-09  1.0451979019834E-08  1.2767895604459E-08  1.5083846630848E-08  1.7398748920584E-08  1.9713698443991E-08  2.0871200786843E-08 
 9.1999999999787E-01  9.1999999999791E-01  9.1999999999791E-01  9.1999999999791E-01  9.1999999999791E-01  9.1999999999791E-01  9.1999999999791E-01  9.1999999999791E-01  9.1999999999791E-01  9.1999999999914E-01 
 4.0000000001064E-02  4.0000000001044E-02  4.0000000001044E-02  4.0000000001044E-02  4.0000000001044E-02  4.0000000001044E-02  4.0000000001044E-02  4.0000000001044E-02  4.0000000001044E-02  4.0000000000432E-02 
 4.0000000001064E-02  4.0000000001044E-02  4.0000000001044E-02  4.0000000001044E-02  4.0000000001044E-02  4.0000000001044E-02  4.0000000001044E-02  4.0000000001044E-02  4.0000000001044E-02  4.0000000000432E-02 
 2.9183511202275E-02  2.9183495034664E-02  2.9183447437434E-02  2.9183368429496E-02  2.9183258010851E-02  2.9183116181202E-02  2.9182942940173E-02  2.9182738287296E-02  2.9182502222015E-02  2.9182234743689E-02 
 0.0000000000000E+00 -4.7309363901660E-09 -8.9049567186906E-09 -1.2522454923138E-08 -1.5583435737767E-08 -1.8087894100752E-08 -2.0035823321136E-08 -2.1427215118454E-08 -2.2262059662794E-08 -2.2540345598268E-08 
 2.9828987835193E+02  2.9815352245818E+02  2.9815006979114E+02  2.9814999675358E+02  2.9814999568383E+02  2.9814999535853E+02  2.9814999543195E+02  2.9814999555442E+02  2.9814999552103E+02  2.9814999864700E+02 
-2.9183511202275E-02 -2.9183499765601E-02 -2.9183456342391E-02 -2.9183380951951E-02 -2.9183273594287E-02 -2.9183134269097E-02 -2.9182962975997E-02 -2.9182759714511E-02 -2.9182524484075E-02 -2.9182257284035E-02 
-4.1004398135299E-02 -4.0909172489238E-02 -4.0906761487623E-02 -4.0906710485519E-02 -4.0906709738513E-02 -4.0906709511356E-02 -4.0906709562621E-02 -4.0906709648140E-02 -4.0906709624829E-02 -4.0906711808084E-02 
 1.1820886933023E-02  1.1725672723637E-02  1.1723305145232E-02  1.1723329533568E-02  1.1723436144226E-02  1.1723575242259E-02  1.1723746586624E-02  1.1723949933629E-02  1.1724185140755E-02  1.1724454524050E-02 
 1.7153764075028E+00  3.3358527906543E+00  3.3334931573163E+00  3.3334647997345E+00  3.3334951193737E+00  3.3335351973032E+00  3.3335847961973E+00  3.3336436760494E+00  3.3337116963068E+00  1.6668955672043E+00 
 8.8893185000374E-09  2.6176149722382E-08  4.3450759791393E-08  6.0725223045088E-08  7.7999843426481E-08  9.5274671498993E-08  1.1254975659145E-07  1.2982514682140E-07  1.4710110568389E-07  1.4710110568389E-07 
 0.0000000000000E+00  3.3833028028697E+00  6.7179757767449E+00  1.0051454755419E+01  1.3384934714973E+01  1.6718449873106E+01  2.0052009870063E+01  2.3385624106166E+01  2.6719301792195E+01  3.0053053207642E+01 
 3.0053053207692E+01  2.6669750404853E+01  2.3335077430866E+01  2.0001598452352E+01  1.6668118492796E+01  1.3334603334442E+01  1.0001043337682E+01  6.6674291015492E+00  3.3337514153620E+00  0.0000000000000E+00 
 5.1005015467802E-08  1.0009045432387E-07  1.0005084002805E-07  1.0005073348207E-07  1.0005165500362E-07  1.0005285959553E-07  1.0005434623596E-07  1.0005611187505E-07  1.0005815090852E-07  5.0030256523572E-08 
 4.5724222271692E+04  9.1448444543381E+04  9.1448444543381E+04  9.1448444543381E+04  9.1448444543381E+04  9.1448444543381E+04  9.1448444543381E+04  9.1448444543381E+04  9.1448444543381E+04  4.5724222271691E+04 
 3.3835924481009E+05  6.7671848962018E+05  6.7671848962018E+05  6.7671848962018E+05  6.7671848962018E+05  6.7671848962018E+05  6.7671848962018E+05  6.7671848962018E+05  6.7671848962018E+05  3.3835924481009E+05 
 3.8408346708178E+05  7.6816693416356E+05  7.6816693416356E+05  7.6816693416356E+05  7.6816693416356E+05  7.6816693416356E+05  7.6816693416356E+05  7.6816693416356E+05  7.6816693416356E+05  3.8408346708178E+05 
 3.5000000000000E-01  3.5000000000000E-01  3.5000000000000E-01  3.5000000000000E-01  3.5000000000000E-01  3.5000000000000E-01  3.5000000000000E-01  3.5000000000000E-01  3.5000000000000E-01  3.5000000000000E-01 
 8.5301666666667E+00  1.7060333333333E+01  1.7060333333333E+01  1.7060333333333E+01  1.7060333333333E+01  1.7060333333333E+01  1.7060333333333E+01  1.7060333333333E+01  1.7060333333333E+01  8.5301666666667E+00 
 2.0109529796247E-01  1.9553268540988E-01  1.9539437431760E-01  1.9539271212371E-01  1.9539448932457E-01  1.9539683851253E-01  1.9539974577659E-01  1.9540319704868E-01  1.9540718409020E-01  1.9541184039440E-01 
 4.3744444444444E-05  8.7488888888889E-05  8.7488888888889E-05  8.7488888888889E-05  8.7488888888889E-05  8.7488888888889E-05  8.7488888888889E-05  8.7488888888889E-05  8.7488888888889E-05  4.3744444444444E-05 
 8.6666666666655E+01  8.6666666666655E+01  8.6666666666655E+01  8.6666666666655E+01  8.6666666666655E+01  8.6666666666655E+01  8.6666666666655E+01  8.6666666666655E+01  8.6666666666655E+01  8.6666666666655E+01 
 2.1666666666679E+01  2.1666666666679E+01  2.1666666666679E+01  2.1666666666679E+01  2.1666666666679E+01  2.1666666666679E+01  2.1666666666679E+01  2.1666666666679E+01  2.1666666666679E+01  2.1666666666679E+01 
-2.2910695607896E-04 -2.2476864585961E-04 -2.2467896987922E-04 -2.2467846161699E-04 -2.2468016296282E-04 -2.2468239033275E-04 -2.2468514141082E-04 -2.2468840929650E-04 -2.2469218131545E-04 -2.2469689363674E-04 
-7.7058810605125E+03 -7.4913956536470E+03 -7.4860580320179E+03 -7.4859850212998E+03 -7.4860408284546E+03 -7.4861149028534E+03 -7.4862067079471E+03 -7.4863157010780E+03 -7.4864415642911E+03 -7.4866002347502E+03 
 9.3416994717175E-04  4.5651907520465E-03  1.5420303510596E-02  3.3462234035866E-02  5.8691805298153E-02  9.1109318617887E-02  1.3071511995069E-01  1.7750964269221E-01  2.3149339822029E-01  2.6028265171063E-01 
 4.6009893025694E-03  4.0913836775851E-03  3.1360587199246E-03  2.3082924665798E-03  1.6078678904881E-03  1.0347829738202E-03  5.8904069653045E-04  2.7064548168676E-04  7.9603185497869E-05  1.5921088107741E-05 
-7.7058829098592E+03 -7.4913985487570E+03 -7.4860642363910E+03 -7.4859969706674E+03 -7.4860609588631E+03 -7.4861456504564E+03 -7.4862505090160E+03 -7.4863749920299E+03 -7.4865187817149E+03 -7.4866870245803E+03 
 4.6353933210453E+02  4.4708669380710E+02  4.4668023539694E+02  4.4667736478186E+02  4.4668548962193E+02  4.4669615999675E+02  4.4670933501075E+02  4.4672497332711E+02  4.4674305080939E+02  4.4676396105570E+02 
-8.1694222419637E+03 -7.9384852425641E+03 -7.9327444717879E+03 -7.9326743354493E+03 -7.9327464484850E+03 -7.9328418104531E+03 -7.9329598440267E+03 -7.9330999653570E+03 -7.9332618325243E+03 -7.9334509856360E+03 
ZONE T = "ANOD, 4.0000E-08", I = 10, SOLUTIONTIME = 4.000000E-08
ZONETYPE = ORDERED
DATAPACKING = BLOCK
STRANDID = 1
 0.0000000000000E+00  8.7488888888889E-05  1.7497777777778E-04  2.6246666666667E-04  3.4995555555556E-04  4.3744444444444E-04  5.2493333333333E-04  6.1242222222222E-04  6.9991111111111E-04  7.8740000000000E-04 
 1.2014153754226E-09  3.5178365392939E-09  5.8315818047640E-09  8.1452743114542E-09  1.0458986983182E-08  1.2771637876758E-08  1.5084323161064E-08  1.7398139012396E-08  1.9712002164617E-08  2.0869687961568E-08 
 9.1999999999715E-01  9.1999999999722E-01  9.1999999999722E-01  9.1999999999722E-01  9.1999999999722E-01  9.1999999999722E-01  9.1999999999722E-01  9.1999999999722E-01  9.1999999999722E-01  9.1999999999885E-01 
 4.0000000001425E-02  4.0000000001392E-02  4.0000000001391E-02  4.0000000001391E-02  4.0000000001391E-02  4.0000000001391E-02  4.0000000001391E-02  4.0000000001391E-02  4.0000000001391E-02  4.0000000000576E-02 
 4.0000000001425E-02  4.0000000001392E-02  4.0000000001391E-02  4.0000000001391E-02  4.0000000001391E-02  4.0000000001391E-02  4.0000000001391E-02  4.0000000001391E-02  4.0000000001391E-02  4.0000000000576E-02 
 2.9188917290278E-02  2.9188900982312E-02  2.9188853246045E-02  2.9188774113528E-02  2.9188663585045E-02  2.9188521660301E-02  2.9188348338920E-02  2.9188143620434E-02  2.9187907504288E-02  2.9187639989837E-02 
 0.0000000000000E+00 -4.7289821675145E-09 -8.9010519153517E-09 -1.2516852581207E-08 -1.5576396849311E-08 -1.8079679871599E-08 -2.0026694953587E-08 -2.1417433827079E-08 -2.2251886648384E-08 -2.2530042045453E-08 