TITLE = "Solution on Domain BulkDomain1D_1"
VARIABLES = "x [m]"  
"Vel_axial" 	"MF_sp(ECDMC)" 	"MF_sp(Li+)" 	"MF_sp(PF6-)" 	"Volt(Electroly)" 	"Temperature" 	"Porosity []" 	"Control volume thickness [m]" 	"volFrac MgO(S) []" 	"qHeat_accum [J/m3]" 	"qHeat_step [W/m3]" 	"Joule_Lyte [W/m3]" 	"Joule_Solid [W/m3]" 	
ZONE T = "SEP , 0.0000E+00", I = 10, SOLUTIONTIME = 0.000000E+00
ZONETYPE = ORDERED
DATAPACKING = BLOCK
STRANDID = 2
 7.8740000000000E-04  8.4102222222222E-04  8.9464444444444E-04  9.4826666666667E-04  1.0018888888889E-03  1.0555111111111E-03  1.1091333333333E-03  1.1627555555556E-03  1.2163777777778E-03  1.2700000000000E-03 
 0.0000000000000E+00  0.0000000000000E+00  0.0000000000000E+00  0.0000000000000E+00  0.0000000000000E+00  0.0000000000000E+00  0.0000000000000E+00  0.0000000000000E+00  0.0000000000000E+00  0.0000000000000E+00 
 9.2000000000000E-01  9.2000000000000E-01  9.2000000000000E-01  9.2000000000000E-01  9.2000000000000E-01  9.2000000000000E-01  9.2000000000000E-01  9.2000000000000E-01  9.2000000000000E-01  9.2000000000000E-01 
 4.0000000000000E-02  4.0000000000000E-02  4.0000000000000E-02  4.0000000000000E-02  4.0000000000000E-02  4.0000000000000E-02  4.0000000000000E-02  4.0000000000000E-02  4.0000000000000E-02  4.0000000000000E-02 
 4.0000000000000E-02  4.0000000000000E-02  4.0000000000000E-02  4.0000000000000E-02  4.0000000000000E-02  4.0000000000000E-02  4.0000000000000E-02  4.0000000000000E-02  4.0000000000000E-02  4.0000000000000E-02 
-7.0000000000000E-02 -7.0000000000000E-02 -7.0000000000000E-02 -7.0000000000000E-02 -7.0000000000000E-02 -7.0000000000000E-02 -7.0000000000000E-02 -7.0000000000000E-02 -7.0000000000000E-02 -7.0000000000000E-02 
 2.9815000000000E+02  2.9815000000000E+02  2.9815000000000E+02  2.9815000000000E+02  2.9815000000000E+02  2.9815000000000E+02  2.9815000000000E+02  2.9815000000000E+02  2.9815000000000E+02  2.9815000000000E+02 
 8.0911499769706E-01  8.0911499769706E-01  8.0911499769706E-01  8.0911499769706E-01  8.0911499769706E-01  8.0911499769706E-01  8.0911499769706E-01  8.0911499769706E-01  8.0911499769706E-01  8.0911499769706E-01 
 2.6811111111111E-05  5.3622222222222E-05  5.3622222222222E-05  5.3622222222222E-05  5.3622222222222E-05  5.3622222222222E-05  5.3622222222222E-05  5.3622222222223E-05  5.3622222222222E-05  2.6811111111111E-05 
 1.9088500230294E-01  1.9088500230294E-01  1.9088500230294E-01  1.9088500230294E-01  1.9088500230294E-01  1.9088500230294E-01  1.9088500230294E-01  1.9088500230294E-01  1.9088500230294E-01  1.9088500230294E-01 
 0.0000000000000E+00  0.0000000000000E+00  0.0000000000000E+00  0.0000000000000E+00  0.0000000000000E+00  0.0000000000000E+00  0.0000000000000E+00  0.0000000000000E+00  0.0000000000000E+00  0.0000000000000E+00 
 0.0000000000000E+00  0.0000000000000E+00  0.0000000000000E+00  0.0000000000000E+00  0.0000000000000E+00  0.0000000000000E+00  0.0000000000000E+00  0.0000000000000E+00  0.0000000000000E+00  0.0000000000000E+00 
 0.0000000000000E+00  0.0000000000000E+00  0.0000000000000E+00  0.0000000000000E+00  0.0000000000000E+00  0.0000000000000E+00  0.0000000000000E+00  0.0000000000000E+00  0.0000000000000E+00  0.0000000000000E+00 
 0.0000000000000E+00  0.0000000000000E+00  0.0000000000000E+00  0.0000000000000E+00  0.0000000000000E+00  0.0000000000000E+00  0.0000000000000E+00  0.0000000000000E+00  0.0000000000000E+00  0.0000000000000E+00 
ZONE T = "SEP , 1.0000E-08", I = 10, SOLUTIONTIME = 1.000000E-08
ZONETYPE = ORDERED
DATAPACKING = BLOCK
STRANDID = 2
 7.8740000000000E-04  8.4102222222222E-04  8.9464444444444E-04  9.4826666666667E-04  1.0018888888889E-03  1.0555111111111E-03  1.1091333333333E-03  1.1627555555556E-03  1.2163777777778E-03  1.2700000000000E-03 
 2.0865060336067E-08  2.0865060336067E-08  2.0865060336067E-08  2.0865060336067E-08  2.0865060336067E-08  2.0865060336067E-08  2.0865060336067E-08  2.0865060336067E-08  2.0865060336067E-08  1.9707213472527E-08 
 9.1999999999971E-01  9.2000000000000E-01  9.2000000000000E-01  9.2000000000000E-01  9.2000000000000E-01  9.2000000000000E-01  9.2000000000000E-01  9.2000000000000E-01  9.2000000000000E-01  9.2000000000032E-01 
 4.0000000000144E-02  4.0000000000000E-02  4.0000000000000E-02  4.0000000000000E-02  4.0000000000000E-02  4.0000000000000E-02  4.0000000000000E-02  4.0000000000000E-02  4.0000000000000E-02  3.9999999999841E-02 
 4.0000000000144E-02  4.0000000000000E-02  4.0000000000000E-02  4.0000000000000E-02  4.0000000000000E-02  4.0000000000000E-02  4.0000000000000E-02  4.0000000000000E-02  4.0000000000000E-02  3.9999999999841E-02 
 2.9171459906697E-02  2.9171410537152E-02  2.9171361167594E-02  2.9171311798050E-02  2.9171262428492E-02  2.9171213058939E-02  2.9171163689395E-02  2.9171114319837E-02  2.9171064950292E-02  2.9171015580735E-02 
 2.9814999955738E+02  2.9814999998242E+02  2.9814999999205E+02  2.9814999999681E+02  2.9814999999171E+02  2.9815000000510E+02  2.9814999999579E+02  2.9815000000478E+02  2.9815000000846E+02  2.9815000104489E+02 
 8.0911499769706E-01  8.0911499769706E-01  8.0911499769706E-01  8.0911499769706E-01  8.0911499769706E-01  8.0911499769706E-01  8.0911499769706E-01  8.0911499769706E-01  8.0911499769706E-01  8.0911499769706E-01 
 2.6811111111111E-05  5.3622222222222E-05  5.3622222222222E-05  5.3622222222222E-05  5.3622222222222E-05  5.3622222222222E-05  5.3622222222222E-05  5.3622222222223E-05  5.3622222222222E-05  2.6811111111111E-05 
 1.9088500230294E-01  1.9088500230294E-01  1.9088500230294E-01  1.9088500230294E-01  1.9088500230294E-01  1.9088500230294E-01  1.9088500230294E-01  1.9088500230294E-01  1.9088500230294E-01  1.9088500230294E-01 
 2.7663864365084E-10  2.7663871923278E-10  2.7663871936166E-10  2.7663871718103E-10  2.7663876426479E-10  2.7663868752910E-10  2.7663871591179E-10  2.7663871936939E-10  2.7663871739468E-10  2.7663879089207E-10 
 2.7663864365084E-02  2.7663871923278E-02  2.7663871936166E-02  2.7663871718103E-02  2.7663876426479E-02  2.7663868752910E-02  2.7663871591179E-02  2.7663871936939E-02  2.7663871739468E-02  2.7663879089207E-02 
 2.7663864365084E-02  2.7663871923278E-02  2.7663871936166E-02  2.7663871718103E-02  2.7663876426479E-02  2.7663868752910E-02  2.7663871591179E-02  2.7663871936939E-02  2.7663871739468E-02  2.7663879089207E-02 
 0.0000000000000E+00  0.0000000000000E+00  0.0000000000000E+00  0.0000000000000E+00  0.0000000000000E+00  0.0000000000000E+00  0.0000000000000E+00  0.0000000000000E+00  0.0000000000000E+00  0.0000000000000E+00 
ZONE T = "SEP , 2.0000E-08", I = 10, SOLUTIONTIME = 2.000000E-08
ZONETYPE = ORDERED
DATAPACKING = BLOCK
STRANDID = 2
 7.8740000000000E-04  8.4102222222222E-04  8.9464444444444E-04  9.4826666666667E-04  1.0018888888889E-03  1.0555111111111E-03  1.1091333333333E-03  1.1627555555556E-03  1.2163777777778E-03  1.2700000000000E-03 
 2.0866907776814E-08  2.0865454945903E-08  2.0865454945903E-08  2.0865454945903E-08  2.0865454945903E-08  2.0865454945903E-08  2.0865454945903E-08  2.0865454945903E-08  2.0865454945903E-08  1.9706573431501E-08 
 9.1999999999942E-01  9.2000000000000E-01  9.2000000000000E-01  9.2000000000000E-01  9.2000000000000E-01  9.2000000000000E-01  9.2000000000000E-01  9.2000000000000E-01  9.2000000000000E-01  9.2000000000064E-01 
 4.0000000000288E-02  4.0000000000000E-02  4.0000000000000E-02  4.0000000000000E-02  4.0000000000000E-02  4.0000000000000E-02  4.0000000000000E-02  4.0000000000000E-02  4.0000000000000E-02  3.9999999999682E-02 
 4.0000000000288E-02  4.0000000000000E-02  4.0000000000000E-02  4.0000000000000E-02  4.0000000000000E-02  4.0000000000000E-02  4.0000000000000E-02  4.0000000000000E-02  4.0000000000000E-02  3.9999999999682E-02 
 2.9176841353234E-02  2.9176791978452E-02  2.9176742603669E-02  2.9176693228886E-02  2.9176643854104E-02  2.9176594479321E-02  2.9176545104538E-02  2.9176495729756E-02  2.9176446354973E-02  2.9176396980190E-02 
 2.9814999912458E+02  2.9814999995804E+02  2.9814999999158E+02  2.9814999999654E+02  2.9814999999187E+02  2.9814999999920E+02  2.9815000000141E+02  2.9815000000493E+02  2.9815000002312E+02  2.9815000215776E+02 
 8.0911499769706E-01  8.0911499769706E-01  8.0911499769706E-01  8.0911499769706E-01  8.0911499769706E-01  8.0911499769706E-01  8.0911499769706E-01  8.0911499769706E-01  8.0911499769706E-01  8.0911499769706E-01 
 2.6811111111111E-05  5.3622222222222E-05  5.3622222222222E-05  5.3622222222222E-05  5.3622222222222E-05  5.3622222222222E-05  5.3622222222222E-05  5.3622222222223E-05  5.3622222222222E-05  2.6811111111111E-05 
 1.9088500230294E-01  1.9088500230294E-01  1.9088500230294E-01  1.9088500230294E-01  1.9088500230294E-01  1.9088500230294E-01  1.9088500230294E-01  1.9088500230294E-01  1.9088500230294E-01  1.9088500230294E-01 
 5.5333599229742E-10  5.5333606806656E-10  5.5333606839316E-10  5.5333606622297E-10  5.5333611332549E-10  5.5333603658697E-10  5.5333606496612E-10  5.5333606843679E-10  5.5333606696804E-10  5.5333614097643E-10 
 2.7669734864658E-02  2.7669734883378E-02  2.7669734903150E-02  2.7669734904194E-02  2.7669734906070E-02  2.7669734905787E-02  2.7669734905433E-02  2.7669734906740E-02  2.7669734957336E-02  2.7669735008436E-02 
 2.7669734864658E-02  2.7669734883378E-02  2.7669734903150E-02  2.7669734904194E-02  2.7669734906070E-02  2.7669734905787E-02  2.7669734905433E-02  2.7669734906740E-02  2.7669734957336E-02  2.7669735008436E-02 
 0.0000000000000E+00  0.0000000000000E+00  0.0000000000000E+00  0.0000000000000E+00  0.0000000000000E+00  0.0000000000000E+00  0.0000000000000E+00  0.0000000000000E+00  0.0000000000000E+00  0.0000000000000E+00 
ZONE T = "SEP , 3.0000E-08", I = 10, SOLUTIONTIME = 3.000000E-08
ZONETYPE = ORDERED
DATAPACKING = BLOCK
STRANDID = 2
 7.8740000000000E-04  8.4102222222222E-04  8.9464444444444E-04  9.4826666666667E-04  1.0018888888889E-03  1.0555111111111E-03  1.1091333333333E-03  1.1627555555556E-03  1.2163777777778E-03  1.2700000000000E-03 
 2.0871200794982E-08  2.0872653625893E-08  2.0872653625893E-08  2.0872653625893E-08  2.0872653625893E-08  2.0872653625893E-08  2.0872653625893E-08  2.0872653625893E-08  2.0872653625893E-08  1.9715103611344E-08 
 9.1999999999914E-01  9.2000000000000E-01  9.2000000000000E-01  9.2000000000000E-01  9.2000000000000E-01  9.2000000000000E-01  9.2000000000000E-01  9.2000000000000E-01  9.2000000000000E-01  9.2000000000095E-01 
 4.0000000000432E-02  4.0000000000000E-02  4.0000000000000E-02  4.0000000000000E-02  4.0000000000000E-02  4.0000000000000E-02  4.0000000000000E-02  4.0000000000000E-02  4.0000000000000E-02  3.9999999999524E-02 
 4.0000000000432E-02  4.0000000000000E-02  4.0000000000000E-02  4.0000000000000E-02  4.0000000000000E-02  4.0000000000000E-02  4.0000000000000E-02  4.0000000000000E-02  4.0000000000000E-02  3.9999999999524E-02 
 2.9182234674652E-02  2.9182185294868E-02  2.9182135915084E-02  2.9182086535299E-02  2.9182037155515E-02  2.9181987775731E-02  2.9181938395947E-02  2.9181889016162E-02  2.9181839636378E-02  2.9181790256594E-02 
 2.9814999867352E+02  2.9814999995473E+02  2.9815000000144E+02  2.9815000000146E+02  2.9814999998686E+02  2.9815000000410E+02  2.9815000000136E+02  2.9815000000563E+02  2.9815000004389E+02  2.9815000324730E+02 
 8.0911499769706E-01  8.0911499769706E-01  8.0911499769706E-01  8.0911499769706E-01  8.0911499769706E-01  8.0911499769706E-01  8.0911499769706E-01  8.0911499769706E-01  8.0911499769706E-01  8.0911499769706E-01 
 2.6811111111111E-05  5.3622222222222E-05  5.3622222222222E-05  5.3622222222222E-05  5.3622222222222E-05  5.3622222222222E-05  5.3622222222222E-05  5.3622222222223E-05  5.3622222222222E-05  2.6811111111111E-05 
 1.9088500230294E-01  1.9088500230294E-01  1.9088500230294E-01  1.9088500230294E-01  1.9088500230294E-01  1.9088500230294E-01  1.9088500230294E-01  1.9088500230294E-01  1.9088500230294E-01  1.9088500230294E-01 
 8.3008940120840E-10  8.3008947729088E-10  8.3008947793940E-10  8.3008947578121E-10  8.3008952288649E-10  8.3008944614400E-10  8.3008947453887E-10  8.3008947801876E-10  8.3008947730375E-10  8.3008955207576E-10 
 2.7675340891098E-02  2.7675340922431E-02  2.7675340954625E-02  2.7675340955823E-02  2.7675340956100E-02  2.7675340955703E-02  2.7675340957275E-02  2.7675340958197E-02  2.7675341033571E-02  2.7675341109933E-02 
 2.7675340891098E-02  2.7675340922431E-02  2.7675340954625E-02  2.7675340955823E-02  2.7675340956100E-02  2.7675340955703E-02  2.7675340957275E-02  2.7675340958197E-02  2.7675341033571E-02  2.7675341109933E-02 
 0.0000000000000E+00  0.0000000000000E+00  0.0000000000000E+00  0.0000000000000E+00  0.0000000000000E+00  0.0000000000000E+00  0.0000000000000E+00  0.0000000000000E+00  0.0000000000000E+00  0.0000000000000E+00 
ZONE T = "SEP , 4.0000E-08", I = 10, SOLUTIONTIME = 4.000000E-08
ZONETYPE = ORDERED
DATAPACKING = BLOCK
STRANDID = 2
 7.8740000000000E-04  8.4102222222222E-04  8.9464444444444E-04  9.4826666666667E-04  1.0018888888889E-03  1.0555111111111E-03  1.1091333333333E-03  1.1627555555556E-03  1.2163777777778E-03  1.2700000000000E-03 
 2.0869687858642E-08  2.0869687858642E-08  2.0869687858642E-08  2.0869687858642E-08  2.0869687858642E-08  2.0869687858642E-08  2.0869687858642E-08  2.0869687858642E-08  2.0869687858642E-08  1.9712379436052E-08 
 9.1999999999885E-01  9.2000000000000E-01  9.2000000000000E-01  9.2000000000000E-01  9.2000000000000E-01  9.2000000000000E-01  9.2000000000000E-01  9.2000000000000E-01  9.2000000000000E-01  9.2000000000127E-01 
 4.0000000000576E-02  4.0000000000000E-02  4.0000000000000E-02  4.0000000000000E-02  4.0000000000000E-02  4.0000000000000E-02  4.0000000000000E-02  4.0000000000000E-02  4.0000000000000E-02  3.9999999999365E-02 
 4.0000000000576E-02  4.0000000000000E-02  4.0000000000000E-02  4.0000000000000E-02  4.0000000000000E-02  4.0000000000000E-02  4.0000000000000E-02  4.0000000000000E-02  4.0000000000000E-02  3.9999999999365E-02 
 2.9187639906783E-02  2.9187590521985E-02  2.9187541137186E-02  2.9187491752388E-02  2.9187442367589E-02  2.9187392982791E-02  2.9187343597992E-02  2.9187294213194E-02  2.9187244828396E-02  2.9187195443597E-02 
 2.9814999827562E+02  2.9814999994016E+02  2.9814999999359E+02  2.9814999999511E+02  2.9814999998776E+02  2.9815000000849E+02  2.9815000000684E+02  2.9815000001286E+02  2.9815000008336E+02  2.9815000438194E+02 
 8.0911499769706E-01  8.0911499769706E-01  8.0911499769706E-01  8.0911499769706E-01  8.0911499769706E-01  8.0911499769706E-01  8.0911499769706E-01  8.0911499769706E-01  8.0911499769706E-01  8.0911499769706E-01 
 2.6811111111111E-05  5.3622222222222E-05  5.3622222222222E-05  5.3622222222222E-05  5.3622222222222E-05  5.3622222222222E-05  5.3622222222222E-05  5.3622222222223E-05  5.3622222222222E-05  2.6811111111111E-05 
 1.9088500230294E-01  1.9088500230294E-01  1.9088500230294E-01  1.9088500230294E-01  1.9088500230294E-01  1.9088500230294E-01  1.9088500230294E-01  1.9088500230294E-01  1.9088500230294E-01  1.9088500230294E-01 
 1.1068990185490E-09  1.1068990950290E-09  1.1068990960818E-09  1.1068990939317E-09  1.1068991410546E-09  1.1068990643241E-09  1.1068990927135E-09  1.1068990961940E-09  1.1068990965269E-09  1.1068991723451E-09 
 2.7680961734058E-02  2.7680961773815E-02  2.7680961814241E-02  2.7680961815046E-02  2.7680961816815E-02  2.7680961818006E-02  2.7680961817462E-02  2.7680961817529E-02  2.7680961922315E-02  2.7680962026932E-02 
 2.7680961734058E-02  2.7680961773815E-02  2.7680961814241E-02  2.7680961815046E-02  2.7680961816815E-02  2.7680961818006E-02  2.7680961817462E-02  2.7680961817529E-02  2.7680961922315E-02  2.7680962026932E-02 
 0.0000000000000E+00  0.0000000000000E+00  0.0000000000000E+00  0.0000000000000E+00  0.0000000000000E+00  0.0000000000000E+00  0.0000000000000E+00  0.0000000000000E+00  0.0000000000000E+00  0.0000000000000E+00 
ZONE T = "SEP , 5.5000E-08", I = 10, SOLUTIONTIME = 5.500000E-08
ZONETYPE = ORDERED
DATAPACKING = BLOCK
STRANDID = 2
 7.8740000000000E-04  8.4102222222222E-04  8.9464444444444E-04  9.4826666666667E-04  1.0018888888889E-03  1.0555111111111E-03  1.1091333333333E-03  1.1627555555556E-03  1.2163777777778E-03  1.2700000000000E-03 
 2.0874808137092E-08  2.0874808137092E-08  2.0874808137092E-08  2.0874808137092E-08  2.0874808137092E-08  2.0874808137092E-08  2.0874808137092E-08  2.0874808137092E-08  2.0874808137092E-08  1.9715803723366E-08 
 9.1999999999842E-01  9.2000000000000E-01  9.2000000000000E-01  9.2000000000000E-01  9.2000000000000E-01  9.2000000000000E-01  9.2000000000000E-01  9.2000000000000E-01  9.2000000000000E-01  9.2000000000175E-01 
 4.0000000000791E-02  4.0000000000000E-02  4.0000000000000E-02  4.0000000000000E-02  4.0000000000000E-02  4.0000000000000E-02  4.0000000000000E-02  4.0000000000000E-02  4.0000000000000E-02  3.9999999999127E-02 
 4.0000000000791E-02  4.0000000000000E-02  4.0000000000000E-02  4.0000000000000E-02  4.0000000000000E-02  4.0000000000000E-02  4.0000000000000E-02  4.0000000000000E-02  4.0000000000000E-02  3.9999999999127E-02 
 2.9195755521625E-02  2.9195706129295E-02  2.9195656736964E-02  2.9195607344634E-02  2.9195557952303E-02  2.9195508559973E-02  2.9195459167642E-02  2.9195409775312E-02  2.9195360382982E-02  2.9195310990651E-02 
 2.9814999756813E+02  2.9814999990938E+02  2.9814999999070E+02  2.9815000000169E+02  2.9814999998971E+02  2.9815000000352E+02  2.9815000000963E+02  2.9815000002149E+02  2.9815000016233E+02  2.9815000611909E+02 
 8.0911499769706E-01  8.0911499769706E-01  8.0911499769706E-01  8.0911499769706E-01  8.0911499769706E-01  8.0911499769706E-01  8.0911499769706E-01  8.0911499769706E-01  8.0911499769706E-01  8.0911499769706E-01 
 2.6811111111111E-05  5.3622222222222E-05  5.3622222222222E-05  5.3622222222222E-05  5.3622222222222E-05  5.3622222222222E-05  5.3622222222222E-05  5.3622222222223E-05  5.3622222222222E-05  2.6811111111111E-05 
 1.9088500230294E-01  1.9088500230294E-01  1.9088500230294E-01  1.9088500230294E-01  1.9088500230294E-01  1.9088500230294E-01  1.9088500230294E-01  1.9088500230294E-01  1.9088500230294E-01  1.9088500230294E-01 
 1.5222401068978E-09  1.5222401842242E-09  1.5222401861496E-09  1.5222401840260E-09  1.5222402311486E-09  1.5222401544105E-09  1.5222401828159E-09  1.5222401863829E-09  1.5222401888837E-09  1.5222402668064E-09 
 2.7689405889919E-02  2.7689405946344E-02  2.7689406004516E-02  2.7689406006286E-02  2.7689406006266E-02  2.7689406005762E-02  2.7689406006827E-02  2.7689406012589E-02  2.7689406157122E-02  2.7689406297420E-02 
 2.7689405889919E-02  2.7689405946344E-02  2.7689406004516E-02  2.7689406006286E-02  2.7689406006266E-02  2.7689406005762E-02  2.7689406006827E-02  2.7689406012589E-02  2.7689406157122E-02  2.7689406297420E-02 
 0.0000000000000E+00  0.0000000000000E+00  0.0000000000000E+00  0.0000000000000E+00  0.0000000000000E+00  0.0000000000000E+00  0.0000000000000E+00  0.0000000000000E+00  0.0000000000000E+00  0.0000000000000E+00 
ZONE T = "SEP , 7.7500E-08", I = 10, SOLUTIONTIME = 7.750000E-08
ZONETYPE = ORDERED
DATAPACKING = BLOCK
STRANDID = 2
 7.8740000000000E-04  8.4102222222222E-04  8.9464444444444E-04  9.4826666666667E-04  1.0018888888889E-03  1.0555111111111E-03  1.1091333333333E-03  1.1627555555556E-03  1.2163777777778E-03  1.2700000000000E-03 
 2.0878780441748E-08  2.0878780441748E-08  2.0878780441748E-08  2.0878780441748E-08  2.0878780441748E-08  2.0878780441748E-08  2.0878780441748E-08  2.0878780441748E-08  2.0878780441748E-08  1.9720268687378E-08 
 9.1999999999777E-01  9.2000000000000E-01  9.2000000000000E-01  9.2000000000000E-01  9.2000000000000E-01  9.2000000000000E-01  9.2000000000000E-01  9.2000000000000E-01  9.2000000000000E-01  9.2000000000246E-01 
 4.0000000001114E-02  4.0000000000000E-02  4.0000000000000E-02  4.0000000000000E-02  4.0000000000000E-02  4.0000000000000E-02  4.0000000000000E-02  4.0000000000000E-02  4.0000000000000E-02  3.9999999998769E-02 
 4.0000000001114E-02  4.0000000000000E-02  4.0000000000000E-02  4.0000000000000E-02  4.0000000000000E-02  4.0000000000000E-02  4.0000000000000E-02  4.0000000000000E-02  4.0000000000000E-02  3.9999999998769E-02 
 2.9207934006565E-02  2.9207884602926E-02  2.9207835199287E-02  2.9207785795647E-02  2.9207736392008E-02  2.9207686988368E-02  2.9207637584729E-02  2.9207588181090E-02  2.9207538777450E-02  2.9207489373810E-02 
 2.9814999654551E+02  2.9814999984646E+02  2.9814999998695E+02  2.9815000000467E+02  2.9814999998830E+02  2.9815000000096E+02  2.9815000000868E+02  2.9815000002915E+02  2.9815000032516E+02  2.9815000878985E+02 
 8.0911499769706E-01  8.0911499769706E-01  8.0911499769706E-01  8.0911499769706E-01  8.0911499769706E-01  8.0911499769706E-01  8.0911499769706E-01  8.0911499769706E-01  8.0911499769706E-01  8.0911499769706E-01 
 2.6811111111111E-05  5.3622222222222E-05  5.3622222222222E-05  5.3622222222222E-05  5.3622222222222E-05  5.3622222222222E-05  5.3622222222222E-05  5.3622222222223E-05  5.3622222222222E-05  2.6811111111111E-05 
 1.9088500230294E-01  1.9088500230294E-01  1.9088500230294E-01  1.9088500230294E-01  1.9088500230294E-01  1.9088500230294E-01  1.9088500230294E-01  1.9088500230294E-01  1.9088500230294E-01  1.9088500230294E-01 
 2.1455370632077E-09  2.1455371423643E-09  2.1455371462122E-09  2.1455371441803E-09  2.1455371913042E-09  2.1455371145573E-09  2.1455371429811E-09  2.1455371467619E-09  2.1455371539686E-09  2.1455372364124E-09 
 2.7702086947110E-02  2.7702087028448E-02  2.7702087113894E-02  2.7702087117969E-02  2.7702087118024E-02  2.7702087117637E-02  2.7702087118454E-02  2.7702087127956E-02  2.7702087337107E-02  2.7702087538045E-02 
 2.7702086947110E-02  2.7702087028448E-02  2.7702087113894E-02  2.7702087117969E-02  2.7702087118024E-02  2.7702087117637E-02  2.7702087118454E-02  2.7702087127956E-02  2.7702087337107E-02  2.7702087538045E-02 
 0.0000000000000E+00  0.0000000000000E+00  0.0000000000000E+00  0.0000000000000E+00  0.0000000000000E+00  0.0000000000000E+00  0.0000000000000E+00  0.0000000000000E+00  0.0000000000000E+00  0.0000000000000E+00 
ZONE T = "SEP , 1.1125E-07", I = 10, SOLUTIONTIME = 1.112500E-07
ZONETYPE = ORDERED
DATAPACKING = BLOCK
STRANDID = 2
 7.8740000000000E-04  8.4102222222222E-04  8.9464444444444E-04  9.4826666666667E-04  1.0018888888889E-03  1.0555111111111E-03  1.1091333333333E-03  1.1627555555556E-03  1.2163777777778E-03  1.2700000000000E-03 
 2.0886700279025E-08  2.0886700279025E-08  2.0886700279025E-08  2.0886700279025E-08  2.0886700279025E-08  2.0886700279025E-08  2.0886700279025E-08  2.0886700279025E-08  2.0886700279025E-08  1.9727454816511E-08 
 9.1999999999680E-01  9.2000000000000E-01  9.2000000000000E-01  9.2000000000000E-01  9.2000000000000E-01  9.2000000000000E-01  9.2000000000000E-01  9.2000000000000E-01  9.2000000000000E-01  9.2000000000353E-01 
 4.0000000001598E-02  4.0000000000000E-02  4.0000000000000E-02  4.0000000000000E-02  4.0000000000000E-02  4.0000000000000E-02  4.0000000000000E-02  4.0000000000000E-02  4.0000000000000E-02  3.9999999998233E-02 
 4.0000000001598E-02  4.0000000000000E-02  4.0000000000000E-02  4.0000000000000E-02  4.0000000000000E-02  4.0000000000000E-02  4.0000000000000E-02  4.0000000000000E-02  4.0000000000000E-02  3.9999999998233E-02 
 2.9226181959753E-02  2.9226132539157E-02  2.9226083118561E-02  2.9226033697964E-02  2.9225984277367E-02  2.9225934856771E-02  2.9225885436174E-02  2.9225836015577E-02  2.9225786594981E-02  2.9225737174383E-02 
 2.9814999497577E+02  2.9814999971586E+02  2.9814999997795E+02  2.9815000000617E+02  2.9814999998769E+02  2.9814999999187E+02  2.9815000000841E+02  2.9815000004339E+02  2.9815000068392E+02  2.9815001291394E+02 
 8.0911499769706E-01  8.0911499769706E-01  8.0911499769706E-01  8.0911499769706E-01  8.0911499769706E-01  8.0911499769706E-01  8.0911499769706E-01  8.0911499769706E-01  8.0911499769706E-01  8.0911499769706E-01 
 2.6811111111111E-05  5.3622222222222E-05  5.3622222222222E-05  5.3622222222222E-05  5.3622222222222E-05  5.3622222222222E-05  5.3622222222222E-05  5.3622222222223E-05  5.3622222222222E-05  2.6811111111111E-05 
 1.9088500230294E-01  1.9088500230294E-01  1.9088500230294E-01  1.9088500230294E-01  1.9088500230294E-01  1.9088500230294E-01  1.9088500230294E-01  1.9088500230294E-01  1.9088500230294E-01  1.9088500230294E-01 
 3.0811244242944E-09  3.0811245073333E-09  3.0811245153614E-09  3.0811245135538E-09  3.0811245606814E-09  3.0811244839951E-09  3.0811245124280E-09  3.0811245167549E-09  3.0811245346050E-09  3.0811246271712E-09 
 2.7721106995159E-02  2.7721107110194E-02  2.7721107234051E-02  2.7721107240699E-02  2.7721107240805E-02  2.7721107242602E-02  2.7721107242869E-02  2.7721107259053E-02  2.7721107574412E-02  2.7721107874335E-02 
 2.7721106995159E-02  2.7721107110194E-02  2.7721107234051E-02  2.7721107240699E-02  2.7721107240805E-02  2.7721107242602E-02  2.7721107242869E-02  2.7721107259053E-02  2.7721107574412E-02  2.7721107874335E-02 
 0.0000000000000E+00  0.0000000000000E+00  0.0000000000000E+00  0.0000000000000E+00  0.0000000000000E+00  0.0000000000000E+00  0.0000000000000E+00  0.0000000000000E+00  0.0000000000000E+00  0.0000000000000E+00 
ZONE T = "SEP , 1.6188E-07", I = 10, SOLUTIONTIME = 1.618750E-07
ZONETYPE = ORDERED
DATAPACKING = BLOCK
STRANDID = 2
 7.8740000000000E-04  8.4102222222222E-04  8.9464444444444E-04  9.4826666666667E-04  1.0018888888889E-03  1.0555111111111E-03  1.1091333333333E-03  1.1627555555556E-03  1.2163777777778E-03  1.2700000000000E-03 
 2.0896912440003E-08  2.0896912440003E-08  2.0896912440003E-08  2.0896912440003E-08  2.0896912440003E-08  2.0896912440003E-08  2.0896912440003E-08  2.0896912440003E-08  2.0896912440003E-08  1.9737501369697E-08 
 9.1999999999536E-01  9.2000000000000E-01  9.2000000000000E-01  9.2000000000000E-01  9.2000000000000E-01  9.2000000000000E-01  9.2000000000000E-01  9.2000000000000E-01  9.2000000000000E-01  9.2000000000514E-01 
 4.0000000002321E-02  4.0000000000001E-02  4.0000000000000E-02  4.0000000000000E-02  4.0000000000000E-02  4.0000000000000E-02  4.0000000000000E-02  4.0000000000000E-02  3.9999999999999E-02  3.9999999997428E-02 
 4.0000000002321E-02  4.0000000000001E-02  4.0000000000000E-02  4.0000000000000E-02  4.0000000000000E-02  4.0000000000000E-02  4.0000000000000E-02  4.0000000000000E-02  3.9999999999999E-02  3.9999999997428E-02 
 2.9253439657425E-02  2.9253390211477E-02  2.9253340765528E-02  2.9253291319579E-02  2.9253241873630E-02  2.9253192427682E-02  2.9253142981733E-02  2.9253093535784E-02  2.9253044089835E-02  2.9252994643885E-02 
 2.9814999261260E+02  2.9814999944233E+02  2.9814999996017E+02  2.9814999999777E+02  2.9814999998775E+02  2.9814999998068E+02  2.9815000000703E+02  2.9815000008432E+02  2.9815000142855E+02  2.9815001936790E+02 
 8.0911499769706E-01  8.0911499769706E-01  8.0911499769706E-01  8.0911499769706E-01  8.0911499769706E-01  8.0911499769706E-01  8.0911499769706E-01  8.0911499769706E-01  8.0911499769706E-01  8.0911499769706E-01 
 2.6811111111111E-05  5.3622222222222E-05  5.3622222222222E-05  5.3622222222222E-05  5.3622222222222E-05  5.3622222222222E-05  5.3622222222222E-05  5.3622222222223E-05  5.3622222222222E-05  2.6811111111111E-05 
 1.9088500230294E-01  1.9088500230294E-01  1.9088500230294E-01  1.9088500230294E-01  1.9088500230294E-01  1.9088500230294E-01  1.9088500230294E-01  1.9088500230294E-01  1.9088500230294E-01  1.9088500230294E-01 
 4.4859456599085E-09  4.4859457517192E-09  4.4859457690475E-09  4.4859457679332E-09  4.4859458151469E-09  4.4859457383596E-09  4.4859457669433E-09  4.4859457730223E-09  4.4859458153516E-09  4.4859459308187E-09 
 2.7749555271391E-02  2.7749555444659E-02  2.7749555628368E-02  2.7749555642061E-02  2.7749555643764E-02  2.7749555641767E-02  2.7749555644748E-02  2.7749555679355E-02  2.7749556162896E-02  2.7749556615259E-02 
 2.7749555271391E-02  2.7749555444659E-02  2.7749555628368E-02  2.7749555642061E-02  2.7749555643764E-02  2.7749555641767E-02  2.7749555644748E-02  2.7749555679355E-02  2.7749556162896E-02  2.7749556615259E-02 
 0.0000000000000E+00  0.0000000000000E+00  0.0000000000000E+00  0.0000000000000E+00  0.0000000000000E+00  0.0000000000000E+00  0.0000000000000E+00  0.0000000000000E+00  0.0000000000000E+00  0.0000000000000E+00 
ZONE T = "SEP , 2.3781E-07", I = 10, SOLUTIONTIME = 2.378125E-07
ZONETYPE = ORDERED
DATAPACKING = BLOCK
STRANDID = 2
 7.8740000000000E-04  8.4102222222222E-04  8.9464444444444E-04  9.4826666666667E-04  1.0018888888889E-03  1.0555111111111E-03  1.1091333333333E-03  1.1627555555556E-03  1.2163777777778E-03  1.2700000000000E-03 
 2.0913260003422E-08  2.0913546982368E-08  2.0913546982368E-08  2.0913546982368E-08  2.0913546982368E-08  2.0913546982368E-08  2.0913546982368E-08  2.0913546982368E-08  2.0913451322719E-08  1.9752648735916E-08 
 9.1999999999319E-01  9.2000000000000E-01  9.2000000000000E-01  9.2000000000000E-01  9.2000000000000E-01  9.2000000000000E-01  9.2000000000000E-01  9.2000000000000E-01  9.2000000000000E-01  9.2000000000756E-01 
 4.0000000003403E-02  4.0000000000002E-02  4.0000000000000E-02  4.0000000000000E-02  4.0000000000000E-02  4.0000000000000E-02  4.0000000000000E-02  4.0000000000000E-02  3.9999999999998E-02  3.9999999996220E-02 
 4.0000000003403E-02  4.0000000000002E-02  4.0000000000000E-02  4.0000000000000E-02  4.0000000000000E-02  4.0000000000000E-02  4.0000000000000E-02  4.0000000000000E-02  3.9999999999998E-02  3.9999999996220E-02 
 2.9293951267176E-02  2.9293901783509E-02  2.9293852299841E-02  2.9293802816173E-02  2.9293753332505E-02  2.9293703848837E-02  2.9293654365169E-02  2.9293604881501E-02  2.9293555397833E-02  2.9293505914163E-02 
 2.9814998907345E+02  2.9814999887042E+02  2.9814999990569E+02  2.9814999999444E+02  2.9814999998726E+02  2.9814999997532E+02  2.9815000001613E+02  2.9815000025906E+02  2.9815000302123E+02  2.9815002943486E+02 
 8.0911499769706E-01  8.0911499769706E-01  8.0911499769706E-01  8.0911499769706E-01  8.0911499769706E-01  8.0911499769706E-01  8.0911499769706E-01  8.0911499769706E-01  8.0911499769706E-01  8.0911499769706E-01 
 2.6811111111111E-05  5.3622222222222E-05  5.3622222222222E-05  5.3622222222222E-05  5.3622222222222E-05  5.3622222222222E-05  5.3622222222222E-05  5.3622222222223E-05  5.3622222222222E-05  2.6811111111111E-05 