TITLE = "Solution on Domain BulkDomain1D_2"
VARIABLES = "x [m]"  
"Vel_axial" 	"MF_sp(ECDMC)" 	"MF_sp(Li+)" 	"MF_sp(PF6-)" 	"Volt(Electroly)" 	"Volt(CathodeVo)" 	"Temperature" 	
"Potential Drop Electrode-Electrolyte [V]" 	"Surf_0 Equilibrium Potential Drop Electrode-Electrolyte [V]" 	"Overpotential_0 [V]" 	"Current Source [A/m^2]" 	"Li+ flux [kmol/m^2/s]" 	"Electrolyte Current [A/m^2]" 	"Electrode Current [A/m^2]" 	
"CV Capacity discharged [A-s/m^2]" 	"Depth of discharge in CV [A-s/m^2]" 	"CV Capacity remaining [A-s/m^2]" 	"Initial CV capacity [A-s/m^2]" 	"Porosity []" 	"Surface Area [m2/m2] (area per area)" 	"Specific current (per particle area) [A/m^2]" 	"Control volume thickness [m]" 	
"MoleDens LiCoO2 [kmol/m^3]" 	"MoleDens CoO2 [kmol/m^3]" 	"qHeat_accum [J/m3]" 	"qHeat_step [W/m3]" 	"Joule_Lyte [W/m3]" 	"Joule_Solid [W/m3]" 	"electrodHeat [W/m3]" 	"OverpotHeat [W/m3]" 	"deltaSHeat [W/m3]" 	

ZONE T = "CATH, 0.0000E+00", I = 10, SOLUTIONTIME = 0.000000E+00
ZONETYPE = ORDERED
DATAPACKING = BLOCK
STRANDID = 3
 1.2700000000000E-03  1.3377333333333E-03  1.4054666666667E-03  1.4732000000000E-03  1.5409333333333E-03  1.6086666666667E-03  1.6764000000000E-03  1.7441333333333E-03  1.8118666666667E-03  1.8796000000000E-03 
 0.0000000000000E+00  0.0000000000000E+00  0.0000000000000E+00  0.0000000000000E+00  0.0000000000000E+00  0.0000000000000E+00  0.0000000000000E+00  0.0000000000000E+00  0.0000000000000E+00  0.0000000000000E+00 
 9.2000000000000E-01  9.2000000000000E-01  9.2000000000000E-01  9.2000000000000E-01  9.2000000000000E-01  9.2000000000000E-01  9.2000000000000E-01  9.2000000000000E-01  9.2000000000000E-01  9.2000000000000E-01 
 4.0000000000000E-02  4.0000000000000E-02  4.0000000000000E-02  4.0000000000000E-02  4.0000000000000E-02  4.0000000000000E-02  4.0000000000000E-02  4.0000000000000E-02  4.0000000000000E-02  4.0000000000000E-02 
 4.0000000000000E-02  4.0000000000000E-02  4.0000000000000E-02  4.0000000000000E-02  4.0000000000000E-02  4.0000000000000E-02  4.0000000000000E-02  4.0000000000000E-02  4.0000000000000E-02  4.0000000000000E-02 
-7.0000000000000E-02 -7.0000000000000E-02 -7.0000000000000E-02 -7.0000000000000E-02 -7.0000000000000E-02 -7.0000000000000E-02 -7.0000000000000E-02 -7.0000000000000E-02 -7.0000000000000E-02 -7.0000000000000E-02 
 3.8000000000000E+00  3.8000000000000E+00  3.8000000000000E+00  3.8000000000000E+00  3.8000000000000E+00  3.8000000000000E+00  3.8000000000000E+00  3.8000000000000E+00  3.8000000000000E+00  3.8000000000000E+00 
 2.9815000000000E+02  2.9815000000000E+02  2.9815000000000E+02  2.9815000000000E+02  2.9815000000000E+02  2.9815000000000E+02  2.9815000000000E+02  2.9815000000000E+02  2.9815000000000E+02  2.9815000000000E+02 
 3.8700000000000E+00  3.8700000000000E+00  3.8700000000000E+00  3.8700000000000E+00  3.8700000000000E+00  3.8700000000000E+00  3.8700000000000E+00  3.8700000000000E+00  3.8700000000000E+00  3.8700000000000E+00 
 3.9714142713289E+00  3.9714142713289E+00  3.9714142713289E+00  3.9714142713289E+00  3.9714142713289E+00  3.9714142713289E+00  3.9714142713289E+00  3.9714142713289E+00  3.9714142713289E+00  3.9714142713289E+00 
-1.0141427132889E-01 -1.0141427132889E-01 -1.0141427132889E-01 -1.0141427132889E-01 -1.0141427132889E-01 -1.0141427132889E-01 -1.0141427132889E-01 -1.0141427132889E-01 -1.0141427132889E-01 -1.0141427132889E-01 
-2.3826357195711E-01 -4.7652714391422E-01 -4.7652714391423E-01 -4.7652714391422E-01 -4.7652714391423E-01 -4.7652714391423E-01 -4.7652714391422E-01 -4.7652714391423E-01 -4.7652714391422E-01 -2.3826357195711E-01 
-0.0000000000000E+00 -0.0000000000000E+00 -0.0000000000000E+00 -0.0000000000000E+00 -0.0000000000000E+00 -0.0000000000000E+00 -0.0000000000000E+00 -0.0000000000000E+00 -0.0000000000000E+00 -0.0000000000000E+00 
 2.3826357195711E-01  0.0000000000000E+00  0.0000000000000E+00  0.0000000000000E+00  0.0000000000000E+00  0.0000000000000E+00  0.0000000000000E+00  0.0000000000000E+00  0.0000000000000E+00  0.0000000000000E+00 
 0.0000000000000E+00 -0.0000000000000E+00 -0.0000000000000E+00 -0.0000000000000E+00 -0.0000000000000E+00 -0.0000000000000E+00 -0.0000000000000E+00 -0.0000000000000E+00 -0.0000000000000E+00  2.3826357195711E-01 
-0.0000000000000E+00 -0.0000000000000E+00 -0.0000000000000E+00 -0.0000000000000E+00 -0.0000000000000E+00 -0.0000000000000E+00 -0.0000000000000E+00 -0.0000000000000E+00 -0.0000000000000E+00 -0.0000000000000E+00 
 7.2440786946225E+03  1.4488157389245E+04  1.4488157389245E+04  1.4488157389245E+04  1.4488157389245E+04  1.4488157389245E+04  1.4488157389245E+04  1.4488157389245E+04  1.4488157389245E+04  7.2440786946225E+03 
 4.9259735123433E+04  9.8519470246865E+04  9.8519470246866E+04  9.8519470246865E+04  9.8519470246866E+04  9.8519470246866E+04  9.8519470246865E+04  9.8519470246866E+04  9.8519470246865E+04  4.9259735123433E+04 
 5.6503813818055E+04  1.1300762763611E+05  1.1300762763611E+05  1.1300762763611E+05  1.1300762763611E+05  1.1300762763611E+05  1.1300762763611E+05  1.1300762763611E+05  1.1300762763611E+05  5.6503813818055E+04 
 3.5000000000000E-01  3.5000000000000E-01  3.5000000000000E-01  3.5000000000000E-01  3.5000000000000E-01  3.5000000000000E-01  3.5000000000000E-01  3.5000000000000E-01  3.5000000000000E-01  3.5000000000000E-01 
 6.6040000000000E+00  1.3208000000000E+01  1.3208000000000E+01  1.3208000000000E+01  1.3208000000000E+01  1.3208000000000E+01  1.3208000000000E+01  1.3208000000000E+01  1.3208000000000E+01  6.6040000000000E+00 
-3.6078675341780E-02 -3.6078675341780E-02 -3.6078675341780E-02 -3.6078675341780E-02 -3.6078675341780E-02 -3.6078675341780E-02 -3.6078675341780E-02 -3.6078675341780E-02 -3.6078675341780E-02 -3.6078675341780E-02 
 3.3866666666667E-05  6.7733333333333E-05  6.7733333333334E-05  6.7733333333333E-05  6.7733333333334E-05  6.7733333333334E-05  6.7733333333333E-05  6.7733333333334E-05  6.7733333333333E-05  3.3866666666667E-05 
 2.6603001364256E+01  2.6603001364256E+01  2.6603001364256E+01  2.6603001364256E+01  2.6603001364256E+01  2.6603001364256E+01  2.6603001364256E+01  2.6603001364256E+01  2.6603001364256E+01  2.6603001364256E+01 
 1.7735334242838E+01  1.7735334242838E+01  1.7735334242838E+01  1.7735334242838E+01  1.7735334242838E+01  1.7735334242838E+01  1.7735334242838E+01  1.7735334242838E+01  1.7735334242838E+01  1.7735334242838E+01 
 0.0000000000000E+00  0.0000000000000E+00  0.0000000000000E+00  0.0000000000000E+00  0.0000000000000E+00  0.0000000000000E+00  0.0000000000000E+00  0.0000000000000E+00  0.0000000000000E+00  0.0000000000000E+00 
 0.0000000000000E+00  0.0000000000000E+00  0.0000000000000E+00  0.0000000000000E+00  0.0000000000000E+00  0.0000000000000E+00  0.0000000000000E+00  0.0000000000000E+00  0.0000000000000E+00  0.0000000000000E+00 
 0.0000000000000E+00  0.0000000000000E+00  0.0000000000000E+00  0.0000000000000E+00  0.0000000000000E+00  0.0000000000000E+00  0.0000000000000E+00  0.0000000000000E+00  0.0000000000000E+00  0.0000000000000E+00 
 0.0000000000000E+00  0.0000000000000E+00  0.0000000000000E+00  0.0000000000000E+00  0.0000000000000E+00  0.0000000000000E+00  0.0000000000000E+00  0.0000000000000E+00  0.0000000000000E+00  0.0000000000000E+00 
 0.0000000000000E+00  0.0000000000000E+00  0.0000000000000E+00  0.0000000000000E+00  0.0000000000000E+00  0.0000000000000E+00  0.0000000000000E+00  0.0000000000000E+00  0.0000000000000E+00  0.0000000000000E+00 
 0.0000000000000E+00  0.0000000000000E+00  0.0000000000000E+00  0.0000000000000E+00  0.0000000000000E+00  0.0000000000000E+00  0.0000000000000E+00  0.0000000000000E+00  0.0000000000000E+00  0.0000000000000E+00 
 0.0000000000000E+00  0.0000000000000E+00  0.0000000000000E+00  0.0000000000000E+00  0.0000000000000E+00  0.0000000000000E+00  0.0000000000000E+00  0.0000000000000E+00  0.0000000000000E+00  0.0000000000000E+00 
ZONE T = "CATH, 1.0000E-08", I = 10, SOLUTIONTIME = 1.000000E-08
ZONETYPE = ORDERED
DATAPACKING = BLOCK
STRANDID = 3
 1.2700000000000E-03  1.3377333333333E-03  1.4054666666667E-03  1.4732000000000E-03  1.5409333333333E-03  1.6086666666667E-03  1.6764000000000E-03  1.7441333333333E-03  1.8118666666667E-03  1.8796000000000E-03 
 1.9707213516488E-08  1.7391068161572E-08  1.5074639410387E-08  1.2757731667513E-08  1.0439785953865E-08  8.1213326689308E-09  5.8018123226445E-09  3.4813915136434E-09  1.1591498633153E-09 -2.9056617130648E-12 
 9.2000000000032E-01  9.2000000000090E-01  9.2000000000090E-01  9.2000000000090E-01  9.2000000000090E-01  9.2000000000090E-01  9.2000000000090E-01  9.2000000000090E-01  9.2000000000090E-01  9.2000000000090E-01 
 3.9999999999841E-02  3.9999999999551E-02  3.9999999999551E-02  3.9999999999551E-02  3.9999999999550E-02  3.9999999999550E-02  3.9999999999550E-02  3.9999999999550E-02  3.9999999999549E-02  3.9999999999549E-02 
 3.9999999999841E-02  3.9999999999551E-02  3.9999999999551E-02  3.9999999999551E-02  3.9999999999550E-02  3.9999999999550E-02  3.9999999999550E-02  3.9999999999550E-02  3.9999999999549E-02  3.9999999999549E-02 
 2.9171015641121E-02  2.9170808610174E-02  2.9170625907744E-02  2.9170467536827E-02  2.9170333502429E-02  2.9170223811665E-02  2.9170138473660E-02  2.9170077499646E-02  2.9170040902873E-02  2.9170028698706E-02 
 3.8001746603048E+00  3.8001725051918E+00  3.8001660396881E+00  3.8001552632664E+00  3.8001401750350E+00  3.8001207737380E+00  3.8000970577546E+00  3.8000690250987E+00  3.8000366734182E+00  3.8000000000000E+00 
 2.9815000103232E+02  2.9815000409701E+02  2.9815000419910E+02  2.9815000419743E+02  2.9815000417017E+02  2.9815000421011E+02  2.9815000416849E+02  2.9815000385990E+02  2.9814998662063E+02  2.9814916178328E+02 
 3.7710036446637E+00  3.7710016965816E+00  3.7709954137804E+00  3.7709847957296E+00  3.7709698415326E+00  3.7709505499264E+00  3.7709269192810E+00  3.7708989475991E+00  3.7708666325154E+00  3.7708299713013E+00 
 3.9714142704954E+00  3.9714142680215E+00  3.9714142679391E+00  3.9714142679404E+00  3.9714142679624E+00  3.9714142679302E+00  3.9714142679638E+00  3.9714142682129E+00  3.9714142821282E+00  3.9714149479250E+00 
-2.0041062583176E-01 -2.0041257143986E-01 -2.0041885415867E-01 -2.0042947221083E-01 -2.0044442642983E-01 -2.0046371800382E-01 -2.0048734868279E-01 -2.0051532061377E-01 -2.0054764961280E-01 -2.0058497662372E-01 
-1.6673997651233E+00 -3.3349268748855E+00 -3.3353350185212E+00 -3.3360248560542E+00 -3.3369966409523E+00 -3.3382507258345E+00 -3.3397874947908E+00 -3.3416074179008E+00 -3.3437066855016E+00 -1.6729379511434E+00 
 1.4706617826643E-07  1.2978409346481E-07  1.1250001374652E-07  9.5212377870056E-08  7.7919688274450E-08  6.0620515961591E-08  4.3313365723649E-08  2.5996804063261E-08  8.6693370714462E-09  8.6693370714462E-09 
 3.0046833563729E+01  2.6711978821912E+01  2.3376863596603E+01  2.0041199981890E+01  1.6704705640354E+01  1.3367098202347E+01  1.0028095524118E+01  6.6874150286460E+00  3.3447742658560E+00  0.0000000000000E+00 
 0.0000000000000E+00  3.3348470751405E+00  6.6699618725652E+00  1.0005625619794E+01  1.3342120116422E+01  1.6679727464571E+01  2.0018730135206E+01  2.3359411025513E+01  2.6702051363184E+01  3.0046834260359E+01 
 1.6673997651233E-08  3.3349268748855E-08  3.3353350185212E-08  3.3360248560542E-08  3.3369966409523E-08  3.3382507258345E-08  3.3397874947908E-08  3.3416074179008E-08  3.3437066855016E-08  1.6729379511434E-08 
 7.2440786946392E+03  1.4488157389278E+04  1.4488157389278E+04  1.4488157389278E+04  1.4488157389278E+04  1.4488157389278E+04  1.4488157389278E+04  1.4488157389278E+04  1.4488157389278E+04  7.2440786946392E+03 
 4.9259735123416E+04  9.8519470246832E+04  9.8519470246832E+04  9.8519470246832E+04  9.8519470246832E+04  9.8519470246832E+04  9.8519470246832E+04  9.8519470246832E+04  9.8519470246832E+04  4.9259735123416E+04 
 5.6503813818055E+04  1.1300762763611E+05  1.1300762763611E+05  1.1300762763611E+05  1.1300762763611E+05  1.1300762763611E+05  1.1300762763611E+05  1.1300762763611E+05  1.1300762763611E+05  5.6503813818055E+04 
 3.5000000000000E-01  3.5000000000000E-01  3.5000000000000E-01  3.5000000000000E-01  3.5000000000000E-01  3.5000000000000E-01  3.5000000000000E-01  3.5000000000000E-01  3.5000000000000E-01  3.5000000000000E-01 
 6.6040000000000E+00  1.3208000000000E+01  1.3208000000000E+01  1.3208000000000E+01  1.3208000000000E+01  1.3208000000000E+01  1.3208000000000E+01  1.3208000000000E+01  1.3208000000000E+01  6.6040000000000E+00 
-2.5248330786240E-01 -2.5249294934021E-01 -2.5252385058458E-01 -2.5257607934996E-01 -2.5264965482679E-01 -2.5274460371248E-01 -2.5286095508713E-01 -2.5299874454124E-01 -2.5315768363883E-01 -2.5332191870736E-01 
 3.3866666666667E-05  6.7733333333333E-05  6.7733333333334E-05  6.7733333333333E-05  6.7733333333334E-05  6.7733333333334E-05  6.7733333333333E-05  6.7733333333334E-05  6.7733333333333E-05  3.3866666666667E-05 
 2.6603001364262E+01  2.6603001364262E+01  2.6603001364262E+01  2.6603001364262E+01  2.6603001364262E+01  2.6603001364262E+01  2.6603001364262E+01  2.6603001364262E+01  2.6603001364262E+01  2.6603001364262E+01 
 1.7735334242833E+01  1.7735334242833E+01  1.7735334242833E+01  1.7735334242833E+01  1.7735334242833E+01  1.7735334242833E+01  1.7735334242833E+01  1.7735334242833E+01  1.7735334242833E+01  1.7735334242833E+01 
 2.1716042423862E-04  2.1717170262187E-04  2.1720756189593E-04  2.1726817253241E-04  2.1735355767227E-04  2.1746374962772E-04  2.1759878544983E-04  2.1775871051362E-04  2.1794329205355E-04  2.1811962437514E-04 
 2.1716042423862E+04  2.1717170262187E+04  2.1720756189593E+04  2.1726817253241E+04  2.1735355767227E+04  2.1746374962772E+04  2.1759878544983E+04  2.1775871051362E+04  2.1794329205355E+04  2.1811962437514E+04 
 8.6743421100073E-02  7.7148989327732E-02  5.9157001517983E-02  4.3558662274243E-02  3.0354140392029E-02  1.9544411629724E-02  1.1131269622906E-02  5.1173157514421E-03  1.5059706450416E-03  3.0142748971083E-04 
 5.3052424748817E-02  2.6527427812712E-01  9.0200881919284E-01  1.9634656973243E+00  3.4499980662688E+00  5.3621028748796E+00  7.7004212124659E+00  1.0465738732101E+01  1.3658983813079E+01  1.5362713081896E+01 
 2.1715902628016E+04  2.1716827838920E+04  2.1719795023772E+04  2.1724810228881E+04  2.1731875415021E+04  2.1740993315486E+04  2.1752166992501E+04  2.1765400195315E+04  2.1780668715571E+04  2.1796599423005E+04 
 9.8670658594563E+03  9.8675384433170E+03  9.8690554524839E+03  9.8716196040670E+03  9.8752319541571E+03  9.8798939783075E+03  9.8856073818234E+03  9.8923742534455E+03  9.9001847948761E+03  9.9084513727416E+03 
 1.1848836768560E+04  1.1849289395603E+04  1.1850739571288E+04  1.1853190624814E+04  1.1856643460863E+04  1.1861099337178E+04  1.1866559610678E+04  1.1873025941869E+04  1.1880483920695E+04  1.1888148050263E+04 
ZONE T = "CATH, 2.0000E-08", I = 10, SOLUTIONTIME = 2.000000E-08
ZONETYPE = ORDERED
DATAPACKING = BLOCK
STRANDID = 3
 1.2700000000000E-03  1.3377333333333E-03  1.4054666666667E-03  1.4732000000000E-03  1.5409333333333E-03  1.6086666666667E-03  1.6764000000000E-03  1.7441333333333E-03  1.8118666666667E-03  1.8796000000000E-03 
 1.9706573433788E-08  1.7390174206683E-08  1.5074581108501E-08  1.2758145693164E-08  1.0441035306902E-08  8.1226906723699E-09  5.8032786842268E-09  3.4826028507760E-09  1.1601117373988E-09 -1.8160386389506E-12 
 9.2000000000064E-01  9.2000000000180E-01  9.2000000000180E-01  9.2000000000180E-01  9.2000000000180E-01  9.2000000000180E-01  9.2000000000180E-01  9.2000000000180E-01  9.2000000000180E-01  9.2000000000180E-01 
 3.9999999999682E-02  3.9999999999101E-02  3.9999999999101E-02  3.9999999999101E-02  3.9999999999101E-02  3.9999999999100E-02  3.9999999999100E-02  3.9999999999099E-02  3.9999999999099E-02  3.9999999999098E-02 
 3.9999999999682E-02  3.9999999999101E-02  3.9999999999101E-02  3.9999999999101E-02  3.9999999999101E-02  3.9999999999100E-02  3.9999999999100E-02  3.9999999999099E-02  3.9999999999099E-02  3.9999999999098E-02 
 2.9176397065688E-02  2.9176190012843E-02  2.9176007291188E-02  2.9175848903703E-02  2.9175714855420E-02  2.9175605153431E-02  2.9175519806887E-02  2.9175458827000E-02  2.9175422227052E-02  2.9175410022324E-02 
 3.8001746794517E+00  3.8001725241029E+00  3.8001660578911E+00  3.8001552802884E+00  3.8001401904031E+00  3.8001207869789E+00  3.8000970683945E+00  3.8000690326632E+00  3.8000366774326E+00  3.8000000000000E+00 
 2.9815000215444E+02  2.9815000836255E+02  2.9815000855229E+02  2.9815000843879E+02  2.9815000848210E+02  2.9815000857488E+02  2.9815000844156E+02  2.9815000709436E+02  2.9814995740136E+02  2.9814836186283E+02 
 3.7709982823860E+00  3.7709963340901E+00  3.7709900505999E+00  3.7709794313847E+00  3.7709644755477E+00  3.7709451818254E+00  3.7709215485876E+00  3.7708935738362E+00  3.7708612552056E+00  3.7708245899777E+00 
 3.9714142695895E+00  3.9714142645780E+00  3.9714142644249E+00  3.9714142645165E+00  3.9714142644815E+00  3.9714142644066E+00  3.9714142645142E+00  3.9714142656017E+00  3.9714143057132E+00  3.9714155936084E+00 
-2.0041598720352E-01 -2.0041793048793E-01 -2.0042421382498E-01 -2.0043483313181E-01 -2.0044978893385E-01 -2.0046908258118E-01 -2.0049271592666E-01 -2.0052069176550E-01 -2.0055305050761E-01 -2.0059100363070E-01 
-1.6675740662721E+00 -3.3352763370452E+00 -3.3356845913613E+00 -3.3363745470975E+00 -3.3373465589895E+00 -3.3386009267455E+00 -3.3401380009606E+00 -3.3419580388681E+00 -3.3440491384876E+00 -1.6730070194453E+00 
 1.4708186431670E-07  1.2979774829822E-07  1.1251178180535E-07  9.5222239885856E-08  7.7927660854123E-08  6.0626581528692E-08  4.3317536876986E-08  2.5999060539913E-08  8.6697478047655E-09  8.6697478047655E-09 
 3.0050009224974E+01  2.6714796990430E+01  2.3379316526340E+01  2.0043286956863E+01  1.6706426403956E+01  1.3368452661117E+01  1.0029083197226E+01  6.6880351775697E+00  3.3450315886315E+00  0.0000000000000E+00 
 0.0000000000000E+00  3.3352122348180E+00  6.6706926988840E+00  1.0006722268228E+01  1.3343582821297E+01  1.6681556564150E+01  2.0020926028052E+01  2.3361974047997E+01  2.6704977636543E+01  3.0050009225113E+01 
 3.3349738313954E-08  6.6702032119307E-08  6.6710196098825E-08  6.6723994031517E-08  6.6743431999417E-08  6.6768516525800E-08  6.6799254957513E-08  6.6835654567689E-08  6.6877558239893E-08  3.3459449705887E-08 
 7.2440786946558E+03  1.4488157389312E+04  1.4488157389312E+04  1.4488157389312E+04  1.4488157389312E+04  1.4488157389312E+04  1.4488157389312E+04  1.4488157389312E+04  1.4488157389312E+04  7.2440786946559E+03 
 4.9259735123400E+04  9.8519470246798E+04  9.8519470246799E+04  9.8519470246798E+04  9.8519470246799E+04  9.8519470246799E+04  9.8519470246798E+04  9.8519470246799E+04  9.8519470246798E+04  4.9259735123399E+04 
 5.6503813818055E+04  1.1300762763611E+05  1.1300762763611E+05  1.1300762763611E+05  1.1300762763611E+05  1.1300762763611E+05  1.1300762763611E+05  1.1300762763611E+05  1.1300762763611E+05  5.6503813818055E+04 
 3.5000000000000E-01  3.5000000000000E-01  3.5000000000000E-01  3.5000000000000E-01  3.5000000000000E-01  3.5000000000000E-01  3.5000000000000E-01  3.5000000000000E-01  3.5000000000000E-01  3.5000000000000E-01 
 6.6040000000000E+00  1.3208000000000E+01  1.3208000000000E+01  1.3208000000000E+01  1.3208000000000E+01  1.3208000000000E+01  1.3208000000000E+01  1.3208000000000E+01  1.3208000000000E+01  6.6040000000000E+00 
-2.5250970113145E-01 -2.5251940771087E-01 -2.5255031733505E-01 -2.5260255504978E-01 -2.5267614771271E-01 -2.5277111801526E-01 -2.5288749250156E-01 -2.5302529064719E-01 -2.5318361133311E-01 -2.5333237726306E-01 
 3.3866666666667E-05  6.7733333333333E-05  6.7733333333334E-05  6.7733333333333E-05  6.7733333333334E-05  6.7733333333334E-05  6.7733333333333E-05  6.7733333333334E-05  6.7733333333333E-05  3.3866666666667E-05 
 2.6603001364267E+01  2.6603001364267E+01  2.6603001364267E+01  2.6603001364267E+01  2.6603001364267E+01  2.6603001364267E+01  2.6603001364267E+01  2.6603001364267E+01  2.6603001364267E+01  2.6603001364267E+01 
 1.7735334242827E+01  1.7735334242827E+01  1.7735334242827E+01  1.7735334242827E+01  1.7735334242827E+01  1.7735334242827E+01  1.7735334242827E+01  1.7735334242827E+01  1.7735334242827E+01  1.7735334242827E+01 
 4.3434618992630E-04  4.3436880383302E-04  4.3444053194354E-04  4.3456176486211E-04  4.3473255551605E-04  4.3495296506287E-04  4.3522306541177E-04  4.3554293335196E-04  4.3591157233094E-04  4.3625083875508E-04 
 2.1718576568768E+04  2.1719710121114E+04  2.1723297004761E+04  2.1729359232970E+04  2.1737899784378E+04  2.1748921543515E+04  2.1762427996194E+04  2.1778422283833E+04  2.1796828027739E+04  2.1813121437993E+04 
 8.6761770524824E-02  7.7165272432567E-02  5.9169420225807E-02  4.3567738938779E-02  3.0360398505101E-02  1.9548378247411E-02  1.1133469125150E-02  5.1182756056612E-03  1.5062199183024E-03  3.0145562470916E-04 
 5.3064030030924E-02  2.6533238904994E-01  9.0220650501296E-01  1.9638961336653E+00  3.4507545704001E+00  5.3632789724974E+00  7.7021106739831E+00  1.0468035504330E+01  1.3661977519293E+01  1.5366076568324E+01 
 2.1718436742968E+04  2.1719367623453E+04  2.1722335628836E+04  2.1727351769097E+04  2.1734418669409E+04  2.1743538716164E+04  2.1754714752051E+04  2.1767949130053E+04  2.1783164543999E+04  2.1797755059969E+04 
 9.8683613009965E+03  9.8688363347970E+03  9.8703537666240E+03  9.8729184391782E+03  9.8765316931522E+03  9.8811948556643E+03  9.8869095381405E+03  9.8936772313886E+03  9.9014653903350E+03  9.9091581824476E+03 
 1.1850075441971E+04  1.1850531288656E+04  1.1851981862212E+04  1.1854433329919E+04  1.1857886976257E+04  1.1862343860499E+04  1.1867805213910E+04  1.1874271898665E+04  1.1881699153665E+04  1.1888596877522E+04 
ZONE T = "CATH, 3.0000E-08", I = 10, SOLUTIONTIME = 3.000000E-08
ZONETYPE = ORDERED
DATAPACKING = BLOCK
STRANDID = 3
 1.2700000000000E-03  1.3377333333333E-03  1.4054666666667E-03  1.4732000000000E-03  1.5409333333333E-03  1.6086666666667E-03  1.6764000000000E-03  1.7441333333333E-03  1.8118666666667E-03  1.8796000000000E-03 
 1.9715103637770E-08  1.7399187595381E-08  1.5082987934542E-08  1.2765582665513E-08  1.0447502278928E-08  8.1281874701853E-09  5.8085314940354E-09  3.4876117769073E-09  1.1656113997121E-09  3.9952850055266E-12 
 9.2000000000095E-01  9.2000000000270E-01  9.2000000000270E-01  9.2000000000270E-01  9.2000000000270E-01  9.2000000000270E-01  9.2000000000270E-01  9.2000000000270E-01  9.2000000000270E-01  9.2000000000271E-01 
 3.9999999999524E-02  3.9999999998652E-02  3.9999999998652E-02  3.9999999998651E-02  3.9999999998651E-02  3.9999999998650E-02  3.9999999998650E-02  3.9999999998649E-02  3.9999999998648E-02  3.9999999998647E-02 
 3.9999999999524E-02  3.9999999998652E-02  3.9999999998652E-02  3.9999999998651E-02  3.9999999998651E-02  3.9999999998650E-02  3.9999999998650E-02  3.9999999998649E-02  3.9999999998648E-02  3.9999999998647E-02 
 2.9181790488894E-02  2.9181583415116E-02  2.9181400675082E-02  2.9181242271774E-02  2.9181108210227E-02  2.9180998497533E-02  2.9180913142844E-02  2.9180852157377E-02  2.9180815554414E-02  2.9180803349162E-02 
 3.8001746977862E+00  3.8001725422117E+00  3.8001660753212E+00  3.8001552965870E+00  3.8001402051171E+00  3.8001207996548E+00  3.8000970785787E+00  3.8000690399015E+00  3.8000366812711E+00  3.8000000000000E+00 
 2.9815000327326E+02  2.9815001240621E+02  2.9815001294748E+02  2.9815001274003E+02  2.9815001280996E+02  2.9815001285356E+02  2.9815001274747E+02  2.9815000939317E+02  2.9814991355690E+02  2.9814759782979E+02 
 3.7709929072974E+00  3.7709909587966E+00  3.7709846746462E+00  3.7709740543152E+00  3.7709590969068E+00  3.7709398011573E+00  3.7709161654358E+00  3.7708881877441E+00  3.7708558657167E+00  3.7708191966508E+00 
 3.9714142686862E+00  3.9714142613137E+00  3.9714142608768E+00  3.9714142610442E+00  3.9714142609878E+00  3.9714142609526E+00  3.9714142610382E+00  3.9714142637457E+00  3.9714143411034E+00  3.9714162103235E+00 
-2.0042136138886E-01 -2.0042330251710E-01 -2.0042958623061E-01 -2.0044020672898E-01 -2.0045516408092E-01 -2.0047445979527E-01 -2.0049809560237E-01 -2.0052607600161E-01 -2.0055847538674E-01 -2.0059701367263E-01 
-1.6677488013018E+00 -3.3356266086865E+00 -3.3360350418411E+00 -3.3367251175467E+00 -3.3376973406000E+00 -3.3389519587701E+00 -3.3404893631235E+00 -3.3423092507899E+00 -3.3443885354124E+00 -1.6730812503611E+00 
 1.4709686607198E-07  1.2981080231300E-07  1.1252301975225E-07  9.5231661148667E-08  7.7935264337161E-08  6.0632365931417E-08  4.3321500489180E-08  2.6001204143662E-08  8.6701325899128E-09  8.6701325899128E-09 
 3.0053053268252E+01  2.6717491162643E+01  2.3381660337668E+01  2.0045280257888E+01  1.6708069028749E+01  1.3369744379150E+01  1.0030023718089E+01  6.6886244110409E+00  3.3452755180520E+00  0.0000000000000E+00 
 0.0000000000000E+00  3.3355621056947E+00  6.6713929309374E+00  1.0007773010575E+01  1.3344984239719E+01  1.6683308889366E+01  2.0023029550394E+01  2.3364428857313E+01  2.6707777750282E+01  3.0053053268326E+01 
 5.0027226326972E-08  1.0005829820617E-07  1.0007054651724E-07  1.0009124520698E-07  1.0012040540542E-07  1.0015803611350E-07  1.0020414858875E-07  1.0025874707559E-07  1.0032144359402E-07  5.0190262209498E-08 
 7.2440786946725E+03  1.4488157389345E+04  1.4488157389345E+04  1.4488157389345E+04  1.4488157389345E+04  1.4488157389345E+04  1.4488157389345E+04  1.4488157389345E+04  1.4488157389345E+04  7.2440786946727E+03 
 4.9259735123383E+04  9.8519470246765E+04  9.8519470246766E+04  9.8519470246765E+04  9.8519470246766E+04  9.8519470246766E+04  9.8519470246765E+04  9.8519470246765E+04  9.8519470246765E+04  4.9259735123383E+04 
 5.6503813818055E+04  1.1300762763611E+05  1.1300762763611E+05  1.1300762763611E+05  1.1300762763611E+05  1.1300762763611E+05  1.1300762763611E+05  1.1300762763611E+05  1.1300762763611E+05  5.6503813818055E+04 
 3.5000000000000E-01  3.5000000000000E-01  3.5000000000000E-01  3.5000000000000E-01  3.5000000000000E-01  3.5000000000000E-01  3.5000000000000E-01  3.5000000000000E-01  3.5000000000000E-01  3.5000000000000E-01 
 6.6040000000000E+00  1.3208000000000E+01  1.3208000000000E+01  1.3208000000000E+01  1.3208000000000E+01  1.3208000000000E+01  1.3208000000000E+01  1.3208000000000E+01  1.3208000000000E+01  6.6040000000000E+00 
-2.5253616010022E-01 -2.5254592736876E-01 -2.5257685053309E-01 -2.5262909733091E-01 -2.5270270598122E-01 -2.5279769524304E-01 -2.5291409472467E-01 -2.5305188149530E-01 -2.5320930764782E-01 -2.5334361755922E-01 
 3.3866666666667E-05  6.7733333333333E-05  6.7733333333334E-05  6.7733333333333E-05  6.7733333333334E-05  6.7733333333334E-05  6.7733333333333E-05  6.7733333333334E-05  6.7733333333333E-05  3.3866666666667E-05 
 2.6603001364272E+01  2.6603001364272E+01  2.6603001364272E+01  2.6603001364272E+01  2.6603001364272E+01  2.6603001364272E+01  2.6603001364272E+01  2.6603001364272E+01  2.6603001364272E+01  2.6603001364272E+01 
 1.7735334242822E+01  1.7735334242822E+01  1.7735334242822E+01  1.7735334242822E+01  1.7735334242822E+01  1.7735334242822E+01  1.7735334242822E+01  1.7735334242822E+01  1.7735334242822E+01  1.7735334242822E+01 
 6.5155736041961E-04  6.5159136314631E-04  6.5169897405842E-04  6.5188084090520E-04  6.5213705624604E-04  6.5246770667974E-04  6.5287290163264E-04  6.5335271256189E-04  6.5390464518191E-04  6.5439432498504E-04 
 2.1721117049331E+04  2.1722255931329E+04  2.1725844211488E+04  2.1731907604309E+04  2.1740450072999E+04  2.1751474161687E+04  2.1764983622087E+04  2.1780977920993E+04  2.1799307285098E+04  2.1814348622997E+04 
 8.6779314440072E-02  7.7180840719254E-02  5.9181288196800E-02  4.3576408982689E-02  3.0366373554598E-02  1.9552161524753E-02  1.1135564408470E-02  5.1191876789003E-03  1.5064565097486E-03  3.0148196811461E-04 
 5.3075151111767E-02  2.6538807240024E-01  9.0239593624166E-01  1.9643085954489E+00  3.4514794526715E+00  5.3644058205009E+00  7.7037292353929E+00  1.0470235523825E+01  1.3664842326646E+01  1.5369293028665E+01 
 2.1720977194865E+04  2.1721913362416E+04  2.1724882634264E+04  2.1729899719305E+04  2.1736968227173E+04  2.1746090203705E+04  2.1757268757287E+04  2.1770502566282E+04  2.1785640936314E+04  2.1798979028486E+04 
 9.8696599964093E+03  9.8701373161099E+03  9.8716553605510E+03  9.8742205564932E+03  9.8778346662898E+03  9.8824988713252E+03  9.8882148969567E+03  9.8949826601243E+03  9.9027381756520E+03  9.9098947575173E+03 
 1.1851317198456E+04  1.1851776046306E+04  1.1853227273713E+04  1.1855679162812E+04  1.1859133560883E+04  1.1863591332380E+04  1.1869053860330E+04  1.1875519906158E+04  1.1882902760662E+04  1.1889084270969E+04 
ZONE T = "CATH, 4.0000E-08", I = 10, SOLUTIONTIME = 4.000000E-08
ZONETYPE = ORDERED
DATAPACKING = BLOCK
STRANDID = 3
 1.2700000000000E-03  1.3377333333333E-03  1.4054666666667E-03  1.4732000000000E-03  1.5409333333333E-03  1.6086666666667E-03  1.6764000000000E-03  1.7441333333333E-03  1.8118666666667E-03  1.8796000000000E-03 
 1.9712379580525E-08  1.7395493323705E-08  1.5078323362851E-08  1.2761400508337E-08  1.0443075970384E-08  8.1249696515256E-09  5.8043427060469E-09  3.4828155411676E-09  1.1605813981072E-09 -1.4528309111729E-12 
 9.2000000000127E-01  9.2000000000360E-01  9.2000000000360E-01  9.2000000000360E-01  9.2000000000360E-01  9.2000000000360E-01  9.2000000000360E-01  9.2000000000360E-01  9.2000000000360E-01  9.2000000000361E-01 
 3.9999999999365E-02  3.9999999998202E-02  3.9999999998202E-02  3.9999999998202E-02  3.9999999998201E-02  3.9999999998201E-02  3.9999999998200E-02  3.9999999998199E-02  3.9999999998198E-02  3.9999999998197E-02 
 3.9999999999365E-02  3.9999999998202E-02  3.9999999998202E-02  3.9999999998202E-02  3.9999999998201E-02  3.9999999998201E-02  3.9999999998200E-02  3.9999999998199E-02  3.9999999998198E-02  3.9999999998197E-02 
 2.9187195722263E-02  2.9186988627497E-02  2.9186805869035E-02  2.9186647449862E-02  2.9186513375013E-02  2.9186403651583E-02  2.9186318288725E-02  2.9186257297659E-02  2.9186220691667E-02  2.9186208485854E-02 
 3.8001747161577E+00  3.8001725603567E+00  3.8001660927862E+00  3.8001553129178E+00  3.8001402198596E+00  3.8001208123547E+00  3.8000970887811E+00  3.8000690471512E+00  3.8000366851135E+00  3.8000000000000E+00 