TITLE = "Solution on Domain BulkDomain1D_2"
VARIABLES = "x [m]"  
"Vel_axial" 	"MF_sp(ECDMC)" 	"MF_sp(Li+)" 	"MF_sp(PF6-)" 	"Volt(Electroly)" 	"Volt(CathodeVo)" 	"Temperature" 	
"Potential Drop Electrode-Electrolyte [V]" 	"Surf_0 Equilibrium Potential Drop Electrode-Electrolyte [V]" 	"Overpotential_0 [V]" 	"Current Source [A/m^2]" 	"Li+ flux [kmol/m^2/s]" 	"Electrolyte Current [A/m^2]" 	"Electrode Current [A/m^2]" 	
"CV Capacity discharged [A-s/m^2]" 	"Depth of discharge in CV [A-s/m^2]" 	"CV Capacity remaining [A-s/m^2]" 	"Initial CV capacity [A-s/m^2]" 	"Porosity []" 	"Surface Area [m2/m2] (area per area)" 	"Specific current (per particle area) [A/m^2]" 	"Control volume thickness [m]" 	
"MoleDens LiCoO2 [kmol/m^3]" 	"MoleDens CoO2 [kmol/m^3]" 	"qHeat_accum [J/m3]" 	"qHeat_step [W/m3]" 	"Joule_Lyte [W/m3]" 	"Joule_Solid [W/m3]" 	"electrodHeat [W/m3]" 	"OverpotHeat [W/m3]" 	"deltaSHeat [W/m3]" 	

ZONE T = "CATH, 0.0000E+00", I = 10, SOLUTIONTIME = 0.000000E+00
ZONETYPE = ORDERED
DATAPACKING = BLOCK
STRANDID = 3
 1.2700000000000E-03  1.3377333333333E-03  1.4054666666667E-03  1.4732000000000E-03  1.5409333333333E-03  1.6086666666667E-03  1.6764000000000E-03  1.7441333333333E-03  1.8118666666667E-03  1.8796000000000E-03 
 0.0000000000000E+00  0.0000000000000E+00  0.0000000000000E+00  0.0000000000000E+00  0.0000000000000E+00  0.0000000000000E+00  0.0000000000000E+00  0.0000000000000E+00  0.0000000000000E+00  0.0000000000000E+00 
 9.2000000000000E-01  9.2000000000000E-01  9.2000000000000E-01  9.2000000000000E-01  9.2000000000000E-01  9.2000000000000E-01  9.2000000000000E-01  9.2000000000000E-01  9.2000000000000E-01  9.2000000000000E-01 
 4.0000000000000E-02  4.0000000000000E-02  4.0000000000000E-02  4.0000000000000E-02  4.0000000000000E-02  4.0000000000000E-02  4.0000000000000E-02  4.0000000000000E-02  4.0000000000000E-02  4.0000000000000E-02 
 4.0000000000000E-02  4.0000000000000E-02  4.0000000000000E-02  4.0000000000000E-02  4.0000000000000E-02  4.0000000000000E-02  4.0000000000000E-02  4.0000000000000E-02  4.0000000000000E-02  4.0000000000000E-02 
-7.0000000000000E-02 -7.0000000000000E-02 -7.0000000000000E-02 -7.0000000000000E-02 -7.0000000000000E-02 -7.0000000000000E-02 -7.0000000000000E-02 -7.0000000000000E-02 -7.0000000000000E-02 -7.0000000000000E-02 
 3.8000000000000E+00  3.8000000000000E+00  3.8000000000000E+00  3.8000000000000E+00  3.8000000000000E+00  3.8000000000000E+00  3.8000000000000E+00  3.8000000000000E+00  3.8000000000000E+00  3.8000000000000E+00 
 2.9815000000000E+02  2.9815000000000E+02  2.9815000000000E+02  2.9815000000000E+02  2.9815000000000E+02  2.9815000000000E+02  2.9815000000000E+02  2.9815000000000E+02  2.9815000000000E+02  2.9815000000000E+02 
 3.8700000000000E+00  3.8700000000000E+00  3.8700000000000E+00  3.8700000000000E+00  3.8700000000000E+00  3.8700000000000E+00  3.8700000000000E+00  3.8700000000000E+00  3.8700000000000E+00  3.8700000000000E+00 
 3.9714142713289E+00  3.9714142713289E+00  3.9714142713289E+00  3.9714142713289E+00  3.9714142713289E+00  3.9714142713289E+00  3.9714142713289E+00  3.9714142713289E+00  3.9714142713289E+00  3.9714142713289E+00 
-1.0141427132889E-01 -1.0141427132889E-01 -1.0141427132889E-01 -1.0141427132889E-01 -1.0141427132889E-01 -1.0141427132889E-01 -1.0141427132889E-01 -1.0141427132889E-01 -1.0141427132889E-01 -1.0141427132889E-01 
-2.3826357195711E-01 -4.7652714391422E-01 -4.7652714391423E-01 -4.7652714391422E-01 -4.7652714391423E-01 -4.7652714391423E-01 -4.7652714391422E-01 -4.7652714391423E-01 -4.7652714391422E-01 -2.3826357195711E-01 
-0.0000000000000E+00 -0.0000000000000E+00 -0.0000000000000E+00 -0.0000000000000E+00 -0.0000000000000E+00 -0.0000000000000E+00 -0.0000000000000E+00 -0.0000000000000E+00 -0.0000000000000E+00 -0.0000000000000E+00 
 2.3826357195711E-01  0.0000000000000E+00  0.0000000000000E+00  0.0000000000000E+00  0.0000000000000E+00  0.0000000000000E+00  0.0000000000000E+00  0.0000000000000E+00  0.0000000000000E+00  0.0000000000000E+00 
 0.0000000000000E+00 -0.0000000000000E+00 -0.0000000000000E+00 -0.0000000000000E+00 -0.0000000000000E+00 -0.0000000000000E+00 -0.0000000000000E+00 -0.0000000000000E+00 -0.0000000000000E+00  2.3826357195711E-01 
-0.0000000000000E+00 -0.0000000000000E+00 -0.0000000000000E+00 -0.0000000000000E+00 -0.0000000000000E+00 -0.0000000000000E+00 -0.0000000000000E+00 -0.0000000000000E+00 -0.0000000000000E+00 -0.0000000000000E+00 
 7.2440786946225E+03  1.4488157389245E+04  1.4488157389245E+04  1.4488157389245E+04  1.4488157389245E+04  1.4488157389245E+04  1.4488157389245E+04  1.4488157389245E+04  1.4488157389245E+04  7.2440786946225E+03 
 4.9259735123433E+04  9.8519470246865E+04  9.8519470246866E+04  9.8519470246865E+04  9.8519470246866E+04  9.8519470246866E+04  9.8519470246865E+04  9.8519470246866E+04  9.8519470246865E+04  4.9259735123433E+04 
 5.6503813818055E+04  1.1300762763611E+05  1.1300762763611E+05  1.1300762763611E+05  1.1300762763611E+05  1.1300762763611E+05  1.1300762763611E+05  1.1300762763611E+05  1.1300762763611E+05  5.6503813818055E+04 
 3.5000000000000E-01  3.5000000000000E-01  3.5000000000000E-01  3.5000000000000E-01  3.5000000000000E-01  3.5000000000000E-01  3.5000000000000E-01  3.5000000000000E-01  3.5000000000000E-01  3.5000000000000E-01 
 6.6040000000000E+00  1.3208000000000E+01  1.3208000000000E+01  1.3208000000000E+01  1.3208000000000E+01  1.3208000000000E+01  1.3208000000000E+01  1.3208000000000E+01  1.3208000000000E+01  6.6040000000000E+00 
-3.6078675341780E-02 -3.6078675341780E-02 -3.6078675341780E-02 -3.6078675341780E-02 -3.6078675341780E-02 -3.6078675341780E-02 -3.6078675341780E-02 -3.6078675341780E-02 -3.6078675341780E-02 -3.6078675341780E-02 
 3.3866666666667E-05  6.7733333333333E-05  6.7733333333334E-05  6.7733333333333E-05  6.7733333333334E-05  6.7733333333334E-05  6.7733333333333E-05  6.7733333333334E-05  6.7733333333333E-05  3.3866666666667E-05 
 2.6603001364256E+01  2.6603001364256E+01  2.6603001364256E+01  2.6603001364256E+01  2.6603001364256E+01  2.6603001364256E+01  2.6603001364256E+01  2.6603001364256E+01  2.6603001364256E+01  2.6603001364256E+01 
 1.7735334242838E+01  1.7735334242838E+01  1.7735334242838E+01  1.7735334242838E+01  1.7735334242838E+01  1.7735334242838E+01  1.7735334242838E+01  1.7735334242838E+01  1.7735334242838E+01  1.7735334242838E+01 
 0.0000000000000E+00  0.0000000000000E+00  0.0000000000000E+00  0.0000000000000E+00  0.0000000000000E+00  0.0000000000000E+00  0.0000000000000E+00  0.0000000000000E+00  0.0000000000000E+00  0.0000000000000E+00 
 0.0000000000000E+00  0.0000000000000E+00  0.0000000000000E+00  0.0000000000000E+00  0.0000000000000E+00  0.0000000000000E+00  0.0000000000000E+00  0.0000000000000E+00  0.0000000000000E+00  0.0000000000000E+00 
 0.0000000000000E+00  0.0000000000000E+00  0.0000000000000E+00  0.0000000000000E+00  0.0000000000000E+00  0.0000000000000E+00  0.0000000000000E+00  0.0000000000000E+00  0.0000000000000E+00  0.0000000000000E+00 
 0.0000000000000E+00  0.0000000000000E+00  0.0000000000000E+00  0.0000000000000E+00  0.0000000000000E+00  0.0000000000000E+00  0.0000000000000E+00  0.0000000000000E+00  0.0000000000000E+00  0.0000000000000E+00 
 0.0000000000000E+00  0.0000000000000E+00  0.0000000000000E+00  0.0000000000000E+00  0.0000000000000E+00  0.0000000000000E+00  0.0000000000000E+00  0.0000000000000E+00  0.0000000000000E+00  0.0000000000000E+00 
 0.0000000000000E+00  0.0000000000000E+00  0.0000000000000E+00  0.0000000000000E+00  0.0000000000000E+00  0.0000000000000E+00  0.0000000000000E+00  0.0000000000000E+00  0.0000000000000E+00  0.0000000000000E+00 
 0.0000000000000E+00  0.0000000000000E+00  0.0000000000000E+00  0.0000000000000E+00  0.0000000000000E+00  0.0000000000000E+00  0.0000000000000E+00  0.0000000000000E+00  0.0000000000000E+00  0.0000000000000E+00 
ZONE T = "CATH, 1.0000E-08", I = 10, SOLUTIONTIME = 1.000000E-08
ZONETYPE = ORDERED
DATAPACKING = BLOCK
STRANDID = 3
 1.2700000000000E-03  1.3377333333333E-03  1.4054666666667E-03  1.4732000000000E-03  1.5409333333333E-03  1.6086666666667E-03  1.6764000000000E-03  1.7441333333333E-03  1.8118666666667E-03  1.8796000000000E-03 
 1.9707213486763E-08  1.7391068131098E-08  1.5074639390762E-08  1.2757731648690E-08  1.0439785941214E-08  8.1213326676010E-09  5.8018123190992E-09  3.4813915176129E-09  1.1591498630862E-09 -2.9056615982593E-12 
 9.2000000000032E-01  9.2000000000090E-01  9.2000000000090E-01  9.2000000000090E-01  9.2000000000090E-01  9.2000000000090E-01  9.2000000000090E-01  9.2000000000090E-01  9.2000000000090E-01  9.2000000000090E-01 
 3.9999999999841E-02  3.9999999999551E-02  3.9999999999551E-02  3.9999999999551E-02  3.9999999999550E-02  3.9999999999550E-02  3.9999999999550E-02  3.9999999999550E-02  3.9999999999549E-02  3.9999999999549E-02 
 3.9999999999841E-02  3.9999999999551E-02  3.9999999999551E-02  3.9999999999551E-02  3.9999999999550E-02  3.9999999999550E-02  3.9999999999550E-02  3.9999999999550E-02  3.9999999999549E-02  3.9999999999549E-02 
 2.9171015612201E-02  2.9170808581254E-02  2.9170625878824E-02  2.9170467507907E-02  2.9170333473515E-02  2.9170223782731E-02  2.9170138444741E-02  2.9170077470712E-02  2.9170040873953E-02  2.9170028669772E-02 
 3.8001746603045E+00  3.8001725051915E+00  3.8001660396878E+00  3.8001552632661E+00  3.8001401750348E+00  3.8001207737378E+00  3.8000970577545E+00  3.8000690250986E+00  3.8000366734182E+00  3.8000000000000E+00 
 2.9815000103068E+02  2.9815000410817E+02  2.9815000414702E+02  2.9815000420116E+02  2.9815000414495E+02  2.9815000415742E+02  2.9815000418744E+02  2.9815000382618E+02  2.9814998665026E+02  2.9814916178769E+02 
 3.7710036446923E+00  3.7710016966102E+00  3.7709954138090E+00  3.7709847957582E+00  3.7709698415612E+00  3.7709505499551E+00  3.7709269193097E+00  3.7708989476279E+00  3.7708666325442E+00  3.7708299713302E+00 
 3.9714142704968E+00  3.9714142680125E+00  3.9714142679811E+00  3.9714142679374E+00  3.9714142679828E+00  3.9714142679727E+00  3.9714142679485E+00  3.9714142682401E+00  3.9714142821042E+00  3.9714149479215E+00 
-2.0041062580446E-01 -2.0041257140224E-01 -2.0041885417208E-01 -2.0042947217918E-01 -2.0044442642153E-01 -2.0046371801764E-01 -2.0048734863875E-01 -2.0051532061218E-01 -2.0054764956003E-01 -2.0058497659123E-01 
-1.6673997639770E+00 -3.3349268759806E+00 -3.3353350028651E+00 -3.3360248551833E+00 -3.3369966324050E+00 -3.3382507099979E+00 -3.3397874979459E+00 -3.3416074070771E+00 -3.3437066914887E+00 -1.6729379507864E+00 
 1.4706617803734E-07  1.2978409324452E-07  1.1250001402427E-07  9.5212373511236E-08  7.7919702406495E-08  6.0620505522729E-08  4.3313376324746E-08  2.5996793823240E-08  8.6693474196061E-09  8.6693474196061E-09 
 3.0046833518376E+01  2.6711978778553E+01  2.3376863602147E+01  2.0041199588128E+01  1.6704706583327E+01  1.3367098558685E+01  1.0028095539771E+01  6.6874150634844E+00  3.3447742762898E+00  0.0000000000000E+00 
 0.0000000000000E+00  3.3348470746252E+00  6.6699618648345E+00  1.0005625603474E+01  1.3342120094948E+01  1.6679727430727E+01  2.0018730095006E+01  2.3359410981362E+01  2.6702051316456E+01  3.0046834216367E+01 
 1.6673997639770E-08  3.3349268759806E-08  3.3353350028651E-08  3.3360248551833E-08  3.3369966324050E-08  3.3382507099979E-08  3.3397874979459E-08  3.3416074070771E-08  3.3437066914887E-08  1.6729379507864E-08 
 7.2440786946392E+03  1.4488157389278E+04  1.4488157389278E+04  1.4488157389278E+04  1.4488157389278E+04  1.4488157389278E+04  1.4488157389278E+04  1.4488157389278E+04  1.4488157389278E+04  7.2440786946392E+03 
 4.9259735123416E+04  9.8519470246832E+04  9.8519470246832E+04  9.8519470246832E+04  9.8519470246832E+04  9.8519470246832E+04  9.8519470246832E+04  9.8519470246832E+04  9.8519470246832E+04  4.9259735123416E+04 
 5.6503813818055E+04  1.1300762763611E+05  1.1300762763611E+05  1.1300762763611E+05  1.1300762763611E+05  1.1300762763611E+05  1.1300762763611E+05  1.1300762763611E+05  1.1300762763611E+05  5.6503813818055E+04 
 3.5000000000000E-01  3.5000000000000E-01  3.5000000000000E-01  3.5000000000000E-01  3.5000000000000E-01  3.5000000000000E-01  3.5000000000000E-01  3.5000000000000E-01  3.5000000000000E-01  3.5000000000000E-01 
 6.6040000000000E+00  1.3208000000000E+01  1.3208000000000E+01  1.3208000000000E+01  1.3208000000000E+01  1.3208000000000E+01  1.3208000000000E+01  1.3208000000000E+01  1.3208000000000E+01  6.6040000000000E+00 
-2.5248330768882E-01 -2.5249294942312E-01 -2.5252384939923E-01 -2.5257607928402E-01 -2.5264965417966E-01 -2.5274460251347E-01 -2.5286095532601E-01 -2.5299874372176E-01 -2.5315768409212E-01 -2.5332191865331E-01 
 3.3866666666667E-05  6.7733333333333E-05  6.7733333333334E-05  6.7733333333333E-05  6.7733333333334E-05  6.7733333333334E-05  6.7733333333333E-05  6.7733333333334E-05  6.7733333333333E-05  3.3866666666667E-05 
 2.6603001364262E+01  2.6603001364262E+01  2.6603001364262E+01  2.6603001364262E+01  2.6603001364262E+01  2.6603001364262E+01  2.6603001364262E+01  2.6603001364262E+01  2.6603001364262E+01  2.6603001364262E+01 
 1.7735334242833E+01  1.7735334242833E+01  1.7735334242833E+01  1.7735334242833E+01  1.7735334242833E+01  1.7735334242833E+01  1.7735334242833E+01  1.7735334242833E+01  1.7735334242833E+01  1.7735334242833E+01 
 2.1716042407503E-04  2.1717170268049E-04  2.1720756085573E-04  2.1726817246198E-04  2.1735355709826E-04  2.1746374857536E-04  2.1759878564322E-04  2.1775870978978E-04  2.1794329243254E-04  2.1811962431443E-04 
 2.1716042407503E+04  2.1717170268049E+04  2.1720756085573E+04  2.1726817246198E+04  2.1735355709826E+04  2.1746374857536E+04  2.1759878564322E+04  2.1775870978978E+04  2.1794329243254E+04  2.1811962431443E+04 
 8.6743420831216E-02  7.7148989076318E-02  5.9157001524262E-02  4.3558660732390E-02  3.0354143141675E-02  1.9544413506113E-02  1.1131268925992E-02  5.1173165252351E-03  1.5059699371815E-03  3.0142820932671E-04 
 5.3052424683224E-02  2.6527427809432E-01  9.0200881673291E-01  1.9634656910375E+00  3.4499980550607E+00  5.3621028528214E+00  7.7004211818625E+00  1.0465738692379E+01  1.3658983765657E+01  1.5362713034644E+01 
 2.1715902611657E+04  2.1716827844782E+04  2.1719794919755E+04  2.1724810221846E+04  2.1731875357628E+04  2.1740993210269E+04  2.1752167011872E+04  2.1765400122969E+04  2.1780668753519E+04  2.1796599416980E+04 
 9.8670658513290E+03  9.8675384447048E+03  9.8690554068193E+03  9.8716195999306E+03  9.8752319284542E+03  9.8798939321188E+03  9.8856073889908E+03  9.8923742213246E+03  9.9001848099975E+03  9.9084513690223E+03 
 1.1848836760328E+04  1.1849289400077E+04  1.1850739512936E+04  1.1853190621915E+04  1.1856643429174E+04  1.1861099278151E+04  1.1866559622881E+04  1.1873025901644E+04  1.1880483943521E+04  1.1888148047958E+04 
ZONE T = "CATH, 2.0000E-08", I = 10, SOLUTIONTIME = 2.000000E-08
ZONETYPE = ORDERED
DATAPACKING = BLOCK
STRANDID = 3
 1.2700000000000E-03  1.3377333333333E-03  1.4054666666667E-03  1.4732000000000E-03  1.5409333333333E-03  1.6086666666667E-03  1.6764000000000E-03  1.7441333333333E-03  1.8118666666667E-03  1.8796000000000E-03 
 1.9706755003477E-08  1.7390355782550E-08  1.5074762700505E-08  1.2758327269185E-08  1.0441216889298E-08  8.1228722831598E-09  5.8034602824021E-09  3.4827844562290E-09  1.1602933396451E-09 -1.6344347750483E-12 
 9.2000000000064E-01  9.2000000000180E-01  9.2000000000180E-01  9.2000000000180E-01  9.2000000000180E-01  9.2000000000180E-01  9.2000000000180E-01  9.2000000000180E-01  9.2000000000180E-01  9.2000000000180E-01 
 3.9999999999682E-02  3.9999999999101E-02  3.9999999999101E-02  3.9999999999101E-02  3.9999999999101E-02  3.9999999999100E-02  3.9999999999100E-02  3.9999999999099E-02  3.9999999999099E-02  3.9999999999098E-02 
 3.9999999999682E-02  3.9999999999101E-02  3.9999999999101E-02  3.9999999999101E-02  3.9999999999101E-02  3.9999999999100E-02  3.9999999999100E-02  3.9999999999099E-02  3.9999999999099E-02  3.9999999999098E-02 
 2.9176397026715E-02  2.9176189973871E-02  2.9176007252216E-02  2.9175848864731E-02  2.9175714816449E-02  2.9175605114460E-02  2.9175519767915E-02  2.9175458788029E-02  2.9175422188080E-02  2.9175409983353E-02 
 3.8001746794512E+00  3.8001725241025E+00  3.8001660578907E+00  3.8001552802880E+00  3.8001401904028E+00  3.8001207869786E+00  3.8000970683943E+00  3.8000690326630E+00  3.8000366774325E+00  3.8000000000000E+00 
 2.9815000210723E+02  2.9815000833841E+02  2.9815000847404E+02  2.9815000853511E+02  2.9815000845695E+02  2.9815000843016E+02  2.9815000851954E+02  2.9815000706440E+02  2.9814995742829E+02  2.9814836185486E+02 
 3.7709982824245E+00  3.7709963341286E+00  3.7709900506384E+00  3.7709794314233E+00  3.7709644755863E+00  3.7709451818641E+00  3.7709215486263E+00  3.7708935738750E+00  3.7708612552445E+00  3.7708245900166E+00 
 3.9714142696276E+00  3.9714142645975E+00  3.9714142644880E+00  3.9714142644387E+00  3.9714142645018E+00  3.9714142645234E+00  3.9714142644513E+00  3.9714142656259E+00  3.9714143056914E+00  3.9714155936148E+00 
-2.0041598720309E-01 -2.0041793046886E-01 -2.0042421384958E-01 -2.0043483301544E-01 -2.0044978891551E-01 -2.0046908265932E-01 -2.0049271582495E-01 -2.0052069175086E-01 -2.0055305044698E-01 -2.0059100359817E-01 
-1.6675740587673E+00 -3.3352763281470E+00 -3.3356845681228E+00 -3.3363745701130E+00 -3.3373465498091E+00 -3.3386008858570E+00 -3.3401380191247E+00 -3.3419580283886E+00 -3.3440491431045E+00 -1.6730070171154E+00 
 1.4708186406320E-07  1.2979774808637E-07  1.1251178171814E-07  9.5222239679792E-08  7.7927660693947E-08  6.0626581579839E-08  4.3317536834065E-08  2.5999060549904E-08  8.6697477946318E-09  8.6697477946318E-09 
 3.0050009168551E+01  2.6714796945531E+01  2.3379316497486E+01  2.0043286928566E+01  1.6706426368619E+01  1.3368452650598E+01  1.0029083198019E+01  6.6880351743924E+00  3.3450315886177E+00  0.0000000000000E+00 
 0.0000000000000E+00  3.3352122227924E+00  6.6706926708816E+00  1.0006722240225E+01  1.3343582799995E+01  1.6681556517766E+01  2.0020925970501E+01  2.3361973994226E+01  2.6704977579851E+01  3.0050009168496E+01 
 3.3349738227443E-08  6.6702032041275E-08  6.6710195709879E-08  6.6723994252962E-08  6.6743431822141E-08  6.6768515958549E-08  6.6799255170707E-08  6.6835654354657E-08  6.6877558345932E-08  3.3459449679018E-08 
 7.2440786946558E+03  1.4488157389312E+04  1.4488157389312E+04  1.4488157389312E+04  1.4488157389312E+04  1.4488157389312E+04  1.4488157389312E+04  1.4488157389312E+04  1.4488157389312E+04  7.2440786946559E+03 
 4.9259735123400E+04  9.8519470246798E+04  9.8519470246799E+04  9.8519470246798E+04  9.8519470246799E+04  9.8519470246799E+04  9.8519470246798E+04  9.8519470246799E+04  9.8519470246798E+04  4.9259735123399E+04 
 5.6503813818055E+04  1.1300762763611E+05  1.1300762763611E+05  1.1300762763611E+05  1.1300762763611E+05  1.1300762763611E+05  1.1300762763611E+05  1.1300762763611E+05  1.1300762763611E+05  5.6503813818055E+04 
 3.5000000000000E-01  3.5000000000000E-01  3.5000000000000E-01  3.5000000000000E-01  3.5000000000000E-01  3.5000000000000E-01  3.5000000000000E-01  3.5000000000000E-01  3.5000000000000E-01  3.5000000000000E-01 
 6.6040000000000E+00  1.3208000000000E+01  1.3208000000000E+01  1.3208000000000E+01  1.3208000000000E+01  1.3208000000000E+01  1.3208000000000E+01  1.3208000000000E+01  1.3208000000000E+01  6.6040000000000E+00 
-2.5250969999505E-01 -2.5251940703717E-01 -2.5255031557562E-01 -2.5260255679232E-01 -2.5267614701765E-01 -2.5277111491952E-01 -2.5288749387680E-01 -2.5302528985377E-01 -2.5318361168266E-01 -2.5333237691026E-01 
 3.3866666666667E-05  6.7733333333333E-05  6.7733333333334E-05  6.7733333333333E-05  6.7733333333334E-05  6.7733333333334E-05  6.7733333333333E-05  6.7733333333334E-05  6.7733333333333E-05  3.3866666666667E-05 
 2.6603001364267E+01  2.6603001364267E+01  2.6603001364267E+01  2.6603001364267E+01  2.6603001364267E+01  2.6603001364267E+01  2.6603001364267E+01  2.6603001364267E+01  2.6603001364267E+01  2.6603001364267E+01 
 1.7735334242827E+01  1.7735334242827E+01  1.7735334242827E+01  1.7735334242827E+01  1.7735334242827E+01  1.7735334242827E+01  1.7735334242827E+01  1.7735334242827E+01  1.7735334242827E+01  1.7735334242827E+01 
 4.3434618876037E-04  4.3436880329014E-04  4.3444052936112E-04  4.3456176628349E-04  4.3473255432186E-04  4.3495296130995E-04  4.3522306677848E-04  4.3554293192211E-04  4.3591157299429E-04  4.3625083836995E-04 
 2.1718576468534E+04  2.1719710060965E+04  2.1723296850538E+04  2.1729359382151E+04  2.1737899722359E+04  2.1748921273459E+04  2.1762428113526E+04  2.1778422213234E+04  2.1796828056174E+04  2.1813121405552E+04 
 8.6761770215367E-02  7.7165272161758E-02  5.9169420071145E-02  4.3567738823672E-02  3.0360398375044E-02  1.9548378205492E-02  1.1133469129608E-02  5.1182755995424E-03  1.5062199189897E-03  3.0145562401403E-04 
 5.3064029549857E-02  2.6533238723497E-01  9.0220649715135E-01  1.9638961237039E+00  3.4507545592455E+00  5.3632789416756E+00  7.7021106305893E+00  1.0468035456048E+01  1.3661977461667E+01  1.5366076509532E+01 
 2.1718436642734E+04  2.1719367563306E+04  2.1722335474621E+04  2.1727351918289E+04  2.1734418607402E+04  2.1743538446139E+04  2.1754714869426E+04  2.1767949059502E+04  2.1783164572493E+04  2.1797755027587E+04 
 9.8683612565633E+03  9.8688363075288E+03  9.8703536990721E+03  9.8729185015527E+03  9.8765316650806E+03  9.8811947384988E+03  9.8869095868917E+03  9.8936771996423E+03  9.9014654010116E+03  9.9091581670406E+03 
 1.1850075386171E+04  1.1850531255777E+04  1.1851981775549E+04  1.1854433416736E+04  1.1857886942321E+04  1.1862343707640E+04  1.1867805282535E+04  1.1874271859860E+04  1.1881699171481E+04  1.1888596860546E+04 
ZONE T = "CATH, 3.0000E-08", I = 10, SOLUTIONTIME = 3.000000E-08
ZONETYPE = ORDERED
DATAPACKING = BLOCK
STRANDID = 3
 1.2700000000000E-03  1.3377333333333E-03  1.4054666666667E-03  1.4732000000000E-03  1.5409333333333E-03  1.6086666666667E-03  1.6764000000000E-03  1.7441333333333E-03  1.8118666666667E-03  1.8796000000000E-03 
 1.9715103581999E-08  1.7399187545503E-08  1.5082987919115E-08  1.2765582624584E-08  1.0447502241886E-08  8.1281874557549E-09  5.8085314800064E-09  3.4876117547383E-09  1.1656113862267E-09  3.9952850055144E-12 
 9.2000000000095E-01  9.2000000000270E-01  9.2000000000270E-01  9.2000000000270E-01  9.2000000000270E-01  9.2000000000270E-01  9.2000000000270E-01  9.2000000000270E-01  9.2000000000270E-01  9.2000000000271E-01 
 3.9999999999524E-02  3.9999999998652E-02  3.9999999998652E-02  3.9999999998651E-02  3.9999999998651E-02  3.9999999998650E-02  3.9999999998650E-02  3.9999999998649E-02  3.9999999998648E-02  3.9999999998647E-02 
 3.9999999999524E-02  3.9999999998652E-02  3.9999999998652E-02  3.9999999998651E-02  3.9999999998651E-02  3.9999999998650E-02  3.9999999998650E-02  3.9999999998649E-02  3.9999999998648E-02  3.9999999998647E-02 
 2.9181790356956E-02  2.9181583283179E-02  2.9181400543145E-02  2.9181242139837E-02  2.9181108078290E-02  2.9180998365596E-02  2.9180913010908E-02  2.9180852025441E-02  2.9180815422478E-02  2.9180803217226E-02 
 3.8001746977857E+00  3.8001725422111E+00  3.8001660753207E+00  3.8001552965866E+00  3.8001402051167E+00  3.8001207996545E+00  3.8000970785784E+00  3.8000690399013E+00  3.8000366812710E+00  3.8000000000000E+00 
 2.9815000323335E+02  2.9815001240640E+02  2.9815001279247E+02  2.9815001291085E+02  2.9815001282109E+02  2.9815001276304E+02  2.9815001277757E+02  2.9815000946963E+02  2.9814991354216E+02  2.9814759771599E+02 
 3.7709929074287E+00  3.7709909589280E+00  3.7709846747776E+00  3.7709740544467E+00  3.7709590970384E+00  3.7709398012889E+00  3.7709161655675E+00  3.7708881878759E+00  3.7708558658485E+00  3.7708191967828E+00 
 3.9714142687184E+00  3.9714142613135E+00  3.9714142610019E+00  3.9714142609063E+00  3.9714142609788E+00  3.9714142610256E+00  3.9714142610139E+00  3.9714142636840E+00  3.9714143411153E+00  3.9714162104153E+00 
-2.0042136128969E-01 -2.0042330238555E-01 -2.0042958622431E-01 -2.0044020645959E-01 -2.0045516394038E-01 -2.0047445973674E-01 -2.0049809544639E-01 -2.0052607580812E-01 -2.0055847526679E-01 -2.0059701363254E-01 
-1.6677487917485E+00 -3.3356266002004E+00 -3.3360349922295E+00 -3.3367251542713E+00 -3.3376973350003E+00 -3.3389519262072E+00 -3.3404893625436E+00 -3.3423092625083E+00 -3.3443885229096E+00 -1.6730812309420E+00 
 1.4709686565787E-07  1.2981080194006E-07  1.1252301963590E-07  9.5231660843578E-08  7.7935264059185E-08  6.0632365824191E-08  4.3321500385320E-08  2.6001203978311E-08  8.6701324882702E-09  8.6701324882702E-09 
 3.0053053178789E+01  2.6717491086704E+01  2.3381660290458E+01  2.0045280217225E+01  1.6708068972491E+01  1.3369744341983E+01  1.0030023697722E+01  6.6886243850660E+00  3.3452754922910E+00  0.0000000000000E+00 
 0.0000000000000E+00  3.3355620919512E+00  6.6713928879889E+00  1.0007772961270E+01  1.3344984206048E+01  1.6683308836454E+01  2.0023029480817E+01  2.3364428793578E+01  2.6707777686202E+01  3.0053053178471E+01 
 5.0027226144927E-08  1.0005829804328E-07  1.0007054563217E-07  1.0009124579567E-07  1.0012040517214E-07  1.0015803522062E-07  1.0020414879614E-07  1.0025874697974E-07  1.0032144357503E-07  5.0190261988438E-08 
 7.2440786946725E+03  1.4488157389345E+04  1.4488157389345E+04  1.4488157389345E+04  1.4488157389345E+04  1.4488157389345E+04  1.4488157389345E+04  1.4488157389345E+04  1.4488157389345E+04  7.2440786946727E+03 
 4.9259735123383E+04  9.8519470246765E+04  9.8519470246766E+04  9.8519470246765E+04  9.8519470246766E+04  9.8519470246766E+04  9.8519470246765E+04  9.8519470246765E+04  9.8519470246765E+04  4.9259735123383E+04 
 5.6503813818055E+04  1.1300762763611E+05  1.1300762763611E+05  1.1300762763611E+05  1.1300762763611E+05  1.1300762763611E+05  1.1300762763611E+05  1.1300762763611E+05  1.1300762763611E+05  5.6503813818055E+04 
 3.5000000000000E-01  3.5000000000000E-01  3.5000000000000E-01  3.5000000000000E-01  3.5000000000000E-01  3.5000000000000E-01  3.5000000000000E-01  3.5000000000000E-01  3.5000000000000E-01  3.5000000000000E-01 
 6.6040000000000E+00  1.3208000000000E+01  1.3208000000000E+01  1.3208000000000E+01  1.3208000000000E+01  1.3208000000000E+01  1.3208000000000E+01  1.3208000000000E+01  1.3208000000000E+01  6.6040000000000E+00 
-2.5253615865361E-01 -2.5254592672626E-01 -2.5257684677691E-01 -2.5262910011139E-01 -2.5270270555726E-01 -2.5279769277765E-01 -2.5291409468077E-01 -2.5305188238251E-01 -2.5320930670121E-01 -2.5334361461872E-01 
 3.3866666666667E-05  6.7733333333333E-05  6.7733333333334E-05  6.7733333333333E-05  6.7733333333334E-05  6.7733333333334E-05  6.7733333333333E-05  6.7733333333334E-05  6.7733333333333E-05  3.3866666666667E-05 
 2.6603001364272E+01  2.6603001364272E+01  2.6603001364272E+01  2.6603001364272E+01  2.6603001364272E+01  2.6603001364272E+01  2.6603001364272E+01  2.6603001364272E+01  2.6603001364272E+01  2.6603001364272E+01 
 1.7735334242822E+01  1.7735334242822E+01  1.7735334242822E+01  1.7735334242822E+01  1.7735334242822E+01  1.7735334242822E+01  1.7735334242822E+01  1.7735334242822E+01  1.7735334242822E+01  1.7735334242822E+01 
 6.5155735793970E-04  6.5159136198610E-04  6.5169896816085E-04  6.5188084467473E-04  6.5213705462357E-04  6.5246770072944E-04  6.5287290289990E-04  6.5335271183938E-04  6.5390464496320E-04  6.5439432198947E-04 
 2.1721116917934E+04  2.1722255869596E+04  2.1725843879974E+04  2.1731907839124E+04  2.1740450030172E+04  2.1751473941949E+04  2.1764983612142E+04  2.1780977991726E+04  2.1799307196892E+04  2.1814348361952E+04 
 8.6779313945691E-02  7.7180840269126E-02  5.9181287942027E-02  4.3576408819878E-02  3.0366373355114E-02  1.9552161409423E-02  1.1135564364275E-02  5.1191876444250E-03  1.5064564890790E-03  3.0148196098090E-04 
 5.3075150521305E-02  2.6538807036638E-01  9.0239592373170E-01  1.9643085777878E+00  3.4514794353474E+00  5.3644057857601E+00  7.7037291822137E+00  1.0470235467376E+01  1.3664842260925E+01  1.5369292952376E+01 
 2.1720977063469E+04  2.1721913300685E+04  2.1724882302762E+04  2.1729899954137E+04  2.1736968184363E+04  2.1746089984002E+04  2.1757268747395E+04  2.1770502637071E+04  2.1785640848174E+04  2.1798978767517E+04 
 9.8696599349891E+03  9.8701372845210E+03  9.8716552134352E+03  9.8742206518996E+03  9.8778346427929E+03  9.8824987720617E+03  9.8882148875476E+03  9.8949826852690E+03  9.9027381327087E+03  9.9098946405151E+03 
 1.1851317128480E+04  1.1851776016164E+04  1.1853227089327E+04  1.1855679302238E+04  1.1859133541570E+04  1.1863591211940E+04  1.1869053859847E+04  1.1875519951802E+04  1.1882902715466E+04  1.1889084127002E+04 
ZONE T = "CATH, 4.0000E-08", I = 10, SOLUTIONTIME = 4.000000E-08
ZONETYPE = ORDERED
DATAPACKING = BLOCK
STRANDID = 3
 1.2700000000000E-03  1.3377333333333E-03  1.4054666666667E-03  1.4732000000000E-03  1.5409333333333E-03  1.6086666666667E-03  1.6764000000000E-03  1.7441333333333E-03  1.8118666666667E-03  1.8796000000000E-03 
 1.9713469138947E-08  1.7396582901885E-08  1.5079412959026E-08  1.2762490056576E-08  1.0444165507073E-08  8.1260592113849E-09  5.8054323042008E-09  3.4839051489551E-09  1.1616710150049E-09 -3.6320772783899E-13 
 9.2000000000127E-01  9.2000000000360E-01  9.2000000000360E-01  9.2000000000360E-01  9.2000000000360E-01  9.2000000000360E-01  9.2000000000360E-01  9.2000000000360E-01  9.2000000000360E-01  9.2000000000361E-01 
 3.9999999999365E-02  3.9999999998202E-02  3.9999999998202E-02  3.9999999998202E-02  3.9999999998201E-02  3.9999999998201E-02  3.9999999998200E-02  3.9999999998199E-02  3.9999999998198E-02  3.9999999998197E-02 
 3.9999999999365E-02  3.9999999998202E-02  3.9999999998202E-02  3.9999999998202E-02  3.9999999998201E-02  3.9999999998201E-02  3.9999999998200E-02  3.9999999998199E-02  3.9999999998198E-02  3.9999999998197E-02 
 2.9187195620793E-02  2.9186988526028E-02  2.9186805767567E-02  2.9186647348394E-02  2.9186513273546E-02  2.9186403550116E-02  2.9186318187259E-02  2.9186257196194E-02  2.9186220590201E-02  2.9186208384388E-02 
 3.8001747161573E+00  3.8001725603564E+00  3.8001660927858E+00  3.8001553129176E+00  3.8001402198594E+00  3.8001208123544E+00  3.8000970887808E+00  3.8000690471510E+00  3.8000366851134E+00  3.8000000000000E+00 