TITLE = "Solution on Domain BulkDomain1D_2"
VARIABLES = "x [m]"  
"Vel_axial" 	"MF_sp(ECDMC)" 	"MF_sp(Li+)" 	"MF_sp(PF6-)" 	"Volt(Electroly)" 	"Volt(CathodeVo)" 	"Temperature" 	
"Potential Drop Electrode-Electrolyte [V]" 	"Surf_0 Equilibrium Potential Drop Electrode-Electrolyte [V]" 	"Overpotential_0 [V]" 	"Current Source [A/m^2]" 	"Li+ flux [kmol/m^2/s]" 	"Electrolyte Current [A/m^2]" 	"Electrode Current [A/m^2]" 	
"CV Capacity discharged [A-s/m^2]" 	"Depth of discharge in CV [A-s/m^2]" 	"CV Capacity remaining [A-s/m^2]" 	"Initial CV capacity [A-s/m^2]" 	"Porosity []" 	"Surface Area [m2/m2] (area per area)" 	"Specific current (per particle area) [A/m^2]" 	"Control volume thickness [m]" 	
"MoleDens LiCoO2 [kmol/m^3]" 	"MoleDens CoO2 [kmol/m^3]" 	"qHeat_accum [J/m3]" 	"qHeat_step [W/m3]" 	"Joule_Lyte [W/m3]" 	"Joule_Solid [W/m3]" 	"electrodHeat [W/m3]" 	"OverpotHeat [W/m3]" 	"deltaSHeat [W/m3]" 	

ZONE T = "CATH, 0.0000E+00", I = 10, SOLUTIONTIME = 0.000000E+00
ZONETYPE = ORDERED
DATAPACKING = BLOCK
STRANDID = 3
 1.2700000000000E-03  1.3377333333333E-03  1.4054666666667E-03  1.4732000000000E-03  1.5409333333333E-03  1.6086666666667E-03  1.6764000000000E-03  1.7441333333333E-03  1.8118666666667E-03  1.8796000000000E-03 
 0.0000000000000E+00  0.0000000000000E+00  0.0000000000000E+00  0.0000000000000E+00  0.0000000000000E+00  0.0000000000000E+00  0.0000000000000E+00  0.0000000000000E+00  0.0000000000000E+00  0.0000000000000E+00 
 9.2000000000000E-01  9.2000000000000E-01  9.2000000000000E-01  9.2000000000000E-01  9.2000000000000E-01  9.2000000000000E-01  9.2000000000000E-01  9.2000000000000E-01  9.2000000000000E-01  9.2000000000000E-01 
 4.0000000000000E-02  4.0000000000000E-02  4.0000000000000E-02  4.0000000000000E-02  4.0000000000000E-02  4.0000000000000E-02  4.0000000000000E-02  4.0000000000000E-02  4.0000000000000E-02  4.0000000000000E-02 
 4.0000000000000E-02  4.0000000000000E-02  4.0000000000000E-02  4.0000000000000E-02  4.0000000000000E-02  4.0000000000000E-02  4.0000000000000E-02  4.0000000000000E-02  4.0000000000000E-02  4.0000000000000E-02 
-7.0000000000000E-02 -7.0000000000000E-02 -7.0000000000000E-02 -7.0000000000000E-02 -7.0000000000000E-02 -7.0000000000000E-02 -7.0000000000000E-02 -7.0000000000000E-02 -7.0000000000000E-02 -7.0000000000000E-02 
 3.8000000000000E+00  3.8000000000000E+00  3.8000000000000E+00  3.8000000000000E+00  3.8000000000000E+00  3.8000000000000E+00  3.8000000000000E+00  3.8000000000000E+00  3.8000000000000E+00  3.8000000000000E+00 
 2.9815000000000E+02  2.9815000000000E+02  2.9815000000000E+02  2.9815000000000E+02  2.9815000000000E+02  2.9815000000000E+02  2.9815000000000E+02  2.9815000000000E+02  2.9815000000000E+02  2.9815000000000E+02 
 3.8700000000000E+00  3.8700000000000E+00  3.8700000000000E+00  3.8700000000000E+00  3.8700000000000E+00  3.8700000000000E+00  3.8700000000000E+00  3.8700000000000E+00  3.8700000000000E+00  3.8700000000000E+00 
 3.9714142713289E+00  3.9714142713289E+00  3.9714142713289E+00  3.9714142713289E+00  3.9714142713289E+00  3.9714142713289E+00  3.9714142713289E+00  3.9714142713289E+00  3.9714142713289E+00  3.9714142713289E+00 
-1.0141427132889E-01 -1.0141427132889E-01 -1.0141427132889E-01 -1.0141427132889E-01 -1.0141427132889E-01 -1.0141427132889E-01 -1.0141427132889E-01 -1.0141427132889E-01 -1.0141427132889E-01 -1.0141427132889E-01 
-2.3826357195711E-01 -4.7652714391422E-01 -4.7652714391423E-01 -4.7652714391422E-01 -4.7652714391423E-01 -4.7652714391423E-01 -4.7652714391422E-01 -4.7652714391423E-01 -4.7652714391422E-01 -2.3826357195711E-01 
-0.0000000000000E+00 -0.0000000000000E+00 -0.0000000000000E+00 -0.0000000000000E+00 -0.0000000000000E+00 -0.0000000000000E+00 -0.0000000000000E+00 -0.0000000000000E+00 -0.0000000000000E+00 -0.0000000000000E+00 
 2.3826357195711E-01  0.0000000000000E+00  0.0000000000000E+00  0.0000000000000E+00  0.0000000000000E+00  0.0000000000000E+00  0.0000000000000E+00  0.0000000000000E+00  0.0000000000000E+00  0.0000000000000E+00 
 0.0000000000000E+00 -0.0000000000000E+00 -0.0000000000000E+00 -0.0000000000000E+00 -0.0000000000000E+00 -0.0000000000000E+00 -0.0000000000000E+00 -0.0000000000000E+00 -0.0000000000000E+00  2.3826357195711E-01 
-0.0000000000000E+00 -0.0000000000000E+00 -0.0000000000000E+00 -0.0000000000000E+00 -0.0000000000000E+00 -0.0000000000000E+00 -0.0000000000000E+00 -0.0000000000000E+00 -0.0000000000000E+00 -0.0000000000000E+00 
 7.2440786946225E+03  1.4488157389245E+04  1.4488157389245E+04  1.4488157389245E+04  1.4488157389245E+04  1.4488157389245E+04  1.4488157389245E+04  1.4488157389245E+04  1.4488157389245E+04  7.2440786946225E+03 
 4.9259735123433E+04  9.8519470246865E+04  9.8519470246866E+04  9.8519470246865E+04  9.8519470246866E+04  9.8519470246866E+04  9.8519470246865E+04  9.8519470246866E+04  9.8519470246865E+04  4.9259735123433E+04 
 5.6503813818055E+04  1.1300762763611E+05  1.1300762763611E+05  1.1300762763611E+05  1.1300762763611E+05  1.1300762763611E+05  1.1300762763611E+05  1.1300762763611E+05  1.1300762763611E+05  5.6503813818055E+04 
 3.5000000000000E-01  3.5000000000000E-01  3.5000000000000E-01  3.5000000000000E-01  3.5000000000000E-01  3.5000000000000E-01  3.5000000000000E-01  3.5000000000000E-01  3.5000000000000E-01  3.5000000000000E-01 
 6.6040000000000E+00  1.3208000000000E+01  1.3208000000000E+01  1.3208000000000E+01  1.3208000000000E+01  1.3208000000000E+01  1.3208000000000E+01  1.3208000000000E+01  1.3208000000000E+01  6.6040000000000E+00 
-3.6078675341780E-02 -3.6078675341780E-02 -3.6078675341780E-02 -3.6078675341780E-02 -3.6078675341780E-02 -3.6078675341780E-02 -3.6078675341780E-02 -3.6078675341780E-02 -3.6078675341780E-02 -3.6078675341780E-02 
 3.3866666666667E-05  6.7733333333333E-05  6.7733333333334E-05  6.7733333333333E-05  6.7733333333334E-05  6.7733333333334E-05  6.7733333333333E-05  6.7733333333334E-05  6.7733333333333E-05  3.3866666666667E-05 
 2.6603001364256E+01  2.6603001364256E+01  2.6603001364256E+01  2.6603001364256E+01  2.6603001364256E+01  2.6603001364256E+01  2.6603001364256E+01  2.6603001364256E+01  2.6603001364256E+01  2.6603001364256E+01 
 1.7735334242838E+01  1.7735334242838E+01  1.7735334242838E+01  1.7735334242838E+01  1.7735334242838E+01  1.7735334242838E+01  1.7735334242838E+01  1.7735334242838E+01  1.7735334242838E+01  1.7735334242838E+01 
 0.0000000000000E+00  0.0000000000000E+00  0.0000000000000E+00  0.0000000000000E+00  0.0000000000000E+00  0.0000000000000E+00  0.0000000000000E+00  0.0000000000000E+00  0.0000000000000E+00  0.0000000000000E+00 
 0.0000000000000E+00  0.0000000000000E+00  0.0000000000000E+00  0.0000000000000E+00  0.0000000000000E+00  0.0000000000000E+00  0.0000000000000E+00  0.0000000000000E+00  0.0000000000000E+00  0.0000000000000E+00 
 0.0000000000000E+00  0.0000000000000E+00  0.0000000000000E+00  0.0000000000000E+00  0.0000000000000E+00  0.0000000000000E+00  0.0000000000000E+00  0.0000000000000E+00  0.0000000000000E+00  0.0000000000000E+00 
 0.0000000000000E+00  0.0000000000000E+00  0.0000000000000E+00  0.0000000000000E+00  0.0000000000000E+00  0.0000000000000E+00  0.0000000000000E+00  0.0000000000000E+00  0.0000000000000E+00  0.0000000000000E+00 
 0.0000000000000E+00  0.0000000000000E+00  0.0000000000000E+00  0.0000000000000E+00  0.0000000000000E+00  0.0000000000000E+00  0.0000000000000E+00  0.0000000000000E+00  0.0000000000000E+00  0.0000000000000E+00 
 0.0000000000000E+00  0.0000000000000E+00  0.0000000000000E+00  0.0000000000000E+00  0.0000000000000E+00  0.0000000000000E+00  0.0000000000000E+00  0.0000000000000E+00  0.0000000000000E+00  0.0000000000000E+00 
 0.0000000000000E+00  0.0000000000000E+00  0.0000000000000E+00  0.0000000000000E+00  0.0000000000000E+00  0.0000000000000E+00  0.0000000000000E+00  0.0000000000000E+00  0.0000000000000E+00  0.0000000000000E+00 
ZONE T = "CATH, 1.0000E-08", I = 10, SOLUTIONTIME = 1.000000E-08
ZONETYPE = ORDERED
DATAPACKING = BLOCK
STRANDID = 3
 1.2700000000000E-03  1.3377333333333E-03  1.4054666666667E-03  1.4732000000000E-03  1.5409333333333E-03  1.6086666666667E-03  1.6764000000000E-03  1.7441333333333E-03  1.8118666666667E-03  1.8796000000000E-03 
 1.9707311205154E-08  1.7391880982982E-08  1.5075077722109E-08  1.2758158646324E-08  1.0439838329746E-08  8.1217367956688E-09  5.8025681096958E-09  3.4821356478199E-09  1.1602454416446E-09 -1.4528309117262E-12 
 9.2000000000032E-01  9.2000000000090E-01  9.2000000000090E-01  9.2000000000090E-01  9.2000000000090E-01  9.2000000000090E-01  9.2000000000090E-01  9.2000000000090E-01  9.2000000000090E-01  9.2000000000090E-01 
 3.9999999999841E-02  3.9999999999551E-02  3.9999999999551E-02  3.9999999999550E-02  3.9999999999550E-02  3.9999999999550E-02  3.9999999999550E-02  3.9999999999550E-02  3.9999999999549E-02  3.9999999999549E-02 
 3.9999999999841E-02  3.9999999999551E-02  3.9999999999551E-02  3.9999999999550E-02  3.9999999999550E-02  3.9999999999550E-02  3.9999999999550E-02  3.9999999999550E-02  3.9999999999549E-02  3.9999999999549E-02 
 2.9171017695195E-02  2.9170810663220E-02  2.9170627959886E-02  2.9170469588172E-02  2.9170335553110E-02  2.9170225861789E-02  2.9170140523359E-02  2.9170079549031E-02  2.9170042952081E-02  2.9170030747840E-02 
 3.8001746611620E+00  3.8001725060385E+00  3.8001660405034E+00  3.8001552640292E+00  3.8001401757242E+00  3.8001207743323E+00  3.8000970582328E+00  3.8000690254393E+00  3.8000366735994E+00  3.8000000000000E+00 
 2.9815000108052E+02  2.9815000423155E+02  2.9815000431583E+02  2.9815000427580E+02  2.9815000429596E+02  2.9815000429399E+02  2.9815000427948E+02  2.9815000399289E+02  2.9814998671538E+02  2.9814916195090E+02 
 3.7710036434668E+00  3.7710016953753E+00  3.7709954125435E+00  3.7709847944410E+00  3.7709698401710E+00  3.7709505484706E+00  3.7709269177095E+00  3.7708989458903E+00  3.7708666306474E+00  3.7708299692522E+00 
 3.9714142704565E+00  3.9714142679129E+00  3.9714142678448E+00  3.9714142678772E+00  3.9714142678609E+00  3.9714142678625E+00  3.9714142678742E+00  3.9714142681055E+00  3.9714142820517E+00  3.9714149477897E+00 
-2.0041062698970E-01 -2.0041257253758E-01 -2.0041885530132E-01 -2.0042947343617E-01 -2.0044442768983E-01 -2.0046371939191E-01 -2.0048735016472E-01 -2.0051532221526E-01 -2.0054765140431E-01 -2.0058497853756E-01 
-1.6673998103765E+00 -3.3349269888741E+00 -3.3353351297935E+00 -3.3360249605464E+00 -3.3369967627826E+00 -3.3382508427280E+00 -3.3397876264549E+00 -3.3416075644132E+00 -3.3437068323127E+00 -1.6729380401803E+00 
 1.4706690868647E-07  1.2978473560541E-07  1.1250058005806E-07  9.5212849716746E-08  7.7920083365957E-08  6.0620818201421E-08  4.3313589223238E-08  2.5996929074960E-08  8.6693902255584E-09  8.6693902255584E-09 
 3.0046974558630E+01  2.6712111253606E+01  2.3376980194233E+01  2.0041300149218E+01  1.6704789287459E+01  1.3367165484596E+01  1.0028146250263E+01  6.6874486548748E+00  3.3447914562442E+00  0.0000000000000E+00 
 0.0000000000000E+00  3.3348633048566E+00  6.6699943641228E+00  1.0005674409270E+01  1.3342185270987E+01  1.6679809073731E+01  2.0018828308393E+01  2.3359525903942E+01  2.6702183102156E+01  3.0046974558324E+01 
 1.6673998103765E-08  3.3349269888741E-08  3.3353351297935E-08  3.3360249605464E-08  3.3369967627826E-08  3.3382508427280E-08  3.3397876264549E-08  3.3416075644132E-08  3.3437068323127E-08  1.6729380401803E-08 
 7.2440786946392E+03  1.4488157389278E+04  1.4488157389278E+04  1.4488157389278E+04  1.4488157389278E+04  1.4488157389278E+04  1.4488157389278E+04  1.4488157389278E+04  1.4488157389278E+04  7.2440786946392E+03 
 4.9259735123416E+04  9.8519470246832E+04  9.8519470246832E+04  9.8519470246832E+04  9.8519470246832E+04  9.8519470246832E+04  9.8519470246832E+04  9.8519470246832E+04  9.8519470246832E+04  4.9259735123416E+04 
 5.6503813818055E+04  1.1300762763611E+05  1.1300762763611E+05  1.1300762763611E+05  1.1300762763611E+05  1.1300762763611E+05  1.1300762763611E+05  1.1300762763611E+05  1.1300762763611E+05  5.6503813818055E+04 
 3.5000000000000E-01  3.5000000000000E-01  3.5000000000000E-01  3.5000000000000E-01  3.5000000000000E-01  3.5000000000000E-01  3.5000000000000E-01  3.5000000000000E-01  3.5000000000000E-01  3.5000000000000E-01 
 6.6040000000000E+00  1.3208000000000E+01  1.3208000000000E+01  1.3208000000000E+01  1.3208000000000E+01  1.3208000000000E+01  1.3208000000000E+01  1.3208000000000E+01  1.3208000000000E+01  6.6040000000000E+00 
-2.5248331471479E-01 -2.5249295797048E-01 -2.5252385900920E-01 -2.5257608726124E-01 -2.5264966405077E-01 -2.5274461256269E-01 -2.5286096505564E-01 -2.5299875563395E-01 -2.5315769475414E-01 -2.5332193218963E-01 
 3.3866666666667E-05  6.7733333333333E-05  6.7733333333334E-05  6.7733333333333E-05  6.7733333333334E-05  6.7733333333334E-05  6.7733333333333E-05  6.7733333333334E-05  6.7733333333333E-05  3.3866666666667E-05 
 2.6603001364262E+01  2.6603001364262E+01  2.6603001364262E+01  2.6603001364262E+01  2.6603001364262E+01  2.6603001364262E+01  2.6603001364262E+01  2.6603001364262E+01  2.6603001364262E+01  2.6603001364262E+01 
 1.7735334242833E+01  1.7735334242833E+01  1.7735334242833E+01  1.7735334242833E+01  1.7735334242833E+01  1.7735334242833E+01  1.7735334242833E+01  1.7735334242833E+01  1.7735334242833E+01  1.7735334242833E+01 
 2.1716043074141E-04  2.1717171068906E-04  2.1720756985953E-04  2.1726818017751E-04  2.1735356663299E-04  2.1746375849541E-04  2.1759879557049E-04  2.1775872194645E-04  2.1794330389887E-04  2.1811963852739E-04 
 2.1716043074141E+04  2.1717171068906E+04  2.1720756985953E+04  2.1726818017751E+04  2.1735356663299E+04  2.1746375849541E+04  2.1759879557049E+04  2.1775872194645E+04  2.1794330389887E+04  2.1811963852739E+04 
 8.6744282770696E-02  7.7149754420351E-02  5.9157591301183E-02  4.3559097987694E-02  3.0354444052808E-02  1.9544608587887E-02  1.1131381934391E-02  5.1173676126716E-03  1.5059855279363E-03  3.0143118612607E-04 
 5.3052940572431E-02  2.6527686071521E-01  9.0201760808449E-01  1.9634848475678E+00  3.4500317652668E+00  5.3621553507728E+00  7.7004967474021E+00  1.0465841681619E+01  1.3659118605249E+01  1.5362864911227E+01 
 2.1715903276918E+04  2.1716828642291E+04  2.1719795810754E+04  2.1724810973805E+04  2.1731876277089E+04  2.1740994149582E+04  2.1752167928920E+04  2.1765401235596E+04  2.1780669765296E+04  2.1796600686397E+04 
 9.8670661842588E+03  9.8675388346390E+03  9.8690558379989E+03  9.8716199736200E+03  9.8752323767680E+03  9.8798943926781E+03  9.8856078446135E+03  9.8923747661845E+03  9.9001853179996E+03  9.9084519946272E+03 
 1.1848837092659E+04  1.1849289807652E+04  1.1850739972755E+04  1.1853191000185E+04  1.1856643900321E+04  1.1861099756904E+04  1.1866560084306E+04  1.1873026469412E+04  1.1880484447297E+04  1.1888148691770E+04 
ZONE T = "CATH, 2.0000E-08", I = 10, SOLUTIONTIME = 2.000000E-08
ZONETYPE = ORDERED
DATAPACKING = BLOCK
STRANDID = 3
 1.2700000000000E-03  1.3377333333333E-03  1.4054666666667E-03  1.4732000000000E-03  1.5409333333333E-03  1.6086666666667E-03  1.6764000000000E-03  1.7441333333333E-03  1.8118666666667E-03  1.8796000000000E-03 
 1.9707663217533E-08  1.7391263978138E-08  1.5075670874430E-08  1.2759235419263E-08  1.0442125008758E-08  8.1237803691642E-09  5.8043683651992E-09  3.4836925064871E-09  1.1612013731449E-09 -7.2641545579329E-13 
 9.2000000000064E-01  9.2000000000180E-01  9.2000000000180E-01  9.2000000000180E-01  9.2000000000180E-01  9.2000000000180E-01  9.2000000000180E-01  9.2000000000180E-01  9.2000000000180E-01  9.2000000000180E-01 
 3.9999999999682E-02  3.9999999999101E-02  3.9999999999101E-02  3.9999999999101E-02  3.9999999999101E-02  3.9999999999100E-02  3.9999999999100E-02  3.9999999999099E-02  3.9999999999099E-02  3.9999999999098E-02 
 3.9999999999682E-02  3.9999999999101E-02  3.9999999999101E-02  3.9999999999101E-02  3.9999999999101E-02  3.9999999999100E-02  3.9999999999100E-02  3.9999999999099E-02  3.9999999999099E-02  3.9999999999098E-02 
 2.9176396958085E-02  2.9176189905239E-02  2.9176007183582E-02  2.9175848796095E-02  2.9175714747811E-02  2.9175605045822E-02  2.9175519699276E-02  2.9175458719389E-02  2.9175422119440E-02  2.9175409914713E-02 
 3.8001746794528E+00  3.8001725241041E+00  3.8001660578922E+00  3.8001552802895E+00  3.8001401904041E+00  3.8001207869797E+00  3.8000970683952E+00  3.8000690326637E+00  3.8000366774329E+00  3.8000000000000E+00 
 2.9815000216198E+02  2.9815000845603E+02  2.9815000860899E+02  2.9815000868190E+02  2.9815000864044E+02  2.9815000862897E+02  2.9815000855401E+02  2.9815000725793E+02  2.9814995753608E+02  2.9814836202539E+02 
 3.7709982824947E+00  3.7709963341989E+00  3.7709900507086E+00  3.7709794314934E+00  3.7709644756563E+00  3.7709451819339E+00  3.7709215486959E+00  3.7708935739443E+00  3.7708612553134E+00  3.7708245900853E+00 
 3.9714142695834E+00  3.9714142645026E+00  3.9714142643791E+00  3.9714142643202E+00  3.9714142643537E+00  3.9714142643630E+00  3.9714142644235E+00  3.9714142654696E+00  3.9714143056044E+00  3.9714155934772E+00 
-2.0041598708868E-01 -2.0041793030371E-01 -2.0042421367048E-01 -2.0043483282686E-01 -2.0044978869743E-01 -2.0046908242905E-01 -2.0049271572758E-01 -2.0052069152534E-01 -2.0055305029098E-01 -2.0059100339188E-01 
-1.6675740637386E+00 -3.3352763547444E+00 -3.3356845993186E+00 -3.3363746044555E+00 -3.3373465938991E+00 -3.3386009340367E+00 -3.3401380237450E+00 -3.3419580752453E+00 -3.3440491672394E+00 -1.6730070375366E+00 
 1.4708186551958E-07  1.2979774940997E-07  1.1251178286723E-07  9.5222240654318E-08  7.7927661440034E-08  6.0626582078605E-08  4.3317537307947E-08  2.5999060780756E-08  8.6697479014901E-09  8.6697479014901E-09 
 3.0050009453999E+01  2.6714797212915E+01  2.3379316735784E+01  2.0043287134026E+01  1.6706426534914E+01  1.3368452770708E+01  1.0029083291866E+01  6.6880352423889E+00  3.3450316212018E+00  0.0000000000000E+00 
 0.0000000000000E+00  3.3352122411744E+00  6.6706927182967E+00  1.0006722320110E+01  1.3343582919048E+01  1.6681556683032E+01  2.0020926162223E+01  2.3361974211717E+01  2.6704977832732E+01  3.0050009453824E+01 
 3.3349738741151E-08  6.6702033436185E-08  6.6710197291122E-08  6.6723995650020E-08  6.6743433566817E-08  6.6768517767647E-08  6.6799256501999E-08  6.6835656396585E-08  6.6877559995520E-08  3.3459450777169E-08 
 7.2440786946558E+03  1.4488157389312E+04  1.4488157389312E+04  1.4488157389312E+04  1.4488157389312E+04  1.4488157389312E+04  1.4488157389312E+04  1.4488157389312E+04  1.4488157389312E+04  7.2440786946559E+03 
 4.9259735123400E+04  9.8519470246798E+04  9.8519470246799E+04  9.8519470246798E+04  9.8519470246799E+04  9.8519470246799E+04  9.8519470246798E+04  9.8519470246799E+04  9.8519470246798E+04  4.9259735123399E+04 
 5.6503813818055E+04  1.1300762763611E+05  1.1300762763611E+05  1.1300762763611E+05  1.1300762763611E+05  1.1300762763611E+05  1.1300762763611E+05  1.1300762763611E+05  1.1300762763611E+05  5.6503813818055E+04 
 3.5000000000000E-01  3.5000000000000E-01  3.5000000000000E-01  3.5000000000000E-01  3.5000000000000E-01  3.5000000000000E-01  3.5000000000000E-01  3.5000000000000E-01  3.5000000000000E-01  3.5000000000000E-01 
 6.6040000000000E+00  1.3208000000000E+01  1.3208000000000E+01  1.3208000000000E+01  1.3208000000000E+01  1.3208000000000E+01  1.3208000000000E+01  1.3208000000000E+01  1.3208000000000E+01  6.6040000000000E+00 
-2.5250970074782E-01 -2.5251940905091E-01 -2.5255031793751E-01 -2.5260255939246E-01 -2.5267615035577E-01 -2.5277111856729E-01 -2.5288749422660E-01 -2.5302529340137E-01 -2.5318361350995E-01 -2.5333238000252E-01 
 3.3866666666667E-05  6.7733333333333E-05  6.7733333333334E-05  6.7733333333333E-05  6.7733333333334E-05  6.7733333333334E-05  6.7733333333333E-05  6.7733333333334E-05  6.7733333333333E-05  3.3866666666667E-05 
 2.6603001364267E+01  2.6603001364267E+01  2.6603001364267E+01  2.6603001364267E+01  2.6603001364267E+01  2.6603001364267E+01  2.6603001364267E+01  2.6603001364267E+01  2.6603001364267E+01  2.6603001364267E+01 
 1.7735334242827E+01  1.7735334242827E+01  1.7735334242827E+01  1.7735334242827E+01  1.7735334242827E+01  1.7735334242827E+01  1.7735334242827E+01  1.7735334242827E+01  1.7735334242827E+01  1.7735334242827E+01 
 4.3434619604654E-04  4.3436881301100E-04  4.3444054037897E-04  4.3456177621976E-04  4.3473256671716E-04  4.3495297435952E-04  4.3522307697818E-04  4.3554294712295E-04  4.3591158601487E-04  4.3625085523408E-04 
 2.1718576530513E+04  2.1719710232194E+04  2.1723297051944E+04  2.1729359604225E+04  2.1737900008417E+04  2.1748921586411E+04  2.1762428140769E+04  2.1778422517650E+04  2.1796828211600E+04  2.1813121670669E+04 
 8.6761771955211E-02  7.7165273731984E-02  5.9169421303276E-02  4.3567739738855E-02  3.0360398999388E-02  1.9548378570639E-02  1.1133469337533E-02  5.1182757080652E-03  1.5062199475321E-03  3.0145563158587E-04 
 5.3064029855991E-02  2.6533239043851E-01  9.0220651020664E-01  1.9638961552946E+00  3.4507546212849E+00  5.3632790484233E+00  7.7021107772354E+00  1.0468035651453E+01  1.3661977720166E+01  1.5366076796424E+01 
 2.1718436704711E+04  2.1719367734530E+04  2.1722335676012E+04  2.1727352140330E+04  2.1734418893397E+04  2.1743538758984E+04  2.1754714896523E+04  2.1767949363723E+04  2.1783164727660E+04  2.1797755292417E+04 
 9.8683612803491E+03  9.8688363780965E+03  9.8703537825607E+03  9.8729185938897E+03  9.8765317848147E+03  9.8811948697455E+03  9.8869095957661E+03  9.8936773272322E+03  9.9014654647714E+03  9.9091582778042E+03 
 1.1850075424362E+04  1.1850531356433E+04  1.1851981893452E+04  1.1854433546440E+04  1.1857887108582E+04  1.1862343889239E+04  1.1867805300757E+04  1.1874272036491E+04  1.1881699262888E+04  1.1888597014613E+04 
ZONE T = "CATH, 3.0000E-08", I = 10, SOLUTIONTIME = 3.000000E-08
ZONETYPE = ORDERED
DATAPACKING = BLOCK
STRANDID = 3
 1.2700000000000E-03  1.3377333333333E-03  1.4054666666667E-03  1.4732000000000E-03  1.5409333333333E-03  1.6086666666667E-03  1.6764000000000E-03  1.7441333333333E-03  1.8118666666667E-03  1.8796000000000E-03 
 1.9715648609445E-08  1.7399732539706E-08  1.5083532893695E-08  1.2766127570584E-08  1.0448047154144E-08  8.1287323268375E-09  5.8090763528592E-09  3.4881566059233E-09  1.1661562198153E-09  4.5400965979160E-12 
 9.2000000000095E-01  9.2000000000270E-01  9.2000000000270E-01  9.2000000000270E-01  9.2000000000270E-01  9.2000000000270E-01  9.2000000000270E-01  9.2000000000270E-01  9.2000000000270E-01  9.2000000000271E-01 
 3.9999999999524E-02  3.9999999998652E-02  3.9999999998652E-02  3.9999999998651E-02  3.9999999998651E-02  3.9999999998650E-02  3.9999999998650E-02  3.9999999998649E-02  3.9999999998648E-02  3.9999999998647E-02 
 3.9999999999524E-02  3.9999999998652E-02  3.9999999998652E-02  3.9999999998651E-02  3.9999999998651E-02  3.9999999998650E-02  3.9999999998650E-02  3.9999999998649E-02  3.9999999998648E-02  3.9999999998647E-02 
 2.9181790374309E-02  2.9181583300529E-02  2.9181400560493E-02  2.9181242157184E-02  2.9181108095635E-02  2.9180998382941E-02  2.9180913028252E-02  2.9180852042784E-02  2.9180815439820E-02  2.9180803234568E-02 
 3.8001746977876E+00  3.8001725422130E+00  3.8001660753225E+00  3.8001552965883E+00  3.8001402051182E+00  3.8001207996558E+00  3.8000970785794E+00  3.8000690399021E+00  3.8000366812714E+00  3.8000000000000E+00 
 2.9815000327732E+02  2.9815001258329E+02  2.9815001289531E+02  2.9815001306231E+02  2.9815001300051E+02  2.9815001298271E+02  2.9815001276397E+02  2.9815000958311E+02  2.9814991363341E+02  2.9814759795014E+02 
 3.7709929074133E+00  3.7709909589125E+00  3.7709846747620E+00  3.7709740544311E+00  3.7709590970226E+00  3.7709398012728E+00  3.7709161655512E+00  3.7708881878593E+00  3.7708558658316E+00  3.7708191967654E+00 
 3.9714142686829E+00  3.9714142611707E+00  3.9714142609189E+00  3.9714142607841E+00  3.9714142608340E+00  3.9714142608483E+00  3.9714142610249E+00  3.9714142635924E+00  3.9714143410417E+00  3.9714162102263E+00 
-2.0042136126969E-01 -2.0042330225826E-01 -2.0042958615686E-01 -2.0044020635300E-01 -2.0045516381138E-01 -2.0047445957548E-01 -2.0049809547371E-01 -2.0052607573316E-01 -2.0055847521011E-01 -2.0059701346089E-01 
-1.6677487980754E+00 -3.3356266480700E+00 -3.3360350204888E+00 -3.3367251954290E+00 -3.3376973835918E+00 -3.3389519855031E+00 -3.3404893599965E+00 -3.3423092937127E+00 -3.3443885482492E+00 -1.6730812626179E+00 
 1.4709686727436E-07  1.2981080330950E-07  1.1252302084888E-07  9.5231661843088E-08  7.7935264810468E-08  6.0632366269039E-08  4.3321500841400E-08  2.6001204274988E-08  8.6701326511291E-09  8.6701326511291E-09 
 3.0053053496099E+01  2.6717491373764E+01  2.3381660539146E+01  2.0045280431259E+01  1.6708069141894E+01  1.3369744457392E+01  1.0030023784649E+01  6.6886244576960E+00  3.3452755366295E+00  0.0000000000000E+00 
 0.0000000000000E+00  3.3355621220152E+00  6.6713929563629E+00  1.0007773064347E+01  1.3344984353790E+01  1.6683309038484E+01  2.0023029711193E+01  2.3364429038040E+01  2.6707777959011E+01  3.0053053495669E+01 
 5.0027226721905E-08  1.0005829991688E-07  1.0007054749601E-07  1.0009124760431E-07  1.0012040740274E-07  1.0015803762268E-07  1.0020415010196E-07  1.0025874933371E-07  1.0032144547801E-07  5.0190263403348E-08 
 7.2440786946725E+03  1.4488157389345E+04  1.4488157389345E+04  1.4488157389345E+04  1.4488157389345E+04  1.4488157389345E+04  1.4488157389345E+04  1.4488157389345E+04  1.4488157389345E+04  7.2440786946727E+03 
 4.9259735123383E+04  9.8519470246765E+04  9.8519470246766E+04  9.8519470246765E+04  9.8519470246766E+04  9.8519470246766E+04  9.8519470246765E+04  9.8519470246765E+04  9.8519470246765E+04  4.9259735123383E+04 
 5.6503813818055E+04  1.1300762763611E+05  1.1300762763611E+05  1.1300762763611E+05  1.1300762763611E+05  1.1300762763611E+05  1.1300762763611E+05  1.1300762763611E+05  1.1300762763611E+05  5.6503813818055E+04 
 3.5000000000000E-01  3.5000000000000E-01  3.5000000000000E-01  3.5000000000000E-01  3.5000000000000E-01  3.5000000000000E-01  3.5000000000000E-01  3.5000000000000E-01  3.5000000000000E-01  3.5000000000000E-01 
 6.6040000000000E+00  1.3208000000000E+01  1.3208000000000E+01  1.3208000000000E+01  1.3208000000000E+01  1.3208000000000E+01  1.3208000000000E+01  1.3208000000000E+01  1.3208000000000E+01  6.6040000000000E+00 
-2.5253615961165E-01 -2.5254593035054E-01 -2.5257684891647E-01 -2.5262910322751E-01 -2.5270270923621E-01 -2.5279769726704E-01 -2.5291409448793E-01 -2.5305188474506E-01 -2.5320930861972E-01 -2.5334361941518E-01 
 3.3866666666667E-05  6.7733333333333E-05  6.7733333333334E-05  6.7733333333333E-05  6.7733333333334E-05  6.7733333333334E-05  6.7733333333333E-05  6.7733333333334E-05  6.7733333333333E-05  3.3866666666667E-05 
 2.6603001364272E+01  2.6603001364272E+01  2.6603001364272E+01  2.6603001364272E+01  2.6603001364272E+01  2.6603001364272E+01  2.6603001364272E+01  2.6603001364272E+01  2.6603001364272E+01  2.6603001364272E+01 
 1.7735334242822E+01  1.7735334242822E+01  1.7735334242822E+01  1.7735334242822E+01  1.7735334242822E+01  1.7735334242822E+01  1.7735334242822E+01  1.7735334242822E+01  1.7735334242822E+01  1.7735334242822E+01 
 6.5155736606307E-04  6.5159137485420E-04  6.5169898103980E-04  6.5188085731851E-04  6.5213707021456E-04  6.5246771767772E-04  6.5287291294181E-04  6.5335272909745E-04  6.5390465965710E-04  6.5439434302190E-04 
 2.1721117001653E+04  2.1722256184320E+04  2.1725844066082E+04  2.1731908109875E+04  2.1740450349740E+04  2.1751474331820E+04  2.1764983596363E+04  2.1780978197450E+04  2.1799307364223E+04  2.1814348778782E+04 
 8.6779315879299E-02  7.7180841961709E-02  5.9181289226435E-02  4.3576409772235E-02  3.0366373991822E-02  1.9552161763125E-02  1.1135564554870E-02  5.1191877557006E-03  1.5064565262276E-03  3.0148197247142E-04 
 5.3075150914946E-02  2.6538807571347E-01  9.0239594205909E-01  1.9643086184477E+00  3.4514795121472E+00  5.3644059162991E+00  7.7037293581612E+00  1.0470235686359E+01  1.3664842539807E+01  1.5369293261626E+01 
 2.1720977147187E+04  2.1721913615402E+04  2.1724882488851E+04  2.1729900224847E+04  2.1736968503854E+04  2.1746090373742E+04  2.1757268731440E+04  2.1770502842575E+04  2.1785641015227E+04  2.1798979184039E+04 
 9.8696599714463E+03  9.8701374198988E+03  9.8716552937352E+03  9.8742207684447E+03  9.8778347802413E+03  9.8824989396136E+03  9.8882148813556E+03  9.8949827739517E+03  9.9027382049409E+03  9.9098948196555E+03 
 1.1851317175740E+04  1.1851776195504E+04  1.1853227195116E+04  1.1855679456402E+04  1.1859133723613E+04  1.1863591434128E+04  1.1869053850084E+04  1.1875520068624E+04  1.1882902810286E+04  1.1889084364383E+04 
ZONE T = "CATH, 4.0000E-08", I = 10, SOLUTIONTIME = 4.000000E-08
ZONETYPE = ORDERED
DATAPACKING = BLOCK
STRANDID = 3
 1.2700000000000E-03  1.3377333333333E-03  1.4054666666667E-03  1.4732000000000E-03  1.5409333333333E-03  1.6086666666667E-03  1.6764000000000E-03  1.7441333333333E-03  1.8118666666667E-03  1.8796000000000E-03 
 1.9710382096084E-08  1.7393495810191E-08  1.5076325851709E-08  1.2759402936522E-08  1.0441078366524E-08  8.1229720392011E-09  5.8023451144826E-09  3.4808179331429E-09  1.1585837703132E-09 -3.4504734139399E-12 
 9.2000000000127E-01  9.2000000000360E-01  9.2000000000360E-01  9.2000000000360E-01  9.2000000000360E-01  9.2000000000360E-01  9.2000000000360E-01  9.2000000000360E-01  9.2000000000360E-01  9.2000000000361E-01 
 3.9999999999365E-02  3.9999999998202E-02  3.9999999998202E-02  3.9999999998202E-02  3.9999999998201E-02  3.9999999998201E-02  3.9999999998200E-02  3.9999999998199E-02  3.9999999998198E-02  3.9999999998197E-02 
 3.9999999999365E-02  3.9999999998202E-02  3.9999999998202E-02  3.9999999998202E-02  3.9999999998201E-02  3.9999999998201E-02  3.9999999998200E-02  3.9999999998199E-02  3.9999999998198E-02  3.9999999998197E-02 
 2.9187195658516E-02  2.9186988563748E-02  2.9186805805285E-02  2.9186647386110E-02  2.9186513311260E-02  2.9186403587829E-02  2.9186318224972E-02  2.9186257233905E-02  2.9186220627912E-02  2.9186208422099E-02 
 3.8001747161591E+00  3.8001725603582E+00  3.8001660927875E+00  3.8001553129191E+00  3.8001402198608E+00  3.8001208123556E+00  3.8000970887818E+00  3.8000690471517E+00  3.8000366851138E+00  3.8000000000000E+00 