TITLE = "Solution on Domain BulkDomain1D_0"
VARIABLES = "x [m]"  
"Vel_axial" 	"MF_sp(ECDMC)" 	"MF_sp(Li+)" 	"MF_sp(PF6-)" 	"Volt(Electroly)" 	"Volt(AnodeVolt)" 	"Temperature" 	
"Potential Drop Electrode-Electrolyte [V]" 	"Surf_0 Equilibrium Potential Drop Electrode-Electrolyte [V]" 	"Overpotential_0 [V]" 	"Current Source [A/m^2]" 	"Li+ flux [kmol/m^2/s]" 	"Electrolyte Current [A/m^2]" 	"Electrode Current [A/m^2]" 	
"Capacity discharged [A-s]" 	"Depth of discharge [-]" 	"Capacity remaining [A-s]" 	"Initial capacity [A-s]" 	"Porosity []" 	"Surface Area [m2/m2] (area per area)" 	"Specific current (per particle area) [A/m^2]" 	"Control volume thickness [m]" 	
"Moles Li_C6-bulk [mol/m^2] (per electrode area)" 	"Moles V_C6-bulk [mol/m^2] (per electrode area)" 	"qHeat_accum [J/m3]" 	"qHeat_step [W/m3]" 	"Joule_Lyte [W/m3]" 	"Joule_Solid [W/m3]" 	"electrodHeat [W/m3]" 	"OverpotHeat [W/m3]" 	"deltaSHeat [W/m3]" 	

ZONE T = "t = 0 [s]" I = 10 SOLUTIONTIME = 0.0000000000000E+00
0 	0 	0.92 	0.04 	0.04 	-0.07 	0 	298.15 	
0 	0 	0 	0 	0 	0 	15.4651 	
0 	0 	0 	0 	0.35 	8.53017 	3.62598 	4.37444e-05 	
0.00379119 	0.000947796 	0 	0.0 	 0.0 	 0.0 	 0.0 	 0.0 	 0.0 	 
8.74889e-05 	0 	0.92 	0.04 	0.04 	-0.07 	0 	298.15 	
0 	0 	0 	0 	0 	0 	-0 	
0 	0 	0 	0 	0.35 	17.0603 	3.62598 	8.74889e-05 	
0.00758237 	0.00189559 	0 	0.0 	 0.0 	 0.0 	 0.0 	 0.0 	 0.0 	 
0.000174978 	0 	0.92 	0.04 	0.04 	-0.07 	0 	298.15 	
0 	0 	0 	0 	0 	0 	-0 	
0 	0 	0 	0 	0.35 	17.0603 	3.62598 	8.74889e-05 	
0.00758237 	0.00189559 	0 	0.0 	 0.0 	 0.0 	 0.0 	 0.0 	 0.0 	 
0.000262467 	0 	0.92 	0.04 	0.04 	-0.07 	0 	298.15 	
0 	0 	0 	0 	0 	0 	-0 	
0 	0 	0 	0 	0.35 	17.0603 	3.62598 	8.74889e-05 	
0.00758237 	0.00189559 	0 	0.0 	 0.0 	 0.0 	 0.0 	 0.0 	 0.0 	 
0.000349956 	0 	0.92 	0.04 	0.04 	-0.07 	0 	298.15 	
0 	0 	0 	0 	0 	0 	-0 	
0 	0 	0 	0 	0.35 	17.0603 	3.62598 	8.74889e-05 	
0.00758237 	0.00189559 	0 	0.0 	 0.0 	 0.0 	 0.0 	 0.0 	 0.0 	 
0.000437444 	0 	0.92 	0.04 	0.04 	-0.07 	0 	298.15 	
0 	0 	0 	0 	0 	0 	-0 	
0 	0 	0 	0 	0.35 	17.0603 	3.62598 	8.74889e-05 	
0.00758237 	0.00189559 	0 	0.0 	 0.0 	 0.0 	 0.0 	 0.0 	 0.0 	 
0.000524933 	0 	0.92 	0.04 	0.04 	-0.07 	0 	298.15 	
0 	0 	0 	0 	0 	0 	-0 	
0 	0 	0 	0 	0.35 	17.0603 	3.62598 	8.74889e-05 	
0.00758237 	0.00189559 	0 	0.0 	 0.0 	 0.0 	 0.0 	 0.0 	 0.0 	 
0.000612422 	0 	0.92 	0.04 	0.04 	-0.07 	0 	298.15 	
0 	0 	0 	0 	0 	0 	-0 	
0 	0 	0 	0 	0.35 	17.0603 	3.62598 	8.74889e-05 	
0.00758237 	0.00189559 	0 	0.0 	 0.0 	 0.0 	 0.0 	 0.0 	 0.0 	 
0.000699911 	0 	0.92 	0.04 	0.04 	-0.07 	0 	298.15 	
0 	0 	0 	0 	0 	0 	-0 	
0 	0 	0 	0 	0.35 	17.0603 	3.62598 	8.74889e-05 	
0.00758237 	0.00189559 	0 	0.0 	 0.0 	 0.0 	 0.0 	 0.0 	 0.0 	 
0.0007874 	0 	0.92 	0.04 	0.04 	-0.07 	0 	298.15 	
0 	0 	0 	0 	0 	15.4651 	0 	
0 	0 	0 	0 	0.35 	8.53017 	3.62598 	4.37444e-05 	
0.00379119 	0.000947796 	0 	0.0 	 0.0 	 0.0 	 0.0 	 0.0 	 0.0 	 
ZONE T = "t = 1e-08 [s]" I = 10 SOLUTIONTIME = 1.0000000000000E-08
0 	1.16996e-09 	0.92 	0.04 	0.04 	0.0291727 	0 	298.198 	
0.07 	-0.0409067 	0.110907 	30.9302 	-0 	0.842416 	29.2044 	
0 	45724.2 	848.03 	962.628 	0.35 	8.53017 	0.197516 	4.37444e-05 	
0.00379119 	0.000947796 	21636.6 	2.16366e+12 	0.000305758 	0.00153498 	2.16366e+12 	2.16366e+12 	0 	
8.74889e-05 	3.48715e-09 	0.92 	0.04 	0.04 	0.0291727 	-4.73499e-09 	298.151 	
0.07 	-0.0409067 	0.110907 	61.8605 	-0 	3.3533 	26.6935 	
0 	91448.4 	1696.06 	1925.26 	0.35 	17.0603 	0.195598 	8.74889e-05 	
0.00758237 	0.00189559 	274.056 	2.74056e+10 	0.00151093 	0.001365 	2.74056e+10 	2.74056e+10 	0 	
0.000174978 	5.80407e-09 	0.92 	0.04 	0.04 	0.0291727 	-8.91288e-09 	298.15 	
0.07 	-0.0409067 	0.110907 	61.8605 	-0 	6.69005 	23.3567 	
0 	91448.4 	1696.06 	1925.26 	0.35 	17.0603 	0.195575 	8.74889e-05 	
0.00758237 	0.00189559 	2.85775 	2.85775e+08 	0.00512021 	0.00104632 	2.85775e+08 	2.85775e+08 	0 	
0.000262467 	8.121e-09 	0.92 	0.04 	0.04 	0.0291726 	-1.25337e-08 	298.15 	
0.07 	-0.0409067 	0.110907 	61.8605 	-0 	10.0266 	20.0202 	
0 	91448.4 	1696.06 	1925.26 	0.35 	17.0603 	0.195575 	8.74889e-05 	
0.00758237 	0.00189559 	-0.696201 	-6.96201e+07 	0.0111275 	0.000770143 	-6.96201e+07 	-6.96201e+07 	0 	
0.000349956 	1.04379e-08 	0.92 	0.04 	0.04 	0.0291725 	-1.55976e-08 	298.15 	
0.07 	-0.0409067 	0.110907 	61.8605 	-0 	13.3632 	16.6836 	
0 	91448.4 	1696.06 	1925.26 	0.35 	17.0603 	0.195577 	8.74889e-05 	
0.00758237 	0.00189559 	-0.673982 	-6.73982e+07 	0.0195328 	0.000536452 	-6.73982e+07 	-6.73982e+07 	0 	
0.000437444 	1.27549e-08 	0.92 	0.04 	0.04 	0.0291723 	-1.81043e-08 	298.15 	
0.07 	-0.0409067 	0.110907 	61.8605 	-0 	16.6998 	13.347 	
0 	91448.4 	1696.06 	1925.26 	0.35 	17.0603 	0.19558 	8.74889e-05 	
0.00758237 	0.00189559 	-0.657503 	-6.57503e+07 	0.0303364 	0.000345247 	-6.57503e+07 	-6.57503e+07 	0 	
0.000524933 	1.50723e-08 	0.92 	0.04 	0.04 	0.0291722 	-2.00541e-08 	298.15 	
0.07 	-0.0409067 	0.110907 	61.8605 	-0 	20.0365 	10.0103 	
0 	91448.4 	1696.06 	1925.26 	0.35 	17.0603 	0.195583 	8.74889e-05 	
0.00758237 	0.00189559 	-0.709549 	-7.09549e+07 	0.0435383 	0.000196529 	-7.09549e+07 	-7.09549e+07 	0 	
0.000612422 	1.73894e-08 	0.92 	0.04 	0.04 	0.029172 	-2.14468e-08 	298.15 	
0.07 	-0.0409067 	0.110907 	61.8605 	-0 	23.3732 	6.67362 	
0 	91448.4 	1696.06 	1925.26 	0.35 	17.0603 	0.195586 	8.74889e-05 	
0.00758237 	0.00189559 	-0.674984 	-6.74984e+07 	0.0591386 	9.02986e-05 	-6.74984e+07 	-6.74984e+07 	0 	
0.000699911 	1.97065e-08 	0.92 	0.04 	0.04 	0.0291717 	-2.22824e-08 	298.15 	
0.07 	-0.0409067 	0.110907 	61.8605 	-0 	26.7099 	3.33685 	
0 	91448.4 	1696.06 	1925.26 	0.35 	17.0603 	0.19559 	8.74889e-05 	
0.00758237 	0.00189559 	-0.687598 	-6.87598e+07 	0.0771376 	2.65589e-05 	-6.87598e+07 	-6.87598e+07 	0 	
0.0007874 	2.08658e-08 	0.92 	0.04 	0.04 	0.0291715 	-2.25609e-08 	298.15 	
0.07 	-0.0409067 	0.110907 	30.9302 	-0 	29.2126 	0.834222 	
0 	45724.2 	848.03 	962.628 	0.35 	8.53017 	0.195595 	4.37444e-05 	
0.00379119 	0.000947796 	-8.73963e-05 	-8739.63 	0.0867367 	5.31194e-06 	-8739.72 	-8739.72 	0 	
ZONE T = "t = 2e-08 [s]" I = 10 SOLUTIONTIME = 2.0000000000000E-08
0 	1.18069e-09 	0.92 	0.04 	0.04 	0.0291781 	0 	298.245 	
-0.0291727 	-0.0409402 	0.0117675 	1.68484 	8.73103e-09 	0.850141 	29.1999 	
4.22272e-11 	45724.2 	848.03 	962.628 	0.35 	8.53017 	0.199326 	4.37444e-05 	
0.00379119 	0.000947796 	42644.1 	2.10075e+12 	0.000617174 	0.00306863 	2.10075e+12 	2.10075e+12 	0 	
8.74889e-05 	3.49738e-09 	0.92 	0.04 	0.04 	0.0291781 	-4.73295e-09 	298.152 	
-0.0291727 	-0.0409071 	0.0117344 	3.33697 	2.60235e-08 	3.36839 	26.6816 	
8.36344e-11 	91448.4 	1696.06 	1925.26 	0.35 	17.0603 	0.195554 	8.74889e-05 	
0.00758237 	0.00189559 	807.952 	5.33896e+10 	0.00303266 	0.0027288 	5.33896e+10 	5.33896e+10 	0 	
0.000174978 	5.81324e-09 	0.92 	0.04 	0.04 	0.0291781 	-8.90892e-09 	298.15 	
-0.0291727 	-0.0409067 	0.011734 	3.33657 	4.3314e-08 	6.70402 	23.346 	
8.36244e-11 	91448.4 	1696.06 	1925.26 	0.35 	17.0603 	0.195484 	8.74889e-05 	
0.00758237 	0.00189559 	12.3471 	9.4893e+08 	0.0102603 	0.00209168 	9.4893e+08 	9.4893e+08 	0 	
0.000262467 	8.1291e-09 	0.92 	0.04 	0.04 	0.029178 	-1.25281e-08 	298.15 	
-0.0291726 	-0.0409067 	0.0117341 	3.33658 	6.06045e-08 	10.039 	20.011 	
8.36248e-11 	91448.4 	1696.06 	1925.26 	0.35 	17.0603 	0.195484 	8.74889e-05 	
0.00758237 	0.00189559 	-1.18198 	-4.85775e+07 	0.0222815 	0.00153958 	-4.85775e+07 	-4.85775e+07 	0 	
0.000349956 	1.0445e-08 	0.92 	0.04 	0.04 	0.0291779 	-1.55905e-08 	298.15 	
-0.0291725 	-0.0409067 	0.0117342 	3.33661 	7.78951e-08 	13.3741 	16.6759 	
8.36256e-11 	91448.4 	1696.06 	1925.26 	0.35 	17.0603 	0.195486 	8.74889e-05 	
0.00758237 	0.00189559 	-1.33657 	-6.62586e+07 	0.0390968 	0.00107241 	-6.62586e+07 	-6.62586e+07 	0 	
0.000437444 	1.27609e-08 	0.92 	0.04 	0.04 	0.0291777 	-1.80962e-08 	298.15 	
-0.0291724 	-0.0409067 	0.0117344 	3.33665 	9.5186e-08 	16.7092 	13.3408 	
8.36266e-11 	91448.4 	1696.06 	1925.26 	0.35 	17.0603 	0.195488 	8.74889e-05 	
0.00758237 	0.00189559 	-1.26815 	-6.10643e+07 	0.0607062 	0.000690176 	-6.10643e+07 	-6.10643e+07 	0 	
0.000524933 	1.50768e-08 	0.92 	0.04 	0.04 	0.0291775 	-2.0045e-08 	298.15 	
-0.0291722 	-0.0409067 	0.0117345 	3.3367 	1.12477e-07 	20.0443 	10.0057 	
8.36278e-11 	91448.4 	1696.06 	1925.26 	0.35 	17.0603 	0.195491 	8.74889e-05 	
0.00758237 	0.00189559 	-1.38513 	-6.75583e+07 	0.0871101 	0.000392876 	-6.75583e+07 	-6.75583e+07 	0 	
0.000612422 	1.73928e-08 	0.92 	0.04 	0.04 	0.0291773 	-2.1437e-08 	298.15 	
-0.029172 	-0.0409067 	0.0117347 	3.33676 	1.29769e-07 	23.3795 	6.67055 	
8.36293e-11 	91448.4 	1696.06 	1925.26 	0.35 	17.0603 	0.195495 	8.74889e-05 	
0.00758237 	0.00189559 	-1.33144 	-6.56456e+07 	0.118309 	0.000180514 	-6.56456e+07 	-6.56456e+07 	0 	
0.000699911 	1.97089e-08 	0.92 	0.04 	0.04 	0.0291771 	-2.22723e-08 	298.15 	
-0.0291717 	-0.0409067 	0.011735 	3.33683 	1.4706e-07 	26.7147 	3.33531 	
8.3631e-11 	91448.4 	1696.06 	1925.26 	0.35 	17.0603 	0.195499 	8.74889e-05 	
0.00758237 	0.00189559 	-1.38507 	-6.97474e+07 	0.154302 	5.30934e-05 	-6.97474e+07 	-6.97474e+07 	0 	
0.0007874 	2.08669e-08 	0.92 	0.04 	0.04 	0.0291768 	-2.25507e-08 	298.15 	
-0.0291715 	-0.0409067 	0.0117352 	1.66845 	1.4706e-07 	29.2162 	0.833838 	
4.18165e-11 	45724.2 	848.03 	962.628 	0.35 	8.53017 	0.195503 	4.37444e-05 	
0.00379119 	0.000947796 	-0.000159396 	-7199.94 	0.173498 	1.0619e-05 	-7200.02 	-7200.02 	0 	
ZONE T = "t = 3e-08 [s]" I = 10 SOLUTIONTIME = 3.0000000000000E-08
0 	1.19117e-09 	0.92 	0.04 	0.04 	0.0291835 	0 	298.29 	
-0.0291781 	-0.0409728 	0.0117947 	1.70028 	8.8111e-09 	0.857688 	29.1954 	
8.48414e-11 	45724.2 	848.03 	962.628 	0.35 	8.53017 	0.201095 	4.37444e-05 	
0.00379119 	0.000947796 	63047.4 	2.04033e+12 	0.000934169 	0.00460099 	2.04033e+12 	2.04033e+12 	0 	
8.74889e-05 	3.5076e-09 	0.92 	0.04 	0.04 	0.0291835 	-4.73094e-09 	298.154 	
-0.0291781 	-0.040908 	0.0117299 	3.33622 	2.60999e-08 	3.3833 	26.6698 	
1.6725e-10 	91448.4 	1696.06 	1925.26 	0.35 	17.0603 	0.195533 	8.74889e-05 	
0.00758237 	0.00189559 	1587.58 	7.79628e+10 	0.00456519 	0.00409138 	7.79628e+10 	7.79628e+10 	0 	
0.000174978 	5.8224e-09 	0.92 	0.04 	0.04 	0.0291834 	-8.90496e-09 	298.15 	
-0.0291781 	-0.0409067 	0.0117287 	3.33502 	4.33824e-08 	6.71798 	23.3351 	
1.6721e-10 	91448.4 	1696.06 	1925.26 	0.35 	17.0603 	0.195394 	8.74889e-05 	
0.00758237 	0.00189559 	31.5257 	1.91787e+09 	0.0154203 	0.00313606 	1.91787e+09 	1.91787e+09 	0 	
0.000262467 	8.13718e-09 	0.92 	0.04 	0.04 	0.0291834 	-1.25225e-08 	298.15 	
-0.029178 	-0.0409067 	0.0117287 	3.33503 	6.0665e-08 	10.0515 	20.0016 	
1.67211e-10 	91448.4 	1696.06 	1925.26 	0.35 	17.0603 	0.195393 	8.74889e-05 	
0.00758237 	0.00189559 	-1.43512 	-2.53145e+07 	0.0334622 	0.00230829 	-2.53145e+07 	-2.53145e+07 	0 	
0.000349956 	1.0452e-08 	0.92 	0.04 	0.04 	0.0291833 	-1.55834e-08 	298.15 	
-0.0291779 	-0.0409067 	0.0117288 	3.33506 	7.79477e-08 	13.3849 	16.6681 	
1.67212e-10 	91448.4 	1696.06 	1925.26 	0.35 	17.0603 	0.195394 	8.74889e-05 	
0.00758237 	0.00189559 	-1.99158 	-6.55017e+07 	0.0586918 	0.00160787 	-6.55017e+07 	-6.55017e+07 	0 	
0.000437444 	1.27679e-08 	0.92 	0.04 	0.04 	0.0291831 	-1.80879e-08 	298.15 	
-0.0291777 	-0.0409067 	0.011729 	3.3351 	9.52306e-08 	16.7184 	13.3346 	
1.67214e-10 	91448.4 	1696.06 	1925.26 	0.35 	17.0603 	0.195397 	8.74889e-05 	
0.00758237 	0.00189559 	-1.89248 	-6.24335e+07 	0.0911092 	0.00103478 	-6.24335e+07 	-6.24335e+07 	0 	
0.000524933 	1.50838e-08 	0.92 	0.04 	0.04 	0.0291829 	-2.00358e-08 	298.15 	
-0.0291776 	-0.0409067 	0.0117291 	3.33515 	1.12514e-07 	20.052 	10.001 	
1.67217e-10 	91448.4 	1696.06 	1925.26 	0.35 	17.0603 	0.1954 	8.74889e-05 	
0.00758237 	0.00189559 	-2.13186 	-7.46726e+07 	0.130715 	0.00058904 	-7.46726e+07 	-7.46726e+07 	0 	
0.000612422 	1.73987e-08 	0.92 	0.04 	0.04 	0.0291827 	-2.14272e-08 	298.15 	
-0.0291774 	-0.0409067 	0.0117293 	3.3352 	1.29797e-07 	23.3856 	6.66743 	
1.6722e-10 	91448.4 	1696.06 	1925.26 	0.35 	17.0603 	0.195403 	8.74889e-05 	
0.00758237 	0.00189559 	-2.01199 	-6.8055e+07 	0.177509 	0.000270645 	-6.8055e+07 	-6.8055e+07 	0 	
0.000699911 	1.97137e-08 	0.92 	0.04 	0.04 	0.0291825 	-2.22621e-08 	298.15 	
-0.0291771 	-0.0409067 	0.0117296 	3.33527 	1.47081e-07 	26.7193 	3.33375 	
1.67223e-10 	91448.4 	1696.06 	1925.26 	0.35 	17.0603 	0.195407 	8.74889e-05 	
0.00758237 	0.00189559 	-2.02978 	-6.44704e+07 	0.231493 	7.96031e-05 	-6.44704e+07 	-6.44704e+07 	0 	
0.0007874 	2.08712e-08 	0.92 	0.04 	0.04 	0.0291822 	-2.25403e-08 	298.15 	
-0.0291769 	-0.0409067 	0.0117298 	1.66768 	1.47081e-07 	29.2196 	0.833448 	
8.36134e-11 	45724.2 	848.03 	962.628 	0.35 	8.53017 	0.195412 	4.37444e-05 	
0.00379119 	0.000947796 	-0.00024432 	-8492.39 	0.260282 	1.59211e-05 	-8492.48 	-8492.48 	0 	
ZONE T = "t = 4e-08 [s]" I = 10 SOLUTIONTIME = 4.0000000000000E-08
0 	1.20142e-09 	0.92 	0.04 	0.04 	0.0291889 	0 	298.334 	
-0.0291835 	-0.0410044 	0.0118209 	1.71538 	8.88932e-09 	0.865067 	29.191 	
1.27834e-10 	45724.2 	848.03 	962.628 	0.35 	8.53017 	0.202825 	4.37444e-05 	
0.00379119 	0.000947796 	82870.2 	1.98228e+12 	0.00125667 	0.00613207 	1.98228e+12 	1.98228e+12 	0 	
8.74889e-05 	3.51784e-09 	0.92 	0.04 	0.04 	0.0291889 	-4.72898e-09 	298.156 	
-0.0291835 	-0.0409092 	0.0117257 	3.33585 	2.61761e-08 	3.39805 	26.6581 	
2.50857e-10 	91448.4 	1696.06 	1925.26 	0.35 	17.0603 	0.195531 	8.74889e-05 	
0.00758237 	0.00189559 	2599.49 	1.01191e+11 	0.0061085 	0.00545277 	1.01191e+11 	1.01191e+11 	0 	
0.000174978 	5.83158e-09 	0.92 	0.04 	0.04 	0.0291889 	-8.90105e-09 	298.15 	
-0.0291835 	-0.0409068 	0.0117233 	3.33349 	4.34508e-08 	6.73195 	23.3242 	
2.50757e-10 	91448.4 	1696.06 	1925.26 	0.35 	17.0603 	0.195306 	8.74889e-05 	
0.00758237 	0.00189559 	63.0698 	3.15441e+09 	0.0206003 	0.00417946 	3.15441e+09 	3.15441e+09 	0 	
0.000262467 	8.14527e-09 	0.92 	0.04 	0.04 	0.0291888 	-1.25169e-08 	298.15 	
-0.0291834 	-0.0409067 	0.0117233 	3.33346 	6.07252e-08 	10.0639 	19.9922 	
2.50757e-10 	91448.4 	1696.06 	1925.26 	0.35 	17.0603 	0.195301 	8.74889e-05 	
0.00758237 	0.00189559 	-1.30637 	1.2875e+07 	0.0446695 	0.00307628 	1.2875e+07 	1.2875e+07 	0 	
0.000349956 	1.0459e-08 	0.92 	0.04 	0.04 	0.0291887 	-1.55764e-08 	298.15 	
-0.0291833 	-0.0409067 	0.0117234 	3.33349 	7.79998e-08 	13.3958 	16.6603 	
2.50759e-10 	91448.4 	1696.06 	1925.26 	0.35 	17.0603 	0.195303 	8.74889e-05 	
0.00758237 	0.00189559 	-2.63234 	-6.40758e+07 	0.0783178 	0.00214282 	-6.40758e+07 	-6.40758e+07 	0 	
0.000437444 	1.27716e-08 	0.92 	0.04 	0.04 	0.0291885 	-1.80797e-08 	298.15 	
-0.0291831 	-0.0409067 	0.0117236 	3.33354 	9.52747e-08 	16.7278 	13.3283 	
2.50762e-10 	91448.4 	1696.06 	1925.26 	0.35 	17.0603 	0.195305 	8.74889e-05 	
0.00758237 	0.00189559 	-2.58884 	-6.96358e+07 	0.121545 	0.00137906 	-6.96358e+07 	-6.96358e+07 	0 	
0.000524933 	1.50843e-08 	0.92 	0.04 	0.04 	0.0291883 	-2.00267e-08 	298.15 	
-0.029183 	-0.0409067 	0.0117237 	3.33358 	1.1255e-07 	20.0598 	9.99635 	
2.50766e-10 	91448.4 	1696.06 	1925.26 	0.35 	17.0603 	0.195308 	8.74889e-05 	
0.00758237 	0.00189559 	-2.89168 	-7.59824e+07 	0.174353 	0.00078502 	-7.59824e+07 	-7.59824e+07 	0 	
0.000612422 	1.73981e-08 	0.92 	0.04 	0.04 	0.0291881 	-2.14174e-08 	298.15 	
-0.0291828 	-0.0409067 	0.0117239 	3.33364 	1.29825e-07 	23.3918 	6.6643 	
2.50771e-10 	91448.4 	1696.06 	1925.26 	0.35 	17.0603 	0.195311 	8.74889e-05 	
0.00758237 	0.00189559 	-2.71141 	-6.99421e+07 	0.236741 	0.000360692 	-6.99421e+07 	-6.99421e+07 	0 	
0.000699911 	1.9712e-08 	0.92 	0.04 	0.04 	0.0291879 	-2.22519e-08 	298.15 	
-0.0291825 	-0.0409067 	0.0117242 	3.33371 	1.47101e-07 	26.7239 	3.33219 	
2.50776e-10 	91448.4 	1696.06 	1925.26 	0.35 	17.0603 	0.195315 	8.74889e-05 	
0.00758237 	0.00189559 	-2.64617 	-6.16394e+07 	0.30871 	0.000106088 	-6.16394e+07 	-6.16394e+07 	0 	
0.0007874 	2.08697e-08 	0.92 	0.04 	0.04 	0.0291876 	-2.253e-08 	298.15 	
-0.0291823 	-0.0409067 	0.0117245 	1.6669 	1.47101e-07 	29.223 	0.833057 	
1.25391e-10 	45724.2 	848.03 	962.628 	0.35 	8.53017 	0.19532 	4.37444e-05 	
0.00379119 	0.000947796 	-0.000344501 	-10018.2 	0.34709 	2.12182e-05 	-10018.3 	-10018.3 	0 	
ZONE T = "t = 5.5e-08 [s]" I = 10 SOLUTIONTIME = 5.5000000000000E-08
0 	1.21626e-09 	0.92 	0.04 	0.04 	0.029197 	0 	298.397 	
-0.0291889 	-0.0410351 	0.0118462 	1.73013 	8.9658e-09 	0.875753 	29.1849 	
1.71196e-10 	45724.2 	848.03 	962.628 	0.35 	8.53017 	0.205331 	4.37444e-05 	
0.00379119 	0.000947796 	111374 	1.90024e+12 	0.00116833 	0.00561732 	1.90024e+12 	1.90024e+12 	0 	
8.74889e-05 	3.53316e-09 	0.92 	0.04 	0.04 	0.029197 	-4.72618e-09 	298.16 	
-0.0291889 	-0.0409107 	0.0117218 	3.33583 	2.62525e-08 	3.41977 	26.6409 	
3.34463e-10 	91448.4 	1696.06 	1925.26 	0.35 	17.0603 	0.195572 	8.74889e-05 	
0.00758237 	0.00189559 	4597.77 	1.33219e+11 	0.00563175 	0.00499484 	1.33219e+11 	1.33219e+11 	0 	
0.000174978 	5.84536e-09 	0.92 	0.04 	0.04 	0.029197 	-8.89533e-09 	298.15 	
-0.0291889 	-0.0409068 	0.0117179 	3.33198 	4.35193e-08 	6.75291 	23.3078 	
3.34267e-10 	91448.4 	1696.06 	1925.26 	0.35 	17.0603 	0.195175 	8.74889e-05 	
0.00758237 	0.00189559 	146.077 	5.53384e+09 	0.0189435 	0.00382824 	5.53384e+09 	5.53384e+09 	0 	
0.000262467 	8.15791e-09 	0.92 	0.04 	0.04 	0.0291969 	-1.25086e-08 	298.15 	
-0.0291888 	-0.0409067 	0.0117179 	3.3319 	6.07856e-08 	10.0826 	19.9781 	
3.34265e-10 	91448.4 	1696.06 	1925.26 	0.35 	17.0603 	0.195164 	8.74889e-05 	
0.00758237 	0.00189559 	0.412749 	1.14608e+08 	0.0410271 	0.00281777 	1.14608e+08 	1.14608e+08 	0 	
0.000349956 	1.047e-08 	0.92 	0.04 	0.04 	0.0291968 	-1.5566e-08 	298.15 	
-0.0291887 	-0.0409067 	0.011718 	3.33193 	7.80521e-08 	13.4121 	16.6486 	
3.34268e-10 	91448.4 	1696.06 	1925.26 	0.35 	17.0603 	0.195165 	8.74889e-05 	
0.00758237 	0.00189559 	-3.6208 	-6.58969e+07 	0.0718846 	0.00196275 	-6.58969e+07 	-6.58969e+07 	0 	
0.000437444 	1.27821e-08 	0.92 	0.04 	0.04 	0.0291966 	-1.80675e-08 	298.15 	
-0.0291885 	-0.0409067 	0.0117182 	3.33197 	9.53189e-08 	16.7417 	13.319 	
3.34272e-10 	91448.4 	1696.06 	1925.26 	0.35 	17.0603 	0.195167 	8.74889e-05 	
0.00758237 	0.00189559 	-3.5748 	-6.57307e+07 	0.111517 	0.00126317 	-6.57307e+07 	-6.57307e+07 	0 	
0.000524933 	1.50942e-08 	0.92 	0.04 	0.04 	0.0291965 	-2.00131e-08 	298.15 	
-0.0291884 	-0.0409067 	0.0117183 	3.33202 	1.12586e-07 	20.0714 	9.9893 	
3.34277e-10 	91448.4 	1696.06 	1925.26 	0.35 	17.0603 	0.19517 	8.74889e-05 	
0.00758237 	0.00189559 	-3.9252 	-6.89014e+07 	0.159923 	0.00071905 	-6.89014e+07 	-6.89014e+07 	0 	
0.000612422 	1.74064e-08 	0.92 	0.04 	0.04 	0.0291963 	-2.14029e-08 	298.15 	
-0.0291882 	-0.0409067 	0.0117185 	3.33208 	1.29853e-07 	23.4011 	6.6596 	
3.34283e-10 	91448.4 	1696.06 	1925.26 	0.35 	17.0603 	0.195174 	8.74889e-05 	
0.00758237 	0.00189559 	-3.71027 	-6.65907e+07 	0.217105 	0.000330381 	-6.65907e+07 	-6.65907e+07 	0 	
0.000699911 	1.97187e-08 	0.92 	0.04 	0.04 	0.029196 	-2.22368e-08 	298.15 	
-0.0291879 	-0.0409067 	0.0117188 	3.33215 	1.47121e-07 	26.7308 	3.32984 	
3.34289e-10 	91448.4 	1696.06 	1925.26 	0.35 	17.0603 	0.195178 	8.74889e-05 	
0.00758237 	0.00189559 	-3.59945 	-6.35517e+07 	0.283064 	9.71728e-05 	-6.35517e+07 	-6.35517e+07 	0 	
0.0007874 	2.08748e-08 	0.92 	0.04 	0.04 	0.0291958 	-2.25147e-08 	298.15 	
-0.0291877 	-0.0409067 	0.011719 	1.66611 	1.47121e-07 	29.2282 	0.83247 	
1.67149e-10 	45724.2 	848.03 	962.628 	0.35 	8.53017 	0.195183 	4.37444e-05 	
0.00379119 	0.000947796 	-0.000489344 	-9656.16 	0.318237 	1.94351e-05 	-9656.24 	-9656.24 	0 	
ZONE T = "t = 7.75e-08 [s]" I = 10 SOLUTIONTIME = 7.7500000000000E-08
0 	1.2374e-09 	0.92 	0.04 	0.04 	0.0292092 	0 	298.486 	
-0.029197 	-0.0410793 	0.0118823 	1.75151 	9.07656e-09 	0.890981 	29.1766 	
2.37043e-10 	45724.2 	848.03 	962.628 	0.35 	8.53017 	0.208901 	4.37444e-05 	
0.00379119 	0.000947796 	151591 	1.78743e+12 	0.00112109 	0.00527161 	1.78743e+12 	1.78743e+12 	0 	
8.74889e-05 	3.55605e-09 	0.92 	0.04 	0.04 	0.0292092 	-4.72224e-09 	298.169 	
-0.029197 	-0.0409138 	0.0117168 	3.33653 	2.63669e-08 	3.45147 	26.6161 	
4.59898e-10 	91448.4 	1696.06 	1925.26 	0.35 	17.0603 	0.195719 	8.74889e-05 	
0.00758237 	0.00189559 	8548.89 	1.75605e+11 	0.00533788 	0.00468703 	1.75605e+11 	1.75605e+11 	0 	
0.000174978 	5.86604e-09 	0.92 	0.04 	0.04 	0.0292092 	-8.88704e-09 	298.151 	
-0.029197 	-0.0409069 	0.01171 	3.32976 	4.36221e-08 	6.78428 	23.2833 	
4.59447e-10 	91448.4 	1696.06 	1925.26 	0.35 	17.0603 	0.194989 	8.74889e-05 	
0.00758237 	0.00189559 	373.458 	1.01058e+10 	0.0178842 	0.00359191 	1.01058e+10 	1.01058e+10 	0 	
0.000262467 	8.17535e-09 	0.92 	0.04 	0.04 	0.0292091 	-1.24965e-08 	298.15 	
-0.0291969 	-0.0409067 	0.0117098 	3.32956 	6.08763e-08 	10.1106 	19.957 	
4.59438e-10 	91448.4 	1696.06 	1925.26 	0.35 	17.0603 	0.194958 	8.74889e-05 	
0.00758237 	0.00189559 	9.2411 	3.92371e+08 	0.0386591 	0.0026438 	3.92371e+08 	3.92371e+08 	0 	
0.000349956 	1.0485e-08 	0.92 	0.04 	0.04 	0.029209 	-1.55506e-08 	298.15 	
-0.0291968 	-0.0409067 	0.0117099 	3.32958 	7.81307e-08 	13.4366 	16.6309 	
4.59442e-10 	91448.4 	1696.06 	1925.26 	0.35 	17.0603 	0.194958 	8.74889e-05 	
0.00758237 	0.00189559 	-4.74181 	-4.98228e+07 	0.0676661 	0.00184157 	-4.98228e+07 	-4.98228e+07 	0 	
0.000437444 	1.27946e-08 	0.92 	0.04 	0.04 	0.0292088 	-1.80495e-08 	298.15 	
-0.0291967 	-0.0409067 	0.0117101 	3.32962 	9.53852e-08 	16.7627 	13.3049 	
4.59447e-10 	91448.4 	1696.06 	1925.26 	0.35 	17.0603 	0.194961 	8.74889e-05 	
0.00758237 	0.00189559 	-5.12238 	-6.87813e+07 	0.104906 	0.00118519 	-6.87813e+07 	-6.87813e+07 	0 	
0.000524933 	1.51043e-08 	0.92 	0.04 	0.04 	0.0292086 	-1.99931e-08 	298.15 	
-0.0291965 	-0.0409067 	0.0117102 	3.32967 	1.1264e-07 	20.0888 	9.97873 	
4.59454e-10 	91448.4 	1696.06 	1925.26 	0.35 	17.0603 	0.194964 	8.74889e-05 	
0.00758237 	0.00189559 	-5.34289 	-6.30082e+07 	0.150378 	0.000674656 	-6.30082e+07 	-6.30082e+07 	0 	
0.000612422 	1.74141e-08 	0.92 	0.04 	0.04 	0.0292084 	-2.13814e-08 	298.15 	
-0.0291963 	-0.0409067 	0.0117104 	3.32973 	1.29895e-07 	23.415 	6.65256 	
4.59462e-10 	91448.4 	1696.06 	1925.26 	0.35 	17.0603 	0.194967 	8.74889e-05 	
0.00758237 	0.00189559 	-5.28722 	-7.00866e+07 	0.204085 	0.000309983 	-7.00866e+07 	-7.00866e+07 	0 	
0.000699911 	1.97239e-08 	0.92 	0.04 	0.04 	0.0292082 	-2.22143e-08 	298.15 	
-0.029196 	-0.0409067 	0.0117107 	3.3298 	1.47151e-07 	26.7413 	3.32632 	
4.59471e-10 	91448.4 	1696.06 	1925.26 	0.35 	17.0603 	0.194971 	8.74889e-05 	
0.00758237 	0.00189559 	-5.03233 	-6.36836e+07 	0.266025 	9.11734e-05 	-6.36836e+07 	-6.36836e+07 	0 	
0.0007874 	2.08788e-08 	0.92 	0.04 	0.04 	0.0292079 	-2.2492e-08 	298.15 	
-0.0291958 	-0.0409067 	0.0117109 	1.66494 	1.47151e-07 	29.236 	0.83159 	
2.29741e-10 	45724.2 	848.03 	962.628 	0.35 	8.53017 	0.194976 	4.37444e-05 	
0.00379119 	0.000947796 	-0.000721394 	-10313.4 	0.299054 	1.82352e-05 	-10313.4 	-10313.4 	0 	
ZONE T = "t = 1.1125e-07 [s]" I = 10 SOLUTIONTIME = 1.1125000000000E-07
0 	1.26687e-09 	0.92 	0.04 	0.04 	0.0292275 	0 	298.609 	
-0.0292092 	-0.0411416 	0.0119324 	1.78196 	9.2344e-09 	0.912196 	29.1657 	
3.37531e-10 	45724.2 	848.03 	962.628 	0.35 	8.53017 	0.213875 	4.37444e-05 	
0.00379119 	0.000947796 	206882 	1.63826e+12 	0.00110617 	0.00503766 	1.63826e+12 	1.63826e+12 	0 	
8.74889e-05 	3.59001e-09 	0.92 	0.04 	0.04 	0.0292274 	-4.71688e-09 	298.186 	
-0.0292092 	-0.04092 	0.0117108 	3.33903 	2.65377e-08 	3.49714 	26.5807 	
6.48191e-10 	91448.4 	1696.06 	1925.26 	0.35 	17.0603 	0.196098 	8.74889e-05 	
0.00758237 	0.00189559 	16256.2 	2.28364e+11 	0.00517741 	0.00447826 	2.28364e+11 	2.28364e+11 	0 	
0.000174978 	5.897e-09 	0.92 	0.04 	0.04 	0.0292274 	-8.87524e-09 	298.152 	
-0.0292092 	-0.0409073 	0.0116981 	3.32658 	4.37764e-08 	6.83102 	23.2469 	
6.47039e-10 	91448.4 	1696.06 	1925.26 	0.35 	17.0603 	0.194735 	8.74889e-05 	
0.00758237 	0.00189559 	999.908 	1.85615e+10 	0.0172459 	0.00343111 	1.85615e+10 	1.85615e+10 	0 	
0.000262467 	8.203e-09 	0.92 	0.04 	0.04 	0.0292273 	-1.24789e-08 	298.15 	
-0.0292091 	-0.0409067 	0.0116976 	3.32605 	6.10125e-08 	10.1526 	19.9253 	
6.46999e-10 	91448.4 	1696.06 	1925.26 	0.35 	17.0603 	0.194652 	8.74889e-05 	
0.00758237 	0.00189559 	46.6521 	1.10847e+09 	0.0371712 	0.00252539 	1.10847e+09 	1.10847e+09 	0 	
0.000349956 	1.0509e-08 	0.92 	0.04 	0.04 	0.0292272 	-1.55283e-08 	298.15 	
-0.029209 	-0.0409067 	0.0116977 	3.32606 	7.82485e-08 	13.4734 	16.6045 	
6.47004e-10 	91448.4 	1696.06 	1925.26 	0.35 	17.0603 	0.194649 	8.74889e-05 	
0.00758237 	0.00189559 	-4.76436 	-668218 	0.0649592 	0.00175909 	-668218 	-668218 	0 	
0.000437444 	1.28151e-08 	0.92 	0.04 	0.04 	0.0292271 	-1.80232e-08 	298.15 	
-0.0292088 	-0.0409067 	0.0116979 	3.3261 	9.54848e-08 	16.7942 	13.2837 	
6.47012e-10 	91448.4 	1696.06 	1925.26 	0.35 	17.0603 	0.194651 	8.74889e-05 	
0.00758237 	0.00189559 	-7.30959 	-6.48061e+07 	0.100611 	0.00113211 	-6.48061e+07 	-6.48061e+07 	0 	
0.000524933 	1.51212e-08 	0.92 	0.04 	0.04 	0.0292269 	-1.99637e-08 	298.15 	
-0.0292087 	-0.0409067 	0.011698 	3.32615 	1.12721e-07 	20.115 	9.96289 	
6.47021e-10 	91448.4 	1696.06 	1925.26 	0.35 	17.0603 	0.194654 	8.74889e-05 	
0.00758237 	0.00189559 	-7.5194 	-6.44893e+07 	0.144127 	0.000644441 	-6.44893e+07 	-6.44893e+07 	0 	
0.000612422 	1.74273e-08 	0.92 	0.04 	0.04 	0.0292267 	-2.13497e-08 	298.15 	
-0.0292085 	-0.0409067 	0.0116982 	3.3262 	1.29958e-07 	23.4359 	6.64199 	
6.47033e-10 	91448.4 	1696.06 	1925.26 	0.35 	17.0603 	0.194658 	8.74889e-05 	
0.00758237 	0.00189559 	-7.44312 	-6.38784e+07 	0.195508 	0.0002961 	-6.38784e+07 	-6.38784e+07 	0 	
0.000699911 	1.97336e-08 	0.92 	0.04 	0.04 	0.0292265 	-2.21814e-08 	298.15 	
-0.0292082 	-0.0409067 	0.0116985 	3.32627 	1.47196e-07 	26.7569 	3.32104 	
6.47046e-10 	91448.4 	1696.06 	1925.26 	0.35 	17.0603 	0.194662 	8.74889e-05 	
0.00758237 	0.00189559 	-6.92539 	-5.60906e+07 	0.254755 	8.70901e-05 	-5.60906e+07 	-5.60906e+07 	0 	
0.0007874 	2.08867e-08 	0.92 	0.04 	0.04 	0.0292262 	-2.24586e-08 	298.15 	
-0.029208 	-0.0409067 	0.0116988 	1.66318 	1.47196e-07 	29.2476 	0.83027 	
3.23531e-10 	45724.2 	848.03 	962.628 	0.35 	8.53017 	0.194667 	4.37444e-05 	
0.00379119 	0.000947796 	-0.00107176 	-10381.3 	0.286345 	1.74185e-05 	-10381.4 	-10381.4 	0 	
ZONE T = "t = 1.61875e-07 [s]" I = 10 SOLUTIONTIME = 1.6187500000000E-07
0 	1.30669e-09 	0.92 	0.04 	0.04 	0.0292547 	0 	298.772 	
-0.0292275 	-0.0412273 	0.0119999 	1.82439 	9.45432e-09 	0.940868 	29.1525 	
4.91852e-10 	45724.2 	848.03 	962.628 	0.35 	8.53017 	0.220598 	4.37444e-05 	
0.00379119 	0.000947796 	280358 	1.45137e+12 	0.00111926 	0.00487719 	1.45137e+12 	1.45137e+12 	0 	
8.74889e-05 	3.63985e-09 	0.92 	0.04 	0.04 	0.0292547 	-4.70989e-09 	298.218 	
-0.0292275 	-0.0409319 	0.0117044 	3.34551 	2.67911e-08 	3.5617 	26.5316 	
9.3118e-10 	91448.4 	1696.06 	1925.26 	0.35 	17.0603 	0.196944 	8.74889e-05 	
0.00758237 	0.00189559 	30849 	2.88253e+11 	0.00512228 	0.00433414 	2.88253e+11 	2.88253e+11 	0 	
0.000174978 	5.94336e-09 	0.92 	0.04 	0.04 	0.0292547 	-8.85883e-09 	298.156 	
-0.0292274 	-0.0409083 	0.0116809 	3.32225 	4.40075e-08 	6.90013 	23.1932 	
9.2806e-10 	91448.4 	1696.06 	1925.26 	0.35 	17.0603 	0.194424 	8.74889e-05 	
0.00758237 	0.00189559 	2688.98 	3.33643e+10 	0.0169217 	0.00331914 	3.33643e+10 	3.33643e+10 	0 	
0.000262467 	8.24404e-09 	0.92 	0.04 	0.04 	0.0292546 	-1.2454e-08 	298.15 	
-0.0292273 	-0.0409068 	0.0116795 	3.32083 	6.12164e-08 	10.2152 	19.8781 	
9.279e-10 	91448.4 	1696.06 	1925.26 	0.35 	17.0603 	0.194203 	8.74889e-05 	
0.00758237 	0.00189559 	195.074 	2.93179e+09 	0.0363152 	0.00244285 	2.93179e+09 	2.93179e+09 	0 	
0.000349956 	1.05445e-08 	0.92 	0.04 	0.04 	0.0292545 	-1.54961e-08 	298.15 	
-0.0292272 	-0.0409067 	0.0116795 	3.32078 	7.84251e-08 	13.5282 	16.5651 	
9.27901e-10 	91448.4 	1696.06 	1925.26 	0.35 	17.0603 	0.194188 	8.74889e-05 	
0.00758237 	0.00189559 	3.57789 	1.64785e+08 	0.0633127 	0.00170158 	1.64785e+08 	1.64785e+08 	0 	
0.000437444 	1.2845e-08 	0.92 	0.04 	0.04 	0.0292543 	-1.79851e-08 	298.15 	
-0.0292271 	-0.0409067 	0.0116796 	3.32082 	9.56341e-08 	16.8411 	13.2522 	
9.27911e-10 	91448.4 	1696.06 	1925.26 	0.35 	17.0603 	0.194189 	8.74889e-05 	
0.00758237 	0.00189559 	-9.86294 	-5.04366e+07 	0.0979168 	0.0010951 	-5.04366e+07 	-5.04366e+07 	0 	
0.000524933 	1.51455e-08 	0.92 	0.04 	0.04 	0.0292542 	-1.9921e-08 	298.15 	
-0.0292269 	-0.0409067 	0.0116798 	3.32086 	1.12843e-07 	20.1541 	9.93923 	
9.27925e-10 	91448.4 	1696.06 	1925.26 	0.35 	17.0603 	0.194192 	8.74889e-05 	
0.00758237 	0.00189559 	-10.7913 	-6.46299e+07 	0.140128 	0.000623374 	-6.46299e+07 	-6.46299e+07 	0 	
0.000612422 	1.74461e-08 	0.92 	0.04 	0.04 	0.0292539 	-2.13037e-08 	298.15 	
-0.0292267 	-0.0409067 	0.01168 	3.32092 	1.30053e-07 	23.4671 	6.62622 	
9.27942e-10 	91448.4 	1696.06 	1925.26 	0.35 	17.0603 	0.194195 	8.74889e-05 	
0.00758237 	0.00189559 	-10.8086 	-6.64781e+07 	0.189947 	0.000286421 	-6.64781e+07 	-6.64781e+07 	0 	
0.000699911 	1.97463e-08 	0.92 	0.04 	0.04 	0.0292537 	-2.21334e-08 	298.15 	
-0.0292265 	-0.0409067 	0.0116802 	3.32099 	1.47263e-07 	26.7802 	3.31315 	
9.27961e-10 	91448.4 	1696.06 	1925.26 	0.35 	17.0603 	0.194199 	8.74889e-05 	
0.00758237 	0.00189559 	-9.73707 	-5.55395e+07 	0.247375 	8.42431e-05 	-5.55395e+07 	-5.55395e+07 	0 	
0.0007874 	2.08969e-08 	0.92 	0.04 	0.04 	0.0292534 	-2.241e-08 	298.15 	
-0.0292262 	-0.0409067 	0.0116805 	1.66054 	1.47263e-07 	29.265 	0.828299 	
4.63992e-10 	45724.2 	848.03 	962.628 	0.35 	8.53017 	0.194205 	4.37444e-05 	
0.00379119 	0.000947796 	-0.00166756 	-11768.8 	0.27799 	1.68491e-05 	-11768.9 	-11768.9 	0 	
ZONE T = "t = 2.37813e-07 [s]" I = 10 SOLUTIONTIME = 2.3781250000000E-07
0 	1.35851e-09 	0.92 	0.04 	0.04 	0.0292952 	0 	298.98 	
-0.0292547 	-0.0413412 	0.0120865 	1.88174 	9.75157e-09 	0.97815 	29.1381 	
7.3061e-10 	45724.2 	848.03 	962.628 	0.35 	8.53017 	0.229339 	4.37444e-05 	
0.00379119 	0.000947796 	374017 	1.23337e+12 	0.00115903 	0.00476465 	1.23337e+12 	1.23337e+12 	0 	