TITLE = "Solution on Domain BulkDomain1D_0"
VARIABLES = "x [m]"  
"Vel_axial" 
"MF_sp(ECDMC)" 
"MF_sp(Li+)" 
"MF_sp(PF6-)" 
"Volt(Electroly)" 
"Volt(AnodeVolt)" 
"Temperature" 
"Potential Drop Electrode-Electrolyte [V]" 
"Surf_0 Equilibrium Potential Drop Electrode-Electrolyte [V]" 
"Overpotential_0 [V]" 
"Current Source [A/m^2]" 
"Li+ flux [kmol/m^2/s]" 
"Electrolyte Current [A/m^2]" 
"Electrode Current [A/m^2]" 
"CV Capacity discharged [A-s/m^2]" 
"Depth of discharge in CV [A-s/m^2]" 
"CV Capacity remaining [A-s/m^2]" 
"Initial CV capacity [A-s/m^2]" 
"Porosity []" 
"Surface Area [m2/m2] (area per area)" 
"Specific current (per particle area) [A/m^2]" 
"Control volume thickness [m]" 
"MoleDens Li_C6-bulk [kmol/m^3]" 
"MoleDens V_C6-bulk [kmol/m^3]" 
"qHeat_accum [J/m3]" 
"qHeat_step [W/m3]" 
"Joule_Lyte [W/m3]" 
"Joule_Solid [W/m3]" 
"electrodHeat [W/m3]" 
"OverpotHeat [W/m3]" 
"deltaSHeat [W/m3]" 

ZONE T = "ANOD, 0.0000E+00", I = 10, SOLUTIONTIME = 0.000000E+00
ZONETYPE = ORDERED
DATAPACKING = BLOCK
STRANDID = 1
 0.0000000000000E+00  8.7488888888889E-05  1.7497777777778E-04  2.6246666666667E-04  3.4995555555556E-04  4.3744444444444E-04  5.2493333333333E-04  6.1242222222222E-04  6.9991111111111E-04  7.8740000000000E-04 
 0.0000000000000E+00  0.0000000000000E+00  0.0000000000000E+00  0.0000000000000E+00  0.0000000000000E+00  0.0000000000000E+00  0.0000000000000E+00  0.0000000000000E+00  0.0000000000000E+00  0.0000000000000E+00 
 9.2000000000000E-01  9.2000000000000E-01  9.2000000000000E-01  9.2000000000000E-01  9.2000000000000E-01  9.2000000000000E-01  9.2000000000000E-01  9.2000000000000E-01  9.2000000000000E-01  9.2000000000000E-01 
 4.0000000000000E-02  4.0000000000000E-02  4.0000000000000E-02  4.0000000000000E-02  4.0000000000000E-02  4.0000000000000E-02  4.0000000000000E-02  4.0000000000000E-02  4.0000000000000E-02  4.0000000000000E-02 
 4.0000000000000E-02  4.0000000000000E-02  4.0000000000000E-02  4.0000000000000E-02  4.0000000000000E-02  4.0000000000000E-02  4.0000000000000E-02  4.0000000000000E-02  4.0000000000000E-02  4.0000000000000E-02 
-7.0000000000000E-02 -7.0000000000000E-02 -7.0000000000000E-02 -7.0000000000000E-02 -7.0000000000000E-02 -7.0000000000000E-02 -7.0000000000000E-02 -7.0000000000000E-02 -7.0000000000000E-02 -7.0000000000000E-02 
 0.0000000000000E+00  0.0000000000000E+00  0.0000000000000E+00  0.0000000000000E+00  0.0000000000000E+00  0.0000000000000E+00  0.0000000000000E+00  0.0000000000000E+00  0.0000000000000E+00  0.0000000000000E+00 
 2.9815000000000E+02  2.9815000000000E+02  2.9815000000000E+02  2.9815000000000E+02  2.9815000000000E+02  2.9815000000000E+02  2.9815000000000E+02  2.9815000000000E+02  2.9815000000000E+02  2.9815000000000E+02 
 7.0000000000000E-02  7.0000000000000E-02  7.0000000000000E-02  7.0000000000000E-02  7.0000000000000E-02  7.0000000000000E-02  7.0000000000000E-02  7.0000000000000E-02  7.0000000000000E-02  7.0000000000000E-02 
-4.0906712753391E-02 -4.0906712753391E-02 -4.0906712753391E-02 -4.0906712753391E-02 -4.0906712753391E-02 -4.0906712753391E-02 -4.0906712753391E-02 -4.0906712753391E-02 -4.0906712753391E-02 -4.0906712753391E-02 
 1.1090671275339E-01  1.1090671275339E-01  1.1090671275339E-01  1.1090671275339E-01  1.1090671275339E-01  1.1090671275339E-01  1.1090671275339E-01  1.1090671275339E-01  1.1090671275339E-01  1.1090671275339E-01 
 3.0930240924008E+01  6.1860481848017E+01  6.1860481848017E+01  6.1860481848017E+01  6.1860481848017E+01  6.1860481848017E+01  6.1860481848017E+01  6.1860481848017E+01  6.1860481848017E+01  3.0930240924008E+01 
-0.0000000000000E+00 -0.0000000000000E+00 -0.0000000000000E+00 -0.0000000000000E+00 -0.0000000000000E+00 -0.0000000000000E+00 -0.0000000000000E+00 -0.0000000000000E+00 -0.0000000000000E+00 -0.0000000000000E+00 
 0.0000000000000E+00  0.0000000000000E+00  0.0000000000000E+00  0.0000000000000E+00  0.0000000000000E+00  0.0000000000000E+00  0.0000000000000E+00  0.0000000000000E+00  0.0000000000000E+00  3.0930240924008E+01 
 3.0930240924008E+01 -0.0000000000000E+00 -0.0000000000000E+00 -0.0000000000000E+00 -0.0000000000000E+00 -0.0000000000000E+00 -0.0000000000000E+00 -0.0000000000000E+00 -0.0000000000000E+00  0.0000000000000E+00 
 0.0000000000000E+00  0.0000000000000E+00  0.0000000000000E+00  0.0000000000000E+00  0.0000000000000E+00  0.0000000000000E+00  0.0000000000000E+00  0.0000000000000E+00  0.0000000000000E+00  0.0000000000000E+00 
 4.5724222271641E+04  9.1448444543281E+04  9.1448444543281E+04  9.1448444543281E+04  9.1448444543281E+04  9.1448444543281E+04  9.1448444543281E+04  9.1448444543281E+04  9.1448444543281E+04  4.5724222271641E+04 
 3.3835924481014E+05  6.7671848962028E+05  6.7671848962028E+05  6.7671848962028E+05  6.7671848962028E+05  6.7671848962028E+05  6.7671848962028E+05  6.7671848962028E+05  6.7671848962028E+05  3.3835924481014E+05 
 3.8408346708178E+05  7.6816693416356E+05  7.6816693416356E+05  7.6816693416356E+05  7.6816693416356E+05  7.6816693416356E+05  7.6816693416356E+05  7.6816693416356E+05  7.6816693416356E+05  3.8408346708178E+05 
 3.5000000000000E-01  3.5000000000000E-01  3.5000000000000E-01  3.5000000000000E-01  3.5000000000000E-01  3.5000000000000E-01  3.5000000000000E-01  3.5000000000000E-01  3.5000000000000E-01  3.5000000000000E-01 
 8.5301666666667E+00  1.7060333333333E+01  1.7060333333333E+01  1.7060333333333E+01  1.7060333333333E+01  1.7060333333333E+01  1.7060333333333E+01  1.7060333333333E+01  1.7060333333333E+01  8.5301666666667E+00 
 3.6259831879809E+00  3.6259831879809E+00  3.6259831879809E+00  3.6259831879809E+00  3.6259831879809E+00  3.6259831879809E+00  3.6259831879809E+00  3.6259831879809E+00  3.6259831879809E+00  3.6259831879809E+00 
 4.3744444444444E-05  8.7488888888889E-05  8.7488888888889E-05  8.7488888888889E-05  8.7488888888889E-05  8.7488888888889E-05  8.7488888888889E-05  8.7488888888889E-05  8.7488888888889E-05  4.3744444444444E-05 
 8.6666666666667E+01  8.6666666666667E+01  8.6666666666667E+01  8.6666666666667E+01  8.6666666666667E+01  8.6666666666667E+01  8.6666666666667E+01  8.6666666666667E+01  8.6666666666667E+01  8.6666666666667E+01 
 2.1666666666667E+01  2.1666666666667E+01  2.1666666666667E+01  2.1666666666667E+01  2.1666666666667E+01  2.1666666666667E+01  2.1666666666667E+01  2.1666666666667E+01  2.1666666666667E+01  2.1666666666667E+01 
 0.0000000000000E+00  0.0000000000000E+00  0.0000000000000E+00  0.0000000000000E+00  0.0000000000000E+00  0.0000000000000E+00  0.0000000000000E+00  0.0000000000000E+00  0.0000000000000E+00  0.0000000000000E+00 
 0.0000000000000E+00  0.0000000000000E+00  0.0000000000000E+00  0.0000000000000E+00  0.0000000000000E+00  0.0000000000000E+00  0.0000000000000E+00  0.0000000000000E+00  0.0000000000000E+00  0.0000000000000E+00 
 0.0000000000000E+00  0.0000000000000E+00  0.0000000000000E+00  0.0000000000000E+00  0.0000000000000E+00  0.0000000000000E+00  0.0000000000000E+00  0.0000000000000E+00  0.0000000000000E+00  0.0000000000000E+00 
 0.0000000000000E+00  0.0000000000000E+00  0.0000000000000E+00  0.0000000000000E+00  0.0000000000000E+00  0.0000000000000E+00  0.0000000000000E+00  0.0000000000000E+00  0.0000000000000E+00  0.0000000000000E+00 
 0.0000000000000E+00  0.0000000000000E+00  0.0000000000000E+00  0.0000000000000E+00  0.0000000000000E+00  0.0000000000000E+00  0.0000000000000E+00  0.0000000000000E+00  0.0000000000000E+00  0.0000000000000E+00 
 0.0000000000000E+00  0.0000000000000E+00  0.0000000000000E+00  0.0000000000000E+00  0.0000000000000E+00  0.0000000000000E+00  0.0000000000000E+00  0.0000000000000E+00  0.0000000000000E+00  0.0000000000000E+00 
 0.0000000000000E+00  0.0000000000000E+00  0.0000000000000E+00  0.0000000000000E+00  0.0000000000000E+00  0.0000000000000E+00  0.0000000000000E+00  0.0000000000000E+00  0.0000000000000E+00  0.0000000000000E+00 
ZONE T = "ANOD, 1.0000E-08", I = 10, SOLUTIONTIME = 1.000000E-08
ZONETYPE = ORDERED
DATAPACKING = BLOCK
STRANDID = 1
 0.0000000000000E+00  8.7488888888889E-05  1.7497777777778E-04  2.6246666666667E-04  3.4995555555556E-04  4.3744444444444E-04  5.2493333333333E-04  6.1242222222222E-04  6.9991111111111E-04  7.8740000000000E-04 
 1.1699533921935E-09  3.4871407570123E-09  5.8040495560575E-09  8.1209697752752E-09  1.0437911446861E-08  1.2754881073942E-08  1.5072248338328E-08  1.7389293183231E-08  1.9706385241117E-08  2.0864595263283E-08 
 9.1999999999930E-01  9.1999999999930E-01  9.1999999999930E-01  9.1999999999930E-01  9.1999999999930E-01  9.1999999999930E-01  9.1999999999930E-01  9.1999999999930E-01  9.1999999999930E-01  9.1999999999967E-01 
 4.0000000000352E-02  4.0000000000348E-02  4.0000000000348E-02  4.0000000000348E-02  4.0000000000348E-02  4.0000000000348E-02  4.0000000000348E-02  4.0000000000348E-02  4.0000000000348E-02  4.0000000000167E-02 
 4.0000000000352E-02  4.0000000000348E-02  4.0000000000348E-02  4.0000000000348E-02  4.0000000000348E-02  4.0000000000348E-02  4.0000000000348E-02  4.0000000000348E-02  4.0000000000348E-02  4.0000000000167E-02 
 2.9172774607356E-02  2.9172758730209E-02  2.9172711410897E-02  2.9172632652001E-02  2.9172522453320E-02  2.9172380814562E-02  2.9172207735348E-02  2.9172003215210E-02  2.9171767253595E-02  2.9171499849862E-02 
 0.0000000000000E+00 -4.7349725646848E-09 -8.9128485001747E-09 -1.2533694779066E-08 -1.5597508655730E-08 -1.8104284972600E-08 -2.0054017008638E-08 -2.1446696486274E-08 -2.2282313599257E-08 -2.2560856996675E-08 
 2.9819800354082E+02  2.9815060801721E+02  2.9815000621651E+02  2.9814999851873E+02  2.9814999837765E+02  2.9814999839116E+02  2.9814999850226E+02  2.9814999847015E+02  2.9814999843200E+02  2.9814999999990E+02 
-2.9172774607356E-02 -2.9172763465182E-02 -2.9172720323745E-02 -2.9172645185695E-02 -2.9172538050829E-02 -2.9172398918847E-02 -2.9172227789365E-02 -2.9172024661907E-02 -2.9171789535909E-02 -2.9171522410719E-02 
-4.0940234596779E-02 -4.0907137331471E-02 -4.0906717094071E-02 -4.0906711718718E-02 -4.0906711620207E-02 -4.0906711629640E-02 -4.0906711707220E-02 -4.0906711684799E-02 -4.0906711658160E-02 -4.0906712753140E-02 
 1.1767459989423E-02  1.1734373866289E-02  1.1733996770326E-02  1.1734066533023E-02  1.1734173569378E-02  1.1734312710792E-02  1.1734483917856E-02  1.1734687022893E-02  1.1734922122252E-02  1.1735190342421E-02 
 1.6848371095769E+00  3.3369562369253E+00  3.3365550789630E+00  3.3365715238344E+00  3.3366024182730E+00  3.3366426749351E+00  3.3366922547785E+00  3.3367509924536E+00  3.3368189824288E+00  1.6684486664909E+00 
 8.7309966722082E-09  2.6023438493451E-08  4.3313802653697E-08  6.0604252047021E-08  7.7894861533822E-08  9.5185679647987E-08  1.1247675469347E-07  1.2976813413355E-07  1.4705992983288E-07  1.4705992983288E-07 
 0.0000000000000E+00  3.3532932527493E+00  6.6900270402391E+00  1.0026568472174E+01  1.3363133573569E+01  1.6699734250749E+01  2.0036379847666E+01  2.3373079604521E+01  2.6709842726277E+01  3.0046689951397E+01 
 3.0046690055795E+01  2.6693385763124E+01  2.3356651975387E+01  2.0020110543124E+01  1.6683545441321E+01  1.3346944763892E+01  1.0010299166628E+01  6.6735994095343E+00  3.3368362881515E+00  0.0000000000000E+00 
 1.6848371095769E-08  3.3369562369253E-08  3.3365550789630E-08  3.3365715238344E-08  3.3366024182730E-08  3.3366426749351E-08  3.3366922547785E-08  3.3367509924536E-08  3.3368189824288E-08  1.6684486664909E-08 
 4.5724222271657E+04  9.1448444543315E+04  9.1448444543315E+04  9.1448444543315E+04  9.1448444543315E+04  9.1448444543315E+04  9.1448444543315E+04  9.1448444543315E+04  9.1448444543315E+04  4.5724222271657E+04 
 3.3835924481012E+05  6.7671848962025E+05  6.7671848962025E+05  6.7671848962025E+05  6.7671848962025E+05  6.7671848962025E+05  6.7671848962025E+05  6.7671848962025E+05  6.7671848962025E+05  3.3835924481012E+05 
 3.8408346708178E+05  7.6816693416356E+05  7.6816693416356E+05  7.6816693416356E+05  7.6816693416356E+05  7.6816693416356E+05  7.6816693416356E+05  7.6816693416356E+05  7.6816693416356E+05  3.8408346708178E+05 
 3.5000000000000E-01  3.5000000000000E-01  3.5000000000000E-01  3.5000000000000E-01  3.5000000000000E-01  3.5000000000000E-01  3.5000000000000E-01  3.5000000000000E-01  3.5000000000000E-01  3.5000000000000E-01 
 8.5301666666667E+00  1.7060333333333E+01  1.7060333333333E+01  1.7060333333333E+01  1.7060333333333E+01  1.7060333333333E+01  1.7060333333333E+01  1.7060333333333E+01  1.7060333333333E+01  8.5301666666667E+00 
 1.9751514541454E-01  1.9559736446681E-01  1.9557385039153E-01  1.9557481431592E-01  1.9557662520894E-01  1.9557898487340E-01  1.9558189102080E-01  1.9558533395910E-01  1.9558931922562E-01  1.9559391178261E-01 
 4.3744444444444E-05  8.7488888888889E-05  8.7488888888889E-05  8.7488888888889E-05  8.7488888888889E-05  8.7488888888889E-05  8.7488888888889E-05  8.7488888888889E-05  8.7488888888889E-05  4.3744444444444E-05 
 8.6666666666663E+01  8.6666666666663E+01  8.6666666666663E+01  8.6666666666663E+01  8.6666666666663E+01  8.6666666666663E+01  8.6666666666663E+01  8.6666666666663E+01  8.6666666666663E+01  8.6666666666663E+01 
 2.1666666666671E+01  2.1666666666671E+01  2.1666666666671E+01  2.1666666666671E+01  2.1666666666671E+01  2.1666666666671E+01  2.1666666666671E+01  2.1666666666671E+01  2.1666666666671E+01  2.1666666666671E+01 
-7.5673744352090E-05 -7.4934358359297E-05 -7.4925242055439E-05 -7.4925524624394E-05 -7.4926095797716E-05 -7.4926840612371E-05 -7.4927758183865E-05 -7.4928844772977E-05 -7.4930102511211E-05 -7.4931664424468E-05 
-7.5673744352090E+03 -7.4934358359297E+03 -7.4925242055439E+03 -7.4925524624394E+03 -7.4926095797716E+03 -7.4926840612371E+03 -7.4927758183865E+03 -7.4928844772977E+03 -7.4930102511211E+03 -7.4931664424468E+03 
 3.0575575516096E-04  1.5109146281156E-03  5.1201715014531E-03  1.1127391754172E-02  1.9532700369751E-02  3.0336188997997E-02  4.3537974621206E-02  5.9138200576487E-02  7.7137036736908E-02  8.6736130300254E-02 
 1.5349674374596E-03  1.3649939080287E-03  1.0463118054936E-03  7.7013732888629E-04  5.3644809166207E-04  3.4524437538348E-04  1.9652718199236E-04  9.0297991668945E-05  2.6558756573954E-05  5.3119009688403E-06 
-7.5673762759321E+03 -7.4934387118382E+03 -7.4925303720272E+03 -7.4925643599685E+03 -7.4926296489201E+03 -7.4927147426704E+03 -7.4928195528883E+03 -7.4929437057963E+03 -7.4930874147166E+03 -7.4932531838890E+03 
 4.5322905634796E+02  4.4756645738183E+02  4.4749827113513E+02  4.4750313726502E+02  4.4751136293995E+02  4.4752206880046E+02  4.4753524819596E+02  4.4755087266274E+02  4.4756895867461E+02  4.4758969799868E+02 
-8.0206053322801E+03 -7.9410051692200E+03 -7.9400286431623E+03 -7.9400674972335E+03 -7.9401410118600E+03 -7.9402368114709E+03 -7.9403548010842E+03 -7.9404945784591E+03 -7.9406563733912E+03 -7.9408428818877E+03 
ZONE T = "ANOD, 2.0000E-08", I = 10, SOLUTIONTIME = 2.000000E-08
ZONETYPE = ORDERED
DATAPACKING = BLOCK
STRANDID = 1
 0.0000000000000E+00  8.7488888888889E-05  1.7497777777778E-04  2.6246666666667E-04  3.4995555555556E-04  4.3744444444444E-04  5.2493333333333E-04  6.1242222222222E-04  6.9991111111111E-04  7.8740000000000E-04 
 1.1806821544771E-09  3.4973686192035E-09  5.8132214813018E-09  8.1290751850172E-09  1.0444950173630E-08  1.2760853146315E-08  1.5076790561365E-08  1.7392768740913E-08  1.9708794122650E-08  2.0866834386106E-08 
 9.1999999999859E-01  9.1999999999861E-01  9.1999999999861E-01  9.1999999999861E-01  9.1999999999861E-01  9.1999999999861E-01  9.1999999999861E-01  9.1999999999861E-01  9.1999999999861E-01  9.1999999999933E-01 
 4.0000000000706E-02  4.0000000000696E-02  4.0000000000696E-02  4.0000000000696E-02  4.0000000000696E-02  4.0000000000696E-02  4.0000000000696E-02  4.0000000000696E-02  4.0000000000696E-02  4.0000000000334E-02 
 4.0000000000706E-02  4.0000000000696E-02  4.0000000000696E-02  4.0000000000696E-02  4.0000000000696E-02  4.0000000000696E-02  4.0000000000696E-02  4.0000000000696E-02  4.0000000000696E-02  4.0000000000334E-02 
 2.9178157594731E-02  2.9178141570702E-02  2.9178094112505E-02  2.9178015229147E-02  2.9177904920479E-02  2.9177763186209E-02  2.9177590025956E-02  2.9177385439255E-02  2.9177149425550E-02  2.9176881984201E-02 
 0.0000000000000E+00 -4.7329314912359E-09 -8.9088867793412E-09 -1.2528066278500E-08 -1.5590469786370E-08 -1.8096092185652E-08 -2.0044926748434E-08 -2.1436965194104E-08 -2.2272197722091E-08 -2.2550612984075E-08 
 2.9824461142389E+02  2.9815179255584E+02  2.9815002740468E+02  2.9814999748110E+02  2.9814999694120E+02  2.9814999697746E+02  2.9814999708478E+02  2.9814999697757E+02  2.9814999689774E+02  2.9814999999979E+02 
-2.9178157594731E-02 -2.9178146303634E-02 -2.9178103021392E-02 -2.9178027757213E-02 -2.9177920510949E-02 -2.9177781282301E-02 -2.9177610070883E-02 -2.9177406876220E-02 -2.9177171697748E-02 -2.9176904534814E-02 
-4.0972783711344E-02 -4.0907964495342E-02 -4.0906731889470E-02 -4.0906710993844E-02 -4.0906710616836E-02 -4.0906710642155E-02 -4.0906710717096E-02 -4.0906710642230E-02 -4.0906710586488E-02 -4.0906712752879E-02 
 1.1794626116613E-02  1.1729818191708E-02  1.1728628868078E-02  1.1728683236631E-02  1.1728790105887E-02  1.1728929359854E-02  1.1729100646213E-02  1.1729303766010E-02  1.1729538888741E-02  1.1729808218065E-02 
 1.7002763423173E+00  3.3362130301625E+00  3.3350125759731E+00  3.3350137879723E+00  3.3350444399170E+00  3.3350847392129E+00  3.3351343389602E+00  3.3351930430868E+00  3.3352610180008E+00  1.6676702157214E+00 
 8.8110644358719E-09  2.6099765870936E-08  4.3382249858835E-08  6.0664740184727E-08  7.7947389353101E-08  9.5230247358356E-08  1.1251336239244E-07  1.2979678164610E-07  1.4708068095973E-07  1.4708068095973E-07 
 0.0000000000000E+00  3.3683828573492E+00  6.7039956602690E+00  1.0039008842176E+01  1.3374037956270E+01  1.6709102545813E+01  2.0044212085001E+01  2.3379375775995E+01  2.6714602806491E+01  3.0049903531282E+01 
 3.0049903531318E+01  2.6681520673922E+01  2.3345907870856E+01  2.0010894688882E+01  1.6675865574937E+01  1.3340800985371E+01  1.0005691446283E+01  6.6705277552605E+00  3.3353007247198E+00  0.0000000000000E+00 
 3.3851134518942E-08  6.6731692670878E-08  6.6715676549361E-08  6.6715853118066E-08  6.6716468581899E-08  6.6717274141480E-08  6.6718265937387E-08  6.6719440355404E-08  6.6720800004296E-08  3.3361188822123E-08 
 4.5724222271674E+04  9.1448444543348E+04  9.1448444543348E+04  9.1448444543348E+04  9.1448444543348E+04  9.1448444543348E+04  9.1448444543348E+04  9.1448444543348E+04  9.1448444543348E+04  4.5724222271674E+04 
 3.3835924481011E+05  6.7671848962021E+05  6.7671848962021E+05  6.7671848962021E+05  6.7671848962021E+05  6.7671848962021E+05  6.7671848962021E+05  6.7671848962021E+05  6.7671848962021E+05  3.3835924481011E+05 
 3.8408346708178E+05  7.6816693416356E+05  7.6816693416356E+05  7.6816693416356E+05  7.6816693416356E+05  7.6816693416356E+05  7.6816693416356E+05  7.6816693416356E+05  7.6816693416356E+05  3.8408346708178E+05 
 3.5000000000000E-01  3.5000000000000E-01  3.5000000000000E-01  3.5000000000000E-01  3.5000000000000E-01  3.5000000000000E-01  3.5000000000000E-01  3.5000000000000E-01  3.5000000000000E-01  3.5000000000000E-01 
 8.5301666666667E+00  1.7060333333333E+01  1.7060333333333E+01  1.7060333333333E+01  1.7060333333333E+01  1.7060333333333E+01  1.7060333333333E+01  1.7060333333333E+01  1.7060333333333E+01  8.5301666666667E+00 
 1.9932510216494E-01  1.9555380102944E-01  1.9548343580468E-01  1.9548350684662E-01  1.9548530352574E-01  1.9548766568919E-01  1.9549057300327E-01  1.9549401397511E-01  1.9549799835881E-01  1.9550265321757E-01 
 4.3744444444444E-05  8.7488888888889E-05  8.7488888888889E-05  8.7488888888889E-05  8.7488888888889E-05  8.7488888888889E-05  8.7488888888889E-05  8.7488888888889E-05  8.7488888888889E-05  4.3744444444444E-05 
 8.6666666666659E+01  8.6666666666659E+01  8.6666666666659E+01  8.6666666666659E+01  8.6666666666659E+01  8.6666666666659E+01  8.6666666666659E+01  8.6666666666659E+01  8.6666666666659E+01  8.6666666666659E+01 
 2.1666666666675E+01  2.1666666666675E+01  2.1666666666675E+01  2.1666666666675E+01  2.1666666666675E+01  2.1666666666675E+01  2.1666666666675E+01  2.1666666666675E+01  2.1666666666675E+01  2.1666666666675E+01 
-1.5204765174893E-04 -1.4985419516575E-04 -1.4981789955545E-04 -1.4981812035985E-04 -1.4981925717045E-04 -1.4982074774722E-04 -1.4982258336417E-04 -1.4982475584848E-04 -1.4982727108892E-04 -1.4983041904154E-04 
-7.6373907396845E+03 -7.4919836806449E+03 -7.4892657500010E+03 -7.4892595735453E+03 -7.4893161372732E+03 -7.4893907134853E+03 -7.4894825180305E+03 -7.4895911075506E+03 -7.4897168577711E+03 -7.4898754617067E+03 
 6.1716988966223E-04  3.0326391956119E-03  1.0260223600677E-02  2.2281392954117E-02  3.9096525861356E-02  6.0705811308687E-02  8.7109483392379E-02  1.1830782861223E-01  1.5430118668334E-01  1.7349666482387E-01 
 3.0686118235259E-03  2.7287770435128E-03  2.0916612666448E-03  1.5395657867305E-03  1.0724024145863E-03  6.9017098208485E-04  3.9287348290611E-04  1.8051287872632E-04  5.3093073106380E-05  1.0618915904226E-05 
-7.6373925847430E+03 -7.4919865661526E+03 -7.4892719354026E+03 -7.4892714969750E+03 -7.4893362370530E+03 -7.4894214280342E+03 -7.4895262858856E+03 -7.4896503673935E+03 -7.4897940484553E+03 -7.4899622275483E+03 
 4.5843818586863E+02  4.4729305389920E+02  4.4708677034843E+02  4.4708900531751E+02  4.4709718830715E+02  4.4710789921882E+02  4.4712107820606E+02  4.4713669150690E+02  4.4715476802054E+02  4.4717568253527E+02 
-8.0958307706116E+03 -7.9392796200518E+03 -7.9363587057510E+03 -7.9363605022925E+03 -7.9364334253601E+03 -7.9365293272530E+03 -7.9366473640917E+03 -7.9367870589004E+03 -7.9369488164759E+03 -7.9371379100836E+03 
ZONE T = "ANOD, 3.0000E-08", I = 10, SOLUTIONTIME = 3.000000E-08
ZONETYPE = ORDERED
DATAPACKING = BLOCK
STRANDID = 1
 0.0000000000000E+00  8.7488888888889E-05  1.7497777777778E-04  2.6246666666667E-04  3.4995555555556E-04  4.3744444444444E-04  5.2493333333333E-04  6.1242222222222E-04  6.9991111111111E-04  7.8740000000000E-04 
 1.1911636058812E-09  3.5075916029337E-09  5.8223813417767E-09  8.1371513349257E-09  1.0451942105295E-08  1.2767850614373E-08  1.5083793499103E-08  1.7398687534350E-08  1.9713628798724E-08  2.0871127363358E-08 
 9.1999999999787E-01  9.1999999999791E-01  9.1999999999791E-01  9.1999999999791E-01  9.1999999999791E-01  9.1999999999791E-01  9.1999999999791E-01  9.1999999999791E-01  9.1999999999791E-01  9.1999999999900E-01 
 4.0000000001064E-02  4.0000000001044E-02  4.0000000001044E-02  4.0000000001044E-02  4.0000000001044E-02  4.0000000001044E-02  4.0000000001044E-02  4.0000000001044E-02  4.0000000001044E-02  4.0000000000501E-02 
 4.0000000001064E-02  4.0000000001044E-02  4.0000000001044E-02  4.0000000001044E-02  4.0000000001044E-02  4.0000000001044E-02  4.0000000001044E-02  4.0000000001044E-02  4.0000000001044E-02  4.0000000000501E-02 
 2.9183552029294E-02  2.9183535861739E-02  2.9183488264677E-02  2.9183409257017E-02  2.9183298838759E-02  2.9183157009612E-02  2.9182983769193E-02  2.9182779117036E-02  2.9182543052589E-02  2.9182275575207E-02 
 0.0000000000000E+00 -4.7309197294915E-09 -8.9049253964768E-09 -1.2522410869894E-08 -1.5583380896989E-08 -1.8087830482518E-08 -2.0035752866963E-08 -2.1427139785755E-08 -2.2261981436107E-08 -2.2540266463225E-08 
 2.9828987860210E+02  2.9815352222728E+02  2.9815007014979E+02  2.9814999699891E+02  2.9814999534871E+02  2.9814999562153E+02  2.9814999555659E+02  2.9814999544282E+02  2.9814999540026E+02  2.9814999999969E+02 
-2.9183552029294E-02 -2.9183540592658E-02 -2.9183497169603E-02 -2.9183421779428E-02 -2.9183314422140E-02 -2.9183175097442E-02 -2.9183003804946E-02 -2.9182800544176E-02 -2.9182565314570E-02 -2.9182298115474E-02 
-4.1004398310026E-02 -4.0909172328000E-02 -4.0906761738066E-02 -4.0906710656827E-02 -4.0906709504494E-02 -4.0906709695007E-02 -4.0906709649655E-02 -4.0906709570215E-02 -4.0906709540499E-02 -4.0906712752623E-02 
 1.1820846280732E-02  1.1725631735342E-02  1.1723264568463E-02  1.1723288877399E-02  1.1723395082354E-02  1.1723534597564E-02  1.1723705844709E-02  1.1723909026039E-02  1.1724144225928E-02  1.1724414637149E-02 
 1.7153704670433E+00  3.3358408161147E+00  3.3334815938095E+00  3.3334531584382E+00  3.3334830792904E+00  3.3335235678864E+00  3.3335730715658E+00  3.3336317889421E+00  3.3336998026457E+00  1.6668901262720E+00 
 8.8892877174961E-09  2.6176056881066E-08  4.3450607029972E-08  6.0725009957295E-08  7.7999567948053E-08  9.5274335749911E-08  1.1254936008764E-07  1.2982468871363E-07  1.4710056145647E-07  1.4710056145647E-07 
 0.0000000000000E+00  3.3832908751978E+00  6.7179520801172E+00  1.0051419456117E+01  1.3384887575062E+01  1.6718390898614E+01  2.0051939218397E+01  2.3385541648680E+01  2.6719207444409E+01  3.0052947472069E+01 
 3.0052947472019E+01  2.6669656596916E+01  2.3334995391950E+01  2.0001528015824E+01  1.6668059896958E+01  1.3334556573368E+01  1.0001008253641E+01  6.6674058233879E+00  3.3337400275947E+00  0.0000000000000E+00 
 5.1004839189375E-08  1.0009010083203E-07  1.0005049248746E-07  1.0005038470245E-07  1.0005129937480E-07  1.0005250982034E-07  1.0005399665304E-07  1.0005575824482E-07  1.0005779803075E-07  5.0030090084844E-08 
 4.5724222271692E+04  9.1448444543381E+04  9.1448444543381E+04  9.1448444543381E+04  9.1448444543381E+04  9.1448444543381E+04  9.1448444543381E+04  9.1448444543381E+04  9.1448444543381E+04  4.5724222271691E+04 
 3.3835924481009E+05  6.7671848962018E+05  6.7671848962018E+05  6.7671848962018E+05  6.7671848962018E+05  6.7671848962018E+05  6.7671848962018E+05  6.7671848962018E+05  6.7671848962018E+05  3.3835924481009E+05 
 3.8408346708178E+05  7.6816693416356E+05  7.6816693416356E+05  7.6816693416356E+05  7.6816693416356E+05  7.6816693416356E+05  7.6816693416356E+05  7.6816693416356E+05  7.6816693416356E+05  3.8408346708178E+05 
 3.5000000000000E-01  3.5000000000000E-01  3.5000000000000E-01  3.5000000000000E-01  3.5000000000000E-01  3.5000000000000E-01  3.5000000000000E-01  3.5000000000000E-01  3.5000000000000E-01  3.5000000000000E-01 
 8.5301666666667E+00  1.7060333333333E+01  1.7060333333333E+01  1.7060333333333E+01  1.7060333333333E+01  1.7060333333333E+01  1.7060333333333E+01  1.7060333333333E+01  1.7060333333333E+01  8.5301666666667E+00 
 2.0109460155643E-01  1.9553198351623E-01  1.9539369651684E-01  1.9539202976329E-01  1.9539378358905E-01  1.9539615684843E-01  1.9539905853143E-01  1.9540250027991E-01  1.9540648693728E-01  1.9541120254845E-01 
 4.3744444444444E-05  8.7488888888889E-05  8.7488888888889E-05  8.7488888888889E-05  8.7488888888889E-05  8.7488888888889E-05  8.7488888888889E-05  8.7488888888889E-05  8.7488888888889E-05  4.3744444444444E-05 
 8.6666666666655E+01  8.6666666666655E+01  8.6666666666655E+01  8.6666666666655E+01  8.6666666666655E+01  8.6666666666655E+01  8.6666666666655E+01  8.6666666666655E+01  8.6666666666655E+01  8.6666666666655E+01 
 2.1666666666679E+01  2.1666666666679E+01  2.1666666666679E+01  2.1666666666679E+01  2.1666666666679E+01  2.1666666666679E+01  2.1666666666679E+01  2.1666666666679E+01  2.1666666666679E+01  2.1666666666679E+01 
-2.2910621152920E-04 -2.2476789833190E-04 -2.2467823578382E-04 -2.2467772472359E-04 -2.2467941059470E-04 -2.2468165119731E-04 -2.2468440271510E-04 -2.2468766146094E-04 -2.2469143518766E-04 -2.2469619271184E-04 
-7.7058559780266E+03 -7.4913703166154E+03 -7.4860336228371E+03 -7.4859604363738E+03 -7.4860153424249E+03 -7.4860903450091E+03 -7.4861819350935E+03 -7.4862905612459E+03 -7.4864164098743E+03 -7.4865773670307E+03 
 9.3416267320913E-04  4.5651547184377E-03  1.5420180419716E-02  3.3461968338277E-02  5.8691339789174E-02  9.1108593560731E-02  1.3071408113992E-01  1.7750823187849E-01  2.3149155569036E-01  2.6028057975969E-01 
 4.6009527166544E-03  4.0913511583719E-03  3.1360337983427E-03  2.3082741083832E-03  1.6078551125370E-03  1.0347747652370E-03  5.8903602514371E-04  2.7064334001013E-04  7.9602561179052E-05  1.5920967054753E-05 
-7.7058578273602E+03 -7.4913732117050E+03 -7.4860398271664E+03 -7.4859723856576E+03 -7.4860354726916E+03 -7.4861210923951E+03 -7.4862257358538E+03 -7.4863498517797E+03 -7.4864936267528E+03 -7.4866641562477E+03 
 4.6353613272134E+02  4.4708352609100E+02  4.4667713986750E+02  4.4667425581350E+02  4.4668231173034E+02  4.4669305299202E+02  4.4670621149685E+02  4.4672182167324E+02  4.4673989793777E+02  4.4676098287137E+02 
-8.1693939600816E+03 -7.9384567377960E+03 -7.9327169670339E+03 -7.9326466414711E+03 -7.9327177844219E+03 -7.9328141453872E+03 -7.9329319473507E+03 -7.9330716734529E+03 -7.9332335246906E+03 -7.9334251391191E+03 
ZONE T = "ANOD, 4.0000E-08", I = 10, SOLUTIONTIME = 4.000000E-08
ZONETYPE = ORDERED
DATAPACKING = BLOCK
STRANDID = 1
 0.0000000000000E+00  8.7488888888889E-05  1.7497777777778E-04  2.6246666666667E-04  3.4995555555556E-04  4.3744444444444E-04  5.2493333333333E-04  6.1242222222222E-04  6.9991111111111E-04  7.8740000000000E-04 
 1.2014111775863E-09  3.5178240137438E-09  5.8315611717022E-09  8.1452455544161E-09  1.0458949885657E-08  1.2771592694819E-08  1.5084269882639E-08  1.7398077422389E-08  1.9711932322559E-08  2.0868888015390E-08 
 9.1999999999715E-01  9.1999999999722E-01  9.1999999999722E-01  9.1999999999722E-01  9.1999999999722E-01  9.1999999999722E-01  9.1999999999722E-01  9.1999999999722E-01  9.1999999999722E-01  9.1999999999866E-01 
 4.0000000001425E-02  4.0000000001392E-02  4.0000000001391E-02  4.0000000001391E-02  4.0000000001391E-02  4.0000000001391E-02  4.0000000001391E-02  4.0000000001391E-02  4.0000000001391E-02  4.0000000000668E-02 
 4.0000000001425E-02  4.0000000001392E-02  4.0000000001391E-02  4.0000000001391E-02  4.0000000001391E-02  4.0000000001391E-02  4.0000000001391E-02  4.0000000001391E-02  4.0000000001391E-02  4.0000000000668E-02 
 2.9188958268586E-02  2.9188941960678E-02  2.9188894224580E-02  2.9188815092344E-02  2.9188704564251E-02  2.9188562640011E-02  2.9188389319242E-02  2.9188184601479E-02  2.9187948486169E-02  2.9187680972665E-02 
 0.0000000000000E+00 -4.7289654985485E-09 -8.9010205795632E-09 -1.2516808527799E-08 -1.5576342031444E-08 -1.8079616294487E-08 -2.0026624560879E-08 -2.1417358565327E-08 -2.2251808515853E-08 -2.2529963026096E-08 