TITLE = "Solution on Domain BulkDomain1D_1"
VARIABLES = "x [m]"  
"Vel_axial" 	"MF_sp(ECDMC)" 	"MF_sp(Li+)" 	"MF_sp(PF6-)" 	"Volt(Electroly)" 	"Temperature" 	"qHeat_accum [J/m3]" 	"qHeat_step [W/m3]" 	"Joule_Lyte [W/m3]" 	"Joule_Solid [W/m3]" 	
ZONE T = "t = 0 [s]" I = 10 SOLUTIONTIME = 0.0000000000000E+00
0.0007874 	0 	0.92 	0.04 	0.04 	-0.07 	0 	
0 	0.0 	 0.0 	 0.0 	 
0.000841022 	0 	0.92 	0.04 	0.04 	-0.07 	298.15 	
0 	0.0 	 0.0 	 0.0 	 
0.000894644 	0 	0.92 	0.04 	0.04 	-0.07 	298.15 	
0 	0.0 	 0.0 	 0.0 	 
0.000948267 	0 	0.92 	0.04 	0.04 	-0.07 	298.15 	
0 	0.0 	 0.0 	 0.0 	 
0.00100189 	0 	0.92 	0.04 	0.04 	-0.07 	298.15 	
0 	0.0 	 0.0 	 0.0 	 
0.00105551 	0 	0.92 	0.04 	0.04 	-0.07 	298.15 	
0 	0.0 	 0.0 	 0.0 	 
0.00110913 	0 	0.92 	0.04 	0.04 	-0.07 	298.15 	
0 	0.0 	 0.0 	 0.0 	 
0.00116276 	0 	0.92 	0.04 	0.04 	-0.07 	298.15 	
0 	0.0 	 0.0 	 0.0 	 
0.00121638 	0 	0.92 	0.04 	0.04 	-0.07 	298.15 	
0 	0.0 	 0.0 	 0.0 	 
0.00127 	0 	0.92 	0.04 	0.04 	-0.07 	3.8 	
0 	0.0 	 0.0 	 0.0 	 
ZONE T = "t = 1e-08 [s]" I = 10 SOLUTIONTIME = 1.0000000000000E-08
0.0007874 	2.08658e-08 	0.92 	0.04 	0.04 	0.0291715 	-2.25609e-08 	
2.7664e-10 	0.027664 	0.027664 	0 	
0.000841022 	2.08658e-08 	0.92 	0.04 	0.04 	0.0291714 	298.15 	
2.7664e-10 	0.027664 	0.027664 	0 	
0.000894644 	2.08658e-08 	0.92 	0.04 	0.04 	0.0291714 	298.15 	
2.7664e-10 	0.027664 	0.027664 	0 	
0.000948267 	2.08658e-08 	0.92 	0.04 	0.04 	0.0291713 	298.15 	
2.7664e-10 	0.027664 	0.027664 	0 	
0.00100189 	2.08658e-08 	0.92 	0.04 	0.04 	0.0291713 	298.15 	
2.7664e-10 	0.027664 	0.027664 	0 	
0.00105551 	2.08658e-08 	0.92 	0.04 	0.04 	0.0291712 	298.15 	
2.7664e-10 	0.027664 	0.027664 	0 	
0.00110913 	2.08658e-08 	0.92 	0.04 	0.04 	0.0291712 	298.15 	
2.7664e-10 	0.027664 	0.027664 	0 	
0.00116276 	2.08658e-08 	0.92 	0.04 	0.04 	0.0291711 	298.15 	
2.7664e-10 	0.027664 	0.027664 	0 	
0.00121638 	2.08658e-08 	0.92 	0.04 	0.04 	0.0291711 	298.15 	
2.7664e-10 	0.027664 	0.027664 	0 	
0.00127 	1.97079e-08 	0.92 	0.04 	0.04 	0.029171 	3.80017 	
2.7664e-10 	0.027664 	0.027664 	0 	
ZONE T = "t = 2e-08 [s]" I = 10 SOLUTIONTIME = 2.0000000000000E-08
0.0007874 	2.08669e-08 	0.92 	0.04 	0.04 	0.0291768 	-2.25507e-08 	
5.53339e-10 	0.0276699 	0.0276699 	0 	
0.000841022 	2.08669e-08 	0.92 	0.04 	0.04 	0.0291768 	298.15 	
5.53339e-10 	0.0276699 	0.0276699 	0 	
0.000894644 	2.08669e-08 	0.92 	0.04 	0.04 	0.0291767 	298.15 	
5.53339e-10 	0.0276699 	0.0276699 	0 	
0.000948267 	2.08669e-08 	0.92 	0.04 	0.04 	0.0291767 	298.15 	
5.53339e-10 	0.0276699 	0.0276699 	0 	
0.00100189 	2.08669e-08 	0.92 	0.04 	0.04 	0.0291766 	298.15 	
5.53339e-10 	0.0276699 	0.0276699 	0 	
0.00105551 	2.08669e-08 	0.92 	0.04 	0.04 	0.0291766 	298.15 	
5.53339e-10 	0.0276699 	0.0276699 	0 	
0.00110913 	2.08669e-08 	0.92 	0.04 	0.04 	0.0291765 	298.15 	
5.53339e-10 	0.0276699 	0.0276699 	0 	
0.00116276 	2.08669e-08 	0.92 	0.04 	0.04 	0.0291765 	298.15 	
5.53339e-10 	0.0276699 	0.0276699 	0 	
0.00121638 	2.08669e-08 	0.92 	0.04 	0.04 	0.0291764 	298.15 	
5.53339e-10 	0.0276699 	0.0276699 	0 	
0.00127 	1.9708e-08 	0.92 	0.04 	0.04 	0.0291764 	3.80017 	
5.53339e-10 	0.0276699 	0.0276699 	0 	
ZONE T = "t = 3e-08 [s]" I = 10 SOLUTIONTIME = 3.0000000000000E-08
0.0007874 	2.08712e-08 	0.92 	0.04 	0.04 	0.0291822 	-2.25403e-08 	
8.30094e-10 	0.0276755 	0.0276755 	0 	
0.000841022 	2.08712e-08 	0.92 	0.04 	0.04 	0.0291822 	298.15 	
8.30094e-10 	0.0276755 	0.0276755 	0 	
0.000894644 	2.08712e-08 	0.92 	0.04 	0.04 	0.0291821 	298.15 	
8.30094e-10 	0.0276755 	0.0276755 	0 	
0.000948267 	2.08712e-08 	0.92 	0.04 	0.04 	0.0291821 	298.15 	
8.30094e-10 	0.0276755 	0.0276755 	0 	
0.00100189 	2.08712e-08 	0.92 	0.04 	0.04 	0.029182 	298.15 	
8.30094e-10 	0.0276755 	0.0276755 	0 	
0.00105551 	2.08712e-08 	0.92 	0.04 	0.04 	0.029182 	298.15 	
8.30094e-10 	0.0276755 	0.0276755 	0 	
0.00110913 	2.08712e-08 	0.92 	0.04 	0.04 	0.0291819 	298.15 	
8.30094e-10 	0.0276755 	0.0276755 	0 	
0.00116276 	2.08712e-08 	0.92 	0.04 	0.04 	0.0291819 	298.15 	
8.30094e-10 	0.0276755 	0.0276755 	0 	
0.00121638 	2.08712e-08 	0.92 	0.04 	0.04 	0.0291818 	298.15 	
8.30094e-10 	0.0276755 	0.0276755 	0 	
0.00127 	1.97142e-08 	0.92 	0.04 	0.04 	0.0291818 	3.80017 	
8.30094e-10 	0.0276755 	0.0276755 	0 	
ZONE T = "t = 4e-08 [s]" I = 10 SOLUTIONTIME = 4.0000000000000E-08
0.0007874 	2.08697e-08 	0.92 	0.04 	0.04 	0.0291876 	-2.253e-08 	
1.10691e-09 	0.0276811 	0.0276811 	0 	
0.000841022 	2.08697e-08 	0.92 	0.04 	0.04 	0.0291876 	298.15 	
1.10691e-09 	0.0276811 	0.0276811 	0 	
0.000894644 	2.08697e-08 	0.92 	0.04 	0.04 	0.0291875 	298.15 	
1.10691e-09 	0.0276811 	0.0276811 	0 	
0.000948267 	2.08697e-08 	0.92 	0.04 	0.04 	0.0291875 	298.15 	
1.10691e-09 	0.0276811 	0.0276811 	0 	
0.00100189 	2.08697e-08 	0.92 	0.04 	0.04 	0.0291874 	298.15 	
1.10691e-09 	0.0276811 	0.0276811 	0 	
0.00105551 	2.08697e-08 	0.92 	0.04 	0.04 	0.0291874 	298.15 	
1.10691e-09 	0.0276811 	0.0276811 	0 	
0.00110913 	2.08697e-08 	0.92 	0.04 	0.04 	0.0291873 	298.15 	
1.10691e-09 	0.0276811 	0.0276811 	0 	
0.00116276 	2.08697e-08 	0.92 	0.04 	0.04 	0.0291873 	298.15 	
1.10691e-09 	0.0276811 	0.0276811 	0 	
0.00121638 	2.08697e-08 	0.92 	0.04 	0.04 	0.0291872 	298.15 	
1.10691e-09 	0.0276811 	0.0276811 	0 	
0.00127 	1.97115e-08 	0.92 	0.04 	0.04 	0.0291872 	3.80017 	
1.10691e-09 	0.0276811 	0.0276811 	0 	
ZONE T = "t = 5.5e-08 [s]" I = 10 SOLUTIONTIME = 5.5000000000000E-08
0.0007874 	2.08748e-08 	0.92 	0.04 	0.04 	0.0291958 	-2.25147e-08 	
1.52225e-09 	0.0276896 	0.0276896 	0 	
0.000841022 	2.08748e-08 	0.92 	0.04 	0.04 	0.0291957 	298.15 	
1.52225e-09 	0.0276896 	0.0276896 	0 	
0.000894644 	2.08748e-08 	0.92 	0.04 	0.04 	0.0291957 	298.15 	
1.52225e-09 	0.0276896 	0.0276896 	0 	
0.000948267 	2.08748e-08 	0.92 	0.04 	0.04 	0.0291956 	298.15 	
1.52225e-09 	0.0276896 	0.0276896 	0 	
0.00100189 	2.08748e-08 	0.92 	0.04 	0.04 	0.0291956 	298.15 	
1.52225e-09 	0.0276896 	0.0276896 	0 	
0.00105551 	2.08748e-08 	0.92 	0.04 	0.04 	0.0291955 	298.15 	
1.52225e-09 	0.0276896 	0.0276896 	0 	
0.00110913 	2.08748e-08 	0.92 	0.04 	0.04 	0.0291955 	298.15 	
1.52225e-09 	0.0276896 	0.0276896 	0 	
0.00116276 	2.08748e-08 	0.92 	0.04 	0.04 	0.0291954 	298.15 	
1.52225e-09 	0.0276896 	0.0276896 	0 	
0.00121638 	2.08748e-08 	0.92 	0.04 	0.04 	0.0291954 	298.15 	
1.52225e-09 	0.0276896 	0.0276896 	0 	
0.00127 	1.9716e-08 	0.92 	0.04 	0.04 	0.0291953 	3.80017 	
1.52225e-09 	0.0276896 	0.0276896 	0 	
ZONE T = "t = 7.75e-08 [s]" I = 10 SOLUTIONTIME = 7.7500000000000E-08
0.0007874 	2.08788e-08 	0.92 	0.04 	0.04 	0.0292079 	-2.2492e-08 	
2.14555e-09 	0.0277023 	0.0277023 	0 	
0.000841022 	2.08788e-08 	0.92 	0.04 	0.04 	0.0292079 	298.15 	
2.14555e-09 	0.0277023 	0.0277023 	0 	
0.000894644 	2.08788e-08 	0.92 	0.04 	0.04 	0.0292078 	298.15 	
2.14555e-09 	0.0277023 	0.0277023 	0 	
0.000948267 	2.08788e-08 	0.92 	0.04 	0.04 	0.0292078 	298.15 	
2.14555e-09 	0.0277023 	0.0277023 	0 	
0.00100189 	2.08788e-08 	0.92 	0.04 	0.04 	0.0292077 	298.15 	
2.14555e-09 	0.0277023 	0.0277023 	0 	
0.00105551 	2.08788e-08 	0.92 	0.04 	0.04 	0.0292077 	298.15 	
2.14555e-09 	0.0277023 	0.0277023 	0 	
0.00110913 	2.08788e-08 	0.92 	0.04 	0.04 	0.0292076 	298.15 	
2.14555e-09 	0.0277023 	0.0277023 	0 	
0.00116276 	2.08788e-08 	0.92 	0.04 	0.04 	0.0292076 	298.15 	
2.14555e-09 	0.0277023 	0.0277023 	0 	
0.00121638 	2.08788e-08 	0.92 	0.04 	0.04 	0.0292075 	298.15 	
2.14555e-09 	0.0277023 	0.0277023 	0 	
0.00127 	1.97201e-08 	0.92 	0.04 	0.04 	0.0292075 	3.80017 	
2.14555e-09 	0.0277023 	0.0277023 	0 	
ZONE T = "t = 1.1125e-07 [s]" I = 10 SOLUTIONTIME = 1.1125000000000E-07
0.0007874 	2.08867e-08 	0.92 	0.04 	0.04 	0.0292262 	-2.24586e-08 	
3.08114e-09 	0.0277213 	0.0277213 	0 	
0.000841022 	2.08867e-08 	0.92 	0.04 	0.04 	0.0292261 	298.15 	
3.08114e-09 	0.0277213 	0.0277213 	0 	
0.000894644 	2.08867e-08 	0.92 	0.04 	0.04 	0.0292261 	298.15 	
3.08114e-09 	0.0277213 	0.0277213 	0 	
0.000948267 	2.08867e-08 	0.92 	0.04 	0.04 	0.029226 	298.15 	
3.08114e-09 	0.0277213 	0.0277213 	0 	
0.00100189 	2.08867e-08 	0.92 	0.04 	0.04 	0.029226 	298.15 	
3.08114e-09 	0.0277213 	0.0277213 	0 	
0.00105551 	2.08867e-08 	0.92 	0.04 	0.04 	0.0292259 	298.15 	
3.08114e-09 	0.0277213 	0.0277213 	0 	
0.00110913 	2.08867e-08 	0.92 	0.04 	0.04 	0.0292259 	298.15 	
3.08114e-09 	0.0277213 	0.0277213 	0 	
0.00116276 	2.08867e-08 	0.92 	0.04 	0.04 	0.0292258 	298.15 	
3.08114e-09 	0.0277213 	0.0277213 	0 	
0.00121638 	2.08867e-08 	0.92 	0.04 	0.04 	0.0292258 	298.15 	
3.08114e-09 	0.0277213 	0.0277213 	0 	
0.00127 	1.97275e-08 	0.92 	0.04 	0.04 	0.0292257 	3.80017 	
3.08114e-09 	0.0277213 	0.0277213 	0 	
ZONE T = "t = 1.61875e-07 [s]" I = 10 SOLUTIONTIME = 1.6187500000000E-07
0.0007874 	2.08969e-08 	0.92 	0.04 	0.04 	0.0292534 	-2.241e-08 	
4.48597e-09 	0.0277497 	0.0277497 	0 	
0.000841022 	2.08969e-08 	0.92 	0.04 	0.04 	0.0292534 	298.15 	
4.48597e-09 	0.0277497 	0.0277497 	0 	
0.000894644 	2.08969e-08 	0.92 	0.04 	0.04 	0.0292533 	298.15 	
4.48597e-09 	0.0277497 	0.0277497 	0 	
0.000948267 	2.08969e-08 	0.92 	0.04 	0.04 	0.0292533 	298.15 	
4.48597e-09 	0.0277497 	0.0277497 	0 	
0.00100189 	2.08969e-08 	0.92 	0.04 	0.04 	0.0292532 	298.15 	
4.48597e-09 	0.0277497 	0.0277497 	0 	
0.00105551 	2.08969e-08 	0.92 	0.04 	0.04 	0.0292532 	298.15 	
4.48597e-09 	0.0277497 	0.0277497 	0 	
0.00110913 	2.08969e-08 	0.92 	0.04 	0.04 	0.0292531 	298.15 	
4.48597e-09 	0.0277497 	0.0277497 	0 	
0.00116276 	2.08969e-08 	0.92 	0.04 	0.04 	0.0292531 	298.15 	
4.48597e-09 	0.0277497 	0.0277497 	0 	
0.00121638 	2.08969e-08 	0.92 	0.04 	0.04 	0.029253 	298.15 	
4.48597e-09 	0.0277497 	0.0277497 	0 	
0.00127 	1.97374e-08 	0.92 	0.04 	0.04 	0.029253 	3.80017 	
4.48597e-09 	0.0277497 	0.0277497 	0 	
ZONE T = "t = 2.37813e-07 [s]" I = 10 SOLUTIONTIME = 2.3781250000000E-07
0.0007874 	2.09133e-08 	0.92 	0.04 	0.04 	0.029294 	-2.23402e-08 	
6.59644e-09 	0.0277921 	0.0277921 	0 	
0.000841022 	2.09134e-08 	0.92 	0.04 	0.04 	0.0292939 	298.15 	
6.59644e-09 	0.0277921 	0.0277921 	0 	
0.000894644 	2.09134e-08 	0.92 	0.04 	0.04 	0.0292939 	298.15 	
6.59644e-09 	0.0277921 	0.0277921 	0 	
0.000948267 	2.09134e-08 	0.92 	0.04 	0.04 	0.0292938 	298.15 	
6.59644e-09 	0.0277921 	0.0277921 	0 	
0.00100189 	2.09134e-08 	0.92 	0.04 	0.04 	0.0292938 	298.15 	
6.59644e-09 	0.0277921 	0.0277921 	0 	
0.00105551 	2.09134e-08 	0.92 	0.04 	0.04 	0.0292937 	298.15 	
6.59644e-09 	0.0277921 	0.0277921 	0 	
0.00110913 	2.09134e-08 	0.92 	0.04 	0.04 	0.0292937 	298.15 	
6.59644e-09 	0.0277921 	0.0277921 	0 	
0.00116276 	2.09134e-08 	0.92 	0.04 	0.04 	0.0292936 	298.15 	
6.59644e-09 	0.0277921 	0.0277921 	0 	
0.00121638 	2.09133e-08 	0.92 	0.04 	0.04 	0.0292936 	298.15 	
6.59644e-09 	0.0277921 	0.0277921 	0 	
0.00127 	1.97525e-08 	0.92 	0.04 	0.04 	0.0292935 	3.80018 	
6.59644e-09 	0.0277921 	0.0277921 	0 	
ZONE T = "t = 3.51719e-07 [s]" I = 10 SOLUTIONTIME = 3.5171875000000E-07
0.0007874 	2.09364e-08 	0.92 	0.04 	0.04 	0.0293538 	-2.22418e-08 	
9.76927e-09 	0.0278547 	0.0278547 	0 	
0.000841022 	2.09364e-08 	0.92 	0.04 	0.04 	0.0293537 	298.15 	
9.76927e-09 	0.0278547 	0.0278547 	0 	
0.000894644 	2.09364e-08 	0.92 	0.04 	0.04 	0.0293537 	298.15 	
9.76927e-09 	0.0278547 	0.0278547 	0 	
0.000948267 	2.09364e-08 	0.92 	0.04 	0.04 	0.0293536 	298.15 	
9.76927e-09 	0.0278547 	0.0278547 	0 	
0.00100189 	2.09364e-08 	0.92 	0.04 	0.04 	0.0293536 	298.15 	
9.76927e-09 	0.0278547 	0.0278547 	0 	
0.00105551 	2.09364e-08 	0.92 	0.04 	0.04 	0.0293535 	298.15 	
9.76927e-09 	0.0278547 	0.0278547 	0 	
0.00110913 	2.09364e-08 	0.92 	0.04 	0.04 	0.0293535 	298.15 	
9.76927e-09 	0.0278547 	0.0278547 	0 	
0.00116276 	2.09364e-08 	0.92 	0.04 	0.04 	0.0293534 	298.15 	
9.76927e-09 	0.0278547 	0.0278547 	0 	
0.00121638 	2.09364e-08 	0.92 	0.04 	0.04 	0.0293534 	298.15 	
9.76927e-09 	0.0278547 	0.0278547 	0 	
0.00127 	1.97744e-08 	0.92 	0.04 	0.04 	0.0293533 	3.80018 	
9.76927e-09 	0.0278547 	0.0278547 	0 	
ZONE T = "t = 5.22578e-07 [s]" I = 10 SOLUTIONTIME = 5.2257812500000E-07
0.0007874 	2.09709e-08 	0.92 	0.04 	0.04 	0.0294414 	-2.21061e-08 	
1.45442e-08 	0.0279468 	0.0279468 	0 	
0.000841022 	2.09709e-08 	0.92 	0.04 	0.04 	0.0294413 	298.15 	
1.45442e-08 	0.0279468 	0.0279468 	0 	
0.000894644 	2.09709e-08 	0.92 	0.04 	0.04 	0.0294413 	298.15 	
1.45442e-08 	0.0279468 	0.0279468 	0 	
0.000948267 	2.09709e-08 	0.92 	0.04 	0.04 	0.0294412 	298.15 	
1.45442e-08 	0.0279468 	0.0279468 	0 	
0.00100189 	2.09709e-08 	0.92 	0.04 	0.04 	0.0294412 	298.15 	
1.45442e-08 	0.0279468 	0.0279468 	0 	
0.00105551 	2.09709e-08 	0.92 	0.04 	0.04 	0.0294411 	298.15 	
1.45442e-08 	0.0279468 	0.0279468 	0 	
0.00110913 	2.09709e-08 	0.92 	0.04 	0.04 	0.0294411 	298.15 	
1.45442e-08 	0.0279468 	0.0279468 	0 	
0.00116276 	2.09709e-08 	0.92 	0.04 	0.04 	0.029441 	298.15 	
1.45442e-08 	0.0279468 	0.0279468 	0 	
0.00121638 	2.0971e-08 	0.92 	0.04 	0.04 	0.029441 	298.15 	
1.45442e-08 	0.0279468 	0.0279468 	0 	
0.00127 	1.98071e-08 	0.92 	0.04 	0.04 	0.0294409 	3.80018 	
1.45442e-08 	0.0279468 	0.0279468 	0 	
ZONE T = "t = 7.78867e-07 [s]" I = 10 SOLUTIONTIME = 7.7886718750000E-07
0.0007874 	2.10213e-08 	0.92 	0.04 	0.04 	0.0295687 	-2.19235e-08 	
2.17411e-08 	0.0280812 	0.0280812 	0 	
0.000841022 	2.10213e-08 	0.92 	0.04 	0.04 	0.0295687 	298.15 	
2.17411e-08 	0.0280812 	0.0280812 	0 	
0.000894644 	2.10213e-08 	0.92 	0.04 	0.04 	0.0295686 	298.15 	
2.17411e-08 	0.0280812 	0.0280812 	0 	
0.000948267 	2.10213e-08 	0.92 	0.04 	0.04 	0.0295686 	298.15 	
2.17411e-08 	0.0280812 	0.0280812 	0 	
0.00100189 	2.10213e-08 	0.92 	0.04 	0.04 	0.0295685 	298.15 	
2.17411e-08 	0.0280812 	0.0280812 	0 	
0.00105551 	2.10213e-08 	0.92 	0.04 	0.04 	0.0295685 	298.15 	
2.17411e-08 	0.0280812 	0.0280812 	0 	
0.00110913 	2.10213e-08 	0.92 	0.04 	0.04 	0.0295684 	298.15 	
2.17411e-08 	0.0280812 	0.0280812 	0 	
0.00116276 	2.10213e-08 	0.92 	0.04 	0.04 	0.0295684 	298.15 	
2.17411e-08 	0.0280812 	0.0280812 	0 	
0.00121638 	2.10213e-08 	0.92 	0.04 	0.04 	0.0295683 	298.15 	
2.17411e-08 	0.0280812 	0.0280812 	0 	
0.00127 	1.98545e-08 	0.92 	0.04 	0.04 	0.0295683 	3.80018 	
2.17411e-08 	0.0280812 	0.0280812 	0 	
ZONE T = "t = 1.1633e-06 [s]" I = 10 SOLUTIONTIME = 1.1633007812500E-06
0.0007874 	2.10944e-08 	0.92 	0.04 	0.04 	0.0297523 	-2.16858e-08 	
3.26114e-08 	0.028276 	0.028276 	0 	
0.000841022 	2.10944e-08 	0.92 	0.04 	0.04 	0.0297522 	298.15 	
3.26114e-08 	0.028276 	0.028276 	0 	
0.000894644 	2.10944e-08 	0.92 	0.04 	0.04 	0.0297522 	298.15 	
3.26114e-08 	0.028276 	0.028276 	0 	
0.000948267 	2.10944e-08 	0.92 	0.04 	0.04 	0.0297521 	298.15 	
3.26114e-08 	0.028276 	0.028276 	0 	
0.00100189 	2.10944e-08 	0.92 	0.04 	0.04 	0.0297521 	298.15 	
3.26114e-08 	0.028276 	0.028276 	0 	
0.00105551 	2.10944e-08 	0.92 	0.04 	0.04 	0.029752 	298.15 	
3.26114e-08 	0.028276 	0.028276 	0 	
0.00110913 	2.10944e-08 	0.92 	0.04 	0.04 	0.029752 	298.15 	
3.26114e-08 	0.028276 	0.028276 	0 	
0.00116276 	2.10944e-08 	0.92 	0.04 	0.04 	0.0297519 	298.15 	
3.26114e-08 	0.028276 	0.028276 	0 	
0.00121638 	2.10944e-08 	0.92 	0.04 	0.04 	0.0297519 	298.15 	
3.26114e-08 	0.028276 	0.028276 	0 	
0.00127 	1.99234e-08 	0.92 	0.04 	0.04 	0.0297518 	3.80018 	
3.26114e-08 	0.028276 	0.028276 	0 	
ZONE T = "t = 1.73995e-06 [s]" I = 10 SOLUTIONTIME = 1.7399511718750E-06
0.0007874 	2.11984e-08 	0.92 	0.04 	0.04 	0.0300139 	-2.13895e-08 	
4.90782e-08 	0.028556 	0.028556 	0 	
0.000841022 	2.11984e-08 	0.92 	0.04 	0.04 	0.0300138 	298.15 	
4.90782e-08 	0.028556 	0.028556 	0 	
0.000894644 	2.11984e-08 	0.92 	0.04 	0.04 	0.0300138 	298.15 	
4.90782e-08 	0.028556 	0.028556 	0 	
0.000948267 	2.11984e-08 	0.92 	0.04 	0.04 	0.0300137 	298.15 	
4.90782e-08 	0.028556 	0.028556 	0 	
0.00100189 	2.11984e-08 	0.92 	0.04 	0.04 	0.0300137 	298.15 	
4.90782e-08 	0.028556 	0.028556 	0 	
0.00105551 	2.11984e-08 	0.92 	0.04 	0.04 	0.0300136 	298.15 	
4.90782e-08 	0.028556 	0.028556 	0 	
0.00110913 	2.11984e-08 	0.92 	0.04 	0.04 	0.0300136 	298.15 	
4.90782e-08 	0.028556 	0.028556 	0 	
0.00116276 	2.11984e-08 	0.92 	0.04 	0.04 	0.0300135 	298.15 	
4.90782e-08 	0.028556 	0.028556 	0 	
0.00121638 	2.11983e-08 	0.92 	0.04 	0.04 	0.0300135 	298.15 	
4.90782e-08 	0.028556 	0.028556 	0 	
0.00127 	2.00214e-08 	0.92 	0.04 	0.04 	0.0300134 	3.80018 	
4.90782e-08 	0.028556 	0.028556 	0 	
ZONE T = "t = 2.60493e-06 [s]" I = 10 SOLUTIONTIME = 2.6049267578125E-06
0.0007874 	2.13451e-08 	0.92 	0.04 	0.04 	0.0303801 	-2.10426e-08 	
7.41215e-08 	0.0289526 	0.0289526 	0 	
0.000841022 	2.13451e-08 	0.92 	0.04 	0.04 	0.03038 	298.15 	
7.41215e-08 	0.0289526 	0.0289526 	0 	
0.000894644 	2.13451e-08 	0.92 	0.04 	0.04 	0.03038 	298.15 	
7.41215e-08 	0.0289526 	0.0289526 	0 	
0.000948267 	2.13451e-08 	0.92 	0.04 	0.04 	0.0303799 	298.15 	
7.41215e-08 	0.0289526 	0.0289526 	0 	
0.00100189 	2.13451e-08 	0.92 	0.04 	0.04 	0.0303799 	298.15 	
7.41215e-08 	0.0289526 	0.0289526 	0 	
0.00105551 	2.13451e-08 	0.92 	0.04 	0.04 	0.0303798 	298.15 	
7.41215e-08 	0.0289526 	0.0289526 	0 	
0.00110913 	2.13451e-08 	0.92 	0.04 	0.04 	0.0303798 	298.15 	
7.41215e-08 	0.0289526 	0.0289526 	0 	
0.00116276 	2.13451e-08 	0.92 	0.04 	0.04 	0.0303797 	298.15 	
7.41215e-08 	0.0289526 	0.0289526 	0 	
0.00121638 	2.13451e-08 	0.92 	0.04 	0.04 	0.0303797 	298.15 	
7.41215e-08 	0.0289526 	0.0289526 	0 	
0.00127 	2.01598e-08 	0.92 	0.04 	0.04 	0.0303796 	3.80018 	
7.41215e-08 	0.0289526 	0.0289526 	0 	
ZONE T = "t = 3.90239e-06 [s]" I = 10 SOLUTIONTIME = 3.9023901367188E-06
0.0007874 	2.15462e-08 	0.92 	0.04 	0.04 	0.0308775 	-2.06687e-08 	
1.12398e-07 	0.0295007 	0.0295007 	0 	
0.000841022 	2.15462e-08 	0.92 	0.04 	0.04 	0.0308775 	298.15 	
1.12398e-07 	0.0295007 	0.0295007 	0 	
0.000894644 	2.15462e-08 	0.92 	0.04 	0.04 	0.0308774 	298.15 	
1.12398e-07 	0.0295007 	0.0295007 	0 	
0.000948267 	2.15462e-08 	0.92 	0.04 	0.04 	0.0308774 	298.15 	
1.12398e-07 	0.0295007 	0.0295007 	0 	
0.00100189 	2.15462e-08 	0.92 	0.04 	0.04 	0.0308773 	298.15 	
1.12398e-07 	0.0295007 	0.0295007 	0 	
0.00105551 	2.15462e-08 	0.92 	0.04 	0.04 	0.0308773 	298.15 	
1.12398e-07 	0.0295007 	0.0295007 	0 	
0.00110913 	2.15462e-08 	0.92 	0.04 	0.04 	0.0308772 	298.15 	
1.12398e-07 	0.0295007 	0.0295007 	0 	
0.00116276 	2.15462e-08 	0.92 	0.04 	0.04 	0.0308772 	298.15 	
1.12398e-07 	0.0295007 	0.0295007 	0 	
0.00121638 	2.15462e-08 	0.92 	0.04 	0.04 	0.0308771 	298.15 	
1.12398e-07 	0.0295007 	0.0295007 	0 	
0.00127 	2.03493e-08 	0.92 	0.04 	0.04 	0.0308771 	3.80018 	
1.12398e-07 	0.0295007 	0.0295007 	0 	
ZONE T = "t = 5.34472e-06 [s]" I = 10 SOLUTIONTIME = 5.3447234089679E-06
0.0007874 	2.17485e-08 	0.92 	0.04 	0.04 	0.031373 	-2.03717e-08 	
1.5575e-07 	0.0300573 	0.0300573 	0 	
0.000841022 	2.17485e-08 	0.92 	0.04 	0.04 	0.031373 	298.15 	
1.5575e-07 	0.0300573 	0.0300573 	0 	
0.000894644 	2.17485e-08 	0.92 	0.04 	0.04 	0.0313729 	298.15 	
1.5575e-07 	0.0300573 	0.0300573 	0 	
0.000948267 	2.17485e-08 	0.92 	0.04 	0.04 	0.0313729 	298.15 	
1.5575e-07 	0.0300573 	0.0300573 	0 	
0.00100189 	2.17485e-08 	0.92 	0.04 	0.04 	0.0313728 	298.15 	
1.5575e-07 	0.0300573 	0.0300573 	0 	
0.00105551 	2.17485e-08 	0.92 	0.04 	0.04 	0.0313728 	298.15 	
1.5575e-07 	0.0300573 	0.0300573 	0 	
0.00110913 	2.17485e-08 	0.92 	0.04 	0.04 	0.0313727 	298.15 	
1.5575e-07 	0.0300573 	0.0300573 	0 	
0.00116276 	2.17485e-08 	0.92 	0.04 	0.04 	0.0313727 	298.15 	
1.5575e-07 	0.0300573 	0.0300573 	0 	
0.00121638 	2.17485e-08 	0.92 	0.04 	0.04 	0.0313726 	298.15 	
1.5575e-07 	0.0300573 	0.0300573 	0 	
0.00127 	2.05401e-08 	0.92 	0.04 	0.04 	0.0313725 	3.80018 	
1.5575e-07 	0.0300573 	0.0300573 	0 	
ZONE T = "t = 6.87004e-06 [s]" I = 10 SOLUTIONTIME = 6.8700360471033E-06
0.0007874 	2.19405e-08 	0.92 	0.04 	0.04 	0.0318386 	-2.01447e-08 	
2.0241e-07 	0.0305905 	0.0305905 	0 	
0.000841022 	2.19405e-08 	0.92 	0.04 	0.04 	0.0318386 	298.15 	
2.0241e-07 	0.0305905 	0.0305905 	0 	
0.000894644 	2.19405e-08 	0.92 	0.04 	0.04 	0.0318385 	298.15 	
2.0241e-07 	0.0305905 	0.0305905 	0 	
0.000948267 	2.19405e-08 	0.92 	0.04 	0.04 	0.0318385 	298.15 	
2.0241e-07 	0.0305905 	0.0305905 	0 	
0.00100189 	2.19405e-08 	0.92 	0.04 	0.04 	0.0318384 	298.15 	
2.0241e-07 	0.0305905 	0.0305905 	0 	
0.00105551 	2.19405e-08 	0.92 	0.04 	0.04 	0.0318384 	298.15 	
2.0241e-07 	0.0305905 	0.0305905 	0 	
0.00110913 	2.19405e-08 	0.92 	0.04 	0.04 	0.0318383 	298.15 	
2.0241e-07 	0.0305905 	0.0305905 	0 	
0.00116276 	2.19405e-08 	0.92 	0.04 	0.04 	0.0318383 	298.15 	
2.0241e-07 	0.0305905 	0.0305905 	0 	
0.00121638 	2.19405e-08 	0.92 	0.04 	0.04 	0.0318382 	298.15 	
2.0241e-07 	0.0305905 	0.0305905 	0 	
0.00127 	2.07212e-08 	0.92 	0.04 	0.04 	0.0318382 	3.80018 	
2.0241e-07 	0.0305905 	0.0305905 	0 	
ZONE T = "t = 8.47441e-06 [s]" I = 10 SOLUTIONTIME = 8.4744084685940E-06
0.0007874 	2.21206e-08 	0.92 	0.04 	0.04 	0.0322709 	-1.99687e-08 	
2.52298e-07 	0.0310946 	0.0310946 	0 	
0.000841022 	2.21206e-08 	0.92 	0.04 	0.04 	0.0322709 	298.15 	
2.52298e-07 	0.0310946 	0.0310946 	0 	
0.000894644 	2.21206e-08 	0.92 	0.04 	0.04 	0.0322708 	298.15 	
2.52298e-07 	0.0310946 	0.0310946 	0 	
0.000948267 	2.21206e-08 	0.92 	0.04 	0.04 	0.0322708 	298.15 	
2.52298e-07 	0.0310946 	0.0310946 	0 	
0.00100189 	2.21206e-08 	0.92 	0.04 	0.04 	0.0322707 	298.15 	
2.52298e-07 	0.0310946 	0.0310946 	0 	
0.00105551 	2.21206e-08 	0.92 	0.04 	0.04 	0.0322707 	298.15 	
2.52298e-07 	0.0310946 	0.0310946 	0 	
0.00110913 	2.21206e-08 	0.92 	0.04 	0.04 	0.0322706 	298.15 	
2.52298e-07 	0.0310946 	0.0310946 	0 	
0.00116276 	2.21206e-08 	0.92 	0.04 	0.04 	0.0322706 	298.15 	
2.52298e-07 	0.0310946 	0.0310946 	0 	
0.00121638 	2.21206e-08 	0.92 	0.04 	0.04 	0.0322705 	298.15 	
2.52298e-07 	0.0310946 	0.0310946 	0 	
0.00127 	2.08909e-08 	0.92 	0.04 	0.04 	0.0322705 	3.80019 	
2.52298e-07 	0.0310946 	0.0310946 	0 	
ZONE T = "t = 1.01762e-05 [s]" I = 10 SOLUTIONTIME = 1.0176232272711E-05
0.0007874 	2.22895e-08 	0.92 	0.04 	0.04 	0.0326729 	-1.98279e-08 	
3.06026e-07 	0.0315714 	0.0315714 	0 	
0.000841022 	2.22895e-08 	0.92 	0.04 	0.04 	0.0326728 	298.15 	
3.06026e-07 	0.0315714 	0.0315714 	0 	
0.000894644 	2.22895e-08 	0.92 	0.04 	0.04 	0.0326727 	298.15 	
3.06026e-07 	0.0315713 	0.0315713 	0 	
0.000948267 	2.22895e-08 	0.92 	0.04 	0.04 	0.0326727 	298.15 	
3.06026e-07 	0.0315713 	0.0315713 	0 	
0.00100189 	2.22895e-08 	0.92 	0.04 	0.04 	0.0326726 	298.15 	
3.06026e-07 	0.0315713 	0.0315713 	0 	
0.00105551 	2.22895e-08 	0.92 	0.04 	0.04 	0.0326726 	298.15 	
3.06026e-07 	0.0315713 	0.0315713 	0 	
0.00110913 	2.22895e-08 	0.92 	0.04 	0.04 	0.0326725 	298.15 	
3.06026e-07 	0.0315713 	0.0315713 	0 	
0.00116276 	2.22895e-08 	0.92 	0.04 	0.04 	0.0326725 	298.15 	
3.06026e-07 	0.0315713 	0.0315713 	0 	
0.00121638 	2.22895e-08 	0.92 	0.04 	0.04 	0.0326724 	298.15 	
3.06026e-07 	0.0315713 	0.0315713 	0 	
0.00127 	2.10502e-08 	0.92 	0.04 	0.04 	0.0326724 	3.80019 	
3.06026e-07 	0.0315713 	0.0315713 	0 	
ZONE T = "t = 1.19946e-05 [s]" I = 10 SOLUTIONTIME = 1.1994619512503E-05
0.0007874 	2.24479e-08 	0.92 	0.04 	0.04 	0.0330463 	-1.97115e-08 	
3.64254e-07 	0.0320215 	0.0320215 	0 	
0.000841022 	2.24479e-08 	0.92 	0.04 	0.04 	0.0330463 	298.15 	
3.64254e-07 	0.0320215 	0.0320215 	0 	
0.000894644 	2.24479e-08 	0.92 	0.04 	0.04 	0.0330462 	298.15 	
3.64254e-07 	0.0320215 	0.0320215 	0 	
0.000948267 	2.24479e-08 	0.92 	0.04 	0.04 	0.0330462 	298.15 	
3.64254e-07 	0.0320215 	0.0320215 	0 	
0.00100189 	2.24479e-08 	0.92 	0.04 	0.04 	0.0330461 	298.15 	
3.64254e-07 	0.0320215 	0.0320215 	0 	
0.00105551 	2.24479e-08 	0.92 	0.04 	0.04 	0.0330461 	298.15 	
3.64254e-07 	0.0320215 	0.0320215 	0 	
0.00110913 	2.24479e-08 	0.92 	0.04 	0.04 	0.033046 	298.15 	
3.64254e-07 	0.0320215 	0.0320215 	0 	
0.00116276 	2.24479e-08 	0.92 	0.04 	0.04 	0.033046 	298.15 	
3.64254e-07 	0.0320215 	0.0320215 	0 	
0.00121638 	2.24479e-08 	0.92 	0.04 	0.04 	0.0330459 	298.15 	
3.64254e-07 	0.0320215 	0.0320215 	0 	
0.00127 	2.11996e-08 	0.92 	0.04 	0.04 	0.0330458 	3.80019 	
3.64254e-07 	0.0320215 	0.0320215 	0 	
ZONE T = "t = 1.39491e-05 [s]" I = 10 SOLUTIONTIME = 1.3949113028041E-05
0.0007874 	2.25958e-08 	0.92 	0.04 	0.04 	0.0333924 	-1.96124e-08 	
4.27668e-07 	0.032445 	0.032445 	0 	
0.000841022 	2.25958e-08 	0.92 	0.04 	0.04 	0.0333923 	298.15 	
4.27667e-07 	0.032445 	0.032445 	0 	
0.000894644 	2.25958e-08 	0.92 	0.04 	0.04 	0.0333923 	298.15 	
4.27667e-07 	0.0324449 	0.0324449 	0 	
0.000948267 	2.25958e-08 	0.92 	0.04 	0.04 	0.0333922 	298.15 	
4.27667e-07 	0.0324449 	0.0324449 	0 	
0.00100189 	2.25958e-08 	0.92 	0.04 	0.04 	0.0333921 	298.15 	
4.27667e-07 	0.0324449 	0.0324449 	0 	
0.00105551 	2.25958e-08 	0.92 	0.04 	0.04 	0.0333921 	298.15 	
4.27667e-07 	0.0324449 	0.0324449 	0 	
0.00110913 	2.25958e-08 	0.92 	0.04 	0.04 	0.033392 	298.15 	
4.27667e-07 	0.0324449 	0.0324449 	0 	
0.00116276 	2.25958e-08 	0.92 	0.04 	0.04 	0.033392 	298.15 	
4.27667e-07 	0.0324449 	0.0324449 	0 	
0.00121638 	2.25958e-08 	0.92 	0.04 	0.04 	0.0333919 	298.15 	
4.27667e-07 	0.0324449 	0.0324449 	0 	
0.00127 	2.13391e-08 	0.92 	0.04 	0.04 	0.0333919 	3.80019 	
4.27667e-07 	0.0324449 	0.0324449 	0 	
ZONE T = "t = 1.60612e-05 [s]" I = 10 SOLUTIONTIME = 1.6061193683531E-05
0.0007874 	2.27333e-08 	0.92 	0.04 	0.04 	0.0337115 	-1.9526e-08 	
4.9703e-07 	0.0328411 	0.0328411 	0 	
0.000841022 	2.27333e-08 	0.92 	0.04 	0.04 	0.0337114 	298.15 	
4.9703e-07 	0.032841 	0.032841 	0 	
0.000894644 	2.27333e-08 	0.92 	0.04 	0.04 	0.0337114 	298.15 	
4.9703e-07 	0.032841 	0.032841 	0 	
0.000948267 	2.27333e-08 	0.92 	0.04 	0.04 	0.0337113 	298.15 	
4.9703e-07 	0.032841 	0.032841 	0 	
0.00100189 	2.27333e-08 	0.92 	0.04 	0.04 	0.0337113 	298.15 	
4.9703e-07 	0.032841 	0.032841 	0 	
0.00105551 	2.27333e-08 	0.92 	0.04 	0.04 	0.0337112 	298.15 	
4.9703e-07 	0.032841 	0.032841 	0 	
0.00110913 	2.27333e-08 	0.92 	0.04 	0.04 	0.0337112 	298.15 	
4.9703e-07 	0.032841 	0.032841 	0 	
0.00116276 	2.27333e-08 	0.92 	0.04 	0.04 	0.0337111 	298.15 	
4.9703e-07 	0.032841 	0.032841 	0 	
0.00121638 	2.27333e-08 	0.92 	0.04 	0.04 	0.0337111 	298.15 	
4.9703e-07 	0.032841 	0.032841 	0 	
0.00127 	2.14688e-08 	0.92 	0.04 	0.04 	0.033711 	3.80019 	
4.9703e-07 	0.032841 	0.032841 	0 	
ZONE T = "t = 1.83558e-05 [s]" I = 10 SOLUTIONTIME = 1.8355811374826E-05
0.0007874 	2.28603e-08 	0.92 	0.04 	0.04 	0.034004 	-1.94492e-08 	
5.73232e-07 	0.0332089 	0.0332089 	0 	
0.000841022 	2.28603e-08 	0.92 	0.04 	0.04 	0.034004 	298.15 	
5.73232e-07 	0.0332089 	0.0332089 	0 	
0.000894644 	2.28603e-08 	0.92 	0.04 	0.04 	0.0340039 	298.15 	
5.73232e-07 	0.0332089 	0.0332089 	0 	
0.000948267 	2.28603e-08 	0.92 	0.04 	0.04 	0.0340039 	298.15 	
5.73232e-07 	0.0332089 	0.0332089 	0 	
0.00100189 	2.28603e-08 	0.92 	0.04 	0.04 	0.0340038 	298.15 	
5.73232e-07 	0.0332089 	0.0332089 	0 	
0.00105551 	2.28603e-08 	0.92 	0.04 	0.04 	0.0340038 	298.15 	
5.73232e-07 	0.0332089 	0.0332089 	0 	
0.00110913 	2.28603e-08 	0.92 	0.04 	0.04 	0.0340037 	298.15 	
5.73232e-07 	0.0332089 	0.0332089 	0 	
0.00116276 	2.28603e-08 	0.92 	0.04 	0.04 	0.0340037 	298.15 	
5.73232e-07 	0.0332089 	0.0332089 	0 	
0.00121638 	2.28603e-08 	0.92 	0.04 	0.04 	0.0340036 	298.15 	
5.73232e-07 	0.0332089 	0.0332089 	0 	
0.00127 	2.15886e-08 	0.92 	0.04 	0.04 	0.0340036 	3.80019 	
5.73232e-07 	0.0332089 	0.0332089 	0 	
ZONE T = "t = 2.08631e-05 [s]" I = 10 SOLUTIONTIME = 2.0863068197894E-05
0.0007874 	2.29766e-08 	0.92 	0.04 	0.04 	0.0342702 	-1.93803e-08 	
6.57345e-07 	0.0335478 	0.0335478 	0 	
0.000841022 	2.29766e-08 	0.92 	0.04 	0.04 	0.0342702 	298.15 	
6.57345e-07 	0.0335477 	0.0335477 	0 	
0.000894644 	2.29766e-08 	0.92 	0.04 	0.04 	0.0342701 	298.15 	
6.57344e-07 	0.0335477 	0.0335477 	0 	
0.000948267 	2.29766e-08 	0.92 	0.04 	0.04 	0.0342701 	298.15 	
6.57344e-07 	0.0335477 	0.0335477 	0 	
0.00100189 	2.29766e-08 	0.92 	0.04 	0.04 	0.03427 	298.15 	
6.57344e-07 	0.0335477 	0.0335477 	0 	
0.00105551 	2.29766e-08 	0.92 	0.04 	0.04 	0.0342699 	298.15 	
6.57344e-07 	0.0335477 	0.0335477 	0 	
0.00110913 	2.29766e-08 	0.92 	0.04 	0.04 	0.0342699 	298.15 	
6.57344e-07 	0.0335477 	0.0335477 	0 	
0.00116276 	2.29766e-08 	0.92 	0.04 	0.04 	0.0342698 	298.15 	
6.57344e-07 	0.0335477 	0.0335477 	0 	
0.00121638 	2.29766e-08 	0.92 	0.04 	0.04 	0.0342698 	298.15 	
6.57344e-07 	0.0335477 	0.0335477 	0 	
0.00127 	2.16983e-08 	0.92 	0.04 	0.04 	0.0342697 	3.80019 	
6.57344e-07 	0.0335477 	0.0335477 	0 	
ZONE T = "t = 2.36204e-05 [s]" I = 10 SOLUTIONTIME = 2.3620377348715E-05
0.0007874 	2.30821e-08 	0.92 	0.04 	0.04 	0.0345102 	-1.93182e-08 	
7.50699e-07 	0.0338568 	0.0338568 	0 	
0.000841022 	2.30821e-08 	0.92 	0.04 	0.04 	0.0345102 	298.15 	
7.50698e-07 	0.0338567 	0.0338567 	0 	
0.000894644 	2.30821e-08 	0.92 	0.04 	0.04 	0.0345101 	298.15 	
7.50698e-07 	0.0338566 	0.0338566 	0 	
0.000948267 	2.30821e-08 	0.92 	0.04 	0.04 	0.0345101 	298.15 	
7.50698e-07 	0.0338566 	0.0338566 	0 	
0.00100189 	2.30821e-08 	0.92 	0.04 	0.04 	0.03451 	298.15 	
7.50698e-07 	0.0338566 	0.0338566 	0 	
0.00105551 	2.30821e-08 	0.92 	0.04 	0.04 	0.03451 	298.15 	
7.50698e-07 	0.0338566 	0.0338566 	0 	
0.00110913 	2.30821e-08 	0.92 	0.04 	0.04 	0.0345099 	298.15 	
7.50698e-07 	0.0338566 	0.0338566 	0 	
0.00116276 	2.30821e-08 	0.92 	0.04 	0.04 	0.0345099 	298.15 	
7.50698e-07 	0.0338566 	0.0338566 	0 	
0.00121638 	2.30821e-08 	0.92 	0.04 	0.04 	0.0345098 	298.15 	
7.50698e-07 	0.0338566 	0.0338566 	0 	
0.00127 	2.17979e-08 	0.92 	0.04 	0.04 	0.0345098 	3.80019 	
7.50698e-07 	0.0338566 	0.0338566 	0 	
ZONE T = "t = 2.66754e-05 [s]" I = 10 SOLUTIONTIME = 2.6675358447879E-05
0.0007874 	2.31769e-08 	0.92 	0.04 	0.04 	0.0347244 	-1.92626e-08 	
8.54981e-07 	0.0341353 	0.0341353 	0 	
0.000841022 	2.31769e-08 	0.92 	0.04 	0.04 	0.0347244 	298.15 	
8.54981e-07 	0.0341352 	0.0341352 	0 	
0.000894644 	2.31769e-08 	0.92 	0.04 	0.04 	0.0347243 	298.15 	
8.5498e-07 	0.0341351 	0.0341351 	0 	
0.000948267 	2.31769e-08 	0.92 	0.04 	0.04 	0.0347243 	298.15 	
8.5498e-07 	0.0341351 	0.0341351 	0 	
0.00100189 	2.31769e-08 	0.92 	0.04 	0.04 	0.0347242 	298.15 	
8.5498e-07 	0.0341351 	0.0341351 	0 	