TITLE = "Solution on Domain BulkDomain1D_0"
VARIABLES = "x [m]"  
"Vel_axial" 
"MF_sp(ECDMC)" 
"MF_sp(Li+)" 
"MF_sp(PF6-)" 
"Volt(Electroly)" 
"Volt(AnodeVolt)" 
"Temperature" 
"Potential Drop Electrode-Electrolyte [V]" 
"Surf_0 Equilibrium Potential Drop Electrode-Electrolyte [V]" 
"Overpotential_0 [V]" 
"Current Source [A/m^2]" 
"Li+ flux [kmol/m^2/s]" 
"Electrolyte Current [A/m^2]" 
"Electrode Current [A/m^2]" 
"CV Capacity discharged [A-s/m^2]" 
"Depth of discharge in CV [A-s/m^2]" 
"CV Capacity remaining [A-s/m^2]" 
"Initial CV capacity [A-s/m^2]" 
"Porosity []" 
"Surface Area [m2/m2] (area per area)" 
"Specific current (per particle area) [A/m^2]" 
"Control volume thickness [m]" 
"MoleDens Li_C6-bulk [kmol/m^3]" 
"MoleDens V_C6-bulk [kmol/m^3]" 
"qHeat_accum [J/m3]" 
"qHeat_step [W/m3]" 
"Joule_Lyte [W/m3]" 
"Joule_Solid [W/m3]" 
"electrodHeat [W/m3]" 
"OverpotHeat [W/m3]" 
"deltaSHeat [W/m3]" 

ZONE T = "ANOD, 0.0000E+00", I = 10, SOLUTIONTIME = 0.000000E+00
ZONETYPE = ORDERED
DATAPACKING = BLOCK
STRANDID = 1
 0.0000000000000E+00  8.7488888888889E-05  1.7497777777778E-04  2.6246666666667E-04  3.4995555555556E-04  4.3744444444444E-04  5.2493333333333E-04  6.1242222222222E-04  6.9991111111111E-04  7.8740000000000E-04 
 0.0000000000000E+00  0.0000000000000E+00  0.0000000000000E+00  0.0000000000000E+00  0.0000000000000E+00  0.0000000000000E+00  0.0000000000000E+00  0.0000000000000E+00  0.0000000000000E+00  0.0000000000000E+00 
 9.2000000000000E-01  9.2000000000000E-01  9.2000000000000E-01  9.2000000000000E-01  9.2000000000000E-01  9.2000000000000E-01  9.2000000000000E-01  9.2000000000000E-01  9.2000000000000E-01  9.2000000000000E-01 
 4.0000000000000E-02  4.0000000000000E-02  4.0000000000000E-02  4.0000000000000E-02  4.0000000000000E-02  4.0000000000000E-02  4.0000000000000E-02  4.0000000000000E-02  4.0000000000000E-02  4.0000000000000E-02 
 4.0000000000000E-02  4.0000000000000E-02  4.0000000000000E-02  4.0000000000000E-02  4.0000000000000E-02  4.0000000000000E-02  4.0000000000000E-02  4.0000000000000E-02  4.0000000000000E-02  4.0000000000000E-02 
-7.0000000000000E-02 -7.0000000000000E-02 -7.0000000000000E-02 -7.0000000000000E-02 -7.0000000000000E-02 -7.0000000000000E-02 -7.0000000000000E-02 -7.0000000000000E-02 -7.0000000000000E-02 -7.0000000000000E-02 
 0.0000000000000E+00  0.0000000000000E+00  0.0000000000000E+00  0.0000000000000E+00  0.0000000000000E+00  0.0000000000000E+00  0.0000000000000E+00  0.0000000000000E+00  0.0000000000000E+00  0.0000000000000E+00 
 2.9815000000000E+02  2.9815000000000E+02  2.9815000000000E+02  2.9815000000000E+02  2.9815000000000E+02  2.9815000000000E+02  2.9815000000000E+02  2.9815000000000E+02  2.9815000000000E+02  2.9815000000000E+02 
 7.0000000000000E-02  7.0000000000000E-02  7.0000000000000E-02  7.0000000000000E-02  7.0000000000000E-02  7.0000000000000E-02  7.0000000000000E-02  7.0000000000000E-02  7.0000000000000E-02  7.0000000000000E-02 
-4.0906712753391E-02 -4.0906712753391E-02 -4.0906712753391E-02 -4.0906712753391E-02 -4.0906712753391E-02 -4.0906712753391E-02 -4.0906712753391E-02 -4.0906712753391E-02 -4.0906712753391E-02 -4.0906712753391E-02 
 1.1090671275339E-01  1.1090671275339E-01  1.1090671275339E-01  1.1090671275339E-01  1.1090671275339E-01  1.1090671275339E-01  1.1090671275339E-01  1.1090671275339E-01  1.1090671275339E-01  1.1090671275339E-01 
 3.0930240924008E+01  6.1860481848017E+01  6.1860481848017E+01  6.1860481848017E+01  6.1860481848017E+01  6.1860481848017E+01  6.1860481848017E+01  6.1860481848017E+01  6.1860481848017E+01  3.0930240924008E+01 
-0.0000000000000E+00 -0.0000000000000E+00 -0.0000000000000E+00 -0.0000000000000E+00 -0.0000000000000E+00 -0.0000000000000E+00 -0.0000000000000E+00 -0.0000000000000E+00 -0.0000000000000E+00 -0.0000000000000E+00 
 0.0000000000000E+00  0.0000000000000E+00  0.0000000000000E+00  0.0000000000000E+00  0.0000000000000E+00  0.0000000000000E+00  0.0000000000000E+00  0.0000000000000E+00  0.0000000000000E+00  3.0930240924008E+01 
 3.0930240924008E+01 -0.0000000000000E+00 -0.0000000000000E+00 -0.0000000000000E+00 -0.0000000000000E+00 -0.0000000000000E+00 -0.0000000000000E+00 -0.0000000000000E+00 -0.0000000000000E+00  0.0000000000000E+00 
 0.0000000000000E+00  0.0000000000000E+00  0.0000000000000E+00  0.0000000000000E+00  0.0000000000000E+00  0.0000000000000E+00  0.0000000000000E+00  0.0000000000000E+00  0.0000000000000E+00  0.0000000000000E+00 
 4.5724222271641E+04  9.1448444543281E+04  9.1448444543281E+04  9.1448444543281E+04  9.1448444543281E+04  9.1448444543281E+04  9.1448444543281E+04  9.1448444543281E+04  9.1448444543281E+04  4.5724222271641E+04 
 3.3835924481014E+05  6.7671848962028E+05  6.7671848962028E+05  6.7671848962028E+05  6.7671848962028E+05  6.7671848962028E+05  6.7671848962028E+05  6.7671848962028E+05  6.7671848962028E+05  3.3835924481014E+05 
 3.8408346708178E+05  7.6816693416356E+05  7.6816693416356E+05  7.6816693416356E+05  7.6816693416356E+05  7.6816693416356E+05  7.6816693416356E+05  7.6816693416356E+05  7.6816693416356E+05  3.8408346708178E+05 
 3.5000000000000E-01  3.5000000000000E-01  3.5000000000000E-01  3.5000000000000E-01  3.5000000000000E-01  3.5000000000000E-01  3.5000000000000E-01  3.5000000000000E-01  3.5000000000000E-01  3.5000000000000E-01 
 8.5301666666667E+00  1.7060333333333E+01  1.7060333333333E+01  1.7060333333333E+01  1.7060333333333E+01  1.7060333333333E+01  1.7060333333333E+01  1.7060333333333E+01  1.7060333333333E+01  8.5301666666667E+00 
 3.6259831879809E+00  3.6259831879809E+00  3.6259831879809E+00  3.6259831879809E+00  3.6259831879809E+00  3.6259831879809E+00  3.6259831879809E+00  3.6259831879809E+00  3.6259831879809E+00  3.6259831879809E+00 
 4.3744444444444E-05  8.7488888888889E-05  8.7488888888889E-05  8.7488888888889E-05  8.7488888888889E-05  8.7488888888889E-05  8.7488888888889E-05  8.7488888888889E-05  8.7488888888889E-05  4.3744444444444E-05 
 8.6666666666667E+01  8.6666666666667E+01  8.6666666666667E+01  8.6666666666667E+01  8.6666666666667E+01  8.6666666666667E+01  8.6666666666667E+01  8.6666666666667E+01  8.6666666666667E+01  8.6666666666667E+01 
 2.1666666666667E+01  2.1666666666667E+01  2.1666666666667E+01  2.1666666666667E+01  2.1666666666667E+01  2.1666666666667E+01  2.1666666666667E+01  2.1666666666667E+01  2.1666666666667E+01  2.1666666666667E+01 
 0.0000000000000E+00  0.0000000000000E+00  0.0000000000000E+00  0.0000000000000E+00  0.0000000000000E+00  0.0000000000000E+00  0.0000000000000E+00  0.0000000000000E+00  0.0000000000000E+00  0.0000000000000E+00 
 0.0000000000000E+00  0.0000000000000E+00  0.0000000000000E+00  0.0000000000000E+00  0.0000000000000E+00  0.0000000000000E+00  0.0000000000000E+00  0.0000000000000E+00  0.0000000000000E+00  0.0000000000000E+00 
 0.0000000000000E+00  0.0000000000000E+00  0.0000000000000E+00  0.0000000000000E+00  0.0000000000000E+00  0.0000000000000E+00  0.0000000000000E+00  0.0000000000000E+00  0.0000000000000E+00  0.0000000000000E+00 
 0.0000000000000E+00  0.0000000000000E+00  0.0000000000000E+00  0.0000000000000E+00  0.0000000000000E+00  0.0000000000000E+00  0.0000000000000E+00  0.0000000000000E+00  0.0000000000000E+00  0.0000000000000E+00 
 0.0000000000000E+00  0.0000000000000E+00  0.0000000000000E+00  0.0000000000000E+00  0.0000000000000E+00  0.0000000000000E+00  0.0000000000000E+00  0.0000000000000E+00  0.0000000000000E+00  0.0000000000000E+00 
 0.0000000000000E+00  0.0000000000000E+00  0.0000000000000E+00  0.0000000000000E+00  0.0000000000000E+00  0.0000000000000E+00  0.0000000000000E+00  0.0000000000000E+00  0.0000000000000E+00  0.0000000000000E+00 
 0.0000000000000E+00  0.0000000000000E+00  0.0000000000000E+00  0.0000000000000E+00  0.0000000000000E+00  0.0000000000000E+00  0.0000000000000E+00  0.0000000000000E+00  0.0000000000000E+00  0.0000000000000E+00 
ZONE T = "ANOD, 1.0000E-08", I = 10, SOLUTIONTIME = 1.000000E-08
ZONETYPE = ORDERED
DATAPACKING = BLOCK
STRANDID = 1
 0.0000000000000E+00  8.7488888888889E-05  1.7497777777778E-04  2.6246666666667E-04  3.4995555555556E-04  4.3744444444444E-04  5.2493333333333E-04  6.1242222222222E-04  6.9991111111111E-04  7.8740000000000E-04 
 1.1699591057070E-09  3.4871577769376E-09  5.8040778625422E-09  8.1210094464469E-09  1.0437962442244E-08  1.2754943441430E-08  1.5071958823122E-08  1.7389015008489E-08  1.9705755163009E-08  2.0865060350568E-08 
 9.1999999999930E-01  9.1999999999930E-01  9.1999999999930E-01  9.1999999999930E-01  9.1999999999930E-01  9.1999999999930E-01  9.1999999999930E-01  9.1999999999930E-01  9.1999999999930E-01  9.1999999999971E-01 
 4.0000000000352E-02  4.0000000000348E-02  4.0000000000348E-02  4.0000000000348E-02  4.0000000000348E-02  4.0000000000348E-02  4.0000000000348E-02  4.0000000000348E-02  4.0000000000348E-02  4.0000000000144E-02 
 4.0000000000352E-02  4.0000000000348E-02  4.0000000000348E-02  4.0000000000348E-02  4.0000000000348E-02  4.0000000000348E-02  4.0000000000348E-02  4.0000000000348E-02  4.0000000000348E-02  4.0000000000144E-02 
 2.9172734710182E-02  2.9172718832945E-02  2.9172671513405E-02  2.9172592754130E-02  2.9172482554915E-02  2.9172340915453E-02  2.9172167835404E-02  2.9171963314257E-02  2.9171727351489E-02  2.9171459946450E-02 
 0.0000000000000E+00 -4.7349956847845E-09 -8.9128920220941E-09 -1.2533755989305E-08 -1.5597584822004E-08 -1.8104373372358E-08 -2.0054114907808E-08 -2.1446801162134E-08 -2.2282422325349E-08 -2.2560967055220E-08 
 2.9819800359721E+02  2.9815060800649E+02  2.9815000616345E+02  2.9814999862903E+02  2.9814999840292E+02  2.9814999851869E+02  2.9814999853135E+02  2.9814999852980E+02  2.9814999841584E+02  2.9814999951981E+02 
-2.9172734710182E-02 -2.9172723567941E-02 -2.9172680426297E-02 -2.9172605287886E-02 -2.9172498152499E-02 -2.9172359019826E-02 -2.9172187889519E-02 -2.9171984761058E-02 -2.9171749633911E-02 -2.9171482507417E-02 
-4.0940234636156E-02 -4.0907137323986E-02 -4.0906717057026E-02 -4.0906711795735E-02 -4.0906711637856E-02 -4.0906711718693E-02 -4.0906711727536E-02 -4.0906711726450E-02 -4.0906711646872E-02 -4.0906712417903E-02 
 1.1767499925974E-02  1.1734413756045E-02  1.1734036630728E-02  1.1734106507850E-02  1.1734213485357E-02  1.1734352698867E-02  1.1734523838017E-02  1.1734726965393E-02  1.1734962012961E-02  1.1735229910486E-02 
 1.6848429409895E+00  3.3369677718530E+00  3.3365665838291E+00  3.3365831410637E+00  3.3366139772224E+00  3.3366543043714E+00  3.3367038168075E+00  3.3367625757849E+00  3.3368305139964E+00  1.6684542730305E+00 
 8.7310460742402E-09  2.6023563227131E-08  4.3314011552952E-08  6.0604545841741E-08  7.7895248716455E-08  9.5186138559132E-08  1.1247730988864E-07  1.2976876806233E-07  1.4706065609673E-07  1.4706065609673E-07 
 0.0000000000000E+00  3.3533100538570E+00  6.6900592304900E+00  1.0026616974838E+01  1.3363199277898E+01  1.6699815886543E+01  2.0036477694490E+01  2.3373194337546E+01  2.6709973176988E+01  3.0046834130130E+01 
 3.0046834373516E+01  2.6693516108365E+01  2.3356766052808E+01  2.0020208310786E+01  1.6683626872114E+01  1.3347009852461E+01  1.0010347912470E+01  6.6736318354438E+00  3.3368524089312E+00  0.0000000000000E+00 
 1.6848429409895E-08  3.3369677718530E-08  3.3365665838291E-08  3.3365831410637E-08  3.3366139772224E-08  3.3366543043714E-08  3.3367038168075E-08  3.3367625757849E-08  3.3368305139964E-08  1.6684542730305E-08 
 4.5724222271657E+04  9.1448444543315E+04  9.1448444543315E+04  9.1448444543315E+04  9.1448444543315E+04  9.1448444543315E+04  9.1448444543315E+04  9.1448444543315E+04  9.1448444543315E+04  4.5724222271657E+04 
 3.3835924481012E+05  6.7671848962025E+05  6.7671848962025E+05  6.7671848962025E+05  6.7671848962025E+05  6.7671848962025E+05  6.7671848962025E+05  6.7671848962025E+05  6.7671848962025E+05  3.3835924481012E+05 
 3.8408346708178E+05  7.6816693416356E+05  7.6816693416356E+05  7.6816693416356E+05  7.6816693416356E+05  7.6816693416356E+05  7.6816693416356E+05  7.6816693416356E+05  7.6816693416356E+05  3.8408346708178E+05 
 3.5000000000000E-01  3.5000000000000E-01  3.5000000000000E-01  3.5000000000000E-01  3.5000000000000E-01  3.5000000000000E-01  3.5000000000000E-01  3.5000000000000E-01  3.5000000000000E-01  3.5000000000000E-01 
 8.5301666666667E+00  1.7060333333333E+01  1.7060333333333E+01  1.7060333333333E+01  1.7060333333333E+01  1.7060333333333E+01  1.7060333333333E+01  1.7060333333333E+01  1.7060333333333E+01  8.5301666666667E+00 
 1.9751582903689E-01  1.9559804059239E-01  1.9557452475503E-01  1.9557549526565E-01  1.9557730274257E-01  1.9557966653864E-01  1.9558256873493E-01  1.9558601292188E-01  1.9558999515424E-01  1.9559456904286E-01 
 4.3744444444444E-05  8.7488888888889E-05  8.7488888888889E-05  8.7488888888889E-05  8.7488888888889E-05  8.7488888888889E-05  8.7488888888889E-05  8.7488888888889E-05  8.7488888888889E-05  4.3744444444444E-05 
 8.6666666666663E+01  8.6666666666663E+01  8.6666666666663E+01  8.6666666666663E+01  8.6666666666663E+01  8.6666666666663E+01  8.6666666666663E+01  8.6666666666663E+01  8.6666666666663E+01  8.6666666666663E+01 
 2.1666666666671E+01  2.1666666666671E+01  2.1666666666671E+01  2.1666666666671E+01  2.1666666666671E+01  2.1666666666671E+01  2.1666666666671E+01  2.1666666666671E+01  2.1666666666671E+01  2.1666666666671E+01 
-7.5673990906305E-05 -7.4934602167811E-05 -7.4925485185949E-05 -7.4925770293149E-05 -7.4926340148166E-05 -7.4927086553965E-05 -7.4928002600140E-05 -7.4929089668132E-05 -7.4930346233808E-05 -7.4931900947864E-05 
-7.5673990906305E+03 -7.4934602167811E+03 -7.4925485185949E+03 -7.4925770293149E+03 -7.4926340148166E+03 -7.4927086553965E+03 -7.4928002600140E+03 -7.4929089668132E+03 -7.4930346233808E+03 -7.4931900947864E+03 
 3.0575921527055E-04  1.5109293760745E-03  5.1202208087992E-03  1.1127499455589E-02  1.9532892743429E-02  3.0336485156811E-02  4.3538400273228E-02  5.9138780962300E-02  7.7137790169083E-02  8.6736977302799E-02 
 1.5349824274882E-03  1.3650072386997E-03  1.0463220260731E-03  7.7014485102319E-04  5.3645332844937E-04  3.4524774300825E-04  1.9652909619520E-04  9.0298869534247E-05  2.6559013698347E-05  5.3119517894733E-06 
-7.5674009313722E+03 -7.4934630927177E+03 -7.4925546851377E+03 -7.4925889269592E+03 -7.4926540841626E+03 -7.4927393371294E+03 -7.4928439949433E+03 -7.4929681958930E+03 -7.4931117877299E+03 -7.4932768370757E+03 
 4.5323216320492E+02  4.4756952595416E+02  4.4750133432353E+02  4.4750621990418E+02  4.4751443554648E+02  4.4752515364733E+02  4.4753832145705E+02  4.4755394968668E+02  4.4757202684231E+02  4.4759271121080E+02 
-8.0206330945771E+03 -7.9410326186719E+03 -7.9400560194612E+03 -7.9400951468634E+03 -7.9401685197091E+03 -7.9402644907767E+03 -7.9403823164004E+03 -7.9405221455797E+03 -7.9406838145722E+03 -7.9408695482865E+03 
ZONE T = "ANOD, 2.0000E-08", I = 10, SOLUTIONTIME = 2.000000E-08
ZONETYPE = ORDERED
DATAPACKING = BLOCK
STRANDID = 1
 0.0000000000000E+00  8.7488888888889E-05  1.7497777777778E-04  2.6246666666667E-04  3.4995555555556E-04  4.3744444444444E-04  5.2493333333333E-04  6.1242222222222E-04  6.9991111111111E-04  7.8740000000000E-04 
 1.1806862687963E-09  3.4973808679254E-09  5.8132418183624E-09  8.1291037809647E-09  1.0444986999468E-08  1.2760898166346E-08  1.5076843707397E-08  1.7392830050187E-08  1.9708863604112E-08  2.0866907730332E-08 
 9.1999999999859E-01  9.1999999999861E-01  9.1999999999861E-01  9.1999999999861E-01  9.1999999999861E-01  9.1999999999861E-01  9.1999999999861E-01  9.1999999999861E-01  9.1999999999861E-01  9.1999999999942E-01 
 4.0000000000706E-02  4.0000000000696E-02  4.0000000000696E-02  4.0000000000696E-02  4.0000000000696E-02  4.0000000000696E-02  4.0000000000696E-02  4.0000000000696E-02  4.0000000000696E-02  4.0000000000288E-02 
 4.0000000000706E-02  4.0000000000696E-02  4.0000000000696E-02  4.0000000000696E-02  4.0000000000696E-02  4.0000000000696E-02  4.0000000000696E-02  4.0000000000696E-02  4.0000000000696E-02  4.0000000000288E-02 
 2.9178116939979E-02  2.9178100915895E-02  2.9178053457531E-02  2.9177974573897E-02  2.9177864264841E-02  2.9177722530071E-02  2.9177549369208E-02  2.9177344781785E-02  2.9177108767249E-02  2.9176841324957E-02 
 0.0000000000000E+00 -4.7329481354434E-09 -8.9089181120887E-09 -1.2528110355194E-08 -1.5590524621416E-08 -1.8096155800424E-08 -2.0044997172889E-08 -2.1437040474596E-08 -2.2272275896018E-08 -2.2550692086685E-08 
 2.9824461131432E+02  2.9815179248446E+02  2.9815002724114E+02  2.9814999767499E+02  2.9814999707412E+02  2.9814999703539E+02  2.9814999699952E+02  2.9814999697006E+02  2.9814999690866E+02  2.9814999907408E+02 
-2.9178116939979E-02 -2.9178105648843E-02 -2.9178062366449E-02 -2.9177987102007E-02 -2.9177879855366E-02 -2.9177740626227E-02 -2.9177569414205E-02 -2.9177366218825E-02 -2.9177131039524E-02 -2.9176863875649E-02 
-4.0972783634825E-02 -4.0907964445497E-02 -4.0906731775273E-02 -4.0906711129241E-02 -4.0906710709652E-02 -4.0906710682609E-02 -4.0906710657558E-02 -4.0906710636991E-02 -4.0906710594112E-02 -4.0906712106489E-02 
 1.1794666694846E-02  1.1729858796654E-02  1.1728669408824E-02  1.1728724027233E-02  1.1728830854286E-02  1.1728970056382E-02  1.1729141243353E-02  1.1729344418165E-02  1.1729579554587E-02  1.1729848230840E-02 
 1.7002822671769E+00  3.3362247443510E+00  3.3350242238252E+00  3.3350256814310E+00  3.3350562915953E+00  3.3350965395207E+00  3.3351460410663E+00  3.3352047988366E+00  3.3352727866589E+00  1.6676757784116E+00 
 8.8110951358085E-09  2.6099857285501E-08  4.3382401629570E-08  6.0664953584570E-08  7.7947664171445E-08  9.5230583330000E-08  1.1251375900095E-07  1.2979723917979E-07  1.4708121580642E-07  1.4708121580642E-07 
 0.0000000000000E+00  3.3683946392390E+00  6.7040191233466E+00  1.0039044076151E+01  1.3374085062535E+01  1.6709161478091E+01  2.0044282768462E+01  2.3379458188193E+01  2.6714696981064E+01  3.0050009152970E+01 
 3.0050009152757E+01  2.6681614513408E+01  2.3345990029322E+01  2.0010965076694E+01  1.6675924090172E+01  1.3340847674612E+01  1.0005726384336E+01  6.6705509644092E+00  3.3353121717077E+00  0.0000000000000E+00 
 3.3851252081664E-08  6.6731925162040E-08  6.6715908076543E-08  6.6716088224947E-08  6.6716702688177E-08  6.6717508438921E-08  6.6718498578738E-08  6.6719673746215E-08  6.6721033006553E-08  3.3361300514421E-08 
 4.5724222271674E+04  9.1448444543348E+04  9.1448444543348E+04  9.1448444543348E+04  9.1448444543348E+04  9.1448444543348E+04  9.1448444543348E+04  9.1448444543348E+04  9.1448444543348E+04  4.5724222271674E+04 
 3.3835924481011E+05  6.7671848962021E+05  6.7671848962021E+05  6.7671848962021E+05  6.7671848962021E+05  6.7671848962021E+05  6.7671848962021E+05  6.7671848962021E+05  6.7671848962021E+05  3.3835924481011E+05 
 3.8408346708178E+05  7.6816693416356E+05  7.6816693416356E+05  7.6816693416356E+05  7.6816693416356E+05  7.6816693416356E+05  7.6816693416356E+05  7.6816693416356E+05  7.6816693416356E+05  3.8408346708178E+05 
 3.5000000000000E-01  3.5000000000000E-01  3.5000000000000E-01  3.5000000000000E-01  3.5000000000000E-01  3.5000000000000E-01  3.5000000000000E-01  3.5000000000000E-01  3.5000000000000E-01  3.5000000000000E-01 
 8.5301666666667E+00  1.7060333333333E+01  1.7060333333333E+01  1.7060333333333E+01  1.7060333333333E+01  1.7060333333333E+01  1.7060333333333E+01  1.7060333333333E+01  1.7060333333333E+01  8.5301666666667E+00 
 1.9932579674218E-01  1.9555448766247E-01  1.9548411854938E-01  1.9548420398767E-01  1.9548599821781E-01  1.9548835737016E-01  1.9549125892810E-01  1.9549470304429E-01  1.9549868818461E-01  1.9550330533732E-01 
 4.3744444444444E-05  8.7488888888889E-05  8.7488888888889E-05  8.7488888888889E-05  8.7488888888889E-05  8.7488888888889E-05  8.7488888888889E-05  8.7488888888889E-05  8.7488888888889E-05  4.3744444444444E-05 
 8.6666666666659E+01  8.6666666666659E+01  8.6666666666659E+01  8.6666666666659E+01  8.6666666666659E+01  8.6666666666659E+01  8.6666666666659E+01  8.6666666666659E+01  8.6666666666659E+01  8.6666666666659E+01 
 2.1666666666675E+01  2.1666666666675E+01  2.1666666666675E+01  2.1666666666675E+01  2.1666666666675E+01  2.1666666666675E+01  2.1666666666675E+01  2.1666666666675E+01  2.1666666666675E+01  2.1666666666675E+01 
-1.5204814862627E-04 -1.4985468652454E-04 -1.4981838874222E-04 -1.4981861763448E-04 -1.4981975218159E-04 -1.4982124318730E-04 -1.4982307505812E-04 -1.4982524923162E-04 -1.4982776358895E-04 -1.4983088980379E-04 
-7.6374157719966E+03 -7.4920084356725E+03 -7.4892903556270E+03 -7.4892847341328E+03 -7.4893412033423E+03 -7.4894156633334E+03 -7.4895072457982E+03 -7.4896159563486E+03 -7.4897417355145E+03 -7.4898988855927E+03 
 6.1717552004065E-04  3.0326645963500E-03  1.0260308882466E-02  2.2281578988291E-02  3.9096856078066E-02  6.0706321702459E-02  8.7110216328685E-02  1.1830882614027E-01  1.5430248409178E-01  1.7349812342729E-01 
 3.0686376002478E-03  2.7287999670486E-03  2.0916788445022E-03  1.5395787222844E-03  1.0724114131578E-03  6.9017676442439E-04  3.9287676850189E-04  1.8051438485409E-04  5.3093513390272E-05  1.0619002129113E-05 
-7.6374176170681E+03 -7.4920113212004E+03 -7.4892965410719E+03 -7.4892966576463E+03 -7.4893613032637E+03 -7.4894463780990E+03 -7.4895510139619E+03 -7.4896752166093E+03 -7.4898189267429E+03 -7.4899856520458E+03 
 4.5844136057929E+02  4.4729617283844E+02  4.4708987723100E+02  4.4709215465819E+02  4.4710033046674E+02  4.4711103255187E+02  4.4712419463119E+02  4.4713981727554E+02  4.4715789610490E+02  4.4717869954922E+02 
-8.0958589776474E+03 -7.9393074940388E+03 -7.9363864183028E+03 -7.9363888123044E+03 -7.9364616337304E+03 -7.9365574106508E+03 -7.9366752085931E+03 -7.9368150338849E+03 -7.9369768228478E+03 -7.9371643515951E+03 
ZONE T = "ANOD, 3.0000E-08", I = 10, SOLUTIONTIME = 3.000000E-08
ZONETYPE = ORDERED
DATAPACKING = BLOCK
STRANDID = 1
 0.0000000000000E+00  8.7488888888889E-05  1.7497777777778E-04  2.6246666666667E-04  3.4995555555556E-04  4.3744444444444E-04  5.2493333333333E-04  6.1242222222222E-04  6.9991111111111E-04  7.8740000000000E-04 
 1.1911678051178E-09  3.5076039616139E-09  5.8224017389498E-09  8.1371799453226E-09  1.0451978990860E-08  1.2767895684322E-08  1.5083846696576E-08  1.7398748982554E-08  1.9713698465288E-08  2.0871200785259E-08 
 9.1999999999787E-01  9.1999999999791E-01  9.1999999999791E-01  9.1999999999791E-01  9.1999999999791E-01  9.1999999999791E-01  9.1999999999791E-01  9.1999999999791E-01  9.1999999999791E-01  9.1999999999914E-01 
 4.0000000001064E-02  4.0000000001044E-02  4.0000000001044E-02  4.0000000001044E-02  4.0000000001044E-02  4.0000000001044E-02  4.0000000001044E-02  4.0000000001044E-02  4.0000000001044E-02  4.0000000000432E-02 
 4.0000000001064E-02  4.0000000001044E-02  4.0000000001044E-02  4.0000000001044E-02  4.0000000001044E-02  4.0000000001044E-02  4.0000000001044E-02  4.0000000001044E-02  4.0000000001044E-02  4.0000000000432E-02 
 2.9183511255635E-02  2.9183495088023E-02  2.9183447490794E-02  2.9183368482857E-02  2.9183258064211E-02  2.9183116234563E-02  2.9182942993532E-02  2.9182738340654E-02  2.9182502275373E-02  2.9182234797046E-02 
 0.0000000000000E+00 -4.7309363719579E-09 -8.9049567197218E-09 -1.2522454941308E-08 -1.5583435741956E-08 -1.8087894111525E-08 -2.0035823312328E-08 -2.1427215093463E-08 -2.2262059622523E-08 -2.2540345552496E-08 
 2.9828987867727E+02  2.9815352215429E+02  2.9815006983190E+02  2.9814999704741E+02  2.9814999552695E+02  2.9814999560920E+02  2.9814999542474E+02  2.9814999556901E+02  2.9814999545819E+02  2.9814999857353E+02 
-2.9183511255635E-02 -2.9183499818959E-02 -2.9183456395751E-02 -2.9183381005312E-02 -2.9183273647647E-02 -2.9183134322457E-02 -2.9182963029356E-02 -2.9182759767869E-02 -2.9182524537432E-02 -2.9182257337392E-02 
-4.1004398362523E-02 -4.0909172277032E-02 -4.0906761516086E-02 -4.0906710690696E-02 -4.0906709628962E-02 -4.0906709686401E-02 -4.0906709557592E-02 -4.0906709658331E-02 -4.0906709580946E-02 -4.0906711756778E-02 
 1.1820887106888E-02  1.1725672458073E-02  1.1723305120335E-02  1.1723329685384E-02  1.1723435981315E-02  1.1723575363944E-02  1.1723746528237E-02  1.1723949890462E-02  1.1724185043514E-02  1.1724454419386E-02 
 1.7153765142711E+00  3.3358525663552E+00  3.3334931698763E+00  3.3334649861107E+00  3.3334949961861E+00  3.3335353540409E+00  3.3335847758134E+00  3.3336436706381E+00  3.3337116377078E+00  1.6668955342540E+00 
 8.8893190529155E-09  2.6176149113825E-08  4.3450759248027E-08  6.0725223466174E-08  7.7999843210053E-08  9.5274672097378E-08  1.1254975708042E-07  1.2982514728411E-07  1.4710110584344E-07  1.4710110584344E-07 
 0.0000000000000E+00  3.3833027974974E+00  6.7179756656011E+00  1.0051454743621E+01  1.3384934734720E+01  1.6718449909959E+01  2.0052009974977E+01  2.3385624197989E+01  2.6719301852235E+01  3.0053053205482E+01 
 3.0053053205397E+01  2.6669750407942E+01  2.3335077539817E+01  2.0001598461807E+01  1.6668118470642E+01  1.3334603295519E+01  1.0001043230569E+01  6.6674290073202E+00  3.3337513531248E+00  0.0000000000000E+00 
 5.1005017224375E-08  1.0009045082559E-07  1.0005083977531E-07  1.0005073808605E-07  1.0005165265004E-07  1.0005286197933E-07  1.0005434633687E-07  1.0005611045260E-07  1.0005814938363E-07  5.0030255856961E-08 
 4.5724222271692E+04  9.1448444543381E+04  9.1448444543381E+04  9.1448444543381E+04  9.1448444543381E+04  9.1448444543381E+04  9.1448444543381E+04  9.1448444543381E+04  9.1448444543381E+04  4.5724222271691E+04 
 3.3835924481009E+05  6.7671848962018E+05  6.7671848962018E+05  6.7671848962018E+05  6.7671848962018E+05  6.7671848962018E+05  6.7671848962018E+05  6.7671848962018E+05  6.7671848962018E+05  3.3835924481009E+05 
 3.8408346708178E+05  7.6816693416356E+05  7.6816693416356E+05  7.6816693416356E+05  7.6816693416356E+05  7.6816693416356E+05  7.6816693416356E+05  7.6816693416356E+05  7.6816693416356E+05  3.8408346708178E+05 
 3.5000000000000E-01  3.5000000000000E-01  3.5000000000000E-01  3.5000000000000E-01  3.5000000000000E-01  3.5000000000000E-01  3.5000000000000E-01  3.5000000000000E-01  3.5000000000000E-01  3.5000000000000E-01 
 8.5301666666667E+00  1.7060333333333E+01  1.7060333333333E+01  1.7060333333333E+01  1.7060333333333E+01  1.7060333333333E+01  1.7060333333333E+01  1.7060333333333E+01  1.7060333333333E+01  8.5301666666667E+00 
 2.0109531047901E-01  1.9553267226247E-01  1.9539437505381E-01  1.9539272304824E-01  1.9539448210387E-01  1.9539684769979E-01  1.9539974458178E-01  1.9540319673149E-01  1.9540718065539E-01  1.9541183653161E-01 
 4.3744444444444E-05  8.7488888888889E-05  8.7488888888889E-05  8.7488888888889E-05  8.7488888888889E-05  8.7488888888889E-05  8.7488888888889E-05  8.7488888888889E-05  8.7488888888889E-05  4.3744444444444E-05 
 8.6666666666655E+01  8.6666666666655E+01  8.6666666666655E+01  8.6666666666655E+01  8.6666666666655E+01  8.6666666666655E+01  8.6666666666655E+01  8.6666666666655E+01  8.6666666666655E+01  8.6666666666655E+01 
 2.1666666666679E+01  2.1666666666679E+01  2.1666666666679E+01  2.1666666666679E+01  2.1666666666679E+01  2.1666666666679E+01  2.1666666666679E+01  2.1666666666679E+01  2.1666666666679E+01  2.1666666666679E+01 
-2.2910696408117E-04 -2.2476863801464E-04 -2.2467896936876E-04 -2.2467847208185E-04 -2.2468015770477E-04 -2.2468239578041E-04 -2.2468514169946E-04 -2.2468840614262E-04 -2.2469217793012E-04 -2.2469689068455E-04 
-7.7058815454901E+03 -7.4913951490106E+03 -7.4860580626537E+03 -7.4859854447372E+03 -7.4860405523186E+03 -7.4861152593113E+03 -7.4862066641335E+03 -7.4863156911003E+03 -7.4864414341168E+03 -7.4866000880758E+03 
 9.3417053860290E-04  4.5651909181885E-03  1.5420301907470E-02  3.3462232899392E-02  5.8691808121940E-02  9.1109318584544E-02  1.3071512179351E-01  1.7750964738446E-01  2.3149339849912E-01  2.6028265160951E-01 
 4.6009892743568E-03  4.0913836677376E-03  3.1360587288670E-03  2.3082924590515E-03  1.6078678750575E-03  1.0347829627910E-03  5.8904068298132E-04  2.7064547386543E-04  7.9603183202903E-05  1.5921087683164E-05 
-7.7058833948368E+03 -7.4913980441206E+03 -7.4860642670266E+03 -7.4859973941049E+03 -7.4860606827271E+03 -7.4861460069144E+03 -7.4862504652028E+03 -7.4863749820527E+03 -7.4865186515409E+03 -7.4866868779061E+03 
 4.6353936777394E+02  4.4708665361981E+02  4.4668023613135E+02  4.4667739554031E+02  4.4668546690769E+02  4.4669618563620E+02  4.4670933005451E+02  4.4672497095714E+02  4.4674303925137E+02  4.4676394823608E+02 
-8.1694227626107E+03 -7.9384846977404E+03 -7.9327445031579E+03 -7.9326747896452E+03 -7.9327461496348E+03 -7.9328421925506E+03 -7.9329597952573E+03 -7.9330999530098E+03 -7.9332616907922E+03 -7.9334508261422E+03 
ZONE T = "ANOD, 4.0000E-08", I = 10, SOLUTIONTIME = 4.000000E-08
ZONETYPE = ORDERED
DATAPACKING = BLOCK
STRANDID = 1
 0.0000000000000E+00  8.7488888888889E-05  1.7497777777778E-04  2.6246666666667E-04  3.4995555555556E-04  4.3744444444444E-04  5.2493333333333E-04  6.1242222222222E-04  6.9991111111111E-04  7.8740000000000E-04 
 1.2014154373335E-09  3.5178364818880E-09  5.8315817873499E-09  8.1452743442517E-09  1.0458987004690E-08  1.2771637940774E-08  1.5084323207833E-08  1.7398139110298E-08  1.9712002131939E-08  2.0869687908366E-08 
 9.1999999999715E-01  9.1999999999722E-01  9.1999999999722E-01  9.1999999999722E-01  9.1999999999722E-01  9.1999999999722E-01  9.1999999999722E-01  9.1999999999722E-01  9.1999999999722E-01  9.1999999999885E-01 
 4.0000000001425E-02  4.0000000001392E-02  4.0000000001391E-02  4.0000000001391E-02  4.0000000001391E-02  4.0000000001391E-02  4.0000000001391E-02  4.0000000001391E-02  4.0000000001391E-02  4.0000000000576E-02 
 4.0000000001425E-02  4.0000000001392E-02  4.0000000001391E-02  4.0000000001391E-02  4.0000000001391E-02  4.0000000001391E-02  4.0000000001391E-02  4.0000000001391E-02  4.0000000001391E-02  4.0000000000576E-02 
 2.9188917381708E-02  2.9188901073742E-02  2.9188853337475E-02  2.9188774204959E-02  2.9188663676474E-02  2.9188521751731E-02  2.9188348430349E-02  2.9188143711862E-02  2.9187907595714E-02  2.9187640081264E-02 
 0.0000000000000E+00 -4.7289821398392E-09 -8.9010518886872E-09 -1.2516852545939E-08 -1.5576396793367E-08 -1.8079679797693E-08 -2.0026694851500E-08 -2.1417433700957E-08 -2.2251886485934E-08 -2.2530041878069E-08 