TITLE = "Solution on Domain BulkDomain1D_0"
VARIABLES = "x [m]"  
"Vel_axial" 
"MF_sp(ECDMC)" 
"MF_sp(Li+)" 
"MF_sp(PF6-)" 
"Volt(Electroly)" 
"Volt(AnodeVolt)" 
"Temperature" 
"Potential Drop Electrode-Electrolyte [V]" 
"Surf_0 Equilibrium Potential Drop Electrode-Electrolyte [V]" 
"Overpotential_0 [V]" 
"Current Source [A/m^2]" 
"Li+ flux [kmol/m^2/s]" 
"Electrolyte Current [A/m^2]" 
"Electrode Current [A/m^2]" 
"CV Capacity discharged [A-s/m^2]" 
"Depth of discharge in CV [A-s/m^2]" 
"CV Capacity remaining [A-s/m^2]" 
"Initial CV capacity [A-s/m^2]" 
"Porosity []" 
"Surface Area [m2/m2] (area per area)" 
"Specific current (per particle area) [A/m^2]" 
"Control volume thickness [m]" 
"MoleDens Li_C6-bulk [kmol/m^3]" 
"MoleDens V_C6-bulk [kmol/m^3]" 
"qHeat_accum [J/m3]" 
"qHeat_step [W/m3]" 
"Joule_Lyte [W/m3]" 
"Joule_Solid [W/m3]" 
"electrodHeat [W/m3]" 
"OverpotHeat [W/m3]" 
"deltaSHeat [W/m3]" 

ZONE T = "ANOD, 0.0000E+00", I = 10, SOLUTIONTIME = 0.000000E+00
ZONETYPE = ORDERED
DATAPACKING = BLOCK
STRANDID = 1
 0.0000000000000E+00  8.7488888888889E-05  1.7497777777778E-04  2.6246666666667E-04  3.4995555555556E-04  4.3744444444444E-04  5.2493333333333E-04  6.1242222222222E-04  6.9991111111111E-04  7.8740000000000E-04 
 0.0000000000000E+00  0.0000000000000E+00  0.0000000000000E+00  0.0000000000000E+00  0.0000000000000E+00  0.0000000000000E+00  0.0000000000000E+00  0.0000000000000E+00  0.0000000000000E+00  0.0000000000000E+00 
 9.2000000000000E-01  9.2000000000000E-01  9.2000000000000E-01  9.2000000000000E-01  9.2000000000000E-01  9.2000000000000E-01  9.2000000000000E-01  9.2000000000000E-01  9.2000000000000E-01  9.2000000000000E-01 
 4.0000000000000E-02  4.0000000000000E-02  4.0000000000000E-02  4.0000000000000E-02  4.0000000000000E-02  4.0000000000000E-02  4.0000000000000E-02  4.0000000000000E-02  4.0000000000000E-02  4.0000000000000E-02 
 4.0000000000000E-02  4.0000000000000E-02  4.0000000000000E-02  4.0000000000000E-02  4.0000000000000E-02  4.0000000000000E-02  4.0000000000000E-02  4.0000000000000E-02  4.0000000000000E-02  4.0000000000000E-02 
-7.0000000000000E-02 -7.0000000000000E-02 -7.0000000000000E-02 -7.0000000000000E-02 -7.0000000000000E-02 -7.0000000000000E-02 -7.0000000000000E-02 -7.0000000000000E-02 -7.0000000000000E-02 -7.0000000000000E-02 
 0.0000000000000E+00  0.0000000000000E+00  0.0000000000000E+00  0.0000000000000E+00  0.0000000000000E+00  0.0000000000000E+00  0.0000000000000E+00  0.0000000000000E+00  0.0000000000000E+00  0.0000000000000E+00 
 2.9815000000000E+02  2.9815000000000E+02  2.9815000000000E+02  2.9815000000000E+02  2.9815000000000E+02  2.9815000000000E+02  2.9815000000000E+02  2.9815000000000E+02  2.9815000000000E+02  2.9815000000000E+02 
 7.0000000000000E-02  7.0000000000000E-02  7.0000000000000E-02  7.0000000000000E-02  7.0000000000000E-02  7.0000000000000E-02  7.0000000000000E-02  7.0000000000000E-02  7.0000000000000E-02  7.0000000000000E-02 
-4.0906712753391E-02 -4.0906712753391E-02 -4.0906712753391E-02 -4.0906712753391E-02 -4.0906712753391E-02 -4.0906712753391E-02 -4.0906712753391E-02 -4.0906712753391E-02 -4.0906712753391E-02 -4.0906712753391E-02 
 1.1090671275339E-01  1.1090671275339E-01  1.1090671275339E-01  1.1090671275339E-01  1.1090671275339E-01  1.1090671275339E-01  1.1090671275339E-01  1.1090671275339E-01  1.1090671275339E-01  1.1090671275339E-01 
 3.0930240924008E+01  6.1860481848017E+01  6.1860481848017E+01  6.1860481848017E+01  6.1860481848017E+01  6.1860481848017E+01  6.1860481848017E+01  6.1860481848017E+01  6.1860481848017E+01  3.0930240924008E+01 
-0.0000000000000E+00 -0.0000000000000E+00 -0.0000000000000E+00 -0.0000000000000E+00 -0.0000000000000E+00 -0.0000000000000E+00 -0.0000000000000E+00 -0.0000000000000E+00 -0.0000000000000E+00 -0.0000000000000E+00 
 0.0000000000000E+00  0.0000000000000E+00  0.0000000000000E+00  0.0000000000000E+00  0.0000000000000E+00  0.0000000000000E+00  0.0000000000000E+00  0.0000000000000E+00  0.0000000000000E+00  3.0930240924008E+01 
 3.0930240924008E+01 -0.0000000000000E+00 -0.0000000000000E+00 -0.0000000000000E+00 -0.0000000000000E+00 -0.0000000000000E+00 -0.0000000000000E+00 -0.0000000000000E+00 -0.0000000000000E+00  0.0000000000000E+00 
 0.0000000000000E+00  0.0000000000000E+00  0.0000000000000E+00  0.0000000000000E+00  0.0000000000000E+00  0.0000000000000E+00  0.0000000000000E+00  0.0000000000000E+00  0.0000000000000E+00  0.0000000000000E+00 
 4.5724222271641E+04  9.1448444543281E+04  9.1448444543281E+04  9.1448444543281E+04  9.1448444543281E+04  9.1448444543281E+04  9.1448444543281E+04  9.1448444543281E+04  9.1448444543281E+04  4.5724222271641E+04 
 3.3835924481014E+05  6.7671848962028E+05  6.7671848962028E+05  6.7671848962028E+05  6.7671848962028E+05  6.7671848962028E+05  6.7671848962028E+05  6.7671848962028E+05  6.7671848962028E+05  3.3835924481014E+05 
 3.8408346708178E+05  7.6816693416356E+05  7.6816693416356E+05  7.6816693416356E+05  7.6816693416356E+05  7.6816693416356E+05  7.6816693416356E+05  7.6816693416356E+05  7.6816693416356E+05  3.8408346708178E+05 
 3.5000000000000E-01  3.5000000000000E-01  3.5000000000000E-01  3.5000000000000E-01  3.5000000000000E-01  3.5000000000000E-01  3.5000000000000E-01  3.5000000000000E-01  3.5000000000000E-01  3.5000000000000E-01 
 8.5301666666667E+00  1.7060333333333E+01  1.7060333333333E+01  1.7060333333333E+01  1.7060333333333E+01  1.7060333333333E+01  1.7060333333333E+01  1.7060333333333E+01  1.7060333333333E+01  8.5301666666667E+00 
 3.6259831879809E+00  3.6259831879809E+00  3.6259831879809E+00  3.6259831879809E+00  3.6259831879809E+00  3.6259831879809E+00  3.6259831879809E+00  3.6259831879809E+00  3.6259831879809E+00  3.6259831879809E+00 
 4.3744444444444E-05  8.7488888888889E-05  8.7488888888889E-05  8.7488888888889E-05  8.7488888888889E-05  8.7488888888889E-05  8.7488888888889E-05  8.7488888888889E-05  8.7488888888889E-05  4.3744444444444E-05 
 8.6666666666667E+01  8.6666666666667E+01  8.6666666666667E+01  8.6666666666667E+01  8.6666666666667E+01  8.6666666666667E+01  8.6666666666667E+01  8.6666666666667E+01  8.6666666666667E+01  8.6666666666667E+01 
 2.1666666666667E+01  2.1666666666667E+01  2.1666666666667E+01  2.1666666666667E+01  2.1666666666667E+01  2.1666666666667E+01  2.1666666666667E+01  2.1666666666667E+01  2.1666666666667E+01  2.1666666666667E+01 
 0.0000000000000E+00  0.0000000000000E+00  0.0000000000000E+00  0.0000000000000E+00  0.0000000000000E+00  0.0000000000000E+00  0.0000000000000E+00  0.0000000000000E+00  0.0000000000000E+00  0.0000000000000E+00 
 0.0000000000000E+00  0.0000000000000E+00  0.0000000000000E+00  0.0000000000000E+00  0.0000000000000E+00  0.0000000000000E+00  0.0000000000000E+00  0.0000000000000E+00  0.0000000000000E+00  0.0000000000000E+00 
 0.0000000000000E+00  0.0000000000000E+00  0.0000000000000E+00  0.0000000000000E+00  0.0000000000000E+00  0.0000000000000E+00  0.0000000000000E+00  0.0000000000000E+00  0.0000000000000E+00  0.0000000000000E+00 
 0.0000000000000E+00  0.0000000000000E+00  0.0000000000000E+00  0.0000000000000E+00  0.0000000000000E+00  0.0000000000000E+00  0.0000000000000E+00  0.0000000000000E+00  0.0000000000000E+00  0.0000000000000E+00 
 0.0000000000000E+00  0.0000000000000E+00  0.0000000000000E+00  0.0000000000000E+00  0.0000000000000E+00  0.0000000000000E+00  0.0000000000000E+00  0.0000000000000E+00  0.0000000000000E+00  0.0000000000000E+00 
 0.0000000000000E+00  0.0000000000000E+00  0.0000000000000E+00  0.0000000000000E+00  0.0000000000000E+00  0.0000000000000E+00  0.0000000000000E+00  0.0000000000000E+00  0.0000000000000E+00  0.0000000000000E+00 
 0.0000000000000E+00  0.0000000000000E+00  0.0000000000000E+00  0.0000000000000E+00  0.0000000000000E+00  0.0000000000000E+00  0.0000000000000E+00  0.0000000000000E+00  0.0000000000000E+00  0.0000000000000E+00 
ZONE T = "ANOD, 1.0000E-08", I = 10, SOLUTIONTIME = 1.000000E-08
ZONETYPE = ORDERED
DATAPACKING = BLOCK
STRANDID = 1
 0.0000000000000E+00  8.7488888888889E-05  1.7497777777778E-04  2.6246666666667E-04  3.4995555555556E-04  4.3744444444444E-04  5.2493333333333E-04  6.1242222222222E-04  6.9991111111111E-04  7.8740000000000E-04 
 1.1688346230191E-09  3.4838064217091E-09  5.7984998736359E-09  8.1132047376194E-09  1.0427931061723E-08  1.2742685259137E-08  1.5057473773380E-08  1.7372302979964E-08  1.9687179242666E-08  2.0844281209000E-08 
 9.1999999999930E-01  9.1999999999930E-01  9.1999999999930E-01  9.1999999999930E-01  9.1999999999930E-01  9.1999999999930E-01  9.1999999999930E-01  9.1999999999930E-01  9.1999999999930E-01  9.1999999999971E-01 
 4.0000000000351E-02  4.0000000000348E-02  4.0000000000348E-02  4.0000000000348E-02  4.0000000000348E-02  4.0000000000348E-02  4.0000000000348E-02  4.0000000000348E-02  4.0000000000348E-02  4.0000000000144E-02 
 4.0000000000351E-02  4.0000000000348E-02  4.0000000000348E-02  4.0000000000348E-02  4.0000000000348E-02  4.0000000000348E-02  4.0000000000348E-02  4.0000000000348E-02  4.0000000000348E-02  4.0000000000144E-02 
 2.9188394929895E-02  2.9188379067930E-02  2.9188331793863E-02  2.9188253110275E-02  2.9188143016963E-02  2.9188001513635E-02  2.9187828599914E-02  2.9187624275333E-02  2.9187388539340E-02  2.9187121391297E-02 
 0.0000000000000E+00 -4.7304449692609E-09 -8.9043259742475E-09 -1.2521709934902E-08 -1.5582594107544E-08 -1.8086973332747E-08 -2.0034840909229E-08 -2.1426188586560E-08 -2.2261006581515E-08 -2.2539283580893E-08 
 2.9819800365462E+02  2.9815060807001E+02  2.9815000618553E+02  2.9814999853967E+02  2.9814999852023E+02  2.9814999850300E+02  2.9814999855098E+02  2.9814999852135E+02  2.9814999838891E+02  2.9814999955179E+02 
-2.9188394929895E-02 -2.9188383798375E-02 -2.9188340698189E-02 -2.9188265631985E-02 -2.9188158599557E-02 -2.9188019600608E-02 -2.9187848634755E-02 -2.9187645701521E-02 -2.9187410800347E-02 -2.9187143930581E-02 
-4.0940234676243E-02 -4.0907137368347E-02 -4.0906717072440E-02 -4.0906711733342E-02 -4.0906711719766E-02 -4.0906711707738E-02 -4.0906711741245E-02 -4.0906711720545E-02 -4.0906711628071E-02 -4.0906712440236E-02 
 1.1751839746349E-02  1.1718753569972E-02  1.1718376374251E-02  1.1718446101358E-02  1.1718553120209E-02  1.1718692107129E-02  1.1718863106491E-02  1.1719066019024E-02  1.1719300827724E-02  1.1719568509655E-02 
 1.6825617982624E+00  3.3324374554618E+00  3.3320366306828E+00  3.3320530941011E+00  3.3320840404090E+00  3.3321242347348E+00  3.3321737204561E+00  3.3322323996648E+00  3.3323002552544E+00  1.6661891237418E+00 
 8.7226476473674E-09  2.5998555398251E-08  4.3272387116799E-08  6.0546304008873E-08  7.7820381054984E-08  9.5094666111089E-08  1.1236920726144E-07  1.2964405208553E-07  1.4691932009278E-07  1.4691932009278E-07 
 0.0000000000000E+00  3.3500868404660E+00  6.6836301941969E+00  1.0016981344270E+01  1.3350356163550E+01  1.6683766505110E+01  2.0017221625989E+01  2.3350730756205E+01  2.6684303068873E+01  3.0017295290144E+01 
 3.0017295052897E+01  2.6667861367388E+01  2.3334318013650E+01  2.0000966863531E+01  1.6667592044135E+01  1.3334181702705E+01  1.0000726581898E+01  6.6672174515007E+00  3.3336451387188E+00  0.0000000000000E+00 
 1.6825617982624E-08  3.3324374554618E-08  3.3320366306828E-08  3.3320530941011E-08  3.3320840404090E-08  3.3321242347348E-08  3.3321737204561E-08  3.3322323996648E-08  3.3323002552544E-08  1.6661891237418E-08 
 4.5724222271657E+04  9.1448444543314E+04  9.1448444543314E+04  9.1448444543314E+04  9.1448444543314E+04  9.1448444543315E+04  9.1448444543315E+04  9.1448444543314E+04  9.1448444543314E+04  4.5724222271657E+04 
 3.3835924481012E+05  6.7671848962025E+05  6.7671848962025E+05  6.7671848962025E+05  6.7671848962025E+05  6.7671848962025E+05  6.7671848962025E+05  6.7671848962025E+05  6.7671848962025E+05  3.3835924481012E+05 
 3.8408346708178E+05  7.6816693416356E+05  7.6816693416356E+05  7.6816693416356E+05  7.6816693416356E+05  7.6816693416356E+05  7.6816693416356E+05  7.6816693416356E+05  7.6816693416356E+05  3.8408346708178E+05 
 3.5000000000000E-01  3.5000000000000E-01  3.5000000000000E-01  3.5000000000000E-01  3.5000000000000E-01  3.5000000000000E-01  3.5000000000000E-01  3.5000000000000E-01  3.5000000000000E-01  3.5000000000000E-01 
 8.5301666666667E+00  1.7060333333333E+01  1.7060333333333E+01  1.7060333333333E+01  1.7060333333333E+01  1.7060333333333E+01  1.7060333333333E+01  1.7060333333333E+01  1.7060333333333E+01  8.5301666666667E+00 
 1.9724840838542E-01  1.9533249382359E-01  1.9530899927802E-01  1.9530996428955E-01  1.9531177822292E-01  1.9531413423349E-01  1.9531703486388E-01  1.9532047437515E-01  1.9532445176458E-01  1.9532902331824E-01 
 4.3744444444444E-05  8.7488888888889E-05  8.7488888888889E-05  8.7488888888889E-05  8.7488888888889E-05  8.7488888888889E-05  8.7488888888889E-05  8.7488888888889E-05  8.7488888888889E-05  4.3744444444444E-05 
 8.6666666666663E+01  8.6666666666663E+01  8.6666666666663E+01  8.6666666666663E+01  8.6666666666663E+01  8.6666666666663E+01  8.6666666666663E+01  8.6666666666663E+01  8.6666666666663E+01  8.6666666666663E+01 
 2.1666666666671E+01  2.1666666666671E+01  2.1666666666671E+01  2.1666666666671E+01  2.1666666666671E+01  2.1666666666671E+01  2.1666666666671E+01  2.1666666666671E+01  2.1666666666671E+01  2.1666666666671E+01 
-7.5577557844032E-05 -7.4838834831345E-05 -7.4829725465855E-05 -7.4830008662467E-05 -7.4830581318195E-05 -7.4831325127175E-05 -7.4832241067487E-05 -7.4833326923755E-05 -7.4834582306152E-05 -7.4836136690999E-05 
-7.5577557844032E+03 -7.4838834831345E+03 -7.4829725465855E+03 -7.4830008662467E+03 -7.4830581318195E+03 -7.4831325127175E+03 -7.4832241067487E+03 -7.4833326923755E+03 -7.4834582306152E+03 -7.4836136690999E+03 
 3.0517127637988E-04  1.5080265746102E-03  5.1103846151499E-03  1.1106122525245E-02  1.9495365131865E-02  3.0278203773439E-02  4.3454754844342E-02  5.9025161203475E-02  7.6989592001909E-02  8.6570336309373E-02 
 1.5320333596871E-03  1.3623847239592E-03  1.0443117663428E-03  7.6866518845196E-04  5.3542264173317E-04  3.4458440969905E-04  1.9615149487473E-04  9.0125371132446E-05  2.6507983076639E-05  5.3017452564632E-06 
-7.5577576216078E+03 -7.4838863535458E+03 -7.4829787012819E+03 -7.4830127410344E+03 -7.4830781626073E+03 -7.4831631355057E+03 -7.4832677576550E+03 -7.4833918076621E+03 -7.4835352467152E+03 -7.4837002447380E+03 
 4.5201617869439E+02  4.4636540507724E+02  4.4629735075803E+02  4.4630221147761E+02  4.4631043238951E+02  4.4632110964280E+02  4.4633425082592E+02  4.4634983915204E+02  4.4636787181020E+02  4.4638851479045E+02 
-8.0097738003022E+03 -7.9302517586230E+03 -7.9292760520399E+03 -7.9293149525120E+03 -7.9293885949968E+03 -7.9294842451485E+03 -7.9296020084810E+03 -7.9297416468142E+03 -7.9299031185254E+03 -7.9300887595284E+03 
ZONE T = "ANOD, 2.0000E-08", I = 10, SOLUTIONTIME = 2.000000E-08
ZONETYPE = ORDERED
DATAPACKING = BLOCK
STRANDID = 1
 0.0000000000000E+00  8.7488888888889E-05  1.7497777777778E-04  2.6246666666667E-04  3.4995555555556E-04  4.3744444444444E-04  5.2493333333333E-04  6.1242222222222E-04  6.9991111111111E-04  7.8740000000000E-04 
 1.1806714168662E-09  3.4966104756831E-09  5.8117157811235E-09  8.1268219530173E-09  1.0441949488977E-08  1.2757831483635E-08  1.5073747841710E-08  1.7390794645448E-08  1.9705709356252E-08  2.0863738902744E-08 
 9.1999999999859E-01  9.1999999999861E-01  9.1999999999861E-01  9.1999999999861E-01  9.1999999999861E-01  9.1999999999861E-01  9.1999999999861E-01  9.1999999999861E-01  9.1999999999861E-01  9.1999999999942E-01 
 4.0000000000706E-02  4.0000000000696E-02  4.0000000000696E-02  4.0000000000696E-02  4.0000000000696E-02  4.0000000000696E-02  4.0000000000696E-02  4.0000000000696E-02  4.0000000000696E-02  4.0000000000288E-02 
 4.0000000000706E-02  4.0000000000696E-02  4.0000000000696E-02  4.0000000000696E-02  4.0000000000696E-02  4.0000000000696E-02  4.0000000000696E-02  4.0000000000696E-02  4.0000000000696E-02  4.0000000000288E-02 
 2.9178320949511E-02  2.9178304925628E-02  2.9178257467862E-02  2.9178178585221E-02  2.9178068277557E-02  2.9177926544576E-02  2.9177753385898E-02  2.9177548801056E-02  2.9177312789497E-02  2.9177045350578E-02 
 0.0000000000000E+00 -4.7328884359979E-09 -8.9088057153760E-09 -1.2527952288561E-08 -1.5590327947240E-08 -1.8095927555080E-08 -2.0044744369943E-08 -2.1436770130198E-08 -2.2271995021334E-08 -2.2550407706753E-08 
 2.9824461142212E+02  2.9815179261041E+02  2.9815002712563E+02  2.9814999725432E+02  2.9814999688089E+02  2.9814999704222E+02  2.9814999698572E+02  2.9814999700107E+02  2.9814999682088E+02  2.9814999911574E+02 
-2.9178320949511E-02 -2.9178309658517E-02 -2.9178266376667E-02 -2.9178191113173E-02 -2.9178083867885E-02 -2.9177944640504E-02 -2.9177773430643E-02 -2.9177570237826E-02 -2.9177335061492E-02 -2.9177067900986E-02 
-4.0972783710109E-02 -4.0907964533450E-02 -4.0906731694609E-02 -4.0906710835484E-02 -4.0906710574714E-02 -4.0906710687373E-02 -4.0906710647921E-02 -4.0906710658639E-02 -4.0906710532811E-02 -4.0906712135570E-02 
 1.1794462760597E-02  1.1729654874933E-02  1.1728465317942E-02  1.1728519722311E-02  1.1728626706829E-02  1.1728766046869E-02  1.1728937217279E-02  1.1729140420813E-02  1.1729375471319E-02  1.1729644234584E-02 
 1.7002523811408E+00  3.3361658018252E+00  3.3349651306603E+00  3.3349663785682E+00  3.3349971445813E+00  3.3350375294194E+00  3.3350870161250E+00  3.3351458038856E+00  3.3352137091681E+00  1.6676462836026E+00 
 8.8109843024841E-09  2.6099529093667E-08  4.3381855313456E-08  6.0664188048801E-08  7.7946680228395E-08  9.5229381677234E-08  1.1251233957706E-07  1.2979560211608E-07  1.4707936061258E-07  1.4707936061258E-07 
 0.0000000000000E+00  3.3683522801840E+00  6.7039347467395E+00  1.0038917501681E+01  1.3373916263482E+01  1.6708950600360E+01  2.0044029872563E+01  2.3379163281741E+01  2.6714360036771E+01  3.0049621673988E+01 
 3.0049621675019E+01  2.6681277892763E+01  2.3345695426167E+01  2.0010712671325E+01  1.6675713909624E+01  1.3340679572693E+01  1.0005600300482E+01  6.6704668914303E+00  3.3352701362185E+00  0.0000000000000E+00 
 3.3828141794031E-08  6.6686032572870E-08  6.6670017613430E-08  6.6670194726693E-08  6.6670811849904E-08  6.6671617641542E-08  6.6672607365811E-08  6.6673782035504E-08  6.6675139644224E-08  3.3338354073444E-08 
 4.5724222271674E+04  9.1448444543348E+04  9.1448444543348E+04  9.1448444543348E+04  9.1448444543348E+04  9.1448444543348E+04  9.1448444543348E+04  9.1448444543348E+04  9.1448444543348E+04  4.5724222271674E+04 
 3.3835924481011E+05  6.7671848962021E+05  6.7671848962021E+05  6.7671848962021E+05  6.7671848962021E+05  6.7671848962021E+05  6.7671848962021E+05  6.7671848962021E+05  6.7671848962021E+05  3.3835924481011E+05 
 3.8408346708178E+05  7.6816693416356E+05  7.6816693416356E+05  7.6816693416356E+05  7.6816693416356E+05  7.6816693416356E+05  7.6816693416356E+05  7.6816693416356E+05  7.6816693416356E+05  3.8408346708178E+05 
 3.5000000000000E-01  3.5000000000000E-01  3.5000000000000E-01  3.5000000000000E-01  3.5000000000000E-01  3.5000000000000E-01  3.5000000000000E-01  3.5000000000000E-01  3.5000000000000E-01  3.5000000000000E-01 
 8.5301666666667E+00  1.7060333333333E+01  1.7060333333333E+01  1.7060333333333E+01  1.7060333333333E+01  1.7060333333333E+01  1.7060333333333E+01  1.7060333333333E+01  1.7060333333333E+01  8.5301666666667E+00 
 1.9932229317217E-01  1.9555103271674E-01  1.9548065477386E-01  1.9548072792060E-01  1.9548253128591E-01  1.9548489846346E-01  1.9548779915154E-01  1.9549124502563E-01  1.9549522532784E-01  1.9549984763126E-01 
 4.3744444444444E-05  8.7488888888889E-05  8.7488888888889E-05  8.7488888888889E-05  8.7488888888889E-05  8.7488888888889E-05  8.7488888888889E-05  8.7488888888889E-05  8.7488888888889E-05  4.3744444444444E-05 
 8.6666666666659E+01  8.6666666666659E+01  8.6666666666659E+01  8.6666666666659E+01  8.6666666666659E+01  8.6666666666659E+01  8.6666666666659E+01  8.6666666666659E+01  8.6666666666659E+01  8.6666666666659E+01 
 2.1666666666675E+01  2.1666666666675E+01  2.1666666666675E+01  2.1666666666675E+01  2.1666666666675E+01  2.1666666666675E+01  2.1666666666675E+01  2.1666666666675E+01  2.1666666666675E+01  2.1666666666675E+01 
-1.5195045243253E-04 -1.4975767334890E-04 -1.4972137975299E-04 -1.4972160199829E-04 -1.4972274287209E-04 -1.4972423438025E-04 -1.4972606581638E-04 -1.4972823946361E-04 -1.4973075078138E-04 -1.4973387866025E-04 
-7.6372894588496E+03 -7.4918838517550E+03 -7.4891654287138E+03 -7.4891593335828E+03 -7.4892161553896E+03 -7.4892909253079E+03 -7.4893824748890E+03 -7.4894912539852E+03 -7.4896168475228E+03 -7.4897741969246E+03 
 6.1657974669773E-04  3.0297235244070E-03  1.0250343279003E-02  2.2259920736908E-02  3.9058834601259E-02  6.0647273769998E-02  8.7025471437974E-02  1.1819371367007E-01  1.5415233941866E-01  1.7332929381772E-01 
 3.0656498429097E-03  2.7261430412277E-03  2.0896422021874E-03  1.5380796487996E-03  1.0713672159175E-03  6.8950473862794E-04  3.9249421879496E-04  1.8033861251166E-04  5.3041813795268E-05  1.0608661965850E-05 
-7.6372913038746E+03 -7.4918867372103E+03 -7.4891716140029E+03 -7.4891712567955E+03 -7.4892362548037E+03 -7.4893216392982E+03 -7.4894262419483E+03 -7.4895505127509E+03 -7.4896940368040E+03 -7.4898609611890E+03 
 4.5842537602318E+02  4.4728049422833E+02  4.4707417557806E+02  4.4707641669446E+02  4.4708461925442E+02  4.4709534476442E+02  4.4710850399204E+02  4.4712413147781E+02  4.4714219564900E+02  4.4716301382639E+02 
-8.0957166798977E+03 -7.9391672314386E+03 -7.9362457895809E+03 -7.9362476734899E+03 -7.9363208740581E+03 -7.9364169840626E+03 -7.9365347459403E+03 -7.9366746442287E+03 -7.9368362324530E+03 -7.9370239750154E+03 
ZONE T = "ANOD, 3.0000E-08", I = 10, SOLUTIONTIME = 3.000000E-08
ZONETYPE = ORDERED
DATAPACKING = BLOCK
STRANDID = 1
 0.0000000000000E+00  8.7488888888889E-05  1.7497777777778E-04  2.6246666666667E-04  3.4995555555556E-04  4.3744444444444E-04  5.2493333333333E-04  6.1242222222222E-04  6.9991111111111E-04  7.8740000000000E-04 
 1.1911903049259E-09  3.5076702142077E-09  5.8225116125705E-09  8.1373333062599E-09  1.0451086423964E-08  1.2764867564276E-08  1.5080499042830E-08  1.7395808270467E-08  1.9711164669811E-08  2.0867962440493E-08 
 9.1999999999787E-01  9.1999999999791E-01  9.1999999999791E-01  9.1999999999791E-01  9.1999999999791E-01  9.1999999999791E-01  9.1999999999791E-01  9.1999999999791E-01  9.1999999999791E-01  9.1999999999914E-01 
 4.0000000001064E-02  4.0000000001044E-02  4.0000000001043E-02  4.0000000001043E-02  4.0000000001043E-02  4.0000000001043E-02  4.0000000001043E-02  4.0000000001043E-02  4.0000000001043E-02  4.0000000000432E-02 
 4.0000000001064E-02  4.0000000001044E-02  4.0000000001043E-02  4.0000000001043E-02  4.0000000001043E-02  4.0000000001043E-02  4.0000000001043E-02  4.0000000001043E-02  4.0000000001043E-02  4.0000000000432E-02 
 2.9183205749049E-02  2.9183189581131E-02  2.9183141983003E-02  2.9183062973575E-02  2.9182952552848E-02  2.9182810720526E-02  2.9182637476229E-02  2.9182432819491E-02  2.9182196749757E-02  2.9181929266384E-02 
 0.0000000000000E+00 -4.7310256234751E-09 -8.9051247037409E-09 -1.2522691170491E-08 -1.5583729761111E-08 -1.8088235415446E-08 -2.0036201396321E-08 -2.1427619457448E-08 -2.2262479752017E-08 -2.2540770939039E-08 
 2.9828987866523E+02  2.9815352217288E+02  2.9815006963957E+02  2.9814999657560E+02  2.9814999548917E+02  2.9814999556496E+02  2.9814999533829E+02  2.9814999560503E+02  2.9814999543826E+02  2.9814999859944E+02 
-2.9183205749049E-02 -2.9183194312157E-02 -2.9183150888128E-02 -2.9183075496267E-02 -2.9182968136578E-02 -2.9182828808762E-02 -2.9182657512430E-02 -2.9182454247110E-02 -2.9182219012236E-02 -2.9181951807155E-02 
-4.1004398354115E-02 -4.0909172290010E-02 -4.0906761381789E-02 -4.0906710361241E-02 -4.0906709602583E-02 -4.0906709655507E-02 -4.0906709497224E-02 -4.0906709683491E-02 -4.0906709567031E-02 -4.0906711774872E-02 
 1.1821192605067E-02  1.1725977977853E-02  1.1723610493661E-02  1.1723634864974E-02  1.1723741466005E-02  1.1723880846746E-02  1.1724051984793E-02  1.1724255436380E-02  1.1724490554794E-02  1.1724759967717E-02 
 1.7154216219246E+00  3.3359409965700E+00  3.3335814101934E+00  3.3335530339541E+00  3.3335833427433E+00  3.3336236969770E+00  3.3336730907544E+00  3.3337320708933E+00  3.3338000008982E+00  1.6669397323942E+00 
 8.8894869639872E-09  2.6176643530414E-08  4.3451579198858E-08  6.0726367953714E-08  7.8001313779797E-08  9.5276468730384E-08  1.1255187964869E-07  1.2982759621545E-07  1.4710388089511E-07  1.4710388089511E-07 
 0.0000000000000E+00  3.3833667026222E+00  6.7181024834366E+00  1.0051644283118E+01  1.3385187049184E+01  1.6718765147484E+01  2.0052388120213E+01  2.3386065280734E+01  2.6719805897343E+01  3.0053632920604E+01 
 3.0053632917712E+01  2.6670253508855E+01  2.3335517728106E+01  2.0001975928620E+01  1.6668433162462E+01  1.3334855064091E+01  1.0001232091246E+01  6.6675549307858E+00  3.3338143142830E+00  0.0000000000000E+00 
 5.0982358013277E-08  1.0004544253857E-07  1.0000583171536E-07  1.0000572506623E-07  1.0000664527734E-07  1.0000785461131E-07  1.0000933827335E-07  1.0001110274444E-07  1.0001313965321E-07  5.0007751397386E-08 
 4.5724222271692E+04  9.1448444543381E+04  9.1448444543381E+04  9.1448444543381E+04  9.1448444543381E+04  9.1448444543381E+04  9.1448444543381E+04  9.1448444543381E+04  9.1448444543381E+04  4.5724222271691E+04 
 3.3835924481009E+05  6.7671848962018E+05  6.7671848962018E+05  6.7671848962018E+05  6.7671848962018E+05  6.7671848962018E+05  6.7671848962018E+05  6.7671848962018E+05  6.7671848962018E+05  3.3835924481009E+05 
 3.8408346708178E+05  7.6816693416356E+05  7.6816693416356E+05  7.6816693416356E+05  7.6816693416356E+05  7.6816693416356E+05  7.6816693416356E+05  7.6816693416356E+05  7.6816693416356E+05  3.8408346708178E+05 
 3.5000000000000E-01  3.5000000000000E-01  3.5000000000000E-01  3.5000000000000E-01  3.5000000000000E-01  3.5000000000000E-01  3.5000000000000E-01  3.5000000000000E-01  3.5000000000000E-01  3.5000000000000E-01 
 8.5301666666667E+00  1.7060333333333E+01  1.7060333333333E+01  1.7060333333333E+01  1.7060333333333E+01  1.7060333333333E+01  1.7060333333333E+01  1.7060333333333E+01  1.7060333333333E+01  8.5301666666667E+00 
 2.0110059849451E-01  1.9553785564389E-01  1.9539954730428E-01  1.9539788401677E-01  1.9539966058166E-01  1.9540202596532E-01  1.9540492120637E-01  1.9540837835681E-01  1.9541236010814E-01  1.9541701792394E-01 
 4.3744444444444E-05  8.7488888888889E-05  8.7488888888889E-05  8.7488888888889E-05  8.7488888888889E-05  8.7488888888889E-05  8.7488888888889E-05  8.7488888888889E-05  8.7488888888889E-05  4.3744444444444E-05 
 8.6666666666655E+01  8.6666666666655E+01  8.6666666666655E+01  8.6666666666655E+01  8.6666666666655E+01  8.6666666666655E+01  8.6666666666655E+01  8.6666666666655E+01  8.6666666666655E+01  8.6666666666655E+01 
 2.1666666666679E+01  2.1666666666679E+01  2.1666666666679E+01  2.1666666666679E+01  2.1666666666679E+01  2.1666666666679E+01  2.1666666666679E+01  2.1666666666679E+01  2.1666666666679E+01  2.1666666666679E+01 
-2.2901117442645E-04 -2.2467349424727E-04 -2.2458382557422E-04 -2.2458331728811E-04 -2.2458501598218E-04 -2.2458725447049E-04 -2.2458999931244E-04 -2.2459326514573E-04 -2.2459703304265E-04 -2.2460174819767E-04 
-7.7060721993921E+03 -7.4915820898372E+03 -7.4862445821224E+03 -7.4861715289814E+03 -7.4862273110084E+03 -7.4863020090241E+03 -7.4863933496060E+03 -7.4865025682127E+03 -7.4866282261274E+03 -7.4867869537424E+03 
 9.3358674071471E-04  4.5623077400047E-03  1.5410531095952E-02  3.3440996264932E-02  5.8654525413999E-02  9.1051417206531E-02  1.3063202153919E-01  1.7739676815902E-01  2.3134616619400E-01  2.6011709648604E-01 
 4.5980593347492E-03  4.0887781504931E-03  3.1340614886696E-03  2.3068223990127E-03  1.6068438966636E-03  1.0341239499715E-03  5.8866554191799E-04  2.7047310611501E-04  7.9552484888163E-05  1.5910947843275E-05 
-7.7060740488086E+03 -7.4915849850566E+03 -7.4862507867295E+03 -7.4861834787997E+03 -7.4862474421759E+03 -7.4863327577867E+03 -7.4864371523274E+03 -7.4865618614016E+03 -7.4867054464649E+03 -7.4868737468473E+03 
 4.6356353702960E+02  4.4711015488631E+02  4.4670369573895E+02  4.4670082190075E+02  4.4670894513340E+02  4.4671966358638E+02  4.4673280359855E+02  4.4674845975001E+02  4.4676652223221E+02  4.4678743761273E+02 
-8.1696375858382E+03 -7.9386951399429E+03 -7.9329544824684E+03 -7.9328843007004E+03 -7.9329563873093E+03 -7.9330524213731E+03 -7.9331699559260E+03 -7.9333103211516E+03 -7.9334719686971E+03 -7.9336611844600E+03 
ZONE T = "ANOD, 4.0000E-08", I = 10, SOLUTIONTIME = 4.000000E-08
ZONETYPE = ORDERED
DATAPACKING = BLOCK
STRANDID = 1
 0.0000000000000E+00  8.7488888888889E-05  1.7497777777778E-04  2.6246666666667E-04  3.4995555555556E-04  4.3744444444444E-04  5.2493333333333E-04  6.1242222222222E-04  6.9991111111111E-04  7.8740000000000E-04 
 1.2014166902437E-09  3.5178402201561E-09  5.8304982523324E-09  8.1431034121689E-09  1.0456818369777E-08  1.2770924628931E-08  1.5084701909835E-08  1.7398520186729E-08  1.9712385587194E-08  2.0868982953359E-08 
 9.1999999999715E-01  9.1999999999722E-01  9.1999999999722E-01  9.1999999999722E-01  9.1999999999722E-01  9.1999999999722E-01  9.1999999999722E-01  9.1999999999722E-01  9.1999999999722E-01  9.1999999999885E-01 
 4.0000000001425E-02  4.0000000001392E-02  4.0000000001391E-02  4.0000000001391E-02  4.0000000001391E-02  4.0000000001391E-02  4.0000000001391E-02  4.0000000001391E-02  4.0000000001391E-02  4.0000000000576E-02 
 4.0000000001425E-02  4.0000000001392E-02  4.0000000001391E-02  4.0000000001391E-02  4.0000000001391E-02  4.0000000001391E-02  4.0000000001391E-02  4.0000000001391E-02  4.0000000001391E-02  4.0000000000576E-02 
 2.9188900510672E-02  2.9188884202689E-02  2.9188836466371E-02  2.9188757333773E-02  2.9188646805176E-02  2.9188504880288E-02  2.9188331558728E-02  2.9188126840032E-02  2.9187890723641E-02  2.9187623208917E-02 
 0.0000000000000E+00 -4.7289869981218E-09 -8.9010610077243E-09 -1.2516865360769E-08 -1.5576412768790E-08 -1.8079698381424E-08 -2.0026715444375E-08 -2.1417455728216E-08 -2.2251909376717E-08 -2.2530065060462E-08 