TITLE = "Solution on Domain BulkDomain1D_0"
VARIABLES = "x [m]"  
"Vel_axial" 
"MF_sp(ECDMC)" 
"MF_sp(Li+)" 
"MF_sp(PF6-)" 
"Volt(Electroly)" 
"Volt(AnodeVolt)" 
"Temperature" 
"Potential Drop Electrode-Electrolyte [V]" 
"Surf_0 Equilibrium Potential Drop Electrode-Electrolyte [V]" 
"Overpotential_0 [V]" 
"Current Source [A/m^2]" 
"Li+ flux [kmol/m^2/s]" 
"Electrolyte Current [A/m^2]" 
"Electrode Current [A/m^2]" 
"CV Capacity discharged [A-s/m^2]" 
"Depth of discharge in CV [A-s/m^2]" 
"CV Capacity remaining [A-s/m^2]" 
"Initial CV capacity [A-s/m^2]" 
"Porosity []" 
"Surface Area [m2/m2] (area per area)" 
"Specific current (per particle area) [A/m^2]" 
"Control volume thickness [m]" 
"MoleDens Li_C6-bulk [kmol/m^3]" 
"MoleDens V_C6-bulk [kmol/m^3]" 
"qHeat_accum [J/m3]" 
"qHeat_step [W/m3]" 
"Joule_Lyte [W/m3]" 
"Joule_Solid [W/m3]" 
"electrodHeat [W/m3]" 
"OverpotHeat [W/m3]" 
"deltaSHeat [W/m3]" 

ZONE T = "ANOD, 0.0000E+00", I = 10, SOLUTIONTIME = 0.000000E+00
ZONETYPE = ORDERED
DATAPACKING = BLOCK
STRANDID = 1
 0.0000000000000E+00  8.7488888888889E-05  1.7497777777778E-04  2.6246666666667E-04  3.4995555555556E-04  4.3744444444444E-04  5.2493333333333E-04  6.1242222222222E-04  6.9991111111111E-04  7.8740000000000E-04 
 0.0000000000000E+00  0.0000000000000E+00  0.0000000000000E+00  0.0000000000000E+00  0.0000000000000E+00  0.0000000000000E+00  0.0000000000000E+00  0.0000000000000E+00  0.0000000000000E+00  0.0000000000000E+00 
 9.2000000000000E-01  9.2000000000000E-01  9.2000000000000E-01  9.2000000000000E-01  9.2000000000000E-01  9.2000000000000E-01  9.2000000000000E-01  9.2000000000000E-01  9.2000000000000E-01  9.2000000000000E-01 
 4.0000000000000E-02  4.0000000000000E-02  4.0000000000000E-02  4.0000000000000E-02  4.0000000000000E-02  4.0000000000000E-02  4.0000000000000E-02  4.0000000000000E-02  4.0000000000000E-02  4.0000000000000E-02 
 4.0000000000000E-02  4.0000000000000E-02  4.0000000000000E-02  4.0000000000000E-02  4.0000000000000E-02  4.0000000000000E-02  4.0000000000000E-02  4.0000000000000E-02  4.0000000000000E-02  4.0000000000000E-02 
-7.0000000000000E-02 -7.0000000000000E-02 -7.0000000000000E-02 -7.0000000000000E-02 -7.0000000000000E-02 -7.0000000000000E-02 -7.0000000000000E-02 -7.0000000000000E-02 -7.0000000000000E-02 -7.0000000000000E-02 
 0.0000000000000E+00  0.0000000000000E+00  0.0000000000000E+00  0.0000000000000E+00  0.0000000000000E+00  0.0000000000000E+00  0.0000000000000E+00  0.0000000000000E+00  0.0000000000000E+00  0.0000000000000E+00 
 2.9815000000000E+02  2.9815000000000E+02  2.9815000000000E+02  2.9815000000000E+02  2.9815000000000E+02  2.9815000000000E+02  2.9815000000000E+02  2.9815000000000E+02  2.9815000000000E+02  2.9815000000000E+02 
 7.0000000000000E-02  7.0000000000000E-02  7.0000000000000E-02  7.0000000000000E-02  7.0000000000000E-02  7.0000000000000E-02  7.0000000000000E-02  7.0000000000000E-02  7.0000000000000E-02  7.0000000000000E-02 
-4.0906712753391E-02 -4.0906712753391E-02 -4.0906712753391E-02 -4.0906712753391E-02 -4.0906712753391E-02 -4.0906712753391E-02 -4.0906712753391E-02 -4.0906712753391E-02 -4.0906712753391E-02 -4.0906712753391E-02 
 1.1090671275339E-01  1.1090671275339E-01  1.1090671275339E-01  1.1090671275339E-01  1.1090671275339E-01  1.1090671275339E-01  1.1090671275339E-01  1.1090671275339E-01  1.1090671275339E-01  1.1090671275339E-01 
 3.0930240924008E+01  6.1860481848017E+01  6.1860481848017E+01  6.1860481848017E+01  6.1860481848017E+01  6.1860481848017E+01  6.1860481848017E+01  6.1860481848017E+01  6.1860481848017E+01  3.0930240924008E+01 
-0.0000000000000E+00 -0.0000000000000E+00 -0.0000000000000E+00 -0.0000000000000E+00 -0.0000000000000E+00 -0.0000000000000E+00 -0.0000000000000E+00 -0.0000000000000E+00 -0.0000000000000E+00 -0.0000000000000E+00 
 0.0000000000000E+00  0.0000000000000E+00  0.0000000000000E+00  0.0000000000000E+00  0.0000000000000E+00  0.0000000000000E+00  0.0000000000000E+00  0.0000000000000E+00  0.0000000000000E+00  3.0930240924008E+01 
 3.0930240924008E+01 -0.0000000000000E+00 -0.0000000000000E+00 -0.0000000000000E+00 -0.0000000000000E+00 -0.0000000000000E+00 -0.0000000000000E+00 -0.0000000000000E+00 -0.0000000000000E+00  0.0000000000000E+00 
 0.0000000000000E+00  0.0000000000000E+00  0.0000000000000E+00  0.0000000000000E+00  0.0000000000000E+00  0.0000000000000E+00  0.0000000000000E+00  0.0000000000000E+00  0.0000000000000E+00  0.0000000000000E+00 
 4.5724222271641E+04  9.1448444543281E+04  9.1448444543281E+04  9.1448444543281E+04  9.1448444543281E+04  9.1448444543281E+04  9.1448444543281E+04  9.1448444543281E+04  9.1448444543281E+04  4.5724222271641E+04 
 3.3835924481014E+05  6.7671848962028E+05  6.7671848962028E+05  6.7671848962028E+05  6.7671848962028E+05  6.7671848962028E+05  6.7671848962028E+05  6.7671848962028E+05  6.7671848962028E+05  3.3835924481014E+05 
 3.8408346708178E+05  7.6816693416356E+05  7.6816693416356E+05  7.6816693416356E+05  7.6816693416356E+05  7.6816693416356E+05  7.6816693416356E+05  7.6816693416356E+05  7.6816693416356E+05  3.8408346708178E+05 
 3.5000000000000E-01  3.5000000000000E-01  3.5000000000000E-01  3.5000000000000E-01  3.5000000000000E-01  3.5000000000000E-01  3.5000000000000E-01  3.5000000000000E-01  3.5000000000000E-01  3.5000000000000E-01 
 8.5301666666667E+00  1.7060333333333E+01  1.7060333333333E+01  1.7060333333333E+01  1.7060333333333E+01  1.7060333333333E+01  1.7060333333333E+01  1.7060333333333E+01  1.7060333333333E+01  8.5301666666667E+00 
 3.6259831879809E+00  3.6259831879809E+00  3.6259831879809E+00  3.6259831879809E+00  3.6259831879809E+00  3.6259831879809E+00  3.6259831879809E+00  3.6259831879809E+00  3.6259831879809E+00  3.6259831879809E+00 
 4.3744444444444E-05  8.7488888888889E-05  8.7488888888889E-05  8.7488888888889E-05  8.7488888888889E-05  8.7488888888889E-05  8.7488888888889E-05  8.7488888888889E-05  8.7488888888889E-05  4.3744444444444E-05 
 8.6666666666667E+01  8.6666666666667E+01  8.6666666666667E+01  8.6666666666667E+01  8.6666666666667E+01  8.6666666666667E+01  8.6666666666667E+01  8.6666666666667E+01  8.6666666666667E+01  8.6666666666667E+01 
 2.1666666666667E+01  2.1666666666667E+01  2.1666666666667E+01  2.1666666666667E+01  2.1666666666667E+01  2.1666666666667E+01  2.1666666666667E+01  2.1666666666667E+01  2.1666666666667E+01  2.1666666666667E+01 
 0.0000000000000E+00  0.0000000000000E+00  0.0000000000000E+00  0.0000000000000E+00  0.0000000000000E+00  0.0000000000000E+00  0.0000000000000E+00  0.0000000000000E+00  0.0000000000000E+00  0.0000000000000E+00 
 0.0000000000000E+00  0.0000000000000E+00  0.0000000000000E+00  0.0000000000000E+00  0.0000000000000E+00  0.0000000000000E+00  0.0000000000000E+00  0.0000000000000E+00  0.0000000000000E+00  0.0000000000000E+00 
 0.0000000000000E+00  0.0000000000000E+00  0.0000000000000E+00  0.0000000000000E+00  0.0000000000000E+00  0.0000000000000E+00  0.0000000000000E+00  0.0000000000000E+00  0.0000000000000E+00  0.0000000000000E+00 
 0.0000000000000E+00  0.0000000000000E+00  0.0000000000000E+00  0.0000000000000E+00  0.0000000000000E+00  0.0000000000000E+00  0.0000000000000E+00  0.0000000000000E+00  0.0000000000000E+00  0.0000000000000E+00 
 0.0000000000000E+00  0.0000000000000E+00  0.0000000000000E+00  0.0000000000000E+00  0.0000000000000E+00  0.0000000000000E+00  0.0000000000000E+00  0.0000000000000E+00  0.0000000000000E+00  0.0000000000000E+00 
 0.0000000000000E+00  0.0000000000000E+00  0.0000000000000E+00  0.0000000000000E+00  0.0000000000000E+00  0.0000000000000E+00  0.0000000000000E+00  0.0000000000000E+00  0.0000000000000E+00  0.0000000000000E+00 
 0.0000000000000E+00  0.0000000000000E+00  0.0000000000000E+00  0.0000000000000E+00  0.0000000000000E+00  0.0000000000000E+00  0.0000000000000E+00  0.0000000000000E+00  0.0000000000000E+00  0.0000000000000E+00 
ZONE T = "ANOD, 1.0000E-08", I = 10, SOLUTIONTIME = 1.000000E-08
ZONETYPE = ORDERED
DATAPACKING = BLOCK
STRANDID = 1
 0.0000000000000E+00  8.7488888888889E-05  1.7497777777778E-04  2.6246666666667E-04  3.4995555555556E-04  4.3744444444444E-04  5.2493333333333E-04  6.1242222222222E-04  6.9991111111111E-04  7.8740000000000E-04 
 1.1699591013517E-09  3.4871577915834E-09  5.8040779046911E-09  8.1210094970200E-09  1.0437962521072E-08  1.2754943487335E-08  1.5071958846082E-08  1.7389015007483E-08  1.9705755203375E-08  2.0865060390223E-08 
 9.1999999999930E-01  9.1999999999930E-01  9.1999999999930E-01  9.1999999999930E-01  9.1999999999930E-01  9.1999999999930E-01  9.1999999999930E-01  9.1999999999930E-01  9.1999999999930E-01  9.1999999999971E-01 
 4.0000000000352E-02  4.0000000000348E-02  4.0000000000348E-02  4.0000000000348E-02  4.0000000000348E-02  4.0000000000348E-02  4.0000000000348E-02  4.0000000000348E-02  4.0000000000348E-02  4.0000000000144E-02 
 4.0000000000352E-02  4.0000000000348E-02  4.0000000000348E-02  4.0000000000348E-02  4.0000000000348E-02  4.0000000000348E-02  4.0000000000348E-02  4.0000000000348E-02  4.0000000000348E-02  4.0000000000144E-02 
 2.9172734770628E-02  2.9172718893405E-02  2.9172671573865E-02  2.9172592814589E-02  2.9172482615359E-02  2.9172340975910E-02  2.9172167895847E-02  2.9171963374720E-02  2.9171727411945E-02  2.9171460006906E-02 
 0.0000000000000E+00 -4.7349956953656E-09 -8.9128920386881E-09 -1.2533756005300E-08 -1.5597584835374E-08 -1.8104373376311E-08 -2.0054114910258E-08 -2.1446801168599E-08 -2.2282422341590E-08 -2.2560967071291E-08 
 2.9819800360481E+02  2.9815060807050E+02  2.9815000624641E+02  2.9814999867308E+02  2.9814999848760E+02  2.9814999847477E+02  2.9814999850824E+02  2.9814999850458E+02  2.9814999852847E+02  2.9814999954191E+02 
-2.9172734770628E-02 -2.9172723628401E-02 -2.9172680486757E-02 -2.9172605348345E-02 -2.9172498212944E-02 -2.9172359080283E-02 -2.9172187949962E-02 -2.9171984821521E-02 -2.9171749694368E-02 -2.9171482567873E-02 
-4.0940234641459E-02 -4.0907137368685E-02 -4.0906717114955E-02 -4.0906711826499E-02 -4.0906711696985E-02 -4.0906711688027E-02 -4.0906711711394E-02 -4.0906711708843E-02 -4.0906711725526E-02 -4.0906712433339E-02 
 1.1767499870831E-02  1.1734413740284E-02  1.1734036628199E-02  1.1734106478154E-02  1.1734213484042E-02  1.1734352607744E-02  1.1734523761432E-02  1.1734726887322E-02  1.1734962031158E-02  1.1735229865466E-02 
 1.6848429348171E+00  3.3369677983627E+00  3.3365666233561E+00  3.3365831538508E+00  3.3366140179363E+00  3.3366542567011E+00  3.3367037834342E+00  3.3367625409639E+00  3.3368305739239E+00  1.6684542718827E+00 
 8.7310383042956E-09  2.6023563661474E-08  4.3314011541818E-08  6.0604554237380E-08  7.7895241834562E-08  9.5186146360349E-08  1.1247729871093E-07  1.2976877172582E-07  1.4706065606541E-07  1.4706065606541E-07 
 0.0000000000000E+00  3.3533093460789E+00  6.6900592713234E+00  1.0026617783819E+01  1.3363199423952E+01  1.6699815975244E+01  2.0036477368709E+01  2.3373193612534E+01  2.6709973527439E+01  3.0046834122939E+01 
 3.0046834430723E+01  2.6693516158063E+01  2.3356766069023E+01  2.0020208301131E+01  1.6683626836049E+01  1.3347009819758E+01  1.0010347919994E+01  6.6736318767458E+00  3.3368524377024E+00  0.0000000000000E+00 
 1.6848429348171E-08  3.3369677983627E-08  3.3365666233561E-08  3.3365831538508E-08  3.3366140179363E-08  3.3366542567011E-08  3.3367037834342E-08  3.3367625409639E-08  3.3368305739239E-08  1.6684542718827E-08 
 4.5724222271657E+04  9.1448444543315E+04  9.1448444543315E+04  9.1448444543315E+04  9.1448444543315E+04  9.1448444543315E+04  9.1448444543315E+04  9.1448444543315E+04  9.1448444543315E+04  4.5724222271657E+04 
 3.3835924481012E+05  6.7671848962025E+05  6.7671848962025E+05  6.7671848962025E+05  6.7671848962025E+05  6.7671848962025E+05  6.7671848962025E+05  6.7671848962025E+05  6.7671848962025E+05  3.3835924481012E+05 
 3.8408346708178E+05  7.6816693416356E+05  7.6816693416356E+05  7.6816693416356E+05  7.6816693416356E+05  7.6816693416356E+05  7.6816693416356E+05  7.6816693416356E+05  7.6816693416356E+05  3.8408346708178E+05 
 3.5000000000000E-01  3.5000000000000E-01  3.5000000000000E-01  3.5000000000000E-01  3.5000000000000E-01  3.5000000000000E-01  3.5000000000000E-01  3.5000000000000E-01  3.5000000000000E-01  3.5000000000000E-01 
 8.5301666666667E+00  1.7060333333333E+01  1.7060333333333E+01  1.7060333333333E+01  1.7060333333333E+01  1.7060333333333E+01  1.7060333333333E+01  1.7060333333333E+01  1.7060333333333E+01  8.5301666666667E+00 
 1.9751582831329E-01  1.9559804214627E-01  1.9557452707193E-01  1.9557549601517E-01  1.9557730512903E-01  1.9557966374442E-01  1.9558256677874E-01  1.9558601088083E-01  1.9558999866692E-01  1.9559456890831E-01 
 4.3744444444444E-05  8.7488888888889E-05  8.7488888888889E-05  8.7488888888889E-05  8.7488888888889E-05  8.7488888888889E-05  8.7488888888889E-05  8.7488888888889E-05  8.7488888888889E-05  4.3744444444444E-05 
 8.6666666666663E+01  8.6666666666663E+01  8.6666666666663E+01  8.6666666666663E+01  8.6666666666663E+01  8.6666666666663E+01  8.6666666666663E+01  8.6666666666663E+01  8.6666666666663E+01  8.6666666666663E+01 
 2.1666666666671E+01  2.1666666666671E+01  2.1666666666671E+01  2.1666666666671E+01  2.1666666666671E+01  2.1666666666671E+01  2.1666666666671E+01  2.1666666666671E+01  2.1666666666671E+01  2.1666666666671E+01 
-7.5673990653109E-05 -7.4934602792407E-05 -7.4925486104695E-05 -7.4925770607619E-05 -7.4926341093725E-05 -7.4927085502260E-05 -7.4928001871537E-05 -7.4929088906837E-05 -7.4930347613530E-05 -7.4931900921527E-05 
-7.5673990653109E+03 -7.4934602792407E+03 -7.4925486104695E+03 -7.4925770607619E+03 -7.4926341093725E+03 -7.4927085502260E+03 -7.4928001871537E+03 -7.4929088906837E+03 -7.4930347613530E+03 -7.4931900921527E+03 
 3.0575867110410E-04  1.5109291496587E-03  5.1202208533338E-03  1.1127501496706E-02  1.9532892636550E-02  3.0336485983798E-02  4.3538398204979E-02  5.9138777829562E-02  7.7137792072036E-02  8.6736977285452E-02 
 1.5349824343485E-03  1.3650072438498E-03  1.0463220276445E-03  7.7014485032410E-04  5.3645332628251E-04  3.4524774119146E-04  1.9652909637744E-04  9.0298870476314E-05  2.6559014254417E-05  5.3119517830010E-06 
-7.5674009060520E+03 -7.4934631551771E+03 -7.4925547770123E+03 -7.4925889584083E+03 -7.4926541787185E+03 -7.4927392319597E+03 -7.4928439220810E+03 -7.4929681197604E+03 -7.4931119257041E+03 -7.4932768344419E+03 
 4.5323215942063E+02  4.4756952890861E+02  4.4750133952843E+02  4.4750622048667E+02  4.4751444095695E+02  4.4752514377833E+02  4.4753831405999E+02  4.4755394203868E+02  4.4757203557450E+02  4.4759270918578E+02 
-8.0206330654726E+03 -7.9410326840857E+03 -7.9400561165408E+03 -7.9400951788950E+03 -7.9401686196754E+03 -7.9402643757380E+03 -7.9403822361410E+03 -7.9405220617991E+03 -7.9406839612786E+03 -7.9408695436277E+03 
ZONE T = "ANOD, 2.0000E-08", I = 10, SOLUTIONTIME = 2.000000E-08
ZONETYPE = ORDERED
DATAPACKING = BLOCK
STRANDID = 1
 0.0000000000000E+00  8.7488888888889E-05  1.7497777777778E-04  2.6246666666667E-04  3.4995555555556E-04  4.3744444444444E-04  5.2493333333333E-04  6.1242222222222E-04  6.9991111111111E-04  7.8740000000000E-04 
 1.1806862531099E-09  3.4973808654042E-09  5.8132419277565E-09  8.1291037761279E-09  1.0444986960021E-08  1.2760898079467E-08  1.5076843637105E-08  1.7392830008444E-08  1.9708863632473E-08  2.0866907764836E-08 
 9.1999999999859E-01  9.1999999999861E-01  9.1999999999861E-01  9.1999999999861E-01  9.1999999999861E-01  9.1999999999861E-01  9.1999999999861E-01  9.1999999999861E-01  9.1999999999861E-01  9.1999999999942E-01 
 4.0000000000706E-02  4.0000000000696E-02  4.0000000000696E-02  4.0000000000696E-02  4.0000000000696E-02  4.0000000000696E-02  4.0000000000696E-02  4.0000000000696E-02  4.0000000000696E-02  4.0000000000288E-02 
 4.0000000000706E-02  4.0000000000696E-02  4.0000000000696E-02  4.0000000000696E-02  4.0000000000696E-02  4.0000000000696E-02  4.0000000000696E-02  4.0000000000696E-02  4.0000000000696E-02  4.0000000000288E-02 
 2.9178117049693E-02  2.9178101025609E-02  2.9178053567245E-02  2.9177974683610E-02  2.9177864374554E-02  2.9177722639785E-02  2.9177549478922E-02  2.9177344891500E-02  2.9177108876964E-02  2.9176841434673E-02 
 0.0000000000000E+00 -4.7329481475102E-09 -8.9089181330570E-09 -1.2528110358157E-08 -1.5590524633837E-08 -1.8096155830625E-08 -2.0044997232273E-08 -2.1437040559175E-08 -2.2272275998927E-08 -2.2550692191072E-08 
 2.9824461129582E+02  2.9815179255825E+02  2.9815002752188E+02  2.9814999748176E+02  2.9814999704776E+02  2.9814999698215E+02  2.9814999708044E+02  2.9814999707606E+02  2.9814999710169E+02  2.9814999914600E+02 
-2.9178117049693E-02 -2.9178105758557E-02 -2.9178062476164E-02 -2.9177987211720E-02 -2.9177879965079E-02 -2.9177740735940E-02 -2.9177569523920E-02 -2.9177366328541E-02 -2.9177131149240E-02 -2.9176863985365E-02 
-4.0972783621903E-02 -4.0907964497025E-02 -4.0906731971311E-02 -4.0906710994306E-02 -4.0906710691244E-02 -4.0906710645429E-02 -4.0906710714068E-02 -4.0906710711008E-02 -4.0906710728901E-02 -4.0906712156711E-02 
 1.1794666572210E-02  1.1729858738468E-02  1.1728669495147E-02  1.1728723782586E-02  1.1728830726165E-02  1.1728969909489E-02  1.1729141190148E-02  1.1729344382467E-02  1.1729579579661E-02  1.1729848171346E-02 
 1.7002822446174E+00  3.3362247633222E+00  3.3350243849737E+00  3.3350255169300E+00  3.3350562417464E+00  3.3350964712011E+00  3.3351460649312E+00  3.3352048399300E+00  3.3352728875500E+00  1.6676757872513E+00 
 8.8110950186201E-09  2.6099857268075E-08  4.3382402445568E-08  6.0664953547761E-08  7.7947663878473E-08  9.5230582680663E-08  1.1251375847532E-07  1.2979723887047E-07  1.4708121601583E-07  1.4708121601583E-07 
 0.0000000000000E+00  3.3683946262507E+00  6.7040192003971E+00  1.0039044151331E+01  1.3374085030716E+01  1.6709161387172E+01  2.0044282655094E+01  2.3379458107633E+01  2.6714696971424E+01  3.0050009202219E+01 
 3.0050009202475E+01  2.6681614576207E+01  2.3345990002058E+01  2.0010965051097E+01  1.6675924171747E+01  1.3340847815261E+01  1.0005726547194E+01  6.6705510947667E+00  3.3353122310312E+00  0.0000000000000E+00 
 3.3851251794345E-08  6.6731925616849E-08  6.6715910083298E-08  6.6716086707808E-08  6.6716702596827E-08  6.6717507279021E-08  6.6718498483654E-08  6.6719673808940E-08  6.6721034614739E-08  3.3361300591340E-08 
 4.5724222271674E+04  9.1448444543348E+04  9.1448444543348E+04  9.1448444543348E+04  9.1448444543348E+04  9.1448444543348E+04  9.1448444543348E+04  9.1448444543348E+04  9.1448444543348E+04  4.5724222271674E+04 
 3.3835924481011E+05  6.7671848962021E+05  6.7671848962021E+05  6.7671848962021E+05  6.7671848962021E+05  6.7671848962021E+05  6.7671848962021E+05  6.7671848962021E+05  6.7671848962021E+05  3.3835924481011E+05 
 3.8408346708178E+05  7.6816693416356E+05  7.6816693416356E+05  7.6816693416356E+05  7.6816693416356E+05  7.6816693416356E+05  7.6816693416356E+05  7.6816693416356E+05  7.6816693416356E+05  3.8408346708178E+05 
 3.5000000000000E-01  3.5000000000000E-01  3.5000000000000E-01  3.5000000000000E-01  3.5000000000000E-01  3.5000000000000E-01  3.5000000000000E-01  3.5000000000000E-01  3.5000000000000E-01  3.5000000000000E-01 
 8.5301666666667E+00  1.7060333333333E+01  1.7060333333333E+01  1.7060333333333E+01  1.7060333333333E+01  1.7060333333333E+01  1.7060333333333E+01  1.7060333333333E+01  1.7060333333333E+01  8.5301666666667E+00 
 1.9932579409750E-01  1.9555448877448E-01  1.9548412799517E-01  1.9548419434536E-01  1.9548599529590E-01  1.9548835336557E-01  1.9549126032695E-01  1.9549470545300E-01  1.9549869409839E-01  1.9550330637361E-01 
 4.3744444444444E-05  8.7488888888889E-05  8.7488888888889E-05  8.7488888888889E-05  8.7488888888889E-05  8.7488888888889E-05  8.7488888888889E-05  8.7488888888889E-05  8.7488888888889E-05  4.3744444444444E-05 
 8.6666666666659E+01  8.6666666666659E+01  8.6666666666659E+01  8.6666666666659E+01  8.6666666666659E+01  8.6666666666659E+01  8.6666666666659E+01  8.6666666666659E+01  8.6666666666659E+01  8.6666666666659E+01 
 2.1666666666675E+01  2.1666666666675E+01  2.1666666666675E+01  2.1666666666675E+01  2.1666666666675E+01  2.1666666666675E+01  2.1666666666675E+01  2.1666666666675E+01  2.1666666666675E+01  2.1666666666675E+01 
-1.5204814740054E-04 -1.4985468762418E-04 -1.4981839334893E-04 -1.4981861427785E-04 -1.4981975204698E-04 -1.4982124063802E-04 -1.4982307491514E-04 -1.4982524944528E-04 -1.4982776729493E-04 -1.4983089022329E-04 
-7.6374156747430E+03 -7.4920084831770E+03 -7.4892907244234E+03 -7.4892843670234E+03 -7.4893410953252E+03 -7.4894155135763E+03 -7.4895073043605E+03 -7.4896160538440E+03 -7.4897419681402E+03 -7.4898989301765E+03 
 6.1717496761935E-04  3.0326643647948E-03  1.0260309068519E-02  2.2281581160265E-02  3.9096855866299E-02  6.0706322189072E-02  8.7110213784041E-02  1.1830882263422E-01  1.5430248599345E-01  1.7349812369554E-01 
 3.0686376149283E-03  2.7287999786538E-03  2.0916788441572E-03  1.5395787191070E-03  1.0724114160240E-03  6.9017676955134E-04  3.9287677497911E-04  1.8051438924561E-04  5.3093515022733E-05  1.0619002178944E-05 
-7.6374175198145E+03 -7.4920113687050E+03 -7.4892969098684E+03 -7.4892962905370E+03 -7.4893611952465E+03 -7.4894462283416E+03 -7.4895510725237E+03 -7.4896753141043E+03 -7.4898191593686E+03 -7.4899856966300E+03 
 4.5844134972996E+02  4.4729617316312E+02  4.4708990212501E+02  4.4709212327945E+02  4.4710031890002E+02  4.4711101779318E+02  4.4712419580240E+02  4.4713982142392E+02  4.4715791058715E+02  4.4717869965146E+02 
-8.0958588695445E+03 -7.9393075418681E+03 -7.9363868119934E+03 -7.9363884138164E+03 -7.9364615141465E+03 -7.9365572461347E+03 -7.9366752683261E+03 -7.9368151355282E+03 -7.9369770699558E+03 -7.9371643962814E+03 
ZONE T = "ANOD, 3.0000E-08", I = 10, SOLUTIONTIME = 3.000000E-08
ZONETYPE = ORDERED
DATAPACKING = BLOCK
STRANDID = 1
 0.0000000000000E+00  8.7488888888889E-05  1.7497777777778E-04  2.6246666666667E-04  3.4995555555556E-04  4.3744444444444E-04  5.2493333333333E-04  6.1242222222222E-04  6.9991111111111E-04  7.8740000000000E-04 
 1.1911677459221E-09  3.5076038851763E-09  5.8224016907140E-09  8.1371798825933E-09  1.0451978936674E-08  1.2767895586630E-08  1.5083846684382E-08  1.7398748948474E-08  1.9713698471608E-08  2.0871200817206E-08 
 9.1999999999787E-01  9.1999999999791E-01  9.1999999999791E-01  9.1999999999791E-01  9.1999999999791E-01  9.1999999999791E-01  9.1999999999791E-01  9.1999999999791E-01  9.1999999999791E-01  9.1999999999914E-01 
 4.0000000001064E-02  4.0000000001044E-02  4.0000000001044E-02  4.0000000001044E-02  4.0000000001044E-02  4.0000000001044E-02  4.0000000001044E-02  4.0000000001044E-02  4.0000000001044E-02  4.0000000000432E-02 
 4.0000000001064E-02  4.0000000001044E-02  4.0000000001044E-02  4.0000000001044E-02  4.0000000001044E-02  4.0000000001044E-02  4.0000000001044E-02  4.0000000001044E-02  4.0000000001044E-02  4.0000000000432E-02 
 2.9183511290001E-02  2.9183495122390E-02  2.9183447525162E-02  2.9183368517226E-02  2.9183258098580E-02  2.9183116268933E-02  2.9182943027904E-02  2.9182738375025E-02  2.9182502309744E-02  2.9182234831418E-02 
 0.0000000000000E+00 -4.7309363938704E-09 -8.9049567676920E-09 -1.2522455008556E-08 -1.5583435831965E-08 -1.8087894222243E-08 -2.0035823454213E-08 -2.1427215245961E-08 -2.2262059790895E-08 -2.2540345727029E-08 
 2.9828987844979E+02  2.9815352213267E+02  2.9815006990554E+02  2.9814999703152E+02  2.9814999555934E+02  2.9814999553247E+02  2.9814999561855E+02  2.9814999553763E+02  2.9814999555737E+02  2.9814999869547E+02 
-2.9183511290001E-02 -2.9183499853326E-02 -2.9183456430118E-02 -2.9183381039681E-02 -2.9183273682016E-02 -2.9183134356827E-02 -2.9182963063727E-02 -2.9182759802241E-02 -2.9182524571804E-02 -2.9182257371764E-02 
-4.1004398203650E-02 -4.0909172261931E-02 -4.0906761567507E-02 -4.0906710679600E-02 -4.0906709651580E-02 -4.0906709632815E-02 -4.0906709692924E-02 -4.0906709636415E-02 -4.0906709650205E-02 -4.0906711841929E-02 
 1.1820886913649E-02  1.1725672408605E-02  1.1723305137388E-02  1.1723329639919E-02  1.1723435969564E-02  1.1723575275988E-02  1.1723746629197E-02  1.1723949834174E-02  1.1724185078401E-02  1.1724454470165E-02 
 1.7153764290366E+00  3.3358525415481E+00  3.3334932105141E+00  3.3334649652538E+00  3.3334950084897E+00  3.3335352913936E+00  3.3335848989868E+00  3.3336436391406E+00  3.3337116958911E+00  1.6668955711618E+00 
 8.8893186121621E-09  2.6176148542949E-08  4.3450758887016E-08  6.0725222998933E-08  7.7999842805626E-08  9.5274671366974E-08  1.1254975699061E-07  1.2982514702894E-07  1.4710110589193E-07  1.4710110589193E-07 
 0.0000000000000E+00  3.3833026998901E+00  6.7179755756877E+00  1.0051454663707E+01  1.3384934650617E+01  1.6718449800464E+01  2.0052009895838E+01  2.3385624164704E+01  2.6719301832292E+01  3.0053053251746E+01 
 3.0053053251415E+01  2.6669750551609E+01  2.3335077675593E+01  2.0001598587713E+01  1.6668118600832E+01  1.3334603450883E+01  1.0001043355697E+01  6.6674290866453E+00  3.3337514191200E+00  0.0000000000000E+00 
 5.1005016084711E-08  1.0009045103233E-07  1.0005084218844E-07  1.0005073636035E-07  1.0005165268172E-07  1.0005286019296E-07  1.0005434747352E-07  1.0005611020035E-07  1.0005815157365E-07  5.0030256302958E-08 
 4.5724222271692E+04  9.1448444543381E+04  9.1448444543381E+04  9.1448444543381E+04  9.1448444543381E+04  9.1448444543381E+04  9.1448444543381E+04  9.1448444543381E+04  9.1448444543381E+04  4.5724222271691E+04 
 3.3835924481009E+05  6.7671848962018E+05  6.7671848962018E+05  6.7671848962018E+05  6.7671848962018E+05  6.7671848962018E+05  6.7671848962018E+05  6.7671848962018E+05  6.7671848962018E+05  3.3835924481009E+05 
 3.8408346708178E+05  7.6816693416356E+05  7.6816693416356E+05  7.6816693416356E+05  7.6816693416356E+05  7.6816693416356E+05  7.6816693416356E+05  7.6816693416356E+05  7.6816693416356E+05  3.8408346708178E+05 
 3.5000000000000E-01  3.5000000000000E-01  3.5000000000000E-01  3.5000000000000E-01  3.5000000000000E-01  3.5000000000000E-01  3.5000000000000E-01  3.5000000000000E-01  3.5000000000000E-01  3.5000000000000E-01 
 8.5301666666667E+00  1.7060333333333E+01  1.7060333333333E+01  1.7060333333333E+01  1.7060333333333E+01  1.7060333333333E+01  1.7060333333333E+01  1.7060333333333E+01  1.7060333333333E+01  8.5301666666667E+00 
 2.0109530048689E-01  1.9553267080839E-01  1.9539437743581E-01  1.9539272182570E-01  1.9539448282505E-01  1.9539684402768E-01  1.9539975180165E-01  1.9540319488525E-01  1.9540718406583E-01  1.9541184085834E-01 
 4.3744444444444E-05  8.7488888888889E-05  8.7488888888889E-05  8.7488888888889E-05  8.7488888888889E-05  8.7488888888889E-05  8.7488888888889E-05  8.7488888888889E-05  8.7488888888889E-05  4.3744444444444E-05 
 8.6666666666655E+01  8.6666666666655E+01  8.6666666666655E+01  8.6666666666655E+01  8.6666666666655E+01  8.6666666666655E+01  8.6666666666655E+01  8.6666666666655E+01  8.6666666666655E+01  8.6666666666655E+01 
 2.1666666666679E+01  2.1666666666679E+01  2.1666666666679E+01  2.1666666666679E+01  2.1666666666679E+01  2.1666666666679E+01  2.1666666666679E+01  2.1666666666679E+01  2.1666666666679E+01  2.1666666666679E+01 
-2.2910695901721E-04 -2.2476863856818E-04 -2.2467897490833E-04 -2.2467846826839E-04 -2.2468015786271E-04 -2.2468239182990E-04 -2.2468514435454E-04 -2.2468840565899E-04 -2.2469218296547E-04 -2.2469689278668E-04 
-7.7058811616670E+03 -7.4913950944007E+03 -7.4860581559403E+03 -7.4859853990538E+03 -7.4860405815736E+03 -7.4861151191873E+03 -7.4862069439395E+03 -7.4863156213711E+03 -7.4864415670535E+03 -7.4866002563389E+03 
 9.3416995461446E-04  4.5651906110373E-03  1.5420301971165E-02  3.3462234895231E-02  5.8691807669159E-02  9.1109318668212E-02  1.3071511893973E-01  1.7750964371577E-01  2.3149340031647E-01  2.6028265196715E-01 
 4.6009893032322E-03  4.0913836938868E-03  3.1360587407430E-03  2.3082924654187E-03  1.6078678862446E-03  1.0347829756253E-03  5.8904069462612E-04  2.7064548017520E-04  7.9603185860077E-05  1.5921087967779E-05 
-7.7058830110137E+03 -7.4913979895107E+03 -7.4860643603131E+03 -7.4859973484213E+03 -7.4860607119819E+03 -7.4861458667900E+03 -7.4862507450086E+03 -7.4863749123232E+03 -7.4865187844775E+03 -7.4866870461692E+03 
 4.6353933716379E+02  4.4708664840889E+02  4.4668024222647E+02  4.4667739101325E+02  4.4668546810859E+02  4.4669617389008E+02  4.4670935040696E+02  4.4672496459157E+02  4.4674304837771E+02  4.4676396006312E+02 
-8.1694223481775E+03 -7.9384846379196E+03 -7.9327446025395E+03 -7.9326747394346E+03 -7.9327461800905E+03 -7.9328420406801E+03 -7.9329600954155E+03 -7.9330998769148E+03 -7.9332618328553E+03 -7.9334510062324E+03 
ZONE T = "ANOD, 4.0000E-08", I = 10, SOLUTIONTIME = 4.000000E-08
ZONETYPE = ORDERED
DATAPACKING = BLOCK
STRANDID = 1
 0.0000000000000E+00  8.7488888888889E-05  1.7497777777778E-04  2.6246666666667E-04  3.4995555555556E-04  4.3744444444444E-04  5.2493333333333E-04  6.1242222222222E-04  6.9991111111111E-04  7.8740000000000E-04 
 1.2014153501043E-09  3.5178363295920E-09  5.8315816173379E-09  8.1452741961696E-09  1.0458986863798E-08  1.2771637808797E-08  1.5084323177151E-08  1.7398139005134E-08  1.9712002132616E-08  2.0869687938689E-08 
 9.1999999999715E-01  9.1999999999722E-01  9.1999999999722E-01  9.1999999999722E-01  9.1999999999722E-01  9.1999999999722E-01  9.1999999999722E-01  9.1999999999722E-01  9.1999999999722E-01  9.1999999999885E-01 
 4.0000000001425E-02  4.0000000001392E-02  4.0000000001391E-02  4.0000000001391E-02  4.0000000001391E-02  4.0000000001391E-02  4.0000000001391E-02  4.0000000001391E-02  4.0000000001391E-02  4.0000000000576E-02 
 4.0000000001425E-02  4.0000000001392E-02  4.0000000001391E-02  4.0000000001391E-02  4.0000000001391E-02  4.0000000001391E-02  4.0000000001391E-02  4.0000000001391E-02  4.0000000001391E-02  4.0000000000576E-02 
 2.9188917434287E-02  2.9188901126322E-02  2.9188853390057E-02  2.9188774257543E-02  2.9188663729061E-02  2.9188521804320E-02  2.9188348482939E-02  2.9188143764453E-02  2.9187907648306E-02  2.9187640133856E-02 
 0.0000000000000E+00 -4.7289821681011E-09 -8.9010519608542E-09 -1.2516852666270E-08 -1.5576396956590E-08 -1.8079680002080E-08 -2.0026695094907E-08 -2.1417433959031E-08 -2.2251886776581E-08 -2.2530042175844E-08 