TITLE = "Solution on Domain BulkDomain1D_2"
VARIABLES = "x [m]"  
"Vel_axial" 	"MF_sp(ECDMC)" 	"MF_sp(Li+)" 	"MF_sp(PF6-)" 	"Volt(Electroly)" 	"Volt(CathodeVo)" 	"Temperature" 	
"Potential Drop Electrode-Electrolyte [V]" 	"Surf_0 Equilibrium Potential Drop Electrode-Electrolyte [V]" 	"Overpotential_0 [V]" 	"Current Source [A/m^2]" 	"Li+ flux [kmol/m^2/s]" 	"Electrolyte Current [A/m^2]" 	"Electrode Current [A/m^2]" 	
"CV Capacity discharged [A-s/m^2]" 	"Depth of discharge in CV [A-s/m^2]" 	"CV Capacity remaining [A-s/m^2]" 	"Initial CV capacity [A-s/m^2]" 	"Porosity []" 	"Surface Area [m2/m2] (area per area)" 	"Specific current (per particle area) [A/m^2]" 	"Control volume thickness [m]" 	
"MoleDens LiCoO2 [kmol/m^3]" 	"MoleDens CoO2 [kmol/m^3]" 	"qHeat_accum [J/m3]" 	"qHeat_step [W/m3]" 	"Joule_Lyte [W/m3]" 	"Joule_Solid [W/m3]" 	"electrodHeat [W/m3]" 	"OverpotHeat [W/m3]" 	"deltaSHeat [W/m3]" 	

ZONE T = "CATH, 0.0000E+00", I = 10, SOLUTIONTIME = 0.000000E+00
ZONETYPE = ORDERED
DATAPACKING = BLOCK
STRANDID = 3
 1.2700000000000E-03  1.3377333333333E-03  1.4054666666667E-03  1.4732000000000E-03  1.5409333333333E-03  1.6086666666667E-03  1.6764000000000E-03  1.7441333333333E-03  1.8118666666667E-03  1.8796000000000E-03 
 0.0000000000000E+00  0.0000000000000E+00  0.0000000000000E+00  0.0000000000000E+00  0.0000000000000E+00  0.0000000000000E+00  0.0000000000000E+00  0.0000000000000E+00  0.0000000000000E+00  0.0000000000000E+00 
 9.2000000000000E-01  9.2000000000000E-01  9.2000000000000E-01  9.2000000000000E-01  9.2000000000000E-01  9.2000000000000E-01  9.2000000000000E-01  9.2000000000000E-01  9.2000000000000E-01  9.2000000000000E-01 
 4.0000000000000E-02  4.0000000000000E-02  4.0000000000000E-02  4.0000000000000E-02  4.0000000000000E-02  4.0000000000000E-02  4.0000000000000E-02  4.0000000000000E-02  4.0000000000000E-02  4.0000000000000E-02 
 4.0000000000000E-02  4.0000000000000E-02  4.0000000000000E-02  4.0000000000000E-02  4.0000000000000E-02  4.0000000000000E-02  4.0000000000000E-02  4.0000000000000E-02  4.0000000000000E-02  4.0000000000000E-02 
-7.0000000000000E-02 -7.0000000000000E-02 -7.0000000000000E-02 -7.0000000000000E-02 -7.0000000000000E-02 -7.0000000000000E-02 -7.0000000000000E-02 -7.0000000000000E-02 -7.0000000000000E-02 -7.0000000000000E-02 
 3.8000000000000E+00  3.8000000000000E+00  3.8000000000000E+00  3.8000000000000E+00  3.8000000000000E+00  3.8000000000000E+00  3.8000000000000E+00  3.8000000000000E+00  3.8000000000000E+00  3.8000000000000E+00 
 2.9815000000000E+02  2.9815000000000E+02  2.9815000000000E+02  2.9815000000000E+02  2.9815000000000E+02  2.9815000000000E+02  2.9815000000000E+02  2.9815000000000E+02  2.9815000000000E+02  2.9800000000000E+02 
 3.8700000000000E+00  3.8700000000000E+00  3.8700000000000E+00  3.8700000000000E+00  3.8700000000000E+00  3.8700000000000E+00  3.8700000000000E+00  3.8700000000000E+00  3.8700000000000E+00  3.8700000000000E+00 
 3.9714142713289E+00  3.9714142713289E+00  3.9714142713289E+00  3.9714142713289E+00  3.9714142713289E+00  3.9714142713289E+00  3.9714142713289E+00  3.9714142713289E+00  3.9714142713289E+00  3.9715353395963E+00 
-1.0141427132889E-01 -1.0141427132889E-01 -1.0141427132889E-01 -1.0141427132889E-01 -1.0141427132889E-01 -1.0141427132889E-01 -1.0141427132889E-01 -1.0141427132889E-01 -1.0141427132889E-01 -1.0153533959628E-01 
-2.3826357195711E-01 -4.7652714391422E-01 -4.7652714391423E-01 -4.7652714391422E-01 -4.7652714391423E-01 -4.7652714391423E-01 -4.7652714391422E-01 -4.7652714391423E-01 -4.7652714391422E-01 -2.3524219296987E-01 
-0.0000000000000E+00 -0.0000000000000E+00 -0.0000000000000E+00 -0.0000000000000E+00 -0.0000000000000E+00 -0.0000000000000E+00 -0.0000000000000E+00 -0.0000000000000E+00 -0.0000000000000E+00 -0.0000000000000E+00 
 2.3826357195711E-01  0.0000000000000E+00  0.0000000000000E+00  0.0000000000000E+00  0.0000000000000E+00  0.0000000000000E+00  0.0000000000000E+00  0.0000000000000E+00  0.0000000000000E+00  0.0000000000000E+00 
 0.0000000000000E+00 -0.0000000000000E+00 -0.0000000000000E+00 -0.0000000000000E+00 -0.0000000000000E+00 -0.0000000000000E+00 -0.0000000000000E+00 -0.0000000000000E+00 -0.0000000000000E+00  2.3524219296987E-01 
-0.0000000000000E+00 -0.0000000000000E+00 -0.0000000000000E+00 -0.0000000000000E+00 -0.0000000000000E+00 -0.0000000000000E+00 -0.0000000000000E+00 -0.0000000000000E+00 -0.0000000000000E+00 -0.0000000000000E+00 
 7.2440786946225E+03  1.4488157389245E+04  1.4488157389245E+04  1.4488157389245E+04  1.4488157389245E+04  1.4488157389245E+04  1.4488157389245E+04  1.4488157389245E+04  1.4488157389245E+04  7.2440786946225E+03 
 4.9259735123433E+04  9.8519470246865E+04  9.8519470246866E+04  9.8519470246865E+04  9.8519470246866E+04  9.8519470246866E+04  9.8519470246865E+04  9.8519470246866E+04  9.8519470246865E+04  4.9259735123433E+04 
 5.6503813818055E+04  1.1300762763611E+05  1.1300762763611E+05  1.1300762763611E+05  1.1300762763611E+05  1.1300762763611E+05  1.1300762763611E+05  1.1300762763611E+05  1.1300762763611E+05  5.6503813818055E+04 
 3.5000000000000E-01  3.5000000000000E-01  3.5000000000000E-01  3.5000000000000E-01  3.5000000000000E-01  3.5000000000000E-01  3.5000000000000E-01  3.5000000000000E-01  3.5000000000000E-01  3.5000000000000E-01 
 6.6040000000000E+00  1.3208000000000E+01  1.3208000000000E+01  1.3208000000000E+01  1.3208000000000E+01  1.3208000000000E+01  1.3208000000000E+01  1.3208000000000E+01  1.3208000000000E+01  6.6040000000000E+00 
-3.6078675341780E-02 -3.6078675341780E-02 -3.6078675341780E-02 -3.6078675341780E-02 -3.6078675341780E-02 -3.6078675341780E-02 -3.6078675341780E-02 -3.6078675341780E-02 -3.6078675341780E-02 -3.5621167923965E-02 
 3.3866666666667E-05  6.7733333333333E-05  6.7733333333334E-05  6.7733333333333E-05  6.7733333333334E-05  6.7733333333334E-05  6.7733333333333E-05  6.7733333333334E-05  6.7733333333333E-05  3.3866666666667E-05 
 2.6603001364256E+01  2.6603001364256E+01  2.6603001364256E+01  2.6603001364256E+01  2.6603001364256E+01  2.6603001364256E+01  2.6603001364256E+01  2.6603001364256E+01  2.6603001364256E+01  2.6603001364256E+01 
 1.7735334242838E+01  1.7735334242838E+01  1.7735334242838E+01  1.7735334242838E+01  1.7735334242838E+01  1.7735334242838E+01  1.7735334242838E+01  1.7735334242838E+01  1.7735334242838E+01  1.7735334242838E+01 
 0.0000000000000E+00  0.0000000000000E+00  0.0000000000000E+00  0.0000000000000E+00  0.0000000000000E+00  0.0000000000000E+00  0.0000000000000E+00  0.0000000000000E+00  0.0000000000000E+00  0.0000000000000E+00 
 0.0000000000000E+00  0.0000000000000E+00  0.0000000000000E+00  0.0000000000000E+00  0.0000000000000E+00  0.0000000000000E+00  0.0000000000000E+00  0.0000000000000E+00  0.0000000000000E+00  0.0000000000000E+00 
 0.0000000000000E+00  0.0000000000000E+00  0.0000000000000E+00  0.0000000000000E+00  0.0000000000000E+00  0.0000000000000E+00  0.0000000000000E+00  0.0000000000000E+00  0.0000000000000E+00  0.0000000000000E+00 
 0.0000000000000E+00  0.0000000000000E+00  0.0000000000000E+00  0.0000000000000E+00  0.0000000000000E+00  0.0000000000000E+00  0.0000000000000E+00  0.0000000000000E+00  0.0000000000000E+00  0.0000000000000E+00 
 0.0000000000000E+00  0.0000000000000E+00  0.0000000000000E+00  0.0000000000000E+00  0.0000000000000E+00  0.0000000000000E+00  0.0000000000000E+00  0.0000000000000E+00  0.0000000000000E+00  0.0000000000000E+00 
 0.0000000000000E+00  0.0000000000000E+00  0.0000000000000E+00  0.0000000000000E+00  0.0000000000000E+00  0.0000000000000E+00  0.0000000000000E+00  0.0000000000000E+00  0.0000000000000E+00  0.0000000000000E+00 
 0.0000000000000E+00  0.0000000000000E+00  0.0000000000000E+00  0.0000000000000E+00  0.0000000000000E+00  0.0000000000000E+00  0.0000000000000E+00  0.0000000000000E+00  0.0000000000000E+00  0.0000000000000E+00 
ZONE T = "CATH, 1.0000E-08", I = 10, SOLUTIONTIME = 1.000000E-08
ZONETYPE = ORDERED
DATAPACKING = BLOCK
STRANDID = 3
 1.2700000000000E-03  1.3377333333333E-03  1.4054666666667E-03  1.4732000000000E-03  1.5409333333333E-03  1.6086666666667E-03  1.6764000000000E-03  1.7441333333333E-03  1.8118666666667E-03  1.8796000000000E-03 
 1.9920489466709E-08  1.7577980431681E-08  1.5235181434295E-08  1.2891892330907E-08  1.0547912786361E-08  8.2030422552528E-09  5.8570801414507E-09  3.5098368339490E-09  1.1616692778854E-09  1.8160385990992E-13 
 9.2000000000032E-01  9.2000000000091E-01  9.2000000000091E-01  9.2000000000091E-01  9.2000000000091E-01  9.2000000000091E-01  9.2000000000091E-01  9.2000000000091E-01  9.2000000000091E-01  9.2000000000090E-01 
 3.9999999999839E-02  3.9999999999545E-02  3.9999999999545E-02  3.9999999999545E-02  3.9999999999545E-02  3.9999999999545E-02  3.9999999999545E-02  3.9999999999545E-02  3.9999999999544E-02  3.9999999999549E-02 
 3.9999999999839E-02  3.9999999999545E-02  3.9999999999545E-02  3.9999999999545E-02  3.9999999999545E-02  3.9999999999545E-02  3.9999999999545E-02  3.9999999999545E-02  3.9999999999544E-02  3.9999999999549E-02 
 2.9762196661170E-02  2.9761987389643E-02  2.9761802727425E-02  2.9761642677549E-02  2.9761507245173E-02  2.9761396437555E-02  2.9761310264042E-02  2.9761248736118E-02  2.9761211867436E-02  2.9761199670427E-02 
 3.8001766760123E+00  3.8001744960277E+00  3.8001679559054E+00  3.8001570551058E+00  3.8001417927165E+00  3.8001221674525E+00  3.8000981776554E+00  3.8000698212933E+00  3.8000370959816E+00  3.8000000000000E+00 
 2.9815000106051E+02  2.9815000420906E+02  2.9815000423985E+02  2.9815000422152E+02  2.9815000428485E+02  2.9815000429387E+02  2.9815000288986E+02  2.9814993911489E+02  2.9814687886015E+02  2.9800000000000E+02 
 3.7704144793512E+00  3.7704125086381E+00  3.7704061531780E+00  3.7703954124282E+00  3.7703802854713E+00  3.7703607710150E+00  3.7703368673913E+00  3.7703085725572E+00  3.7702758841142E+00  3.7702388003296E+00 
 3.9714142704727E+00  3.9714142679310E+00  3.9714142679062E+00  3.9714142679210E+00  3.9714142678698E+00  3.9714142678626E+00  3.9714142689959E+00  3.9714143204741E+00  3.9714167906647E+00  3.9715353395959E+00 
-2.0099979112151E-01 -2.0100175929294E-01 -2.0100811472815E-01 -2.0101885549273E-01 -2.0103398239850E-01 -2.0105349684762E-01 -2.0107740160455E-01 -2.0110574791694E-01 -2.0114090655055E-01 -2.0129653926633E-01 
-1.6866433155177E+00 -3.3734169519613E+00 -3.3738345538490E+00 -3.3745404009744E+00 -3.3755347692964E+00 -3.3768179619097E+00 -3.3783900527773E+00 -3.3802352220342E+00 -3.3815663812247E+00 -1.6723822720007E+00 
 1.4865779302529E-07  1.3117624429973E-07  1.1369267525305E-07  9.6205442679178E-08  7.8713054070060E-08  6.1214026222804E-08  4.3706844921785E-08  2.6190095144787E-08  8.6664637133982E-09  8.6664637133982E-09 
 3.0373211789836E+01  2.6999868301196E+01  2.3626260084772E+01  2.0252090520865E+01  1.6877069998228E+01  1.3500911405036E+01  1.0123325533904E+01  6.7440297608291E+00  3.3631470197029E+00  0.0000000000000E+00 
 0.0000000000000E+00  3.3733344345651E+00  6.7469428070905E+00  1.0121112860209E+01  1.3496132953982E+01  1.6872291738802E+01  2.0249878052315E+01  2.3629172859370E+01  2.7010055672810E+01  3.0373212099191E+01 
 1.6866433155177E-08  3.3734169519613E-08  3.3738345538490E-08  3.3745404009744E-08  3.3755347692964E-08  3.3768179619097E-08  3.3783900527773E-08  3.3802352220342E-08  3.3815663812247E-08  1.6723822720007E-08 
 7.2440786946393E+03  1.4488157389279E+04  1.4488157389279E+04  1.4488157389279E+04  1.4488157389279E+04  1.4488157389279E+04  1.4488157389279E+04  1.4488157389279E+04  1.4488157389279E+04  7.2440786946392E+03 
 4.9259735123416E+04  9.8519470246831E+04  9.8519470246832E+04  9.8519470246831E+04  9.8519470246832E+04  9.8519470246832E+04  9.8519470246831E+04  9.8519470246832E+04  9.8519470246831E+04  4.9259735123416E+04 
 5.6503813818055E+04  1.1300762763611E+05  1.1300762763611E+05  1.1300762763611E+05  1.1300762763611E+05  1.1300762763611E+05  1.1300762763611E+05  1.1300762763611E+05  1.1300762763611E+05  5.6503813818055E+04 
 3.5000000000000E-01  3.5000000000000E-01  3.5000000000000E-01  3.5000000000000E-01  3.5000000000000E-01  3.5000000000000E-01  3.5000000000000E-01  3.5000000000000E-01  3.5000000000000E-01  3.5000000000000E-01 
 6.6040000000000E+00  1.3208000000000E+01  1.3208000000000E+01  1.3208000000000E+01  1.3208000000000E+01  1.3208000000000E+01  1.3208000000000E+01  1.3208000000000E+01  1.3208000000000E+01  6.6040000000000E+00 
-2.5539723130189E-01 -2.5540709811942E-01 -2.5543871546404E-01 -2.5549215634270E-01 -2.5556744164872E-01 -2.5566459432993E-01 -2.5578361998617E-01 -2.5592332086873E-01 -2.5602410518055E-01 -2.5323777589350E-01 
 3.3866666666667E-05  6.7733333333333E-05  6.7733333333334E-05  6.7733333333333E-05  6.7733333333334E-05  6.7733333333334E-05  6.7733333333333E-05  6.7733333333334E-05  6.7733333333333E-05  3.3866666666667E-05 
 2.6603001364262E+01  2.6603001364262E+01  2.6603001364262E+01  2.6603001364262E+01  2.6603001364262E+01  2.6603001364262E+01  2.6603001364262E+01  2.6603001364262E+01  2.6603001364262E+01  2.6603001364262E+01 
 1.7735334242832E+01  1.7735334242832E+01  1.7735334242832E+01  1.7735334242832E+01  1.7735334242832E+01  1.7735334242832E+01  1.7735334242832E+01  1.7735334242832E+01  1.7735334242832E+01  1.7735334242833E+01 
 2.1996011826028E-04  2.1997167126350E-04  2.2000839847222E-04  2.2007047755882E-04  2.2015793339189E-04  2.2027079538309E-04  2.2040908065739E-04  2.2057176486238E-04  2.2070714843697E-04  2.1832391540883E-04 
 2.1996011826028E+04  2.1997167126350E+04  2.2000839847222E+04  2.2007047755882E+04  2.2015793339189E+04  2.2027079538309E+04  2.2040908065739E+04  2.2057176486238E+04  2.2070714843697E+04  2.1832391540883E+04 
 8.8631131631930E-02  7.8821366348184E-02  6.0426498640259E-02  4.4480827806675E-02  3.0984524655438E-02  1.9938609848770E-02  1.1344936454040E-02  5.2061992455370E-03  1.5260531629010E-03  3.0115095887412E-04 
 5.4284019343872E-02  2.7143267854072E-01  9.2295005090605E-01  2.0090531251488E+00  3.5301074299925E+00  5.4866273217294E+00  7.8792761926035E+00  1.0708858959626E+01  1.3975887067385E+01  1.5718781331029E+01 
 2.1995868910878E+04  2.1996816872305E+04  2.1999856470673E+04  2.2004994221929E+04  2.2012232247234E+04  2.2021572972377E+04  2.2033017444610E+04  2.2046462421079E+04  2.2056737430576E+04  2.1816672458401E+04 
 1.0010284078220E+04  1.0010768831307E+04  1.0012324651696E+04  1.0014954466814E+04  1.0018659410392E+04  1.0023440838496E+04  1.0029299607580E+04  1.0036191916290E+04  1.0041899519902E+04  9.9402981402929E+03 
 1.1985584832658E+04  1.1986048040998E+04  1.1987531818977E+04  1.1990039755115E+04  1.1993572836842E+04  1.1998132133882E+04  1.2003717837030E+04  1.2010270504789E+04  1.2014837910674E+04  1.1876374318108E+04 
ZONE T = "CATH, 2.0000E-08", I = 10, SOLUTIONTIME = 2.000000E-08
ZONETYPE = ORDERED
DATAPACKING = BLOCK
STRANDID = 3
 1.2700000000000E-03  1.3377333333333E-03  1.4054666666667E-03  1.4732000000000E-03  1.5409333333333E-03  1.6086666666667E-03  1.6764000000000E-03  1.7441333333333E-03  1.8118666666667E-03  1.8796000000000E-03 
 1.9914517532043E-08  1.7570806060770E-08  1.5228257291994E-08  1.2884491759323E-08  1.0539672247608E-08  8.1946877553282E-09  5.8486118433159E-09  3.5005502822195E-09  1.1520994519936E-09 -9.6250047862499E-12 
 9.2000000000064E-01  9.2000000000182E-01  9.2000000000182E-01  9.2000000000182E-01  9.2000000000182E-01  9.2000000000182E-01  9.2000000000182E-01  9.2000000000182E-01  9.2000000000182E-01  9.2000000000180E-01 
 3.9999999999679E-02  3.9999999999091E-02  3.9999999999091E-02  3.9999999999091E-02  3.9999999999090E-02  3.9999999999090E-02  3.9999999999089E-02  3.9999999999089E-02  3.9999999999089E-02  3.9999999999099E-02 
 3.9999999999679E-02  3.9999999999091E-02  3.9999999999091E-02  3.9999999999091E-02  3.9999999999090E-02  3.9999999999090E-02  3.9999999999089E-02  3.9999999999089E-02  3.9999999999089E-02  3.9999999999099E-02 
 2.9772382092209E-02  2.9772172784211E-02  2.9771988090516E-02  2.9771828014175E-02  2.9771692560338E-02  2.9771581736262E-02  2.9771495551313E-02  2.9771434016976E-02  2.9771397146830E-02  2.9771384947399E-02 
 3.8001767108058E+00  3.8001745303788E+00  3.8001679889280E+00  3.8001570859136E+00  3.8001418204227E+00  3.8001221911698E+00  3.8000981964955E+00  3.8000698343684E+00  3.8000371024448E+00  3.8000000000000E+00 
 2.9815000218290E+02  2.9815000843564E+02  2.9815000860947E+02  2.9815000862934E+02  2.9815000868580E+02  2.9815000859571E+02  2.9815000349748E+02  2.9814981856222E+02  2.9814388527926E+02  2.9800000000000E+02 
 3.7704043287136E+00  3.7704023575945E+00  3.7703960008375E+00  3.7703852578994E+00  3.7703701278624E+00  3.7703506094335E+00  3.7703267009442E+00  3.7702984003515E+00  3.7702657052980E+00  3.7702286150526E+00 
 3.9714142695665E+00  3.9714142645190E+00  3.9714142643787E+00  3.9714142643627E+00  3.9714142643171E+00  3.9714142643898E+00  3.9714142685050E+00  3.9714144177822E+00  3.9714192070291E+00  3.9715353395955E+00 
-2.0100994085293E-01 -2.0101190692448E-01 -2.0101826354120E-01 -2.0102900646326E-01 -2.0104413645469E-01 -2.0106365495631E-01 -2.0108756756085E-01 -2.0111601743070E-01 -2.0115350173112E-01 -2.0130672454294E-01 
-1.6869769455893E+00 -3.3740850959751E+00 -3.3745029039984E+00 -3.3752090448071E+00 -3.3762038105210E+00 -3.3774874917883E+00 -3.3790592231304E+00 -3.3808726198553E+00 -3.3814331984059E+00 -1.6727142235193E+00 
 1.4868383337181E-07  1.3119860207249E-07  1.1371147385342E-07  9.6220686338294E-08  7.8724743802502E-08  6.1222149064938E-08  4.3711409394215E-08  2.6191272319840E-08  8.6682257697158E-09  8.6682257697158E-09 
 3.0378544557764E+01  2.7004525064151E+01  2.3630231063949E+01  2.0255375089669E+01  1.6879668662036E+01  1.3502823010854E+01  1.0124549653411E+01  6.7445837317131E+00  3.3634308225978E+00  0.0000000000000E+00 
 0.0000000000000E+00  3.3740194936069E+00  6.7483134936402E+00  1.0123169467863E+01  1.3498875895560E+01  1.6875721546865E+01  2.0253994904328E+01  2.3633960825739E+01  2.7015113734796E+01  3.0378544557607E+01 
 3.3736202611070E-08  6.7475020479364E-08  6.7483374578474E-08  6.7497494457815E-08  6.7517385798174E-08  6.7543054536980E-08  6.7574492759077E-08  6.7611078418895E-08  6.7629995796306E-08  3.3450964955200E-08 
 7.2440786946562E+03  1.4488157389312E+04  1.4488157389312E+04  1.4488157389312E+04  1.4488157389312E+04  1.4488157389313E+04  1.4488157389312E+04  1.4488157389313E+04  1.4488157389313E+04  7.2440786946559E+03 
 4.9259735123399E+04  9.8519470246798E+04  9.8519470246798E+04  9.8519470246798E+04  9.8519470246798E+04  9.8519470246798E+04  9.8519470246798E+04  9.8519470246798E+04  9.8519470246798E+04  4.9259735123399E+04 
 5.6503813818055E+04  1.1300762763611E+05  1.1300762763611E+05  1.1300762763611E+05  1.1300762763611E+05  1.1300762763611E+05  1.1300762763611E+05  1.1300762763611E+05  1.1300762763611E+05  5.6503813818055E+04 
 3.5000000000000E-01  3.5000000000000E-01  3.5000000000000E-01  3.5000000000000E-01  3.5000000000000E-01  3.5000000000000E-01  3.5000000000000E-01  3.5000000000000E-01  3.5000000000000E-01  3.5000000000000E-01 
 6.6040000000000E+00  1.3208000000000E+01  1.3208000000000E+01  1.3208000000000E+01  1.3208000000000E+01  1.3208000000000E+01  1.3208000000000E+01  1.3208000000000E+01  1.3208000000000E+01  6.6040000000000E+00 
-2.5544775069493E-01 -2.5545768443179E-01 -2.5548931738328E-01 -2.5554278049721E-01 -2.5561809589045E-01 -2.5571528556847E-01 -2.5583428400442E-01 -2.5597157933490E-01 -2.5601402168428E-01 -2.5328804111437E-01 
 3.3866666666667E-05  6.7733333333333E-05  6.7733333333334E-05  6.7733333333333E-05  6.7733333333334E-05  6.7733333333334E-05  6.7733333333333E-05  6.7733333333334E-05  6.7733333333333E-05  3.3866666666667E-05 
 2.6603001364267E+01  2.6603001364267E+01  2.6603001364267E+01  2.6603001364267E+01  2.6603001364267E+01  2.6603001364267E+01  2.6603001364267E+01  2.6603001364267E+01  2.6603001364267E+01  2.6603001364267E+01 
 1.7735334242827E+01  1.7735334242827E+01  1.7735334242827E+01  1.7735334242827E+01  1.7735334242827E+01  1.7735334242827E+01  1.7735334242827E+01  1.7735334242827E+01  1.7735334242827E+01  1.7735334242827E+01 
 4.3996880285654E-04  4.3999196833019E-04  4.4006544068578E-04  4.4018962557976E-04  4.4036457381568E-04  4.4059034340561E-04  4.4086690688778E-04  4.4119020732794E-04  4.4141036205112E-04  4.3669622018447E-04 
 2.2000868459625E+04  2.2002029706669E+04  2.2005704221356E+04  2.2011914802094E+04  2.2020664042379E+04  2.2031954802252E+04  2.2045782623039E+04  2.2061844246556E+04  2.2070321361415E+04  2.1837230477564E+04 
 8.8662026178992E-02  7.8848577491219E-02  6.0446835335272E-02  4.4495283018045E-02  3.0994097783657E-02  1.9944294970261E-02  1.1347730198355E-02  5.2071150742520E-03  1.5262301827315E-03  3.0127207146960E-04 
 5.4306055617731E-02  2.7154294923578E-01  9.2332510667672E-01  2.0098696989720E+00  3.5315425045911E+00  5.4888582205453E+00  7.8824802753649E+00  1.0713198303987E+01  1.3981097824475E+01  1.5724259132353E+01 
 2.2000725491543E+04  2.2001679315142E+04  2.2004720449414E+04  2.2009860437112E+04  2.2017101505777E+04  2.2026445999737E+04  2.2037888795034E+04  2.2051125841137E+04  2.2056338737361E+04  2.1821505917159E+04 
 1.0012769765354E+04  1.0013257075813E+04  1.0014813692089E+04  1.0017444698096E+04  1.0021151273360E+04  1.0025934739210E+04  1.0031793304493E+04  1.0038596999214E+04  1.0042132806056E+04  9.9427742549275E+03 
 1.1987955726189E+04  1.1988422239329E+04  1.1989906757325E+04  1.1992415739016E+04  1.1995950232417E+04  1.2000511260526E+04  1.2006095490540E+04  1.2012528841923E+04  1.2014205931304E+04  1.1878731662232E+04 
ZONE T = "CATH, 3.0000E-08", I = 10, SOLUTIONTIME = 3.000000E-08
ZONETYPE = ORDERED
DATAPACKING = BLOCK
STRANDID = 3
 1.2700000000000E-03  1.3377333333333E-03  1.4054666666667E-03  1.4732000000000E-03  1.5409333333333E-03  1.6086666666667E-03  1.6764000000000E-03  1.7441333333333E-03  1.8118666666667E-03  1.8796000000000E-03 
 1.9929132853088E-08  1.7586049706962E-08  1.5241949878551E-08  1.2897359509312E-08  1.0552441282709E-08  8.2066313788735E-09  5.8597309741140E-09  3.5123293611093E-09  1.1650408844650E-09  3.4504734139065E-12 
 9.2000000000096E-01  9.2000000000273E-01  9.2000000000273E-01  9.2000000000273E-01  9.2000000000273E-01  9.2000000000273E-01  9.2000000000273E-01  9.2000000000273E-01  9.2000000000273E-01  9.2000000000270E-01 
 3.9999999999518E-02  3.9999999998636E-02  3.9999999998636E-02  3.9999999998636E-02  3.9999999998635E-02  3.9999999998635E-02  3.9999999998634E-02  3.9999999998633E-02  3.9999999998633E-02  3.9999999998648E-02 
 3.9999999999518E-02  3.9999999998636E-02  3.9999999998636E-02  3.9999999998636E-02  3.9999999998635E-02  3.9999999998635E-02  3.9999999998634E-02  3.9999999998633E-02  3.9999999998633E-02  3.9999999998648E-02 
 2.9782505993010E-02  2.9782296649755E-02  2.9782111925649E-02  2.9781951823743E-02  2.9781816349192E-02  2.9781705509256E-02  2.9781619313303E-02  2.9781557772827E-02  2.9781520901226E-02  2.9781508699447E-02 
 3.8001767444810E+00  3.8001745636252E+00  3.8001680208871E+00  3.8001571157265E+00  3.8001418472301E+00  3.8001222141119E+00  3.8000982147121E+00  3.8000698470009E+00  3.8000371086933E+00  3.8000000000000E+00 
 2.9815000332380E+02  2.9815001266738E+02  2.9815001297029E+02  2.9815001298567E+02  2.9815001315833E+02  2.9815001269237E+02  2.9815000035297E+02  2.9814964313716E+02  2.9814101270838E+02  2.9800000000000E+02 
 3.7703942384880E+00  3.7703922669755E+00  3.7703859089615E+00  3.7703751639027E+00  3.7703600308810E+00  3.7703405086027E+00  3.7703165953988E+00  3.7702882892281E+00  3.7702555877921E+00  3.7702184913006E+00 
 3.9714142686454E+00  3.9714142611028E+00  3.9714142608583E+00  3.9714142608459E+00  3.9714142607066E+00  3.9714142610827E+00  3.9714142710429E+00  3.9714145593824E+00  3.9714215257091E+00  3.9715353395952E+00 
-2.0102003015740E-01 -2.0102199412736E-01 -2.0102835189685E-01 -2.0103909694321E-01 -2.0105422982559E-01 -2.0107375248000E-01 -2.0109767564408E-01 -2.0112627015434E-01 -2.0116593791702E-01 -2.0131684829462E-01 
-1.6873086587194E+00 -3.3747494018888E+00 -3.3751674092444E+00 -3.3758738271049E+00 -3.3768690158794E+00 -3.3781531021149E+00 -3.3797235103046E+00 -3.3814913862121E+00 -3.3813284608424E+00 -1.6730442350505E+00 
 1.4870901143609E-07  1.3122020346602E-07  1.1372963171662E-07  9.6235399218677E-08  7.8736009521731E-08  6.1229965513944E-08  4.3715783434417E-08  2.6192439715097E-08  8.6699337636434E-09  8.6699337636434E-09 
 3.0383709007727E+01  2.7009025647760E+01  2.3634067242076E+01  2.0258546623891E+01  1.6882175202421E+01  1.3504664143646E+01  1.0125725837313E+01  6.7451183890071E+00  3.3637084653768E+00  0.0000000000000E+00 
 0.0000000000000E+00  3.3746833598061E+00  6.7496417652997E+00  1.0125162383261E+01  1.3501533804813E+01  1.6879044863996E+01  2.0257983170131E+01  2.3638590618346E+01  2.7020000541944E+01  3.0383709007311E+01 
 5.0609289198264E-08  1.0122251449825E-07  1.0123504867092E-07  1.0125623272886E-07  1.0128607595697E-07  1.0132458555813E-07  1.0137172786212E-07  1.0142599228102E-07  1.0144328040473E-07  5.0181407305705E-08 
 7.2440786946731E+03  1.4488157389346E+04  1.4488157389346E+04  1.4488157389346E+04  1.4488157389346E+04  1.4488157389346E+04  1.4488157389346E+04  1.4488157389346E+04  1.4488157389346E+04  7.2440786946727E+03 
 4.9259735123382E+04  9.8519470246764E+04  9.8519470246765E+04  9.8519470246764E+04  9.8519470246764E+04  9.8519470246764E+04  9.8519470246764E+04  9.8519470246764E+04  9.8519470246764E+04  4.9259735123383E+04 
 5.6503813818055E+04  1.1300762763611E+05  1.1300762763611E+05  1.1300762763611E+05  1.1300762763611E+05  1.1300762763611E+05  1.1300762763611E+05  1.1300762763611E+05  1.1300762763611E+05  5.6503813818055E+04 
 3.5000000000000E-01  3.5000000000000E-01  3.5000000000000E-01  3.5000000000000E-01  3.5000000000000E-01  3.5000000000000E-01  3.5000000000000E-01  3.5000000000000E-01  3.5000000000000E-01  3.5000000000000E-01 
 6.6040000000000E+00  1.3208000000000E+01  1.3208000000000E+01  1.3208000000000E+01  1.3208000000000E+01  1.3208000000000E+01  1.3208000000000E+01  1.3208000000000E+01  1.3208000000000E+01  6.6040000000000E+00 
-2.5549797981820E-01 -2.5550798015512E-01 -2.5553962819840E-01 -2.5559311228838E-01 -2.5566845971225E-01 -2.5576568005109E-01 -2.5588457830895E-01 -2.5601842718141E-01 -2.5600609182635E-01 -2.5333801257578E-01 
 3.3866666666667E-05  6.7733333333333E-05  6.7733333333334E-05  6.7733333333333E-05  6.7733333333334E-05  6.7733333333334E-05  6.7733333333333E-05  6.7733333333334E-05  6.7733333333333E-05  3.3866666666667E-05 
 2.6603001364272E+01  2.6603001364272E+01  2.6603001364272E+01  2.6603001364272E+01  2.6603001364272E+01  2.6603001364272E+01  2.6603001364272E+01  2.6603001364272E+01  2.6603001364272E+01  2.6603001364272E+01 
 1.7735334242822E+01  1.7735334242822E+01  1.7735334242822E+01  1.7735334242822E+01  1.7735334242822E+01  1.7735334242822E+01  1.7735334242822E+01  1.7735334242822E+01  1.7735334242822E+01  1.7735334242822E+01 
 6.6002577567170E-04  6.6006061277474E-04  6.6017084766430E-04  6.6035716381758E-04  6.6061964246325E-04  6.6095835943978E-04  6.6137313035425E-04  6.6185407515739E-04  6.6211147899239E-04  6.5511663103132E-04 
 2.2005697281516E+04  2.2006864444455E+04  2.2010540697852E+04  2.2016753823782E+04  2.2025506864758E+04  2.2036801603417E+04  2.2050622346647E+04  2.2066386782946E+04  2.2070111694126E+04  2.1842041084686E+04 
 8.8691897519949E-02  7.8874880975427E-02  6.0466485129120E-02  4.4509243454814E-02  3.1003333632623E-02  1.9949771716454E-02  1.1350415236335E-02  5.2079963553850E-03  1.5264044977433E-03  3.0138950743028E-04 
 5.4327414299743E-02  2.7164983013452E-01  9.2368862860120E-01  2.0106611400572E+00  3.5329333668127E+00  5.4910202785952E+00  7.8855848643697E+00  1.0717394650775E+01  1.3986133293188E+01  1.5729555921118E+01 
 2.2005554262204E+04  2.2006513919744E+04  2.2009556542738E+04  2.2014698653398E+04  2.2021942928057E+04  2.2031290633366E+04  2.2042725411367E+04  2.2055664180298E+04  2.2056124034429E+04  2.1826311227375E+04 
 1.0015241263606E+04  1.0015731118830E+04  1.0017288508721E+04  1.0019920653490E+04  1.0023628925352E+04  1.0028414183492E+04  1.0034269816578E+04  1.0040946113221E+04  1.0042442587085E+04  9.9452359977850E+03 
 1.1990312998598E+04  1.1990782800913E+04  1.1992268034017E+04  1.1994777999909E+04  1.1998314002705E+04  1.2002876449874E+04  1.2008455594789E+04  1.2014718067077E+04  1.2013681447344E+04  1.1881075229590E+04 
ZONE T = "CATH, 4.0000E-08", I = 10, SOLUTIONTIME = 4.000000E-08
ZONETYPE = ORDERED
DATAPACKING = BLOCK
STRANDID = 3
 1.2700000000000E-03  1.3377333333333E-03  1.4054666666667E-03  1.4732000000000E-03  1.5409333333333E-03  1.6086666666667E-03  1.6764000000000E-03  1.7441333333333E-03  1.8118666666667E-03  1.8796000000000E-03 
 1.9931932080730E-08  1.7588027147095E-08  1.5244194982046E-08  1.2899508863001E-08  1.0554131437582E-08  8.2078620690593E-09  5.8608671003464E-09  3.5123214794282E-09  1.1647238938217E-09  2.9056618222254E-12 
 9.2000000000129E-01  9.2000000000364E-01  9.2000000000364E-01  9.2000000000364E-01  9.2000000000364E-01  9.2000000000364E-01  9.2000000000364E-01  9.2000000000364E-01  9.2000000000364E-01  9.2000000000361E-01 
 3.9999999999357E-02  3.9999999998181E-02  3.9999999998181E-02  3.9999999998181E-02  3.9999999998180E-02  3.9999999998179E-02  3.9999999998179E-02  3.9999999998178E-02  3.9999999998178E-02  3.9999999998197E-02 
 3.9999999999357E-02  3.9999999998181E-02  3.9999999998181E-02  3.9999999998181E-02  3.9999999998180E-02  3.9999999998179E-02  3.9999999998179E-02  3.9999999998178E-02  3.9999999998178E-02  3.9999999998197E-02 
 2.9792568673628E-02  2.9792359295240E-02  2.9792174540817E-02  2.9792014413416E-02  2.9791878918190E-02  2.9791768062404E-02  2.9791681855431E-02  2.9791620308767E-02  2.9791583435526E-02  2.9791571231410E-02 
 3.8001767779527E+00  3.8001745966707E+00  3.8001680526528E+00  3.8001571453585E+00  3.8001418738742E+00  3.8001222369133E+00  3.8000982328157E+00  3.8000698595546E+00  3.8000371149198E+00  3.8000000000000E+00 