TITLE = "Solution on Domain BulkDomain1D_0"
VARIABLES = "x [m]"  
"Vel_axial" 
"MF_sp(ECDMC)" 
"MF_sp(Li+)" 
"MF_sp(PF6-)" 
"Volt(Electroly)" 
"Volt(AnodeVolt)" 
"Temperature" 
"Potential Drop Electrode-Electrolyte [V]" 
"Surf_0 Equilibrium Potential Drop Electrode-Electrolyte [V]" 
"Overpotential_0 [V]" 
"Current Source [A/m^2]" 
"Li+ flux [kmol/m^2/s]" 
"Electrolyte Current [A/m^2]" 
"Electrode Current [A/m^2]" 
"CV Capacity discharged [A-s/m^2]" 
"Depth of discharge in CV [A-s/m^2]" 
"CV Capacity remaining [A-s/m^2]" 
"Initial CV capacity [A-s/m^2]" 
"Porosity []" 
"Surface Area [m2/m2] (area per area)" 
"Specific current (per particle area) [A/m^2]" 
"Control volume thickness [m]" 
"MoleDens Li_C6-bulk [kmol/m^3]" 
"MoleDens V_C6-bulk [kmol/m^3]" 
"qHeat_accum [J/m3]" 
"qHeat_step [W/m3]" 
"Joule_Lyte [W/m3]" 
"Joule_Solid [W/m3]" 
"electrodHeat [W/m3]" 
"OverpotHeat [W/m3]" 
"deltaSHeat [W/m3]" 

ZONE T = "ANOD, 0.0000E+00", I = 10, SOLUTIONTIME = 0.000000E+00
ZONETYPE = ORDERED
DATAPACKING = BLOCK
STRANDID = 1
 0.0000000000000E+00  8.7488888888889E-05  1.7497777777778E-04  2.6246666666667E-04  3.4995555555556E-04  4.3744444444444E-04  5.2493333333333E-04  6.1242222222222E-04  6.9991111111111E-04  7.8740000000000E-04 
 0.0000000000000E+00  0.0000000000000E+00  0.0000000000000E+00  0.0000000000000E+00  0.0000000000000E+00  0.0000000000000E+00  0.0000000000000E+00  0.0000000000000E+00  0.0000000000000E+00  0.0000000000000E+00 
 9.2000000000000E-01  9.2000000000000E-01  9.2000000000000E-01  9.2000000000000E-01  9.2000000000000E-01  9.2000000000000E-01  9.2000000000000E-01  9.2000000000000E-01  9.2000000000000E-01  9.2000000000000E-01 
 4.0000000000000E-02  4.0000000000000E-02  4.0000000000000E-02  4.0000000000000E-02  4.0000000000000E-02  4.0000000000000E-02  4.0000000000000E-02  4.0000000000000E-02  4.0000000000000E-02  4.0000000000000E-02 
 4.0000000000000E-02  4.0000000000000E-02  4.0000000000000E-02  4.0000000000000E-02  4.0000000000000E-02  4.0000000000000E-02  4.0000000000000E-02  4.0000000000000E-02  4.0000000000000E-02  4.0000000000000E-02 
-7.0000000000000E-02 -7.0000000000000E-02 -7.0000000000000E-02 -7.0000000000000E-02 -7.0000000000000E-02 -7.0000000000000E-02 -7.0000000000000E-02 -7.0000000000000E-02 -7.0000000000000E-02 -7.0000000000000E-02 
 0.0000000000000E+00  0.0000000000000E+00  0.0000000000000E+00  0.0000000000000E+00  0.0000000000000E+00  0.0000000000000E+00  0.0000000000000E+00  0.0000000000000E+00  0.0000000000000E+00  0.0000000000000E+00 
 3.0200000000000E+02  2.9815000000000E+02  2.9815000000000E+02  2.9815000000000E+02  2.9815000000000E+02  2.9815000000000E+02  2.9815000000000E+02  2.9815000000000E+02  2.9815000000000E+02  2.9815000000000E+02 
 7.0000000000000E-02  7.0000000000000E-02  7.0000000000000E-02  7.0000000000000E-02  7.0000000000000E-02  7.0000000000000E-02  7.0000000000000E-02  7.0000000000000E-02  7.0000000000000E-02  7.0000000000000E-02 
-4.3601490895275E-02 -4.0906712753390E-02 -4.0906712753390E-02 -4.0906712753390E-02 -4.0906712753390E-02 -4.0906712753390E-02 -4.0906712753390E-02 -4.0906712753390E-02 -4.0906712753390E-02 -4.0906712753390E-02 
 1.1360149089527E-01  1.1090671275339E-01  1.1090671275339E-01  1.1090671275339E-01  1.1090671275339E-01  1.1090671275339E-01  1.1090671275339E-01  1.1090671275339E-01  1.1090671275339E-01  1.1090671275339E-01 
 5.5837195716915E+01  6.1860481848017E+01  6.1860481848017E+01  6.1860481848017E+01  6.1860481848017E+01  6.1860481848017E+01  6.1860481848017E+01  6.1860481848017E+01  6.1860481848017E+01  3.0930240924008E+01 
-0.0000000000000E+00 -0.0000000000000E+00 -0.0000000000000E+00 -0.0000000000000E+00 -0.0000000000000E+00 -0.0000000000000E+00 -0.0000000000000E+00 -0.0000000000000E+00 -0.0000000000000E+00 -0.0000000000000E+00 
 0.0000000000000E+00  0.0000000000000E+00  0.0000000000000E+00  0.0000000000000E+00  0.0000000000000E+00  0.0000000000000E+00  0.0000000000000E+00  0.0000000000000E+00  0.0000000000000E+00  3.0930240924008E+01 
 5.5837195716915E+01 -0.0000000000000E+00 -0.0000000000000E+00 -0.0000000000000E+00 -0.0000000000000E+00 -0.0000000000000E+00 -0.0000000000000E+00 -0.0000000000000E+00 -0.0000000000000E+00  0.0000000000000E+00 
 0.0000000000000E+00  0.0000000000000E+00  0.0000000000000E+00  0.0000000000000E+00  0.0000000000000E+00  0.0000000000000E+00  0.0000000000000E+00  0.0000000000000E+00  0.0000000000000E+00  0.0000000000000E+00 
 4.5724222271641E+04  9.1448444543281E+04  9.1448444543281E+04  9.1448444543281E+04  9.1448444543281E+04  9.1448444543281E+04  9.1448444543281E+04  9.1448444543281E+04  9.1448444543281E+04  4.5724222271641E+04 
 3.3835924481014E+05  6.7671848962028E+05  6.7671848962028E+05  6.7671848962028E+05  6.7671848962028E+05  6.7671848962028E+05  6.7671848962028E+05  6.7671848962028E+05  6.7671848962028E+05  3.3835924481014E+05 
 3.8408346708178E+05  7.6816693416356E+05  7.6816693416356E+05  7.6816693416356E+05  7.6816693416356E+05  7.6816693416356E+05  7.6816693416356E+05  7.6816693416356E+05  7.6816693416356E+05  3.8408346708178E+05 
 3.5000000000000E-01  3.5000000000000E-01  3.5000000000000E-01  3.5000000000000E-01  3.5000000000000E-01  3.5000000000000E-01  3.5000000000000E-01  3.5000000000000E-01  3.5000000000000E-01  3.5000000000000E-01 
 8.5301666666667E+00  1.7060333333333E+01  1.7060333333333E+01  1.7060333333333E+01  1.7060333333333E+01  1.7060333333333E+01  1.7060333333333E+01  1.7060333333333E+01  1.7060333333333E+01  8.5301666666667E+00 
 6.5458504972839E+00  3.6259831879809E+00  3.6259831879809E+00  3.6259831879809E+00  3.6259831879809E+00  3.6259831879809E+00  3.6259831879809E+00  3.6259831879809E+00  3.6259831879809E+00  3.6259831879809E+00 
 4.3744444444444E-05  8.7488888888889E-05  8.7488888888889E-05  8.7488888888889E-05  8.7488888888889E-05  8.7488888888889E-05  8.7488888888889E-05  8.7488888888889E-05  8.7488888888889E-05  4.3744444444444E-05 
 8.6666666666667E+01  8.6666666666667E+01  8.6666666666667E+01  8.6666666666667E+01  8.6666666666667E+01  8.6666666666667E+01  8.6666666666667E+01  8.6666666666667E+01  8.6666666666667E+01  8.6666666666667E+01 
 2.1666666666667E+01  2.1666666666667E+01  2.1666666666667E+01  2.1666666666667E+01  2.1666666666667E+01  2.1666666666667E+01  2.1666666666667E+01  2.1666666666667E+01  2.1666666666667E+01  2.1666666666667E+01 
 0.0000000000000E+00  0.0000000000000E+00  0.0000000000000E+00  0.0000000000000E+00  0.0000000000000E+00  0.0000000000000E+00  0.0000000000000E+00  0.0000000000000E+00  0.0000000000000E+00  0.0000000000000E+00 
 0.0000000000000E+00  0.0000000000000E+00  0.0000000000000E+00  0.0000000000000E+00  0.0000000000000E+00  0.0000000000000E+00  0.0000000000000E+00  0.0000000000000E+00  0.0000000000000E+00  0.0000000000000E+00 
 0.0000000000000E+00  0.0000000000000E+00  0.0000000000000E+00  0.0000000000000E+00  0.0000000000000E+00  0.0000000000000E+00  0.0000000000000E+00  0.0000000000000E+00  0.0000000000000E+00  0.0000000000000E+00 
 0.0000000000000E+00  0.0000000000000E+00  0.0000000000000E+00  0.0000000000000E+00  0.0000000000000E+00  0.0000000000000E+00  0.0000000000000E+00  0.0000000000000E+00  0.0000000000000E+00  0.0000000000000E+00 
 0.0000000000000E+00  0.0000000000000E+00  0.0000000000000E+00  0.0000000000000E+00  0.0000000000000E+00  0.0000000000000E+00  0.0000000000000E+00  0.0000000000000E+00  0.0000000000000E+00  0.0000000000000E+00 
 0.0000000000000E+00  0.0000000000000E+00  0.0000000000000E+00  0.0000000000000E+00  0.0000000000000E+00  0.0000000000000E+00  0.0000000000000E+00  0.0000000000000E+00  0.0000000000000E+00  0.0000000000000E+00 
 0.0000000000000E+00  0.0000000000000E+00  0.0000000000000E+00  0.0000000000000E+00  0.0000000000000E+00  0.0000000000000E+00  0.0000000000000E+00  0.0000000000000E+00  0.0000000000000E+00  0.0000000000000E+00 
ZONE T = "ANOD, 1.0000E-08", I = 10, SOLUTIONTIME = 1.000000E-08
ZONETYPE = ORDERED
DATAPACKING = BLOCK
STRANDID = 1
 0.0000000000000E+00  8.7488888888889E-05  1.7497777777778E-04  2.6246666666667E-04  3.4995555555556E-04  4.3744444444444E-04  5.2493333333333E-04  6.1242222222222E-04  6.9991111111111E-04  7.8740000000000E-04 
 2.3825768949752E-09  4.6034387894403E-09  6.8020251330246E-09  9.0003475892222E-09  1.1198690329527E-08  1.3397063004111E-08  1.5595471764075E-08  1.7793922646612E-08  1.9992421788853E-08  2.1091698741306E-08 
 9.1999999999857E-01  9.1999999999933E-01  9.1999999999934E-01  9.1999999999934E-01  9.1999999999934E-01  9.1999999999934E-01  9.1999999999934E-01  9.1999999999934E-01  9.1999999999934E-01  9.1999999999973E-01 
 4.0000000000716E-02  4.0000000000334E-02  4.0000000000330E-02  4.0000000000330E-02  4.0000000000330E-02  4.0000000000330E-02  4.0000000000330E-02  4.0000000000330E-02  4.0000000000330E-02  4.0000000000137E-02 
 4.0000000000716E-02  4.0000000000334E-02  4.0000000000330E-02  4.0000000000330E-02  4.0000000000330E-02  4.0000000000330E-02  4.0000000000330E-02  4.0000000000330E-02  4.0000000000330E-02  4.0000000000137E-02 
 2.9764013344144E-02  2.9763980806991E-02  2.9763918339701E-02  2.9763826043473E-02  2.9763703916867E-02  2.9763551959541E-02  2.9763370171067E-02  2.9763158550984E-02  2.9762917098681E-02  2.9762645813532E-02 
 0.0000000000000E+00 -4.4980345025433E-09 -8.4621308807483E-09 -1.1897644607589E-08 -1.4804639126694E-08 -1.7183109561371E-08 -1.9033048714834E-08 -2.0354447911461E-08 -2.1147297024175E-08 -2.1411584450412E-08 
 3.0200000000000E+02  2.9819888182322E+02  2.9815061914382E+02  2.9815000636349E+02  2.9814999852475E+02  2.9814999844237E+02  2.9814999850933E+02  2.9814999847822E+02  2.9814999856057E+02  2.9814999956560E+02 
-2.9764013344144E-02 -2.9763985305026E-02 -2.9763926801832E-02 -2.9763837941118E-02 -2.9763718721507E-02 -2.9763569142651E-02 -2.9763389204115E-02 -2.9763178905432E-02 -2.9762938245978E-02 -2.9762667225117E-02 
-4.3601490894653E-02 -4.0940847937533E-02 -4.0907145101206E-02 -4.0906717196722E-02 -4.0906711722940E-02 -4.0906711665414E-02 -4.0906711712167E-02 -4.0906711690446E-02 -4.0906711747954E-02 -4.0906712449890E-02 
 1.3837477550510E-02  1.1176862632507E-02  1.1143218299373E-02  1.1142879255605E-02  1.1142993001434E-02  1.1143142522764E-02  1.1143322508051E-02  1.1143532785014E-02  1.1143773501976E-02  1.1144045224773E-02 
 3.4305956990819E+00  3.1982354911762E+00  3.1661567525348E+00  3.1657767316288E+00  3.1658059430778E+00  3.1658490490585E+00  3.1659010141203E+00  3.1659616746514E+00  3.1660311708772E+00  1.5830550193627E+00 
 1.7777847077337E-08  3.4351311805598E-08  5.0758665597156E-08  6.7164066280105E-08  8.3569603963055E-08  9.9975375714757E-08  1.1638140068062E-07  1.3278776267911E-07  1.4919453574406E-07  1.4919453574406E-07 
 0.0000000000000E+00  5.0296862971545E+00  8.2118646903604E+00  1.1377814460321E+01  1.4543588889566E+01  1.7709399120114E+01  2.0875256366250E+01  2.4041170562330E+01  2.7207150340003E+01  3.0373211779755E+01 
 3.0373221314198E+01  2.5343516606776E+01  2.2161337873838E+01  1.8995388434068E+01  1.5829614398360E+01  1.2663804203394E+01  9.4979464716236E+00  6.3320324270229E+00  3.1660533036039E+00  0.0000000000000E+00 
 3.4305956990819E-08  3.1982354911762E-08  3.1661567525348E-08  3.1657767316288E-08  3.1658059430778E-08  3.1658490490585E-08  3.1659010141203E-08  3.1659616746514E-08  3.1660311708772E-08  1.5830550193627E-08 
 4.5724222271675E+04  9.1448444543313E+04  9.1448444543313E+04  9.1448444543313E+04  9.1448444543313E+04  9.1448444543313E+04  9.1448444543313E+04  9.1448444543313E+04  9.1448444543313E+04  4.5724222271656E+04 
 3.3835924481011E+05  6.7671848962025E+05  6.7671848962025E+05  6.7671848962025E+05  6.7671848962025E+05  6.7671848962025E+05  6.7671848962025E+05  6.7671848962025E+05  6.7671848962025E+05  3.3835924481012E+05 
 3.8408346708178E+05  7.6816693416356E+05  7.6816693416356E+05  7.6816693416356E+05  7.6816693416356E+05  7.6816693416356E+05  7.6816693416356E+05  7.6816693416356E+05  7.6816693416356E+05  3.8408346708178E+05 
 3.5000000000000E-01  3.5000000000000E-01  3.5000000000000E-01  3.5000000000000E-01  3.5000000000000E-01  3.5000000000000E-01  3.5000000000000E-01  3.5000000000000E-01  3.5000000000000E-01  3.5000000000000E-01 
 8.5301666666667E+00  1.7060333333333E+01  1.7060333333333E+01  1.7060333333333E+01  1.7060333333333E+01  1.7060333333333E+01  1.7060333333333E+01  1.7060333333333E+01  1.7060333333333E+01  8.5301666666667E+00 
 4.0217217706749E-01  1.8746617833822E-01  1.8558586697416E-01  1.8556359185804E-01  1.8556530410178E-01  1.8556783078048E-01  1.8557087673865E-01  1.8557443238612E-01  1.8557850594227E-01  1.8558312882077E-01 
 4.3744444444444E-05  8.7488888888889E-05  8.7488888888889E-05  8.7488888888889E-05  8.7488888888889E-05  8.7488888888889E-05  8.7488888888889E-05  8.7488888888889E-05  8.7488888888889E-05  4.3744444444444E-05 
 8.6666666666659E+01  8.6666666666663E+01  8.6666666666663E+01  8.6666666666663E+01  8.6666666666663E+01  8.6666666666663E+01  8.6666666666663E+01  8.6666666666663E+01  8.6666666666663E+01  8.6666666666663E+01 
 2.1666666666675E+01  2.1666666666670E+01  2.1666666666670E+01  2.1666666666670E+01  2.1666666666670E+01  2.1666666666670E+01  2.1666666666670E+01  2.1666666666670E+01  2.1666666666670E+01  2.1666666666670E+01 
-1.5530974248709E-04 -7.2039874957474E-05 -7.1312783181823E-05 -7.1304070731750E-05 -7.1304598531586E-05 -7.1305407041444E-05 -7.1306382140809E-05 -7.1307520118977E-05 -7.1308824150674E-05 -7.1310409950192E-05 
-1.5530974248709E+04 -7.2039874957474E+03 -7.1312783181823E+03 -7.1304070731750E+03 -7.1304598531586E+03 -7.1305407041444E+03 -7.1306382140809E+03 -7.1307520118977E+03 -7.1308824150674E+03 -7.1310409950192E+03 
 1.2758329748252E-03  3.0044049444755E-03  7.5330613916134E-03  1.4212554183324E-02  2.3050829339491E-02  3.4048082431010E-02  4.7204429359946E-02  6.2520019768867E-02  7.9995018262601E-02  8.9272387026776E-02 
 1.3851914356783E-03  1.2305218554263E-03  9.4195985889267E-04  6.9331655511761E-04  4.8293829638894E-04  3.1080730571511E-04  1.7692446610469E-04  8.1291288051414E-05  2.3909707281212E-05  4.7820843924279E-06 
-1.5530976909733E+04 -7.2039917306742E+03 -7.1312867932036E+03 -7.1304219790457E+03 -7.1304833869262E+03 -7.1305750630341E+03 -7.1306855954348E+03 -7.1308146132087E+03 -7.1309624339953E+03 -7.1311302721883E+03 
 1.0851844520007E+03  4.0858032609568E+02  4.0326464665712E+02  4.0320397617822E+02  4.0321181256612E+02  4.0322271328294E+02  4.0323584488980E+02  4.0325118042194E+02  4.0326874323356E+02  4.0328862220723E+02 
-1.6616161361734E+04 -7.6125720567699E+03 -7.5345514398607E+03 -7.5336259552239E+03 -7.5336951994924E+03 -7.5337977763171E+03 -7.5339214403246E+03 -7.5340657936307E+03 -7.5342311772289E+03 -7.5344188943955E+03 
ZONE T = "ANOD, 2.0000E-08", I = 10, SOLUTIONTIME = 2.000000E-08
ZONETYPE = ORDERED
DATAPACKING = BLOCK
STRANDID = 1
 0.0000000000000E+00  8.7488888888889E-05  1.7497777777778E-04  2.6246666666667E-04  3.4995555555556E-04  4.3744444444444E-04  5.2493333333333E-04  6.1242222222222E-04  6.9991111111111E-04  7.8740000000000E-04 
 2.3800683438297E-09  4.6210764744453E-09  6.8181889835680E-09  9.0141291652247E-09  1.1208989620123E-08  1.3403516743079E-08  1.5598806338448E-08  1.7794138080721E-08  1.9989518095629E-08  2.1086509316843E-08 
 9.1999999999714E-01  9.1999999999866E-01  9.1999999999868E-01  9.1999999999868E-01  9.1999999999868E-01  9.1999999999868E-01  9.1999999999868E-01  9.1999999999868E-01  9.1999999999868E-01  9.1999999999945E-01 
 4.0000000001431E-02  4.0000000000670E-02  4.0000000000660E-02  4.0000000000660E-02  4.0000000000660E-02  4.0000000000660E-02  4.0000000000660E-02  4.0000000000660E-02  4.0000000000660E-02  4.0000000000273E-02 
 4.0000000001431E-02  4.0000000000670E-02  4.0000000000660E-02  4.0000000000660E-02  4.0000000000660E-02  4.0000000000660E-02  4.0000000000660E-02  4.0000000000660E-02  4.0000000000660E-02  4.0000000000273E-02 
 2.9774200113844E-02  2.9774167598448E-02  2.9774104876804E-02  2.9774012351180E-02  2.9773890022780E-02  2.9773737891194E-02  2.9773555956010E-02  2.9773344216739E-02  2.9773102672808E-02  2.9772831323563E-02 
 0.0000000000000E+00 -4.4993547173171E-09 -8.4599277657379E-09 -1.1892272501085E-08 -1.4796583451384E-08 -1.7172858237340E-08 -1.9021089676240E-08 -2.0341269099292E-08 -2.1133386373567E-08 -2.1397429893391E-08 
 3.0200000000000E+02  2.9824653803615E+02  2.9815182782206E+02  2.9815002789909E+02  2.9814999735446E+02  2.9814999707304E+02  2.9814999701797E+02  2.9814999699019E+02  2.9814999706734E+02  2.9814999912115E+02 
-2.9774200113844E-02 -2.9774172097802E-02 -2.9774113336732E-02 -2.9774024243453E-02 -2.9773904819364E-02 -2.9773755064052E-02 -2.9773574977099E-02 -2.9773364558008E-02 -2.9773123806195E-02 -2.9772852720993E-02 
-4.3601490894030E-02 -4.0974129221714E-02 -4.0907989121821E-02 -4.0906732234745E-02 -4.0906710905438E-02 -4.0906710708931E-02 -4.0906710670471E-02 -4.0906710651071E-02 -4.0906710704949E-02 -4.0906712139366E-02 
 1.3827290780185E-02  1.1199957123911E-02  1.1133875785089E-02  1.1132707991292E-02  1.1132806086074E-02  1.1132955644878E-02  1.1133135693372E-02  1.1133346093064E-02  1.1133586898754E-02  1.1133859418373E-02 
 3.4280110324029E+00  3.2272302011873E+00  3.1640170101773E+00  3.1628518133038E+00  3.1628660650076E+00  3.1629090884364E+00  3.1629610133586E+00  3.1630217082639E+00  3.1630912247096E+00  1.5815854006173E+00 
 1.7764683246359E-08  3.4488359350747E-08  5.0884717901968E-08  6.7275041645514E-08  8.3665439296921E-08  1.0005605990748E-07  1.1644694959684E-07  1.3283815381831E-07  1.4922985501369E-07  1.4922985501369E-07 
 0.0000000000000E+00  5.0416261330464E+00  8.2372497389771E+00  1.1400684150680E+01  1.4563543089535E+01  1.7726430666397E+01  2.0889365717556E+01  2.4052357078239E+01  2.7215413544532E+01  3.0378544557591E+01 
 3.0378544557599E+01  2.5336918424517E+01  2.2141294818746E+01  1.8977860406998E+01  1.5815001467863E+01  1.2652113891154E+01  9.4891788402434E+00  6.3261874794385E+00  3.1631310129641E+00  0.0000000000000E+00 
 6.8586067314847E-08  6.4254656923635E-08  6.3301737627121E-08  6.3286285449326E-08  6.3286720080854E-08  6.3287581374949E-08  6.3288620274789E-08  6.3289833829153E-08  6.3291223955868E-08  3.1646404199799E-08 
 4.5724222271709E+04  9.1448444543345E+04  9.1448444543345E+04  9.1448444543345E+04  9.1448444543345E+04  9.1448444543344E+04  9.1448444543344E+04  9.1448444543345E+04  9.1448444543345E+04  4.5724222271672E+04 
 3.3835924481007E+05  6.7671848962022E+05  6.7671848962022E+05  6.7671848962022E+05  6.7671848962022E+05  6.7671848962022E+05  6.7671848962022E+05  6.7671848962022E+05  6.7671848962022E+05  3.3835924481011E+05 
 3.8408346708178E+05  7.6816693416356E+05  7.6816693416356E+05  7.6816693416356E+05  7.6816693416356E+05  7.6816693416356E+05  7.6816693416356E+05  7.6816693416356E+05  7.6816693416356E+05  3.8408346708178E+05 
 3.5000000000000E-01  3.5000000000000E-01  3.5000000000000E-01  3.5000000000000E-01  3.5000000000000E-01  3.5000000000000E-01  3.5000000000000E-01  3.5000000000000E-01  3.5000000000000E-01  3.5000000000000E-01 
 8.5301666666667E+00  1.7060333333333E+01  1.7060333333333E+01  1.7060333333333E+01  1.7060333333333E+01  1.7060333333333E+01  1.7060333333333E+01  1.7060333333333E+01  1.7060333333333E+01  8.5301666666667E+00 
 4.0186917399850E-01  1.8916571781641E-01  1.8546044490205E-01  1.8539214630256E-01  1.8539298167333E-01  1.8539550351320E-01  1.8539854711857E-01  1.8540210478091E-01  1.8540617952226E-01  1.8541084394020E-01 
 4.3744444444444E-05  8.7488888888889E-05  8.7488888888889E-05  8.7488888888889E-05  8.7488888888889E-05  8.7488888888889E-05  8.7488888888889E-05  8.7488888888889E-05  8.7488888888889E-05  4.3744444444444E-05 
 8.6666666666650E+01  8.6666666666659E+01  8.6666666666659E+01  8.6666666666659E+01  8.6666666666659E+01  8.6666666666659E+01  8.6666666666659E+01  8.6666666666659E+01  8.6666666666659E+01  8.6666666666659E+01 
 2.1666666666683E+01  2.1666666666674E+01  2.1666666666674E+01  2.1666666666674E+01  2.1666666666674E+01  2.1666666666674E+01  2.1666666666674E+01  2.1666666666674E+01  2.1666666666674E+01  2.1666666666674E+01 
-3.1051045488443E-04 -1.4474109723435E-04 -1.4258116699437E-04 -1.4254594614802E-04 -1.4254666262267E-04 -1.4254827777360E-04 -1.4255022713712E-04 -1.4255250401925E-04 -1.4255511276002E-04 -1.4255830063507E-04 
-1.5520071239735E+04 -7.2701222276881E+03 -7.1268383812549E+03 -7.1241875416273E+03 -7.1242064091084E+03 -7.1242870732154E+03 -7.1243844996315E+03 -7.1244983900277E+03 -7.1246288609350E+03 -7.1247890684874E+03 
 2.5498591948450E-03  6.0270219399648E-03  1.5110941753047E-02  2.8480730311760E-02  4.6163716193882E-02  6.8160668341766E-02  9.4471827299589E-02  1.2509748504535E-01  1.6003797300851E-01  1.7858696442722E-01 
 2.7711961237114E-03  2.4604945333742E-03  1.8822188791782E-03  1.3853542235263E-03  9.6498536587342E-04  6.2104104585591E-04  3.5352244140444E-04  1.6243256850286E-04  4.7775296071245E-05  9.5553462475441E-06 
-1.5520073899766E+04 -7.2701264802777E+03 -7.1268468993943E+03 -7.1242025018411E+03 -7.1242300040423E+03 -7.1243214960351E+03 -7.1244319436274E+03 -7.1245610486343E+03 -7.1247089277553E+03 -7.1248783878381E+03 
 1.0835685753082E+03  4.1313634613523E+02  4.0265424354210E+02  4.0246374259740E+02  4.0246910237188E+02  4.0247998389527E+02  4.0249310058054E+02  4.0250843079478E+02  4.0252598320670E+02  4.0254596286225E+02 
-1.6603642475074E+04 -7.6832628264130E+03 -7.5295011429364E+03 -7.5266662444385E+03 -7.5266991064142E+03 -7.5268014799304E+03 -7.5269250442079E+03 -7.5270694794291E+03 -7.5272349109620E+03 -7.5274243507003E+03 
ZONE T = "ANOD, 3.0000E-08", I = 10, SOLUTIONTIME = 3.000000E-08
ZONETYPE = ORDERED
DATAPACKING = BLOCK
STRANDID = 1
 0.0000000000000E+00  8.7488888888889E-05  1.7497777777778E-04  2.6246666666667E-04  3.4995555555556E-04  4.3744444444444E-04  5.2493333333333E-04  6.1242222222222E-04  6.9991111111111E-04  7.8740000000000E-04 
 2.3786476783040E-09  4.6394108587221E-09  6.8353065055255E-09  9.0299644560387E-09  1.1224612231013E-08  1.3419652656774E-08  1.5614002739312E-08  1.7808395036339E-08  2.0002835600127E-08  2.1099720546713E-08 
 9.1999999999571E-01  9.1999999999798E-01  9.1999999999802E-01  9.1999999999802E-01  9.1999999999802E-01  9.1999999999802E-01  9.1999999999802E-01  9.1999999999802E-01  9.1999999999802E-01  9.1999999999918E-01 
 4.0000000002146E-02  4.0000000001010E-02  4.0000000000990E-02  4.0000000000990E-02  4.0000000000990E-02  4.0000000000990E-02  4.0000000000990E-02  4.0000000000990E-02  4.0000000000990E-02  4.0000000000410E-02 
 4.0000000002146E-02  4.0000000001010E-02  4.0000000000990E-02  4.0000000000990E-02  4.0000000000990E-02  4.0000000000990E-02  4.0000000000990E-02  4.0000000000990E-02  4.0000000000990E-02  4.0000000000410E-02 
 2.9784325333369E-02  2.9784292839823E-02  2.9784229869185E-02  2.9784137115928E-02  2.9784014587425E-02  2.9783862283275E-02  2.9783680203062E-02  2.9783468346297E-02  2.9783226712407E-02  2.9782955300735E-02 
 0.0000000000000E+00 -4.5006457927509E-09 -8.4577604208064E-09 -1.1886939293010E-08 -1.4788567297630E-08 -1.7162646881062E-08 -1.9009170964626E-08 -2.0328130875860E-08 -2.1119516465585E-08 -2.1383316129539E-08 
 3.0200000000000E+02  2.9829300652620E+02  2.9815359635905E+02  2.9815007128451E+02  2.9814999691080E+02  2.9814999561323E+02  2.9814999553062E+02  2.9814999560206E+02  2.9814999563132E+02  2.9814999872358E+02 
-2.9784325333369E-02 -2.9784297340469E-02 -2.9784238326945E-02 -2.9784149002867E-02 -2.9784029375993E-02 -2.9783879445922E-02 -2.9783699212233E-02 -2.9783488674428E-02 -2.9783247831923E-02 -2.9782976684051E-02 
-4.3601490893401E-02 -4.1006582917157E-02 -4.0909224094462E-02 -4.0906762530488E-02 -4.0906710595351E-02 -4.0906709689250E-02 -4.0906709631568E-02 -4.0906709681464E-02 -4.0906709701891E-02 -4.0906711861587E-02 
 1.3817165560033E-02  1.1222285576688E-02  1.1124985767517E-02  1.1122613527621E-02  1.1122681219358E-02  1.1122830243328E-02  1.1123010419335E-02  1.1123221007036E-02  1.1123461869968E-02  1.1123735177536E-02 
 3.4254421128348E+00  3.2556790465501E+00  3.1622646315233E+00  3.1599592022248E+00  3.1599445486436E+00  3.1599869490047E+00  3.1600388958918E+00  3.1600996880987E+00  3.1601691960747E+00  1.5801247365453E+00 
 1.7751503229505E-08  3.4622476055393E-08  5.1009750179286E-08  6.7385083942582E-08  8.3760341899473E-08  1.0013581959007E-07  1.1651156647493E-07  1.3288762839552E-07  1.4926425551181E-07  1.4926425551181E-07 
 0.0000000000000E+00  5.0532816359599E+00  8.2622534751391E+00  1.1423365392079E+01  1.4583317267500E+01  1.7743283016181E+01  2.0903295938655E+01  2.4063365230691E+01  2.7223499672769E+01  3.0383709007537E+01 
 3.0383709007358E+01  2.5330427371254E+01  2.2121455532225E+01  1.8960343615351E+01  1.5800391739919E+01  1.2640425991105E+01  9.4804130686711E+00  6.3203437766811E+00  3.1602093345876E+00  0.0000000000000E+00 
 1.0284048844320E-07  9.6811447389136E-08  9.4924383942354E-08  9.4885877471574E-08  9.4886165567290E-08  9.4887450864996E-08  9.4889009233707E-08  9.4890830710140E-08  9.4892915916614E-08  4.7447651565252E-08 
 4.5724222271743E+04  9.1448444543378E+04  9.1448444543376E+04  9.1448444543376E+04  9.1448444543376E+04  9.1448444543376E+04  9.1448444543376E+04  9.1448444543376E+04  9.1448444543376E+04  4.5724222271688E+04 
 3.3835924481004E+05  6.7671848962018E+05  6.7671848962019E+05  6.7671848962019E+05  6.7671848962019E+05  6.7671848962019E+05  6.7671848962019E+05  6.7671848962019E+05  6.7671848962019E+05  3.3835924481009E+05 
 3.8408346708178E+05  7.6816693416356E+05  7.6816693416356E+05  7.6816693416356E+05  7.6816693416356E+05  7.6816693416356E+05  7.6816693416356E+05  7.6816693416356E+05  7.6816693416356E+05  3.8408346708178E+05 
 3.5000000000000E-01  3.5000000000000E-01  3.5000000000000E-01  3.5000000000000E-01  3.5000000000000E-01  3.5000000000000E-01  3.5000000000000E-01  3.5000000000000E-01  3.5000000000000E-01  3.5000000000000E-01 
 8.5301666666667E+00  1.7060333333333E+01  1.7060333333333E+01  1.7060333333333E+01  1.7060333333333E+01  1.7060333333333E+01  1.7060333333333E+01  1.7060333333333E+01  1.7060333333333E+01  8.5301666666667E+00 
 4.0156801697913E-01  1.9083326116431E-01  1.8535772834782E-01  1.8522259445252E-01  1.8522173552550E-01  1.8522422084395E-01  1.8522726573681E-01  1.8523082910252E-01  1.8523490334741E-01  1.8523960882499E-01 
 4.3744444444444E-05  8.7488888888889E-05  8.7488888888889E-05  8.7488888888889E-05  8.7488888888889E-05  8.7488888888889E-05  8.7488888888889E-05  8.7488888888889E-05  8.7488888888889E-05  4.3744444444444E-05 
 8.6666666666642E+01  8.6666666666655E+01  8.6666666666655E+01  8.6666666666655E+01  8.6666666666655E+01  8.6666666666655E+01  8.6666666666655E+01  8.6666666666655E+01  8.6666666666655E+01  8.6666666666655E+01 
 2.1666666666691E+01  2.1666666666678E+01  2.1666666666678E+01  2.1666666666678E+01  2.1666666666678E+01  2.1666666666678E+01  2.1666666666678E+01  2.1666666666678E+01  2.1666666666678E+01  2.1666666666678E+01 
-4.6560278993291E-04 -2.1809138110770E-04 -2.1381390142074E-04 -2.1372632696951E-04 -2.1372657688347E-04 -2.1372898455723E-04 -2.1373190875869E-04 -2.1373532689815E-04 -2.1373924037617E-04 -2.1374404641907E-04 
-1.5509233504848E+04 -7.3350283873347E+03 -7.1232734426364E+03 -7.1180380821489E+03 -7.1179914260801E+03 -7.1180706783629E+03 -7.1181681621566E+03 -7.1182822878896E+03 -7.1184127616148E+03 -7.1185745784001E+03 
 3.8220751251839E-03  9.0675178900302E-03  2.2733169987527E-02  4.2804186188526E-02  6.9338181649473E-02  1.0233713606154E-01  1.4180143033941E-01  1.8773149923347E-01  2.4012784095157E-01  2.6794264223402E-01 
 4.1579963450833E-03  3.6899276094299E-03  2.8207969179663E-03  2.0761150440793E-03  1.4461422278736E-03  9.3070186808038E-04  5.2979429647647E-04  2.4342401186237E-04  7.1596816362494E-05  1.4319795537047E-05 
-1.5509236163864E+04 -7.3350326572638E+03 -7.1232820034427E+03 -7.1180530963656E+03 -7.1180150817024E+03 -7.1181051644915E+03 -7.1182156680314E+03 -7.1183450028952E+03 -7.1184928753042E+03 -7.1186639388424E+03 
 1.0819636960083E+03  4.1760914409984E+02  4.0210990751258E+02  4.0173107026997E+02  4.0173165224120E+02  4.0174242526063E+02  4.0175553732105E+02  4.0177087264530E+02  4.0178840996021E+02  4.0180848883026E+02 
-1.6591199859872E+04 -7.7526418013636E+03 -7.5253919109553E+03 -7.5197841666356E+03 -7.5197467339436E+03 -7.5198475897521E+03 -7.5199712053525E+03 -7.5201158755405E+03 -7.5202812852644E+03 -7.5204724276726E+03 
ZONE T = "ANOD, 4.0000E-08", I = 10, SOLUTIONTIME = 4.000000E-08
ZONETYPE = ORDERED
DATAPACKING = BLOCK
STRANDID = 1
 0.0000000000000E+00  8.7488888888889E-05  1.7497777777778E-04  2.6246666666667E-04  3.4995555555556E-04  4.3744444444444E-04  5.2493333333333E-04  6.1242222222222E-04  6.9991111111111E-04  7.8740000000000E-04 
 2.3768746819639E-09  4.6570195855646E-09  6.8519539670826E-09  9.0442654381521E-09  1.1236534006837E-08  1.3428831234125E-08  1.5621164535564E-08  1.7813540123135E-08  2.0005963932997E-08  2.1103838393571E-08 
 9.1999999999428E-01  9.1999999999730E-01  9.1999999999736E-01  9.1999999999736E-01  9.1999999999736E-01  9.1999999999736E-01  9.1999999999736E-01  9.1999999999736E-01  9.1999999999736E-01  9.1999999999891E-01 
 4.0000000002860E-02  4.0000000001352E-02  4.0000000001320E-02  4.0000000001319E-02  4.0000000001319E-02  4.0000000001319E-02  4.0000000001319E-02  4.0000000001319E-02  4.0000000001319E-02  4.0000000000546E-02 
 4.0000000002860E-02  4.0000000001352E-02  4.0000000001320E-02  4.0000000001319E-02  4.0000000001319E-02  4.0000000001319E-02  4.0000000001319E-02  4.0000000001319E-02  4.0000000001319E-02  4.0000000000546E-02 
 2.9794389322116E-02  2.9794356850340E-02  2.9794293635651E-02  2.9794200656123E-02  2.9794077928618E-02  2.9793925452837E-02  2.9793743228360E-02  2.9793531254699E-02  2.9793289531278E-02  2.9793018057442E-02 
 0.0000000000000E+00 -4.5019310820774E-09 -8.4556712585955E-09 -1.1881706786016E-08 -1.4780668262705E-08 -1.7152566003227E-08 -1.8997393117498E-08 -2.0315140932596E-08 -2.1105799282118E-08 -2.1369356572492E-08 