TITLE = "Solution on Domain BulkDomain1D_1"
VARIABLES = "x [m]"  
"Vel_axial" 	"MF_sp(ECDMC)" 	"MF_sp(Li+)" 	"MF_sp(PF6-)" 	"Volt(Electroly)" 	"Temperature" 	"Porosity []" 	"Control volume thickness [m]" 	"volFrac MgO(S) []" 	"qHeat_accum [J/m3]" 	"qHeat_step [W/m3]" 	"Joule_Lyte [W/m3]" 	"Joule_Solid [W/m3]" 	
ZONE T = "SEP , 0.0000E+00", I = 10, SOLUTIONTIME = 0.000000E+00
ZONETYPE = ORDERED
DATAPACKING = BLOCK
STRANDID = 2
 7.8740000000000E-04  8.4102222222222E-04  8.9464444444444E-04  9.4826666666667E-04  1.0018888888889E-03  1.0555111111111E-03  1.1091333333333E-03  1.1627555555556E-03  1.2163777777778E-03  1.2700000000000E-03 
 0.0000000000000E+00  0.0000000000000E+00  0.0000000000000E+00  0.0000000000000E+00  0.0000000000000E+00  0.0000000000000E+00  0.0000000000000E+00  0.0000000000000E+00  0.0000000000000E+00  0.0000000000000E+00 
 9.2000000000000E-01  9.2000000000000E-01  9.2000000000000E-01  9.2000000000000E-01  9.2000000000000E-01  9.2000000000000E-01  9.2000000000000E-01  9.2000000000000E-01  9.2000000000000E-01  9.2000000000000E-01 
 4.0000000000000E-02  4.0000000000000E-02  4.0000000000000E-02  4.0000000000000E-02  4.0000000000000E-02  4.0000000000000E-02  4.0000000000000E-02  4.0000000000000E-02  4.0000000000000E-02  4.0000000000000E-02 
 4.0000000000000E-02  4.0000000000000E-02  4.0000000000000E-02  4.0000000000000E-02  4.0000000000000E-02  4.0000000000000E-02  4.0000000000000E-02  4.0000000000000E-02  4.0000000000000E-02  4.0000000000000E-02 
-7.0000000000000E-02 -7.0000000000000E-02 -7.0000000000000E-02 -7.0000000000000E-02 -7.0000000000000E-02 -7.0000000000000E-02 -7.0000000000000E-02 -7.0000000000000E-02 -7.0000000000000E-02 -7.0000000000000E-02 
 2.9815000000000E+02  2.9815000000000E+02  2.9815000000000E+02  2.9815000000000E+02  2.9815000000000E+02  2.9815000000000E+02  2.9815000000000E+02  2.9815000000000E+02  2.9815000000000E+02  2.9815000000000E+02 
 8.0911499769706E-01  8.0911499769706E-01  8.0911499769706E-01  8.0911499769706E-01  8.0911499769706E-01  8.0911499769706E-01  8.0911499769706E-01  8.0911499769706E-01  8.0911499769706E-01  8.0911499769706E-01 
 2.6811111111111E-05  5.3622222222222E-05  5.3622222222222E-05  5.3622222222222E-05  5.3622222222222E-05  5.3622222222222E-05  5.3622222222222E-05  5.3622222222223E-05  5.3622222222222E-05  2.6811111111111E-05 
 1.9088500230294E-01  1.9088500230294E-01  1.9088500230294E-01  1.9088500230294E-01  1.9088500230294E-01  1.9088500230294E-01  1.9088500230294E-01  1.9088500230294E-01  1.9088500230294E-01  1.9088500230294E-01 
 0.0000000000000E+00  0.0000000000000E+00  0.0000000000000E+00  0.0000000000000E+00  0.0000000000000E+00  0.0000000000000E+00  0.0000000000000E+00  0.0000000000000E+00  0.0000000000000E+00  0.0000000000000E+00 
 0.0000000000000E+00  0.0000000000000E+00  0.0000000000000E+00  0.0000000000000E+00  0.0000000000000E+00  0.0000000000000E+00  0.0000000000000E+00  0.0000000000000E+00  0.0000000000000E+00  0.0000000000000E+00 
 0.0000000000000E+00  0.0000000000000E+00  0.0000000000000E+00  0.0000000000000E+00  0.0000000000000E+00  0.0000000000000E+00  0.0000000000000E+00  0.0000000000000E+00  0.0000000000000E+00  0.0000000000000E+00 
 0.0000000000000E+00  0.0000000000000E+00  0.0000000000000E+00  0.0000000000000E+00  0.0000000000000E+00  0.0000000000000E+00  0.0000000000000E+00  0.0000000000000E+00  0.0000000000000E+00  0.0000000000000E+00 
ZONE T = "SEP , 1.0000E-08", I = 10, SOLUTIONTIME = 1.000000E-08
ZONETYPE = ORDERED
DATAPACKING = BLOCK
STRANDID = 2
 7.8740000000000E-04  8.4102222222222E-04  8.9464444444444E-04  9.4826666666667E-04  1.0018888888889E-03  1.0555111111111E-03  1.1091333333333E-03  1.1627555555556E-03  1.2163777777778E-03  1.2700000000000E-03 
 2.1091336013041E-08  2.1091336013041E-08  2.1091336013041E-08  2.1091336013041E-08  2.1091336013041E-08  2.1091336013041E-08  2.1091336013041E-08  2.1091336013041E-08  2.1091336013041E-08  1.9920126712010E-08 
 9.1999999999973E-01  9.2000000000000E-01  9.2000000000000E-01  9.2000000000000E-01  9.2000000000000E-01  9.2000000000000E-01  9.2000000000000E-01  9.2000000000000E-01  9.2000000000000E-01  9.2000000000032E-01 
 4.0000000000137E-02  4.0000000000000E-02  4.0000000000000E-02  4.0000000000000E-02  4.0000000000000E-02  4.0000000000000E-02  4.0000000000000E-02  4.0000000000000E-02  4.0000000000000E-02  3.9999999999839E-02 
 4.0000000000137E-02  4.0000000000000E-02  4.0000000000000E-02  4.0000000000000E-02  4.0000000000000E-02  4.0000000000000E-02  4.0000000000000E-02  4.0000000000000E-02  4.0000000000000E-02  3.9999999999839E-02 
 2.9755112433974E-02  2.9755062528167E-02  2.9755012622345E-02  2.9754962716515E-02  2.9754912810708E-02  2.9754862904887E-02  2.9754812999066E-02  2.9754763093250E-02  2.9754713187429E-02  2.9754663281607E-02 
 2.9814999953363E+02  2.9814999999235E+02  2.9815000000007E+02  2.9815000000395E+02  2.9814999999980E+02  2.9814999999977E+02  2.9814999999836E+02  2.9814999999942E+02  2.9815000000557E+02  2.9815000104110E+02 
 8.0911499769706E-01  8.0911499769706E-01  8.0911499769706E-01  8.0911499769706E-01  8.0911499769706E-01  8.0911499769706E-01  8.0911499769706E-01  8.0911499769706E-01  8.0911499769706E-01  8.0911499769706E-01 
 2.6811111111111E-05  5.3622222222222E-05  5.3622222222222E-05  5.3622222222222E-05  5.3622222222222E-05  5.3622222222222E-05  5.3622222222222E-05  5.3622222222223E-05  5.3622222222222E-05  2.6811111111111E-05 
 1.9088500230294E-01  1.9088500230294E-01  1.9088500230294E-01  1.9088500230294E-01  1.9088500230294E-01  1.9088500230294E-01  1.9088500230294E-01  1.9088500230294E-01  1.9088500230294E-01  1.9088500230294E-01 
 2.8268109244702E-10  2.8268117856904E-10  2.8268131450606E-10  2.8268122850637E-10  2.8268117642970E-10  2.8268126242804E-10  2.8268123055298E-10  2.8268122829137E-10  2.8268126038961E-10  2.8268126061406E-10 
 2.8268109244702E-02  2.8268117856904E-02  2.8268131450606E-02  2.8268122850637E-02  2.8268117642970E-02  2.8268126242804E-02  2.8268123055298E-02  2.8268122829137E-02  2.8268126038961E-02  2.8268126061406E-02 
 2.8268109244702E-02  2.8268117856904E-02  2.8268131450606E-02  2.8268122850637E-02  2.8268117642970E-02  2.8268126242804E-02  2.8268123055298E-02  2.8268122829137E-02  2.8268126038961E-02  2.8268126061406E-02 
 0.0000000000000E+00  0.0000000000000E+00  0.0000000000000E+00  0.0000000000000E+00  0.0000000000000E+00  0.0000000000000E+00  0.0000000000000E+00  0.0000000000000E+00  0.0000000000000E+00  0.0000000000000E+00 
ZONE T = "SEP , 2.0000E-08", I = 10, SOLUTIONTIME = 2.000000E-08
ZONETYPE = ORDERED
DATAPACKING = BLOCK
STRANDID = 2
 7.8740000000000E-04  8.4102222222222E-04  8.9464444444444E-04  9.4826666666667E-04  1.0018888888889E-03  1.0555111111111E-03  1.1091333333333E-03  1.1627555555556E-03  1.2163777777778E-03  1.2700000000000E-03 
 2.1085419728848E-08  2.1083966897937E-08  2.1083966897937E-08  2.1083966897937E-08  2.1083966897937E-08  2.1083966897937E-08  2.1083966897937E-08  2.1083966897937E-08  2.1083966897937E-08  1.9913427942068E-08 
 9.1999999999945E-01  9.2000000000000E-01  9.2000000000000E-01  9.2000000000000E-01  9.2000000000000E-01  9.2000000000000E-01  9.2000000000000E-01  9.2000000000000E-01  9.2000000000000E-01  9.2000000000064E-01 
 4.0000000000273E-02  4.0000000000000E-02  4.0000000000000E-02  4.0000000000000E-02  4.0000000000000E-02  4.0000000000000E-02  4.0000000000000E-02  4.0000000000000E-02  4.0000000000000E-02  3.9999999999679E-02 
 4.0000000000273E-02  4.0000000000000E-02  4.0000000000000E-02  4.0000000000000E-02  4.0000000000000E-02  4.0000000000000E-02  4.0000000000000E-02  4.0000000000000E-02  4.0000000000000E-02  3.9999999999679E-02 
 2.9765298058765E-02  2.9765248144170E-02  2.9765198229575E-02  2.9765148314980E-02  2.9765098400385E-02  2.9765048485790E-02  2.9764998571195E-02  2.9764948656600E-02  2.9764898742005E-02  2.9764848827410E-02 
 2.9814999911322E+02  2.9814999997331E+02  2.9814999999421E+02  2.9815000000366E+02  2.9814999999982E+02  2.9815000000511E+02  2.9814999999835E+02  2.9814999999975E+02  2.9815000002600E+02  2.9815000215651E+02 
 8.0911499769706E-01  8.0911499769706E-01  8.0911499769706E-01  8.0911499769706E-01  8.0911499769706E-01  8.0911499769706E-01  8.0911499769706E-01  8.0911499769706E-01  8.0911499769706E-01  8.0911499769706E-01 
 2.6811111111111E-05  5.3622222222222E-05  5.3622222222222E-05  5.3622222222222E-05  5.3622222222222E-05  5.3622222222222E-05  5.3622222222222E-05  5.3622222222223E-05  5.3622222222222E-05  2.6811111111111E-05 
 1.9088500230294E-01  1.9088500230294E-01  1.9088500230294E-01  1.9088500230294E-01  1.9088500230294E-01  1.9088500230294E-01  1.9088500230294E-01  1.9088500230294E-01  1.9088500230294E-01  1.9088500230294E-01 
 5.6546175373931E-10  5.6546184006473E-10  5.6546197619794E-10  5.6546189020938E-10  5.6546183813104E-10  5.6546192412938E-10  5.6546189225594E-10  5.6546188998904E-10  5.6546192261050E-10  5.6546192334508E-10 
 2.8278066129230E-02  2.8278066149569E-02  2.8278066169188E-02  2.8278066170301E-02  2.8278066170134E-02  2.8278066170134E-02  2.8278066170296E-02  2.8278066169767E-02  2.8278066222089E-02  2.8278066273101E-02 
 2.8278066129230E-02  2.8278066149569E-02  2.8278066169188E-02  2.8278066170301E-02  2.8278066170134E-02  2.8278066170134E-02  2.8278066170296E-02  2.8278066169767E-02  2.8278066222089E-02  2.8278066273101E-02 
 0.0000000000000E+00  0.0000000000000E+00  0.0000000000000E+00  0.0000000000000E+00  0.0000000000000E+00  0.0000000000000E+00  0.0000000000000E+00  0.0000000000000E+00  0.0000000000000E+00  0.0000000000000E+00 
ZONE T = "SEP , 3.0000E-08", I = 10, SOLUTIONTIME = 3.000000E-08
ZONETYPE = ORDERED
DATAPACKING = BLOCK
STRANDID = 2
 7.8740000000000E-04  8.4102222222222E-04  8.9464444444444E-04  9.4826666666667E-04  1.0018888888889E-03  1.0555111111111E-03  1.1091333333333E-03  1.1627555555556E-03  1.2163777777778E-03  1.2700000000000E-03 
 2.1099720690408E-08  2.1101173521319E-08  2.1101173521319E-08  2.1101173521319E-08  2.1101173521319E-08  2.1101173521319E-08  2.1101173521319E-08  2.1101173521319E-08  2.1101173521319E-08  1.9929132992938E-08 
 9.1999999999918E-01  9.2000000000000E-01  9.2000000000000E-01  9.2000000000000E-01  9.2000000000000E-01  9.2000000000000E-01  9.2000000000000E-01  9.2000000000000E-01  9.2000000000000E-01  9.2000000000096E-01 
 4.0000000000410E-02  4.0000000000000E-02  4.0000000000000E-02  4.0000000000000E-02  4.0000000000000E-02  4.0000000000000E-02  4.0000000000000E-02  4.0000000000000E-02  4.0000000000000E-02  3.9999999999518E-02 
 4.0000000000410E-02  4.0000000000000E-02  4.0000000000000E-02  4.0000000000000E-02  4.0000000000000E-02  4.0000000000000E-02  4.0000000000000E-02  4.0000000000000E-02  4.0000000000000E-02  3.9999999999518E-02 
 2.9775422210251E-02  2.9775372287170E-02  2.9775322364089E-02  2.9775272441009E-02  2.9775222517928E-02  2.9775172594847E-02  2.9775122671766E-02  2.9775072748685E-02  2.9775022825605E-02  2.9774972902523E-02 
 2.9814999875360E+02  2.9814999997039E+02  2.9815000000443E+02  2.9815000000328E+02  2.9815000000529E+02  2.9815000000464E+02  2.9814999999845E+02  2.9815000000631E+02  2.9815000005230E+02  2.9815000327485E+02 
 8.0911499769706E-01  8.0911499769706E-01  8.0911499769706E-01  8.0911499769706E-01  8.0911499769706E-01  8.0911499769706E-01  8.0911499769706E-01  8.0911499769706E-01  8.0911499769706E-01  8.0911499769706E-01 
 2.6811111111111E-05  5.3622222222222E-05  5.3622222222222E-05  5.3622222222222E-05  5.3622222222222E-05  5.3622222222222E-05  5.3622222222222E-05  5.3622222222223E-05  5.3622222222222E-05  2.6811111111111E-05 
 1.9088500230294E-01  1.9088500230294E-01  1.9088500230294E-01  1.9088500230294E-01  1.9088500230294E-01  1.9088500230294E-01  1.9088500230294E-01  1.9088500230294E-01  1.9088500230294E-01  1.9088500230294E-01 
 8.4833857314918E-10  8.4833865978660E-10  8.4833879622402E-10  8.4833871022745E-10  8.4833865814859E-10  8.4833874414823E-10  8.4833871227601E-10  8.4833871001561E-10  8.4833874344053E-10  8.4833874497168E-10 
 2.8287681940987E-02  2.8287681972188E-02  2.8287682002608E-02  2.8287682001807E-02  2.8287682001755E-02  2.8287682001885E-02  2.8287682002008E-02  2.8287682002657E-02  2.8287682083003E-02  2.8287682162660E-02 
 2.8287681940987E-02  2.8287681972188E-02  2.8287682002608E-02  2.8287682001807E-02  2.8287682001755E-02  2.8287682001885E-02  2.8287682002008E-02  2.8287682002657E-02  2.8287682083003E-02  2.8287682162660E-02 
 0.0000000000000E+00  0.0000000000000E+00  0.0000000000000E+00  0.0000000000000E+00  0.0000000000000E+00  0.0000000000000E+00  0.0000000000000E+00  0.0000000000000E+00  0.0000000000000E+00  0.0000000000000E+00 
ZONE T = "SEP , 4.0000E-08", I = 10, SOLUTIONTIME = 4.000000E-08
ZONETYPE = ORDERED
DATAPACKING = BLOCK
STRANDID = 2
 7.8740000000000E-04  8.4102222222222E-04  8.9464444444444E-04  9.4826666666667E-04  1.0018888888889E-03  1.0555111111111E-03  1.1091333333333E-03  1.1627555555556E-03  1.2163777777778E-03  1.2700000000000E-03 
 2.1103838572704E-08  2.1103838572704E-08  2.1103838572704E-08  2.1103838572704E-08  2.1103838572704E-08  2.1103838572704E-08  2.1103838572704E-08  2.1103838572704E-08  2.1103838572704E-08  1.9931932253480E-08 
 9.1999999999891E-01  9.2000000000000E-01  9.2000000000000E-01  9.2000000000000E-01  9.2000000000000E-01  9.2000000000000E-01  9.2000000000000E-01  9.2000000000000E-01  9.2000000000000E-01  9.2000000000129E-01 
 4.0000000000546E-02  4.0000000000000E-02  4.0000000000000E-02  4.0000000000000E-02  4.0000000000000E-02  4.0000000000000E-02  4.0000000000000E-02  4.0000000000000E-02  4.0000000000000E-02  3.9999999999357E-02 
 4.0000000000546E-02  4.0000000000000E-02  4.0000000000000E-02  4.0000000000000E-02  4.0000000000000E-02  4.0000000000000E-02  4.0000000000000E-02  4.0000000000000E-02  4.0000000000000E-02  3.9999999999357E-02 
 2.9785485015865E-02  2.9785435084330E-02  2.9785385152794E-02  2.9785335221259E-02  2.9785285289724E-02  2.9785235358188E-02  2.9785185426653E-02  2.9785135495118E-02  2.9785085563582E-02  2.9785035632047E-02 
 2.9814999838221E+02  2.9814999995782E+02  2.9815000000808E+02  2.9815000000849E+02  2.9815000001046E+02  2.9815000000395E+02  2.9814999998780E+02  2.9815000000296E+02  2.9815000008654E+02  2.9815000442999E+02 
 8.0911499769706E-01  8.0911499769706E-01  8.0911499769706E-01  8.0911499769706E-01  8.0911499769706E-01  8.0911499769706E-01  8.0911499769706E-01  8.0911499769706E-01  8.0911499769706E-01  8.0911499769706E-01 
 2.6811111111111E-05  5.3622222222222E-05  5.3622222222222E-05  5.3622222222222E-05  5.3622222222222E-05  5.3622222222222E-05  5.3622222222222E-05  5.3622222222223E-05  5.3622222222222E-05  2.6811111111111E-05 
 1.9088500230294E-01  1.9088500230294E-01  1.9088500230294E-01  1.9088500230294E-01  1.9088500230294E-01  1.9088500230294E-01  1.9088500230294E-01  1.9088500230294E-01  1.9088500230294E-01  1.9088500230294E-01 
 1.1313112113457E-09  1.1313112983632E-09  1.1313114351883E-09  1.1313113492185E-09  1.1313112971402E-09  1.1313113831266E-09  1.1313113512600E-09  1.1313113490157E-09  1.1313113835088E-09  1.1313113860922E-09 
 2.8297263819651E-02  2.8297263857659E-02  2.8297263896431E-02  2.8297263899105E-02  2.8297263899156E-02  2.8297263897836E-02  2.8297263898397E-02  2.8297263900010E-02  2.8297264006828E-02  2.8297264112057E-02 
 2.8297263819651E-02  2.8297263857659E-02  2.8297263896431E-02  2.8297263899105E-02  2.8297263899156E-02  2.8297263897836E-02  2.8297263898397E-02  2.8297263900010E-02  2.8297264006828E-02  2.8297264112057E-02 
 0.0000000000000E+00  0.0000000000000E+00  0.0000000000000E+00  0.0000000000000E+00  0.0000000000000E+00  0.0000000000000E+00  0.0000000000000E+00  0.0000000000000E+00  0.0000000000000E+00  0.0000000000000E+00 
ZONE T = "SEP , 5.5000E-08", I = 10, SOLUTIONTIME = 5.500000E-08
ZONETYPE = ORDERED
DATAPACKING = BLOCK
STRANDID = 2
 7.8740000000000E-04  8.4102222222222E-04  8.9464444444444E-04  9.4826666666667E-04  1.0018888888889E-03  1.0555111111111E-03  1.1091333333333E-03  1.1627555555556E-03  1.2163777777778E-03  1.2700000000000E-03 
 2.1105705051941E-08  2.1105705051941E-08  2.1105705051941E-08  2.1105705051941E-08  2.1105705051941E-08  2.1105705051941E-08  2.1105705051941E-08  2.1105705051941E-08  2.1105705051941E-08  1.9933095688746E-08 
 9.1999999999850E-01  9.2000000000000E-01  9.2000000000000E-01  9.2000000000000E-01  9.2000000000000E-01  9.2000000000000E-01  9.2000000000000E-01  9.2000000000000E-01  9.2000000000000E-01  9.2000000000177E-01 
 4.0000000000750E-02  4.0000000000000E-02  4.0000000000000E-02  4.0000000000000E-02  4.0000000000000E-02  4.0000000000000E-02  4.0000000000000E-02  4.0000000000000E-02  4.0000000000000E-02  3.9999999999116E-02 
 4.0000000000750E-02  4.0000000000000E-02  4.0000000000000E-02  4.0000000000000E-02  4.0000000000000E-02  4.0000000000000E-02  4.0000000000000E-02  4.0000000000000E-02  4.0000000000000E-02  3.9999999999116E-02 
 2.9800414609682E-02  2.9800364665566E-02  2.9800314721450E-02  2.9800264777334E-02  2.9800214833218E-02  2.9800164889101E-02  2.9800114944985E-02  2.9800065000869E-02  2.9800015056753E-02  2.9799965112636E-02 
 2.9814999774165E+02  2.9814999992874E+02  2.9815000000592E+02  2.9815000000524E+02  2.9815000001226E+02  2.9815000000783E+02  2.9814999998407E+02  2.9815000000694E+02  2.9815000016404E+02  2.9815000616563E+02 
 8.0911499769706E-01  8.0911499769706E-01  8.0911499769706E-01  8.0911499769706E-01  8.0911499769706E-01  8.0911499769706E-01  8.0911499769706E-01  8.0911499769706E-01  8.0911499769706E-01  8.0911499769706E-01 
 2.6811111111111E-05  5.3622222222222E-05  5.3622222222222E-05  5.3622222222222E-05  5.3622222222222E-05  5.3622222222222E-05  5.3622222222222E-05  5.3622222222223E-05  5.3622222222222E-05  2.6811111111111E-05 
 1.9088500230294E-01  1.9088500230294E-01  1.9088500230294E-01  1.9088500230294E-01  1.9088500230294E-01  1.9088500230294E-01  1.9088500230294E-01  1.9088500230294E-01  1.9088500230294E-01  1.9088500230294E-01 
 1.5559840901192E-09  1.5559841779510E-09  1.5559843155926E-09  1.5559842296523E-09  1.5559841776003E-09  1.5559842635663E-09  1.5559842316806E-09  1.5559842295200E-09  1.5559842662673E-09  1.5559842710214E-09 
 2.8311525251569E-02  2.8311525305853E-02  2.8311525360287E-02  2.8311525362254E-02  2.8311525364009E-02  2.8311525362650E-02  2.8311525361374E-02  2.8311525366956E-02  2.8311525517230E-02  2.8311525661943E-02 
 2.8311525251569E-02  2.8311525305853E-02  2.8311525360287E-02  2.8311525362254E-02  2.8311525364009E-02  2.8311525362650E-02  2.8311525361374E-02  2.8311525366956E-02  2.8311525517230E-02  2.8311525661943E-02 
 0.0000000000000E+00  0.0000000000000E+00  0.0000000000000E+00  0.0000000000000E+00  0.0000000000000E+00  0.0000000000000E+00  0.0000000000000E+00  0.0000000000000E+00  0.0000000000000E+00  0.0000000000000E+00 
ZONE T = "SEP , 7.7500E-08", I = 10, SOLUTIONTIME = 7.750000E-08
ZONETYPE = ORDERED
DATAPACKING = BLOCK
STRANDID = 2
 7.8740000000000E-04  8.4102222222222E-04  8.9464444444444E-04  9.4826666666667E-04  1.0018888888889E-03  1.0555111111111E-03  1.1091333333333E-03  1.1627555555556E-03  1.2163777777778E-03  1.2700000000000E-03 
 2.1115880636039E-08  2.1115880636039E-08  2.1115880636039E-08  2.1115880636039E-08  2.1115880636039E-08  2.1115880636039E-08  2.1115880636039E-08  2.1115880636039E-08  2.1115880636039E-08  1.9943375095231E-08 
 9.1999999999789E-01  9.2000000000000E-01  9.2000000000000E-01  9.2000000000000E-01  9.2000000000000E-01  9.2000000000000E-01  9.2000000000000E-01  9.2000000000000E-01  9.2000000000000E-01  9.2000000000249E-01 
 4.0000000001055E-02  4.0000000000000E-02  4.0000000000000E-02  4.0000000000000E-02  4.0000000000000E-02  4.0000000000000E-02  4.0000000000000E-02  4.0000000000000E-02  4.0000000000000E-02  3.9999999998755E-02 
 4.0000000001055E-02  4.0000000000000E-02  4.0000000000000E-02  4.0000000000000E-02  4.0000000000000E-02  4.0000000000000E-02  4.0000000000000E-02  4.0000000000000E-02  4.0000000000000E-02  3.9999999998755E-02 
 2.9822438938070E-02  2.9822388975320E-02  2.9822339012570E-02  2.9822289049819E-02  2.9822239087069E-02  2.9822189124318E-02  2.9822139161568E-02  2.9822089198817E-02  2.9822039236067E-02  2.9821989273316E-02 
 2.9814999677590E+02  2.9814999987572E+02  2.9815000000318E+02  2.9815000000560E+02  2.9815000000375E+02  2.9815000000175E+02  2.9814999998028E+02  2.9815000000801E+02  2.9815000032674E+02  2.9815000886665E+02 
 8.0911499769706E-01  8.0911499769706E-01  8.0911499769706E-01  8.0911499769706E-01  8.0911499769706E-01  8.0911499769706E-01  8.0911499769706E-01  8.0911499769706E-01  8.0911499769706E-01  8.0911499769706E-01 
 2.6811111111111E-05  5.3622222222222E-05  5.3622222222222E-05  5.3622222222222E-05  5.3622222222222E-05  5.3622222222222E-05  5.3622222222222E-05  5.3622222222223E-05  5.3622222222222E-05  2.6811111111111E-05 
 1.9088500230294E-01  1.9088500230294E-01  1.9088500230294E-01  1.9088500230294E-01  1.9088500230294E-01  1.9088500230294E-01  1.9088500230294E-01  1.9088500230294E-01  1.9088500230294E-01  1.9088500230294E-01 
 2.1934688353749E-09  2.1934689249302E-09  2.1934690643588E-09  2.1934689785259E-09  2.1934689264756E-09  2.1934690123677E-09  2.1934689804911E-09  2.1934689785405E-09  2.1934690202339E-09  2.1934690297653E-09 
 2.8332655344698E-02  2.8332655421300E-02  2.8332655500720E-02  2.8332655505490E-02  2.8332655505568E-02  2.8332655502282E-02  2.8332655502692E-02  2.8332655512019E-02  2.8332655731851E-02  2.8332655944175E-02 
 2.8332655344698E-02  2.8332655421300E-02  2.8332655500720E-02  2.8332655505490E-02  2.8332655505568E-02  2.8332655502282E-02  2.8332655502692E-02  2.8332655512019E-02  2.8332655731851E-02  2.8332655944175E-02 
 0.0000000000000E+00  0.0000000000000E+00  0.0000000000000E+00  0.0000000000000E+00  0.0000000000000E+00  0.0000000000000E+00  0.0000000000000E+00  0.0000000000000E+00  0.0000000000000E+00  0.0000000000000E+00 
ZONE T = "SEP , 1.1125E-07", I = 10, SOLUTIONTIME = 1.112500E-07
ZONETYPE = ORDERED
DATAPACKING = BLOCK
STRANDID = 2
 7.8740000000000E-04  8.4102222222222E-04  8.9464444444444E-04  9.4826666666667E-04  1.0018888888889E-03  1.0555111111111E-03  1.1091333333333E-03  1.1627555555556E-03  1.2163777777778E-03  1.2700000000000E-03 
 2.1127726880358E-08  2.1127296411940E-08  2.1127296411940E-08  2.1127296411940E-08  2.1127296411940E-08  2.1127296411940E-08  2.1127296411940E-08  2.1127296411940E-08  2.1127296411940E-08  1.9953814837344E-08 
 9.1999999999698E-01  9.2000000000000E-01  9.2000000000000E-01  9.2000000000000E-01  9.2000000000000E-01  9.2000000000000E-01  9.2000000000000E-01  9.2000000000000E-01  9.2000000000000E-01  9.2000000000358E-01 
 4.0000000001512E-02  4.0000000000000E-02  4.0000000000000E-02  4.0000000000000E-02  4.0000000000000E-02  4.0000000000000E-02  4.0000000000000E-02  4.0000000000000E-02  4.0000000000000E-02  3.9999999998212E-02 
 4.0000000001512E-02  4.0000000000000E-02  4.0000000000000E-02  4.0000000000000E-02  4.0000000000000E-02  4.0000000000000E-02  4.0000000000000E-02  4.0000000000000E-02  4.0000000000000E-02  3.9999999998212E-02 
 2.9854649823526E-02  2.9854599833382E-02  2.9854549843238E-02  2.9854499853094E-02  2.9854449862950E-02  2.9854399872806E-02  2.9854349882662E-02  2.9854299892517E-02  2.9854249902373E-02  2.9854199912228E-02 
 2.9814999529751E+02  2.9814999972875E+02  2.9814999999443E+02  2.9815000000029E+02  2.9815000000722E+02  2.9815000000298E+02  2.9814999998342E+02  2.9815000002940E+02  2.9815000067117E+02  2.9815001306569E+02 
 8.0911499769706E-01  8.0911499769706E-01  8.0911499769706E-01  8.0911499769706E-01  8.0911499769706E-01  8.0911499769706E-01  8.0911499769706E-01  8.0911499769706E-01  8.0911499769706E-01  8.0911499769706E-01 
 2.6811111111111E-05  5.3622222222222E-05  5.3622222222222E-05  5.3622222222222E-05  5.3622222222222E-05  5.3622222222222E-05  5.3622222222222E-05  5.3622222222223E-05  5.3622222222222E-05  2.6811111111111E-05 
 1.9088500230294E-01  1.9088500230294E-01  1.9088500230294E-01  1.9088500230294E-01  1.9088500230294E-01  1.9088500230294E-01  1.9088500230294E-01  1.9088500230294E-01  1.9088500230294E-01  1.9088500230294E-01 
 3.1507448032151E-09  3.1507448965651E-09  3.1507450399690E-09  3.1507449543729E-09  3.1507449023766E-09  3.1507449882193E-09  3.1507449563406E-09  3.1507449549461E-09  3.1507450076701E-09  3.1507450277211E-09 
 2.8363732380449E-02  2.8363732492884E-02  2.8363732610673E-02  2.8363732617690E-02  2.8363732619290E-02  2.8363732617824E-02  2.8363732617762E-02  2.8363732634241E-02  2.8363732961072E-02  2.8363733272762E-02 
 2.8363732380449E-02  2.8363732492884E-02  2.8363732610673E-02  2.8363732617690E-02  2.8363732619290E-02  2.8363732617824E-02  2.8363732617762E-02  2.8363732634241E-02  2.8363732961072E-02  2.8363733272762E-02 
 0.0000000000000E+00  0.0000000000000E+00  0.0000000000000E+00  0.0000000000000E+00  0.0000000000000E+00  0.0000000000000E+00  0.0000000000000E+00  0.0000000000000E+00  0.0000000000000E+00  0.0000000000000E+00 
ZONE T = "SEP , 1.6188E-07", I = 10, SOLUTIONTIME = 1.618750E-07
ZONETYPE = ORDERED
DATAPACKING = BLOCK
STRANDID = 2
 7.8740000000000E-04  8.4102222222222E-04  8.9464444444444E-04  9.4826666666667E-04  1.0018888888889E-03  1.0555111111111E-03  1.1091333333333E-03  1.1627555555556E-03  1.2163777777778E-03  1.2700000000000E-03 
 2.1143543562843E-08  2.1143830541789E-08  2.1143830541789E-08  2.1143830541789E-08  2.1143830541789E-08  2.1143830541789E-08  2.1143830541789E-08  2.1143830541789E-08  2.1143830541789E-08  1.9969360154461E-08 
 9.1999999999561E-01  9.2000000000000E-01  9.2000000000000E-01  9.2000000000000E-01  9.2000000000000E-01  9.2000000000000E-01  9.2000000000000E-01  9.2000000000000E-01  9.2000000000000E-01  9.2000000000521E-01 
 4.0000000002195E-02  4.0000000000001E-02  4.0000000000000E-02  4.0000000000000E-02  4.0000000000000E-02  4.0000000000000E-02  4.0000000000000E-02  4.0000000000000E-02  3.9999999999999E-02  3.9999999997397E-02 
 4.0000000002195E-02  4.0000000000001E-02  4.0000000000000E-02  4.0000000000000E-02  4.0000000000000E-02  4.0000000000000E-02  4.0000000000000E-02  4.0000000000000E-02  3.9999999999999E-02  3.9999999997397E-02 
 2.9901160422331E-02  2.9901110392385E-02  2.9901060362440E-02  2.9901010332494E-02  2.9900960302548E-02  2.9900910272602E-02  2.9900860242656E-02  2.9900810212710E-02  2.9900760182764E-02  2.9900710152817E-02 
 2.9814999305080E+02  2.9814999947158E+02  2.9814999997164E+02  2.9815000000668E+02  2.9815000001050E+02  2.9814999999959E+02  2.9814999999212E+02  2.9815000008494E+02  2.9815000143307E+02  2.9815001961432E+02 
 8.0911499769706E-01  8.0911499769706E-01  8.0911499769706E-01  8.0911499769706E-01  8.0911499769706E-01  8.0911499769706E-01  8.0911499769706E-01  8.0911499769706E-01  8.0911499769706E-01  8.0911499769706E-01 
 2.6811111111111E-05  5.3622222222222E-05  5.3622222222222E-05  5.3622222222222E-05  5.3622222222222E-05  5.3622222222222E-05  5.3622222222222E-05  5.3622222222223E-05  5.3622222222222E-05  2.6811111111111E-05 
 1.9088500230294E-01  1.9088500230294E-01  1.9088500230294E-01  1.9088500230294E-01  1.9088500230294E-01  1.9088500230294E-01  1.9088500230294E-01  1.9088500230294E-01  1.9088500230294E-01  1.9088500230294E-01 
 4.5889461831046E-09  4.5889462848444E-09  4.5889464371896E-09  4.5889463522976E-09  4.5889463003627E-09  4.5889463861363E-09  4.5889463543764E-09  4.5889463548315E-09  4.5889464328090E-09  4.5889464763606E-09 
 2.8408916145966E-02  2.8408916311689E-02  2.8408916488307E-02  2.8408916502216E-02  2.8408916503429E-02  2.8408916502065E-02  2.8408916504410E-02  2.8408916540945E-02  2.8408917039782E-02  2.8408917503991E-02 
 2.8408916145966E-02  2.8408916311689E-02  2.8408916488307E-02  2.8408916502216E-02  2.8408916503429E-02  2.8408916502065E-02  2.8408916504410E-02  2.8408916540945E-02  2.8408917039782E-02  2.8408917503991E-02 
 0.0000000000000E+00  0.0000000000000E+00  0.0000000000000E+00  0.0000000000000E+00  0.0000000000000E+00  0.0000000000000E+00  0.0000000000000E+00  0.0000000000000E+00  0.0000000000000E+00  0.0000000000000E+00 
ZONE T = "SEP , 2.3781E-07", I = 10, SOLUTIONTIME = 2.378125E-07
ZONETYPE = ORDERED
DATAPACKING = BLOCK
STRANDID = 2
 7.8740000000000E-04  8.4102222222222E-04  8.9464444444444E-04  9.4826666666667E-04  1.0018888888889E-03  1.0555111111111E-03  1.1091333333333E-03  1.1627555555556E-03  1.2163777777778E-03  1.2700000000000E-03 
 2.1167811670688E-08  2.1167811670688E-08  2.1167811670688E-08  2.1167811670688E-08  2.1167811670688E-08  2.1167811670688E-08  2.1167811670688E-08  2.1167811670688E-08  2.1167716011039E-08  1.9991668390742E-08 
 9.1999999999358E-01  9.2000000000000E-01  9.2000000000000E-01  9.2000000000000E-01  9.2000000000000E-01  9.2000000000000E-01  9.2000000000000E-01  9.2000000000000E-01  9.2000000000000E-01  9.2000000000765E-01 
 4.0000000003212E-02  4.0000000000001E-02  4.0000000000000E-02  4.0000000000000E-02  4.0000000000000E-02  4.0000000000000E-02  4.0000000000000E-02  4.0000000000000E-02  3.9999999999998E-02  3.9999999996173E-02 
 4.0000000003212E-02  4.0000000000001E-02  4.0000000000000E-02  4.0000000000000E-02  4.0000000000000E-02  4.0000000000000E-02  4.0000000000000E-02  4.0000000000000E-02  3.9999999999998E-02  3.9999999996173E-02 
 2.9967107529940E-02  2.9967057443167E-02  2.9967007356392E-02  2.9966957269618E-02  2.9966907182844E-02  2.9966857096069E-02  2.9966807009295E-02  2.9966756922521E-02  2.9966706835746E-02  2.9966656748969E-02 
 2.9814998966555E+02  2.9814999890916E+02  2.9814999990407E+02  2.9814999998974E+02  2.9815000000668E+02  2.9815000000302E+02  2.9815000001433E+02  2.9815000026208E+02  2.9815000305082E+02  2.9815002980408E+02 
 8.0911499769706E-01  8.0911499769706E-01  8.0911499769706E-01  8.0911499769706E-01  8.0911499769706E-01  8.0911499769706E-01  8.0911499769706E-01  8.0911499769706E-01  8.0911499769706E-01  8.0911499769706E-01 
 2.6811111111111E-05  5.3622222222222E-05  5.3622222222222E-05  5.3622222222222E-05  5.3622222222222E-05  5.3622222222222E-05  5.3622222222222E-05  5.3622222222223E-05  5.3622222222222E-05  2.6811111111111E-05 