TITLE = "Solution on Domain BulkDomain1D_2"
VARIABLES = "x [m]"  
"Vel_axial" 	"MF_sp(ECDMC)" 	"MF_sp(Li+)" 	"MF_sp(PF6-)" 	"Volt(Electroly)" 	"Volt(CathodeVo)" 	"Temperature" 	
"Potential Drop Electrode-Electrolyte [V]" 	"Surf_0 Equilibrium Potential Drop Electrode-Electrolyte [V]" 	"Overpotential_0 [V]" 	"Current Source [A/m^2]" 	"Li+ flux [kmol/m^2/s]" 	"Electrolyte Current [A/m^2]" 	"Electrode Current [A/m^2]" 	
"CV Capacity discharged [A-s/m^2]" 	"Depth of discharge in CV [A-s/m^2]" 	"CV Capacity remaining [A-s/m^2]" 	"Initial CV capacity [A-s/m^2]" 	"Porosity []" 	"Surface Area [m2/m2] (area per area)" 	"Specific current (per particle area) [A/m^2]" 	"Control volume thickness [m]" 	
"MoleDens LiCoO2 [kmol/m^3]" 	"MoleDens CoO2 [kmol/m^3]" 	"qHeat_accum [J/m3]" 	"qHeat_step [W/m3]" 	"Joule_Lyte [W/m3]" 	"Joule_Solid [W/m3]" 	"electrodHeat [W/m3]" 	"OverpotHeat [W/m3]" 	"deltaSHeat [W/m3]" 	

ZONE T = "CATH, 0.0000E+00", I = 10, SOLUTIONTIME = 0.000000E+00
ZONETYPE = ORDERED
DATAPACKING = BLOCK
STRANDID = 3
 1.2700000000000E-03  1.3377333333333E-03  1.4054666666667E-03  1.4732000000000E-03  1.5409333333333E-03  1.6086666666667E-03  1.6764000000000E-03  1.7441333333333E-03  1.8118666666667E-03  1.8796000000000E-03 
 0.0000000000000E+00  0.0000000000000E+00  0.0000000000000E+00  0.0000000000000E+00  0.0000000000000E+00  0.0000000000000E+00  0.0000000000000E+00  0.0000000000000E+00  0.0000000000000E+00  0.0000000000000E+00 
 9.2000000000000E-01  9.2000000000000E-01  9.2000000000000E-01  9.2000000000000E-01  9.2000000000000E-01  9.2000000000000E-01  9.2000000000000E-01  9.2000000000000E-01  9.2000000000000E-01  9.2000000000000E-01 
 4.0000000000000E-02  4.0000000000000E-02  4.0000000000000E-02  4.0000000000000E-02  4.0000000000000E-02  4.0000000000000E-02  4.0000000000000E-02  4.0000000000000E-02  4.0000000000000E-02  4.0000000000000E-02 
 4.0000000000000E-02  4.0000000000000E-02  4.0000000000000E-02  4.0000000000000E-02  4.0000000000000E-02  4.0000000000000E-02  4.0000000000000E-02  4.0000000000000E-02  4.0000000000000E-02  4.0000000000000E-02 
-7.0000000000000E-02 -7.0000000000000E-02 -7.0000000000000E-02 -7.0000000000000E-02 -7.0000000000000E-02 -7.0000000000000E-02 -7.0000000000000E-02 -7.0000000000000E-02 -7.0000000000000E-02 -7.0000000000000E-02 
 3.8000000000000E+00  3.8000000000000E+00  3.8000000000000E+00  3.8000000000000E+00  3.8000000000000E+00  3.8000000000000E+00  3.8000000000000E+00  3.8000000000000E+00  3.8000000000000E+00  3.8000000000000E+00 
 2.9815000000000E+02  2.9815000000000E+02  2.9815000000000E+02  2.9815000000000E+02  2.9815000000000E+02  2.9815000000000E+02  2.9815000000000E+02  2.9815000000000E+02  2.9815000000000E+02  2.9800000000000E+02 
 3.8700000000000E+00  3.8700000000000E+00  3.8700000000000E+00  3.8700000000000E+00  3.8700000000000E+00  3.8700000000000E+00  3.8700000000000E+00  3.8700000000000E+00  3.8700000000000E+00  3.8700000000000E+00 
 3.9714142713289E+00  3.9714142713289E+00  3.9714142713289E+00  3.9714142713289E+00  3.9714142713289E+00  3.9714142713289E+00  3.9714142713289E+00  3.9714142713289E+00  3.9714142713289E+00  3.9715353395963E+00 
-1.0141427132889E-01 -1.0141427132889E-01 -1.0141427132889E-01 -1.0141427132889E-01 -1.0141427132889E-01 -1.0141427132889E-01 -1.0141427132889E-01 -1.0141427132889E-01 -1.0141427132889E-01 -1.0153533959628E-01 
-2.3826357195711E-01 -4.7652714391422E-01 -4.7652714391423E-01 -4.7652714391422E-01 -4.7652714391423E-01 -4.7652714391423E-01 -4.7652714391422E-01 -4.7652714391423E-01 -4.7652714391422E-01 -2.3524219296987E-01 
-0.0000000000000E+00 -0.0000000000000E+00 -0.0000000000000E+00 -0.0000000000000E+00 -0.0000000000000E+00 -0.0000000000000E+00 -0.0000000000000E+00 -0.0000000000000E+00 -0.0000000000000E+00 -0.0000000000000E+00 
 2.3826357195711E-01  0.0000000000000E+00  0.0000000000000E+00  0.0000000000000E+00  0.0000000000000E+00  0.0000000000000E+00  0.0000000000000E+00  0.0000000000000E+00  0.0000000000000E+00  0.0000000000000E+00 
 0.0000000000000E+00 -0.0000000000000E+00 -0.0000000000000E+00 -0.0000000000000E+00 -0.0000000000000E+00 -0.0000000000000E+00 -0.0000000000000E+00 -0.0000000000000E+00 -0.0000000000000E+00  2.3524219296987E-01 
-0.0000000000000E+00 -0.0000000000000E+00 -0.0000000000000E+00 -0.0000000000000E+00 -0.0000000000000E+00 -0.0000000000000E+00 -0.0000000000000E+00 -0.0000000000000E+00 -0.0000000000000E+00 -0.0000000000000E+00 
 7.2440786946225E+03  1.4488157389245E+04  1.4488157389245E+04  1.4488157389245E+04  1.4488157389245E+04  1.4488157389245E+04  1.4488157389245E+04  1.4488157389245E+04  1.4488157389245E+04  7.2440786946225E+03 
 4.9259735123433E+04  9.8519470246865E+04  9.8519470246866E+04  9.8519470246865E+04  9.8519470246866E+04  9.8519470246866E+04  9.8519470246865E+04  9.8519470246866E+04  9.8519470246865E+04  4.9259735123433E+04 
 5.6503813818055E+04  1.1300762763611E+05  1.1300762763611E+05  1.1300762763611E+05  1.1300762763611E+05  1.1300762763611E+05  1.1300762763611E+05  1.1300762763611E+05  1.1300762763611E+05  5.6503813818055E+04 
 3.5000000000000E-01  3.5000000000000E-01  3.5000000000000E-01  3.5000000000000E-01  3.5000000000000E-01  3.5000000000000E-01  3.5000000000000E-01  3.5000000000000E-01  3.5000000000000E-01  3.5000000000000E-01 
 6.6040000000000E+00  1.3208000000000E+01  1.3208000000000E+01  1.3208000000000E+01  1.3208000000000E+01  1.3208000000000E+01  1.3208000000000E+01  1.3208000000000E+01  1.3208000000000E+01  6.6040000000000E+00 
-3.6078675341780E-02 -3.6078675341780E-02 -3.6078675341780E-02 -3.6078675341780E-02 -3.6078675341780E-02 -3.6078675341780E-02 -3.6078675341780E-02 -3.6078675341780E-02 -3.6078675341780E-02 -3.5621167923965E-02 
 3.3866666666667E-05  6.7733333333333E-05  6.7733333333334E-05  6.7733333333333E-05  6.7733333333334E-05  6.7733333333334E-05  6.7733333333333E-05  6.7733333333334E-05  6.7733333333333E-05  3.3866666666667E-05 
 2.6603001364256E+01  2.6603001364256E+01  2.6603001364256E+01  2.6603001364256E+01  2.6603001364256E+01  2.6603001364256E+01  2.6603001364256E+01  2.6603001364256E+01  2.6603001364256E+01  2.6603001364256E+01 
 1.7735334242838E+01  1.7735334242838E+01  1.7735334242838E+01  1.7735334242838E+01  1.7735334242838E+01  1.7735334242838E+01  1.7735334242838E+01  1.7735334242838E+01  1.7735334242838E+01  1.7735334242838E+01 
 0.0000000000000E+00  0.0000000000000E+00  0.0000000000000E+00  0.0000000000000E+00  0.0000000000000E+00  0.0000000000000E+00  0.0000000000000E+00  0.0000000000000E+00  0.0000000000000E+00  0.0000000000000E+00 
 0.0000000000000E+00  0.0000000000000E+00  0.0000000000000E+00  0.0000000000000E+00  0.0000000000000E+00  0.0000000000000E+00  0.0000000000000E+00  0.0000000000000E+00  0.0000000000000E+00  0.0000000000000E+00 
 0.0000000000000E+00  0.0000000000000E+00  0.0000000000000E+00  0.0000000000000E+00  0.0000000000000E+00  0.0000000000000E+00  0.0000000000000E+00  0.0000000000000E+00  0.0000000000000E+00  0.0000000000000E+00 
 0.0000000000000E+00  0.0000000000000E+00  0.0000000000000E+00  0.0000000000000E+00  0.0000000000000E+00  0.0000000000000E+00  0.0000000000000E+00  0.0000000000000E+00  0.0000000000000E+00  0.0000000000000E+00 
 0.0000000000000E+00  0.0000000000000E+00  0.0000000000000E+00  0.0000000000000E+00  0.0000000000000E+00  0.0000000000000E+00  0.0000000000000E+00  0.0000000000000E+00  0.0000000000000E+00  0.0000000000000E+00 
 0.0000000000000E+00  0.0000000000000E+00  0.0000000000000E+00  0.0000000000000E+00  0.0000000000000E+00  0.0000000000000E+00  0.0000000000000E+00  0.0000000000000E+00  0.0000000000000E+00  0.0000000000000E+00 
 0.0000000000000E+00  0.0000000000000E+00  0.0000000000000E+00  0.0000000000000E+00  0.0000000000000E+00  0.0000000000000E+00  0.0000000000000E+00  0.0000000000000E+00  0.0000000000000E+00  0.0000000000000E+00 
ZONE T = "CATH, 1.0000E-08", I = 10, SOLUTIONTIME = 1.000000E-08
ZONETYPE = ORDERED
DATAPACKING = BLOCK
STRANDID = 3
 1.2700000000000E-03  1.3377333333333E-03  1.4054666666667E-03  1.4732000000000E-03  1.5409333333333E-03  1.6086666666667E-03  1.6764000000000E-03  1.7441333333333E-03  1.8118666666667E-03  1.8796000000000E-03 
 1.9920090181715E-08  1.7577585343949E-08  1.5234790526020E-08  1.2891505624434E-08  1.0547530291603E-08  8.2026640096234E-09  5.8567061511632E-09  3.5094671300364E-09  1.1613039138210E-09  1.8160385165644E-13 
 9.2000000000032E-01  9.2000000000091E-01  9.2000000000091E-01  9.2000000000091E-01  9.2000000000091E-01  9.2000000000091E-01  9.2000000000091E-01  9.2000000000091E-01  9.2000000000091E-01  9.2000000000090E-01 
 3.9999999999839E-02  3.9999999999545E-02  3.9999999999545E-02  3.9999999999545E-02  3.9999999999545E-02  3.9999999999545E-02  3.9999999999545E-02  3.9999999999545E-02  3.9999999999544E-02  3.9999999999549E-02 
 3.9999999999839E-02  3.9999999999545E-02  3.9999999999545E-02  3.9999999999545E-02  3.9999999999545E-02  3.9999999999545E-02  3.9999999999545E-02  3.9999999999545E-02  3.9999999999544E-02  3.9999999999549E-02 
 2.9762196147973E-02  2.9761986876826E-02  2.9761802214937E-02  2.9761642165355E-02  2.9761506733228E-02  2.9761395925809E-02  2.9761309752459E-02  2.9761248224651E-02  2.9761211356028E-02  2.9761199159046E-02 
 3.8001766756933E+00  3.8001744957127E+00  3.8001679556023E+00  3.8001570548223E+00  3.8001417924605E+00  3.8001221672318E+00  3.8000981774779E+00  3.8000698211670E+00  3.8000370959144E+00  3.8000000000000E+00 
 2.9815000000044E+02  2.9815000407558E+02  2.9815000423853E+02  2.9815000416309E+02  2.9815000426199E+02  2.9815000418220E+02  2.9815000288288E+02  2.9814993910621E+02  2.9814687875066E+02  2.9800000000000E+02 
 3.7704144795453E+00  3.7704125088359E+00  3.7704061533874E+00  3.7703954126569E+00  3.7703802857273E+00  3.7703607713060E+00  3.7703368677254E+00  3.7703085729423E+00  3.7702758845584E+00  3.7702388008410E+00 
 3.9714142713283E+00  3.9714142680388E+00  3.9714142679072E+00  3.9714142679681E+00  3.9714142678883E+00  3.9714142679527E+00  3.9714142690015E+00  3.9714143204811E+00  3.9714167907531E+00  3.9715353395959E+00 
-2.0099979178305E-01 -2.0100175920288E-01 -2.0100811451986E-01 -2.0101885531118E-01 -2.0103398216102E-01 -2.0105349664669E-01 -2.0107740127606E-01 -2.0110574753881E-01 -2.0114090619472E-01 -2.0129653875495E-01 
-1.6866431671982E+00 -3.3734169032178E+00 -3.3738345397392E+00 -3.3745403702897E+00 -3.3755347463424E+00 -3.3768179128344E+00 -3.3783900289217E+00 -3.3802351943476E+00 -3.3815663225783E+00 -1.6723822553357E+00 
 1.4865752348680E-07  1.3117600997545E-07  1.1369246658663E-07  9.6205265853086E-08  7.8712912649387E-08  6.1213910579092E-08  4.3706762407370E-08  2.6190053277072E-08  8.6664448514194E-09  8.6664448514194E-09 
 3.0373159628493E+01  2.6999819685828E+01  2.3626217342384E+01  2.0252053326490E+01  1.6877039292644E+01  1.3500886602093E+01  1.0123306414270E+01  6.7440177597775E+00  3.3631411601780E+00  0.0000000000000E+00 
 0.0000000000000E+00  3.3733282690528E+00  6.7469306100652E+00  1.0121094628235E+01  1.3496108663867E+01  1.6872261356358E+01  2.0249841546621E+01  2.3629130203281E+01  2.7010006805168E+01  3.0373160090124E+01 
 1.6866431671982E-08  3.3734169032178E-08  3.3738345397392E-08  3.3745403702897E-08  3.3755347463424E-08  3.3768179128344E-08  3.3783900289217E-08  3.3802351943476E-08  3.3815663225783E-08  1.6723822553357E-08 
 7.2440786946393E+03  1.4488157389279E+04  1.4488157389279E+04  1.4488157389279E+04  1.4488157389279E+04  1.4488157389279E+04  1.4488157389279E+04  1.4488157389279E+04  1.4488157389279E+04  7.2440786946392E+03 
 4.9259735123416E+04  9.8519470246831E+04  9.8519470246832E+04  9.8519470246831E+04  9.8519470246832E+04  9.8519470246832E+04  9.8519470246831E+04  9.8519470246832E+04  9.8519470246831E+04  4.9259735123416E+04 
 5.6503813818055E+04  1.1300762763611E+05  1.1300762763611E+05  1.1300762763611E+05  1.1300762763611E+05  1.1300762763611E+05  1.1300762763611E+05  1.1300762763611E+05  1.1300762763611E+05  5.6503813818055E+04 
 3.5000000000000E-01  3.5000000000000E-01  3.5000000000000E-01  3.5000000000000E-01  3.5000000000000E-01  3.5000000000000E-01  3.5000000000000E-01  3.5000000000000E-01  3.5000000000000E-01  3.5000000000000E-01 
 6.6040000000000E+00  1.3208000000000E+01  1.3208000000000E+01  1.3208000000000E+01  1.3208000000000E+01  1.3208000000000E+01  1.3208000000000E+01  1.3208000000000E+01  1.3208000000000E+01  6.6040000000000E+00 
-2.5539720884285E-01 -2.5540709442897E-01 -2.5543871439576E-01 -2.5549215401951E-01 -2.5556743991084E-01 -2.5566459061435E-01 -2.5578361818002E-01 -2.5592331877253E-01 -2.5602410074034E-01 -2.5323777337004E-01 
 3.3866666666667E-05  6.7733333333333E-05  6.7733333333334E-05  6.7733333333333E-05  6.7733333333334E-05  6.7733333333334E-05  6.7733333333333E-05  6.7733333333334E-05  6.7733333333333E-05  3.3866666666667E-05 
 2.6603001364262E+01  2.6603001364262E+01  2.6603001364262E+01  2.6603001364262E+01  2.6603001364262E+01  2.6603001364262E+01  2.6603001364262E+01  2.6603001364262E+01  2.6603001364262E+01  2.6603001364262E+01 
 1.7735334242832E+01  1.7735334242832E+01  1.7735334242832E+01  1.7735334242832E+01  1.7735334242832E+01  1.7735334242832E+01  1.7735334242832E+01  1.7735334242832E+01  1.7735334242832E+01  1.7735334242833E+01 
 2.1996009868097E-04  2.1997166795691E-04  2.2000839741218E-04  2.2007047536252E-04  2.2015793163638E-04  2.2027079182504E-04  2.2040907864952E-04  2.2057176247645E-04  2.2070714387015E-04  2.1832391241280E-04 
 2.1996009868097E+04  2.1997166795691E+04  2.2000839741218E+04  2.2007047536252E+04  2.2015793163638E+04  2.2027079182504E+04  2.2040907864952E+04  2.2057176247645E+04  2.2070714387015E+04  2.1832391241280E+04 
 8.8630810051920E-02  7.8821082272881E-02  6.0426280203755E-02  4.4480664426901E-02  3.0984411780174E-02  1.9938536808631E-02  1.1344893596425E-02  5.2061803833952E-03  1.5260481094689E-03  3.0114964795073E-04 
 5.4283816999091E-02  2.7143169024860E-01  9.2294671649817E-01  2.0090458879149E+00  3.5300947234638E+00  5.4866075606339E+00  7.8792477825360E+00  1.0708820293450E+01  1.3975836491753E+01  1.5718724381006E+01 
 2.1995866953470E+04  2.1996816542918E+04  2.1999856368222E+04  2.2004994009700E+04  2.2012232084503E+04  2.2021572636407E+04  2.2033017272276E+04  2.2046462221171E+04  2.2056737024475E+04  2.1816672215750E+04 
 1.0010283230885E+04  1.0010768682172E+04  1.0012324599448E+04  1.0014954366703E+04  1.0018659330430E+04  1.0023440682808E+04  1.0029299520377E+04  1.0036191815216E+04  1.0041899327981E+04  9.9402980159872E+03 
 1.1985583722584E+04  1.1986047860746E+04  1.1987531768774E+04  1.1990039642997E+04  1.1993572754074E+04  1.1998131953599E+04  1.2003717751899E+04  1.2010270405955E+04  1.2014837696494E+04  1.1876374199762E+04 
ZONE T = "CATH, 2.0000E-08", I = 10, SOLUTIONTIME = 2.000000E-08
ZONETYPE = ORDERED
DATAPACKING = BLOCK
STRANDID = 3
 1.2700000000000E-03  1.3377333333333E-03  1.4054666666667E-03  1.4732000000000E-03  1.5409333333333E-03  1.6086666666667E-03  1.6764000000000E-03  1.7441333333333E-03  1.8118666666667E-03  1.8796000000000E-03 
 1.9916333650183E-08  1.7572622167937E-08  1.5230073375294E-08  1.2886307851121E-08  1.0541851526057E-08  8.1968670276738E-09  5.8507911228790E-09  3.5027295498031E-09  1.1542787079562E-09 -7.4457584189997E-12 
 9.2000000000064E-01  9.2000000000182E-01  9.2000000000182E-01  9.2000000000182E-01  9.2000000000182E-01  9.2000000000182E-01  9.2000000000182E-01  9.2000000000182E-01  9.2000000000182E-01  9.2000000000180E-01 
 3.9999999999679E-02  3.9999999999091E-02  3.9999999999091E-02  3.9999999999091E-02  3.9999999999090E-02  3.9999999999090E-02  3.9999999999089E-02  3.9999999999089E-02  3.9999999999089E-02  3.9999999999099E-02 
 3.9999999999679E-02  3.9999999999091E-02  3.9999999999091E-02  3.9999999999091E-02  3.9999999999090E-02  3.9999999999090E-02  3.9999999999089E-02  3.9999999999089E-02  3.9999999999089E-02  3.9999999999099E-02 
 2.9772382516156E-02  2.9772173208158E-02  2.9771988514462E-02  2.9771828438120E-02  2.9771692984282E-02  2.9771582160206E-02  2.9771495975257E-02  2.9771434440920E-02  2.9771397570773E-02  2.9771385371342E-02 
 3.8001767108032E+00  3.8001745303765E+00  3.8001679889261E+00  3.8001570859120E+00  3.8001418204214E+00  3.8001221911687E+00  3.8000981964947E+00  3.8000698343680E+00  3.8000371024446E+00  3.8000000000000E+00 
 2.9815000000092E+02  2.9815000839007E+02  2.9815000863330E+02  2.9815000847927E+02  2.9815000869472E+02  2.9815000852423E+02  2.9815000335455E+02  2.9814981852237E+02  2.9814388523754E+02  2.9800000000000E+02 
 3.7704043282871E+00  3.7704023571684E+00  3.7703960004117E+00  3.7703852574739E+00  3.7703701274372E+00  3.7703506090085E+00  3.7703267005195E+00  3.7702983999270E+00  3.7702657048738E+00  3.7702286146287E+00 
 3.9714142713278E+00  3.9714142645558E+00  3.9714142643595E+00  3.9714142644838E+00  3.9714142643099E+00  3.9714142644475E+00  3.9714142686204E+00  3.9714144178143E+00  3.9714192070628E+00  3.9715353395955E+00 
-2.0100994304072E-01 -2.0101190738743E-01 -2.0101826394780E-01 -2.0102900700994E-01 -2.0104413687272E-01 -2.0106365543896E-01 -2.0108756810093E-01 -2.0111601788729E-01 -2.0115350218897E-01 -2.0130672496688E-01 
-1.6869766673826E+00 -3.3740851117761E+00 -3.3745029383698E+00 -3.3752090325693E+00 -3.3762038408734E+00 -3.3774875005793E+00 -3.3790592127407E+00 -3.3808726371073E+00 -3.3814332151420E+00 -1.6727142373376E+00 
 1.4868383396129E-07  1.3119860258497E-07  1.1371147419094E-07  9.6220686730305E-08  7.8724744039516E-08  6.1222149259918E-08  4.3711409644210E-08  2.6191272478691E-08  8.6682258418131E-09  8.6682258418131E-09 
 3.0378544393871E+01  2.7004525170754E+01  2.3630231145681E+01  2.0255375160058E+01  1.6879668723290E+01  1.3502823052535E+01  1.0124549696063E+01  6.7445837711608E+00  3.3634308448809E+00  0.0000000000000E+00 
 0.0000000000000E+00  3.3740192232033E+00  6.7483132483185E+00  1.0123169233880E+01  1.3498875670510E+01  1.6875721341228E+01  2.0253994698003E+01  2.3633960622851E+01  2.7015113548915E+01  3.0378544393790E+01 
 3.3736198345808E-08  6.7475020149939E-08  6.7483374781090E-08  6.7497494028590E-08  6.7517385872158E-08  6.7543054134137E-08  6.7574492416624E-08  6.7611078314550E-08  6.7629995377203E-08  3.3450964926733E-08 
 7.2440786946562E+03  1.4488157389312E+04  1.4488157389312E+04  1.4488157389312E+04  1.4488157389312E+04  1.4488157389313E+04  1.4488157389312E+04  1.4488157389313E+04  1.4488157389313E+04  7.2440786946559E+03 
 4.9259735123399E+04  9.8519470246798E+04  9.8519470246798E+04  9.8519470246798E+04  9.8519470246798E+04  9.8519470246798E+04  9.8519470246798E+04  9.8519470246798E+04  9.8519470246798E+04  4.9259735123399E+04 
 5.6503813818055E+04  1.1300762763611E+05  1.1300762763611E+05  1.1300762763611E+05  1.1300762763611E+05  1.1300762763611E+05  1.1300762763611E+05  1.1300762763611E+05  1.1300762763611E+05  5.6503813818055E+04 
 3.5000000000000E-01  3.5000000000000E-01  3.5000000000000E-01  3.5000000000000E-01  3.5000000000000E-01  3.5000000000000E-01  3.5000000000000E-01  3.5000000000000E-01  3.5000000000000E-01  3.5000000000000E-01 
 6.6040000000000E+00  1.3208000000000E+01  1.3208000000000E+01  1.3208000000000E+01  1.3208000000000E+01  1.3208000000000E+01  1.3208000000000E+01  1.3208000000000E+01  1.3208000000000E+01  6.6040000000000E+00 
-2.5544770856793E-01 -2.5545768562812E-01 -2.5548931998560E-01 -2.5554277957066E-01 -2.5561809818847E-01 -2.5571528623405E-01 -2.5583428321780E-01 -2.5597158064107E-01 -2.5601402295139E-01 -2.5328804320678E-01 
 3.3866666666667E-05  6.7733333333333E-05  6.7733333333334E-05  6.7733333333333E-05  6.7733333333334E-05  6.7733333333334E-05  6.7733333333333E-05  6.7733333333334E-05  6.7733333333333E-05  3.3866666666667E-05 
 2.6603001364267E+01  2.6603001364267E+01  2.6603001364267E+01  2.6603001364267E+01  2.6603001364267E+01  2.6603001364267E+01  2.6603001364267E+01  2.6603001364267E+01  2.6603001364267E+01  2.6603001364267E+01 
 1.7735334242827E+01  1.7735334242827E+01  1.7735334242827E+01  1.7735334242827E+01  1.7735334242827E+01  1.7735334242827E+01  1.7735334242827E+01  1.7735334242827E+01  1.7735334242827E+01  1.7735334242827E+01 
 4.3996874692974E-04  4.3999196626011E-04  4.4006544208163E-04  4.4018962277749E-04  4.4036457425147E-04  4.4059034062236E-04  4.4086690439438E-04  4.4119020627219E-04  4.4141035878049E-04  4.3669621919855E-04 
 2.2000864824878E+04  2.2002029830321E+04  2.2005704466944E+04  2.2011914741497E+04  2.2020664261509E+04  2.2031954879732E+04  2.2045782574486E+04  2.2061844379574E+04  2.2070321491034E+04  2.1837230678575E+04 
 8.8662026554287E-02  7.8848577947269E-02  6.0446835750783E-02  4.4495283313162E-02  3.0994098006114E-02  1.9944295089168E-02  1.1347730285464E-02  5.2071151334022E-03  1.5262302017246E-03  3.0127207646013E-04 
 5.4306037699634E-02  2.7154291492528E-01  9.2332504460127E-01  2.0098696081973E+00  3.5315423896020E+00  5.4888580884026E+00  7.8824801155359E+00  1.0713198121551E+01  1.3981097633360E+01  1.5724258937746E+01 
 2.2000721856813E+04  2.2001679438828E+04  2.2004720695064E+04  2.2009860376605E+04  2.2017101725021E+04  2.2026446077348E+04  2.2037888746640E+04  2.2051125974337E+04  2.2056338867170E+04  2.1821506118365E+04 
 1.0012768223084E+04  1.0013257145768E+04  1.0014813814353E+04  1.0017444689016E+04  1.0021151384288E+04  1.0025934789373E+04  1.0031793300591E+04  1.0038597073230E+04  1.0042132878616E+04  9.9427743580035E+03 
 1.1987953633730E+04  1.1988422293060E+04  1.1989906880711E+04  1.1992415687589E+04  1.1995950340734E+04  1.2000511287975E+04  1.2006095446049E+04  1.2012528901107E+04  1.2014205988555E+04  1.1878731760362E+04 
ZONE T = "CATH, 3.0000E-08", I = 10, SOLUTIONTIME = 3.000000E-08
ZONETYPE = ORDERED
DATAPACKING = BLOCK
STRANDID = 3
 1.2700000000000E-03  1.3377333333333E-03  1.4054666666667E-03  1.4732000000000E-03  1.5409333333333E-03  1.6086666666667E-03  1.6764000000000E-03  1.7441333333333E-03  1.8118666666667E-03  1.8796000000000E-03 
 1.9928043417089E-08  1.7584960260721E-08  1.5240860385626E-08  1.2896270024346E-08  1.0550988565716E-08  8.2051786403645E-09  5.8582782148360E-09  3.5108765814321E-09  1.1635880671482E-09  1.9976425027748E-12 
 9.2000000000096E-01  9.2000000000273E-01  9.2000000000273E-01  9.2000000000273E-01  9.2000000000273E-01  9.2000000000273E-01  9.2000000000273E-01  9.2000000000273E-01  9.2000000000273E-01  9.2000000000270E-01 
 3.9999999999518E-02  3.9999999998636E-02  3.9999999998636E-02  3.9999999998636E-02  3.9999999998635E-02  3.9999999998635E-02  3.9999999998634E-02  3.9999999998633E-02  3.9999999998633E-02  3.9999999998648E-02 
 3.9999999999518E-02  3.9999999998636E-02  3.9999999998636E-02  3.9999999998636E-02  3.9999999998635E-02  3.9999999998635E-02  3.9999999998634E-02  3.9999999998633E-02  3.9999999998633E-02  3.9999999998648E-02 
 2.9782506593523E-02  2.9782297250267E-02  2.9782112526158E-02  2.9781952424251E-02  2.9781816949699E-02  2.9781706109761E-02  2.9781619913808E-02  2.9781558373331E-02  2.9781521501730E-02  2.9781509299950E-02 
 3.8001767444774E+00  3.8001745636222E+00  3.8001680208846E+00  3.8001571157244E+00  3.8001418472285E+00  3.8001222141107E+00  3.8000982147112E+00  3.8000698470004E+00  3.8000371086931E+00  3.8000000000000E+00 
 2.9815000000143E+02  2.9815001257436E+02  2.9815001307323E+02  2.9815001279506E+02  2.9815001314113E+02  2.9815001266028E+02  2.9815000031690E+02  2.9814964309913E+02  2.9814101276292E+02  2.9800000000000E+02 
 3.7703942378839E+00  3.7703922663719E+00  3.7703859083584E+00  3.7703751633001E+00  3.7703600302788E+00  3.7703405080009E+00  3.7703165947974E+00  3.7702882886270E+00  3.7702555871914E+00  3.7702184907000E+00 
 3.9714142713272E+00  3.9714142611779E+00  3.9714142607752E+00  3.9714142609998E+00  3.9714142607204E+00  3.9714142611086E+00  3.9714142710720E+00  3.9714145594131E+00  3.9714215256651E+00  3.9715353395952E+00 
-2.0102003344331E-01 -2.0102199480604E-01 -2.0102835241681E-01 -2.0103909769967E-01 -2.0105423044163E-01 -2.0107375310764E-01 -2.0109767627455E-01 -2.0112627078606E-01 -2.0116593847373E-01 -2.0131684889512E-01 
-1.6873082335405E+00 -3.3747494166380E+00 -3.3751674764703E+00 -3.3758738156446E+00 -3.3768690508719E+00 -3.3781531331009E+00 -3.3797235402123E+00 -3.3814914155874E+00 -3.3813285150446E+00 -1.6730442546274E+00 
 1.4870901282668E-07  1.3122020478730E-07  1.1372963269206E-07  9.6235400247882E-08  7.8736010368201E-08  6.1229966204071E-08  4.3715783969727E-08  2.6192440096383E-08  8.6699338663888E-09  8.6699338663888E-09 
 3.0383708852016E+01  2.7009025909978E+01  2.3634067463199E+01  2.0258546817309E+01  1.6882175384154E+01  1.3504664291905E+01  1.0125725955269E+01  6.7451184774452E+00  3.3637085120787E+00  0.0000000000000E+00 
 0.0000000000000E+00  3.3746829418315E+00  6.7496413885557E+00  1.0125162034519E+01  1.3501533467581E+01  1.6879044559749E+01  2.0257982896463E+01  2.3638590374227E+01  2.7020000339571E+01  3.0383708851659E+01 
 5.0609280681213E-08  1.0122251431632E-07  1.0123504954579E-07  1.0125623218504E-07  1.0128607638088E-07  1.0132458546515E-07  1.0137172781875E-07  1.0142599247042E-07  1.0144328052765E-07  5.0181407473007E-08 
 7.2440786946731E+03  1.4488157389346E+04  1.4488157389346E+04  1.4488157389346E+04  1.4488157389346E+04  1.4488157389346E+04  1.4488157389346E+04  1.4488157389346E+04  1.4488157389346E+04  7.2440786946727E+03 
 4.9259735123382E+04  9.8519470246764E+04  9.8519470246765E+04  9.8519470246764E+04  9.8519470246764E+04  9.8519470246764E+04  9.8519470246764E+04  9.8519470246764E+04  9.8519470246764E+04  4.9259735123383E+04 
 5.6503813818055E+04  1.1300762763611E+05  1.1300762763611E+05  1.1300762763611E+05  1.1300762763611E+05  1.1300762763611E+05  1.1300762763611E+05  1.1300762763611E+05  1.1300762763611E+05  5.6503813818055E+04 
 3.5000000000000E-01  3.5000000000000E-01  3.5000000000000E-01  3.5000000000000E-01  3.5000000000000E-01  3.5000000000000E-01  3.5000000000000E-01  3.5000000000000E-01  3.5000000000000E-01  3.5000000000000E-01 
 6.6040000000000E+00  1.3208000000000E+01  1.3208000000000E+01  1.3208000000000E+01  1.3208000000000E+01  1.3208000000000E+01  1.3208000000000E+01  1.3208000000000E+01  1.3208000000000E+01  6.6040000000000E+00 
-2.5549791543617E-01 -2.5550798127181E-01 -2.5553963328818E-01 -2.5559311142070E-01 -2.5566846236159E-01 -2.5576568239710E-01 -2.5588458057331E-01 -2.5601842940547E-01 -2.5600609593009E-01 -2.5333801554019E-01 
 3.3866666666667E-05  6.7733333333333E-05  6.7733333333334E-05  6.7733333333333E-05  6.7733333333334E-05  6.7733333333334E-05  6.7733333333333E-05  6.7733333333334E-05  6.7733333333333E-05  3.3866666666667E-05 
 2.6603001364272E+01  2.6603001364272E+01  2.6603001364272E+01  2.6603001364272E+01  2.6603001364272E+01  2.6603001364272E+01  2.6603001364272E+01  2.6603001364272E+01  2.6603001364272E+01  2.6603001364272E+01 
 1.7735334242822E+01  1.7735334242822E+01  1.7735334242822E+01  1.7735334242822E+01  1.7735334242822E+01  1.7735334242822E+01  1.7735334242822E+01  1.7735334242822E+01  1.7735334242822E+01  1.7735334242822E+01 
 6.6002566417214E-04  6.6006061195483E-04  6.6017085375662E-04  6.6035716054272E-04  6.6061964547735E-04  6.6095835897142E-04  6.6137313010481E-04  6.6185407631066E-04  6.6211147956209E-04  6.5511663289413E-04 
 2.2005691724240E+04  2.2006864569472E+04  2.2010541167499E+04  2.2016753776523E+04  2.2025507122588E+04  2.2036801834906E+04  2.2050622571043E+04  2.2066387003847E+04  2.2070112078160E+04  2.1842041369558E+04 
 8.8691898677637E-02  7.8874882250202E-02  6.0466486263908E-02  4.4509244286341E-02  3.1003334292484E-02  1.9949772151545E-02  1.1350415497613E-02  5.2079964888542E-03  1.5264045414195E-03  3.0138951460125E-04 
 5.4327386908427E-02  2.7164977677794E-01  9.2368853373279E-01  2.0106610049195E+00  3.5329331941622E+00  5.4910200836128E+00  7.8855846537512E+00  1.0717394431484E+01  1.3986133086251E+01  1.5729555729114E+01 
 2.2005548704954E+04  2.2006514044813E+04  2.2009557012479E+04  2.2014698606274E+04  2.2021943186059E+04  2.2031290865051E+04  2.2042725635974E+04  2.2055664401419E+04  2.2056124418669E+04  2.1826311512439E+04 
 1.0015238903612E+04  1.0015731196418E+04  1.0017288734153E+04  1.0019920657177E+04  1.0023629059934E+04  1.0028414306780E+04  1.0034269936832E+04  1.0040946231986E+04  1.0042442775855E+04  9.9452361438237E+03 
 1.1990309801342E+04  1.1990782848394E+04  1.1992268278326E+04  1.1994777949096E+04  1.1998314126125E+04  1.2002876558270E+04  1.2008455699142E+04  1.2014718169433E+04  1.2013681642814E+04  1.1881075368615E+04 
ZONE T = "CATH, 4.0000E-08", I = 10, SOLUTIONTIME = 4.000000E-08
ZONETYPE = ORDERED
DATAPACKING = BLOCK
STRANDID = 3
 1.2700000000000E-03  1.3377333333333E-03  1.4054666666667E-03  1.4732000000000E-03  1.5409333333333E-03  1.6086666666667E-03  1.6764000000000E-03  1.7441333333333E-03  1.8118666666667E-03  1.8796000000000E-03 
 1.9931205874149E-08  1.7587300930430E-08  1.5243468714110E-08  1.2898782605645E-08  1.0553405131260E-08  8.2071357332315E-09  5.8601407543690E-09  3.5115951176390E-09  1.1639974953545E-09  2.1792463668101E-12 
 9.2000000000129E-01  9.2000000000364E-01  9.2000000000364E-01  9.2000000000364E-01  9.2000000000364E-01  9.2000000000364E-01  9.2000000000364E-01  9.2000000000364E-01  9.2000000000364E-01  9.2000000000361E-01 
 3.9999999999357E-02  3.9999999998181E-02  3.9999999998181E-02  3.9999999998181E-02  3.9999999998180E-02  3.9999999998179E-02  3.9999999998179E-02  3.9999999998178E-02  3.9999999998178E-02  3.9999999998197E-02 
 3.9999999999357E-02  3.9999999998181E-02  3.9999999998181E-02  3.9999999998181E-02  3.9999999998180E-02  3.9999999998179E-02  3.9999999998179E-02  3.9999999998178E-02  3.9999999998178E-02  3.9999999998197E-02 
 2.9792569423911E-02  2.9792360045523E-02  2.9792175291098E-02  2.9792015163695E-02  2.9791879668468E-02  2.9791768812681E-02  2.9791682605707E-02  2.9791621059042E-02  2.9791584185800E-02  2.9791571981684E-02 
 3.8001767779476E+00  3.8001745966663E+00  3.8001680526492E+00  3.8001571453554E+00  3.8001418738719E+00  3.8001222369115E+00  3.8000982328143E+00  3.8000698595537E+00  3.8000371149194E+00  3.8000000000000E+00 