TITLE = "Solution on Domain BulkDomain1D_0"
VARIABLES = "x [m]"  
"Vel_axial" 
"MF_sp(ECDMC)" 
"MF_sp(Li+)" 
"MF_sp(PF6-)" 
"Volt(Electroly)" 
"Volt(AnodeVolt)" 
"Temperature" 
"Potential Drop Electrode-Electrolyte [V]" 
"Surf_0 Equilibrium Potential Drop Electrode-Electrolyte [V]" 
"Overpotential_0 [V]" 
"Current Source [A/m^2]" 
"Li+ flux [kmol/m^2/s]" 
"Electrolyte Current [A/m^2]" 
"Electrode Current [A/m^2]" 
"CV Capacity discharged [A-s/m^2]" 
"Depth of discharge in CV [A-s/m^2]" 
"CV Capacity remaining [A-s/m^2]" 
"Initial CV capacity [A-s/m^2]" 
"Porosity []" 
"Surface Area [m2/m2] (area per area)" 
"Specific current (per particle area) [A/m^2]" 
"Control volume thickness [m]" 
"MoleDens Li_C6-bulk [kmol/m^3]" 
"MoleDens V_C6-bulk [kmol/m^3]" 
"qHeat_accum [J/m3]" 
"qHeat_step [W/m3]" 
"Joule_Lyte [W/m3]" 
"Joule_Solid [W/m3]" 
"electrodHeat [W/m3]" 
"OverpotHeat [W/m3]" 
"deltaSHeat [W/m3]" 

ZONE T = "ANOD, 0.0000E+00", I = 10, SOLUTIONTIME = 0.000000E+00
ZONETYPE = ORDERED
DATAPACKING = BLOCK
STRANDID = 1
 0.0000000000000E+00  8.7488888888889E-05  1.7497777777778E-04  2.6246666666667E-04  3.4995555555556E-04  4.3744444444444E-04  5.2493333333333E-04  6.1242222222222E-04  6.9991111111111E-04  7.8740000000000E-04 
 0.0000000000000E+00  0.0000000000000E+00  0.0000000000000E+00  0.0000000000000E+00  0.0000000000000E+00  0.0000000000000E+00  0.0000000000000E+00  0.0000000000000E+00  0.0000000000000E+00  0.0000000000000E+00 
 9.2000000000000E-01  9.2000000000000E-01  9.2000000000000E-01  9.2000000000000E-01  9.2000000000000E-01  9.2000000000000E-01  9.2000000000000E-01  9.2000000000000E-01  9.2000000000000E-01  9.2000000000000E-01 
 4.0000000000000E-02  4.0000000000000E-02  4.0000000000000E-02  4.0000000000000E-02  4.0000000000000E-02  4.0000000000000E-02  4.0000000000000E-02  4.0000000000000E-02  4.0000000000000E-02  4.0000000000000E-02 
 4.0000000000000E-02  4.0000000000000E-02  4.0000000000000E-02  4.0000000000000E-02  4.0000000000000E-02  4.0000000000000E-02  4.0000000000000E-02  4.0000000000000E-02  4.0000000000000E-02  4.0000000000000E-02 
-7.0000000000000E-02 -7.0000000000000E-02 -7.0000000000000E-02 -7.0000000000000E-02 -7.0000000000000E-02 -7.0000000000000E-02 -7.0000000000000E-02 -7.0000000000000E-02 -7.0000000000000E-02 -7.0000000000000E-02 
 0.0000000000000E+00  0.0000000000000E+00  0.0000000000000E+00  0.0000000000000E+00  0.0000000000000E+00  0.0000000000000E+00  0.0000000000000E+00  0.0000000000000E+00  0.0000000000000E+00  0.0000000000000E+00 
 3.0200000000000E+02  2.9815000000000E+02  2.9815000000000E+02  2.9815000000000E+02  2.9815000000000E+02  2.9815000000000E+02  2.9815000000000E+02  2.9815000000000E+02  2.9815000000000E+02  2.9815000000000E+02 
 7.0000000000000E-02  7.0000000000000E-02  7.0000000000000E-02  7.0000000000000E-02  7.0000000000000E-02  7.0000000000000E-02  7.0000000000000E-02  7.0000000000000E-02  7.0000000000000E-02  7.0000000000000E-02 
-4.3601490895275E-02 -4.0906712753390E-02 -4.0906712753390E-02 -4.0906712753390E-02 -4.0906712753390E-02 -4.0906712753390E-02 -4.0906712753390E-02 -4.0906712753390E-02 -4.0906712753390E-02 -4.0906712753390E-02 
 1.1360149089527E-01  1.1090671275339E-01  1.1090671275339E-01  1.1090671275339E-01  1.1090671275339E-01  1.1090671275339E-01  1.1090671275339E-01  1.1090671275339E-01  1.1090671275339E-01  1.1090671275339E-01 
 5.5837195716915E+01  6.1860481848017E+01  6.1860481848017E+01  6.1860481848017E+01  6.1860481848017E+01  6.1860481848017E+01  6.1860481848017E+01  6.1860481848017E+01  6.1860481848017E+01  3.0930240924008E+01 
-0.0000000000000E+00 -0.0000000000000E+00 -0.0000000000000E+00 -0.0000000000000E+00 -0.0000000000000E+00 -0.0000000000000E+00 -0.0000000000000E+00 -0.0000000000000E+00 -0.0000000000000E+00 -0.0000000000000E+00 
 0.0000000000000E+00  0.0000000000000E+00  0.0000000000000E+00  0.0000000000000E+00  0.0000000000000E+00  0.0000000000000E+00  0.0000000000000E+00  0.0000000000000E+00  0.0000000000000E+00  3.0930240924008E+01 
 5.5837195716915E+01 -0.0000000000000E+00 -0.0000000000000E+00 -0.0000000000000E+00 -0.0000000000000E+00 -0.0000000000000E+00 -0.0000000000000E+00 -0.0000000000000E+00 -0.0000000000000E+00  0.0000000000000E+00 
 0.0000000000000E+00  0.0000000000000E+00  0.0000000000000E+00  0.0000000000000E+00  0.0000000000000E+00  0.0000000000000E+00  0.0000000000000E+00  0.0000000000000E+00  0.0000000000000E+00  0.0000000000000E+00 
 4.5724222271641E+04  9.1448444543281E+04  9.1448444543281E+04  9.1448444543281E+04  9.1448444543281E+04  9.1448444543281E+04  9.1448444543281E+04  9.1448444543281E+04  9.1448444543281E+04  4.5724222271641E+04 
 3.3835924481014E+05  6.7671848962028E+05  6.7671848962028E+05  6.7671848962028E+05  6.7671848962028E+05  6.7671848962028E+05  6.7671848962028E+05  6.7671848962028E+05  6.7671848962028E+05  3.3835924481014E+05 
 3.8408346708178E+05  7.6816693416356E+05  7.6816693416356E+05  7.6816693416356E+05  7.6816693416356E+05  7.6816693416356E+05  7.6816693416356E+05  7.6816693416356E+05  7.6816693416356E+05  3.8408346708178E+05 
 3.5000000000000E-01  3.5000000000000E-01  3.5000000000000E-01  3.5000000000000E-01  3.5000000000000E-01  3.5000000000000E-01  3.5000000000000E-01  3.5000000000000E-01  3.5000000000000E-01  3.5000000000000E-01 
 8.5301666666667E+00  1.7060333333333E+01  1.7060333333333E+01  1.7060333333333E+01  1.7060333333333E+01  1.7060333333333E+01  1.7060333333333E+01  1.7060333333333E+01  1.7060333333333E+01  8.5301666666667E+00 
 6.5458504972839E+00  3.6259831879809E+00  3.6259831879809E+00  3.6259831879809E+00  3.6259831879809E+00  3.6259831879809E+00  3.6259831879809E+00  3.6259831879809E+00  3.6259831879809E+00  3.6259831879809E+00 
 4.3744444444444E-05  8.7488888888889E-05  8.7488888888889E-05  8.7488888888889E-05  8.7488888888889E-05  8.7488888888889E-05  8.7488888888889E-05  8.7488888888889E-05  8.7488888888889E-05  4.3744444444444E-05 
 8.6666666666667E+01  8.6666666666667E+01  8.6666666666667E+01  8.6666666666667E+01  8.6666666666667E+01  8.6666666666667E+01  8.6666666666667E+01  8.6666666666667E+01  8.6666666666667E+01  8.6666666666667E+01 
 2.1666666666667E+01  2.1666666666667E+01  2.1666666666667E+01  2.1666666666667E+01  2.1666666666667E+01  2.1666666666667E+01  2.1666666666667E+01  2.1666666666667E+01  2.1666666666667E+01  2.1666666666667E+01 
 0.0000000000000E+00  0.0000000000000E+00  0.0000000000000E+00  0.0000000000000E+00  0.0000000000000E+00  0.0000000000000E+00  0.0000000000000E+00  0.0000000000000E+00  0.0000000000000E+00  0.0000000000000E+00 
 0.0000000000000E+00  0.0000000000000E+00  0.0000000000000E+00  0.0000000000000E+00  0.0000000000000E+00  0.0000000000000E+00  0.0000000000000E+00  0.0000000000000E+00  0.0000000000000E+00  0.0000000000000E+00 
 0.0000000000000E+00  0.0000000000000E+00  0.0000000000000E+00  0.0000000000000E+00  0.0000000000000E+00  0.0000000000000E+00  0.0000000000000E+00  0.0000000000000E+00  0.0000000000000E+00  0.0000000000000E+00 
 0.0000000000000E+00  0.0000000000000E+00  0.0000000000000E+00  0.0000000000000E+00  0.0000000000000E+00  0.0000000000000E+00  0.0000000000000E+00  0.0000000000000E+00  0.0000000000000E+00  0.0000000000000E+00 
 0.0000000000000E+00  0.0000000000000E+00  0.0000000000000E+00  0.0000000000000E+00  0.0000000000000E+00  0.0000000000000E+00  0.0000000000000E+00  0.0000000000000E+00  0.0000000000000E+00  0.0000000000000E+00 
 0.0000000000000E+00  0.0000000000000E+00  0.0000000000000E+00  0.0000000000000E+00  0.0000000000000E+00  0.0000000000000E+00  0.0000000000000E+00  0.0000000000000E+00  0.0000000000000E+00  0.0000000000000E+00 
 0.0000000000000E+00  0.0000000000000E+00  0.0000000000000E+00  0.0000000000000E+00  0.0000000000000E+00  0.0000000000000E+00  0.0000000000000E+00  0.0000000000000E+00  0.0000000000000E+00  0.0000000000000E+00 
ZONE T = "ANOD, 1.0000E-08", I = 10, SOLUTIONTIME = 1.000000E-08
ZONETYPE = ORDERED
DATAPACKING = BLOCK
STRANDID = 1
 0.0000000000000E+00  8.7488888888889E-05  1.7497777777778E-04  2.6246666666667E-04  3.4995555555556E-04  4.3744444444444E-04  5.2493333333333E-04  6.1242222222222E-04  6.9991111111111E-04  7.8740000000000E-04 
 2.3825768903460E-09  4.6034388020814E-09  6.8020251482344E-09  9.0003475875320E-09  1.1198690372053E-08  1.3397063055601E-08  1.5595471839030E-08  1.7793922712614E-08  1.9992421788933E-08  2.1091698736077E-08 
 9.1999999999857E-01  9.1999999999933E-01  9.1999999999934E-01  9.1999999999934E-01  9.1999999999934E-01  9.1999999999934E-01  9.1999999999934E-01  9.1999999999934E-01  9.1999999999934E-01  9.1999999999973E-01 
 4.0000000000716E-02  4.0000000000334E-02  4.0000000000330E-02  4.0000000000330E-02  4.0000000000330E-02  4.0000000000330E-02  4.0000000000330E-02  4.0000000000330E-02  4.0000000000330E-02  4.0000000000137E-02 
 4.0000000000716E-02  4.0000000000334E-02  4.0000000000330E-02  4.0000000000330E-02  4.0000000000330E-02  4.0000000000330E-02  4.0000000000330E-02  4.0000000000330E-02  4.0000000000330E-02  4.0000000000137E-02 
 2.9764013371926E-02  2.9763980834773E-02  2.9763918367489E-02  2.9763826071255E-02  2.9763703944649E-02  2.9763551987313E-02  2.9763370198846E-02  2.9763158578763E-02  2.9762917126464E-02  2.9762645841310E-02 
 0.0000000000000E+00 -4.4980345024004E-09 -8.4621308763100E-09 -1.1897644598238E-08 -1.4804639116492E-08 -1.7183109539689E-08 -1.9033048679517E-08 -2.0354447856867E-08 -2.1147296952456E-08 -2.1411584377419E-08 
 3.0200000000000E+02  2.9819888187124E+02  2.9815061916256E+02  2.9815000633886E+02  2.9814999863219E+02  2.9814999847456E+02  2.9814999857189E+02  2.9814999847083E+02  2.9814999843082E+02  2.9814999955529E+02 
-2.9764013371926E-02 -2.9763985332807E-02 -2.9763926829619E-02 -2.9763837968899E-02 -2.9763718749288E-02 -2.9763569170422E-02 -2.9763389231895E-02 -2.9763178933211E-02 -2.9762938273761E-02 -2.9762667252894E-02 
-4.3601490894653E-02 -4.0940847971068E-02 -4.0907145114290E-02 -4.0906717179527E-02 -4.0906711797961E-02 -4.0906711687890E-02 -4.0906711755859E-02 -4.0906711685285E-02 -4.0906711657345E-02 -4.0906712442690E-02 
 1.3837477522727E-02  1.1176862638261E-02  1.1143218284670E-02  1.1142879210627E-02  1.1142993048673E-02  1.1143142517468E-02  1.1143322523964E-02  1.1143532752073E-02  1.1143773383583E-02  1.1144045189796E-02 
 3.4305956920326E+00  3.1982355151823E+00  3.1661567569231E+00  3.1657767073119E+00  3.1658060061787E+00  3.1658490623510E+00  3.1659010475241E+00  3.1659616617423E+00  3.1660310769601E+00  1.5830550119411E+00 
 1.7777847320453E-08  3.4351308844539E-08  5.0758668768812E-08  6.7164066266962E-08  8.3569609373764E-08  9.9975371304660E-08  1.1638140094651E-07  1.3278776007465E-07  1.4919453911436E-07  1.4919453911436E-07 
 0.0000000000000E+00  5.0296860349128E+00  8.2118647106800E+00  1.1377814765071E+01  1.4543589410352E+01  1.7709399216658E+01  2.0875255966396E+01  2.4041170336693E+01  2.7207150413895E+01  3.0373212422702E+01 
 3.0373221306293E+01  2.5343516593484E+01  2.2161337846259E+01  1.8995388416807E+01  1.5829614361430E+01  1.2663804128173E+01  9.4979463730533E+00  6.3320323180050E+00  3.1660532485013E+00  0.0000000000000E+00 
 3.4305956920326E-08  3.1982355151823E-08  3.1661567569231E-08  3.1657767073119E-08  3.1658060061787E-08  3.1658490623510E-08  3.1659010475241E-08  3.1659616617423E-08  3.1660310769601E-08  1.5830550119411E-08 
 4.5724222271675E+04  9.1448444543313E+04  9.1448444543313E+04  9.1448444543313E+04  9.1448444543313E+04  9.1448444543313E+04  9.1448444543313E+04  9.1448444543313E+04  9.1448444543313E+04  4.5724222271656E+04 
 3.3835924481011E+05  6.7671848962025E+05  6.7671848962025E+05  6.7671848962025E+05  6.7671848962025E+05  6.7671848962025E+05  6.7671848962025E+05  6.7671848962025E+05  6.7671848962025E+05  3.3835924481012E+05 
 3.8408346708178E+05  7.6816693416356E+05  7.6816693416356E+05  7.6816693416356E+05  7.6816693416356E+05  7.6816693416356E+05  7.6816693416356E+05  7.6816693416356E+05  7.6816693416356E+05  3.8408346708178E+05 
 3.5000000000000E-01  3.5000000000000E-01  3.5000000000000E-01  3.5000000000000E-01  3.5000000000000E-01  3.5000000000000E-01  3.5000000000000E-01  3.5000000000000E-01  3.5000000000000E-01  3.5000000000000E-01 
 8.5301666666667E+00  1.7060333333333E+01  1.7060333333333E+01  1.7060333333333E+01  1.7060333333333E+01  1.7060333333333E+01  1.7060333333333E+01  1.7060333333333E+01  1.7060333333333E+01  8.5301666666667E+00 
 4.0217217624109E-01  1.8746617974535E-01  1.8558586723138E-01  1.8556359043269E-01  1.8556530780047E-01  1.8556783155962E-01  1.8557087869663E-01  1.8557443162945E-01  1.8557850043728E-01  1.8558312795074E-01 
 4.3744444444444E-05  8.7488888888889E-05  8.7488888888889E-05  8.7488888888889E-05  8.7488888888889E-05  8.7488888888889E-05  8.7488888888889E-05  8.7488888888889E-05  8.7488888888889E-05  4.3744444444444E-05 
 8.6666666666659E+01  8.6666666666663E+01  8.6666666666663E+01  8.6666666666663E+01  8.6666666666663E+01  8.6666666666663E+01  8.6666666666663E+01  8.6666666666663E+01  8.6666666666663E+01  8.6666666666663E+01 
 2.1666666666675E+01  2.1666666666670E+01  2.1666666666670E+01  2.1666666666670E+01  2.1666666666670E+01  2.1666666666670E+01  2.1666666666670E+01  2.1666666666670E+01  2.1666666666670E+01  2.1666666666670E+01 
-1.5530974218974E-04 -7.2039875512850E-05 -7.1312783292447E-05 -7.1304070191820E-05 -7.1304599972792E-05 -7.1305407353857E-05 -7.1306382909023E-05 -7.1307519837602E-05 -7.1308822033410E-05 -7.1310409624936E-05 
-1.5530974218974E+04 -7.2039875512850E+03 -7.1312783292447E+03 -7.1304070191820E+03 -7.1304599972792E+03 -7.1305407353857E+03 -7.1306382909023E+03 -7.1307519837602E+03 -7.1308822033410E+03 -7.1310409624936E+03 
 1.2758330098221E-03  3.0044045542597E-03  7.5330616295149E-03  1.4212554826656E-02  2.3050831153972E-02  3.4048082482672E-02  4.7204427721467E-02  6.2520018500324E-02  7.9995018873608E-02  8.9272391039124E-02 
 1.3851914355903E-03  1.2305218542165E-03  9.4195985657131E-04  6.9331655379276E-04  4.8293829435018E-04  3.1080730211863E-04  1.7692446263374E-04  8.1291285377942E-05  2.3909706328631E-05  4.7820843462961E-06 
-1.5530976879998E+04 -7.2039917862114E+03 -7.1312868042662E+03 -7.1304219250534E+03 -7.1304835310487E+03 -7.1305750942755E+03 -7.1306856722545E+03 -7.1308145850700E+03 -7.1309622222696E+03 -7.1311302396667E+03 
 1.0851844475920E+03  4.0858032937283E+02  4.0326464668396E+02  4.0320397145364E+02  4.0321182231230E+02  4.0322271478432E+02  4.0323584972021E+02  4.0325117758566E+02  4.0326872698664E+02  4.0328861905078E+02 
-1.6616161327590E+04 -7.6125721155842E+03 -7.5345514509502E+03 -7.5336258965071E+03 -7.5336953533610E+03 -7.5337978090598E+03 -7.5339215219747E+03 -7.5340657626556E+03 -7.5342309492563E+03 -7.5344188587175E+03 
ZONE T = "ANOD, 2.0000E-08", I = 10, SOLUTIONTIME = 2.000000E-08
ZONETYPE = ORDERED
DATAPACKING = BLOCK
STRANDID = 1
 0.0000000000000E+00  8.7488888888889E-05  1.7497777777778E-04  2.6246666666667E-04  3.4995555555556E-04  4.3744444444444E-04  5.2493333333333E-04  6.1242222222222E-04  6.9991111111111E-04  7.8740000000000E-04 
 2.3800683391636E-09  4.6210765520054E-09  6.8181891077346E-09  9.0141292829530E-09  1.1208989849359E-08  1.3403516881638E-08  1.5598806451673E-08  1.7794138118435E-08  1.9989518080894E-08  2.1086509301411E-08 
 9.1999999999714E-01  9.1999999999866E-01  9.1999999999868E-01  9.1999999999868E-01  9.1999999999868E-01  9.1999999999868E-01  9.1999999999868E-01  9.1999999999868E-01  9.1999999999868E-01  9.1999999999945E-01 
 4.0000000001431E-02  4.0000000000670E-02  4.0000000000660E-02  4.0000000000660E-02  4.0000000000660E-02  4.0000000000660E-02  4.0000000000660E-02  4.0000000000660E-02  4.0000000000660E-02  4.0000000000273E-02 
 4.0000000001431E-02  4.0000000000670E-02  4.0000000000660E-02  4.0000000000660E-02  4.0000000000660E-02  4.0000000000660E-02  4.0000000000660E-02  4.0000000000660E-02  4.0000000000660E-02  4.0000000000273E-02 
 2.9774200140328E-02  2.9774167624932E-02  2.9774104903287E-02  2.9774012377661E-02  2.9773890049260E-02  2.9773737917670E-02  2.9773555982485E-02  2.9773344243212E-02  2.9773102699281E-02  2.9772831350036E-02 
 0.0000000000000E+00 -4.4993547147290E-09 -8.4599277407927E-09 -1.1892272442578E-08 -1.4796583360862E-08 -1.7172858087996E-08 -1.9021089489874E-08 -2.0341268881995E-08 -2.1133386143493E-08 -2.1397429663148E-08 
 3.0200000000000E+02  2.9824653822361E+02  2.9815182793506E+02  2.9815002789664E+02  2.9814999760872E+02  2.9814999688726E+02  2.9814999697435E+02  2.9814999683741E+02  2.9814999696475E+02  2.9814999912966E+02 
-2.9774200140328E-02 -2.9774172124287E-02 -2.9774113363215E-02 -2.9774024269934E-02 -2.9773904845843E-02 -2.9773755090528E-02 -2.9773575003574E-02 -2.9773364584481E-02 -2.9773123832667E-02 -2.9772852747466E-02 
-4.3601490894030E-02 -4.0974129352635E-02 -4.0907989200727E-02 -4.0906732233036E-02 -4.0906711082994E-02 -4.0906710579200E-02 -4.0906710640010E-02 -4.0906710544382E-02 -4.0906710633306E-02 -4.0906712145310E-02 
 1.3827290753701E-02  1.1199957228349E-02  1.1133875837512E-02  1.1132707963102E-02  1.1132806237151E-02  1.1132955488671E-02  1.1133135636436E-02  1.1133345959901E-02  1.1133586800639E-02  1.1133859397844E-02 
 3.4280110256833E+00  3.2272303196959E+00  3.1640170773098E+00  3.1628518040438E+00  3.1628662255728E+00  3.1629089578946E+00  3.1629609768625E+00  3.1630215995511E+00  3.1630911491978E+00  1.5815853996136E+00 
 1.7764683212378E-08  3.4488359930489E-08  5.0884718825562E-08  6.7275042525330E-08  8.3665441008362E-08  1.0005606094197E-07  1.1644695044039E-07  1.3283815409844E-07  1.4922985490368E-07  1.4922985490368E-07 
 0.0000000000000E+00  5.0416261857044E+00  8.2372498840270E+00  1.1400684324682E+01  1.4563543339553E+01  1.7726430931339E+01  2.0889365898758E+01  2.4052357186658E+01  2.7215413560945E+01  3.0378544535357E+01 
 3.0378544535377E+01  2.5336918349808E+01  2.2141294651272E+01  1.8977860210601E+01  1.5815001195813E+01  1.2652113604104E+01  9.4891786367265E+00  6.3261873485343E+00  3.1631309741963E+00  0.0000000000000E+00 
 6.8586067177158E-08  6.4254658348782E-08  6.3301738342329E-08  6.3286285113556E-08  6.3286722317515E-08  6.3287580202456E-08  6.3288620243866E-08  6.3289832612934E-08  6.3291222261578E-08  3.1646404115547E-08 
 4.5724222271709E+04  9.1448444543345E+04  9.1448444543345E+04  9.1448444543345E+04  9.1448444543345E+04  9.1448444543344E+04  9.1448444543344E+04  9.1448444543345E+04  9.1448444543345E+04  4.5724222271672E+04 
 3.3835924481007E+05  6.7671848962022E+05  6.7671848962022E+05  6.7671848962022E+05  6.7671848962022E+05  6.7671848962022E+05  6.7671848962022E+05  6.7671848962022E+05  6.7671848962022E+05  3.3835924481011E+05 
 3.8408346708178E+05  7.6816693416356E+05  7.6816693416356E+05  7.6816693416356E+05  7.6816693416356E+05  7.6816693416356E+05  7.6816693416356E+05  7.6816693416356E+05  7.6816693416356E+05  3.8408346708178E+05 
 3.5000000000000E-01  3.5000000000000E-01  3.5000000000000E-01  3.5000000000000E-01  3.5000000000000E-01  3.5000000000000E-01  3.5000000000000E-01  3.5000000000000E-01  3.5000000000000E-01  3.5000000000000E-01 
 8.5301666666667E+00  1.7060333333333E+01  1.7060333333333E+01  1.7060333333333E+01  1.7060333333333E+01  1.7060333333333E+01  1.7060333333333E+01  1.7060333333333E+01  1.7060333333333E+01  8.5301666666667E+00 
 4.0186917321075E-01  1.8916572476286E-01  1.8546044883706E-01  1.8539214575978E-01  1.8539299108494E-01  1.8539549586143E-01  1.8539854497934E-01  1.8540209840865E-01  1.8540617509610E-01  1.8541084382255E-01 
 4.3744444444444E-05  8.7488888888889E-05  8.7488888888889E-05  8.7488888888889E-05  8.7488888888889E-05  8.7488888888889E-05  8.7488888888889E-05  8.7488888888889E-05  8.7488888888889E-05  4.3744444444444E-05 
 8.6666666666650E+01  8.6666666666659E+01  8.6666666666659E+01  8.6666666666659E+01  8.6666666666659E+01  8.6666666666659E+01  8.6666666666659E+01  8.6666666666659E+01  8.6666666666659E+01  8.6666666666659E+01 
 2.1666666666683E+01  2.1666666666674E+01  2.1666666666674E+01  2.1666666666674E+01  2.1666666666674E+01  2.1666666666674E+01  2.1666666666674E+01  2.1666666666674E+01  2.1666666666674E+01  2.1666666666674E+01 
-3.1051045430361E-04 -1.4474110048685E-04 -1.4258116863714E-04 -1.4254594540886E-04 -1.4254666771357E-04 -1.4254827513803E-04 -1.4255022708882E-04 -1.4255250128464E-04 -1.4255510894200E-04 -1.4255830027496E-04 
-1.5520071211388E+04 -7.2701224973997E+03 -7.1268385344691E+03 -7.1241875217039E+03 -7.1242067740778E+03 -7.1242867784175E+03 -7.1243844179795E+03 -7.1244981447038E+03 -7.1246286908586E+03 -7.1247890650020E+03 
 2.5498592253657E-03  6.0270216289157E-03  1.5110942261803E-02  2.8480731385761E-02  4.6163718825470E-02  6.8160669376719E-02  9.4471826453514E-02  1.2509748429590E-01  1.6003797368072E-01  1.7858696829379E-01 
 2.7711961220289E-03  2.4604945253049E-03  1.8822188629077E-03  1.3853542079488E-03  9.6498534789904E-04  6.2104102800483E-04  3.5352243045302E-04  1.6243256234072E-04  4.7775294422713E-05  9.5553461953624E-06 
-1.5520073871418E+04 -7.2701267499895E+03 -7.1268470526087E+03 -7.1242024819181E+03 -7.1242303690125E+03 -7.1243212012381E+03 -7.1244318619762E+03 -7.1245608033109E+03 -7.1247087576790E+03 -7.1248783843525E+03 
 1.0835685711087E+03  4.1313636515863E+02  4.0265425398127E+02  4.0246374039996E+02  4.0246912826519E+02  4.0247996163661E+02  4.0249309387796E+02  4.0250841214631E+02  4.0252597004999E+02  4.0254596186458E+02 
-1.6603642442527E+04 -7.6832631151481E+03 -7.5295013065900E+03 -7.5266662223181E+03 -7.5266994972777E+03 -7.5268011628747E+03 -7.5269249558542E+03 -7.5270692154572E+03 -7.5272347277290E+03 -7.5274243462171E+03 
ZONE T = "ANOD, 3.0000E-08", I = 10, SOLUTIONTIME = 3.000000E-08
ZONETYPE = ORDERED
DATAPACKING = BLOCK
STRANDID = 1
 0.0000000000000E+00  8.7488888888889E-05  1.7497777777778E-04  2.6246666666667E-04  3.4995555555556E-04  4.3744444444444E-04  5.2493333333333E-04  6.1242222222222E-04  6.9991111111111E-04  7.8740000000000E-04 
 2.3786476496614E-09  4.6394109765770E-09  6.8353066573259E-09  9.0299647240507E-09  1.1224612642814E-08  1.3419652907988E-08  1.5614002924679E-08  1.7808395156275E-08  2.0002835693768E-08  2.1099720618081E-08 
 9.1999999999571E-01  9.1999999999798E-01  9.1999999999802E-01  9.1999999999802E-01  9.1999999999802E-01  9.1999999999802E-01  9.1999999999802E-01  9.1999999999802E-01  9.1999999999802E-01  9.1999999999918E-01 
 4.0000000002146E-02  4.0000000001010E-02  4.0000000000990E-02  4.0000000000990E-02  4.0000000000990E-02  4.0000000000990E-02  4.0000000000990E-02  4.0000000000990E-02  4.0000000000990E-02  4.0000000000410E-02 
 4.0000000002146E-02  4.0000000001010E-02  4.0000000000990E-02  4.0000000000990E-02  4.0000000000990E-02  4.0000000000990E-02  4.0000000000990E-02  4.0000000000990E-02  4.0000000000990E-02  4.0000000000410E-02 
 2.9784325495948E-02  2.9784293002403E-02  2.9784230031762E-02  2.9784137278503E-02  2.9784014749997E-02  2.9783862445841E-02  2.9783680365625E-02  2.9783468508858E-02  2.9783226874966E-02  2.9782955463292E-02 
 0.0000000000000E+00 -4.5006458167955E-09 -8.4577604336748E-09 -1.1886939286541E-08 -1.4788567243884E-08 -1.7162646745469E-08 -1.9009170785795E-08 -2.0328130669622E-08 -2.1119516247671E-08 -2.1383315906270E-08 
 3.0200000000000E+02  2.9829300690753E+02  2.9815359650389E+02  2.9815007160857E+02  2.9814999729493E+02  2.9814999533438E+02  2.9814999545811E+02  2.9814999553049E+02  2.9814999564499E+02  2.9814999869750E+02 
-2.9784325495948E-02 -2.9784297503049E-02 -2.9784238489523E-02 -2.9784149165443E-02 -2.9784029538564E-02 -2.9783879608488E-02 -2.9783699374796E-02 -2.9783488836988E-02 -2.9783247994482E-02 -2.9782976846608E-02 
-4.3601490893401E-02 -4.1006583183485E-02 -4.0909224195606E-02 -4.0906762756778E-02 -4.0906710863593E-02 -4.0906709494535E-02 -4.0906709580936E-02 -4.0906709631483E-02 -4.0906709711440E-02 -4.0906711843374E-02 
 1.3817165397454E-02  1.1222285680436E-02  1.1124985706083E-02  1.1122613591335E-02  1.1122681325029E-02  1.1122829886047E-02  1.1123010206140E-02  1.1123220794495E-02  1.1123461716958E-02  1.1123734996766E-02 
 3.4254420715871E+00  3.2556792575256E+00  3.1622646804077E+00  3.1599593695549E+00  3.1599447556915E+00  3.1599867177556E+00  3.1600388010532E+00  3.1600995938771E+00  3.1601691582142E+00  1.5801247044729E+00 
 1.7751503017323E-08  3.4622476934761E-08  5.1009751312611E-08  6.7385085942313E-08  8.3760344971888E-08  1.0013582146552E-07  1.1651156785779E-07  1.3288762929184E-07  1.4926425620944E-07  1.4926425620944E-07 
 0.0000000000000E+00  5.0532817003335E+00  8.2622536693344E+00  1.1423365694373E+01  1.4583317756887E+01  1.7743283493578E+01  2.0903296253035E+01  2.4063365450599E+01  2.7223499826563E+01  3.0383709110087E+01 
 3.0383709110134E+01  2.5330427409794E+01  2.2121455440838E+01  1.8960343415846E+01  1.5800391353203E+01  1.2640425616484E+01  9.4804128570924E+00  6.3203436596271E+00  3.1602092835799E+00  0.0000000000000E+00 
 1.0284048789303E-07  9.6811450924038E-08  9.4924385146405E-08  9.4885878809105E-08  9.4886169874430E-08  9.4887447380011E-08  9.4889008254398E-08  9.4890828551705E-08  9.4892913843721E-08  4.7447651160277E-08 
 4.5724222271743E+04  9.1448444543378E+04  9.1448444543376E+04  9.1448444543376E+04  9.1448444543376E+04  9.1448444543376E+04  9.1448444543376E+04  9.1448444543376E+04  9.1448444543376E+04  4.5724222271688E+04 
 3.3835924481004E+05  6.7671848962018E+05  6.7671848962019E+05  6.7671848962019E+05  6.7671848962019E+05  6.7671848962019E+05  6.7671848962019E+05  6.7671848962019E+05  6.7671848962019E+05  3.3835924481009E+05 
 3.8408346708178E+05  7.6816693416356E+05  7.6816693416356E+05  7.6816693416356E+05  7.6816693416356E+05  7.6816693416356E+05  7.6816693416356E+05  7.6816693416356E+05  7.6816693416356E+05  3.8408346708178E+05 
 3.5000000000000E-01  3.5000000000000E-01  3.5000000000000E-01  3.5000000000000E-01  3.5000000000000E-01  3.5000000000000E-01  3.5000000000000E-01  3.5000000000000E-01  3.5000000000000E-01  3.5000000000000E-01 
 8.5301666666667E+00  1.7060333333333E+01  1.7060333333333E+01  1.7060333333333E+01  1.7060333333333E+01  1.7060333333333E+01  1.7060333333333E+01  1.7060333333333E+01  1.7060333333333E+01  8.5301666666667E+00 
 4.0156801214362E-01  1.9083327353074E-01  1.8535773121320E-01  1.8522260426066E-01  1.8522174766172E-01  1.8522420728916E-01  1.8522726017779E-01  1.8523082357968E-01  1.8523490112820E-01  1.8523960506511E-01 
 4.3744444444444E-05  8.7488888888889E-05  8.7488888888889E-05  8.7488888888889E-05  8.7488888888889E-05  8.7488888888889E-05  8.7488888888889E-05  8.7488888888889E-05  8.7488888888889E-05  4.3744444444444E-05 
 8.6666666666642E+01  8.6666666666655E+01  8.6666666666655E+01  8.6666666666655E+01  8.6666666666655E+01  8.6666666666655E+01  8.6666666666655E+01  8.6666666666655E+01  8.6666666666655E+01  8.6666666666655E+01 
 2.1666666666691E+01  2.1666666666678E+01  2.1666666666678E+01  2.1666666666678E+01  2.1666666666678E+01  2.1666666666678E+01  2.1666666666678E+01  2.1666666666678E+01  2.1666666666678E+01  2.1666666666678E+01 
-4.6560278761184E-04 -2.1809138921018E-04 -2.1381390423679E-04 -2.1372633008818E-04 -2.1372658673240E-04 -2.1372897674560E-04 -2.1373190662609E-04 -2.1373532209323E-04 -2.1373923576528E-04 -2.1374404467036E-04 
-1.5509233330823E+04 -7.3350288723338E+03 -7.1232735599650E+03 -7.1180384679316E+03 -7.1179919018825E+03 -7.1180701607565E+03 -7.1181679537274E+03 -7.1182820808595E+03 -7.1184126823285E+03 -7.1185744395406E+03 
 3.8220751260987E-03  9.0675176884362E-03  2.2733170856502E-02  4.2804188049742E-02  6.9338185866918E-02  1.0233713887244E-01  1.4180143087430E-01  1.8773149959789E-01  2.4012784251474E-01  2.6794264693398E-01 
 4.1579963582187E-03  3.6899276057417E-03  2.8207968941280E-03  2.0761150145700E-03  1.4461421872040E-03  9.3070183145977E-04  5.2979427758391E-04  2.4342400259264E-04  7.1596813984592E-05  1.4319795291444E-05 
-1.5509235989839E+04 -7.3350331422629E+03 -7.1232821207717E+03 -7.1180534821491E+03 -7.1180155575063E+03 -7.1181046468868E+03 -7.1182154596037E+03 -7.1183447958662E+03 -7.1184927960188E+03 -7.1186637999837E+03 
 1.0819636702489E+03  4.1760917502261E+02  4.0210991150816E+02  4.0173109384421E+02  4.0173168238035E+02  4.0174238295641E+02  4.0175551756315E+02  4.0177085298910E+02  4.0178839961976E+02  4.0180847414489E+02 
-1.6591199660088E+04 -7.7526423172855E+03 -7.5253920322798E+03 -7.5197845759933E+03 -7.5197472398867E+03 -7.5198470298432E+03 -7.5199709771668E+03 -7.5201156488553E+03 -7.5202811956386E+03 -7.5204722741286E+03 
ZONE T = "ANOD, 4.0000E-08", I = 10, SOLUTIONTIME = 4.000000E-08
ZONETYPE = ORDERED
DATAPACKING = BLOCK
STRANDID = 1
 0.0000000000000E+00  8.7488888888889E-05  1.7497777777778E-04  2.6246666666667E-04  3.4995555555556E-04  4.3744444444444E-04  5.2493333333333E-04  6.1242222222222E-04  6.9991111111111E-04  7.8740000000000E-04 
 2.3768746647861E-09  4.6570196337220E-09  6.8519540895862E-09  9.0442655851248E-09  1.1236534320674E-08  1.3428831484943E-08  1.5621164753648E-08  1.7813540232456E-08  2.0005963965756E-08  2.1103838416349E-08 
 9.1999999999428E-01  9.1999999999730E-01  9.1999999999736E-01  9.1999999999736E-01  9.1999999999736E-01  9.1999999999736E-01  9.1999999999736E-01  9.1999999999736E-01  9.1999999999736E-01  9.1999999999891E-01 
 4.0000000002860E-02  4.0000000001352E-02  4.0000000001320E-02  4.0000000001319E-02  4.0000000001319E-02  4.0000000001319E-02  4.0000000001319E-02  4.0000000001319E-02  4.0000000001319E-02  4.0000000000546E-02 
 4.0000000002860E-02  4.0000000001352E-02  4.0000000001320E-02  4.0000000001319E-02  4.0000000001319E-02  4.0000000001319E-02  4.0000000001319E-02  4.0000000001319E-02  4.0000000001319E-02  4.0000000000546E-02 
 2.9794389419624E-02  2.9794356947848E-02  2.9794293733159E-02  2.9794200753629E-02  2.9794078026122E-02  2.9793925550336E-02  2.9793743325856E-02  2.9793531352192E-02  2.9793289628770E-02  2.9793018154933E-02 
 0.0000000000000E+00 -4.5019310916837E-09 -8.4556712621004E-09 -1.1881706765545E-08 -1.4780668212376E-08 -1.7152565882921E-08 -1.8997392942368E-08 -2.0315140710511E-08 -2.1105799039226E-08 -2.1369356327200E-08 