TITLE = "Solution on Domain BulkDomain1D_2"
VARIABLES = "x [m]"  
"Vel_axial" 	"MF_sp(ECDMC)" 	"MF_sp(Li+)" 	"MF_sp(PF6-)" 	"Volt(Electroly)" 	"Volt(CathodeVo)" 	"Temperature" 	
"Potential Drop Electrode-Electrolyte [V]" 	"Surf_0 Equilibrium Potential Drop Electrode-Electrolyte [V]" 	"Overpotential_0 [V]" 	"Current Source [A/m^2]" 	"Li+ flux [kmol/m^2/s]" 	"Electrolyte Current [A/m^2]" 	"Electrode Current [A/m^2]" 	
"CV Capacity discharged [A-s/m^2]" 	"Depth of discharge in CV [A-s/m^2]" 	"CV Capacity remaining [A-s/m^2]" 	"Initial CV capacity [A-s/m^2]" 	"Porosity []" 	"Surface Area [m2/m2] (area per area)" 	"Specific current (per particle area) [A/m^2]" 	"Control volume thickness [m]" 	
"MoleDens LiCoO2 [kmol/m^3]" 	"MoleDens CoO2 [kmol/m^3]" 	"qHeat_accum [J/m3]" 	"qHeat_step [W/m3]" 	"Joule_Lyte [W/m3]" 	"Joule_Solid [W/m3]" 	"electrodHeat [W/m3]" 	"OverpotHeat [W/m3]" 	"deltaSHeat [W/m3]" 	

ZONE T = "CATH, 0.0000E+00", I = 10, SOLUTIONTIME = 0.000000E+00
ZONETYPE = ORDERED
DATAPACKING = BLOCK
STRANDID = 3
 1.2700000000000E-03  1.3377333333333E-03  1.4054666666667E-03  1.4732000000000E-03  1.5409333333333E-03  1.6086666666667E-03  1.6764000000000E-03  1.7441333333333E-03  1.8118666666667E-03  1.8796000000000E-03 
 0.0000000000000E+00  0.0000000000000E+00  0.0000000000000E+00  0.0000000000000E+00  0.0000000000000E+00  0.0000000000000E+00  0.0000000000000E+00  0.0000000000000E+00  0.0000000000000E+00  0.0000000000000E+00 
 9.2000000000000E-01  9.2000000000000E-01  9.2000000000000E-01  9.2000000000000E-01  9.2000000000000E-01  9.2000000000000E-01  9.2000000000000E-01  9.2000000000000E-01  9.2000000000000E-01  9.2000000000000E-01 
 4.0000000000000E-02  4.0000000000000E-02  4.0000000000000E-02  4.0000000000000E-02  4.0000000000000E-02  4.0000000000000E-02  4.0000000000000E-02  4.0000000000000E-02  4.0000000000000E-02  4.0000000000000E-02 
 4.0000000000000E-02  4.0000000000000E-02  4.0000000000000E-02  4.0000000000000E-02  4.0000000000000E-02  4.0000000000000E-02  4.0000000000000E-02  4.0000000000000E-02  4.0000000000000E-02  4.0000000000000E-02 
-7.0000000000000E-02 -7.0000000000000E-02 -7.0000000000000E-02 -7.0000000000000E-02 -7.0000000000000E-02 -7.0000000000000E-02 -7.0000000000000E-02 -7.0000000000000E-02 -7.0000000000000E-02 -7.0000000000000E-02 
 3.8000000000000E+00  3.8000000000000E+00  3.8000000000000E+00  3.8000000000000E+00  3.8000000000000E+00  3.8000000000000E+00  3.8000000000000E+00  3.8000000000000E+00  3.8000000000000E+00  3.8000000000000E+00 
 2.9815000000000E+02  2.9815000000000E+02  2.9815000000000E+02  2.9815000000000E+02  2.9815000000000E+02  2.9815000000000E+02  2.9815000000000E+02  2.9815000000000E+02  2.9815000000000E+02  2.9800000000000E+02 
 3.8700000000000E+00  3.8700000000000E+00  3.8700000000000E+00  3.8700000000000E+00  3.8700000000000E+00  3.8700000000000E+00  3.8700000000000E+00  3.8700000000000E+00  3.8700000000000E+00  3.8700000000000E+00 
 3.9714142713289E+00  3.9714142713289E+00  3.9714142713289E+00  3.9714142713289E+00  3.9714142713289E+00  3.9714142713289E+00  3.9714142713289E+00  3.9714142713289E+00  3.9714142713289E+00  3.9715353395963E+00 
-1.0141427132889E-01 -1.0141427132889E-01 -1.0141427132889E-01 -1.0141427132889E-01 -1.0141427132889E-01 -1.0141427132889E-01 -1.0141427132889E-01 -1.0141427132889E-01 -1.0141427132889E-01 -1.0153533959628E-01 
-2.3826357195711E-01 -4.7652714391422E-01 -4.7652714391423E-01 -4.7652714391422E-01 -4.7652714391423E-01 -4.7652714391423E-01 -4.7652714391422E-01 -4.7652714391423E-01 -4.7652714391422E-01 -2.3524219296987E-01 
-0.0000000000000E+00 -0.0000000000000E+00 -0.0000000000000E+00 -0.0000000000000E+00 -0.0000000000000E+00 -0.0000000000000E+00 -0.0000000000000E+00 -0.0000000000000E+00 -0.0000000000000E+00 -0.0000000000000E+00 
 2.3826357195711E-01  0.0000000000000E+00  0.0000000000000E+00  0.0000000000000E+00  0.0000000000000E+00  0.0000000000000E+00  0.0000000000000E+00  0.0000000000000E+00  0.0000000000000E+00  0.0000000000000E+00 
 0.0000000000000E+00 -0.0000000000000E+00 -0.0000000000000E+00 -0.0000000000000E+00 -0.0000000000000E+00 -0.0000000000000E+00 -0.0000000000000E+00 -0.0000000000000E+00 -0.0000000000000E+00  2.3524219296987E-01 
-0.0000000000000E+00 -0.0000000000000E+00 -0.0000000000000E+00 -0.0000000000000E+00 -0.0000000000000E+00 -0.0000000000000E+00 -0.0000000000000E+00 -0.0000000000000E+00 -0.0000000000000E+00 -0.0000000000000E+00 
 7.2440786946225E+03  1.4488157389245E+04  1.4488157389245E+04  1.4488157389245E+04  1.4488157389245E+04  1.4488157389245E+04  1.4488157389245E+04  1.4488157389245E+04  1.4488157389245E+04  7.2440786946225E+03 
 4.9259735123433E+04  9.8519470246865E+04  9.8519470246866E+04  9.8519470246865E+04  9.8519470246866E+04  9.8519470246866E+04  9.8519470246865E+04  9.8519470246866E+04  9.8519470246865E+04  4.9259735123433E+04 
 5.6503813818055E+04  1.1300762763611E+05  1.1300762763611E+05  1.1300762763611E+05  1.1300762763611E+05  1.1300762763611E+05  1.1300762763611E+05  1.1300762763611E+05  1.1300762763611E+05  5.6503813818055E+04 
 3.5000000000000E-01  3.5000000000000E-01  3.5000000000000E-01  3.5000000000000E-01  3.5000000000000E-01  3.5000000000000E-01  3.5000000000000E-01  3.5000000000000E-01  3.5000000000000E-01  3.5000000000000E-01 
 6.6040000000000E+00  1.3208000000000E+01  1.3208000000000E+01  1.3208000000000E+01  1.3208000000000E+01  1.3208000000000E+01  1.3208000000000E+01  1.3208000000000E+01  1.3208000000000E+01  6.6040000000000E+00 
-3.6078675341780E-02 -3.6078675341780E-02 -3.6078675341780E-02 -3.6078675341780E-02 -3.6078675341780E-02 -3.6078675341780E-02 -3.6078675341780E-02 -3.6078675341780E-02 -3.6078675341780E-02 -3.5621167923965E-02 
 3.3866666666667E-05  6.7733333333333E-05  6.7733333333334E-05  6.7733333333333E-05  6.7733333333334E-05  6.7733333333334E-05  6.7733333333333E-05  6.7733333333334E-05  6.7733333333333E-05  3.3866666666667E-05 
 2.6603001364256E+01  2.6603001364256E+01  2.6603001364256E+01  2.6603001364256E+01  2.6603001364256E+01  2.6603001364256E+01  2.6603001364256E+01  2.6603001364256E+01  2.6603001364256E+01  2.6603001364256E+01 
 1.7735334242838E+01  1.7735334242838E+01  1.7735334242838E+01  1.7735334242838E+01  1.7735334242838E+01  1.7735334242838E+01  1.7735334242838E+01  1.7735334242838E+01  1.7735334242838E+01  1.7735334242838E+01 
 0.0000000000000E+00  0.0000000000000E+00  0.0000000000000E+00  0.0000000000000E+00  0.0000000000000E+00  0.0000000000000E+00  0.0000000000000E+00  0.0000000000000E+00  0.0000000000000E+00  0.0000000000000E+00 
 0.0000000000000E+00  0.0000000000000E+00  0.0000000000000E+00  0.0000000000000E+00  0.0000000000000E+00  0.0000000000000E+00  0.0000000000000E+00  0.0000000000000E+00  0.0000000000000E+00  0.0000000000000E+00 
 0.0000000000000E+00  0.0000000000000E+00  0.0000000000000E+00  0.0000000000000E+00  0.0000000000000E+00  0.0000000000000E+00  0.0000000000000E+00  0.0000000000000E+00  0.0000000000000E+00  0.0000000000000E+00 
 0.0000000000000E+00  0.0000000000000E+00  0.0000000000000E+00  0.0000000000000E+00  0.0000000000000E+00  0.0000000000000E+00  0.0000000000000E+00  0.0000000000000E+00  0.0000000000000E+00  0.0000000000000E+00 
 0.0000000000000E+00  0.0000000000000E+00  0.0000000000000E+00  0.0000000000000E+00  0.0000000000000E+00  0.0000000000000E+00  0.0000000000000E+00  0.0000000000000E+00  0.0000000000000E+00  0.0000000000000E+00 
 0.0000000000000E+00  0.0000000000000E+00  0.0000000000000E+00  0.0000000000000E+00  0.0000000000000E+00  0.0000000000000E+00  0.0000000000000E+00  0.0000000000000E+00  0.0000000000000E+00  0.0000000000000E+00 
 0.0000000000000E+00  0.0000000000000E+00  0.0000000000000E+00  0.0000000000000E+00  0.0000000000000E+00  0.0000000000000E+00  0.0000000000000E+00  0.0000000000000E+00  0.0000000000000E+00  0.0000000000000E+00 
ZONE T = "CATH, 1.0000E-08", I = 10, SOLUTIONTIME = 1.000000E-08
ZONETYPE = ORDERED
DATAPACKING = BLOCK
STRANDID = 3
 1.2700000000000E-03  1.3377333333333E-03  1.4054666666667E-03  1.4732000000000E-03  1.5409333333333E-03  1.6086666666667E-03  1.6764000000000E-03  1.7441333333333E-03  1.8118666666667E-03  1.8796000000000E-03 
 1.9920489461309E-08  1.7577980435361E-08  1.5235181438031E-08  1.2891892331924E-08  1.0547912781938E-08  8.2030422603966E-09  5.8570801366802E-09  3.5098368247901E-09  1.1616692783015E-09  1.8160364269375E-13 
 9.2000000000032E-01  9.2000000000091E-01  9.2000000000091E-01  9.2000000000091E-01  9.2000000000091E-01  9.2000000000091E-01  9.2000000000091E-01  9.2000000000091E-01  9.2000000000091E-01  9.2000000000090E-01 
 3.9999999999839E-02  3.9999999999545E-02  3.9999999999545E-02  3.9999999999545E-02  3.9999999999545E-02  3.9999999999545E-02  3.9999999999545E-02  3.9999999999545E-02  3.9999999999544E-02  3.9999999999549E-02 
 3.9999999999839E-02  3.9999999999545E-02  3.9999999999545E-02  3.9999999999545E-02  3.9999999999545E-02  3.9999999999545E-02  3.9999999999545E-02  3.9999999999545E-02  3.9999999999544E-02  3.9999999999549E-02 
 2.9762196688948E-02  2.9761987417422E-02  2.9761802755204E-02  2.9761642705333E-02  2.9761507272951E-02  2.9761396465324E-02  2.9761310291820E-02  2.9761248763895E-02  2.9761211895214E-02  2.9761199698206E-02 
 3.8001766760123E+00  3.8001744960277E+00  3.8001679559054E+00  3.8001570551057E+00  3.8001417927165E+00  3.8001221674525E+00  3.8000981776554E+00  3.8000698212933E+00  3.8000370959816E+00  3.8000000000000E+00 
 2.9815000105422E+02  2.9815000415270E+02  2.9815000423208E+02  2.9815000422926E+02  2.9815000430730E+02  2.9815000423646E+02  2.9815000293510E+02  2.9814993913167E+02  2.9814687880390E+02  2.9800000000000E+02 
 3.7704144793233E+00  3.7704125086102E+00  3.7704061531502E+00  3.7703954124004E+00  3.7703802854435E+00  3.7703607709872E+00  3.7703368673635E+00  3.7703085725294E+00  3.7702758840864E+00  3.7702388003018E+00 
 3.9714142704778E+00  3.9714142679765E+00  3.9714142679124E+00  3.9714142679147E+00  3.9714142678517E+00  3.9714142679089E+00  3.9714142689593E+00  3.9714143204606E+00  3.9714167907101E+00  3.9715353395959E+00 
-2.0099979115443E-01 -2.0100175936629E-01 -2.0100811476226E-01 -2.0101885551431E-01 -2.0103398240818E-01 -2.0105349692174E-01 -2.0107740159581E-01 -2.0110574793118E-01 -2.0114090662374E-01 -2.0129653929411E-01 
-1.6866433155900E+00 -3.3734169386962E+00 -3.3738345535969E+00 -3.3745404048748E+00 -3.3755347771404E+00 -3.3768179483496E+00 -3.3783900667380E+00 -3.3802352283658E+00 -3.3815663679569E+00 -1.6723822729059E+00 
 1.4865779298669E-07  1.3117624416104E-07  1.1369267184952E-07  9.6205446674270E-08  7.8713060317375E-08  6.1214019616597E-08  4.3706845304173E-08  2.6190094766978E-08  8.6664632976001E-09  8.6664632976001E-09 
 3.0373211782459E+01  2.6999868284090E+01  2.3626259742999E+01  2.0252090577942E+01  1.6877070986470E+01  1.3500911370409E+01  1.0123324933397E+01  6.7440297612709E+00  3.3631469431315E+00  0.0000000000000E+00 
 0.0000000000000E+00  3.3733344283805E+00  6.7469427943778E+00  1.0121112849215E+01  1.3496132948828E+01  1.6872291730727E+01  2.0249878044584E+01  2.3629172861947E+01  2.7010055671435E+01  3.0373212091850E+01 
 1.6866433155900E-08  3.3734169386962E-08  3.3738345535969E-08  3.3745404048748E-08  3.3755347771404E-08  3.3768179483496E-08  3.3783900667380E-08  3.3802352283658E-08  3.3815663679569E-08  1.6723822729059E-08 
 7.2440786946393E+03  1.4488157389279E+04  1.4488157389279E+04  1.4488157389279E+04  1.4488157389279E+04  1.4488157389279E+04  1.4488157389279E+04  1.4488157389279E+04  1.4488157389279E+04  7.2440786946392E+03 
 4.9259735123416E+04  9.8519470246831E+04  9.8519470246832E+04  9.8519470246831E+04  9.8519470246832E+04  9.8519470246832E+04  9.8519470246831E+04  9.8519470246832E+04  9.8519470246831E+04  4.9259735123416E+04 
 5.6503813818055E+04  1.1300762763611E+05  1.1300762763611E+05  1.1300762763611E+05  1.1300762763611E+05  1.1300762763611E+05  1.1300762763611E+05  1.1300762763611E+05  1.1300762763611E+05  5.6503813818055E+04 
 3.5000000000000E-01  3.5000000000000E-01  3.5000000000000E-01  3.5000000000000E-01  3.5000000000000E-01  3.5000000000000E-01  3.5000000000000E-01  3.5000000000000E-01  3.5000000000000E-01  3.5000000000000E-01 
 6.6040000000000E+00  1.3208000000000E+01  1.3208000000000E+01  1.3208000000000E+01  1.3208000000000E+01  1.3208000000000E+01  1.3208000000000E+01  1.3208000000000E+01  1.3208000000000E+01  6.6040000000000E+00 
-2.5539723131284E-01 -2.5540709711510E-01 -2.5543871544495E-01 -2.5549215663801E-01 -2.5556744224261E-01 -2.5566459330327E-01 -2.5578362104315E-01 -2.5592332134811E-01 -2.5602410417602E-01 -2.5323777603058E-01 
 3.3866666666667E-05  6.7733333333333E-05  6.7733333333334E-05  6.7733333333333E-05  6.7733333333334E-05  6.7733333333334E-05  6.7733333333333E-05  6.7733333333334E-05  6.7733333333333E-05  3.3866666666667E-05 
 2.6603001364262E+01  2.6603001364262E+01  2.6603001364262E+01  2.6603001364262E+01  2.6603001364262E+01  2.6603001364262E+01  2.6603001364262E+01  2.6603001364262E+01  2.6603001364262E+01  2.6603001364262E+01 
 1.7735334242832E+01  1.7735334242832E+01  1.7735334242832E+01  1.7735334242832E+01  1.7735334242832E+01  1.7735334242832E+01  1.7735334242832E+01  1.7735334242832E+01  1.7735334242832E+01  1.7735334242833E+01 
 2.1996011828278E-04  2.1997167040523E-04  2.2000839846861E-04  2.2007047782796E-04  2.2015793392013E-04  2.2027079450528E-04  2.2040908158742E-04  2.2057176529136E-04  2.2070714757825E-04  2.1832391554055E-04 
 2.1996011828278E+04  2.1997167040523E+04  2.2000839846861E+04  2.2007047782796E+04  2.2015793392013E+04  2.2027079450528E+04  2.2040908158742E+04  2.2057176529136E+04  2.2070714757825E+04  2.1832391554055E+04 
 8.8631131576590E-02  7.8821366243836E-02  6.0426497011641E-02  4.4480827797156E-02  3.0984528169334E-02  1.9938610198228E-02  1.1344934899450E-02  5.2061992731896E-03  1.5260531086629E-03  3.0115092994858E-04 
 5.4284019365989E-02  2.7143267732427E-01  9.2295004763260E-01  2.0090531210125E+00  3.5301074276035E+00  5.4866273160763E+00  7.8792761871052E+00  1.0708858962138E+01  1.3975887065525E+01  1.5718781321996E+01 
 2.1995868913127E+04  2.1996816786479E+04  2.1999856470317E+04  2.2004994248847E+04  2.2012232300057E+04  2.2021572884602E+04  2.2033017537620E+04  2.2046462463975E+04  2.2056737344706E+04  2.1816672471582E+04 
 1.0010284080289E+04  1.0010768795595E+04  1.0012324652647E+04  1.0014954479464E+04  1.0018659434156E+04  1.0023440801941E+04  1.0029299648589E+04  1.0036191935800E+04  1.0041899484156E+04  9.9402981470454E+03 
 1.1985584832839E+04  1.1986047990884E+04  1.1987531817670E+04  1.1990039769383E+04  1.1993572865901E+04  1.1998132082661E+04  1.2003717889031E+04  1.2010270528175E+04  1.2014837860550E+04  1.1876374324537E+04 
ZONE T = "CATH, 2.0000E-08", I = 10, SOLUTIONTIME = 2.000000E-08
ZONETYPE = ORDERED
DATAPACKING = BLOCK
STRANDID = 3
 1.2700000000000E-03  1.3377333333333E-03  1.4054666666667E-03  1.4732000000000E-03  1.5409333333333E-03  1.6086666666667E-03  1.6764000000000E-03  1.7441333333333E-03  1.8118666666667E-03  1.8796000000000E-03 
 1.9914517515507E-08  1.7570806059293E-08  1.5228257297236E-08  1.2884491761801E-08  1.0540035451953E-08  8.1950509677757E-09  5.8489750529603E-09  3.5009134821065E-09  1.1524626603206E-09 -9.2617970584171E-12 
 9.2000000000064E-01  9.2000000000182E-01  9.2000000000182E-01  9.2000000000182E-01  9.2000000000182E-01  9.2000000000182E-01  9.2000000000182E-01  9.2000000000182E-01  9.2000000000182E-01  9.2000000000180E-01 
 3.9999999999679E-02  3.9999999999091E-02  3.9999999999091E-02  3.9999999999091E-02  3.9999999999090E-02  3.9999999999090E-02  3.9999999999089E-02  3.9999999999089E-02  3.9999999999089E-02  3.9999999999099E-02 
 3.9999999999679E-02  3.9999999999091E-02  3.9999999999091E-02  3.9999999999091E-02  3.9999999999090E-02  3.9999999999090E-02  3.9999999999089E-02  3.9999999999089E-02  3.9999999999089E-02  3.9999999999099E-02 
 2.9772382118683E-02  2.9772172810685E-02  2.9771988116990E-02  2.9771828040648E-02  2.9771692586811E-02  2.9771581762736E-02  2.9771495577787E-02  2.9771434043450E-02  2.9771397173304E-02  2.9771384973873E-02 
 3.8001767108056E+00  3.8001745303785E+00  3.8001679889278E+00  3.8001570859134E+00  3.8001418204226E+00  3.8001221911696E+00  3.8000981964954E+00  3.8000698343684E+00  3.8000371024448E+00  3.8000000000000E+00 
 2.9815000218822E+02  2.9815000834813E+02  2.9815000856681E+02  2.9815000863766E+02  2.9815000871076E+02  2.9815000854566E+02  2.9815000350601E+02  2.9814981860807E+02  2.9814388522748E+02  2.9800000000000E+02 
 3.7704043286869E+00  3.7704023575678E+00  3.7703960008108E+00  3.7703852578728E+00  3.7703701278358E+00  3.7703506094069E+00  3.7703267009176E+00  3.7702984003249E+00  3.7702657052715E+00  3.7702286150261E+00 
 3.9714142695622E+00  3.9714142645896E+00  3.9714142644131E+00  3.9714142643559E+00  3.9714142642969E+00  3.9714142644302E+00  3.9714142684981E+00  3.9714144177452E+00  3.9714192070709E+00  3.9715353395955E+00 
-2.0100994087534E-01 -2.0101190702182E-01 -2.0101826360232E-01 -2.0102900648319E-01 -2.0104413646116E-01 -2.0106365502330E-01 -2.0108756758052E-01 -2.0111601742021E-01 -2.0115350179942E-01 -2.0130672456941E-01 
-1.6869769471792E+00 -3.3740850742920E+00 -3.3745028943229E+00 -3.3752090487868E+00 -3.3762038189610E+00 -3.3774874801189E+00 -3.3790592271671E+00 -3.3808726339057E+00 -3.3814331862526E+00 -1.6727142243823E+00 
 1.4868383324689E-07  1.3119860206170E-07  1.1371147389201E-07  9.6220686355106E-08  7.8724743781169E-08  6.1222149096310E-08  4.3711409409945E-08  2.6191272260951E-08  8.6682257753991E-09  8.6682257753991E-09 
 3.0378544535249E+01  2.7004525051056E+01  2.3630231066631E+01  2.0255375095015E+01  1.6879668661600E+01  1.3502823011823E+01  1.0124549657955E+01  6.7445837275489E+00  3.3634308174642E+00  0.0000000000000E+00 
 0.0000000000000E+00  3.3740194843301E+00  6.7483134685583E+00  1.0123169440204E+01  1.3498875874086E+01  1.6875721523673E+01  2.0253994877356E+01  2.3633960807701E+01  2.7015113717789E+01  3.0378544535450E+01 
 3.3736202627692E-08  6.7475020129882E-08  6.7483374479198E-08  6.7497494536616E-08  6.7517385961014E-08  6.7543054284685E-08  6.7574492939050E-08  6.7611078622715E-08  6.7629995542095E-08  3.3450964972882E-08 
 7.2440786946562E+03  1.4488157389312E+04  1.4488157389312E+04  1.4488157389312E+04  1.4488157389312E+04  1.4488157389313E+04  1.4488157389312E+04  1.4488157389313E+04  1.4488157389313E+04  7.2440786946559E+03 
 4.9259735123399E+04  9.8519470246798E+04  9.8519470246798E+04  9.8519470246798E+04  9.8519470246798E+04  9.8519470246798E+04  9.8519470246798E+04  9.8519470246798E+04  9.8519470246798E+04  4.9259735123399E+04 
 5.6503813818055E+04  1.1300762763611E+05  1.1300762763611E+05  1.1300762763611E+05  1.1300762763611E+05  1.1300762763611E+05  1.1300762763611E+05  1.1300762763611E+05  1.1300762763611E+05  5.6503813818055E+04 
 3.5000000000000E-01  3.5000000000000E-01  3.5000000000000E-01  3.5000000000000E-01  3.5000000000000E-01  3.5000000000000E-01  3.5000000000000E-01  3.5000000000000E-01  3.5000000000000E-01  3.5000000000000E-01 
 6.6040000000000E+00  1.3208000000000E+01  1.3208000000000E+01  1.3208000000000E+01  1.3208000000000E+01  1.3208000000000E+01  1.3208000000000E+01  1.3208000000000E+01  1.3208000000000E+01  6.6040000000000E+00 
-2.5544775093568E-01 -2.5545768279013E-01 -2.5548931665073E-01 -2.5554278079852E-01 -2.5561809652945E-01 -2.5571528468495E-01 -2.5583428431004E-01 -2.5597158039867E-01 -2.5601402076413E-01 -2.5328804124504E-01 
 3.3866666666667E-05  6.7733333333333E-05  6.7733333333334E-05  6.7733333333333E-05  6.7733333333334E-05  6.7733333333334E-05  6.7733333333333E-05  6.7733333333334E-05  6.7733333333333E-05  3.3866666666667E-05 
 2.6603001364267E+01  2.6603001364267E+01  2.6603001364267E+01  2.6603001364267E+01  2.6603001364267E+01  2.6603001364267E+01  2.6603001364267E+01  2.6603001364267E+01  2.6603001364267E+01  2.6603001364267E+01 
 1.7735334242827E+01  1.7735334242827E+01  1.7735334242827E+01  1.7735334242827E+01  1.7735334242827E+01  1.7735334242827E+01  1.7735334242827E+01  1.7735334242827E+01  1.7735334242827E+01  1.7735334242827E+01 
 4.3996880310036E-04  4.3999196606017E-04  4.4006544005904E-04  4.4018962612265E-04  4.4036457491064E-04  4.4059034177351E-04  4.4086690809520E-04  4.4119020869225E-04  4.4141036040612E-04  4.3669622044158E-04 
 2.2000868481758E+04  2.2002029565494E+04  2.2005704159043E+04  2.2011914829469E+04  2.2020664099051E+04  2.2031954726823E+04  2.2045782650778E+04  2.2061844340089E+04  2.2070321282787E+04  2.1837230490103E+04 
 8.8662026017794E-02  7.8848577397405E-02  6.0446835338163E-02  4.4495283041673E-02  3.0994097783922E-02  1.9944294970183E-02  1.1347730208642E-02  5.2071150711595E-03  1.5262301767164E-03  3.0127207183849E-04 
 5.4306055728337E-02  2.7154294733331E-01  9.2332509990722E-01  2.0098696884300E+00  3.5315424937826E+00  5.4888582052429E+00  7.8824802546381E+00  1.0713198288171E+01  1.3981097806552E+01  1.5724259107133E+01 
 2.2000725513676E+04  2.2001679173970E+04  2.2004720387108E+04  2.2009860464498E+04  2.2017101562460E+04  2.2026445924323E+04  2.2037888822794E+04  2.2051125934686E+04  2.2056338658750E+04  2.1821505929724E+04 
 1.0012769775907E+04  1.0013257016313E+04  1.0014813666419E+04  1.0017444710901E+04  1.0021151298733E+04  1.0025934707910E+04  1.0031793317458E+04  1.0038597040410E+04  1.0042132773373E+04  9.9427742613644E+03 
 1.1987955737769E+04  1.1988422157657E+04  1.1989906720689E+04  1.1992415753597E+04  1.1995950263727E+04  1.2000511216413E+04  1.2006095505335E+04  1.2012528894276E+04  1.2014205885377E+04  1.1878731668360E+04 
ZONE T = "CATH, 3.0000E-08", I = 10, SOLUTIONTIME = 3.000000E-08
ZONETYPE = ORDERED
DATAPACKING = BLOCK
STRANDID = 3
 1.2700000000000E-03  1.3377333333333E-03  1.4054666666667E-03  1.4732000000000E-03  1.5409333333333E-03  1.6086666666667E-03  1.6764000000000E-03  1.7441333333333E-03  1.8118666666667E-03  1.8796000000000E-03 
 1.9929132921344E-08  1.7586049788113E-08  1.5241949947655E-08  1.2897359558090E-08  1.0552078119996E-08  8.2062682163707E-09  5.8593678026844E-09  3.5119661695289E-09  1.1646776804171E-09  3.0872656861213E-12 
 9.2000000000096E-01  9.2000000000273E-01  9.2000000000273E-01  9.2000000000273E-01  9.2000000000273E-01  9.2000000000273E-01  9.2000000000273E-01  9.2000000000273E-01  9.2000000000273E-01  9.2000000000270E-01 
 3.9999999999518E-02  3.9999999998636E-02  3.9999999998636E-02  3.9999999998636E-02  3.9999999998635E-02  3.9999999998635E-02  3.9999999998634E-02  3.9999999998633E-02  3.9999999998633E-02  3.9999999998648E-02 
 3.9999999999518E-02  3.9999999998636E-02  3.9999999998636E-02  3.9999999998636E-02  3.9999999998635E-02  3.9999999998635E-02  3.9999999998634E-02  3.9999999998633E-02  3.9999999998633E-02  3.9999999998648E-02 
 2.9782506155566E-02  2.9782296812311E-02  2.9782112088203E-02  2.9781951986297E-02  2.9781816511745E-02  2.9781705671809E-02  2.9781619475856E-02  2.9781557935379E-02  2.9781521063778E-02  2.9781508861999E-02 
 3.8001767444815E+00  3.8001745636257E+00  3.8001680208876E+00  3.8001571157269E+00  3.8001418472305E+00  3.8001222141123E+00  3.8000982147124E+00  3.8000698470011E+00  3.8000371086935E+00  3.8000000000000E+00 
 2.9815000331750E+02  2.9815001255829E+02  2.9815001299525E+02  2.9815001305513E+02  2.9815001313877E+02  2.9815001265144E+02  2.9815000036107E+02  2.9814964320544E+02  2.9814101273540E+02  2.9800000000000E+02 
 3.7703942383259E+00  3.7703922668133E+00  3.7703859087994E+00  3.7703751637406E+00  3.7703600307188E+00  3.7703405084405E+00  3.7703165952365E+00  3.7702882890657E+00  3.7702555876297E+00  3.7702184911380E+00 
 3.9714142686505E+00  3.9714142611909E+00  3.9714142608382E+00  3.9714142607899E+00  3.9714142607223E+00  3.9714142611157E+00  3.9714142710363E+00  3.9714145593273E+00  3.9714215256873E+00  3.9715353395952E+00 
-2.0102003032462E-01 -2.0102199437755E-01 -2.0102835203882E-01 -2.0103909704926E-01 -2.0105423000355E-01 -2.0107375267525E-01 -2.0109767579980E-01 -2.0112627026155E-01 -2.0116593805764E-01 -2.0131684845717E-01 
-1.6873086632033E+00 -3.3747493833179E+00 -3.3751674265894E+00 -3.3758738563785E+00 -3.3768690213002E+00 -3.3781531018130E+00 -3.3797235231588E+00 -3.3814914152299E+00 -3.3813284787934E+00 -1.6730442403498E+00 
 1.4870901194299E-07  1.3122020407356E-07  1.1372963223096E-07  9.6235399582772E-08  7.8736009857502E-08  6.1229965850028E-08  4.3715783707311E-08  2.6192439834140E-08  8.6699337928328E-09  8.6699337928328E-09 
 3.0383709110028E+01  2.7009025755287E+01  2.3634067350321E+01  2.0258546708646E+01  1.6882175269948E+01  1.3504664208471E+01  1.0125725896071E+01  6.7451184268233E+00  3.3637084796791E+00  0.0000000000000E+00 
 0.0000000000000E+00  3.3746833548241E+00  6.7496417598023E+00  1.0125162401299E+01  1.3501533840202E+01  1.6879044901790E+01  2.0257983214110E+01  2.3638590683285E+01  2.7020000630418E+01  3.0383709110190E+01 
 5.0609289259725E-08  1.0122251396306E-07  1.0123504874509E-07  1.0125623310040E-07  1.0128607617402E-07  1.0132458530281E-07  1.0137172817064E-07  1.0142599277501E-07  1.0144328033003E-07  5.0181407376380E-08 
 7.2440786946731E+03  1.4488157389346E+04  1.4488157389346E+04  1.4488157389346E+04  1.4488157389346E+04  1.4488157389346E+04  1.4488157389346E+04  1.4488157389346E+04  1.4488157389346E+04  7.2440786946727E+03 
 4.9259735123382E+04  9.8519470246764E+04  9.8519470246765E+04  9.8519470246764E+04  9.8519470246764E+04  9.8519470246764E+04  9.8519470246764E+04  9.8519470246764E+04  9.8519470246764E+04  4.9259735123383E+04 
 5.6503813818055E+04  1.1300762763611E+05  1.1300762763611E+05  1.1300762763611E+05  1.1300762763611E+05  1.1300762763611E+05  1.1300762763611E+05  1.1300762763611E+05  1.1300762763611E+05  5.6503813818055E+04 
 3.5000000000000E-01  3.5000000000000E-01  3.5000000000000E-01  3.5000000000000E-01  3.5000000000000E-01  3.5000000000000E-01  3.5000000000000E-01  3.5000000000000E-01  3.5000000000000E-01  3.5000000000000E-01 
 6.6040000000000E+00  1.3208000000000E+01  1.3208000000000E+01  1.3208000000000E+01  1.3208000000000E+01  1.3208000000000E+01  1.3208000000000E+01  1.3208000000000E+01  1.3208000000000E+01  6.6040000000000E+00 
-2.5549798049716E-01 -2.5550797874909E-01 -2.5553962951161E-01 -2.5559311450473E-01 -2.5566846012267E-01 -2.5576568002824E-01 -2.5588457928216E-01 -2.5601842937840E-01 -2.5600609318545E-01 -2.5333801337823E-01 
 3.3866666666667E-05  6.7733333333333E-05  6.7733333333334E-05  6.7733333333333E-05  6.7733333333334E-05  6.7733333333334E-05  6.7733333333333E-05  6.7733333333334E-05  6.7733333333333E-05  3.3866666666667E-05 
 2.6603001364272E+01  2.6603001364272E+01  2.6603001364272E+01  2.6603001364272E+01  2.6603001364272E+01  2.6603001364272E+01  2.6603001364272E+01  2.6603001364272E+01  2.6603001364272E+01  2.6603001364272E+01 
 1.7735334242822E+01  1.7735334242822E+01  1.7735334242822E+01  1.7735334242822E+01  1.7735334242822E+01  1.7735334242822E+01  1.7735334242822E+01  1.7735334242822E+01  1.7735334242822E+01  1.7735334242822E+01 
 6.6002577658028E-04  6.6006060936063E-04  6.6017084825258E-04  6.6035716635917E-04  6.6061964399027E-04  6.6095835786393E-04  6.6137313248237E-04  6.6185407850472E-04  6.6211147860376E-04  6.5511663206116E-04 
 2.2005697347993E+04  2.2006864330046E+04  2.2010540819354E+04  2.2016754023652E+04  2.2025506907963E+04  2.2036801609042E+04  2.2050622438716E+04  2.2066386981247E+04  2.2070111819764E+04  2.1842041161958E+04 
 8.8691898107431E-02  7.8874881584030E-02  6.0466485682690E-02  4.4509243835604E-02  3.1003333879473E-02  1.9949771903342E-02  1.1350415366790E-02  5.2079964164467E-03  1.5264045114897E-03  3.0138950947334E-04 
 5.4327414587374E-02  2.7164982888439E-01  9.2368862776044E-01  2.0106611479683E+00  3.5329333852253E+00  5.4910203029197E+00  7.8855848987927E+00  1.0717394710291E+01  1.3986133385010E+01  1.5729556028038E+01 
 2.2005554328680E+04  2.2006513805336E+04  2.2009556664240E+04  2.2014698853261E+04  2.2021942971244E+04  2.2031290638967E+04  2.2042725503402E+04  2.2055664378540E+04  2.2056124159974E+04  2.1826311304540E+04 
 1.0015241298552E+04  1.0015731076181E+04  1.0017288567274E+04  1.0019920745662E+04  1.0023628950315E+04  1.0028414192334E+04  1.0034269862512E+04  1.0040946204738E+04  1.0042442647418E+04  9.9452360373168E+03 
 1.1990313030128E+04  1.1990782729155E+04  1.1992268096967E+04  1.1994778107598E+04  1.1998314020929E+04  1.2002876446633E+04  1.2008455640890E+04  1.2014718173801E+04  1.2013681512556E+04  1.1881075267223E+04 
ZONE T = "CATH, 4.0000E-08", I = 10, SOLUTIONTIME = 4.000000E-08
ZONETYPE = ORDERED
DATAPACKING = BLOCK
STRANDID = 3
 1.2700000000000E-03  1.3377333333333E-03  1.4054666666667E-03  1.4732000000000E-03  1.5409333333333E-03  1.6086666666667E-03  1.6764000000000E-03  1.7441333333333E-03  1.8118666666667E-03  1.8796000000000E-03 
 1.9931932101593E-08  1.7588027189378E-08  1.5244195022384E-08  1.2899508887974E-08  1.0554131445257E-08  8.2078620835021E-09  5.8608671213036E-09  3.5123214922470E-09  1.1647238960291E-09  2.9056618222330E-12 
 9.2000000000129E-01  9.2000000000364E-01  9.2000000000364E-01  9.2000000000364E-01  9.2000000000364E-01  9.2000000000364E-01  9.2000000000364E-01  9.2000000000364E-01  9.2000000000364E-01  9.2000000000361E-01 
 3.9999999999357E-02  3.9999999998181E-02  3.9999999998181E-02  3.9999999998181E-02  3.9999999998180E-02  3.9999999998179E-02  3.9999999998179E-02  3.9999999998178E-02  3.9999999998178E-02  3.9999999998197E-02 
 3.9999999999357E-02  3.9999999998181E-02  3.9999999998181E-02  3.9999999998181E-02  3.9999999998180E-02  3.9999999998179E-02  3.9999999998179E-02  3.9999999998178E-02  3.9999999998178E-02  3.9999999998197E-02 
 2.9792568771118E-02  2.9792359392730E-02  2.9792174638307E-02  2.9792014510905E-02  2.9791879015680E-02  2.9791768159894E-02  2.9791681952921E-02  2.9791620406256E-02  2.9791583533014E-02  2.9791571328899E-02 
 3.8001767779528E+00  3.8001745966707E+00  3.8001680526529E+00  3.8001571453586E+00  3.8001418738743E+00  3.8001222369134E+00  3.8000982328157E+00  3.8000698595546E+00  3.8000371149199E+00  3.8000000000000E+00 