TITLE = "Solution on Domain BulkDomain1D_2"
VARIABLES = "x [m]"  
"Vel_axial" 	"MF_sp(ECDMC)" 	"MF_sp(Li+)" 	"MF_sp(PF6-)" 	"Volt(Electroly)" 	"Volt(CathodeVo)" 	"Temperature" 	
"Potential Drop Electrode-Electrolyte [V]" 	"Surf_0 Equilibrium Potential Drop Electrode-Electrolyte [V]" 	"Overpotential_0 [V]" 	"Current Source [A/m^2]" 	"Li+ flux [kmol/m^2/s]" 	"Electrolyte Current [A/m^2]" 	"Electrode Current [A/m^2]" 	
"CV Capacity discharged [A-s/m^2]" 	"Depth of discharge in CV [A-s/m^2]" 	"CV Capacity remaining [A-s/m^2]" 	"Initial CV capacity [A-s/m^2]" 	"Porosity []" 	"Surface Area [m2/m2] (area per area)" 	"Specific current (per particle area) [A/m^2]" 	"Control volume thickness [m]" 	
"MoleDens LiCoO2 [kmol/m^3]" 	"MoleDens CoO2 [kmol/m^3]" 	"qHeat_accum [J/m3]" 	"qHeat_step [W/m3]" 	"Joule_Lyte [W/m3]" 	"Joule_Solid [W/m3]" 	"electrodHeat [W/m3]" 	"OverpotHeat [W/m3]" 	"deltaSHeat [W/m3]" 	

ZONE T = "CATH, 0.0000E+00", I = 10, SOLUTIONTIME = 0.000000E+00
ZONETYPE = ORDERED
DATAPACKING = BLOCK
STRANDID = 3
 1.2700000000000E-03  1.3377333333333E-03  1.4054666666667E-03  1.4732000000000E-03  1.5409333333333E-03  1.6086666666667E-03  1.6764000000000E-03  1.7441333333333E-03  1.8118666666667E-03  1.8796000000000E-03 
 0.0000000000000E+00  0.0000000000000E+00  0.0000000000000E+00  0.0000000000000E+00  0.0000000000000E+00  0.0000000000000E+00  0.0000000000000E+00  0.0000000000000E+00  0.0000000000000E+00  0.0000000000000E+00 
 9.2000000000000E-01  9.2000000000000E-01  9.2000000000000E-01  9.2000000000000E-01  9.2000000000000E-01  9.2000000000000E-01  9.2000000000000E-01  9.2000000000000E-01  9.2000000000000E-01  9.2000000000000E-01 
 4.0000000000000E-02  4.0000000000000E-02  4.0000000000000E-02  4.0000000000000E-02  4.0000000000000E-02  4.0000000000000E-02  4.0000000000000E-02  4.0000000000000E-02  4.0000000000000E-02  4.0000000000000E-02 
 4.0000000000000E-02  4.0000000000000E-02  4.0000000000000E-02  4.0000000000000E-02  4.0000000000000E-02  4.0000000000000E-02  4.0000000000000E-02  4.0000000000000E-02  4.0000000000000E-02  4.0000000000000E-02 
-7.0000000000000E-02 -7.0000000000000E-02 -7.0000000000000E-02 -7.0000000000000E-02 -7.0000000000000E-02 -7.0000000000000E-02 -7.0000000000000E-02 -7.0000000000000E-02 -7.0000000000000E-02 -7.0000000000000E-02 
 3.8000000000000E+00  3.8000000000000E+00  3.8000000000000E+00  3.8000000000000E+00  3.8000000000000E+00  3.8000000000000E+00  3.8000000000000E+00  3.8000000000000E+00  3.8000000000000E+00  3.8000000000000E+00 
 2.9815000000000E+02  2.9815000000000E+02  2.9815000000000E+02  2.9815000000000E+02  2.9815000000000E+02  2.9815000000000E+02  2.9815000000000E+02  2.9815000000000E+02  2.9815000000000E+02  2.9800000000000E+02 
 3.8700000000000E+00  3.8700000000000E+00  3.8700000000000E+00  3.8700000000000E+00  3.8700000000000E+00  3.8700000000000E+00  3.8700000000000E+00  3.8700000000000E+00  3.8700000000000E+00  3.8700000000000E+00 
 3.9714142713289E+00  3.9714142713289E+00  3.9714142713289E+00  3.9714142713289E+00  3.9714142713289E+00  3.9714142713289E+00  3.9714142713289E+00  3.9714142713289E+00  3.9714142713289E+00  3.9715353395963E+00 
-1.0141427132889E-01 -1.0141427132889E-01 -1.0141427132889E-01 -1.0141427132889E-01 -1.0141427132889E-01 -1.0141427132889E-01 -1.0141427132889E-01 -1.0141427132889E-01 -1.0141427132889E-01 -1.0153533959628E-01 
-2.3826357195711E-01 -4.7652714391422E-01 -4.7652714391423E-01 -4.7652714391422E-01 -4.7652714391423E-01 -4.7652714391423E-01 -4.7652714391422E-01 -4.7652714391423E-01 -4.7652714391422E-01 -2.3524219296987E-01 
-0.0000000000000E+00 -0.0000000000000E+00 -0.0000000000000E+00 -0.0000000000000E+00 -0.0000000000000E+00 -0.0000000000000E+00 -0.0000000000000E+00 -0.0000000000000E+00 -0.0000000000000E+00 -0.0000000000000E+00 
 2.3826357195711E-01  0.0000000000000E+00  0.0000000000000E+00  0.0000000000000E+00  0.0000000000000E+00  0.0000000000000E+00  0.0000000000000E+00  0.0000000000000E+00  0.0000000000000E+00  0.0000000000000E+00 
 0.0000000000000E+00 -0.0000000000000E+00 -0.0000000000000E+00 -0.0000000000000E+00 -0.0000000000000E+00 -0.0000000000000E+00 -0.0000000000000E+00 -0.0000000000000E+00 -0.0000000000000E+00  2.3524219296987E-01 
-0.0000000000000E+00 -0.0000000000000E+00 -0.0000000000000E+00 -0.0000000000000E+00 -0.0000000000000E+00 -0.0000000000000E+00 -0.0000000000000E+00 -0.0000000000000E+00 -0.0000000000000E+00 -0.0000000000000E+00 
 7.2440786946225E+03  1.4488157389245E+04  1.4488157389245E+04  1.4488157389245E+04  1.4488157389245E+04  1.4488157389245E+04  1.4488157389245E+04  1.4488157389245E+04  1.4488157389245E+04  7.2440786946225E+03 
 4.9259735123433E+04  9.8519470246865E+04  9.8519470246866E+04  9.8519470246865E+04  9.8519470246866E+04  9.8519470246866E+04  9.8519470246865E+04  9.8519470246866E+04  9.8519470246865E+04  4.9259735123433E+04 
 5.6503813818055E+04  1.1300762763611E+05  1.1300762763611E+05  1.1300762763611E+05  1.1300762763611E+05  1.1300762763611E+05  1.1300762763611E+05  1.1300762763611E+05  1.1300762763611E+05  5.6503813818055E+04 
 3.5000000000000E-01  3.5000000000000E-01  3.5000000000000E-01  3.5000000000000E-01  3.5000000000000E-01  3.5000000000000E-01  3.5000000000000E-01  3.5000000000000E-01  3.5000000000000E-01  3.5000000000000E-01 
 6.6040000000000E+00  1.3208000000000E+01  1.3208000000000E+01  1.3208000000000E+01  1.3208000000000E+01  1.3208000000000E+01  1.3208000000000E+01  1.3208000000000E+01  1.3208000000000E+01  6.6040000000000E+00 
-3.6078675341780E-02 -3.6078675341780E-02 -3.6078675341780E-02 -3.6078675341780E-02 -3.6078675341780E-02 -3.6078675341780E-02 -3.6078675341780E-02 -3.6078675341780E-02 -3.6078675341780E-02 -3.5621167923965E-02 
 3.3866666666667E-05  6.7733333333333E-05  6.7733333333334E-05  6.7733333333333E-05  6.7733333333334E-05  6.7733333333334E-05  6.7733333333333E-05  6.7733333333334E-05  6.7733333333333E-05  3.3866666666667E-05 
 2.6603001364256E+01  2.6603001364256E+01  2.6603001364256E+01  2.6603001364256E+01  2.6603001364256E+01  2.6603001364256E+01  2.6603001364256E+01  2.6603001364256E+01  2.6603001364256E+01  2.6603001364256E+01 
 1.7735334242838E+01  1.7735334242838E+01  1.7735334242838E+01  1.7735334242838E+01  1.7735334242838E+01  1.7735334242838E+01  1.7735334242838E+01  1.7735334242838E+01  1.7735334242838E+01  1.7735334242838E+01 
 0.0000000000000E+00  0.0000000000000E+00  0.0000000000000E+00  0.0000000000000E+00  0.0000000000000E+00  0.0000000000000E+00  0.0000000000000E+00  0.0000000000000E+00  0.0000000000000E+00  0.0000000000000E+00 
 0.0000000000000E+00  0.0000000000000E+00  0.0000000000000E+00  0.0000000000000E+00  0.0000000000000E+00  0.0000000000000E+00  0.0000000000000E+00  0.0000000000000E+00  0.0000000000000E+00  0.0000000000000E+00 
 0.0000000000000E+00  0.0000000000000E+00  0.0000000000000E+00  0.0000000000000E+00  0.0000000000000E+00  0.0000000000000E+00  0.0000000000000E+00  0.0000000000000E+00  0.0000000000000E+00  0.0000000000000E+00 
 0.0000000000000E+00  0.0000000000000E+00  0.0000000000000E+00  0.0000000000000E+00  0.0000000000000E+00  0.0000000000000E+00  0.0000000000000E+00  0.0000000000000E+00  0.0000000000000E+00  0.0000000000000E+00 
 0.0000000000000E+00  0.0000000000000E+00  0.0000000000000E+00  0.0000000000000E+00  0.0000000000000E+00  0.0000000000000E+00  0.0000000000000E+00  0.0000000000000E+00  0.0000000000000E+00  0.0000000000000E+00 
 0.0000000000000E+00  0.0000000000000E+00  0.0000000000000E+00  0.0000000000000E+00  0.0000000000000E+00  0.0000000000000E+00  0.0000000000000E+00  0.0000000000000E+00  0.0000000000000E+00  0.0000000000000E+00 
 0.0000000000000E+00  0.0000000000000E+00  0.0000000000000E+00  0.0000000000000E+00  0.0000000000000E+00  0.0000000000000E+00  0.0000000000000E+00  0.0000000000000E+00  0.0000000000000E+00  0.0000000000000E+00 
ZONE T = "CATH, 1.0000E-08", I = 10, SOLUTIONTIME = 1.000000E-08
ZONETYPE = ORDERED
DATAPACKING = BLOCK
STRANDID = 3
 1.2700000000000E-03  1.3377333333333E-03  1.4054666666667E-03  1.4732000000000E-03  1.5409333333333E-03  1.6086666666667E-03  1.6764000000000E-03  1.7441333333333E-03  1.8118666666667E-03  1.8796000000000E-03 
 1.9920489466359E-08  1.7577980437685E-08  1.5235181443043E-08  1.2891892333878E-08  1.0547912779526E-08  8.2030422558308E-09  5.8570801343011E-09  3.5098368231524E-09  1.1616692801261E-09  1.8160381639968E-13 
 9.2000000000032E-01  9.2000000000091E-01  9.2000000000091E-01  9.2000000000091E-01  9.2000000000091E-01  9.2000000000091E-01  9.2000000000091E-01  9.2000000000091E-01  9.2000000000091E-01  9.2000000000090E-01 
 3.9999999999839E-02  3.9999999999545E-02  3.9999999999545E-02  3.9999999999545E-02  3.9999999999545E-02  3.9999999999545E-02  3.9999999999545E-02  3.9999999999545E-02  3.9999999999544E-02  3.9999999999549E-02 
 3.9999999999839E-02  3.9999999999545E-02  3.9999999999545E-02  3.9999999999545E-02  3.9999999999545E-02  3.9999999999545E-02  3.9999999999545E-02  3.9999999999545E-02  3.9999999999544E-02  3.9999999999549E-02 
 2.9762196759271E-02  2.9761987487744E-02  2.9761802825526E-02  2.9761642775641E-02  2.9761507343274E-02  2.9761396535646E-02  2.9761310362148E-02  2.9761248834224E-02  2.9761211965528E-02  2.9761199768519E-02 
 3.8001766760124E+00  3.8001744960278E+00  3.8001679559055E+00  3.8001570551058E+00  3.8001417927166E+00  3.8001221674525E+00  3.8000981776554E+00  3.8000698212933E+00  3.8000370959816E+00  3.8000000000000E+00 
 2.9815000105596E+02  2.9815000414996E+02  2.9815000419950E+02  2.9815000422837E+02  2.9815000431422E+02  2.9815000423194E+02  2.9815000290821E+02  2.9814993910962E+02  2.9814687876646E+02  2.9800000000000E+02 
 3.7704144792531E+00  3.7704125085400E+00  3.7704061530800E+00  3.7703954123302E+00  3.7703802853733E+00  3.7703607709169E+00  3.7703368672932E+00  3.7703085724591E+00  3.7702758840161E+00  3.7702388002315E+00 
 3.9714142704763E+00  3.9714142679787E+00  3.9714142679387E+00  3.9714142679154E+00  3.9714142678461E+00  3.9714142679126E+00  3.9714142689810E+00  3.9714143204784E+00  3.9714167907403E+00  3.9715353395959E+00 
-2.0099979122324E-01 -2.0100175943872E-01 -2.0100811485878E-01 -2.0101885558524E-01 -2.0103398247284E-01 -2.0105349699566E-01 -2.0107740168780E-01 -2.0110574801929E-01 -2.0114090672427E-01 -2.0129653936443E-01 
-1.6866433181300E+00 -3.3734169425758E+00 -3.3738345494850E+00 -3.3745404092515E+00 -3.3755347836119E+00 -3.3768179517571E+00 -3.3783900641522E+00 -3.3802352270755E+00 -3.3815663625360E+00 -1.6723822751973E+00 
 1.4865779302391E-07  1.3117624406530E-07  1.1369268212321E-07  9.6205436184179E-08  7.8713060967700E-08  6.1214015277287E-08  4.3706845238753E-08  2.6190105219333E-08  8.6664637295513E-09  8.6664637295513E-09 
 3.0373211792181E+01  2.6999868278443E+01  2.3626260725022E+01  2.0252090557062E+01  1.6877070037077E+01  1.3500911014476E+01  1.0123324508405E+01  6.7440307634579E+00  3.3631479933075E+00  0.0000000000000E+00 
 0.0000000000000E+00  3.3733344328472E+00  6.7469427988444E+00  1.0121112854025E+01  1.3496132958964E+01  1.6872291745502E+01  2.0249878059359E+01  2.3629172874660E+01  2.7010055681228E+01  3.0373212101357E+01 
 1.6866433181300E-08  3.3734169425758E-08  3.3738345494850E-08  3.3745404092515E-08  3.3755347836119E-08  3.3768179517571E-08  3.3783900641522E-08  3.3802352270755E-08  3.3815663625360E-08  1.6723822751973E-08 
 7.2440786946393E+03  1.4488157389279E+04  1.4488157389279E+04  1.4488157389279E+04  1.4488157389279E+04  1.4488157389279E+04  1.4488157389279E+04  1.4488157389279E+04  1.4488157389279E+04  7.2440786946392E+03 
 4.9259735123416E+04  9.8519470246831E+04  9.8519470246832E+04  9.8519470246831E+04  9.8519470246832E+04  9.8519470246832E+04  9.8519470246831E+04  9.8519470246832E+04  9.8519470246831E+04  4.9259735123416E+04 
 5.6503813818055E+04  1.1300762763611E+05  1.1300762763611E+05  1.1300762763611E+05  1.1300762763611E+05  1.1300762763611E+05  1.1300762763611E+05  1.1300762763611E+05  1.1300762763611E+05  5.6503813818055E+04 
 3.5000000000000E-01  3.5000000000000E-01  3.5000000000000E-01  3.5000000000000E-01  3.5000000000000E-01  3.5000000000000E-01  3.5000000000000E-01  3.5000000000000E-01  3.5000000000000E-01  3.5000000000000E-01 
 6.6040000000000E+00  1.3208000000000E+01  1.3208000000000E+01  1.3208000000000E+01  1.3208000000000E+01  1.3208000000000E+01  1.3208000000000E+01  1.3208000000000E+01  1.3208000000000E+01  6.6040000000000E+00 
-2.5539723169746E-01 -2.5540709740883E-01 -2.5543871513363E-01 -2.5549215696937E-01 -2.5556744273258E-01 -2.5566459356126E-01 -2.5578362084738E-01 -2.5592332125042E-01 -2.5602410376560E-01 -2.5323777637754E-01 
 3.3866666666667E-05  6.7733333333333E-05  6.7733333333334E-05  6.7733333333333E-05  6.7733333333334E-05  6.7733333333334E-05  6.7733333333333E-05  6.7733333333334E-05  6.7733333333333E-05  3.3866666666667E-05 
 2.6603001364262E+01  2.6603001364262E+01  2.6603001364262E+01  2.6603001364262E+01  2.6603001364262E+01  2.6603001364262E+01  2.6603001364262E+01  2.6603001364262E+01  2.6603001364262E+01  2.6603001364262E+01 
 1.7735334242832E+01  1.7735334242832E+01  1.7735334242832E+01  1.7735334242832E+01  1.7735334242832E+01  1.7735334242832E+01  1.7735334242832E+01  1.7735334242832E+01  1.7735334242832E+01  1.7735334242833E+01 
 2.1996011864923E-04  2.1997167069283E-04  2.2000839823138E-04  2.2007047814825E-04  2.2015793437804E-04  2.2027079476204E-04  2.2040908145052E-04  2.2057176523961E-04  2.2070714725510E-04  2.1832391587427E-04 
 2.1996011864923E+04  2.1997167069283E+04  2.2000839823138E+04  2.2007047814825E+04  2.2015793437804E+04  2.2027079476204E+04  2.2040908145052E+04  2.2057176523961E+04  2.2070714725510E+04  2.1832391587427E+04 
 8.8631131620820E-02  7.8821366213539E-02  6.0426501642354E-02  4.4480828432934E-02  3.0984524327337E-02  1.9938609337854E-02  1.1344933821944E-02  5.2062003591651E-03  1.5260542214208E-03  3.0115095994940E-04 
 5.4284019520805E-02  2.7143267803202E-01  9.2295004865001E-01  2.0090531230254E+00  3.5301074330123E+00  5.4866273257005E+00  7.8792761984124E+00  1.0708858973580E+01  1.3975887075453E+01  1.5718781329900E+01 
 2.1995868949772E+04  2.1996816815239E+04  2.1999856446588E+04  2.2004994280874E+04  2.2012232345847E+04  2.2021572910269E+04  2.2033017523920E+04  2.2046462458787E+04  2.2056737312380E+04  2.1816672504946E+04 
 1.0010284098791E+04  1.0010768810715E+04  1.0012324645252E+04  1.0014954495987E+04  1.0018659456586E+04  1.0023440815740E+04  1.0029299645501E+04  1.0036191936366E+04  1.0041899473077E+04  9.9402981641369E+03 
 1.1985584850981E+04  1.1986048004524E+04  1.1987531801336E+04  1.1990039784886E+04  1.1993572889261E+04  1.1998132094529E+04  1.2003717878419E+04  1.2010270522421E+04  1.2014837839303E+04  1.1876374340809E+04 
ZONE T = "CATH, 2.0000E-08", I = 10, SOLUTIONTIME = 2.000000E-08
ZONETYPE = ORDERED
DATAPACKING = BLOCK
STRANDID = 3
 1.2700000000000E-03  1.3377333333333E-03  1.4054666666667E-03  1.4732000000000E-03  1.5409333333333E-03  1.6086666666667E-03  1.6764000000000E-03  1.7441333333333E-03  1.8118666666667E-03  1.8796000000000E-03 
 1.9914517565521E-08  1.7570806081119E-08  1.5228257307791E-08  1.2884491768538E-08  1.0540035453678E-08  8.1950509659310E-09  5.8489750463965E-09  3.5009134874225E-09  1.1524626623118E-09 -9.2617970584349E-12 
 9.2000000000064E-01  9.2000000000182E-01  9.2000000000182E-01  9.2000000000182E-01  9.2000000000182E-01  9.2000000000182E-01  9.2000000000182E-01  9.2000000000182E-01  9.2000000000182E-01  9.2000000000180E-01 
 3.9999999999679E-02  3.9999999999091E-02  3.9999999999091E-02  3.9999999999091E-02  3.9999999999090E-02  3.9999999999090E-02  3.9999999999089E-02  3.9999999999089E-02  3.9999999999089E-02  3.9999999999099E-02 
 3.9999999999679E-02  3.9999999999091E-02  3.9999999999091E-02  3.9999999999091E-02  3.9999999999090E-02  3.9999999999090E-02  3.9999999999089E-02  3.9999999999089E-02  3.9999999999089E-02  3.9999999999099E-02 
 2.9772382206661E-02  2.9772172898663E-02  2.9771988204967E-02  2.9771828128626E-02  2.9771692674788E-02  2.9771581850713E-02  2.9771495665764E-02  2.9771434131427E-02  2.9771397261281E-02  2.9771385061850E-02 
 3.8001767108063E+00  3.8001745303792E+00  3.8001679889284E+00  3.8001570859140E+00  3.8001418204231E+00  3.8001221911700E+00  3.8000981964957E+00  3.8000698343686E+00  3.8000371024449E+00  3.8000000000000E+00 
 2.9815000218254E+02  2.9815000847824E+02  2.9815000860596E+02  2.9815000863673E+02  2.9815000871622E+02  2.9815000854334E+02  2.9815000350983E+02  2.9814981852279E+02  2.9814388522375E+02  2.9800000000000E+02 
 3.7704043285996E+00  3.7704023574805E+00  3.7703960007235E+00  3.7703852577853E+00  3.7703701277483E+00  3.7703506093193E+00  3.7703267008299E+00  3.7702984002371E+00  3.7702657051836E+00  3.7702286149382E+00 
 3.9714142695668E+00  3.9714142644846E+00  3.9714142643815E+00  3.9714142643567E+00  3.9714142642925E+00  3.9714142644321E+00  3.9714142684951E+00  3.9714144178140E+00  3.9714192070739E+00  3.9715353395955E+00 
-2.0100994096720E-01 -2.0101190700408E-01 -2.0101826365806E-01 -2.0102900657136E-01 -2.0104413654425E-01 -2.0106365511276E-01 -2.0108756766512E-01 -2.0111601757685E-01 -2.0115350189031E-01 -2.0130672465739E-01 
-1.6869769492873E+00 -3.3740851148786E+00 -3.3745029105512E+00 -3.3752090542851E+00 -3.3762038261788E+00 -3.3774874852589E+00 -3.3790592339630E+00 -3.3808726167997E+00 -3.3814331910397E+00 -1.6727142272498E+00 
 1.4868383362251E-07  1.3119860222408E-07  1.1371147397098E-07  9.6220686408594E-08  7.8724743790612E-08  6.1222149083833E-08  4.3711409361696E-08  2.6191272299364E-08  8.6682257902444E-09  8.6682257902444E-09 
 3.0378544609841E+01  2.7004525102967E+01  2.3630231089919E+01  2.0255375107795E+01  1.6879668667671E+01  1.3502823011530E+01  1.0124549652096E+01  6.7445837265999E+00  3.3634308226029E+00  0.0000000000000E+00 
 0.0000000000000E+00  3.3740195066633E+00  6.7483135195811E+00  1.0123169501878E+01  1.3498875942116E+01  1.6875721597888E+01  2.0253994957412E+01  2.3633960882775E+01  2.7015113786678E+01  3.0378544609440E+01 
 3.3736202674173E-08  6.7475020574544E-08  6.7483374600362E-08  6.7497494635366E-08  6.7517386097908E-08  6.7543054370160E-08  6.7574492981153E-08  6.7611078438752E-08  6.7629995535757E-08  3.3450965024471E-08 
 7.2440786946562E+03  1.4488157389312E+04  1.4488157389312E+04  1.4488157389312E+04  1.4488157389312E+04  1.4488157389313E+04  1.4488157389312E+04  1.4488157389313E+04  1.4488157389313E+04  7.2440786946559E+03 
 4.9259735123399E+04  9.8519470246798E+04  9.8519470246798E+04  9.8519470246798E+04  9.8519470246798E+04  9.8519470246798E+04  9.8519470246798E+04  9.8519470246798E+04  9.8519470246798E+04  4.9259735123399E+04 
 5.6503813818055E+04  1.1300762763611E+05  1.1300762763611E+05  1.1300762763611E+05  1.1300762763611E+05  1.1300762763611E+05  1.1300762763611E+05  1.1300762763611E+05  1.1300762763611E+05  5.6503813818055E+04 
 3.5000000000000E-01  3.5000000000000E-01  3.5000000000000E-01  3.5000000000000E-01  3.5000000000000E-01  3.5000000000000E-01  3.5000000000000E-01  3.5000000000000E-01  3.5000000000000E-01  3.5000000000000E-01 
 6.6040000000000E+00  1.3208000000000E+01  1.3208000000000E+01  1.3208000000000E+01  1.3208000000000E+01  1.3208000000000E+01  1.3208000000000E+01  1.3208000000000E+01  1.3208000000000E+01  6.6040000000000E+00 
-2.5544775125489E-01 -2.5545768586301E-01 -2.5548931787941E-01 -2.5554278121480E-01 -2.5561809707593E-01 -2.5571528507412E-01 -2.5583428482458E-01 -2.5597157910355E-01 -2.5601402112657E-01 -2.5328804167926E-01 
 3.3866666666667E-05  6.7733333333333E-05  6.7733333333334E-05  6.7733333333333E-05  6.7733333333334E-05  6.7733333333334E-05  6.7733333333333E-05  6.7733333333334E-05  6.7733333333333E-05  3.3866666666667E-05 
 2.6603001364267E+01  2.6603001364267E+01  2.6603001364267E+01  2.6603001364267E+01  2.6603001364267E+01  2.6603001364267E+01  2.6603001364267E+01  2.6603001364267E+01  2.6603001364267E+01  2.6603001364267E+01 
 1.7735334242827E+01  1.7735334242827E+01  1.7735334242827E+01  1.7735334242827E+01  1.7735334242827E+01  1.7735334242827E+01  1.7735334242827E+01  1.7735334242827E+01  1.7735334242827E+01  1.7735334242827E+01 
 4.3996880378449E-04  4.3999196905440E-04  4.4006544092867E-04  4.4018962684517E-04  4.4036457588391E-04  4.4059034240934E-04  4.4086690844639E-04  4.4119020755842E-04  4.4141036043934E-04  4.3669622119362E-04 
 2.2000868513526E+04  2.2002029836157E+04  2.2005704269729E+04  2.2011914869692E+04  2.2020664150587E+04  2.2031954764730E+04  2.2045782699586E+04  2.2061844231881E+04  2.2070321318424E+04  2.1837230531935E+04 
 8.8662026484274E-02  7.8848577725890E-02  6.0446835471084E-02  4.4495283100133E-02  3.0994097807752E-02  1.9944294970185E-02  1.1347730196615E-02  5.2071150660074E-03  1.5262301810611E-03  3.0127207286854E-04 
 5.4306055838943E-02  2.7154295153643E-01  9.2332511356788E-01  2.0098697124235E+00  3.5315425290739E+00  5.4888582531963E+00  7.8824803167416E+00  1.0713198355343E+01  1.3981097877722E+01  1.5724259185051E+01 
 2.2000725545444E+04  2.2001679444628E+04  2.2004720497780E+04  2.2009860504696E+04  2.2017101613960E+04  2.2026445962182E+04  2.2037888871539E+04  2.2051125826411E+04  2.2056338694316E+04  2.1821505971478E+04 
 1.0012769792995E+04  1.0013257135878E+04  1.0014813717358E+04  1.0017444731613E+04  1.0021151324299E+04  1.0025934727629E+04  1.0031793341855E+04  1.0038596997436E+04  1.0042132792127E+04  9.9427742827546E+03 
 1.1987955752449E+04  1.1988422308750E+04  1.1989906780422E+04  1.1992415773084E+04  1.1995950289662E+04  1.2000511234553E+04  1.2006095529684E+04  1.2012528828974E+04  1.2014205902188E+04  1.1878731688724E+04 
ZONE T = "CATH, 3.0000E-08", I = 10, SOLUTIONTIME = 3.000000E-08
ZONETYPE = ORDERED
DATAPACKING = BLOCK
STRANDID = 3
 1.2700000000000E-03  1.3377333333333E-03  1.4054666666667E-03  1.4732000000000E-03  1.5409333333333E-03  1.6086666666667E-03  1.6764000000000E-03  1.7441333333333E-03  1.8118666666667E-03  1.8796000000000E-03 
 1.9929132927911E-08  1.7586049773830E-08  1.5241949931254E-08  1.2897359541380E-08  1.0552078102750E-08  8.2062681936609E-09  5.8593677864138E-09  3.5119661671556E-09  1.1646776803475E-09  3.0872656861171E-12 
 9.2000000000096E-01  9.2000000000273E-01  9.2000000000273E-01  9.2000000000273E-01  9.2000000000273E-01  9.2000000000273E-01  9.2000000000273E-01  9.2000000000273E-01  9.2000000000273E-01  9.2000000000270E-01 
 3.9999999999518E-02  3.9999999998636E-02  3.9999999998636E-02  3.9999999998636E-02  3.9999999998635E-02  3.9999999998635E-02  3.9999999998634E-02  3.9999999998633E-02  3.9999999998633E-02  3.9999999998648E-02 
 3.9999999999518E-02  3.9999999998636E-02  3.9999999998636E-02  3.9999999998636E-02  3.9999999998635E-02  3.9999999998635E-02  3.9999999998634E-02  3.9999999998633E-02  3.9999999998633E-02  3.9999999998648E-02 
 2.9782506152492E-02  2.9782296809236E-02  2.9782112085129E-02  2.9781951983223E-02  2.9781816508671E-02  2.9781705668735E-02  2.9781619472782E-02  2.9781557932306E-02  2.9781521060704E-02  2.9781508858925E-02 
 3.8001767444817E+00  3.8001745636259E+00  3.8001680208878E+00  3.8001571157271E+00  3.8001418472307E+00  3.8001222141124E+00  3.8000982147124E+00  3.8000698470011E+00  3.8000371086935E+00  3.8000000000000E+00 
 2.9815000330792E+02  2.9815001267119E+02  2.9815001300745E+02  2.9815001305758E+02  2.9815001314245E+02  2.9815001268157E+02  2.9815000032727E+02  2.9814964313164E+02  2.9814101272381E+02  2.9800000000000E+02 
 3.7703942383292E+00  3.7703922668167E+00  3.7703859088027E+00  3.7703751637439E+00  3.7703600307220E+00  3.7703405084436E+00  3.7703165952397E+00  3.7702882890688E+00  3.7702555876328E+00  3.7702184911411E+00 
 3.9714142686582E+00  3.9714142610998E+00  3.9714142608283E+00  3.9714142607879E+00  3.9714142607194E+00  3.9714142610914E+00  3.9714142710636E+00  3.9714145593869E+00  3.9714215256967E+00  3.9715353395952E+00 
-2.0102003032899E-01 -2.0102199428306E-01 -2.0102835202565E-01 -2.0103909704401E-01 -2.0105422999734E-01 -2.0107375264774E-01 -2.0109767582393E-01 -2.0112627031802E-01 -2.0116593806391E-01 -2.0131684845410E-01 
-1.6873086618110E+00 -3.3747494133460E+00 -3.3751674296410E+00 -3.3758738568197E+00 -3.3768690220731E+00 -3.3781531096811E+00 -3.3797235138858E+00 -3.3814913952155E+00 -3.3813284754769E+00 -1.6730442402496E+00 
 1.4870901199362E-07  1.3122020396716E-07  1.1372963210740E-07  9.6235399461020E-08  7.8736009727347E-08  6.1229965680351E-08  4.3715783584578E-08  2.6192439818175E-08  8.6699337905363E-09  8.6699337905363E-09 
 3.0383709118406E+01  2.7009025749907E+01  2.3634067328133E+01  2.0258546684978E+01  1.6882175245643E+01  1.3504664179541E+01  1.0125725867857E+01  6.7451184134410E+00  3.3637084779171E+00  0.0000000000000E+00 
 0.0000000000000E+00  3.3746833683958E+00  6.7496417898663E+00  1.0125162433253E+01  1.3501533872671E+01  1.6879044938554E+01  2.0257983250359E+01  2.3638590704759E+01  2.7020000640210E+01  3.0383709118336E+01 
 5.0609289292282E-08  1.0122251470800E-07  1.0123504889677E-07  1.0125623320356E-07  1.0128607631864E-07  1.0132458546697E-07  1.0137172812001E-07  1.0142599239091E-07  1.0144328029053E-07  5.0181407426967E-08 
 7.2440786946731E+03  1.4488157389346E+04  1.4488157389346E+04  1.4488157389346E+04  1.4488157389346E+04  1.4488157389346E+04  1.4488157389346E+04  1.4488157389346E+04  1.4488157389346E+04  7.2440786946727E+03 
 4.9259735123382E+04  9.8519470246764E+04  9.8519470246765E+04  9.8519470246764E+04  9.8519470246764E+04  9.8519470246764E+04  9.8519470246764E+04  9.8519470246764E+04  9.8519470246764E+04  4.9259735123383E+04 
 5.6503813818055E+04  1.1300762763611E+05  1.1300762763611E+05  1.1300762763611E+05  1.1300762763611E+05  1.1300762763611E+05  1.1300762763611E+05  1.1300762763611E+05  1.1300762763611E+05  5.6503813818055E+04 
 3.5000000000000E-01  3.5000000000000E-01  3.5000000000000E-01  3.5000000000000E-01  3.5000000000000E-01  3.5000000000000E-01  3.5000000000000E-01  3.5000000000000E-01  3.5000000000000E-01  3.5000000000000E-01 
 6.6040000000000E+00  1.3208000000000E+01  1.3208000000000E+01  1.3208000000000E+01  1.3208000000000E+01  1.3208000000000E+01  1.3208000000000E+01  1.3208000000000E+01  1.3208000000000E+01  6.6040000000000E+00 
-2.5549798028634E-01 -2.5550798102256E-01 -2.5553962974265E-01 -2.5559311453814E-01 -2.5566846018118E-01 -2.5576568062394E-01 -2.5588457858009E-01 -2.5601842786308E-01 -2.5600609293435E-01 -2.5333801336305E-01 
 3.3866666666667E-05  6.7733333333333E-05  6.7733333333334E-05  6.7733333333333E-05  6.7733333333334E-05  6.7733333333334E-05  6.7733333333333E-05  6.7733333333334E-05  6.7733333333333E-05  3.3866666666667E-05 
 2.6603001364272E+01  2.6603001364272E+01  2.6603001364272E+01  2.6603001364272E+01  2.6603001364272E+01  2.6603001364272E+01  2.6603001364272E+01  2.6603001364272E+01  2.6603001364272E+01  2.6603001364272E+01 
 1.7735334242822E+01  1.7735334242822E+01  1.7735334242822E+01  1.7735334242822E+01  1.7735334242822E+01  1.7735334242822E+01  1.7735334242822E+01  1.7735334242822E+01  1.7735334242822E+01  1.7735334242822E+01 
 6.6002577707994E-04  6.6006061432568E-04  6.6017084932118E-04  6.6035716710927E-04  6.6061964501297E-04  6.6095835901537E-04  6.6137313222317E-04  6.6185407605469E-04  6.6211147841772E-04  6.5511663279869E-04 
 2.2005697329546E+04  2.2006864527128E+04  2.2010540839251E+04  2.2016754026410E+04  2.2025506912906E+04  2.2036801660603E+04  2.2050622377678E+04  2.2066386849627E+04  2.2070111797839E+04  2.1842041160507E+04 
 8.8691898183194E-02  7.8874881573162E-02  6.0466485578220E-02  4.4509243733082E-02  3.1003333792276E-02  1.9949771821232E-02  1.1350415302866E-02  5.2079963923626E-03  1.5264045095328E-03  3.0138950930781E-04 
 5.4327414498872E-02  2.7164983159483E-01  9.2368863560440E-01  2.0106611603381E+00  3.5329334019670E+00  5.4910203268680E+00  7.8855849265186E+00  1.0717394729010E+01  1.3986133395008E+01  1.5729556037074E+01 
 2.2005554310233E+04  2.2006514002415E+04  2.2009556684130E+04  2.2014698856006E+04  2.2021942976170E+04  2.2031290690504E+04  2.2042725442336E+04  2.2055664246902E+04  2.2056124138039E+04  2.1826311303081E+04 
 1.0015241290505E+04  1.0015731160591E+04  1.0017288575675E+04  1.0019920746710E+04  1.0023628952300E+04  1.0028414214319E+04  1.0034269836185E+04  1.0040946148128E+04  1.0042442637882E+04  9.9452360365691E+03 
 1.1990313019728E+04  1.1990782841824E+04  1.1992268108455E+04  1.1994778109296E+04  1.1998314023870E+04  1.2002876476185E+04  1.2008455606151E+04  1.2014718098774E+04  1.2013681500158E+04  1.1881075266512E+04 
ZONE T = "CATH, 4.0000E-08", I = 10, SOLUTIONTIME = 4.000000E-08
ZONETYPE = ORDERED
DATAPACKING = BLOCK
STRANDID = 3
 1.2700000000000E-03  1.3377333333333E-03  1.4054666666667E-03  1.4732000000000E-03  1.5409333333333E-03  1.6086666666667E-03  1.6764000000000E-03  1.7441333333333E-03  1.8118666666667E-03  1.8796000000000E-03 
 1.9931932175593E-08  1.7588027222458E-08  1.5244195056404E-08  1.2899508920926E-08  1.0554131471026E-08  8.2078620915479E-09  5.8608671230644E-09  3.5123214981647E-09  1.1647238993278E-09  2.9056618222314E-12 
 9.2000000000129E-01  9.2000000000364E-01  9.2000000000364E-01  9.2000000000364E-01  9.2000000000364E-01  9.2000000000364E-01  9.2000000000364E-01  9.2000000000364E-01  9.2000000000364E-01  9.2000000000361E-01 
 3.9999999999357E-02  3.9999999998181E-02  3.9999999998181E-02  3.9999999998181E-02  3.9999999998180E-02  3.9999999998179E-02  3.9999999998179E-02  3.9999999998178E-02  3.9999999998178E-02  3.9999999998197E-02 
 3.9999999999357E-02  3.9999999998181E-02  3.9999999998181E-02  3.9999999998181E-02  3.9999999998180E-02  3.9999999998179E-02  3.9999999998179E-02  3.9999999998178E-02  3.9999999998178E-02  3.9999999998197E-02 
 2.9792568916807E-02  2.9792359538418E-02  2.9792174783995E-02  2.9792014656592E-02  2.9791879161366E-02  2.9791768305580E-02  2.9791682098607E-02  2.9791620551942E-02  2.9791583678701E-02  2.9791571474585E-02 
 3.8001767779536E+00  3.8001745966716E+00  3.8001680526537E+00  3.8001571453593E+00  3.8001418738749E+00  3.8001222369140E+00  3.8000982328161E+00  3.8000698595549E+00  3.8000371149200E+00  3.8000000000000E+00 