TITLE = "Solution on Domain BulkDomain1D_2"
VARIABLES = "x [m]"  
"Vel_axial" 	"MF_sp(ECDMC)" 	"MF_sp(Li+)" 	"MF_sp(PF6-)" 	"Volt(Electroly)" 	"Volt(CathodeVo)" 	"Temperature" 	
"Potential Drop Electrode-Electrolyte [V]" 	"Surf_0 Equilibrium Potential Drop Electrode-Electrolyte [V]" 	"Overpotential_0 [V]" 	"Current Source [A/m^2]" 	"Li+ flux [kmol/m^2/s]" 	"Electrolyte Current [A/m^2]" 	"Electrode Current [A/m^2]" 	
"CV Capacity discharged [A-s/m^2]" 	"Depth of discharge in CV [A-s/m^2]" 	"CV Capacity remaining [A-s/m^2]" 	"Initial CV capacity [A-s/m^2]" 	"Porosity []" 	"Surface Area [m2/m2] (area per area)" 	"Specific current (per particle area) [A/m^2]" 	"Control volume thickness [m]" 	
"MoleDens LiCoO2 [kmol/m^3]" 	"MoleDens CoO2 [kmol/m^3]" 	"qHeat_accum [J/m3]" 	"qHeat_step [W/m3]" 	"Joule_Lyte [W/m3]" 	"Joule_Solid [W/m3]" 	"electrodHeat [W/m3]" 	"OverpotHeat [W/m3]" 	"deltaSHeat [W/m3]" 	

ZONE T = "CATH, 0.0000E+00", I = 10, SOLUTIONTIME = 0.000000E+00
ZONETYPE = ORDERED
DATAPACKING = BLOCK
STRANDID = 3
 1.2700000000000E-03  1.3377333333333E-03  1.4054666666667E-03  1.4732000000000E-03  1.5409333333333E-03  1.6086666666667E-03  1.6764000000000E-03  1.7441333333333E-03  1.8118666666667E-03  1.8796000000000E-03 
 0.0000000000000E+00  0.0000000000000E+00  0.0000000000000E+00  0.0000000000000E+00  0.0000000000000E+00  0.0000000000000E+00  0.0000000000000E+00  0.0000000000000E+00  0.0000000000000E+00  0.0000000000000E+00 
 9.2000000000000E-01  9.2000000000000E-01  9.2000000000000E-01  9.2000000000000E-01  9.2000000000000E-01  9.2000000000000E-01  9.2000000000000E-01  9.2000000000000E-01  9.2000000000000E-01  9.2000000000000E-01 
 4.0000000000000E-02  4.0000000000000E-02  4.0000000000000E-02  4.0000000000000E-02  4.0000000000000E-02  4.0000000000000E-02  4.0000000000000E-02  4.0000000000000E-02  4.0000000000000E-02  4.0000000000000E-02 
 4.0000000000000E-02  4.0000000000000E-02  4.0000000000000E-02  4.0000000000000E-02  4.0000000000000E-02  4.0000000000000E-02  4.0000000000000E-02  4.0000000000000E-02  4.0000000000000E-02  4.0000000000000E-02 
-7.0000000000000E-02 -7.0000000000000E-02 -7.0000000000000E-02 -7.0000000000000E-02 -7.0000000000000E-02 -7.0000000000000E-02 -7.0000000000000E-02 -7.0000000000000E-02 -7.0000000000000E-02 -7.0000000000000E-02 
 3.8000000000000E+00  3.8000000000000E+00  3.8000000000000E+00  3.8000000000000E+00  3.8000000000000E+00  3.8000000000000E+00  3.8000000000000E+00  3.8000000000000E+00  3.8000000000000E+00  3.8000000000000E+00 
 2.9815000000000E+02  2.9815000000000E+02  2.9815000000000E+02  2.9815000000000E+02  2.9815000000000E+02  2.9815000000000E+02  2.9815000000000E+02  2.9815000000000E+02  2.9815000000000E+02  2.9800000000000E+02 
 3.8700000000000E+00  3.8700000000000E+00  3.8700000000000E+00  3.8700000000000E+00  3.8700000000000E+00  3.8700000000000E+00  3.8700000000000E+00  3.8700000000000E+00  3.8700000000000E+00  3.8700000000000E+00 
 3.9714218047884E+00  3.9714218047884E+00  3.9714218047884E+00  3.9714218047884E+00  3.9714218047884E+00  3.9714218047884E+00  3.9714218047884E+00  3.9714218047884E+00  3.9714218047884E+00  3.9715428730558E+00 
-1.0142180478844E-01 -1.0142180478844E-01 -1.0142180478844E-01 -1.0142180478844E-01 -1.0142180478844E-01 -1.0142180478844E-01 -1.0142180478844E-01 -1.0142180478844E-01 -1.0142180478844E-01 -1.0154287305583E-01 
-2.3829988127905E-01 -4.7659976255810E-01 -4.7659976255810E-01 -4.7659976255810E-01 -4.7659976255810E-01 -4.7659976255810E-01 -4.7659976255810E-01 -4.7659976255810E-01 -4.7659976255810E-01 -2.3527805065321E-01 
-0.0000000000000E+00 -0.0000000000000E+00 -0.0000000000000E+00 -0.0000000000000E+00 -0.0000000000000E+00 -0.0000000000000E+00 -0.0000000000000E+00 -0.0000000000000E+00 -0.0000000000000E+00 -0.0000000000000E+00 
 2.3829988127905E-01  0.0000000000000E+00  0.0000000000000E+00  0.0000000000000E+00  0.0000000000000E+00  0.0000000000000E+00  0.0000000000000E+00  0.0000000000000E+00  0.0000000000000E+00  0.0000000000000E+00 
 0.0000000000000E+00 -0.0000000000000E+00 -0.0000000000000E+00 -0.0000000000000E+00 -0.0000000000000E+00 -0.0000000000000E+00 -0.0000000000000E+00 -0.0000000000000E+00 -0.0000000000000E+00  2.3527805065321E-01 
-0.0000000000000E+00 -0.0000000000000E+00 -0.0000000000000E+00 -0.0000000000000E+00 -0.0000000000000E+00 -0.0000000000000E+00 -0.0000000000000E+00 -0.0000000000000E+00 -0.0000000000000E+00 -0.0000000000000E+00 
 7.2440786946225E+03  1.4488157389245E+04  1.4488157389245E+04  1.4488157389245E+04  1.4488157389245E+04  1.4488157389245E+04  1.4488157389245E+04  1.4488157389245E+04  1.4488157389245E+04  7.2440786946225E+03 
 4.9259735123433E+04  9.8519470246865E+04  9.8519470246866E+04  9.8519470246865E+04  9.8519470246866E+04  9.8519470246866E+04  9.8519470246865E+04  9.8519470246866E+04  9.8519470246865E+04  4.9259735123433E+04 
 5.6503813818055E+04  1.1300762763611E+05  1.1300762763611E+05  1.1300762763611E+05  1.1300762763611E+05  1.1300762763611E+05  1.1300762763611E+05  1.1300762763611E+05  1.1300762763611E+05  5.6503813818055E+04 
 3.5000000000000E-01  3.5000000000000E-01  3.5000000000000E-01  3.5000000000000E-01  3.5000000000000E-01  3.5000000000000E-01  3.5000000000000E-01  3.5000000000000E-01  3.5000000000000E-01  3.5000000000000E-01 
 6.6040000000000E+00  1.3208000000000E+01  1.3208000000000E+01  1.3208000000000E+01  1.3208000000000E+01  1.3208000000000E+01  1.3208000000000E+01  1.3208000000000E+01  1.3208000000000E+01  6.6040000000000E+00 
-3.6084173422024E-02 -3.6084173422024E-02 -3.6084173422024E-02 -3.6084173422024E-02 -3.6084173422024E-02 -3.6084173422024E-02 -3.6084173422024E-02 -3.6084173422024E-02 -3.6084173422024E-02 -3.5626597615567E-02 
 3.3866666666667E-05  6.7733333333333E-05  6.7733333333334E-05  6.7733333333333E-05  6.7733333333334E-05  6.7733333333334E-05  6.7733333333333E-05  6.7733333333334E-05  6.7733333333333E-05  3.3866666666667E-05 
 2.6603001364256E+01  2.6603001364256E+01  2.6603001364256E+01  2.6603001364256E+01  2.6603001364256E+01  2.6603001364256E+01  2.6603001364256E+01  2.6603001364256E+01  2.6603001364256E+01  2.6603001364256E+01 
 1.7735334242838E+01  1.7735334242838E+01  1.7735334242838E+01  1.7735334242838E+01  1.7735334242838E+01  1.7735334242838E+01  1.7735334242838E+01  1.7735334242838E+01  1.7735334242838E+01  1.7735334242838E+01 
 0.0000000000000E+00  0.0000000000000E+00  0.0000000000000E+00  0.0000000000000E+00  0.0000000000000E+00  0.0000000000000E+00  0.0000000000000E+00  0.0000000000000E+00  0.0000000000000E+00  0.0000000000000E+00 
 0.0000000000000E+00  0.0000000000000E+00  0.0000000000000E+00  0.0000000000000E+00  0.0000000000000E+00  0.0000000000000E+00  0.0000000000000E+00  0.0000000000000E+00  0.0000000000000E+00  0.0000000000000E+00 
 0.0000000000000E+00  0.0000000000000E+00  0.0000000000000E+00  0.0000000000000E+00  0.0000000000000E+00  0.0000000000000E+00  0.0000000000000E+00  0.0000000000000E+00  0.0000000000000E+00  0.0000000000000E+00 
 0.0000000000000E+00  0.0000000000000E+00  0.0000000000000E+00  0.0000000000000E+00  0.0000000000000E+00  0.0000000000000E+00  0.0000000000000E+00  0.0000000000000E+00  0.0000000000000E+00  0.0000000000000E+00 
 0.0000000000000E+00  0.0000000000000E+00  0.0000000000000E+00  0.0000000000000E+00  0.0000000000000E+00  0.0000000000000E+00  0.0000000000000E+00  0.0000000000000E+00  0.0000000000000E+00  0.0000000000000E+00 
 0.0000000000000E+00  0.0000000000000E+00  0.0000000000000E+00  0.0000000000000E+00  0.0000000000000E+00  0.0000000000000E+00  0.0000000000000E+00  0.0000000000000E+00  0.0000000000000E+00  0.0000000000000E+00 
 0.0000000000000E+00  0.0000000000000E+00  0.0000000000000E+00  0.0000000000000E+00  0.0000000000000E+00  0.0000000000000E+00  0.0000000000000E+00  0.0000000000000E+00  0.0000000000000E+00  0.0000000000000E+00 
ZONE T = "CATH, 1.0000E-08", I = 10, SOLUTIONTIME = 1.000000E-08
ZONETYPE = ORDERED
DATAPACKING = BLOCK
STRANDID = 3
 1.2700000000000E-03  1.3377333333333E-03  1.4054666666667E-03  1.4732000000000E-03  1.5409333333333E-03  1.6086666666667E-03  1.6764000000000E-03  1.7441333333333E-03  1.8118666666667E-03  1.8796000000000E-03 
 1.9920126712010E-08  1.7577617617799E-08  1.5234818568120E-08  1.2891529402736E-08  1.0547549807648E-08  8.2026792333769E-09  5.8567170664062E-09  3.5094736983245E-09  1.1613060989596E-09 -1.8160375615144E-13 
 9.2000000000032E-01  9.2000000000091E-01  9.2000000000091E-01  9.2000000000091E-01  9.2000000000091E-01  9.2000000000091E-01  9.2000000000091E-01  9.2000000000091E-01  9.2000000000091E-01  9.2000000000090E-01 
 3.9999999999839E-02  3.9999999999545E-02  3.9999999999545E-02  3.9999999999545E-02  3.9999999999545E-02  3.9999999999545E-02  3.9999999999545E-02  3.9999999999545E-02  3.9999999999544E-02  3.9999999999549E-02 
 3.9999999999839E-02  3.9999999999545E-02  3.9999999999545E-02  3.9999999999545E-02  3.9999999999545E-02  3.9999999999545E-02  3.9999999999545E-02  3.9999999999545E-02  3.9999999999544E-02  3.9999999999549E-02 
 2.9754663281607E-02  2.9754454010079E-02  2.9754269347854E-02  2.9754109297966E-02  2.9753973865597E-02  2.9753863057973E-02  2.9753776884452E-02  2.9753715356541E-02  2.9753678487841E-02  2.9753666290846E-02 
 3.8001766760164E+00  3.8001744960318E+00  3.8001679559093E+00  3.8001570551094E+00  3.8001417927198E+00  3.8001221674553E+00  3.8000981776576E+00  3.8000698212949E+00  3.8000370959824E+00  3.8000000000000E+00 
 2.9815000104110E+02  2.9815000422504E+02  2.9815000421802E+02  2.9815000425140E+02  2.9815000425287E+02  2.9815000422215E+02  2.9815000287039E+02  2.9814993913096E+02  2.9814687878320E+02  2.9800000000000E+02 
 3.7704220127348E+00  3.7704200420217E+00  3.7704136865615E+00  3.7704029458114E+00  3.7703878188542E+00  3.7703683043973E+00  3.7703444007731E+00  3.7703161059383E+00  3.7702834174946E+00  3.7702463337092E+00 
 3.9714218039479E+00  3.9714218013777E+00  3.9714218013833E+00  3.9714218013564E+00  3.9714218013552E+00  3.9714218013800E+00  3.9714218024711E+00  3.9714218539207E+00  3.9714243241864E+00  3.9715428730555E+00 
-2.0099979121307E-01 -2.0100175935598E-01 -2.0100811482187E-01 -2.0101885554496E-01 -2.0103398250104E-01 -2.0105349698269E-01 -2.0107740169798E-01 -2.0110574798235E-01 -2.0114090669178E-01 -2.0129653934630E-01 
-1.6866433154113E+00 -3.3734169612309E+00 -3.3738345530014E+00 -3.3745404139953E+00 -3.3755347657704E+00 -3.3768179477606E+00 -3.3783900526707E+00 -3.3802352315054E+00 -3.3815663657800E+00 -1.6723822746067E+00 
 1.4865779383205E-07  1.3117624957762E-07  1.1369268321985E-07  9.6205437910167E-08  7.8713058140395E-08  6.1214031944988E-08  4.3706835620826E-08  2.6190108010009E-08  8.6664540884298E-09  8.6664540884298E-09 
 3.0373211945411E+01  2.6999868888276E+01  2.3626261362409E+01  2.0252090829405E+01  1.6877069931097E+01  1.3500912349871E+01  1.0123325188605E+01  6.7440301047283E+00  3.3631473320589E+00  0.0000000000000E+00 
 0.0000000000000E+00  3.3733345154801E+00  6.7469429682332E+00  1.0121113103298E+01  1.3496133278157E+01  1.6872292130492E+01  2.0249878513410E+01  2.3629173402411E+01  2.7010056290581E+01  3.0373212750834E+01 
 1.6866433154113E-08  3.3734169612309E-08  3.3738345530014E-08  3.3745404139953E-08  3.3755347657704E-08  3.3768179477606E-08  3.3783900526707E-08  3.3802352315054E-08  3.3815663657800E-08  1.6723822746067E-08 
 7.2440786946393E+03  1.4488157389279E+04  1.4488157389279E+04  1.4488157389279E+04  1.4488157389279E+04  1.4488157389279E+04  1.4488157389279E+04  1.4488157389279E+04  1.4488157389279E+04  7.2440786946392E+03 
 4.9259735123416E+04  9.8519470246831E+04  9.8519470246832E+04  9.8519470246831E+04  9.8519470246832E+04  9.8519470246832E+04  9.8519470246831E+04  9.8519470246832E+04  9.8519470246831E+04  4.9259735123416E+04 
 5.6503813818055E+04  1.1300762763611E+05  1.1300762763611E+05  1.1300762763611E+05  1.1300762763611E+05  1.1300762763611E+05  1.1300762763611E+05  1.1300762763611E+05  1.1300762763611E+05  5.6503813818055E+04 
 3.5000000000000E-01  3.5000000000000E-01  3.5000000000000E-01  3.5000000000000E-01  3.5000000000000E-01  3.5000000000000E-01  3.5000000000000E-01  3.5000000000000E-01  3.5000000000000E-01  3.5000000000000E-01 
 6.6040000000000E+00  1.3208000000000E+01  1.3208000000000E+01  1.3208000000000E+01  1.3208000000000E+01  1.3208000000000E+01  1.3208000000000E+01  1.3208000000000E+01  1.3208000000000E+01  6.6040000000000E+00 
-2.5539723128578E-01 -2.5540709882124E-01 -2.5543871539986E-01 -2.5549215732853E-01 -2.5556744138177E-01 -2.5566459325867E-01 -2.5578361997809E-01 -2.5592332158581E-01 -2.5602410401121E-01 -2.5323777628811E-01 
 3.3866666666667E-05  6.7733333333333E-05  6.7733333333334E-05  6.7733333333333E-05  6.7733333333334E-05  6.7733333333334E-05  6.7733333333333E-05  6.7733333333334E-05  6.7733333333333E-05  3.3866666666667E-05 
 2.6603001364262E+01  2.6603001364262E+01  2.6603001364262E+01  2.6603001364262E+01  2.6603001364262E+01  2.6603001364262E+01  2.6603001364262E+01  2.6603001364262E+01  2.6603001364262E+01  2.6603001364262E+01 
 1.7735334242832E+01  1.7735334242832E+01  1.7735334242832E+01  1.7735334242832E+01  1.7735334242832E+01  1.7735334242832E+01  1.7735334242832E+01  1.7735334242832E+01  1.7735334242832E+01  1.7735334242833E+01 
 2.1996011828178E-04  2.1997167190796E-04  2.2000839845258E-04  2.2007047845071E-04  2.2015793319781E-04  2.2027079449229E-04  2.2040908069031E-04  2.2057176552619E-04  2.2070714746566E-04  2.1832391579538E-04 
 2.1996011828178E+04  2.1997167190796E+04  2.2000839845258E+04  2.2007047845071E+04  2.2015793319781E+04  2.2027079449229E+04  2.2040908069031E+04  2.2057176552619E+04  2.2070714746566E+04  2.1832391579538E+04 
 8.8631132593420E-02  7.8821369605278E-02  6.0426505048317E-02  4.4480829599351E-02  3.0984524099200E-02  1.9938612535250E-02  1.1344936227322E-02  5.2061989663326E-03  1.5260541795198E-03  3.0115028971729E-04 
 5.4284021798817E-02  2.7143269171147E-01  9.2295009481042E-01  2.0090532219111E+00  3.5301075993236E+00  5.4866275759403E+00  7.8792765514310E+00  1.0708859452141E+01  1.3975887706217E+01  1.5718782041954E+01 
 2.1995868913023E+04  2.1996816936735E+04  2.1999856468658E+04  2.2004994311019E+04  2.2012232227657E+04  2.2021572883041E+04  2.2033017447543E+04  2.2046462486968E+04  2.2056737332806E+04  2.1816672496346E+04 
 1.0010284082149E+04  1.0010768861955E+04  1.0012324653849E+04  1.0014954508059E+04  1.0018659405037E+04  1.0023440803230E+04  1.0029299611924E+04  1.0036191947675E+04  1.0041899481089E+04  9.9402981597315E+03 
 1.1985584830875E+04  1.1986048074780E+04  1.1987531814810E+04  1.1990039802961E+04  1.1993572822620E+04  1.1998132079810E+04  1.2003717835620E+04  1.2010270539293E+04  1.2014837851717E+04  1.1876374336615E+04 
ZONE T = "CATH, 2.0000E-08", I = 10, SOLUTIONTIME = 2.000000E-08
ZONETYPE = ORDERED
DATAPACKING = BLOCK
STRANDID = 3
 1.2700000000000E-03  1.3377333333333E-03  1.4054666666667E-03  1.4732000000000E-03  1.5409333333333E-03  1.6086666666667E-03  1.6764000000000E-03  1.7441333333333E-03  1.8118666666667E-03  1.8796000000000E-03 
 1.9913427942068E-08  1.7569716459639E-08  1.5227167691537E-08  1.2883402145399E-08  1.0538582636951E-08  8.1935981423163E-09  5.8475222371697E-09  3.4994606536095E-09  1.1510098332182E-09 -1.0714627969583E-11 
 9.2000000000064E-01  9.2000000000182E-01  9.2000000000182E-01  9.2000000000182E-01  9.2000000000182E-01  9.2000000000182E-01  9.2000000000182E-01  9.2000000000182E-01  9.2000000000182E-01  9.2000000000180E-01 
 3.9999999999679E-02  3.9999999999091E-02  3.9999999999091E-02  3.9999999999091E-02  3.9999999999090E-02  3.9999999999090E-02  3.9999999999089E-02  3.9999999999089E-02  3.9999999999089E-02  3.9999999999099E-02 
 3.9999999999679E-02  3.9999999999091E-02  3.9999999999091E-02  3.9999999999091E-02  3.9999999999090E-02  3.9999999999090E-02  3.9999999999089E-02  3.9999999999089E-02  3.9999999999089E-02  3.9999999999099E-02 
 2.9764848827410E-02  2.9764639519412E-02  2.9764454825717E-02  2.9764294749375E-02  2.9764159295538E-02  2.9764048471462E-02  2.9763962286513E-02  2.9763900752176E-02  2.9763863882030E-02  2.9763851682599E-02 
 3.8001767108062E+00  3.8001745303791E+00  3.8001679889283E+00  3.8001570859139E+00  3.8001418204230E+00  3.8001221911700E+00  3.8000981964957E+00  3.8000698343686E+00  3.8000371024449E+00  3.8000000000000E+00 
 2.9815000215651E+02  2.9815000844792E+02  2.9815000855815E+02  2.9815000865402E+02  2.9815000862053E+02  2.9815000856062E+02  2.9815000341289E+02  2.9814981863500E+02  2.9814388517873E+02  2.9800000000000E+02 
 3.7704118619787E+00  3.7704098908597E+00  3.7704035341026E+00  3.7703927911645E+00  3.7703776611275E+00  3.7703581426985E+00  3.7703342342091E+00  3.7703059336164E+00  3.7702732385628E+00  3.7702361483174E+00 
 3.9714218030474E+00  3.9714217979687E+00  3.9714217978797E+00  3.9714217978023E+00  3.9714217978293E+00  3.9714217978777E+00  3.9714218020329E+00  3.9714219511830E+00  3.9714267405698E+00  3.9715428730551E+00 
-2.0100994106863E-01 -2.0101190710896E-01 -2.0101826377705E-01 -2.0102900663779E-01 -2.0104413670188E-01 -2.0106365517917E-01 -2.0108756782372E-01 -2.0111601756657E-01 -2.0115350200696E-01 -2.0130672473769E-01 
-1.6869769484418E+00 -3.3740851120403E+00 -3.3745029030283E+00 -3.3752090642014E+00 -3.3762038058165E+00 -3.3774874951787E+00 -3.3790592132450E+00 -3.3808726522030E+00 -3.3814331842434E+00 -1.6727142298671E+00 
 1.4868383361932E-07  1.3119860223635E-07  1.1371147402654E-07  9.6220686403546E-08  7.8724743899546E-08  6.1222149136375E-08  4.3711409523237E-08  2.6191272279161E-08  8.6682258032251E-09  8.6682258032251E-09 
 3.0378544608378E+01  2.7004525103841E+01  2.3630231096181E+01  2.0255375112668E+01  1.6879668677976E+01  1.3502823027110E+01  1.0124549672752E+01  6.7445837402369E+00  3.3634308219060E+00  0.0000000000000E+00 
 0.0000000000000E+00  3.3740195044299E+00  6.7483135120222E+00  1.0123169495522E+01  1.3498875930606E+01  1.6875721581224E+01  2.0253994935251E+01  2.3633960868001E+01  2.7015113786335E+01  3.0378544608278E+01 
 3.3736202638531E-08  6.7475020732713E-08  6.7483374560297E-08  6.7497494781967E-08  6.7517385715869E-08  6.7543054429393E-08  6.7574492659156E-08  6.7611078837084E-08  6.7629995500234E-08  3.3450965044738E-08 
 7.2440786946562E+03  1.4488157389312E+04  1.4488157389312E+04  1.4488157389312E+04  1.4488157389312E+04  1.4488157389313E+04  1.4488157389312E+04  1.4488157389313E+04  1.4488157389313E+04  7.2440786946559E+03 
 4.9259735123399E+04  9.8519470246798E+04  9.8519470246798E+04  9.8519470246798E+04  9.8519470246798E+04  9.8519470246798E+04  9.8519470246798E+04  9.8519470246798E+04  9.8519470246798E+04  4.9259735123399E+04 
 5.6503813818055E+04  1.1300762763611E+05  1.1300762763611E+05  1.1300762763611E+05  1.1300762763611E+05  1.1300762763611E+05  1.1300762763611E+05  1.1300762763611E+05  1.1300762763611E+05  5.6503813818055E+04 
 3.5000000000000E-01  3.5000000000000E-01  3.5000000000000E-01  3.5000000000000E-01  3.5000000000000E-01  3.5000000000000E-01  3.5000000000000E-01  3.5000000000000E-01  3.5000000000000E-01  3.5000000000000E-01 
 6.6040000000000E+00  1.3208000000000E+01  1.3208000000000E+01  1.3208000000000E+01  1.3208000000000E+01  1.3208000000000E+01  1.3208000000000E+01  1.3208000000000E+01  1.3208000000000E+01  6.6040000000000E+00 
-2.5544775112687E-01 -2.5545768564812E-01 -2.5548931730984E-01 -2.5554278196558E-01 -2.5561809553426E-01 -2.5571528582516E-01 -2.5583428325598E-01 -2.5597158178400E-01 -2.5601402061201E-01 -2.5328804207558E-01 
 3.3866666666667E-05  6.7733333333333E-05  6.7733333333334E-05  6.7733333333333E-05  6.7733333333334E-05  6.7733333333334E-05  6.7733333333333E-05  6.7733333333334E-05  6.7733333333333E-05  3.3866666666667E-05 
 2.6603001364267E+01  2.6603001364267E+01  2.6603001364267E+01  2.6603001364267E+01  2.6603001364267E+01  2.6603001364267E+01  2.6603001364267E+01  2.6603001364267E+01  2.6603001364267E+01  2.6603001364267E+01 
 1.7735334242827E+01  1.7735334242827E+01  1.7735334242827E+01  1.7735334242827E+01  1.7735334242827E+01  1.7735334242827E+01  1.7735334242827E+01  1.7735334242827E+01  1.7735334242827E+01  1.7735334242827E+01 
 4.3996880334352E-04  4.3999197012065E-04  4.4006544069327E-04  4.4018962783651E-04  4.4036457340363E-04  4.4059034282868E-04  4.4086690636252E-04  4.4119021020837E-04  4.4141036024094E-04  4.3669622149580E-04 
 2.2000868506174E+04  2.2002029821269E+04  2.2005704224069E+04  2.2011914938580E+04  2.2020664020582E+04  2.2031954833639E+04  2.2045782567221E+04  2.2061844468219E+04  2.2070321277527E+04  2.1837230570042E+04 
 8.8662026472079E-02  7.8848577721722E-02  6.0446835495695E-02  4.4495283119550E-02  3.0994097837246E-02  1.9944295014842E-02  1.1347730236930E-02  5.2071150924580E-03  1.5262301795337E-03  3.0127207374809E-04 
 5.4306055794700E-02  2.7154295114930E-01  9.2332511137774E-01  2.0098697102886E+00  3.5315425224911E+00  5.4888582427849E+00  7.8824802989355E+00  1.0713198343170E+01  1.3981097877146E+01  1.5724259180910E+01 
 2.2000725538092E+04  2.2001679429740E+04  2.2004720452122E+04  2.2009860573587E+04  2.2017101483962E+04  2.2026446031101E+04  2.2037888739192E+04  2.2051126062760E+04  2.2056338653420E+04  2.1821506009589E+04 
 1.0012769793029E+04  1.0013257132680E+04  1.0014813700960E+04  1.0017444764354E+04  1.0021151271717E+04  1.0025934760387E+04  1.0031793288259E+04  1.0038597102044E+04  1.0042132777767E+04  9.9427743022783E+03 
 1.1987955745063E+04  1.1988422297061E+04  1.1989906751162E+04  1.1992415809233E+04  1.1995950212245E+04  1.2000511270714E+04  1.2006095450933E+04  1.2012528960716E+04  1.2014205875653E+04  1.1878731707310E+04 
ZONE T = "CATH, 3.0000E-08", I = 10, SOLUTIONTIME = 3.000000E-08
ZONETYPE = ORDERED
DATAPACKING = BLOCK
STRANDID = 3
 1.2700000000000E-03  1.3377333333333E-03  1.4054666666667E-03  1.4732000000000E-03  1.5409333333333E-03  1.6086666666667E-03  1.6764000000000E-03  1.7441333333333E-03  1.8118666666667E-03  1.8796000000000E-03 
 1.9929132992938E-08  1.7586049841139E-08  1.5241949997375E-08  1.2897359603258E-08  1.0552441370134E-08  8.2066314503163E-09  5.8597310354954E-09  3.5123293780998E-09  1.1650408928197E-09  3.4504734139024E-12 
 9.2000000000096E-01  9.2000000000273E-01  9.2000000000273E-01  9.2000000000273E-01  9.2000000000273E-01  9.2000000000273E-01  9.2000000000273E-01  9.2000000000273E-01  9.2000000000273E-01  9.2000000000270E-01 
 3.9999999999518E-02  3.9999999998636E-02  3.9999999998636E-02  3.9999999998636E-02  3.9999999998635E-02  3.9999999998635E-02  3.9999999998634E-02  3.9999999998633E-02  3.9999999998633E-02  3.9999999998648E-02 
 3.9999999999518E-02  3.9999999998636E-02  3.9999999998636E-02  3.9999999998636E-02  3.9999999998635E-02  3.9999999998635E-02  3.9999999998634E-02  3.9999999998633E-02  3.9999999998633E-02  3.9999999998648E-02 
 2.9774972902523E-02  2.9774763559267E-02  2.9774578835159E-02  2.9774418733252E-02  2.9774283258700E-02  2.9774172418763E-02  2.9774086222810E-02  2.9774024682333E-02  2.9773987810732E-02  2.9773975608953E-02 
 3.8001767444821E+00  3.8001745636263E+00  3.8001680208882E+00  3.8001571157274E+00  3.8001418472310E+00  3.8001222141127E+00  3.8000982147127E+00  3.8000698470014E+00  3.8000371086936E+00  3.8000000000000E+00 
 2.9815000327485E+02  2.9815001260759E+02  2.9815001296251E+02  2.9815001302905E+02  2.9815001310303E+02  2.9815001268784E+02  2.9815000031657E+02  2.9814964328488E+02  2.9814101266421E+02  2.9800000000000E+02 
 3.7704017715795E+00  3.7703998000670E+00  3.7703934420530E+00  3.7703826969942E+00  3.7703675639723E+00  3.7703480416939E+00  3.7703241284899E+00  3.7702958223190E+00  3.7702631208829E+00  3.7702260243910E+00 
 3.9714218021445E+00  3.9714217946107E+00  3.9714217943242E+00  3.9714217942705E+00  3.9714217942107E+00  3.9714217945459E+00  3.9714218045318E+00  3.9714220927227E+00  3.9714290592043E+00  3.9715428730547E+00 
-2.0102003056493E-01 -2.0102199454365E-01 -2.0102835227117E-01 -2.0103909727628E-01 -2.0105423023841E-01 -2.0107375285194E-01 -2.0109767604187E-01 -2.0112627040368E-01 -2.0116593832148E-01 -2.0131684866367E-01 
-1.6873086642566E+00 -3.3747494100585E+00 -3.3751674313525E+00 -3.3758738629323E+00 -3.3768690252685E+00 -3.3781531251315E+00 -3.3797235247915E+00 -3.3814914501360E+00 -3.3813284732763E+00 -1.6730442470820E+00 
 1.4870901247614E-07  1.3122020446917E-07  1.1372963260694E-07  9.6235399915595E-08  7.8736010175343E-08  6.1229966045560E-08  4.3715783892055E-08  2.6192439841171E-08  8.6699338283810E-09  8.6699338283810E-09 
 3.0383709213964E+01  2.7009025844899E+01  2.3634067424292E+01  2.0258546777036E+01  1.6882175333204E+01  1.3504664258003E+01  1.0125725932762E+01  6.7451184453269E+00  3.3637084837874E+00  0.0000000000000E+00 
 0.0000000000000E+00  3.3746833692548E+00  6.7496417900381E+00  1.0125162437032E+01  1.3501533881089E+01  1.6879044956421E+01  2.0257983281453E+01  2.3638590769010E+01  2.7020000730574E+01  3.0383709214157E+01 
 5.0609289281097E-08  1.0122251483330E-07  1.0123504887382E-07  1.0125623341129E-07  1.0128607596855E-07  1.0132458568071E-07  1.0137172790707E-07  1.0142599333844E-07  1.0144328023300E-07  5.0181407515558E-08 
 7.2440786946731E+03  1.4488157389346E+04  1.4488157389346E+04  1.4488157389346E+04  1.4488157389346E+04  1.4488157389346E+04  1.4488157389346E+04  1.4488157389346E+04  1.4488157389346E+04  7.2440786946727E+03 
 4.9259735123382E+04  9.8519470246764E+04  9.8519470246765E+04  9.8519470246764E+04  9.8519470246764E+04  9.8519470246764E+04  9.8519470246764E+04  9.8519470246764E+04  9.8519470246764E+04  4.9259735123383E+04 
 5.6503813818055E+04  1.1300762763611E+05  1.1300762763611E+05  1.1300762763611E+05  1.1300762763611E+05  1.1300762763611E+05  1.1300762763611E+05  1.1300762763611E+05  1.1300762763611E+05  5.6503813818055E+04 
 3.5000000000000E-01  3.5000000000000E-01  3.5000000000000E-01  3.5000000000000E-01  3.5000000000000E-01  3.5000000000000E-01  3.5000000000000E-01  3.5000000000000E-01  3.5000000000000E-01  3.5000000000000E-01 
 6.6040000000000E+00  1.3208000000000E+01  1.3208000000000E+01  1.3208000000000E+01  1.3208000000000E+01  1.3208000000000E+01  1.3208000000000E+01  1.3208000000000E+01  1.3208000000000E+01  6.6040000000000E+00 
-2.5549798065666E-01 -2.5550798077366E-01 -2.5553962987224E-01 -2.5559311500093E-01 -2.5566846042311E-01 -2.5576568179372E-01 -2.5588457940578E-01 -2.5601843202120E-01 -2.5600609276774E-01 -2.5333801439764E-01 
 3.3866666666667E-05  6.7733333333333E-05  6.7733333333334E-05  6.7733333333333E-05  6.7733333333334E-05  6.7733333333334E-05  6.7733333333333E-05  6.7733333333334E-05  6.7733333333333E-05  3.3866666666667E-05 
 2.6603001364272E+01  2.6603001364272E+01  2.6603001364272E+01  2.6603001364272E+01  2.6603001364272E+01  2.6603001364272E+01  2.6603001364272E+01  2.6603001364272E+01  2.6603001364272E+01  2.6603001364272E+01 
 1.7735334242822E+01  1.7735334242822E+01  1.7735334242822E+01  1.7735334242822E+01  1.7735334242822E+01  1.7735334242822E+01  1.7735334242822E+01  1.7735334242822E+01  1.7735334242822E+01  1.7735334242822E+01 
 6.6002577705798E-04  6.6006061527373E-04  6.6017084929594E-04  6.6035716859991E-04  6.6061964284042E-04  6.6095836054763E-04  6.6137313095389E-04  6.6185408241146E-04  6.6211147817369E-04  6.5511663409673E-04 
 2.2005697371446E+04  2.2006864515308E+04  2.2010540860268E+04  2.2016754076339E+04  2.2025506943680E+04  2.2036801771895E+04  2.2050622459137E+04  2.2066387220308E+04  2.2070111793275E+04  2.1842041260093E+04 
 8.8691898744374E-02  7.8874882111662E-02  6.0466486058534E-02  4.4509244130726E-02  3.1003334108293E-02  1.9949772051638E-02  1.1350415447320E-02  5.2079964498197E-03  1.5264045134651E-03  3.0138951190885E-04 
 5.4327414653750E-02  2.7164983160589E-01  9.2368863570397E-01  2.0106611619756E+00  3.5329334064264E+00  5.4910203388646E+00  7.8855849509247E+00  1.0717394788748E+01  1.3986133488103E+01  1.5729556134582E+01 
 2.2005554352132E+04  2.2006513990594E+04  2.2009556705146E+04  2.2014698905933E+04  2.2021943006939E+04  2.2031290801784E+04  2.2042725523771E+04  2.2055664617523E+04  2.2056124133383E+04  2.1826311402569E+04 
 1.0015241316777E+04  1.0015731163818E+04  1.0017288592989E+04  1.0019920776429E+04  1.0023628973803E+04  1.0028414270369E+04  1.0034269879438E+04  1.0040946315484E+04  1.0042442644204E+04  9.9452360875370E+03 
 1.1990313035356E+04  1.1990782826776E+04  1.1992268112157E+04  1.1994778129504E+04  1.1998314033136E+04  1.2002876531414E+04  1.2008455644333E+04  1.2014718302039E+04  1.2013681489179E+04  1.1881075315032E+04 
ZONE T = "CATH, 4.0000E-08", I = 10, SOLUTIONTIME = 4.000000E-08
ZONETYPE = ORDERED
DATAPACKING = BLOCK
STRANDID = 3
 1.2700000000000E-03  1.3377333333333E-03  1.4054666666667E-03  1.4732000000000E-03  1.5409333333333E-03  1.6086666666667E-03  1.6764000000000E-03  1.7441333333333E-03  1.8118666666667E-03  1.8796000000000E-03 
 1.9931932253480E-08  1.7588027311494E-08  1.5244195115220E-08  1.2899508966784E-08  1.0554131529593E-08  8.2078621499777E-09  5.8608671652621E-09  3.5123215110261E-09  1.1647239032854E-09  2.9056618222244E-12 
 9.2000000000129E-01  9.2000000000364E-01  9.2000000000364E-01  9.2000000000364E-01  9.2000000000364E-01  9.2000000000364E-01  9.2000000000364E-01  9.2000000000364E-01  9.2000000000364E-01  9.2000000000361E-01 
 3.9999999999357E-02  3.9999999998181E-02  3.9999999998181E-02  3.9999999998181E-02  3.9999999998180E-02  3.9999999998179E-02  3.9999999998179E-02  3.9999999998178E-02  3.9999999998178E-02  3.9999999998197E-02 
 3.9999999999357E-02  3.9999999998181E-02  3.9999999998181E-02  3.9999999998181E-02  3.9999999998180E-02  3.9999999998179E-02  3.9999999998179E-02  3.9999999998178E-02  3.9999999998178E-02  3.9999999998197E-02 
 2.9785035632047E-02  2.9784826253657E-02  2.9784641499233E-02  2.9784481371829E-02  2.9784345876603E-02  2.9784235020816E-02  2.9784148813842E-02  2.9784087267177E-02  2.9784050393935E-02  2.9784038189820E-02 
 3.8001767779541E+00  3.8001745966721E+00  3.8001680526542E+00  3.8001571453598E+00  3.8001418738754E+00  3.8001222369143E+00  3.8000982328165E+00  3.8000698595551E+00  3.8000371149201E+00  3.8000000000000E+00 