TITLE = "Solution on Domain BulkDomain1D_2"
VARIABLES = "x [m]"  
"Vel_axial" 	"MF_sp(ECDMC)" 	"MF_sp(Li+)" 	"MF_sp(PF6-)" 	"Volt(Electroly)" 	"Volt(CathodeVo)" 	"Temperature" 	
"Potential Drop Electrode-Electrolyte [V]" 	"Surf_0 Equilibrium Potential Drop Electrode-Electrolyte [V]" 	"Overpotential_0 [V]" 	"Current Source [A/m^2]" 	"Li+ flux [kmol/m^2/s]" 	"Electrolyte Current [A/m^2]" 	"Electrode Current [A/m^2]" 	
"CV Capacity discharged [A-s/m^2]" 	"Depth of discharge in CV [A-s/m^2]" 	"CV Capacity remaining [A-s/m^2]" 	"Initial CV capacity [A-s/m^2]" 	"Porosity []" 	"Surface Area [m2/m2] (area per area)" 	"Specific current (per particle area) [A/m^2]" 	"Control volume thickness [m]" 	
"MoleDens LiCoO2 [kmol/m^3]" 	"MoleDens CoO2 [kmol/m^3]" 	"qHeat_accum [J/m3]" 	"qHeat_step [W/m3]" 	"Joule_Lyte [W/m3]" 	"Joule_Solid [W/m3]" 	"electrodHeat [W/m3]" 	"OverpotHeat [W/m3]" 	"deltaSHeat [W/m3]" 	

ZONE T = "CATH, 0.0000E+00", I = 10, SOLUTIONTIME = 0.000000E+00
ZONETYPE = ORDERED
DATAPACKING = BLOCK
STRANDID = 3
 1.2700000000000E-03  1.3377333333333E-03  1.4054666666667E-03  1.4732000000000E-03  1.5409333333333E-03  1.6086666666667E-03  1.6764000000000E-03  1.7441333333333E-03  1.8118666666667E-03  1.8796000000000E-03 
 0.0000000000000E+00  0.0000000000000E+00  0.0000000000000E+00  0.0000000000000E+00  0.0000000000000E+00  0.0000000000000E+00  0.0000000000000E+00  0.0000000000000E+00  0.0000000000000E+00  0.0000000000000E+00 
 9.2000000000000E-01  9.2000000000000E-01  9.2000000000000E-01  9.2000000000000E-01  9.2000000000000E-01  9.2000000000000E-01  9.2000000000000E-01  9.2000000000000E-01  9.2000000000000E-01  9.2000000000000E-01 
 4.0000000000000E-02  4.0000000000000E-02  4.0000000000000E-02  4.0000000000000E-02  4.0000000000000E-02  4.0000000000000E-02  4.0000000000000E-02  4.0000000000000E-02  4.0000000000000E-02  4.0000000000000E-02 
 4.0000000000000E-02  4.0000000000000E-02  4.0000000000000E-02  4.0000000000000E-02  4.0000000000000E-02  4.0000000000000E-02  4.0000000000000E-02  4.0000000000000E-02  4.0000000000000E-02  4.0000000000000E-02 
-7.0000000000000E-02 -7.0000000000000E-02 -7.0000000000000E-02 -7.0000000000000E-02 -7.0000000000000E-02 -7.0000000000000E-02 -7.0000000000000E-02 -7.0000000000000E-02 -7.0000000000000E-02 -7.0000000000000E-02 
 3.8000000000000E+00  3.8000000000000E+00  3.8000000000000E+00  3.8000000000000E+00  3.8000000000000E+00  3.8000000000000E+00  3.8000000000000E+00  3.8000000000000E+00  3.8000000000000E+00  3.8000000000000E+00 
 2.9815000000000E+02  2.9815000000000E+02  2.9815000000000E+02  2.9815000000000E+02  2.9815000000000E+02  2.9815000000000E+02  2.9815000000000E+02  2.9815000000000E+02  2.9815000000000E+02  2.9800000000000E+02 
 3.8700000000000E+00  3.8700000000000E+00  3.8700000000000E+00  3.8700000000000E+00  3.8700000000000E+00  3.8700000000000E+00  3.8700000000000E+00  3.8700000000000E+00  3.8700000000000E+00  3.8700000000000E+00 
 3.9714142713289E+00  3.9714142713289E+00  3.9714142713289E+00  3.9714142713289E+00  3.9714142713289E+00  3.9714142713289E+00  3.9714142713289E+00  3.9714142713289E+00  3.9714142713289E+00  3.9715353395963E+00 
-1.0141427132889E-01 -1.0141427132889E-01 -1.0141427132889E-01 -1.0141427132889E-01 -1.0141427132889E-01 -1.0141427132889E-01 -1.0141427132889E-01 -1.0141427132889E-01 -1.0141427132889E-01 -1.0153533959628E-01 
-2.3826357195711E-01 -4.7652714391422E-01 -4.7652714391423E-01 -4.7652714391422E-01 -4.7652714391423E-01 -4.7652714391423E-01 -4.7652714391422E-01 -4.7652714391423E-01 -4.7652714391422E-01 -2.3524219296987E-01 
-0.0000000000000E+00 -0.0000000000000E+00 -0.0000000000000E+00 -0.0000000000000E+00 -0.0000000000000E+00 -0.0000000000000E+00 -0.0000000000000E+00 -0.0000000000000E+00 -0.0000000000000E+00 -0.0000000000000E+00 
 2.3826357195711E-01  0.0000000000000E+00  0.0000000000000E+00  0.0000000000000E+00  0.0000000000000E+00  0.0000000000000E+00  0.0000000000000E+00  0.0000000000000E+00  0.0000000000000E+00  0.0000000000000E+00 
 0.0000000000000E+00 -0.0000000000000E+00 -0.0000000000000E+00 -0.0000000000000E+00 -0.0000000000000E+00 -0.0000000000000E+00 -0.0000000000000E+00 -0.0000000000000E+00 -0.0000000000000E+00  2.3524219296987E-01 
-0.0000000000000E+00 -0.0000000000000E+00 -0.0000000000000E+00 -0.0000000000000E+00 -0.0000000000000E+00 -0.0000000000000E+00 -0.0000000000000E+00 -0.0000000000000E+00 -0.0000000000000E+00 -0.0000000000000E+00 
 7.2440786946225E+03  1.4488157389245E+04  1.4488157389245E+04  1.4488157389245E+04  1.4488157389245E+04  1.4488157389245E+04  1.4488157389245E+04  1.4488157389245E+04  1.4488157389245E+04  7.2440786946225E+03 
 4.9259735123433E+04  9.8519470246865E+04  9.8519470246866E+04  9.8519470246865E+04  9.8519470246866E+04  9.8519470246866E+04  9.8519470246865E+04  9.8519470246866E+04  9.8519470246865E+04  4.9259735123433E+04 
 5.6503813818055E+04  1.1300762763611E+05  1.1300762763611E+05  1.1300762763611E+05  1.1300762763611E+05  1.1300762763611E+05  1.1300762763611E+05  1.1300762763611E+05  1.1300762763611E+05  5.6503813818055E+04 
 3.5000000000000E-01  3.5000000000000E-01  3.5000000000000E-01  3.5000000000000E-01  3.5000000000000E-01  3.5000000000000E-01  3.5000000000000E-01  3.5000000000000E-01  3.5000000000000E-01  3.5000000000000E-01 
 6.6040000000000E+00  1.3208000000000E+01  1.3208000000000E+01  1.3208000000000E+01  1.3208000000000E+01  1.3208000000000E+01  1.3208000000000E+01  1.3208000000000E+01  1.3208000000000E+01  6.6040000000000E+00 
-3.6078675341780E-02 -3.6078675341780E-02 -3.6078675341780E-02 -3.6078675341780E-02 -3.6078675341780E-02 -3.6078675341780E-02 -3.6078675341780E-02 -3.6078675341780E-02 -3.6078675341780E-02 -3.5621167923965E-02 
 3.3866666666667E-05  6.7733333333333E-05  6.7733333333334E-05  6.7733333333333E-05  6.7733333333334E-05  6.7733333333334E-05  6.7733333333333E-05  6.7733333333334E-05  6.7733333333333E-05  3.3866666666667E-05 
 2.6603001364256E+01  2.6603001364256E+01  2.6603001364256E+01  2.6603001364256E+01  2.6603001364256E+01  2.6603001364256E+01  2.6603001364256E+01  2.6603001364256E+01  2.6603001364256E+01  2.6603001364256E+01 
 1.7735334242838E+01  1.7735334242838E+01  1.7735334242838E+01  1.7735334242838E+01  1.7735334242838E+01  1.7735334242838E+01  1.7735334242838E+01  1.7735334242838E+01  1.7735334242838E+01  1.7735334242838E+01 
 0.0000000000000E+00  0.0000000000000E+00  0.0000000000000E+00  0.0000000000000E+00  0.0000000000000E+00  0.0000000000000E+00  0.0000000000000E+00  0.0000000000000E+00  0.0000000000000E+00  0.0000000000000E+00 
 0.0000000000000E+00  0.0000000000000E+00  0.0000000000000E+00  0.0000000000000E+00  0.0000000000000E+00  0.0000000000000E+00  0.0000000000000E+00  0.0000000000000E+00  0.0000000000000E+00  0.0000000000000E+00 
 0.0000000000000E+00  0.0000000000000E+00  0.0000000000000E+00  0.0000000000000E+00  0.0000000000000E+00  0.0000000000000E+00  0.0000000000000E+00  0.0000000000000E+00  0.0000000000000E+00  0.0000000000000E+00 
 0.0000000000000E+00  0.0000000000000E+00  0.0000000000000E+00  0.0000000000000E+00  0.0000000000000E+00  0.0000000000000E+00  0.0000000000000E+00  0.0000000000000E+00  0.0000000000000E+00  0.0000000000000E+00 
 0.0000000000000E+00  0.0000000000000E+00  0.0000000000000E+00  0.0000000000000E+00  0.0000000000000E+00  0.0000000000000E+00  0.0000000000000E+00  0.0000000000000E+00  0.0000000000000E+00  0.0000000000000E+00 
 0.0000000000000E+00  0.0000000000000E+00  0.0000000000000E+00  0.0000000000000E+00  0.0000000000000E+00  0.0000000000000E+00  0.0000000000000E+00  0.0000000000000E+00  0.0000000000000E+00  0.0000000000000E+00 
 0.0000000000000E+00  0.0000000000000E+00  0.0000000000000E+00  0.0000000000000E+00  0.0000000000000E+00  0.0000000000000E+00  0.0000000000000E+00  0.0000000000000E+00  0.0000000000000E+00  0.0000000000000E+00 
ZONE T = "CATH, 1.0000E-08", I = 10, SOLUTIONTIME = 1.000000E-08
ZONETYPE = ORDERED
DATAPACKING = BLOCK
STRANDID = 3
 1.2700000000000E-03  1.3377333333333E-03  1.4054666666667E-03  1.4732000000000E-03  1.5409333333333E-03  1.6086666666667E-03  1.6764000000000E-03  1.7441333333333E-03  1.8118666666667E-03  1.8796000000000E-03 
 1.9921760718977E-08  1.7579251682494E-08  1.5236452680949E-08  1.2893163569819E-08  1.0549184015889E-08  8.2043134901295E-09  5.8583513723094E-09  3.5111080622567E-09  1.1629405073874E-09  1.4528309195846E-12 
 9.2000000000032E-01  9.2000000000091E-01  9.2000000000091E-01  9.2000000000091E-01  9.2000000000091E-01  9.2000000000091E-01  9.2000000000091E-01  9.2000000000091E-01  9.2000000000091E-01  9.2000000000090E-01 
 3.9999999999839E-02  3.9999999999545E-02  3.9999999999545E-02  3.9999999999545E-02  3.9999999999545E-02  3.9999999999545E-02  3.9999999999545E-02  3.9999999999545E-02  3.9999999999544E-02  3.9999999999549E-02 
 3.9999999999839E-02  3.9999999999545E-02  3.9999999999545E-02  3.9999999999545E-02  3.9999999999545E-02  3.9999999999545E-02  3.9999999999545E-02  3.9999999999545E-02  3.9999999999544E-02  3.9999999999549E-02 
 2.9762196766057E-02  2.9761987494530E-02  2.9761802832312E-02  2.9761642782435E-02  2.9761507350060E-02  2.9761396542442E-02  2.9761310368928E-02  2.9761248841004E-02  2.9761211972322E-02  2.9761199775313E-02 
 3.8001766760126E+00  3.8001744960280E+00  3.8001679559057E+00  3.8001570551060E+00  3.8001417927167E+00  3.8001221674527E+00  3.8000981776555E+00  3.8000698212934E+00  3.8000370959817E+00  3.8000000000000E+00 
 2.9815000104915E+02  2.9815000419145E+02  2.9815000423598E+02  2.9815000423659E+02  2.9815000431047E+02  2.9815000424031E+02  2.9815000288536E+02  2.9814993910225E+02  2.9814687882779E+02  2.9800000000000E+02 
 3.7704144792465E+00  3.7704125085335E+00  3.7704061530734E+00  3.7703954123236E+00  3.7703802853667E+00  3.7703607709102E+00  3.7703368672866E+00  3.7703085724524E+00  3.7702758840093E+00  3.7702388002247E+00 
 3.9714142704818E+00  3.9714142679452E+00  3.9714142679093E+00  3.9714142679088E+00  3.9714142678492E+00  3.9714142679058E+00  3.9714142689995E+00  3.9714143204843E+00  3.9714167906908E+00  3.9715353395959E+00 
-2.0099979123530E-01 -2.0100175941178E-01 -2.0100811483591E-01 -2.0101885558521E-01 -2.0103398248250E-01 -2.0105349699556E-01 -2.0107740171293E-01 -2.0110574803194E-01 -2.0114090668151E-01 -2.0129653937122E-01 
-1.6866433174331E+00 -3.3734169541188E+00 -3.3738345596883E+00 -3.3745404118878E+00 -3.3755347830426E+00 -3.3768179544409E+00 -3.3783900584628E+00 -3.3802352255405E+00 -3.3815663794440E+00 -1.6723822754187E+00 
 1.4865779321489E-07  1.3117624419109E-07  1.1369267568961E-07  9.6205442403978E-08  7.8713054164936E-08  6.1214026522045E-08  4.3706844999442E-08  2.6190095156622E-08  8.6664632824618E-09  8.6664632824618E-09 
 3.0373211828338E+01  2.6999868309007E+01  2.3626260116410E+01  2.0252090536433E+01  1.6877069980829E+01  1.3500911443063E+01  1.0123325570269E+01  6.7440297694638E+00  3.3631469792658E+00  0.0000000000000E+00 
 0.0000000000000E+00  3.3733344378292E+00  6.7469428143059E+00  1.0121112875843E+01  1.3496132982156E+01  1.6872291769725E+01  2.0249878082207E+01  2.3629172894072E+01  2.7010055708543E+01  3.0373212137655E+01 
 1.6866433174331E-08  3.3734169541188E-08  3.3738345596883E-08  3.3745404118878E-08  3.3755347830426E-08  3.3768179544409E-08  3.3783900584628E-08  3.3802352255405E-08  3.3815663794440E-08  1.6723822754187E-08 
 7.2440786946393E+03  1.4488157389279E+04  1.4488157389279E+04  1.4488157389279E+04  1.4488157389279E+04  1.4488157389279E+04  1.4488157389279E+04  1.4488157389279E+04  1.4488157389279E+04  7.2440786946392E+03 
 4.9259735123416E+04  9.8519470246831E+04  9.8519470246832E+04  9.8519470246831E+04  9.8519470246832E+04  9.8519470246832E+04  9.8519470246831E+04  9.8519470246832E+04  9.8519470246831E+04  4.9259735123416E+04 
 5.6503813818055E+04  1.1300762763611E+05  1.1300762763611E+05  1.1300762763611E+05  1.1300762763611E+05  1.1300762763611E+05  1.1300762763611E+05  1.1300762763611E+05  1.1300762763611E+05  5.6503813818055E+04 
 3.5000000000000E-01  3.5000000000000E-01  3.5000000000000E-01  3.5000000000000E-01  3.5000000000000E-01  3.5000000000000E-01  3.5000000000000E-01  3.5000000000000E-01  3.5000000000000E-01  3.5000000000000E-01 
 6.6040000000000E+00  1.3208000000000E+01  1.3208000000000E+01  1.3208000000000E+01  1.3208000000000E+01  1.3208000000000E+01  1.3208000000000E+01  1.3208000000000E+01  1.3208000000000E+01  6.6040000000000E+00 
-2.5539723159193E-01 -2.5540709828277E-01 -2.5543871590614E-01 -2.5549215716897E-01 -2.5556744268948E-01 -2.5566459376446E-01 -2.5578362041663E-01 -2.5592332113420E-01 -2.5602410504573E-01 -2.5323777641107E-01 
 3.3866666666667E-05  6.7733333333333E-05  6.7733333333334E-05  6.7733333333333E-05  6.7733333333334E-05  6.7733333333334E-05  6.7733333333333E-05  6.7733333333334E-05  6.7733333333333E-05  3.3866666666667E-05 
 2.6603001364262E+01  2.6603001364262E+01  2.6603001364262E+01  2.6603001364262E+01  2.6603001364262E+01  2.6603001364262E+01  2.6603001364262E+01  2.6603001364262E+01  2.6603001364262E+01  2.6603001364262E+01 
 1.7735334242832E+01  1.7735334242832E+01  1.7735334242832E+01  1.7735334242832E+01  1.7735334242832E+01  1.7735334242832E+01  1.7735334242832E+01  1.7735334242832E+01  1.7735334242832E+01  1.7735334242833E+01 
 2.1996011856075E-04  2.1997167145406E-04  2.2000839890464E-04  2.2007047832458E-04  2.2015793434387E-04  2.2027079494161E-04  2.2040908108010E-04  2.2057176514206E-04  2.2070714836941E-04  2.1832391590690E-04 
 2.1996011856075E+04  2.1997167145406E+04  2.2000839890464E+04  2.2007047832458E+04  2.2015793434387E+04  2.2027079494161E+04  2.2040908108010E+04  2.2057176514206E+04  2.2070714836941E+04  2.1832391590690E+04 
 8.8631131853706E-02  7.8821366400672E-02  6.0426498781404E-02  4.4480827901303E-02  3.0984524579889E-02  1.9938609950873E-02  1.1344936540277E-02  5.2061992601789E-03  1.5260531490575E-03  3.0115092890857E-04 
 5.4284019476572E-02  2.7143267903835E-01  9.2295005294092E-01  2.0090531315525E+00  3.5301074449469E+00  5.4866273413757E+00  7.8792762159043E+00  1.0708858991031E+01  1.3975887104175E+01  1.5718781369416E+01 
 2.1995868940923E+04  2.1996816891361E+04  2.1999856513912E+04  2.2004994298499E+04  2.2012232342417E+04  2.2021572928210E+04  2.2033017486857E+04  2.2046462449016E+04  2.2056737423783E+04  2.1816672508170E+04 
 1.0010284095255E+04  1.0010768843628E+04  1.0012324674392E+04  1.0014954503810E+04  1.0018659455377E+04  1.0023440823702E+04  1.0029299629865E+04  1.0036191932440E+04  1.0041899521152E+04  9.9402981657885E+03 
 1.1985584845668E+04  1.1986048047733E+04  1.1987531839520E+04  1.1990039794689E+04  1.1993572887040E+04  1.1998132104508E+04  1.2003717856993E+04  1.2010270516577E+04  1.2014837902631E+04  1.1876374342381E+04 
ZONE T = "CATH, 2.0000E-08", I = 10, SOLUTIONTIME = 2.000000E-08
ZONETYPE = ORDERED
DATAPACKING = BLOCK
STRANDID = 3
 1.2700000000000E-03  1.3377333333333E-03  1.4054666666667E-03  1.4732000000000E-03  1.5409333333333E-03  1.6086666666667E-03  1.6764000000000E-03  1.7441333333333E-03  1.8118666666667E-03  1.8796000000000E-03 
 1.9914517572347E-08  1.7570806102246E-08  1.5228257332627E-08  1.2884128594722E-08  1.0539309071598E-08  8.1943245858988E-09  5.8482486667624E-09  3.5001870810530E-09  1.1517362483337E-09 -9.9882125140403E-12 
 9.2000000000064E-01  9.2000000000182E-01  9.2000000000182E-01  9.2000000000182E-01  9.2000000000182E-01  9.2000000000182E-01  9.2000000000182E-01  9.2000000000182E-01  9.2000000000182E-01  9.2000000000180E-01 
 3.9999999999679E-02  3.9999999999091E-02  3.9999999999091E-02  3.9999999999091E-02  3.9999999999090E-02  3.9999999999090E-02  3.9999999999089E-02  3.9999999999089E-02  3.9999999999089E-02  3.9999999999099E-02 
 3.9999999999679E-02  3.9999999999091E-02  3.9999999999091E-02  3.9999999999091E-02  3.9999999999090E-02  3.9999999999090E-02  3.9999999999089E-02  3.9999999999089E-02  3.9999999999089E-02  3.9999999999099E-02 
 2.9772382271941E-02  2.9772172963943E-02  2.9771988270248E-02  2.9771828193905E-02  2.9771692740068E-02  2.9771581915992E-02  2.9771495731043E-02  2.9771434196705E-02  2.9771397326559E-02  2.9771385127128E-02 
 3.8001767108060E+00  3.8001745303789E+00  3.8001679889282E+00  3.8001570859138E+00  3.8001418204229E+00  3.8001221911699E+00  3.8000981964956E+00  3.8000698343686E+00  3.8000371024449E+00  3.8000000000000E+00 
 2.9815000216754E+02  2.9815000838529E+02  2.9815000856996E+02  2.9815000857190E+02  2.9815000870305E+02  2.9815000851631E+02  2.9815000349167E+02  2.9814981865022E+02  2.9814388524857E+02  2.9800000000000E+02 
 3.7704043285341E+00  3.7704023574150E+00  3.7703960006580E+00  3.7703852577199E+00  3.7703701276829E+00  3.7703506092539E+00  3.7703267007646E+00  3.7702984001719E+00  3.7702657051183E+00  3.7702286148729E+00 
 3.9714142695789E+00  3.9714142645597E+00  3.9714142644106E+00  3.9714142644090E+00  3.9714142643032E+00  3.9714142644539E+00  3.9714142685097E+00  3.9714144177111E+00  3.9714192070539E+00  3.9715353395955E+00 
-2.0100994104485E-01 -2.0101190714465E-01 -2.0101826375263E-01 -2.0102900668917E-01 -2.0104413662030E-01 -2.0106365519996E-01 -2.0108756774511E-01 -2.0111601753926E-01 -2.0115350193555E-01 -2.0130672472267E-01 
-1.6869769494307E+00 -3.3740850942881E+00 -3.3745029052122E+00 -3.3752090412182E+00 -3.3762038269518E+00 -3.3774874823113E+00 -3.3790592333896E+00 -3.3808726552969E+00 -3.3814332019985E+00 -1.6727142293775E+00 
 1.4868383367161E-07  1.3119860238308E-07  1.1371147415780E-07  9.6220686657776E-08  7.8724744039910E-08  6.1222149349716E-08  4.3711409627251E-08  2.6191272369079E-08  8.6682258022096E-09  8.6682258022096E-09 
 3.0378544619459E+01  2.7004525123045E+01  2.3630231123284E+01  2.0255375149862E+01  1.6879668715768E+01  1.3502823061237E+01  1.0124549703372E+01  6.7445837589486E+00  3.3634308304838E+00  0.0000000000000E+00 
 0.0000000000000E+00  3.3740194965274E+00  6.7483134962172E+00  1.0123169469581E+01  1.3498875903635E+01  1.6875721558204E+01  2.0253994916181E+01  2.3633960860442E+01  2.7015113789083E+01  3.0378544619470E+01 
 3.3736202668638E-08  6.7475020484069E-08  6.7483374649005E-08  6.7497494531060E-08  6.7517386099944E-08  6.7543054367523E-08  6.7574492918524E-08  6.7611078808374E-08  6.7629995814425E-08  3.3450965047963E-08 
 7.2440786946562E+03  1.4488157389312E+04  1.4488157389312E+04  1.4488157389312E+04  1.4488157389312E+04  1.4488157389313E+04  1.4488157389312E+04  1.4488157389313E+04  1.4488157389313E+04  7.2440786946559E+03 
 4.9259735123399E+04  9.8519470246798E+04  9.8519470246798E+04  9.8519470246798E+04  9.8519470246798E+04  9.8519470246798E+04  9.8519470246798E+04  9.8519470246798E+04  9.8519470246798E+04  4.9259735123399E+04 
 5.6503813818055E+04  1.1300762763611E+05  1.1300762763611E+05  1.1300762763611E+05  1.1300762763611E+05  1.1300762763611E+05  1.1300762763611E+05  1.1300762763611E+05  1.1300762763611E+05  5.6503813818055E+04 
 3.5000000000000E-01  3.5000000000000E-01  3.5000000000000E-01  3.5000000000000E-01  3.5000000000000E-01  3.5000000000000E-01  3.5000000000000E-01  3.5000000000000E-01  3.5000000000000E-01  3.5000000000000E-01 
 6.6040000000000E+00  1.3208000000000E+01  1.3208000000000E+01  1.3208000000000E+01  1.3208000000000E+01  1.3208000000000E+01  1.3208000000000E+01  1.3208000000000E+01  1.3208000000000E+01  6.6040000000000E+00 
-2.5544775127661E-01 -2.5545768430406E-01 -2.5548931747518E-01 -2.5554278022548E-01 -2.5561809713445E-01 -2.5571528485095E-01 -2.5583428478116E-01 -2.5597158201824E-01 -2.5601402195628E-01 -2.5328804200144E-01 
 3.3866666666667E-05  6.7733333333333E-05  6.7733333333334E-05  6.7733333333333E-05  6.7733333333334E-05  6.7733333333334E-05  6.7733333333333E-05  6.7733333333334E-05  6.7733333333333E-05  3.3866666666667E-05 
 2.6603001364267E+01  2.6603001364267E+01  2.6603001364267E+01  2.6603001364267E+01  2.6603001364267E+01  2.6603001364267E+01  2.6603001364267E+01  2.6603001364267E+01  2.6603001364267E+01  2.6603001364267E+01 
 1.7735334242827E+01  1.7735334242827E+01  1.7735334242827E+01  1.7735334242827E+01  1.7735334242827E+01  1.7735334242827E+01  1.7735334242827E+01  1.7735334242827E+01  1.7735334242827E+01  1.7735334242827E+01 
 4.3996880374546E-04  4.3999196849378E-04  4.4006544128177E-04  4.4018962619366E-04  4.4036457593088E-04  4.4059034242559E-04  4.4086690806852E-04  4.4119021002041E-04  4.4141036230423E-04  4.3669622153616E-04 
 2.2000868518471E+04  2.2002029703972E+04  2.2005704237714E+04  2.2011914786908E+04  2.2020664158702E+04  2.2031954748398E+04  2.2045782698842E+04  2.2061844487835E+04  2.2070321393483E+04  2.1837230562926E+04 
 8.8662026526780E-02  7.8848577823338E-02  6.0446835628094E-02  4.4495283274679E-02  3.0994097979358E-02  1.9944295112774E-02  1.1347730308587E-02  5.2071151209381E-03  1.5262301891575E-03  3.0127207371280E-04 
 5.4306055861064E-02  2.7154294955654E-01  9.2332510737358E-01  2.0098696995472E+00  3.5315425092489E+00  5.4888582275599E+00  7.8824802848489E+00  1.0713198336440E+01  1.3981097880557E+01  1.5724259193709E+01 
 2.2000725550389E+04  2.2001679312445E+04  2.2004720465771E+04  2.2009860421925E+04  2.2017101622095E+04  2.2026445945875E+04  2.2037888870827E+04  2.2051126082383E+04  2.2056338769372E+04  2.1821506002460E+04 
 1.0012769797715E+04  1.0013257081774E+04  1.0014813706225E+04  1.0017444698701E+04  1.0021151330384E+04  1.0025934723228E+04  1.0031793344143E+04  1.0038597109867E+04  1.0042132826931E+04  9.9427742986262E+03 
 1.1987955752674E+04  1.1988422230671E+04  1.1989906759546E+04  1.1992415723224E+04  1.1995950291711E+04  1.2000511222648E+04  1.2006095526684E+04  1.2012528972516E+04  1.2014205942441E+04  1.1878731703834E+04 
ZONE T = "CATH, 3.0000E-08", I = 10, SOLUTIONTIME = 3.000000E-08
ZONETYPE = ORDERED
DATAPACKING = BLOCK
STRANDID = 3
 1.2700000000000E-03  1.3377333333333E-03  1.4054666666667E-03  1.4732000000000E-03  1.5409333333333E-03  1.6086666666667E-03  1.6764000000000E-03  1.7441333333333E-03  1.8118666666667E-03  1.8796000000000E-03 
 1.9929496129452E-08  1.7586412992507E-08  1.5242313171163E-08  1.2898086005837E-08  1.0553167760588E-08  8.2073578621261E-09  5.8604574398235E-09  3.5130557935938E-09  1.1657673029067E-09  4.1768888694565E-12 
 9.2000000000096E-01  9.2000000000273E-01  9.2000000000273E-01  9.2000000000273E-01  9.2000000000273E-01  9.2000000000273E-01  9.2000000000273E-01  9.2000000000273E-01  9.2000000000273E-01  9.2000000000270E-01 
 3.9999999999518E-02  3.9999999998636E-02  3.9999999998636E-02  3.9999999998636E-02  3.9999999998635E-02  3.9999999998635E-02  3.9999999998634E-02  3.9999999998633E-02  3.9999999998633E-02  3.9999999998648E-02 
 3.9999999999518E-02  3.9999999998636E-02  3.9999999998636E-02  3.9999999998636E-02  3.9999999998635E-02  3.9999999998635E-02  3.9999999998634E-02  3.9999999998633E-02  3.9999999998633E-02  3.9999999998648E-02 
 2.9782506124924E-02  2.9782296781669E-02  2.9782112057561E-02  2.9781951955655E-02  2.9781816481103E-02  2.9781705641166E-02  2.9781619445213E-02  2.9781557904736E-02  2.9781521033135E-02  2.9781508831356E-02 
 3.8001767444812E+00  3.8001745636254E+00  3.8001680208874E+00  3.8001571157267E+00  3.8001418472304E+00  3.8001222141122E+00  3.8000982147123E+00  3.8000698470011E+00  3.8000371086935E+00  3.8000000000000E+00 
 2.9815000329819E+02  2.9815001258571E+02  2.9815001289999E+02  2.9815001297387E+02  2.9815001322620E+02  2.9815001263121E+02  2.9815000041482E+02  2.9814964328310E+02  2.9814101275138E+02  2.9800000000000E+02 
 3.7703942383563E+00  3.7703922668438E+00  3.7703859088298E+00  3.7703751637711E+00  3.7703600307493E+00  3.7703405084710E+00  3.7703165952671E+00  3.7702882890964E+00  3.7702555876603E+00  3.7702184911686E+00 
 3.9714142686661E+00  3.9714142611688E+00  3.9714142609151E+00  3.9714142608554E+00  3.9714142606518E+00  3.9714142611320E+00  3.9714142709929E+00  3.9714145592646E+00  3.9714215256744E+00  3.9715353395952E+00 
-2.0102003030978E-01 -2.0102199432499E-01 -2.0102835208528E-01 -2.0103909708440E-01 -2.0105422990245E-01 -2.0107375266102E-01 -2.0109767572580E-01 -2.0112627016823E-01 -2.0116593801410E-01 -2.0131684842653E-01 
-1.6873086596173E+00 -3.3747493886655E+00 -3.3751673990654E+00 -3.3758738325982E+00 -3.3768690427314E+00 -3.3781530943765E+00 -3.3797235355661E+00 -3.3814914340577E+00 -3.3813284810641E+00 -1.6730442393508E+00 
 1.4870901194298E-07  1.3122020404905E-07  1.1372963234842E-07  9.6235399825766E-08  7.8736009986644E-08  6.1229966019105E-08  4.3715783808582E-08  2.6192439842350E-08  8.6699337876700E-09  8.6699337876700E-09 
 3.0383709107003E+01  2.7009025753203E+01  2.3634067359290E+01  2.0258546743425E+01  1.6882175305854E+01  1.3504664237244E+01  1.0125725922155E+01  6.7451184373866E+00  3.3637084799731E+00  0.0000000000000E+00 
 0.0000000000000E+00  3.3746833539651E+00  6.7496417477768E+00  1.0125162363676E+01  1.3501533801377E+01  1.6879044869837E+01  2.0257983184905E+01  2.3638590669713E+01  2.7020000627154E+01  3.0383709107129E+01 
 5.0609289264812E-08  1.0122251437072E-07  1.0123504863966E-07  1.0125623285704E-07  1.0128607652726E-07  1.0132458531129E-07  1.0137172827418E-07  1.0142599314895E-07  1.0144328062507E-07  5.0181407441471E-08 
 7.2440786946731E+03  1.4488157389346E+04  1.4488157389346E+04  1.4488157389346E+04  1.4488157389346E+04  1.4488157389346E+04  1.4488157389346E+04  1.4488157389346E+04  1.4488157389346E+04  7.2440786946727E+03 
 4.9259735123382E+04  9.8519470246764E+04  9.8519470246765E+04  9.8519470246764E+04  9.8519470246764E+04  9.8519470246764E+04  9.8519470246764E+04  9.8519470246764E+04  9.8519470246764E+04  4.9259735123383E+04 
 5.6503813818055E+04  1.1300762763611E+05  1.1300762763611E+05  1.1300762763611E+05  1.1300762763611E+05  1.1300762763611E+05  1.1300762763611E+05  1.1300762763611E+05  1.1300762763611E+05  5.6503813818055E+04 
 3.5000000000000E-01  3.5000000000000E-01  3.5000000000000E-01  3.5000000000000E-01  3.5000000000000E-01  3.5000000000000E-01  3.5000000000000E-01  3.5000000000000E-01  3.5000000000000E-01  3.5000000000000E-01 
 6.6040000000000E+00  1.3208000000000E+01  1.3208000000000E+01  1.3208000000000E+01  1.3208000000000E+01  1.3208000000000E+01  1.3208000000000E+01  1.3208000000000E+01  1.3208000000000E+01  6.6040000000000E+00 
-2.5549797995417E-01 -2.5550797915396E-01 -2.5553962742772E-01 -2.5559311270429E-01 -2.5566846174526E-01 -2.5576567946521E-01 -2.5588458022154E-01 -2.5601843080388E-01 -2.5600609335737E-01 -2.5333801322695E-01 
 3.3866666666667E-05  6.7733333333333E-05  6.7733333333334E-05  6.7733333333333E-05  6.7733333333334E-05  6.7733333333334E-05  6.7733333333333E-05  6.7733333333334E-05  6.7733333333333E-05  3.3866666666667E-05 
 2.6603001364272E+01  2.6603001364272E+01  2.6603001364272E+01  2.6603001364272E+01  2.6603001364272E+01  2.6603001364272E+01  2.6603001364272E+01  2.6603001364272E+01  2.6603001364272E+01  2.6603001364272E+01 
 1.7735334242822E+01  1.7735334242822E+01  1.7735334242822E+01  1.7735334242822E+01  1.7735334242822E+01  1.7735334242822E+01  1.7735334242822E+01  1.7735334242822E+01  1.7735334242822E+01  1.7735334242822E+01 
 6.6002577674009E-04  6.6006061213128E-04  6.6017084765315E-04  6.6035716485376E-04  6.6061964640385E-04  6.6095835801300E-04  6.6137313325625E-04  6.6185408105540E-04  6.6211148063669E-04  6.5511663301024E-04 
 2.2005697299464E+04  2.2006864363750E+04  2.2010540637138E+04  2.2016753866010E+04  2.2025507047297E+04  2.2036801558741E+04  2.2050622518773E+04  2.2066387103499E+04  2.2070111833246E+04  2.1842041147408E+04 
 8.8691898112103E-02  7.8874881569541E-02  6.0466485711765E-02  4.4509243975482E-02  3.1003334015634E-02  1.9949771987466E-02  1.1350415427333E-02  5.2079964361253E-03  1.5264045123927E-03  3.0138950912248E-04 
 5.4327414366119E-02  2.7164982893971E-01  9.2368862377752E-01  2.0106611326664E+00  3.5329333659057E+00  5.4910202820921E+00  7.8855848766343E+00  1.0717394698635E+01  1.3986133381722E+01  1.5729556025779E+01 
 2.2005554280151E+04  2.2006513839040E+04  2.2009556482028E+04  2.2014698695633E+04  2.2021943110597E+04  2.2031290588687E+04  2.2042725583481E+04  2.2055664500804E+04  2.2056124173460E+04  2.1826311289993E+04 
 1.0015241276528E+04  1.0015731089433E+04  1.0017288487900E+04  1.0019920676831E+04  1.0023629008889E+04  1.0028414169548E+04  1.0034269895656E+04  1.0040946255987E+04  1.0042442651989E+04  9.9452360298644E+03 
 1.1990313003624E+04  1.1990782749607E+04  1.1992267994128E+04  1.1994778018802E+04  1.1998314101707E+04  1.2002876419139E+04  1.2008455687824E+04  1.2014718244817E+04  1.2013681521471E+04  1.1881075260129E+04 
ZONE T = "CATH, 4.0000E-08", I = 10, SOLUTIONTIME = 4.000000E-08
ZONETYPE = ORDERED
DATAPACKING = BLOCK
STRANDID = 3
 1.2700000000000E-03  1.3377333333333E-03  1.4054666666667E-03  1.4732000000000E-03  1.5409333333333E-03  1.6086666666667E-03  1.6764000000000E-03  1.7441333333333E-03  1.8118666666667E-03  1.8796000000000E-03 
 1.9931568925998E-08  1.7587663993009E-08  1.5243831844165E-08  1.2899145724422E-08  1.0553768277477E-08  8.2074989074649E-09  5.8605039265348E-09  3.5119582807733E-09  1.1643606898354E-09  2.5424540944189E-12 
 9.2000000000129E-01  9.2000000000364E-01  9.2000000000364E-01  9.2000000000364E-01  9.2000000000364E-01  9.2000000000364E-01  9.2000000000364E-01  9.2000000000364E-01  9.2000000000364E-01  9.2000000000361E-01 
 3.9999999999357E-02  3.9999999998181E-02  3.9999999998181E-02  3.9999999998181E-02  3.9999999998180E-02  3.9999999998179E-02  3.9999999998179E-02  3.9999999998178E-02  3.9999999998178E-02  3.9999999998197E-02 
 3.9999999999357E-02  3.9999999998181E-02  3.9999999998181E-02  3.9999999998181E-02  3.9999999998180E-02  3.9999999998179E-02  3.9999999998179E-02  3.9999999998178E-02  3.9999999998178E-02  3.9999999998197E-02 
 2.9792568838875E-02  2.9792359460487E-02  2.9792174706064E-02  2.9792014578661E-02  2.9791879083435E-02  2.9791768227649E-02  2.9791682020675E-02  2.9791620474011E-02  2.9791583600769E-02  2.9791571396654E-02 
 3.8001767779529E+00  3.8001745966709E+00  3.8001680526530E+00  3.8001571453587E+00  3.8001418738745E+00  3.8001222369136E+00  3.8000982328159E+00  3.8000698595547E+00  3.8000371149199E+00  3.8000000000000E+00 