TITLE = "Solution on Domain BulkDomain1D_1"
VARIABLES = "x [m]"  
"Vel_axial" 	"MF_sp(ECDMC)" 	"MF_sp(Li+)" 	"MF_sp(PF6-)" 	"Volt(Electroly)" 	"Temperature" 	"Porosity []" 	"Control volume thickness [m]" 	"volFrac MgO(S) []" 	"qHeat_accum [J/m3]" 	"qHeat_step [W/m3]" 	"Joule_Lyte [W/m3]" 	"Joule_Solid [W/m3]" 	
ZONE T = "SEP , 0.0000E+00", I = 10, SOLUTIONTIME = 0.000000E+00
ZONETYPE = ORDERED
DATAPACKING = BLOCK
STRANDID = 2
 7.8740000000000E-04  8.4102222222222E-04  8.9464444444444E-04  9.4826666666667E-04  1.0018888888889E-03  1.0555111111111E-03  1.1091333333333E-03  1.1627555555556E-03  1.2163777777778E-03  1.2700000000000E-03 
 0.0000000000000E+00  0.0000000000000E+00  0.0000000000000E+00  0.0000000000000E+00  0.0000000000000E+00  0.0000000000000E+00  0.0000000000000E+00  0.0000000000000E+00  0.0000000000000E+00  0.0000000000000E+00 
 9.2000000000000E-01  9.2000000000000E-01  9.2000000000000E-01  9.2000000000000E-01  9.2000000000000E-01  9.2000000000000E-01  9.2000000000000E-01  9.2000000000000E-01  9.2000000000000E-01  9.2000000000000E-01 
 4.0000000000000E-02  4.0000000000000E-02  4.0000000000000E-02  4.0000000000000E-02  4.0000000000000E-02  4.0000000000000E-02  4.0000000000000E-02  4.0000000000000E-02  4.0000000000000E-02  4.0000000000000E-02 
 4.0000000000000E-02  4.0000000000000E-02  4.0000000000000E-02  4.0000000000000E-02  4.0000000000000E-02  4.0000000000000E-02  4.0000000000000E-02  4.0000000000000E-02  4.0000000000000E-02  4.0000000000000E-02 
-7.0000000000000E-02 -7.0000000000000E-02 -7.0000000000000E-02 -7.0000000000000E-02 -7.0000000000000E-02 -7.0000000000000E-02 -7.0000000000000E-02 -7.0000000000000E-02 -7.0000000000000E-02 -7.0000000000000E-02 
 2.9815000000000E+02  2.9815000000000E+02  2.9815000000000E+02  2.9815000000000E+02  2.9815000000000E+02  2.9815000000000E+02  2.9815000000000E+02  2.9815000000000E+02  2.9815000000000E+02  2.9815000000000E+02 
 8.0911499769706E-01  8.0911499769706E-01  8.0911499769706E-01  8.0911499769706E-01  8.0911499769706E-01  8.0911499769706E-01  8.0911499769706E-01  8.0911499769706E-01  8.0911499769706E-01  8.0911499769706E-01 
 2.6811111111111E-05  5.3622222222222E-05  5.3622222222222E-05  5.3622222222222E-05  5.3622222222222E-05  5.3622222222222E-05  5.3622222222222E-05  5.3622222222223E-05  5.3622222222222E-05  2.6811111111111E-05 
 1.9088500230294E-01  1.9088500230294E-01  1.9088500230294E-01  1.9088500230294E-01  1.9088500230294E-01  1.9088500230294E-01  1.9088500230294E-01  1.9088500230294E-01  1.9088500230294E-01  1.9088500230294E-01 
 0.0000000000000E+00  0.0000000000000E+00  0.0000000000000E+00  0.0000000000000E+00  0.0000000000000E+00  0.0000000000000E+00  0.0000000000000E+00  0.0000000000000E+00  0.0000000000000E+00  0.0000000000000E+00 
 0.0000000000000E+00  0.0000000000000E+00  0.0000000000000E+00  0.0000000000000E+00  0.0000000000000E+00  0.0000000000000E+00  0.0000000000000E+00  0.0000000000000E+00  0.0000000000000E+00  0.0000000000000E+00 
 0.0000000000000E+00  0.0000000000000E+00  0.0000000000000E+00  0.0000000000000E+00  0.0000000000000E+00  0.0000000000000E+00  0.0000000000000E+00  0.0000000000000E+00  0.0000000000000E+00  0.0000000000000E+00 
 0.0000000000000E+00  0.0000000000000E+00  0.0000000000000E+00  0.0000000000000E+00  0.0000000000000E+00  0.0000000000000E+00  0.0000000000000E+00  0.0000000000000E+00  0.0000000000000E+00  0.0000000000000E+00 
ZONE T = "SEP , 1.0000E-08", I = 10, SOLUTIONTIME = 1.000000E-08
ZONETYPE = ORDERED
DATAPACKING = BLOCK
STRANDID = 2
 7.8740000000000E-04  8.4102222222222E-04  8.9464444444444E-04  9.4826666666667E-04  1.0018888888889E-03  1.0555111111111E-03  1.1091333333333E-03  1.1627555555556E-03  1.2163777777778E-03  1.2700000000000E-03 
 2.1092969995014E-08  2.1092969995014E-08  2.1092969995014E-08  2.1092969995014E-08  2.1092969995014E-08  2.1092969995014E-08  2.1092969995014E-08  2.1092969995014E-08  2.1092969995014E-08  1.9921760718977E-08 
 9.1999999999973E-01  9.2000000000000E-01  9.2000000000000E-01  9.2000000000000E-01  9.2000000000000E-01  9.2000000000000E-01  9.2000000000000E-01  9.2000000000000E-01  9.2000000000000E-01  9.2000000000032E-01 
 4.0000000000137E-02  4.0000000000000E-02  4.0000000000000E-02  4.0000000000000E-02  4.0000000000000E-02  4.0000000000000E-02  4.0000000000000E-02  4.0000000000000E-02  4.0000000000000E-02  3.9999999999839E-02 
 4.0000000000137E-02  4.0000000000000E-02  4.0000000000000E-02  4.0000000000000E-02  4.0000000000000E-02  4.0000000000000E-02  4.0000000000000E-02  4.0000000000000E-02  4.0000000000000E-02  3.9999999999839E-02 
 2.9762645918420E-02  2.9762596012603E-02  2.9762546106787E-02  2.9762496200970E-02  2.9762446295154E-02  2.9762396389323E-02  2.9762346483506E-02  2.9762296577690E-02  2.9762246671874E-02  2.9762196766057E-02 
 2.9814999957053E+02  2.9814999999246E+02  2.9814999999217E+02  2.9814999999687E+02  2.9814999999284E+02  2.9814999999146E+02  2.9814999999159E+02  2.9814999999389E+02  2.9815000001471E+02  2.9815000104915E+02 
 8.0911499769706E-01  8.0911499769706E-01  8.0911499769706E-01  8.0911499769706E-01  8.0911499769706E-01  8.0911499769706E-01  8.0911499769706E-01  8.0911499769706E-01  8.0911499769706E-01  8.0911499769706E-01 
 2.6811111111111E-05  5.3622222222222E-05  5.3622222222222E-05  5.3622222222222E-05  5.3622222222222E-05  5.3622222222222E-05  5.3622222222222E-05  5.3622222222223E-05  5.3622222222222E-05  2.6811111111111E-05 
 1.9088500230294E-01  1.9088500230294E-01  1.9088500230294E-01  1.9088500230294E-01  1.9088500230294E-01  1.9088500230294E-01  1.9088500230294E-01  1.9088500230294E-01  1.9088500230294E-01  1.9088500230294E-01 
 2.8268120872980E-10  2.8268120550495E-10  2.8268120273106E-10  2.8268120379106E-10  2.8268128678245E-10  2.8268128906366E-10  2.8268120607311E-10  2.8268120288343E-10  2.8268120585047E-10  2.8268120911776E-10 
 2.8268120872980E-02  2.8268120550495E-02  2.8268120273106E-02  2.8268120379106E-02  2.8268128678245E-02  2.8268128906366E-02  2.8268120607311E-02  2.8268120288343E-02  2.8268120585047E-02  2.8268120911776E-02 
 2.8268120872980E-02  2.8268120550495E-02  2.8268120273106E-02  2.8268120379106E-02  2.8268128678245E-02  2.8268128906366E-02  2.8268120607311E-02  2.8268120288343E-02  2.8268120585047E-02  2.8268120911776E-02 
 0.0000000000000E+00  0.0000000000000E+00  0.0000000000000E+00  0.0000000000000E+00  0.0000000000000E+00  0.0000000000000E+00  0.0000000000000E+00  0.0000000000000E+00  0.0000000000000E+00  0.0000000000000E+00 
ZONE T = "SEP , 2.0000E-08", I = 10, SOLUTIONTIME = 2.000000E-08
ZONETYPE = ORDERED
DATAPACKING = BLOCK
STRANDID = 2
 7.8740000000000E-04  8.4102222222222E-04  8.9464444444444E-04  9.4826666666667E-04  1.0018888888889E-03  1.0555111111111E-03  1.1091333333333E-03  1.1627555555556E-03  1.2163777777778E-03  1.2700000000000E-03 
 2.1086509359814E-08  2.1085056528903E-08  2.1085056528903E-08  2.1085056528903E-08  2.1085056528903E-08  2.1085056528902E-08  2.1085056528902E-08  2.1085056528902E-08  2.1085056528902E-08  1.9914517572347E-08 
 9.1999999999945E-01  9.2000000000000E-01  9.2000000000000E-01  9.2000000000000E-01  9.2000000000000E-01  9.2000000000000E-01  9.2000000000000E-01  9.2000000000000E-01  9.2000000000000E-01  9.2000000000064E-01 
 4.0000000000273E-02  4.0000000000000E-02  4.0000000000000E-02  4.0000000000000E-02  4.0000000000000E-02  4.0000000000000E-02  4.0000000000000E-02  4.0000000000000E-02  4.0000000000000E-02  3.9999999999679E-02 
 4.0000000000273E-02  4.0000000000000E-02  4.0000000000000E-02  4.0000000000000E-02  4.0000000000000E-02  4.0000000000000E-02  4.0000000000000E-02  4.0000000000000E-02  4.0000000000000E-02  3.9999999999679E-02 
 2.9772831503296E-02  2.9772781588701E-02  2.9772731674106E-02  2.9772681759511E-02  2.9772631844916E-02  2.9772581930321E-02  2.9772532015726E-02  2.9772482101131E-02  2.9772432186536E-02  2.9772382271941E-02 
 2.9814999911143E+02  2.9814999997324E+02  2.9814999999192E+02  2.9814999999666E+02  2.9814999999819E+02  2.9814999998603E+02  2.9814999999705E+02  2.9815000000541E+02  2.9815000003498E+02  2.9815000216754E+02 
 8.0911499769706E-01  8.0911499769706E-01  8.0911499769706E-01  8.0911499769706E-01  8.0911499769706E-01  8.0911499769706E-01  8.0911499769706E-01  8.0911499769706E-01  8.0911499769706E-01  8.0911499769706E-01 
 2.6811111111111E-05  5.3622222222222E-05  5.3622222222222E-05  5.3622222222222E-05  5.3622222222222E-05  5.3622222222222E-05  5.3622222222222E-05  5.3622222222223E-05  5.3622222222222E-05  2.6811111111111E-05 
 1.9088500230294E-01  1.9088500230294E-01  1.9088500230294E-01  1.9088500230294E-01  1.9088500230294E-01  1.9088500230294E-01  1.9088500230294E-01  1.9088500230294E-01  1.9088500230294E-01  1.9088500230294E-01 
 5.6546187021954E-10  5.6546186717854E-10  5.6546186462226E-10  5.6546186569488E-10  5.6546194870695E-10  5.6546195099095E-10  5.6546186797642E-10  5.6546186479281E-10  5.6546186827936E-10  5.6546187207515E-10 
 2.8278066148974E-02  2.8278066167359E-02  2.8278066189120E-02  2.8278066190381E-02  2.8278066192450E-02  2.8278066192729E-02  2.8278066190331E-02  2.8278066190938E-02  2.8278066242889E-02  2.8278066295739E-02 
 2.8278066148974E-02  2.8278066167359E-02  2.8278066189120E-02  2.8278066190381E-02  2.8278066192450E-02  2.8278066192729E-02  2.8278066190331E-02  2.8278066190938E-02  2.8278066242889E-02  2.8278066295739E-02 
 0.0000000000000E+00  0.0000000000000E+00  0.0000000000000E+00  0.0000000000000E+00  0.0000000000000E+00  0.0000000000000E+00  0.0000000000000E+00  0.0000000000000E+00  0.0000000000000E+00  0.0000000000000E+00 
ZONE T = "SEP , 3.0000E-08", I = 10, SOLUTIONTIME = 3.000000E-08
ZONETYPE = ORDERED
DATAPACKING = BLOCK
STRANDID = 2
 7.8740000000000E-04  8.4102222222222E-04  8.9464444444444E-04  9.4826666666667E-04  1.0018888888889E-03  1.0555111111111E-03  1.1091333333333E-03  1.1627555555556E-03  1.2163777777778E-03  1.2700000000000E-03 
 2.1099720615972E-08  2.1101173446883E-08  2.1101173446883E-08  2.1101173446883E-08  2.1101173446883E-08  2.1101173446883E-08  2.1101173446883E-08  2.1101173446883E-08  2.1101173446883E-08  1.9929496129452E-08 
 9.1999999999918E-01  9.2000000000000E-01  9.2000000000000E-01  9.2000000000000E-01  9.2000000000000E-01  9.2000000000000E-01  9.2000000000000E-01  9.2000000000000E-01  9.2000000000000E-01  9.2000000000096E-01 
 4.0000000000410E-02  4.0000000000000E-02  4.0000000000000E-02  4.0000000000000E-02  4.0000000000000E-02  4.0000000000000E-02  4.0000000000000E-02  4.0000000000000E-02  4.0000000000000E-02  3.9999999999518E-02 
 4.0000000000410E-02  4.0000000000000E-02  4.0000000000000E-02  4.0000000000000E-02  4.0000000000000E-02  4.0000000000000E-02  4.0000000000000E-02  4.0000000000000E-02  4.0000000000000E-02  3.9999999999518E-02 
 2.9782955432650E-02  2.9782905509570E-02  2.9782855586489E-02  2.9782805663408E-02  2.9782755740328E-02  2.9782705817247E-02  2.9782655894167E-02  2.9782605971086E-02  2.9782556048005E-02  2.9782506124924E-02 
 2.9814999876141E+02  2.9814999998092E+02  2.9814999999133E+02  2.9814999998557E+02  2.9815000000284E+02  2.9814999998107E+02  2.9814999999678E+02  2.9815000000653E+02  2.9815000006116E+02  2.9815000329819E+02 
 8.0911499769706E-01  8.0911499769706E-01  8.0911499769706E-01  8.0911499769706E-01  8.0911499769706E-01  8.0911499769706E-01  8.0911499769706E-01  8.0911499769706E-01  8.0911499769706E-01  8.0911499769706E-01 
 2.6811111111111E-05  5.3622222222222E-05  5.3622222222222E-05  5.3622222222222E-05  5.3622222222222E-05  5.3622222222222E-05  5.3622222222222E-05  5.3622222222223E-05  5.3622222222222E-05  2.6811111111111E-05 
 1.9088500230294E-01  1.9088500230294E-01  1.9088500230294E-01  1.9088500230294E-01  1.9088500230294E-01  1.9088500230294E-01  1.9088500230294E-01  1.9088500230294E-01  1.9088500230294E-01  1.9088500230294E-01 
 8.4833868761551E-10  8.4833868489148E-10  8.4833868263140E-10  8.4833868370019E-10  8.4833876673027E-10  8.4833876901677E-10  8.4833868599764E-10  8.4833868283203E-10  8.4833868711406E-10  8.4833869168129E-10 
 2.8287681739597E-02  2.8287681771294E-02  2.8287681800914E-02  2.8287681800531E-02  2.8287681802331E-02  2.8287681802581E-02  2.8287681802121E-02  2.8287681803922E-02  2.8287681883470E-02  2.8287681960613E-02 
 2.8287681739597E-02  2.8287681771294E-02  2.8287681800914E-02  2.8287681800531E-02  2.8287681802331E-02  2.8287681802581E-02  2.8287681802121E-02  2.8287681803922E-02  2.8287681883470E-02  2.8287681960613E-02 
 0.0000000000000E+00  0.0000000000000E+00  0.0000000000000E+00  0.0000000000000E+00  0.0000000000000E+00  0.0000000000000E+00  0.0000000000000E+00  0.0000000000000E+00  0.0000000000000E+00  0.0000000000000E+00 
ZONE T = "SEP , 4.0000E-08", I = 10, SOLUTIONTIME = 4.000000E-08
ZONETYPE = ORDERED
DATAPACKING = BLOCK
STRANDID = 2
 7.8740000000000E-04  8.4102222222222E-04  8.9464444444444E-04  9.4826666666667E-04  1.0018888888889E-03  1.0555111111111E-03  1.1091333333333E-03  1.1627555555556E-03  1.2163777777778E-03  1.2700000000000E-03 
 2.1103838447051E-08  2.1103838447051E-08  2.1103838447051E-08  2.1103838447051E-08  2.1103838447051E-08  2.1103838447051E-08  2.1103838447051E-08  2.1103838447051E-08  2.1103838447051E-08  1.9931568925998E-08 
 9.1999999999891E-01  9.2000000000000E-01  9.2000000000000E-01  9.2000000000000E-01  9.2000000000000E-01  9.2000000000000E-01  9.2000000000000E-01  9.2000000000000E-01  9.2000000000000E-01  9.2000000000129E-01 
 4.0000000000546E-02  4.0000000000000E-02  4.0000000000000E-02  4.0000000000000E-02  4.0000000000000E-02  4.0000000000000E-02  4.0000000000000E-02  4.0000000000000E-02  4.0000000000000E-02  3.9999999999357E-02 
 4.0000000000546E-02  4.0000000000000E-02  4.0000000000000E-02  4.0000000000000E-02  4.0000000000000E-02  4.0000000000000E-02  4.0000000000000E-02  4.0000000000000E-02  4.0000000000000E-02  3.9999999999357E-02 
 2.9793018222691E-02  2.9792968291156E-02  2.9792918359621E-02  2.9792868428086E-02  2.9792818496551E-02  2.9792768565016E-02  2.9792718633481E-02  2.9792668701945E-02  2.9792618770410E-02  2.9792568838875E-02 
 2.9814999833027E+02  2.9814999997188E+02  2.9814999999576E+02  2.9814999999130E+02  2.9815000000661E+02  2.9814999997662E+02  2.9814999998560E+02  2.9815000001420E+02  2.9815000009509E+02  2.9815000442827E+02 
 8.0911499769706E-01  8.0911499769706E-01  8.0911499769706E-01  8.0911499769706E-01  8.0911499769706E-01  8.0911499769706E-01  8.0911499769706E-01  8.0911499769706E-01  8.0911499769706E-01  8.0911499769706E-01 
 2.6811111111111E-05  5.3622222222222E-05  5.3622222222222E-05  5.3622222222222E-05  5.3622222222222E-05  5.3622222222222E-05  5.3622222222222E-05  5.3622222222223E-05  5.3622222222222E-05  2.6811111111111E-05 
 1.9088500230294E-01  1.9088500230294E-01  1.9088500230294E-01  1.9088500230294E-01  1.9088500230294E-01  1.9088500230294E-01  1.9088500230294E-01  1.9088500230294E-01  1.9088500230294E-01  1.9088500230294E-01 
 1.1313113224088E-09  1.1313113200948E-09  1.1313113182401E-09  1.1313113193017E-09  1.1313114023327E-09  1.1313114046080E-09  1.1313113215849E-09  1.1313113184631E-09  1.1313113238335E-09  1.1313113294561E-09 
 2.8297263479329E-02  2.8297263520329E-02  2.8297263560868E-02  2.8297263560150E-02  2.8297263560241E-02  2.8297263559121E-02  2.8297263558728E-02  2.8297263563104E-02  2.8297263671941E-02  2.8297263777477E-02 
 2.8297263479329E-02  2.8297263520329E-02  2.8297263560868E-02  2.8297263560150E-02  2.8297263560241E-02  2.8297263559121E-02  2.8297263558728E-02  2.8297263563104E-02  2.8297263671941E-02  2.8297263777477E-02 
 0.0000000000000E+00  0.0000000000000E+00  0.0000000000000E+00  0.0000000000000E+00  0.0000000000000E+00  0.0000000000000E+00  0.0000000000000E+00  0.0000000000000E+00  0.0000000000000E+00  0.0000000000000E+00 
ZONE T = "SEP , 5.5000E-08", I = 10, SOLUTIONTIME = 5.500000E-08
ZONETYPE = ORDERED
DATAPACKING = BLOCK
STRANDID = 2
 7.8740000000000E-04  8.4102222222222E-04  8.9464444444444E-04  9.4826666666667E-04  1.0018888888889E-03  1.0555111111111E-03  1.1091333333333E-03  1.1627555555556E-03  1.2163777777778E-03  1.2700000000000E-03 
 2.1105705032533E-08  2.1105705032533E-08  2.1105705032533E-08  2.1105705032533E-08  2.1105705032533E-08  2.1105705032533E-08  2.1105705032533E-08  2.1105705032533E-08  2.1105705032533E-08  1.9933095671025E-08 
 9.1999999999850E-01  9.2000000000000E-01  9.2000000000000E-01  9.2000000000000E-01  9.2000000000000E-01  9.2000000000000E-01  9.2000000000000E-01  9.2000000000000E-01  9.2000000000000E-01  9.2000000000177E-01 
 4.0000000000750E-02  4.0000000000000E-02  4.0000000000000E-02  4.0000000000000E-02  4.0000000000000E-02  4.0000000000000E-02  4.0000000000000E-02  4.0000000000000E-02  4.0000000000000E-02  3.9999999999116E-02 
 4.0000000000750E-02  4.0000000000000E-02  4.0000000000000E-02  4.0000000000000E-02  4.0000000000000E-02  4.0000000000000E-02  4.0000000000000E-02  4.0000000000000E-02  4.0000000000000E-02  3.9999999999116E-02 
 2.9807947964064E-02  2.9807898019948E-02  2.9807848075832E-02  2.9807798131716E-02  2.9807748187600E-02  2.9807698243483E-02  2.9807648299367E-02  2.9807598355251E-02  2.9807548411135E-02  2.9807498467018E-02 
 2.9814999767670E+02  2.9814999995076E+02  2.9814999999019E+02  2.9814999999451E+02  2.9815000001643E+02  2.9814999997666E+02  2.9814999998598E+02  2.9815000002322E+02  2.9815000017741E+02  2.9815000617322E+02 
 8.0911499769706E-01  8.0911499769706E-01  8.0911499769706E-01  8.0911499769706E-01  8.0911499769706E-01  8.0911499769706E-01  8.0911499769706E-01  8.0911499769706E-01  8.0911499769706E-01  8.0911499769706E-01 
 2.6811111111111E-05  5.3622222222222E-05  5.3622222222222E-05  5.3622222222222E-05  5.3622222222222E-05  5.3622222222222E-05  5.3622222222222E-05  5.3622222222223E-05  5.3622222222222E-05  2.6811111111111E-05 
 1.9088500230294E-01  1.9088500230294E-01  1.9088500230294E-01  1.9088500230294E-01  1.9088500230294E-01  1.9088500230294E-01  1.9088500230294E-01  1.9088500230294E-01  1.9088500230294E-01  1.9088500230294E-01 
 1.5559842003279E-09  1.5559841988696E-09  1.5559841978846E-09  1.5559841989507E-09  1.5559842819787E-09  1.5559842842418E-09  1.5559842012425E-09  1.5559841982128E-09  1.5559842058069E-09  1.5559842136033E-09 
 2.8311525194606E-02  2.8311525251655E-02  2.8311525309632E-02  2.8311525309937E-02  2.8311525309738E-02  2.8311525308918E-02  2.8311525310502E-02  2.8311525316652E-02  2.8311525464894E-02  2.8311525609813E-02 
 2.8311525194606E-02  2.8311525251655E-02  2.8311525309632E-02  2.8311525309937E-02  2.8311525309738E-02  2.8311525308918E-02  2.8311525310502E-02  2.8311525316652E-02  2.8311525464894E-02  2.8311525609813E-02 
 0.0000000000000E+00  0.0000000000000E+00  0.0000000000000E+00  0.0000000000000E+00  0.0000000000000E+00  0.0000000000000E+00  0.0000000000000E+00  0.0000000000000E+00  0.0000000000000E+00  0.0000000000000E+00 
ZONE T = "SEP , 7.7500E-08", I = 10, SOLUTIONTIME = 7.750000E-08
ZONETYPE = ORDERED
DATAPACKING = BLOCK
STRANDID = 2
 7.8740000000000E-04  8.4102222222222E-04  8.9464444444444E-04  9.4826666666667E-04  1.0018888888889E-03  1.0555111111111E-03  1.1091333333333E-03  1.1627555555556E-03  1.2163777777778E-03  1.2700000000000E-03 
 2.1116364893207E-08  2.1116364893207E-08  2.1116364893207E-08  2.1116364893207E-08  2.1116364893207E-08  2.1116364893207E-08  2.1116364893207E-08  2.1116364893207E-08  2.1116364893207E-08  1.9943859354219E-08 
 9.1999999999789E-01  9.2000000000000E-01  9.2000000000000E-01  9.2000000000000E-01  9.2000000000000E-01  9.2000000000000E-01  9.2000000000000E-01  9.2000000000000E-01  9.2000000000000E-01  9.2000000000249E-01 
 4.0000000001055E-02  4.0000000000000E-02  4.0000000000000E-02  4.0000000000000E-02  4.0000000000000E-02  4.0000000000000E-02  4.0000000000000E-02  4.0000000000000E-02  4.0000000000000E-02  3.9999999998755E-02 
 4.0000000001055E-02  4.0000000000000E-02  4.0000000000000E-02  4.0000000000000E-02  4.0000000000000E-02  4.0000000000000E-02  4.0000000000000E-02  4.0000000000000E-02  4.0000000000000E-02  3.9999999998755E-02 
 2.9829972244270E-02  2.9829922281519E-02  2.9829872318769E-02  2.9829822356019E-02  2.9829772393268E-02  2.9829722430518E-02  2.9829672467767E-02  2.9829622505017E-02  2.9829572542267E-02  2.9829522579515E-02 
 2.9814999673077E+02  2.9814999989449E+02  2.9814999997877E+02  2.9814999999396E+02  2.9815000001748E+02  2.9814999997859E+02  2.9814999999315E+02  2.9815000002581E+02  2.9815000034806E+02  2.9815000888466E+02 
 8.0911499769706E-01  8.0911499769706E-01  8.0911499769706E-01  8.0911499769706E-01  8.0911499769706E-01  8.0911499769706E-01  8.0911499769706E-01  8.0911499769706E-01  8.0911499769706E-01  8.0911499769706E-01 
 2.6811111111111E-05  5.3622222222222E-05  5.3622222222222E-05  5.3622222222222E-05  5.3622222222222E-05  5.3622222222222E-05  5.3622222222222E-05  5.3622222222223E-05  5.3622222222222E-05  2.6811111111111E-05 
 1.9088500230294E-01  1.9088500230294E-01  1.9088500230294E-01  1.9088500230294E-01  1.9088500230294E-01  1.9088500230294E-01  1.9088500230294E-01  1.9088500230294E-01  1.9088500230294E-01  1.9088500230294E-01 
 2.1934689443723E-09  2.1934689446707E-09  2.1934689454778E-09  2.1934689466029E-09  2.1934690296185E-09  2.1934690318584E-09  2.1934689488912E-09  2.1934689460893E-09  2.1934689585806E-09  2.1934689710656E-09 
 2.8332655290862E-02  2.8332655368940E-02  2.8332655448589E-02  2.8332655451209E-02  2.8332655450654E-02  2.8332655449630E-02  2.8332655451054E-02  2.8332655461174E-02  2.8332655678834E-02  2.8332655887218E-02 
 2.8332655290862E-02  2.8332655368940E-02  2.8332655448589E-02  2.8332655451209E-02  2.8332655450654E-02  2.8332655449630E-02  2.8332655451054E-02  2.8332655461174E-02  2.8332655678834E-02  2.8332655887218E-02 
 0.0000000000000E+00  0.0000000000000E+00  0.0000000000000E+00  0.0000000000000E+00  0.0000000000000E+00  0.0000000000000E+00  0.0000000000000E+00  0.0000000000000E+00  0.0000000000000E+00  0.0000000000000E+00 
ZONE T = "SEP , 1.1125E-07", I = 10, SOLUTIONTIME = 1.112500E-07
ZONETYPE = ORDERED
DATAPACKING = BLOCK
STRANDID = 2
 7.8740000000000E-04  8.4102222222222E-04  8.9464444444444E-04  9.4826666666667E-04  1.0018888888889E-03  1.0555111111111E-03  1.1091333333333E-03  1.1627555555556E-03  1.2163777777778E-03  1.2700000000000E-03 
 2.1127726832176E-08  2.1127296363758E-08  2.1127296363758E-08  2.1127296363758E-08  2.1127296363758E-08  2.1127296363758E-08  2.1127296363758E-08  2.1127296363758E-08  2.1127296363758E-08  1.9953814789982E-08 
 9.1999999999698E-01  9.2000000000000E-01  9.2000000000000E-01  9.2000000000000E-01  9.2000000000000E-01  9.2000000000000E-01  9.2000000000000E-01  9.2000000000000E-01  9.2000000000000E-01  9.2000000000358E-01 
 4.0000000001512E-02  4.0000000000000E-02  4.0000000000000E-02  4.0000000000000E-02  4.0000000000000E-02  4.0000000000000E-02  4.0000000000000E-02  4.0000000000000E-02  4.0000000000000E-02  3.9999999998212E-02 
 4.0000000001512E-02  4.0000000000000E-02  4.0000000000000E-02  4.0000000000000E-02  4.0000000000000E-02  4.0000000000000E-02  4.0000000000000E-02  4.0000000000000E-02  4.0000000000000E-02  3.9999999998212E-02 
 2.9862183145514E-02  2.9862133155371E-02  2.9862083165227E-02  2.9862033175083E-02  2.9861983184939E-02  2.9861933194795E-02  2.9861883204651E-02  2.9861833214507E-02  2.9861783224363E-02  2.9861733234217E-02 
 2.9814999525663E+02  2.9814999976440E+02  2.9814999997745E+02  2.9814999998807E+02  2.9815000001490E+02  2.9814999997438E+02  2.9814999999939E+02  2.9815000004448E+02  2.9815000070932E+02  2.9815001309049E+02 
 8.0911499769706E-01  8.0911499769706E-01  8.0911499769706E-01  8.0911499769706E-01  8.0911499769706E-01  8.0911499769706E-01  8.0911499769706E-01  8.0911499769706E-01  8.0911499769706E-01  8.0911499769706E-01 
 2.6811111111111E-05  5.3622222222222E-05  5.3622222222222E-05  5.3622222222222E-05  5.3622222222222E-05  5.3622222222222E-05  5.3622222222222E-05  5.3622222222223E-05  5.3622222222222E-05  2.6811111111111E-05 
 1.9088500230294E-01  1.9088500230294E-01  1.9088500230294E-01  1.9088500230294E-01  1.9088500230294E-01  1.9088500230294E-01  1.9088500230294E-01  1.9088500230294E-01  1.9088500230294E-01  1.9088500230294E-01 
 3.1507449078359E-09  3.1507449119763E-09  3.1507449167116E-09  3.1507449180258E-09  3.1507450011551E-09  3.1507450033520E-09  3.1507449203410E-09  3.1507449181753E-09  3.1507449418044E-09  3.1507449648012E-09 
 2.8363732250775E-02  2.8363732364611E-02  2.8363732481001E-02  2.8363732486602E-02  2.8363732489973E-02  2.8363732488700E-02  2.8363732487401E-02  2.8363732506251E-02  2.8363732836260E-02  2.8363733147720E-02 
 2.8363732250775E-02  2.8363732364611E-02  2.8363732481001E-02  2.8363732486602E-02  2.8363732489973E-02  2.8363732488700E-02  2.8363732487401E-02  2.8363732506251E-02  2.8363732836260E-02  2.8363733147720E-02 
 0.0000000000000E+00  0.0000000000000E+00  0.0000000000000E+00  0.0000000000000E+00  0.0000000000000E+00  0.0000000000000E+00  0.0000000000000E+00  0.0000000000000E+00  0.0000000000000E+00  0.0000000000000E+00 
ZONE T = "SEP , 1.6188E-07", I = 10, SOLUTIONTIME = 1.618750E-07
ZONETYPE = ORDERED
DATAPACKING = BLOCK
STRANDID = 2
 7.8740000000000E-04  8.4102222222222E-04  8.9464444444444E-04  9.4826666666667E-04  1.0018888888889E-03  1.0555111111111E-03  1.1091333333333E-03  1.1627555555556E-03  1.2163777777778E-03  1.2700000000000E-03 
 2.1143399998726E-08  2.1143686977672E-08  2.1143686977672E-08  2.1143686977672E-08  2.1143686977672E-08  2.1143686977672E-08  2.1143686977672E-08  2.1143686977672E-08  2.1143686977672E-08  1.9969144846998E-08 
 9.1999999999561E-01  9.2000000000000E-01  9.2000000000000E-01  9.2000000000000E-01  9.2000000000000E-01  9.2000000000000E-01  9.2000000000000E-01  9.2000000000000E-01  9.2000000000000E-01  9.2000000000521E-01 
 4.0000000002195E-02  4.0000000000001E-02  4.0000000000000E-02  4.0000000000000E-02  4.0000000000000E-02  4.0000000000000E-02  4.0000000000000E-02  4.0000000000000E-02  3.9999999999999E-02  3.9999999997397E-02 
 4.0000000002195E-02  4.0000000000001E-02  4.0000000000000E-02  4.0000000000000E-02  4.0000000000000E-02  4.0000000000000E-02  4.0000000000000E-02  4.0000000000000E-02  3.9999999999999E-02  3.9999999997397E-02 
 2.9908693736367E-02  2.9908643706422E-02  2.9908593676476E-02  2.9908543646530E-02  2.9908493616585E-02  2.9908443586639E-02  2.9908393556693E-02  2.9908343526748E-02  2.9908293496802E-02  2.9908243466854E-02 
 2.9814999301680E+02  2.9814999949467E+02  2.9814999995940E+02  2.9814999999398E+02  2.9815000001699E+02  2.9814999997441E+02  2.9815000000775E+02  2.9815000009292E+02  2.9815000145105E+02  2.9815001963491E+02 
 8.0911499769706E-01  8.0911499769706E-01  8.0911499769706E-01  8.0911499769706E-01  8.0911499769706E-01  8.0911499769706E-01  8.0911499769706E-01  8.0911499769706E-01  8.0911499769706E-01  8.0911499769706E-01 
 2.6811111111111E-05  5.3622222222222E-05  5.3622222222222E-05  5.3622222222222E-05  5.3622222222222E-05  5.3622222222222E-05  5.3622222222222E-05  5.3622222222223E-05  5.3622222222222E-05  2.6811111111111E-05 
 1.9088500230294E-01  1.9088500230294E-01  1.9088500230294E-01  1.9088500230294E-01  1.9088500230294E-01  1.9088500230294E-01  1.9088500230294E-01  1.9088500230294E-01  1.9088500230294E-01  1.9088500230294E-01 
 4.5889462775787E-09  4.5889462900826E-09  4.5889463037761E-09  4.5889463058150E-09  4.5889463889982E-09  4.5889463910304E-09  4.5889463081868E-09  4.5889463079275E-09  4.5889463568920E-09  4.5889464035736E-09 
 2.8408915945537E-02  2.8408916110742E-02  2.8408916287694E-02  2.8408916302009E-02  2.8408916303073E-02  2.8408916299819E-02  2.8408916303127E-02  2.8408916340786E-02  2.8408916841236E-02  2.8408917309085E-02 
 2.8408915945537E-02  2.8408916110742E-02  2.8408916287694E-02  2.8408916302009E-02  2.8408916303073E-02  2.8408916299819E-02  2.8408916303127E-02  2.8408916340786E-02  2.8408916841236E-02  2.8408917309085E-02 
 0.0000000000000E+00  0.0000000000000E+00  0.0000000000000E+00  0.0000000000000E+00  0.0000000000000E+00  0.0000000000000E+00  0.0000000000000E+00  0.0000000000000E+00  0.0000000000000E+00  0.0000000000000E+00 
ZONE T = "SEP , 2.3781E-07", I = 10, SOLUTIONTIME = 2.378125E-07
ZONETYPE = ORDERED
DATAPACKING = BLOCK
STRANDID = 2
 7.8740000000000E-04  8.4102222222222E-04  8.9464444444444E-04  9.4826666666667E-04  1.0018888888889E-03  1.0555111111111E-03  1.1091333333333E-03  1.1627555555556E-03  1.2163777777778E-03  1.2700000000000E-03 
 2.1167907254121E-08  2.1167907254121E-08  2.1167907254121E-08  2.1167907254121E-08  2.1167907254121E-08  2.1167907254121E-08  2.1167907254121E-08  2.1167907254121E-08  2.1167811594473E-08  1.9991763975619E-08 
 9.1999999999358E-01  9.2000000000000E-01  9.2000000000000E-01  9.2000000000000E-01  9.2000000000000E-01  9.2000000000000E-01  9.2000000000000E-01  9.2000000000000E-01  9.2000000000000E-01  9.2000000000765E-01 
 4.0000000003212E-02  4.0000000000001E-02  4.0000000000000E-02  4.0000000000000E-02  4.0000000000000E-02  4.0000000000000E-02  4.0000000000000E-02  4.0000000000000E-02  3.9999999999998E-02  3.9999999996173E-02 
 4.0000000003212E-02  4.0000000000001E-02  4.0000000000000E-02  4.0000000000000E-02  4.0000000000000E-02  4.0000000000000E-02  4.0000000000000E-02  4.0000000000000E-02  3.9999999999998E-02  3.9999999996173E-02 
 2.9974640805807E-02  2.9974590719033E-02  2.9974540632259E-02  2.9974490545485E-02  2.9974440458711E-02  2.9974390371937E-02  2.9974340285163E-02  2.9974290198389E-02  2.9974240111614E-02  2.9974190024837E-02 
 2.9814998961798E+02  2.9814999892126E+02  2.9814999989803E+02  2.9814999999251E+02  2.9815000001241E+02  2.9814999997949E+02  2.9815000002506E+02  2.9815000026643E+02  2.9815000307048E+02  2.9815002983347E+02 
 8.0911499769706E-01  8.0911499769706E-01  8.0911499769706E-01  8.0911499769706E-01  8.0911499769706E-01  8.0911499769706E-01  8.0911499769706E-01  8.0911499769706E-01  8.0911499769706E-01  8.0911499769706E-01 
 2.6811111111111E-05  5.3622222222222E-05  5.3622222222222E-05  5.3622222222222E-05  5.3622222222222E-05  5.3622222222222E-05  5.3622222222222E-05  5.3622222222223E-05  5.3622222222222E-05  2.6811111111111E-05 