TITLE = "Solution on Domain BulkDomain1D_1"
VARIABLES = "x [m]"  
"Vel_axial" 	"MF_sp(ECDMC)" 	"MF_sp(Li+)" 	"MF_sp(PF6-)" 	"Volt(Electroly)" 	"Temperature" 	"Porosity []" 	"Control volume thickness [m]" 	"volFrac MgO(S) []" 	"qHeat_accum [J/m3]" 	"qHeat_step [W/m3]" 	"Joule_Lyte [W/m3]" 	"Joule_Solid [W/m3]" 	
ZONE T = "SEP , 0.0000E+00", I = 10, SOLUTIONTIME = 0.000000E+00
ZONETYPE = ORDERED
DATAPACKING = BLOCK
STRANDID = 2
 7.8740000000000E-04  8.4102222222222E-04  8.9464444444444E-04  9.4826666666667E-04  1.0018888888889E-03  1.0555111111111E-03  1.1091333333333E-03  1.1627555555556E-03  1.2163777777778E-03  1.2700000000000E-03 
 0.0000000000000E+00  0.0000000000000E+00  0.0000000000000E+00  0.0000000000000E+00  0.0000000000000E+00  0.0000000000000E+00  0.0000000000000E+00  0.0000000000000E+00  0.0000000000000E+00  0.0000000000000E+00 
 9.2000000000000E-01  9.2000000000000E-01  9.2000000000000E-01  9.2000000000000E-01  9.2000000000000E-01  9.2000000000000E-01  9.2000000000000E-01  9.2000000000000E-01  9.2000000000000E-01  9.2000000000000E-01 
 4.0000000000000E-02  4.0000000000000E-02  4.0000000000000E-02  4.0000000000000E-02  4.0000000000000E-02  4.0000000000000E-02  4.0000000000000E-02  4.0000000000000E-02  4.0000000000000E-02  4.0000000000000E-02 
 4.0000000000000E-02  4.0000000000000E-02  4.0000000000000E-02  4.0000000000000E-02  4.0000000000000E-02  4.0000000000000E-02  4.0000000000000E-02  4.0000000000000E-02  4.0000000000000E-02  4.0000000000000E-02 
-7.0000000000000E-02 -7.0000000000000E-02 -7.0000000000000E-02 -7.0000000000000E-02 -7.0000000000000E-02 -7.0000000000000E-02 -7.0000000000000E-02 -7.0000000000000E-02 -7.0000000000000E-02 -7.0000000000000E-02 
 2.9815000000000E+02  2.9815000000000E+02  2.9815000000000E+02  2.9815000000000E+02  2.9815000000000E+02  2.9815000000000E+02  2.9815000000000E+02  2.9815000000000E+02  2.9815000000000E+02  2.9815000000000E+02 
 8.0911499769706E-01  8.0911499769706E-01  8.0911499769706E-01  8.0911499769706E-01  8.0911499769706E-01  8.0911499769706E-01  8.0911499769706E-01  8.0911499769706E-01  8.0911499769706E-01  8.0911499769706E-01 
 2.6811111111111E-05  5.3622222222222E-05  5.3622222222222E-05  5.3622222222222E-05  5.3622222222222E-05  5.3622222222222E-05  5.3622222222222E-05  5.3622222222223E-05  5.3622222222222E-05  2.6811111111111E-05 
 1.9088500230294E-01  1.9088500230294E-01  1.9088500230294E-01  1.9088500230294E-01  1.9088500230294E-01  1.9088500230294E-01  1.9088500230294E-01  1.9088500230294E-01  1.9088500230294E-01  1.9088500230294E-01 
 0.0000000000000E+00  0.0000000000000E+00  0.0000000000000E+00  0.0000000000000E+00  0.0000000000000E+00  0.0000000000000E+00  0.0000000000000E+00  0.0000000000000E+00  0.0000000000000E+00  0.0000000000000E+00 
 0.0000000000000E+00  0.0000000000000E+00  0.0000000000000E+00  0.0000000000000E+00  0.0000000000000E+00  0.0000000000000E+00  0.0000000000000E+00  0.0000000000000E+00  0.0000000000000E+00  0.0000000000000E+00 
 0.0000000000000E+00  0.0000000000000E+00  0.0000000000000E+00  0.0000000000000E+00  0.0000000000000E+00  0.0000000000000E+00  0.0000000000000E+00  0.0000000000000E+00  0.0000000000000E+00  0.0000000000000E+00 
 0.0000000000000E+00  0.0000000000000E+00  0.0000000000000E+00  0.0000000000000E+00  0.0000000000000E+00  0.0000000000000E+00  0.0000000000000E+00  0.0000000000000E+00  0.0000000000000E+00  0.0000000000000E+00 
ZONE T = "SEP , 1.0000E-08", I = 10, SOLUTIONTIME = 1.000000E-08
ZONETYPE = ORDERED
DATAPACKING = BLOCK
STRANDID = 2
 7.8740000000000E-04  8.4102222222222E-04  8.9464444444444E-04  9.4826666666667E-04  1.0018888888889E-03  1.0555111111111E-03  1.1091333333333E-03  1.1627555555556E-03  1.2163777777778E-03  1.2700000000000E-03 
 2.1091698736077E-08  2.1091698736077E-08  2.1091698736077E-08  2.1091698736077E-08  2.1091698736077E-08  2.1091698736077E-08  2.1091698736077E-08  2.1091698736077E-08  2.1091698736077E-08  1.9920489461309E-08 
 9.1999999999973E-01  9.2000000000000E-01  9.2000000000000E-01  9.2000000000000E-01  9.2000000000000E-01  9.2000000000000E-01  9.2000000000000E-01  9.2000000000000E-01  9.2000000000000E-01  9.2000000000032E-01 
 4.0000000000137E-02  4.0000000000000E-02  4.0000000000000E-02  4.0000000000000E-02  4.0000000000000E-02  4.0000000000000E-02  4.0000000000000E-02  4.0000000000000E-02  4.0000000000000E-02  3.9999999999839E-02 
 4.0000000000137E-02  4.0000000000000E-02  4.0000000000000E-02  4.0000000000000E-02  4.0000000000000E-02  4.0000000000000E-02  4.0000000000000E-02  4.0000000000000E-02  4.0000000000000E-02  3.9999999999839E-02 
 2.9762645841310E-02  2.9762595935493E-02  2.9762546029677E-02  2.9762496123861E-02  2.9762446218045E-02  2.9762396312228E-02  2.9762346406398E-02  2.9762296500581E-02  2.9762246594765E-02  2.9762196688948E-02 
 2.9814999955529E+02  2.9814999999375E+02  2.9814999999203E+02  2.9814999999292E+02  2.9814999999564E+02  2.9815000000086E+02  2.9814999999177E+02  2.9814999999932E+02  2.9815000000285E+02  2.9815000105422E+02 
 8.0911499769706E-01  8.0911499769706E-01  8.0911499769706E-01  8.0911499769706E-01  8.0911499769706E-01  8.0911499769706E-01  8.0911499769706E-01  8.0911499769706E-01  8.0911499769706E-01  8.0911499769706E-01 
 2.6811111111111E-05  5.3622222222222E-05  5.3622222222222E-05  5.3622222222222E-05  5.3622222222222E-05  5.3622222222222E-05  5.3622222222222E-05  5.3622222222223E-05  5.3622222222222E-05  2.6811111111111E-05 
 1.9088500230294E-01  1.9088500230294E-01  1.9088500230294E-01  1.9088500230294E-01  1.9088500230294E-01  1.9088500230294E-01  1.9088500230294E-01  1.9088500230294E-01  1.9088500230294E-01  1.9088500230294E-01 
 2.8268120468811E-10  2.8268120283532E-10  2.8268120430391E-10  2.8268120202363E-10  2.8268120211915E-10  2.8268128821346E-10  2.8268128821475E-10  2.8268120477022E-10  2.8268120225729E-10  2.8268120279305E-10 
 2.8268120468811E-02  2.8268120283532E-02  2.8268120430391E-02  2.8268120202363E-02  2.8268120211915E-02  2.8268128821346E-02  2.8268128821475E-02  2.8268120477022E-02  2.8268120225729E-02  2.8268120279305E-02 
 2.8268120468811E-02  2.8268120283532E-02  2.8268120430391E-02  2.8268120202363E-02  2.8268120211915E-02  2.8268128821346E-02  2.8268128821475E-02  2.8268120477022E-02  2.8268120225729E-02  2.8268120279305E-02 
 0.0000000000000E+00  0.0000000000000E+00  0.0000000000000E+00  0.0000000000000E+00  0.0000000000000E+00  0.0000000000000E+00  0.0000000000000E+00  0.0000000000000E+00  0.0000000000000E+00  0.0000000000000E+00 
ZONE T = "SEP , 2.0000E-08", I = 10, SOLUTIONTIME = 2.000000E-08
ZONETYPE = ORDERED
DATAPACKING = BLOCK
STRANDID = 2
 7.8740000000000E-04  8.4102222222222E-04  8.9464444444444E-04  9.4826666666667E-04  1.0018888888889E-03  1.0555111111111E-03  1.1091333333333E-03  1.1627555555556E-03  1.2163777777778E-03  1.2700000000000E-03 
 2.1086509301411E-08  2.1085056470500E-08  2.1085056470500E-08  2.1085056470500E-08  2.1085056470500E-08  2.1085056470500E-08  2.1085056470500E-08  2.1085056470500E-08  2.1085056470500E-08  1.9914517515507E-08 
 9.1999999999945E-01  9.2000000000000E-01  9.2000000000000E-01  9.2000000000000E-01  9.2000000000000E-01  9.2000000000000E-01  9.2000000000000E-01  9.2000000000000E-01  9.2000000000000E-01  9.2000000000064E-01 
 4.0000000000273E-02  4.0000000000000E-02  4.0000000000000E-02  4.0000000000000E-02  4.0000000000000E-02  4.0000000000000E-02  4.0000000000000E-02  4.0000000000000E-02  4.0000000000000E-02  3.9999999999679E-02 
 4.0000000000273E-02  4.0000000000000E-02  4.0000000000000E-02  4.0000000000000E-02  4.0000000000000E-02  4.0000000000000E-02  4.0000000000000E-02  4.0000000000000E-02  4.0000000000000E-02  3.9999999999679E-02 
 2.9772831350036E-02  2.9772781435441E-02  2.9772731520846E-02  2.9772681606252E-02  2.9772631691657E-02  2.9772581777062E-02  2.9772531862467E-02  2.9772481947872E-02  2.9772432033278E-02  2.9772382118683E-02 
 2.9814999912966E+02  2.9814999997453E+02  2.9814999998629E+02  2.9814999999280E+02  2.9814999999553E+02  2.9814999999501E+02  2.9814999998645E+02  2.9814999999945E+02  2.9815000002368E+02  2.9815000218822E+02 
 8.0911499769706E-01  8.0911499769706E-01  8.0911499769706E-01  8.0911499769706E-01  8.0911499769706E-01  8.0911499769706E-01  8.0911499769706E-01  8.0911499769706E-01  8.0911499769706E-01  8.0911499769706E-01 
 2.6811111111111E-05  5.3622222222222E-05  5.3622222222222E-05  5.3622222222222E-05  5.3622222222222E-05  5.3622222222222E-05  5.3622222222222E-05  5.3622222222223E-05  5.3622222222222E-05  2.6811111111111E-05 
 1.9088500230294E-01  1.9088500230294E-01  1.9088500230294E-01  1.9088500230294E-01  1.9088500230294E-01  1.9088500230294E-01  1.9088500230294E-01  1.9088500230294E-01  1.9088500230294E-01  1.9088500230294E-01 
 5.6546186463547E-10  5.6546186297219E-10  5.6546186464561E-10  5.6546186235880E-10  5.6546186245161E-10  5.6546194854755E-10  5.6546194854993E-10  5.6546186511518E-10  5.6546186313527E-10  5.6546186421287E-10 
 2.8278065994736E-02  2.8278066013687E-02  2.8278066034170E-02  2.8278066033518E-02  2.8278066033246E-02  2.8278066033409E-02  2.8278066033519E-02  2.8278066034496E-02  2.8278066087798E-02  2.8278066141982E-02 
 2.8278065994736E-02  2.8278066013687E-02  2.8278066034170E-02  2.8278066033518E-02  2.8278066033246E-02  2.8278066033409E-02  2.8278066033519E-02  2.8278066034496E-02  2.8278066087798E-02  2.8278066141982E-02 
 0.0000000000000E+00  0.0000000000000E+00  0.0000000000000E+00  0.0000000000000E+00  0.0000000000000E+00  0.0000000000000E+00  0.0000000000000E+00  0.0000000000000E+00  0.0000000000000E+00  0.0000000000000E+00 
ZONE T = "SEP , 3.0000E-08", I = 10, SOLUTIONTIME = 3.000000E-08
ZONETYPE = ORDERED
DATAPACKING = BLOCK
STRANDID = 2
 7.8740000000000E-04  8.4102222222222E-04  8.9464444444444E-04  9.4826666666667E-04  1.0018888888889E-03  1.0555111111111E-03  1.1091333333333E-03  1.1627555555556E-03  1.2163777777778E-03  1.2700000000000E-03 
 2.1099720618081E-08  2.1101173448992E-08  2.1101173448992E-08  2.1101173448992E-08  2.1101173448992E-08  2.1101173448992E-08  2.1101173448992E-08  2.1101173448992E-08  2.1101173448992E-08  1.9929132921344E-08 
 9.1999999999918E-01  9.2000000000000E-01  9.2000000000000E-01  9.2000000000000E-01  9.2000000000000E-01  9.2000000000000E-01  9.2000000000000E-01  9.2000000000000E-01  9.2000000000000E-01  9.2000000000096E-01 
 4.0000000000410E-02  4.0000000000000E-02  4.0000000000000E-02  4.0000000000000E-02  4.0000000000000E-02  4.0000000000000E-02  4.0000000000000E-02  4.0000000000000E-02  4.0000000000000E-02  3.9999999999518E-02 
 4.0000000000410E-02  4.0000000000000E-02  4.0000000000000E-02  4.0000000000000E-02  4.0000000000000E-02  4.0000000000000E-02  4.0000000000000E-02  4.0000000000000E-02  4.0000000000000E-02  3.9999999999518E-02 
 2.9782955463292E-02  2.9782905540212E-02  2.9782855617131E-02  2.9782805694050E-02  2.9782755770970E-02  2.9782705847889E-02  2.9782655924809E-02  2.9782606001728E-02  2.9782556078647E-02  2.9782506155566E-02 
 2.9814999869750E+02  2.9814999996512E+02  2.9814999999666E+02  2.9814999999246E+02  2.9814999999000E+02  2.9814999999999E+02  2.9814999999773E+02  2.9814999999512E+02  2.9815000006185E+02  2.9815000331750E+02 
 8.0911499769706E-01  8.0911499769706E-01  8.0911499769706E-01  8.0911499769706E-01  8.0911499769706E-01  8.0911499769706E-01  8.0911499769706E-01  8.0911499769706E-01  8.0911499769706E-01  8.0911499769706E-01 
 2.6811111111111E-05  5.3622222222222E-05  5.3622222222222E-05  5.3622222222222E-05  5.3622222222222E-05  5.3622222222222E-05  5.3622222222222E-05  5.3622222222223E-05  5.3622222222222E-05  2.6811111111111E-05 
 1.9088500230294E-01  1.9088500230294E-01  1.9088500230294E-01  1.9088500230294E-01  1.9088500230294E-01  1.9088500230294E-01  1.9088500230294E-01  1.9088500230294E-01  1.9088500230294E-01  1.9088500230294E-01 
 8.4833868206926E-10  8.4833868072618E-10  8.4833868271332E-10  8.4833868042160E-10  8.4833868053386E-10  8.4833876662619E-10  8.4833876660823E-10  8.4833868319874E-10  8.4833868204640E-10  8.4833868392746E-10 
 2.8287681743379E-02  2.8287681775399E-02  2.8287681806771E-02  2.8287681806280E-02  2.8287681808225E-02  2.8287681807863E-02  2.8287681805830E-02  2.8287681808356E-02  2.8287681891113E-02  2.8287681971460E-02 
 2.8287681743379E-02  2.8287681775399E-02  2.8287681806771E-02  2.8287681806280E-02  2.8287681808225E-02  2.8287681807863E-02  2.8287681805830E-02  2.8287681808356E-02  2.8287681891113E-02  2.8287681971460E-02 
 0.0000000000000E+00  0.0000000000000E+00  0.0000000000000E+00  0.0000000000000E+00  0.0000000000000E+00  0.0000000000000E+00  0.0000000000000E+00  0.0000000000000E+00  0.0000000000000E+00  0.0000000000000E+00 
ZONE T = "SEP , 4.0000E-08", I = 10, SOLUTIONTIME = 4.000000E-08
ZONETYPE = ORDERED
DATAPACKING = BLOCK
STRANDID = 2
 7.8740000000000E-04  8.4102222222222E-04  8.9464444444444E-04  9.4826666666667E-04  1.0018888888889E-03  1.0555111111111E-03  1.1091333333333E-03  1.1627555555556E-03  1.2163777777778E-03  1.2700000000000E-03 
 2.1103838416349E-08  2.1103838416349E-08  2.1103838416349E-08  2.1103838416349E-08  2.1103838416349E-08  2.1103838416349E-08  2.1103838416349E-08  2.1103838416349E-08  2.1103838416349E-08  1.9931932101593E-08 
 9.1999999999891E-01  9.2000000000000E-01  9.2000000000000E-01  9.2000000000000E-01  9.2000000000000E-01  9.2000000000000E-01  9.2000000000000E-01  9.2000000000000E-01  9.2000000000000E-01  9.2000000000129E-01 
 4.0000000000546E-02  4.0000000000000E-02  4.0000000000000E-02  4.0000000000000E-02  4.0000000000000E-02  4.0000000000000E-02  4.0000000000000E-02  4.0000000000000E-02  4.0000000000000E-02  3.9999999999357E-02 
 4.0000000000546E-02  4.0000000000000E-02  4.0000000000000E-02  4.0000000000000E-02  4.0000000000000E-02  4.0000000000000E-02  4.0000000000000E-02  4.0000000000000E-02  4.0000000000000E-02  3.9999999999357E-02 
 2.9793018154933E-02  2.9792968223399E-02  2.9792918291864E-02  2.9792868360329E-02  2.9792818428794E-02  2.9792768497259E-02  2.9792718565724E-02  2.9792668634189E-02  2.9792618702654E-02  2.9792568771118E-02 
 2.9814999828214E+02  2.9814999996031E+02  2.9814999998953E+02  2.9814999998660E+02  2.9814999999021E+02  2.9815000000450E+02  2.9814999999778E+02  2.9814999999252E+02  2.9815000009141E+02  2.9815000446025E+02 
 8.0911499769706E-01  8.0911499769706E-01  8.0911499769706E-01  8.0911499769706E-01  8.0911499769706E-01  8.0911499769706E-01  8.0911499769706E-01  8.0911499769706E-01  8.0911499769706E-01  8.0911499769706E-01 
 2.6811111111111E-05  5.3622222222222E-05  5.3622222222222E-05  5.3622222222222E-05  5.3622222222222E-05  5.3622222222222E-05  5.3622222222222E-05  5.3622222222223E-05  5.3622222222222E-05  2.6811111111111E-05 
 1.9088500230294E-01  1.9088500230294E-01  1.9088500230294E-01  1.9088500230294E-01  1.9088500230294E-01  1.9088500230294E-01  1.9088500230294E-01  1.9088500230294E-01  1.9088500230294E-01  1.9088500230294E-01 
 1.1313113160257E-09  1.1313113150827E-09  1.1313113174833E-09  1.1313113152049E-09  1.1313113153127E-09  1.1313114014187E-09  1.1313114014018E-09  1.1313113179926E-09  1.1313113179393E-09  1.1313113209023E-09 
 2.8297263395649E-02  2.8297263435655E-02  2.8297263477003E-02  2.8297263478329E-02  2.8297263477889E-02  2.8297263479250E-02  2.8297263479355E-02  2.8297263479383E-02  2.8297263589290E-02  2.8297263697486E-02 
 2.8297263395649E-02  2.8297263435655E-02  2.8297263477003E-02  2.8297263478329E-02  2.8297263477889E-02  2.8297263479250E-02  2.8297263479355E-02  2.8297263479383E-02  2.8297263589290E-02  2.8297263697486E-02 
 0.0000000000000E+00  0.0000000000000E+00  0.0000000000000E+00  0.0000000000000E+00  0.0000000000000E+00  0.0000000000000E+00  0.0000000000000E+00  0.0000000000000E+00  0.0000000000000E+00  0.0000000000000E+00 
ZONE T = "SEP , 5.5000E-08", I = 10, SOLUTIONTIME = 5.500000E-08
ZONETYPE = ORDERED
DATAPACKING = BLOCK
STRANDID = 2
 7.8740000000000E-04  8.4102222222222E-04  8.9464444444444E-04  9.4826666666667E-04  1.0018888888889E-03  1.0555111111111E-03  1.1091333333333E-03  1.1627555555556E-03  1.2163777777778E-03  1.2700000000000E-03 
 2.1105704977432E-08  2.1105704977432E-08  2.1105704977432E-08  2.1105704977432E-08  2.1105704977432E-08  2.1105704977432E-08  2.1105704977432E-08  2.1105704977432E-08  2.1105704977432E-08  1.9933095613651E-08 
 9.1999999999850E-01  9.2000000000000E-01  9.2000000000000E-01  9.2000000000000E-01  9.2000000000000E-01  9.2000000000000E-01  9.2000000000000E-01  9.2000000000000E-01  9.2000000000000E-01  9.2000000000177E-01 
 4.0000000000750E-02  4.0000000000000E-02  4.0000000000000E-02  4.0000000000000E-02  4.0000000000000E-02  4.0000000000000E-02  4.0000000000000E-02  4.0000000000000E-02  4.0000000000000E-02  3.9999999999116E-02 
 4.0000000000750E-02  4.0000000000000E-02  4.0000000000000E-02  4.0000000000000E-02  4.0000000000000E-02  4.0000000000000E-02  4.0000000000000E-02  4.0000000000000E-02  4.0000000000000E-02  3.9999999999116E-02 
 2.9807947926284E-02  2.9807897982168E-02  2.9807848038052E-02  2.9807798093936E-02  2.9807748149820E-02  2.9807698205704E-02  2.9807648261588E-02  2.9807598317472E-02  2.9807548373356E-02  2.9807498429240E-02 
 2.9814999761472E+02  2.9814999992820E+02  2.9814999998312E+02  2.9814999999398E+02  2.9814999999083E+02  2.9815000000531E+02  2.9815000000300E+02  2.9814999999337E+02  2.9815000016238E+02  2.9815000620679E+02 
 8.0911499769706E-01  8.0911499769706E-01  8.0911499769706E-01  8.0911499769706E-01  8.0911499769706E-01  8.0911499769706E-01  8.0911499769706E-01  8.0911499769706E-01  8.0911499769706E-01  8.0911499769706E-01 
 2.6811111111111E-05  5.3622222222222E-05  5.3622222222222E-05  5.3622222222222E-05  5.3622222222222E-05  5.3622222222222E-05  5.3622222222222E-05  5.3622222222223E-05  5.3622222222222E-05  2.6811111111111E-05 
 1.9088500230294E-01  1.9088500230294E-01  1.9088500230294E-01  1.9088500230294E-01  1.9088500230294E-01  1.9088500230294E-01  1.9088500230294E-01  1.9088500230294E-01  1.9088500230294E-01  1.9088500230294E-01 
 1.5559841917040E-09  1.5559841915972E-09  1.5559841948695E-09  1.5559841926239E-09  1.5559841927545E-09  1.5559842788816E-09  1.5559842788351E-09  1.5559841954619E-09  1.5559841977096E-09  1.5559842029123E-09 
 2.8311525045217E-02  2.8311525100962E-02  2.8311525159079E-02  2.8311525161268E-02  2.8311525162783E-02  2.8311525164192E-02  2.8311525162220E-02  2.8311525164619E-02  2.8311525318017E-02  2.8311525467330E-02 
 2.8311525045217E-02  2.8311525100962E-02  2.8311525159079E-02  2.8311525161268E-02  2.8311525162783E-02  2.8311525164192E-02  2.8311525162220E-02  2.8311525164619E-02  2.8311525318017E-02  2.8311525467330E-02 
 0.0000000000000E+00  0.0000000000000E+00  0.0000000000000E+00  0.0000000000000E+00  0.0000000000000E+00  0.0000000000000E+00  0.0000000000000E+00  0.0000000000000E+00  0.0000000000000E+00  0.0000000000000E+00 
ZONE T = "SEP , 7.7500E-08", I = 10, SOLUTIONTIME = 7.750000E-08
ZONETYPE = ORDERED
DATAPACKING = BLOCK
STRANDID = 2
 7.8740000000000E-04  8.4102222222222E-04  8.9464444444444E-04  9.4826666666667E-04  1.0018888888889E-03  1.0555111111111E-03  1.1091333333333E-03  1.1627555555556E-03  1.2163777777778E-03  1.2700000000000E-03 
 2.1116364873768E-08  2.1116364873768E-08  2.1116364873768E-08  2.1116364873768E-08  2.1116364873768E-08  2.1116364873768E-08  2.1116364873768E-08  2.1116364873768E-08  2.1116364873768E-08  1.9943859329902E-08 
 9.1999999999789E-01  9.2000000000000E-01  9.2000000000000E-01  9.2000000000000E-01  9.2000000000000E-01  9.2000000000000E-01  9.2000000000000E-01  9.2000000000000E-01  9.2000000000000E-01  9.2000000000249E-01 
 4.0000000001055E-02  4.0000000000000E-02  4.0000000000000E-02  4.0000000000000E-02  4.0000000000000E-02  4.0000000000000E-02  4.0000000000000E-02  4.0000000000000E-02  4.0000000000000E-02  3.9999999998755E-02 
 4.0000000001055E-02  4.0000000000000E-02  4.0000000000000E-02  4.0000000000000E-02  4.0000000000000E-02  4.0000000000000E-02  4.0000000000000E-02  4.0000000000000E-02  4.0000000000000E-02  3.9999999998755E-02 
 2.9829972321506E-02  2.9829922358756E-02  2.9829872396006E-02  2.9829822433256E-02  2.9829772470505E-02  2.9829722507755E-02  2.9829672545005E-02  2.9829622582254E-02  2.9829572619504E-02  2.9829522656753E-02 
 2.9814999667565E+02  2.9814999987657E+02  2.9814999998094E+02  2.9814999999818E+02  2.9814999998198E+02  2.9815000000533E+02  2.9814999999994E+02  2.9815000000237E+02  2.9815000033340E+02  2.9815000891804E+02 
 8.0911499769706E-01  8.0911499769706E-01  8.0911499769706E-01  8.0911499769706E-01  8.0911499769706E-01  8.0911499769706E-01  8.0911499769706E-01  8.0911499769706E-01  8.0911499769706E-01  8.0911499769706E-01 
 2.6811111111111E-05  5.3622222222222E-05  5.3622222222222E-05  5.3622222222222E-05  5.3622222222222E-05  5.3622222222222E-05  5.3622222222222E-05  5.3622222222223E-05  5.3622222222222E-05  2.6811111111111E-05 
 1.9088500230294E-01  1.9088500230294E-01  1.9088500230294E-01  1.9088500230294E-01  1.9088500230294E-01  1.9088500230294E-01  1.9088500230294E-01  1.9088500230294E-01  1.9088500230294E-01  1.9088500230294E-01 
 2.1934689344985E-09  2.1934689361620E-09  2.1934689412726E-09  2.1934689390499E-09  2.1934689391761E-09  2.1934690253783E-09  2.1934690253238E-09  2.1934689421281E-09  2.1934689493427E-09  2.1934689592923E-09 
 2.8332655235309E-02  2.8332655313994E-02  2.8332655395691E-02  2.8332655396712E-02  2.8332655396518E-02  2.8332655399856E-02  2.8332655399499E-02  2.8332655407387E-02  2.8332655628141E-02  2.8332655839110E-02 
 2.8332655235309E-02  2.8332655313994E-02  2.8332655395691E-02  2.8332655396712E-02  2.8332655396518E-02  2.8332655399856E-02  2.8332655399499E-02  2.8332655407387E-02  2.8332655628141E-02  2.8332655839110E-02 
 0.0000000000000E+00  0.0000000000000E+00  0.0000000000000E+00  0.0000000000000E+00  0.0000000000000E+00  0.0000000000000E+00  0.0000000000000E+00  0.0000000000000E+00  0.0000000000000E+00  0.0000000000000E+00 
ZONE T = "SEP , 1.1125E-07", I = 10, SOLUTIONTIME = 1.112500E-07
ZONETYPE = ORDERED
DATAPACKING = BLOCK
STRANDID = 2
 7.8740000000000E-04  8.4102222222222E-04  8.9464444444444E-04  9.4826666666667E-04  1.0018888888889E-03  1.0555111111111E-03  1.1091333333333E-03  1.1627555555556E-03  1.2163777777778E-03  1.2700000000000E-03 
 2.1127726894839E-08  2.1127296426420E-08  2.1127296426420E-08  2.1127296426420E-08  2.1127296426420E-08  2.1127296426420E-08  2.1127296426420E-08  2.1127296426420E-08  2.1127296426420E-08  1.9953814848785E-08 
 9.1999999999698E-01  9.2000000000000E-01  9.2000000000000E-01  9.2000000000000E-01  9.2000000000000E-01  9.2000000000000E-01  9.2000000000000E-01  9.2000000000000E-01  9.2000000000000E-01  9.2000000000358E-01 
 4.0000000001512E-02  4.0000000000000E-02  4.0000000000000E-02  4.0000000000000E-02  4.0000000000000E-02  4.0000000000000E-02  4.0000000000000E-02  4.0000000000000E-02  4.0000000000000E-02  3.9999999998212E-02 
 4.0000000001512E-02  4.0000000000000E-02  4.0000000000000E-02  4.0000000000000E-02  4.0000000000000E-02  4.0000000000000E-02  4.0000000000000E-02  4.0000000000000E-02  4.0000000000000E-02  3.9999999998212E-02 
 2.9862183297960E-02  2.9862133307816E-02  2.9862083317672E-02  2.9862033327528E-02  2.9861983337384E-02  2.9861933347240E-02  2.9861883357096E-02  2.9861833366951E-02  2.9861783376807E-02  2.9861733386662E-02 
 2.9814999518441E+02  2.9814999974506E+02  2.9814999997679E+02  2.9815000000642E+02  2.9814999997195E+02  2.9815000000364E+02  2.9815000000727E+02  2.9815000002099E+02  2.9815000068059E+02  2.9815001309464E+02 
 8.0911499769706E-01  8.0911499769706E-01  8.0911499769706E-01  8.0911499769706E-01  8.0911499769706E-01  8.0911499769706E-01  8.0911499769706E-01  8.0911499769706E-01  8.0911499769706E-01  8.0911499769706E-01 
 2.6811111111111E-05  5.3622222222222E-05  5.3622222222222E-05  5.3622222222222E-05  5.3622222222222E-05  5.3622222222222E-05  5.3622222222222E-05  5.3622222222223E-05  5.3622222222222E-05  2.6811111111111E-05 
 1.9088500230294E-01  1.9088500230294E-01  1.9088500230294E-01  1.9088500230294E-01  1.9088500230294E-01  1.9088500230294E-01  1.9088500230294E-01  1.9088500230294E-01  1.9088500230294E-01  1.9088500230294E-01 
 3.1507449035570E-09  3.1507449090715E-09  3.1507449182219E-09  3.1507449161255E-09  3.1507449162578E-09  3.1507450025667E-09  3.1507450025364E-09  3.1507449198492E-09  3.1507449381425E-09  3.1507449586480E-09 
 2.8363732416549E-02  2.8363732530651E-02  2.8363732650349E-02  2.8363732654090E-02  2.8363732654271E-02  2.8363732657434E-02  2.8363732658150E-02  2.8363732673220E-02  2.8363733001474E-02  2.8363733314245E-02 
 2.8363732416549E-02  2.8363732530651E-02  2.8363732650349E-02  2.8363732654090E-02  2.8363732654271E-02  2.8363732657434E-02  2.8363732658150E-02  2.8363732673220E-02  2.8363733001474E-02  2.8363733314245E-02 
 0.0000000000000E+00  0.0000000000000E+00  0.0000000000000E+00  0.0000000000000E+00  0.0000000000000E+00  0.0000000000000E+00  0.0000000000000E+00  0.0000000000000E+00  0.0000000000000E+00  0.0000000000000E+00 
ZONE T = "SEP , 1.6188E-07", I = 10, SOLUTIONTIME = 1.618750E-07
ZONETYPE = ORDERED
DATAPACKING = BLOCK
STRANDID = 2
 7.8740000000000E-04  8.4102222222222E-04  8.9464444444444E-04  9.4826666666667E-04  1.0018888888889E-03  1.0555111111111E-03  1.1091333333333E-03  1.1627555555556E-03  1.2163777777778E-03  1.2700000000000E-03 
 2.1143400084780E-08  2.1143687063725E-08  2.1143687063725E-08  2.1143687063725E-08  2.1143687063725E-08  2.1143687063725E-08  2.1143687063725E-08  2.1143687063725E-08  2.1143687063725E-08  1.9969216672260E-08 
 9.1999999999561E-01  9.2000000000000E-01  9.2000000000000E-01  9.2000000000000E-01  9.2000000000000E-01  9.2000000000000E-01  9.2000000000000E-01  9.2000000000000E-01  9.2000000000000E-01  9.2000000000521E-01 
 4.0000000002195E-02  4.0000000000001E-02  4.0000000000000E-02  4.0000000000000E-02  4.0000000000000E-02  4.0000000000000E-02  4.0000000000000E-02  4.0000000000000E-02  3.9999999999999E-02  3.9999999997397E-02 
 4.0000000002195E-02  4.0000000000001E-02  4.0000000000000E-02  4.0000000000000E-02  4.0000000000000E-02  4.0000000000000E-02  4.0000000000000E-02  4.0000000000000E-02  3.9999999999999E-02  3.9999999997397E-02 
 2.9908693926987E-02  2.9908643897042E-02  2.9908593867096E-02  2.9908543837150E-02  2.9908493807204E-02  2.9908443777259E-02  2.9908393747313E-02  2.9908343717367E-02  2.9908293687421E-02  2.9908243657473E-02 
 2.9814999299259E+02  2.9814999948694E+02  2.9814999996551E+02  2.9815000000639E+02  2.9814999997281E+02  2.9815000000499E+02  2.9815000001235E+02  2.9815000007690E+02  2.9815000144657E+02  2.9815001964760E+02 
 8.0911499769706E-01  8.0911499769706E-01  8.0911499769706E-01  8.0911499769706E-01  8.0911499769706E-01  8.0911499769706E-01  8.0911499769706E-01  8.0911499769706E-01  8.0911499769706E-01  8.0911499769706E-01 
 2.6811111111111E-05  5.3622222222222E-05  5.3622222222222E-05  5.3622222222222E-05  5.3622222222222E-05  5.3622222222222E-05  5.3622222222222E-05  5.3622222222223E-05  5.3622222222222E-05  2.6811111111111E-05 
 1.9088500230294E-01  1.9088500230294E-01  1.9088500230294E-01  1.9088500230294E-01  1.9088500230294E-01  1.9088500230294E-01  1.9088500230294E-01  1.9088500230294E-01  1.9088500230294E-01  1.9088500230294E-01 
 4.5889462847467E-09  4.5889462987876E-09  4.5889463170348E-09  4.5889463155000E-09  4.5889463157249E-09  4.5889464020876E-09  4.5889464021223E-09  4.5889463213091E-09  4.5889463649139E-09  4.5889464089699E-09 
 2.8408916171648E-02  2.8408916340071E-02  2.8408916519761E-02  2.8408916530854E-02  2.8408916532684E-02  2.8408916533745E-02  2.8408916535031E-02  2.8408916572046E-02  2.8408917072029E-02  2.8408917537223E-02 
 2.8408916171648E-02  2.8408916340071E-02  2.8408916519761E-02  2.8408916530854E-02  2.8408916532684E-02  2.8408916533745E-02  2.8408916535031E-02  2.8408916572046E-02  2.8408917072029E-02  2.8408917537223E-02 
 0.0000000000000E+00  0.0000000000000E+00  0.0000000000000E+00  0.0000000000000E+00  0.0000000000000E+00  0.0000000000000E+00  0.0000000000000E+00  0.0000000000000E+00  0.0000000000000E+00  0.0000000000000E+00 
ZONE T = "SEP , 2.3781E-07", I = 10, SOLUTIONTIME = 2.378125E-07
ZONETYPE = ORDERED
DATAPACKING = BLOCK
STRANDID = 2
 7.8740000000000E-04  8.4102222222222E-04  8.9464444444444E-04  9.4826666666667E-04  1.0018888888889E-03  1.0555111111111E-03  1.1091333333333E-03  1.1627555555556E-03  1.2163777777778E-03  1.2700000000000E-03 
 2.1167907318416E-08  2.1167907318416E-08  2.1167907318416E-08  2.1167907318416E-08  2.1167907318416E-08  2.1167907318416E-08  2.1167907318416E-08  2.1167907318416E-08  2.1167811658768E-08  1.9991764035659E-08 
 9.1999999999358E-01  9.2000000000000E-01  9.2000000000000E-01  9.2000000000000E-01  9.2000000000000E-01  9.2000000000000E-01  9.2000000000000E-01  9.2000000000000E-01  9.2000000000000E-01  9.2000000000765E-01 
 4.0000000003212E-02  4.0000000000001E-02  4.0000000000000E-02  4.0000000000000E-02  4.0000000000000E-02  4.0000000000000E-02  4.0000000000000E-02  4.0000000000000E-02  3.9999999999998E-02  3.9999999996173E-02 
 4.0000000003212E-02  4.0000000000001E-02  4.0000000000000E-02  4.0000000000000E-02  4.0000000000000E-02  4.0000000000000E-02  4.0000000000000E-02  4.0000000000000E-02  3.9999999999998E-02  3.9999999996173E-02 
 2.9974640922588E-02  2.9974590835814E-02  2.9974540749040E-02  2.9974490662266E-02  2.9974440575492E-02  2.9974390488717E-02  2.9974340401943E-02  2.9974290315169E-02  2.9974240228394E-02  2.9974190141617E-02 
 2.9814998963739E+02  2.9814999892637E+02  2.9814999990602E+02  2.9814999999685E+02  2.9814999997564E+02  2.9815000000541E+02  2.9815000002498E+02  2.9815000025037E+02  2.9815000306376E+02  2.9815002985053E+02 
 8.0911499769706E-01  8.0911499769706E-01  8.0911499769706E-01  8.0911499769706E-01  8.0911499769706E-01  8.0911499769706E-01  8.0911499769706E-01  8.0911499769706E-01  8.0911499769706E-01  8.0911499769706E-01 
 2.6811111111111E-05  5.3622222222222E-05  5.3622222222222E-05  5.3622222222222E-05  5.3622222222222E-05  5.3622222222222E-05  5.3622222222222E-05  5.3622222222223E-05  5.3622222222222E-05  2.6811111111111E-05 