TITLE = "Solution on Domain BulkDomain1D_1"
VARIABLES = "x [m]"  
"Vel_axial" 	"MF_sp(ECDMC)" 	"MF_sp(Li+)" 	"MF_sp(PF6-)" 	"Volt(Electroly)" 	"Temperature" 	"Porosity []" 	"Control volume thickness [m]" 	"volFrac MgO(S) []" 	"qHeat_accum [J/m3]" 	"qHeat_step [W/m3]" 	"Joule_Lyte [W/m3]" 	"Joule_Solid [W/m3]" 	
ZONE T = "SEP , 0.0000E+00", I = 10, SOLUTIONTIME = 0.000000E+00
ZONETYPE = ORDERED
DATAPACKING = BLOCK
STRANDID = 2
 7.8740000000000E-04  8.4102222222222E-04  8.9464444444444E-04  9.4826666666667E-04  1.0018888888889E-03  1.0555111111111E-03  1.1091333333333E-03  1.1627555555556E-03  1.2163777777778E-03  1.2700000000000E-03 
 0.0000000000000E+00  0.0000000000000E+00  0.0000000000000E+00  0.0000000000000E+00  0.0000000000000E+00  0.0000000000000E+00  0.0000000000000E+00  0.0000000000000E+00  0.0000000000000E+00  0.0000000000000E+00 
 9.2000000000000E-01  9.2000000000000E-01  9.2000000000000E-01  9.2000000000000E-01  9.2000000000000E-01  9.2000000000000E-01  9.2000000000000E-01  9.2000000000000E-01  9.2000000000000E-01  9.2000000000000E-01 
 4.0000000000000E-02  4.0000000000000E-02  4.0000000000000E-02  4.0000000000000E-02  4.0000000000000E-02  4.0000000000000E-02  4.0000000000000E-02  4.0000000000000E-02  4.0000000000000E-02  4.0000000000000E-02 
 4.0000000000000E-02  4.0000000000000E-02  4.0000000000000E-02  4.0000000000000E-02  4.0000000000000E-02  4.0000000000000E-02  4.0000000000000E-02  4.0000000000000E-02  4.0000000000000E-02  4.0000000000000E-02 
-7.0000000000000E-02 -7.0000000000000E-02 -7.0000000000000E-02 -7.0000000000000E-02 -7.0000000000000E-02 -7.0000000000000E-02 -7.0000000000000E-02 -7.0000000000000E-02 -7.0000000000000E-02 -7.0000000000000E-02 
 2.9815000000000E+02  2.9815000000000E+02  2.9815000000000E+02  2.9815000000000E+02  2.9815000000000E+02  2.9815000000000E+02  2.9815000000000E+02  2.9815000000000E+02  2.9815000000000E+02  2.9815000000000E+02 
 8.0911499769706E-01  8.0911499769706E-01  8.0911499769706E-01  8.0911499769706E-01  8.0911499769706E-01  8.0911499769706E-01  8.0911499769706E-01  8.0911499769706E-01  8.0911499769706E-01  8.0911499769706E-01 
 2.6811111111111E-05  5.3622222222222E-05  5.3622222222222E-05  5.3622222222222E-05  5.3622222222222E-05  5.3622222222222E-05  5.3622222222222E-05  5.3622222222223E-05  5.3622222222222E-05  2.6811111111111E-05 
 1.9088500230294E-01  1.9088500230294E-01  1.9088500230294E-01  1.9088500230294E-01  1.9088500230294E-01  1.9088500230294E-01  1.9088500230294E-01  1.9088500230294E-01  1.9088500230294E-01  1.9088500230294E-01 
 0.0000000000000E+00  0.0000000000000E+00  0.0000000000000E+00  0.0000000000000E+00  0.0000000000000E+00  0.0000000000000E+00  0.0000000000000E+00  0.0000000000000E+00  0.0000000000000E+00  0.0000000000000E+00 
 0.0000000000000E+00  0.0000000000000E+00  0.0000000000000E+00  0.0000000000000E+00  0.0000000000000E+00  0.0000000000000E+00  0.0000000000000E+00  0.0000000000000E+00  0.0000000000000E+00  0.0000000000000E+00 
 0.0000000000000E+00  0.0000000000000E+00  0.0000000000000E+00  0.0000000000000E+00  0.0000000000000E+00  0.0000000000000E+00  0.0000000000000E+00  0.0000000000000E+00  0.0000000000000E+00  0.0000000000000E+00 
 0.0000000000000E+00  0.0000000000000E+00  0.0000000000000E+00  0.0000000000000E+00  0.0000000000000E+00  0.0000000000000E+00  0.0000000000000E+00  0.0000000000000E+00  0.0000000000000E+00  0.0000000000000E+00 
ZONE T = "SEP , 1.0000E-08", I = 10, SOLUTIONTIME = 1.000000E-08
ZONETYPE = ORDERED
DATAPACKING = BLOCK
STRANDID = 2
 7.8740000000000E-04  8.4102222222222E-04  8.9464444444444E-04  9.4826666666667E-04  1.0018888888889E-03  1.0555111111111E-03  1.1091333333333E-03  1.1627555555556E-03  1.2163777777778E-03  1.2700000000000E-03 
 2.1091698741306E-08  2.1091698741306E-08  2.1091698741306E-08  2.1091698741306E-08  2.1091698741306E-08  2.1091698741306E-08  2.1091698741306E-08  2.1091698741306E-08  2.1091698741306E-08  1.9920489466709E-08 
 9.1999999999973E-01  9.2000000000000E-01  9.2000000000000E-01  9.2000000000000E-01  9.2000000000000E-01  9.2000000000000E-01  9.2000000000000E-01  9.2000000000000E-01  9.2000000000000E-01  9.2000000000032E-01 
 4.0000000000137E-02  4.0000000000000E-02  4.0000000000000E-02  4.0000000000000E-02  4.0000000000000E-02  4.0000000000000E-02  4.0000000000000E-02  4.0000000000000E-02  4.0000000000000E-02  3.9999999999839E-02 
 4.0000000000137E-02  4.0000000000000E-02  4.0000000000000E-02  4.0000000000000E-02  4.0000000000000E-02  4.0000000000000E-02  4.0000000000000E-02  4.0000000000000E-02  4.0000000000000E-02  3.9999999999839E-02 
 2.9762645813532E-02  2.9762595907715E-02  2.9762546001899E-02  2.9762496096083E-02  2.9762446190266E-02  2.9762396284450E-02  2.9762346378619E-02  2.9762296472803E-02  2.9762246566987E-02  2.9762196661170E-02 
 2.9814999956560E+02  2.9814999999394E+02  2.9815000000156E+02  2.9814999999167E+02  2.9815000000096E+02  2.9814999999716E+02  2.9814999999706E+02  2.9815000000067E+02  2.9815000000397E+02  2.9815000106051E+02 
 8.0911499769706E-01  8.0911499769706E-01  8.0911499769706E-01  8.0911499769706E-01  8.0911499769706E-01  8.0911499769706E-01  8.0911499769706E-01  8.0911499769706E-01  8.0911499769706E-01  8.0911499769706E-01 
 2.6811111111111E-05  5.3622222222222E-05  5.3622222222222E-05  5.3622222222222E-05  5.3622222222222E-05  5.3622222222222E-05  5.3622222222222E-05  5.3622222222223E-05  5.3622222222222E-05  2.6811111111111E-05 
 1.9088500230294E-01  1.9088500230294E-01  1.9088500230294E-01  1.9088500230294E-01  1.9088500230294E-01  1.9088500230294E-01  1.9088500230294E-01  1.9088500230294E-01  1.9088500230294E-01  1.9088500230294E-01 
 2.8268120802396E-10  2.8268120479572E-10  2.8268120490886E-10  2.8268120538119E-10  2.8268120217676E-10  2.8268128607064E-10  2.8268128636551E-10  2.8268120215435E-10  2.8268120514379E-10  2.8268120840999E-10 
 2.8268120802396E-02  2.8268120479572E-02  2.8268120490886E-02  2.8268120538119E-02  2.8268120217676E-02  2.8268128607064E-02  2.8268128636551E-02  2.8268120215435E-02  2.8268120514379E-02  2.8268120840999E-02 
 2.8268120802396E-02  2.8268120479572E-02  2.8268120490886E-02  2.8268120538119E-02  2.8268120217676E-02  2.8268128607064E-02  2.8268128636551E-02  2.8268120215435E-02  2.8268120514379E-02  2.8268120840999E-02 
 0.0000000000000E+00  0.0000000000000E+00  0.0000000000000E+00  0.0000000000000E+00  0.0000000000000E+00  0.0000000000000E+00  0.0000000000000E+00  0.0000000000000E+00  0.0000000000000E+00  0.0000000000000E+00 
ZONE T = "SEP , 2.0000E-08", I = 10, SOLUTIONTIME = 2.000000E-08
ZONETYPE = ORDERED
DATAPACKING = BLOCK
STRANDID = 2
 7.8740000000000E-04  8.4102222222222E-04  8.9464444444444E-04  9.4826666666667E-04  1.0018888888889E-03  1.0555111111111E-03  1.1091333333333E-03  1.1627555555556E-03  1.2163777777778E-03  1.2700000000000E-03 
 2.1086509316843E-08  2.1085056485932E-08  2.1085056485932E-08  2.1085056485932E-08  2.1085056485932E-08  2.1085056485932E-08  2.1085056485932E-08  2.1085056485932E-08  2.1085056485932E-08  1.9914517532043E-08 
 9.1999999999945E-01  9.2000000000000E-01  9.2000000000000E-01  9.2000000000000E-01  9.2000000000000E-01  9.2000000000000E-01  9.2000000000000E-01  9.2000000000000E-01  9.2000000000000E-01  9.2000000000064E-01 
 4.0000000000273E-02  4.0000000000000E-02  4.0000000000000E-02  4.0000000000000E-02  4.0000000000000E-02  4.0000000000000E-02  4.0000000000000E-02  4.0000000000000E-02  4.0000000000000E-02  3.9999999999679E-02 
 4.0000000000273E-02  4.0000000000000E-02  4.0000000000000E-02  4.0000000000000E-02  4.0000000000000E-02  4.0000000000000E-02  4.0000000000000E-02  4.0000000000000E-02  4.0000000000000E-02  3.9999999999679E-02 
 2.9772831323563E-02  2.9772781408968E-02  2.9772731494373E-02  2.9772681579778E-02  2.9772631665184E-02  2.9772581750589E-02  2.9772531835994E-02  2.9772481921399E-02  2.9772432006804E-02  2.9772382092209E-02 
 2.9814999912115E+02  2.9814999997493E+02  2.9815000000093E+02  2.9814999999189E+02  2.9815000000064E+02  2.9814999999717E+02  2.9815000000248E+02  2.9815000000096E+02  2.9815000002487E+02  2.9815000218290E+02 
 8.0911499769706E-01  8.0911499769706E-01  8.0911499769706E-01  8.0911499769706E-01  8.0911499769706E-01  8.0911499769706E-01  8.0911499769706E-01  8.0911499769706E-01  8.0911499769706E-01  8.0911499769706E-01 
 2.6811111111111E-05  5.3622222222222E-05  5.3622222222222E-05  5.3622222222222E-05  5.3622222222222E-05  5.3622222222222E-05  5.3622222222222E-05  5.3622222222223E-05  5.3622222222222E-05  2.6811111111111E-05 
 1.9088500230294E-01  1.9088500230294E-01  1.9088500230294E-01  1.9088500230294E-01  1.9088500230294E-01  1.9088500230294E-01  1.9088500230294E-01  1.9088500230294E-01  1.9088500230294E-01  1.9088500230294E-01 
 5.6546186836827E-10  5.6546186534371E-10  5.6546186565649E-10  5.6546186612487E-10  5.6546186291926E-10  5.6546194683111E-10  5.6546194712465E-10  5.6546186290727E-10  5.6546186643487E-10  5.6546187022488E-10 
 2.8278066034431E-02  2.8278066054798E-02  2.8278066074764E-02  2.8278066074369E-02  2.8278066074251E-02  2.8278066076047E-02  2.8278066075914E-02  2.8278066075293E-02  2.8278066129108E-02  2.8278066181489E-02 
 2.8278066034431E-02  2.8278066054798E-02  2.8278066074764E-02  2.8278066074369E-02  2.8278066074251E-02  2.8278066076047E-02  2.8278066075914E-02  2.8278066075293E-02  2.8278066129108E-02  2.8278066181489E-02 
 0.0000000000000E+00  0.0000000000000E+00  0.0000000000000E+00  0.0000000000000E+00  0.0000000000000E+00  0.0000000000000E+00  0.0000000000000E+00  0.0000000000000E+00  0.0000000000000E+00  0.0000000000000E+00 
ZONE T = "SEP , 3.0000E-08", I = 10, SOLUTIONTIME = 3.000000E-08
ZONETYPE = ORDERED
DATAPACKING = BLOCK
STRANDID = 2
 7.8740000000000E-04  8.4102222222222E-04  8.9464444444444E-04  9.4826666666667E-04  1.0018888888889E-03  1.0555111111111E-03  1.1091333333333E-03  1.1627555555556E-03  1.2163777777778E-03  1.2700000000000E-03 
 2.1099720546713E-08  2.1101173377624E-08  2.1101173377624E-08  2.1101173377624E-08  2.1101173377624E-08  2.1101173377624E-08  2.1101173377624E-08  2.1101173377624E-08  2.1101173377624E-08  1.9929132853088E-08 
 9.1999999999918E-01  9.2000000000000E-01  9.2000000000000E-01  9.2000000000000E-01  9.2000000000000E-01  9.2000000000000E-01  9.2000000000000E-01  9.2000000000000E-01  9.2000000000000E-01  9.2000000000096E-01 
 4.0000000000410E-02  4.0000000000000E-02  4.0000000000000E-02  4.0000000000000E-02  4.0000000000000E-02  4.0000000000000E-02  4.0000000000000E-02  4.0000000000000E-02  4.0000000000000E-02  3.9999999999518E-02 
 4.0000000000410E-02  4.0000000000000E-02  4.0000000000000E-02  4.0000000000000E-02  4.0000000000000E-02  4.0000000000000E-02  4.0000000000000E-02  4.0000000000000E-02  4.0000000000000E-02  3.9999999999518E-02 
 2.9782955300735E-02  2.9782905377654E-02  2.9782855454574E-02  2.9782805531494E-02  2.9782755608413E-02  2.9782705685333E-02  2.9782655762252E-02  2.9782605839172E-02  2.9782555916091E-02  2.9782505993010E-02 
 2.9814999872358E+02  2.9814999996084E+02  2.9814999999938E+02  2.9814999999215E+02  2.9814999998935E+02  2.9815000000790E+02  2.9815000000230E+02  2.9815000000200E+02  2.9815000004693E+02  2.9815000332380E+02 
 8.0911499769706E-01  8.0911499769706E-01  8.0911499769706E-01  8.0911499769706E-01  8.0911499769706E-01  8.0911499769706E-01  8.0911499769706E-01  8.0911499769706E-01  8.0911499769706E-01  8.0911499769706E-01 
 2.6811111111111E-05  5.3622222222222E-05  5.3622222222222E-05  5.3622222222222E-05  5.3622222222222E-05  5.3622222222222E-05  5.3622222222222E-05  5.3622222222223E-05  5.3622222222222E-05  2.6811111111111E-05 
 1.9088500230294E-01  1.9088500230294E-01  1.9088500230294E-01  1.9088500230294E-01  1.9088500230294E-01  1.9088500230294E-01  1.9088500230294E-01  1.9088500230294E-01  1.9088500230294E-01  1.9088500230294E-01 
 8.4833868390448E-10  8.4833868118600E-10  8.4833868181710E-10  8.4833868228043E-10  8.4833867907347E-10  8.4833876299817E-10  8.4833876329003E-10  8.4833867908312E-10  8.4833868340373E-10  8.4833868797769E-10 
 2.8287681553621E-02  2.8287681584229E-02  2.8287681616061E-02  2.8287681615556E-02  2.8287681615421E-02  2.8287681616706E-02  2.8287681616538E-02  2.8287681617585E-02  2.8287681696887E-02  2.8287681775281E-02 
 2.8287681553621E-02  2.8287681584229E-02  2.8287681616061E-02  2.8287681615556E-02  2.8287681615421E-02  2.8287681616706E-02  2.8287681616538E-02  2.8287681617585E-02  2.8287681696887E-02  2.8287681775281E-02 
 0.0000000000000E+00  0.0000000000000E+00  0.0000000000000E+00  0.0000000000000E+00  0.0000000000000E+00  0.0000000000000E+00  0.0000000000000E+00  0.0000000000000E+00  0.0000000000000E+00  0.0000000000000E+00 
ZONE T = "SEP , 4.0000E-08", I = 10, SOLUTIONTIME = 4.000000E-08
ZONETYPE = ORDERED
DATAPACKING = BLOCK
STRANDID = 2
 7.8740000000000E-04  8.4102222222222E-04  8.9464444444444E-04  9.4826666666667E-04  1.0018888888889E-03  1.0555111111111E-03  1.1091333333333E-03  1.1627555555556E-03  1.2163777777778E-03  1.2700000000000E-03 
 2.1103838393571E-08  2.1103838393571E-08  2.1103838393571E-08  2.1103838393571E-08  2.1103838393571E-08  2.1103838393571E-08  2.1103838393571E-08  2.1103838393571E-08  2.1103838393571E-08  1.9931932080730E-08 
 9.1999999999891E-01  9.2000000000000E-01  9.2000000000000E-01  9.2000000000000E-01  9.2000000000000E-01  9.2000000000000E-01  9.2000000000000E-01  9.2000000000000E-01  9.2000000000000E-01  9.2000000000129E-01 
 4.0000000000546E-02  4.0000000000000E-02  4.0000000000000E-02  4.0000000000000E-02  4.0000000000000E-02  4.0000000000000E-02  4.0000000000000E-02  4.0000000000000E-02  4.0000000000000E-02  3.9999999999357E-02 
 4.0000000000546E-02  4.0000000000000E-02  4.0000000000000E-02  4.0000000000000E-02  4.0000000000000E-02  4.0000000000000E-02  4.0000000000000E-02  4.0000000000000E-02  4.0000000000000E-02  3.9999999999357E-02 
 2.9793018057442E-02  2.9792968125907E-02  2.9792918194372E-02  2.9792868262838E-02  2.9792818331303E-02  2.9792768399768E-02  2.9792718468233E-02  2.9792668536698E-02  2.9792618605163E-02  2.9792568673628E-02 
 2.9814999828310E+02  2.9814999995780E+02  2.9814999999712E+02  2.9815000000315E+02  2.9814999998407E+02  2.9815000000697E+02  2.9815000000205E+02  2.9814999999902E+02  2.9815000008298E+02  2.9815000446356E+02 
 8.0911499769706E-01  8.0911499769706E-01  8.0911499769706E-01  8.0911499769706E-01  8.0911499769706E-01  8.0911499769706E-01  8.0911499769706E-01  8.0911499769706E-01  8.0911499769706E-01  8.0911499769706E-01 
 2.6811111111111E-05  5.3622222222222E-05  5.3622222222222E-05  5.3622222222222E-05  5.3622222222222E-05  5.3622222222222E-05  5.3622222222222E-05  5.3622222222223E-05  5.3622222222222E-05  2.6811111111111E-05 
 1.9088500230294E-01  1.9088500230294E-01  1.9088500230294E-01  1.9088500230294E-01  1.9088500230294E-01  1.9088500230294E-01  1.9088500230294E-01  1.9088500230294E-01  1.9088500230294E-01  1.9088500230294E-01 
 1.1313113172718E-09  1.1313113149518E-09  1.1313113159707E-09  1.1313113164460E-09  1.1313113132609E-09  1.1313113971804E-09  1.1313113974502E-09  1.1313113132653E-09  1.1313113186888E-09  1.1313113243258E-09 
 2.8297263336736E-02  2.8297263376585E-02  2.8297263415357E-02  2.8297263416557E-02  2.8297263418742E-02  2.8297263418225E-02  2.8297263416021E-02  2.8297263418221E-02  2.8297263528505E-02  2.8297263634810E-02 
 2.8297263336736E-02  2.8297263376585E-02  2.8297263415357E-02  2.8297263416557E-02  2.8297263418742E-02  2.8297263418225E-02  2.8297263416021E-02  2.8297263418221E-02  2.8297263528505E-02  2.8297263634810E-02 
 0.0000000000000E+00  0.0000000000000E+00  0.0000000000000E+00  0.0000000000000E+00  0.0000000000000E+00  0.0000000000000E+00  0.0000000000000E+00  0.0000000000000E+00  0.0000000000000E+00  0.0000000000000E+00 
ZONE T = "SEP , 5.5000E-08", I = 10, SOLUTIONTIME = 5.500000E-08
ZONETYPE = ORDERED
DATAPACKING = BLOCK
STRANDID = 2
 7.8740000000000E-04  8.4102222222222E-04  8.9464444444444E-04  9.4826666666667E-04  1.0018888888889E-03  1.0555111111111E-03  1.1091333333333E-03  1.1627555555556E-03  1.2163777777778E-03  1.2700000000000E-03 
 2.1105704953970E-08  2.1105704953970E-08  2.1105704953970E-08  2.1105704953970E-08  2.1105704953970E-08  2.1105704953970E-08  2.1105704953970E-08  2.1105704953970E-08  2.1105704953970E-08  1.9933095595073E-08 
 9.1999999999850E-01  9.2000000000000E-01  9.2000000000000E-01  9.2000000000000E-01  9.2000000000000E-01  9.2000000000000E-01  9.2000000000000E-01  9.2000000000000E-01  9.2000000000000E-01  9.2000000000177E-01 
 4.0000000000750E-02  4.0000000000000E-02  4.0000000000000E-02  4.0000000000000E-02  4.0000000000000E-02  4.0000000000000E-02  4.0000000000000E-02  4.0000000000000E-02  4.0000000000000E-02  3.9999999999116E-02 
 4.0000000000750E-02  4.0000000000000E-02  4.0000000000000E-02  4.0000000000000E-02  4.0000000000000E-02  4.0000000000000E-02  4.0000000000000E-02  4.0000000000000E-02  4.0000000000000E-02  3.9999999999116E-02 
 2.9807947755730E-02  2.9807897811614E-02  2.9807847867498E-02  2.9807797923382E-02  2.9807747979266E-02  2.9807698035150E-02  2.9807648091034E-02  2.9807598146919E-02  2.9807548202803E-02  2.9807498258686E-02 
 2.9814999764952E+02  2.9814999993412E+02  2.9814999999239E+02  2.9815000000746E+02  2.9814999998301E+02  2.9815000000999E+02  2.9814999999642E+02  2.9815000000404E+02  2.9815000016397E+02  2.9815000619618E+02 
 8.0911499769706E-01  8.0911499769706E-01  8.0911499769706E-01  8.0911499769706E-01  8.0911499769706E-01  8.0911499769706E-01  8.0911499769706E-01  8.0911499769706E-01  8.0911499769706E-01  8.0911499769706E-01 
 2.6811111111111E-05  5.3622222222222E-05  5.3622222222222E-05  5.3622222222222E-05  5.3622222222222E-05  5.3622222222222E-05  5.3622222222222E-05  5.3622222222223E-05  5.3622222222222E-05  2.6811111111111E-05 
 1.9088500230294E-01  1.9088500230294E-01  1.9088500230294E-01  1.9088500230294E-01  1.9088500230294E-01  1.9088500230294E-01  1.9088500230294E-01  1.9088500230294E-01  1.9088500230294E-01  1.9088500230294E-01 
 1.5559841920361E-09  1.5559841905613E-09  1.5559841924288E-09  1.5559841929404E-09  1.5559841897577E-09  1.5559842736716E-09  1.5559842739387E-09  1.5559841898143E-09  1.5559841975139E-09  1.5559842053391E-09 
 2.8311524984282E-02  2.8311525040634E-02  2.8311525097211E-02  2.8311525099626E-02  2.8311525099788E-02  2.8311525099410E-02  2.8311525099233E-02  2.8311525103263E-02  2.8311525255005E-02  2.8311525400890E-02 
 2.8311524984282E-02  2.8311525040634E-02  2.8311525097211E-02  2.8311525099626E-02  2.8311525099788E-02  2.8311525099410E-02  2.8311525099233E-02  2.8311525103263E-02  2.8311525255005E-02  2.8311525400890E-02 
 0.0000000000000E+00  0.0000000000000E+00  0.0000000000000E+00  0.0000000000000E+00  0.0000000000000E+00  0.0000000000000E+00  0.0000000000000E+00  0.0000000000000E+00  0.0000000000000E+00  0.0000000000000E+00 
ZONE T = "SEP , 7.7500E-08", I = 10, SOLUTIONTIME = 7.750000E-08
ZONETYPE = ORDERED
DATAPACKING = BLOCK
STRANDID = 2
 7.8740000000000E-04  8.4102222222222E-04  8.9464444444444E-04  9.4826666666667E-04  1.0018888888889E-03  1.0555111111111E-03  1.1091333333333E-03  1.1627555555556E-03  1.2163777777778E-03  1.2700000000000E-03 
 2.1116364794969E-08  2.1116364794969E-08  2.1116364794969E-08  2.1116364794969E-08  2.1116364794969E-08  2.1116364794969E-08  2.1116364794969E-08  2.1116364794969E-08  2.1116364794969E-08  1.9943859256088E-08 
 9.1999999999789E-01  9.2000000000000E-01  9.2000000000000E-01  9.2000000000000E-01  9.2000000000000E-01  9.2000000000000E-01  9.2000000000000E-01  9.2000000000000E-01  9.2000000000000E-01  9.2000000000249E-01 
 4.0000000001055E-02  4.0000000000000E-02  4.0000000000000E-02  4.0000000000000E-02  4.0000000000000E-02  4.0000000000000E-02  4.0000000000000E-02  4.0000000000000E-02  4.0000000000000E-02  3.9999999998755E-02 
 4.0000000001055E-02  4.0000000000000E-02  4.0000000000000E-02  4.0000000000000E-02  4.0000000000000E-02  4.0000000000000E-02  4.0000000000000E-02  4.0000000000000E-02  4.0000000000000E-02  3.9999999998755E-02 
 2.9829972094474E-02  2.9829922131725E-02  2.9829872168974E-02  2.9829822206224E-02  2.9829772243474E-02  2.9829722280724E-02  2.9829672317974E-02  2.9829622355224E-02  2.9829572392473E-02  2.9829522429722E-02 
 2.9814999664066E+02  2.9814999987781E+02  2.9814999999224E+02  2.9815000000160E+02  2.9814999998301E+02  2.9815000001297E+02  2.9814999999995E+02  2.9815000001825E+02  2.9815000033419E+02  2.9815000892015E+02 
 8.0911499769706E-01  8.0911499769706E-01  8.0911499769706E-01  8.0911499769706E-01  8.0911499769706E-01  8.0911499769706E-01  8.0911499769706E-01  8.0911499769706E-01  8.0911499769706E-01  8.0911499769706E-01 
 2.6811111111111E-05  5.3622222222222E-05  5.3622222222222E-05  5.3622222222222E-05  5.3622222222222E-05  5.3622222222222E-05  5.3622222222222E-05  5.3622222222223E-05  5.3622222222222E-05  2.6811111111111E-05 
 1.9088500230294E-01  1.9088500230294E-01  1.9088500230294E-01  1.9088500230294E-01  1.9088500230294E-01  1.9088500230294E-01  1.9088500230294E-01  1.9088500230294E-01  1.9088500230294E-01  1.9088500230294E-01 
 2.1934689300857E-09  2.1934689303567E-09  2.1934689340364E-09  2.1934689346638E-09  2.1934689314800E-09  2.1934690153787E-09  2.1934690156783E-09  2.1934689317265E-09  2.1934689443557E-09  2.1934689569351E-09 
 2.8332655024430E-02  2.8332655102014E-02  2.8332655182560E-02  2.8332655187708E-02  2.8332655187657E-02  2.8332655186985E-02  2.8332655188424E-02  2.8332655196098E-02  2.8332655415193E-02  2.8332655626489E-02 
 2.8332655024430E-02  2.8332655102014E-02  2.8332655182560E-02  2.8332655187708E-02  2.8332655187657E-02  2.8332655186985E-02  2.8332655188424E-02  2.8332655196098E-02  2.8332655415193E-02  2.8332655626489E-02 
 0.0000000000000E+00  0.0000000000000E+00  0.0000000000000E+00  0.0000000000000E+00  0.0000000000000E+00  0.0000000000000E+00  0.0000000000000E+00  0.0000000000000E+00  0.0000000000000E+00  0.0000000000000E+00 
ZONE T = "SEP , 1.1125E-07", I = 10, SOLUTIONTIME = 1.112500E-07
ZONETYPE = ORDERED
DATAPACKING = BLOCK
STRANDID = 2
 7.8740000000000E-04  8.4102222222222E-04  8.9464444444444E-04  9.4826666666667E-04  1.0018888888889E-03  1.0555111111111E-03  1.1091333333333E-03  1.1627555555556E-03  1.2163777777778E-03  1.2700000000000E-03 
 2.1127726769549E-08  2.1127296301131E-08  2.1127296301131E-08  2.1127296301131E-08  2.1127296301131E-08  2.1127296301131E-08  2.1127296301131E-08  2.1127296301131E-08  2.1127296301131E-08  1.9953814725166E-08 
 9.1999999999698E-01  9.2000000000000E-01  9.2000000000000E-01  9.2000000000000E-01  9.2000000000000E-01  9.2000000000000E-01  9.2000000000000E-01  9.2000000000000E-01  9.2000000000000E-01  9.2000000000358E-01 
 4.0000000001512E-02  4.0000000000000E-02  4.0000000000000E-02  4.0000000000000E-02  4.0000000000000E-02  4.0000000000000E-02  4.0000000000000E-02  4.0000000000000E-02  4.0000000000000E-02  3.9999999998212E-02 
 4.0000000001512E-02  4.0000000000000E-02  4.0000000000000E-02  4.0000000000000E-02  4.0000000000000E-02  4.0000000000000E-02  4.0000000000000E-02  4.0000000000000E-02  4.0000000000000E-02  3.9999999998212E-02 
 2.9862183043031E-02  2.9862133052887E-02  2.9862083062744E-02  2.9862033072600E-02  2.9861983082456E-02  2.9861933092312E-02  2.9861883102168E-02  2.9861833112024E-02  2.9861783121880E-02  2.9861733131735E-02 
 2.9814999516823E+02  2.9814999973355E+02  2.9814999998399E+02  2.9814999999664E+02  2.9814999999072E+02  2.9815000001529E+02  2.9815000001272E+02  2.9815000003821E+02  2.9815000069290E+02  2.9815001313913E+02 
 8.0911499769706E-01  8.0911499769706E-01  8.0911499769706E-01  8.0911499769706E-01  8.0911499769706E-01  8.0911499769706E-01  8.0911499769706E-01  8.0911499769706E-01  8.0911499769706E-01  8.0911499769706E-01 
 2.6811111111111E-05  5.3622222222222E-05  5.3622222222222E-05  5.3622222222222E-05  5.3622222222222E-05  5.3622222222222E-05  5.3622222222222E-05  5.3622222222223E-05  5.3622222222222E-05  2.6811111111111E-05 
 1.9088500230294E-01  1.9088500230294E-01  1.9088500230294E-01  1.9088500230294E-01  1.9088500230294E-01  1.9088500230294E-01  1.9088500230294E-01  1.9088500230294E-01  1.9088500230294E-01  1.9088500230294E-01 
 3.1507448876286E-09  3.1507448917981E-09  3.1507448996304E-09  3.1507449004398E-09  3.1507448973021E-09  3.1507449812346E-09  3.1507449814981E-09  3.1507448981778E-09  3.1507449218582E-09  3.1507449449053E-09 
 2.8363732075344E-02  2.8363732190859E-02  2.8363732313896E-02  2.8363732319289E-02  2.8363732320654E-02  2.8363732321656E-02  2.8363732320588E-02  2.8363732339299E-02  2.8363732666741E-02  2.8363732976895E-02 
 2.8363732075344E-02  2.8363732190859E-02  2.8363732313896E-02  2.8363732319289E-02  2.8363732320654E-02  2.8363732321656E-02  2.8363732320588E-02  2.8363732339299E-02  2.8363732666741E-02  2.8363732976895E-02 
 0.0000000000000E+00  0.0000000000000E+00  0.0000000000000E+00  0.0000000000000E+00  0.0000000000000E+00  0.0000000000000E+00  0.0000000000000E+00  0.0000000000000E+00  0.0000000000000E+00  0.0000000000000E+00 
ZONE T = "SEP , 1.6188E-07", I = 10, SOLUTIONTIME = 1.618750E-07
ZONETYPE = ORDERED
DATAPACKING = BLOCK
STRANDID = 2
 7.8740000000000E-04  8.4102222222222E-04  8.9464444444444E-04  9.4826666666667E-04  1.0018888888889E-03  1.0555111111111E-03  1.1091333333333E-03  1.1627555555556E-03  1.2163777777778E-03  1.2700000000000E-03 
 2.1143399947770E-08  2.1143686926716E-08  2.1143686926716E-08  2.1143686926716E-08  2.1143686926716E-08  2.1143686926716E-08  2.1143686926716E-08  2.1143686926716E-08  2.1143686926716E-08  1.9969216538201E-08 
 9.1999999999561E-01  9.2000000000000E-01  9.2000000000000E-01  9.2000000000000E-01  9.2000000000000E-01  9.2000000000000E-01  9.2000000000000E-01  9.2000000000000E-01  9.2000000000000E-01  9.2000000000521E-01 
 4.0000000002195E-02  4.0000000000001E-02  4.0000000000000E-02  4.0000000000000E-02  4.0000000000000E-02  4.0000000000000E-02  4.0000000000000E-02  4.0000000000000E-02  3.9999999999999E-02  3.9999999997397E-02 
 4.0000000002195E-02  4.0000000000001E-02  4.0000000000000E-02  4.0000000000000E-02  4.0000000000000E-02  4.0000000000000E-02  4.0000000000000E-02  4.0000000000000E-02  3.9999999999999E-02  3.9999999997397E-02 
 2.9908693663324E-02  2.9908643633379E-02  2.9908593603434E-02  2.9908543573488E-02  2.9908493543543E-02  2.9908443513597E-02  2.9908393483651E-02  2.9908343453706E-02  2.9908293423760E-02  2.9908243393813E-02 
 2.9814999294411E+02  2.9814999947142E+02  2.9814999996784E+02  2.9814999999233E+02  2.9814999998782E+02  2.9815000001708E+02  2.9815000002609E+02  2.9815000009614E+02  2.9815000146141E+02  2.9815001968045E+02 
 8.0911499769706E-01  8.0911499769706E-01  8.0911499769706E-01  8.0911499769706E-01  8.0911499769706E-01  8.0911499769706E-01  8.0911499769706E-01  8.0911499769706E-01  8.0911499769706E-01  8.0911499769706E-01 
 2.6811111111111E-05  5.3622222222222E-05  5.3622222222222E-05  5.3622222222222E-05  5.3622222222222E-05  5.3622222222222E-05  5.3622222222222E-05  5.3622222222223E-05  5.3622222222222E-05  2.6811111111111E-05 
 1.9088500230294E-01  1.9088500230294E-01  1.9088500230294E-01  1.9088500230294E-01  1.9088500230294E-01  1.9088500230294E-01  1.9088500230294E-01  1.9088500230294E-01  1.9088500230294E-01  1.9088500230294E-01 
 4.5889462502224E-09  4.5889462628571E-09  4.5889462797231E-09  4.5889462811768E-09  4.5889462781846E-09  4.5889463621409E-09  4.5889463625621E-09  4.5889462811057E-09  4.5889463300800E-09  4.5889463767609E-09 
 2.8408915804322E-02  2.8408915971534E-02  2.8408916149979E-02  2.8408916162705E-02  2.8408916165580E-02  2.8408916166049E-02  2.8408916169164E-02  2.8408916205983E-02  2.8408916705615E-02  2.8408917172456E-02 
 2.8408915804322E-02  2.8408915971534E-02  2.8408916149979E-02  2.8408916162705E-02  2.8408916165580E-02  2.8408916166049E-02  2.8408916169164E-02  2.8408916205983E-02  2.8408916705615E-02  2.8408917172456E-02 
 0.0000000000000E+00  0.0000000000000E+00  0.0000000000000E+00  0.0000000000000E+00  0.0000000000000E+00  0.0000000000000E+00  0.0000000000000E+00  0.0000000000000E+00  0.0000000000000E+00  0.0000000000000E+00 
ZONE T = "SEP , 2.3781E-07", I = 10, SOLUTIONTIME = 2.378125E-07
ZONETYPE = ORDERED
DATAPACKING = BLOCK
STRANDID = 2
 7.8740000000000E-04  8.4102222222222E-04  8.9464444444444E-04  9.4826666666667E-04  1.0018888888889E-03  1.0555111111111E-03  1.1091333333333E-03  1.1627555555556E-03  1.2163777777778E-03  1.2700000000000E-03 
 2.1167907208717E-08  2.1167907208717E-08  2.1167907208717E-08  2.1167907208717E-08  2.1167907208717E-08  2.1167907208717E-08  2.1167907208717E-08  2.1167907208717E-08  2.1167811549069E-08  1.9991763929193E-08 
 9.1999999999358E-01  9.2000000000000E-01  9.2000000000000E-01  9.2000000000000E-01  9.2000000000000E-01  9.2000000000000E-01  9.2000000000000E-01  9.2000000000000E-01  9.2000000000000E-01  9.2000000000765E-01 
 4.0000000003212E-02  4.0000000000001E-02  4.0000000000000E-02  4.0000000000000E-02  4.0000000000000E-02  4.0000000000000E-02  4.0000000000000E-02  4.0000000000000E-02  3.9999999999998E-02  3.9999999996173E-02 
 4.0000000003212E-02  4.0000000000001E-02  4.0000000000000E-02  4.0000000000000E-02  4.0000000000000E-02  4.0000000000000E-02  4.0000000000000E-02  4.0000000000000E-02  3.9999999999998E-02  3.9999999996173E-02 
 2.9974640713008E-02  2.9974590626235E-02  2.9974540539462E-02  2.9974490452687E-02  2.9974440365913E-02  2.9974390279139E-02  2.9974340192365E-02  2.9974290105591E-02  2.9974240018817E-02  2.9974189932040E-02 
 2.9814998952590E+02  2.9814999890364E+02  2.9814999990746E+02  2.9814999998642E+02  2.9814999998786E+02  2.9815000001745E+02  2.9815000003665E+02  2.9815000027114E+02  2.9815000308826E+02  2.9815002986713E+02 
 8.0911499769706E-01  8.0911499769706E-01  8.0911499769706E-01  8.0911499769706E-01  8.0911499769706E-01  8.0911499769706E-01  8.0911499769706E-01  8.0911499769706E-01  8.0911499769706E-01  8.0911499769706E-01 
 2.6811111111111E-05  5.3622222222222E-05  5.3622222222222E-05  5.3622222222222E-05  5.3622222222222E-05  5.3622222222222E-05  5.3622222222222E-05  5.3622222222223E-05  5.3622222222222E-05  2.6811111111111E-05 