TITLE = "Solution on Domain BulkDomain1D_0"
VARIABLES = "x [m]"  
"Vel_axial" 
"MF_sp(ECDMC)" 
"MF_sp(Li+)" 
"MF_sp(PF6-)" 
"Volt(Electroly)" 
"Volt(AnodeVolt)" 
"Temperature" 
"Potential Drop Electrode-Electrolyte [V]" 
"Surf_0 Equilibrium Potential Drop Electrode-Electrolyte [V]" 
"Overpotential_0 [V]" 
"Current Source [A/m^2]" 
"Li+ flux [kmol/m^2/s]" 
"Electrolyte Current [A/m^2]" 
"Electrode Current [A/m^2]" 
"CV Capacity discharged [A-s/m^2]" 
"Depth of discharge in CV [A-s/m^2]" 
"CV Capacity remaining [A-s/m^2]" 
"Initial CV capacity [A-s/m^2]" 
"Porosity []" 
"Surface Area [m2/m2] (area per area)" 
"Specific current (per particle area) [A/m^2]" 
"Control volume thickness [m]" 
"MoleDens Li_C6-bulk [kmol/m^3]" 
"MoleDens V_C6-bulk [kmol/m^3]" 
"qHeat_accum [J/m3]" 
"qHeat_step [W/m3]" 
"Joule_Lyte [W/m3]" 
"Joule_Solid [W/m3]" 
"electrodHeat [W/m3]" 
"OverpotHeat [W/m3]" 
"deltaSHeat [W/m3]" 

ZONE T = "ANOD, 0.0000E+00", I = 10, SOLUTIONTIME = 0.000000E+00
ZONETYPE = ORDERED
DATAPACKING = BLOCK
STRANDID = 1
 0.0000000000000E+00  8.7488888888889E-05  1.7497777777778E-04  2.6246666666667E-04  3.4995555555556E-04  4.3744444444444E-04  5.2493333333333E-04  6.1242222222222E-04  6.9991111111111E-04  7.8740000000000E-04 
 0.0000000000000E+00  0.0000000000000E+00  0.0000000000000E+00  0.0000000000000E+00  0.0000000000000E+00  0.0000000000000E+00  0.0000000000000E+00  0.0000000000000E+00  0.0000000000000E+00  0.0000000000000E+00 
 9.2000000000000E-01  9.2000000000000E-01  9.2000000000000E-01  9.2000000000000E-01  9.2000000000000E-01  9.2000000000000E-01  9.2000000000000E-01  9.2000000000000E-01  9.2000000000000E-01  9.2000000000000E-01 
 4.0000000000000E-02  4.0000000000000E-02  4.0000000000000E-02  4.0000000000000E-02  4.0000000000000E-02  4.0000000000000E-02  4.0000000000000E-02  4.0000000000000E-02  4.0000000000000E-02  4.0000000000000E-02 
 4.0000000000000E-02  4.0000000000000E-02  4.0000000000000E-02  4.0000000000000E-02  4.0000000000000E-02  4.0000000000000E-02  4.0000000000000E-02  4.0000000000000E-02  4.0000000000000E-02  4.0000000000000E-02 
-7.0000000000000E-02 -7.0000000000000E-02 -7.0000000000000E-02 -7.0000000000000E-02 -7.0000000000000E-02 -7.0000000000000E-02 -7.0000000000000E-02 -7.0000000000000E-02 -7.0000000000000E-02 -7.0000000000000E-02 
 0.0000000000000E+00  0.0000000000000E+00  0.0000000000000E+00  0.0000000000000E+00  0.0000000000000E+00  0.0000000000000E+00  0.0000000000000E+00  0.0000000000000E+00  0.0000000000000E+00  0.0000000000000E+00 
 3.0200000000000E+02  2.9815000000000E+02  2.9815000000000E+02  2.9815000000000E+02  2.9815000000000E+02  2.9815000000000E+02  2.9815000000000E+02  2.9815000000000E+02  2.9815000000000E+02  2.9815000000000E+02 
 7.0000000000000E-02  7.0000000000000E-02  7.0000000000000E-02  7.0000000000000E-02  7.0000000000000E-02  7.0000000000000E-02  7.0000000000000E-02  7.0000000000000E-02  7.0000000000000E-02  7.0000000000000E-02 
-4.3601490895275E-02 -4.0906712753390E-02 -4.0906712753390E-02 -4.0906712753390E-02 -4.0906712753390E-02 -4.0906712753390E-02 -4.0906712753390E-02 -4.0906712753390E-02 -4.0906712753390E-02 -4.0906712753390E-02 
 1.1360149089527E-01  1.1090671275339E-01  1.1090671275339E-01  1.1090671275339E-01  1.1090671275339E-01  1.1090671275339E-01  1.1090671275339E-01  1.1090671275339E-01  1.1090671275339E-01  1.1090671275339E-01 
 5.5837195716915E+01  6.1860481848017E+01  6.1860481848017E+01  6.1860481848017E+01  6.1860481848017E+01  6.1860481848017E+01  6.1860481848017E+01  6.1860481848017E+01  6.1860481848017E+01  3.0930240924008E+01 
-0.0000000000000E+00 -0.0000000000000E+00 -0.0000000000000E+00 -0.0000000000000E+00 -0.0000000000000E+00 -0.0000000000000E+00 -0.0000000000000E+00 -0.0000000000000E+00 -0.0000000000000E+00 -0.0000000000000E+00 
 0.0000000000000E+00  0.0000000000000E+00  0.0000000000000E+00  0.0000000000000E+00  0.0000000000000E+00  0.0000000000000E+00  0.0000000000000E+00  0.0000000000000E+00  0.0000000000000E+00  3.0930240924008E+01 
 5.5837195716915E+01 -0.0000000000000E+00 -0.0000000000000E+00 -0.0000000000000E+00 -0.0000000000000E+00 -0.0000000000000E+00 -0.0000000000000E+00 -0.0000000000000E+00 -0.0000000000000E+00  0.0000000000000E+00 
 0.0000000000000E+00  0.0000000000000E+00  0.0000000000000E+00  0.0000000000000E+00  0.0000000000000E+00  0.0000000000000E+00  0.0000000000000E+00  0.0000000000000E+00  0.0000000000000E+00  0.0000000000000E+00 
 4.5724222271641E+04  9.1448444543281E+04  9.1448444543281E+04  9.1448444543281E+04  9.1448444543281E+04  9.1448444543281E+04  9.1448444543281E+04  9.1448444543281E+04  9.1448444543281E+04  4.5724222271641E+04 
 3.3835924481014E+05  6.7671848962028E+05  6.7671848962028E+05  6.7671848962028E+05  6.7671848962028E+05  6.7671848962028E+05  6.7671848962028E+05  6.7671848962028E+05  6.7671848962028E+05  3.3835924481014E+05 
 3.8408346708178E+05  7.6816693416356E+05  7.6816693416356E+05  7.6816693416356E+05  7.6816693416356E+05  7.6816693416356E+05  7.6816693416356E+05  7.6816693416356E+05  7.6816693416356E+05  3.8408346708178E+05 
 3.5000000000000E-01  3.5000000000000E-01  3.5000000000000E-01  3.5000000000000E-01  3.5000000000000E-01  3.5000000000000E-01  3.5000000000000E-01  3.5000000000000E-01  3.5000000000000E-01  3.5000000000000E-01 
 8.5301666666667E+00  1.7060333333333E+01  1.7060333333333E+01  1.7060333333333E+01  1.7060333333333E+01  1.7060333333333E+01  1.7060333333333E+01  1.7060333333333E+01  1.7060333333333E+01  8.5301666666667E+00 
 6.5458504972839E+00  3.6259831879809E+00  3.6259831879809E+00  3.6259831879809E+00  3.6259831879809E+00  3.6259831879809E+00  3.6259831879809E+00  3.6259831879809E+00  3.6259831879809E+00  3.6259831879809E+00 
 4.3744444444444E-05  8.7488888888889E-05  8.7488888888889E-05  8.7488888888889E-05  8.7488888888889E-05  8.7488888888889E-05  8.7488888888889E-05  8.7488888888889E-05  8.7488888888889E-05  4.3744444444444E-05 
 8.6666666666667E+01  8.6666666666667E+01  8.6666666666667E+01  8.6666666666667E+01  8.6666666666667E+01  8.6666666666667E+01  8.6666666666667E+01  8.6666666666667E+01  8.6666666666667E+01  8.6666666666667E+01 
 2.1666666666667E+01  2.1666666666667E+01  2.1666666666667E+01  2.1666666666667E+01  2.1666666666667E+01  2.1666666666667E+01  2.1666666666667E+01  2.1666666666667E+01  2.1666666666667E+01  2.1666666666667E+01 
 0.0000000000000E+00  0.0000000000000E+00  0.0000000000000E+00  0.0000000000000E+00  0.0000000000000E+00  0.0000000000000E+00  0.0000000000000E+00  0.0000000000000E+00  0.0000000000000E+00  0.0000000000000E+00 
 0.0000000000000E+00  0.0000000000000E+00  0.0000000000000E+00  0.0000000000000E+00  0.0000000000000E+00  0.0000000000000E+00  0.0000000000000E+00  0.0000000000000E+00  0.0000000000000E+00  0.0000000000000E+00 
 0.0000000000000E+00  0.0000000000000E+00  0.0000000000000E+00  0.0000000000000E+00  0.0000000000000E+00  0.0000000000000E+00  0.0000000000000E+00  0.0000000000000E+00  0.0000000000000E+00  0.0000000000000E+00 
 0.0000000000000E+00  0.0000000000000E+00  0.0000000000000E+00  0.0000000000000E+00  0.0000000000000E+00  0.0000000000000E+00  0.0000000000000E+00  0.0000000000000E+00  0.0000000000000E+00  0.0000000000000E+00 
 0.0000000000000E+00  0.0000000000000E+00  0.0000000000000E+00  0.0000000000000E+00  0.0000000000000E+00  0.0000000000000E+00  0.0000000000000E+00  0.0000000000000E+00  0.0000000000000E+00  0.0000000000000E+00 
 0.0000000000000E+00  0.0000000000000E+00  0.0000000000000E+00  0.0000000000000E+00  0.0000000000000E+00  0.0000000000000E+00  0.0000000000000E+00  0.0000000000000E+00  0.0000000000000E+00  0.0000000000000E+00 
 0.0000000000000E+00  0.0000000000000E+00  0.0000000000000E+00  0.0000000000000E+00  0.0000000000000E+00  0.0000000000000E+00  0.0000000000000E+00  0.0000000000000E+00  0.0000000000000E+00  0.0000000000000E+00 
ZONE T = "ANOD, 1.0000E-08", I = 10, SOLUTIONTIME = 1.000000E-08
ZONETYPE = ORDERED
DATAPACKING = BLOCK
STRANDID = 1
 0.0000000000000E+00  8.7488888888889E-05  1.7497777777778E-04  2.6246666666667E-04  3.4995555555556E-04  4.3744444444444E-04  5.2493333333333E-04  6.1242222222222E-04  6.9991111111111E-04  7.8740000000000E-04 
 2.3825768877148E-09  4.6034387621759E-09  6.8020251328166E-09  9.0003475913192E-09  1.1198690360375E-08  1.3397063020685E-08  1.5595471782286E-08  1.7793922651580E-08  1.9992421761230E-08  2.1092969937147E-08 
 9.1999999999857E-01  9.1999999999933E-01  9.1999999999934E-01  9.1999999999934E-01  9.1999999999934E-01  9.1999999999934E-01  9.1999999999934E-01  9.1999999999934E-01  9.1999999999934E-01  9.1999999999973E-01 
 4.0000000000716E-02  4.0000000000334E-02  4.0000000000330E-02  4.0000000000330E-02  4.0000000000330E-02  4.0000000000330E-02  4.0000000000330E-02  4.0000000000330E-02  4.0000000000330E-02  4.0000000000137E-02 
 4.0000000000716E-02  4.0000000000334E-02  4.0000000000330E-02  4.0000000000330E-02  4.0000000000330E-02  4.0000000000330E-02  4.0000000000330E-02  4.0000000000330E-02  4.0000000000330E-02  4.0000000000137E-02 
 2.9764013386402E-02  2.9763980849234E-02  2.9763918381945E-02  2.9763826085711E-02  2.9763703959120E-02  2.9763552001784E-02  2.9763370213319E-02  2.9763158593226E-02  2.9762917140923E-02  2.9762645855789E-02 
 0.0000000000000E+00 -4.4980344967928E-09 -8.4621308740563E-09 -1.1897644593451E-08 -1.4804639104555E-08 -1.7183109524320E-08 -1.9033048666302E-08 -2.0354447851055E-08 -2.1147296955078E-08 -2.1411584380461E-08 
 3.0200000000000E+02  2.9819888179765E+02  2.9815061922100E+02  2.9815000638739E+02  2.9814999860420E+02  2.9814999843105E+02  2.9814999853138E+02  2.9814999846613E+02  2.9814999850704E+02  2.9814999956891E+02 
-2.9764013386402E-02 -2.9763985347268E-02 -2.9763926844075E-02 -2.9763837983355E-02 -2.9763718763759E-02 -2.9763569184893E-02 -2.9763389246367E-02 -2.9763178947674E-02 -2.9762938288220E-02 -2.9762667267373E-02 
-4.3601490894653E-02 -4.0940847919673E-02 -4.0907145155100E-02 -4.0906717213415E-02 -4.0906711778419E-02 -4.0906711657511E-02 -4.0906711727567E-02 -4.0906711682006E-02 -4.0906711710571E-02 -4.0906712452199E-02 
 1.3837477508252E-02  1.1176862572405E-02  1.1143218311024E-02  1.1142879230060E-02  1.1142993014660E-02  1.1143142472617E-02  1.1143322481200E-02  1.1143532734333E-02  1.1143773422351E-02  1.1144045184826E-02 
 3.4305956883596E+00  3.1982354618161E+00  3.1661567914417E+00  3.1657767352635E+00  3.1658059834772E+00  3.1658490293763E+00  3.1659010165270E+00  3.1659616544610E+00  3.1660311232469E+00  1.5830550143610E+00 
 1.7777855398072E-08  3.4351311424865E-08  5.0758668652857E-08  6.7164058239442E-08  8.3569609151002E-08  9.9975370759692E-08  1.1638140612230E-07  1.3278776249529E-07  1.4919452774096E-07  1.4919452774096E-07 
 0.0000000000000E+00  5.0296870632483E+00  8.2118649484556E+00  1.1377813979345E+01  1.4543588614321E+01  1.7709399142583E+01  2.0875256413202E+01  2.4041171069637E+01  2.7207149550085E+01  3.0373210230390E+01 
 3.0373221269031E+01  2.5343516586734E+01  2.2161337848718E+01  1.8995388387807E+01  1.5829614329737E+01  1.2663804124347E+01  9.4979464016768E+00  6.3320323654346E+00  3.1660532750194E+00  0.0000000000000E+00 
 3.4305956883596E-08  3.1982354618161E-08  3.1661567914417E-08  3.1657767352635E-08  3.1658059834772E-08  3.1658490293763E-08  3.1659010165270E-08  3.1659616544610E-08  3.1660311232469E-08  1.5830550143610E-08 
 4.5724222271675E+04  9.1448444543313E+04  9.1448444543313E+04  9.1448444543313E+04  9.1448444543313E+04  9.1448444543313E+04  9.1448444543313E+04  9.1448444543313E+04  9.1448444543313E+04  4.5724222271656E+04 
 3.3835924481011E+05  6.7671848962025E+05  6.7671848962025E+05  6.7671848962025E+05  6.7671848962025E+05  6.7671848962025E+05  6.7671848962025E+05  6.7671848962025E+05  6.7671848962025E+05  3.3835924481012E+05 
 3.8408346708178E+05  7.6816693416356E+05  7.6816693416356E+05  7.6816693416356E+05  7.6816693416356E+05  7.6816693416356E+05  7.6816693416356E+05  7.6816693416356E+05  7.6816693416356E+05  3.8408346708178E+05 
 3.5000000000000E-01  3.5000000000000E-01  3.5000000000000E-01  3.5000000000000E-01  3.5000000000000E-01  3.5000000000000E-01  3.5000000000000E-01  3.5000000000000E-01  3.5000000000000E-01  3.5000000000000E-01 
 8.5301666666667E+00  1.7060333333333E+01  1.7060333333333E+01  1.7060333333333E+01  1.7060333333333E+01  1.7060333333333E+01  1.7060333333333E+01  1.7060333333333E+01  1.7060333333333E+01  8.5301666666667E+00 
 4.0217217581051E-01  1.8746617661727E-01  1.8558586925471E-01  1.8556359207109E-01  1.8556530646982E-01  1.8556782962679E-01  1.8557087687972E-01  1.8557443120265E-01  1.8557850315040E-01  1.8558312823442E-01 
 4.3744444444444E-05  8.7488888888889E-05  8.7488888888889E-05  8.7488888888889E-05  8.7488888888889E-05  8.7488888888889E-05  8.7488888888889E-05  8.7488888888889E-05  8.7488888888889E-05  4.3744444444444E-05 
 8.6666666666659E+01  8.6666666666663E+01  8.6666666666663E+01  8.6666666666663E+01  8.6666666666663E+01  8.6666666666663E+01  8.6666666666663E+01  8.6666666666663E+01  8.6666666666663E+01  8.6666666666663E+01 
 2.1666666666675E+01  2.1666666666670E+01  2.1666666666670E+01  2.1666666666670E+01  2.1666666666670E+01  2.1666666666670E+01  2.1666666666670E+01  2.1666666666670E+01  2.1666666666670E+01  2.1666666666670E+01 
-1.5530974203480E-04 -7.2039874309192E-05 -7.1312784080554E-05 -7.1304070831122E-05 -7.1304599464150E-05 -7.1305406612374E-05 -7.1306382212337E-05 -7.1307519678364E-05 -7.1308823088273E-05 -7.1310409740575E-05 
-1.5530974203480E+04 -7.2039874309192E+03 -7.1312784080554E+03 -7.1304070831122E+03 -7.1304599464150E+03 -7.1305406612374E+03 -7.1306382212337E+03 -7.1307519678364E+03 -7.1308823088273E+03 -7.1310409740575E+03 
 1.2758341690607E-03  3.0044054893401E-03  7.5330619622974E-03  1.4212552641918E-02  2.3050828915572E-02  3.4048082184995E-02  4.7204429913932E-02  6.2520022207505E-02  7.9995013368299E-02  8.9272377441746E-02 
 1.3851914321365E-03  1.2305218533999E-03  9.4195985688580E-04  6.9331655177393E-04  4.8293829236824E-04  3.1080730183261E-04  1.7692446357634E-04  8.1291286505470E-05  2.3909706794038E-05  4.7820843615190E-06 
-1.5530976864505E+04 -7.2039916658465E+03 -7.1312868830772E+03 -7.1304219889814E+03 -7.1304834801822E+03 -7.1305750201269E+03 -7.1306856025880E+03 -7.1308145691499E+03 -7.1309623277504E+03 -7.1311302512170E+03 
 1.0851844452949E+03  4.0858032014779E+02  4.0326465203423E+02  4.0320397571680E+02  4.0321181819017E+02  4.0322270896149E+02  4.0323584422467E+02  4.0325117601624E+02  4.0326873428527E+02  4.0328861948738E+02 
-1.6616161309800E+04 -7.6125719859943E+03 -7.5345515351115E+03 -7.5336259646982E+03 -7.5336952983724E+03 -7.5337977290884E+03 -7.5339214468127E+03 -7.5340657451661E+03 -7.5342310620357E+03 -7.5344188707044E+03 
ZONE T = "ANOD, 2.0000E-08", I = 10, SOLUTIONTIME = 2.000000E-08
ZONETYPE = ORDERED
DATAPACKING = BLOCK
STRANDID = 1
 0.0000000000000E+00  8.7488888888889E-05  1.7497777777778E-04  2.6246666666667E-04  3.4995555555556E-04  4.3744444444444E-04  5.2493333333333E-04  6.1242222222222E-04  6.9991111111111E-04  7.8740000000000E-04 
 2.3800683250403E-09  4.6210764083158E-09  6.8181890221440E-09  9.0141292878653E-09  1.1208989808616E-08  1.3403516864754E-08  1.5598806459458E-08  1.7794138132873E-08  1.9989518119522E-08  2.1086509322831E-08 
 9.1999999999714E-01  9.1999999999866E-01  9.1999999999868E-01  9.1999999999868E-01  9.1999999999868E-01  9.1999999999868E-01  9.1999999999868E-01  9.1999999999868E-01  9.1999999999868E-01  9.1999999999945E-01 
 4.0000000001431E-02  4.0000000000670E-02  4.0000000000660E-02  4.0000000000660E-02  4.0000000000660E-02  4.0000000000660E-02  4.0000000000660E-02  4.0000000000660E-02  4.0000000000660E-02  4.0000000000273E-02 
 4.0000000001431E-02  4.0000000000670E-02  4.0000000000660E-02  4.0000000000660E-02  4.0000000000660E-02  4.0000000000660E-02  4.0000000000660E-02  4.0000000000660E-02  4.0000000000660E-02  4.0000000000273E-02 
 2.9774200220490E-02  2.9774167705093E-02  2.9774104983451E-02  2.9774012457826E-02  2.9773890129424E-02  2.9773737997835E-02  2.9773556062650E-02  2.9773344323377E-02  2.9773102779446E-02  2.9772831430200E-02 
 0.0000000000000E+00 -4.4993547232741E-09 -8.4599277890333E-09 -1.1892272516546E-08 -1.4796583438799E-08 -1.7172858180878E-08 -1.9021089591964E-08 -2.0341268987363E-08 -2.1133386250539E-08 -2.1397429766058E-08 
 3.0200000000000E+02  2.9824653798099E+02  2.9815182809641E+02  2.9815002812860E+02  2.9814999754420E+02  2.9814999697409E+02  2.9814999706300E+02  2.9814999688684E+02  2.9814999705235E+02  2.9814999908972E+02 
-2.9774200220490E-02 -2.9774172204448E-02 -2.9774113443379E-02 -2.9774024350098E-02 -2.9773904926008E-02 -2.9773755170694E-02 -2.9773575083739E-02 -2.9773364664646E-02 -2.9773123912832E-02 -2.9772852827630E-02 
-4.3601490894030E-02 -4.0974129183188E-02 -4.0907989313394E-02 -4.0906732395018E-02 -4.0906711037938E-02 -4.0906710639830E-02 -4.0906710701914E-02 -4.0906710578905E-02 -4.0906710694479E-02 -4.0906712117420E-02 
 1.3827290673540E-02  1.1199956978740E-02  1.1133875870015E-02  1.1132708044919E-02  1.1132806111930E-02  1.1132955469137E-02  1.1133135618175E-02  1.1133345914259E-02  1.1133586781647E-02  1.1133859289790E-02 
 3.4280110053446E+00  3.2272301328207E+00  3.1640171609432E+00  3.1628519343648E+00  3.1628661597598E+00  3.1629089922040E+00  3.1629610123795E+00  3.1630216091267E+00  3.1630911840192E+00  1.5815853748362E+00 
 1.7764683105829E-08  3.4488358857326E-08  5.0884718189062E-08  6.7275042561772E-08  8.3665440705671E-08  1.0005606081331E-07  1.1644695049928E-07  1.3283815420911E-07  1.4922985519131E-07  1.4922985519131E-07 
 0.0000000000000E+00  5.0416260718794E+00  8.2372497190695E+00  1.1400684266786E+01  1.4563543313864E+01  1.7726430889720E+01  2.0889365892027E+01  2.4052357203018E+01  2.7215413599375E+01  3.0378544566085E+01 
 3.0378544566222E+01  2.5336918494285E+01  2.2141294847209E+01  1.8977860299538E+01  1.5815001252458E+01  1.2652113676444E+01  9.4891786741234E+00  6.3261873633777E+00  3.1631309668318E+00  0.0000000000000E+00 
 6.8586066937042E-08  6.4254655946368E-08  6.3301739523850E-08  6.3286286696284E-08  6.3286721432370E-08  6.3287580215803E-08  6.3288620289065E-08  6.3289832635877E-08  6.3291223072661E-08  3.1646403891972E-08 
 4.5724222271709E+04  9.1448444543345E+04  9.1448444543345E+04  9.1448444543345E+04  9.1448444543345E+04  9.1448444543344E+04  9.1448444543344E+04  9.1448444543345E+04  9.1448444543345E+04  4.5724222271672E+04 
 3.3835924481007E+05  6.7671848962022E+05  6.7671848962022E+05  6.7671848962022E+05  6.7671848962022E+05  6.7671848962022E+05  6.7671848962022E+05  6.7671848962022E+05  6.7671848962022E+05  3.3835924481011E+05 
 3.8408346708178E+05  7.6816693416356E+05  7.6816693416356E+05  7.6816693416356E+05  7.6816693416356E+05  7.6816693416356E+05  7.6816693416356E+05  7.6816693416356E+05  7.6816693416356E+05  3.8408346708178E+05 
 3.5000000000000E-01  3.5000000000000E-01  3.5000000000000E-01  3.5000000000000E-01  3.5000000000000E-01  3.5000000000000E-01  3.5000000000000E-01  3.5000000000000E-01  3.5000000000000E-01  3.5000000000000E-01 
 8.5301666666667E+00  1.7060333333333E+01  1.7060333333333E+01  1.7060333333333E+01  1.7060333333333E+01  1.7060333333333E+01  1.7060333333333E+01  1.7060333333333E+01  1.7060333333333E+01  8.5301666666667E+00 
 4.0186917082643E-01  1.8916571380907E-01  1.8546045373927E-01  1.8539215339861E-01  1.8539298722728E-01  1.8539549787249E-01  1.8539854706119E-01  1.8540209896993E-01  1.8540617713717E-01  1.8541084091787E-01 
 4.3744444444444E-05  8.7488888888889E-05  8.7488888888889E-05  8.7488888888889E-05  8.7488888888889E-05  8.7488888888889E-05  8.7488888888889E-05  8.7488888888889E-05  8.7488888888889E-05  4.3744444444444E-05 
 8.6666666666650E+01  8.6666666666659E+01  8.6666666666659E+01  8.6666666666659E+01  8.6666666666659E+01  8.6666666666659E+01  8.6666666666659E+01  8.6666666666659E+01  8.6666666666659E+01  8.6666666666659E+01 
 2.1666666666683E+01  2.1666666666674E+01  2.1666666666674E+01  2.1666666666674E+01  2.1666666666674E+01  2.1666666666674E+01  2.1666666666674E+01  2.1666666666674E+01  2.1666666666674E+01  2.1666666666674E+01 
-3.1051045329067E-04 -1.4474109508009E-04 -1.4258117135295E-04 -1.4254594903398E-04 -1.4254666574554E-04 -1.4254827520635E-04 -1.4255022722930E-04 -1.4255250137463E-04 -1.4255511081826E-04 -1.4255829929969E-04 
-1.5520071125588E+04 -7.2701220770901E+03 -7.1268387272395E+03 -7.1241878202855E+03 -7.1242066281393E+03 -7.1242868593975E+03 -7.1243845016963E+03 -7.1244981696269E+03 -7.1246287729986E+03 -7.1247889559117E+03 
 2.5498603688064E-03  6.0270224073079E-03  1.5110942319324E-02  2.8480729086933E-02  4.6163716498408E-02  6.8160668932276E-02  9.4471828634059E-02  1.2509748810397E-01  1.6003796841822E-01  1.7858695504785E-01 
 2.7711961238396E-03  2.4604945378843E-03  1.8822188800317E-03  1.3853542127648E-03  9.6498534913763E-04  6.2104103131550E-04  3.5352243285716E-04  1.6243256385554E-04  4.7775294904349E-05  9.5553460609988E-06 
-1.5520073785619E+04 -7.2701263296797E+03 -7.1268472453788E+03 -7.1242027804996E+03 -7.1242302230740E+03 -7.1243212822180E+03 -7.1244319456930E+03 -7.1245608282341E+03 -7.1247088398192E+03 -7.1248782752625E+03 
 1.0835685583980E+03  4.1313633202824E+02  4.0265426579996E+02  4.0246375994077E+02  4.0246911536367E+02  4.0247996529628E+02  4.0249309773739E+02  4.0250841171476E+02  4.0252597379463E+02  4.0254595165150E+02 
-1.6603642344017E+04 -7.6832626617079E+03 -7.5295015111788E+03 -7.5266665404404E+03 -7.5266993384376E+03 -7.5268012475143E+03 -7.5269250434304E+03 -7.5270692399489E+03 -7.5272348136138E+03 -7.5274242269140E+03 
ZONE T = "ANOD, 3.0000E-08", I = 10, SOLUTIONTIME = 3.000000E-08
ZONETYPE = ORDERED
DATAPACKING = BLOCK
STRANDID = 1
 0.0000000000000E+00  8.7488888888889E-05  1.7497777777778E-04  2.6246666666667E-04  3.4995555555556E-04  4.3744444444444E-04  5.2493333333333E-04  6.1242222222222E-04  6.9991111111111E-04  7.8740000000000E-04 
 2.3786476408900E-09  4.6394108248568E-09  6.8353066281459E-09  9.0299647384368E-09  1.1224612511941E-08  1.3419652879605E-08  1.5614002944191E-08  1.7808395171739E-08  2.0002835748566E-08  2.1099720656122E-08 
 9.1999999999571E-01  9.1999999999798E-01  9.1999999999802E-01  9.1999999999802E-01  9.1999999999802E-01  9.1999999999802E-01  9.1999999999802E-01  9.1999999999802E-01  9.1999999999802E-01  9.1999999999918E-01 
 4.0000000002146E-02  4.0000000001010E-02  4.0000000000990E-02  4.0000000000990E-02  4.0000000000990E-02  4.0000000000990E-02  4.0000000000990E-02  4.0000000000990E-02  4.0000000000990E-02  4.0000000000410E-02 
 4.0000000002146E-02  4.0000000001010E-02  4.0000000000990E-02  4.0000000000990E-02  4.0000000000990E-02  4.0000000000990E-02  4.0000000000990E-02  4.0000000000990E-02  4.0000000000990E-02  4.0000000000410E-02 
 2.9784325545735E-02  2.9784293052190E-02  2.9784230081552E-02  2.9784137328293E-02  2.9784014799787E-02  2.9783862495632E-02  2.9783680415417E-02  2.9783468558649E-02  2.9783226924756E-02  2.9782955513082E-02 
 0.0000000000000E+00 -4.5006458280500E-09 -8.4577604905516E-09 -1.1886939359579E-08 -1.4788567322609E-08 -1.7162646864804E-08 -1.9009170921100E-08 -2.0328130809381E-08 -2.1119516392858E-08 -2.1383316047428E-08 
 3.0200000000000E+02  2.9829300662590E+02  2.9815359679235E+02  2.9815007172523E+02  2.9814999700031E+02  2.9814999557934E+02  2.9814999558416E+02  2.9814999554343E+02  2.9814999575239E+02  2.9814999864623E+02 
-2.9784325545735E-02 -2.9784297552836E-02 -2.9784238539312E-02 -2.9784149215232E-02 -2.9784029588354E-02 -2.9783879658279E-02 -2.9783699424588E-02 -2.9783488886779E-02 -2.9783248044273E-02 -2.9782976896398E-02 
-4.3601490893401E-02 -4.1006582986787E-02 -4.0909224397036E-02 -4.0906762838239E-02 -4.0906710657860E-02 -4.0906709665587E-02 -4.0906709668953E-02 -4.0906709640518E-02 -4.0906709786438E-02 -4.0906711807575E-02 
 1.3817165347667E-02  1.1222285433951E-02  1.1124985857724E-02  1.1122613623007E-02  1.1122681069506E-02  1.1122830007308E-02  1.1123010244365E-02  1.1123220753739E-02  1.1123461742165E-02  1.1123734911177E-02 
 3.4254420589558E+00  3.2556790516494E+00  3.1622648568613E+00  3.1599594323128E+00  3.1599445465508E+00  3.1599868653315E+00  3.1600388700180E+00  3.1600995880649E+00  3.1601692148537E+00  1.5801246803420E+00 
 1.7751502951732E-08  3.4622475803176E-08  5.1009751094785E-08  6.7385086048286E-08  8.3760343996226E-08  1.0013582125439E-07  1.1651156800235E-07  1.3288762940813E-07  1.4926425661707E-07  1.4926425661707E-07 
 0.0000000000000E+00  5.0532815848236E+00  8.2622535391361E+00  1.1423365683581E+01  1.4583317672975E+01  1.7743283379070E+01  2.0903296246613E+01  2.4063365475767E+01  2.7223499877112E+01  3.0383709164616E+01 
 3.0383709164916E+01  2.5330427580136E+01  2.2121455625875E+01  1.8960343481280E+01  1.5800391491860E+01  1.2640425785936E+01  9.4804129182614E+00  6.3203436892246E+00  3.1602092877706E+00  0.0000000000000E+00 
 1.0284048752660E-07  9.6811446462862E-08  9.4924388092463E-08  9.4885881019411E-08  9.4886166897878E-08  9.4887448869117E-08  9.4889008989245E-08  9.4890828516526E-08  9.4892915221199E-08  4.7447650695392E-08 
 4.5724222271743E+04  9.1448444543378E+04  9.1448444543376E+04  9.1448444543376E+04  9.1448444543376E+04  9.1448444543376E+04  9.1448444543376E+04  9.1448444543376E+04  9.1448444543376E+04  4.5724222271688E+04 
 3.3835924481004E+05  6.7671848962018E+05  6.7671848962019E+05  6.7671848962019E+05  6.7671848962019E+05  6.7671848962019E+05  6.7671848962019E+05  6.7671848962019E+05  6.7671848962019E+05  3.3835924481009E+05 
 3.8408346708178E+05  7.6816693416356E+05  7.6816693416356E+05  7.6816693416356E+05  7.6816693416356E+05  7.6816693416356E+05  7.6816693416356E+05  7.6816693416356E+05  7.6816693416356E+05  3.8408346708178E+05 
 3.5000000000000E-01  3.5000000000000E-01  3.5000000000000E-01  3.5000000000000E-01  3.5000000000000E-01  3.5000000000000E-01  3.5000000000000E-01  3.5000000000000E-01  3.5000000000000E-01  3.5000000000000E-01 
 8.5301666666667E+00  1.7060333333333E+01  1.7060333333333E+01  1.7060333333333E+01  1.7060333333333E+01  1.7060333333333E+01  1.7060333333333E+01  1.7060333333333E+01  1.7060333333333E+01  8.5301666666667E+00 
 4.0156801066283E-01  1.9083326146320E-01  1.8535774155612E-01  1.8522260793924E-01  1.8522173540283E-01  1.8522421593940E-01  1.8522726422020E-01  1.8523082323899E-01  1.8523490444816E-01  1.8523960223622E-01 
 4.3744444444444E-05  8.7488888888889E-05  8.7488888888889E-05  8.7488888888889E-05  8.7488888888889E-05  8.7488888888889E-05  8.7488888888889E-05  8.7488888888889E-05  8.7488888888889E-05  4.3744444444444E-05 
 8.6666666666642E+01  8.6666666666655E+01  8.6666666666655E+01  8.6666666666655E+01  8.6666666666655E+01  8.6666666666655E+01  8.6666666666655E+01  8.6666666666655E+01  8.6666666666655E+01  8.6666666666655E+01 
 2.1666666666691E+01  2.1666666666678E+01  2.1666666666678E+01  2.1666666666678E+01  2.1666666666678E+01  2.1666666666678E+01  2.1666666666678E+01  2.1666666666678E+01  2.1666666666678E+01  2.1666666666678E+01 
-4.6560278606598E-04 -2.1809137915682E-04 -2.1381391097198E-04 -2.1372633515570E-04 -2.1372658004414E-04 -2.1372898017874E-04 -2.1373190834966E-04 -2.1373532207148E-04 -2.1373923894527E-04 -2.1374404262122E-04 
-1.5509233277531E+04 -7.3350284076732E+03 -7.1232739619035E+03 -7.1180386121723E+03 -7.1179914298599E+03 -7.1180704972391E+03 -7.1181681120361E+03 -7.1182820696846E+03 -7.1184128127011E+03 -7.1185743321532E+03 
 3.8220762595408E-03  9.0675183046889E-03  2.2733170715864E-02  4.2804185735817E-02  6.9338183236851E-02  1.0233713802679E-01  1.4180143305646E-01  1.8773150354899E-01  2.4012783756959E-01  2.6794263418450E-01 
 4.1579963669652E-03  3.6899276341490E-03  2.8207969274062E-03  2.0761150243100E-03  1.4461421961731E-03  9.3070184339007E-04  5.2979428240919E-04  2.4342400480380E-04  7.1596814687559E-05  1.4319795011559E-05 
-1.5509235936547E+04 -7.3350326776022E+03 -7.1232825227099E+03 -7.1180536263898E+03 -7.1180150854834E+03 -7.1181049833690E+03 -7.1182156179124E+03 -7.1183447846915E+03 -7.1184929263918E+03 -7.1186636925968E+03 
 1.0819636623605E+03  4.1760913944235E+02  4.0210993942679E+02  4.0173110296665E+02  4.0173164656275E+02  4.0174240609817E+02  4.0175552771176E+02  4.0177085077804E+02  4.0178840773148E+02  4.0180846491703E+02 
-1.6591199598908E+04 -7.7526418170446E+03 -7.5253924621367E+03 -7.5197847293564E+03 -7.5197467320462E+03 -7.5198473894671E+03 -7.5199711456242E+03 -7.5201156354695E+03 -7.5202813341233E+03 -7.5204721575138E+03 
ZONE T = "ANOD, 4.0000E-08", I = 10, SOLUTIONTIME = 4.000000E-08
ZONETYPE = ORDERED
DATAPACKING = BLOCK
STRANDID = 1
 0.0000000000000E+00  8.7488888888889E-05  1.7497777777778E-04  2.6246666666667E-04  3.4995555555556E-04  4.3744444444444E-04  5.2493333333333E-04  6.1242222222222E-04  6.9991111111111E-04  7.8740000000000E-04 
 2.3768746459289E-09  4.6570195344179E-09  6.8519541033278E-09  9.0442656381122E-09  1.1236534199569E-08  1.3428831406575E-08  1.5621164727794E-08  1.7813540226053E-08  2.0005964093474E-08  2.1103838515936E-08 
 9.1999999999428E-01  9.1999999999730E-01  9.1999999999736E-01  9.1999999999736E-01  9.1999999999736E-01  9.1999999999736E-01  9.1999999999736E-01  9.1999999999736E-01  9.1999999999736E-01  9.1999999999891E-01 
 4.0000000002860E-02  4.0000000001352E-02  4.0000000001320E-02  4.0000000001319E-02  4.0000000001319E-02  4.0000000001319E-02  4.0000000001319E-02  4.0000000001319E-02  4.0000000001319E-02  4.0000000000546E-02 
 4.0000000002860E-02  4.0000000001352E-02  4.0000000001320E-02  4.0000000001319E-02  4.0000000001319E-02  4.0000000001319E-02  4.0000000001319E-02  4.0000000001319E-02  4.0000000001319E-02  4.0000000000546E-02 
 2.9794389526665E-02  2.9794357054889E-02  2.9794293840201E-02  2.9794200860671E-02  2.9794078133163E-02  2.9793925657379E-02  2.9793743432900E-02  2.9793531459236E-02  2.9793289735814E-02  2.9793018261976E-02 
 0.0000000000000E+00 -4.5019311201598E-09 -8.4556713383935E-09 -1.1881706862477E-08 -1.4780668320511E-08 -1.7152566044115E-08 -1.8997393146345E-08 -2.0315140944646E-08 -2.1105799298843E-08 -2.1369356580054E-08 