TITLE = "Solution on Domain BulkDomain1D_0"
VARIABLES = "x [m]"  
"Vel_axial" 
"MF_sp(ECDMC)" 
"MF_sp(Li+)" 
"MF_sp(PF6-)" 
"Volt(Electroly)" 
"Volt(AnodeVolt)" 
"Temperature" 
"Potential Drop Electrode-Electrolyte [V]" 
"Surf_0 Equilibrium Potential Drop Electrode-Electrolyte [V]" 
"Overpotential_0 [V]" 
"Current Source [A/m^2]" 
"Li+ flux [kmol/m^2/s]" 
"Electrolyte Current [A/m^2]" 
"Electrode Current [A/m^2]" 
"CV Capacity discharged [A-s/m^2]" 
"Depth of discharge in CV [A-s/m^2]" 
"CV Capacity remaining [A-s/m^2]" 
"Initial CV capacity [A-s/m^2]" 
"Porosity []" 
"Surface Area [m2/m2] (area per area)" 
"Specific current (per particle area) [A/m^2]" 
"Control volume thickness [m]" 
"MoleDens Li_C6-bulk [kmol/m^3]" 
"MoleDens V_C6-bulk [kmol/m^3]" 
"qHeat_accum [J/m3]" 
"qHeat_step [W/m3]" 
"Joule_Lyte [W/m3]" 
"Joule_Solid [W/m3]" 
"electrodHeat [W/m3]" 
"OverpotHeat [W/m3]" 
"deltaSHeat [W/m3]" 

ZONE T = "ANOD, 0.0000E+00", I = 10, SOLUTIONTIME = 0.000000E+00
ZONETYPE = ORDERED
DATAPACKING = BLOCK
STRANDID = 1
 0.0000000000000E+00  8.7488888888889E-05  1.7497777777778E-04  2.6246666666667E-04  3.4995555555556E-04  4.3744444444444E-04  5.2493333333333E-04  6.1242222222222E-04  6.9991111111111E-04  7.8740000000000E-04 
 0.0000000000000E+00  0.0000000000000E+00  0.0000000000000E+00  0.0000000000000E+00  0.0000000000000E+00  0.0000000000000E+00  0.0000000000000E+00  0.0000000000000E+00  0.0000000000000E+00  0.0000000000000E+00 
 9.2000000000000E-01  9.2000000000000E-01  9.2000000000000E-01  9.2000000000000E-01  9.2000000000000E-01  9.2000000000000E-01  9.2000000000000E-01  9.2000000000000E-01  9.2000000000000E-01  9.2000000000000E-01 
 4.0000000000000E-02  4.0000000000000E-02  4.0000000000000E-02  4.0000000000000E-02  4.0000000000000E-02  4.0000000000000E-02  4.0000000000000E-02  4.0000000000000E-02  4.0000000000000E-02  4.0000000000000E-02 
 4.0000000000000E-02  4.0000000000000E-02  4.0000000000000E-02  4.0000000000000E-02  4.0000000000000E-02  4.0000000000000E-02  4.0000000000000E-02  4.0000000000000E-02  4.0000000000000E-02  4.0000000000000E-02 
-7.0000000000000E-02 -7.0000000000000E-02 -7.0000000000000E-02 -7.0000000000000E-02 -7.0000000000000E-02 -7.0000000000000E-02 -7.0000000000000E-02 -7.0000000000000E-02 -7.0000000000000E-02 -7.0000000000000E-02 
 0.0000000000000E+00  0.0000000000000E+00  0.0000000000000E+00  0.0000000000000E+00  0.0000000000000E+00  0.0000000000000E+00  0.0000000000000E+00  0.0000000000000E+00  0.0000000000000E+00  0.0000000000000E+00 
 3.0200000000000E+02  2.9815000000000E+02  2.9815000000000E+02  2.9815000000000E+02  2.9815000000000E+02  2.9815000000000E+02  2.9815000000000E+02  2.9815000000000E+02  2.9815000000000E+02  2.9815000000000E+02 
 7.0000000000000E-02  7.0000000000000E-02  7.0000000000000E-02  7.0000000000000E-02  7.0000000000000E-02  7.0000000000000E-02  7.0000000000000E-02  7.0000000000000E-02  7.0000000000000E-02  7.0000000000000E-02 
-4.3601490895275E-02 -4.0906712753391E-02 -4.0906712753391E-02 -4.0906712753391E-02 -4.0906712753391E-02 -4.0906712753391E-02 -4.0906712753391E-02 -4.0906712753391E-02 -4.0906712753391E-02 -4.0906712753391E-02 
 1.1360149089528E-01  1.1090671275339E-01  1.1090671275339E-01  1.1090671275339E-01  1.1090671275339E-01  1.1090671275339E-01  1.1090671275339E-01  1.1090671275339E-01  1.1090671275339E-01  1.1090671275339E-01 
 5.5837195716915E+01  6.1860481848017E+01  6.1860481848017E+01  6.1860481848017E+01  6.1860481848017E+01  6.1860481848017E+01  6.1860481848017E+01  6.1860481848017E+01  6.1860481848017E+01  3.0930240924008E+01 
-0.0000000000000E+00 -0.0000000000000E+00 -0.0000000000000E+00 -0.0000000000000E+00 -0.0000000000000E+00 -0.0000000000000E+00 -0.0000000000000E+00 -0.0000000000000E+00 -0.0000000000000E+00 -0.0000000000000E+00 
 0.0000000000000E+00  0.0000000000000E+00  0.0000000000000E+00  0.0000000000000E+00  0.0000000000000E+00  0.0000000000000E+00  0.0000000000000E+00  0.0000000000000E+00  0.0000000000000E+00  3.0930240924008E+01 
 5.5837195716915E+01 -0.0000000000000E+00 -0.0000000000000E+00 -0.0000000000000E+00 -0.0000000000000E+00 -0.0000000000000E+00 -0.0000000000000E+00 -0.0000000000000E+00 -0.0000000000000E+00  0.0000000000000E+00 
 0.0000000000000E+00  0.0000000000000E+00  0.0000000000000E+00  0.0000000000000E+00  0.0000000000000E+00  0.0000000000000E+00  0.0000000000000E+00  0.0000000000000E+00  0.0000000000000E+00  0.0000000000000E+00 
 4.5724222271641E+04  9.1448444543281E+04  9.1448444543281E+04  9.1448444543281E+04  9.1448444543281E+04  9.1448444543281E+04  9.1448444543281E+04  9.1448444543281E+04  9.1448444543281E+04  4.5724222271641E+04 
 3.3835924481014E+05  6.7671848962028E+05  6.7671848962028E+05  6.7671848962028E+05  6.7671848962028E+05  6.7671848962028E+05  6.7671848962028E+05  6.7671848962028E+05  6.7671848962028E+05  3.3835924481014E+05 
 3.8408346708178E+05  7.6816693416356E+05  7.6816693416356E+05  7.6816693416356E+05  7.6816693416356E+05  7.6816693416356E+05  7.6816693416356E+05  7.6816693416356E+05  7.6816693416356E+05  3.8408346708178E+05 
 3.5000000000000E-01  3.5000000000000E-01  3.5000000000000E-01  3.5000000000000E-01  3.5000000000000E-01  3.5000000000000E-01  3.5000000000000E-01  3.5000000000000E-01  3.5000000000000E-01  3.5000000000000E-01 
 8.5301666666667E+00  1.7060333333333E+01  1.7060333333333E+01  1.7060333333333E+01  1.7060333333333E+01  1.7060333333333E+01  1.7060333333333E+01  1.7060333333333E+01  1.7060333333333E+01  8.5301666666667E+00 
 6.5458504972839E+00  3.6259831879809E+00  3.6259831879809E+00  3.6259831879809E+00  3.6259831879809E+00  3.6259831879809E+00  3.6259831879809E+00  3.6259831879809E+00  3.6259831879809E+00  3.6259831879809E+00 
 4.3744444444444E-05  8.7488888888889E-05  8.7488888888889E-05  8.7488888888889E-05  8.7488888888889E-05  8.7488888888889E-05  8.7488888888889E-05  8.7488888888889E-05  8.7488888888889E-05  4.3744444444444E-05 
 8.6666666666667E+01  8.6666666666667E+01  8.6666666666667E+01  8.6666666666667E+01  8.6666666666667E+01  8.6666666666667E+01  8.6666666666667E+01  8.6666666666667E+01  8.6666666666667E+01  8.6666666666667E+01 
 2.1666666666667E+01  2.1666666666667E+01  2.1666666666667E+01  2.1666666666667E+01  2.1666666666667E+01  2.1666666666667E+01  2.1666666666667E+01  2.1666666666667E+01  2.1666666666667E+01  2.1666666666667E+01 
 0.0000000000000E+00  0.0000000000000E+00  0.0000000000000E+00  0.0000000000000E+00  0.0000000000000E+00  0.0000000000000E+00  0.0000000000000E+00  0.0000000000000E+00  0.0000000000000E+00  0.0000000000000E+00 
 0.0000000000000E+00  0.0000000000000E+00  0.0000000000000E+00  0.0000000000000E+00  0.0000000000000E+00  0.0000000000000E+00  0.0000000000000E+00  0.0000000000000E+00  0.0000000000000E+00  0.0000000000000E+00 
 0.0000000000000E+00  0.0000000000000E+00  0.0000000000000E+00  0.0000000000000E+00  0.0000000000000E+00  0.0000000000000E+00  0.0000000000000E+00  0.0000000000000E+00  0.0000000000000E+00  0.0000000000000E+00 
 0.0000000000000E+00  0.0000000000000E+00  0.0000000000000E+00  0.0000000000000E+00  0.0000000000000E+00  0.0000000000000E+00  0.0000000000000E+00  0.0000000000000E+00  0.0000000000000E+00  0.0000000000000E+00 
 0.0000000000000E+00  0.0000000000000E+00  0.0000000000000E+00  0.0000000000000E+00  0.0000000000000E+00  0.0000000000000E+00  0.0000000000000E+00  0.0000000000000E+00  0.0000000000000E+00  0.0000000000000E+00 
 0.0000000000000E+00  0.0000000000000E+00  0.0000000000000E+00  0.0000000000000E+00  0.0000000000000E+00  0.0000000000000E+00  0.0000000000000E+00  0.0000000000000E+00  0.0000000000000E+00  0.0000000000000E+00 
 0.0000000000000E+00  0.0000000000000E+00  0.0000000000000E+00  0.0000000000000E+00  0.0000000000000E+00  0.0000000000000E+00  0.0000000000000E+00  0.0000000000000E+00  0.0000000000000E+00  0.0000000000000E+00 
ZONE T = "ANOD, 1.0000E-08", I = 10, SOLUTIONTIME = 1.000000E-08
ZONETYPE = ORDERED
DATAPACKING = BLOCK
STRANDID = 1
 0.0000000000000E+00  8.7488888888889E-05  1.7497777777778E-04  2.6246666666667E-04  3.4995555555556E-04  4.3744444444444E-04  5.2493333333333E-04  6.1242222222222E-04  6.9991111111111E-04  7.8740000000000E-04 
 2.3825768778729E-09  4.6034387529791E-09  6.8020250832002E-09  9.0003475507684E-09  1.1198690323881E-08  1.3397063034649E-08  1.5595471783462E-08  1.7793922685482E-08  1.9992421806744E-08  2.1091698742887E-08 
 9.1999999999857E-01  9.1999999999933E-01  9.1999999999934E-01  9.1999999999934E-01  9.1999999999934E-01  9.1999999999934E-01  9.1999999999934E-01  9.1999999999934E-01  9.1999999999934E-01  9.1999999999973E-01 
 4.0000000000716E-02  4.0000000000334E-02  4.0000000000330E-02  4.0000000000330E-02  4.0000000000330E-02  4.0000000000330E-02  4.0000000000330E-02  4.0000000000330E-02  4.0000000000330E-02  4.0000000000137E-02 
 4.0000000000716E-02  4.0000000000334E-02  4.0000000000330E-02  4.0000000000330E-02  4.0000000000330E-02  4.0000000000330E-02  4.0000000000330E-02  4.0000000000330E-02  4.0000000000330E-02  4.0000000000137E-02 
 2.9764013442250E-02  2.9763980905097E-02  2.9763918437808E-02  2.9763826141560E-02  2.9763704014970E-02  2.9763552057634E-02  2.9763370269169E-02  2.9763158649076E-02  2.9762917196787E-02  2.9762645911633E-02 
 0.0000000000000E+00 -4.4980345070382E-09 -8.4621308943923E-09 -1.1897644633595E-08 -1.4804639162327E-08 -1.7183109598745E-08 -1.9033048745249E-08 -2.0354447937599E-08 -2.1147297041350E-08 -2.1411584463669E-08 
 3.0200000000000E+02  2.9819888182359E+02  2.9815061915793E+02  2.9815000642982E+02  2.9814999863677E+02  2.9814999856377E+02  2.9814999852847E+02  2.9814999856004E+02  2.9814999855910E+02  2.9814999953855E+02 
-2.9764013442250E-02 -2.9763985403132E-02 -2.9763926899939E-02 -2.9763838039205E-02 -2.9763718819609E-02 -2.9763569240744E-02 -2.9763389302218E-02 -2.9763179003524E-02 -2.9762938344084E-02 -2.9762667323217E-02 
-4.3601490894653E-02 -4.0940847937794E-02 -4.0907145111053E-02 -4.0906717243048E-02 -4.0906711801162E-02 -4.0906711750185E-02 -4.0906711725539E-02 -4.0906711747580E-02 -4.0906711746927E-02 -4.0906712431002E-02 
 1.3837477452403E-02  1.1176862534662E-02  1.1143218211114E-02  1.1142879203842E-02  1.1142992981553E-02  1.1143142509442E-02  1.1143322423322E-02  1.1143532744056E-02  1.1143773402843E-02  1.1144045107785E-02 
 3.4305956741889E+00  3.1982354629127E+00  3.1661567335607E+00  3.1657767472389E+00  3.1658059889224E+00  3.1658491011161E+00  3.1659009984890E+00  3.1659617005095E+00  3.1660311415935E+00  1.5830549962554E+00 
 1.7777847192960E-08  3.4351311312531E-08  5.0758676385975E-08  6.7164057937156E-08  8.3569608967563E-08  9.9975370839054E-08  1.1638140615606E-07  1.3278775460166E-07  1.4919453898151E-07  1.4919453898151E-07 
 0.0000000000000E+00  5.0296862607367E+00  8.2118656837495E+00  1.1377814696312E+01  1.4543588567455E+01  1.7709399132541E+01  2.0875256424117E+01  2.4041170311275E+01  2.7207149873014E+01  3.0373212381379E+01 
 3.0373221316229E+01  2.5343516647639E+01  2.2161337938261E+01  1.8995388499925E+01  1.5829614432406E+01  1.2663804187765E+01  9.4979464379720E+00  6.3320323873709E+00  3.1660532650277E+00  0.0000000000000E+00 
 3.4305956741889E-08  3.1982354629127E-08  3.1661567335607E-08  3.1657767472389E-08  3.1658059889224E-08  3.1658491011161E-08  3.1659009984890E-08  3.1659617005095E-08  3.1660311415935E-08  1.5830549962554E-08 
 4.5724222271675E+04  9.1448444543313E+04  9.1448444543313E+04  9.1448444543313E+04  9.1448444543313E+04  9.1448444543313E+04  9.1448444543313E+04  9.1448444543313E+04  9.1448444543313E+04  4.5724222271656E+04 
 3.3835924481011E+05  6.7671848962025E+05  6.7671848962025E+05  6.7671848962025E+05  6.7671848962025E+05  6.7671848962025E+05  6.7671848962025E+05  6.7671848962025E+05  6.7671848962025E+05  3.3835924481012E+05 
 3.8408346708178E+05  7.6816693416356E+05  7.6816693416356E+05  7.6816693416356E+05  7.6816693416356E+05  7.6816693416356E+05  7.6816693416356E+05  7.6816693416356E+05  7.6816693416356E+05  3.8408346708178E+05 
 3.5000000000000E-01  3.5000000000000E-01  3.5000000000000E-01  3.5000000000000E-01  3.5000000000000E-01  3.5000000000000E-01  3.5000000000000E-01  3.5000000000000E-01  3.5000000000000E-01  3.5000000000000E-01 
 8.5301666666667E+00  1.7060333333333E+01  1.7060333333333E+01  1.7060333333333E+01  1.7060333333333E+01  1.7060333333333E+01  1.7060333333333E+01  1.7060333333333E+01  1.7060333333333E+01  8.5301666666667E+00 
 4.0217217414926E-01  1.8746617668154E-01  1.8558586586198E-01  1.8556359277303E-01  1.8556530678899E-01  1.8556783383186E-01  1.8557087582241E-01  1.8557443390181E-01  1.8557850422580E-01  1.8558312611188E-01 
 4.3744444444444E-05  8.7488888888889E-05  8.7488888888889E-05  8.7488888888889E-05  8.7488888888889E-05  8.7488888888889E-05  8.7488888888889E-05  8.7488888888889E-05  8.7488888888889E-05  4.3744444444444E-05 
 8.6666666666659E+01  8.6666666666663E+01  8.6666666666663E+01  8.6666666666663E+01  8.6666666666663E+01  8.6666666666663E+01  8.6666666666663E+01  8.6666666666663E+01  8.6666666666663E+01  8.6666666666663E+01 
 2.1666666666675E+01  2.1666666666670E+01  2.1666666666670E+01  2.1666666666670E+01  2.1666666666670E+01  2.1666666666670E+01  2.1666666666670E+01  2.1666666666670E+01  2.1666666666670E+01  2.1666666666670E+01 
-1.5530974143707E-04 -7.2039874356740E-05 -7.1312782791247E-05 -7.1304071124963E-05 -7.1304599610014E-05 -7.1305408260668E-05 -7.1306381826000E-05 -7.1307520744458E-05 -7.1308823526499E-05 -7.1310408942251E-05 
-1.5530974143707E+04 -7.2039874356740E+03 -7.1312782791247E+03 -7.1304071124963E+03 -7.1304599610014E+03 -7.1305408260668E+03 -7.1306381826000E+03 -7.1307520744458E+03 -7.1308823526499E+03 -7.1310408942251E+03 
 1.2758329914216E-03  3.0044048848957E-03  7.5330635207558E-03  1.4212554135713E-02  2.3050828777682E-02  3.4048082163578E-02  4.7204429970018E-02  6.2520018032223E-02  7.9995015900661E-02  8.9272390896837E-02 
 1.3851914384468E-03  1.2305218592936E-03  9.4195986428333E-04  6.9331655994135E-04  4.8293829858844E-04  3.1080730511715E-04  1.7692446483637E-04  8.1291287177942E-05  2.3909706723836E-05  4.7820842506236E-06 
-1.5530976804732E+04 -7.2039916706008E+03 -7.1312867541481E+03 -7.1304220183670E+03 -7.1304834947685E+03 -7.1305751849562E+03 -7.1306855639544E+03 -7.1308146757551E+03 -7.1309623715755E+03 -7.1311301713981E+03 
 1.0851844364325E+03  4.0858031890816E+02  4.0326464104642E+02  4.0320397629336E+02  4.0321181768572E+02  4.0322271943124E+02  4.0323583983280E+02  4.0325118223333E+02  4.0326873591617E+02  4.0328861208691E+02 
-1.6616161241164E+04 -7.6125719895089E+03 -7.5345513951945E+03 -7.5336259946604E+03 -7.5336953124542E+03 -7.5337979043875E+03 -7.5339214037872E+03 -7.5340658579884E+03 -7.5342311074917E+03 -7.5344187834850E+03 
ZONE T = "ANOD, 2.0000E-08", I = 10, SOLUTIONTIME = 2.000000E-08
ZONETYPE = ORDERED
DATAPACKING = BLOCK
STRANDID = 1
 0.0000000000000E+00  8.7488888888889E-05  1.7497777777778E-04  2.6246666666667E-04  3.4995555555556E-04  4.3744444444444E-04  5.2493333333333E-04  6.1242222222222E-04  6.9991111111111E-04  7.8740000000000E-04 
 2.3800683236647E-09  4.6210764563046E-09  6.8181889130560E-09  9.0141291454567E-09  1.1208989667174E-08  1.3403516719884E-08  1.5598806364261E-08  1.7794138170544E-08  1.9989518135417E-08  2.1086509352889E-08 
 9.1999999999714E-01  9.1999999999866E-01  9.1999999999868E-01  9.1999999999868E-01  9.1999999999868E-01  9.1999999999868E-01  9.1999999999868E-01  9.1999999999868E-01  9.1999999999868E-01  9.1999999999945E-01 
 4.0000000001431E-02  4.0000000000670E-02  4.0000000000660E-02  4.0000000000660E-02  4.0000000000660E-02  4.0000000000660E-02  4.0000000000660E-02  4.0000000000660E-02  4.0000000000660E-02  4.0000000000273E-02 
 4.0000000001431E-02  4.0000000000670E-02  4.0000000000660E-02  4.0000000000660E-02  4.0000000000660E-02  4.0000000000660E-02  4.0000000000660E-02  4.0000000000660E-02  4.0000000000660E-02  4.0000000000273E-02 
 2.9774200228298E-02  2.9774167712901E-02  2.9774104991258E-02  2.9774012465635E-02  2.9773890137235E-02  2.9773738005648E-02  2.9773556070464E-02  2.9773344331193E-02  2.9773102787261E-02  2.9772831438015E-02 
 0.0000000000000E+00 -4.4993547308313E-09 -8.4599277922795E-09 -1.1892272553246E-08 -1.4796583516962E-08 -1.7172858300273E-08 -1.9021089753416E-08 -2.0341269178928E-08 -2.1133386440274E-08 -2.1397429959198E-08 
 3.0200000000000E+02  2.9824653809072E+02  2.9815182775805E+02  2.9815002805952E+02  2.9814999754976E+02  2.9814999697012E+02  2.9814999717450E+02  2.9814999717946E+02  2.9814999700835E+02  2.9814999915477E+02 
-2.9774200228298E-02 -2.9774172212256E-02 -2.9774113451186E-02 -2.9774024357907E-02 -2.9773904933819E-02 -2.9773755178506E-02 -2.9773575091554E-02 -2.9773364672462E-02 -2.9773123920648E-02 -2.9772852835445E-02 
-4.3601490894030E-02 -4.0974129259825E-02 -4.0907989077125E-02 -4.0906732346776E-02 -4.0906711041817E-02 -4.0906710637054E-02 -4.0906710779776E-02 -4.0906710783238E-02 -4.0906710663756E-02 -4.0906712162844E-02 
 1.3827290665732E-02  1.1199957047569E-02  1.1133875625939E-02  1.1132707988869E-02  1.1132806107999E-02  1.1132955458547E-02  1.1133135688222E-02  1.1133346110776E-02  1.1133586743109E-02  1.1133859327399E-02 
 3.4280110033636E+00  3.2272302044431E+00  3.1640169347855E+00  3.1628518864102E+00  3.1628661611822E+00  3.1629089873200E+00  3.1629610838863E+00  3.1630218004536E+00  3.1630911526593E+00  1.5815853952270E+00 
 1.7764683095000E-08  3.4488359215844E-08  5.0884717374756E-08  6.7275041498530E-08  8.3665439648396E-08  1.0005605973440E-07  1.1644694978881E-07  1.3283815448763E-07  1.4922985531197E-07  1.4922985531197E-07 
 0.0000000000000E+00  5.0416261054263E+00  8.2372496750927E+00  1.1400684085630E+01  1.4563543109265E+01  1.7726430683609E+01  2.0889365719377E+01  2.4052357161341E+01  2.7215413637891E+01  3.0378544609759E+01 
 3.0378544609508E+01  2.5336918504007E+01  2.2141294934488E+01  1.8977860523912E+01  1.5815001500127E+01  1.2652113925885E+01  9.4891788902671E+00  6.3261874480845E+00  3.1631309715480E+00  0.0000000000000E+00 
 6.8586066775525E-08  6.4254656673557E-08  6.3301736683462E-08  6.3286286336490E-08  6.3286721501046E-08  6.3287580884361E-08  6.3288620823753E-08  6.3289835009631E-08  6.3291222942528E-08  3.1646403914824E-08 
 4.5724222271709E+04  9.1448444543345E+04  9.1448444543345E+04  9.1448444543345E+04  9.1448444543345E+04  9.1448444543344E+04  9.1448444543344E+04  9.1448444543345E+04  9.1448444543345E+04  4.5724222271672E+04 
 3.3835924481007E+05  6.7671848962022E+05  6.7671848962022E+05  6.7671848962022E+05  6.7671848962022E+05  6.7671848962022E+05  6.7671848962022E+05  6.7671848962022E+05  6.7671848962022E+05  3.3835924481011E+05 
 3.8408346708178E+05  7.6816693416356E+05  7.6816693416356E+05  7.6816693416356E+05  7.6816693416356E+05  7.6816693416356E+05  7.6816693416356E+05  7.6816693416356E+05  7.6816693416356E+05  3.8408346708178E+05 
 3.5000000000000E-01  3.5000000000000E-01  3.5000000000000E-01  3.5000000000000E-01  3.5000000000000E-01  3.5000000000000E-01  3.5000000000000E-01  3.5000000000000E-01  3.5000000000000E-01  3.5000000000000E-01 
 8.5301666666667E+00  1.7060333333333E+01  1.7060333333333E+01  1.7060333333333E+01  1.7060333333333E+01  1.7060333333333E+01  1.7060333333333E+01  1.7060333333333E+01  1.7060333333333E+01  8.5301666666667E+00 
 4.0186917059420E-01  1.8916571800725E-01  1.8546044048292E-01  1.8539215058773E-01  1.8539298731066E-01  1.8539549758621E-01  1.8539855125259E-01  1.8540211018465E-01  1.8540617529899E-01  1.8541084330830E-01 
 4.3744444444444E-05  8.7488888888889E-05  8.7488888888889E-05  8.7488888888889E-05  8.7488888888889E-05  8.7488888888889E-05  8.7488888888889E-05  8.7488888888889E-05  8.7488888888889E-05  4.3744444444444E-05 
 8.6666666666650E+01  8.6666666666659E+01  8.6666666666659E+01  8.6666666666659E+01  8.6666666666659E+01  8.6666666666659E+01  8.6666666666659E+01  8.6666666666659E+01  8.6666666666659E+01  8.6666666666659E+01 
 2.1666666666683E+01  2.1666666666674E+01  2.1666666666674E+01  2.1666666666674E+01  2.1666666666674E+01  2.1666666666674E+01  2.1666666666674E+01  2.1666666666674E+01  2.1666666666674E+01  2.1666666666674E+01 
-3.1051045260938E-04 -1.4474109675432E-04 -1.4258116494110E-04 -1.4254594824411E-04 -1.4254666592679E-04 -1.4254827674710E-04 -1.4255022846674E-04 -1.4255250678011E-04 -1.4255511054888E-04 -1.4255829942878E-04 
-1.5520071117231E+04 -7.2701222397583E+03 -7.1268382149855E+03 -7.1241877119147E+03 -7.1242066316775E+03 -7.1242868486430E+03 -7.1243846640743E+03 -7.1244986035648E+03 -7.1246287022383E+03 -7.1247890486527E+03 
 2.5498591898469E-03  6.0270218508872E-03  1.5110943756735E-02  2.8480730123151E-02  4.6163715717941E-02  6.8160668126795E-02  9.4471827947430E-02  1.2509748377845E-01  1.6003797118751E-01  1.7858696865052E-01 
 2.7711961348058E-03  2.4604945449370E-03  1.8822188941216E-03  1.3853542370384E-03  9.6498537031064E-04  6.2104104662972E-04  3.5352244216071E-04  1.6243256715058E-04  4.7775294796439E-05  9.5553460732126E-06 
-1.5520073777261E+04 -7.2701264923480E+03 -7.1268467331248E+03 -7.1242026721284E+03 -7.1242302266116E+03 -7.1243212714627E+03 -7.1244321080703E+03 -7.1245612621718E+03 -7.1247087690592E+03 -7.1248783680038E+03 
 1.0835685571600E+03  4.1313634373598E+02  4.0265422819205E+02  4.0246375181235E+02  4.0246911540253E+02  4.0247996429195E+02  4.0249310936916E+02  4.0250844316670E+02  4.0252596841055E+02  4.0254595820112E+02 
-1.6603642334421E+04 -7.6832628360840E+03 -7.5295009613169E+03 -7.5266664239408E+03 -7.5266993420141E+03 -7.5268012357546E+03 -7.5269252174394E+03 -7.5270697053385E+03 -7.5272347374697E+03 -7.5274243262049E+03 
ZONE T = "ANOD, 3.0000E-08", I = 10, SOLUTIONTIME = 3.000000E-08
ZONETYPE = ORDERED
DATAPACKING = BLOCK
STRANDID = 1
 0.0000000000000E+00  8.7488888888889E-05  1.7497777777778E-04  2.6246666666667E-04  3.4995555555556E-04  4.3744444444444E-04  5.2493333333333E-04  6.1242222222222E-04  6.9991111111111E-04  7.8740000000000E-04 
 2.3786476502065E-09  4.6394108586959E-09  6.8353064189120E-09  9.0299644678284E-09  1.1224612269613E-08  1.3419652617271E-08  1.5614002733965E-08  1.7808395102585E-08  2.0002835696292E-08  2.1099720623682E-08 
 9.1999999999571E-01  9.1999999999798E-01  9.1999999999802E-01  9.1999999999802E-01  9.1999999999802E-01  9.1999999999802E-01  9.1999999999802E-01  9.1999999999802E-01  9.1999999999802E-01  9.1999999999918E-01 
 4.0000000002146E-02  4.0000000001010E-02  4.0000000000990E-02  4.0000000000990E-02  4.0000000000990E-02  4.0000000000990E-02  4.0000000000990E-02  4.0000000000990E-02  4.0000000000990E-02  4.0000000000410E-02 
 4.0000000002146E-02  4.0000000001010E-02  4.0000000000990E-02  4.0000000000990E-02  4.0000000000990E-02  4.0000000000990E-02  4.0000000000990E-02  4.0000000000990E-02  4.0000000000990E-02  4.0000000000410E-02 
 2.9784325492853E-02  2.9784292999308E-02  2.9784230028669E-02  2.9784137275414E-02  2.9784014746911E-02  2.9783862442760E-02  2.9783680362548E-02  2.9783468505783E-02  2.9783226871891E-02  2.9782955460218E-02 
 0.0000000000000E+00 -4.5006458180110E-09 -8.4577604645777E-09 -1.1886939376110E-08 -1.4788567396400E-08 -1.7162646989057E-08 -1.9009171100623E-08 -2.0328131031648E-08 -2.1119516623951E-08 -2.1383316283290E-08 
 3.0200000000000E+02  2.9829300665500E+02  2.9815359624017E+02  2.9815007156844E+02  2.9814999703880E+02  2.9814999551266E+02  2.9814999567459E+02  2.9814999582760E+02  2.9814999576608E+02  2.9814999870957E+02 
-2.9784325492853E-02 -2.9784297499954E-02 -2.9784238486430E-02 -2.9784149162353E-02 -2.9784029535478E-02 -2.9783879605407E-02 -2.9783699371719E-02 -2.9783488833914E-02 -2.9783247991408E-02 -2.9782976843534E-02 
-4.3601490893402E-02 -4.1006583007116E-02 -4.0909224011446E-02 -4.0906762728752E-02 -4.0906710684733E-02 -4.0906709619023E-02 -4.0906709732106E-02 -4.0906709838955E-02 -4.0906709795993E-02 -4.0906711851807E-02 
 1.3817165400549E-02  1.1222285507162E-02  1.1124985525016E-02  1.1122613566399E-02  1.1122681149255E-02  1.1122830013616E-02  1.1123010360387E-02  1.1123221005041E-02  1.1123461804585E-02  1.1123735008272E-02 
 3.4254420723723E+00  3.2556790869941E+00  3.1622645068387E+00  3.1599593439147E+00  3.1599445872496E+00  3.1599868365040E+00  3.1600389450600E+00  3.1600997911901E+00  3.1601692391537E+00  1.5801247089079E+00 
 1.7751503020999E-08  3.4622476054817E-08  5.1009749531703E-08  6.7385084031503E-08  8.3760342187550E-08  1.0013581929657E-07  1.1651156643326E-07  1.3288762889145E-07  1.4926425622763E-07  1.4926425622763E-07 
 0.0000000000000E+00  5.0532816157866E+00  8.2622534126013E+00  1.1423365338177E+01  1.4583317303874E+01  1.7743283015658E+01  2.0903295906317E+01  2.4063365274521E+01  2.7223499789686E+01  3.0383709118032E+01 
 3.0383709118200E+01  2.5330427502346E+01  2.2121455705451E+01  1.8960343780069E+01  1.5800391814478E+01  1.2640426102597E+01  9.4804132118076E+00  6.3203438436736E+00  3.1602093284874E+00  0.0000000000000E+00 
 1.0284048749925E-07  9.6811447543498E-08  9.4924381751849E-08  9.4885879775637E-08  9.4886167373542E-08  9.4887449249400E-08  9.4889010274353E-08  9.4890832921531E-08  9.4892915334065E-08  4.7447651003902E-08 
 4.5724222271743E+04  9.1448444543378E+04  9.1448444543376E+04  9.1448444543376E+04  9.1448444543376E+04  9.1448444543376E+04  9.1448444543376E+04  9.1448444543376E+04  9.1448444543376E+04  4.5724222271688E+04 
 3.3835924481004E+05  6.7671848962018E+05  6.7671848962019E+05  6.7671848962019E+05  6.7671848962019E+05  6.7671848962019E+05  6.7671848962019E+05  6.7671848962019E+05  6.7671848962019E+05  3.3835924481009E+05 
 3.8408346708178E+05  7.6816693416356E+05  7.6816693416356E+05  7.6816693416356E+05  7.6816693416356E+05  7.6816693416356E+05  7.6816693416356E+05  7.6816693416356E+05  7.6816693416356E+05  3.8408346708178E+05 
 3.5000000000000E-01  3.5000000000000E-01  3.5000000000000E-01  3.5000000000000E-01  3.5000000000000E-01  3.5000000000000E-01  3.5000000000000E-01  3.5000000000000E-01  3.5000000000000E-01  3.5000000000000E-01 
 8.5301666666667E+00  1.7060333333333E+01  1.7060333333333E+01  1.7060333333333E+01  1.7060333333333E+01  1.7060333333333E+01  1.7060333333333E+01  1.7060333333333E+01  1.7060333333333E+01  8.5301666666667E+00 
 4.0156801223567E-01  1.9083326353495E-01  1.8535772103937E-01  1.8522260275774E-01  1.8522173778841E-01  1.8522421424966E-01  1.8522726861882E-01  1.8523083514527E-01  1.8523490587251E-01  1.8523960558503E-01 
 4.3744444444444E-05  8.7488888888889E-05  8.7488888888889E-05  8.7488888888889E-05  8.7488888888889E-05  8.7488888888889E-05  8.7488888888889E-05  8.7488888888889E-05  8.7488888888889E-05  4.3744444444444E-05 
 8.6666666666642E+01  8.6666666666655E+01  8.6666666666655E+01  8.6666666666655E+01  8.6666666666655E+01  8.6666666666655E+01  8.6666666666655E+01  8.6666666666655E+01  8.6666666666655E+01  8.6666666666655E+01 
 2.1666666666691E+01  2.1666666666678E+01  2.1666666666678E+01  2.1666666666678E+01  2.1666666666678E+01  2.1666666666678E+01  2.1666666666678E+01  2.1666666666678E+01  2.1666666666678E+01  2.1666666666678E+01 
-4.6560278595073E-04 -2.1809138161045E-04 -2.1381389660552E-04 -2.1372633234105E-04 -2.1372658112662E-04 -2.1372898104490E-04 -2.1373191126674E-04 -2.1373533205960E-04 -2.1373923920544E-04 -2.1374404402399E-04 
-1.5509233334136E+04 -7.3350284856131E+03 -7.1232731664413E+03 -7.1180384096942E+03 -7.1179915199832E+03 -7.1180704297800E+03 -7.1181682799993E+03 -7.1182825279495E+03 -7.1184128656555E+03 -7.1185744595211E+03 
 3.8220750905717E-03  9.0675177861056E-03  2.2733171860135E-02  4.2804185899198E-02  6.9338181301275E-02  1.0233713582758E-01  1.4180143086825E-01  1.8773149824967E-01  2.4012783985384E-01  2.6794264733245E-01 
 4.1579963717447E-03  3.6899276337913E-03  2.8207969471581E-03  2.0761150699379E-03  1.4461422369233E-03  9.3070187389365E-04  5.2979430255994E-04  2.4342401243689E-04  7.1596815144021E-05  1.4319795196019E-05 
-1.5509235993152E+04 -7.3350327555421E+03 -7.1232817272475E+03 -7.1180534239109E+03 -7.1180151756056E+03 -7.1181049159085E+03 -7.1182157858741E+03 -7.1183452429554E+03 -7.1184929793457E+03 -7.1186638199642E+03 
 1.0819636707392E+03  4.1760914670039E+02  4.0210988289270E+02  4.0173108968386E+02  4.0173165461727E+02  4.0174240266103E+02  4.0175554144294E+02  4.0177088568013E+02  4.0178841307565E+02  4.0180847568828E+02 
-1.6591199663891E+04 -7.7526419022425E+03 -7.5253916101402E+03 -7.5197845135947E+03 -7.5197468302229E+03 -7.5198473185696E+03 -7.5199713273170E+03 -7.5201161286355E+03 -7.5202813924214E+03 -7.5204722956525E+03 
ZONE T = "ANOD, 4.0000E-08", I = 10, SOLUTIONTIME = 4.000000E-08
ZONETYPE = ORDERED
DATAPACKING = BLOCK
STRANDID = 1
 0.0000000000000E+00  8.7488888888889E-05  1.7497777777778E-04  2.6246666666667E-04  3.4995555555556E-04  4.3744444444444E-04  5.2493333333333E-04  6.1242222222222E-04  6.9991111111111E-04  7.8740000000000E-04 
 2.3768746391232E-09  4.6570195919129E-09  6.8519539105542E-09  9.0442654070314E-09  1.1236534019669E-08  1.3428831165566E-08  1.5621164527071E-08  1.7813540117465E-08  2.0005964048374E-08  2.1103838491905E-08 
 9.1999999999428E-01  9.1999999999730E-01  9.1999999999736E-01  9.1999999999736E-01  9.1999999999736E-01  9.1999999999736E-01  9.1999999999736E-01  9.1999999999736E-01  9.1999999999736E-01  9.1999999999891E-01 
 4.0000000002860E-02  4.0000000001352E-02  4.0000000001320E-02  4.0000000001319E-02  4.0000000001319E-02  4.0000000001319E-02  4.0000000001319E-02  4.0000000001319E-02  4.0000000001319E-02  4.0000000000546E-02 
 4.0000000002860E-02  4.0000000001352E-02  4.0000000001320E-02  4.0000000001319E-02  4.0000000001319E-02  4.0000000001319E-02  4.0000000001319E-02  4.0000000001319E-02  4.0000000001319E-02  4.0000000000546E-02 
 2.9794389565297E-02  2.9794357093521E-02  2.9794293878833E-02  2.9794200899305E-02  2.9794078171801E-02  2.9793925696019E-02  2.9793743471543E-02  2.9793531497882E-02  2.9793289774461E-02  2.9793018300623E-02 
 0.0000000000000E+00 -4.5019311160187E-09 -8.4556713146522E-09 -1.1881706879304E-08 -1.4780668387118E-08 -1.7152566148196E-08 -1.8997393302592E-08 -2.0315141143373E-08 -2.1105799517899E-08 -2.1369356804176E-08 