TITLE = "Solution on Domain BulkDomain1D_1"
VARIABLES = "x [m]"  
"Vel_axial" 	"MF_sp(ECDMC)" 	"MF_sp(Li+)" 	"MF_sp(PF6-)" 	"Volt(Electroly)" 	"Temperature" 	"Porosity []" 	"Control volume thickness [m]" 	"volFrac MgO(S) []" 	"qHeat_accum [J/m3]" 	"qHeat_step [W/m3]" 	"Joule_Lyte [W/m3]" 	"Joule_Solid [W/m3]" 	
ZONE T = "SEP , 0.0000E+00", I = 10, SOLUTIONTIME = 0.000000E+00
ZONETYPE = ORDERED
DATAPACKING = BLOCK
STRANDID = 2
 7.8740000000000E-04  8.4102222222222E-04  8.9464444444444E-04  9.4826666666667E-04  1.0018888888889E-03  1.0555111111111E-03  1.1091333333333E-03  1.1627555555556E-03  1.2163777777778E-03  1.2700000000000E-03 
 0.0000000000000E+00  0.0000000000000E+00  0.0000000000000E+00  0.0000000000000E+00  0.0000000000000E+00  0.0000000000000E+00  0.0000000000000E+00  0.0000000000000E+00  0.0000000000000E+00  0.0000000000000E+00 
 9.2000000000000E-01  9.2000000000000E-01  9.2000000000000E-01  9.2000000000000E-01  9.2000000000000E-01  9.2000000000000E-01  9.2000000000000E-01  9.2000000000000E-01  9.2000000000000E-01  9.2000000000000E-01 
 4.0000000000000E-02  4.0000000000000E-02  4.0000000000000E-02  4.0000000000000E-02  4.0000000000000E-02  4.0000000000000E-02  4.0000000000000E-02  4.0000000000000E-02  4.0000000000000E-02  4.0000000000000E-02 
 4.0000000000000E-02  4.0000000000000E-02  4.0000000000000E-02  4.0000000000000E-02  4.0000000000000E-02  4.0000000000000E-02  4.0000000000000E-02  4.0000000000000E-02  4.0000000000000E-02  4.0000000000000E-02 
-7.0000000000000E-02 -7.0000000000000E-02 -7.0000000000000E-02 -7.0000000000000E-02 -7.0000000000000E-02 -7.0000000000000E-02 -7.0000000000000E-02 -7.0000000000000E-02 -7.0000000000000E-02 -7.0000000000000E-02 
 2.9815000000000E+02  2.9815000000000E+02  2.9815000000000E+02  2.9815000000000E+02  2.9815000000000E+02  2.9815000000000E+02  2.9815000000000E+02  2.9815000000000E+02  2.9815000000000E+02  2.9815000000000E+02 
 8.0911499769706E-01  8.0911499769706E-01  8.0911499769706E-01  8.0911499769706E-01  8.0911499769706E-01  8.0911499769706E-01  8.0911499769706E-01  8.0911499769706E-01  8.0911499769706E-01  8.0911499769706E-01 
 2.6811111111111E-05  5.3622222222222E-05  5.3622222222222E-05  5.3622222222222E-05  5.3622222222222E-05  5.3622222222222E-05  5.3622222222222E-05  5.3622222222223E-05  5.3622222222222E-05  2.6811111111111E-05 
 1.9088500230294E-01  1.9088500230294E-01  1.9088500230294E-01  1.9088500230294E-01  1.9088500230294E-01  1.9088500230294E-01  1.9088500230294E-01  1.9088500230294E-01  1.9088500230294E-01  1.9088500230294E-01 
 0.0000000000000E+00  0.0000000000000E+00  0.0000000000000E+00  0.0000000000000E+00  0.0000000000000E+00  0.0000000000000E+00  0.0000000000000E+00  0.0000000000000E+00  0.0000000000000E+00  0.0000000000000E+00 
 0.0000000000000E+00  0.0000000000000E+00  0.0000000000000E+00  0.0000000000000E+00  0.0000000000000E+00  0.0000000000000E+00  0.0000000000000E+00  0.0000000000000E+00  0.0000000000000E+00  0.0000000000000E+00 
 0.0000000000000E+00  0.0000000000000E+00  0.0000000000000E+00  0.0000000000000E+00  0.0000000000000E+00  0.0000000000000E+00  0.0000000000000E+00  0.0000000000000E+00  0.0000000000000E+00  0.0000000000000E+00 
 0.0000000000000E+00  0.0000000000000E+00  0.0000000000000E+00  0.0000000000000E+00  0.0000000000000E+00  0.0000000000000E+00  0.0000000000000E+00  0.0000000000000E+00  0.0000000000000E+00  0.0000000000000E+00 
ZONE T = "SEP , 1.0000E-08", I = 10, SOLUTIONTIME = 1.000000E-08
ZONETYPE = ORDERED
DATAPACKING = BLOCK
STRANDID = 2
 7.8740000000000E-04  8.4102222222222E-04  8.9464444444444E-04  9.4826666666667E-04  1.0018888888889E-03  1.0555111111111E-03  1.1091333333333E-03  1.1627555555556E-03  1.2163777777778E-03  1.2700000000000E-03 
 2.1091698742887E-08  2.1091698742887E-08  2.1091698742887E-08  2.1091698742887E-08  2.1091698742887E-08  2.1091698742887E-08  2.1091698742887E-08  2.1091698742887E-08  2.1091698742887E-08  1.9920489466359E-08 
 9.1999999999973E-01  9.2000000000000E-01  9.2000000000000E-01  9.2000000000000E-01  9.2000000000000E-01  9.2000000000000E-01  9.2000000000000E-01  9.2000000000000E-01  9.2000000000000E-01  9.2000000000032E-01 
 4.0000000000137E-02  4.0000000000000E-02  4.0000000000000E-02  4.0000000000000E-02  4.0000000000000E-02  4.0000000000000E-02  4.0000000000000E-02  4.0000000000000E-02  4.0000000000000E-02  3.9999999999839E-02 
 4.0000000000137E-02  4.0000000000000E-02  4.0000000000000E-02  4.0000000000000E-02  4.0000000000000E-02  4.0000000000000E-02  4.0000000000000E-02  4.0000000000000E-02  4.0000000000000E-02  3.9999999999839E-02 
 2.9762645911633E-02  2.9762596005816E-02  2.9762546100000E-02  2.9762496194183E-02  2.9762446288367E-02  2.9762396382536E-02  2.9762346476720E-02  2.9762296570904E-02  2.9762246665087E-02  2.9762196759271E-02 
 2.9814999953855E+02  2.9814999998714E+02  2.9815000000140E+02  2.9814999999179E+02  2.9814999999686E+02  2.9815000000104E+02  2.9814999999013E+02  2.9814999999660E+02  2.9815000000279E+02  2.9815000105596E+02 
 8.0911499769706E-01  8.0911499769706E-01  8.0911499769706E-01  8.0911499769706E-01  8.0911499769706E-01  8.0911499769706E-01  8.0911499769706E-01  8.0911499769706E-01  8.0911499769706E-01  8.0911499769706E-01 
 2.6811111111111E-05  5.3622222222222E-05  5.3622222222222E-05  5.3622222222222E-05  5.3622222222222E-05  5.3622222222222E-05  5.3622222222222E-05  5.3622222222223E-05  5.3622222222222E-05  2.6811111111111E-05 
 1.9088500230294E-01  1.9088500230294E-01  1.9088500230294E-01  1.9088500230294E-01  1.9088500230294E-01  1.9088500230294E-01  1.9088500230294E-01  1.9088500230294E-01  1.9088500230294E-01  1.9088500230294E-01 
 2.8268120851165E-10  2.8268120484470E-10  2.8268120540181E-10  2.8268120540179E-10  2.8268128841059E-10  2.8268128613036E-10  2.8268120184571E-10  2.8268120449678E-10  2.8268120292572E-10  2.8268120393206E-10 
 2.8268120851165E-02  2.8268120484470E-02  2.8268120540181E-02  2.8268120540179E-02  2.8268128841059E-02  2.8268128613036E-02  2.8268120184571E-02  2.8268120449678E-02  2.8268120292572E-02  2.8268120393206E-02 
 2.8268120851165E-02  2.8268120484470E-02  2.8268120540181E-02  2.8268120540179E-02  2.8268128841059E-02  2.8268128613036E-02  2.8268120184571E-02  2.8268120449678E-02  2.8268120292572E-02  2.8268120393206E-02 
 0.0000000000000E+00  0.0000000000000E+00  0.0000000000000E+00  0.0000000000000E+00  0.0000000000000E+00  0.0000000000000E+00  0.0000000000000E+00  0.0000000000000E+00  0.0000000000000E+00  0.0000000000000E+00 
ZONE T = "SEP , 2.0000E-08", I = 10, SOLUTIONTIME = 2.000000E-08
ZONETYPE = ORDERED
DATAPACKING = BLOCK
STRANDID = 2
 7.8740000000000E-04  8.4102222222222E-04  8.9464444444444E-04  9.4826666666667E-04  1.0018888888889E-03  1.0555111111111E-03  1.1091333333333E-03  1.1627555555556E-03  1.2163777777778E-03  1.2700000000000E-03 
 2.1086509352889E-08  2.1085056521977E-08  2.1085056521977E-08  2.1085056521977E-08  2.1085056521977E-08  2.1085056521977E-08  2.1085056521977E-08  2.1085056521977E-08  2.1085056521977E-08  1.9914517565521E-08 
 9.1999999999945E-01  9.2000000000000E-01  9.2000000000000E-01  9.2000000000000E-01  9.2000000000000E-01  9.2000000000000E-01  9.2000000000000E-01  9.2000000000000E-01  9.2000000000000E-01  9.2000000000064E-01 
 4.0000000000273E-02  4.0000000000000E-02  4.0000000000000E-02  4.0000000000000E-02  4.0000000000000E-02  4.0000000000000E-02  4.0000000000000E-02  4.0000000000000E-02  4.0000000000000E-02  3.9999999999679E-02 
 4.0000000000273E-02  4.0000000000000E-02  4.0000000000000E-02  4.0000000000000E-02  4.0000000000000E-02  4.0000000000000E-02  4.0000000000000E-02  4.0000000000000E-02  4.0000000000000E-02  3.9999999999679E-02 
 2.9772831438015E-02  2.9772781523420E-02  2.9772731608825E-02  2.9772681694230E-02  2.9772631779636E-02  2.9772581865041E-02  2.9772531950446E-02  2.9772482035851E-02  2.9772432121256E-02  2.9772382206661E-02 
 2.9814999915477E+02  2.9814999996334E+02  2.9815000000062E+02  2.9814999999189E+02  2.9814999999139E+02  2.9815000001155E+02  2.9814999999043E+02  2.9814999999690E+02  2.9815000002907E+02  2.9815000218254E+02 
 8.0911499769706E-01  8.0911499769706E-01  8.0911499769706E-01  8.0911499769706E-01  8.0911499769706E-01  8.0911499769706E-01  8.0911499769706E-01  8.0911499769706E-01  8.0911499769706E-01  8.0911499769706E-01 
 2.6811111111111E-05  5.3622222222222E-05  5.3622222222222E-05  5.3622222222222E-05  5.3622222222222E-05  5.3622222222222E-05  5.3622222222222E-05  5.3622222222223E-05  5.3622222222222E-05  2.6811111111111E-05 
 1.9088500230294E-01  1.9088500230294E-01  1.9088500230294E-01  1.9088500230294E-01  1.9088500230294E-01  1.9088500230294E-01  1.9088500230294E-01  1.9088500230294E-01  1.9088500230294E-01  1.9088500230294E-01 
 5.6546186982829E-10  5.6546186635340E-10  5.6546186711546E-10  5.6546186713051E-10  5.6546195013684E-10  5.6546194785218E-10  5.6546186355158E-10  5.6546186621661E-10  5.6546186517897E-10  5.6546186668858E-10 
 2.8278066131664E-02  2.8278066150870E-02  2.8278066171365E-02  2.8278066172872E-02  2.8278066172625E-02  2.8278066172182E-02  2.8278066170586E-02  2.8278066171983E-02  2.8278066225325E-02  2.8278066275652E-02 
 2.8278066131664E-02  2.8278066150870E-02  2.8278066171365E-02  2.8278066172872E-02  2.8278066172625E-02  2.8278066172182E-02  2.8278066170586E-02  2.8278066171983E-02  2.8278066225325E-02  2.8278066275652E-02 
 0.0000000000000E+00  0.0000000000000E+00  0.0000000000000E+00  0.0000000000000E+00  0.0000000000000E+00  0.0000000000000E+00  0.0000000000000E+00  0.0000000000000E+00  0.0000000000000E+00  0.0000000000000E+00 
ZONE T = "SEP , 3.0000E-08", I = 10, SOLUTIONTIME = 3.000000E-08
ZONETYPE = ORDERED
DATAPACKING = BLOCK
STRANDID = 2
 7.8740000000000E-04  8.4102222222222E-04  8.9464444444444E-04  9.4826666666667E-04  1.0018888888889E-03  1.0555111111111E-03  1.1091333333333E-03  1.1627555555556E-03  1.2163777777778E-03  1.2700000000000E-03 
 2.1099720623682E-08  2.1101173454593E-08  2.1101173454593E-08  2.1101173454593E-08  2.1101173454593E-08  2.1101173454593E-08  2.1101173454593E-08  2.1101173454593E-08  2.1101173454593E-08  1.9929132927911E-08 
 9.1999999999918E-01  9.2000000000000E-01  9.2000000000000E-01  9.2000000000000E-01  9.2000000000000E-01  9.2000000000000E-01  9.2000000000000E-01  9.2000000000000E-01  9.2000000000000E-01  9.2000000000096E-01 
 4.0000000000410E-02  4.0000000000000E-02  4.0000000000000E-02  4.0000000000000E-02  4.0000000000000E-02  4.0000000000000E-02  4.0000000000000E-02  4.0000000000000E-02  4.0000000000000E-02  3.9999999999518E-02 
 4.0000000000410E-02  4.0000000000000E-02  4.0000000000000E-02  4.0000000000000E-02  4.0000000000000E-02  4.0000000000000E-02  4.0000000000000E-02  4.0000000000000E-02  4.0000000000000E-02  3.9999999999518E-02 
 2.9782955460218E-02  2.9782905537137E-02  2.9782855614057E-02  2.9782805690976E-02  2.9782755767895E-02  2.9782705844815E-02  2.9782655921734E-02  2.9782605998654E-02  2.9782556075573E-02  2.9782506152492E-02 
 2.9814999870957E+02  2.9814999995584E+02  2.9814999999875E+02  2.9814999998665E+02  2.9814999998625E+02  2.9815000000999E+02  2.9814999999114E+02  2.9814999999800E+02  2.9815000005056E+02  2.9815000330792E+02 
 8.0911499769706E-01  8.0911499769706E-01  8.0911499769706E-01  8.0911499769706E-01  8.0911499769706E-01  8.0911499769706E-01  8.0911499769706E-01  8.0911499769706E-01  8.0911499769706E-01  8.0911499769706E-01 
 2.6811111111111E-05  5.3622222222222E-05  5.3622222222222E-05  5.3622222222222E-05  5.3622222222222E-05  5.3622222222222E-05  5.3622222222222E-05  5.3622222222223E-05  5.3622222222222E-05  2.6811111111111E-05 
 1.9088500230294E-01  1.9088500230294E-01  1.9088500230294E-01  1.9088500230294E-01  1.9088500230294E-01  1.9088500230294E-01  1.9088500230294E-01  1.9088500230294E-01  1.9088500230294E-01  1.9088500230294E-01 
 8.4833868741803E-10  8.4833868426570E-10  8.4833868534303E-10  8.4833868533408E-10  8.4833876835750E-10  8.4833876608580E-10  8.4833868176722E-10  8.4833868446032E-10  8.4833868421500E-10  8.4833868649171E-10 
 2.8287681758973E-02  2.8287681791230E-02  2.8287681822756E-02  2.8287681820356E-02  2.8287681822065E-02  2.8287681823362E-02  2.8287681821564E-02  2.8287681824371E-02  2.8287681903603E-02  2.8287681980313E-02 
 2.8287681758973E-02  2.8287681791230E-02  2.8287681822756E-02  2.8287681820356E-02  2.8287681822065E-02  2.8287681823362E-02  2.8287681821564E-02  2.8287681824371E-02  2.8287681903603E-02  2.8287681980313E-02 
 0.0000000000000E+00  0.0000000000000E+00  0.0000000000000E+00  0.0000000000000E+00  0.0000000000000E+00  0.0000000000000E+00  0.0000000000000E+00  0.0000000000000E+00  0.0000000000000E+00  0.0000000000000E+00 
ZONE T = "SEP , 4.0000E-08", I = 10, SOLUTIONTIME = 4.000000E-08
ZONETYPE = ORDERED
DATAPACKING = BLOCK
STRANDID = 2
 7.8740000000000E-04  8.4102222222222E-04  8.9464444444444E-04  9.4826666666667E-04  1.0018888888889E-03  1.0555111111111E-03  1.1091333333333E-03  1.1627555555556E-03  1.2163777777778E-03  1.2700000000000E-03 
 2.1103838491905E-08  2.1103838491905E-08  2.1103838491905E-08  2.1103838491905E-08  2.1103838491905E-08  2.1103838491905E-08  2.1103838491905E-08  2.1103838491905E-08  2.1103838491905E-08  1.9931932175593E-08 
 9.1999999999891E-01  9.2000000000000E-01  9.2000000000000E-01  9.2000000000000E-01  9.2000000000000E-01  9.2000000000000E-01  9.2000000000000E-01  9.2000000000000E-01  9.2000000000000E-01  9.2000000000129E-01 
 4.0000000000546E-02  4.0000000000000E-02  4.0000000000000E-02  4.0000000000000E-02  4.0000000000000E-02  4.0000000000000E-02  4.0000000000000E-02  4.0000000000000E-02  4.0000000000000E-02  3.9999999999357E-02 
 4.0000000000546E-02  4.0000000000000E-02  4.0000000000000E-02  4.0000000000000E-02  4.0000000000000E-02  4.0000000000000E-02  4.0000000000000E-02  4.0000000000000E-02  4.0000000000000E-02  3.9999999999357E-02 
 2.9793018300623E-02  2.9792968369088E-02  2.9792918437553E-02  2.9792868506018E-02  2.9792818574483E-02  2.9792768642948E-02  2.9792718711413E-02  2.9792668779878E-02  2.9792618848343E-02  2.9792568916807E-02 
 2.9814999831498E+02  2.9814999994912E+02  2.9815000000099E+02  2.9814999998725E+02  2.9814999999239E+02  2.9815000001313E+02  2.9814999999236E+02  2.9815000000549E+02  2.9815000006981E+02  2.9815000444145E+02 
 8.0911499769706E-01  8.0911499769706E-01  8.0911499769706E-01  8.0911499769706E-01  8.0911499769706E-01  8.0911499769706E-01  8.0911499769706E-01  8.0911499769706E-01  8.0911499769706E-01  8.0911499769706E-01 
 2.6811111111111E-05  5.3622222222222E-05  5.3622222222222E-05  5.3622222222222E-05  5.3622222222222E-05  5.3622222222222E-05  5.3622222222222E-05  5.3622222222223E-05  5.3622222222222E-05  2.6811111111111E-05 
 1.9088500230294E-01  1.9088500230294E-01  1.9088500230294E-01  1.9088500230294E-01  1.9088500230294E-01  1.9088500230294E-01  1.9088500230294E-01  1.9088500230294E-01  1.9088500230294E-01  1.9088500230294E-01 
 1.1313113234091E-09  1.1313113206619E-09  1.1313113221353E-09  1.1313113221390E-09  1.1313114051780E-09  1.1313114029002E-09  1.1313113185834E-09  1.1313113212796E-09  1.1313113221054E-09  1.1313113254520E-09 
 2.8297263599107E-02  2.8297263639620E-02  2.8297263679229E-02  2.8297263680494E-02  2.8297263682050E-02  2.8297263681438E-02  2.8297263681620E-02  2.8297263681929E-02  2.8297263789041E-02  2.8297263896025E-02 
 2.8297263599107E-02  2.8297263639620E-02  2.8297263679229E-02  2.8297263680494E-02  2.8297263682050E-02  2.8297263681438E-02  2.8297263681620E-02  2.8297263681929E-02  2.8297263789041E-02  2.8297263896025E-02 
 0.0000000000000E+00  0.0000000000000E+00  0.0000000000000E+00  0.0000000000000E+00  0.0000000000000E+00  0.0000000000000E+00  0.0000000000000E+00  0.0000000000000E+00  0.0000000000000E+00  0.0000000000000E+00 
ZONE T = "SEP , 5.5000E-08", I = 10, SOLUTIONTIME = 5.500000E-08
ZONETYPE = ORDERED
DATAPACKING = BLOCK
STRANDID = 2
 7.8740000000000E-04  8.4102222222222E-04  8.9464444444444E-04  9.4826666666667E-04  1.0018888888889E-03  1.0555111111111E-03  1.1091333333333E-03  1.1627555555556E-03  1.2163777777778E-03  1.2700000000000E-03 
 2.1105705004517E-08  2.1105705004517E-08  2.1105705004517E-08  2.1105705004517E-08  2.1105705004517E-08  2.1105705004517E-08  2.1105705004517E-08  2.1105705004517E-08  2.1105705004517E-08  1.9933095642145E-08 
 9.1999999999850E-01  9.2000000000000E-01  9.2000000000000E-01  9.2000000000000E-01  9.2000000000000E-01  9.2000000000000E-01  9.2000000000000E-01  9.2000000000000E-01  9.2000000000000E-01  9.2000000000177E-01 
 4.0000000000750E-02  4.0000000000000E-02  4.0000000000000E-02  4.0000000000000E-02  4.0000000000000E-02  4.0000000000000E-02  4.0000000000000E-02  4.0000000000000E-02  4.0000000000000E-02  3.9999999999116E-02 
 4.0000000000750E-02  4.0000000000000E-02  4.0000000000000E-02  4.0000000000000E-02  4.0000000000000E-02  4.0000000000000E-02  4.0000000000000E-02  4.0000000000000E-02  4.0000000000000E-02  3.9999999999116E-02 
 2.9807947866757E-02  2.9807897922641E-02  2.9807847978525E-02  2.9807798034409E-02  2.9807748090292E-02  2.9807698146176E-02  2.9807648202060E-02  2.9807598257944E-02  2.9807548313828E-02  2.9807498369712E-02 
 2.9814999760552E+02  2.9814999992560E+02  2.9814999999669E+02  2.9814999998822E+02  2.9814999999095E+02  2.9815000000016E+02  2.9814999999488E+02  2.9815000000890E+02  2.9815000015387E+02  2.9815000620637E+02 
 8.0911499769706E-01  8.0911499769706E-01  8.0911499769706E-01  8.0911499769706E-01  8.0911499769706E-01  8.0911499769706E-01  8.0911499769706E-01  8.0911499769706E-01  8.0911499769706E-01  8.0911499769706E-01 
 2.6811111111111E-05  5.3622222222222E-05  5.3622222222222E-05  5.3622222222222E-05  5.3622222222222E-05  5.3622222222222E-05  5.3622222222222E-05  5.3622222222223E-05  5.3622222222222E-05  2.6811111111111E-05 
 1.9088500230294E-01  1.9088500230294E-01  1.9088500230294E-01  1.9088500230294E-01  1.9088500230294E-01  1.9088500230294E-01  1.9088500230294E-01  1.9088500230294E-01  1.9088500230294E-01  1.9088500230294E-01 
 1.5559842001578E-09  1.5559841982976E-09  1.5559842006358E-09  1.5559842006488E-09  1.5559842837151E-09  1.5559842814021E-09  1.5559841971103E-09  1.5559841998943E-09  1.5559842029384E-09  1.5559842084713E-09 
 2.8311525116578E-02  2.8311525175716E-02  2.8311525233368E-02  2.8311525233984E-02  2.8311525235804E-02  2.8311525233461E-02  2.8311525235127E-02  2.8311525240978E-02  2.8311525388863E-02  2.8311525534622E-02 
 2.8311525116578E-02  2.8311525175716E-02  2.8311525233368E-02  2.8311525233984E-02  2.8311525235804E-02  2.8311525233461E-02  2.8311525235127E-02  2.8311525240978E-02  2.8311525388863E-02  2.8311525534622E-02 
 0.0000000000000E+00  0.0000000000000E+00  0.0000000000000E+00  0.0000000000000E+00  0.0000000000000E+00  0.0000000000000E+00  0.0000000000000E+00  0.0000000000000E+00  0.0000000000000E+00  0.0000000000000E+00 
ZONE T = "SEP , 7.7500E-08", I = 10, SOLUTIONTIME = 7.750000E-08
ZONETYPE = ORDERED
DATAPACKING = BLOCK
STRANDID = 2
 7.8740000000000E-04  8.4102222222222E-04  8.9464444444444E-04  9.4826666666667E-04  1.0018888888889E-03  1.0555111111111E-03  1.1091333333333E-03  1.1627555555556E-03  1.2163777777778E-03  1.2700000000000E-03 
 2.1116364815140E-08  2.1116364815140E-08  2.1116364815140E-08  2.1116364815140E-08  2.1116364815140E-08  2.1116364815140E-08  2.1116364815140E-08  2.1116364815140E-08  2.1116364815140E-08  1.9943859279018E-08 
 9.1999999999789E-01  9.2000000000000E-01  9.2000000000000E-01  9.2000000000000E-01  9.2000000000000E-01  9.2000000000000E-01  9.2000000000000E-01  9.2000000000000E-01  9.2000000000000E-01  9.2000000000249E-01 
 4.0000000001055E-02  4.0000000000000E-02  4.0000000000000E-02  4.0000000000000E-02  4.0000000000000E-02  4.0000000000000E-02  4.0000000000000E-02  4.0000000000000E-02  4.0000000000000E-02  3.9999999998755E-02 
 4.0000000001055E-02  4.0000000000000E-02  4.0000000000000E-02  4.0000000000000E-02  4.0000000000000E-02  4.0000000000000E-02  4.0000000000000E-02  4.0000000000000E-02  4.0000000000000E-02  3.9999999998755E-02 
 2.9829972090496E-02  2.9829922127746E-02  2.9829872164996E-02  2.9829822202246E-02  2.9829772239495E-02  2.9829722276745E-02  2.9829672313995E-02  2.9829622351245E-02  2.9829572388494E-02  2.9829522425743E-02 
 2.9814999654803E+02  2.9814999985684E+02  2.9814999999548E+02  2.9814999998975E+02  2.9814999998944E+02  2.9815000001227E+02  2.9814999998407E+02  2.9815000001384E+02  2.9815000031758E+02  2.9815000889150E+02 
 8.0911499769706E-01  8.0911499769706E-01  8.0911499769706E-01  8.0911499769706E-01  8.0911499769706E-01  8.0911499769706E-01  8.0911499769706E-01  8.0911499769706E-01  8.0911499769706E-01  8.0911499769706E-01 
 2.6811111111111E-05  5.3622222222222E-05  5.3622222222222E-05  5.3622222222222E-05  5.3622222222222E-05  5.3622222222222E-05  5.3622222222222E-05  5.3622222222223E-05  5.3622222222222E-05  2.6811111111111E-05 
 1.9088500230294E-01  1.9088500230294E-01  1.9088500230294E-01  1.9088500230294E-01  1.9088500230294E-01  1.9088500230294E-01  1.9088500230294E-01  1.9088500230294E-01  1.9088500230294E-01  1.9088500230294E-01 
 2.1934689392142E-09  2.1934689392256E-09  2.1934689434970E-09  2.1934689435307E-09  2.1934690266324E-09  2.1934690243545E-09  2.1934689400205E-09  2.1934689430238E-09  2.1934689510108E-09  2.1934689612666E-09 
 2.8332655069176E-02  2.8332655152353E-02  2.8332655238274E-02  2.8332655239195E-02  2.8332655240771E-02  2.8332655242331E-02  2.8332655240454E-02  2.8332655250200E-02  2.8332655469888E-02  2.8332655679793E-02 
 2.8332655069176E-02  2.8332655152353E-02  2.8332655238274E-02  2.8332655239195E-02  2.8332655240771E-02  2.8332655242331E-02  2.8332655240454E-02  2.8332655250200E-02  2.8332655469888E-02  2.8332655679793E-02 
 0.0000000000000E+00  0.0000000000000E+00  0.0000000000000E+00  0.0000000000000E+00  0.0000000000000E+00  0.0000000000000E+00  0.0000000000000E+00  0.0000000000000E+00  0.0000000000000E+00  0.0000000000000E+00 
ZONE T = "SEP , 1.1125E-07", I = 10, SOLUTIONTIME = 1.112500E-07
ZONETYPE = ORDERED
DATAPACKING = BLOCK
STRANDID = 2
 7.8740000000000E-04  8.4102222222222E-04  8.9464444444444E-04  9.4826666666667E-04  1.0018888888889E-03  1.0555111111111E-03  1.1091333333333E-03  1.1627555555556E-03  1.2163777777778E-03  1.2700000000000E-03 
 2.1127726778168E-08  2.1127296309749E-08  2.1127296309749E-08  2.1127296309749E-08  2.1127296309749E-08  2.1127296309749E-08  2.1127296309749E-08  2.1127296309749E-08  2.1127296309749E-08  1.9953814740119E-08 
 9.1999999999698E-01  9.2000000000000E-01  9.2000000000000E-01  9.2000000000000E-01  9.2000000000000E-01  9.2000000000000E-01  9.2000000000000E-01  9.2000000000000E-01  9.2000000000000E-01  9.2000000000358E-01 
 4.0000000001512E-02  4.0000000000000E-02  4.0000000000000E-02  4.0000000000000E-02  4.0000000000000E-02  4.0000000000000E-02  4.0000000000000E-02  4.0000000000000E-02  4.0000000000000E-02  3.9999999998212E-02 
 4.0000000001512E-02  4.0000000000000E-02  4.0000000000000E-02  4.0000000000000E-02  4.0000000000000E-02  4.0000000000000E-02  4.0000000000000E-02  4.0000000000000E-02  4.0000000000000E-02  3.9999999998212E-02 
 2.9862183009970E-02  2.9862133019826E-02  2.9862083029682E-02  2.9862033039538E-02  2.9861983049394E-02  2.9861933059250E-02  2.9861883069107E-02  2.9861833078963E-02  2.9861783088819E-02  2.9861733098674E-02 
 2.9814999505856E+02  2.9814999971165E+02  2.9814999997280E+02  2.9814999998591E+02  2.9814999998284E+02  2.9815000001083E+02  2.9814999998908E+02  2.9815000004469E+02  2.9815000067156E+02  2.9815001307919E+02 
 8.0911499769706E-01  8.0911499769706E-01  8.0911499769706E-01  8.0911499769706E-01  8.0911499769706E-01  8.0911499769706E-01  8.0911499769706E-01  8.0911499769706E-01  8.0911499769706E-01  8.0911499769706E-01 
 2.6811111111111E-05  5.3622222222222E-05  5.3622222222222E-05  5.3622222222222E-05  5.3622222222222E-05  5.3622222222222E-05  5.3622222222222E-05  5.3622222222223E-05  5.3622222222222E-05  2.6811111111111E-05 
 1.9088500230294E-01  1.9088500230294E-01  1.9088500230294E-01  1.9088500230294E-01  1.9088500230294E-01  1.9088500230294E-01  1.9088500230294E-01  1.9088500230294E-01  1.9088500230294E-01  1.9088500230294E-01 
 3.1507448973669E-09  3.1507449013307E-09  3.1507449097995E-09  3.1507449100700E-09  3.1507449932101E-09  3.1507449909737E-09  3.1507449066075E-09  3.1507449101652E-09  3.1507449292549E-09  3.1507449500317E-09 
 2.8363732093413E-02  2.8363732210523E-02  2.8363732334889E-02  2.8363732341907E-02  2.8363732343044E-02  2.8363732344272E-02  2.8363732343318E-02  2.8363732359746E-02  2.8363732688713E-02  2.8363733000447E-02 
 2.8363732093413E-02  2.8363732210523E-02  2.8363732334889E-02  2.8363732341907E-02  2.8363732343044E-02  2.8363732344272E-02  2.8363732343318E-02  2.8363732359746E-02  2.8363732688713E-02  2.8363733000447E-02 
 0.0000000000000E+00  0.0000000000000E+00  0.0000000000000E+00  0.0000000000000E+00  0.0000000000000E+00  0.0000000000000E+00  0.0000000000000E+00  0.0000000000000E+00  0.0000000000000E+00  0.0000000000000E+00 
ZONE T = "SEP , 1.6188E-07", I = 10, SOLUTIONTIME = 1.618750E-07
ZONETYPE = ORDERED
DATAPACKING = BLOCK
STRANDID = 2
 7.8740000000000E-04  8.4102222222222E-04  8.9464444444444E-04  9.4826666666667E-04  1.0018888888889E-03  1.0555111111111E-03  1.1091333333333E-03  1.1627555555556E-03  1.2163777777778E-03  1.2700000000000E-03 
 2.1143399921155E-08  2.1143686900101E-08  2.1143686900101E-08  2.1143686900101E-08  2.1143686900101E-08  2.1143686900101E-08  2.1143686900101E-08  2.1143686900101E-08  2.1143686900101E-08  1.9969216520010E-08 
 9.1999999999561E-01  9.2000000000000E-01  9.2000000000000E-01  9.2000000000000E-01  9.2000000000000E-01  9.2000000000000E-01  9.2000000000000E-01  9.2000000000000E-01  9.2000000000000E-01  9.2000000000521E-01 
 4.0000000002195E-02  4.0000000000001E-02  4.0000000000000E-02  4.0000000000000E-02  4.0000000000000E-02  4.0000000000000E-02  4.0000000000000E-02  4.0000000000000E-02  3.9999999999999E-02  3.9999999997397E-02 
 4.0000000002195E-02  4.0000000000001E-02  4.0000000000000E-02  4.0000000000000E-02  4.0000000000000E-02  4.0000000000000E-02  4.0000000000000E-02  4.0000000000000E-02  3.9999999999999E-02  3.9999999997397E-02 
 2.9908693524293E-02  2.9908643494348E-02  2.9908593464403E-02  2.9908543434457E-02  2.9908493404512E-02  2.9908443374566E-02  2.9908393344621E-02  2.9908343314675E-02  2.9908293284730E-02  2.9908243254782E-02 
 2.9814999286291E+02  2.9814999944101E+02  2.9814999995091E+02  2.9814999998287E+02  2.9814999998628E+02  2.9815000000517E+02  2.9814999999577E+02  2.9815000009607E+02  2.9815000143412E+02  2.9815001962410E+02 
 8.0911499769706E-01  8.0911499769706E-01  8.0911499769706E-01  8.0911499769706E-01  8.0911499769706E-01  8.0911499769706E-01  8.0911499769706E-01  8.0911499769706E-01  8.0911499769706E-01  8.0911499769706E-01 
 2.6811111111111E-05  5.3622222222222E-05  5.3622222222222E-05  5.3622222222222E-05  5.3622222222222E-05  5.3622222222222E-05  5.3622222222222E-05  5.3622222222223E-05  5.3622222222222E-05  2.6811111111111E-05 
 1.9088500230294E-01  1.9088500230294E-01  1.9088500230294E-01  1.9088500230294E-01  1.9088500230294E-01  1.9088500230294E-01  1.9088500230294E-01  1.9088500230294E-01  1.9088500230294E-01  1.9088500230294E-01 
 4.5889462560410E-09  4.5889462684922E-09  4.5889462861912E-09  4.5889462872616E-09  4.5889463704319E-09  4.5889463681571E-09  4.5889462838693E-09  4.5889462893728E-09  4.5889463338206E-09  4.5889463780996E-09 
 2.8408915726895E-02  2.8408915894547E-02  2.8408916076872E-02  2.8408916092673E-02  2.8408916093269E-02  2.8408916092512E-02  2.8408916094061E-02  2.8408916132495E-02  2.8408916633396E-02  2.8408917097637E-02 
 2.8408915726895E-02  2.8408915894547E-02  2.8408916076872E-02  2.8408916092673E-02  2.8408916093269E-02  2.8408916092512E-02  2.8408916094061E-02  2.8408916132495E-02  2.8408916633396E-02  2.8408917097637E-02 
 0.0000000000000E+00  0.0000000000000E+00  0.0000000000000E+00  0.0000000000000E+00  0.0000000000000E+00  0.0000000000000E+00  0.0000000000000E+00  0.0000000000000E+00  0.0000000000000E+00  0.0000000000000E+00 
ZONE T = "SEP , 2.3781E-07", I = 10, SOLUTIONTIME = 2.378125E-07
ZONETYPE = ORDERED
DATAPACKING = BLOCK
STRANDID = 2
 7.8740000000000E-04  8.4102222222222E-04  8.9464444444444E-04  9.4826666666667E-04  1.0018888888889E-03  1.0555111111111E-03  1.1091333333333E-03  1.1627555555556E-03  1.2163777777778E-03  1.2700000000000E-03 
 2.1167907160937E-08  2.1167907160937E-08  2.1167907160937E-08  2.1167907160937E-08  2.1167907160937E-08  2.1167907160937E-08  2.1167907160937E-08  2.1167907160937E-08  2.1167811501289E-08  1.9991763888171E-08 
 9.1999999999358E-01  9.2000000000000E-01  9.2000000000000E-01  9.2000000000000E-01  9.2000000000000E-01  9.2000000000000E-01  9.2000000000000E-01  9.2000000000000E-01  9.2000000000000E-01  9.2000000000765E-01 
 4.0000000003212E-02  4.0000000000001E-02  4.0000000000000E-02  4.0000000000000E-02  4.0000000000000E-02  4.0000000000000E-02  4.0000000000000E-02  4.0000000000000E-02  3.9999999999998E-02  3.9999999996173E-02 
 4.0000000003212E-02  4.0000000000001E-02  4.0000000000000E-02  4.0000000000000E-02  4.0000000000000E-02  4.0000000000000E-02  4.0000000000000E-02  4.0000000000000E-02  3.9999999999998E-02  3.9999999996173E-02 
 2.9974640563333E-02  2.9974590476560E-02  2.9974540389786E-02  2.9974490303012E-02  2.9974440216238E-02  2.9974390129465E-02  2.9974340042691E-02  2.9974289955917E-02  2.9974239869142E-02  2.9974189782366E-02 
 2.9814998946697E+02  2.9814999887083E+02  2.9814999989146E+02  2.9814999997851E+02  2.9814999998232E+02  2.9815000000502E+02  2.9815000000749E+02  2.9815000027012E+02  2.9815000306097E+02  2.9815002983139E+02 
 8.0911499769706E-01  8.0911499769706E-01  8.0911499769706E-01  8.0911499769706E-01  8.0911499769706E-01  8.0911499769706E-01  8.0911499769706E-01  8.0911499769706E-01  8.0911499769706E-01  8.0911499769706E-01 
 2.6811111111111E-05  5.3622222222222E-05  5.3622222222222E-05  5.3622222222222E-05  5.3622222222222E-05  5.3622222222222E-05  5.3622222222222E-05  5.3622222222223E-05  5.3622222222222E-05  2.6811111111111E-05 