TITLE = "Solution on Domain BulkDomain1D_0"
VARIABLES = "x [m]"  
"Vel_axial" 
"MF_sp(ECDMC)" 
"MF_sp(Li+)" 
"MF_sp(PF6-)" 
"Volt(Electroly)" 
"Volt(AnodeVolt)" 
"Temperature" 
"Potential Drop Electrode-Electrolyte [V]" 
"Surf_0 Equilibrium Potential Drop Electrode-Electrolyte [V]" 
"Overpotential_0 [V]" 
"Current Source [A/m^2]" 
"Li+ flux [kmol/m^2/s]" 
"Electrolyte Current [A/m^2]" 
"Electrode Current [A/m^2]" 
"CV Capacity discharged [A-s/m^2]" 
"Depth of discharge in CV [A-s/m^2]" 
"CV Capacity remaining [A-s/m^2]" 
"Initial CV capacity [A-s/m^2]" 
"Porosity []" 
"Surface Area [m2/m2] (area per area)" 
"Specific current (per particle area) [A/m^2]" 
"Control volume thickness [m]" 
"MoleDens Li_C6-bulk [kmol/m^3]" 
"MoleDens V_C6-bulk [kmol/m^3]" 
"qHeat_accum [J/m3]" 
"qHeat_step [W/m3]" 
"Joule_Lyte [W/m3]" 
"Joule_Solid [W/m3]" 
"electrodHeat [W/m3]" 
"OverpotHeat [W/m3]" 
"deltaSHeat [W/m3]" 

ZONE T = "ANOD, 0.0000E+00", I = 10, SOLUTIONTIME = 0.000000E+00
ZONETYPE = ORDERED
DATAPACKING = BLOCK
STRANDID = 1
 0.0000000000000E+00  8.7488888888889E-05  1.7497777777778E-04  2.6246666666667E-04  3.4995555555556E-04  4.3744444444444E-04  5.2493333333333E-04  6.1242222222222E-04  6.9991111111111E-04  7.8740000000000E-04 
 0.0000000000000E+00  0.0000000000000E+00  0.0000000000000E+00  0.0000000000000E+00  0.0000000000000E+00  0.0000000000000E+00  0.0000000000000E+00  0.0000000000000E+00  0.0000000000000E+00  0.0000000000000E+00 
 9.2000000000000E-01  9.2000000000000E-01  9.2000000000000E-01  9.2000000000000E-01  9.2000000000000E-01  9.2000000000000E-01  9.2000000000000E-01  9.2000000000000E-01  9.2000000000000E-01  9.2000000000000E-01 
 4.0000000000000E-02  4.0000000000000E-02  4.0000000000000E-02  4.0000000000000E-02  4.0000000000000E-02  4.0000000000000E-02  4.0000000000000E-02  4.0000000000000E-02  4.0000000000000E-02  4.0000000000000E-02 
 4.0000000000000E-02  4.0000000000000E-02  4.0000000000000E-02  4.0000000000000E-02  4.0000000000000E-02  4.0000000000000E-02  4.0000000000000E-02  4.0000000000000E-02  4.0000000000000E-02  4.0000000000000E-02 
-7.0000000000000E-02 -7.0000000000000E-02 -7.0000000000000E-02 -7.0000000000000E-02 -7.0000000000000E-02 -7.0000000000000E-02 -7.0000000000000E-02 -7.0000000000000E-02 -7.0000000000000E-02 -7.0000000000000E-02 
 0.0000000000000E+00  0.0000000000000E+00  0.0000000000000E+00  0.0000000000000E+00  0.0000000000000E+00  0.0000000000000E+00  0.0000000000000E+00  0.0000000000000E+00  0.0000000000000E+00  0.0000000000000E+00 
 3.0200000000000E+02  2.9815000000000E+02  2.9815000000000E+02  2.9815000000000E+02  2.9815000000000E+02  2.9815000000000E+02  2.9815000000000E+02  2.9815000000000E+02  2.9815000000000E+02  2.9815000000000E+02 
 7.0000000000000E-02  7.0000000000000E-02  7.0000000000000E-02  7.0000000000000E-02  7.0000000000000E-02  7.0000000000000E-02  7.0000000000000E-02  7.0000000000000E-02  7.0000000000000E-02  7.0000000000000E-02 
-4.3593957435725E-02 -4.0899179293840E-02 -4.0899179293840E-02 -4.0899179293840E-02 -4.0899179293840E-02 -4.0899179293840E-02 -4.0899179293840E-02 -4.0899179293840E-02 -4.0899179293840E-02 -4.0899179293840E-02 
 1.1359395743572E-01  1.1089917929384E-01  1.1089917929384E-01  1.1089917929384E-01  1.1089917929384E-01  1.1089917929384E-01  1.1089917929384E-01  1.1089917929384E-01  1.1089917929384E-01  1.1089917929384E-01 
 5.5828906379404E+01  6.1851167975038E+01  6.1851167975038E+01  6.1851167975038E+01  6.1851167975038E+01  6.1851167975038E+01  6.1851167975038E+01  6.1851167975038E+01  6.1851167975038E+01  3.0925583987519E+01 
-0.0000000000000E+00 -0.0000000000000E+00 -0.0000000000000E+00 -0.0000000000000E+00 -0.0000000000000E+00 -0.0000000000000E+00 -0.0000000000000E+00 -0.0000000000000E+00 -0.0000000000000E+00 -0.0000000000000E+00 
 0.0000000000000E+00  0.0000000000000E+00  0.0000000000000E+00  0.0000000000000E+00  0.0000000000000E+00  0.0000000000000E+00  0.0000000000000E+00  0.0000000000000E+00  0.0000000000000E+00  3.0925583987519E+01 
 5.5828906379404E+01 -0.0000000000000E+00 -0.0000000000000E+00 -0.0000000000000E+00 -0.0000000000000E+00 -0.0000000000000E+00 -0.0000000000000E+00 -0.0000000000000E+00 -0.0000000000000E+00  0.0000000000000E+00 
 0.0000000000000E+00  0.0000000000000E+00  0.0000000000000E+00  0.0000000000000E+00  0.0000000000000E+00  0.0000000000000E+00  0.0000000000000E+00  0.0000000000000E+00  0.0000000000000E+00  0.0000000000000E+00 
 4.5724222271641E+04  9.1448444543281E+04  9.1448444543281E+04  9.1448444543281E+04  9.1448444543281E+04  9.1448444543281E+04  9.1448444543281E+04  9.1448444543281E+04  9.1448444543281E+04  4.5724222271641E+04 
 3.3835924481014E+05  6.7671848962028E+05  6.7671848962028E+05  6.7671848962028E+05  6.7671848962028E+05  6.7671848962028E+05  6.7671848962028E+05  6.7671848962028E+05  6.7671848962028E+05  3.3835924481014E+05 
 3.8408346708178E+05  7.6816693416356E+05  7.6816693416356E+05  7.6816693416356E+05  7.6816693416356E+05  7.6816693416356E+05  7.6816693416356E+05  7.6816693416356E+05  7.6816693416356E+05  3.8408346708178E+05 
 3.5000000000000E-01  3.5000000000000E-01  3.5000000000000E-01  3.5000000000000E-01  3.5000000000000E-01  3.5000000000000E-01  3.5000000000000E-01  3.5000000000000E-01  3.5000000000000E-01  3.5000000000000E-01 
 8.5301666666667E+00  1.7060333333333E+01  1.7060333333333E+01  1.7060333333333E+01  1.7060333333333E+01  1.7060333333333E+01  1.7060333333333E+01  1.7060333333333E+01  1.7060333333333E+01  8.5301666666667E+00 
 6.5448787299275E+00  3.6254372506421E+00  3.6254372506421E+00  3.6254372506421E+00  3.6254372506421E+00  3.6254372506421E+00  3.6254372506421E+00  3.6254372506421E+00  3.6254372506421E+00  3.6254372506421E+00 
 4.3744444444444E-05  8.7488888888889E-05  8.7488888888889E-05  8.7488888888889E-05  8.7488888888889E-05  8.7488888888889E-05  8.7488888888889E-05  8.7488888888889E-05  8.7488888888889E-05  4.3744444444444E-05 
 8.6666666666667E+01  8.6666666666667E+01  8.6666666666667E+01  8.6666666666667E+01  8.6666666666667E+01  8.6666666666667E+01  8.6666666666667E+01  8.6666666666667E+01  8.6666666666667E+01  8.6666666666667E+01 
 2.1666666666667E+01  2.1666666666667E+01  2.1666666666667E+01  2.1666666666667E+01  2.1666666666667E+01  2.1666666666667E+01  2.1666666666667E+01  2.1666666666667E+01  2.1666666666667E+01  2.1666666666667E+01 
 0.0000000000000E+00  0.0000000000000E+00  0.0000000000000E+00  0.0000000000000E+00  0.0000000000000E+00  0.0000000000000E+00  0.0000000000000E+00  0.0000000000000E+00  0.0000000000000E+00  0.0000000000000E+00 
 0.0000000000000E+00  0.0000000000000E+00  0.0000000000000E+00  0.0000000000000E+00  0.0000000000000E+00  0.0000000000000E+00  0.0000000000000E+00  0.0000000000000E+00  0.0000000000000E+00  0.0000000000000E+00 
 0.0000000000000E+00  0.0000000000000E+00  0.0000000000000E+00  0.0000000000000E+00  0.0000000000000E+00  0.0000000000000E+00  0.0000000000000E+00  0.0000000000000E+00  0.0000000000000E+00  0.0000000000000E+00 
 0.0000000000000E+00  0.0000000000000E+00  0.0000000000000E+00  0.0000000000000E+00  0.0000000000000E+00  0.0000000000000E+00  0.0000000000000E+00  0.0000000000000E+00  0.0000000000000E+00  0.0000000000000E+00 
 0.0000000000000E+00  0.0000000000000E+00  0.0000000000000E+00  0.0000000000000E+00  0.0000000000000E+00  0.0000000000000E+00  0.0000000000000E+00  0.0000000000000E+00  0.0000000000000E+00  0.0000000000000E+00 
 0.0000000000000E+00  0.0000000000000E+00  0.0000000000000E+00  0.0000000000000E+00  0.0000000000000E+00  0.0000000000000E+00  0.0000000000000E+00  0.0000000000000E+00  0.0000000000000E+00  0.0000000000000E+00 
 0.0000000000000E+00  0.0000000000000E+00  0.0000000000000E+00  0.0000000000000E+00  0.0000000000000E+00  0.0000000000000E+00  0.0000000000000E+00  0.0000000000000E+00  0.0000000000000E+00  0.0000000000000E+00 
ZONE T = "ANOD, 1.0000E-08", I = 10, SOLUTIONTIME = 1.000000E-08
ZONETYPE = ORDERED
DATAPACKING = BLOCK
STRANDID = 1
 0.0000000000000E+00  8.7488888888889E-05  1.7497777777778E-04  2.6246666666667E-04  3.4995555555556E-04  4.3744444444444E-04  5.2493333333333E-04  6.1242222222222E-04  6.9991111111111E-04  7.8740000000000E-04 
 2.3825769355553E-09  4.6034388430646E-09  6.8020252619662E-09  9.0003477752055E-09  1.1198690620035E-08  1.3397063383038E-08  1.5595472138663E-08  1.7793559866865E-08  1.9992059050166E-08  2.1091336013041E-08 
 9.1999999999857E-01  9.1999999999933E-01  9.1999999999934E-01  9.1999999999934E-01  9.1999999999934E-01  9.1999999999934E-01  9.1999999999934E-01  9.1999999999934E-01  9.1999999999934E-01  9.1999999999973E-01 
 4.0000000000716E-02  4.0000000000334E-02  4.0000000000330E-02  4.0000000000330E-02  4.0000000000330E-02  4.0000000000330E-02  4.0000000000330E-02  4.0000000000330E-02  4.0000000000330E-02  4.0000000000137E-02 
 4.0000000000716E-02  4.0000000000334E-02  4.0000000000330E-02  4.0000000000330E-02  4.0000000000330E-02  4.0000000000330E-02  4.0000000000330E-02  4.0000000000330E-02  4.0000000000330E-02  4.0000000000137E-02 
 2.9756479964624E-02  2.9756447427475E-02  2.9756384960176E-02  2.9756292663937E-02  2.9756170537344E-02  2.9756018580011E-02  2.9755836791533E-02  2.9755625171438E-02  2.9755383719131E-02  2.9755112433974E-02 
 0.0000000000000E+00 -4.4980346080353E-09 -8.4621310886028E-09 -1.1897644899699E-08 -1.4804639489345E-08 -1.7183109969433E-08 -1.9033049147057E-08 -2.0354448368894E-08 -2.1147297493988E-08 -2.1411584922734E-08 
 3.0200000000000E+02  2.9819888177264E+02  2.9815061922978E+02  2.9815000640936E+02  2.9814999867181E+02  2.9814999855697E+02  2.9814999842421E+02  2.9814999851522E+02  2.9814999857003E+02  2.9814999953363E+02 
-2.9756479964624E-02 -2.9756451925509E-02 -2.9756393422307E-02 -2.9756304561582E-02 -2.9756185341983E-02 -2.9756035763121E-02 -2.9755855824582E-02 -2.9755645525886E-02 -2.9755404866428E-02 -2.9755133845559E-02 
-4.3593957435103E-02 -4.0933314442663E-02 -4.0899611701678E-02 -4.0899183769211E-02 -4.0899178366078E-02 -4.0899178285891E-02 -4.0899178193182E-02 -4.0899178256734E-02 -4.0899178295005E-02 -4.0899178968015E-02 
 1.3837477470479E-02  1.1176862517154E-02  1.1143218279371E-02  1.1142879207629E-02  1.1142993024095E-02  1.1143142522770E-02  1.1143322368600E-02  1.1143532730848E-02  1.1143773428577E-02  1.1144045122457E-02 
 3.4305956787753E+00  3.1982354341296E+00  3.1661567863489E+00  3.1657767389110E+00  3.1658060173316E+00  3.1658491018322E+00  3.1659009346882E+00  3.1659616760605E+00  3.1660311540502E+00  1.5830549972394E+00 
 1.7777845558530E-08  3.4351316451154E-08  5.0758671579414E-08  6.7164059520407E-08  8.3569607229546E-08  9.9975377829643E-08  1.1638140784740E-07  1.3278776449059E-07  1.4919454042630E-07  1.4919454042630E-07 
 0.0000000000000E+00  5.0296865988399E+00  8.2118657159399E+00  1.1377814385527E+01  1.4543588552371E+01  1.7709399639120E+01  2.0875257261578E+01  2.4041171428601E+01  2.7207150966769E+01  3.0373212661165E+01 
 3.0373221925775E+01  2.5343517229286E+01  2.2161338432745E+01  1.8995388897673E+01  1.5829614745630E+01  1.2663804411757E+01  9.4979466194852E+00  6.3320325396043E+00  3.1660533481967E+00  0.0000000000000E+00 
 3.4305956787753E-08  3.1982354341296E-08  3.1661567863489E-08  3.1657767389110E-08  3.1658060173316E-08  3.1658491018322E-08  3.1659009346882E-08  3.1659616760605E-08  3.1660311540502E-08  1.5830549972394E-08 
 4.5724222271675E+04  9.1448444543313E+04  9.1448444543313E+04  9.1448444543313E+04  9.1448444543313E+04  9.1448444543313E+04  9.1448444543313E+04  9.1448444543313E+04  9.1448444543313E+04  4.5724222271656E+04 
 3.3835924481011E+05  6.7671848962025E+05  6.7671848962025E+05  6.7671848962025E+05  6.7671848962025E+05  6.7671848962025E+05  6.7671848962025E+05  6.7671848962025E+05  6.7671848962025E+05  3.3835924481012E+05 
 3.8408346708178E+05  7.6816693416356E+05  7.6816693416356E+05  7.6816693416356E+05  7.6816693416356E+05  7.6816693416356E+05  7.6816693416356E+05  7.6816693416356E+05  7.6816693416356E+05  3.8408346708178E+05 
 3.5000000000000E-01  3.5000000000000E-01  3.5000000000000E-01  3.5000000000000E-01  3.5000000000000E-01  3.5000000000000E-01  3.5000000000000E-01  3.5000000000000E-01  3.5000000000000E-01  3.5000000000000E-01 
 8.5301666666667E+00  1.7060333333333E+01  1.7060333333333E+01  1.7060333333333E+01  1.7060333333333E+01  1.7060333333333E+01  1.7060333333333E+01  1.7060333333333E+01  1.7060333333333E+01  8.5301666666667E+00 
 4.0217217468693E-01  1.8746617499441E-01  1.8558586895619E-01  1.8556359228489E-01  1.8556530845421E-01  1.8556783387383E-01  1.8557087208270E-01  1.8557443246872E-01  1.8557850495595E-01  1.8558312622724E-01 
 4.3744444444444E-05  8.7488888888889E-05  8.7488888888889E-05  8.7488888888889E-05  8.7488888888889E-05  8.7488888888889E-05  8.7488888888889E-05  8.7488888888889E-05  8.7488888888889E-05  4.3744444444444E-05 
 8.6666666666659E+01  8.6666666666663E+01  8.6666666666663E+01  8.6666666666663E+01  8.6666666666663E+01  8.6666666666663E+01  8.6666666666663E+01  8.6666666666663E+01  8.6666666666663E+01  8.6666666666663E+01 
 2.1666666666675E+01  2.1666666666670E+01  2.1666666666670E+01  2.1666666666670E+01  2.1666666666670E+01  2.1666666666670E+01  2.1666666666670E+01  2.1666666666670E+01  2.1666666666670E+01  2.1666666666670E+01 
-1.5530974163053E-04 -7.2039873697036E-05 -7.1312783980317E-05 -7.1304070928965E-05 -7.1304600246584E-05 -7.1305408269609E-05 -7.1306380372782E-05 -7.1307520183039E-05 -7.1308823801461E-05 -7.1310408979551E-05 
-1.5530974163053E+04 -7.2039873697036E+03 -7.1312783980317E+03 -7.1304070928965E+03 -7.1304600246584E+03 -7.1305408269609E+03 -7.1306380372782E+03 -7.1307520183039E+03 -7.1308823801461E+03 -7.1310408979551E+03 
 1.2758327567206E-03  3.0044054756356E-03  7.5330632511196E-03  1.4212553584872E-02  2.3050828621951E-02  3.4048084380199E-02  4.7204433550867E-02  6.2520024079488E-02  7.9995022031272E-02  8.9272392626753E-02 
 1.3851915006519E-03  1.2305219156942E-03  9.4195990649138E-04  6.9331658897472E-04  4.8293831782320E-04  3.1080731616995E-04  1.7692447144546E-04  8.1291291004178E-05  2.3909707998645E-05  4.7820844832223E-06 
-1.5530976824077E+04 -7.2039916046310E+03 -7.1312868730549E+03 -7.1304219987667E+03 -7.1304835584253E+03 -7.1305751858526E+03 -7.1306854186362E+03 -7.1308146196193E+03 -7.1309623990778E+03 -7.1311301751299E+03 
 1.0851844393009E+03  4.0858031459102E+02  4.0326465024007E+02  4.0320397536970E+02  4.0321182284343E+02  4.0322272000473E+02  4.0323582972643E+02  4.0325117864130E+02  4.0326873843409E+02  4.0328861286854E+02 
-1.6616161263378E+04 -7.6125719192221E+03 -7.5345515232949E+03 -7.5336259741364E+03 -7.5336953812688E+03 -7.5337979058573E+03 -7.5339212483626E+03 -7.5340657982606E+03 -7.5342311375119E+03 -7.5344187879984E+03 
ZONE T = "ANOD, 2.0000E-08", I = 10, SOLUTIONTIME = 2.000000E-08
ZONETYPE = ORDERED
DATAPACKING = BLOCK
STRANDID = 1
 0.0000000000000E+00  8.7488888888889E-05  1.7497777777778E-04  2.6246666666667E-04  3.4995555555556E-04  4.3744444444444E-04  5.2493333333333E-04  6.1242222222222E-04  6.9991111111111E-04  7.8740000000000E-04 
 2.3800683095170E-09  4.6210763428593E-09  6.8181889386432E-09  9.0130395027284E-09  1.1207900036174E-08  1.3402427199412E-08  1.5597716787227E-08  1.7793048505788E-08  1.9988428528966E-08  2.1085419728848E-08 
 9.1999999999714E-01  9.1999999999866E-01  9.1999999999868E-01  9.1999999999868E-01  9.1999999999868E-01  9.1999999999868E-01  9.1999999999868E-01  9.1999999999868E-01  9.1999999999868E-01  9.1999999999945E-01 
 4.0000000001431E-02  4.0000000000670E-02  4.0000000000660E-02  4.0000000000660E-02  4.0000000000660E-02  4.0000000000660E-02  4.0000000000660E-02  4.0000000000660E-02  4.0000000000660E-02  4.0000000000273E-02 
 4.0000000001431E-02  4.0000000000670E-02  4.0000000000660E-02  4.0000000000660E-02  4.0000000000660E-02  4.0000000000660E-02  4.0000000000660E-02  4.0000000000660E-02  4.0000000000660E-02  4.0000000000273E-02 
 2.9766666849047E-02  2.9766634333651E-02  2.9766571612010E-02  2.9766479086386E-02  2.9766356757986E-02  2.9766204626399E-02  2.9766022691214E-02  2.9765810951942E-02  2.9765569408011E-02  2.9765298058765E-02 
 0.0000000000000E+00 -4.4993547340266E-09 -8.4599278225431E-09 -1.1892272577151E-08 -1.4796583545361E-08 -1.7172858330345E-08 -1.9021089758588E-08 -2.0341269172799E-08 -2.1133386443933E-08 -2.1397429958628E-08 
 3.0200000000000E+02  2.9824653791233E+02  2.9815182809559E+02  2.9815002799628E+02  2.9814999761032E+02  2.9814999724571E+02  2.9814999708644E+02  2.9814999702355E+02  2.9814999717025E+02  2.9814999911322E+02 
-2.9766666849047E-02 -2.9766638833006E-02 -2.9766580071937E-02 -2.9766490978658E-02 -2.9766371554570E-02 -2.9766221799258E-02 -2.9766041712304E-02 -2.9765831293211E-02 -2.9765590541397E-02 -2.9765319456195E-02 
-4.3593957434479E-02 -4.0966595675689E-02 -4.0900455853272E-02 -4.0899198843061E-02 -4.0899177624559E-02 -4.0899177369953E-02 -4.0899177258733E-02 -4.0899177214817E-02 -4.0899177317256E-02 -4.0899178674287E-02 
 1.3827290585432E-02  1.1199956842683E-02  1.1133875781334E-02  1.1132707864402E-02  1.1132806069990E-02  1.1132955570695E-02  1.1133135546429E-02  1.1133345921606E-02  1.1133586775858E-02  1.1133859218092E-02 
 3.4280109829898E+00  3.2272300607907E+00  3.1640171349732E+00  3.1628518214022E+00  3.1628661780779E+00  3.1629091464700E+00  3.1629610024627E+00  3.1630216741411E+00  3.1630912365933E+00  1.5815853699004E+00 
 1.7764682990341E-08  3.4488358369151E-08  5.0884717565049E-08  6.7275041351567E-08  8.3665439592036E-08  1.0005606050049E-07  1.1644695013445E-07  1.3283815417684E-07  1.4922985543450E-07  1.4922985543450E-07 
 0.0000000000000E+00  5.0416260136348E+00  8.2372496117597E+00  1.1400684090028E+01  1.4563543089648E+01  1.7726430751871E+01  2.0889365826426E+01  2.4052357164704E+01  2.7215413619944E+01  3.0378544608076E+01 
 3.0378544608274E+01  2.5336918594645E+01  2.2141294996515E+01  1.8977860518326E+01  1.5815001518594E+01  1.2652113856323E+01  9.4891787818464E+00  6.3261874435543E+00  3.1631309881996E+00  0.0000000000000E+00 
 6.8586066617651E-08  6.4254654949203E-08  6.3301739213221E-08  6.3286285603132E-08  6.3286721954095E-08  6.3287582483022E-08  6.3288619371510E-08  6.3289833502016E-08  6.3291223906435E-08  3.1646403671397E-08 
 4.5724222271709E+04  9.1448444543345E+04  9.1448444543345E+04  9.1448444543345E+04  9.1448444543345E+04  9.1448444543344E+04  9.1448444543344E+04  9.1448444543345E+04  9.1448444543345E+04  4.5724222271672E+04 
 3.3835924481007E+05  6.7671848962022E+05  6.7671848962022E+05  6.7671848962022E+05  6.7671848962022E+05  6.7671848962022E+05  6.7671848962022E+05  6.7671848962022E+05  6.7671848962022E+05  3.3835924481011E+05 
 3.8408346708178E+05  7.6816693416356E+05  7.6816693416356E+05  7.6816693416356E+05  7.6816693416356E+05  7.6816693416356E+05  7.6816693416356E+05  7.6816693416356E+05  7.6816693416356E+05  3.8408346708178E+05 
 3.5000000000000E-01  3.5000000000000E-01  3.5000000000000E-01  3.5000000000000E-01  3.5000000000000E-01  3.5000000000000E-01  3.5000000000000E-01  3.5000000000000E-01  3.5000000000000E-01  3.5000000000000E-01 
 8.5301666666667E+00  1.7060333333333E+01  1.7060333333333E+01  1.7060333333333E+01  1.7060333333333E+01  1.7060333333333E+01  1.7060333333333E+01  1.7060333333333E+01  1.7060333333333E+01  8.5301666666667E+00 
 4.0186916820576E-01  1.8916570958700E-01  1.8546045221703E-01  1.8539214677726E-01  1.8539298830101E-01  1.8539550691487E-01  1.8539854647991E-01  1.8540210278078E-01  1.8540618021883E-01  1.8541084033923E-01 
 4.3744444444444E-05  8.7488888888889E-05  8.7488888888889E-05  8.7488888888889E-05  8.7488888888889E-05  8.7488888888889E-05  8.7488888888889E-05  8.7488888888889E-05  8.7488888888889E-05  4.3744444444444E-05 
 8.6666666666650E+01  8.6666666666659E+01  8.6666666666659E+01  8.6666666666659E+01  8.6666666666659E+01  8.6666666666659E+01  8.6666666666659E+01  8.6666666666659E+01  8.6666666666659E+01  8.6666666666659E+01 
 2.1666666666683E+01  2.1666666666674E+01  2.1666666666674E+01  2.1666666666674E+01  2.1666666666674E+01  2.1666666666674E+01  2.1666666666674E+01  2.1666666666674E+01  2.1666666666674E+01  2.1666666666674E+01 
-3.1051045194336E-04 -1.4474109287132E-04 -1.4258117069954E-04 -1.4254594660703E-04 -1.4254666697855E-04 -1.4254828039529E-04 -1.4255022520039E-04 -1.4255250338820E-04 -1.4255511275839E-04 -1.4255829835034E-04 
-1.5520071031282E+04 -7.2701219174287E+03 -7.1268386719218E+03 -7.1241875678064E+03 -7.1242066731964E+03 -7.1242872125676E+03 -7.1243844827612E+03 -7.1244983205161E+03 -7.1246288956927E+03 -7.1247889370787E+03 
 2.5498589397554E-03  6.0270223174347E-03  1.5110943411825E-02  2.8480729574448E-02  4.6163715511370E-02  6.8160670645397E-02  9.4471831991261E-02  1.2509748981094E-01  1.6003797723645E-01  1.7858697054513E-01 
 2.7711961989795E-03  2.4604946096616E-03  1.8822189421754E-03  1.3853542654711E-03  9.6498539071101E-04  6.2104105480395E-04  3.5352244459753E-04  1.6243257048620E-04  4.7775296525661E-05  9.5553461529194E-06 
-1.5520073691313E+04 -7.2701261700182E+03 -7.1268471900610E+03 -7.1242025280200E+03 -7.1242302681304E+03 -7.1243216353876E+03 -7.1244319267576E+03 -7.1245609791232E+03 -7.1247089625135E+03 -7.1248782564299E+03 
 1.0835685444273E+03  4.1313631778849E+02  4.0265425928789E+02  4.0246373904064E+02  4.0246911617839E+02  4.0247998859817E+02  4.0249309388167E+02  4.0250842025372E+02  4.0252598027577E+02  4.0254594780298E+02 
-1.6603642235740E+04 -7.6832624878067E+03 -7.5295014493489E+03 -7.5266662670607E+03 -7.5266993843088E+03 -7.5268016239858E+03 -7.5269250206393E+03 -7.5270693993769E+03 -7.5272349427893E+03 -7.5274242042329E+03 
ZONE T = "ANOD, 3.0000E-08", I = 10, SOLUTIONTIME = 3.000000E-08
ZONETYPE = ORDERED
DATAPACKING = BLOCK
STRANDID = 1
 0.0000000000000E+00  8.7488888888889E-05  1.7497777777778E-04  2.6246666666667E-04  3.4995555555556E-04  4.3744444444444E-04  5.2493333333333E-04  6.1242222222222E-04  6.9991111111111E-04  7.8740000000000E-04 
 2.3786476132818E-09  4.6394107371029E-09  6.8353065235716E-09  9.0299644446157E-09  1.1224612293049E-08  1.3419652774320E-08  1.5614002879927E-08  1.7808395184134E-08  2.0002835773901E-08  2.1099720690408E-08 
 9.1999999999571E-01  9.1999999999798E-01  9.1999999999802E-01  9.1999999999802E-01  9.1999999999802E-01  9.1999999999802E-01  9.1999999999802E-01  9.1999999999802E-01  9.1999999999802E-01  9.1999999999918E-01 
 4.0000000002146E-02  4.0000000001010E-02  4.0000000000990E-02  4.0000000000990E-02  4.0000000000990E-02  4.0000000000990E-02  4.0000000000990E-02  4.0000000000990E-02  4.0000000000990E-02  4.0000000000410E-02 
 4.0000000002146E-02  4.0000000001010E-02  4.0000000000990E-02  4.0000000000990E-02  4.0000000000990E-02  4.0000000000990E-02  4.0000000000990E-02  4.0000000000990E-02  4.0000000000990E-02  4.0000000000410E-02 
 2.9776792242892E-02  2.9776759749348E-02  2.9776696778711E-02  2.9776604025453E-02  2.9776481496951E-02  2.9776329192800E-02  2.9776147112585E-02  2.9775935255818E-02  2.9775693621925E-02  2.9775422210251E-02 
 0.0000000000000E+00 -4.5006458429305E-09 -8.4577605347727E-09 -1.1886939437185E-08 -1.4788567479098E-08 -1.7162647082162E-08 -1.9009171172013E-08 -2.0328131083988E-08 -2.1119516672727E-08 -2.1383316329449E-08 
 3.0200000000000E+02  2.9829300656631E+02  2.9815359682413E+02  2.9815007138143E+02  2.9814999723186E+02  2.9814999589520E+02  2.9814999574191E+02  2.9814999577876E+02  2.9814999584895E+02  2.9814999875360E+02 
-2.9776792242892E-02 -2.9776764249994E-02 -2.9776705236471E-02 -2.9776615912393E-02 -2.9776496285519E-02 -2.9776346355447E-02 -2.9776166121756E-02 -2.9775955583949E-02 -2.9775714741442E-02 -2.9775443593567E-02 
-4.3593957433851E-02 -4.0999049485619E-02 -4.0901690959675E-02 -4.0899229138616E-02 -4.0899177360001E-02 -4.0899176426600E-02 -4.0899176319558E-02 -4.0899176345300E-02 -4.0899176394316E-02 -4.0899178423002E-02 
 1.3817165190959E-02  1.1222285235626E-02  1.1124985723204E-02  1.1122613226223E-02  1.1122681074482E-02  1.1122830071153E-02  1.1123010197802E-02  1.1123220761351E-02  1.1123461652874E-02  1.1123734829435E-02 
 3.4254420191976E+00  3.2556789650128E+00  3.1622648326445E+00  3.1599591598120E+00  3.1599446544153E+00  3.1599870289324E+00  3.1600389290931E+00  3.1600996984314E+00  3.1601692334767E+00  1.5801246932284E+00 
 1.7751502745006E-08  3.4622475148587E-08  5.1009750312473E-08  6.7385083854932E-08  8.3760342364628E-08  1.0013582046889E-07  1.1651156752521E-07  1.3288762949791E-07  1.4926425680643E-07  1.4926425680643E-07 
 0.0000000000000E+00  5.0532815017193E+00  8.2622534004962E+00  1.1423365396691E+01  1.4583317303923E+01  1.7743283145637E+01  2.0903296124567E+01  2.4063365438392E+01  2.7223499904263E+01  3.0383709214044E+01 
 3.0383709214290E+01  2.5330427712576E+01  2.2121455813733E+01  1.8960343817514E+01  1.5800391910408E+01  1.2640426068731E+01  9.4804130897176E+00  6.3203437759462E+00  3.1602093099768E+00  0.0000000000000E+00 
 1.0284048680963E-07  9.6811444599330E-08  9.4924387539666E-08  9.4885877201252E-08  9.4886168498248E-08  9.4887452772346E-08  9.4889008662440E-08  9.4890830486330E-08  9.4892916241203E-08  4.7447650603681E-08 
 4.5724222271743E+04  9.1448444543378E+04  9.1448444543376E+04  9.1448444543376E+04  9.1448444543376E+04  9.1448444543376E+04  9.1448444543376E+04  9.1448444543376E+04  9.1448444543376E+04  4.5724222271688E+04 
 3.3835924481004E+05  6.7671848962018E+05  6.7671848962019E+05  6.7671848962019E+05  6.7671848962019E+05  6.7671848962019E+05  6.7671848962019E+05  6.7671848962019E+05  6.7671848962019E+05  3.3835924481009E+05 
 3.8408346708178E+05  7.6816693416356E+05  7.6816693416356E+05  7.6816693416356E+05  7.6816693416356E+05  7.6816693416356E+05  7.6816693416356E+05  7.6816693416356E+05  7.6816693416356E+05  3.8408346708178E+05 
 3.5000000000000E-01  3.5000000000000E-01  3.5000000000000E-01  3.5000000000000E-01  3.5000000000000E-01  3.5000000000000E-01  3.5000000000000E-01  3.5000000000000E-01  3.5000000000000E-01  3.5000000000000E-01 
 8.5301666666667E+00  1.7060333333333E+01  1.7060333333333E+01  1.7060333333333E+01  1.7060333333333E+01  1.7060333333333E+01  1.7060333333333E+01  1.7060333333333E+01  1.7060333333333E+01  8.5301666666667E+00 
 4.0156800600195E-01  1.9083325638495E-01  1.8535774013664E-01  1.8522259196647E-01  1.8522174172537E-01  1.8522422552895E-01  1.8522726768291E-01  1.8523082970818E-01  1.8523490553975E-01  1.8523960374690E-01 
 4.3744444444444E-05  8.7488888888889E-05  8.7488888888889E-05  8.7488888888889E-05  8.7488888888889E-05  8.7488888888889E-05  8.7488888888889E-05  8.7488888888889E-05  8.7488888888889E-05  4.3744444444444E-05 
 8.6666666666642E+01  8.6666666666655E+01  8.6666666666655E+01  8.6666666666655E+01  8.6666666666655E+01  8.6666666666655E+01  8.6666666666655E+01  8.6666666666655E+01  8.6666666666655E+01  8.6666666666655E+01 
 2.1666666666691E+01  2.1666666666678E+01  2.1666666666678E+01  2.1666666666678E+01  2.1666666666678E+01  2.1666666666678E+01  2.1666666666678E+01  2.1666666666678E+01  2.1666666666678E+01  2.1666666666678E+01 
-4.6560278304126E-04 -2.1809137504879E-04 -2.1381390983264E-04 -2.1372632661538E-04 -2.1372658378484E-04 -2.1372898913864E-04 -2.1373190772262E-04 -2.1373532664943E-04 -2.1373924137040E-04 -2.1374404231893E-04 
-1.5509233109791E+04 -7.3350282177466E+03 -7.1232739133106E+03 -7.1180380008347E+03 -7.1179916806288E+03 -7.1180708743355E+03 -7.1181682522224E+03 -7.1182823261234E+03 -7.1184128612016E+03 -7.1185743968587E+03 
 3.8220748007315E-03  9.0675181089073E-03  2.2733171554559E-02  4.2804185466683E-02  6.9338181119995E-02  1.0233713890447E-01  1.4180143590810E-01  1.8773150511865E-01  2.4012784658523E-01  2.6794264993906E-01 
 4.1579964512755E-03  3.6899277184605E-03  2.8207970053368E-03  2.0761151005250E-03  1.4461422633108E-03  9.3070188101425E-04  5.2979430053122E-04  2.4342401385916E-04  7.1596816632885E-05  1.4319795181204E-05 
-1.5509235768807E+04 -7.3350324876755E+03 -7.1232824741168E+03 -7.1180530150514E+03 -7.1180153362513E+03 -7.1181053604646E+03 -7.1182157580982E+03 -7.1183450411301E+03 -7.1184929748925E+03 -7.1186637573025E+03 
 1.0819636375313E+03  4.1760912094920E+02  4.0210993148524E+02  4.0173105399196E+02  4.0173166045556E+02  4.0174242920345E+02  4.0175553354052E+02  4.0177086508485E+02  4.0178840687397E+02  4.0180846524124E+02 
-1.6591199406338E+04 -7.7526416086247E+03 -7.5253924056020E+03 -7.5197840690433E+03 -7.5197469967069E+03 -7.5198477896681E+03 -7.5199712916387E+03 -7.5201159062150E+03 -7.5202813817664E+03 -7.5204722225438E+03 
ZONE T = "ANOD, 4.0000E-08", I = 10, SOLUTIONTIME = 4.000000E-08
ZONETYPE = ORDERED
DATAPACKING = BLOCK
STRANDID = 1
 0.0000000000000E+00  8.7488888888889E-05  1.7497777777778E-04  2.6246666666667E-04  3.4995555555556E-04  4.3744444444444E-04  5.2493333333333E-04  6.1242222222222E-04  6.9991111111111E-04  7.8740000000000E-04 
 2.3768746083294E-09  4.6570194275919E-09  6.8519539990695E-09  9.0442653172640E-09  1.1236534004592E-08  1.3428831366584E-08  1.5621164729242E-08  1.7813540291154E-08  2.0005964131261E-08  2.1103838572704E-08 
 9.1999999999428E-01  9.1999999999730E-01  9.1999999999736E-01  9.1999999999736E-01  9.1999999999736E-01  9.1999999999736E-01  9.1999999999736E-01  9.1999999999736E-01  9.1999999999736E-01  9.1999999999891E-01 
 4.0000000002860E-02  4.0000000001352E-02  4.0000000001320E-02  4.0000000001319E-02  4.0000000001319E-02  4.0000000001319E-02  4.0000000001319E-02  4.0000000001319E-02  4.0000000001319E-02  4.0000000000546E-02 
 4.0000000002860E-02  4.0000000001352E-02  4.0000000001320E-02  4.0000000001319E-02  4.0000000001319E-02  4.0000000001319E-02  4.0000000001319E-02  4.0000000001319E-02  4.0000000001319E-02  4.0000000000546E-02 
 2.9786856280545E-02  2.9786823808769E-02  2.9786760594083E-02  2.9786667614554E-02  2.9786544887051E-02  2.9786392411269E-02  2.9786210186791E-02  2.9785998213127E-02  2.9785756489704E-02  2.9785485015865E-02 
 0.0000000000000E+00 -4.5019311428478E-09 -8.4556714004129E-09 -1.1881706963210E-08 -1.4780668512031E-08 -1.7152566296159E-08 -1.8997393421652E-08 -2.0315141233254E-08 -2.1105799585447E-08 -2.1369356871222E-08 