TITLE = "Solution on Domain BulkDomain1D_0"
VARIABLES = "x [m]"  
"Vel_axial" 
"MF_sp(ECDMC)" 
"MF_sp(Li+)" 
"MF_sp(PF6-)" 
"Volt(Electroly)" 
"Volt(AnodeVolt)" 
"Temperature" 
"Potential Drop Electrode-Electrolyte [V]" 
"Surf_0 Equilibrium Potential Drop Electrode-Electrolyte [V]" 
"Overpotential_0 [V]" 
"Current Source [A/m^2]" 
"Li+ flux [kmol/m^2/s]" 
"Electrolyte Current [A/m^2]" 
"Electrode Current [A/m^2]" 
"CV Capacity discharged [A-s/m^2]" 
"Depth of discharge in CV [A-s/m^2]" 
"CV Capacity remaining [A-s/m^2]" 
"Initial CV capacity [A-s/m^2]" 
"Porosity []" 
"Surface Area [m2/m2] (area per area)" 
"Specific current (per particle area) [A/m^2]" 
"Control volume thickness [m]" 
"MoleDens Li_C6-bulk [kmol/m^3]" 
"MoleDens V_C6-bulk [kmol/m^3]" 
"qHeat_accum [J/m3]" 
"qHeat_step [W/m3]" 
"Joule_Lyte [W/m3]" 
"Joule_Solid [W/m3]" 
"electrodHeat [W/m3]" 
"OverpotHeat [W/m3]" 
"deltaSHeat [W/m3]" 

ZONE T = "ANOD, 0.0000E+00", I = 10, SOLUTIONTIME = 0.000000E+00
ZONETYPE = ORDERED
DATAPACKING = BLOCK
STRANDID = 1
 0.0000000000000E+00  8.7488888888889E-05  1.7497777777778E-04  2.6246666666667E-04  3.4995555555556E-04  4.3744444444444E-04  5.2493333333333E-04  6.1242222222222E-04  6.9991111111111E-04  7.8740000000000E-04 
 0.0000000000000E+00  0.0000000000000E+00  0.0000000000000E+00  0.0000000000000E+00  0.0000000000000E+00  0.0000000000000E+00  0.0000000000000E+00  0.0000000000000E+00  0.0000000000000E+00  0.0000000000000E+00 
 9.2000000000000E-01  9.2000000000000E-01  9.2000000000000E-01  9.2000000000000E-01  9.2000000000000E-01  9.2000000000000E-01  9.2000000000000E-01  9.2000000000000E-01  9.2000000000000E-01  9.2000000000000E-01 
 4.0000000000000E-02  4.0000000000000E-02  4.0000000000000E-02  4.0000000000000E-02  4.0000000000000E-02  4.0000000000000E-02  4.0000000000000E-02  4.0000000000000E-02  4.0000000000000E-02  4.0000000000000E-02 
 4.0000000000000E-02  4.0000000000000E-02  4.0000000000000E-02  4.0000000000000E-02  4.0000000000000E-02  4.0000000000000E-02  4.0000000000000E-02  4.0000000000000E-02  4.0000000000000E-02  4.0000000000000E-02 
-7.0000000000000E-02 -7.0000000000000E-02 -7.0000000000000E-02 -7.0000000000000E-02 -7.0000000000000E-02 -7.0000000000000E-02 -7.0000000000000E-02 -7.0000000000000E-02 -7.0000000000000E-02 -7.0000000000000E-02 
 0.0000000000000E+00  0.0000000000000E+00  0.0000000000000E+00  0.0000000000000E+00  0.0000000000000E+00  0.0000000000000E+00  0.0000000000000E+00  0.0000000000000E+00  0.0000000000000E+00  0.0000000000000E+00 
 3.0200000000000E+02  2.9815000000000E+02  2.9815000000000E+02  2.9815000000000E+02  2.9815000000000E+02  2.9815000000000E+02  2.9815000000000E+02  2.9815000000000E+02  2.9815000000000E+02  2.9815000000000E+02 
 7.0000000000000E-02  7.0000000000000E-02  7.0000000000000E-02  7.0000000000000E-02  7.0000000000000E-02  7.0000000000000E-02  7.0000000000000E-02  7.0000000000000E-02  7.0000000000000E-02  7.0000000000000E-02 
-4.3601490895275E-02 -4.0906712753390E-02 -4.0906712753390E-02 -4.0906712753390E-02 -4.0906712753390E-02 -4.0906712753390E-02 -4.0906712753390E-02 -4.0906712753390E-02 -4.0906712753390E-02 -4.0906712753390E-02 
 1.1360149089527E-01  1.1090671275339E-01  1.1090671275339E-01  1.1090671275339E-01  1.1090671275339E-01  1.1090671275339E-01  1.1090671275339E-01  1.1090671275339E-01  1.1090671275339E-01  1.1090671275339E-01 
 5.5837195716915E+01  6.1860481848017E+01  6.1860481848017E+01  6.1860481848017E+01  6.1860481848017E+01  6.1860481848017E+01  6.1860481848017E+01  6.1860481848017E+01  6.1860481848017E+01  3.0930240924008E+01 
-0.0000000000000E+00 -0.0000000000000E+00 -0.0000000000000E+00 -0.0000000000000E+00 -0.0000000000000E+00 -0.0000000000000E+00 -0.0000000000000E+00 -0.0000000000000E+00 -0.0000000000000E+00 -0.0000000000000E+00 
 0.0000000000000E+00  0.0000000000000E+00  0.0000000000000E+00  0.0000000000000E+00  0.0000000000000E+00  0.0000000000000E+00  0.0000000000000E+00  0.0000000000000E+00  0.0000000000000E+00  3.0930240924008E+01 
 5.5837195716915E+01 -0.0000000000000E+00 -0.0000000000000E+00 -0.0000000000000E+00 -0.0000000000000E+00 -0.0000000000000E+00 -0.0000000000000E+00 -0.0000000000000E+00 -0.0000000000000E+00  0.0000000000000E+00 
 0.0000000000000E+00  0.0000000000000E+00  0.0000000000000E+00  0.0000000000000E+00  0.0000000000000E+00  0.0000000000000E+00  0.0000000000000E+00  0.0000000000000E+00  0.0000000000000E+00  0.0000000000000E+00 
 4.5724222271641E+04  9.1448444543281E+04  9.1448444543281E+04  9.1448444543281E+04  9.1448444543281E+04  9.1448444543281E+04  9.1448444543281E+04  9.1448444543281E+04  9.1448444543281E+04  4.5724222271641E+04 
 3.3835924481014E+05  6.7671848962028E+05  6.7671848962028E+05  6.7671848962028E+05  6.7671848962028E+05  6.7671848962028E+05  6.7671848962028E+05  6.7671848962028E+05  6.7671848962028E+05  3.3835924481014E+05 
 3.8408346708178E+05  7.6816693416356E+05  7.6816693416356E+05  7.6816693416356E+05  7.6816693416356E+05  7.6816693416356E+05  7.6816693416356E+05  7.6816693416356E+05  7.6816693416356E+05  3.8408346708178E+05 
 3.5000000000000E-01  3.5000000000000E-01  3.5000000000000E-01  3.5000000000000E-01  3.5000000000000E-01  3.5000000000000E-01  3.5000000000000E-01  3.5000000000000E-01  3.5000000000000E-01  3.5000000000000E-01 
 8.5301666666667E+00  1.7060333333333E+01  1.7060333333333E+01  1.7060333333333E+01  1.7060333333333E+01  1.7060333333333E+01  1.7060333333333E+01  1.7060333333333E+01  1.7060333333333E+01  8.5301666666667E+00 
 6.5458504972839E+00  3.6259831879809E+00  3.6259831879809E+00  3.6259831879809E+00  3.6259831879809E+00  3.6259831879809E+00  3.6259831879809E+00  3.6259831879809E+00  3.6259831879809E+00  3.6259831879809E+00 
 4.3744444444444E-05  8.7488888888889E-05  8.7488888888889E-05  8.7488888888889E-05  8.7488888888889E-05  8.7488888888889E-05  8.7488888888889E-05  8.7488888888889E-05  8.7488888888889E-05  4.3744444444444E-05 
 8.6666666666667E+01  8.6666666666667E+01  8.6666666666667E+01  8.6666666666667E+01  8.6666666666667E+01  8.6666666666667E+01  8.6666666666667E+01  8.6666666666667E+01  8.6666666666667E+01  8.6666666666667E+01 
 2.1666666666667E+01  2.1666666666667E+01  2.1666666666667E+01  2.1666666666667E+01  2.1666666666667E+01  2.1666666666667E+01  2.1666666666667E+01  2.1666666666667E+01  2.1666666666667E+01  2.1666666666667E+01 
 0.0000000000000E+00  0.0000000000000E+00  0.0000000000000E+00  0.0000000000000E+00  0.0000000000000E+00  0.0000000000000E+00  0.0000000000000E+00  0.0000000000000E+00  0.0000000000000E+00  0.0000000000000E+00 
 0.0000000000000E+00  0.0000000000000E+00  0.0000000000000E+00  0.0000000000000E+00  0.0000000000000E+00  0.0000000000000E+00  0.0000000000000E+00  0.0000000000000E+00  0.0000000000000E+00  0.0000000000000E+00 
 0.0000000000000E+00  0.0000000000000E+00  0.0000000000000E+00  0.0000000000000E+00  0.0000000000000E+00  0.0000000000000E+00  0.0000000000000E+00  0.0000000000000E+00  0.0000000000000E+00  0.0000000000000E+00 
 0.0000000000000E+00  0.0000000000000E+00  0.0000000000000E+00  0.0000000000000E+00  0.0000000000000E+00  0.0000000000000E+00  0.0000000000000E+00  0.0000000000000E+00  0.0000000000000E+00  0.0000000000000E+00 
 0.0000000000000E+00  0.0000000000000E+00  0.0000000000000E+00  0.0000000000000E+00  0.0000000000000E+00  0.0000000000000E+00  0.0000000000000E+00  0.0000000000000E+00  0.0000000000000E+00  0.0000000000000E+00 
 0.0000000000000E+00  0.0000000000000E+00  0.0000000000000E+00  0.0000000000000E+00  0.0000000000000E+00  0.0000000000000E+00  0.0000000000000E+00  0.0000000000000E+00  0.0000000000000E+00  0.0000000000000E+00 
 0.0000000000000E+00  0.0000000000000E+00  0.0000000000000E+00  0.0000000000000E+00  0.0000000000000E+00  0.0000000000000E+00  0.0000000000000E+00  0.0000000000000E+00  0.0000000000000E+00  0.0000000000000E+00 
ZONE T = "ANOD, 1.0000E-08", I = 10, SOLUTIONTIME = 1.000000E-08
ZONETYPE = ORDERED
DATAPACKING = BLOCK
STRANDID = 1
 0.0000000000000E+00  8.7488888888889E-05  1.7497777777778E-04  2.6246666666667E-04  3.4995555555556E-04  4.3744444444444E-04  5.2493333333333E-04  6.1242222222222E-04  6.9991111111111E-04  7.8740000000000E-04 
 2.3825768765651E-09  4.6034387920836E-09  6.8020252113214E-09  9.0003476783099E-09  1.1198690404361E-08  1.3397063087423E-08  1.5595471839018E-08  1.7793922741599E-08  1.9992421825003E-08  2.1092969995014E-08 
 9.1999999999857E-01  9.1999999999933E-01  9.1999999999934E-01  9.1999999999934E-01  9.1999999999934E-01  9.1999999999934E-01  9.1999999999934E-01  9.1999999999934E-01  9.1999999999934E-01  9.1999999999973E-01 
 4.0000000000716E-02  4.0000000000334E-02  4.0000000000330E-02  4.0000000000330E-02  4.0000000000330E-02  4.0000000000330E-02  4.0000000000330E-02  4.0000000000330E-02  4.0000000000330E-02  4.0000000000137E-02 
 4.0000000000716E-02  4.0000000000334E-02  4.0000000000330E-02  4.0000000000330E-02  4.0000000000330E-02  4.0000000000330E-02  4.0000000000330E-02  4.0000000000330E-02  4.0000000000330E-02  4.0000000000137E-02 
 2.9764013449039E-02  2.9763980911886E-02  2.9763918444596E-02  2.9763826148353E-02  2.9763704021760E-02  2.9763552064433E-02  2.9763370275957E-02  2.9763158655859E-02  2.9762917203574E-02  2.9762645918420E-02 
 0.0000000000000E+00 -4.4980345133873E-09 -8.4621308973744E-09 -1.1897644611808E-08 -1.4804639115912E-08 -1.7183109539014E-08 -1.9033048678864E-08 -2.0354447863890E-08 -2.1147296960184E-08 -2.1411584384147E-08 
 3.0200000000000E+02  2.9819888191256E+02  2.9815061935281E+02  2.9815000643325E+02  2.9814999853890E+02  2.9814999850684E+02  2.9814999853778E+02  2.9814999856605E+02  2.9814999847937E+02  2.9814999957053E+02 
-2.9764013449039E-02 -2.9763985409921E-02 -2.9763926906727E-02 -2.9763838045997E-02 -2.9763718826399E-02 -2.9763569247542E-02 -2.9763389309006E-02 -2.9763179010307E-02 -2.9762938350871E-02 -2.9762667330004E-02 
-4.3601490894653E-02 -4.0940847999923E-02 -4.0907145247138E-02 -4.0906717245441E-02 -4.0906711732815E-02 -4.0906711710428E-02 -4.0906711732039E-02 -4.0906711751773E-02 -4.0906711691249E-02 -4.0906712453331E-02 
 1.3837477445614E-02  1.1176862590003E-02  1.1143218340411E-02  1.1142879199444E-02  1.1142992906416E-02  1.1143142462886E-02  1.1143322423033E-02  1.1143532741466E-02  1.1143773340378E-02  1.1144045123327E-02 
 3.4305956724664E+00  3.1982355203692E+00  3.1661568606198E+00  3.1657767475480E+00  3.1658059221730E+00  3.1658490614648E+00  3.1659010026917E+00  3.1659617025303E+00  3.1660310868521E+00  1.5830550058616E+00 
 1.7777847218760E-08  3.4351311822756E-08  5.0758674018395E-08  6.7164059105973E-08  8.3569604211532E-08  9.9975376366992E-08  1.1638140932423E-07  1.3278775248680E-07  1.4919453911748E-07  1.4919453911748E-07 
 0.0000000000000E+00  5.0296863124552E+00  8.2118655045419E+00  1.1377814580649E+01  1.4543588221342E+01  1.7709399207019E+01  2.0875257263163E+01  2.4041170412904E+01  2.7207149682080E+01  3.0373212417224E+01 
 3.0373221352537E+01  2.5343516656570E+01  2.2161337853997E+01  1.8995388351982E+01  1.5829614318765E+01  1.2663804127957E+01  9.4979463961097E+00  6.3320323431037E+00  3.1660532476175E+00  0.0000000000000E+00 
 3.4305956724664E-08  3.1982355203692E-08  3.1661568606198E-08  3.1657767475480E-08  3.1658059221730E-08  3.1658490614648E-08  3.1659010026917E-08  3.1659617025303E-08  3.1660310868521E-08  1.5830550058616E-08 
 4.5724222271675E+04  9.1448444543313E+04  9.1448444543313E+04  9.1448444543313E+04  9.1448444543313E+04  9.1448444543313E+04  9.1448444543313E+04  9.1448444543313E+04  9.1448444543313E+04  4.5724222271656E+04 
 3.3835924481011E+05  6.7671848962025E+05  6.7671848962025E+05  6.7671848962025E+05  6.7671848962025E+05  6.7671848962025E+05  6.7671848962025E+05  6.7671848962025E+05  6.7671848962025E+05  3.3835924481012E+05 
 3.8408346708178E+05  7.6816693416356E+05  7.6816693416356E+05  7.6816693416356E+05  7.6816693416356E+05  7.6816693416356E+05  7.6816693416356E+05  7.6816693416356E+05  7.6816693416356E+05  3.8408346708178E+05 
 3.5000000000000E-01  3.5000000000000E-01  3.5000000000000E-01  3.5000000000000E-01  3.5000000000000E-01  3.5000000000000E-01  3.5000000000000E-01  3.5000000000000E-01  3.5000000000000E-01  3.5000000000000E-01 
 8.5301666666667E+00  1.7060333333333E+01  1.7060333333333E+01  1.7060333333333E+01  1.7060333333333E+01  1.7060333333333E+01  1.7060333333333E+01  1.7060333333333E+01  1.7060333333333E+01  8.5301666666667E+00 
 4.0217217394733E-01  1.8746618004938E-01  1.8558587330962E-01  1.8556359279115E-01  1.8556530287644E-01  1.8556783150768E-01  1.8557087606876E-01  1.8557443402026E-01  1.8557850101710E-01  1.8558312723803E-01 
 4.3744444444444E-05  8.7488888888889E-05  8.7488888888889E-05  8.7488888888889E-05  8.7488888888889E-05  8.7488888888889E-05  8.7488888888889E-05  8.7488888888889E-05  8.7488888888889E-05  4.3744444444444E-05 
 8.6666666666659E+01  8.6666666666663E+01  8.6666666666663E+01  8.6666666666663E+01  8.6666666666663E+01  8.6666666666663E+01  8.6666666666663E+01  8.6666666666663E+01  8.6666666666663E+01  8.6666666666663E+01 
 2.1666666666675E+01  2.1666666666670E+01  2.1666666666670E+01  2.1666666666670E+01  2.1666666666670E+01  2.1666666666670E+01  2.1666666666670E+01  2.1666666666670E+01  2.1666666666670E+01  2.1666666666670E+01 
-1.5530974136441E-04 -7.2039875661725E-05 -7.1312785673520E-05 -7.1304071134700E-05 -7.1304598100019E-05 -7.1305407364781E-05 -7.1306381923940E-05 -7.1307520792980E-05 -7.1308822288642E-05 -7.1310409380387E-05 
-1.5530974136441E+04 -7.2039875661725E+03 -7.1312785673520E+03 -7.1304071134700E+03 -7.1304598100019E+03 -7.1305407364781E+03 -7.1306381923940E+03 -7.1307520792980E+03 -7.1308822288642E+03 -7.1310409380387E+03 
 1.2758329953138E-03  3.0044049582677E-03  7.5330631119219E-03  1.4212553968864E-02  2.3050827493397E-02  3.4048082780783E-02  4.7204433664396E-02  6.2520018381036E-02  7.9995014847781E-02  8.9272391052407E-02 
 1.3851914423573E-03  1.2305218603350E-03  9.4195985754370E-04  6.9331654921370E-04  4.8293829151836E-04  3.1080730210606E-04  1.7692446333102E-04  8.1291286110618E-05  2.3909706348777E-05  4.7820843101317E-06 
-1.5530976797466E+04 -7.2039918010993E+03 -7.1312870423750E+03 -7.1304220193405E+03 -7.1304833437677E+03 -7.1305750953682E+03 -7.1306855737521E+03 -7.1308146806076E+03 -7.1309622477887E+03 -7.1311302152118E+03 
 1.0851844353553E+03  4.0858032827134E+02  4.0326466190873E+02  4.0320397617355E+02  4.0321180646535E+02  4.0322271269635E+02  4.0323584035764E+02  4.0325118239702E+02  4.0326872668310E+02  4.0328861509657E+02 
-1.6616161232821E+04 -7.6125721293706E+03 -7.5345517042837E+03 -7.5336259955141E+03 -7.5336951502331E+03 -7.5337978080646E+03 -7.5339214141097E+03 -7.5340658630047E+03 -7.5342309744718E+03 -7.5344188303084E+03 
ZONE T = "ANOD, 2.0000E-08", I = 10, SOLUTIONTIME = 2.000000E-08
ZONETYPE = ORDERED
DATAPACKING = BLOCK
STRANDID = 1
 0.0000000000000E+00  8.7488888888889E-05  1.7497777777778E-04  2.6246666666667E-04  3.4995555555556E-04  4.3744444444444E-04  5.2493333333333E-04  6.1242222222222E-04  6.9991111111111E-04  7.8740000000000E-04 
 2.3800683121614E-09  4.6210765075462E-09  6.8181891155984E-09  9.0141293128602E-09  1.1208989807377E-08  1.3403516884780E-08  1.5598806413332E-08  1.7794138167924E-08  1.9989518158839E-08  2.1086509359814E-08 
 9.1999999999714E-01  9.1999999999866E-01  9.1999999999868E-01  9.1999999999868E-01  9.1999999999868E-01  9.1999999999868E-01  9.1999999999868E-01  9.1999999999868E-01  9.1999999999868E-01  9.1999999999945E-01 
 4.0000000001431E-02  4.0000000000670E-02  4.0000000000660E-02  4.0000000000660E-02  4.0000000000660E-02  4.0000000000660E-02  4.0000000000660E-02  4.0000000000660E-02  4.0000000000660E-02  4.0000000000273E-02 
 4.0000000001431E-02  4.0000000000670E-02  4.0000000000660E-02  4.0000000000660E-02  4.0000000000660E-02  4.0000000000660E-02  4.0000000000660E-02  4.0000000000660E-02  4.0000000000660E-02  4.0000000000273E-02 
 2.9774200293589E-02  2.9774167778193E-02  2.9774105056549E-02  2.9774012530923E-02  2.9773890202520E-02  2.9773738070932E-02  2.9773556135746E-02  2.9773344396473E-02  2.9773102852542E-02  2.9772831503296E-02 
 0.0000000000000E+00 -4.4993547352619E-09 -8.4599277860555E-09 -1.1892272499991E-08 -1.4796583425126E-08 -1.7172858176395E-08 -1.9021089591558E-08 -2.0341269006937E-08 -2.1133386270578E-08 -2.1397429785536E-08 
 3.0200000000000E+02  2.9824653825346E+02  2.9815182811579E+02  2.9815002801148E+02  2.9814999751902E+02  2.9814999705233E+02  2.9814999695091E+02  2.9814999709542E+02  2.9814999709352E+02  2.9814999911143E+02 
-2.9774200293589E-02 -2.9774172277547E-02 -2.9774113516477E-02 -2.9774024423195E-02 -2.9773904999104E-02 -2.9773755243790E-02 -2.9773575156835E-02 -2.9773364737742E-02 -2.9773123985928E-02 -2.9772852900725E-02 
-4.3601490894030E-02 -4.0974129373482E-02 -4.0907989326929E-02 -4.0906732313231E-02 -4.0906711020355E-02 -4.0906710694468E-02 -4.0906710623639E-02 -4.0906710724558E-02 -4.0906710723228E-02 -4.0906712132581E-02 
 1.3827290600441E-02  1.1199957095934E-02  1.1133875810453E-02  1.1132707890035E-02  1.1132806021251E-02  1.1132955450678E-02  1.1133135466804E-02  1.1133345986815E-02  1.1133586737300E-02  1.1133859231856E-02 
 3.4280109867978E+00  3.2272302949411E+00  3.1640171526741E+00  3.1628518357938E+00  3.1628661220134E+00  3.1629090228745E+00  3.1629609171317E+00  3.1630217260240E+00  3.1630911901679E+00  1.5815853714726E+00 
 1.7764683008677E-08  3.4488359597814E-08  5.0884718884294E-08  6.7275042749550E-08  8.3665440696317E-08  1.0005606096400E-07  1.1644695015226E-07  1.3283815447211E-07  1.4922985548468E-07  1.4922985548468E-07 
 0.0000000000000E+00  5.0416261339520E+00  8.2372498575955E+00  1.1400684351983E+01  1.4563543331080E+01  1.7726430903357E+01  2.0889365873084E+01  2.4052357194911E+01  2.7215413653057E+01  3.0378544619332E+01 
 3.0378544619481E+01  2.5336918485367E+01  2.2141294761726E+01  1.8977860267509E+01  1.5815001288611E+01  1.2652113716175E+01  9.4891787461751E+00  6.3261874246109E+00  3.1631309665425E+00  0.0000000000000E+00 
 6.8586066592642E-08  6.4254658153103E-08  6.3301740132940E-08  6.3286285833418E-08  6.3286720441864E-08  6.3287580843393E-08  6.3288619198234E-08  6.3289834285542E-08  6.3291222770200E-08  3.1646403773342E-08 
 4.5724222271709E+04  9.1448444543345E+04  9.1448444543345E+04  9.1448444543345E+04  9.1448444543345E+04  9.1448444543344E+04  9.1448444543344E+04  9.1448444543345E+04  9.1448444543345E+04  4.5724222271672E+04 
 3.3835924481007E+05  6.7671848962022E+05  6.7671848962022E+05  6.7671848962022E+05  6.7671848962022E+05  6.7671848962022E+05  6.7671848962022E+05  6.7671848962022E+05  6.7671848962022E+05  3.3835924481011E+05 
 3.8408346708178E+05  7.6816693416356E+05  7.6816693416356E+05  7.6816693416356E+05  7.6816693416356E+05  7.6816693416356E+05  7.6816693416356E+05  7.6816693416356E+05  7.6816693416356E+05  3.8408346708178E+05 
 3.5000000000000E-01  3.5000000000000E-01  3.5000000000000E-01  3.5000000000000E-01  3.5000000000000E-01  3.5000000000000E-01  3.5000000000000E-01  3.5000000000000E-01  3.5000000000000E-01  3.5000000000000E-01 
 8.5301666666667E+00  1.7060333333333E+01  1.7060333333333E+01  1.7060333333333E+01  1.7060333333333E+01  1.7060333333333E+01  1.7060333333333E+01  1.7060333333333E+01  1.7060333333333E+01  8.5301666666667E+00 
 4.0186916865217E-01  1.8916572331184E-01  1.8546045325458E-01  1.8539214762082E-01  1.8539298501475E-01  1.8539549967026E-01  1.8539854147818E-01  1.8540210582192E-01  1.8540617749758E-01  1.8541084052355E-01 
 4.3744444444444E-05  8.7488888888889E-05  8.7488888888889E-05  8.7488888888889E-05  8.7488888888889E-05  8.7488888888889E-05  8.7488888888889E-05  8.7488888888889E-05  8.7488888888889E-05  4.3744444444444E-05 
 8.6666666666650E+01  8.6666666666659E+01  8.6666666666659E+01  8.6666666666659E+01  8.6666666666659E+01  8.6666666666659E+01  8.6666666666659E+01  8.6666666666659E+01  8.6666666666659E+01  8.6666666666659E+01 
 2.1666666666683E+01  2.1666666666674E+01  2.1666666666674E+01  2.1666666666674E+01  2.1666666666674E+01  2.1666666666674E+01  2.1666666666674E+01  2.1666666666674E+01  2.1666666666674E+01  2.1666666666674E+01 
-3.1051045183788E-04 -1.4474110013740E-04 -1.4258117278788E-04 -1.4254594713290E-04 -1.4254666355529E-04 -1.4254827668324E-04 -1.4255022481157E-04 -1.4255250516798E-04 -1.4255511018735E-04 -1.4255829881641E-04 
-1.5520071047347E+04 -7.2701224475678E+03 -7.1268387114357E+03 -7.1241875998196E+03 -7.1242065455272E+03 -7.1242869318461E+03 -7.1243842887629E+03 -7.1244984375000E+03 -7.1246287898704E+03 -7.1247889436019E+03 
 2.5498591817027E-03  6.0270219731656E-03  1.5110943713589E-02  2.8480730603410E-02  4.6163715122843E-02  6.8160669585505E-02  9.4471832286185E-02  1.2509748427478E-01  1.6003797023293E-01  1.7858696901909E-01 
 2.7711961414459E-03  2.4604945444542E-03  1.8822188734411E-03  1.3853542075872E-03  9.6498535035584E-04  6.2104103359981E-04  3.5352243493371E-04  1.6243256529187E-04  4.7775294474137E-05  9.5553459893229E-06 
-1.5520073707378E+04 -7.2701267001575E+03 -7.1268472295754E+03 -7.1242025600339E+03 -7.1242301404619E+03 -7.1243213546666E+03 -7.1244317327595E+03 -7.1245610961072E+03 -7.1247088566914E+03 -7.1248782629531E+03 
 1.0835685468072E+03  4.1313635710520E+02  4.0265426259357E+02  4.0246374179861E+02  4.0246910728230E+02  4.0247996853178E+02  4.0249308014445E+02  4.0250842921359E+02  4.0252597297375E+02  4.0254594870078E+02 
-1.6603642254185E+04 -7.6832630572627E+03 -7.5295014921689E+03 -7.5266663018325E+03 -7.5266992477442E+03 -7.5268013231984E+03 -7.5269248129039E+03 -7.5270695253208E+03 -7.5272348296651E+03 -7.5274242116539E+03 
ZONE T = "ANOD, 3.0000E-08", I = 10, SOLUTIONTIME = 3.000000E-08
ZONETYPE = ORDERED
DATAPACKING = BLOCK
STRANDID = 1
 0.0000000000000E+00  8.7488888888889E-05  1.7497777777778E-04  2.6246666666667E-04  3.4995555555556E-04  4.3744444444444E-04  5.2493333333333E-04  6.1242222222222E-04  6.9991111111111E-04  7.8740000000000E-04 
 2.3786476550610E-09  4.6394109171250E-09  6.8353066424169E-09  9.0299646330571E-09  1.1224612493452E-08  1.3419652845385E-08  1.5614002801405E-08  1.7808395147594E-08  2.0002835673915E-08  2.1099720615972E-08 
 9.1999999999571E-01  9.1999999999798E-01  9.1999999999802E-01  9.1999999999802E-01  9.1999999999802E-01  9.1999999999802E-01  9.1999999999802E-01  9.1999999999802E-01  9.1999999999802E-01  9.1999999999918E-01 
 4.0000000002146E-02  4.0000000001010E-02  4.0000000000990E-02  4.0000000000990E-02  4.0000000000990E-02  4.0000000000990E-02  4.0000000000990E-02  4.0000000000990E-02  4.0000000000990E-02  4.0000000000410E-02 
 4.0000000002146E-02  4.0000000001010E-02  4.0000000000990E-02  4.0000000000990E-02  4.0000000000990E-02  4.0000000000990E-02  4.0000000000990E-02  4.0000000000990E-02  4.0000000000990E-02  4.0000000000410E-02 
 2.9784325465298E-02  2.9784292971754E-02  2.9784230001114E-02  2.9784137247855E-02  2.9784014719350E-02  2.9783862415196E-02  2.9783680334981E-02  2.9783468478215E-02  2.9783226844323E-02  2.9782955432650E-02 
 0.0000000000000E+00 -4.5006458149902E-09 -8.4577604456557E-09 -1.1886939301599E-08 -1.4788567280311E-08 -1.7162646817299E-08 -1.9009170872169E-08 -2.0328130785126E-08 -2.1119516364754E-08 -2.1383316027620E-08 
 3.0200000000000E+02  2.9829300675665E+02  2.9815359658748E+02  2.9815007142948E+02  2.9814999715437E+02  2.9814999550999E+02  2.9814999531263E+02  2.9814999576672E+02  2.9814999560732E+02  2.9814999876141E+02 
-2.9784325465298E-02 -2.9784297472399E-02 -2.9784238458875E-02 -2.9784149134794E-02 -2.9784029507918E-02 -2.9783879577843E-02 -2.9783699344152E-02 -2.9783488806346E-02 -2.9783247963840E-02 -2.9782976815966E-02 
-4.3601490893401E-02 -4.1006583078108E-02 -4.0909224253973E-02 -4.0906762631716E-02 -4.0906710765440E-02 -4.0906709617163E-02 -4.0906709479343E-02 -4.0906709796441E-02 -4.0906709685137E-02 -4.0906711888010E-02 
 1.3817165428103E-02  1.1222285605709E-02  1.1124985795099E-02  1.1122613496922E-02  1.1122681257523E-02  1.1122830039320E-02  1.1123010135190E-02  1.1123220990095E-02  1.1123461721298E-02  1.1123735072044E-02 
 3.4254420793631E+00  3.2556791641251E+00  3.1622647445491E+00  3.1599592599975E+00  3.1599446716087E+00  3.1599868426950E+00  3.1600387137129E+00  3.1600997588949E+00  3.1601691421521E+00  1.5801247300229E+00 
 1.7751503055900E-08  3.4622476492296E-08  5.1009751200575E-08  6.7385085262922E-08  8.3760343858395E-08  1.0013582099872E-07  1.1651156693755E-07  1.3288762922660E-07  1.4926425606167E-07  1.4926425606167E-07 
 0.0000000000000E+00  5.0532816613643E+00  8.2622536158333E+00  1.1423365618012E+01  1.4583317583900E+01  1.7743283341102E+01  2.0903296119206E+01  2.4063365355515E+01  2.7223499806011E+01  3.0383709107123E+01 
 3.0383709107097E+01  2.5330427445676E+01  2.2121455491343E+01  1.8960343489062E+01  1.5800391523231E+01  1.2640425766069E+01  9.4804129878930E+00  6.3203437516024E+00  3.1602093010877E+00  0.0000000000000E+00 
 1.0284048738627E-07  9.6811449794353E-08  9.4924387578431E-08  9.4885878433392E-08  9.4886167157951E-08  9.4887449270343E-08  9.4889006335363E-08  9.4890831874492E-08  9.4892914191721E-08  4.7447651073571E-08 
 4.5724222271743E+04  9.1448444543378E+04  9.1448444543376E+04  9.1448444543376E+04  9.1448444543376E+04  9.1448444543376E+04  9.1448444543376E+04  9.1448444543376E+04  9.1448444543376E+04  4.5724222271688E+04 
 3.3835924481004E+05  6.7671848962018E+05  6.7671848962019E+05  6.7671848962019E+05  6.7671848962019E+05  6.7671848962019E+05  6.7671848962019E+05  6.7671848962019E+05  6.7671848962019E+05  3.3835924481009E+05 
 3.8408346708178E+05  7.6816693416356E+05  7.6816693416356E+05  7.6816693416356E+05  7.6816693416356E+05  7.6816693416356E+05  7.6816693416356E+05  7.6816693416356E+05  7.6816693416356E+05  3.8408346708178E+05 
 3.5000000000000E-01  3.5000000000000E-01  3.5000000000000E-01  3.5000000000000E-01  3.5000000000000E-01  3.5000000000000E-01  3.5000000000000E-01  3.5000000000000E-01  3.5000000000000E-01  3.5000000000000E-01 
 8.5301666666667E+00  1.7060333333333E+01  1.7060333333333E+01  1.7060333333333E+01  1.7060333333333E+01  1.7060333333333E+01  1.7060333333333E+01  1.7060333333333E+01  1.7060333333333E+01  8.5301666666667E+00 
 4.0156801305521E-01  1.9083326805602E-01  1.8535773497289E-01  1.8522259783889E-01  1.8522174273316E-01  1.8522421461255E-01  1.8522725505830E-01  1.8523083325228E-01  1.8523490018672E-01  1.8523960806036E-01 
 4.3744444444444E-05  8.7488888888889E-05  8.7488888888889E-05  8.7488888888889E-05  8.7488888888889E-05  8.7488888888889E-05  8.7488888888889E-05  8.7488888888889E-05  8.7488888888889E-05  4.3744444444444E-05 
 8.6666666666642E+01  8.6666666666655E+01  8.6666666666655E+01  8.6666666666655E+01  8.6666666666655E+01  8.6666666666655E+01  8.6666666666655E+01  8.6666666666655E+01  8.6666666666655E+01  8.6666666666655E+01 
 2.1666666666691E+01  2.1666666666678E+01  2.1666666666678E+01  2.1666666666678E+01  2.1666666666678E+01  2.1666666666678E+01  2.1666666666678E+01  2.1666666666678E+01  2.1666666666678E+01  2.1666666666678E+01 
-4.6560278547418E-04 -2.1809138673069E-04 -2.1381390982901E-04 -2.1372632931677E-04 -2.1372658065607E-04 -2.1372898111029E-04 -2.1373190235697E-04 -2.1373532970443E-04 -2.1373923663428E-04 -2.1374404435770E-04 
-1.5509233363630E+04 -7.3350286593291E+03 -7.1232737041127E+03 -7.1180382183871E+03 -7.1179917100776E+03 -7.1180704427044E+03 -7.1181677545398E+03 -7.1182824536450E+03 -7.1184126446935E+03 -7.1185745541293E+03 
 3.8220750876456E-03  9.0675179735651E-03  2.2733172222806E-02  4.2804187055143E-02  6.9338181602571E-02  1.0233713852154E-01  1.4180143609464E-01  1.8773149912793E-01  2.4012783895748E-01  2.6794264748630E-01 
 4.1579963765232E-03  3.6899276280697E-03  2.8207969091188E-03  2.0761150191761E-03  1.4461421996603E-03  9.3070184464765E-04  5.2979428653373E-04  2.4342400825990E-04  7.1596814198666E-05  1.4319795239493E-05 
-1.5509236022646E+04 -7.3350329292582E+03 -7.1232822649193E+03 -7.1180532326043E+03 -7.1180153657010E+03 -7.1181049288342E+03 -7.1182152604155E+03 -7.1183451686513E+03 -7.1184927583837E+03 -7.1186639145722E+03 
 1.0819636751050E+03  4.1760916026123E+02  4.0210992288173E+02  4.0173107650591E+02  4.0173166925249E+02  4.0174240437653E+02  4.0175550389640E+02  4.0177088103434E+02  4.0178839773433E+02  4.0180848336114E+02 
-1.6591199697751E+04 -7.7526420895194E+03 -7.5253921878010E+03 -7.5197843091102E+03 -7.5197470349535E+03 -7.5198473332107E+03 -7.5199707643119E+03 -7.5201160496856E+03 -7.5202811561180E+03 -7.5204723979334E+03 
ZONE T = "ANOD, 4.0000E-08", I = 10, SOLUTIONTIME = 4.000000E-08
ZONETYPE = ORDERED
DATAPACKING = BLOCK
STRANDID = 1
 0.0000000000000E+00  8.7488888888889E-05  1.7497777777778E-04  2.6246666666667E-04  3.4995555555556E-04  4.3744444444444E-04  5.2493333333333E-04  6.1242222222222E-04  6.9991111111111E-04  7.8740000000000E-04 
 2.3768746528501E-09  4.6570195950591E-09  6.8519540904397E-09  9.0442655458068E-09  1.1236534232541E-08  1.3428831389080E-08  1.5621164698214E-08  1.7813540252162E-08  2.0005963992207E-08  2.1103838447051E-08 
 9.1999999999428E-01  9.1999999999730E-01  9.1999999999736E-01  9.1999999999736E-01  9.1999999999736E-01  9.1999999999736E-01  9.1999999999736E-01  9.1999999999736E-01  9.1999999999736E-01  9.1999999999891E-01 
 4.0000000002860E-02  4.0000000001352E-02  4.0000000001320E-02  4.0000000001319E-02  4.0000000001319E-02  4.0000000001319E-02  4.0000000001319E-02  4.0000000001319E-02  4.0000000001319E-02  4.0000000000546E-02 
 4.0000000002860E-02  4.0000000001352E-02  4.0000000001320E-02  4.0000000001319E-02  4.0000000001319E-02  4.0000000001319E-02  4.0000000001319E-02  4.0000000001319E-02  4.0000000001319E-02  4.0000000000546E-02 
 2.9794389487377E-02  2.9794357015601E-02  2.9794293800913E-02  2.9794200821383E-02  2.9794078093876E-02  2.9793925618092E-02  2.9793743393613E-02  2.9793531419950E-02  2.9793289696527E-02  2.9793018222691E-02 
 0.0000000000000E+00 -4.5019311019346E-09 -8.4556712890279E-09 -1.1881706799648E-08 -1.4780668263313E-08 -1.7152565962429E-08 -1.8997393052304E-08 -2.0315140841156E-08 -2.1105799172514E-08 -2.1369356461511E-08 