TITLE = "Solution on Domain BulkDomain1D_2"
VARIABLES = "x [m]"  
"Vel_axial(0)" 	"MF_sp(Li+)" 	"MF_sp(K+)" 	"MF_sp(Cl-)" 	"Volt(Electroly)" 	"Volt(CathodeVo)" 	
"Potential Drop Electrode-Electrolyte [V]" 	"Surf_0 Equilibrium Potential Drop Electrode-Electrolyte [V]" 	"Overpotential_0 [V]" 	"Surf_1 Equilibrium Potential Drop Electrode-Electrolyte [V]" 	"Overpotential_1 [V]" 	"Capacity discharged [mA-hr/g]" 	"Depth of discharge [-]" 	"Capacity remaining [mA-hr/g]" 	"Initial capacity [mA-hr/g]" 	"Porosity []" 	"Surface Area [] (area per m2)" 	"Specific current (per particle area) [A/m^2]" 	"Control volume thickness [m]" 	
"Moles FeS2_A(S) [mol/m^2] (per electrode area)" 	"Moles FeS2_B(S) [mol/m^2] (per electrode area)" 	

ZONE T = "t = 0 [s]" I = 10 SOLUTIONTIME = 0.0000000000000E+00
0.0015 	-3.13487e-08 	0.294 	0.206 	0.5 	-0.151572 	1.79848 	
0 	0 	-237.063 	-56.77 	
0 	0 	0 	0 	0 	
0 	0 	0 	0 	0.417405 	100.708 	1.12742 	5.55556e-05 	
0.000606113 	0.000606113 	
0.00161111 	-2.72418e-08 	0.294 	0.206 	0.5 	-0.151357 	1.79861 	
0 	0 	-165.896 	-127.937 	
0 	0 	0 	0 	0 	
0 	0 	0 	0 	0.417405 	201.416 	0.142957 	0.000111111 	
0.00121223 	0.00121223 	
0.00172222 	-2.61994e-08 	0.294 	0.206 	0.5 	-0.151176 	1.79877 	
0 	0 	-147.845 	-145.988 	
0 	0 	0 	0 	0 	
0 	0 	0 	0 	0.417405 	201.416 	0.036285 	0.000111111 	
0.00121223 	0.00121223 	
0.00183333 	-2.59313e-08 	0.294 	0.206 	0.5 	-0.151004 	1.79893 	
0 	0 	-143.251 	-150.582 	
0 	0 	0 	0 	0 	
0 	0 	0 	0 	0.417405 	201.416 	0.00933204 	0.000111111 	
0.00121223 	0.00121223 	
0.00194444 	-2.58486e-08 	0.294 	0.206 	0.5 	-0.150834 	1.7991 	
0 	0 	-142.021 	-151.812 	
0 	0 	0 	0 	0 	
0 	0 	0 	0 	0.417405 	201.416 	0.00288179 	0.000111111 	
0.00121223 	0.00121223 	
0.00205556 	-2.57692e-08 	0.294 	0.206 	0.5 	-0.150665 	1.79927 	
0 	0 	-141.453 	-152.381 	
0 	0 	0 	0 	0 	
0 	0 	0 	0 	0.417405 	201.416 	0.00276291 	0.000111111 	
0.00121223 	0.00121223 	
0.00216667 	-2.55188e-08 	0.294 	0.206 	0.5 	-0.150497 	1.79944 	
0 	0 	-140.297 	-153.536 	
0 	0 	0 	0 	0 	
0 	0 	0 	0 	0.417405 	201.416 	0.00871422 	0.000111111 	
0.00121223 	0.00121223 	
0.00227778 	-2.45475e-08 	0.294 	0.206 	0.5 	-0.150331 	1.79961 	
0 	0 	-136.014 	-157.819 	
0 	0 	0 	0 	0 	
0 	0 	0 	0 	0.417405 	201.416 	0.0338109 	0.000111111 	
0.00121223 	0.00121223 	
0.00238889 	-2.07212e-08 	0.294 	0.206 	0.5 	-0.150173 	1.79979 	
0 	0 	-119.196 	-174.638 	
0 	0 	0 	0 	0 	
0 	0 	0 	0 	0.417405 	201.416 	0.133191 	0.000111111 	
0.00121223 	0.00121223 	
0.0025 	0 	0.294 	0.206 	0.5 	-0.150046 	1.8 	
0 	0 	-52.8913 	-240.942 	
0 	0 	0 	0 	0 	
0 	0 	0 	0 	0.417405 	100.708 	1.05039 	5.55556e-05 	
0.000606113 	0.000606113 	
ZONE T = "t = 0 [s]" I = 10 SOLUTIONTIME = 0.0000000000000E+00
0.0015 	-3.13487e-08 	0.294 	0.206 	0.5 	-0.151572 	1.79848 	
113.54 	-3.93917e-07 	-237.063 	-56.77 	
1.95005 	1.94994 	0.000119053 	0 	1.95005 	
-0.00223383 	1.16962 	893.529 	893.532 	0.417405 	100.708 	1.12742 	5.55556e-05 	
0.000606113 	0.000606113 	
0.00161111 	-2.72418e-08 	0.294 	0.206 	0.5 	-0.151357 	1.79861 	
28.7939 	-3.31006e-07 	-165.896 	-127.937 	
1.94997 	1.94994 	3.0192e-05 	0 	1.94997 	
-0.00223383 	2.33924 	893.529 	893.532 	0.417405 	201.416 	0.142957 	0.000111111 	
0.00121223 	0.00121223 	
0.00172222 	-2.61994e-08 	0.294 	0.206 	0.5 	-0.151176 	1.79877 	
7.30839 	-3.15039e-07 	-147.845 	-145.988 	
1.94994 	1.94994 	7.66327e-06 	0 	1.94994 	
-0.00223383 	2.33924 	893.529 	893.532 	0.417405 	201.416 	0.036285 	0.000111111 	
0.00121223 	0.00121223 	
0.00183333 	-2.59313e-08 	0.294 	0.206 	0.5 	-0.151004 	1.79893 	
1.87963 	-3.10932e-07 	-143.251 	-150.582 	
1.94994 	1.94994 	1.9709e-06 	0 	1.94994 	
-0.00223383 	2.33924 	893.529 	893.532 	0.417405 	201.416 	0.00933204 	0.000111111 	
0.00121223 	0.00121223 	
0.00194444 	-2.58486e-08 	0.294 	0.206 	0.5 	-0.150834 	1.7991 	
0.58044 	-3.09664e-07 	-142.021 	-151.812 	
1.94994 	1.94994 	6.08625e-07 	0 	1.94994 	
-0.00223383 	2.33924 	893.529 	893.532 	0.417405 	201.416 	0.00288179 	0.000111111 	
0.00121223 	0.00121223 	
0.00205556 	-2.57692e-08 	0.294 	0.206 	0.5 	-0.150665 	1.79927 	
0.556496 	-3.08448e-07 	-141.453 	-152.381 	
1.94994 	1.94994 	5.83518e-07 	0 	1.94994 	
-0.00223383 	2.33924 	893.529 	893.532 	0.417405 	201.416 	0.00276291 	0.000111111 	
0.00121223 	0.00121223 	
0.00216667 	-2.55188e-08 	0.294 	0.206 	0.5 	-0.150497 	1.79944 	
1.75519 	-3.04613e-07 	-140.297 	-153.536 	
1.94994 	1.94994 	1.84041e-06 	0 	1.94994 	
-0.00223383 	2.33924 	893.529 	893.532 	0.417405 	201.416 	0.00871422 	0.000111111 	
0.00121223 	0.00121223 	
0.00227778 	-2.45475e-08 	0.294 	0.206 	0.5 	-0.150331 	1.79961 	
6.81006 	-2.89734e-07 	-136.014 	-157.819 	
1.94994 	1.94994 	7.14074e-06 	0 	1.94994 	
-0.00223383 	2.33924 	893.529 	893.532 	0.417405 	201.416 	0.0338109 	0.000111111 	
0.00121223 	0.00121223 	
0.00238889 	-2.07212e-08 	0.294 	0.206 	0.5 	-0.150173 	1.79979 	
26.8268 	-2.31121e-07 	-119.196 	-174.638 	
1.94996 	1.94994 	2.81294e-05 	0 	1.94996 	
-0.00223383 	2.33924 	893.529 	893.532 	0.417405 	201.416 	0.133191 	0.000111111 	
0.00121223 	0.00121223 	
0.0025 	0 	0.294 	0.206 	0.5 	-0.150046 	1.8 	
105.783 	-2.31121e-07 	-52.8913 	-240.942 	
1.95005 	1.94994 	0.000110919 	0 	1.95005 	
-0.00223383 	1.16962 	893.529 	893.532 	0.417405 	100.708 	1.05039 	5.55556e-05 	
0.000606113 	0.000606113 	
ZONE T = "t = 1e-08 [s]" I = 10 SOLUTIONTIME = 1.0000000000000E-08
0.0015 	-9.95682e-09 	0.294 	0.206 	0.5 	-0.151583 	1.79847 	
113.54 	-3.93917e-07 	-238.646 	-57.149 	
1.95005 	1.94994 	0.000119053 	0 	1.95005 	
-0.00223383 	1.16962 	893.529 	893.532 	0.417405 	100.708 	1.13494 	5.55556e-05 	
0.000606113 	0.000606113 	
0.00161111 	-8.36389e-09 	0.294 	0.206 	0.5 	-0.151366 	1.7986 	
28.7939 	-3.31006e-07 	-167.004 	-128.791 	
1.94997 	1.94994 	3.0192e-05 	0 	1.94997 	
-0.00223383 	2.33924 	893.529 	893.532 	0.417405 	201.416 	0.143911 	0.000111111 	
0.00121223 	0.00121223 	
0.00172222 	-7.95905e-09 	0.294 	0.206 	0.5 	-0.151184 	1.79876 	
7.30839 	-3.15039e-07 	-148.832 	-146.963 	
1.94994 	1.94994 	7.66327e-06 	0 	1.94994 	
-0.00223383 	2.33924 	893.529 	893.532 	0.417405 	201.416 	0.0365272 	0.000111111 	
0.00121223 	0.00121223 	
0.00183333 	-7.85457e-09 	0.294 	0.206 	0.5 	-0.151011 	1.79893 	
1.87963 	-3.10932e-07 	-144.208 	-151.587 	
1.94994 	1.94994 	1.9709e-06 	0 	1.94994 	
-0.00223383 	2.33924 	893.529 	893.532 	0.417405 	201.416 	0.00939433 	0.000111111 	
0.00121223 	0.00121223 	
0.00194444 	-7.82172e-09 	0.294 	0.206 	0.5 	-0.15084 	1.7991 	
0.58044 	-3.09664e-07 	-142.969 	-152.825 	
1.94994 	1.94994 	6.08625e-07 	0 	1.94994 	
-0.00223383 	2.33924 	893.529 	893.532 	0.417405 	201.416 	0.00290103 	0.000111111 	
0.00121223 	0.00121223 	
0.00205556 	-7.79049e-09 	0.294 	0.206 	0.5 	-0.15067 	1.79927 	
0.556496 	-3.08448e-07 	-142.397 	-153.398 	
1.94994 	1.94994 	5.83518e-07 	0 	1.94994 	
-0.00223383 	2.33924 	893.529 	893.532 	0.417405 	201.416 	0.00278136 	0.000111111 	
0.00121223 	0.00121223 	
0.00216667 	-7.69161e-09 	0.294 	0.206 	0.5 	-0.150501 	1.79944 	
1.75519 	-3.04613e-07 	-141.233 	-154.561 	
1.94994 	1.94994 	1.84041e-06 	0 	1.94994 	
-0.00223383 	2.33924 	893.529 	893.532 	0.417405 	201.416 	0.00877238 	0.000111111 	
0.00121223 	0.00121223 	
0.00227778 	-7.31425e-09 	0.294 	0.206 	0.5 	-0.150333 	1.79961 	
6.81006 	-2.89734e-07 	-136.922 	-158.873 	
1.94994 	1.94994 	7.14074e-06 	0 	1.94994 	
-0.00223383 	2.33924 	893.529 	893.532 	0.417405 	201.416 	0.0340365 	0.000111111 	
0.00121223 	0.00121223 	
0.00238889 	-5.83007e-09 	0.294 	0.206 	0.5 	-0.150174 	1.79979 	
26.8268 	-2.31121e-07 	-119.992 	-175.803 	
1.94996 	1.94994 	2.81294e-05 	0 	1.94996 	
-0.00223383 	2.33924 	893.529 	893.532 	0.417405 	201.416 	0.13408 	0.000111111 	
0.00121223 	0.00121223 	
0.0025 	0 	0.294 	0.206 	0.5 	-0.150047 	1.8 	
105.783 	-2.31121e-07 	-53.2443 	-242.55 	
1.95005 	1.94994 	0.000110919 	0 	1.95005 	
-0.00223383 	1.16962 	893.529 	893.532 	0.417405 	100.708 	1.0574 	5.55556e-05 	
0.000606113 	0.000606113 	
ZONE T = "t = 2e-08 [s]" I = 10 SOLUTIONTIME = 2.0000000000000E-08
0.0015 	-8.76979e-09 	0.294 	0.206 	0.5 	-0.151386 	1.79866 	
114.298 	-3.96547e-07 	-210.11 	-50.3155 	
1.95006 	1.94994 	0.000119848 	0 	1.95006 	
-0.00223383 	1.16962 	893.529 	893.532 	0.417405 	100.708 	0.999233 	5.55556e-05 	
0.000606113 	0.000606113 	
0.00161111 	-7.36883e-09 	0.294 	0.206 	0.5 	-0.151195 	1.79877 	
28.986 	-3.33216e-07 	-147.035 	-113.391 	
1.94997 	1.94994 	3.03935e-05 	0 	1.94997 	
-0.00223383 	2.33924 	893.529 	893.532 	0.417405 	201.416 	0.126703 	0.000111111 	
0.00121223 	0.00121223 	
0.00172222 	-7.01317e-09 	0.294 	0.206 	0.5 	-0.151035 	1.79891 	
7.35717 	-3.17141e-07 	-131.036 	-129.39 	
1.94994 	1.94994 	7.71442e-06 	0 	1.94994 	
-0.00223383 	2.33924 	893.529 	893.532 	0.417405 	201.416 	0.0321595 	0.000111111 	
0.00121223 	0.00121223 	
0.00183333 	-6.92273e-09 	0.294 	0.206 	0.5 	-0.150883 	1.79905 	
1.89217 	-3.13007e-07 	-126.964 	-133.461 	
1.94994 	1.94994 	1.98405e-06 	0 	1.94994 	
-0.00223383 	2.33924 	893.529 	893.532 	0.417405 	201.416 	0.00827101 	0.000111111 	
0.00121223 	0.00121223 	
0.00194444 	-6.8929e-09 	0.294 	0.206 	0.5 	-0.150732 	1.7992 	
0.584314 	-3.11731e-07 	-125.874 	-134.552 	
1.94994 	1.94994 	6.12688e-07 	0 	1.94994 	
-0.00223383 	2.33924 	893.529 	893.532 	0.417405 	201.416 	0.00255414 	0.000111111 	
0.00121223 	0.00121223 	
0.00205556 	-6.86599e-09 	0.294 	0.206 	0.5 	-0.150582 	1.79935 	
0.56021 	-3.10507e-07 	-125.37 	-135.055 	
1.94994 	1.94994 	5.87413e-07 	0 	1.94994 	
-0.00223383 	2.33924 	893.529 	893.532 	0.417405 	201.416 	0.00244878 	0.000111111 	
0.00121223 	0.00121223 	
0.00216667 	-6.77955e-09 	0.294 	0.206 	0.5 	-0.150433 	1.7995 	
1.7669 	-3.06646e-07 	-124.346 	-136.08 	
1.94994 	1.94994 	1.8527e-06 	0 	1.94994 	
-0.00223383 	2.33924 	893.529 	893.532 	0.417405 	201.416 	0.00772344 	0.000111111 	
0.00121223 	0.00121223 	
0.00227778 	-6.44829e-09 	0.294 	0.206 	0.5 	-0.150286 	1.79966 	
6.85551 	-2.91668e-07 	-120.55 	-139.876 	
1.94994 	1.94994 	7.1884e-06 	0 	1.94994 	
-0.00223383 	2.33924 	893.529 	893.532 	0.417405 	201.416 	0.0299667 	0.000111111 	
0.00121223 	0.00121223 	
0.00238889 	-5.14477e-09 	0.294 	0.206 	0.5 	-0.150146 	1.79981 	
27.0058 	-2.32664e-07 	-105.644 	-154.782 	
1.94996 	1.94994 	2.83172e-05 	0 	1.94996 	
-0.00223383 	2.33924 	893.529 	893.532 	0.417405 	201.416 	0.118047 	0.000111111 	
0.00121223 	0.00121223 	
0.0025 	0 	0.294 	0.206 	0.5 	-0.150034 	1.8 	
106.489 	-2.32664e-07 	-46.8777 	-213.548 	
1.95005 	1.94994 	0.00011166 	0 	1.95005 	
-0.00223383 	1.16962 	893.529 	893.532 	0.417405 	100.708 	0.930962 	5.55556e-05 	
0.000606113 	0.000606113 	
ZONE T = "t = 3e-08 [s]" I = 10 SOLUTIONTIME = 3.0000000000000E-08
0.0015 	-7.64713e-09 	0.294 	0.206 	0.5 	-0.151199 	1.79883 	
100.631 	-3.4913e-07 	-183.122 	-43.8527 	
1.95004 	1.94994 	0.000105517 	0 	1.95004 	
-0.00223383 	1.16962 	893.529 	893.532 	0.417405 	100.708 	0.870887 	5.55556e-05 	
0.000606113 	0.000606113 	
0.00161111 	-6.42594e-09 	0.294 	0.206 	0.5 	-0.151033 	1.79893 	
25.5201 	-2.93372e-07 	-128.149 	-98.8265 	
1.94996 	1.94994 	2.67593e-05 	0 	1.94996 	
-0.00223383 	2.33924 	893.529 	893.532 	0.417405 	201.416 	0.110429 	0.000111111 	
0.00121223 	0.00121223 	
0.00172222 	-6.11752e-09 	0.294 	0.206 	0.5 	-0.150894 	1.79905 	
6.47745 	-2.7922e-07 	-114.205 	-112.77 	
1.94994 	1.94994 	6.79198e-06 	0 	1.94994 	
-0.00223383 	2.33924 	893.529 	893.532 	0.417405 	201.416 	0.0280288 	0.000111111 	
0.00121223 	0.00121223 	
0.00183333 	-6.03833e-09 	0.294 	0.206 	0.5 	-0.150761 	1.79918 	
1.66592 	-2.7558e-07 	-110.656 	-116.319 	
1.94994 	1.94994 	1.74681e-06 	0 	1.94994 	
-0.00223383 	2.33924 	893.529 	893.532 	0.417405 	201.416 	0.00720865 	0.000111111 	
0.00121223 	0.00121223 	
0.00194444 	-6.015e-09 	0.294 	0.206 	0.5 	-0.15063 	1.79931 	
0.514446 	-2.74456e-07 	-109.706 	-117.269 	
1.94994 	1.94994 	5.39426e-07 	0 	1.94994 	
-0.00223383 	2.33924 	893.529 	893.532 	0.417405 	201.416 	0.00222608 	0.000111111 	
0.00121223 	0.00121223 	
0.00205556 	-5.99292e-09 	0.294 	0.206 	0.5 	-0.150499 	1.79944 	
0.493224 	-2.73378e-07 	-109.267 	-117.708 	
1.94994 	1.94994 	5.17174e-07 	0 	1.94994 	
-0.00223383 	2.33924 	893.529 	893.532 	0.417405 	201.416 	0.00213425 	0.000111111 	
0.00121223 	0.00121223 	
0.00216667 	-5.91827e-09 	0.294 	0.206 	0.5 	-0.150369 	1.79957 	
1.55563 	-2.69979e-07 	-108.374 	-118.601 	
1.94994 	1.94994 	1.63116e-06 	0 	1.94994 	
-0.00223383 	2.33924 	893.529 	893.532 	0.417405 	201.416 	0.0067314 	0.000111111 	
0.00121223 	0.00121223 	
0.00227778 	-5.62871e-09 	0.294 	0.206 	0.5 	-0.150241 	1.7997 	
6.03577 	-2.56792e-07 	-105.066 	-121.909 	
1.94994 	1.94994 	6.32886e-06 	0 	1.94994 	
-0.00223383 	2.33924 	893.529 	893.532 	0.417405 	201.416 	0.0261176 	0.000111111 	
0.00121223 	0.00121223 	
0.00238889 	-4.49294e-09 	0.294 	0.206 	0.5 	-0.150119 	1.79984 	
23.7767 	-2.04843e-07 	-92.0744 	-134.901 	
1.94996 	1.94994 	2.49312e-05 	0 	1.94996 	
-0.00223383 	2.33924 	893.529 	893.532 	0.417405 	201.416 	0.102885 	0.000111111 	
0.00121223 	0.00121223 	
0.0025 	0 	0.294 	0.206 	0.5 	-0.150021 	1.8 	
93.7554 	-2.04843e-07 	-40.8565 	-186.119 	
1.95003 	1.94994 	9.8308e-05 	0 	1.95003 	
-0.00223383 	1.16962 	893.529 	893.532 	0.417405 	100.708 	0.811384 	5.55556e-05 	
0.000606113 	0.000606113 	
ZONE T = "t = 4e-08 [s]" I = 10 SOLUTIONTIME = 4.0000000000000E-08
0.0015 	-6.57557e-09 	0.294 	0.206 	0.5 	-0.151023 	1.79899 	
87.7054 	-3.04286e-07 	-157.571 	-37.7339 	
1.95003 	1.94994 	9.19642e-05 	0 	1.95003 	
-0.00223382 	1.16962 	893.529 	893.532 	0.417405 	100.708 	0.749371 	5.55556e-05 	
0.000606113 	0.000606113 	
0.00161111 	-5.52381e-09 	0.294 	0.206 	0.5 	-0.15088 	1.79908 	
22.2422 	-2.5569e-07 	-110.268 	-85.0371 	
1.94996 	1.94994 	2.33222e-05 	0 	1.94996 	
-0.00223383 	2.33924 	893.529 	893.532 	0.417405 	201.416 	0.0950205 	0.000111111 	
0.00121223 	0.00121223 	
0.00172222 	-5.25611e-09 	0.294 	0.206 	0.5 	-0.15076 	1.79918 	
5.64545 	-2.43355e-07 	-98.2698 	-97.0353 	
1.94994 	1.94994 	5.91958e-06 	0 	1.94994 	
-0.00223383 	2.33924 	893.529 	893.532 	0.417405 	201.416 	0.0241179 	0.000111111 	
0.00121223 	0.00121223 	
0.00183333 	-5.18895e-09 	0.294 	0.206 	0.5 	-0.150646 	1.79929 	
1.45194 	-2.40183e-07 	-95.2162 	-100.089 	
1.94994 	1.94994 	1.52244e-06 	0 	1.94994 	
-0.00223383 	2.33924 	893.529 	893.532 	0.417405 	201.416 	0.00620282 	0.000111111 	
0.00121223 	0.00121223 	
0.00194444 	-5.16699e-09 	0.294 	0.206 	0.5 	-0.150533 	1.7994 	
0.448368 	-2.39203e-07 	-94.3986 	-100.906 	
1.94994 	1.94994 	4.7014e-07 	0 	1.94994 	
-0.00223383 	2.33924 	893.529 	893.532 	0.417405 	201.416 	0.00191547 	0.000111111 	
0.00121223 	0.00121223 	
0.00205556 	-5.14702e-09 	0.294 	0.206 	0.5 	-0.150421 	1.79952 	
0.429872 	-2.38264e-07 	-94.0208 	-101.284 	
1.94994 	1.94994 	4.50745e-07 	0 	1.94994 	
-0.00223383 	2.33924 	893.529 	893.532 	0.417405 	201.416 	0.00183645 	0.000111111 	
0.00121223 	0.00121223 	
0.00216667 	-5.0822e-09 	0.294 	0.206 	0.5 	-0.150309 	1.79963 	
1.35581 	-2.35302e-07 	-93.2525 	-102.053 	
1.94994 	1.94994 	1.42165e-06 	0 	1.94994 	
-0.00223383 	2.33924 	893.529 	893.532 	0.417405 	201.416 	0.00579216 	0.000111111 	
0.00121223 	0.00121223 	
0.00227778 	-4.83361e-09 	0.294 	0.206 	0.5 	-0.150198 	1.79974 	
5.26051 	-2.23808e-07 	-90.406 	-104.899 	
1.94994 	1.94994 	5.51595e-06 	0 	1.94994 	
-0.00223383 	2.33924 	893.529 	893.532 	0.417405 	201.416 	0.0224734 	0.000111111 	
0.00121223 	0.00121223 	
0.00238889 	-3.85415e-09 	0.294 	0.206 	0.5 	-0.150093 	1.79986 	
20.7227 	-1.78532e-07 	-79.2271 	-116.078 	
1.94996 	1.94994 	2.17289e-05 	0 	1.94996 	
-0.00223383 	2.33924 	893.529 	893.532 	0.417405 	201.416 	0.0885291 	0.000111111 	
0.00121223 	0.00121223 	
0.0025 	0 	0.294 	0.206 	0.5 	-0.150009 	1.8 	
81.713 	-1.78532e-07 	-35.1557 	-160.149 	
1.95002 	1.94994 	8.56808e-05 	0 	1.95002 	
-0.00223382 	1.16962 	893.529 	893.532 	0.417405 	100.708 	0.698171 	5.55556e-05 	
0.000606113 	0.000606113 	
ZONE T = "t = 5.5e-08 [s]" I = 10 SOLUTIONTIME = 5.5000000000000E-08
0.0015 	-5.09263e-09 	0.294 	0.206 	0.5 	-0.150778 	1.79922 	
75.4678 	-2.61829e-07 	-122.052 	-29.228 	
1.95001 	1.94994 	7.91323e-05 	0 	1.95001 	
-0.00223382 	1.16962 	893.529 	893.532 	0.417405 	100.708 	0.58045 	5.55556e-05 	
0.000606113 	0.000606113 	
0.00161111 	-4.27924e-09 	0.294 	0.206 	0.5 	-0.150667 	1.79928 	
19.1387 	-2.20013e-07 	-85.4117 	-65.8683 	
1.94996 	1.94994 	2.0068e-05 	0 	1.94996 	
-0.00223383 	2.33924 	893.529 	893.532 	0.417405 	201.416 	0.0736013 	0.000111111 	
0.00121223 	0.00121223 	
0.00172222 	-4.07278e-09 	0.294 	0.206 	0.5 	-0.150574 	1.79937 	
4.85774 	-2.094e-07 	-76.1181 	-75.1619 	
1.94994 	1.94994 	5.09362e-06 	0 	1.94994 	
-0.00223383 	2.33924 	893.529 	893.532 	0.417405 	201.416 	0.0186813 	0.000111111 	
0.00121223 	0.00121223 	
0.00183333 	-4.0197e-09 	0.294 	0.206 	0.5 	-0.150486 	1.79945 	
1.24935 	-2.0667e-07 	-73.7529 	-77.5271 	
1.94994 	1.94994 	1.31001e-06 	0 	1.94994 	
-0.00223383 	2.33924 	893.529 	893.532 	0.417405 	201.416 	0.0048046 	0.000111111 	
0.00121223 	0.00121223 	
0.00194444 	-4.00313e-09 	0.294 	0.206 	0.5 	-0.150398 	1.79954 	
0.385807 	-2.05827e-07 	-73.1196 	-78.1604 	
1.94994 	1.94994 	4.04541e-07 	0 	1.94994 	
-0.00223383 	2.33924 	893.529 	893.532 	0.417405 	201.416 	0.00148369 	0.000111111 	
0.00121223 	0.00121223 	
0.00205556 	-3.98668e-09 	0.294 	0.206 	0.5 	-0.150311 	1.79962 	
0.369891 	-2.05019e-07 	-72.8269 	-78.4531 	
1.94994 	1.94994 	3.87852e-07 	0 	1.94994 	
-0.00223383 	2.33924 	893.529 	893.532 	0.417405 	201.416 	0.00142248 	0.000111111 	
0.00121223 	0.00121223 	
0.00216667 	-3.93729e-09 	0.294 	0.206 	0.5 	-0.150225 	1.79971 	
1.16664 	-2.0247e-07 	-72.2318 	-79.0481 	
1.94994 	1.94994 	1.22328e-06 	0 	1.94994 	
-0.00223383 	2.33924 	893.529 	893.532 	0.417405 	201.416 	0.00448651 	0.000111111 	
0.00121223 	0.00121223 	
0.00227778 	-3.74448e-09 	0.294 	0.206 	0.5 	-0.150139 	1.7998 	
4.52651 	-1.9258e-07 	-70.0269 	-81.2531 	
1.94994 	1.94994 	4.7463e-06 	0 	1.94994 	
-0.00223383 	2.33924 	893.529 	893.532 	0.417405 	201.416 	0.0174075 	0.000111111 	
0.00121223 	0.00121223 	
0.00238889 	-2.98635e-09 	0.294 	0.206 	0.5 	-0.150058 	1.79989 	
17.8312 	-1.53621e-07 	-61.368 	-89.912 	
1.94995 	1.94994 	1.86971e-05 	0 	1.94995 	
-0.00223383 	2.33924 	893.529 	893.532 	0.417405 	201.416 	0.0685732 	0.000111111 	
0.00121223 	0.00121223 	
0.0025 	0 	0.294 	0.206 	0.5 	-0.149993 	1.8 	
70.3115 	-1.53621e-07 	-27.231 	-124.049 	
1.95001 	1.94994 	7.37257e-05 	0 	1.95001 	
-0.00223382 	1.16962 	893.529 	893.532 	0.417405 	100.708 	0.540791 	5.55556e-05 	
0.000606113 	0.000606113 	
ZONE T = "t = 7.24022e-08 [s]" I = 10 SOLUTIONTIME = 7.2402181709653E-08
0.0015 	-3.52032e-09 	0.294 	0.206 	0.5 	-0.150517 	1.79946 	
58.456 	-2.02808e-07 	-84.3121 	-20.1904 	
1.95 	1.94994 	6.12945e-05 	0 	1.95 	
-0.00223382 	1.16961 	893.529 	893.532 	0.417405 	100.708 	0.400968 	5.55556e-05 	
0.000606113 	0.000606113 	
0.00161111 	-2.95789e-09 	0.294 	0.206 	0.5 	-0.150441 	1.79951 	
14.8245 	-1.70418e-07 	-59.0014 	-45.501 	
1.94995 	1.94994 	1.55443e-05 	0 	1.94995 	
-0.00223383 	2.33924 	893.529 	893.532 	0.417405 	201.416 	0.0508429 	0.000111111 	
0.00121223 	0.00121223 	
0.00172222 	-2.81561e-09 	0.294 	0.206 	0.5 	-0.150377 	1.79956 	
3.76272 	-1.62197e-07 	-52.5815 	-51.921 	
1.94994 	1.94994 	3.94543e-06 	0 	1.94994 	
-0.00223383 	2.33924 	893.529 	893.532 	0.417405 	201.416 	0.0129048 	0.000111111 	
0.00121223 	0.00121223 	
0.00183333 	-2.77863e-09 	0.294 	0.206 	0.5 	-0.150315 	1.79962 	
0.967724 	-1.60083e-07 	-50.9476 	-53.5548 	
1.94994 	1.94994 	1.01471e-06 	0 	1.94994 	
-0.00223383 	2.33924 	893.529 	893.532 	0.417405 	201.416 	0.00331896 	0.000111111 	
0.00121223 	0.00121223 	
0.00194444 	-2.76621e-09 	0.294 	0.206 	0.5 	-0.150255 	1.79968 	
0.298839 	-1.5943e-07 	-50.5102 	-53.9923 	
1.94994 	1.94994 	3.1335e-07 	0 	1.94994 	
-0.00223383 	2.33924 	893.529 	893.532 	0.417405 	201.416 	0.00102492 	0.000111111 	
0.00121223 	0.00121223 	
0.00205556 	-2.75388e-09 	0.294 	0.206 	0.5 	-0.150195 	1.79974 	
0.286511 	-1.58804e-07 	-50.308 	-54.1945 	
1.94994 	1.94994 	3.00424e-07 	0 	1.94994 	
-0.00223383 	2.33924 	893.529 	893.532 	0.417405 	201.416 	0.000982636 	0.000111111 	
0.00121223 	0.00121223 	
0.00216667 	-2.71898e-09 	0.294 	0.206 	0.5 	-0.150135 	1.7998 	
0.903656 	-1.5683e-07 	-49.8969 	-54.6055 	
1.94994 	1.94994 	9.47536e-07 	0 	1.94994 	
-0.00223383 	2.33924 	893.529 	893.532 	0.417405 	201.416 	0.00309923 	0.000111111 	
0.00121223 	0.00121223 	
0.00227778 	-2.58641e-09 	0.294 	0.206 	0.5 	-0.150076 	1.79986 	
3.50615 	-1.49169e-07 	-48.3738 	-56.1287 	
1.94994 	1.94994 	3.6764e-06 	0 	1.94994 	
-0.00223383 	2.33924 	893.529 	893.532 	0.417405 	201.416 	0.0120249 	0.000111111 	
0.00121223 	0.00121223 	
0.00238889 	-2.06253e-09 	0.294 	0.206 	0.5 	-0.15002 	1.79993 	
13.8118 	-1.18992e-07 	-42.3923 	-62.1102 	
1.94995 	1.94994 	1.44824e-05 	0 	1.94995 	
-0.00223383 	2.33924 	893.529 	893.532 	0.417405 	201.416 	0.0473696 	0.000111111 	
0.00121223 	0.00121223 	
0.0025 	0 	0.294 	0.206 	0.5 	-0.149975 	1.8 	
54.4621 	-1.18992e-07 	-18.8109 	-85.6916 	
1.94999 	1.94994 	5.71066e-05 	0 	1.94999 	
-0.00223382 	1.16962 	893.529 	893.532 	0.417405 	100.708 	0.373572 	5.55556e-05 	
0.000606113 	0.000606113 	
ZONE T = "t = 9.05739e-08 [s]" I = 10 SOLUTIONTIME = 9.0573901676417E-08
0.0015 	-2.01616e-09 	0.294 	0.206 	0.5 	-0.150269 	1.79969 	
40.3808 	-1.40097e-07 	-48.3024 	-11.5671 	
1.94998 	1.94994 	4.23416e-05 	0 	1.94998 	
-0.00223382 	1.16961 	893.529 	893.532 	0.417405 	100.708 	0.229715 	5.55556e-05 	
0.000606113 	0.000606113 	
0.00161111 	-1.69417e-09 	0.294 	0.206 	0.5 	-0.150225 	1.79972 	
10.2406 	-1.17723e-07 	-33.8019 	-26.0676 	
1.94995 	1.94994 	1.07379e-05 	0 	1.94995 	
-0.00223383 	2.33924 	893.529 	893.532 	0.417405 	201.416 	0.0291279 	0.000111111 	
0.00121223 	0.00121223 	
0.00172222 	-1.61235e-09 	0.294 	0.206 	0.5 	-0.150188 	1.79975 	
2.59924 	-1.12044e-07 	-30.124 	-29.7456 	
1.94994 	1.94994 	2.72546e-06 	0 	1.94994 	
-0.00223383 	2.33924 	893.529 	893.532 	0.417405 	201.416 	0.00739319 	0.000111111 	
0.00121223 	0.00121223 	
0.00183333 	-1.59196e-09 	0.294 	0.206 	0.5 	-0.150153 	1.79978 	
0.668492 	-1.10584e-07 	-29.1879 	-30.6816 	
1.94994 	1.94994 	7.00953e-07 	0 	1.94994 	
-0.00223383 	2.33924 	893.529 	893.532 	0.417405 	201.416 	0.00190143 	0.000111111 	
0.00121223 	0.00121223 	
0.00194444 	-1.58578e-09 	0.294 	0.206 	0.5 	-0.150119 	1.79982 	
0.206435 	-1.10132e-07 	-28.9373 	-30.9322 	
1.94994 	1.94994 	2.16459e-07 	0 	1.94994 	
-0.00223383 	2.33924 	893.529 	893.532 	0.417405 	201.416 	0.000587175 	0.000111111 	
0.00121223 	0.00121223 	
0.00205556 	-1.58127e-09 	0.294 	0.206 	0.5 	-0.150084 	1.79985 	
0.197919 	-1.097e-07 	-28.8215 	-31.048 	
1.94994 	1.94994 	2.07529e-07 	0 	1.94994 	
-0.00223383 	2.33924 	893.529 	893.532 	0.417405 	201.416 	0.000562953 	0.000111111 	
0.00121223 	0.00121223 	
0.00216667 	-1.56184e-09 	0.294 	0.206 	0.5 	-0.15005 	1.79989 	
0.624235 	-1.08336e-07 	-28.586 	-31.2836 	
1.94994 	1.94994 	6.54547e-07 	0 	1.94994 	
-0.00223383 	2.33924 	893.529 	893.532 	0.417405 	201.416 	0.00177555 	0.000111111 	
0.00121223 	0.00121223 	
0.00227778 	-1.48513e-09 	0.294 	0.206 	0.5 	-0.150016 	1.79992 	
2.42201 	-1.03044e-07 	-27.7134 	-32.1562 	
1.94994 	1.94994 	2.53962e-06 	0 	1.94994 	
-0.00223383 	2.33924 	893.529 	893.532 	0.417405 	201.416 	0.00688907 	0.000111111 	
0.00121223 	0.00121223 	
0.00238889 	-1.186e-09 	0.294 	0.206 	0.5 	-0.149984 	1.79996 	
9.541 	-8.21986e-08 	-24.2866 	-35.583 	
1.94995 	1.94994 	1.00043e-05 	0 	1.94995 	
-0.00223383 	2.33924 	893.529 	893.532 	0.417405 	201.416 	0.0271381 	0.000111111 	
0.00121223 	0.00121223 	
0.0025 	0 	0.294 	0.206 	0.5 	-0.149958 	1.8 	
37.6218 	-8.21986e-08 	-10.7768 	-49.0928 	
1.94997 	1.94994 	3.94486e-05 	0 	1.94997 	
-0.00223382 	1.16961 	893.529 	893.532 	0.417405 	100.708 	0.21402 	5.55556e-05 	
0.000606113 	0.000606113 	
ZONE T = "t = 1.09752e-07 [s]" I = 10 SOLUTIONTIME = 1.0975186409317E-07
0.0015 	-5.69733e-10 	0.294 	0.206 	0.5 	-0.15003 	1.79991 	
23.1342 	-8.02619e-08 	-13.6513 	-3.2691 	
1.94996 	1.94994 	2.42575e-05 	0 	1.94996 	
-0.00223382 	1.16961 	893.529 	893.532 	0.417405 	100.708 	0.0649222 	5.55556e-05 	
0.000606113 	0.000606113 	
0.00161111 	-4.78614e-10 	0.294 	0.206 	0.5 	-0.150017 	1.79992 	
5.86684 	-6.74436e-08 	-9.55313 	-7.36724 	
1.94994 	1.94994 	6.15172e-06 	0 	1.94994 	
-0.00223383 	2.33924 	893.529 	893.532 	0.417405 	201.416 	0.00823216 	0.000111111 	
0.00121223 	0.00121223 	
0.00172222 	-4.55572e-10 	0.294 	0.206 	0.5 	-0.150007 	1.79993 	
1.48911 	-6.41901e-08 	-8.51366 	-8.40671 	
1.94994 	1.94994 	1.56142e-06 	0 	1.94994 	
-0.00223383 	2.33924 	893.529 	893.532 	0.417405 	201.416 	0.00208947 	0.000111111 	
0.00121223 	0.00121223 	
0.00183333 	-4.48587e-10 	0.294 	0.206 	0.5 	-0.149997 	1.79994 	
0.38298 	-6.33534e-08 	-8.24911 	-8.67125 	
1.94994 	1.94994 	4.01576e-07 	0 	1.94994 	
-0.00223383 	2.33924 	893.529 	893.532 	0.417405 	201.416 	0.000537385 	0.000111111 	
0.00121223 	0.00121223 	
0.00194444 	-4.46797e-10 	0.294 	0.206 	0.5 	-0.149987 	1.79995 	
0.118267 	-6.3095e-08 	-8.17828 	-8.74209 	
1.94994 	1.94994 	1.24009e-07 	0 	1.94994 	
-0.00223383 	2.33924 	893.529 	893.532 	0.417405 	201.416 	0.000165948 	0.000111111 	
0.00121223 	0.00121223 	
0.00205556 	-4.44802e-10 	0.294 	0.206 	0.5 	-0.149977 	1.79996 	
0.113388 	-6.28472e-08 	-8.14555 	-8.77482 	
1.94994 	1.94994 	1.18894e-07 	0 	1.94994 	
-0.00223383 	2.33924 	893.529 	893.532 	0.417405 	201.416 	0.000159102 	0.000111111 	
0.00121223 	0.00121223 	
0.00216667 	-4.39215e-10 	0.294 	0.206 	0.5 	-0.149968 	1.79997 	
0.357625 	-6.20659e-08 	-8.07899 	-8.84138 	
1.94994 	1.94994 	3.7499e-07 	0 	1.94994 	
-0.00223383 	2.33924 	893.529 	893.532 	0.417405 	201.416 	0.000501808 	0.000111111 	
0.00121223 	0.00121223 	
0.00227778 	-4.17222e-10 	0.294 	0.206 	0.5 	-0.149958 	1.79998 	
1.38757 	-5.90342e-08 	-7.83237 	-9.08799 	
1.94994 	1.94994 	1.45495e-06 	0 	1.94994 	
-0.00223383 	2.33924 	893.529 	893.532 	0.417405 	201.416 	0.001947 	0.000111111 	
0.00121223 	0.00121223 	
0.00238889 	-3.32351e-10 	0.294 	0.206 	0.5 	-0.149949 	1.79999 	
5.46605 	-4.70917e-08 	-6.86388 	-10.0565 	
1.94994 	1.94994 	5.73146e-06 	0 	1.94994 	
-0.00223383 	2.33924 	893.529 	893.532 	0.417405 	201.416 	0.00766978 	0.000111111 	
0.00121223 	0.00121223 	
0.0025 	0 	0.294 	0.206 	0.5 	-0.149942 	1.8 	
21.5535 	-4.70917e-08 	-3.04574 	-13.8746 	
1.94996 	1.94994 	2.26001e-05 	0 	1.94996 	
-0.00223382 	1.16961 	893.529 	893.532 	0.417405 	100.708 	0.0604864 	5.55556e-05 	
0.000606113 	0.000606113 	
ZONE T = "t = 1.3015e-07 [s]" I = 10 SOLUTIONTIME = 1.3015022570151E-07
0.0015 	8.28872e-10 	0.294 	0.206 	0.5 	-0.149798 	1.80013 	
6.53819 	-2.26837e-08 	19.8524 	4.75408 	
1.94994 	1.94994 	6.85567e-06 	0 	1.94994 	
-0.00223382 	1.16961 	893.529 	893.532 	0.417405 	100.708 	-0.0944131 	5.55556e-05 	
0.000606113 	0.000606113 	
0.00161111 	6.97156e-10 	0.294 	0.206 	0.5 	-0.149816 	1.80012 	
1.65809 	-1.9061e-08 	13.8926 	10.7138 	
1.94994 	1.94994 	1.7386e-06 	0 	1.94994 	
-0.00223383 	2.33924 	893.529 	893.532 	0.417405 	201.416 	-0.0119716 	0.000111111 	
0.00121223 	0.00121223 	
0.00172222 	6.63821e-10 	0.294 	0.206 	0.5 	-0.149832 	1.8001 	
0.420853 	-1.81415e-08 	12.381 	12.2255 	
1.94994 	1.94994 	4.41289e-07 	0 	1.94994 	
-0.00223383 	2.33924 	893.529 	893.532 	0.417405 	201.416 	-0.00303861 	0.000111111 	
0.00121223 	0.00121223 	
0.00183333 	6.55055e-10 	0.294 	0.206 	0.5 	-0.149846 	1.80009 	
0.108238 	-1.7905e-08 	11.9963 	12.6102 	
1.94994 	1.94994 	1.13494e-07 	0 	1.94994 	
-0.00223383 	2.33924 	893.529 	893.532 	0.417405 	201.416 	-0.000781491 	0.000111111 	
0.00121223 	0.00121223 	
0.00194444 	6.5278e-10 	0.294 	0.206 	0.5 	-0.14986 	1.80008 	
0.0334246 	-1.78319e-08 	11.8933 	12.7132 	
1.94994 	1.94994 	3.50477e-08 	0 	1.94994 	
-0.00223383 	2.33924 	893.529 	893.532 	0.417405 	201.416 	-0.000241329 	0.000111111 	
0.00121223 	0.00121223 	
0.00205556 	6.50181e-10 	0.294 	0.206 	0.5 	-0.149874 	1.80006 	
0.0320458 	-1.77619e-08 	11.8457 	12.7608 	
1.94994 	1.94994 	3.36019e-08 	0 	1.94994 	
-0.00223383 	2.33924 	893.529 	893.532 	0.417405 	201.416 	-0.000231374 	0.000111111 	
0.00121223 	0.00121223 	
0.00216667 	6.41615e-10 	0.294 	0.206 	0.5 	-0.149888 	1.80005 	
0.101072 	-1.75411e-08 	11.7489 	12.8576 	
1.94994 	1.94994 	1.0598e-07 	0 	1.94994 	
-0.00223383 	2.33924 	893.529 	893.532 	0.417405 	201.416 	-0.000729752 	0.000111111 	
0.00121223 	0.00121223 	
0.00227778 	6.10067e-10 	0.294 	0.206 	0.5 	-0.149902 	1.80003 	
0.392157 	-1.66843e-08 	11.3902 	13.2162 	
1.94994 	1.94994 	4.11199e-07 	0 	1.94994 	
-0.00223383 	2.33924 	893.529 	893.532 	0.417405 	201.416 	-0.00283141 	0.000111111 	
0.00121223 	0.00121223 	
0.00238889 	4.86922e-10 	0.294 	0.206 	0.5 	-0.149916 	1.80002 	
1.54482 	-1.33091e-08 	9.98181 	14.6246 	
1.94994 	1.94994 	1.61983e-06 	0 	1.94994 	
-0.00223383 	2.33924 	893.529 	893.532 	0.417405 	201.416 	-0.0111538 	0.000111111 	
0.00121223 	0.00121223 	
0.0025 	0 	0.294 	0.206 	0.5 	-0.149926 	1.8 	
6.09148 	-1.33091e-08 	4.42927 	20.1772 	
1.94994 	1.94994 	6.38726e-06 	0 	1.94994 	
-0.00223382 	1.16961 	893.529 	893.532 	0.417405 	100.708 	-0.0879624 	5.55556e-05 	
0.000606113 	0.000606113 	
ZONE T = "t = 1.51865e-07 [s]" I = 10 SOLUTIONTIME = 1.5186485898573E-07
0.0015 	2.17641e-09 	0.294 	0.206 	0.5 	-0.149575 	1.80033 	
-9.50817 	3.29878e-08 	52.1661 	12.4923 	
1.94993 	1.94994 	-9.96986e-06 	0 	1.94993 	
-0.00223382 	1.16961 	893.529 	893.532 	0.417405 	100.708 	-0.248089 	5.55556e-05 	
0.000606113 	0.000606113 	
0.00161111 	1.82784e-09 	0.294 	0.206 	0.5 	-0.149623 	1.80031 	
-2.41128 	2.77194e-08 	36.5057 	28.1527 	
1.94993 	1.94994 	-2.52836e-06 	0 	1.94993 	
-0.00223383 	2.33924 	893.529 	893.532 	0.417405 	201.416 	-0.0314578 	0.000111111 	
0.00121223 	0.00121223 	