TITLE = "Solution on Domain BulkDomain1D_1"
VARIABLES = "x [m]"  
"Vel_axial(0)" 	"MF_sp(Li+)" 	"MF_sp(K+)" 	"MF_sp(Cl-)" 	"Volt(Electroly)" 	
ZONE T = "t = 0 [s]" I = 10 SOLUTIONTIME = 0.0000000000000E+00
0.001 	2.90121e-07 	0.294 	0.206 	0.5 	-0.1332 	
0.00105556 	2.90121e-07 	0.294 	0.206 	0.5 	-0.133755 	
0.00111111 	2.90121e-07 	0.294 	0.206 	0.5 	-0.134309 	
0.00116667 	2.90121e-07 	0.294 	0.206 	0.5 	-0.134863 	
0.00122222 	2.90121e-07 	0.294 	0.206 	0.5 	-0.135418 	
0.00127778 	2.90121e-07 	0.294 	0.206 	0.5 	-0.135972 	
0.00133333 	2.90121e-07 	0.294 	0.206 	0.5 	-0.136527 	
0.00138889 	2.90121e-07 	0.294 	0.206 	0.5 	-0.137081 	
0.00144444 	2.90121e-07 	0.294 	0.206 	0.5 	-0.137635 	
0.0015 	2.01575e-07 	0.294 	0.206 	0.5 	-0.13819 	
ZONE T = "t = 0 [s]" I = 10 SOLUTIONTIME = 0.0000000000000E+00
0.001 	2.90121e-07 	0.294 	0.206 	0.5 	-0.1332 	
0.00105556 	2.90121e-07 	0.294 	0.206 	0.5 	-0.133755 	
0.00111111 	2.90121e-07 	0.294 	0.206 	0.5 	-0.134309 	
0.00116667 	2.90121e-07 	0.294 	0.206 	0.5 	-0.134863 	
0.00122222 	2.90121e-07 	0.294 	0.206 	0.5 	-0.135418 	
0.00127778 	2.90121e-07 	0.294 	0.206 	0.5 	-0.135972 	
0.00133333 	2.90121e-07 	0.294 	0.206 	0.5 	-0.136527 	
0.00138889 	2.90121e-07 	0.294 	0.206 	0.5 	-0.137081 	
0.00144444 	2.90121e-07 	0.294 	0.206 	0.5 	-0.137635 	
0.0015 	2.01575e-07 	0.294 	0.206 	0.5 	-0.13819 	
ZONE T = "t = 1e-08 [s]" I = 10 SOLUTIONTIME = 1.0000000000000E-08
0.001 	1.15776e-07 	0.294 	0.206 	0.5 	-0.1332 	
0.00105556 	1.15776e-07 	0.294 	0.206 	0.5 	-0.133755 	
0.00111111 	1.15776e-07 	0.294 	0.206 	0.5 	-0.134309 	
0.00116667 	1.15776e-07 	0.294 	0.206 	0.5 	-0.134863 	
0.00122222 	1.15776e-07 	0.294 	0.206 	0.5 	-0.135418 	
0.00127778 	1.15776e-07 	0.294 	0.206 	0.5 	-0.135972 	
0.00133333 	1.15776e-07 	0.294 	0.206 	0.5 	-0.136527 	
0.00138889 	1.15776e-07 	0.294 	0.206 	0.5 	-0.137081 	
0.00144444 	1.15776e-07 	0.294 	0.206 	0.5 	-0.137635 	
0.0015 	7.10404e-08 	0.294 	0.206 	0.5 	-0.13819 	
ZONE T = "t = 2e-08 [s]" I = 10 SOLUTIONTIME = 2.0000000000000E-08
0.001 	1.15772e-07 	0.294 	0.206 	0.5 	-0.1332 	
0.00105556 	1.15772e-07 	0.294 	0.206 	0.5 	-0.133755 	
0.00111111 	1.15772e-07 	0.294 	0.206 	0.5 	-0.134309 	
0.00116667 	1.15772e-07 	0.294 	0.206 	0.5 	-0.134863 	
0.00122222 	1.15772e-07 	0.294 	0.206 	0.5 	-0.135418 	
0.00127778 	1.15772e-07 	0.294 	0.206 	0.5 	-0.135972 	
0.00133333 	1.15772e-07 	0.294 	0.206 	0.5 	-0.136527 	
0.00138889 	1.15772e-07 	0.294 	0.206 	0.5 	-0.137081 	
0.00144444 	1.15772e-07 	0.294 	0.206 	0.5 	-0.137635 	
0.0015 	7.10363e-08 	0.294 	0.206 	0.5 	-0.13819 	
ZONE T = "t = 3e-08 [s]" I = 10 SOLUTIONTIME = 3.0000000000000E-08
0.001 	1.15775e-07 	0.294 	0.206 	0.5 	-0.1332 	
0.00105556 	1.15775e-07 	0.294 	0.206 	0.5 	-0.133755 	
0.00111111 	1.15775e-07 	0.294 	0.206 	0.5 	-0.134309 	
0.00116667 	1.15775e-07 	0.294 	0.206 	0.5 	-0.134863 	
0.00122222 	1.15775e-07 	0.294 	0.206 	0.5 	-0.135418 	
0.00127778 	1.15775e-07 	0.294 	0.206 	0.5 	-0.135972 	
0.00133333 	1.15775e-07 	0.294 	0.206 	0.5 	-0.136527 	
0.00138889 	1.15775e-07 	0.294 	0.206 	0.5 	-0.137081 	
0.00144444 	1.15775e-07 	0.294 	0.206 	0.5 	-0.137635 	
0.0015 	7.10375e-08 	0.294 	0.206 	0.5 	-0.13819 	
ZONE T = "t = 4e-08 [s]" I = 10 SOLUTIONTIME = 4.0000000000000E-08
0.001 	1.15773e-07 	0.294 	0.206 	0.5 	-0.1332 	
0.00105556 	1.15773e-07 	0.294 	0.206 	0.5 	-0.133755 	
0.00111111 	1.15773e-07 	0.294 	0.206 	0.5 	-0.134309 	
0.00116667 	1.15773e-07 	0.294 	0.206 	0.5 	-0.134863 	
0.00122222 	1.15773e-07 	0.294 	0.206 	0.5 	-0.135418 	
0.00127778 	1.15773e-07 	0.294 	0.206 	0.5 	-0.135972 	
0.00133333 	1.15773e-07 	0.294 	0.206 	0.5 	-0.136527 	
0.00138889 	1.15773e-07 	0.294 	0.206 	0.5 	-0.137081 	
0.00144444 	1.15773e-07 	0.294 	0.206 	0.5 	-0.137635 	
0.0015 	7.10379e-08 	0.294 	0.206 	0.5 	-0.13819 	
ZONE T = "t = 5.5e-08 [s]" I = 10 SOLUTIONTIME = 5.5000000000000E-08
0.001 	1.15775e-07 	0.294 	0.206 	0.5 	-0.1332 	
0.00105556 	1.15775e-07 	0.294 	0.206 	0.5 	-0.133755 	
0.00111111 	1.15775e-07 	0.294 	0.206 	0.5 	-0.134309 	
0.00116667 	1.15775e-07 	0.294 	0.206 	0.5 	-0.134863 	
0.00122222 	1.15775e-07 	0.294 	0.206 	0.5 	-0.135418 	
0.00127778 	1.15775e-07 	0.294 	0.206 	0.5 	-0.135972 	
0.00133333 	1.15775e-07 	0.294 	0.206 	0.5 	-0.136527 	
0.00138889 	1.15775e-07 	0.294 	0.206 	0.5 	-0.137081 	
0.00144444 	1.15775e-07 	0.294 	0.206 	0.5 	-0.137635 	
0.0015 	7.10392e-08 	0.294 	0.206 	0.5 	-0.13819 	
ZONE T = "t = 7.75e-08 [s]" I = 10 SOLUTIONTIME = 7.7500000000000E-08
0.001 	1.15774e-07 	0.294 	0.206 	0.5 	-0.1332 	
0.00105556 	1.15774e-07 	0.294 	0.206 	0.5 	-0.133755 	
0.00111111 	1.15774e-07 	0.294 	0.206 	0.5 	-0.134309 	
0.00116667 	1.15774e-07 	0.294 	0.206 	0.5 	-0.134863 	
0.00122222 	1.15774e-07 	0.294 	0.206 	0.5 	-0.135418 	
0.00127778 	1.15774e-07 	0.294 	0.206 	0.5 	-0.135972 	
0.00133333 	1.15774e-07 	0.294 	0.206 	0.5 	-0.136527 	
0.00138889 	1.15774e-07 	0.294 	0.206 	0.5 	-0.137081 	
0.00144444 	1.15774e-07 	0.294 	0.206 	0.5 	-0.137635 	
0.0015 	7.1038e-08 	0.294 	0.206 	0.5 	-0.13819 	
ZONE T = "t = 1.1125e-07 [s]" I = 10 SOLUTIONTIME = 1.1125000000000E-07
0.001 	1.15773e-07 	0.294 	0.206 	0.5 	-0.1332 	
0.00105556 	1.15773e-07 	0.294 	0.206 	0.5 	-0.133755 	
0.00111111 	1.15773e-07 	0.294 	0.206 	0.5 	-0.134309 	
0.00116667 	1.15773e-07 	0.294 	0.206 	0.5 	-0.134863 	
0.00122222 	1.15773e-07 	0.294 	0.206 	0.5 	-0.135418 	
0.00127778 	1.15773e-07 	0.294 	0.206 	0.5 	-0.135972 	
0.00133333 	1.15773e-07 	0.294 	0.206 	0.5 	-0.136527 	
0.00138889 	1.15773e-07 	0.294 	0.206 	0.5 	-0.137081 	
0.00144444 	1.15773e-07 	0.294 	0.206 	0.5 	-0.137635 	
0.0015 	7.10369e-08 	0.294 	0.206 	0.5 	-0.13819 	
ZONE T = "t = 1.61875e-07 [s]" I = 10 SOLUTIONTIME = 1.6187500000000E-07
0.001 	1.15774e-07 	0.294 	0.206 	0.5 	-0.1332 	
0.00105556 	1.15774e-07 	0.294 	0.206 	0.5 	-0.133755 	
0.00111111 	1.15774e-07 	0.294 	0.206 	0.5 	-0.134309 	
0.00116667 	1.15774e-07 	0.294 	0.206 	0.5 	-0.134863 	
0.00122222 	1.15774e-07 	0.294 	0.206 	0.5 	-0.135418 	
0.00127778 	1.15774e-07 	0.294 	0.206 	0.5 	-0.135972 	
0.00133333 	1.15774e-07 	0.294 	0.206 	0.5 	-0.136527 	
0.00138889 	1.15774e-07 	0.294 	0.206 	0.5 	-0.137081 	
0.00144444 	1.15774e-07 	0.294 	0.206 	0.5 	-0.137635 	
0.0015 	7.10375e-08 	0.294 	0.206 	0.5 	-0.13819 	
ZONE T = "t = 2.37813e-07 [s]" I = 10 SOLUTIONTIME = 2.3781250000000E-07
0.001 	1.15774e-07 	0.294 	0.206 	0.5 	-0.1332 	
0.00105556 	1.15774e-07 	0.294 	0.206 	0.5 	-0.133755 	
0.00111111 	1.15774e-07 	0.294 	0.206 	0.5 	-0.134309 	
0.00116667 	1.15774e-07 	0.294 	0.206 	0.5 	-0.134863 	
0.00122222 	1.15774e-07 	0.294 	0.206 	0.5 	-0.135418 	
0.00127778 	1.15774e-07 	0.294 	0.206 	0.5 	-0.135972 	
0.00133333 	1.15774e-07 	0.294 	0.206 	0.5 	-0.136527 	
0.00138889 	1.15774e-07 	0.294 	0.206 	0.5 	-0.137081 	
0.00144444 	1.15774e-07 	0.294 	0.206 	0.5 	-0.137635 	
0.0015 	7.10377e-08 	0.294 	0.206 	0.5 	-0.13819 	
ZONE T = "t = 3.51719e-07 [s]" I = 10 SOLUTIONTIME = 3.5171875000000E-07
0.001 	1.15773e-07 	0.294 	0.206 	0.5 	-0.1332 	
0.00105556 	1.15773e-07 	0.294 	0.206 	0.5 	-0.133755 	
0.00111111 	1.15773e-07 	0.294 	0.206 	0.5 	-0.134309 	
0.00116667 	1.15773e-07 	0.294 	0.206 	0.5 	-0.134863 	
0.00122222 	1.15773e-07 	0.294 	0.206 	0.5 	-0.135418 	
0.00127778 	1.15773e-07 	0.294 	0.206 	0.5 	-0.135972 	
0.00133333 	1.15773e-07 	0.294 	0.206 	0.5 	-0.136527 	
0.00138889 	1.15773e-07 	0.294 	0.206 	0.5 	-0.137081 	
0.00144444 	1.15774e-07 	0.294 	0.206 	0.5 	-0.137635 	
0.0015 	7.10373e-08 	0.294 	0.206 	0.5 	-0.13819 	
ZONE T = "t = 5.22578e-07 [s]" I = 10 SOLUTIONTIME = 5.2257812500000E-07
0.001 	1.15773e-07 	0.294 	0.206 	0.5 	-0.1332 	
0.00105556 	1.15773e-07 	0.294 	0.206 	0.5 	-0.133755 	
0.00111111 	1.15773e-07 	0.294 	0.206 	0.5 	-0.134309 	
0.00116667 	1.15773e-07 	0.294 	0.206 	0.5 	-0.134863 	
0.00122222 	1.15773e-07 	0.294 	0.206 	0.5 	-0.135418 	
0.00127778 	1.15773e-07 	0.294 	0.206 	0.5 	-0.135972 	
0.00133333 	1.15773e-07 	0.294 	0.206 	0.5 	-0.136527 	
0.00138889 	1.15773e-07 	0.294 	0.206 	0.5 	-0.137081 	
0.00144444 	1.15774e-07 	0.294 	0.206 	0.5 	-0.137635 	
0.0015 	7.10375e-08 	0.294 	0.206 	0.5 	-0.13819 	
ZONE T = "t = 7.78867e-07 [s]" I = 10 SOLUTIONTIME = 7.7886718750000E-07
0.001 	1.15773e-07 	0.294 	0.206 	0.5 	-0.1332 	
0.00105556 	1.15773e-07 	0.294 	0.206 	0.5 	-0.133755 	
0.00111111 	1.15773e-07 	0.294 	0.206 	0.5 	-0.134309 	
0.00116667 	1.15773e-07 	0.294 	0.206 	0.5 	-0.134863 	
0.00122222 	1.15773e-07 	0.294 	0.206 	0.5 	-0.135418 	
0.00127778 	1.15773e-07 	0.294 	0.206 	0.5 	-0.135972 	
0.00133333 	1.15773e-07 	0.294 	0.206 	0.5 	-0.136527 	
0.00138889 	1.15773e-07 	0.294 	0.206 	0.5 	-0.137081 	
0.00144444 	1.15774e-07 	0.294 	0.206 	0.5 	-0.137635 	
0.0015 	7.10373e-08 	0.294 	0.206 	0.5 	-0.13819 	
ZONE T = "t = 1.1633e-06 [s]" I = 10 SOLUTIONTIME = 1.1633007812500E-06
0.001 	1.15774e-07 	0.294 	0.206 	0.5 	-0.1332 	
0.00105556 	1.15773e-07 	0.294 	0.206 	0.5 	-0.133755 	
0.00111111 	1.15773e-07 	0.294 	0.206 	0.5 	-0.134309 	
0.00116667 	1.15773e-07 	0.294 	0.206 	0.5 	-0.134863 	
0.00122222 	1.15773e-07 	0.294 	0.206 	0.5 	-0.135418 	
0.00127778 	1.15773e-07 	0.294 	0.206 	0.5 	-0.135972 	
0.00133333 	1.15773e-07 	0.294 	0.206 	0.5 	-0.136527 	
0.00138889 	1.15773e-07 	0.294 	0.206 	0.5 	-0.137081 	
0.00144444 	1.15774e-07 	0.294 	0.206 	0.5 	-0.137635 	
0.0015 	7.10374e-08 	0.294 	0.206 	0.5 	-0.13819 	
ZONE T = "t = 1.73995e-06 [s]" I = 10 SOLUTIONTIME = 1.7399511718750E-06
0.001 	1.15774e-07 	0.294 	0.206 	0.5 	-0.1332 	
0.00105556 	1.15773e-07 	0.294 	0.206 	0.5 	-0.133755 	
0.00111111 	1.15773e-07 	0.294 	0.206 	0.5 	-0.134309 	
0.00116667 	1.15773e-07 	0.294 	0.206 	0.5 	-0.134863 	
0.00122222 	1.15773e-07 	0.294 	0.206 	0.5 	-0.135418 	
0.00127778 	1.15773e-07 	0.294 	0.206 	0.5 	-0.135972 	
0.00133333 	1.15773e-07 	0.294 	0.206 	0.5 	-0.136527 	
0.00138889 	1.15773e-07 	0.294 	0.206 	0.5 	-0.137081 	
0.00144444 	1.15774e-07 	0.294 	0.206 	0.5 	-0.137635 	
0.0015 	7.10373e-08 	0.294 	0.206 	0.5 	-0.13819 	
ZONE T = "t = 2.60493e-06 [s]" I = 10 SOLUTIONTIME = 2.6049267578125E-06
0.001 	1.15774e-07 	0.294 	0.206 	0.5 	-0.1332 	
0.00105556 	1.15773e-07 	0.294 	0.206 	0.5 	-0.133755 	
0.00111111 	1.15773e-07 	0.294 	0.206 	0.5 	-0.134309 	
0.00116667 	1.15773e-07 	0.294 	0.206 	0.5 	-0.134863 	
0.00122222 	1.15773e-07 	0.294 	0.206 	0.5 	-0.135418 	
0.00127778 	1.15773e-07 	0.294 	0.206 	0.5 	-0.135972 	
0.00133333 	1.15773e-07 	0.294 	0.206 	0.5 	-0.136527 	
0.00138889 	1.15773e-07 	0.294 	0.206 	0.5 	-0.137081 	
0.00144444 	1.15774e-07 	0.294 	0.206 	0.5 	-0.137635 	
0.0015 	7.10373e-08 	0.294 	0.206 	0.5 	-0.13819 	
ZONE T = "t = 3.90239e-06 [s]" I = 10 SOLUTIONTIME = 3.9023901367188E-06
0.001 	1.15774e-07 	0.294 	0.206 	0.5 	-0.1332 	
0.00105556 	1.15773e-07 	0.294 	0.206 	0.5 	-0.133755 	
0.00111111 	1.15773e-07 	0.294 	0.206 	0.5 	-0.134309 	
0.00116667 	1.15773e-07 	0.294 	0.206 	0.5 	-0.134863 	
0.00122222 	1.15773e-07 	0.294 	0.206 	0.5 	-0.135418 	
0.00127778 	1.15773e-07 	0.294 	0.206 	0.5 	-0.135972 	
0.00133333 	1.15773e-07 	0.294 	0.206 	0.5 	-0.136527 	
0.00138889 	1.15773e-07 	0.294 	0.206 	0.5 	-0.137081 	
0.00144444 	1.15774e-07 	0.294 	0.206 	0.5 	-0.137635 	
0.0015 	7.10373e-08 	0.294 	0.206 	0.5 	-0.13819 	
ZONE T = "t = 5.84859e-06 [s]" I = 10 SOLUTIONTIME = 5.8485852050781E-06
0.001 	1.15774e-07 	0.294 	0.206 	0.5 	-0.1332 	
0.00105556 	1.15773e-07 	0.294 	0.206 	0.5 	-0.133755 	
0.00111111 	1.15773e-07 	0.294 	0.206 	0.5 	-0.134309 	
0.00116667 	1.15773e-07 	0.294 	0.206 	0.5 	-0.134863 	
0.00122222 	1.15773e-07 	0.294 	0.206 	0.5 	-0.135418 	
0.00127778 	1.15773e-07 	0.294 	0.206 	0.5 	-0.135972 	
0.00133333 	1.15773e-07 	0.294 	0.206 	0.5 	-0.136527 	
0.00138889 	1.15773e-07 	0.294 	0.206 	0.5 	-0.137081 	
0.00144444 	1.15775e-07 	0.294 	0.206 	0.5 	-0.137635 	
0.0015 	7.10372e-08 	0.294 	0.206 	0.5 	-0.13819 	
ZONE T = "t = 8.76788e-06 [s]" I = 10 SOLUTIONTIME = 8.7678778076172E-06
0.001 	1.15774e-07 	0.294 	0.206 	0.5 	-0.1332 	
0.00105556 	1.15773e-07 	0.294 	0.206 	0.5 	-0.133755 	
0.00111111 	1.15773e-07 	0.294 	0.206 	0.5 	-0.134309 	
0.00116667 	1.15773e-07 	0.294 	0.206 	0.5 	-0.134863 	
0.00122222 	1.15773e-07 	0.294 	0.206 	0.5 	-0.135418 	
0.00127778 	1.15773e-07 	0.294 	0.206 	0.5 	-0.135972 	
0.00133333 	1.15773e-07 	0.294 	0.206 	0.5 	-0.136527 	
0.00138889 	1.15773e-07 	0.294 	0.206 	0.5 	-0.137081 	
0.00144444 	1.15775e-07 	0.294 	0.206 	0.5 	-0.137635 	
0.0015 	7.10371e-08 	0.294 	0.206 	0.5 	-0.13819 	
ZONE T = "t = 1.31468e-05 [s]" I = 10 SOLUTIONTIME = 1.3146816711426E-05
0.001 	1.15774e-07 	0.294 	0.206 	0.5 	-0.1332 	
0.00105556 	1.15773e-07 	0.294 	0.206 	0.5 	-0.133755 	
0.00111111 	1.15773e-07 	0.294 	0.206 	0.5 	-0.134309 	
0.00116667 	1.15773e-07 	0.294 	0.206 	0.5 	-0.134863 	
0.00122222 	1.15773e-07 	0.294 	0.206 	0.5 	-0.135418 	
0.00127778 	1.15773e-07 	0.294 	0.206 	0.5 	-0.135972 	
0.00133333 	1.15773e-07 	0.294 	0.206 	0.5 	-0.136527 	
0.00138889 	1.15773e-07 	0.294 	0.206 	0.5 	-0.137081 	
0.00144444 	1.15776e-07 	0.294 	0.206 	0.5 	-0.137635 	
0.0015 	7.1037e-08 	0.294 	0.206 	0.5 	-0.13819 	
ZONE T = "t = 1.97152e-05 [s]" I = 10 SOLUTIONTIME = 1.9715225067139E-05
0.001 	1.15775e-07 	0.294 	0.206 	0.5 	-0.1332 	
0.00105556 	1.15773e-07 	0.294 	0.206 	0.5 	-0.133755 	
0.00111111 	1.15773e-07 	0.294 	0.206 	0.5 	-0.134309 	
0.00116667 	1.15773e-07 	0.294 	0.206 	0.5 	-0.134863 	
0.00122222 	1.15773e-07 	0.294 	0.206 	0.5 	-0.135418 	
0.00127778 	1.15773e-07 	0.294 	0.206 	0.5 	-0.135972 	
0.00133333 	1.15773e-07 	0.294 	0.206 	0.5 	-0.136527 	
0.00138889 	1.15773e-07 	0.294 	0.206 	0.5 	-0.137081 	
0.00144444 	1.15777e-07 	0.294 	0.206 	0.5 	-0.137635 	
0.0015 	7.10368e-08 	0.294 	0.206 	0.5 	-0.13819 	
ZONE T = "t = 2.95678e-05 [s]" I = 10 SOLUTIONTIME = 2.9567837600708E-05
0.001 	1.15775e-07 	0.294 	0.206 	0.5 	-0.1332 	
0.00105556 	1.15773e-07 	0.294 	0.206 	0.5 	-0.133755 	
0.00111111 	1.15773e-07 	0.294 	0.206 	0.5 	-0.134309 	
0.00116667 	1.15773e-07 	0.294 	0.206 	0.5 	-0.134863 	
0.00122222 	1.15773e-07 	0.294 	0.206 	0.5 	-0.135418 	
0.00127778 	1.15773e-07 	0.294 	0.206 	0.5 	-0.135972 	
0.00133333 	1.15773e-07 	0.294 	0.206 	0.5 	-0.136527 	
0.00138889 	1.15773e-07 	0.294 	0.206 	0.5 	-0.137081 	
0.00144444 	1.15779e-07 	0.294 	0.206 	0.5 	-0.137635 	
0.0015 	7.10365e-08 	0.294 	0.206 	0.5 	-0.13819 	
ZONE T = "t = 4.43468e-05 [s]" I = 10 SOLUTIONTIME = 4.4346756401062E-05
0.001 	1.15776e-07 	0.294 	0.206 	0.5 	-0.1332 	
0.00105556 	1.15773e-07 	0.294 	0.206 	0.5 	-0.133755 	
0.00111111 	1.15773e-07 	0.294 	0.206 	0.5 	-0.134309 	
0.00116667 	1.15773e-07 	0.294 	0.206 	0.5 	-0.134863 	
0.00122222 	1.15773e-07 	0.294 	0.206 	0.5 	-0.135418 	
0.00127778 	1.15773e-07 	0.294 	0.206 	0.5 	-0.135972 	
0.00133333 	1.15773e-07 	0.294 	0.206 	0.5 	-0.136527 	
0.00138889 	1.15773e-07 	0.294 	0.206 	0.5 	-0.137081 	
0.00144444 	1.15782e-07 	0.294 	0.206 	0.5 	-0.137635 	
0.0015 	7.10361e-08 	0.294 	0.206 	0.5 	-0.13819 	
ZONE T = "t = 6.65151e-05 [s]" I = 10 SOLUTIONTIME = 6.6515134601593E-05
0.001 	1.15778e-07 	0.294 	0.206 	0.5 	-0.1332 	
0.00105556 	1.15773e-07 	0.294 	0.206 	0.5 	-0.133755 	
0.00111111 	1.15773e-07 	0.294 	0.206 	0.5 	-0.134309 	
0.00116667 	1.15773e-07 	0.294 	0.206 	0.5 	-0.134863 	
0.00122222 	1.15773e-07 	0.294 	0.206 	0.5 	-0.135418 	
0.00127778 	1.15773e-07 	0.294 	0.206 	0.5 	-0.135972 	
0.00133333 	1.15773e-07 	0.294 	0.206 	0.5 	-0.136527 	
0.00138889 	1.15773e-07 	0.294 	0.206 	0.5 	-0.137081 	
0.00144444 	1.15786e-07 	0.294 	0.206 	0.5 	-0.137635 	
0.0015 	7.10354e-08 	0.294 	0.206 	0.5 	-0.13819 	
ZONE T = "t = 9.97677e-05 [s]" I = 10 SOLUTIONTIME = 9.9767701902390E-05
0.001 	1.1578e-07 	0.294 	0.206 	0.5 	-0.1332 	
0.00105556 	1.15773e-07 	0.294 	0.206 	0.5 	-0.133755 	
0.00111111 	1.15773e-07 	0.294 	0.206 	0.5 	-0.134309 	
0.00116667 	1.15773e-07 	0.294 	0.206 	0.5 	-0.134863 	
0.00122222 	1.15773e-07 	0.294 	0.206 	0.5 	-0.135418 	
0.00127778 	1.15773e-07 	0.294 	0.206 	0.5 	-0.135972 	
0.00133333 	1.15773e-07 	0.294 	0.206 	0.5 	-0.136527 	
0.00138889 	1.15773e-07 	0.294 	0.206 	0.5 	-0.137081 	
0.00144444 	1.15792e-07 	0.294 	0.206 	0.5 	-0.137635 	
0.0015 	7.10344e-08 	0.294 	0.206 	0.5 	-0.13819 	
ZONE T = "t = 0.000149647 [s]" I = 10 SOLUTIONTIME = 1.4964655285358E-04
0.001 	1.15783e-07 	0.294 	0.206 	0.5 	-0.1332 	
0.00105556 	1.15773e-07 	0.294 	0.206 	0.5 	-0.133755 	
0.00111111 	1.15773e-07 	0.294 	0.206 	0.5 	-0.134309 	
0.00116667 	1.15773e-07 	0.294 	0.206 	0.5 	-0.134863 	
0.00122222 	1.15773e-07 	0.294 	0.206 	0.5 	-0.135418 	
0.00127778 	1.15773e-07 	0.294 	0.206 	0.5 	-0.135972 	
0.00133333 	1.15773e-07 	0.294 	0.206 	0.5 	-0.136527 	
0.00138889 	1.15773e-07 	0.294 	0.206 	0.5 	-0.137081 	
0.00144444 	1.15801e-07 	0.294 	0.206 	0.5 	-0.137635 	
0.0015 	7.10329e-08 	0.294 	0.206 	0.5 	-0.13819 	
ZONE T = "t = 0.000224465 [s]" I = 10 SOLUTIONTIME = 2.2446482928038E-04
0.001 	1.15789e-07 	0.294 	0.206 	0.5 	-0.1332 	
0.00105556 	1.15773e-07 	0.294 	0.206 	0.5 	-0.133755 	
0.00111111 	1.15773e-07 	0.294 	0.206 	0.5 	-0.134309 	
0.00116667 	1.15773e-07 	0.294 	0.206 	0.5 	-0.134863 	
0.00122222 	1.15773e-07 	0.294 	0.206 	0.5 	-0.135418 	
0.00127778 	1.15773e-07 	0.294 	0.206 	0.5 	-0.135972 	
0.00133333 	1.15773e-07 	0.294 	0.206 	0.5 	-0.136527 	
0.00138889 	1.15773e-07 	0.294 	0.206 	0.5 	-0.137081 	
0.00144444 	1.15815e-07 	0.294 	0.206 	0.5 	-0.137635 	
0.0015 	7.10306e-08 	0.294 	0.206 	0.5 	-0.13819 	
ZONE T = "t = 0.000336692 [s]" I = 10 SOLUTIONTIME = 3.3669224392056E-04
0.001 	1.15796e-07 	0.294 	0.206 	0.5 	-0.1332 	
0.00105556 	1.15773e-07 	0.294 	0.206 	0.5 	-0.133755 	
0.00111111 	1.15773e-07 	0.294 	0.206 	0.5 	-0.134309 	
0.00116667 	1.15773e-07 	0.294 	0.206 	0.5 	-0.134863 	
0.00122222 	1.15773e-07 	0.294 	0.206 	0.5 	-0.135418 	
0.00127778 	1.15773e-07 	0.294 	0.206 	0.5 	-0.135972 	
0.00133333 	1.15773e-07 	0.294 	0.206 	0.5 	-0.136527 	
0.00138889 	1.15773e-07 	0.294 	0.206 	0.5 	-0.137081 	
0.00144444 	1.15835e-07 	0.294 	0.206 	0.5 	-0.137635 	
0.0015 	7.10272e-08 	0.294 	0.206 	0.5 	-0.13819 	
ZONE T = "t = 0.000505033 [s]" I = 10 SOLUTIONTIME = 5.0503336588085E-04
0.001 	1.15807e-07 	0.294 	0.206 	0.5 	-0.1332 	
0.00105556 	1.15773e-07 	0.294 	0.206 	0.5 	-0.133755 	
0.00111111 	1.15773e-07 	0.294 	0.206 	0.5 	-0.134309 	
0.00116667 	1.15773e-07 	0.294 	0.206 	0.5 	-0.134863 	
0.00122222 	1.15773e-07 	0.294 	0.206 	0.5 	-0.135418 	
0.00127778 	1.15773e-07 	0.294 	0.206 	0.5 	-0.135972 	
0.00133333 	1.15773e-07 	0.294 	0.206 	0.5 	-0.136527 	
0.00138889 	1.15773e-07 	0.294 	0.206 	0.5 	-0.137081 	
0.00144444 	1.15866e-07 	0.294 	0.206 	0.5 	-0.137635 	
0.0015 	7.10221e-08 	0.293999 	0.206001 	0.5 	-0.13819 	
ZONE T = "t = 0.000757545 [s]" I = 10 SOLUTIONTIME = 7.5754504882127E-04
0.001 	1.15824e-07 	0.294 	0.206 	0.5 	-0.1332 	
0.00105556 	1.15773e-07 	0.294 	0.206 	0.5 	-0.133755 	
0.00111111 	1.15773e-07 	0.294 	0.206 	0.5 	-0.134309 	
0.00116667 	1.15773e-07 	0.294 	0.206 	0.5 	-0.134863 	
0.00122222 	1.15773e-07 	0.294 	0.206 	0.5 	-0.135418 	
0.00127778 	1.15773e-07 	0.294 	0.206 	0.5 	-0.135972 	
0.00133333 	1.15773e-07 	0.294 	0.206 	0.5 	-0.136527 	
0.00138889 	1.15773e-07 	0.294 	0.206 	0.5 	-0.137081 	
0.00144444 	1.15913e-07 	0.294 	0.206 	0.5 	-0.137635 	
0.0015 	7.10145e-08 	0.293999 	0.206001 	0.5 	-0.13819 	
ZONE T = "t = 0.00113631 [s]" I = 10 SOLUTIONTIME = 1.1363125732319E-03
0.001 	1.15849e-07 	0.294001 	0.205999 	0.5 	-0.1332 	
0.00105556 	1.15773e-07 	0.294 	0.206 	0.5 	-0.133755 	
0.00111111 	1.15773e-07 	0.294 	0.206 	0.5 	-0.134309 	
0.00116667 	1.15773e-07 	0.294 	0.206 	0.5 	-0.134863 	
0.00122222 	1.15773e-07 	0.294 	0.206 	0.5 	-0.135418 	
0.00127778 	1.15773e-07 	0.294 	0.206 	0.5 	-0.135972 	
0.00133333 	1.15773e-07 	0.294 	0.206 	0.5 	-0.136527 	
0.00138889 	1.15773e-07 	0.294 	0.206 	0.5 	-0.137081 	
0.00144444 	1.15982e-07 	0.294 	0.206 	0.5 	-0.137635 	
0.0015 	7.10031e-08 	0.293998 	0.206002 	0.5 	-0.13819 	
ZONE T = "t = 0.00170446 [s]" I = 10 SOLUTIONTIME = 1.7044638598479E-03
0.001 	1.15887e-07 	0.294001 	0.205999 	0.5 	-0.1332 	
0.00105556 	1.15773e-07 	0.294 	0.206 	0.5 	-0.133755 	
0.00111111 	1.15773e-07 	0.294 	0.206 	0.5 	-0.134309 	
0.00116667 	1.15773e-07 	0.294 	0.206 	0.5 	-0.134863 	
0.00122222 	1.15773e-07 	0.294 	0.206 	0.5 	-0.135418 	
0.00127778 	1.15773e-07 	0.294 	0.206 	0.5 	-0.135972 	
0.00133333 	1.15773e-07 	0.294 	0.206 	0.5 	-0.136526 	
0.00138889 	1.15774e-07 	0.294 	0.206 	0.5 	-0.137081 	
0.00144444 	1.16086e-07 	0.294 	0.206 	0.5 	-0.137635 	
0.0015 	7.09861e-08 	0.293998 	0.206002 	0.5 	-0.13819 	
ZONE T = "t = 0.00255669 [s]" I = 10 SOLUTIONTIME = 2.5566907897718E-03
0.001 	1.15944e-07 	0.294001 	0.205999 	0.5 	-0.1332 	
0.00105556 	1.15773e-07 	0.294 	0.206 	0.5 	-0.133754 	
0.00111111 	1.15772e-07 	0.294 	0.206 	0.5 	-0.134309 	
0.00116667 	1.15772e-07 	0.294 	0.206 	0.5 	-0.134863 	
0.00122222 	1.15772e-07 	0.294 	0.206 	0.5 	-0.135418 	
0.00127778 	1.15772e-07 	0.294 	0.206 	0.5 	-0.135972 	
0.00133333 	1.15772e-07 	0.294 	0.206 	0.5 	-0.136526 	
0.00138889 	1.15774e-07 	0.294 	0.206 	0.5 	-0.137081 	
0.00144444 	1.1624e-07 	0.294 	0.206 	0.5 	-0.137635 	
0.0015 	7.09606e-08 	0.293997 	0.206003 	0.5 	-0.13819 	
ZONE T = "t = 0.00383503 [s]" I = 10 SOLUTIONTIME = 3.8350311846577E-03
0.001 	1.16027e-07 	0.294002 	0.205998 	0.5 	-0.1332 	
0.00105556 	1.15773e-07 	0.294 	0.206 	0.5 	-0.133754 	
0.00111111 	1.15772e-07 	0.294 	0.206 	0.5 	-0.134309 	
0.00116667 	1.15772e-07 	0.294 	0.206 	0.5 	-0.134863 	
0.00122222 	1.15772e-07 	0.294 	0.206 	0.5 	-0.135418 	
0.00127778 	1.15772e-07 	0.294 	0.206 	0.5 	-0.135972 	
0.00133333 	1.15772e-07 	0.294 	0.206 	0.5 	-0.136526 	
0.00138889 	1.15776e-07 	0.294 	0.206 	0.5 	-0.137081 	
0.00144444 	1.16471e-07 	0.294 	0.206 	0.5 	-0.137635 	
0.0015 	7.09226e-08 	0.293995 	0.206005 	0.5 	-0.13819 	
ZONE T = "t = 0.00575254 [s]" I = 10 SOLUTIONTIME = 5.7525417769865E-03
0.001 	1.16152e-07 	0.294003 	0.205997 	0.5 	-0.1332 	
0.00105556 	1.15775e-07 	0.294 	0.206 	0.5 	-0.133754 	
0.00111111 	1.15771e-07 	0.294 	0.206 	0.5 	-0.134309 	
0.00116667 	1.15771e-07 	0.294 	0.206 	0.5 	-0.134863 	
0.00122222 	1.15771e-07 	0.294 	0.206 	0.5 	-0.135417 	
0.00127778 	1.15771e-07 	0.294 	0.206 	0.5 	-0.135972 	
0.00133333 	1.15771e-07 	0.294 	0.206 	0.5 	-0.136526 	
0.00138889 	1.15781e-07 	0.294 	0.206 	0.5 	-0.137081 	
0.00144444 	1.16812e-07 	0.294 	0.206 	0.5 	-0.137635 	
0.0015 	7.08661e-08 	0.293992 	0.206008 	0.5 	-0.13819 	
ZONE T = "t = 0.00862881 [s]" I = 10 SOLUTIONTIME = 8.6288076654798E-03
0.001 	1.16335e-07 	0.294004 	0.205996 	0.5 	-0.133199 	
0.00105556 	1.15778e-07 	0.294 	0.206 	0.5 	-0.133754 	
0.00111111 	1.1577e-07 	0.294 	0.206 	0.5 	-0.134308 	
0.00116667 	1.1577e-07 	0.294 	0.206 	0.5 	-0.134863 	
0.00122222 	1.1577e-07 	0.294 	0.206 	0.5 	-0.135417 	
0.00127778 	1.1577e-07 	0.294 	0.206 	0.5 	-0.135972 	
0.00133333 	1.1577e-07 	0.294 	0.206 	0.5 	-0.136526 	
0.00138889 	1.15792e-07 	0.294 	0.206 	0.5 	-0.13708 	
0.00144444 	1.17316e-07 	0.294 	0.206 	0.5 	-0.137635 	
0.0015 	7.07824e-08 	0.293989 	0.206011 	0.5 	-0.13819 	
ZONE T = "t = 0.0129432 [s]" I = 10 SOLUTIONTIME = 1.2943206498220E-02
0.001 	1.16603e-07 	0.294006 	0.205994 	0.5 	-0.133199 	
0.00105556 	1.15786e-07 	0.294 	0.206 	0.5 	-0.133754 	
0.00111111 	1.15768e-07 	0.294 	0.206 	0.5 	-0.134308 	
0.00116667 	1.15768e-07 	0.294 	0.206 	0.5 	-0.134862 	
0.00122222 	1.15768e-07 	0.294 	0.206 	0.5 	-0.135417 	
0.00127778 	1.15768e-07 	0.294 	0.206 	0.5 	-0.135971 	
0.00133333 	1.15769e-07 	0.294 	0.206 	0.5 	-0.136526 	
0.00138889 	1.15816e-07 	0.294 	0.206 	0.5 	-0.13708 	
0.00144444 	1.18054e-07 	0.294 	0.206 	0.5 	-0.137634 	
0.0015 	7.06591e-08 	0.293983 	0.206017 	0.5 	-0.13819 	
ZONE T = "t = 0.0194148 [s]" I = 10 SOLUTIONTIME = 1.9414804747330E-02
0.001 	1.16991e-07 	0.294009 	0.205991 	0.5 	-0.133198 	
0.00105556 	1.15804e-07 	0.294 	0.206 	0.5 	-0.133753 	
0.00111111 	1.15766e-07 	0.294 	0.206 	0.5 	-0.134308 	
0.00116667 	1.15765e-07 	0.294 	0.206 	0.5 	-0.134862 	
0.00122222 	1.15765e-07 	0.294 	0.206 	0.5 	-0.135416 	
0.00127778 	1.15765e-07 	0.294 	0.206 	0.5 	-0.135971 	
0.00133333 	1.15768e-07 	0.294 	0.206 	0.5 	-0.136525 	
0.00138889 	1.1587e-07 	0.294 	0.206 	0.5 	-0.137079 	
0.00144444 	1.19121e-07 	0.293999 	0.206001 	0.5 	-0.137634 	
0.0015 	7.04791e-08 	0.293975 	0.206025 	0.5 	-0.13819 	
ZONE T = "t = 0.0291222 [s]" I = 10 SOLUTIONTIME = 2.9122202120994E-02
0.001 	1.17541e-07 	0.294013 	0.205987 	0.5 	-0.133197 	
0.00105556 	1.15844e-07 	0.294001 	0.205999 	0.5 	-0.133752 	
0.00111111 	1.15764e-07 	0.294 	0.206 	0.5 	-0.134307 	
0.00116667 	1.15761e-07 	0.294 	0.206 	0.5 	-0.134861 	
0.00122222 	1.15761e-07 	0.294 	0.206 	0.5 	-0.135416 	
0.00127778 	1.15762e-07 	0.294 	0.206 	0.5 	-0.13597 	
0.00133333 	1.1577e-07 	0.294 	0.206 	0.5 	-0.136524 	
0.00138889 	1.15986e-07 	0.294 	0.206 	0.5 	-0.137079 	
0.00144444 	1.20638e-07 	0.293998 	0.206002 	0.5 	-0.137633 	
0.0015 	7.02198e-08 	0.293963 	0.206037 	0.5 	-0.138191 	
ZONE T = "t = 0.0436833 [s]" I = 10 SOLUTIONTIME = 4.3683298181491E-02
0.001 	1.18304e-07 	0.29402 	0.20598 	0.5 	-0.133195 	
0.00105556 	1.15928e-07 	0.294001 	0.205999 	0.5 	-0.133751 	
0.00111111 	1.15765e-07 	0.294 	0.206 	0.5 	-0.134306 	
0.00116667 	1.15756e-07 	0.294 	0.206 	0.5 	-0.13486 	
0.00122222 	1.15756e-07 	0.294 	0.206 	0.5 	-0.135414 	
0.00127778 	1.15757e-07 	0.294 	0.206 	0.5 	-0.135969 	
0.00133333 	1.15781e-07 	0.294 	0.206 	0.5 	-0.136523 	
0.00138889 	1.16226e-07 	0.294 	0.206 	0.5 	-0.137077 	
0.00144444 	1.22743e-07 	0.293996 	0.206004 	0.5 	-0.137632 	
0.0015 	6.98532e-08 	0.293946 	0.206054 	0.5 	-0.138191 	
ZONE T = "t = 0.0655249 [s]" I = 10 SOLUTIONTIME = 6.5524942272237E-02
0.001 	1.19327e-07 	0.294028 	0.205972 	0.5 	-0.133193 	
0.00105556 	1.16097e-07 	0.294003 	0.205997 	0.5 	-0.13375 	
0.00111111 	1.15774e-07 	0.294 	0.206 	0.5 	-0.134304 	
0.00116667 	1.15749e-07 	0.294 	0.206 	0.5 	-0.134859 	
0.00122222 	1.15747e-07 	0.294 	0.206 	0.5 	-0.135413 	
0.00127778 	1.15752e-07 	0.294 	0.206 	0.5 	-0.135967 	
0.00133333 	1.15821e-07 	0.294 	0.206 	0.5 	-0.136521 	
0.00138889 	1.16703e-07 	0.293999 	0.206001 	0.5 	-0.137076 	
0.00144444 	1.25567e-07 	0.293993 	0.206007 	0.5 	-0.137631 	
0.0015 	6.93482e-08 	0.293922 	0.206078 	0.5 	-0.138192 	
ZONE T = "t = 0.0982874 [s]" I = 10 SOLUTIONTIME = 9.8287408408356E-02
0.001 	1.20643e-07 	0.294041 	0.205959 	0.5 	-0.13319 	
0.00105556 	1.16416e-07 	0.294006 	0.205994 	0.5 	-0.133748 	
0.00111111 	1.15811e-07 	0.294001 	0.205999 	0.5 	-0.134302 	
0.00116667 	1.15742e-07 	0.294 	0.206 	0.5 	-0.134856 	
0.00122222 	1.15737e-07 	0.294 	0.206 	0.5 	-0.135411 	
0.00127778 	1.15755e-07 	0.294 	0.206 	0.5 	-0.135965 	
0.00133333 	1.15942e-07 	0.294 	0.206 	0.5 	-0.136519 	
0.00138889 	1.17596e-07 	0.293998 	0.206002 	0.5 	-0.137073 	
0.00144444 	1.29183e-07 	0.293985 	0.206015 	0.5 	-0.137629 	
0.0015 	6.86773e-08 	0.293888 	0.206112 	0.5 	-0.138192 	
ZONE T = "t = 0.147431 [s]" I = 10 SOLUTIONTIME = 1.4743110761253E-01
0.001 	1.22251e-07 	0.294058 	0.205942 	0.5 	-0.133186 	
0.00105556 	1.16977e-07 	0.294011 	0.205989 	0.5 	-0.133744 	
0.00111111 	1.15915e-07 	0.294002 	0.205998 	0.5 	-0.134299 	
0.00116667 	1.15745e-07 	0.294 	0.206 	0.5 	-0.134853 	
0.00122222 	1.15729e-07 	0.294 	0.206 	0.5 	-0.135408 	
0.00127778 	1.15791e-07 	0.294 	0.206 	0.5 	-0.135962 	
0.00133333 	1.16256e-07 	0.293999 	0.206001 	0.5 	-0.136516 	
0.00138889 	1.1915e-07 	0.293995 	0.206005 	0.5 	-0.13707 	
0.00144444 	1.33546e-07 	0.293971 	0.206029 	0.5 	-0.137627 	
0.0015 	6.78277e-08 	0.293842 	0.206158 	0.5 	-0.138193 	
ZONE T = "t = 0.221147 [s]" I = 10 SOLUTIONTIME = 2.2114665641880E-01
0.001 	1.24115e-07 	0.294081 	0.205919 	0.5 	-0.13318 	
0.00105556 	1.17882e-07 	0.29402 	0.20598 	0.5 	-0.133739 	
0.00111111 	1.16165e-07 	0.294004 	0.205996 	0.5 	-0.134295 	
0.00116667 	1.15788e-07 	0.294001 	0.205999 	0.5 	-0.134849 	
0.00122222 	1.15749e-07 	0.294 	0.206 	0.5 	-0.135403 	
0.00127778 	1.15938e-07 	0.294 	0.206 	0.5 	-0.135957 	
0.00133333 	1.16971e-07 	0.293998 	0.206002 	0.5 	-0.136511 	
0.00138889 	1.21618e-07 	0.293989 	0.206011 	0.5 	-0.137066 	
0.00144444 	1.38441e-07 	0.293946 	0.206054 	0.5 	-0.137624 	
0.0015 	6.68166e-08 	0.293781 	0.206219 	0.5 	-0.138194 	
ZONE T = "t = 0.33172 [s]" I = 10 SOLUTIONTIME = 3.3171997962820E-01
0.001 	1.26185e-07 	0.294111 	0.205889 	0.5 	-0.133172 	
0.00105556 	1.19218e-07 	0.294035 	0.205965 	0.5 	-0.133733 	
0.00111111 	1.16685e-07 	0.29401 	0.20599 	0.5 	-0.134289 	
0.00116667 	1.15954e-07 	0.294002 	0.205998 	0.5 	-0.134844 	
0.00122222 	1.15883e-07 	0.294 	0.206 	0.5 	-0.135398 	
0.00127778 	1.16371e-07 	0.293999 	0.206001 	0.5 	-0.135951 	
0.00133333 	1.18389e-07 	0.293993 	0.206007 	0.5 	-0.136506 	
0.00138889 	1.25144e-07 	0.293974 	0.206026 	0.5 	-0.137061 	
0.00144444 	1.435e-07 	0.293905 	0.206095 	0.5 	-0.137622 	
0.0015 	6.57025e-08 	0.293704 	0.206296 	0.5 	-0.138195 	
ZONE T = "t = 0.49758 [s]" I = 10 SOLUTIONTIME = 4.9757996444230E-01
0.001 	1.28447e-07 	0.294152 	0.205848 	0.5 	-0.133162 	
0.00105556 	1.21036e-07 	0.29406 	0.20594 	0.5 	-0.133724 	
0.00111111 	1.17644e-07 	0.294021 	0.205979 	0.5 	-0.134281 	
0.00116667 	1.16429e-07 	0.294006 	0.205994 	0.5 	-0.134836 	
0.00122222 	1.16352e-07 	0.294 	0.206 	0.5 	-0.13539 	
0.00127778 	1.17406e-07 	0.293995 	0.206005 	0.5 	-0.135944 	
0.00133333 	1.20821e-07 	0.293982 	0.206018 	0.5 	-0.136499 	
0.00138889 	1.29632e-07 	0.293944 	0.206056 	0.5 	-0.137056 	
0.00144444 	1.48318e-07 	0.293843 	0.206157 	0.5 	-0.137619 	
0.0015 	6.45838e-08 	0.293606 	0.206394 	0.5 	-0.138195 	
ZONE T = "t = 0.74637 [s]" I = 10 SOLUTIONTIME = 7.4636994166345E-01
0.001 	1.30976e-07 	0.294209 	0.205791 	0.5 	-0.133149 	
0.00105556 	1.23384e-07 	0.294098 	0.205902 	0.5 	-0.133712 	
0.00111111 	1.19258e-07 	0.294042 	0.205958 	0.5 	-0.134271 	
0.00116667 	1.17554e-07 	0.294015 	0.205985 	0.5 	-0.134827 	