TITLE = "Solution on Domain BulkDomain1D_0"
VARIABLES = "x [m]"  
"Vel_axial(0)" 	"MF_sp(Li+)" 	"MF_sp(K+)" 	"MF_sp(Cl-)" 	"Volt(Electroly)" 	"Volt(AnodeVolt)" 	
"Current Source [A/m^2]" 	"Li+ flux [kmol/m^2/s]" 	"Electrolyte Current [A/m^2]" 	"Electrode Current [A/m^2]" 	
"Potential Drop Electrode-Electrolyte [V]" 	"Surf_0 Equilibrium Potential Drop Electrode-Electrolyte [V]" 	"Overpotential_0 [V]" 	"Surf_1 Equilibrium Potential Drop Electrode-Electrolyte [V]" 	"Overpotential_1 [V]" 	"Capacity discharged [mA-hr/g]" 	"Depth of discharge [-]" 	"Capacity remaining [mA-hr/g]" 	"Initial capacity [mA-hr/g]" 	"Porosity []" 	"Surface Area [] (area per area)" 	"Specific current (per particle area) [A/m^2]" 	"Control volume thickness [m]" 	
"Moles Li13Si4(S) [mol/m^2] (per electrode area)" 	"Moles Li7Si3(S) [mol/m^2] (per electrode area)" 	"Moles Li(i) [mol/m^2] (per electrode area)" 	"Moles V(i) [mol/m^2] (per electrode area)" 	

ZONE T = "t = 0 [s]" I = 10 SOLUTIONTIME = 0.0000000000000E+00
0 	6.85813e-10 	0.294 	0.206 	0.5 	-0.157224 	0 	
0 	0 	-8.03328 	-285.848 	
0 	0 	0 	0 	0 	
0 	0 	0 	0 	0.193548 	5.37634 	-3.00634 	5.55556e-05 	
0.000274247 	1.40975e-11 	1.50079e-12 	1.39474e-10 	
0.000111111 	-4.57391e-09 	0.294 	0.206 	0.5 	-0.157163 	3.0863e-08 	
0 	0 	-32.1422 	-261.691 	
0 	0 	0 	0 	0 	
0 	0 	0 	0 	0.193548 	10.7527 	-3.0082 	0.000111111 	
0.000548494 	2.8195e-11 	3.00159e-12 	2.78948e-10 	
0.000222222 	-9.83939e-09 	0.294 	0.206 	0.5 	-0.156981 	5.81536e-08 	
0 	0 	-64.3252 	-229.508 	
0 	0 	0 	0 	0 	
0 	0 	0 	0 	0.193548 	10.7527 	-3.01378 	0.000111111 	
0.000548494 	2.8195e-11 	3.00159e-12 	2.78948e-10 	
0.000333333 	-1.51145e-08 	0.294 	0.206 	0.5 	-0.156677 	8.18648e-08 	
0 	0 	-96.5891 	-197.244 	
0 	0 	0 	0 	0 	
0 	0 	0 	0 	0.193548 	10.7527 	-3.02311 	0.000111111 	
0.000548494 	2.8195e-11 	3.0016e-12 	2.78948e-10 	
0.000444444 	-2.04031e-08 	0.294 	0.206 	0.5 	-0.156251 	1.01986e-07 	
0 	0 	-128.973 	-164.861 	
0 	0 	0 	0 	0 	
0 	0 	0 	0 	0.193548 	10.7527 	-3.03621 	0.000111111 	
0.000548494 	2.8195e-11 	3.00162e-12 	2.78948e-10 	
0.000555556 	-2.57093e-08 	0.294 	0.206 	0.5 	-0.155703 	1.18501e-07 	
0 	0 	-161.522 	-132.312 	
0 	0 	0 	0 	0 	
0 	0 	0 	0 	0.193548 	10.7527 	-3.05314 	0.000111111 	
0.000548494 	2.8195e-11 	3.00163e-12 	2.78948e-10 	
0.000666667 	-3.10369e-08 	0.294 	0.206 	0.5 	-0.155031 	1.31388e-07 	
0 	0 	-194.281 	-99.5522 	
0 	0 	0 	0 	0 	
0 	0 	0 	0 	0.193548 	10.7527 	-3.07396 	0.000111111 	
0.000548494 	2.8195e-11 	3.00166e-12 	2.78948e-10 	
0.000777778 	-3.639e-08 	0.294 	0.206 	0.5 	-0.154235 	1.40623e-07 	
0 	0 	-227.293 	-66.5402 	
0 	0 	0 	0 	0 	
0 	0 	0 	0 	0.193548 	10.7527 	-3.09875 	0.000111111 	
0.000548494 	2.8195e-11 	3.00168e-12 	2.78948e-10 	
0.000888889 	-4.17728e-08 	0.294 	0.206 	0.5 	-0.153314 	1.46175e-07 	
0 	0 	-260.601 	-33.2321 	
0 	0 	0 	0 	0 	
0 	0 	0 	0 	0.193548 	10.7527 	-3.12759 	0.000111111 	
0.000548494 	2.8195e-11 	3.00171e-12 	2.78948e-10 	
0.001 	-4.36838e-08 	0.294 	0.206 	0.5 	-0.152267 	1.48008e-07 	
0 	0 	-285.831 	-8.24933 	
0 	0 	0 	0 	0 	
0 	0 	0 	0 	0.193548 	5.37634 	-3.1606 	5.55556e-05 	
0.000274247 	1.40975e-11 	1.50087e-12 	1.39474e-10 	
ZONE T = "t = 0 [s]" I = 10 SOLUTIONTIME = 0.0000000000000E+00
0 	6.85813e-10 	0.294 	0.206 	0.5 	-0.157224 	0 	
-16.1631 	-3.51033e-08 	-8.03328 	-285.848 	
0.157224 	0.116408 	0.0408162 	0 	0.157224 	
-3.45932e-10 	0.00359575 	207.654 	207.654 	0.193548 	5.37634 	-3.00634 	5.55556e-05 	
0.000274247 	1.40638e-11 	1.40638e-12 	1.39231e-10 	
0.000111111 	-4.57391e-09 	0.294 	0.206 	0.5 	-0.157163 	3.0863e-08 	
-32.3462 	-1.0535e-07 	-32.1422 	-261.691 	
0.157163 	0.116408 	0.0407556 	0 	0.157163 	
-3.46146e-10 	0.0071915 	207.654 	207.654 	0.193548 	10.7527 	-3.0082 	0.000111111 	
0.000548494 	2.81275e-11 	2.81275e-12 	2.78463e-10 	
0.000222222 	-9.83939e-09 	0.294 	0.206 	0.5 	-0.156981 	5.81536e-08 	
-32.4062 	-1.75734e-07 	-64.3252 	-229.508 	
0.156981 	0.116407 	0.0405736 	0 	0.156981 	
-3.46788e-10 	0.00719149 	207.654 	207.654 	0.193548 	10.7527 	-3.01378 	0.000111111 	
0.000548494 	2.81275e-11 	2.81275e-12 	2.78463e-10 	
0.000333333 	-1.51145e-08 	0.294 	0.206 	0.5 	-0.156677 	8.18648e-08 	
-32.5066 	-2.46335e-07 	-96.5891 	-197.244 	
0.156677 	0.116407 	0.04027 	0 	0.156677 	
-3.47861e-10 	0.00719149 	207.654 	207.654 	0.193548 	10.7527 	-3.02311 	0.000111111 	
0.000548494 	2.81275e-11 	2.81275e-12 	2.78463e-10 	
0.000444444 	-2.04031e-08 	0.294 	0.206 	0.5 	-0.156251 	1.01986e-07 	
-32.6475 	-3.17242e-07 	-128.973 	-164.861 	
0.156251 	0.116407 	0.0398445 	0 	0.156251 	
-3.49369e-10 	0.00719149 	207.654 	207.654 	0.193548 	10.7527 	-3.03621 	0.000111111 	
0.000548494 	2.81275e-11 	2.81275e-12 	2.78463e-10 	
0.000555556 	-2.57093e-08 	0.294 	0.206 	0.5 	-0.155703 	1.18501e-07 	
-32.8295 	-3.88565e-07 	-161.522 	-132.312 	
0.155703 	0.116407 	0.0392965 	0 	0.155703 	
-3.51317e-10 	0.00719149 	207.654 	207.654 	0.193548 	10.7527 	-3.05314 	0.000111111 	
0.000548494 	2.81275e-11 	2.81275e-12 	2.78463e-10 	
0.000666667 	-3.10369e-08 	0.294 	0.206 	0.5 	-0.155031 	1.31388e-07 	
-33.0534 	-4.60392e-07 	-194.281 	-99.5522 	
0.155031 	0.116406 	0.0386253 	0 	0.155031 	
-3.53713e-10 	0.00719149 	207.654 	207.654 	0.193548 	10.7527 	-3.07396 	0.000111111 	
0.000548494 	2.81275e-11 	2.81275e-12 	2.78463e-10 	
0.000777778 	-3.639e-08 	0.294 	0.206 	0.5 	-0.154235 	1.40623e-07 	
-33.3199 	-5.32819e-07 	-227.293 	-66.5402 	
0.154236 	0.116406 	0.0378299 	0 	0.154236 	
-3.56565e-10 	0.00719149 	207.654 	207.654 	0.193548 	10.7527 	-3.09875 	0.000111111 	
0.000548494 	2.81275e-11 	2.81275e-12 	2.78463e-10 	
0.000888889 	-4.17728e-08 	0.294 	0.206 	0.5 	-0.153314 	1.46175e-07 	
-33.63 	-6.0594e-07 	-260.601 	-33.2321 	
0.153314 	0.116405 	0.0369095 	0 	0.153314 	
-3.59883e-10 	0.00719148 	207.654 	207.654 	0.193548 	10.7527 	-3.12759 	0.000111111 	
0.000548494 	2.81275e-11 	2.81275e-12 	2.78463e-10 	
0.001 	-4.36838e-08 	0.294 	0.206 	0.5 	-0.152267 	1.48008e-07 	
-16.9924 	-6.0594e-07 	-285.831 	-8.24933 	
0.152267 	0.116404 	0.0358628 	0 	0.152267 	
-3.63681e-10 	0.00359574 	207.654 	207.654 	0.193548 	5.37634 	-3.1606 	5.55556e-05 	
0.000274247 	1.40638e-11 	1.40638e-12 	1.39231e-10 	
ZONE T = "t = 1e-08 [s]" I = 10 SOLUTIONTIME = 1.0000000000000E-08
0 	-8.86445e-10 	0.294 	0.206 	0.5 	-0.157266 	0 	
-16.1631 	-3.51033e-08 	-8.07805 	-287.717 	
0.157224 	0.116408 	0.0408162 	0 	0.157224 	
-3.45932e-10 	0.00359575 	207.654 	207.654 	0.193548 	5.37634 	-3.00504 	5.55556e-05 	
0.000274247 	1.40975e-11 	1.50079e-12 	1.39474e-10 	
0.000111111 	-2.66041e-09 	0.294 	0.206 	0.5 	-0.157205 	3.1071e-08 	
-32.3462 	-1.0535e-07 	-32.3223 	-263.473 	
0.157163 	0.116408 	0.0407556 	0 	0.157163 	
-3.46146e-10 	0.0071915 	207.654 	207.654 	0.193548 	10.7527 	-3.0069 	0.000111111 	
0.000548494 	2.8195e-11 	3.00158e-12 	2.78948e-10 	
0.000222222 	-4.43849e-09 	0.294 	0.206 	0.5 	-0.157022 	5.85495e-08 	
-32.4062 	-1.75734e-07 	-64.6847 	-231.11 	
0.156981 	0.116407 	0.0405736 	0 	0.156981 	
-3.46788e-10 	0.00719149 	207.654 	207.654 	0.193548 	10.7527 	-3.01251 	0.000111111 	
0.000548494 	2.8195e-11 	3.00159e-12 	2.78948e-10 	
0.000333333 	-6.22196e-09 	0.294 	0.206 	0.5 	-0.156717 	8.24288e-08 	
-32.5066 	-2.46335e-07 	-97.1278 	-198.667 	
0.156677 	0.116407 	0.04027 	0 	0.156677 	
-3.47861e-10 	0.00719149 	207.654 	207.654 	0.193548 	10.7527 	-3.02189 	0.000111111 	
0.000548494 	2.8195e-11 	3.0016e-12 	2.78948e-10 	
0.000444444 	-8.01297e-09 	0.294 	0.206 	0.5 	-0.156289 	1.02698e-07 	
-32.6475 	-3.17242e-07 	-129.692 	-166.103 	
0.156251 	0.116407 	0.0398445 	0 	0.156251 	
-3.49369e-10 	0.00719149 	207.654 	207.654 	0.193548 	10.7527 	-3.03507 	0.000111111 	
0.000548494 	2.8195e-11 	3.00162e-12 	2.78948e-10 	
0.000555556 	-9.81404e-09 	0.294 	0.206 	0.5 	-0.155737 	1.1934e-07 	
-32.8295 	-3.88565e-07 	-162.419 	-133.376 	
0.155703 	0.116407 	0.0392965 	0 	0.155703 	
-3.51317e-10 	0.00719149 	207.654 	207.654 	0.193548 	10.7527 	-3.05209 	0.000111111 	
0.000548494 	2.8195e-11 	3.00163e-12 	2.78948e-10 	
0.000666667 	-1.16272e-08 	0.294 	0.206 	0.5 	-0.155062 	1.32337e-07 	
-33.0534 	-4.60392e-07 	-195.349 	-100.445 	
0.155031 	0.116406 	0.0386253 	0 	0.155031 	
-3.53713e-10 	0.00719149 	207.654 	207.654 	0.193548 	10.7527 	-3.07302 	0.000111111 	
0.000548494 	2.8195e-11 	3.00166e-12 	2.78948e-10 	
0.000777778 	-1.34547e-08 	0.294 	0.206 	0.5 	-0.154261 	1.41662e-07 	
-33.3199 	-5.32819e-07 	-228.527 	-67.2682 	
0.154236 	0.116406 	0.0378299 	0 	0.154236 	
-3.56565e-10 	0.00719149 	207.654 	207.654 	0.193548 	10.7527 	-3.09793 	0.000111111 	
0.000548494 	2.8195e-11 	3.00168e-12 	2.78948e-10 	
0.000888889 	-1.52996e-08 	0.294 	0.206 	0.5 	-0.153335 	1.47285e-07 	
-33.63 	-6.0594e-07 	-261.994 	-33.8012 	
0.153314 	0.116405 	0.0369095 	0 	0.153314 	
-3.59883e-10 	0.00719148 	207.654 	207.654 	0.193548 	10.7527 	-3.12693 	0.000111111 	
0.000548494 	2.8195e-11 	3.00171e-12 	2.78948e-10 	
0.001 	-1.62315e-08 	0.294 	0.206 	0.5 	-0.152282 	1.49173e-07 	
-16.9924 	-6.0594e-07 	-287.3 	-8.4949 	
0.152267 	0.116404 	0.0358628 	0 	0.152267 	
-3.63681e-10 	0.00359574 	207.654 	207.654 	0.193548 	5.37634 	-3.1601 	5.55556e-05 	
0.000274247 	1.40975e-11 	1.50087e-12 	1.39474e-10 	
ZONE T = "t = 2e-08 [s]" I = 10 SOLUTIONTIME = 2.0000000000000E-08
0 	-7.79143e-10 	0.294 	0.206 	0.5 	-0.156386 	0 	
-16.1561 	-3.5299e-08 	-7.09997 	-253.325 	
0.157266 	0.116408 	0.0408588 	0 	0.157266 	
-3.45782e-10 	0.00359575 	207.654 	207.654 	0.193548 	5.37634 	-2.64119 	5.55556e-05 	
0.000274247 	1.41299e-11 	1.59142e-12 	1.39708e-10 	
0.000111111 	-2.33888e-09 	0.294 	0.206 	0.5 	-0.156332 	2.73584e-08 	
-32.3323 	-1.05941e-07 	-28.4096 	-232.016 	
0.157205 	0.116408 	0.0407978 	0 	0.157205 	
-3.45997e-10 	0.0071915 	207.654 	207.654 	0.193548 	10.7527 	-2.64301 	0.000111111 	
0.000548494 	2.82598e-11 	3.18284e-12 	2.79415e-10 	
0.000222222 	-3.90188e-09 	0.294 	0.206 	0.5 	-0.156171 	5.15591e-08 	
-32.3926 	-1.76714e-07 	-56.8583 	-203.567 	
0.157022 	0.116407 	0.0406148 	0 	0.157022 	
-3.46642e-10 	0.00719149 	207.654 	207.654 	0.193548 	10.7527 	-2.64845 	0.000111111 	
0.000548494 	2.82598e-11 	3.18286e-12 	2.79415e-10 	
0.000333333 	-5.47099e-09 	0.294 	0.206 	0.5 	-0.155903 	7.25955e-08 	
-32.4935 	-2.47708e-07 	-85.3851 	-175.04 	
0.156717 	0.116407 	0.0403096 	0 	0.156717 	
-3.47721e-10 	0.00719149 	207.654 	207.654 	0.193548 	10.7527 	-2.65754 	0.000111111 	
0.000548494 	2.82598e-11 	3.18288e-12 	2.79415e-10 	
0.000444444 	-7.04616e-09 	0.294 	0.206 	0.5 	-0.155526 	9.04569e-08 	
-32.6351 	-3.19012e-07 	-114.03 	-146.396 	
0.156289 	0.116407 	0.0398817 	0 	0.156289 	
-3.49237e-10 	0.00719149 	207.654 	207.654 	0.193548 	10.7527 	-2.67031 	0.000111111 	
0.000548494 	2.82598e-11 	3.1829e-12 	2.79415e-10 	
0.000555556 	-8.63231e-09 	0.294 	0.206 	0.5 	-0.155042 	1.05128e-07 	
-32.8182 	-3.90715e-07 	-142.831 	-117.594 	
0.155737 	0.116407 	0.0393306 	0 	0.155737 	
-3.51196e-10 	0.00719149 	207.654 	207.654 	0.193548 	10.7527 	-2.6868 	0.000111111 	
0.000548494 	2.82598e-11 	3.18294e-12 	2.79415e-10 	
0.000666667 	-1.02304e-08 	0.294 	0.206 	0.5 	-0.154448 	1.16589e-07 	
-33.0432 	-4.6291e-07 	-171.83 	-88.595 	
0.155062 	0.116406 	0.0386557 	0 	0.155062 	
-3.53604e-10 	0.00719149 	207.654 	207.654 	0.193548 	10.7527 	-2.70705 	0.000111111 	
0.000548494 	2.82598e-11 	3.18298e-12 	2.79415e-10 	
0.000777778 	-1.18426e-08 	0.294 	0.206 	0.5 	-0.153744 	1.24816e-07 	
-33.3111 	-5.35691e-07 	-201.068 	-59.3575 	
0.154262 	0.116406 	0.037856 	0 	0.154262 	
-3.56471e-10 	0.00719149 	207.654 	207.654 	0.193548 	10.7527 	-2.73114 	0.000111111 	
0.000548494 	2.82598e-11 	3.18303e-12 	2.79415e-10 	
0.000888889 	-1.34707e-08 	0.294 	0.206 	0.5 	-0.152929 	1.2978e-07 	
-33.6229 	-6.09152e-07 	-230.586 	-29.8399 	
0.153336 	0.116405 	0.0369306 	0 	0.153336 	
-3.59807e-10 	0.00719148 	207.654 	207.654 	0.193548 	10.7527 	-2.75912 	0.000111111 	
0.000548494 	2.82598e-11 	3.18309e-12 	2.79415e-10 	
0.001 	-1.42943e-08 	0.294 	0.206 	0.5 	-0.152002 	1.31447e-07 	
-16.9898 	-6.09152e-07 	-252.922 	-7.50296 	
0.152283 	0.116404 	0.0358783 	0 	0.152283 	
-3.63625e-10 	0.00359574 	207.654 	207.654 	0.193548 	5.37634 	-2.7911 	5.55556e-05 	
0.000274247 	1.41299e-11 	1.59158e-12 	1.39707e-10 	
ZONE T = "t = 3e-08 [s]" I = 10 SOLUTIONTIME = 3.0000000000000E-08
0 	-6.78437e-10 	0.294 	0.206 	0.5 	-0.155554 	0 	
-14.1999 	-3.1025e-08 	-6.17809 	-220.797 	
0.156386 	0.112859 	0.0435273 	0 	0.156386 	
-6.49696e-10 	0.00359561 	207.654 	207.654 	0.193548 	5.37634 	-2.29825 	5.55556e-05 	
0.000274247 	1.41611e-11 	1.67844e-12 	1.39932e-10 	
0.000111111 	-2.0362e-09 	0.294 	0.206 	0.5 	-0.155508 	2.38466e-08 	
-28.4194 	-9.31176e-08 	-24.7216 	-202.254 	
0.156332 	0.112859 	0.0434737 	0 	0.156332 	
-6.5012e-10 	0.00719121 	207.654 	207.654 	0.193548 	10.7527 	-2.29997 	0.000111111 	
0.000548494 	2.83222e-11 	3.3569e-12 	2.79865e-10 	
0.000222222 	-3.39693e-09 	0.294 	0.206 	0.5 	-0.155368 	4.49452e-08 	
-28.4779 	-1.55338e-07 	-49.4801 	-177.495 	
0.156172 	0.112858 	0.043313 	0 	0.156172 	
-6.51392e-10 	0.00719121 	207.654 	207.654 	0.193548 	10.7527 	-2.30512 	0.000111111 	
0.000548494 	2.83222e-11 	3.35691e-12 	2.79865e-10 	
0.000333333 	-4.76282e-09 	0.294 	0.206 	0.5 	-0.155134 	6.32899e-08 	
-28.5757 	-2.17772e-07 	-74.3127 	-152.662 	
0.155903 	0.112858 	0.0430449 	0 	0.155903 	
-6.53518e-10 	0.00719121 	207.654 	207.654 	0.193548 	10.7527 	-2.31374 	0.000111111 	
0.000548494 	2.83222e-11 	3.35694e-12 	2.79865e-10 	
0.000444444 	-6.13586e-09 	0.294 	0.206 	0.5 	-0.154806 	7.88702e-08 	
-28.713 	-2.80507e-07 	-99.2565 	-127.719 	
0.155527 	0.112858 	0.042669 	0 	0.155527 	
-6.56503e-10 	0.00719121 	207.654 	207.654 	0.193548 	10.7527 	-2.32582 	0.000111111 	
0.000548494 	2.83222e-11 	3.35698e-12 	2.79865e-10 	
0.000555556 	-7.51781e-09 	0.294 	0.206 	0.5 	-0.154384 	9.16718e-08 	
-28.8903 	-3.43628e-07 	-124.349 	-102.626 	
0.155042 	0.112857 	0.0421848 	0 	0.155042 	
-6.60359e-10 	0.0071912 	207.654 	207.654 	0.193548 	10.7527 	-2.34141 	0.000111111 	
0.000548494 	2.83222e-11 	3.35703e-12 	2.79865e-10 	
0.000666667 	-8.91103e-09 	0.294 	0.206 	0.5 	-0.153867 	1.01676e-07 	
-29.1081 	-4.07225e-07 	-149.629 	-77.3466 	
0.154448 	0.112856 	0.0415917 	0 	0.154448 	
-6.65098e-10 	0.0071912 	207.654 	207.654 	0.193548 	10.7527 	-2.36056 	0.000111111 	
0.000548494 	2.83222e-11 	3.35709e-12 	2.79865e-10 	
0.000777778 	-1.03176e-08 	0.294 	0.206 	0.5 	-0.153254 	1.0886e-07 	
-29.3671 	-4.71389e-07 	-175.133 	-51.842 	
0.153744 	0.112855 	0.0408887 	0 	0.153744 	
-6.70736e-10 	0.00719119 	207.654 	207.654 	0.193548 	10.7527 	-2.38331 	0.000111111 	
0.000548494 	2.83222e-11 	3.35717e-12 	2.79865e-10 	
0.000888889 	-1.17403e-08 	0.294 	0.206 	0.5 	-0.152544 	1.13196e-07 	
-29.668 	-5.36209e-07 	-200.902 	-26.073 	
0.152929 	0.112854 	0.040075 	0 	0.152929 	
-6.77292e-10 	0.00719119 	207.654 	207.654 	0.193548 	10.7527 	-2.40972 	0.000111111 	
0.000548494 	2.83222e-11 	3.35725e-12 	2.79864e-10 	
0.001 	-1.24614e-08 	0.294 	0.206 	0.5 	-0.151736 	1.14654e-07 	
-15.0059 	-5.36209e-07 	-220.416 	-6.55878 	
0.152002 	0.112852 	0.0391494 	0 	0.152002 	
-6.8479e-10 	0.00359559 	207.654 	207.654 	0.193548 	5.37634 	-2.43987 	5.55556e-05 	
0.000274247 	1.41611e-11 	1.67868e-12 	1.39932e-10 	
ZONE T = "t = 4e-08 [s]" I = 10 SOLUTIONTIME = 4.0000000000000E-08
0 	-5.82946e-10 	0.294 	0.206 	0.5 	-0.154768 	0 	
-12.3562 	-2.69966e-08 	-5.30805 	-189.997 	
0.155554 	0.109642 	0.0459126 	0 	0.155554 	
-9.1415e-10 	0.00359548 	207.654 	207.654 	0.193548 	5.37634 	-1.9746 	5.55556e-05 	
0.000274247 	1.41911e-11 	1.76203e-12 	1.40149e-10 	
0.000111111 	-1.74928e-09 	0.294 	0.206 	0.5 	-0.154728 	2.0521e-08 	
-24.7308 	-8.10302e-08 	-21.2408 	-174.064 	
0.155508 	0.109642 	0.045866 	0 	0.155508 	
-9.14771e-10 	0.00719096 	207.654 	207.654 	0.193548 	10.7527 	-1.97618 	0.000111111 	
0.000548494 	2.83822e-11 	3.52408e-12 	2.80298e-10 	
0.000222222 	-2.91867e-09 	0.294 	0.206 	0.5 	-0.154607 	3.8681e-08 	
-24.7863 	-1.35185e-07 	-42.5157 	-152.789 	
0.155368 	0.109641 	0.0457263 	0 	0.155368 	
-9.16637e-10 	0.00719096 	207.654 	207.654 	0.193548 	10.7527 	-1.98095 	0.000111111 	
0.000548494 	2.83822e-11 	3.5241e-12 	2.80298e-10 	
0.000333333 	-4.09186e-09 	0.294 	0.206 	0.5 	-0.154407 	5.44742e-08 	
-24.8789 	-1.89542e-07 	-63.859 	-131.446 	
0.155134 	0.109641 	0.0454931 	0 	0.155134 	
-9.19753e-10 	0.00719096 	207.654 	207.654 	0.193548 	10.7527 	-1.98891 	0.000111111 	
0.000548494 	2.83822e-11 	3.52413e-12 	2.80298e-10 	
0.000444444 	-5.27233e-09 	0.294 	0.206 	0.5 	-0.154125 	6.78912e-08 	
-25.0088 	-2.44183e-07 	-85.3052 	-110 	
0.154806 	0.10964 	0.0451662 	0 	0.154806 	
-9.24129e-10 	0.00719096 	207.654 	207.654 	0.193548 	10.7527 	-2.00008 	0.000111111 	
0.000548494 	2.83822e-11 	3.52418e-12 	2.80297e-10 	
0.000555556 	-6.46108e-09 	0.294 	0.206 	0.5 	-0.153762 	7.89186e-08 	
-25.1765 	-2.9919e-07 	-106.889 	-88.4162 	
0.154384 	0.109639 	0.0447451 	0 	0.154384 	
-9.29779e-10 	0.00719095 	207.654 	207.654 	0.193548 	10.7527 	-2.01448 	0.000111111 	
0.000548494 	2.83822e-11 	3.52425e-12 	2.80297e-10 	
0.000666667 	-7.6603e-09 	0.294 	0.206 	0.5 	-0.153318 	8.75392e-08 	
-25.3823 	-3.54647e-07 	-128.645 	-66.6601 	
0.153867 	0.109638 	0.044229 	0 	0.153867 	
-9.36721e-10 	0.00719094 	207.654 	207.654 	0.193548 	10.7527 	-2.03215 	0.000111111 	
0.000548494 	2.83822e-11 	3.52433e-12 	2.80297e-10 	
0.000777778 	-8.87178e-09 	0.294 	0.206 	0.5 	-0.15279 	9.3732e-08 	
-25.6269 	-4.10639e-07 	-150.609 	-44.6961 	
0.153254 	0.109637 	0.0436174 	0 	0.153254 	
-9.44977e-10 	0.00719094 	207.654 	207.654 	0.193548 	10.7527 	-2.05315 	0.000111111 	
0.000548494 	2.83822e-11 	3.52442e-12 	2.80297e-10 	
0.000888889 	-1.00977e-08 	0.294 	0.206 	0.5 	-0.15218 	9.74717e-08 	
-25.9109 	-4.67251e-07 	-172.817 	-22.4882 	
0.152544 	0.109635 	0.0429091 	0 	0.152544 	
-9.54572e-10 	0.00719093 	207.654 	207.654 	0.193548 	10.7527 	-2.07751 	0.000111111 	
0.000548494 	2.83822e-11 	3.52453e-12 	2.80297e-10 	
0.001 	-1.07191e-08 	0.294 	0.206 	0.5 	-0.151485 	9.87294e-08 	
-13.1176 	-4.67251e-07 	-189.646 	-5.65941 	
0.151736 	0.109633 	0.0421032 	0 	0.151736 	
-9.65539e-10 	0.00359546 	207.654 	207.654 	0.193548 	5.37634 	-2.1053 	5.55556e-05 	
0.000274247 	1.41911e-11 	1.76233e-12 	1.40148e-10 	
ZONE T = "t = 5.5e-08 [s]" I = 10 SOLUTIONTIME = 5.5000000000000E-08
0 	-4.50329e-10 	0.294 	0.206 	0.5 	-0.153676 	0 	
-10.6161 	-2.31948e-08 	-4.10307 	-147.177 	
0.154768 	0.10671 	0.0480578 	0 	0.154768 	
-1.14136e-09 	0.00359538 	207.654 	207.654 	0.193548 	5.37634 	-1.52634 	5.55556e-05 	
0.000274247 	1.42336e-11 	1.8802e-12 	1.40456e-10 	
0.000111111 	-1.35195e-09 	0.294 	0.206 	0.5 	-0.153645 	1.58971e-08 	
-21.2493 	-6.96217e-08 	-16.4195 	-134.86 	
0.154728 	0.10671 	0.0480179 	0 	0.154728 	
-1.14217e-09 	0.00719075 	207.654 	207.654 	0.193548 	10.7527 	-1.52769 	0.000111111 	
0.000548494 	2.84672e-11 	3.76042e-12 	2.80911e-10 	
0.000222222 	-2.25629e-09 	0.294 	0.206 	0.5 	-0.153552 	2.9969e-08 	
-21.3006 	-1.16161e-07 	-32.868 	-118.412 	
0.154608 	0.10671 	0.0478979 	0 	0.154608 	
-1.14458e-09 	0.00719075 	207.654 	207.654 	0.193548 	10.7527 	-1.53173 	0.000111111 	
0.000548494 	2.84672e-11 	3.76044e-12 	2.80911e-10 	
0.000333333 	-3.16407e-09 	0.294 	0.206 	0.5 	-0.153397 	4.22109e-08 	
-21.3861 	-1.62886e-07 	-49.3744 	-101.906 	
0.154407 	0.106709 	0.0476977 	0 	0.154407 	
-1.14861e-09 	0.00719075 	207.654 	207.654 	0.193548 	10.7527 	-1.53847 	0.000111111 	
0.000548494 	2.84672e-11 	3.76049e-12 	2.80911e-10 	
0.000444444 	-4.07773e-09 	0.294 	0.206 	0.5 	-0.153179 	5.26147e-08 	
-21.5062 	-2.09875e-07 	-65.9679 	-85.312 	
0.154125 	0.106708 	0.0474171 	0 	0.154125 	
-1.15427e-09 	0.00719074 	207.654 	207.654 	0.193548 	10.7527 	-1.54793 	0.000111111 	
0.000548494 	2.84672e-11 	3.76055e-12 	2.80911e-10 	
0.000555556 	-4.99835e-09 	0.294 	0.206 	0.5 	-0.152898 	6.11691e-08 	
-21.6611 	-2.57201e-07 	-82.678 	-68.602 	
0.153762 	0.106707 	0.0470554 	0 	0.153762 	
-1.16158e-09 	0.00719073 	207.654 	207.654 	0.193548 	10.7527 	-1.56013 	0.000111111 	
0.000548494 	2.84672e-11 	3.76063e-12 	2.80911e-10 	
0.000666667 	-5.92799e-09 	0.294 	0.206 	0.5 	-0.152554 	6.78596e-08 	
-21.8511 	-3.04943e-07 	-99.534 	-51.7459 	
0.153318 	0.106705 	0.0466122 	0 	0.153318 	
-1.17056e-09 	0.00719073 	207.654 	207.654 	0.193548 	10.7527 	-1.5751 	0.000111111 	
0.000548494 	2.84672e-11 	3.76073e-12 	2.80911e-10 	
0.000777778 	-6.86778e-09 	0.294 	0.206 	0.5 	-0.152146 	7.26682e-08 	
-22.0769 	-3.53178e-07 	-116.566 	-34.7139 	
0.152791 	0.106704 	0.0460868 	0 	0.152791 	
-1.18123e-09 	0.00719072 	207.654 	207.654 	0.193548 	10.7527 	-1.59287 	0.000111111 	
0.000548494 	2.84672e-11 	3.76084e-12 	2.80911e-10 	
0.000888889 	-7.81936e-09 	0.294 	0.206 	0.5 	-0.151674 	7.55738e-08 	
-22.3388 	-4.01986e-07 	-133.804 	-17.4755 	
0.15218 	0.106702 	0.0454782 	0 	0.15218 	
-1.19363e-09 	0.0071907 	207.654 	207.654 	0.193548 	10.7527 	-1.61347 	0.000111111 	
0.000548494 	2.84672e-11 	3.76098e-12 	2.80911e-10 	
0.001 	-8.30175e-09 	0.294 	0.206 	0.5 	-0.151136 	7.65516e-08 	
-11.3188 	-4.01986e-07 	-146.88 	-4.40046 	
0.151485 	0.1067 	0.0447855 	0 	0.151485 	
-1.20779e-09 	0.00359535 	207.654 	207.654 	0.193548 	5.37634 	-1.63697 	5.55556e-05 	
0.000274247 	1.42336e-11 	1.88057e-12 	1.40455e-10 	
ZONE T = "t = 7.24022e-08 [s]" I = 10 SOLUTIONTIME = 7.2402181709653E-08
0 	-3.10525e-10 	0.294 	0.206 	0.5 	-0.152517 	0 	
-8.20614 	-1.79293e-08 	-2.82839 	-101.674 	
0.153676 	0.102802 	0.0508738 	0 	0.153676 	
-1.40481e-09 	0.00359525 	207.654 	207.654 	0.193548 	5.37634 	-1.05216 	5.55556e-05 	
0.000274247 	1.42798e-11 	2.00833e-12 	1.4079e-10 	
0.000111111 	-9.3211e-10 	0.294 	0.206 	0.5 	-0.152496 	1.09829e-08 	
-16.4267 	-5.38196e-08 	-11.319 	-93.1835 	
0.153645 	0.102802 	0.0508429 	0 	0.153645 	
-1.40585e-09 	0.00719051 	207.654 	207.654 	0.193548 	10.7527 	-1.05317 	0.000111111 	
0.000548494 	2.85596e-11 	4.01666e-12 	2.8158e-10 	
0.000222222 	-1.55529e-09 	0.294 	0.206 	0.5 	-0.152432 	2.07074e-08 	
-16.4702 	-8.98047e-08 	-22.6597 	-81.8427 	
0.153552 	0.102802 	0.0507504 	0 	0.153552 	
-1.40896e-09 	0.0071905 	207.654 	207.654 	0.193548 	10.7527 	-1.05621 	0.000111111 	
0.000548494 	2.85596e-11 	4.01669e-12 	2.81579e-10 	
0.000333333 	-2.18129e-09 	0.294 	0.206 	0.5 	-0.152325 	2.91701e-08 	
-16.5427 	-1.25948e-07 	-34.044 	-70.4584 	
0.153397 	0.102801 	0.0505959 	0 	0.153397 	
-1.41415e-09 	0.0071905 	207.654 	207.654 	0.193548 	10.7527 	-1.06127 	0.000111111 	
0.000548494 	2.85596e-11 	4.01674e-12 	2.81579e-10 	
0.000444444 	-2.81174e-09 	0.294 	0.206 	0.5 	-0.152175 	3.63649e-08 	
-16.6444 	-1.62314e-07 	-45.4937 	-59.0087 	
0.153179 	0.1028 	0.0503792 	0 	0.153179 	
-1.42145e-09 	0.00719049 	207.654 	207.654 	0.193548 	10.7527 	-1.06838 	0.000111111 	
0.000548494 	2.85596e-11 	4.01682e-12 	2.81579e-10 	
0.000555556 	-3.44788e-09 	0.294 	0.206 	0.5 	-0.151981 	4.22832e-08 	
-16.7756 	-1.98967e-07 	-57.0309 	-47.4715 	
0.152898 	0.102798 	0.0501 	0 	0.152898 	
-1.43086e-09 	0.00719048 	207.654 	207.654 	0.193548 	10.7527 	-1.07754 	0.000111111 	
0.000548494 	2.85596e-11 	4.01691e-12 	2.81579e-10 	
0.000666667 	-4.09049e-09 	0.294 	0.206 	0.5 	-0.151744 	4.69141e-08 	
-16.9365 	-2.35971e-07 	-68.6778 	-35.8247 	
0.152554 	0.102797 	0.0497577 	0 	0.152554 	
-1.44242e-09 	0.00719047 	207.654 	207.654 	0.193548 	10.7527 	-1.08878 	0.000111111 	
0.000548494 	2.85596e-11 	4.01702e-12 	2.81579e-10 	
0.000777778 	-4.74108e-09 	0.294 	0.206 	0.5 	-0.151463 	5.02442e-08 	
-17.1276 	-2.73392e-07 	-80.4568 	-24.0457 	
0.152147 	0.102795 	0.0493517 	0 	0.152147 	
-1.45616e-09 	0.00719046 	207.654 	207.654 	0.193548 	10.7527 	-1.10212 	0.000111111 	
0.000548494 	2.85596e-11 	4.01715e-12 	2.81579e-10 	
0.000888889 	-5.40062e-09 	0.294 	0.206 	0.5 	-0.151136 	5.22576e-08 	
-17.3492 	-3.11298e-07 	-92.3906 	-12.1118 	
0.151674 	0.102793 	0.0488814 	0 	0.151674 	
-1.47211e-09 	0.00719044 	207.654 	207.654 	0.193548 	10.7527 	-1.11758 	0.000111111 	
0.000548494 	2.85596e-11 	4.01731e-12 	2.81578e-10 	
0.001 	-5.73597e-09 	0.294 	0.206 	0.5 	-0.150765 	5.29357e-08 	
-8.80091 	-3.11298e-07 	-101.451 	-3.05165 	
0.151136 	0.10279 	0.0483459 	0 	0.151136 	
-1.49033e-09 	0.00359521 	207.654 	207.654 	0.193548 	5.37634 	-1.13521 	5.55556e-05 	
0.000274247 	1.42798e-11 	2.00874e-12 	1.40789e-10 	
ZONE T = "t = 9.05739e-08 [s]" I = 10 SOLUTIONTIME = 9.0573901676417E-08
0 	-1.77457e-10 	0.294 	0.206 	0.5 	-0.151414 	0 	
-5.65678 	-1.23593e-08 	-1.61752 	-58.252 	
0.152517 	0.0988431 	0.0536744 	0 	0.152517 	
-1.6155e-09 	0.00359515 	207.654 	207.654 	0.193548 	5.37634 	-0.601718 	5.55556e-05 	
0.000274247 	1.4325e-11 	2.1331e-12 	1.41117e-10 	
0.000111111 	-5.32748e-10 	0.294 	0.206 	0.5 	-0.151402 	6.29272e-09 	
-11.3244 	-3.71017e-08 	-6.47341 	-53.3961 	
0.152496 	0.0988429 	0.0536532 	0 	0.152496 	
-1.61674e-09 	0.00719031 	207.654 	207.654 	0.193548 	10.7527 	-0.602337 	0.000111111 	
0.000548494 	2.86499e-11 	4.26621e-12 	2.82233e-10 	
0.000222222 	-8.89245e-10 	0.294 	0.206 	0.5 	-0.151365 	1.18658e-08 	
-11.357 	-6.19153e-08 	-12.9601 	-46.9094 	
0.152432 	0.0988424 	0.0535896 	0 	0.152432 	
-1.62045e-09 	0.0071903 	207.654 	207.654 	0.193548 	10.7527 	-0.604191 	0.000111111 	
0.000548494 	2.86499e-11 	4.26624e-12 	2.82233e-10 	
0.000333333 	-1.24768e-09 	0.294 	0.206 	0.5 	-0.151304 	1.6717e-08 	
-11.4115 	-8.6848e-08 	-19.4734 	-40.3961 	
0.152325 	0.0988416 	0.0534833 	0 	0.152325 	
-1.62667e-09 	0.0071903 	207.654 	207.654 	0.193548 	10.7527 	-0.607287 	0.000111111 	
0.000548494 	2.86499e-11 	4.26629e-12 	2.82233e-10 	
0.000444444 	-1.60869e-09 	0.294 	0.206 	0.5 	-0.151218 	2.08427e-08 	
-11.4879 	-1.11948e-07 	-26.0268 	-33.8428 	
0.152175 	0.0988405 	0.0533343 	0 	0.152175 	
-1.63538e-09 	0.00719029 	207.654 	207.654 	0.193548 	10.7527 	-0.611632 	0.000111111 	
0.000548494 	2.86499e-11 	4.26637e-12 	2.82233e-10 	
0.000555556 	-1.97311e-09 	0.294 	0.206 	0.5 	-0.151107 	2.42376e-08 	
-11.5865 	-1.37262e-07 	-32.6336 	-27.236 	
0.151981 	0.0988391 	0.0531423 	0 	0.151981 	
-1.64663e-09 	0.00719028 	207.654 	207.654 	0.193548 	10.7527 	-0.617234 	0.000111111 	
0.000548494 	2.86499e-11 	4.26646e-12 	2.82232e-10 	
0.000666667 	-2.34146e-09 	0.294 	0.206 	0.5 	-0.150971 	2.68951e-08 	
-11.7073 	-1.62841e-07 	-39.3074 	-20.5621 	
0.151744 	0.0988373 	0.0529068 	0 	0.151744 	
-1.66044e-09 	0.00719027 	207.654 	207.654 	0.193548 	10.7527 	-0.624105 	0.000111111 	
0.000548494 	2.86499e-11 	4.26658e-12 	2.82232e-10 	
0.000777778 	-2.71465e-09 	0.294 	0.206 	0.5 	-0.15081 	2.8807e-08 	
-11.8507 	-1.88734e-07 	-46.0621 	-13.8074 	
0.151463 	0.0988352 	0.0526274 	0 	0.151463 	
-1.67685e-09 	0.00719025 	207.654 	207.654 	0.193548 	10.7527 	-0.632259 	0.000111111 	
0.000548494 	2.86499e-11 	4.26672e-12 	2.82232e-10 	
0.000888889 	-3.09364e-09 	0.294 	0.206 	0.5 	-0.150623 	2.99635e-08 	
-12.017 	-2.14989e-07 	-52.9114 	-6.95811 	
0.151136 	0.0988327 	0.0523036 	0 	0.151136 	
-1.6959e-09 	0.00719023 	207.654 	207.654 	0.193548 	10.7527 	-0.641716 	0.000111111 	
0.000548494 	2.86499e-11 	4.26689e-12 	2.82232e-10 	
0.001 	-3.28587e-09 	0.294 	0.206 	0.5 	-0.15041 	3.03532e-08 	
-6.10329 	-2.14989e-07 	-58.1155 	-1.75401 	
0.150765 	0.0988299 	0.0519348 	0 	0.150765 	
-1.71765e-09 	0.00359511 	207.654 	207.654 	0.193548 	5.37634 	-0.652493 	5.55556e-05 	
0.000274247 	1.43249e-11 	2.13354e-12 	1.41116e-10 	
ZONE T = "t = 1.09752e-07 [s]" I = 10 SOLUTIONTIME = 1.0975186409317E-07
0 	-5.03841e-11 	0.294 	0.206 	0.5 	-0.150353 	0 	
-3.23504 	-7.06814e-09 	-0.457235 	-16.4631 	
0.151414 	0.0952322 	0.0561816 	0 	0.151414 	
-1.74131e-09 	0.0035951 	207.654 	207.654 	0.193548 	5.37634 	-0.170092 	5.55556e-05 	
0.000274247 	1.43694e-11 	2.25555e-12 	1.41439e-10 	
0.000111111 	-1.51004e-10 	0.294 	0.206 	0.5 	-0.15035 	1.77843e-09 	
-6.47674 	-2.1219e-08 	-1.82988 	-15.0905 	
0.151402 	0.0952321 	0.0561695 	0 	0.151402 	
-1.74268e-09 	0.00719019 	207.654 	207.654 	0.193548 	10.7527 	-0.170266 	0.000111111 	
0.000548494 	2.87388e-11 	4.51111e-12 	2.82877e-10 	
0.000222222 	-2.51847e-10 	0.294 	0.206 	0.5 	-0.150339 	3.35344e-09 	
-6.49667 	-3.54133e-08 	-3.66348 	-13.2569 	
0.151365 	0.0952316 	0.0561333 	0 	0.151365 	
-1.74679e-09 	0.00719019 	207.654 	207.654 	0.193548 	10.7527 	-0.170784 	0.000111111 	
0.000548494 	2.87388e-11 	4.51114e-12 	2.82877e-10 	
0.000333333 	-3.53568e-10 	0.294 	0.206 	0.5 	-0.150322 	4.72441e-09 	
-6.52997 	-4.96804e-08 	-5.50455 	-11.4158 	
0.151304 	0.0952308 	0.0560729 	0 	0.151304 	
-1.75365e-09 	0.00719018 	207.654 	207.654 	0.193548 	10.7527 	-0.171655 	0.000111111 	
0.000548494 	2.87388e-11 	4.51119e-12 	2.82877e-10 	
0.000444444 	-4.55243e-10 	0.294 	0.206 	0.5 	-0.150298 	5.89029e-09 	
-6.57668 	-6.40496e-08 	-7.35687 	-9.56349 	
0.151218 	0.0952297 	0.0559882 	0 	0.151218 	
-1.76327e-09 	0.00719017 	207.654 	207.654 	0.193548 	10.7527 	-0.172877 	0.000111111 	
0.000548494 	2.87388e-11 	4.51126e-12 	2.82877e-10 	
0.000555556 	-5.58616e-10 	0.294 	0.206 	0.5 	-0.150267 	6.84963e-09 	
-6.63693 	-7.85504e-08 	-9.22422 	-7.69615 	
0.151107 	0.0952282 	0.0558789 	0 	0.151107 	
-1.77569e-09 	0.00719016 	207.654 	207.654 	0.193548 	10.7527 	-0.174449 	0.000111111 	
0.000548494 	2.87388e-11 	4.51136e-12 	2.82877e-10 	
0.000666667 	-6.62682e-10 	0.294 	0.206 	0.5 	-0.150228 	7.60054e-09 	
-6.7108 	-9.32127e-08 	-11.1104 	-5.81001 	
0.150971 	0.0952264 	0.0557449 	0 	0.150971 	
-1.79094e-09 	0.00719015 	207.654 	207.654 	0.193548 	10.7527 	-0.176373 	0.000111111 	
0.000548494 	2.87388e-11 	4.51147e-12 	2.82877e-10 	
0.000777778 	-7.68099e-10 	0.294 	0.206 	0.5 	-0.150183 	8.14074e-09 	
-6.79848 	-1.08066e-07 	-13.0191 	-3.90122 	
0.15081 	0.0952243 	0.0555858 	0 	0.15081 	
-1.80905e-09 	0.00719013 	207.654 	207.654 	0.193548 	10.7527 	-0.178661 	0.000111111 	
0.000548494 	2.87388e-11 	4.51161e-12 	2.82876e-10 	