TITLE = "Solution on Domain BulkDomain1D_0"
VARIABLES = "x [m]"  
"Vel_axial(0)" 	"MF_sp(Li+)" 	"MF_sp(K+)" 	"MF_sp(Cl-)" 	"Volt(Electroly)" 	"Volt(AnodeVolt)" 	
"Current Source [A/m^2]" 	"Li+ flux [kmol/m^2/s]" 	"Electrolyte Current [A/m^2]" 	"Electrode Current [A/m^2]" 	
"Potential Drop Electrode-Electrolyte [V]" 	"Surf_0 Equilibrium Potential Drop Electrode-Electrolyte [V]" 	"Overpotential_0 [V]" 	"Surf_1 Equilibrium Potential Drop Electrode-Electrolyte [V]" 	"Overpotential_1 [V]" 	"Surf_2 Equilibrium Potential Drop Electrode-Electrolyte [V]" 	"Overpotential_2 [V]" 	"Surf_3 Equilibrium Potential Drop Electrode-Electrolyte [V]" 	"Overpotential_3 [V]" 	"Capacity discharged [mA-hr/g]" 	"Depth of discharge [-]" 	"Capacity remaining [mA-hr/g]" 	"Initial capacity [mA-hr/g]" 	"Porosity []" 	"Surface Area [] (area per area)" 	"Specific current (per particle area) [A/m^2]" 	"Control volume thickness [m]" 	
"Moles Li13Si4(S) [mol/m^2] (per electrode area)" 	"Moles Li7Si3(S) [mol/m^2] (per electrode area)" 	"Moles Li12Si7(S) [mol/m^2] (per electrode area)" 	"Moles Si(S) [mol/m^2] (per electrode area)" 	

ZONE T = "t = 0 [s]" I = 10 SOLUTIONTIME = 0.0000000000000E+00
0 	1.08213e-08 	0.294 	0.206 	0.5 	-0.104122 	0 	
0 	0 	37.9346 	2071.3 	
0 	0 	0 	0 	0 	0 	0 	0 	0 	
0 	0 	0 	0 	0.193548 	2.68817 	28.2234 	5.55556e-05 	
0.000274247 	2.85939e-15 	0 	0 	
0.000111111 	3.28365e-08 	0.294 	0.206 	0.5 	-0.104408 	-2.25929e-07 	
0 	0 	153.045 	1956.19 	
0 	0 	0 	0 	0 	0 	0 	0 	0 	
0 	0 	0 	0 	0.193548 	5.37634 	28.7093 	0.000111111 	
0.000548494 	5.81723e-15 	0 	0 	
0.000222222 	5.59837e-08 	0.294 	0.206 	0.5 	-0.105278 	-4.34708e-07 	
0 	0 	311.363 	1797.87 	
0 	0 	0 	0 	0 	0 	0 	0 	0 	
0 	0 	0 	0 	0.193548 	5.37634 	30.1855 	0.000111111 	
0.000548494 	6.11634e-15 	0 	0 	
0.000333333 	8.10636e-08 	0.294 	0.206 	0.5 	-0.10676 	-6.25456e-07 	
0 	0 	480.426 	1628.81 	
0 	0 	0 	0 	0 	0 	0 	0 	0 	
0 	0 	0 	0 	0.193548 	5.37634 	32.7059 	0.000111111 	
0.000548494 	6.62704e-15 	0 	0 	
0.000444444 	1.08949e-07 	0.294 	0.206 	0.5 	-0.108907 	-7.96665e-07 	
0 	0 	666.097 	1443.14 	
0 	0 	0 	0 	0 	0 	0 	0 	0 	
0 	0 	0 	0 	0.193548 	5.37634 	36.364 	0.000111111 	
0.000548494 	7.36825e-15 	0 	0 	
0.000555556 	1.40617e-07 	0.294 	0.206 	0.5 	-0.111792 	-9.46152e-07 	
0 	0 	874.865 	1234.37 	
0 	0 	0 	0 	0 	0 	0 	0 	0 	
0 	0 	0 	0 	0.193548 	5.37634 	41.2977 	0.000111111 	
0.000548494 	8.36794e-15 	0 	0 	
0.000666667 	1.77194e-07 	0.294 	0.206 	0.5 	-0.115516 	-1.07097e-06 	
0 	0 	1114.1 	995.131 	
0 	0 	0 	0 	0 	0 	0 	0 	0 	
0 	0 	0 	0 	0.193548 	5.37634 	47.6987 	0.000111111 	
0.000548494 	9.66495e-15 	0 	0 	
0.000777778 	2.20003e-07 	0.294 	0.206 	0.5 	-0.120208 	-1.16729e-06 	
0 	0 	1392.39 	716.838 	
0 	0 	0 	0 	0 	0 	0 	0 	0 	
0 	0 	0 	0 	0.193548 	5.37634 	55.8262 	0.000111111 	
0.000548494 	1.13118e-14 	0 	0 	
0.000888889 	2.70637e-07 	0.294 	0.206 	0.5 	-0.126034 	-1.23027e-06 	
0 	0 	1719.96 	389.271 	
0 	0 	0 	0 	0 	0 	0 	0 	0 	
0 	0 	0 	0 	0.193548 	5.37634 	66.0288 	0.000111111 	
0.000548494 	1.33791e-14 	0 	0 	
0.001 	2.90121e-07 	0.294 	0.206 	0.5 	-0.1332 	-1.2538e-06 	
0 	0 	2003.35 	105.887 	
0 	0 	0 	0 	0 	0 	0 	0 	0 	
0 	0 	0 	0 	0.193548 	2.68817 	78.7801 	5.55556e-05 	
0.000274247 	7.98141e-15 	0 	0 	
ZONE T = "t = 0 [s]" I = 10 SOLUTIONTIME = 0.0000000000000E+00
0 	1.08213e-08 	0.294 	0.206 	0.5 	-0.104122 	0 	
75.8695 	1.65764e-07 	37.9346 	2071.3 	
0.104122 	0.0873875 	0.0167342 	0.180564 	-0.076442 	0.263889 	-0.159767 	0 	0.104122 	
1.6238e-09 	7.58746e-07 	736.227 	736.227 	0.193548 	2.68817 	28.2234 	5.55556e-05 	
0.000274247 	0 	0 	0 	
0.000111111 	3.28365e-08 	0.294 	0.206 	0.5 	-0.104408 	-2.25929e-07 	
154.351 	5.03e-07 	153.045 	1956.19 	
0.104408 	0.0873875 	0.0170205 	0.180564 	-0.0761557 	0.263889 	-0.159481 	0 	0.104408 	
1.65175e-09 	1.54364e-06 	736.227 	736.227 	0.193548 	5.37634 	28.7093 	0.000111111 	
0.000548494 	0 	0 	0 	
0.000222222 	5.59837e-08 	0.294 	0.206 	0.5 	-0.105278 	-4.34708e-07 	
162.288 	8.57576e-07 	311.363 	1797.87 	
0.105277 	0.0873875 	0.0178898 	0.180564 	-0.0752864 	0.263889 	-0.158612 	0 	0.105277 	
1.73668e-09 	1.62288e-06 	736.227 	736.227 	0.193548 	5.37634 	30.1855 	0.000111111 	
0.000548494 	0 	0 	0 	
0.000333333 	8.10636e-08 	0.294 	0.206 	0.5 	-0.10676 	-6.25456e-07 	
175.838 	1.24176e-06 	480.426 	1628.81 	
0.10676 	0.0873875 	0.0193721 	0.180564 	-0.0738041 	0.263889 	-0.157129 	0 	0.10676 	
1.88169e-09 	1.75828e-06 	736.227 	736.227 	0.193548 	5.37634 	32.7059 	0.000111111 	
0.000548494 	0 	0 	0 	
0.000444444 	1.08949e-07 	0.294 	0.206 	0.5 	-0.108907 	-7.96665e-07 	
195.505 	1.66891e-06 	666.097 	1443.14 	
0.108906 	0.0873875 	0.0215186 	0.180564 	-0.0716576 	0.263889 	-0.154983 	0 	0.108906 	
2.09215e-09 	1.95507e-06 	736.227 	736.227 	0.193548 	5.37634 	36.364 	0.000111111 	
0.000548494 	0 	0 	0 	
0.000555556 	1.40617e-07 	0.294 	0.206 	0.5 	-0.111792 	-9.46152e-07 	
222.031 	2.15402e-06 	874.865 	1234.37 	
0.111791 	0.0873875 	0.0244035 	0.180564 	-0.0687727 	0.263889 	-0.152098 	0 	0.111791 	
2.37601e-09 	2.2203e-06 	736.227 	736.227 	0.193548 	5.37634 	41.2977 	0.000111111 	
0.000548494 	0 	0 	0 	
0.000666667 	1.77194e-07 	0.294 	0.206 	0.5 	-0.115516 	-1.07097e-06 	
256.445 	2.71431e-06 	1114.1 	995.131 	
0.115514 	0.0873875 	0.028127 	0.180564 	-0.0650492 	0.263889 	-0.148374 	0 	0.115514 	
2.74428e-09 	2.56443e-06 	736.227 	736.227 	0.193548 	5.37634 	47.6987 	0.000111111 	
0.000548494 	0 	0 	0 	
0.000777778 	2.20003e-07 	0.294 	0.206 	0.5 	-0.120208 	-1.16729e-06 	
300.141 	3.37008e-06 	1392.39 	716.838 	
0.120207 	0.0873875 	0.0328191 	0.180564 	-0.0603571 	0.263889 	-0.143682 	0 	0.120207 	
3.21189e-09 	3.00145e-06 	736.227 	736.227 	0.193548 	5.37634 	55.8262 	0.000111111 	
0.000548494 	0 	0 	0 	
0.000888889 	2.70637e-07 	0.294 	0.206 	0.5 	-0.126034 	-1.23027e-06 	
354.994 	4.14569e-06 	1719.96 	389.271 	
0.126032 	0.0873875 	0.0386449 	0.180564 	-0.0545313 	0.263889 	-0.137857 	0 	0.126032 	
3.79888e-09 	3.54999e-06 	736.227 	736.227 	0.193548 	5.37634 	66.0288 	0.000111111 	
0.000548494 	0 	0 	0 	
0.001 	2.90121e-07 	0.294 	0.206 	0.5 	-0.1332 	-1.2538e-06 	
211.774 	4.14569e-06 	2003.35 	105.887 	
0.133199 	0.0873875 	0.0458115 	0.180564 	-0.0473646 	0.263889 	-0.13069 	0 	0.133199 	
4.53251e-09 	2.1177e-06 	736.227 	736.227 	0.193548 	2.68817 	78.7801 	5.55556e-05 	
0.000274247 	0 	0 	0 	
ZONE T = "t = 1e-08 [s]" I = 10 SOLUTIONTIME = 1.0000000000000E-08
0 	4.16436e-09 	0.294 	0.206 	0.5 	-0.104122 	0 	
75.8695 	1.65764e-07 	37.9346 	2071.3 	
0.104122 	0.0873875 	0.0167342 	0.180564 	-0.076442 	0.263889 	-0.159767 	0 	0.104122 	
1.6238e-09 	7.58746e-07 	736.227 	736.227 	0.193548 	2.68817 	28.2234 	5.55556e-05 	
0.000274247 	2.85938e-15 	0 	0 	
0.000111111 	1.26368e-08 	0.294 	0.206 	0.5 	-0.104408 	-2.25929e-07 	
154.351 	5.03e-07 	153.045 	1956.19 	
0.104408 	0.0873875 	0.0170205 	0.180564 	-0.0761557 	0.263889 	-0.159481 	0 	0.104408 	
1.65175e-09 	1.54364e-06 	736.227 	736.227 	0.193548 	5.37634 	28.7093 	0.000111111 	
0.000548494 	5.81722e-15 	0 	0 	
0.000222222 	2.15449e-08 	0.294 	0.206 	0.5 	-0.105278 	-4.34709e-07 	
162.288 	8.57576e-07 	311.364 	1797.87 	
0.105277 	0.0873875 	0.0178898 	0.180564 	-0.0752864 	0.263889 	-0.158612 	0 	0.105277 	
1.73668e-09 	1.62288e-06 	736.227 	736.227 	0.193548 	5.37634 	30.1854 	0.000111111 	
0.000548494 	6.11632e-15 	0 	0 	
0.000333333 	3.11966e-08 	0.294 	0.206 	0.5 	-0.10676 	-6.25456e-07 	
175.838 	1.24176e-06 	480.426 	1628.81 	
0.10676 	0.0873875 	0.0193721 	0.180564 	-0.0738041 	0.263889 	-0.157129 	0 	0.10676 	
1.88169e-09 	1.75828e-06 	736.227 	736.227 	0.193548 	5.37634 	32.7059 	0.000111111 	
0.000548494 	6.62703e-15 	0 	0 	
0.000444444 	4.19281e-08 	0.294 	0.206 	0.5 	-0.108907 	-7.96666e-07 	
195.505 	1.66891e-06 	666.098 	1443.14 	
0.108906 	0.0873875 	0.0215186 	0.180564 	-0.0716576 	0.263889 	-0.154983 	0 	0.108906 	
2.09215e-09 	1.95507e-06 	736.227 	736.227 	0.193548 	5.37634 	36.3639 	0.000111111 	
0.000548494 	7.36824e-15 	0 	0 	
0.000555556 	5.41151e-08 	0.294 	0.206 	0.5 	-0.111792 	-9.46153e-07 	
222.031 	2.15402e-06 	874.866 	1234.37 	
0.111791 	0.0873875 	0.0244035 	0.180564 	-0.0687727 	0.263889 	-0.152098 	0 	0.111791 	
2.37601e-09 	2.2203e-06 	736.227 	736.227 	0.193548 	5.37634 	41.2976 	0.000111111 	
0.000548494 	8.36793e-15 	0 	0 	
0.000666667 	6.81911e-08 	0.294 	0.206 	0.5 	-0.115516 	-1.07097e-06 	
256.445 	2.71431e-06 	1114.1 	995.131 	
0.115514 	0.0873875 	0.028127 	0.180564 	-0.0650492 	0.263889 	-0.148374 	0 	0.115514 	
2.74428e-09 	2.56443e-06 	736.227 	736.227 	0.193548 	5.37634 	47.6987 	0.000111111 	
0.000548494 	9.66494e-15 	0 	0 	
0.000777778 	8.46656e-08 	0.294 	0.206 	0.5 	-0.120208 	-1.16729e-06 	
300.141 	3.37008e-06 	1392.4 	716.838 	
0.120207 	0.0873875 	0.0328191 	0.180564 	-0.0603571 	0.263889 	-0.143682 	0 	0.120207 	
3.21189e-09 	3.00145e-06 	736.227 	736.227 	0.193548 	5.37634 	55.8262 	0.000111111 	
0.000548494 	1.13118e-14 	0 	0 	
0.000888889 	1.04151e-07 	0.294 	0.206 	0.5 	-0.126034 	-1.23027e-06 	
354.994 	4.14569e-06 	1719.96 	389.271 	
0.126032 	0.0873875 	0.0386449 	0.180564 	-0.0545313 	0.263889 	-0.137857 	0 	0.126032 	
3.79888e-09 	3.54999e-06 	736.227 	736.227 	0.193548 	5.37634 	66.0288 	0.000111111 	
0.000548494 	1.33791e-14 	0 	0 	
0.001 	1.15776e-07 	0.294 	0.206 	0.5 	-0.1332 	-1.2538e-06 	
211.774 	4.14569e-06 	2003.35 	105.887 	
0.133199 	0.0873875 	0.0458115 	0.180564 	-0.0473646 	0.263889 	-0.13069 	0 	0.133199 	
4.53251e-09 	2.1177e-06 	736.227 	736.227 	0.193548 	2.68817 	78.7801 	5.55556e-05 	
0.000274247 	7.98141e-15 	0 	0 	
ZONE T = "t = 2e-08 [s]" I = 10 SOLUTIONTIME = 2.0000000000000E-08
0 	4.16462e-09 	0.294 	0.206 	0.5 	-0.104122 	0 	
75.8693 	1.65764e-07 	37.9346 	2071.3 	
0.104122 	0.0873875 	0.0167341 	0.180564 	-0.0764421 	0.263889 	-0.159767 	0 	0.104122 	
1.6238e-09 	7.58689e-07 	736.227 	736.227 	0.193548 	2.68817 	28.2234 	5.55556e-05 	
0.000274247 	5.71876e-15 	0 	0 	
0.000111111 	1.26368e-08 	0.294 	0.206 	0.5 	-0.104408 	-2.25929e-07 	
154.351 	5.03001e-07 	153.045 	1956.19 	
0.104408 	0.0873875 	0.0170204 	0.180564 	-0.0761557 	0.263889 	-0.159481 	0 	0.104408 	
1.65175e-09 	1.54364e-06 	736.227 	736.227 	0.193548 	5.37634 	28.7093 	0.000111111 	
0.000548494 	1.16344e-14 	0 	0 	
0.000222222 	2.15447e-08 	0.294 	0.206 	0.5 	-0.105278 	-4.34709e-07 	
162.287 	8.57577e-07 	311.364 	1797.87 	
0.105277 	0.0873875 	0.0178898 	0.180564 	-0.0752864 	0.263889 	-0.158612 	0 	0.105277 	
1.73668e-09 	1.62288e-06 	736.227 	736.227 	0.193548 	5.37634 	30.1854 	0.000111111 	
0.000548494 	1.22326e-14 	0 	0 	
0.000333333 	3.11965e-08 	0.294 	0.206 	0.5 	-0.10676 	-6.25456e-07 	
175.838 	1.24176e-06 	480.426 	1628.81 	
0.10676 	0.0873875 	0.0193721 	0.180564 	-0.0738041 	0.263889 	-0.157129 	0 	0.10676 	
1.88169e-09 	1.75828e-06 	736.227 	736.227 	0.193548 	5.37634 	32.7059 	0.000111111 	
0.000548494 	1.32541e-14 	0 	0 	
0.000444444 	4.19273e-08 	0.294 	0.206 	0.5 	-0.108907 	-7.96666e-07 	
195.505 	1.66891e-06 	666.098 	1443.14 	
0.108906 	0.0873875 	0.0215185 	0.180564 	-0.0716577 	0.263889 	-0.154983 	0 	0.108906 	
2.09215e-09 	1.95507e-06 	736.227 	736.227 	0.193548 	5.37634 	36.3639 	0.000111111 	
0.000548494 	1.47365e-14 	0 	0 	
0.000555556 	5.41139e-08 	0.294 	0.206 	0.5 	-0.111792 	-9.46153e-07 	
222.03 	2.15402e-06 	874.866 	1234.37 	
0.111791 	0.0873875 	0.0244034 	0.180564 	-0.0687728 	0.263889 	-0.152098 	0 	0.111791 	
2.37601e-09 	2.2203e-06 	736.227 	736.227 	0.193548 	5.37634 	41.2976 	0.000111111 	
0.000548494 	1.67359e-14 	0 	0 	
0.000666667 	6.81897e-08 	0.294 	0.206 	0.5 	-0.115516 	-1.07097e-06 	
256.444 	2.71432e-06 	1114.1 	995.131 	
0.115514 	0.0873875 	0.028127 	0.180564 	-0.0650492 	0.263889 	-0.148374 	0 	0.115514 	
2.74428e-09 	2.56455e-06 	736.227 	736.227 	0.193548 	5.37634 	47.6987 	0.000111111 	
0.000548494 	1.93299e-14 	0 	0 	
0.000777778 	8.46644e-08 	0.294 	0.206 	0.5 	-0.120208 	-1.16729e-06 	
300.141 	3.37008e-06 	1392.4 	716.838 	
0.120207 	0.0873875 	0.0328191 	0.180564 	-0.0603571 	0.263889 	-0.143682 	0 	0.120207 	
3.21189e-09 	3.00145e-06 	736.227 	736.227 	0.193548 	5.37634 	55.8262 	0.000111111 	
0.000548494 	2.26236e-14 	0 	0 	
0.000888889 	1.04149e-07 	0.294 	0.206 	0.5 	-0.126034 	-1.23027e-06 	
354.994 	4.1457e-06 	1719.96 	389.271 	
0.126032 	0.0873875 	0.0386449 	0.180564 	-0.0545313 	0.263889 	-0.137857 	0 	0.126032 	
3.79888e-09 	3.54999e-06 	736.227 	736.227 	0.193548 	5.37634 	66.0288 	0.000111111 	
0.000548494 	2.67582e-14 	0 	0 	
0.001 	1.15772e-07 	0.294 	0.206 	0.5 	-0.1332 	-1.2538e-06 	
211.774 	4.1457e-06 	2003.35 	105.887 	
0.133199 	0.0873875 	0.0458115 	0.180564 	-0.0473647 	0.263889 	-0.13069 	0 	0.133199 	
4.53251e-09 	2.1177e-06 	736.227 	736.227 	0.193548 	2.68817 	78.7801 	5.55556e-05 	
0.000274247 	1.59628e-14 	0 	0 	
ZONE T = "t = 3e-08 [s]" I = 10 SOLUTIONTIME = 3.0000000000000E-08
0 	4.16404e-09 	0.294 	0.206 	0.5 	-0.104122 	0 	
75.8693 	1.65764e-07 	37.9346 	2071.3 	
0.104122 	0.0873875 	0.0167341 	0.180564 	-0.0764421 	0.263889 	-0.159767 	0 	0.104122 	
3.24759e-09 	1.51744e-06 	736.227 	736.227 	0.193548 	2.68817 	28.2234 	5.55556e-05 	
0.000274247 	8.57814e-15 	0 	0 	
0.000111111 	1.26359e-08 	0.294 	0.206 	0.5 	-0.104408 	-2.25929e-07 	
154.351 	5.03001e-07 	153.045 	1956.19 	
0.104408 	0.0873875 	0.0170204 	0.180564 	-0.0761557 	0.263889 	-0.159481 	0 	0.104408 	
3.3035e-09 	3.08694e-06 	736.227 	736.227 	0.193548 	5.37634 	28.7093 	0.000111111 	
0.000548494 	1.74516e-14 	0 	0 	
0.000222222 	2.15432e-08 	0.294 	0.206 	0.5 	-0.105278 	-4.34709e-07 	
162.287 	8.57577e-07 	311.364 	1797.87 	
0.105277 	0.0873875 	0.0178898 	0.180564 	-0.0752864 	0.263889 	-0.158612 	0 	0.105277 	
3.47336e-09 	3.24576e-06 	736.227 	736.227 	0.193548 	5.37634 	30.1854 	0.000111111 	
0.000548494 	1.8349e-14 	0 	0 	
0.000333333 	3.1195e-08 	0.294 	0.206 	0.5 	-0.10676 	-6.25456e-07 	
175.838 	1.24176e-06 	480.426 	1628.81 	
0.10676 	0.0873875 	0.0193721 	0.180564 	-0.0738041 	0.263889 	-0.157129 	0 	0.10676 	
3.76338e-09 	3.51667e-06 	736.227 	736.227 	0.193548 	5.37634 	32.7059 	0.000111111 	
0.000548494 	1.98811e-14 	0 	0 	
0.000444444 	4.19257e-08 	0.294 	0.206 	0.5 	-0.108907 	-7.96666e-07 	
195.505 	1.66891e-06 	666.098 	1443.14 	
0.108906 	0.0873875 	0.0215185 	0.180564 	-0.0716577 	0.263889 	-0.154983 	0 	0.108906 	
4.1843e-09 	3.91015e-06 	736.227 	736.227 	0.193548 	5.37634 	36.3639 	0.000111111 	
0.000548494 	2.21047e-14 	0 	0 	
0.000555556 	5.41132e-08 	0.294 	0.206 	0.5 	-0.111792 	-9.46153e-07 	
222.03 	2.15402e-06 	874.866 	1234.37 	
0.111791 	0.0873875 	0.0244034 	0.180564 	-0.0687728 	0.263889 	-0.152098 	0 	0.111791 	
4.75201e-09 	4.44049e-06 	736.227 	736.227 	0.193548 	5.37634 	41.2976 	0.000111111 	
0.000548494 	2.51038e-14 	0 	0 	
0.000666667 	6.81887e-08 	0.294 	0.206 	0.5 	-0.115516 	-1.07097e-06 	
256.444 	2.71432e-06 	1114.1 	995.131 	
0.115514 	0.0873875 	0.028127 	0.180564 	-0.0650492 	0.263889 	-0.148374 	0 	0.115514 	
5.48856e-09 	5.12887e-06 	736.227 	736.227 	0.193548 	5.37634 	47.6987 	0.000111111 	
0.000548494 	2.89948e-14 	0 	0 	
0.000777778 	8.46633e-08 	0.294 	0.206 	0.5 	-0.120208 	-1.16729e-06 	
300.141 	3.37008e-06 	1392.4 	716.838 	
0.120207 	0.0873875 	0.0328191 	0.180564 	-0.0603571 	0.263889 	-0.143682 	0 	0.120207 	
6.42377e-09 	6.00278e-06 	736.227 	736.227 	0.193548 	5.37634 	55.8262 	0.000111111 	
0.000548494 	3.39353e-14 	0 	0 	
0.000888889 	1.04149e-07 	0.294 	0.206 	0.5 	-0.126034 	-1.23027e-06 	
354.994 	4.1457e-06 	1719.96 	389.271 	
0.126032 	0.0873875 	0.0386449 	0.180564 	-0.0545313 	0.263889 	-0.137857 	0 	0.126032 	
7.59776e-09 	7.09986e-06 	736.227 	736.227 	0.193548 	5.37634 	66.0288 	0.000111111 	
0.000548494 	4.01373e-14 	0 	0 	
0.001 	1.15775e-07 	0.294 	0.206 	0.5 	-0.1332 	-1.2538e-06 	
211.774 	4.1457e-06 	2003.35 	105.887 	
0.133199 	0.0873875 	0.0458115 	0.180564 	-0.0473647 	0.263889 	-0.13069 	0 	0.133199 	
9.06502e-09 	4.23546e-06 	736.227 	736.227 	0.193548 	2.68817 	78.7801 	5.55556e-05 	
0.000274247 	2.39442e-14 	0 	0 	
ZONE T = "t = 4e-08 [s]" I = 10 SOLUTIONTIME = 4.0000000000000E-08
0 	4.16462e-09 	0.294 	0.206 	0.5 	-0.104122 	0 	
75.8693 	1.65764e-07 	37.9346 	2071.3 	
0.104122 	0.0873875 	0.0167341 	0.180564 	-0.0764421 	0.263889 	-0.159767 	0 	0.104122 	
4.87139e-09 	2.27612e-06 	736.227 	736.227 	0.193548 	2.68817 	28.2234 	5.55556e-05 	
0.000274247 	1.14375e-14 	0 	0 	
0.000111111 	1.26365e-08 	0.294 	0.206 	0.5 	-0.104408 	-2.25929e-07 	
154.351 	5.03001e-07 	153.045 	1956.19 	
0.104408 	0.0873875 	0.0170204 	0.180564 	-0.0761557 	0.263889 	-0.159481 	0 	0.104408 	
4.95525e-09 	4.63058e-06 	736.227 	736.227 	0.193548 	5.37634 	28.7093 	0.000111111 	
0.000548494 	2.32689e-14 	0 	0 	
0.000222222 	2.15449e-08 	0.294 	0.206 	0.5 	-0.105278 	-4.34709e-07 	
162.287 	8.57577e-07 	311.364 	1797.87 	
0.105277 	0.0873875 	0.0178898 	0.180564 	-0.0752864 	0.263889 	-0.158612 	0 	0.105277 	
5.21004e-09 	4.86864e-06 	736.227 	736.227 	0.193548 	5.37634 	30.1854 	0.000111111 	
0.000548494 	2.44653e-14 	0 	0 	
0.000333333 	3.11963e-08 	0.294 	0.206 	0.5 	-0.10676 	-6.25456e-07 	
175.838 	1.24176e-06 	480.426 	1628.81 	
0.10676 	0.0873875 	0.0193721 	0.180564 	-0.0738041 	0.263889 	-0.157129 	0 	0.10676 	
5.64507e-09 	5.27518e-06 	736.227 	736.227 	0.193548 	5.37634 	32.7059 	0.000111111 	
0.000548494 	2.65081e-14 	0 	0 	
0.000444444 	4.1927e-08 	0.294 	0.206 	0.5 	-0.108907 	-7.96666e-07 	
195.505 	1.66891e-06 	666.098 	1443.14 	
0.108906 	0.0873875 	0.0215185 	0.180564 	-0.0716577 	0.263889 	-0.154983 	0 	0.108906 	
6.27645e-09 	5.8651e-06 	736.227 	736.227 	0.193548 	5.37634 	36.3639 	0.000111111 	
0.000548494 	2.9473e-14 	0 	0 	
0.000555556 	5.41138e-08 	0.294 	0.206 	0.5 	-0.111792 	-9.46153e-07 	
222.03 	2.15402e-06 	874.866 	1234.37 	
0.111791 	0.0873875 	0.0244034 	0.180564 	-0.0687728 	0.263889 	-0.152098 	0 	0.111791 	
7.12802e-09 	6.66091e-06 	736.227 	736.227 	0.193548 	5.37634 	41.2976 	0.000111111 	
0.000548494 	3.34717e-14 	0 	0 	
0.000666667 	6.81905e-08 	0.294 	0.206 	0.5 	-0.115516 	-1.07097e-06 	
256.444 	2.71432e-06 	1114.1 	995.131 	
0.115514 	0.0873875 	0.028127 	0.180564 	-0.0650492 	0.263889 	-0.148374 	0 	0.115514 	
8.23284e-09 	7.69342e-06 	736.227 	736.227 	0.193548 	5.37634 	47.6987 	0.000111111 	
0.000548494 	3.86598e-14 	0 	0 	
0.000777778 	8.46645e-08 	0.294 	0.206 	0.5 	-0.120208 	-1.16729e-06 	
300.141 	3.37008e-06 	1392.4 	716.838 	
0.120207 	0.0873875 	0.0328191 	0.180564 	-0.0603571 	0.263889 	-0.143682 	0 	0.120207 	
9.63566e-09 	9.00422e-06 	736.227 	736.227 	0.193548 	5.37634 	55.8262 	0.000111111 	
0.000548494 	4.52471e-14 	0 	0 	
0.000888889 	1.0415e-07 	0.294 	0.206 	0.5 	-0.126034 	-1.23027e-06 	
354.994 	4.1457e-06 	1719.96 	389.271 	
0.126032 	0.0873875 	0.0386449 	0.180564 	-0.0545313 	0.263889 	-0.137857 	0 	0.126032 	
1.13966e-08 	1.06498e-05 	736.227 	736.227 	0.193548 	5.37634 	66.0288 	0.000111111 	
0.000548494 	5.35164e-14 	0 	0 	
0.001 	1.15773e-07 	0.294 	0.206 	0.5 	-0.1332 	-1.2538e-06 	
211.774 	4.1457e-06 	2003.35 	105.887 	
0.133199 	0.0873875 	0.0458115 	0.180564 	-0.0473647 	0.263889 	-0.13069 	0 	0.133199 	
1.35975e-08 	6.35328e-06 	736.227 	736.227 	0.193548 	2.68817 	78.7801 	5.55556e-05 	
0.000274247 	3.19256e-14 	0 	0 	
ZONE T = "t = 5.5e-08 [s]" I = 10 SOLUTIONTIME = 5.5000000000000E-08
0 	4.16446e-09 	0.294 	0.206 	0.5 	-0.104122 	0 	
75.8693 	1.65764e-07 	37.9346 	2071.3 	
0.104122 	0.0873875 	0.0167341 	0.180564 	-0.0764421 	0.263889 	-0.159767 	0 	0.104122 	
6.49518e-09 	3.03476e-06 	736.227 	736.227 	0.193548 	2.68817 	28.2234 	5.55556e-05 	
0.000274247 	1.57266e-14 	0 	0 	
0.000111111 	1.2637e-08 	0.294 	0.206 	0.5 	-0.104408 	-2.25929e-07 	
154.351 	5.03001e-07 	153.045 	1956.19 	
0.104408 	0.0873875 	0.0170204 	0.180564 	-0.0761557 	0.263889 	-0.159481 	0 	0.104408 	
6.607e-09 	6.1741e-06 	736.227 	736.227 	0.193548 	5.37634 	28.7093 	0.000111111 	
0.000548494 	3.19947e-14 	0 	0 	
0.000222222 	2.15445e-08 	0.294 	0.206 	0.5 	-0.105278 	-4.34709e-07 	
162.287 	8.57577e-07 	311.364 	1797.87 	
0.105277 	0.0873875 	0.0178898 	0.180564 	-0.0752864 	0.263889 	-0.158612 	0 	0.105277 	
6.94672e-09 	6.4914e-06 	736.227 	736.227 	0.193548 	5.37634 	30.1854 	0.000111111 	
0.000548494 	3.36398e-14 	0 	0 	
0.000333333 	3.11955e-08 	0.294 	0.206 	0.5 	-0.10676 	-6.25456e-07 	
175.838 	1.24176e-06 	480.426 	1628.81 	
0.10676 	0.0873875 	0.0193721 	0.180564 	-0.0738041 	0.263889 	-0.157129 	0 	0.10676 	
7.52676e-09 	7.03346e-06 	736.227 	736.227 	0.193548 	5.37634 	32.7059 	0.000111111 	
0.000548494 	3.64487e-14 	0 	0 	
0.000444444 	4.19268e-08 	0.294 	0.206 	0.5 	-0.108907 	-7.96666e-07 	
195.505 	1.66891e-06 	666.098 	1443.14 	
0.108906 	0.0873875 	0.0215185 	0.180564 	-0.0716577 	0.263889 	-0.154983 	0 	0.108906 	
8.3686e-09 	7.82018e-06 	736.227 	736.227 	0.193548 	5.37634 	36.3639 	0.000111111 	
0.000548494 	4.05253e-14 	0 	0 	
0.000555556 	5.41143e-08 	0.294 	0.206 	0.5 	-0.111792 	-9.46153e-07 	
222.03 	2.15402e-06 	874.866 	1234.37 	
0.111791 	0.0873875 	0.0244034 	0.180564 	-0.0687728 	0.263889 	-0.152098 	0 	0.111791 	
9.50402e-09 	8.88122e-06 	736.227 	736.227 	0.193548 	5.37634 	41.2976 	0.000111111 	
0.000548494 	4.60236e-14 	0 	0 	
0.000666667 	6.81904e-08 	0.294 	0.206 	0.5 	-0.115516 	-1.07097e-06 	
256.444 	2.71432e-06 	1114.1 	995.131 	
0.115514 	0.0873875 	0.028127 	0.180564 	-0.0650492 	0.263889 	-0.148374 	0 	0.115514 	
1.09771e-08 	1.02578e-05 	736.227 	736.227 	0.193548 	5.37634 	47.6987 	0.000111111 	
0.000548494 	5.31572e-14 	0 	0 	
0.000777778 	8.46654e-08 	0.294 	0.206 	0.5 	-0.120208 	-1.16729e-06 	
300.141 	3.37008e-06 	1392.4 	716.838 	
0.120207 	0.0873875 	0.0328191 	0.180564 	-0.0603571 	0.263889 	-0.143682 	0 	0.120207 	
1.28475e-08 	1.20057e-05 	736.227 	736.227 	0.193548 	5.37634 	55.8262 	0.000111111 	
0.000548494 	6.22148e-14 	0 	0 	
0.000888889 	1.04151e-07 	0.294 	0.206 	0.5 	-0.126034 	-1.23027e-06 	
354.994 	4.1457e-06 	1719.96 	389.271 	
0.126032 	0.0873875 	0.0386449 	0.180564 	-0.0545313 	0.263889 	-0.137857 	0 	0.126032 	
1.51955e-08 	1.41997e-05 	736.227 	736.227 	0.193548 	5.37634 	66.0288 	0.000111111 	
0.000548494 	7.3585e-14 	0 	0 	
0.001 	1.15775e-07 	0.294 	0.206 	0.5 	-0.1332 	-1.2538e-06 	
211.774 	4.1457e-06 	2003.35 	105.887 	
0.133199 	0.0873875 	0.0458115 	0.180564 	-0.0473647 	0.263889 	-0.13069 	0 	0.133199 	
1.813e-08 	8.47098e-06 	736.227 	736.227 	0.193548 	2.68817 	78.7801 	5.55556e-05 	
0.000274247 	4.38977e-14 	0 	0 	
ZONE T = "t = 7.75e-08 [s]" I = 10 SOLUTIONTIME = 7.7500000000000E-08
0 	4.16447e-09 	0.294 	0.206 	0.5 	-0.104122 	0 	
75.8693 	1.65764e-07 	37.9346 	2071.3 	
0.104122 	0.0873875 	0.0167341 	0.180564 	-0.0764421 	0.263889 	-0.159767 	0 	0.104122 	
8.93087e-09 	4.17276e-06 	736.227 	736.227 	0.193548 	2.68817 	28.2234 	5.55556e-05 	
0.000274247 	2.21602e-14 	0 	0 	
0.000111111 	1.26367e-08 	0.294 	0.206 	0.5 	-0.104408 	-2.25929e-07 	
154.351 	5.03001e-07 	153.045 	1956.19 	
0.104408 	0.0873875 	0.0170204 	0.180564 	-0.0761557 	0.263889 	-0.159481 	0 	0.104408 	
9.08463e-09 	8.48922e-06 	736.227 	736.227 	0.193548 	5.37634 	28.7093 	0.000111111 	
0.000548494 	4.50834e-14 	0 	0 	
0.000222222 	2.15444e-08 	0.294 	0.206 	0.5 	-0.105278 	-4.34709e-07 	
162.287 	8.57577e-07 	311.364 	1797.87 	
0.105277 	0.0873875 	0.0178898 	0.180564 	-0.0752864 	0.263889 	-0.158612 	0 	0.105277 	
9.55174e-09 	8.92578e-06 	736.227 	736.227 	0.193548 	5.37634 	30.1854 	0.000111111 	
0.000548494 	4.74015e-14 	0 	0 	
0.000333333 	3.11963e-08 	0.294 	0.206 	0.5 	-0.10676 	-6.25456e-07 	
175.838 	1.24176e-06 	480.426 	1628.81 	
0.10676 	0.0873875 	0.0193721 	0.180564 	-0.0738041 	0.263889 	-0.157129 	0 	0.10676 	
1.03493e-08 	9.671e-06 	736.227 	736.227 	0.193548 	5.37634 	32.7059 	0.000111111 	
0.000548494 	5.13595e-14 	0 	0 	
0.000444444 	4.19274e-08 	0.294 	0.206 	0.5 	-0.108907 	-7.96666e-07 	
195.505 	1.66891e-06 	666.098 	1443.14 	
0.108906 	0.0873875 	0.0215185 	0.180564 	-0.0716577 	0.263889 	-0.154983 	0 	0.108906 	
1.15068e-08 	1.07528e-05 	736.227 	736.227 	0.193548 	5.37634 	36.3639 	0.000111111 	
0.000548494 	5.71039e-14 	0 	0 	
0.000555556 	5.41141e-08 	0.294 	0.206 	0.5 	-0.111792 	-9.46153e-07 	
222.03 	2.15402e-06 	874.866 	1234.37 	
0.111791 	0.0873875 	0.0244034 	0.180564 	-0.0687728 	0.263889 	-0.152098 	0 	0.111791 	
1.3068e-08 	1.22117e-05 	736.227 	736.227 	0.193548 	5.37634 	41.2976 	0.000111111 	
0.000548494 	6.48515e-14 	0 	0 	
0.000666667 	6.81901e-08 	0.294 	0.206 	0.5 	-0.115516 	-1.07097e-06 	
256.444 	2.71432e-06 	1114.1 	995.131 	
0.115514 	0.0873875 	0.028127 	0.180564 	-0.0650492 	0.263889 	-0.148374 	0 	0.115514 	
1.50935e-08 	1.41044e-05 	736.227 	736.227 	0.193548 	5.37634 	47.6987 	0.000111111 	
0.000548494 	7.49033e-14 	0 	0 	
0.000777778 	8.46643e-08 	0.294 	0.206 	0.5 	-0.120208 	-1.16729e-06 	
300.141 	3.37008e-06 	1392.4 	716.838 	
0.120207 	0.0873875 	0.0328191 	0.180564 	-0.0603571 	0.263889 	-0.143682 	0 	0.120207 	
1.76654e-08 	1.65078e-05 	736.227 	736.227 	0.193548 	5.37634 	55.8262 	0.000111111 	
0.000548494 	8.76663e-14 	0 	0 	
0.000888889 	1.0415e-07 	0.294 	0.206 	0.5 	-0.126034 	-1.23027e-06 	
354.994 	4.1457e-06 	1719.96 	389.271 	
0.126032 	0.0873875 	0.0386449 	0.180564 	-0.0545313 	0.263889 	-0.137857 	0 	0.126032 	
2.08939e-08 	1.95246e-05 	736.227 	736.227 	0.193548 	5.37634 	66.0288 	0.000111111 	
0.000548494 	1.03688e-13 	0 	0 	
0.001 	1.15774e-07 	0.294 	0.206 	0.5 	-0.1332 	-1.2538e-06 	
211.774 	4.1457e-06 	2003.35 	105.887 	
0.133199 	0.0873875 	0.0458115 	0.180564 	-0.0473647 	0.263889 	-0.13069 	0 	0.133199 	
2.49288e-08 	1.16476e-05 	736.227 	736.227 	0.193548 	2.68817 	78.7801 	5.55556e-05 	
0.000274247 	6.18559e-14 	0 	0 	
ZONE T = "t = 1.1125e-07 [s]" I = 10 SOLUTIONTIME = 1.1125000000000E-07
0 	4.16437e-09 	0.294 	0.206 	0.5 	-0.104122 	0 	
75.8693 	1.65764e-07 	37.9346 	2071.3 	
0.104122 	0.0873875 	0.0167341 	0.180564 	-0.0764421 	0.263889 	-0.159767 	0 	0.104122 	
1.25844e-08 	5.87988e-06 	736.227 	736.227 	0.193548 	2.68817 	28.2234 	5.55556e-05 	
0.000274247 	3.18106e-14 	0 	0 	
0.000111111 	1.26362e-08 	0.294 	0.206 	0.5 	-0.104408 	-2.25929e-07 	
154.351 	5.03001e-07 	153.045 	1956.19 	
0.104408 	0.0873875 	0.0170204 	0.180564 	-0.0761557 	0.263889 	-0.159481 	0 	0.104408 	
1.28011e-08 	1.19621e-05 	736.227 	736.227 	0.193548 	5.37634 	28.7093 	0.000111111 	
0.000548494 	6.47165e-14 	0 	0 	
0.000222222 	2.1544e-08 	0.294 	0.206 	0.5 	-0.105278 	-4.34709e-07 	
162.287 	8.57577e-07 	311.364 	1797.87 	
0.105277 	0.0873875 	0.0178898 	0.180564 	-0.0752864 	0.263889 	-0.158612 	0 	0.105277 	
1.34593e-08 	1.25773e-05 	736.227 	736.227 	0.193548 	5.37634 	30.1854 	0.000111111 	
0.000548494 	6.80441e-14 	0 	0 	
0.000333333 	3.11956e-08 	0.294 	0.206 	0.5 	-0.10676 	-6.25456e-07 	
175.838 	1.24176e-06 	480.426 	1628.81 	
0.10676 	0.0873875 	0.0193721 	0.180564 	-0.0738041 	0.263889 	-0.157129 	0 	0.10676 	
1.45831e-08 	1.36274e-05 	736.227 	736.227 	0.193548 	5.37634 	32.7059 	0.000111111 	
0.000548494 	7.37257e-14 	0 	0 	
0.000444444 	4.19267e-08 	0.294 	0.206 	0.5 	-0.108907 	-7.96666e-07 	
195.505 	1.66891e-06 	666.098 	1443.14 	
0.108906 	0.0873875 	0.0215185 	0.180564 	-0.0716577 	0.263889 	-0.154983 	0 	0.108906 	
1.62142e-08 	1.51516e-05 	736.227 	736.227 	0.193548 	5.37634 	36.3639 	0.000111111 	
0.000548494 	8.19717e-14 	0 	0 	
0.000555556 	5.41137e-08 	0.294 	0.206 	0.5 	-0.111792 	-9.46153e-07 	
222.03 	2.15402e-06 	874.866 	1234.37 	
0.111791 	0.0873875 	0.0244034 	0.180564 	-0.0687728 	0.263889 	-0.152098 	0 	0.111791 	
1.8414e-08 	1.72073e-05 	736.227 	736.227 	0.193548 	5.37634 	41.2976 	0.000111111 	
0.000548494 	9.30933e-14 	0 	0 	
0.000666667 	6.81894e-08 	0.294 	0.206 	0.5 	-0.115516 	-1.07097e-06 	
256.444 	2.71432e-06 	1114.1 	995.131 	
0.115514 	0.0873875 	0.028127 	0.180564 	-0.0650492 	0.263889 	-0.148374 	0 	0.115514 	
2.12682e-08 	1.98744e-05 	736.227 	736.227 	0.193548 	5.37634 	47.6987 	0.000111111 	
0.000548494 	1.07522e-13 	0 	0 	
0.000777778 	8.46638e-08 	0.294 	0.206 	0.5 	-0.120208 	-1.16729e-06 	
300.141 	3.37008e-06 	1392.4 	716.838 	
0.120207 	0.0873875 	0.0328191 	0.180564 	-0.0603571 	0.263889 	-0.143682 	0 	0.120207 	
2.48921e-08 	2.3261e-05 	736.227 	736.227 	0.193548 	5.37634 	55.8262 	0.000111111 	
0.000548494 	1.25844e-13 	0 	0 	
0.000888889 	1.04149e-07 	0.294 	0.206 	0.5 	-0.126034 	-1.23027e-06 	
354.994 	4.1457e-06 	1719.96 	389.271 	
0.126032 	0.0873875 	0.0386449 	0.180564 	-0.0545313 	0.263889 	-0.137857 	0 	0.126032 	
2.94413e-08 	2.75121e-05 	736.227 	736.227 	0.193548 	5.37634 	66.0288 	0.000111111 	
0.000548494 	1.48842e-13 	0 	0 	
0.001 	1.15773e-07 	0.294 	0.206 	0.5 	-0.1332 	-1.2538e-06 	
211.774 	4.1457e-06 	2003.35 	105.887 	
0.133199 	0.0873875 	0.0458115 	0.180564 	-0.0473647 	0.263889 	-0.13069 	0 	0.133199 	
3.51269e-08 	1.64125e-05 	736.227 	736.227 	0.193548 	2.68817 	78.7801 	5.55556e-05 	
0.000274247 	8.87931e-14 	0 	0 	
ZONE T = "t = 1.61875e-07 [s]" I = 10 SOLUTIONTIME = 1.6187500000000E-07
0 	4.16439e-09 	0.294 	0.206 	0.5 	-0.104122 	0 	
75.8693 	1.65764e-07 	37.9346 	2071.3 	
0.104122 	0.0873875 	0.0167341 	0.180564 	-0.0764421 	0.263889 	-0.159767 	0 	0.104122 	
1.80647e-08 	8.4404e-06 	736.227 	736.227 	0.193548 	2.68817 	28.2234 	5.55556e-05 	
0.000274247 	4.62862e-14 	0 	0 	
0.000111111 	1.26367e-08 	0.294 	0.206 	0.5 	-0.104408 	-2.25929e-07 	
154.351 	5.03001e-07 	153.045 	1956.19 	
0.104408 	0.0873875 	0.0170204 	0.180564 	-0.0761557 	0.263889 	-0.159481 	0 	0.104408 	
1.83757e-08 	1.71715e-05 	736.227 	736.227 	0.193548 	5.37634 	28.7093 	0.000111111 	
0.000548494 	9.41662e-14 	0 	0 	
0.000222222 	2.15445e-08 	0.294 	0.206 	0.5 	-0.105278 	-4.34709e-07 	
162.287 	8.57577e-07 	311.364 	1797.87 	
0.105277 	0.0873875 	0.0178898 	0.180564 	-0.0752864 	0.263889 	-0.158612 	0 	0.105277 	
1.93206e-08 	1.80545e-05 	736.227 	736.227 	0.193548 	5.37634 	30.1854 	0.000111111 	
0.000548494 	9.9008e-14 	0 	0 	