TITLE = "Solution on Domain BulkDomain1D_2"
VARIABLES = "x [m]"  
"Vel_axial(0)" 	"MF_sp(Li+)" 	"MF_sp(K+)" 	"MF_sp(Cl-)" 	"Volt(Electroly)" 	"Volt(CathodeVo)" 	
"Potential Drop Electrode-Electrolyte [V]" 	"Surf_0 Equilibrium Potential Drop Electrode-Electrolyte [V]" 	"Overpotential_0 [V]" 	"Surf_1 Equilibrium Potential Drop Electrode-Electrolyte [V]" 	"Overpotential_1 [V]" 	"Capacity discharged [mA-hr/g]" 	"Depth of discharge [-]" 	"Capacity remaining [mA-hr/g]" 	"Initial capacity [mA-hr/g]" 	"Porosity []" 	"Surface Area [] (area per m2)" 	"Specific current (per particle area) [A/m^2]" 	"Control volume thickness [m]" 	
"Moles FeS2_A(S) [mol/m^2] (per electrode area)" 	"Moles FeS2_B(S) [mol/m^2] (per electrode area)" 	

ZONE T = "t = 0 [s]" I = 10 SOLUTIONTIME = 0.0000000000000E+00
0.0015 	2.01575e-07 	0.294 	0.206 	0.5 	-0.13819 	1.81089 	
0 	0 	1701.72 	407.515 	
0 	0 	0 	0 	0 	
0 	0 	0 	0 	0.417405 	100.708 	-8.09298 	5.55556e-05 	
0.000606113 	0.000606113 	
0.00161111 	1.72094e-07 	0.294 	0.206 	0.5 	-0.139733 	1.80999 	
0 	0 	1190.86 	918.375 	
0 	0 	0 	0 	0 	
0 	0 	0 	0 	0.417405 	201.416 	-1.02619 	0.000111111 	
0.00121223 	0.00121223 	
0.00172222 	1.64612e-07 	0.294 	0.206 	0.5 	-0.14103 	1.80885 	
0 	0 	1061.28 	1047.95 	
0 	0 	0 	0 	0 	
0 	0 	0 	0 	0.417405 	201.416 	-0.260464 	0.000111111 	
0.00121223 	0.00121223 	
0.00183333 	1.62687e-07 	0.294 	0.206 	0.5 	-0.142265 	1.80766 	
0 	0 	1028.3 	1080.93 	
0 	0 	0 	0 	0 	
0 	0 	0 	0 	0.417405 	201.416 	-0.066988 	0.000111111 	
0.00121223 	0.00121223 	
0.00194444 	1.62093e-07 	0.294 	0.206 	0.5 	-0.143483 	1.80645 	
0 	0 	1019.48 	1089.76 	
0 	0 	0 	0 	0 	
0 	0 	0 	0 	0.417405 	201.416 	-0.0206863 	0.000111111 	
0.00121223 	0.00121223 	
0.00205556 	1.61523e-07 	0.294 	0.206 	0.5 	-0.144696 	1.80523 	
0 	0 	1015.39 	1093.84 	
0 	0 	0 	0 	0 	
0 	0 	0 	0 	0.417405 	201.416 	-0.019833 	0.000111111 	
0.00121223 	0.00121223 	
0.00216667 	1.59726e-07 	0.294 	0.206 	0.5 	-0.145905 	1.80402 	
0 	0 	1007.1 	1102.13 	
0 	0 	0 	0 	0 	
0 	0 	0 	0 	0.417405 	201.416 	-0.0625532 	0.000111111 	
0.00121223 	0.00121223 	
0.00227778 	1.52754e-07 	0.294 	0.206 	0.5 	-0.147098 	1.80279 	
0 	0 	976.356 	1132.88 	
0 	0 	0 	0 	0 	
0 	0 	0 	0 	0.417405 	201.416 	-0.242704 	0.000111111 	
0.00121223 	0.00121223 	
0.00238889 	1.25287e-07 	0.294 	0.206 	0.5 	-0.148234 	1.8015 	
0 	0 	855.628 	1253.6 	
0 	0 	0 	0 	0 	
0 	0 	0 	0 	0.417405 	201.416 	-0.956082 	0.000111111 	
0.00121223 	0.00121223 	
0.0025 	0 	0.294 	0.206 	0.5 	-0.149139 	1.8 	
0 	0 	379.672 	1729.56 	
0 	0 	0 	0 	0 	
0 	0 	0 	0 	0.417405 	100.708 	-7.54004 	5.55556e-05 	
0.000606113 	0.000606113 	
ZONE T = "t = 0 [s]" I = 10 SOLUTIONTIME = 0.0000000000000E+00
0.0015 	2.01575e-07 	0.294 	0.206 	0.5 	-0.13819 	1.81089 	
-815.029 	2.82766e-06 	1701.72 	407.515 	
1.94908 	1.94994 	-0.000854599 	0 	1.94908 	
-0.00223384 	1.16963 	893.529 	893.532 	0.417405 	100.708 	-8.09298 	5.55556e-05 	
0.000606113 	0.000606113 	
0.00161111 	1.72094e-07 	0.294 	0.206 	0.5 	-0.139733 	1.80999 	
-206.69 	2.37607e-06 	1190.86 	918.375 	
1.94972 	1.94994 	-0.000216727 	0 	1.94972 	
-0.00223383 	2.33924 	893.529 	893.532 	0.417405 	201.416 	-1.02619 	0.000111111 	
0.00121223 	0.00121223 	
0.00172222 	1.64612e-07 	0.294 	0.206 	0.5 	-0.14103 	1.80885 	
-52.4617 	2.26145e-06 	1061.28 	1047.95 	
1.94988 	1.94994 	-5.50091e-05 	0 	1.94988 	
-0.00223383 	2.33924 	893.529 	893.532 	0.417405 	201.416 	-0.260464 	0.000111111 	
0.00121223 	0.00121223 	
0.00183333 	1.62687e-07 	0.294 	0.206 	0.5 	-0.142265 	1.80766 	
-13.4925 	2.23197e-06 	1028.3 	1080.93 	
1.94992 	1.94994 	-1.41476e-05 	0 	1.94992 	
-0.00223383 	2.33924 	893.529 	893.532 	0.417405 	201.416 	-0.066988 	0.000111111 	
0.00121223 	0.00121223 	
0.00194444 	1.62093e-07 	0.294 	0.206 	0.5 	-0.143483 	1.80645 	
-4.16656 	2.22287e-06 	1019.48 	1089.76 	
1.94993 	1.94994 	-4.36888e-06 	0 	1.94993 	
-0.00223383 	2.33924 	893.529 	893.532 	0.417405 	201.416 	-0.0206863 	0.000111111 	
0.00121223 	0.00121223 	
0.00205556 	1.61523e-07 	0.294 	0.206 	0.5 	-0.144696 	1.80523 	
-3.99469 	2.21414e-06 	1015.39 	1093.84 	
1.94993 	1.94994 	-4.18866e-06 	0 	1.94993 	
-0.00223383 	2.33924 	893.529 	893.532 	0.417405 	201.416 	-0.019833 	0.000111111 	
0.00121223 	0.00121223 	
0.00216667 	1.59726e-07 	0.294 	0.206 	0.5 	-0.145905 	1.80402 	
-12.5992 	2.18661e-06 	1007.1 	1102.13 	
1.94992 	1.94994 	-1.3211e-05 	0 	1.94992 	
-0.00223383 	2.33924 	893.529 	893.532 	0.417405 	201.416 	-0.0625532 	0.000111111 	
0.00121223 	0.00121223 	
0.00227778 	1.52754e-07 	0.294 	0.206 	0.5 	-0.147098 	1.80279 	
-48.8846 	2.07981e-06 	976.356 	1132.88 	
1.94988 	1.94994 	-5.12583e-05 	0 	1.94988 	
-0.00223383 	2.33924 	893.529 	893.532 	0.417405 	201.416 	-0.242704 	0.000111111 	
0.00121223 	0.00121223 	
0.00238889 	1.25287e-07 	0.294 	0.206 	0.5 	-0.148234 	1.8015 	
-192.57 	1.65906e-06 	855.628 	1253.6 	
1.94973 	1.94994 	-0.000201921 	0 	1.94973 	
-0.00223383 	2.33924 	893.529 	893.532 	0.417405 	201.416 	-0.956082 	0.000111111 	
0.00121223 	0.00121223 	
0.0025 	0 	0.294 	0.206 	0.5 	-0.149139 	1.8 	
-759.343 	1.65906e-06 	379.672 	1729.56 	
1.94914 	1.94994 	-0.00079621 	0 	1.94914 	
-0.00223384 	1.16963 	893.529 	893.532 	0.417405 	100.708 	-7.54004 	5.55556e-05 	
0.000606113 	0.000606113 	
ZONE T = "t = 1e-08 [s]" I = 10 SOLUTIONTIME = 1.0000000000000E-08
0.0015 	7.10404e-08 	0.294 	0.206 	0.5 	-0.13819 	1.81089 	
-815.029 	2.82766e-06 	1701.72 	407.515 	
1.94908 	1.94994 	-0.000854599 	0 	1.94908 	
-0.00223384 	1.16963 	893.529 	893.532 	0.417405 	100.708 	-8.09299 	5.55556e-05 	
0.000606113 	0.000606113 	
0.00161111 	5.96953e-08 	0.294 	0.206 	0.5 	-0.139733 	1.80999 	
-206.69 	2.37607e-06 	1190.86 	918.375 	
1.94972 	1.94994 	-0.000216727 	0 	1.94972 	
-0.00223383 	2.33924 	893.529 	893.532 	0.417405 	201.416 	-1.02619 	0.000111111 	
0.00121223 	0.00121223 	
0.00172222 	5.68158e-08 	0.294 	0.206 	0.5 	-0.14103 	1.80885 	
-52.4617 	2.26145e-06 	1061.28 	1047.95 	
1.94988 	1.94994 	-5.50091e-05 	0 	1.94988 	
-0.00223383 	2.33924 	893.529 	893.532 	0.417405 	201.416 	-0.260464 	0.000111111 	
0.00121223 	0.00121223 	
0.00183333 	5.60763e-08 	0.294 	0.206 	0.5 	-0.142265 	1.80766 	
-13.4925 	2.23197e-06 	1028.31 	1080.93 	
1.94992 	1.94994 	-1.41476e-05 	0 	1.94992 	
-0.00223383 	2.33924 	893.529 	893.532 	0.417405 	201.416 	-0.0669881 	0.000111111 	
0.00121223 	0.00121223 	
0.00194444 	5.58485e-08 	0.294 	0.206 	0.5 	-0.143483 	1.80645 	
-4.16656 	2.22287e-06 	1019.48 	1089.76 	
1.94993 	1.94994 	-4.36888e-06 	0 	1.94993 	
-0.00223383 	2.33924 	893.529 	893.532 	0.417405 	201.416 	-0.0206863 	0.000111111 	
0.00121223 	0.00121223 	
0.00205556 	5.56301e-08 	0.294 	0.206 	0.5 	-0.144696 	1.80523 	
-3.99469 	2.21414e-06 	1015.4 	1093.84 	
1.94993 	1.94994 	-4.18866e-06 	0 	1.94993 	
-0.00223383 	2.33924 	893.529 	893.532 	0.417405 	201.416 	-0.019833 	0.000111111 	
0.00121223 	0.00121223 	
0.00216667 	5.49408e-08 	0.294 	0.206 	0.5 	-0.145905 	1.80402 	
-12.5992 	2.18661e-06 	1007.1 	1102.14 	
1.94992 	1.94994 	-1.3211e-05 	0 	1.94992 	
-0.00223383 	2.33924 	893.529 	893.532 	0.417405 	201.416 	-0.0625532 	0.000111111 	
0.00121223 	0.00121223 	
0.00227778 	5.22591e-08 	0.294 	0.206 	0.5 	-0.147098 	1.80279 	
-48.8846 	2.07981e-06 	976.356 	1132.88 	
1.94988 	1.94994 	-5.12583e-05 	0 	1.94988 	
-0.00223383 	2.33924 	893.529 	893.532 	0.417405 	201.416 	-0.242704 	0.000111111 	
0.00121223 	0.00121223 	
0.00238889 	4.16916e-08 	0.294 	0.206 	0.5 	-0.148234 	1.8015 	
-192.57 	1.65906e-06 	855.629 	1253.6 	
1.94973 	1.94994 	-0.000201921 	0 	1.94973 	
-0.00223383 	2.33924 	893.529 	893.532 	0.417405 	201.416 	-0.956082 	0.000111111 	
0.00121223 	0.00121223 	
0.0025 	0 	0.294 	0.206 	0.5 	-0.149139 	1.8 	
-759.343 	1.65906e-06 	379.672 	1729.56 	
1.94914 	1.94994 	-0.00079621 	0 	1.94914 	
-0.00223384 	1.16963 	893.529 	893.532 	0.417405 	100.708 	-7.54004 	5.55556e-05 	
0.000606113 	0.000606113 	
ZONE T = "t = 2e-08 [s]" I = 10 SOLUTIONTIME = 2.0000000000000E-08
0.0015 	7.10363e-08 	0.294 	0.206 	0.5 	-0.13819 	1.81089 	
-815.03 	2.82766e-06 	1701.72 	407.515 	
1.94908 	1.94994 	-0.000854599 	0 	1.94908 	
-0.00223384 	1.16963 	893.529 	893.532 	0.417405 	100.708 	-8.09299 	5.55556e-05 	
0.000606113 	0.000606113 	
0.00161111 	5.96927e-08 	0.294 	0.206 	0.5 	-0.139733 	1.80999 	
-206.691 	2.37607e-06 	1190.86 	918.375 	
1.94972 	1.94994 	-0.000216727 	0 	1.94972 	
-0.00223383 	2.33924 	893.529 	893.532 	0.417405 	201.416 	-1.02619 	0.000111111 	
0.00121223 	0.00121223 	
0.00172222 	5.68146e-08 	0.294 	0.206 	0.5 	-0.14103 	1.80885 	
-52.4617 	2.26145e-06 	1061.28 	1047.95 	
1.94988 	1.94994 	-5.50091e-05 	0 	1.94988 	
-0.00223383 	2.33924 	893.529 	893.532 	0.417405 	201.416 	-0.260464 	0.000111111 	
0.00121223 	0.00121223 	
0.00183333 	5.6073e-08 	0.294 	0.206 	0.5 	-0.142265 	1.80766 	
-13.4925 	2.23197e-06 	1028.31 	1080.93 	
1.94992 	1.94994 	-1.41477e-05 	0 	1.94992 	
-0.00223383 	2.33924 	893.529 	893.532 	0.417405 	201.416 	-0.0669881 	0.000111111 	
0.00121223 	0.00121223 	
0.00194444 	5.5844e-08 	0.294 	0.206 	0.5 	-0.143483 	1.80645 	
-4.16657 	2.22287e-06 	1019.48 	1089.76 	
1.94993 	1.94994 	-4.36889e-06 	0 	1.94993 	
-0.00223383 	2.33924 	893.529 	893.532 	0.417405 	201.416 	-0.0206863 	0.000111111 	
0.00121223 	0.00121223 	
0.00205556 	5.56251e-08 	0.294 	0.206 	0.5 	-0.144696 	1.80523 	
-3.99469 	2.21414e-06 	1015.4 	1093.84 	
1.94993 	1.94994 	-4.18866e-06 	0 	1.94993 	
-0.00223383 	2.33924 	893.529 	893.532 	0.417405 	201.416 	-0.019833 	0.000111111 	
0.00121223 	0.00121223 	
0.00216667 	5.49322e-08 	0.294 	0.206 	0.5 	-0.145905 	1.80402 	
-12.5992 	2.18661e-06 	1007.1 	1102.14 	
1.94992 	1.94994 	-1.3211e-05 	0 	1.94992 	
-0.00223383 	2.33924 	893.529 	893.532 	0.417405 	201.416 	-0.0625532 	0.000111111 	
0.00121223 	0.00121223 	
0.00227778 	5.22509e-08 	0.294 	0.206 	0.5 	-0.147098 	1.80279 	
-48.8846 	2.07981e-06 	976.356 	1132.88 	
1.94988 	1.94994 	-5.12583e-05 	0 	1.94988 	
-0.00223383 	2.33924 	893.529 	893.532 	0.417405 	201.416 	-0.242704 	0.000111111 	
0.00121223 	0.00121223 	
0.00238889 	4.16791e-08 	0.294 	0.206 	0.5 	-0.148234 	1.8015 	
-192.571 	1.65907e-06 	855.629 	1253.6 	
1.94973 	1.94994 	-0.000201921 	0 	1.94973 	
-0.00223383 	2.33924 	893.529 	893.532 	0.417405 	201.416 	-0.956082 	0.000111111 	
0.00121223 	0.00121223 	
0.0025 	0 	0.294 	0.206 	0.5 	-0.149139 	1.8 	
-759.344 	1.65907e-06 	379.672 	1729.56 	
1.94914 	1.94994 	-0.00079621 	0 	1.94914 	
-0.00223384 	1.16963 	893.529 	893.532 	0.417405 	100.708 	-7.54004 	5.55556e-05 	
0.000606113 	0.000606113 	
ZONE T = "t = 3e-08 [s]" I = 10 SOLUTIONTIME = 3.0000000000000E-08
0.0015 	7.10375e-08 	0.294 	0.206 	0.5 	-0.13819 	1.81089 	
-815.03 	2.82766e-06 	1701.72 	407.515 	
1.94908 	1.94994 	-0.000854599 	0 	1.94908 	
-0.00223386 	1.16964 	893.529 	893.532 	0.417405 	100.708 	-8.09299 	5.55556e-05 	
0.000606113 	0.000606113 	
0.00161111 	5.96936e-08 	0.294 	0.206 	0.5 	-0.139733 	1.80999 	
-206.691 	2.37607e-06 	1190.86 	918.375 	
1.94972 	1.94994 	-0.000216727 	0 	1.94972 	
-0.00223383 	2.33924 	893.529 	893.532 	0.417405 	201.416 	-1.02619 	0.000111111 	
0.00121223 	0.00121223 	
0.00172222 	5.68124e-08 	0.294 	0.206 	0.5 	-0.14103 	1.80885 	
-52.4617 	2.26145e-06 	1061.28 	1047.95 	
1.94988 	1.94994 	-5.50091e-05 	0 	1.94988 	
-0.00223383 	2.33924 	893.529 	893.532 	0.417405 	201.416 	-0.260464 	0.000111111 	
0.00121223 	0.00121223 	
0.00183333 	5.6072e-08 	0.294 	0.206 	0.5 	-0.142265 	1.80766 	
-13.4925 	2.23197e-06 	1028.31 	1080.93 	
1.94992 	1.94994 	-1.41477e-05 	0 	1.94992 	
-0.00223383 	2.33924 	893.529 	893.532 	0.417405 	201.416 	-0.0669881 	0.000111111 	
0.00121223 	0.00121223 	
0.00194444 	5.5843e-08 	0.294 	0.206 	0.5 	-0.143483 	1.80645 	
-4.16657 	2.22287e-06 	1019.48 	1089.76 	
1.94993 	1.94994 	-4.36889e-06 	0 	1.94993 	
-0.00223383 	2.33924 	893.529 	893.532 	0.417405 	201.416 	-0.0206863 	0.000111111 	
0.00121223 	0.00121223 	
0.00205556 	5.5623e-08 	0.294 	0.206 	0.5 	-0.144696 	1.80523 	
-3.99469 	2.21414e-06 	1015.4 	1093.84 	
1.94993 	1.94994 	-4.18866e-06 	0 	1.94993 	
-0.00223383 	2.33924 	893.529 	893.532 	0.417405 	201.416 	-0.019833 	0.000111111 	
0.00121223 	0.00121223 	
0.00216667 	5.49326e-08 	0.294 	0.206 	0.5 	-0.145905 	1.80402 	
-12.5992 	2.18661e-06 	1007.1 	1102.14 	
1.94992 	1.94994 	-1.3211e-05 	0 	1.94992 	
-0.00223383 	2.33924 	893.529 	893.532 	0.417405 	201.416 	-0.0625532 	0.000111111 	
0.00121223 	0.00121223 	
0.00227778 	5.22495e-08 	0.294 	0.206 	0.5 	-0.147098 	1.80279 	
-48.8846 	2.07981e-06 	976.356 	1132.88 	
1.94988 	1.94994 	-5.12583e-05 	0 	1.94988 	
-0.00223383 	2.33924 	893.529 	893.532 	0.417405 	201.416 	-0.242704 	0.000111111 	
0.00121223 	0.00121223 	
0.00238889 	4.16803e-08 	0.294 	0.206 	0.5 	-0.148234 	1.8015 	
-192.571 	1.65907e-06 	855.629 	1253.6 	
1.94973 	1.94994 	-0.000201921 	0 	1.94973 	
-0.00223383 	2.33924 	893.529 	893.532 	0.417405 	201.416 	-0.956082 	0.000111111 	
0.00121223 	0.00121223 	
0.0025 	0 	0.294 	0.206 	0.5 	-0.149139 	1.8 	
-759.344 	1.65907e-06 	379.672 	1729.56 	
1.94914 	1.94994 	-0.00079621 	0 	1.94914 	
-0.00223386 	1.16963 	893.529 	893.532 	0.417405 	100.708 	-7.54004 	5.55556e-05 	
0.000606113 	0.000606113 	
ZONE T = "t = 4e-08 [s]" I = 10 SOLUTIONTIME = 4.0000000000000E-08
0.0015 	7.10379e-08 	0.294 	0.206 	0.5 	-0.13819 	1.81089 	
-815.03 	2.82766e-06 	1701.72 	407.515 	
1.94908 	1.94994 	-0.000854599 	0 	1.94908 	
-0.00223388 	1.16964 	893.529 	893.532 	0.417405 	100.708 	-8.09299 	5.55556e-05 	
0.000606113 	0.000606113 	
0.00161111 	5.96921e-08 	0.294 	0.206 	0.5 	-0.139733 	1.80999 	
-206.691 	2.37607e-06 	1190.86 	918.375 	
1.94972 	1.94994 	-0.000216727 	0 	1.94972 	
-0.00223384 	2.33925 	893.529 	893.532 	0.417405 	201.416 	-1.02619 	0.000111111 	
0.00121223 	0.00121223 	
0.00172222 	5.68116e-08 	0.294 	0.206 	0.5 	-0.14103 	1.80885 	
-52.4617 	2.26145e-06 	1061.28 	1047.95 	
1.94988 	1.94994 	-5.50091e-05 	0 	1.94988 	
-0.00223383 	2.33924 	893.529 	893.532 	0.417405 	201.416 	-0.260464 	0.000111111 	
0.00121223 	0.00121223 	
0.00183333 	5.60718e-08 	0.294 	0.206 	0.5 	-0.142265 	1.80766 	
-13.4925 	2.23197e-06 	1028.31 	1080.93 	
1.94992 	1.94994 	-1.41477e-05 	0 	1.94992 	
-0.00223383 	2.33924 	893.529 	893.532 	0.417405 	201.416 	-0.0669881 	0.000111111 	
0.00121223 	0.00121223 	
0.00194444 	5.58433e-08 	0.294 	0.206 	0.5 	-0.143483 	1.80645 	
-4.16657 	2.22287e-06 	1019.48 	1089.76 	
1.94993 	1.94994 	-4.36889e-06 	0 	1.94993 	
-0.00223383 	2.33924 	893.529 	893.532 	0.417405 	201.416 	-0.0206863 	0.000111111 	
0.00121223 	0.00121223 	
0.00205556 	5.56246e-08 	0.294 	0.206 	0.5 	-0.144696 	1.80523 	
-3.99469 	2.21414e-06 	1015.4 	1093.84 	
1.94993 	1.94994 	-4.18866e-06 	0 	1.94993 	
-0.00223383 	2.33924 	893.529 	893.532 	0.417405 	201.416 	-0.019833 	0.000111111 	
0.00121223 	0.00121223 	
0.00216667 	5.49326e-08 	0.294 	0.206 	0.5 	-0.145905 	1.80402 	
-12.5992 	2.18661e-06 	1007.1 	1102.14 	
1.94992 	1.94994 	-1.3211e-05 	0 	1.94992 	
-0.00223383 	2.33924 	893.529 	893.532 	0.417405 	201.416 	-0.0625532 	0.000111111 	
0.00121223 	0.00121223 	
0.00227778 	5.2248e-08 	0.294 	0.206 	0.5 	-0.147098 	1.80279 	
-48.8846 	2.07981e-06 	976.356 	1132.88 	
1.94988 	1.94994 	-5.12583e-05 	0 	1.94988 	
-0.00223383 	2.33924 	893.529 	893.532 	0.417405 	201.416 	-0.242704 	0.000111111 	
0.00121223 	0.00121223 	
0.00238889 	4.16779e-08 	0.294 	0.206 	0.5 	-0.148234 	1.8015 	
-192.571 	1.65907e-06 	855.629 	1253.6 	
1.94973 	1.94994 	-0.000201921 	0 	1.94973 	
-0.00223383 	2.33924 	893.529 	893.532 	0.417405 	201.416 	-0.956082 	0.000111111 	
0.00121223 	0.00121223 	
0.0025 	0 	0.294 	0.206 	0.5 	-0.149139 	1.8 	
-759.344 	1.65907e-06 	379.672 	1729.56 	
1.94914 	1.94994 	-0.00079621 	0 	1.94914 	
-0.00223387 	1.16964 	893.529 	893.532 	0.417405 	100.708 	-7.54004 	5.55556e-05 	
0.000606113 	0.000606113 	
ZONE T = "t = 5.5e-08 [s]" I = 10 SOLUTIONTIME = 5.5000000000000E-08
0.0015 	7.10392e-08 	0.294 	0.206 	0.5 	-0.13819 	1.81089 	
-815.03 	2.82766e-06 	1701.72 	407.515 	
1.94908 	1.94994 	-0.000854599 	0 	1.94908 	
-0.00223389 	1.16965 	893.529 	893.532 	0.417405 	100.708 	-8.09299 	5.55556e-05 	
0.000606113 	0.000606113 	
0.00161111 	5.96955e-08 	0.294 	0.206 	0.5 	-0.139733 	1.80999 	
-206.691 	2.37607e-06 	1190.86 	918.375 	
1.94972 	1.94994 	-0.000216727 	0 	1.94972 	
-0.00223384 	2.33925 	893.529 	893.532 	0.417405 	201.416 	-1.02619 	0.000111111 	
0.00121223 	0.00121223 	
0.00172222 	5.68157e-08 	0.294 	0.206 	0.5 	-0.14103 	1.80885 	
-52.4617 	2.26145e-06 	1061.28 	1047.95 	
1.94988 	1.94994 	-5.50091e-05 	0 	1.94988 	
-0.00223383 	2.33924 	893.529 	893.532 	0.417405 	201.416 	-0.260464 	0.000111111 	
0.00121223 	0.00121223 	
0.00183333 	5.60751e-08 	0.294 	0.206 	0.5 	-0.142265 	1.80766 	
-13.4925 	2.23197e-06 	1028.31 	1080.93 	
1.94992 	1.94994 	-1.41477e-05 	0 	1.94992 	
-0.00223383 	2.33924 	893.529 	893.532 	0.417405 	201.416 	-0.0669881 	0.000111111 	
0.00121223 	0.00121223 	
0.00194444 	5.58463e-08 	0.294 	0.206 	0.5 	-0.143483 	1.80645 	
-4.16657 	2.22287e-06 	1019.48 	1089.76 	
1.94993 	1.94994 	-4.36889e-06 	0 	1.94993 	
-0.00223383 	2.33924 	893.529 	893.532 	0.417405 	201.416 	-0.0206863 	0.000111111 	
0.00121223 	0.00121223 	
0.00205556 	5.56268e-08 	0.294 	0.206 	0.5 	-0.144696 	1.80523 	
-3.99469 	2.21414e-06 	1015.4 	1093.84 	
1.94993 	1.94994 	-4.18866e-06 	0 	1.94993 	
-0.00223383 	2.33924 	893.529 	893.532 	0.417405 	201.416 	-0.019833 	0.000111111 	
0.00121223 	0.00121223 	
0.00216667 	5.4935e-08 	0.294 	0.206 	0.5 	-0.145905 	1.80402 	
-12.5992 	2.18661e-06 	1007.1 	1102.14 	
1.94992 	1.94994 	-1.3211e-05 	0 	1.94992 	
-0.00223383 	2.33924 	893.529 	893.532 	0.417405 	201.416 	-0.0625532 	0.000111111 	
0.00121223 	0.00121223 	
0.00227778 	5.22518e-08 	0.294 	0.206 	0.5 	-0.147098 	1.80279 	
-48.8846 	2.07981e-06 	976.356 	1132.88 	
1.94988 	1.94994 	-5.12583e-05 	0 	1.94988 	
-0.00223383 	2.33924 	893.529 	893.532 	0.417405 	201.416 	-0.242704 	0.000111111 	
0.00121223 	0.00121223 	
0.00238889 	4.16817e-08 	0.294 	0.206 	0.5 	-0.148234 	1.8015 	
-192.571 	1.65907e-06 	855.629 	1253.6 	
1.94973 	1.94994 	-0.000201921 	0 	1.94973 	
-0.00223384 	2.33925 	893.529 	893.532 	0.417405 	201.416 	-0.956082 	0.000111111 	
0.00121223 	0.00121223 	
0.0025 	0 	0.294 	0.206 	0.5 	-0.149139 	1.8 	
-759.344 	1.65907e-06 	379.672 	1729.56 	
1.94914 	1.94994 	-0.00079621 	0 	1.94914 	
-0.00223389 	1.16965 	893.529 	893.532 	0.417405 	100.708 	-7.54004 	5.55556e-05 	
0.000606113 	0.000606113 	
ZONE T = "t = 7.75e-08 [s]" I = 10 SOLUTIONTIME = 7.7500000000000E-08
0.0015 	7.1038e-08 	0.294 	0.206 	0.5 	-0.13819 	1.81089 	
-815.03 	2.82766e-06 	1701.72 	407.515 	
1.94908 	1.94994 	-0.000854599 	0 	1.94908 	
-0.00223391 	1.16966 	893.529 	893.532 	0.417405 	100.708 	-8.09299 	5.55556e-05 	
0.000606113 	0.000606113 	
0.00161111 	5.96935e-08 	0.294 	0.206 	0.5 	-0.139733 	1.80999 	
-206.691 	2.37607e-06 	1190.86 	918.375 	
1.94972 	1.94994 	-0.000216727 	0 	1.94972 	
-0.00223384 	2.33925 	893.529 	893.532 	0.417405 	201.416 	-1.02619 	0.000111111 	
0.00121223 	0.00121223 	
0.00172222 	5.68144e-08 	0.294 	0.206 	0.5 	-0.14103 	1.80885 	
-52.4617 	2.26145e-06 	1061.28 	1047.95 	
1.94988 	1.94994 	-5.50091e-05 	0 	1.94988 	
-0.00223383 	2.33924 	893.529 	893.532 	0.417405 	201.416 	-0.260464 	0.000111111 	
0.00121223 	0.00121223 	
0.00183333 	5.60739e-08 	0.294 	0.206 	0.5 	-0.142265 	1.80766 	
-13.4925 	2.23197e-06 	1028.31 	1080.93 	
1.94992 	1.94994 	-1.41477e-05 	0 	1.94992 	
-0.00223383 	2.33924 	893.529 	893.532 	0.417405 	201.416 	-0.0669881 	0.000111111 	
0.00121223 	0.00121223 	
0.00194444 	5.5845e-08 	0.294 	0.206 	0.5 	-0.143483 	1.80645 	
-4.16657 	2.22287e-06 	1019.48 	1089.76 	
1.94993 	1.94994 	-4.36889e-06 	0 	1.94993 	
-0.00223383 	2.33924 	893.529 	893.532 	0.417405 	201.416 	-0.0206863 	0.000111111 	
0.00121223 	0.00121223 	
0.00205556 	5.56255e-08 	0.294 	0.206 	0.5 	-0.144696 	1.80523 	
-3.99469 	2.21414e-06 	1015.4 	1093.84 	
1.94993 	1.94994 	-4.18866e-06 	0 	1.94993 	
-0.00223383 	2.33924 	893.529 	893.532 	0.417405 	201.416 	-0.019833 	0.000111111 	
0.00121223 	0.00121223 	
0.00216667 	5.49337e-08 	0.294 	0.206 	0.5 	-0.145905 	1.80402 	
-12.5992 	2.18661e-06 	1007.1 	1102.14 	
1.94992 	1.94994 	-1.3211e-05 	0 	1.94992 	
-0.00223383 	2.33924 	893.529 	893.532 	0.417405 	201.416 	-0.0625532 	0.000111111 	
0.00121223 	0.00121223 	
0.00227778 	5.22506e-08 	0.294 	0.206 	0.5 	-0.147098 	1.80279 	
-48.8846 	2.07981e-06 	976.356 	1132.88 	
1.94988 	1.94994 	-5.12583e-05 	0 	1.94988 	
-0.00223383 	2.33924 	893.529 	893.532 	0.417405 	201.416 	-0.242704 	0.000111111 	
0.00121223 	0.00121223 	
0.00238889 	4.16808e-08 	0.294 	0.206 	0.5 	-0.148234 	1.8015 	
-192.571 	1.65907e-06 	855.629 	1253.6 	
1.94973 	1.94994 	-0.000201921 	0 	1.94973 	
-0.00223384 	2.33925 	893.529 	893.532 	0.417405 	201.416 	-0.956082 	0.000111111 	
0.00121223 	0.00121223 	
0.0025 	0 	0.294 	0.206 	0.5 	-0.149139 	1.8 	
-759.344 	1.65907e-06 	379.672 	1729.56 	
1.94914 	1.94994 	-0.00079621 	0 	1.94914 	
-0.00223391 	1.16966 	893.529 	893.532 	0.417405 	100.708 	-7.54004 	5.55556e-05 	
0.000606113 	0.000606113 	
ZONE T = "t = 1.1125e-07 [s]" I = 10 SOLUTIONTIME = 1.1125000000000E-07
0.0015 	7.10369e-08 	0.294 	0.206 	0.5 	-0.13819 	1.81089 	
-815.03 	2.82766e-06 	1701.72 	407.515 	
1.94908 	1.94994 	-0.000854599 	0 	1.94908 	
-0.00223395 	1.16968 	893.529 	893.532 	0.417405 	100.708 	-8.09299 	5.55556e-05 	
0.000606113 	0.000606113 	
0.00161111 	5.96919e-08 	0.294 	0.206 	0.5 	-0.139733 	1.80999 	
-206.691 	2.37607e-06 	1190.86 	918.375 	
1.94972 	1.94994 	-0.000216727 	0 	1.94972 	
-0.00223384 	2.33925 	893.529 	893.532 	0.417405 	201.416 	-1.02619 	0.000111111 	
0.00121223 	0.00121223 	
0.00172222 	5.68127e-08 	0.294 	0.206 	0.5 	-0.14103 	1.80885 	
-52.4617 	2.26145e-06 	1061.28 	1047.95 	
1.94988 	1.94994 	-5.50091e-05 	0 	1.94988 	
-0.00223383 	2.33924 	893.529 	893.532 	0.417405 	201.416 	-0.260464 	0.000111111 	
0.00121223 	0.00121223 	
0.00183333 	5.60727e-08 	0.294 	0.206 	0.5 	-0.142265 	1.80766 	
-13.4925 	2.23197e-06 	1028.31 	1080.93 	
1.94992 	1.94994 	-1.41477e-05 	0 	1.94992 	
-0.00223383 	2.33924 	893.529 	893.532 	0.417405 	201.416 	-0.0669881 	0.000111111 	
0.00121223 	0.00121223 	
0.00194444 	5.58438e-08 	0.294 	0.206 	0.5 	-0.143483 	1.80645 	
-4.16657 	2.22287e-06 	1019.48 	1089.76 	
1.94993 	1.94994 	-4.36889e-06 	0 	1.94993 	
-0.00223383 	2.33924 	893.529 	893.532 	0.417405 	201.416 	-0.0206863 	0.000111111 	
0.00121223 	0.00121223 	
0.00205556 	5.56249e-08 	0.294 	0.206 	0.5 	-0.144696 	1.80523 	
-3.99469 	2.21414e-06 	1015.4 	1093.84 	
1.94993 	1.94994 	-4.18866e-06 	0 	1.94993 	
-0.00223383 	2.33924 	893.529 	893.532 	0.417405 	201.416 	-0.019833 	0.000111111 	
0.00121223 	0.00121223 	
0.00216667 	5.49329e-08 	0.294 	0.206 	0.5 	-0.145905 	1.80402 	
-12.5992 	2.18661e-06 	1007.1 	1102.14 	
1.94992 	1.94994 	-1.3211e-05 	0 	1.94992 	
-0.00223383 	2.33924 	893.529 	893.532 	0.417405 	201.416 	-0.0625532 	0.000111111 	
0.00121223 	0.00121223 	
0.00227778 	5.225e-08 	0.294 	0.206 	0.5 	-0.147098 	1.80279 	
-48.8846 	2.07981e-06 	976.356 	1132.88 	
1.94988 	1.94994 	-5.12583e-05 	0 	1.94988 	
-0.00223383 	2.33924 	893.529 	893.532 	0.417405 	201.416 	-0.242704 	0.000111111 	
0.00121223 	0.00121223 	
0.00238889 	4.16799e-08 	0.294 	0.206 	0.5 	-0.148234 	1.8015 	
-192.571 	1.65907e-06 	855.629 	1253.6 	
1.94973 	1.94994 	-0.000201921 	0 	1.94973 	
-0.00223384 	2.33925 	893.529 	893.532 	0.417405 	201.416 	-0.956083 	0.000111111 	
0.00121223 	0.00121223 	
0.0025 	0 	0.294 	0.206 	0.5 	-0.149139 	1.8 	
-759.344 	1.65907e-06 	379.672 	1729.56 	
1.94914 	1.94994 	-0.00079621 	0 	1.94914 	
-0.00223394 	1.16968 	893.529 	893.532 	0.417405 	100.708 	-7.54004 	5.55556e-05 	
0.000606113 	0.000606113 	
ZONE T = "t = 1.61875e-07 [s]" I = 10 SOLUTIONTIME = 1.6187500000000E-07
0.0015 	7.10375e-08 	0.294 	0.206 	0.5 	-0.13819 	1.81089 	
-815.03 	2.82766e-06 	1701.72 	407.515 	
1.94908 	1.94994 	-0.000854599 	0 	1.94908 	
-0.002234 	1.16971 	893.529 	893.532 	0.417405 	100.708 	-8.09299 	5.55556e-05 	
0.000606113 	0.000606113 	
0.00161111 	5.96929e-08 	0.294 	0.206 	0.5 	-0.139733 	1.80999 	
-206.691 	2.37607e-06 	1190.86 	918.375 	
1.94972 	1.94994 	-0.000216727 	0 	1.94972 	
-0.00223385 	2.33926 	893.529 	893.532 	0.417405 	201.416 	-1.02619 	0.000111111 	
0.00121223 	0.00121223 	
0.00172222 	5.68135e-08 	0.294 	0.206 	0.5 	-0.14103 	1.80885 	
-52.4617 	2.26145e-06 	1061.28 	1047.95 	
1.94988 	1.94994 	-5.50091e-05 	0 	1.94988 	
-0.00223383 	2.33924 	893.529 	893.532 	0.417405 	201.416 	-0.260464 	0.000111111 	
0.00121223 	0.00121223 	
0.00183333 	5.60725e-08 	0.294 	0.206 	0.5 	-0.142265 	1.80766 	
-13.4925 	2.23197e-06 	1028.31 	1080.93 	
1.94992 	1.94994 	-1.41477e-05 	0 	1.94992 	
-0.00223383 	2.33924 	893.529 	893.532 	0.417405 	201.416 	-0.0669881 	0.000111111 	
0.00121223 	0.00121223 	
0.00194444 	5.58438e-08 	0.294 	0.206 	0.5 	-0.143483 	1.80645 	
-4.16657 	2.22287e-06 	1019.48 	1089.76 	
1.94993 	1.94994 	-4.36889e-06 	0 	1.94993 	
-0.00223383 	2.33924 	893.529 	893.532 	0.417405 	201.416 	-0.0206863 	0.000111111 	
0.00121223 	0.00121223 	
0.00205556 	5.56246e-08 	0.294 	0.206 	0.5 	-0.144696 	1.80523 	
-3.99469 	2.21414e-06 	1015.4 	1093.84 	
1.94993 	1.94994 	-4.18866e-06 	0 	1.94993 	
-0.00223383 	2.33924 	893.529 	893.532 	0.417405 	201.416 	-0.019833 	0.000111111 	
0.00121223 	0.00121223 	
0.00216667 	5.49332e-08 	0.294 	0.206 	0.5 	-0.145905 	1.80402 	
-12.5992 	2.18661e-06 	1007.1 	1102.14 	
1.94992 	1.94994 	-1.3211e-05 	0 	1.94992 	
-0.00223383 	2.33924 	893.529 	893.532 	0.417405 	201.416 	-0.0625532 	0.000111111 	
0.00121223 	0.00121223 	
0.00227778 	5.225e-08 	0.294 	0.206 	0.5 	-0.147098 	1.80279 	
-48.8846 	2.07981e-06 	976.356 	1132.88 	
1.94988 	1.94994 	-5.12583e-05 	0 	1.94988 	
-0.00223383 	2.33924 	893.529 	893.532 	0.417405 	201.416 	-0.242704 	0.000111111 	
0.00121223 	0.00121223 	
0.00238889 	4.16802e-08 	0.294 	0.206 	0.5 	-0.148234 	1.8015 	
-192.571 	1.65907e-06 	855.629 	1253.6 	
1.94973 	1.94994 	-0.000201921 	0 	1.94973 	
-0.00223385 	2.33926 	893.529 	893.532 	0.417405 	201.416 	-0.956083 	0.000111111 	
0.00121223 	0.00121223 	
0.0025 	0 	0.294 	0.206 	0.5 	-0.149139 	1.8 	
-759.344 	1.65907e-06 	379.672 	1729.56 	
1.94914 	1.94994 	-0.00079621 	0 	1.94914 	
-0.00223399 	1.1697 	893.529 	893.532 	0.417405 	100.708 	-7.54004 	5.55556e-05 	
0.000606113 	0.000606113 	
ZONE T = "t = 2.37813e-07 [s]" I = 10 SOLUTIONTIME = 2.3781250000000E-07
0.0015 	7.10377e-08 	0.294 	0.206 	0.5 	-0.13819 	1.81089 	
-815.03 	2.82766e-06 	1701.72 	407.515 	
1.94908 	1.94994 	-0.000854599 	0 	1.94908 	
-0.00223408 	1.16975 	893.529 	893.532 	0.417405 	100.708 	-8.09299 	5.55556e-05 	
0.000606113 	0.000606113 	
0.00161111 	5.96926e-08 	0.294 	0.206 	0.5 	-0.139733 	1.80999 	
-206.691 	2.37607e-06 	1190.86 	918.375 	
1.94972 	1.94994 	-0.000216727 	0 	1.94972 	
-0.00223386 	2.33927 	893.529 	893.532 	0.417405 	201.416 	-1.02619 	0.000111111 	
0.00121223 	0.00121223 	
0.00172222 	5.68127e-08 	0.294 	0.206 	0.5 	-0.14103 	1.80885 	
-52.4617 	2.26145e-06 	1061.28 	1047.95 	
1.94988 	1.94994 	-5.50091e-05 	0 	1.94988 	
-0.00223384 	2.33925 	893.529 	893.532 	0.417405 	201.416 	-0.260464 	0.000111111 	
0.00121223 	0.00121223 	
0.00183333 	5.60722e-08 	0.294 	0.206 	0.5 	-0.142265 	1.80766 	
-13.4925 	2.23197e-06 	1028.31 	1080.93 	
1.94992 	1.94994 	-1.41477e-05 	0 	1.94992 	
-0.00223383 	2.33924 	893.529 	893.532 	0.417405 	201.416 	-0.0669881 	0.000111111 	
0.00121223 	0.00121223 	
0.00194444 	5.58433e-08 	0.294 	0.206 	0.5 	-0.143483 	1.80645 	
-4.16657 	2.22287e-06 	1019.48 	1089.76 	
1.94993 	1.94994 	-4.36889e-06 	0 	1.94993 	
-0.00223383 	2.33924 	893.529 	893.532 	0.417405 	201.416 	-0.0206863 	0.000111111 	
0.00121223 	0.00121223 	
0.00205556 	5.56239e-08 	0.294 	0.206 	0.5 	-0.144696 	1.80523 	
-3.99469 	2.21414e-06 	1015.4 	1093.84 	
1.94993 	1.94994 	-4.18866e-06 	0 	1.94993 	
-0.00223383 	2.33924 	893.529 	893.532 	0.417405 	201.416 	-0.019833 	0.000111111 	
0.00121223 	0.00121223 	
0.00216667 	5.49324e-08 	0.294 	0.206 	0.5 	-0.145905 	1.80402 	
-12.5992 	2.18661e-06 	1007.1 	1102.14 	
1.94992 	1.94994 	-1.3211e-05 	0 	1.94992 	
-0.00223383 	2.33924 	893.529 	893.532 	0.417405 	201.416 	-0.0625532 	0.000111111 	
0.00121223 	0.00121223 	
0.00227778 	5.22495e-08 	0.294 	0.206 	0.5 	-0.147098 	1.80279 	
-48.8846 	2.07981e-06 	976.356 	1132.88 	
1.94988 	1.94994 	-5.12583e-05 	0 	1.94988 	
-0.00223384 	2.33925 	893.529 	893.532 	0.417405 	201.416 	-0.242704 	0.000111111 	
0.00121223 	0.00121223 	
0.00238889 	4.16794e-08 	0.294 	0.206 	0.5 	-0.148234 	1.8015 	
-192.571 	1.65907e-06 	855.629 	1253.6 	
1.94973 	1.94994 	-0.000201921 	0 	1.94973 	
-0.00223386 	2.33927 	893.529 	893.532 	0.417405 	201.416 	-0.956083 	0.000111111 	
0.00121223 	0.00121223 	
0.0025 	0 	0.294 	0.206 	0.5 	-0.149139 	1.8 	
-759.344 	1.65907e-06 	379.672 	1729.56 	
1.94914 	1.94994 	-0.00079621 	0 	1.94914 	
-0.00223406 	1.16974 	893.529 	893.532 	0.417405 	100.708 	-7.54004 	5.55556e-05 	
0.000606113 	0.000606113 	
ZONE T = "t = 3.51719e-07 [s]" I = 10 SOLUTIONTIME = 3.5171875000000E-07
0.0015 	7.10373e-08 	0.294 	0.206 	0.5 	-0.13819 	1.81089 	
-815.03 	2.82766e-06 	1701.72 	407.515 	
1.94908 	1.94994 	-0.000854599 	0 	1.94908 	
-0.0022342 	1.16981 	893.529 	893.532 	0.417405 	100.708 	-8.09299 	5.55556e-05 	
0.000606113 	0.000606113 	
0.00161111 	5.96924e-08 	0.294 	0.206 	0.5 	-0.139733 	1.80999 	
-206.691 	2.37607e-06 	1190.86 	918.375 	
1.94972 	1.94994 	-0.000216727 	0 	1.94972 	
-0.00223388 	2.33929 	893.529 	893.532 	0.417405 	201.416 	-1.02619 	0.000111111 	
0.00121223 	0.00121223 	
0.00172222 	5.6813e-08 	0.294 	0.206 	0.5 	-0.14103 	1.80885 	
-52.4617 	2.26145e-06 	1061.28 	1047.95 	
1.94988 	1.94994 	-5.50091e-05 	0 	1.94988 	
-0.00223384 	2.33925 	893.529 	893.532 	0.417405 	201.416 	-0.260464 	0.000111111 	
0.00121223 	0.00121223 	