TITLE = "Solution on Domain BulkDomain1D_2"
VARIABLES = "x [m]"  
"Vel_axial" 	"MF_sp(ECDMC)" 	"MF_sp(Li+)" 	"MF_sp(PF6-)" 	"Volt(Electroly)" 	"Volt(CathodeVo)" 	
"Potential Drop Electrode-Electrolyte [V]" 	"Surf_0 Equilibrium Potential Drop Electrode-Electrolyte [V]" 	"Overpotential_0 [V]" 	"Current Source [A/m^2]" 	"Li+ flux [kmol/m^2/s]" 	"Electrolyte Current [A/m^2]" 	"Electrode Current [A/m^2]" 	
"CV Capacity discharged [A-s/m^2]" 	"Depth of discharge in CV [A-s/m^2]" 	"CV Capacity remaining [A-s/m^2]" 	"Initial CV capacity [A-s/m^2]" 	"Porosity []" 	"Surface Area [m2/m2] (area per area)" 	"Specific current (per particle area) [A/m^2]" 	"Control volume thickness [m]" 	
"MoleDens LiCoO2 [kmol/m^3]" 	"MoleDens CoO2 [kmol/m^3]" 	"qHeat_accum [J/m3]" 	"qHeat_step [W/m3]" 	"Joule_Lyte [W/m3]" 	"Joule_Solid [W/m3]" 	"electrodHeat [W/m3]" 	"OverpotHeat [W/m3]" 	"deltaSHeat [W/m3]" 	

ZONE T = "CATH, 0.0000E+00", I = 10, SOLUTIONTIME = 0.000000E+00
ZONETYPE = ORDERED
DATAPACKING = BLOCK
STRANDID = 3
 1.2700000000000E-03  1.3377333333333E-03  1.4054666666667E-03  1.4732000000000E-03  1.5409333333333E-03  1.6086666666667E-03  1.6764000000000E-03  1.7441333333333E-03  1.8118666666667E-03  1.8796000000000E-03 
 0.0000000000000E+00  0.0000000000000E+00  0.0000000000000E+00  0.0000000000000E+00  0.0000000000000E+00  0.0000000000000E+00  0.0000000000000E+00  0.0000000000000E+00  0.0000000000000E+00  0.0000000000000E+00 
 9.2000000000000E-01  9.2000000000000E-01  9.2000000000000E-01  9.2000000000000E-01  9.2000000000000E-01  9.2000000000000E-01  9.2000000000000E-01  9.2000000000000E-01  9.2000000000000E-01  9.2000000000000E-01 
 4.0000000000000E-02  4.0000000000000E-02  4.0000000000000E-02  4.0000000000000E-02  4.0000000000000E-02  4.0000000000000E-02  4.0000000000000E-02  4.0000000000000E-02  4.0000000000000E-02  4.0000000000000E-02 
 4.0000000000000E-02  4.0000000000000E-02  4.0000000000000E-02  4.0000000000000E-02  4.0000000000000E-02  4.0000000000000E-02  4.0000000000000E-02  4.0000000000000E-02  4.0000000000000E-02  4.0000000000000E-02 
-7.0000000000000E-02 -7.0000000000000E-02 -7.0000000000000E-02 -7.0000000000000E-02 -7.0000000000000E-02 -7.0000000000000E-02 -7.0000000000000E-02 -7.0000000000000E-02 -7.0000000000000E-02 -7.0000000000000E-02 
 3.8000000000000E+00  3.8000000000000E+00  3.8000000000000E+00  3.8000000000000E+00  3.8000000000000E+00  3.8000000000000E+00  3.8000000000000E+00  3.8000000000000E+00  3.8000000000000E+00  3.8000000000000E+00 
 3.8700000000000E+00  3.8700000000000E+00  3.8700000000000E+00  3.8700000000000E+00  3.8700000000000E+00  3.8700000000000E+00  3.8700000000000E+00  3.8700000000000E+00  3.8700000000000E+00  3.8700000000000E+00 
 3.9714218047884E+00  3.9714218047884E+00  3.9714218047884E+00  3.9714218047884E+00  3.9714218047884E+00  3.9714218047884E+00  3.9714218047884E+00  3.9714218047884E+00  3.9714218047884E+00  3.9714218047884E+00 
-1.0142180478844E-01 -1.0142180478844E-01 -1.0142180478844E-01 -1.0142180478844E-01 -1.0142180478844E-01 -1.0142180478844E-01 -1.0142180478844E-01 -1.0142180478844E-01 -1.0142180478844E-01 -1.0142180478844E-01 
-2.3829988127905E-01 -4.7659976255810E-01 -4.7659976255810E-01 -4.7659976255810E-01 -4.7659976255810E-01 -4.7659976255810E-01 -4.7659976255810E-01 -4.7659976255810E-01 -4.7659976255810E-01 -2.3829988127905E-01 
-0.0000000000000E+00 -0.0000000000000E+00 -0.0000000000000E+00 -0.0000000000000E+00 -0.0000000000000E+00 -0.0000000000000E+00 -0.0000000000000E+00 -0.0000000000000E+00 -0.0000000000000E+00 -0.0000000000000E+00 
 2.3829988127905E-01  0.0000000000000E+00  0.0000000000000E+00  0.0000000000000E+00  0.0000000000000E+00  0.0000000000000E+00  0.0000000000000E+00  0.0000000000000E+00  0.0000000000000E+00  0.0000000000000E+00 
 0.0000000000000E+00 -0.0000000000000E+00 -0.0000000000000E+00 -0.0000000000000E+00 -0.0000000000000E+00 -0.0000000000000E+00 -0.0000000000000E+00 -0.0000000000000E+00 -0.0000000000000E+00  2.3829988127905E-01 
-0.0000000000000E+00 -0.0000000000000E+00 -0.0000000000000E+00 -0.0000000000000E+00 -0.0000000000000E+00 -0.0000000000000E+00 -0.0000000000000E+00 -0.0000000000000E+00 -0.0000000000000E+00 -0.0000000000000E+00 
 7.2440786946225E+03  1.4488157389245E+04  1.4488157389245E+04  1.4488157389245E+04  1.4488157389245E+04  1.4488157389245E+04  1.4488157389245E+04  1.4488157389245E+04  1.4488157389245E+04  7.2440786946225E+03 
 4.9259735123433E+04  9.8519470246865E+04  9.8519470246866E+04  9.8519470246865E+04  9.8519470246866E+04  9.8519470246866E+04  9.8519470246865E+04  9.8519470246866E+04  9.8519470246865E+04  4.9259735123433E+04 
 5.6503813818055E+04  1.1300762763611E+05  1.1300762763611E+05  1.1300762763611E+05  1.1300762763611E+05  1.1300762763611E+05  1.1300762763611E+05  1.1300762763611E+05  1.1300762763611E+05  5.6503813818055E+04 
 3.5000000000000E-01  3.5000000000000E-01  3.5000000000000E-01  3.5000000000000E-01  3.5000000000000E-01  3.5000000000000E-01  3.5000000000000E-01  3.5000000000000E-01  3.5000000000000E-01  3.5000000000000E-01 
 6.6040000000000E+00  1.3208000000000E+01  1.3208000000000E+01  1.3208000000000E+01  1.3208000000000E+01  1.3208000000000E+01  1.3208000000000E+01  1.3208000000000E+01  1.3208000000000E+01  6.6040000000000E+00 
-3.6084173422024E-02 -3.6084173422024E-02 -3.6084173422024E-02 -3.6084173422024E-02 -3.6084173422024E-02 -3.6084173422024E-02 -3.6084173422024E-02 -3.6084173422024E-02 -3.6084173422024E-02 -3.6084173422024E-02 
 3.3866666666667E-05  6.7733333333333E-05  6.7733333333334E-05  6.7733333333333E-05  6.7733333333334E-05  6.7733333333334E-05  6.7733333333333E-05  6.7733333333334E-05  6.7733333333333E-05  3.3866666666667E-05 
 2.6603001364256E+01  2.6603001364256E+01  2.6603001364256E+01  2.6603001364256E+01  2.6603001364256E+01  2.6603001364256E+01  2.6603001364256E+01  2.6603001364256E+01  2.6603001364256E+01  2.6603001364256E+01 
 1.7735334242838E+01  1.7735334242838E+01  1.7735334242838E+01  1.7735334242838E+01  1.7735334242838E+01  1.7735334242838E+01  1.7735334242838E+01  1.7735334242838E+01  1.7735334242838E+01  1.7735334242838E+01 
 0.0000000000000E+00  0.0000000000000E+00  0.0000000000000E+00  0.0000000000000E+00  0.0000000000000E+00  0.0000000000000E+00  0.0000000000000E+00  0.0000000000000E+00  0.0000000000000E+00  0.0000000000000E+00 
 0.0000000000000E+00  0.0000000000000E+00  0.0000000000000E+00  0.0000000000000E+00  0.0000000000000E+00  0.0000000000000E+00  0.0000000000000E+00  0.0000000000000E+00  0.0000000000000E+00  0.0000000000000E+00 
 0.0000000000000E+00  0.0000000000000E+00  0.0000000000000E+00  0.0000000000000E+00  0.0000000000000E+00  0.0000000000000E+00  0.0000000000000E+00  0.0000000000000E+00  0.0000000000000E+00  0.0000000000000E+00 
 0.0000000000000E+00  0.0000000000000E+00  0.0000000000000E+00  0.0000000000000E+00  0.0000000000000E+00  0.0000000000000E+00  0.0000000000000E+00  0.0000000000000E+00  0.0000000000000E+00  0.0000000000000E+00 
 0.0000000000000E+00  0.0000000000000E+00  0.0000000000000E+00  0.0000000000000E+00  0.0000000000000E+00  0.0000000000000E+00  0.0000000000000E+00  0.0000000000000E+00  0.0000000000000E+00  0.0000000000000E+00 
 0.0000000000000E+00  0.0000000000000E+00  0.0000000000000E+00  0.0000000000000E+00  0.0000000000000E+00  0.0000000000000E+00  0.0000000000000E+00  0.0000000000000E+00  0.0000000000000E+00  0.0000000000000E+00 
 0.0000000000000E+00  0.0000000000000E+00  0.0000000000000E+00  0.0000000000000E+00  0.0000000000000E+00  0.0000000000000E+00  0.0000000000000E+00  0.0000000000000E+00  0.0000000000000E+00  0.0000000000000E+00 
ZONE T = "CATH, 1.0000E-08", I = 10, SOLUTIONTIME = 1.000000E-08
ZONETYPE = ORDERED
DATAPACKING = BLOCK
STRANDID = 3
 1.2700000000000E-03  1.3377333333333E-03  1.4054666666667E-03  1.4732000000000E-03  1.5409333333333E-03  1.6086666666667E-03  1.6764000000000E-03  1.7441333333333E-03  1.8118666666667E-03  1.8796000000000E-03 
 1.9704326269246E-08  1.7388422721739E-08  1.5072235855860E-08  1.2755570098028E-08  1.0438229713004E-08  8.1200187380339E-09  5.8003777089865E-09  3.4798364246999E-09  1.1581978410297E-09 -3.8136810957628E-12 
 9.2000000000032E-01  9.2000000000090E-01  9.2000000000090E-01  9.2000000000090E-01  9.2000000000090E-01  9.2000000000090E-01  9.2000000000090E-01  9.2000000000090E-01  9.2000000000090E-01  9.2000000000090E-01 
 3.9999999999841E-02  3.9999999999551E-02  3.9999999999551E-02  3.9999999999551E-02  3.9999999999550E-02  3.9999999999550E-02  3.9999999999550E-02  3.9999999999550E-02  3.9999999999550E-02  3.9999999999549E-02 
 3.9999999999841E-02  3.9999999999551E-02  3.9999999999551E-02  3.9999999999551E-02  3.9999999999550E-02  3.9999999999550E-02  3.9999999999550E-02  3.9999999999550E-02  3.9999999999550E-02  3.9999999999549E-02 
 2.9158119813863E-02  2.9157912803707E-02  2.9157730119540E-02  2.9157571764320E-02  2.9157437743096E-02  2.9157328062960E-02  2.9157242733034E-02  2.9157181764547E-02  2.9157145170769E-02  2.9157132967037E-02 
 3.8001746420680E+00  3.8001724871795E+00  3.8001660223504E+00  3.8001552470535E+00  3.8001401603973E+00  3.8001207611262E+00  3.8000970476197E+00  3.8000690178921E+00  3.8000366695917E+00  3.8000000000000E+00 
 3.7710165222541E+00  3.7710145743758E+00  3.7710082922309E+00  3.7709976752892E+00  3.7709827226542E+00  3.7709634330632E+00  3.7709398048866E+00  3.7709118361275E+00  3.7708795244209E+00  3.7708428670330E+00 
 3.9714218047883E+00  3.9714218047881E+00  3.9714218047881E+00  3.9714218047881E+00  3.9714218047881E+00  3.9714218047881E+00  3.9714218047881E+00  3.9714218047881E+00  3.9714218047881E+00  3.9714218047881E+00 
-2.0040528253414E-01 -2.0040723041232E-01 -2.0041351255721E-01 -2.0042412949892E-01 -2.0043908213388E-01 -2.0045837172486E-01 -2.0048199990142E-01 -2.0050996866054E-01 -2.0054228036717E-01 -2.0057893775511E-01 
-1.6672260833134E+00 -3.3345786730991E+00 -3.3349867045234E+00 -3.3356763985290E+00 -3.3366479878110E+00 -3.3379018002942E+00 -3.3394382593665E+00 -3.3412578841900E+00 -3.3433612900674E+00 -1.6728745944442E+00 
 1.4705141068137E-07  1.2977112170873E-07  1.1248886495172E-07  9.5203021193120E-08  7.7912139124013E-08  6.0614778602201E-08  4.3309439758266E-08  2.5994675650932E-08  8.6690162786549E-09  8.6690162786549E-09 
 3.0043810173513E+01  2.6709302383458E+01  2.3374536317051E+01  2.0039221504551E+01  1.6703074476193E+01  1.3365816249172E+01  1.0027163154976E+01  6.6868308699754E+00  3.3445379518752E+00  0.0000000000000E+00 
 0.0000000000000E+00  3.3344992704294E+00  6.6692657898506E+00  1.0004581130918E+01  1.3340727051995E+01  1.6677985590954E+01  2.0016639161036E+01  2.3356970646544E+01  2.6699263499212E+01  3.0043810331815E+01 
 1.6672260833134E-08  3.3345786730991E-08  3.3349867045234E-08  3.3356763985290E-08  3.3366479878110E-08  3.3379018002942E-08  3.3394382593665E-08  3.3412578841900E-08  3.3433612900674E-08  1.6728745944442E-08 
 7.2440786946392E+03  1.4488157389278E+04  1.4488157389278E+04  1.4488157389278E+04  1.4488157389278E+04  1.4488157389278E+04  1.4488157389278E+04  1.4488157389278E+04  1.4488157389278E+04  7.2440786946392E+03 
 4.9259735123416E+04  9.8519470246832E+04  9.8519470246832E+04  9.8519470246832E+04  9.8519470246832E+04  9.8519470246832E+04  9.8519470246832E+04  9.8519470246832E+04  9.8519470246832E+04  4.9259735123416E+04 
 5.6503813818055E+04  1.1300762763611E+05  1.1300762763611E+05  1.1300762763611E+05  1.1300762763611E+05  1.1300762763611E+05  1.1300762763611E+05  1.1300762763611E+05  1.1300762763611E+05  5.6503813818055E+04 
 3.5000000000000E-01  3.5000000000000E-01  3.5000000000000E-01  3.5000000000000E-01  3.5000000000000E-01  3.5000000000000E-01  3.5000000000000E-01  3.5000000000000E-01  3.5000000000000E-01  3.5000000000000E-01 
 6.6040000000000E+00  1.3208000000000E+01  1.3208000000000E+01  1.3208000000000E+01  1.3208000000000E+01  1.3208000000000E+01  1.3208000000000E+01  1.3208000000000E+01  1.3208000000000E+01  6.6040000000000E+00 
-2.5245700837574E-01 -2.5246658639454E-01 -2.5249747914320E-01 -2.5254969704187E-01 -2.5262325770828E-01 -2.5271818597018E-01 -2.5283451388299E-01 -2.5297228075333E-01 -2.5313153316683E-01 -2.5331232502184E-01 
 3.3866666666667E-05  6.7733333333333E-05  6.7733333333334E-05  6.7733333333333E-05  6.7733333333334E-05  6.7733333333334E-05  6.7733333333333E-05  6.7733333333334E-05  6.7733333333333E-05  3.3866666666667E-05 
 2.6603001364262E+01  2.6603001364262E+01  2.6603001364262E+01  2.6603001364262E+01  2.6603001364262E+01  2.6603001364262E+01  2.6603001364262E+01  2.6603001364262E+01  2.6603001364262E+01  2.6603001364262E+01 
 1.7735334242833E+01  1.7735334242833E+01  1.7735334242833E+01  1.7735334242833E+01  1.7735334242833E+01  1.7735334242833E+01  1.7735334242833E+01  1.7735334242833E+01  1.7735334242833E+01  1.7735334242833E+01 
 1.3976737291470E-09  3.4235246184832E-09  9.6096577106964E-09  2.0066058371911E-08  3.4796258682459E-08  5.3805236452317E-08  7.7099418442897E-08  1.0468668513131E-07  1.3657637647850E-07  1.5359808721020E-07 
 1.3976737291470E-01  3.4235246184832E-01  9.6096577106964E-01  2.0066058371911E+00  3.4796258682459E+00  5.3805236452317E+00  7.7099418442897E+00  1.0468668513131E+01  1.3657637647850E+01  1.5359808721020E+01 
 8.6726000623482E-02  7.7133526964391E-02  5.9145219003841E-02  4.3550058857436E-02  3.0348208150286E-02  1.9540657477127E-02  1.1129192671295E-02  5.1164118537195E-03  1.5057378214500E-03  3.0140561188308E-04 
 5.3041372291214E-02  2.6521893488393E-01  9.0182055206580E-01  1.9630557783337E+00  3.4492776600956E+00  5.3609829877546E+00  7.6988126516184E+00  1.0463552101277E+01  1.3656131910028E+01  1.5359507315408E+01 
 0.0000000000000E+00  0.0000000000000E+00  0.0000000000000E+00  0.0000000000000E+00  0.0000000000000E+00  0.0000000000000E+00  0.0000000000000E+00  0.0000000000000E+00  0.0000000000000E+00  0.0000000000000E+00 
 0.0000000000000E+00  0.0000000000000E+00  0.0000000000000E+00  0.0000000000000E+00  0.0000000000000E+00  0.0000000000000E+00  0.0000000000000E+00  0.0000000000000E+00  0.0000000000000E+00  0.0000000000000E+00 
 0.0000000000000E+00  0.0000000000000E+00  0.0000000000000E+00  0.0000000000000E+00  0.0000000000000E+00  0.0000000000000E+00  0.0000000000000E+00  0.0000000000000E+00  0.0000000000000E+00  0.0000000000000E+00 
ZONE T = "CATH, 2.0000E-08", I = 10, SOLUTIONTIME = 2.000000E-08
ZONETYPE = ORDERED
DATAPACKING = BLOCK
STRANDID = 3
 1.2700000000000E-03  1.3377333333333E-03  1.4054666666667E-03  1.4732000000000E-03  1.5409333333333E-03  1.6086666666667E-03  1.6764000000000E-03  1.7441333333333E-03  1.8118666666667E-03  1.8796000000000E-03 
 1.9701699892611E-08  1.7386511482739E-08  1.5070313316542E-08  1.2753636220319E-08  1.0436647651050E-08  8.1187884225448E-09  5.7998622623260E-09  3.4789461219432E-09  1.1569325643032E-09 -4.9033043250280E-12 
 9.2000000000063E-01  9.2000000000180E-01  9.2000000000180E-01  9.2000000000180E-01  9.2000000000180E-01  9.2000000000180E-01  9.2000000000180E-01  9.2000000000180E-01  9.2000000000180E-01  9.2000000000180E-01 
 3.9999999999683E-02  3.9999999999101E-02  3.9999999999101E-02  3.9999999999101E-02  3.9999999999101E-02  3.9999999999100E-02  3.9999999999100E-02  3.9999999999100E-02  3.9999999999099E-02  3.9999999999098E-02 
 3.9999999999683E-02  3.9999999999101E-02  3.9999999999101E-02  3.9999999999101E-02  3.9999999999101E-02  3.9999999999100E-02  3.9999999999100E-02  3.9999999999100E-02  3.9999999999099E-02  3.9999999999098E-02 
 2.9158121998900E-02  2.9157914987720E-02  2.9157732302641E-02  2.9157573946640E-02  2.9157439924749E-02  2.9157330244056E-02  2.9157244913708E-02  2.9157183944912E-02  2.9157147350944E-02  2.9157135147147E-02 
 3.8001746429253E+00  3.8001724880263E+00  3.8001660231657E+00  3.8001552478163E+00  3.8001401610865E+00  3.8001207617205E+00  3.8000970480979E+00  3.8000690182326E+00  3.8000366697729E+00  3.8000000000000E+00 
 3.7710165209264E+00  3.7710145730385E+00  3.7710082908631E+00  3.7709976738696E+00  3.7709827211617E+00  3.7709634314765E+00  3.7709398031842E+00  3.7709118342877E+00  3.7708795224220E+00  3.7708428648529E+00 
 3.9714218047881E+00  3.9714218047877E+00  3.9714218047877E+00  3.9714218047877E+00  3.9714218047877E+00  3.9714218047877E+00  3.9714218047877E+00  3.9714218047877E+00  3.9714218047877E+00  3.9714218047877E+00 
-2.0040528386171E-01 -2.0040723174917E-01 -2.0041351392462E-01 -2.0042413091807E-01 -2.0043908362598E-01 -2.0045837331123E-01 -2.0048200160353E-01 -2.0050997049998E-01 -2.0054228236575E-01 -2.0057893993485E-01 
-1.6672261264188E+00 -3.3345787599036E+00 -3.3349867933241E+00 -3.3356764907091E+00 -3.3366480847589E+00 -3.3379019034066E+00 -3.3394383700539E+00 -3.3412580038751E+00 -3.3433614201905E+00 -1.6728746654549E+00 
 1.4705227082784E-07  1.2977176979150E-07  1.1248941938724E-07  9.5203494878553E-08  7.7912535436937E-08  6.0615078546323E-08  4.3309659473906E-08  2.5994810818193E-08  8.6690619691127E-09  8.6690619691127E-09 
 3.0043950618313E+01  2.6709435111784E+01  2.3374652335186E+01  2.0039320693176E+01  1.6703158405215E+01  1.3365883411222E+01  1.0027213274691E+01  6.6868650875720E+00  3.3445553753922E+00  0.0000000000000E+00 
 0.0000000000000E+00  3.3345155063300E+00  6.6692982829543E+00  1.0004629925032E+01  1.3340792212745E+01  1.6678067206813E+01  2.0016737343672E+01  2.3357085530641E+01  2.6699395242478E+01  3.0043950617938E+01 
 3.3344522097322E-08  6.6691574330027E-08  6.6699734978475E-08  6.6713528892381E-08  6.6732960725699E-08  6.6758037037008E-08  6.6788766294204E-08  6.6825158880650E-08  6.6867227102580E-08  3.3457492598991E-08 
 7.2440786946558E+03  1.4488157389312E+04  1.4488157389312E+04  1.4488157389312E+04  1.4488157389312E+04  1.4488157389312E+04  1.4488157389312E+04  1.4488157389312E+04  1.4488157389312E+04  7.2440786946559E+03 
 4.9259735123400E+04  9.8519470246798E+04  9.8519470246799E+04  9.8519470246798E+04  9.8519470246799E+04  9.8519470246799E+04  9.8519470246798E+04  9.8519470246799E+04  9.8519470246798E+04  4.9259735123399E+04 
 5.6503813818055E+04  1.1300762763611E+05  1.1300762763611E+05  1.1300762763611E+05  1.1300762763611E+05  1.1300762763611E+05  1.1300762763611E+05  1.1300762763611E+05  1.1300762763611E+05  5.6503813818055E+04 
 3.5000000000000E-01  3.5000000000000E-01  3.5000000000000E-01  3.5000000000000E-01  3.5000000000000E-01  3.5000000000000E-01  3.5000000000000E-01  3.5000000000000E-01  3.5000000000000E-01  3.5000000000000E-01 
 6.6040000000000E+00  1.3208000000000E+01  1.3208000000000E+01  1.3208000000000E+01  1.3208000000000E+01  1.3208000000000E+01  1.3208000000000E+01  1.3208000000000E+01  1.3208000000000E+01  6.6040000000000E+00 
-2.5245701490290E-01 -2.5246659296666E-01 -2.5249748586645E-01 -2.5254970402098E-01 -2.5262326504837E-01 -2.5271819377700E-01 -2.5283452226332E-01 -2.5297228981489E-01 -2.5313154301867E-01 -2.5331233577451E-01 
 3.3866666666667E-05  6.7733333333333E-05  6.7733333333334E-05  6.7733333333333E-05  6.7733333333334E-05  6.7733333333334E-05  6.7733333333333E-05  6.7733333333334E-05  6.7733333333333E-05  3.3866666666667E-05 
 2.6603001364267E+01  2.6603001364267E+01  2.6603001364267E+01  2.6603001364267E+01  2.6603001364267E+01  2.6603001364267E+01  2.6603001364267E+01  2.6603001364267E+01  2.6603001364267E+01  2.6603001364267E+01 
 1.7735334242827E+01  1.7735334242827E+01  1.7735334242827E+01  1.7735334242827E+01  1.7735334242827E+01  1.7735334242827E+01  1.7735334242827E+01  1.7735334242827E+01  1.7735334242827E+01  1.7735334242827E+01 
 2.7953612042020E-09  6.8470827297617E-09  1.9219409178336E-08  4.0132312556280E-08  6.9592857396023E-08  1.0761099962058E-07  1.5419959333851E-07  2.0937440022093E-07  2.7315410093955E-07  3.0719769265393E-07 
 1.3976874750551E-01  3.4235581112785E-01  9.6097514676391E-01  2.0066254184369E+00  3.4796598713563E+00  5.3805763168267E+00  7.7100174895610E+00  1.0468771508962E+01  1.3657772446106E+01  1.5359960544373E+01 
 8.6726858832273E-02  7.7134293356827E-02  5.9145806406705E-02  4.3550489814376E-02  3.0348512807439E-02  1.9540854186513E-02  1.1129303710790E-02  5.1164640769414E-03  1.5057534831275E-03  3.0140877907997E-04 
 5.3041888673234E-02  2.6522151777102E-01  9.0182934035721E-01  1.9630749286225E+00  3.4493113585489E+00  5.3610354626402E+00  7.6988881858502E+00  1.0463655044885E+01  1.3656266692623E+01  1.5359659135594E+01 
 0.0000000000000E+00  0.0000000000000E+00  0.0000000000000E+00  0.0000000000000E+00  0.0000000000000E+00  0.0000000000000E+00  0.0000000000000E+00  0.0000000000000E+00  0.0000000000000E+00  0.0000000000000E+00 
 0.0000000000000E+00  0.0000000000000E+00  0.0000000000000E+00  0.0000000000000E+00  0.0000000000000E+00  0.0000000000000E+00  0.0000000000000E+00  0.0000000000000E+00  0.0000000000000E+00  0.0000000000000E+00 
 0.0000000000000E+00  0.0000000000000E+00  0.0000000000000E+00  0.0000000000000E+00  0.0000000000000E+00  0.0000000000000E+00  0.0000000000000E+00  0.0000000000000E+00  0.0000000000000E+00  0.0000000000000E+00 
ZONE T = "CATH, 3.0000E-08", I = 10, SOLUTIONTIME = 3.000000E-08
ZONETYPE = ORDERED
DATAPACKING = BLOCK
STRANDID = 3
 1.2700000000000E-03  1.3377333333333E-03  1.4054666666667E-03  1.4732000000000E-03  1.5409333333333E-03  1.6086666666667E-03  1.6764000000000E-03  1.7441333333333E-03  1.8118666666667E-03  1.8796000000000E-03 
 1.9707511215970E-08  1.7391596390677E-08  1.5076124639969E-08  1.2760173959234E-08  1.0442822182271E-08  8.1249629537994E-09  5.8060367936141E-09  3.4865734841761E-09  1.1652863420252E-09  3.8136811416366E-12 
 9.2000000000095E-01  9.2000000000270E-01  9.2000000000270E-01  9.2000000000270E-01  9.2000000000270E-01  9.2000000000270E-01  9.2000000000270E-01  9.2000000000270E-01  9.2000000000270E-01  9.2000000000270E-01 
 3.9999999999524E-02  3.9999999998652E-02  3.9999999998652E-02  3.9999999998652E-02  3.9999999998651E-02  3.9999999998651E-02  3.9999999998650E-02  3.9999999998649E-02  3.9999999998649E-02  3.9999999998648E-02 
 3.9999999999524E-02  3.9999999998652E-02  3.9999999998652E-02  3.9999999998652E-02  3.9999999998651E-02  3.9999999998651E-02  3.9999999998650E-02  3.9999999998649E-02  3.9999999998649E-02  3.9999999998648E-02 
 2.9158121998829E-02  2.9157914987649E-02  2.9157732302570E-02  2.9157573946569E-02  2.9157439924678E-02  2.9157330243985E-02  2.9157244913636E-02  2.9157183944841E-02  2.9157147350873E-02  2.9157135147076E-02 
 3.8001746429253E+00  3.8001724880263E+00  3.8001660231657E+00  3.8001552478163E+00  3.8001401610865E+00  3.8001207617205E+00  3.8000970480979E+00  3.8000690182326E+00  3.8000366697729E+00  3.8000000000000E+00 
 3.7710165209264E+00  3.7710145730386E+00  3.7710082908631E+00  3.7709976738697E+00  3.7709827211618E+00  3.7709634314765E+00  3.7709398031842E+00  3.7709118342878E+00  3.7708795224220E+00  3.7708428648529E+00 
 3.9714218047879E+00  3.9714218047873E+00  3.9714218047873E+00  3.9714218047873E+00  3.9714218047873E+00  3.9714218047873E+00  3.9714218047873E+00  3.9714218047873E+00  3.9714218047873E+00  3.9714218047873E+00 
-2.0040528386146E-01 -2.0040723174873E-01 -2.0041351392419E-01 -2.0042413091763E-01 -2.0043908362554E-01 -2.0045837331079E-01 -2.0048200160309E-01 -2.0050997049954E-01 -2.0054228236531E-01 -2.0057893993441E-01 
-1.6672261264069E+00 -3.3345787598556E+00 -3.3349867932761E+00 -3.3356764906610E+00 -3.3366480847108E+00 -3.3379019033584E+00 -3.3394383700056E+00 -3.3412580038267E+00 -3.3433614201421E+00 -1.6728746654306E+00 
 1.4705240339766E-07  1.2977176982120E-07  1.1248941942543E-07  9.5203494936878E-08  7.7912535512046E-08  6.0615078641129E-08  4.3309659586382E-08  2.5994810949481E-08  8.6690621131327E-09  8.6690621131327E-09 
 3.0043950618086E+01  2.6709435111536E+01  2.3374652334686E+01  2.0039320692713E+01  1.6703158405027E+01  1.3365883411072E+01  1.0027213274579E+01  6.6868650874967E+00  3.3445553753546E+00  0.0000000000000E+00 
 0.0000000000000E+00  3.3345155063300E+00  6.6692982827825E+00  1.0004629924860E+01  1.3340792212573E+01  1.6678067206470E+01  2.0016737343328E+01  2.3357085530298E+01  2.6699395242135E+01  3.0043950617570E+01 
 5.0016783361391E-08  1.0003736192858E-07  1.0004960291124E-07  1.0007029379899E-07  1.0009944157281E-07  1.0013705607059E-07  1.0018314999426E-07  1.0023773891892E-07  1.0030084130400E-07  5.0186239253296E-08 
 7.2440786946725E+03  1.4488157389345E+04  1.4488157389345E+04  1.4488157389345E+04  1.4488157389345E+04  1.4488157389345E+04  1.4488157389345E+04  1.4488157389345E+04  1.4488157389345E+04  7.2440786946727E+03 
 4.9259735123383E+04  9.8519470246765E+04  9.8519470246766E+04  9.8519470246765E+04  9.8519470246766E+04  9.8519470246766E+04  9.8519470246765E+04  9.8519470246766E+04  9.8519470246765E+04  4.9259735123383E+04 
 5.6503813818055E+04  1.1300762763611E+05  1.1300762763611E+05  1.1300762763611E+05  1.1300762763611E+05  1.1300762763611E+05  1.1300762763611E+05  1.1300762763611E+05  1.1300762763611E+05  5.6503813818055E+04 
 3.5000000000000E-01  3.5000000000000E-01  3.5000000000000E-01  3.5000000000000E-01  3.5000000000000E-01  3.5000000000000E-01  3.5000000000000E-01  3.5000000000000E-01  3.5000000000000E-01  3.5000000000000E-01 
 6.6040000000000E+00  1.3208000000000E+01  1.3208000000000E+01  1.3208000000000E+01  1.3208000000000E+01  1.3208000000000E+01  1.3208000000000E+01  1.3208000000000E+01  1.3208000000000E+01  6.6040000000000E+00 
-2.5245701490110E-01 -2.5246659296302E-01 -2.5249748586281E-01 -2.5254970401734E-01 -2.5262326504473E-01 -2.5271819377335E-01 -2.5283452225966E-01 -2.5297228981123E-01 -2.5313154301500E-01 -2.5331233577083E-01 
 3.3866666666667E-05  6.7733333333333E-05  6.7733333333334E-05  6.7733333333333E-05  6.7733333333334E-05  6.7733333333334E-05  6.7733333333333E-05  6.7733333333334E-05  6.7733333333333E-05  3.3866666666667E-05 
 2.6603001364272E+01  2.6603001364272E+01  2.6603001364272E+01  2.6603001364272E+01  2.6603001364272E+01  2.6603001364272E+01  2.6603001364272E+01  2.6603001364272E+01  2.6603001364272E+01  2.6603001364272E+01 
 1.7735334242822E+01  1.7735334242822E+01  1.7735334242822E+01  1.7735334242822E+01  1.7735334242822E+01  1.7735334242822E+01  1.7735334242822E+01  1.7735334242822E+01  1.7735334242822E+01  1.7735334242822E+01 
 4.1930486792505E-09  1.0270640841033E-08  2.8829160645410E-08  6.0198566740086E-08  1.0438945610860E-07  1.6141676278666E-07  2.3129976823149E-07  3.1406211530748E-07  4.0973182539711E-07  4.6079729809393E-07 
 1.3976874750485E-01  3.4235581112714E-01  9.6097514670748E-01  2.0066254183806E+00  3.4796598712576E+00  5.3805763166078E+00  7.7100174892984E+00  1.0468771508655E+01  1.3657772445756E+01  1.5359960544001E+01 
 8.6726858831614E-02  7.7134293356118E-02  5.9145806404929E-02  4.3550489812775E-02  3.0348512807097E-02  1.9540854186294E-02  1.1129303710665E-02  5.1164640768838E-03  1.5057534831105E-03  3.0140877907658E-04 
 5.3041888673234E-02  2.6522151777102E-01  9.0182934030255E-01  1.9630749285678E+00  3.4493113584505E+00  5.3610354624215E+00  7.6988881855877E+00  1.0463655044579E+01  1.3656266692272E+01  1.5359659135222E+01 
 0.0000000000000E+00  0.0000000000000E+00  0.0000000000000E+00  0.0000000000000E+00  0.0000000000000E+00  0.0000000000000E+00  0.0000000000000E+00  0.0000000000000E+00  0.0000000000000E+00  0.0000000000000E+00 
 0.0000000000000E+00  0.0000000000000E+00  0.0000000000000E+00  0.0000000000000E+00  0.0000000000000E+00  0.0000000000000E+00  0.0000000000000E+00  0.0000000000000E+00  0.0000000000000E+00  0.0000000000000E+00 
 0.0000000000000E+00  0.0000000000000E+00  0.0000000000000E+00  0.0000000000000E+00  0.0000000000000E+00  0.0000000000000E+00  0.0000000000000E+00  0.0000000000000E+00  0.0000000000000E+00  0.0000000000000E+00 
ZONE T = "CATH, 4.0000E-08", I = 10, SOLUTIONTIME = 4.000000E-08
ZONETYPE = ORDERED
DATAPACKING = BLOCK
STRANDID = 3
 1.2700000000000E-03  1.3377333333333E-03  1.4054666666667E-03  1.4732000000000E-03  1.5409333333333E-03  1.6086666666667E-03  1.6764000000000E-03  1.7441333333333E-03  1.8118666666667E-03  1.8796000000000E-03 
 1.9703515930679E-08  1.7388327520875E-08  1.5072129354745E-08  1.2755452258588E-08  1.0438826897114E-08  8.1209676686759E-09  5.8020415085242E-09  3.4814885759366E-09  1.1602014338194E-09 -1.2712270472176E-12 
 9.2000000000127E-01  9.2000000000359E-01  9.2000000000359E-01  9.2000000000360E-01  9.2000000000360E-01  9.2000000000360E-01  9.2000000000360E-01  9.2000000000360E-01  9.2000000000360E-01  9.2000000000361E-01 
 3.9999999999365E-02  3.9999999998203E-02  3.9999999998203E-02  3.9999999998202E-02  3.9999999998202E-02  3.9999999998201E-02  3.9999999998200E-02  3.9999999998199E-02  3.9999999998198E-02  3.9999999998197E-02 
 3.9999999999365E-02  3.9999999998203E-02  3.9999999998203E-02  3.9999999998202E-02  3.9999999998202E-02  3.9999999998201E-02  3.9999999998200E-02  3.9999999998199E-02  3.9999999998198E-02  3.9999999998197E-02 
 2.9158121998755E-02  2.9157914987575E-02  2.9157732302496E-02  2.9157573946495E-02  2.9157439924604E-02  2.9157330243911E-02  2.9157244913562E-02  2.9157183944767E-02  2.9157147350799E-02  2.9157135147002E-02 
 3.8001746429253E+00  3.8001724880263E+00  3.8001660231657E+00  3.8001552478163E+00  3.8001401610865E+00  3.8001207617205E+00  3.8000970480979E+00  3.8000690182326E+00  3.8000366697729E+00  3.8000000000000E+00 
 3.7710165209265E+00  3.7710145730387E+00  3.7710082908632E+00  3.7709976738698E+00  3.7709827211619E+00  3.7709634314766E+00  3.7709398031843E+00  3.7709118342879E+00  3.7708795224221E+00  3.7708428648530E+00 
 3.9714218047877E+00  3.9714218047870E+00  3.9714218047870E+00  3.9714218047870E+00  3.9714218047870E+00  3.9714218047870E+00  3.9714218047870E+00  3.9714218047870E+00  3.9714218047870E+00  3.9714218047870E+00 
-2.0040528386121E-01 -2.0040723174829E-01 -2.0041351392375E-01 -2.0042413091720E-01 -2.0043908362510E-01 -2.0045837331035E-01 -2.0048200160265E-01 -2.0050997049910E-01 -2.0054228236486E-01 -2.0057893993397E-01 
-1.6672261263949E+00 -3.3345787598073E+00 -3.3349867932278E+00 -3.3356764906127E+00 -3.3366480846624E+00 -3.3379019033100E+00 -3.3394383699571E+00 -3.3412580037782E+00 -3.3433614200935E+00 -1.6728746654062E+00 