TITLE = "Solution on Domain BulkDomain1D_0"
VARIABLES = "x [m]"  
"Vel_axial" 
"MF_sp(ECDMC)" 
"MF_sp(Li+)" 
"MF_sp(PF6-)" 
"Volt(Electroly)" 
"Volt(AnodeVolt)" 
"Potential Drop Electrode-Electrolyte [V]" 
"Surf_0 Equilibrium Potential Drop Electrode-Electrolyte [V]" 
"Overpotential_0 [V]" 
"Current Source [A/m^2]" 
"Li+ flux [kmol/m^2/s]" 
"Electrolyte Current [A/m^2]" 
"Electrode Current [A/m^2]" 
"CV Capacity discharged [A-s/m^2]" 
"Depth of discharge in CV [A-s/m^2]" 
"CV Capacity remaining [A-s/m^2]" 
"Initial CV capacity [A-s/m^2]" 
"Porosity []" 
"Surface Area [m2/m2] (area per area)" 
"Specific current (per particle area) [A/m^2]" 
"Control volume thickness [m]" 
"MoleDens Li_C6-bulk [kmol/m^3]" 
"MoleDens V_C6-bulk [kmol/m^3]" 
"qHeat_accum [J/m3]" 
"qHeat_step [W/m3]" 
"Joule_Lyte [W/m3]" 
"Joule_Solid [W/m3]" 
"electrodHeat [W/m3]" 
"OverpotHeat [W/m3]" 
"deltaSHeat [W/m3]" 

ZONE T = "ANOD, 0.0000E+00", I = 10, SOLUTIONTIME = 0.000000E+00
ZONETYPE = ORDERED
DATAPACKING = BLOCK
STRANDID = 1
 0.0000000000000E+00  8.7488888888889E-05  1.7497777777778E-04  2.6246666666667E-04  3.4995555555556E-04  4.3744444444444E-04  5.2493333333333E-04  6.1242222222222E-04  6.9991111111111E-04  7.8740000000000E-04 
 0.0000000000000E+00  0.0000000000000E+00  0.0000000000000E+00  0.0000000000000E+00  0.0000000000000E+00  0.0000000000000E+00  0.0000000000000E+00  0.0000000000000E+00  0.0000000000000E+00  0.0000000000000E+00 
 9.2000000000000E-01  9.2000000000000E-01  9.2000000000000E-01  9.2000000000000E-01  9.2000000000000E-01  9.2000000000000E-01  9.2000000000000E-01  9.2000000000000E-01  9.2000000000000E-01  9.2000000000000E-01 
 4.0000000000000E-02  4.0000000000000E-02  4.0000000000000E-02  4.0000000000000E-02  4.0000000000000E-02  4.0000000000000E-02  4.0000000000000E-02  4.0000000000000E-02  4.0000000000000E-02  4.0000000000000E-02 
 4.0000000000000E-02  4.0000000000000E-02  4.0000000000000E-02  4.0000000000000E-02  4.0000000000000E-02  4.0000000000000E-02  4.0000000000000E-02  4.0000000000000E-02  4.0000000000000E-02  4.0000000000000E-02 
-7.0000000000000E-02 -7.0000000000000E-02 -7.0000000000000E-02 -7.0000000000000E-02 -7.0000000000000E-02 -7.0000000000000E-02 -7.0000000000000E-02 -7.0000000000000E-02 -7.0000000000000E-02 -7.0000000000000E-02 
 0.0000000000000E+00  0.0000000000000E+00  0.0000000000000E+00  0.0000000000000E+00  0.0000000000000E+00  0.0000000000000E+00  0.0000000000000E+00  0.0000000000000E+00  0.0000000000000E+00  0.0000000000000E+00 
 7.0000000000000E-02  7.0000000000000E-02  7.0000000000000E-02  7.0000000000000E-02  7.0000000000000E-02  7.0000000000000E-02  7.0000000000000E-02  7.0000000000000E-02  7.0000000000000E-02  7.0000000000000E-02 
-4.0906712753391E-02 -4.0906712753391E-02 -4.0906712753391E-02 -4.0906712753391E-02 -4.0906712753391E-02 -4.0906712753391E-02 -4.0906712753391E-02 -4.0906712753391E-02 -4.0906712753391E-02 -4.0906712753391E-02 
 1.1090671275339E-01  1.1090671275339E-01  1.1090671275339E-01  1.1090671275339E-01  1.1090671275339E-01  1.1090671275339E-01  1.1090671275339E-01  1.1090671275339E-01  1.1090671275339E-01  1.1090671275339E-01 
 3.0930240924008E+01  6.1860481848017E+01  6.1860481848017E+01  6.1860481848017E+01  6.1860481848017E+01  6.1860481848017E+01  6.1860481848017E+01  6.1860481848017E+01  6.1860481848017E+01  3.0930240924008E+01 
-0.0000000000000E+00 -0.0000000000000E+00 -0.0000000000000E+00 -0.0000000000000E+00 -0.0000000000000E+00 -0.0000000000000E+00 -0.0000000000000E+00 -0.0000000000000E+00 -0.0000000000000E+00 -0.0000000000000E+00 
 0.0000000000000E+00  0.0000000000000E+00  0.0000000000000E+00  0.0000000000000E+00  0.0000000000000E+00  0.0000000000000E+00  0.0000000000000E+00  0.0000000000000E+00  0.0000000000000E+00  3.0930240924008E+01 
 3.0930240924008E+01 -0.0000000000000E+00 -0.0000000000000E+00 -0.0000000000000E+00 -0.0000000000000E+00 -0.0000000000000E+00 -0.0000000000000E+00 -0.0000000000000E+00 -0.0000000000000E+00  0.0000000000000E+00 
 0.0000000000000E+00  0.0000000000000E+00  0.0000000000000E+00  0.0000000000000E+00  0.0000000000000E+00  0.0000000000000E+00  0.0000000000000E+00  0.0000000000000E+00  0.0000000000000E+00  0.0000000000000E+00 
 4.5724222271641E+04  9.1448444543281E+04  9.1448444543281E+04  9.1448444543281E+04  9.1448444543281E+04  9.1448444543281E+04  9.1448444543281E+04  9.1448444543281E+04  9.1448444543281E+04  4.5724222271641E+04 
 3.3835924481014E+05  6.7671848962028E+05  6.7671848962028E+05  6.7671848962028E+05  6.7671848962028E+05  6.7671848962028E+05  6.7671848962028E+05  6.7671848962028E+05  6.7671848962028E+05  3.3835924481014E+05 
 3.8408346708178E+05  7.6816693416356E+05  7.6816693416356E+05  7.6816693416356E+05  7.6816693416356E+05  7.6816693416356E+05  7.6816693416356E+05  7.6816693416356E+05  7.6816693416356E+05  3.8408346708178E+05 
 3.5000000000000E-01  3.5000000000000E-01  3.5000000000000E-01  3.5000000000000E-01  3.5000000000000E-01  3.5000000000000E-01  3.5000000000000E-01  3.5000000000000E-01  3.5000000000000E-01  3.5000000000000E-01 
 8.5301666666667E+00  1.7060333333333E+01  1.7060333333333E+01  1.7060333333333E+01  1.7060333333333E+01  1.7060333333333E+01  1.7060333333333E+01  1.7060333333333E+01  1.7060333333333E+01  8.5301666666667E+00 
 3.6259831879809E+00  3.6259831879809E+00  3.6259831879809E+00  3.6259831879809E+00  3.6259831879809E+00  3.6259831879809E+00  3.6259831879809E+00  3.6259831879809E+00  3.6259831879809E+00  3.6259831879809E+00 
 4.3744444444444E-05  8.7488888888889E-05  8.7488888888889E-05  8.7488888888889E-05  8.7488888888889E-05  8.7488888888889E-05  8.7488888888889E-05  8.7488888888889E-05  8.7488888888889E-05  4.3744444444444E-05 
 8.6666666666667E+01  8.6666666666667E+01  8.6666666666667E+01  8.6666666666667E+01  8.6666666666667E+01  8.6666666666667E+01  8.6666666666667E+01  8.6666666666667E+01  8.6666666666667E+01  8.6666666666667E+01 
 2.1666666666667E+01  2.1666666666667E+01  2.1666666666667E+01  2.1666666666667E+01  2.1666666666667E+01  2.1666666666667E+01  2.1666666666667E+01  2.1666666666667E+01  2.1666666666667E+01  2.1666666666667E+01 
 0.0000000000000E+00  0.0000000000000E+00  0.0000000000000E+00  0.0000000000000E+00  0.0000000000000E+00  0.0000000000000E+00  0.0000000000000E+00  0.0000000000000E+00  0.0000000000000E+00  0.0000000000000E+00 
 0.0000000000000E+00  0.0000000000000E+00  0.0000000000000E+00  0.0000000000000E+00  0.0000000000000E+00  0.0000000000000E+00  0.0000000000000E+00  0.0000000000000E+00  0.0000000000000E+00  0.0000000000000E+00 
 0.0000000000000E+00  0.0000000000000E+00  0.0000000000000E+00  0.0000000000000E+00  0.0000000000000E+00  0.0000000000000E+00  0.0000000000000E+00  0.0000000000000E+00  0.0000000000000E+00  0.0000000000000E+00 
 0.0000000000000E+00  0.0000000000000E+00  0.0000000000000E+00  0.0000000000000E+00  0.0000000000000E+00  0.0000000000000E+00  0.0000000000000E+00  0.0000000000000E+00  0.0000000000000E+00  0.0000000000000E+00 
 0.0000000000000E+00  0.0000000000000E+00  0.0000000000000E+00  0.0000000000000E+00  0.0000000000000E+00  0.0000000000000E+00  0.0000000000000E+00  0.0000000000000E+00  0.0000000000000E+00  0.0000000000000E+00 
 0.0000000000000E+00  0.0000000000000E+00  0.0000000000000E+00  0.0000000000000E+00  0.0000000000000E+00  0.0000000000000E+00  0.0000000000000E+00  0.0000000000000E+00  0.0000000000000E+00  0.0000000000000E+00 
 0.0000000000000E+00  0.0000000000000E+00  0.0000000000000E+00  0.0000000000000E+00  0.0000000000000E+00  0.0000000000000E+00  0.0000000000000E+00  0.0000000000000E+00  0.0000000000000E+00  0.0000000000000E+00 
ZONE T = "ANOD, 1.0000E-08", I = 10, SOLUTIONTIME = 1.000000E-08
ZONETYPE = ORDERED
DATAPACKING = BLOCK
STRANDID = 1
 0.0000000000000E+00  8.7488888888889E-05  1.7497777777778E-04  2.6246666666667E-04  3.4995555555556E-04  4.3744444444444E-04  5.2493333333333E-04  6.1242222222222E-04  6.9991111111111E-04  7.8740000000000E-04 
 1.1577512891980E-09  3.4732560722735E-09  5.7887694755902E-09  8.1042979147374E-09  1.0419847805353E-08  1.2735788770871E-08  1.5051764019356E-08  1.7367779966711E-08  1.9683843028970E-08  2.0841538117915E-08 
 9.1999999999930E-01  9.1999999999930E-01  9.1999999999930E-01  9.1999999999930E-01  9.1999999999930E-01  9.1999999999930E-01  9.1999999999930E-01  9.1999999999930E-01  9.1999999999930E-01  9.1999999999971E-01 
 4.0000000000348E-02  4.0000000000348E-02  4.0000000000348E-02  4.0000000000348E-02  4.0000000000348E-02  4.0000000000348E-02  4.0000000000348E-02  4.0000000000348E-02  4.0000000000348E-02  4.0000000000144E-02 
 4.0000000000348E-02  4.0000000000348E-02  4.0000000000348E-02  4.0000000000348E-02  4.0000000000348E-02  4.0000000000348E-02  4.0000000000348E-02  4.0000000000348E-02  4.0000000000348E-02  4.0000000000144E-02 
 2.9182258996386E-02  2.9182243283647E-02  2.9182196145401E-02  2.9182117581529E-02  2.9182007591829E-02  2.9181866176009E-02  2.9181693333691E-02  2.9181489064410E-02  2.9181253367613E-02  2.9180986242661E-02 
 0.0000000000000E+00 -4.7327994134468E-09 -8.9088194007136E-09 -1.2528057889328E-08 -1.5590511264385E-08 -1.8096174368537E-08 -2.0045040501978E-08 -2.1437101422419E-08 -2.2272347345065E-08 -2.2550766942583E-08 
-2.9182258996386E-02 -2.9182248016447E-02 -2.9182205054220E-02 -2.9182130109587E-02 -2.9182023182340E-02 -2.9181884272183E-02 -2.9181713378732E-02 -2.9181510501511E-02 -2.9181275639960E-02 -2.9181008793428E-02 
-4.0906712753091E-02 -4.0906712753091E-02 -4.0906712753091E-02 -4.0906712753091E-02 -4.0906712753092E-02 -4.0906712753092E-02 -4.0906712753092E-02 -4.0906712753092E-02 -4.0906712753092E-02 -4.0906712753223E-02 
 1.1724453756704E-02  1.1724464736644E-02  1.1724507698870E-02  1.1724582643503E-02  1.1724689570751E-02  1.1724828480908E-02  1.1724999374360E-02  1.1725202251580E-02  1.1725437113131E-02  1.1725703959794E-02 
 1.6668957842636E+00  3.3337947446122E+00  3.3338071719755E+00  3.3338288506569E+00  3.3338597807256E+00  3.3338999622799E+00  3.3339493954483E+00  3.3340080803882E+00  3.3340760172868E+00  1.6670766031805E+00 
 8.6412902516241E-09  2.5923887188770E-08  4.3206548468787E-08  6.0489321952513E-08  7.7772255523203E-08  9.5055397054044E-08  1.1233879443210E-07  1.2962249553159E-07  1.4690662028896E-07  1.4690662028896E-07 
 0.0000000000000E+00  3.3350327751211E+00  6.6700733443849E+00  1.0005130947284E+01  1.3340214822393E+01  1.6675334208651E+01  2.0010498345736E+01  2.3345716472773E+01  2.6680997829035E+01  3.0015732072627E+01 
 3.0015731844956E+01  2.6681318879434E+01  2.3346278310000E+01  2.0011220707253E+01  1.6676136832196E+01  1.3341017445754E+01  1.0005853308735E+01  6.6706351818065E+00  3.3353538254635E+00  0.0000000000000E+00 
 1.6668957842636E-08  3.3337947446122E-08  3.3338071719755E-08  3.3338288506569E-08  3.3338597807256E-08  3.3338999622799E-08  3.3339493954483E-08  3.3340080803882E-08  3.3340760172868E-08  1.6670766031805E-08 
 4.5724222271657E+04  9.1448444543314E+04  9.1448444543314E+04  9.1448444543314E+04  9.1448444543315E+04  9.1448444543315E+04  9.1448444543315E+04  9.1448444543315E+04  9.1448444543315E+04  4.5724222271657E+04 
 3.3835924481012E+05  6.7671848962025E+05  6.7671848962025E+05  6.7671848962025E+05  6.7671848962025E+05  6.7671848962025E+05  6.7671848962025E+05  6.7671848962025E+05  6.7671848962025E+05  3.3835924481012E+05 
 3.8408346708178E+05  7.6816693416356E+05  7.6816693416356E+05  7.6816693416356E+05  7.6816693416356E+05  7.6816693416356E+05  7.6816693416356E+05  7.6816693416356E+05  7.6816693416356E+05  3.8408346708178E+05 
 3.5000000000000E-01  3.5000000000000E-01  3.5000000000000E-01  3.5000000000000E-01  3.5000000000000E-01  3.5000000000000E-01  3.5000000000000E-01  3.5000000000000E-01  3.5000000000000E-01  3.5000000000000E-01 
 8.5301666666667E+00  1.7060333333333E+01  1.7060333333333E+01  1.7060333333333E+01  1.7060333333333E+01  1.7060333333333E+01  1.7060333333333E+01  1.7060333333333E+01  1.7060333333333E+01  8.5301666666667E+00 
 1.9541186584048E-01  1.9541205200830E-01  1.9541278044443E-01  1.9541405115122E-01  1.9541586413272E-01  1.9541821939469E-01  1.9542111694466E-01  1.9542455679187E-01  1.9542853894728E-01  1.9543306342359E-01 
 4.3744444444444E-05  8.7488888888889E-05  8.7488888888889E-05  8.7488888888889E-05  8.7488888888889E-05  8.7488888888889E-05  8.7488888888889E-05  8.7488888888889E-05  8.7488888888889E-05  4.3744444444444E-05 
 8.6666666666663E+01  8.6666666666663E+01  8.6666666666663E+01  8.6666666666663E+01  8.6666666666663E+01  8.6666666666663E+01  8.6666666666663E+01  8.6666666666663E+01  8.6666666666663E+01  8.6666666666663E+01 
 2.1666666666671E+01  2.1666666666671E+01  2.1666666666671E+01  2.1666666666671E+01  2.1666666666671E+01  2.1666666666671E+01  2.1666666666671E+01  2.1666666666671E+01  2.1666666666671E+01  2.1666666666671E+01 
 1.8330395310793E-11  2.8611642459778E-11  6.1365737140183E-11  1.1850328164677E-10  2.0002490918435E-10  3.0593152316319E-10  4.3622429722514E-10  5.9090467521676E-10  7.6997437122476E-10  8.6560677988668E-10 
 1.8330395310793E-03  2.8611642459778E-03  6.1365737140183E-03  1.1850328164677E-02  2.0002490918435E-02  3.0593152316319E-02  4.3622429722514E-02  5.9090467521676E-02  7.6997437122476E-02  8.6560677988668E-02 
 2.9948073996992E-04  1.4974054100866E-03  5.0911911381822E-03  1.1080874634527E-02  1.9466519157202E-02  3.0248214514447E-02  4.3426077067257E-02  5.9000249726683E-02  7.6970901957340E-02  8.6555370808447E-02 
 1.5335587911094E-03  1.3637588358912E-03  1.0453825758361E-03  7.6945353014934E-04  5.3597176123256E-04  3.4493780187259E-04  1.9635265525665E-04  9.0217794992795E-05  2.6535165136118E-05  5.3071802202963E-06 
 0.0000000000000E+00  0.0000000000000E+00  0.0000000000000E+00  0.0000000000000E+00  0.0000000000000E+00  0.0000000000000E+00  0.0000000000000E+00  0.0000000000000E+00  0.0000000000000E+00  0.0000000000000E+00 
 0.0000000000000E+00  0.0000000000000E+00  0.0000000000000E+00  0.0000000000000E+00  0.0000000000000E+00  0.0000000000000E+00  0.0000000000000E+00  0.0000000000000E+00  0.0000000000000E+00  0.0000000000000E+00 
 0.0000000000000E+00  0.0000000000000E+00  0.0000000000000E+00  0.0000000000000E+00  0.0000000000000E+00  0.0000000000000E+00  0.0000000000000E+00  0.0000000000000E+00  0.0000000000000E+00  0.0000000000000E+00 
ZONE T = "ANOD, 2.0000E-08", I = 10, SOLUTIONTIME = 2.000000E-08
ZONETYPE = ORDERED
DATAPACKING = BLOCK
STRANDID = 1
 0.0000000000000E+00  8.7488888888889E-05  1.7497777777778E-04  2.6246666666667E-04  3.4995555555556E-04  4.3744444444444E-04  5.2493333333333E-04  6.1242222222222E-04  6.9991111111111E-04  7.8740000000000E-04 
 1.1586129597116E-09  3.4765675021591E-09  5.7938042669874E-09  8.1110560999469E-09  1.0428329431382E-08  1.2745993899430E-08  1.5064782350050E-08  1.7382158759756E-08  1.9699582390202E-08  2.0858684238978E-08 
 9.1999999999861E-01  9.1999999999861E-01  9.1999999999861E-01  9.1999999999861E-01  9.1999999999861E-01  9.1999999999861E-01  9.1999999999861E-01  9.1999999999861E-01  9.1999999999861E-01  9.1999999999942E-01 
 4.0000000000696E-02  4.0000000000696E-02  4.0000000000696E-02  4.0000000000696E-02  4.0000000000696E-02  4.0000000000696E-02  4.0000000000696E-02  4.0000000000696E-02  4.0000000000696E-02  4.0000000000288E-02 
 4.0000000000696E-02  4.0000000000696E-02  4.0000000000696E-02  4.0000000000696E-02  4.0000000000696E-02  4.0000000000696E-02  4.0000000000696E-02  4.0000000000696E-02  4.0000000000696E-02  4.0000000000288E-02 
 2.9167671851602E-02  2.9167656124706E-02  2.9167608943989E-02  2.9167530309333E-02  2.9167420220533E-02  2.9167278677299E-02  2.9167105679251E-02  2.9166901225923E-02  2.9166665316761E-02  2.9166397951124E-02 
 0.0000000000000E+00 -4.7370637987365E-09 -8.9168465239487E-09 -1.2539346098934E-08 -1.5604558901022E-08 -1.8112479761565E-08 -2.0063101965917E-08 -2.1456417253418E-08 -2.2292415817365E-08 -2.2571086304978E-08 
-2.9167671851602E-02 -2.9167660861770E-02 -2.9167617860835E-02 -2.9167542848679E-02 -2.9167435825092E-02 -2.9167296789779E-02 -2.9167125742353E-02 -2.9166922682340E-02 -2.9166687609176E-02 -2.9166420522210E-02 
-4.0906712752791E-02 -4.0906712752791E-02 -4.0906712752791E-02 -4.0906712752791E-02 -4.0906712752795E-02 -4.0906712752795E-02 -4.0906712752795E-02 -4.0906712752795E-02 -4.0906712752795E-02 -4.0906712753057E-02 
 1.1739040901189E-02  1.1739051891021E-02  1.1739094891955E-02  1.1739169904112E-02  1.1739276927703E-02  1.1739415963016E-02  1.1739587010442E-02  1.1739790070455E-02  1.1740025143618E-02  1.1740292230846E-02 
 1.6690056084857E+00  3.3380143961204E+00  3.3380268354729E+00  3.3380485350688E+00  3.3380794949783E+00  3.3381197152982E+00  3.3381691961579E+00  3.3382279377156E+00  3.3382959401589E+00  1.6691866018672E+00 
 8.6490758777255E-09  2.5947244099715E-08  4.3245476792217E-08  6.0543821924678E-08  7.7842327504044E-08  9.5141041495410E-08  1.1244001191161E-07  1.2973928672364E-07  1.4703905810452E-07  1.4703905810452E-07 
 0.0000000000000E+00  3.3380375735038E+00  6.6760829562462E+00  1.0014145407971E+01  1.3352234189343E+01  1.6690358560475E+01  2.0028527781478E+01  2.3366751113017E+01  2.6705037815869E+01  3.0043384769624E+01 
 3.0043384767230E+01  2.6705359577207E+01  2.3367314194546E+01  2.0029251742644E+01  1.6691162961329E+01  1.3353038590345E+01  1.0014869369324E+01  6.6766460377525E+00  3.3383593349454E+00  0.0000000000000E+00 
 3.3359013927493E-08  6.6718091407326E-08  6.6718340074484E-08  6.6718773857257E-08  6.6719392757039E-08  6.6720196775781E-08  6.6721185916062E-08  6.6722360181038E-08  6.6723719574457E-08  3.3362632050477E-08 
 4.5724222271674E+04  9.1448444543348E+04  9.1448444543348E+04  9.1448444543348E+04  9.1448444543348E+04  9.1448444543348E+04  9.1448444543348E+04  9.1448444543348E+04  9.1448444543348E+04  4.5724222271674E+04 
 3.3835924481011E+05  6.7671848962021E+05  6.7671848962021E+05  6.7671848962021E+05  6.7671848962021E+05  6.7671848962021E+05  6.7671848962021E+05  6.7671848962021E+05  6.7671848962021E+05  3.3835924481011E+05 
 3.8408346708178E+05  7.6816693416356E+05  7.6816693416356E+05  7.6816693416356E+05  7.6816693416356E+05  7.6816693416356E+05  7.6816693416356E+05  7.6816693416356E+05  7.6816693416356E+05  3.8408346708178E+05 
 3.5000000000000E-01  3.5000000000000E-01  3.5000000000000E-01  3.5000000000000E-01  3.5000000000000E-01  3.5000000000000E-01  3.5000000000000E-01  3.5000000000000E-01  3.5000000000000E-01  3.5000000000000E-01 
 8.5301666666667E+00  1.7060333333333E+01  1.7060333333333E+01  1.7060333333333E+01  1.7060333333333E+01  1.7060333333333E+01  1.7060333333333E+01  1.7060333333333E+01  1.7060333333333E+01  8.5301666666667E+00 
 1.9565920265165E-01  1.9565938899907E-01  1.9566011813796E-01  1.9566139007066E-01  1.9566320480129E-01  1.9566556233552E-01  1.9566846268095E-01  1.9567190584683E-01  1.9567589184417E-01  1.9568042068743E-01 
 4.3744444444444E-05  8.7488888888889E-05  8.7488888888889E-05  8.7488888888889E-05  8.7488888888889E-05  8.7488888888889E-05  8.7488888888889E-05  8.7488888888889E-05  8.7488888888889E-05  4.3744444444444E-05 
 8.6666666666659E+01  8.6666666666659E+01  8.6666666666659E+01  8.6666666666659E+01  8.6666666666659E+01  8.6666666666659E+01  8.6666666666659E+01  8.6666666666659E+01  8.6666666666659E+01  8.6666666666659E+01 
 2.1666666666675E+01  2.1666666666675E+01  2.1666666666675E+01  2.1666666666675E+01  2.1666666666675E+01  2.1666666666675E+01  2.1666666666675E+01  2.1666666666675E+01  2.1666666666675E+01  2.1666666666675E+01 
 3.6693837616052E-11  5.7274866577262E-11  1.2284210406644E-10  2.3722019956835E-10  4.0041042146391E-10  6.1241457939286E-10  8.7323502429884E-10  1.1828746484299E-09  1.5413368853860E-09  1.7327741201096E-09 
 1.8363442305259E-03  2.8663224117484E-03  6.1476366926255E-03  1.1871691792158E-02  2.0038551227956E-02  3.0648305622966E-02  4.3701072707369E-02  5.9196997321317E-02  7.7136251416123E-02  8.6716734022292E-02 
 5.9950137521944E-04  2.9975103010904E-03  1.0191560547917E-02  2.2181725645961E-02  3.8968132308427E-02  6.0550960432136E-02  8.6930443101989E-02  1.1810686659099E-01  1.5408057036492E-01  1.7326678808137E-01 
 3.0698823863857E-03  2.7299763566358E-03  2.0926498587264E-03  1.5402943108744E-03  1.0729098379632E-03  6.9049750714973E-04  3.9305932789470E-04  1.8059825200374E-04  5.3118173679773E-05  1.0623929586552E-05 
 0.0000000000000E+00  0.0000000000000E+00  0.0000000000000E+00  0.0000000000000E+00  0.0000000000000E+00  0.0000000000000E+00  0.0000000000000E+00  0.0000000000000E+00  0.0000000000000E+00  0.0000000000000E+00 
 0.0000000000000E+00  0.0000000000000E+00  0.0000000000000E+00  0.0000000000000E+00  0.0000000000000E+00  0.0000000000000E+00  0.0000000000000E+00  0.0000000000000E+00  0.0000000000000E+00  0.0000000000000E+00 
 0.0000000000000E+00  0.0000000000000E+00  0.0000000000000E+00  0.0000000000000E+00  0.0000000000000E+00  0.0000000000000E+00  0.0000000000000E+00  0.0000000000000E+00  0.0000000000000E+00  0.0000000000000E+00 
ZONE T = "ANOD, 3.0000E-08", I = 10, SOLUTIONTIME = 3.000000E-08
ZONETYPE = ORDERED
DATAPACKING = BLOCK
STRANDID = 1
 0.0000000000000E+00  8.7488888888889E-05  1.7497777777778E-04  2.6246666666667E-04  3.4995555555556E-04  4.3744444444444E-04  5.2493333333333E-04  6.1242222222222E-04  6.9991111111111E-04  7.8740000000000E-04 
 1.1590179795226E-09  3.4770561463227E-09  5.7951029515380E-09  8.1131648258564E-09  1.0431248200015E-08  1.2750449128000E-08  1.5068594794340E-08  1.7386781253221E-08  1.9705014935779E-08  2.0864158604558E-08 
 9.1999999999791E-01  9.1999999999791E-01  9.1999999999791E-01  9.1999999999791E-01  9.1999999999791E-01  9.1999999999791E-01  9.1999999999791E-01  9.1999999999791E-01  9.1999999999791E-01  9.1999999999914E-01 
 4.0000000001044E-02  4.0000000001044E-02  4.0000000001044E-02  4.0000000001044E-02  4.0000000001044E-02  4.0000000001044E-02  4.0000000001044E-02  4.0000000001044E-02  4.0000000001044E-02  4.0000000000432E-02 
 4.0000000001044E-02  4.0000000001044E-02  4.0000000001044E-02  4.0000000001044E-02  4.0000000001044E-02  4.0000000001044E-02  4.0000000001044E-02  4.0000000001044E-02  4.0000000001044E-02  4.0000000000432E-02 
 2.9167087937967E-02  2.9167072210503E-02  2.9167025028084E-02  2.9166946390591E-02  2.9166836297820E-02  2.9166694749479E-02  2.9166521745190E-02  2.9166317284486E-02  2.9166081366813E-02  2.9165813991530E-02 
 0.0000000000000E+00 -4.7372347015457E-09 -8.9171682246566E-09 -1.2539798492491E-08 -1.5605121882144E-08 -1.8113133224640E-08 -2.0063825804912E-08 -2.1457191361782E-08 -2.2293220087935E-08 -2.2571900629885E-08 
-2.9167087937967E-02 -2.9167076947738E-02 -2.9167033945252E-02 -2.9166958930390E-02 -2.9166851902942E-02 -2.9166712862613E-02 -2.9166541809016E-02 -2.9166338741677E-02 -2.9166103660033E-02 -2.9165836563431E-02 
-4.0906712752488E-02 -4.0906712752488E-02 -4.0906712752488E-02 -4.0906712752488E-02 -4.0906712752494E-02 -4.0906712752489E-02 -4.0906712752489E-02 -4.0906712752494E-02 -4.0906712752494E-02 -4.0906712752887E-02 
 1.1739624814522E-02  1.1739635804750E-02  1.1739678807236E-02  1.1739753822099E-02  1.1739860849552E-02  1.1739999889876E-02  1.1740170943473E-02  1.1740374010817E-02  1.1740609092461E-02  1.1740876189456E-02 
 1.6690900661012E+00  3.3381833114743E+00  3.3381957513074E+00  3.3382174517414E+00  3.3382484128471E+00  3.3382886347194E+00  3.3383381174906E+00  3.3383968613187E+00  3.3384648663889E+00  1.6692710664892E+00 
 8.6493879087447E-09  2.5948180189296E-08  4.3247036950782E-08  6.0546006160553E-08  7.7845135819123E-08  9.5144473909127E-08  1.1244406843280E-07  1.2974396738355E-07  1.4704443504135E-07  1.4704443504135E-07 
 0.0000000000000E+00  3.3381579989912E+00  6.6763238079574E+00  1.0014506687195E+01  1.3352715897368E+01  1.6690960699510E+01  2.0029250354469E+01  2.3367594123462E+01  2.6706001267781E+01  3.0044492907979E+01 
 3.0044492909836E+01  2.6706323049333E+01  2.3368157240527E+01  2.0029974361363E+01  1.6691765151104E+01  1.3353520348928E+01  1.0015230693901E+01  6.6768869249439E+00  3.3384797808043E+00  0.0000000000000E+00 
 5.0049914588505E-08  1.0009992452207E-07  1.0010029758756E-07  1.0010094837467E-07  1.0010187688551E-07  1.0010308312298E-07  1.0010456709097E-07  1.0010632879422E-07  1.0010836823835E-07  5.0055342715369E-08 
 4.5724222271691E+04  9.1448444543381E+04  9.1448444543381E+04  9.1448444543381E+04  9.1448444543381E+04  9.1448444543381E+04  9.1448444543381E+04  9.1448444543381E+04  9.1448444543381E+04  4.5724222271691E+04 
 3.3835924481009E+05  6.7671848962018E+05  6.7671848962018E+05  6.7671848962018E+05  6.7671848962018E+05  6.7671848962018E+05  6.7671848962018E+05  6.7671848962018E+05  6.7671848962018E+05  3.3835924481009E+05 
 3.8408346708178E+05  7.6816693416356E+05  7.6816693416356E+05  7.6816693416356E+05  7.6816693416356E+05  7.6816693416356E+05  7.6816693416356E+05  7.6816693416356E+05  7.6816693416356E+05  3.8408346708178E+05 
 3.5000000000000E-01  3.5000000000000E-01  3.5000000000000E-01  3.5000000000000E-01  3.5000000000000E-01  3.5000000000000E-01  3.5000000000000E-01  3.5000000000000E-01  3.5000000000000E-01  3.5000000000000E-01 
 8.5301666666667E+00  1.7060333333333E+01  1.7060333333333E+01  1.7060333333333E+01  1.7060333333333E+01  1.7060333333333E+01  1.7060333333333E+01  1.7060333333333E+01  1.7060333333333E+01  8.5301666666667E+00 
 1.9566910370269E-01  1.9566929005731E-01  1.9567001922436E-01  1.9567129120619E-01  1.9567310600694E-01  1.9567546363217E-01  1.9567836408964E-01  1.9568180738860E-01  1.9568579353992E-01  1.9569032255984E-01 
 4.3744444444444E-05  8.7488888888889E-05  8.7488888888889E-05  8.7488888888889E-05  8.7488888888889E-05  8.7488888888889E-05  8.7488888888889E-05  8.7488888888889E-05  8.7488888888889E-05  4.3744444444444E-05 
 8.6666666666655E+01  8.6666666666655E+01  8.6666666666655E+01  8.6666666666655E+01  8.6666666666655E+01  8.6666666666655E+01  8.6666666666655E+01  8.6666666666655E+01  8.6666666666655E+01  8.6666666666655E+01 
 2.1666666666679E+01  2.1666666666679E+01  2.1666666666679E+01  2.1666666666679E+01  2.1666666666679E+01  2.1666666666679E+01  2.1666666666679E+01  2.1666666666679E+01  2.1666666666679E+01  2.1666666666679E+01 
 5.5058604964209E-11  8.5940158913011E-11  1.8432290684017E-10  3.5594568353852E-10  6.0081039261981E-10  9.1891975004656E-10  1.3102772841867E-09  1.7748873358338E-09  2.3127550582708E-09  2.6000040321355E-09 
 1.8364767348157E-03  2.8665292335748E-03  6.1480802773734E-03  1.1872548397017E-02  2.0039997115591E-02  3.0650517065370E-02  4.3704225988790E-02  5.9201268740388E-02  7.7141817288483E-02  8.6722991202589E-02 
 8.9954365842843E-04  4.4977234317549E-03  1.5292297974429E-02  3.3283377640214E-02  5.8471152602909E-02  9.0855892857186E-02  1.3043794822401E-01  1.7721774835257E-01  2.3119580272663E-01  2.5998446215094E-01 
 4.6063168379924E-03  4.0962924595462E-03  3.1399927095880E-03  2.3111907136385E-03  1.6098866590717E-03  1.0360821474694E-03  5.8978019466647E-04  2.7098523081245E-04  7.9703100450510E-05  1.5941062612771E-05 
 0.0000000000000E+00  0.0000000000000E+00  0.0000000000000E+00  0.0000000000000E+00  0.0000000000000E+00  0.0000000000000E+00  0.0000000000000E+00  0.0000000000000E+00  0.0000000000000E+00  0.0000000000000E+00 
 0.0000000000000E+00  0.0000000000000E+00  0.0000000000000E+00  0.0000000000000E+00  0.0000000000000E+00  0.0000000000000E+00  0.0000000000000E+00  0.0000000000000E+00  0.0000000000000E+00  0.0000000000000E+00 
 0.0000000000000E+00  0.0000000000000E+00  0.0000000000000E+00  0.0000000000000E+00  0.0000000000000E+00  0.0000000000000E+00  0.0000000000000E+00  0.0000000000000E+00  0.0000000000000E+00  0.0000000000000E+00 
ZONE T = "ANOD, 4.0000E-08", I = 10, SOLUTIONTIME = 4.000000E-08
ZONETYPE = ORDERED
DATAPACKING = BLOCK
STRANDID = 1
 0.0000000000000E+00  8.7488888888889E-05  1.7497777777778E-04  2.6246666666667E-04  3.4995555555556E-04  4.3744444444444E-04  5.2493333333333E-04  6.1242222222222E-04  6.9991111111111E-04  7.8740000000000E-04 
 1.1584539523958E-09  3.4764536880401E-09  5.7933724386502E-09  8.1103062579168E-09  1.0427261576396E-08  1.2744244824711E-08  1.5063441679941E-08  1.7381589703362E-08  1.9699784949109E-08  2.0858909398729E-08 
 9.1999999999721E-01  9.1999999999721E-01  9.1999999999721E-01  9.1999999999721E-01  9.1999999999721E-01  9.1999999999721E-01  9.1999999999721E-01  9.1999999999721E-01  9.1999999999721E-01  9.1999999999885E-01 
 4.0000000001393E-02  4.0000000001393E-02  4.0000000001393E-02  4.0000000001393E-02  4.0000000001393E-02  4.0000000001393E-02  4.0000000001393E-02  4.0000000001393E-02  4.0000000001393E-02  4.0000000000576E-02 
 4.0000000001393E-02  4.0000000001393E-02  4.0000000001393E-02  4.0000000001393E-02  4.0000000001393E-02  4.0000000001393E-02  4.0000000001393E-02  4.0000000001393E-02  4.0000000001393E-02  4.0000000000576E-02 
 2.9167356262134E-02  2.9167340534932E-02  2.9167293353295E-02  2.9167214717105E-02  2.9167104626160E-02  2.9166963080166E-02  2.9166790078745E-02  2.9166585621430E-02  2.9166349707669E-02  2.9166082336819E-02 
 0.0000000000000E+00 -4.7371561599245E-09 -8.9170203810067E-09 -1.2539590586469E-08 -1.5604863153514E-08 -1.8112832913317E-08 -2.0063493151005E-08 -2.1456835605638E-08 -2.2292850470180E-08 -2.2571526391473E-08 
-2.9167356262134E-02 -2.9167345272088E-02 -2.9167302270315E-02 -2.9167227256696E-02 -2.9167120231023E-02 -2.9166981192999E-02 -2.9166810142238E-02 -2.9166607078266E-02 -2.9166372000519E-02 -2.9166104908346E-02 
-4.0906712752189E-02 -4.0906712752189E-02 -4.0906712752189E-02 -4.0906712752189E-02 -4.0906712752192E-02 -4.0906712752188E-02 -4.0906712752188E-02 -4.0906712752192E-02 -4.0906712752192E-02 -4.0906712752717E-02 
 1.1739356490055E-02  1.1739367480101E-02  1.1739410481874E-02  1.1739485495493E-02  1.1739592521170E-02  1.1739731559189E-02  1.1739902609950E-02  1.1740105673927E-02  1.1740340751673E-02  1.1740607844371E-02 
 1.6690512554566E+00  3.3381056901286E+00  3.3381181297409E+00  3.3381398297897E+00  3.3381707903454E+00  3.3382110115036E+00  3.3382604933963E+00  3.3383192361818E+00  3.3383872400448E+00  1.6692322526460E+00 