TITLE = "Solution on Domain BulkDomain1D_0"
VARIABLES = "x [m]"  
"Vel_axial" 
"MF_sp(ECDMC)" 
"MF_sp(Li+)" 
"MF_sp(PF6-)" 
"Volt(Electroly)" 
"Volt(AnodeVolt)" 
"Potential Drop Electrode-Electrolyte [V]" 
"Surf_0 Equilibrium Potential Drop Electrode-Electrolyte [V]" 
"Overpotential_0 [V]" 
"Current Source [A/m^2]" 
"Li+ flux [kmol/m^2/s]" 
"Electrolyte Current [A/m^2]" 
"Electrode Current [A/m^2]" 
"CV Capacity discharged [A-s/m^2]" 
"Depth of discharge in CV [A-s/m^2]" 
"CV Capacity remaining [A-s/m^2]" 
"Initial CV capacity [A-s/m^2]" 
"Porosity []" 
"Surface Area [m2/m2] (area per area)" 
"Specific current (per particle area) [A/m^2]" 
"Control volume thickness [m]" 
"MoleDens Li_C6-bulk [kmol/m^3]" 
"MoleDens V_C6-bulk [kmol/m^3]" 
"qHeat_accum [J/m3]" 
"qHeat_step [W/m3]" 
"Joule_Lyte [W/m3]" 
"Joule_Solid [W/m3]" 
"electrodHeat [W/m3]" 
"OverpotHeat [W/m3]" 
"deltaSHeat [W/m3]" 

ZONE T = "ANOD, 0.0000E+00", I = 10, SOLUTIONTIME = 0.000000E+00
ZONETYPE = ORDERED
DATAPACKING = BLOCK
STRANDID = 1
 0.0000000000000E+00  8.7488888888889E-05  1.7497777777778E-04  2.6246666666667E-04  3.4995555555556E-04  4.3744444444444E-04  5.2493333333333E-04  6.1242222222222E-04  6.9991111111111E-04  7.8740000000000E-04 
 0.0000000000000E+00  0.0000000000000E+00  0.0000000000000E+00  0.0000000000000E+00  0.0000000000000E+00  0.0000000000000E+00  0.0000000000000E+00  0.0000000000000E+00  0.0000000000000E+00  0.0000000000000E+00 
 9.2000000000000E-01  9.2000000000000E-01  9.2000000000000E-01  9.2000000000000E-01  9.2000000000000E-01  9.2000000000000E-01  9.2000000000000E-01  9.2000000000000E-01  9.2000000000000E-01  9.2000000000000E-01 
 4.0000000000000E-02  4.0000000000000E-02  4.0000000000000E-02  4.0000000000000E-02  4.0000000000000E-02  4.0000000000000E-02  4.0000000000000E-02  4.0000000000000E-02  4.0000000000000E-02  4.0000000000000E-02 
 4.0000000000000E-02  4.0000000000000E-02  4.0000000000000E-02  4.0000000000000E-02  4.0000000000000E-02  4.0000000000000E-02  4.0000000000000E-02  4.0000000000000E-02  4.0000000000000E-02  4.0000000000000E-02 
-7.0000000000000E-02 -7.0000000000000E-02 -7.0000000000000E-02 -7.0000000000000E-02 -7.0000000000000E-02 -7.0000000000000E-02 -7.0000000000000E-02 -7.0000000000000E-02 -7.0000000000000E-02 -7.0000000000000E-02 
 0.0000000000000E+00  0.0000000000000E+00  0.0000000000000E+00  0.0000000000000E+00  0.0000000000000E+00  0.0000000000000E+00  0.0000000000000E+00  0.0000000000000E+00  0.0000000000000E+00  0.0000000000000E+00 
 7.0000000000000E-02  7.0000000000000E-02  7.0000000000000E-02  7.0000000000000E-02  7.0000000000000E-02  7.0000000000000E-02  7.0000000000000E-02  7.0000000000000E-02  7.0000000000000E-02  7.0000000000000E-02 
-4.0906712753390E-02 -4.0906712753390E-02 -4.0906712753390E-02 -4.0906712753390E-02 -4.0906712753390E-02 -4.0906712753390E-02 -4.0906712753390E-02 -4.0906712753390E-02 -4.0906712753390E-02 -4.0906712753390E-02 
 1.1090671275339E-01  1.1090671275339E-01  1.1090671275339E-01  1.1090671275339E-01  1.1090671275339E-01  1.1090671275339E-01  1.1090671275339E-01  1.1090671275339E-01  1.1090671275339E-01  1.1090671275339E-01 
 3.0930240924008E+01  6.1860481848017E+01  6.1860481848017E+01  6.1860481848017E+01  6.1860481848017E+01  6.1860481848017E+01  6.1860481848017E+01  6.1860481848017E+01  6.1860481848017E+01  3.0930240924008E+01 
-0.0000000000000E+00 -0.0000000000000E+00 -0.0000000000000E+00 -0.0000000000000E+00 -0.0000000000000E+00 -0.0000000000000E+00 -0.0000000000000E+00 -0.0000000000000E+00 -0.0000000000000E+00 -0.0000000000000E+00 
 0.0000000000000E+00  0.0000000000000E+00  0.0000000000000E+00  0.0000000000000E+00  0.0000000000000E+00  0.0000000000000E+00  0.0000000000000E+00  0.0000000000000E+00  0.0000000000000E+00  3.0930240924008E+01 
 3.0930240924008E+01 -0.0000000000000E+00 -0.0000000000000E+00 -0.0000000000000E+00 -0.0000000000000E+00 -0.0000000000000E+00 -0.0000000000000E+00 -0.0000000000000E+00 -0.0000000000000E+00  0.0000000000000E+00 
 0.0000000000000E+00  0.0000000000000E+00  0.0000000000000E+00  0.0000000000000E+00  0.0000000000000E+00  0.0000000000000E+00  0.0000000000000E+00  0.0000000000000E+00  0.0000000000000E+00  0.0000000000000E+00 
 4.5724222271641E+04  9.1448444543281E+04  9.1448444543281E+04  9.1448444543281E+04  9.1448444543281E+04  9.1448444543281E+04  9.1448444543281E+04  9.1448444543281E+04  9.1448444543281E+04  4.5724222271641E+04 
 3.3835924481014E+05  6.7671848962028E+05  6.7671848962028E+05  6.7671848962028E+05  6.7671848962028E+05  6.7671848962028E+05  6.7671848962028E+05  6.7671848962028E+05  6.7671848962028E+05  3.3835924481014E+05 
 3.8408346708178E+05  7.6816693416356E+05  7.6816693416356E+05  7.6816693416356E+05  7.6816693416356E+05  7.6816693416356E+05  7.6816693416356E+05  7.6816693416356E+05  7.6816693416356E+05  3.8408346708178E+05 
 3.5000000000000E-01  3.5000000000000E-01  3.5000000000000E-01  3.5000000000000E-01  3.5000000000000E-01  3.5000000000000E-01  3.5000000000000E-01  3.5000000000000E-01  3.5000000000000E-01  3.5000000000000E-01 
 8.5301666666667E+00  1.7060333333333E+01  1.7060333333333E+01  1.7060333333333E+01  1.7060333333333E+01  1.7060333333333E+01  1.7060333333333E+01  1.7060333333333E+01  1.7060333333333E+01  8.5301666666667E+00 
 3.6259831879809E+00  3.6259831879809E+00  3.6259831879809E+00  3.6259831879809E+00  3.6259831879809E+00  3.6259831879809E+00  3.6259831879809E+00  3.6259831879809E+00  3.6259831879809E+00  3.6259831879809E+00 
 4.3744444444444E-05  8.7488888888889E-05  8.7488888888889E-05  8.7488888888889E-05  8.7488888888889E-05  8.7488888888889E-05  8.7488888888889E-05  8.7488888888889E-05  8.7488888888889E-05  4.3744444444444E-05 
 8.6666666666667E+01  8.6666666666667E+01  8.6666666666667E+01  8.6666666666667E+01  8.6666666666667E+01  8.6666666666667E+01  8.6666666666667E+01  8.6666666666667E+01  8.6666666666667E+01  8.6666666666667E+01 
 2.1666666666667E+01  2.1666666666667E+01  2.1666666666667E+01  2.1666666666667E+01  2.1666666666667E+01  2.1666666666667E+01  2.1666666666667E+01  2.1666666666667E+01  2.1666666666667E+01  2.1666666666667E+01 
 0.0000000000000E+00  0.0000000000000E+00  0.0000000000000E+00  0.0000000000000E+00  0.0000000000000E+00  0.0000000000000E+00  0.0000000000000E+00  0.0000000000000E+00  0.0000000000000E+00  0.0000000000000E+00 
 0.0000000000000E+00  0.0000000000000E+00  0.0000000000000E+00  0.0000000000000E+00  0.0000000000000E+00  0.0000000000000E+00  0.0000000000000E+00  0.0000000000000E+00  0.0000000000000E+00  0.0000000000000E+00 
 0.0000000000000E+00  0.0000000000000E+00  0.0000000000000E+00  0.0000000000000E+00  0.0000000000000E+00  0.0000000000000E+00  0.0000000000000E+00  0.0000000000000E+00  0.0000000000000E+00  0.0000000000000E+00 
 0.0000000000000E+00  0.0000000000000E+00  0.0000000000000E+00  0.0000000000000E+00  0.0000000000000E+00  0.0000000000000E+00  0.0000000000000E+00  0.0000000000000E+00  0.0000000000000E+00  0.0000000000000E+00 
 0.0000000000000E+00  0.0000000000000E+00  0.0000000000000E+00  0.0000000000000E+00  0.0000000000000E+00  0.0000000000000E+00  0.0000000000000E+00  0.0000000000000E+00  0.0000000000000E+00  0.0000000000000E+00 
 0.0000000000000E+00  0.0000000000000E+00  0.0000000000000E+00  0.0000000000000E+00  0.0000000000000E+00  0.0000000000000E+00  0.0000000000000E+00  0.0000000000000E+00  0.0000000000000E+00  0.0000000000000E+00 
 0.0000000000000E+00  0.0000000000000E+00  0.0000000000000E+00  0.0000000000000E+00  0.0000000000000E+00  0.0000000000000E+00  0.0000000000000E+00  0.0000000000000E+00  0.0000000000000E+00  0.0000000000000E+00 
ZONE T = "ANOD, 1.0000E-08", I = 10, SOLUTIONTIME = 1.000000E-08
ZONETYPE = ORDERED
DATAPACKING = BLOCK
STRANDID = 1
 0.0000000000000E+00  8.7488888888889E-05  1.7497777777778E-04  2.6246666666667E-04  3.4995555555556E-04  4.3744444444444E-04  5.2493333333333E-04  6.1242222222222E-04  6.9991111111111E-04  7.8740000000000E-04 
 1.1589917710463E-09  3.4769775212628E-09  5.7949719093364E-09  8.1129813664645E-09  1.0431012322695E-08  1.2749071209107E-08  1.5067164456138E-08  1.7385298494578E-08  1.9703479755359E-08  2.0863323628012E-08 
 9.1999999999930E-01  9.1999999999930E-01  9.1999999999930E-01  9.1999999999930E-01  9.1999999999930E-01  9.1999999999930E-01  9.1999999999930E-01  9.1999999999930E-01  9.1999999999930E-01  9.1999999999971E-01 
 4.0000000000348E-02  4.0000000000348E-02  4.0000000000348E-02  4.0000000000348E-02  4.0000000000348E-02  4.0000000000348E-02  4.0000000000348E-02  4.0000000000348E-02  4.0000000000348E-02  4.0000000000144E-02 
 4.0000000000348E-02  4.0000000000348E-02  4.0000000000348E-02  4.0000000000348E-02  4.0000000000348E-02  4.0000000000348E-02  4.0000000000348E-02  4.0000000000348E-02  4.0000000000348E-02  4.0000000000144E-02 
 2.9167371470073E-02  2.9167355742970E-02  2.9167308561614E-02  2.9167229925906E-02  2.9167119835620E-02  2.9166978290488E-02  2.9166805290099E-02  2.9166600834028E-02  2.9166364921681E-02  2.9166097552456E-02 
 0.0000000000000E+00 -4.7371275802320E-09 -8.9169665839881E-09 -1.2539514934561E-08 -1.5604769009059E-08 -1.8112723638683E-08 -2.0063372108477E-08 -2.1456706157484E-08 -2.2292715978660E-08 -2.2571390218844E-08 
-2.9167371470073E-02 -2.9167360480098E-02 -2.9167317478581E-02 -2.9167242465420E-02 -2.9167135440389E-02 -2.9166996403211E-02 -2.9166825353471E-02 -2.9166622290735E-02 -2.9166387214397E-02 -2.9166120123846E-02 
-4.0906712753087E-02 -4.0906712753087E-02 -4.0906712753087E-02 -4.0906712753087E-02 -4.0906712753090E-02 -4.0906712753090E-02 -4.0906712753090E-02 -4.0906712753090E-02 -4.0906712753090E-02 -4.0906712753221E-02 
 1.1739341283014E-02  1.1739352272989E-02  1.1739395274506E-02  1.1739470287666E-02  1.1739577312701E-02  1.1739716349879E-02  1.1739887399619E-02  1.1740090462356E-02  1.1740325538693E-02  1.1740592629375E-02 
 1.6690490558740E+00  3.3381012909424E+00  3.3381137304798E+00  3.3381354303945E+00  3.3381663907623E+00  3.3382066116743E+00  3.3382560932685E+00  3.3383148356913E+00  3.3383828391419E+00  1.6692300519133E+00 
 8.6491894154331E-09  2.5947595428724E-08  4.3246055736269E-08  6.0544639184056E-08  7.7843371482713E-08  9.5142328588814E-08  1.1244152015718E-07  1.2974103835714E-07  1.4704095996240E-07  1.4704095996240E-07 
 0.0000000000000E+00  3.3380824261078E+00  6.6761727137380E+00  1.0014280120978E+01  1.3352413771523E+01  1.6690583474464E+01  2.0028797490265E+01  2.3367065643112E+01  2.6705397275556E+01  3.0043809126020E+01 
 3.0043810257254E+01  2.6705719149003E+01  2.3367628824651E+01  2.0029521430380E+01  1.6691387705582E+01  1.3353218389730E+01  1.0015004222021E+01  6.6767359418602E+00  3.3384042882947E+00  0.0000000000000E+00 
 1.6690490558740E-08  3.3381012909424E-08  3.3381137304798E-08  3.3381354303945E-08  3.3381663907623E-08  3.3382066116743E-08  3.3382560932685E-08  3.3383148356913E-08  3.3383828391419E-08  1.6692300519133E-08 
 4.5724222271657E+04  9.1448444543315E+04  9.1448444543315E+04  9.1448444543315E+04  9.1448444543315E+04  9.1448444543315E+04  9.1448444543315E+04  9.1448444543315E+04  9.1448444543315E+04  4.5724222271657E+04 
 3.3835924481012E+05  6.7671848962025E+05  6.7671848962025E+05  6.7671848962025E+05  6.7671848962025E+05  6.7671848962025E+05  6.7671848962025E+05  6.7671848962025E+05  6.7671848962025E+05  3.3835924481012E+05 
 3.8408346708178E+05  7.6816693416356E+05  7.6816693416356E+05  7.6816693416356E+05  7.6816693416356E+05  7.6816693416356E+05  7.6816693416356E+05  7.6816693416356E+05  7.6816693416356E+05  3.8408346708178E+05 
 3.5000000000000E-01  3.5000000000000E-01  3.5000000000000E-01  3.5000000000000E-01  3.5000000000000E-01  3.5000000000000E-01  3.5000000000000E-01  3.5000000000000E-01  3.5000000000000E-01  3.5000000000000E-01 
 8.5301666666667E+00  1.7060333333333E+01  1.7060333333333E+01  1.7060333333333E+01  1.7060333333333E+01  1.7060333333333E+01  1.7060333333333E+01  1.7060333333333E+01  1.7060333333333E+01  8.5301666666667E+00 
 1.9566429603259E-01  1.9566448238267E-01  1.9566521153239E-01  1.9566648348379E-01  1.9566829824128E-01  1.9567065581022E-01  1.9567355619870E-01  1.9567699941529E-01  1.9568098547167E-01  1.9568551437994E-01 
 4.3744444444444E-05  8.7488888888889E-05  8.7488888888889E-05  8.7488888888889E-05  8.7488888888889E-05  8.7488888888889E-05  8.7488888888889E-05  8.7488888888889E-05  8.7488888888889E-05  4.3744444444444E-05 
 8.6666666666663E+01  8.6666666666663E+01  8.6666666666663E+01  8.6666666666663E+01  8.6666666666663E+01  8.6666666666663E+01  8.6666666666663E+01  8.6666666666663E+01  8.6666666666663E+01  8.6666666666663E+01 
 2.1666666666671E+01  2.1666666666671E+01  2.1666666666671E+01  2.1666666666671E+01  2.1666666666671E+01  2.1666666666671E+01  2.1666666666671E+01  2.1666666666671E+01  2.1666666666671E+01  2.1666666666671E+01 
 1.8363934788939E-11  2.8663997019748E-11  6.1478018691635E-11  1.1872011410660E-10  2.0039090063144E-10  3.0649131981956E-10  4.3702249283601E-10  5.9198591350758E-10  7.7138327628842E-10  8.6719062277701E-10 
 1.8363934788939E-03  2.8663997019748E-03  6.1478018691635E-03  1.1872011410660E-02  2.0039090063144E-02  3.0649131981956E-02  4.3702249283601E-02  5.9198591350758E-02  7.7138327628842E-02  8.6719062277701E-02 
 3.0002851213499E-04  1.5001453903782E-03  5.1005063841533E-03  1.1101149871535E-02  1.9502137526729E-02  3.0303562970664E-02  4.3505537313526E-02  5.9108208459706E-02  7.7111743904379E-02  8.6713745385143E-02 
 1.5363649667589E-03  1.3662543115966E-03  1.0472954850103E-03  7.7086153912470E-04  5.3695253641507E-04  3.4556901129198E-04  1.9671197007541E-04  9.0382891051337E-05  2.6583724463252E-05  5.3168925576588E-06 
 0.0000000000000E+00  0.0000000000000E+00  0.0000000000000E+00  0.0000000000000E+00  0.0000000000000E+00  0.0000000000000E+00  0.0000000000000E+00  0.0000000000000E+00  0.0000000000000E+00  0.0000000000000E+00 
 0.0000000000000E+00  0.0000000000000E+00  0.0000000000000E+00  0.0000000000000E+00  0.0000000000000E+00  0.0000000000000E+00  0.0000000000000E+00  0.0000000000000E+00  0.0000000000000E+00  0.0000000000000E+00 
 0.0000000000000E+00  0.0000000000000E+00  0.0000000000000E+00  0.0000000000000E+00  0.0000000000000E+00  0.0000000000000E+00  0.0000000000000E+00  0.0000000000000E+00  0.0000000000000E+00  0.0000000000000E+00 
ZONE T = "ANOD, 2.0000E-08", I = 10, SOLUTIONTIME = 2.000000E-08
ZONETYPE = ORDERED
DATAPACKING = BLOCK
STRANDID = 1
 0.0000000000000E+00  8.7488888888889E-05  1.7497777777778E-04  2.6246666666667E-04  3.4995555555556E-04  4.3744444444444E-04  5.2493333333333E-04  6.1242222222222E-04  6.9991111111111E-04  7.8740000000000E-04 
 1.1589975178151E-09  3.4769947611091E-09  5.7950006425350E-09  8.1130215925884E-09  1.0430700834085E-08  1.2748044797638E-08  1.5065423121676E-08  1.7383205444739E-08  1.9701034990040E-08  2.0860884608686E-08 
 9.1999999999861E-01  9.1999999999861E-01  9.1999999999861E-01  9.1999999999861E-01  9.1999999999861E-01  9.1999999999861E-01  9.1999999999861E-01  9.1999999999861E-01  9.1999999999861E-01  9.1999999999942E-01 
 4.0000000000696E-02  4.0000000000696E-02  4.0000000000696E-02  4.0000000000696E-02  4.0000000000696E-02  4.0000000000696E-02  4.0000000000696E-02  4.0000000000696E-02  4.0000000000696E-02  4.0000000000288E-02 
 4.0000000000696E-02  4.0000000000696E-02  4.0000000000696E-02  4.0000000000696E-02  4.0000000000696E-02  4.0000000000696E-02  4.0000000000696E-02  4.0000000000696E-02  4.0000000000696E-02  4.0000000000288E-02 
 2.9167373665846E-02  2.9167357938661E-02  2.9167310757074E-02  2.9167232120970E-02  2.9167122030142E-02  2.9166980484301E-02  2.9166807483066E-02  2.9166603025971E-02  2.9166367112463E-02  2.9166099741901E-02 
 0.0000000000000E+00 -4.7371510663109E-09 -8.9170107929888E-09 -1.2539577103260E-08 -1.5604846374335E-08 -1.8112813437397E-08 -2.0063471577587E-08 -2.1456812533980E-08 -2.2292826499559E-08 -2.2571502121187E-08 
-2.9167373665846E-02 -2.9167362675812E-02 -2.9167319674085E-02 -2.9167244660547E-02 -2.9167137634989E-02 -2.9166998597114E-02 -2.9166827546537E-02 -2.9166624482783E-02 -2.9166389405289E-02 -2.9166122313403E-02 
-4.0906712752791E-02 -4.0906712752791E-02 -4.0906712752791E-02 -4.0906712752791E-02 -4.0906712752790E-02 -4.0906712752790E-02 -4.0906712752790E-02 -4.0906712752790E-02 -4.0906712752790E-02 -4.0906712753052E-02 
 1.1739339086945E-02  1.1739350076979E-02  1.1739393078706E-02  1.1739468092244E-02  1.1739575117801E-02  1.1739714155676E-02  1.1739885206253E-02  1.1740088270007E-02  1.1740323347501E-02  1.1740590439649E-02 
 1.6690487382417E+00  3.3381006556951E+00  3.3381130952931E+00  3.3381347953169E+00  3.3381657558357E+00  3.3382059769489E+00  3.3382554587847E+00  3.3383142015012E+00  3.3383822052858E+00  1.6692297351926E+00 
 8.6492352103210E-09  2.5947722095940E-08  4.3246273451378E-08  6.0544937254755E-08  7.7843761502781E-08  9.5142794181021E-08  1.1244208328270E-07  1.2974167679688E-07  1.4704176695242E-07  1.4704176695242E-07 
 0.0000000000000E+00  3.3380990661720E+00  6.6762059415825E+00  1.0014329886896E+01  1.3352480162409E+01  1.6690666028786E+01  2.0028896746876E+01  2.3367181576975E+01  2.6705529780226E+01  3.0043950618059E+01 
 3.0043950618096E+01  2.6705851552007E+01  2.3367744676512E+01  2.0029620731207E+01  1.6691470455631E+01  1.3353284589239E+01  1.0015053871372E+01  6.6767690412290E+00  3.3384208378355E+00  0.0000000000000E+00 
 3.3380977941157E-08  6.6762019466375E-08  6.6762268257729E-08  6.6762702257114E-08  6.6763321465980E-08  6.6764125886233E-08  6.6765115520532E-08  6.6766290371924E-08  6.6767650444277E-08  3.3384597871060E-08 
 4.5724222271674E+04  9.1448444543348E+04  9.1448444543348E+04  9.1448444543348E+04  9.1448444543348E+04  9.1448444543348E+04  9.1448444543348E+04  9.1448444543348E+04  9.1448444543348E+04  4.5724222271674E+04 
 3.3835924481011E+05  6.7671848962021E+05  6.7671848962021E+05  6.7671848962021E+05  6.7671848962021E+05  6.7671848962021E+05  6.7671848962021E+05  6.7671848962021E+05  6.7671848962021E+05  3.3835924481011E+05 
 3.8408346708178E+05  7.6816693416356E+05  7.6816693416356E+05  7.6816693416356E+05  7.6816693416356E+05  7.6816693416356E+05  7.6816693416356E+05  7.6816693416356E+05  7.6816693416356E+05  3.8408346708178E+05 
 3.5000000000000E-01  3.5000000000000E-01  3.5000000000000E-01  3.5000000000000E-01  3.5000000000000E-01  3.5000000000000E-01  3.5000000000000E-01  3.5000000000000E-01  3.5000000000000E-01  3.5000000000000E-01 
 8.5301666666667E+00  1.7060333333333E+01  1.7060333333333E+01  1.7060333333333E+01  1.7060333333333E+01  1.7060333333333E+01  1.7060333333333E+01  1.7060333333333E+01  1.7060333333333E+01  8.5301666666667E+00 
 1.9566425879624E-01  1.9566444514733E-01  1.9566517430061E-01  1.9566644625839E-01  1.9566826102474E-01  1.9567061860547E-01  1.9567351900811E-01  1.9567696224192E-01  1.9568094831788E-01  1.9568547725046E-01 
 4.3744444444444E-05  8.7488888888889E-05  8.7488888888889E-05  8.7488888888889E-05  8.7488888888889E-05  8.7488888888889E-05  8.7488888888889E-05  8.7488888888889E-05  8.7488888888889E-05  4.3744444444444E-05 
 8.6666666666659E+01  8.6666666666659E+01  8.6666666666659E+01  8.6666666666659E+01  8.6666666666659E+01  8.6666666666659E+01  8.6666666666659E+01  8.6666666666659E+01  8.6666666666659E+01  8.6666666666659E+01 
 2.1666666666675E+01  2.1666666666675E+01  2.1666666666675E+01  2.1666666666675E+01  2.1666666666675E+01  2.1666666666675E+01  2.1666666666675E+01  2.1666666666675E+01  2.1666666666675E+01  2.1666666666675E+01 
 3.6728053691611E-11  5.7328277216950E-11  1.2295665066026E-10  2.3744140604642E-10  4.0078379593670E-10  6.1298566816858E-10  8.7404932128122E-10  1.1839776975526E-09  1.5427742110366E-09  1.7343899135520E-09 
 1.8364118902672E-03  2.8664280197203E-03  6.1478631968620E-03  1.1872129193983E-02  2.0039289530526E-02  3.0649434834902E-02  4.3702682844521E-02  5.9199178404501E-02  7.7139093474814E-02  8.6719929077502E-02 
 6.0006020139941E-04  3.0003055510910E-03  1.0201063711426E-02  2.2202409882933E-02  3.9004469196777E-02  6.0607425367897E-02  8.7011506237566E-02  1.1821700307702E-01  1.5422425339116E-01  1.7342835751737E-01 
 3.0727451677617E-03  2.7325221706040E-03  2.0946013545998E-03  1.5417307217090E-03  1.0739103968929E-03  6.9114144896030E-04  3.9342589055596E-04  1.8076667823818E-04  5.3167712496546E-05  1.0633837829242E-05 
 0.0000000000000E+00  0.0000000000000E+00  0.0000000000000E+00  0.0000000000000E+00  0.0000000000000E+00  0.0000000000000E+00  0.0000000000000E+00  0.0000000000000E+00  0.0000000000000E+00  0.0000000000000E+00 
 0.0000000000000E+00  0.0000000000000E+00  0.0000000000000E+00  0.0000000000000E+00  0.0000000000000E+00  0.0000000000000E+00  0.0000000000000E+00  0.0000000000000E+00  0.0000000000000E+00  0.0000000000000E+00 
 0.0000000000000E+00  0.0000000000000E+00  0.0000000000000E+00  0.0000000000000E+00  0.0000000000000E+00  0.0000000000000E+00  0.0000000000000E+00  0.0000000000000E+00  0.0000000000000E+00  0.0000000000000E+00 
ZONE T = "ANOD, 3.0000E-08", I = 10, SOLUTIONTIME = 3.000000E-08
ZONETYPE = ORDERED
DATAPACKING = BLOCK
STRANDID = 1
 0.0000000000000E+00  8.7488888888889E-05  1.7497777777778E-04  2.6246666666667E-04  3.4995555555556E-04  4.3744444444444E-04  5.2493333333333E-04  6.1242222222222E-04  6.9991111111111E-04  7.8740000000000E-04 
 1.1589975177982E-09  3.4769947610584E-09  5.7950006424504E-09  8.1130215924700E-09  1.0431427249389E-08  1.2751313667002E-08  1.5070144821918E-08  1.7388653560403E-08  1.9707209521126E-08  2.0865606308854E-08 
 9.1999999999791E-01  9.1999999999791E-01  9.1999999999791E-01  9.1999999999791E-01  9.1999999999791E-01  9.1999999999791E-01  9.1999999999791E-01  9.1999999999791E-01  9.1999999999791E-01  9.1999999999914E-01 
 4.0000000001045E-02  4.0000000001045E-02  4.0000000001045E-02  4.0000000001045E-02  4.0000000001045E-02  4.0000000001045E-02  4.0000000001045E-02  4.0000000001045E-02  4.0000000001045E-02  4.0000000000432E-02 
 4.0000000001045E-02  4.0000000001045E-02  4.0000000001045E-02  4.0000000001045E-02  4.0000000001045E-02  4.0000000001045E-02  4.0000000001045E-02  4.0000000001045E-02  4.0000000001045E-02  4.0000000000432E-02 
 2.9167373665775E-02  2.9167357938590E-02  2.9167310757003E-02  2.9167232120899E-02  2.9167122030071E-02  2.9166980484230E-02  2.9166807482995E-02  2.9166603025900E-02  2.9166367112392E-02  2.9166099741830E-02 
 0.0000000000000E+00 -4.7371510662445E-09 -8.9170107928641E-09 -1.2539577103085E-08 -1.5604846374118E-08 -1.8112813437146E-08 -2.0063471577310E-08 -2.1456812533686E-08 -2.2292826499256E-08 -2.2571502120881E-08 
-2.9167373665775E-02 -2.9167362675741E-02 -2.9167319674014E-02 -2.9167244660476E-02 -2.9167137634918E-02 -2.9166998597043E-02 -2.9166827546466E-02 -2.9166624482712E-02 -2.9166389405218E-02 -2.9166122313332E-02 
-4.0906712752491E-02 -4.0906712752491E-02 -4.0906712752491E-02 -4.0906712752491E-02 -4.0906712752491E-02 -4.0906712752491E-02 -4.0906712752491E-02 -4.0906712752491E-02 -4.0906712752491E-02 -4.0906712752884E-02 
 1.1739339086716E-02  1.1739350076750E-02  1.1739393078477E-02  1.1739468092015E-02  1.1739575117573E-02  1.1739714155448E-02  1.1739885206025E-02  1.1740088269779E-02  1.1740323347273E-02  1.1740590439552E-02 
 1.6690487382174E+00  3.3381006556464E+00  3.3381130952443E+00  3.3381347952682E+00  3.3381657557873E+00  3.3382059769005E+00  3.3382554587363E+00  3.3383142014527E+00  3.3383822052374E+00  1.6692297351831E+00 
 8.6492352103963E-09  2.5947722094258E-08  4.3246273451755E-08  6.0544937251119E-08  7.7843761501551E-08  9.5142794177686E-08  1.1244208327986E-07  1.2974167679453E-07  1.4704183906833E-07  1.4704183906833E-07 
 0.0000000000000E+00  3.3380990660169E+00  6.6762059414565E+00  1.0014329886799E+01  1.3352480162157E+01  1.6690666028563E+01  2.0028896746498E+01  2.3367181576626E+01  2.6705529779870E+01  3.0043950617488E+01 
 3.0043950617674E+01  2.6705851551633E+01  2.3367744676188E+01  2.0029620730931E+01  1.6691470455404E+01  1.3353284589060E+01  1.0015053871241E+01  6.6767690411469E+00  3.3384208378019E+00  0.0000000000000E+00 
 5.0071465323330E-08  1.0014302602284E-07  1.0014339921017E-07  1.0014405020980E-07  1.0014497902385E-07  1.0014618565524E-07  1.0014767010789E-07  1.0014943238645E-07  1.0015147249665E-07  5.0076895222891E-08 
 4.5724222271691E+04  9.1448444543381E+04  9.1448444543381E+04  9.1448444543381E+04  9.1448444543381E+04  9.1448444543381E+04  9.1448444543381E+04  9.1448444543381E+04  9.1448444543381E+04  4.5724222271691E+04 
 3.3835924481009E+05  6.7671848962018E+05  6.7671848962018E+05  6.7671848962018E+05  6.7671848962018E+05  6.7671848962018E+05  6.7671848962018E+05  6.7671848962018E+05  6.7671848962018E+05  3.3835924481009E+05 
 3.8408346708178E+05  7.6816693416356E+05  7.6816693416356E+05  7.6816693416356E+05  7.6816693416356E+05  7.6816693416356E+05  7.6816693416356E+05  7.6816693416356E+05  7.6816693416356E+05  3.8408346708178E+05 
 3.5000000000000E-01  3.5000000000000E-01  3.5000000000000E-01  3.5000000000000E-01  3.5000000000000E-01  3.5000000000000E-01  3.5000000000000E-01  3.5000000000000E-01  3.5000000000000E-01  3.5000000000000E-01 
 8.5301666666667E+00  1.7060333333333E+01  1.7060333333333E+01  1.7060333333333E+01  1.7060333333333E+01  1.7060333333333E+01  1.7060333333333E+01  1.7060333333333E+01  1.7060333333333E+01  8.5301666666667E+00 
 1.9566425879338E-01  1.9566444514447E-01  1.9566517429775E-01  1.9566644625554E-01  1.9566826102190E-01  1.9567061860264E-01  1.9567351900527E-01  1.9567696223907E-01  1.9568094831504E-01  1.9568547724935E-01 
 4.3744444444444E-05  8.7488888888889E-05  8.7488888888889E-05  8.7488888888889E-05  8.7488888888889E-05  8.7488888888889E-05  8.7488888888889E-05  8.7488888888889E-05  8.7488888888889E-05  4.3744444444444E-05 
 8.6666666666655E+01  8.6666666666655E+01  8.6666666666655E+01  8.6666666666655E+01  8.6666666666655E+01  8.6666666666655E+01  8.6666666666655E+01  8.6666666666655E+01  8.6666666666655E+01  8.6666666666655E+01 
 2.1666666666679E+01  2.1666666666679E+01  2.1666666666679E+01  2.1666666666679E+01  2.1666666666679E+01  2.1666666666679E+01  2.1666666666679E+01  2.1666666666679E+01  2.1666666666679E+01  2.1666666666679E+01 
 5.5092172593878E-11  8.5992557411916E-11  1.8443528262704E-10  3.5616269798237E-10  6.0117669123293E-10  9.1948001650690E-10  1.3110761497057E-09  1.7759694815756E-09  2.3141651457579E-09  2.6015892042874E-09 
 1.8364118902267E-03  2.8664280194966E-03  6.1478631966788E-03  1.1872129193595E-02  2.0039289529622E-02  3.0649434833833E-02  4.3702682842445E-02  5.9199178402299E-02  7.7139093472131E-02  8.6719929073534E-02 
 9.0009189066645E-04  4.5004657116184E-03  1.5301621038544E-02  3.3303669893965E-02  5.8506800865937E-02  9.0911287764071E-02  1.3051747515954E-01  1.7732579769213E-01  2.3133676287526E-01  2.6014296964564E-01 
 4.6091253687213E-03  4.0987900295732E-03  3.1419072241603E-03  2.3125999042720E-03  1.6108682573561E-03  1.0367138866193E-03  5.9013981103136E-04  2.7115046542278E-04  7.9751700529257E-05  1.5950783100764E-05 
 0.0000000000000E+00  0.0000000000000E+00  0.0000000000000E+00  0.0000000000000E+00  0.0000000000000E+00  0.0000000000000E+00  0.0000000000000E+00  0.0000000000000E+00  0.0000000000000E+00  0.0000000000000E+00 
 0.0000000000000E+00  0.0000000000000E+00  0.0000000000000E+00  0.0000000000000E+00  0.0000000000000E+00  0.0000000000000E+00  0.0000000000000E+00  0.0000000000000E+00  0.0000000000000E+00  0.0000000000000E+00 
 0.0000000000000E+00  0.0000000000000E+00  0.0000000000000E+00  0.0000000000000E+00  0.0000000000000E+00  0.0000000000000E+00  0.0000000000000E+00  0.0000000000000E+00  0.0000000000000E+00  0.0000000000000E+00 
ZONE T = "ANOD, 4.0000E-08", I = 10, SOLUTIONTIME = 4.000000E-08
ZONETYPE = ORDERED
DATAPACKING = BLOCK
STRANDID = 1
 0.0000000000000E+00  8.7488888888889E-05  1.7497777777778E-04  2.6246666666667E-04  3.4995555555556E-04  4.3744444444444E-04  5.2493333333333E-04  6.1242222222222E-04  6.9991111111111E-04  7.8740000000000E-04 
 1.1589975177814E-09  3.4769947610079E-09  5.7950006423662E-09  8.1130215923522E-09  1.0429974418326E-08  1.2745865550900E-08  1.5063970290326E-08  1.7382115821049E-08  1.9700308574011E-08  2.0859431777188E-08 
 9.1999999999721E-01  9.1999999999721E-01  9.1999999999721E-01  9.1999999999721E-01  9.1999999999721E-01  9.1999999999721E-01  9.1999999999721E-01  9.1999999999721E-01  9.1999999999721E-01  9.1999999999885E-01 
 4.0000000001393E-02  4.0000000001393E-02  4.0000000001393E-02  4.0000000001393E-02  4.0000000001393E-02  4.0000000001393E-02  4.0000000001393E-02  4.0000000001393E-02  4.0000000001393E-02  4.0000000000576E-02 
 4.0000000001393E-02  4.0000000001393E-02  4.0000000001393E-02  4.0000000001393E-02  4.0000000001393E-02  4.0000000001393E-02  4.0000000001393E-02  4.0000000001393E-02  4.0000000001393E-02  4.0000000000576E-02 
 2.9167373665701E-02  2.9167357938516E-02  2.9167310756929E-02  2.9167232120825E-02  2.9167122029997E-02  2.9166980484156E-02  2.9166807482920E-02  2.9166603025826E-02  2.9166367112318E-02  2.9166099741756E-02 
 0.0000000000000E+00 -4.7371510661779E-09 -8.9170107927389E-09 -1.2539577102909E-08 -1.5604846373900E-08 -1.8112813436894E-08 -2.0063471577032E-08 -2.1456812533389E-08 -2.2292826498950E-08 -2.2571502120574E-08 
-2.9167373665701E-02 -2.9167362675667E-02 -2.9167319673940E-02 -2.9167244660402E-02 -2.9167137634844E-02 -2.9166998596969E-02 -2.9166827546392E-02 -2.9166624482638E-02 -2.9166389405144E-02 -2.9166122313258E-02 
-4.0906712752189E-02 -4.0906712752189E-02 -4.0906712752189E-02 -4.0906712752189E-02 -4.0906712752187E-02 -4.0906712752187E-02 -4.0906712752187E-02 -4.0906712752187E-02 -4.0906712752187E-02 -4.0906712752712E-02 
 1.1739339086488E-02  1.1739350076522E-02  1.1739393078249E-02  1.1739468091787E-02  1.1739575117344E-02  1.1739714155218E-02  1.1739885205795E-02  1.1740088269549E-02  1.1740323347043E-02  1.1740590439454E-02 
 1.6690487381931E+00  3.3381006555980E+00  3.3381130951959E+00  3.3381347952197E+00  3.3381657557385E+00  3.3382059768517E+00  3.3382554586875E+00  3.3383142014039E+00  3.3383822051886E+00  1.6692297351735E+00 