TITLE = "Solution on Domain BulkDomain1D_2"
VARIABLES = "x [m]"  
"Vel_axial(0)" 	"MF_sp(ECDMC)" 	"MF_sp(Li+)" 	"MF_sp(PF6-)" 	"Volt(Electroly)" 	"Volt(CathodeVo)" 	
"Potential Drop Electrode-Electrolyte [V]" 	"Surf_0 Equilibrium Potential Drop Electrode-Electrolyte [V]" 	"Overpotential_0 [V]" 	"Current Source [A/m^2]" 	"Li+ flux [kmol/m^2/s]" 	"Electrolyte Current [A/m^2]" 	"Electrode Current [A/m^2]" 	
"Capacity discharged [A-s]" 	"Depth of discharge [-]" 	"Capacity remaining [A-s]" 	"Initial capacity [A-s]" 	"Porosity []" 	"Surface Area [m2/m2] (area per area)" 	"Specific current (per particle area) [A/m^2]" 	"Control volume thickness [m]" 	
"Moles LiCoO2 [mol/m^2] (per electrode area)" 	"Moles CoO2 [mol/m^2] (per electrode area)" 	"qHeat_accum [J/m3]" 	"qHeat_step [W/m3]" 	"Joule_Lyte [W/m3]" 	"Joule_Solid [W/m3]" 	"electrodHeat [W/m3]" 	"OverpotHeat [W/m3]" 	"deltaSHeat [W/m3]" 	

ZONE T = "t = 0 [s]" I = 10 SOLUTIONTIME = 0.0000000000000E+00
0.00127 	0 	0.92 	0.04 	0.04 	-0.07 	3.8 	
0 	0 	0 	0 	0 	0.119132 	0 	
0 	0 	0 	0 	0.35 	6.604 	-0.0360787 	3.38667e-05 	
0.000900955 	0.000600637 	0 	0.0 	 0.0 	 0.0 	 0.0 	 0.0 	 0.0 	 
0.00133773 	0 	0.92 	0.04 	0.04 	-0.07 	3.8 	
0 	0 	0 	0 	0 	0 	-0 	
0 	0 	0 	0 	0.35 	13.208 	-0.0360787 	6.77333e-05 	
0.00180191 	0.00120127 	0 	0.0 	 0.0 	 0.0 	 0.0 	 0.0 	 0.0 	 
0.00140547 	0 	0.92 	0.04 	0.04 	-0.07 	3.8 	
0 	0 	0 	0 	0 	0 	-0 	
0 	0 	0 	0 	0.35 	13.208 	-0.0360787 	6.77333e-05 	
0.00180191 	0.00120127 	0 	0.0 	 0.0 	 0.0 	 0.0 	 0.0 	 0.0 	 
0.0014732 	0 	0.92 	0.04 	0.04 	-0.07 	3.8 	
0 	0 	0 	0 	0 	0 	-0 	
0 	0 	0 	0 	0.35 	13.208 	-0.0360787 	6.77333e-05 	
0.00180191 	0.00120127 	0 	0.0 	 0.0 	 0.0 	 0.0 	 0.0 	 0.0 	 
0.00154093 	0 	0.92 	0.04 	0.04 	-0.07 	3.8 	
0 	0 	0 	0 	0 	0 	-0 	
0 	0 	0 	0 	0.35 	13.208 	-0.0360787 	6.77333e-05 	
0.00180191 	0.00120127 	0 	0.0 	 0.0 	 0.0 	 0.0 	 0.0 	 0.0 	 
0.00160867 	0 	0.92 	0.04 	0.04 	-0.07 	3.8 	
0 	0 	0 	0 	0 	0 	-0 	
0 	0 	0 	0 	0.35 	13.208 	-0.0360787 	6.77333e-05 	
0.00180191 	0.00120127 	0 	0.0 	 0.0 	 0.0 	 0.0 	 0.0 	 0.0 	 
0.0016764 	0 	0.92 	0.04 	0.04 	-0.07 	3.8 	
0 	0 	0 	0 	0 	0 	-0 	
0 	0 	0 	0 	0.35 	13.208 	-0.0360787 	6.77333e-05 	
0.00180191 	0.00120127 	0 	0.0 	 0.0 	 0.0 	 0.0 	 0.0 	 0.0 	 
0.00174413 	0 	0.92 	0.04 	0.04 	-0.07 	3.8 	
0 	0 	0 	0 	0 	0 	-0 	
0 	0 	0 	0 	0.35 	13.208 	-0.0360787 	6.77333e-05 	
0.00180191 	0.00120127 	0 	0.0 	 0.0 	 0.0 	 0.0 	 0.0 	 0.0 	 
0.00181187 	0 	0.92 	0.04 	0.04 	-0.07 	3.8 	
0 	0 	0 	0 	0 	0 	-0 	
0 	0 	0 	0 	0.35 	13.208 	-0.0360787 	6.77333e-05 	
0.00180191 	0.00120127 	0 	0.0 	 0.0 	 0.0 	 0.0 	 0.0 	 0.0 	 
0.0018796 	0 	0.92 	0.04 	0.04 	-0.07 	3.8 	
0 	0 	0 	0 	0 	0 	0.119132 	
0 	0 	0 	0 	0.35 	6.604 	-0.0360787 	3.38667e-05 	
0.000900955 	0.000600637 	0 	0.0 	 0.0 	 0.0 	 0.0 	 0.0 	 0.0 	 
ZONE T = "t = 1e-08 [s]" I = 10 SOLUTIONTIME = 1.0000000000000E-08
0.00127 	1.85547e-08 	0.92 	0.04 	0.04 	0.0291615 	3.80014 	
3.87 	3.97141 	-0.101414 	-0.238264 	-0 	29.2204 	0.83409 	
-0 	7244.08 	123.46 	141.616 	0.35 	6.604 	-0.252603 	3.38667e-05 	
0.000900955 	0.000600637 	1.29598e-09 	0.129598 	0.0867854 	0.0428126 	0 	0 	0 	
0.00133773 	1.3921e-08 	0.92 	0.04 	0.04 	0.0291613 	3.80014 	
3.87 	3.97141 	-0.101414 	-0.476527 	-0 	26.7181 	3.33641 	
-0 	14488.2 	246.919 	283.231 	0.35 	13.208 	-0.25261 	6.77333e-05 	
0.00180191 	0.00120127 	2.91255e-09 	0.291255 	0.0771844 	0.214071 	0 	0 	0 	
0.00140547 	9.2868e-09 	0.92 	0.04 	0.04 	0.0291611 	3.80013 	
3.87 	3.97141 	-0.101414 	-0.476527 	-0 	23.3815 	6.67303 	
-0 	14488.2 	246.919 	283.231 	0.35 	13.208 	-0.252635 	6.77333e-05 	
0.00180191 	0.00120127 	7.8707e-09 	0.78707 	0.0591804 	0.72789 	0 	0 	0 	
0.0014732 	4.65187e-09 	0.92 	0.04 	0.04 	0.029161 	3.80013 	
3.87 	3.97141 	-0.101414 	-0.476527 	-0 	20.0444 	10.0101 	
-0 	14488.2 	246.919 	283.231 	0.35 	13.208 	-0.252677 	6.77333e-05 	
0.00180191 	0.00120127 	1.62798e-08 	1.62798 	0.0435727 	1.58441 	0 	0 	0 	
0.00154093 	1.58418e-11 	0.92 	0.04 	0.04 	0.0291609 	3.80011 	
3.87 	3.97141 	-0.101414 	-0.476527 	-0 	16.7067 	13.3478 	
-0 	14488.2 	246.919 	283.231 	0.35 	13.208 	-0.252736 	6.77333e-05 	
0.00180191 	0.00120127 	2.81421e-08 	2.81421 	0.0303614 	2.78385 	0 	0 	0 	
0.00160867 	-4.62158e-09 	0.92 	0.04 	0.04 	0.0291607 	3.8001 	
3.87 	3.97141 	-0.101414 	-0.476527 	-0 	13.368 	16.6864 	
-0 	14488.2 	246.919 	283.231 	0.35 	13.208 	-0.252813 	6.77333e-05 	
0.00180191 	0.00120127 	4.34609e-08 	4.34609 	0.0195473 	4.32654 	0 	0 	0 	
0.0016764 	-9.26073e-09 	0.92 	0.04 	0.04 	0.0291607 	3.80008 	
3.87 	3.97141 	-0.101414 	-0.476527 	-0 	10.0283 	20.0262 	
-0 	14488.2 	246.919 	283.231 	0.35 	13.208 	-0.252907 	6.77333e-05 	
0.00180191 	0.00120127 	6.22403e-08 	6.22403 	0.0111318 	6.21289 	0 	0 	0 	
0.00174413 	-1.39019e-08 	0.92 	0.04 	0.04 	0.0291606 	3.80006 	
3.87 	3.97141 	-0.101414 	-0.476527 	-0 	6.68718 	23.3673 	
-0 	14488.2 	246.919 	283.231 	0.35 	13.208 	-0.253018 	6.77333e-05 	
0.00180191 	0.00120127 	8.44854e-08 	8.44854 	0.00511703 	8.44343 	0 	0 	0 	
0.00181187 	-1.85455e-08 	0.92 	0.04 	0.04 	0.0291606 	3.80003 	
3.87 	3.97141 	-0.101414 	-0.476527 	-0 	3.3445 	26.71 	
-0 	14488.2 	246.919 	283.231 	0.35 	13.208 	-0.253146 	6.77333e-05 	
0.00180191 	0.00120127 	1.10202e-07 	11.0202 	0.00150574 	11.0187 	0 	0 	0 	
0.0018796 	0 	0.92 	0.04 	0.04 	0.0291605 	3.8 	
3.87 	3.97141 	-0.101414 	-0.238264 	-0 	0.836365 	29.2181 	
-0 	7244.08 	123.46 	141.616 	0.35 	6.604 	-0.253292 	3.38667e-05 	
0.000900955 	0.000600637 	1.2393e-07 	12.393 	0.000301357 	12.3927 	0 	0 	0 	
ZONE T = "t = 2e-08 [s]" I = 10 SOLUTIONTIME = 2.0000000000000E-08
0.00127 	1.85512e-08 	0.92 	0.04 	0.04 	0.0291615 	3.80014 	
3.77098 	3.97141 	-0.200435 	-1.66819 	1.47102e-07 	29.2206 	0.834095 	
4.18098e-11 	7244.08 	123.46 	141.616 	0.35 	6.604 	-0.252603 	3.38667e-05 	
0.000900955 	0.000600637 	2.59198e-09 	0.1296 	0.0867865 	0.0428132 	0 	0 	0 	
0.00133773 	1.39174e-08 	0.92 	0.04 	0.04 	0.0291613 	3.80014 	
3.77098 	3.97141 	-0.200436 	-3.33648 	1.29812e-07 	26.7182 	3.33643 	
8.36222e-11 	14488.2 	246.919 	283.231 	0.35 	13.208 	-0.25261 	6.77333e-05 	
0.00180191 	0.00120127 	5.82514e-09 	0.291259 	0.0771853 	0.214074 	0 	0 	0 	
0.00140547 	9.28323e-09 	0.92 	0.04 	0.04 	0.0291611 	3.80013 	
3.77097 	3.97141 	-0.200442 	-3.33681 	1.1252e-07 	23.3816 	6.67307 	
8.36304e-11 	14488.2 	246.919 	283.231 	0.35 	13.208 	-0.252635 	6.77333e-05 	
0.00180191 	0.00120127 	1.57415e-08 	0.78708 	0.0591811 	0.727899 	0 	0 	0 	
0.0014732 	4.64826e-09 	0.92 	0.04 	0.04 	0.029161 	3.80013 	
3.77096 	3.97141 	-0.20045 	-3.33736 	9.52255e-08 	20.0445 	10.0102 	
8.36443e-11 	14488.2 	246.919 	283.231 	0.35 	13.208 	-0.252677 	6.77333e-05 	
0.00180191 	0.00120127 	3.25598e-08 	1.628 	0.0435732 	1.58443 	0 	0 	0 	
0.00154093 	1.22112e-11 	0.92 	0.04 	0.04 	0.0291609 	3.80011 	
3.77095 	3.97141 	-0.200462 	-3.33814 	7.79269e-08 	16.7068 	13.3479 	
8.36639e-11 	14488.2 	246.919 	283.231 	0.35 	13.208 	-0.252736 	6.77333e-05 	
0.00180191 	0.00120127 	5.62845e-08 	2.81424 	0.0303618 	2.78388 	0 	0 	0 	
0.00160867 	-4.62597e-09 	0.92 	0.04 	0.04 	0.0291607 	3.8001 	
3.77094 	3.97141 	-0.200478 	-3.33915 	6.06231e-08 	13.3681 	16.6866 	
8.36892e-11 	14488.2 	246.919 	283.231 	0.35 	13.208 	-0.252813 	6.77333e-05 	
0.00180191 	0.00120127 	8.69223e-08 	4.34614 	0.0195475 	4.32659 	0 	0 	0 	
0.0016764 	-9.26515e-09 	0.92 	0.04 	0.04 	0.0291607 	3.80008 	
3.77092 	3.97141 	-0.200497 	-3.34039 	4.33128e-08 	10.0284 	20.0263 	
8.37202e-11 	14488.2 	246.919 	283.231 	0.35 	13.208 	-0.252907 	6.77333e-05 	
0.00180191 	0.00120127 	1.24481e-07 	6.2241 	0.0111319 	6.21297 	0 	0 	0 	
0.00174413 	-1.39071e-08 	0.92 	0.04 	0.04 	0.0291606 	3.80006 	
3.7709 	3.97141 	-0.200519 	-3.34186 	2.5995e-08 	6.68723 	23.3675 	
8.3757e-11 	14488.2 	246.919 	283.231 	0.35 	13.208 	-0.253018 	6.77333e-05 	
0.00180191 	0.00120127 	1.68972e-07 	8.44865 	0.00511709 	8.44353 	0 	0 	0 	
0.00181187 	-1.85507e-08 	0.92 	0.04 	0.04 	0.0291606 	3.80003 	
3.77087 	3.97141 	-0.200545 	-3.34356 	8.66863e-09 	3.34452 	26.7102 	
8.37995e-11 	14488.2 	246.919 	283.231 	0.35 	13.208 	-0.253146 	6.77333e-05 	
0.00180191 	0.00120127 	2.20406e-07 	11.0204 	0.00150576 	11.0189 	0 	0 	0 	
0.0018796 	0 	0.92 	0.04 	0.04 	0.0291606 	3.8 	
3.77084 	3.97141 	-0.200575 	-1.67274 	8.66863e-09 	0.83637 	29.2183 	
4.19239e-11 	7244.08 	123.46 	141.616 	0.35 	6.604 	-0.253292 	3.38667e-05 	
0.000900955 	0.000600637 	2.47861e-07 	12.3931 	0.00030136 	12.3928 	0 	0 	0 	
ZONE T = "t = 3e-08 [s]" I = 10 SOLUTIONTIME = 3.0000000000000E-08
0.00127 	1.85582e-08 	0.92 	0.04 	0.04 	0.0291615 	3.80014 	
3.77098 	3.97141 	-0.200435 	-1.66819 	1.47103e-07 	29.2206 	0.834095 	
8.36197e-11 	7244.08 	123.46 	141.616 	0.35 	6.604 	-0.252603 	3.38667e-05 	
0.000900955 	0.000600637 	3.88797e-09 	0.1296 	0.0867865 	0.0428132 	0 	0 	0 	
0.00133773 	1.39245e-08 	0.92 	0.04 	0.04 	0.0291613 	3.80014 	
3.77098 	3.97141 	-0.200436 	-3.33648 	1.29813e-07 	26.7182 	3.33643 	
1.67244e-10 	14488.2 	246.919 	283.231 	0.35 	13.208 	-0.25261 	6.77333e-05 	
0.00180191 	0.00120127 	8.73773e-09 	0.291259 	0.0771853 	0.214074 	0 	0 	0 	
0.00140547 	9.29031e-09 	0.92 	0.04 	0.04 	0.0291611 	3.80013 	
3.77097 	3.97141 	-0.200442 	-3.33681 	1.12521e-07 	23.3816 	6.67307 	
1.67261e-10 	14488.2 	246.919 	283.231 	0.35 	13.208 	-0.252635 	6.77333e-05 	
0.00180191 	0.00120127 	2.36123e-08 	0.78708 	0.0591811 	0.727899 	0 	0 	0 	
0.0014732 	4.65535e-09 	0.92 	0.04 	0.04 	0.029161 	3.80013 	
3.77096 	3.97141 	-0.20045 	-3.33736 	9.52261e-08 	20.0445 	10.0102 	
1.67289e-10 	14488.2 	246.919 	283.231 	0.35 	13.208 	-0.252677 	6.77333e-05 	
0.00180191 	0.00120127 	4.88398e-08 	1.628 	0.0435732 	1.58443 	0 	0 	0 	
0.00154093 	1.92937e-11 	0.92 	0.04 	0.04 	0.0291609 	3.80011 	
3.77095 	3.97141 	-0.200462 	-3.33814 	7.79274e-08 	16.7068 	13.3479 	
1.67328e-10 	14488.2 	246.919 	283.231 	0.35 	13.208 	-0.252736 	6.77333e-05 	
0.00180191 	0.00120127 	8.4427e-08 	2.81424 	0.0303618 	2.78388 	0 	0 	0 	
0.00160867 	-4.61816e-09 	0.92 	0.04 	0.04 	0.0291607 	3.8001 	
3.77094 	3.97141 	-0.200478 	-3.33915 	6.06234e-08 	13.3681 	16.6866 	
1.67378e-10 	14488.2 	246.919 	283.231 	0.35 	13.208 	-0.252813 	6.77333e-05 	
0.00180191 	0.00120127 	1.30384e-07 	4.34614 	0.0195475 	4.32659 	0 	0 	0 	
0.0016764 	-9.25734e-09 	0.92 	0.04 	0.04 	0.0291607 	3.80008 	
3.77092 	3.97141 	-0.200497 	-3.34039 	4.33131e-08 	10.0284 	20.0263 	
1.6744e-10 	14488.2 	246.919 	283.231 	0.35 	13.208 	-0.252907 	6.77333e-05 	
0.00180191 	0.00120127 	1.86722e-07 	6.2241 	0.0111319 	6.21297 	0 	0 	0 	
0.00174413 	-1.38978e-08 	0.92 	0.04 	0.04 	0.0291606 	3.80006 	
3.7709 	3.97141 	-0.200519 	-3.34186 	2.59951e-08 	6.68723 	23.3675 	
1.67514e-10 	14488.2 	246.919 	283.231 	0.35 	13.208 	-0.253018 	6.77333e-05 	
0.00180191 	0.00120127 	2.53458e-07 	8.44865 	0.00511709 	8.44353 	0 	0 	0 	
0.00181187 	-1.85414e-08 	0.92 	0.04 	0.04 	0.0291606 	3.80003 	
3.77087 	3.97141 	-0.200545 	-3.34356 	8.66901e-09 	3.34452 	26.7102 	
1.67599e-10 	14488.2 	246.919 	283.231 	0.35 	13.208 	-0.253146 	6.77333e-05 	
0.00180191 	0.00120127 	3.3061e-07 	11.0204 	0.00150576 	11.0189 	0 	0 	0 	
0.0018796 	0 	0.92 	0.04 	0.04 	0.0291606 	3.8 	
3.77084 	3.97141 	-0.200575 	-1.67274 	8.66901e-09 	0.83637 	29.2183 	
8.38478e-11 	7244.08 	123.46 	141.616 	0.35 	6.604 	-0.253292 	3.38667e-05 	
0.000900955 	0.000600637 	3.71793e-07 	12.3931 	0.00030136 	12.3928 	0 	0 	0 	
ZONE T = "t = 4e-08 [s]" I = 10 SOLUTIONTIME = 4.0000000000000E-08
0.00127 	1.85523e-08 	0.92 	0.04 	0.04 	0.0291615 	3.80014 	
3.77098 	3.97141 	-0.200435 	-1.66819 	1.47103e-07 	29.2206 	0.834095 	
1.25429e-10 	7244.08 	123.46 	141.616 	0.35 	6.604 	-0.252603 	3.38667e-05 	
0.000900955 	0.000600637 	5.18397e-09 	0.1296 	0.0867865 	0.0428132 	0 	0 	0 	
0.00133773 	1.39185e-08 	0.92 	0.04 	0.04 	0.0291613 	3.80014 	
3.77098 	3.97141 	-0.200436 	-3.33648 	1.29813e-07 	26.7182 	3.33643 	
2.50866e-10 	14488.2 	246.919 	283.231 	0.35 	13.208 	-0.25261 	6.77333e-05 	
0.00180191 	0.00120127 	1.16503e-08 	0.291259 	0.0771853 	0.214074 	0 	0 	0 	
0.00140547 	9.28432e-09 	0.92 	0.04 	0.04 	0.0291611 	3.80013 	
3.77097 	3.97141 	-0.200442 	-3.33681 	1.12521e-07 	23.3816 	6.67307 	
2.50891e-10 	14488.2 	246.919 	283.231 	0.35 	13.208 	-0.252635 	6.77333e-05 	
0.00180191 	0.00120127 	3.14831e-08 	0.78708 	0.0591811 	0.727899 	0 	0 	0 	
0.0014732 	4.64935e-09 	0.92 	0.04 	0.04 	0.029161 	3.80013 	
3.77096 	3.97141 	-0.20045 	-3.33736 	9.52261e-08 	20.0445 	10.0102 	
2.50933e-10 	14488.2 	246.919 	283.231 	0.35 	13.208 	-0.252677 	6.77333e-05 	
0.00180191 	0.00120127 	6.51198e-08 	1.628 	0.0435732 	1.58443 	0 	0 	0 	
0.00154093 	1.25744e-11 	0.92 	0.04 	0.04 	0.0291609 	3.80011 	
3.77095 	3.97141 	-0.200462 	-3.33814 	7.79274e-08 	16.7068 	13.3479 	
2.50992e-10 	14488.2 	246.919 	283.231 	0.35 	13.208 	-0.252736 	6.77333e-05 	
0.00180191 	0.00120127 	1.12569e-07 	2.81424 	0.0303618 	2.78388 	0 	0 	0 	
0.00160867 	-4.62452e-09 	0.92 	0.04 	0.04 	0.0291607 	3.8001 	
3.77094 	3.97141 	-0.200478 	-3.33915 	6.06234e-08 	13.3681 	16.6866 	
2.51068e-10 	14488.2 	246.919 	283.231 	0.35 	13.208 	-0.252813 	6.77333e-05 	
0.00180191 	0.00120127 	1.73845e-07 	4.34614 	0.0195475 	4.32659 	0 	0 	0 	
0.0016764 	-9.26406e-09 	0.92 	0.04 	0.04 	0.0291607 	3.80008 	
3.77092 	3.97141 	-0.200497 	-3.34039 	4.33131e-08 	10.0284 	20.0263 	
2.51161e-10 	14488.2 	246.919 	283.231 	0.35 	13.208 	-0.252907 	6.77333e-05 	
0.00180191 	0.00120127 	2.48963e-07 	6.2241 	0.0111319 	6.21297 	0 	0 	0 	
0.00174413 	-1.39056e-08 	0.92 	0.04 	0.04 	0.0291606 	3.80006 	
3.7709 	3.97141 	-0.200519 	-3.34186 	2.59951e-08 	6.68723 	23.3675 	
2.51271e-10 	14488.2 	246.919 	283.231 	0.35 	13.208 	-0.253018 	6.77333e-05 	
0.00180191 	0.00120127 	3.37945e-07 	8.44865 	0.00511709 	8.44353 	0 	0 	0 	
0.00181187 	-1.85496e-08 	0.92 	0.04 	0.04 	0.0291606 	3.80003 	
3.77087 	3.97141 	-0.200545 	-3.34356 	8.66933e-09 	3.34452 	26.7102 	
2.51399e-10 	14488.2 	246.919 	283.231 	0.35 	13.208 	-0.253146 	6.77333e-05 	
0.00180191 	0.00120127 	4.40814e-07 	11.0204 	0.00150576 	11.0189 	0 	0 	0 	
0.0018796 	0 	0.92 	0.04 	0.04 	0.0291606 	3.8 	
3.77084 	3.97141 	-0.200575 	-1.67274 	8.66933e-09 	0.83637 	29.2183 	
1.25772e-10 	7244.08 	123.46 	141.616 	0.35 	6.604 	-0.253292 	3.38667e-05 	
0.000900955 	0.000600637 	4.95724e-07 	12.3931 	0.00030136 	12.3928 	0 	0 	0 	
ZONE T = "t = 5.5e-08 [s]" I = 10 SOLUTIONTIME = 5.5000000000000E-08
0.00127 	1.85538e-08 	0.92 	0.04 	0.04 	0.0291615 	3.80014 	
3.77098 	3.97141 	-0.200435 	-1.66819 	1.47103e-07 	29.2206 	0.834095 	
1.67239e-10 	7244.08 	123.46 	141.616 	0.35 	6.604 	-0.252603 	3.38667e-05 	
0.000900955 	0.000600637 	7.12797e-09 	0.1296 	0.0867865 	0.0428132 	0 	0 	0 	
0.00133773 	1.39198e-08 	0.92 	0.04 	0.04 	0.0291613 	3.80014 	
3.77098 	3.97141 	-0.200436 	-3.33648 	1.29813e-07 	26.7182 	3.33643 	
3.34489e-10 	14488.2 	246.919 	283.231 	0.35 	13.208 	-0.25261 	6.77333e-05 	
0.00180191 	0.00120127 	1.60192e-08 	0.291259 	0.0771853 	0.214074 	0 	0 	0 	
0.00140547 	9.28565e-09 	0.92 	0.04 	0.04 	0.0291611 	3.80013 	
3.77097 	3.97141 	-0.200442 	-3.33681 	1.12521e-07 	23.3816 	6.67307 	
3.34521e-10 	14488.2 	246.919 	283.231 	0.35 	13.208 	-0.252635 	6.77333e-05 	
0.00180191 	0.00120127 	4.32893e-08 	0.78708 	0.0591811 	0.727899 	0 	0 	0 	
0.0014732 	4.65069e-09 	0.92 	0.04 	0.04 	0.029161 	3.80013 	
3.77096 	3.97141 	-0.20045 	-3.33736 	9.52261e-08 	20.0445 	10.0102 	
3.34577e-10 	14488.2 	246.919 	283.231 	0.35 	13.208 	-0.252677 	6.77333e-05 	
0.00180191 	0.00120127 	8.95397e-08 	1.628 	0.0435732 	1.58443 	0 	0 	0 	
0.00154093 	1.51168e-11 	0.92 	0.04 	0.04 	0.0291609 	3.80011 	
3.77095 	3.97141 	-0.200462 	-3.33814 	7.79274e-08 	16.7068 	13.3479 	
3.34655e-10 	14488.2 	246.919 	283.231 	0.35 	13.208 	-0.252736 	6.77333e-05 	
0.00180191 	0.00120127 	1.54783e-07 	2.81424 	0.0303618 	2.78388 	0 	0 	0 	
0.00160867 	-4.62258e-09 	0.92 	0.04 	0.04 	0.0291607 	3.8001 	
3.77094 	3.97141 	-0.200478 	-3.33915 	6.06234e-08 	13.3681 	16.6866 	
3.34757e-10 	14488.2 	246.919 	283.231 	0.35 	13.208 	-0.252813 	6.77333e-05 	
0.00180191 	0.00120127 	2.39037e-07 	4.34614 	0.0195475 	4.32659 	0 	0 	0 	
0.0016764 	-9.26152e-09 	0.92 	0.04 	0.04 	0.0291607 	3.80008 	
3.77092 	3.97141 	-0.200497 	-3.34039 	4.33131e-08 	10.0284 	20.0263 	
3.34881e-10 	14488.2 	246.919 	283.231 	0.35 	13.208 	-0.252907 	6.77333e-05 	
0.00180191 	0.00120127 	3.42325e-07 	6.2241 	0.0111319 	6.21297 	0 	0 	0 	
0.00174413 	-1.39025e-08 	0.92 	0.04 	0.04 	0.0291606 	3.80006 	
3.7709 	3.97141 	-0.200519 	-3.34186 	2.59951e-08 	6.68723 	23.3675 	
3.35028e-10 	14488.2 	246.919 	283.231 	0.35 	13.208 	-0.253018 	6.77333e-05 	
0.00180191 	0.00120127 	4.64675e-07 	8.44865 	0.00511709 	8.44353 	0 	0 	0 	
0.00181187 	-1.85456e-08 	0.92 	0.04 	0.04 	0.0291606 	3.80003 	
3.77087 	3.97141 	-0.200545 	-3.34356 	8.66965e-09 	3.34452 	26.7102 	
3.35198e-10 	14488.2 	246.919 	283.231 	0.35 	13.208 	-0.253146 	6.77333e-05 	
0.00180191 	0.00120127 	6.0612e-07 	11.0204 	0.00150576 	11.0189 	0 	0 	0 	
0.0018796 	0 	0.92 	0.04 	0.04 	0.0291606 	3.8 	
3.77084 	3.97141 	-0.200575 	-1.67274 	8.66965e-09 	0.83637 	29.2183 	
1.67696e-10 	7244.08 	123.46 	141.616 	0.35 	6.604 	-0.253292 	3.38667e-05 	
0.000900955 	0.000600637 	6.81621e-07 	12.3931 	0.00030136 	12.3928 	0 	0 	0 	
ZONE T = "t = 7.75e-08 [s]" I = 10 SOLUTIONTIME = 7.7500000000000E-08
0.00127 	1.8552e-08 	0.92 	0.04 	0.04 	0.0291615 	3.80014 	
3.77098 	3.97141 	-0.200435 	-1.66819 	1.47103e-07 	29.2206 	0.834095 	
2.29954e-10 	7244.08 	123.46 	141.616 	0.35 	6.604 	-0.252603 	3.38667e-05 	
0.000900955 	0.000600637 	1.0044e-08 	0.1296 	0.0867865 	0.0428132 	0 	0 	0 	
0.00133773 	1.39182e-08 	0.92 	0.04 	0.04 	0.0291613 	3.80014 	
3.77098 	3.97141 	-0.200436 	-3.33648 	1.29813e-07 	26.7182 	3.33643 	
4.59922e-10 	14488.2 	246.919 	283.231 	0.35 	13.208 	-0.25261 	6.77333e-05 	
0.00180191 	0.00120127 	2.25725e-08 	0.291259 	0.0771853 	0.214074 	0 	0 	0 	
0.00140547 	9.28388e-09 	0.92 	0.04 	0.04 	0.0291611 	3.80013 	
3.77097 	3.97141 	-0.200442 	-3.33681 	1.12521e-07 	23.3816 	6.67307 	
4.59967e-10 	14488.2 	246.919 	283.231 	0.35 	13.208 	-0.252635 	6.77333e-05 	
0.00180191 	0.00120127 	6.09986e-08 	0.78708 	0.0591811 	0.727899 	0 	0 	0 	
0.0014732 	4.64891e-09 	0.92 	0.04 	0.04 	0.029161 	3.80013 	
3.77096 	3.97141 	-0.20045 	-3.33736 	9.52261e-08 	20.0445 	10.0102 	
4.60043e-10 	14488.2 	246.919 	283.231 	0.35 	13.208 	-0.252677 	6.77333e-05 	
0.00180191 	0.00120127 	1.2617e-07 	1.628 	0.0435732 	1.58443 	0 	0 	0 	
0.00154093 	1.26955e-11 	0.92 	0.04 	0.04 	0.0291609 	3.80011 	
3.77095 	3.97141 	-0.200462 	-3.33814 	7.79274e-08 	16.7068 	13.3479 	
4.60151e-10 	14488.2 	246.919 	283.231 	0.35 	13.208 	-0.252736 	6.77333e-05 	
0.00180191 	0.00120127 	2.18104e-07 	2.81424 	0.0303618 	2.78388 	0 	0 	0 	
0.00160867 	-4.62492e-09 	0.92 	0.04 	0.04 	0.0291607 	3.8001 	
3.77094 	3.97141 	-0.200478 	-3.33915 	6.06234e-08 	13.3681 	16.6866 	
4.60291e-10 	14488.2 	246.919 	283.231 	0.35 	13.208 	-0.252813 	6.77333e-05 	
0.00180191 	0.00120127 	3.36825e-07 	4.34614 	0.0195475 	4.32659 	0 	0 	0 	
0.0016764 	-9.26394e-09 	0.92 	0.04 	0.04 	0.0291607 	3.80008 	
3.77092 	3.97141 	-0.200497 	-3.34039 	4.33131e-08 	10.0284 	20.0263 	
4.60461e-10 	14488.2 	246.919 	283.231 	0.35 	13.208 	-0.252907 	6.77333e-05 	
0.00180191 	0.00120127 	4.82367e-07 	6.2241 	0.0111319 	6.21297 	0 	0 	0 	
0.00174413 	-1.39052e-08 	0.92 	0.04 	0.04 	0.0291606 	3.80006 	
3.7709 	3.97141 	-0.200519 	-3.34186 	2.59951e-08 	6.68723 	23.3675 	
4.60664e-10 	14488.2 	246.919 	283.231 	0.35 	13.208 	-0.253018 	6.77333e-05 	
0.00180191 	0.00120127 	6.54769e-07 	8.44865 	0.00511709 	8.44353 	0 	0 	0 	
0.00181187 	-1.85487e-08 	0.92 	0.04 	0.04 	0.0291606 	3.80003 	
3.77087 	3.97141 	-0.200545 	-3.34356 	8.67013e-09 	3.34452 	26.7102 	
4.60897e-10 	14488.2 	246.919 	283.231 	0.35 	13.208 	-0.253146 	6.77333e-05 	
0.00180191 	0.00120127 	8.54079e-07 	11.0204 	0.00150576 	11.0189 	0 	0 	0 	
0.0018796 	0 	0.92 	0.04 	0.04 	0.0291606 	3.8 	
3.77084 	3.97141 	-0.200575 	-1.67274 	8.67013e-09 	0.83637 	29.2183 	
2.30581e-10 	7244.08 	123.46 	141.616 	0.35 	6.604 	-0.253292 	3.38667e-05 	
0.000900955 	0.000600637 	9.60466e-07 	12.3931 	0.00030136 	12.3928 	0 	0 	0 	
ZONE T = "t = 1.1125e-07 [s]" I = 10 SOLUTIONTIME = 1.1125000000000E-07
0.00127 	1.85537e-08 	0.92 	0.04 	0.04 	0.0291615 	3.80014 	
3.77098 	3.97141 	-0.200435 	-1.66819 	1.47104e-07 	29.2206 	0.834095 	
3.24026e-10 	7244.08 	123.46 	141.616 	0.35 	6.604 	-0.252603 	3.38667e-05 	
0.000900955 	0.000600637 	1.4418e-08 	0.1296 	0.0867865 	0.0428132 	0 	0 	0 	
0.00133773 	1.39201e-08 	0.92 	0.04 	0.04 	0.0291613 	3.80014 	
3.77098 	3.97141 	-0.200436 	-3.33648 	1.29813e-07 	26.7182 	3.33643 	
6.48072e-10 	14488.2 	246.919 	283.231 	0.35 	13.208 	-0.25261 	6.77333e-05 	
0.00180191 	0.00120127 	3.24025e-08 	0.291259 	0.0771853 	0.214074 	0 	0 	0 	
0.00140547 	9.286e-09 	0.92 	0.04 	0.04 	0.0291611 	3.80013 	
3.77097 	3.97141 	-0.200442 	-3.33681 	1.12521e-07 	23.3816 	6.67307 	
6.48135e-10 	14488.2 	246.919 	283.231 	0.35 	13.208 	-0.252635 	6.77333e-05 	
0.00180191 	0.00120127 	8.75626e-08 	0.78708 	0.0591811 	0.727899 	0 	0 	0 	
0.0014732 	4.65093e-09 	0.92 	0.04 	0.04 	0.029161 	3.80013 	
3.77096 	3.97141 	-0.20045 	-3.33736 	9.52261e-08 	20.0445 	10.0102 	
6.48243e-10 	14488.2 	246.919 	283.231 	0.35 	13.208 	-0.252677 	6.77333e-05 	
0.00180191 	0.00120127 	1.81115e-07 	1.628 	0.0435732 	1.58443 	0 	0 	0 	
0.00154093 	1.49823e-11 	0.92 	0.04 	0.04 	0.0291609 	3.80011 	
3.77095 	3.97141 	-0.200462 	-3.33814 	7.79274e-08 	16.7068 	13.3479 	
6.48395e-10 	14488.2 	246.919 	283.231 	0.35 	13.208 	-0.252736 	6.77333e-05 	
0.00180191 	0.00120127 	3.13084e-07 	2.81424 	0.0303618 	2.78388 	0 	0 	0 	
0.00160867 	-4.62237e-09 	0.92 	0.04 	0.04 	0.0291607 	3.8001 	
3.77094 	3.97141 	-0.200478 	-3.33915 	6.06234e-08 	13.3681 	16.6866 	
6.48591e-10 	14488.2 	246.919 	283.231 	0.35 	13.208 	-0.252813 	6.77333e-05 	
0.00180191 	0.00120127 	4.83508e-07 	4.34614 	0.0195475 	4.32659 	0 	0 	0 	
0.0016764 	-9.26143e-09 	0.92 	0.04 	0.04 	0.0291607 	3.80008 	
3.77092 	3.97141 	-0.200497 	-3.34039 	4.33131e-08 	10.0284 	20.0263 	
6.48832e-10 	14488.2 	246.919 	283.231 	0.35 	13.208 	-0.252907 	6.77333e-05 	
0.00180191 	0.00120127 	6.92431e-07 	6.2241 	0.0111319 	6.21297 	0 	0 	0 	
0.00174413 	-1.39026e-08 	0.92 	0.04 	0.04 	0.0291606 	3.80006 	
3.7709 	3.97141 	-0.200519 	-3.34186 	2.59951e-08 	6.68723 	23.3675 	
6.49117e-10 	14488.2 	246.919 	283.231 	0.35 	13.208 	-0.253018 	6.77333e-05 	
0.00180191 	0.00120127 	9.39911e-07 	8.44865 	0.00511709 	8.44353 	0 	0 	0 	
0.00181187 	-1.85462e-08 	0.92 	0.04 	0.04 	0.0291606 	3.80003 	
3.77087 	3.97141 	-0.200545 	-3.34356 	8.67086e-09 	3.34452 	26.7102 	
6.49446e-10 	14488.2 	246.919 	283.231 	0.35 	13.208 	-0.253146 	6.77333e-05 	
0.00180191 	0.00120127 	1.22602e-06 	11.0204 	0.00150576 	11.0189 	0 	0 	0 	
0.0018796 	0 	0.92 	0.04 	0.04 	0.0291606 	3.8 	
3.77084 	3.97141 	-0.200575 	-1.67274 	8.67086e-09 	0.83637 	29.2183 	
3.2491e-10 	7244.08 	123.46 	141.616 	0.35 	6.604 	-0.253292 	3.38667e-05 	
0.000900955 	0.000600637 	1.37873e-06 	12.3931 	0.00030136 	12.3928 	0 	0 	0 	
ZONE T = "t = 1.61875e-07 [s]" I = 10 SOLUTIONTIME = 1.6187500000000E-07
0.00127 	1.85537e-08 	0.92 	0.04 	0.04 	0.0291615 	3.80014 	
3.77098 	3.97141 	-0.200435 	-1.66819 	1.47104e-07 	29.2206 	0.834095 	
4.65134e-10 	7244.08 	123.46 	141.616 	0.35 	6.604 	-0.252603 	3.38667e-05 	
0.000900955 	0.000600637 	2.09789e-08 	0.1296 	0.0867865 	0.0428132 	0 	0 	0 	
0.00133773 	1.392e-08 	0.92 	0.04 	0.04 	0.0291613 	3.80014 	
3.77098 	3.97141 	-0.200436 	-3.33648 	1.29813e-07 	26.7182 	3.33643 	
9.30297e-10 	14488.2 	246.919 	283.231 	0.35 	13.208 	-0.25261 	6.77333e-05 	
0.00180191 	0.00120127 	4.71475e-08 	0.291259 	0.0771853 	0.214074 	0 	0 	0 	
0.00140547 	9.28584e-09 	0.92 	0.04 	0.04 	0.0291611 	3.80013 	
3.77097 	3.97141 	-0.200442 	-3.33681 	1.12521e-07 	23.3816 	6.67307 	
9.30388e-10 	14488.2 	246.919 	283.231 	0.35 	13.208 	-0.252635 	6.77333e-05 	
0.00180191 	0.00120127 	1.27409e-07 	0.78708 	0.0591811 	0.727899 	0 	0 	0 	
0.0014732 	4.65073e-09 	0.92 	0.04 	0.04 	0.029161 	3.80013 	
3.77096 	3.97141 	-0.20045 	-3.33736 	9.52261e-08 	20.0445 	10.0102 	
9.30542e-10 	14488.2 	246.919 	283.231 	0.35 	13.208 	-0.252677 	6.77333e-05 	
0.00180191 	0.00120127 	2.63532e-07 	1.628 	0.0435732 	1.58443 	0 	0 	0 	
0.00154093 	1.46774e-11 	0.92 	0.04 	0.04 	0.0291609 	3.80011 	
3.77095 	3.97141 	-0.200462 	-3.33814 	7.79274e-08 	16.7068 	13.3479 	
9.30761e-10 	14488.2 	246.919 	283.231 	0.35 	13.208 	-0.252736 	6.77333e-05 	
0.00180191 	0.00120127 	4.55555e-07 	2.81424 	0.0303618 	2.78388 	0 	0 	0 	
0.00160867 	-4.62264e-09 	0.92 	0.04 	0.04 	0.0291607 	3.8001 	
3.77094 	3.97141 	-0.200478 	-3.33915 	6.06234e-08 	13.3681 	16.6866 	
9.31042e-10 	14488.2 	246.919 	283.231 	0.35 	13.208 	-0.252813 	6.77333e-05 	
0.00180191 	0.00120127 	7.03531e-07 	4.34614 	0.0195475 	4.32659 	0 	0 	0 	
0.0016764 	-9.26188e-09 	0.92 	0.04 	0.04 	0.0291607 	3.80008 	
3.77092 	3.97141 	-0.200497 	-3.34039 	4.33131e-08 	10.0284 	20.0263 	
9.31388e-10 	14488.2 	246.919 	283.231 	0.35 	13.208 	-0.252907 	6.77333e-05 	
0.00180191 	0.00120127 	1.00753e-06 	6.2241 	0.0111319 	6.21297 	0 	0 	0 	
0.00174413 	-1.39031e-08 	0.92 	0.04 	0.04 	0.0291606 	3.80006 	
3.7709 	3.97141 	-0.200519 	-3.34186 	2.59951e-08 	6.68723 	23.3675 	
9.31797e-10 	14488.2 	246.919 	283.231 	0.35 	13.208 	-0.253018 	6.77333e-05 	
0.00180191 	0.00120127 	1.36762e-06 	8.44865 	0.00511709 	8.44353 	0 	0 	0 	
0.00181187 	-1.85466e-08 	0.92 	0.04 	0.04 	0.0291606 	3.80003 	
3.77087 	3.97141 	-0.200545 	-3.34356 	8.67194e-09 	3.34452 	26.7102 	
9.3227e-10 	14488.2 	246.919 	283.231 	0.35 	13.208 	-0.253146 	6.77333e-05 	
0.00180191 	0.00120127 	1.78392e-06 	11.0204 	0.00150576 	11.0189 	0 	0 	0 	
0.0018796 	0 	0.92 	0.04 	0.04 	0.0291606 	3.8 	
3.77084 	3.97141 	-0.200575 	-1.67274 	8.67194e-09 	0.83637 	29.2183 	
4.66403e-10 	7244.08 	123.46 	141.616 	0.35 	6.604 	-0.253292 	3.38667e-05 	
0.000900955 	0.000600637 	2.00614e-06 	12.3931 	0.00030136 	12.3928 	0 	0 	0 	
ZONE T = "t = 2.37813e-07 [s]" I = 10 SOLUTIONTIME = 2.3781250000000E-07
0.00127 	1.85534e-08 	0.92 	0.04 	0.04 	0.0291615 	3.80014 	
3.77098 	3.97141 	-0.200435 	-1.66819 	1.47105e-07 	29.2206 	0.834095 	
6.76797e-10 	7244.08 	123.46 	141.616 	0.35 	6.604 	-0.252603 	3.38667e-05 	
0.000900955 	0.000600637 	3.08204e-08 	0.1296 	0.0867865 	0.0428132 	0 	0 	0 	
0.00133773 	1.39195e-08 	0.92 	0.04 	0.04 	0.0291613 	3.80014 	
3.77098 	3.97141 	-0.200436 	-3.33648 	1.29813e-07 	26.7182 	3.33643 	
1.35363e-09 	14488.2 	246.919 	283.231 	0.35 	13.208 	-0.25261 	6.77333e-05 	
0.00180191 	0.00120127 	6.9265e-08 	0.291259 	0.0771853 	0.214074 	0 	0 	0 	
0.00140547 	9.28534e-09 	0.92 	0.04 	0.04 	0.0291611 	3.80013 	
3.77097 	3.97141 	-0.200442 	-3.33681 	1.12521e-07 	23.3816 	6.67307 	
1.35377e-09 	14488.2 	246.919 	283.231 	0.35 	13.208 	-0.252635 	6.77333e-05 	
0.00180191 	0.00120127 	1.87177e-07 	0.78708 	0.0591811 	0.727899 	0 	0 	0 	
0.0014732 	4.65047e-09 	0.92 	0.04 	0.04 	0.029161 	3.80013 	
3.77096 	3.97141 	-0.20045 	-3.33736 	9.52261e-08 	20.0445 	10.0102 	
1.35399e-09 	14488.2 	246.919 	283.231 	0.35 	13.208 	-0.252677 	6.77333e-05 	
0.00180191 	0.00120127 	3.87158e-07 	1.628 	0.0435732 	1.58443 	0 	0 	0 	
0.00154093 	1.44143e-11 	0.92 	0.04 	0.04 	0.0291609 	3.80011 	
3.77095 	3.97141 	-0.200462 	-3.33814 	7.79274e-08 	16.7068 	13.3479 	
1.35431e-09 	14488.2 	246.919 	283.231 	0.35 	13.208 	-0.252736 	6.77333e-05 	
0.00180191 	0.00120127 	6.69262e-07 	2.81424 	0.0303618 	2.78388 	0 	0 	0 	
0.00160867 	-4.62314e-09 	0.92 	0.04 	0.04 	0.0291607 	3.8001 	
3.77094 	3.97141 	-0.200478 	-3.33915 	6.06234e-08 	13.3681 	16.6866 	
1.35472e-09 	14488.2 	246.919 	283.231 	0.35 	13.208 	-0.252813 	6.77333e-05 	
0.00180191 	0.00120127 	1.03357e-06 	4.34614 	0.0195475 	4.32659 	0 	0 	0 	
0.0016764 	-9.26231e-09 	0.92 	0.04 	0.04 	0.0291607 	3.80008 	
3.77092 	3.97141 	-0.200497 	-3.34039 	4.33131e-08 	10.0284 	20.0263 	
1.35522e-09 	14488.2 	246.919 	283.231 	0.35 	13.208 	-0.252907 	6.77333e-05 	
0.00180191 	0.00120127 	1.48017e-06 	6.2241 	0.0111319 	6.21297 	0 	0 	0 	
0.00174413 	-1.39036e-08 	0.92 	0.04 	0.04 	0.0291606 	3.80006 	
3.7709 	3.97141 	-0.200519 	-3.34186 	2.59951e-08 	6.68723 	23.3675 	
1.35582e-09 	14488.2 	246.919 	283.231 	0.35 	13.208 	-0.253018 	6.77333e-05 	
0.00180191 	0.00120127 	2.00919e-06 	8.44865 	0.00511709 	8.44353 	0 	0 	0 	
0.00181187 	-1.85471e-08 	0.92 	0.04 	0.04 	0.0291606 	3.80003 	
3.77087 	3.97141 	-0.200545 	-3.34356 	8.67357e-09 	3.34452 	26.7102 	
1.3565e-09 	14488.2 	246.919 	283.231 	0.35 	13.208 	-0.253146 	6.77333e-05 	
0.00180191 	0.00120127 	2.62078e-06 	11.0204 	0.00150576 	11.0189 	0 	0 	0 	
0.0018796 	0 	0.92 	0.04 	0.04 	0.0291606 	3.8 	
3.77084 	3.97141 	-0.200575 	-1.67274 	8.67357e-09 	0.83637 	29.2183 	
6.78643e-10 	7244.08 	123.46 	141.616 	0.35 	6.604 	-0.253292 	3.38667e-05 	
0.000900955 	0.000600637 	2.94724e-06 	12.3931 	0.00030136 	12.3928 	0 	0 	0 	
ZONE T = "t = 3.51719e-07 [s]" I = 10 SOLUTIONTIME = 3.5171875000000E-07
0.00127 	1.85533e-08 	0.92 	0.04 	0.04 	0.0291615 	3.80014 	
3.77098 	3.97141 	-0.200435 	-1.66819 	1.47105e-07 	29.2206 	0.834095 	
9.9429e-10 	7244.08 	123.46 	141.616 	0.35 	6.604 	-0.252603 	3.38667e-05 	
0.000900955 	0.000600637 	4.55826e-08 	0.1296 	0.0867865 	0.0428132 	0 	0 	0 	
0.00133773 	1.39196e-08 	0.92 	0.04 	0.04 	0.0291613 	3.80014 	
3.77098 	3.97141 	-0.200436 	-3.33648 	1.29813e-07 	26.7182 	3.33643 	
1.98864e-09 	14488.2 	246.919 	283.231 	0.35 	13.208 	-0.25261 	6.77333e-05 	
0.00180191 	0.00120127 	1.02441e-07 	0.291259 	0.0771853 	0.214074 	0 	0 	0 	
0.00140547 	9.28538e-09 	0.92 	0.04 	0.04 	0.0291611 	3.80013 	
3.77097 	3.97141 	-0.200442 	-3.33681 	1.12521e-07 	23.3816 	6.67307 	