TITLE = "Solution on Domain BulkDomain1D_2"
VARIABLES = "x [m]"  
"Vel_axial" 	"MF_sp(ECDMC)" 	"MF_sp(Li+)" 	"MF_sp(PF6-)" 	"Volt(Electroly)" 	"Volt(CathodeVo)" 	
"Potential Drop Electrode-Electrolyte [V]" 	"Surf_0 Equilibrium Potential Drop Electrode-Electrolyte [V]" 	"Overpotential_0 [V]" 	"Current Source [A/m^2]" 	"Li+ flux [kmol/m^2/s]" 	"Electrolyte Current [A/m^2]" 	"Electrode Current [A/m^2]" 	
"CV Capacity discharged [A-s/m^2]" 	"Depth of discharge in CV [A-s/m^2]" 	"CV Capacity remaining [A-s/m^2]" 	"Initial CV capacity [A-s/m^2]" 	"Porosity []" 	"Surface Area [m2/m2] (area per area)" 	"Specific current (per particle area) [A/m^2]" 	"Control volume thickness [m]" 	
"MoleDens LiCoO2 [kmol/m^3]" 	"MoleDens CoO2 [kmol/m^3]" 	"qHeat_accum [J/m3]" 	"qHeat_step [W/m3]" 	"Joule_Lyte [W/m3]" 	"Joule_Solid [W/m3]" 	"electrodHeat [W/m3]" 	"OverpotHeat [W/m3]" 	"deltaSHeat [W/m3]" 	

ZONE T = "CATH, 0.0000E+00", I = 10, SOLUTIONTIME = 0.000000E+00
ZONETYPE = ORDERED
DATAPACKING = BLOCK
STRANDID = 3
 1.2700000000000E-03  1.3377333333333E-03  1.4054666666667E-03  1.4732000000000E-03  1.5409333333333E-03  1.6086666666667E-03  1.6764000000000E-03  1.7441333333333E-03  1.8118666666667E-03  1.8796000000000E-03 
 0.0000000000000E+00  0.0000000000000E+00  0.0000000000000E+00  0.0000000000000E+00  0.0000000000000E+00  0.0000000000000E+00  0.0000000000000E+00  0.0000000000000E+00  0.0000000000000E+00  0.0000000000000E+00 
 9.2000000000000E-01  9.2000000000000E-01  9.2000000000000E-01  9.2000000000000E-01  9.2000000000000E-01  9.2000000000000E-01  9.2000000000000E-01  9.2000000000000E-01  9.2000000000000E-01  9.2000000000000E-01 
 4.0000000000000E-02  4.0000000000000E-02  4.0000000000000E-02  4.0000000000000E-02  4.0000000000000E-02  4.0000000000000E-02  4.0000000000000E-02  4.0000000000000E-02  4.0000000000000E-02  4.0000000000000E-02 
 4.0000000000000E-02  4.0000000000000E-02  4.0000000000000E-02  4.0000000000000E-02  4.0000000000000E-02  4.0000000000000E-02  4.0000000000000E-02  4.0000000000000E-02  4.0000000000000E-02  4.0000000000000E-02 
-7.0000000000000E-02 -7.0000000000000E-02 -7.0000000000000E-02 -7.0000000000000E-02 -7.0000000000000E-02 -7.0000000000000E-02 -7.0000000000000E-02 -7.0000000000000E-02 -7.0000000000000E-02 -7.0000000000000E-02 
 3.8000000000000E+00  3.8000000000000E+00  3.8000000000000E+00  3.8000000000000E+00  3.8000000000000E+00  3.8000000000000E+00  3.8000000000000E+00  3.8000000000000E+00  3.8000000000000E+00  3.8000000000000E+00 
 3.8700000000000E+00  3.8700000000000E+00  3.8700000000000E+00  3.8700000000000E+00  3.8700000000000E+00  3.8700000000000E+00  3.8700000000000E+00  3.8700000000000E+00  3.8700000000000E+00  3.8700000000000E+00 
 3.9714142713289E+00  3.9714142713289E+00  3.9714142713289E+00  3.9714142713289E+00  3.9714142713289E+00  3.9714142713289E+00  3.9714142713289E+00  3.9714142713289E+00  3.9714142713289E+00  3.9714142713289E+00 
-1.0141427132889E-01 -1.0141427132889E-01 -1.0141427132889E-01 -1.0141427132889E-01 -1.0141427132889E-01 -1.0141427132889E-01 -1.0141427132889E-01 -1.0141427132889E-01 -1.0141427132889E-01 -1.0141427132889E-01 
-2.3826357195711E-01 -4.7652714391422E-01 -4.7652714391423E-01 -4.7652714391422E-01 -4.7652714391423E-01 -4.7652714391423E-01 -4.7652714391422E-01 -4.7652714391423E-01 -4.7652714391422E-01 -2.3826357195711E-01 
-0.0000000000000E+00 -0.0000000000000E+00 -0.0000000000000E+00 -0.0000000000000E+00 -0.0000000000000E+00 -0.0000000000000E+00 -0.0000000000000E+00 -0.0000000000000E+00 -0.0000000000000E+00 -0.0000000000000E+00 
 2.3826357195711E-01  0.0000000000000E+00  0.0000000000000E+00  0.0000000000000E+00  0.0000000000000E+00  0.0000000000000E+00  0.0000000000000E+00  0.0000000000000E+00  0.0000000000000E+00  0.0000000000000E+00 
 0.0000000000000E+00 -0.0000000000000E+00 -0.0000000000000E+00 -0.0000000000000E+00 -0.0000000000000E+00 -0.0000000000000E+00 -0.0000000000000E+00 -0.0000000000000E+00 -0.0000000000000E+00  2.3826357195711E-01 
-0.0000000000000E+00 -0.0000000000000E+00 -0.0000000000000E+00 -0.0000000000000E+00 -0.0000000000000E+00 -0.0000000000000E+00 -0.0000000000000E+00 -0.0000000000000E+00 -0.0000000000000E+00 -0.0000000000000E+00 
 7.2440786946225E+03  1.4488157389245E+04  1.4488157389245E+04  1.4488157389245E+04  1.4488157389245E+04  1.4488157389245E+04  1.4488157389245E+04  1.4488157389245E+04  1.4488157389245E+04  7.2440786946225E+03 
 4.9259735123433E+04  9.8519470246865E+04  9.8519470246866E+04  9.8519470246865E+04  9.8519470246866E+04  9.8519470246866E+04  9.8519470246865E+04  9.8519470246866E+04  9.8519470246865E+04  4.9259735123433E+04 
 5.6503813818055E+04  1.1300762763611E+05  1.1300762763611E+05  1.1300762763611E+05  1.1300762763611E+05  1.1300762763611E+05  1.1300762763611E+05  1.1300762763611E+05  1.1300762763611E+05  5.6503813818055E+04 
 3.5000000000000E-01  3.5000000000000E-01  3.5000000000000E-01  3.5000000000000E-01  3.5000000000000E-01  3.5000000000000E-01  3.5000000000000E-01  3.5000000000000E-01  3.5000000000000E-01  3.5000000000000E-01 
 6.6040000000000E+00  1.3208000000000E+01  1.3208000000000E+01  1.3208000000000E+01  1.3208000000000E+01  1.3208000000000E+01  1.3208000000000E+01  1.3208000000000E+01  1.3208000000000E+01  6.6040000000000E+00 
-3.6078675341780E-02 -3.6078675341780E-02 -3.6078675341780E-02 -3.6078675341780E-02 -3.6078675341780E-02 -3.6078675341780E-02 -3.6078675341780E-02 -3.6078675341780E-02 -3.6078675341780E-02 -3.6078675341780E-02 
 3.3866666666667E-05  6.7733333333333E-05  6.7733333333334E-05  6.7733333333333E-05  6.7733333333334E-05  6.7733333333334E-05  6.7733333333333E-05  6.7733333333334E-05  6.7733333333333E-05  3.3866666666667E-05 
 2.6603001364256E+01  2.6603001364256E+01  2.6603001364256E+01  2.6603001364256E+01  2.6603001364256E+01  2.6603001364256E+01  2.6603001364256E+01  2.6603001364256E+01  2.6603001364256E+01  2.6603001364256E+01 
 1.7735334242838E+01  1.7735334242838E+01  1.7735334242838E+01  1.7735334242838E+01  1.7735334242838E+01  1.7735334242838E+01  1.7735334242838E+01  1.7735334242838E+01  1.7735334242838E+01  1.7735334242838E+01 
 0.0000000000000E+00  0.0000000000000E+00  0.0000000000000E+00  0.0000000000000E+00  0.0000000000000E+00  0.0000000000000E+00  0.0000000000000E+00  0.0000000000000E+00  0.0000000000000E+00  0.0000000000000E+00 
 0.0000000000000E+00  0.0000000000000E+00  0.0000000000000E+00  0.0000000000000E+00  0.0000000000000E+00  0.0000000000000E+00  0.0000000000000E+00  0.0000000000000E+00  0.0000000000000E+00  0.0000000000000E+00 
 0.0000000000000E+00  0.0000000000000E+00  0.0000000000000E+00  0.0000000000000E+00  0.0000000000000E+00  0.0000000000000E+00  0.0000000000000E+00  0.0000000000000E+00  0.0000000000000E+00  0.0000000000000E+00 
 0.0000000000000E+00  0.0000000000000E+00  0.0000000000000E+00  0.0000000000000E+00  0.0000000000000E+00  0.0000000000000E+00  0.0000000000000E+00  0.0000000000000E+00  0.0000000000000E+00  0.0000000000000E+00 
 0.0000000000000E+00  0.0000000000000E+00  0.0000000000000E+00  0.0000000000000E+00  0.0000000000000E+00  0.0000000000000E+00  0.0000000000000E+00  0.0000000000000E+00  0.0000000000000E+00  0.0000000000000E+00 
 0.0000000000000E+00  0.0000000000000E+00  0.0000000000000E+00  0.0000000000000E+00  0.0000000000000E+00  0.0000000000000E+00  0.0000000000000E+00  0.0000000000000E+00  0.0000000000000E+00  0.0000000000000E+00 
 0.0000000000000E+00  0.0000000000000E+00  0.0000000000000E+00  0.0000000000000E+00  0.0000000000000E+00  0.0000000000000E+00  0.0000000000000E+00  0.0000000000000E+00  0.0000000000000E+00  0.0000000000000E+00 
ZONE T = "CATH, 1.0000E-08", I = 10, SOLUTIONTIME = 1.000000E-08
ZONETYPE = ORDERED
DATAPACKING = BLOCK
STRANDID = 3
 1.2700000000000E-03  1.3377333333333E-03  1.4054666666667E-03  1.4732000000000E-03  1.5409333333333E-03  1.6086666666667E-03  1.6764000000000E-03  1.7441333333333E-03  1.8118666666667E-03  1.8796000000000E-03 
 1.9684328397676E-08  1.7370910493428E-08  1.5057208693436E-08  1.2743027097254E-08  1.0428169649453E-08  8.1124400761726E-09  5.7956418215470E-09  3.4775779839282E-09  1.1580512518848E-09 -2.5424540954579E-12 
 9.2000000000032E-01  9.2000000000090E-01  9.2000000000090E-01  9.2000000000090E-01  9.2000000000090E-01  9.2000000000090E-01  9.2000000000090E-01  9.2000000000090E-01  9.2000000000090E-01  9.2000000000090E-01 
 3.9999999999841E-02  3.9999999999551E-02  3.9999999999551E-02  3.9999999999551E-02  3.9999999999551E-02  3.9999999999551E-02  3.9999999999550E-02  3.9999999999550E-02  3.9999999999550E-02  3.9999999999550E-02 
 3.9999999999841E-02  3.9999999999551E-02  3.9999999999551E-02  3.9999999999551E-02  3.9999999999551E-02  3.9999999999551E-02  3.9999999999550E-02  3.9999999999550E-02  3.9999999999550E-02  3.9999999999550E-02 
 2.9180542364376E-02  2.9180335543324E-02  2.9180153025957E-02  2.9179994815259E-02  2.9179860916270E-02  2.9179751336090E-02  2.9179666083881E-02  2.9179605170870E-02  2.9179568610354E-02  2.9179556417699E-02 
 3.8001744822351E+00  3.8001723293221E+00  3.8001658704190E+00  3.8001551049975E+00  3.8001400321646E+00  3.8001206506621E+00  3.8000969588669E+00  3.8000689547898E+00  3.8000366360751E+00  3.8000000000000E+00 
 3.7709939398708E+00  3.7709919937788E+00  3.7709857173931E+00  3.7709751101823E+00  3.7709601712483E+00  3.7709408993260E+00  3.7709172927830E+00  3.7708893496189E+00  3.7708570674648E+00  3.7708204435823E+00 
 3.9714142713287E+00  3.9714142713285E+00  3.9714142713285E+00  3.9714142713285E+00  3.9714142713285E+00  3.9714142713285E+00  3.9714142713285E+00  3.9714142713285E+00  3.9714142713285E+00  3.9714142713285E+00 
-2.0042033145795E-01 -2.0042227754974E-01 -2.0042855393543E-01 -2.0043916114623E-01 -2.0045410008023E-01 -2.0047337200250E-01 -2.0049697854550E-01 -2.0052492170961E-01 -2.0055720386376E-01 -2.0059382774622E-01 
-1.6677148275839E+00 -3.3355560826104E+00 -3.3359638592406E+00 -3.3366531226102E+00 -3.3376241052718E+00 -3.3388771349442E+00 -3.3404126347467E+00 -3.3422311235023E+00 -3.3443332161087E+00 -1.6733598119892E+00 
 1.4691707910510E-07  1.2965263396388E-07  1.1238620263793E-07  9.5116190741699E-08  7.7841135175721E-08  6.0559571217700E-08  4.3270032017093E-08  2.5971048177516E-08  8.6611472068092E-09  8.6611472068092E-09 
 3.0018376886821E+01  2.6684909038050E+01  2.3353198579039E+01  2.0020938231343E+01  1.6687845771227E+01  1.3353638706067E+01  1.0018034182741E+01  6.6807488960870E+00  3.3414989971083E+00  0.0000000000000E+00 
 0.0000000000000E+00  3.3314426166453E+00  6.6631530754869E+00  9.9954134231585E+00  1.3328505883242E+01  1.6662712948347E+01  1.9998317471681E+01  2.3335602758439E+01  2.6674852657545E+01  3.0018364090054E+01 
 1.6677148275839E-08  3.3355560826104E-08  3.3359638592406E-08  3.3366531226102E-08  3.3376241052718E-08  3.3388771349442E-08  3.3404126347467E-08  3.3422311235023E-08  3.3443332161087E-08  1.6733598119892E-08 
 7.2440786946392E+03  1.4488157389278E+04  1.4488157389278E+04  1.4488157389278E+04  1.4488157389278E+04  1.4488157389278E+04  1.4488157389278E+04  1.4488157389278E+04  1.4488157389278E+04  7.2440786946392E+03 
 4.9259735123416E+04  9.8519470246832E+04  9.8519470246832E+04  9.8519470246832E+04  9.8519470246832E+04  9.8519470246832E+04  9.8519470246832E+04  9.8519470246832E+04  9.8519470246832E+04  4.9259735123416E+04 
 5.6503813818055E+04  1.1300762763611E+05  1.1300762763611E+05  1.1300762763611E+05  1.1300762763611E+05  1.1300762763611E+05  1.1300762763611E+05  1.1300762763611E+05  1.1300762763611E+05  5.6503813818055E+04 
 3.5000000000000E-01  3.5000000000000E-01  3.5000000000000E-01  3.5000000000000E-01  3.5000000000000E-01  3.5000000000000E-01  3.5000000000000E-01  3.5000000000000E-01  3.5000000000000E-01  3.5000000000000E-01 
 6.6040000000000E+00  1.3208000000000E+01  1.3208000000000E+01  1.3208000000000E+01  1.3208000000000E+01  1.3208000000000E+01  1.3208000000000E+01  1.3208000000000E+01  1.3208000000000E+01  6.6040000000000E+00 
-2.5253101568502E-01 -2.5254058772035E-01 -2.5257146117812E-01 -2.5262364647261E-01 -2.5269716121077E-01 -2.5279203020473E-01 -2.5290828548960E-01 -2.5304596634633E-01 -2.5320511932986E-01 -2.5338579830243E-01 
 3.3866666666667E-05  6.7733333333333E-05  6.7733333333334E-05  6.7733333333333E-05  6.7733333333334E-05  6.7733333333334E-05  6.7733333333333E-05  6.7733333333334E-05  6.7733333333333E-05  3.3866666666667E-05 
 2.6603001364262E+01  2.6603001364262E+01  2.6603001364262E+01  2.6603001364262E+01  2.6603001364262E+01  2.6603001364262E+01  2.6603001364262E+01  2.6603001364262E+01  2.6603001364262E+01  2.6603001364262E+01 
 1.7735334242833E+01  1.7735334242833E+01  1.7735334242833E+01  1.7735334242833E+01  1.7735334242833E+01  1.7735334242833E+01  1.7735334242833E+01  1.7735334242833E+01  1.7735334242833E+01  1.7735334242833E+01 
 1.3951179039159E-09  3.4172562438701E-09  9.5920549889400E-09  2.0029304285320E-08  3.4732539494627E-08  5.3706742507997E-08  7.6958345217256E-08  1.0449523400061E-07  1.3632675522133E-07  1.5331743367263E-07 
 1.3951179039159E-01  3.4172562438701E-01  9.5920549889400E-01  2.0029304285320E+00  3.4732539494627E+00  5.3706742507997E+00  7.6958345217256E+00  1.0449523400061E+01  1.3632675522133E+01  1.5331743367263E+01 
 8.6567624460990E-02  7.6992698562034E-02  5.9037283683636E-02  4.3470625087509E-02  3.0292892450740E-02  1.9505065581604E-02  1.1108935781727E-02  5.1071077724098E-03  1.5030021941112E-03  3.0085867430507E-04 
 5.2944165930605E-02  2.6473292582498E-01  9.0016821521037E-01  1.9594598034445E+00  3.4429610570120E+00  5.3511691852181E+00  7.6847255859439E+00  1.0444416292288E+01  1.3631172519939E+01  1.5331442508589E+01 
 0.0000000000000E+00  0.0000000000000E+00  0.0000000000000E+00  0.0000000000000E+00  0.0000000000000E+00  0.0000000000000E+00  0.0000000000000E+00  0.0000000000000E+00  0.0000000000000E+00  0.0000000000000E+00 
 0.0000000000000E+00  0.0000000000000E+00  0.0000000000000E+00  0.0000000000000E+00  0.0000000000000E+00  0.0000000000000E+00  0.0000000000000E+00  0.0000000000000E+00  0.0000000000000E+00  0.0000000000000E+00 
 0.0000000000000E+00  0.0000000000000E+00  0.0000000000000E+00  0.0000000000000E+00  0.0000000000000E+00  0.0000000000000E+00  0.0000000000000E+00  0.0000000000000E+00  0.0000000000000E+00  0.0000000000000E+00 
ZONE T = "CATH, 2.0000E-08", I = 10, SOLUTIONTIME = 2.000000E-08
ZONETYPE = ORDERED
DATAPACKING = BLOCK
STRANDID = 3
 1.2700000000000E-03  1.3377333333333E-03  1.4054666666667E-03  1.4732000000000E-03  1.5409333333333E-03  1.6086666666667E-03  1.6764000000000E-03  1.7441333333333E-03  1.8118666666667E-03  1.8796000000000E-03 
 1.9700065583645E-08  1.7384919679939E-08  1.5069853665885E-08  1.2753945551820E-08  1.0437362809702E-08  8.1191830606243E-09  5.8002996703581E-09  3.4801528133052E-09  1.1585454443847E-09 -3.2688695491028E-12 
 9.2000000000063E-01  9.2000000000180E-01  9.2000000000180E-01  9.2000000000180E-01  9.2000000000180E-01  9.2000000000180E-01  9.2000000000180E-01  9.2000000000180E-01  9.2000000000180E-01  9.2000000000180E-01 
 3.9999999999683E-02  3.9999999999102E-02  3.9999999999102E-02  3.9999999999102E-02  3.9999999999101E-02  3.9999999999101E-02  3.9999999999100E-02  3.9999999999100E-02  3.9999999999099E-02  3.9999999999099E-02 
 3.9999999999683E-02  3.9999999999102E-02  3.9999999999102E-02  3.9999999999102E-02  3.9999999999101E-02  3.9999999999101E-02  3.9999999999100E-02  3.9999999999100E-02  3.9999999999099E-02  3.9999999999099E-02 
 2.9165953672893E-02  2.9165746665527E-02  2.9165563983816E-02  2.9165405630737E-02  2.9165271611320E-02  2.9165161932653E-02  2.9165076603882E-02  2.9165015636214E-02  2.9164979042924E-02  2.9164966839354E-02 
 3.8001746397140E+00  3.8001724848545E+00  3.8001660201127E+00  3.8001552449611E+00  3.8001401585083E+00  3.8001207594988E+00  3.8000970463120E+00  3.8000690169622E+00  3.8000366690977E+00  3.8000000000000E+00 
 3.7710086860411E+00  3.7710067381890E+00  3.7710004561289E+00  3.7709898393303E+00  3.7709748868970E+00  3.7709555975661E+00  3.7709319697081E+00  3.7709040013259E+00  3.7708716900547E+00  3.7708350331606E+00 
 3.9714142713285E+00  3.9714142713282E+00  3.9714142713282E+00  3.9714142713282E+00  3.9714142713282E+00  3.9714142713282E+00  3.9714142713282E+00  3.9714142713282E+00  3.9714142713282E+00  3.9714142713282E+00 
-2.0040558528741E-01 -2.0040753313913E-01 -2.0041381519929E-01 -2.0042443199783E-01 -2.0043938443115E-01 -2.0045867376204E-01 -2.0048230162008E-01 -2.0051027000221E-01 -2.0054258127342E-01 -2.0057923816751E-01 
-1.6672359144255E+00 -3.3345983343374E+00 -3.3350063626598E+00 -3.3356960514224E+00 -3.3366676333158E+00 -3.3379214362596E+00 -3.3394578836381E+00 -3.3412774946042E+00 -3.3433808844530E+00 -1.6728843825322E+00 
 1.4704956114278E-07  1.2976937743102E-07  1.1248734441065E-07  9.5201737564154E-08  7.7911096179938E-08  6.0613957849055E-08  4.3308857951356E-08  2.5994329209990E-08  8.6689011138357E-09  8.6689011138357E-09 
 3.0043437538931E+01  2.6708942850946E+01  2.3374221303142E+01  2.0038950933205E+01  1.6702849982948E+01  1.3365636412978E+01  1.0027027808666E+01  6.6867412845507E+00  3.3444933870872E+00  0.0000000000000E+00 
 0.0000000000000E+00  3.3344542997609E+00  6.6691758478264E+00  1.0004446217366E+01  1.3340547167775E+01  1.6677760737783E+01  2.0016369341835E+01  2.3356655866295E+01  2.6698903763756E+01  3.0043437908304E+01 
 3.3349507420093E-08  6.6701544169478E-08  6.6709702219004E-08  6.6723491740326E-08  6.6742917385876E-08  6.6767985712038E-08  6.6798705183848E-08  6.6835086181065E-08  6.6877141005617E-08  3.3462441945214E-08 
 7.2440786946558E+03  1.4488157389312E+04  1.4488157389312E+04  1.4488157389312E+04  1.4488157389312E+04  1.4488157389312E+04  1.4488157389312E+04  1.4488157389312E+04  1.4488157389312E+04  7.2440786946559E+03 
 4.9259735123400E+04  9.8519470246798E+04  9.8519470246799E+04  9.8519470246798E+04  9.8519470246799E+04  9.8519470246799E+04  9.8519470246798E+04  9.8519470246799E+04  9.8519470246798E+04  4.9259735123399E+04 
 5.6503813818055E+04  1.1300762763611E+05  1.1300762763611E+05  1.1300762763611E+05  1.1300762763611E+05  1.1300762763611E+05  1.1300762763611E+05  1.1300762763611E+05  1.1300762763611E+05  5.6503813818055E+04 
 3.5000000000000E-01  3.5000000000000E-01  3.5000000000000E-01  3.5000000000000E-01  3.5000000000000E-01  3.5000000000000E-01  3.5000000000000E-01  3.5000000000000E-01  3.5000000000000E-01  3.5000000000000E-01 
 6.6040000000000E+00  1.3208000000000E+01  1.3208000000000E+01  1.3208000000000E+01  1.3208000000000E+01  1.3208000000000E+01  1.3208000000000E+01  1.3208000000000E+01  1.3208000000000E+01  6.6040000000000E+00 
-2.5245849703596E-01 -2.5246807498012E-01 -2.5249896749393E-01 -2.5255118499564E-01 -2.5262474510265E-01 -2.5271967264231E-01 -2.5283599966976E-01 -2.5297376549093E-01 -2.5313301669087E-01 -2.5331380716720E-01 
 3.3866666666667E-05  6.7733333333333E-05  6.7733333333334E-05  6.7733333333333E-05  6.7733333333334E-05  6.7733333333334E-05  6.7733333333333E-05  6.7733333333334E-05  6.7733333333333E-05  3.3866666666667E-05 
 2.6603001364267E+01  2.6603001364267E+01  2.6603001364267E+01  2.6603001364267E+01  2.6603001364267E+01  2.6603001364267E+01  2.6603001364267E+01  2.6603001364267E+01  2.6603001364267E+01  2.6603001364267E+01 
 1.7735334242827E+01  1.7735334242827E+01  1.7735334242827E+01  1.7735334242827E+01  1.7735334242827E+01  1.7735334242827E+01  1.7735334242827E+01  1.7735334242827E+01  1.7735334242827E+01  1.7735334242827E+01 
 2.7927539481513E-09  6.8406885581090E-09  1.9201453524231E-08  4.0094821459550E-08  6.9527859839311E-08  1.0751052818692E-07  1.5405568512330E-07  2.0917909747055E-07  2.7289945140557E-07  3.0691138238271E-07 
 1.3976360442354E-01  3.4234323142388E-01  9.6093985352913E-01  2.0065517174230E+00  3.4795320344683E+00  5.3803785678922E+00  7.7097339906042E+00  1.0468386346994E+01  1.3657269618424E+01  1.5359394871008E+01 
 8.6723662816575E-02  7.7131450222412E-02  5.9143625157458E-02  4.3548882710942E-02  3.0347392095103E-02  1.9540132010793E-02  1.1128892044897E-02  5.1162746455090E-03  1.5056976808032E-03  3.0139759378406E-04 
 5.3039941606964E-02  2.6521178120147E-01  9.0179622837167E-01  1.9630028347120E+00  3.4491846423732E+00  5.3608384358814E+00  7.6986050985593E+00  1.0463270072349E+01  1.3655763920743E+01  1.5359093473414E+01 
 0.0000000000000E+00  0.0000000000000E+00  0.0000000000000E+00  0.0000000000000E+00  0.0000000000000E+00  0.0000000000000E+00  0.0000000000000E+00  0.0000000000000E+00  0.0000000000000E+00  0.0000000000000E+00 
 0.0000000000000E+00  0.0000000000000E+00  0.0000000000000E+00  0.0000000000000E+00  0.0000000000000E+00  0.0000000000000E+00  0.0000000000000E+00  0.0000000000000E+00  0.0000000000000E+00  0.0000000000000E+00 
 0.0000000000000E+00  0.0000000000000E+00  0.0000000000000E+00  0.0000000000000E+00  0.0000000000000E+00  0.0000000000000E+00  0.0000000000000E+00  0.0000000000000E+00  0.0000000000000E+00  0.0000000000000E+00 
ZONE T = "CATH, 3.0000E-08", I = 10, SOLUTIONTIME = 3.000000E-08
ZONETYPE = ORDERED
DATAPACKING = BLOCK
STRANDID = 3
 1.2700000000000E-03  1.3377333333333E-03  1.4054666666667E-03  1.4732000000000E-03  1.5409333333333E-03  1.6086666666667E-03  1.6764000000000E-03  1.7441333333333E-03  1.8118666666667E-03  1.8796000000000E-03 
 1.9706951166369E-08  1.7390995604282E-08  1.5075483094915E-08  1.2758765203860E-08  1.0441372581463E-08  8.1234724425853E-09  5.8041420848443E-09  3.4839112761933E-09  1.1622197340510E-09  5.4481159052911E-13 
 9.2000000000095E-01  9.2000000000269E-01  9.2000000000270E-01  9.2000000000270E-01  9.2000000000270E-01  9.2000000000270E-01  9.2000000000270E-01  9.2000000000270E-01  9.2000000000270E-01  9.2000000000270E-01 
 3.9999999999524E-02  3.9999999998653E-02  3.9999999998652E-02  3.9999999998652E-02  3.9999999998652E-02  3.9999999998651E-02  3.9999999998651E-02  3.9999999998650E-02  3.9999999998649E-02  3.9999999998648E-02 
 3.9999999999524E-02  3.9999999998653E-02  3.9999999998652E-02  3.9999999998652E-02  3.9999999998652E-02  3.9999999998651E-02  3.9999999998651E-02  3.9999999998650E-02  3.9999999998649E-02  3.9999999998648E-02 
 2.9165369697271E-02  2.9165162682435E-02  2.9164979994128E-02  2.9164821635328E-02  2.9164687611067E-02  2.9164577928432E-02  2.9164492596571E-02  2.9164431626694E-02  2.9164395032076E-02  2.9164382828063E-02 
 3.8001746460029E+00  3.8001724910659E+00  3.8001660260917E+00  3.8001552505526E+00  3.8001401635573E+00  3.8001207638498E+00  3.8000970498095E+00  3.8000690194502E+00  3.8000366704200E+00  3.8000000000000E+00 
 3.7710092763056E+00  3.7710073283835E+00  3.7710010460975E+00  3.7709904289173E+00  3.7709754759462E+00  3.7709561859214E+00  3.7709325572129E+00  3.7709045878235E+00  3.7708722753880E+00  3.7708356171719E+00 
 3.9714142713283E+00  3.9714142713278E+00  3.9714142713278E+00  3.9714142713278E+00  3.9714142713278E+00  3.9714142713278E+00  3.9714142713278E+00  3.9714142713278E+00  3.9714142713278E+00  3.9714142713278E+00 
-2.0040499502276E-01 -2.0040694294428E-01 -2.0041322523024E-01 -2.0042384241048E-01 -2.0043879538154E-01 -2.0045808540640E-01 -2.0048171411488E-01 -2.0050968350425E-01 -2.0054199593983E-01 -2.0057865415585E-01 
-1.6672167471838E+00 -3.3345600029233E+00 -3.3349680412300E+00 -3.3356577468788E+00 -3.3366293525795E+00 -3.3378831862781E+00 -3.3394196713930E+00 -3.3412393271190E+00 -3.3433427688007E+00 -1.6728653541879E+00 
 1.4705500007412E-07  1.2977406259689E-07  1.1249140804107E-07  9.5205179110869E-08  7.7913914870654E-08  6.0616152698401E-08  4.3310427749239E-08  2.5995272509700E-08  8.6692162784949E-09  8.6692162784949E-09 
 3.0044442342503E+01  2.6709906883433E+01  2.3375065426927E+01  2.0039675062972E+01  1.6703453991001E+01  1.3366120129533E+01  1.0027391021612E+01  6.6869837384992E+00  3.3446147843211E+00  0.0000000000000E+00 
 0.0000000000000E+00  3.3345741651951E+00  6.6694156218153E+00  1.0004805985463E+01  1.3341027057279E+01  1.6678360918770E+01  2.0017090026987E+01  2.3357497310209E+01  2.6699866264152E+01  3.0044441988394E+01 
 5.0021674891932E-08  1.0004714419871E-07  1.0005938263130E-07  1.0008006920911E-07  1.0010921091167E-07  1.0014681757482E-07  1.0019290189778E-07  1.0024747945225E-07  1.0031056869362E-07  5.0191095487094E-08 
 7.2440786946725E+03  1.4488157389345E+04  1.4488157389345E+04  1.4488157389345E+04  1.4488157389345E+04  1.4488157389345E+04  1.4488157389345E+04  1.4488157389345E+04  1.4488157389345E+04  7.2440786946727E+03 
 4.9259735123383E+04  9.8519470246765E+04  9.8519470246766E+04  9.8519470246765E+04  9.8519470246766E+04  9.8519470246766E+04  9.8519470246765E+04  9.8519470246766E+04  9.8519470246765E+04  4.9259735123383E+04 
 5.6503813818055E+04  1.1300762763611E+05  1.1300762763611E+05  1.1300762763611E+05  1.1300762763611E+05  1.1300762763611E+05  1.1300762763611E+05  1.1300762763611E+05  1.1300762763611E+05  5.6503813818055E+04 
 3.5000000000000E-01  3.5000000000000E-01  3.5000000000000E-01  3.5000000000000E-01  3.5000000000000E-01  3.5000000000000E-01  3.5000000000000E-01  3.5000000000000E-01  3.5000000000000E-01  3.5000000000000E-01 
 6.6040000000000E+00  1.3208000000000E+01  1.3208000000000E+01  1.3208000000000E+01  1.3208000000000E+01  1.3208000000000E+01  1.3208000000000E+01  1.3208000000000E+01  1.3208000000000E+01  6.6040000000000E+00 
-2.5245559466745E-01 -2.5246517284398E-01 -2.5249606611372E-01 -2.5254828489392E-01 -2.5262184680342E-01 -2.5271677667157E-01 -2.5283310655610E-01 -2.5297087576612E-01 -2.5313013089042E-01 -2.5331092583100E-01 
 3.3866666666667E-05  6.7733333333333E-05  6.7733333333334E-05  6.7733333333333E-05  6.7733333333334E-05  6.7733333333334E-05  6.7733333333333E-05  6.7733333333334E-05  6.7733333333333E-05  3.3866666666667E-05 
 2.6603001364272E+01  2.6603001364272E+01  2.6603001364272E+01  2.6603001364272E+01  2.6603001364272E+01  2.6603001364272E+01  2.6603001364272E+01  2.6603001364272E+01  2.6603001364272E+01  2.6603001364272E+01 
 1.7735334242822E+01  1.7735334242822E+01  1.7735334242822E+01  1.7735334242822E+01  1.7735334242822E+01  1.7735334242822E+01  1.7735334242822E+01  1.7735334242822E+01  1.7735334242822E+01  1.7735334242822E+01 
 4.1904907139630E-09  1.0264367232577E-08  2.8811543239675E-08  6.0161781987043E-08  1.0432568372967E-07  1.6131818656370E-07  2.3115857704755E-07  3.1387050392299E-07  4.0948199493613E-07  4.6051640920738E-07 
 1.3977367658117E-01  3.4236786744677E-01  9.6100897154442E-01  2.0066960527494E+00  3.4797823890355E+00  5.3807658376786E+00  7.7102891924250E+00  1.0469140645244E+01  1.3658254353057E+01  1.5360502682467E+01 
 8.6729921872128E-02  7.7137018202092E-02  5.9147896907134E-02  4.3552030055045E-02  3.0349586895519E-02  1.9541546318541E-02  1.1129698250318E-02  5.1166456282995E-03  1.5058069644989E-03  3.0141949911308E-04 
 5.3043754709042E-02  2.6523084924467E-01  9.0186107463728E-01  1.9631440226943E+00  3.4494328021400E+00  5.3612242913600E+00  7.6991594941747E+00  1.0464023999615E+01  1.3656748546092E+01  1.5360201262968E+01 
 0.0000000000000E+00  0.0000000000000E+00  0.0000000000000E+00  0.0000000000000E+00  0.0000000000000E+00  0.0000000000000E+00  0.0000000000000E+00  0.0000000000000E+00  0.0000000000000E+00  0.0000000000000E+00 
 0.0000000000000E+00  0.0000000000000E+00  0.0000000000000E+00  0.0000000000000E+00  0.0000000000000E+00  0.0000000000000E+00  0.0000000000000E+00  0.0000000000000E+00  0.0000000000000E+00  0.0000000000000E+00 
 0.0000000000000E+00  0.0000000000000E+00  0.0000000000000E+00  0.0000000000000E+00  0.0000000000000E+00  0.0000000000000E+00  0.0000000000000E+00  0.0000000000000E+00  0.0000000000000E+00  0.0000000000000E+00 
ZONE T = "CATH, 4.0000E-08", I = 10, SOLUTIONTIME = 4.000000E-08
ZONETYPE = ORDERED
DATAPACKING = BLOCK
STRANDID = 3
 1.2700000000000E-03  1.3377333333333E-03  1.4054666666667E-03  1.4732000000000E-03  1.5409333333333E-03  1.6086666666667E-03  1.6764000000000E-03  1.7441333333333E-03  1.8118666666667E-03  1.8796000000000E-03 
 1.9701176273286E-08  1.7385622174705E-08  1.5069784733923E-08  1.2753831568637E-08  1.0437203719500E-08  8.1197052071715E-09  5.8007765505660E-09  3.4805843235337E-09  1.1592946726382E-09 -2.1792463666909E-12 
 9.2000000000127E-01  9.2000000000359E-01  9.2000000000359E-01  9.2000000000359E-01  9.2000000000360E-01  9.2000000000360E-01  9.2000000000360E-01  9.2000000000360E-01  9.2000000000360E-01  9.2000000000361E-01 
 3.9999999999365E-02  3.9999999998203E-02  3.9999999998203E-02  3.9999999998203E-02  3.9999999998202E-02  3.9999999998201E-02  3.9999999998201E-02  3.9999999998200E-02  3.9999999998198E-02  3.9999999998197E-02 
 3.9999999999365E-02  3.9999999998203E-02  3.9999999998203E-02  3.9999999998203E-02  3.9999999998202E-02  3.9999999998201E-02  3.9999999998201E-02  3.9999999998200E-02  3.9999999998198E-02  3.9999999998197E-02 
 2.9165638049926E-02  2.9165431038523E-02  2.9165248353247E-02  2.9165089997076E-02  2.9164955975041E-02  2.9164846294230E-02  2.9164760963789E-02  2.9164699994927E-02  2.9164663400920E-02  2.9164651197110E-02 
 3.8001746431127E+00  3.8001724882114E+00  3.8001660233439E+00  3.8001552479829E+00  3.8001401612370E+00  3.8001207618502E+00  3.8000970482021E+00  3.8000690183068E+00  3.8000366698123E+00  3.8000000000000E+00 
 3.7710090050628E+00  3.7710070571729E+00  3.7710007749907E+00  3.7709901579858E+00  3.7709752052619E+00  3.7709559155560E+00  3.7709322872383E+00  3.7709043183119E+00  3.7708720064114E+00  3.7708353488029E+00 
 3.9714142713282E+00  3.9714142713274E+00  3.9714142713274E+00  3.9714142713274E+00  3.9714142713274E+00  3.9714142713274E+00  3.9714142713274E+00  3.9714142713274E+00  3.9714142713274E+00  3.9714142713274E+00 
-2.0040526626539E-01 -2.0040721415456E-01 -2.0041349633675E-01 -2.0042411334157E-01 -2.0043906606550E-01 -2.0045835577143E-01 -2.0048198408908E-01 -2.0050995301555E-01 -2.0054226491602E-01 -2.0057892252453E-01 
-1.6672255550188E+00 -3.3345776171473E+00 -3.3349856508654E+00 -3.3356753487535E+00 -3.3366469435127E+00 -3.3379007630769E+00 -3.3394372308487E+00 -3.3412568660037E+00 -3.3433602838637E+00 -1.6728740981700E+00 