TITLE = "Solution on Domain BulkDomain1D_0"
VARIABLES = "x [m]"  
"Vel_axial(0)" 	"MF_sp(ECDMC)" 	"MF_sp(Li+)" 	"MF_sp(PF6-)" 	"Volt(Electroly)" 	"Volt(AnodeVolt)" 	
"Potential Drop Electrode-Electrolyte [V]" 	"Surf_0 Equilibrium Potential Drop Electrode-Electrolyte [V]" 	"Overpotential_0 [V]" 	"Current Source [A/m^2]" 	"Li+ flux [kmol/m^2/s]" 	"Electrolyte Current [A/m^2]" 	"Electrode Current [A/m^2]" 	
"Capacity discharged [A-s]" 	"Depth of discharge [-]" 	"Capacity remaining [A-s]" 	"Initial capacity [A-s]" 	"Porosity []" 	"Surface Area [m2/m2] (area per area)" 	"Specific current (per particle area) [A/m^2]" 	"Control volume thickness [m]" 	
"Moles Li_C6-bulk [mol/m^2] (per electrode area)" 	"Moles V_C6-bulk [mol/m^2] (per electrode area)" 	

ZONE T = "t = 0 [s]" I = 10 SOLUTIONTIME = 0.0000000000000E+00
0 	0 	0.92 	0.04 	0.04 	-0.07 	0 	
0 	0 	0 	0 	0 	0 	15.4651 	
0 	0 	0 	0 	0.35 	8.53017 	3.62598 	4.37444e-05 	
0.00379119 	0.000947796 	
8.74889e-05 	0 	0.92 	0.04 	0.04 	-0.07 	0 	
0 	0 	0 	0 	0 	0 	-0 	
0 	0 	0 	0 	0.35 	17.0603 	3.62598 	8.74889e-05 	
0.00758237 	0.00189559 	
0.000174978 	0 	0.92 	0.04 	0.04 	-0.07 	0 	
0 	0 	0 	0 	0 	0 	-0 	
0 	0 	0 	0 	0.35 	17.0603 	3.62598 	8.74889e-05 	
0.00758237 	0.00189559 	
0.000262467 	0 	0.92 	0.04 	0.04 	-0.07 	0 	
0 	0 	0 	0 	0 	0 	-0 	
0 	0 	0 	0 	0.35 	17.0603 	3.62598 	8.74889e-05 	
0.00758237 	0.00189559 	
0.000349956 	0 	0.92 	0.04 	0.04 	-0.07 	0 	
0 	0 	0 	0 	0 	0 	-0 	
0 	0 	0 	0 	0.35 	17.0603 	3.62598 	8.74889e-05 	
0.00758237 	0.00189559 	
0.000437444 	0 	0.92 	0.04 	0.04 	-0.07 	0 	
0 	0 	0 	0 	0 	0 	-0 	
0 	0 	0 	0 	0.35 	17.0603 	3.62598 	8.74889e-05 	
0.00758237 	0.00189559 	
0.000524933 	0 	0.92 	0.04 	0.04 	-0.07 	0 	
0 	0 	0 	0 	0 	0 	-0 	
0 	0 	0 	0 	0.35 	17.0603 	3.62598 	8.74889e-05 	
0.00758237 	0.00189559 	
0.000612422 	0 	0.92 	0.04 	0.04 	-0.07 	0 	
0 	0 	0 	0 	0 	0 	-0 	
0 	0 	0 	0 	0.35 	17.0603 	3.62598 	8.74889e-05 	
0.00758237 	0.00189559 	
0.000699911 	0 	0.92 	0.04 	0.04 	-0.07 	0 	
0 	0 	0 	0 	0 	0 	-0 	
0 	0 	0 	0 	0.35 	17.0603 	3.62598 	8.74889e-05 	
0.00758237 	0.00189559 	
0.0007874 	0 	0.92 	0.04 	0.04 	-0.07 	0 	
0 	0 	0 	0 	0 	15.4651 	0 	
0 	0 	0 	0 	0.35 	8.53017 	3.62598 	4.37444e-05 	
0.00379119 	0.000947796 	
ZONE T = "t = 1e-08 [s]" I = 10 SOLUTIONTIME = 1.0000000000000E-08
0 	1.98321e-09 	0.92 	0.04 	0.04 	0.0211353 	0 	
0.07 	-0.0409067 	0.110907 	30.9302 	-0 	1.42799 	49.9817 	
7.75205e-10 	45724.2 	848.03 	962.628 	0.35 	8.53017 	0.33481 	4.37444e-05 	
0.00379119 	0.000947796 	
8.74889e-05 	5.94964e-09 	0.92 	0.04 	0.04 	0.0211352 	-4.24791e-09 	
0.07 	-0.0409067 	0.110907 	61.8605 	-0 	5.71197 	45.6977 	
1.55041e-09 	91448.4 	1696.06 	1925.26 	0.35 	17.0603 	0.33481 	8.74889e-05 	
0.00758237 	0.00189559 	
0.000174978 	9.91609e-09 	0.92 	0.04 	0.04 	0.0211352 	-7.99608e-09 	
0.07 	-0.0409067 	0.110907 	61.8605 	-0 	11.424 	39.9857 	
1.55041e-09 	91448.4 	1696.06 	1925.26 	0.35 	17.0603 	0.334812 	8.74889e-05 	
0.00758237 	0.00189559 	
0.000262467 	1.38826e-08 	0.92 	0.04 	0.04 	0.021135 	-1.12445e-08 	
0.07 	-0.0409067 	0.110907 	61.8605 	-0 	17.136 	34.2737 	
1.55041e-09 	91448.4 	1696.06 	1925.26 	0.35 	17.0603 	0.334814 	8.74889e-05 	
0.00758237 	0.00189559 	
0.000349956 	1.78491e-08 	0.92 	0.04 	0.04 	0.0211348 	-1.39932e-08 	
0.07 	-0.0409067 	0.110907 	61.8605 	-0 	22.848 	28.5616 	
1.55041e-09 	91448.4 	1696.06 	1925.26 	0.35 	17.0603 	0.334817 	8.74889e-05 	
0.00758237 	0.00189559 	
0.000437444 	2.18156e-08 	0.92 	0.04 	0.04 	0.0211346 	-1.62422e-08 	
0.07 	-0.0409067 	0.110907 	61.8605 	-0 	28.5602 	22.8495 	
1.55041e-09 	91448.4 	1696.06 	1925.26 	0.35 	17.0603 	0.334822 	8.74889e-05 	
0.00758237 	0.00189559 	
0.000524933 	2.57823e-08 	0.92 	0.04 	0.04 	0.0211343 	-1.79914e-08 	
0.07 	-0.0409067 	0.110907 	61.8605 	-0 	34.2724 	17.1373 	
1.55041e-09 	91448.4 	1696.06 	1925.26 	0.35 	17.0603 	0.334827 	8.74889e-05 	
0.00758237 	0.00189559 	
0.000612422 	2.9749e-08 	0.92 	0.04 	0.04 	0.021134 	-1.92408e-08 	
0.07 	-0.0409067 	0.110907 	61.8605 	-0 	39.9847 	11.425 	
1.55041e-09 	91448.4 	1696.06 	1925.26 	0.35 	17.0603 	0.334833 	8.74889e-05 	
0.00758237 	0.00189559 	
0.000699911 	3.37157e-08 	0.92 	0.04 	0.04 	0.0211336 	-1.99905e-08 	
0.07 	-0.0409067 	0.110907 	61.8605 	-0 	45.6971 	5.71255 	
1.55041e-09 	91448.4 	1696.06 	1925.26 	0.35 	17.0603 	0.33484 	8.74889e-05 	
0.00758237 	0.00189559 	
0.0007874 	3.56992e-08 	0.92 	0.04 	0.04 	0.0211331 	-2.02404e-08 	
0.07 	-0.0409067 	0.110907 	30.9302 	-0 	49.9815 	1.42816 	
7.75205e-10 	45724.2 	848.03 	962.628 	0.35 	8.53017 	0.334848 	4.37444e-05 	
0.00379119 	0.000947796 	
ZONE T = "t = 2e-08 [s]" I = 10 SOLUTIONTIME = 2.0000000000000E-08
0 	1.16001e-09 	0.92 	0.04 	0.04 	0.0291573 	0 	
-0.0211353 	-0.0409067 	0.0197714 	2.85599 	1.48001e-08 	0.835256 	29.235 	
7.15796e-11 	45724.2 	848.03 	962.628 	0.35 	8.53017 	0.195836 	4.37444e-05 	
0.00379119 	0.000947796 	
8.74889e-05 	3.48004e-09 	0.92 	0.04 	0.04 	0.0291572 	-2.48467e-09 	
-0.0211353 	-0.0409067 	0.0197715 	5.71198 	4.44003e-08 	3.34102 	26.7293 	
1.43159e-10 	91448.4 	1696.06 	1925.26 	0.35 	17.0603 	0.195836 	8.74889e-05 	
0.00758237 	0.00189559 	
0.000174978 	5.80008e-09 	0.92 	0.04 	0.04 	0.0291572 	-4.67703e-09 	
-0.0211352 	-0.0409067 	0.0197715 	5.712 	7.40006e-08 	6.68206 	23.3882 	
1.4316e-10 	91448.4 	1696.06 	1925.26 	0.35 	17.0603 	0.195837 	8.74889e-05 	
0.00758237 	0.00189559 	
0.000262467 	8.12013e-09 	0.92 	0.04 	0.04 	0.0291571 	-6.57709e-09 	
-0.021135 	-0.0409067 	0.0197717 	5.71204 	1.03601e-07 	10.0231 	20.0472 	
1.43161e-10 	91448.4 	1696.06 	1925.26 	0.35 	17.0603 	0.195838 	8.74889e-05 	
0.00758237 	0.00189559 	
0.000349956 	1.04402e-08 	0.92 	0.04 	0.04 	0.029157 	-8.18484e-09 	
-0.0211349 	-0.0409067 	0.0197719 	5.7121 	1.33202e-07 	13.3642 	16.7061 	
1.43162e-10 	91448.4 	1696.06 	1925.26 	0.35 	17.0603 	0.19584 	8.74889e-05 	
0.00758237 	0.00189559 	
0.000437444 	1.27603e-08 	0.92 	0.04 	0.04 	0.0291569 	-9.50029e-09 	
-0.0211346 	-0.0409067 	0.0197721 	5.71217 	1.62803e-07 	16.7053 	13.365 	
1.43164e-10 	91448.4 	1696.06 	1925.26 	0.35 	17.0603 	0.195842 	8.74889e-05 	
0.00758237 	0.00189559 	
0.000524933 	1.50804e-08 	0.92 	0.04 	0.04 	0.0291567 	-1.05234e-08 	
-0.0211343 	-0.0409067 	0.0197724 	5.71226 	1.92405e-07 	20.0465 	10.0238 	
1.43166e-10 	91448.4 	1696.06 	1925.26 	0.35 	17.0603 	0.195845 	8.74889e-05 	
0.00758237 	0.00189559 	
0.000612422 	1.74006e-08 	0.92 	0.04 	0.04 	0.0291565 	-1.12542e-08 	
-0.021134 	-0.0409067 	0.0197727 	5.71236 	2.22007e-07 	23.3877 	6.68263 	
1.43169e-10 	91448.4 	1696.06 	1925.26 	0.35 	17.0603 	0.195849 	8.74889e-05 	
0.00758237 	0.00189559 	
0.000699911 	1.97209e-08 	0.92 	0.04 	0.04 	0.0291562 	-1.16927e-08 	
-0.0211336 	-0.0409067 	0.0197731 	5.71249 	2.5161e-07 	26.7289 	3.34135 	
1.43172e-10 	91448.4 	1696.06 	1925.26 	0.35 	17.0603 	0.195853 	8.74889e-05 	
0.00758237 	0.00189559 	
0.0007874 	2.0881e-08 	0.92 	0.04 	0.04 	0.029156 	-1.18389e-08 	
-0.0211331 	-0.0409067 	0.0197736 	2.85631 	2.5161e-07 	29.2349 	0.835347 	
7.15878e-11 	45724.2 	848.03 	962.628 	0.35 	8.53017 	0.195857 	4.37444e-05 	
0.00379119 	0.000947796 	
ZONE T = "t = 3e-08 [s]" I = 10 SOLUTIONTIME = 3.0000000000000E-08
0 	1.16001e-09 	0.92 	0.04 	0.04 	0.0291573 	0 	
-0.0291573 	-0.0409067 	0.0117495 	1.67051 	8.65681e-09 	0.835256 	29.235 	
1.13448e-10 	45724.2 	848.03 	962.628 	0.35 	8.53017 	0.195836 	4.37444e-05 	
0.00379119 	0.000947796 	
8.74889e-05 	3.48004e-09 	0.92 	0.04 	0.04 	0.0291572 	-2.48467e-09 	
-0.0291572 	-0.0409067 	0.0117495 	3.34103 	2.59705e-08 	3.34102 	26.7293 	
2.26895e-10 	91448.4 	1696.06 	1925.26 	0.35 	17.0603 	0.195836 	8.74889e-05 	
0.00758237 	0.00189559 	
0.000174978 	5.80008e-09 	0.92 	0.04 	0.04 	0.0291572 	-4.67703e-09 	
-0.0291572 	-0.0409067 	0.0117495 	3.34104 	4.32842e-08 	6.68206 	23.3882 	
2.26896e-10 	91448.4 	1696.06 	1925.26 	0.35 	17.0603 	0.195837 	8.74889e-05 	
0.00758237 	0.00189559 	
0.000262467 	8.12013e-09 	0.92 	0.04 	0.04 	0.0291571 	-6.57709e-09 	
-0.0291571 	-0.0409067 	0.0117496 	3.34106 	6.0598e-08 	10.0231 	20.0472 	
2.26898e-10 	91448.4 	1696.06 	1925.26 	0.35 	17.0603 	0.195838 	8.74889e-05 	
0.00758237 	0.00189559 	
0.000349956 	1.04402e-08 	0.92 	0.04 	0.04 	0.029157 	-8.18484e-09 	
-0.029157 	-0.0409067 	0.0117497 	3.3411 	7.7912e-08 	13.3642 	16.7061 	
2.269e-10 	91448.4 	1696.06 	1925.26 	0.35 	17.0603 	0.19584 	8.74889e-05 	
0.00758237 	0.00189559 	
0.000437444 	1.27603e-08 	0.92 	0.04 	0.04 	0.0291569 	-9.50028e-09 	
-0.0291569 	-0.0409067 	0.0117498 	3.34114 	9.52262e-08 	16.7053 	13.365 	
2.26903e-10 	91448.4 	1696.06 	1925.26 	0.35 	17.0603 	0.195842 	8.74889e-05 	
0.00758237 	0.00189559 	
0.000524933 	1.50804e-08 	0.92 	0.04 	0.04 	0.0291567 	-1.05234e-08 	
-0.0291567 	-0.0409067 	0.01175 	3.34119 	1.12541e-07 	20.0465 	10.0238 	
2.26906e-10 	91448.4 	1696.06 	1925.26 	0.35 	17.0603 	0.195845 	8.74889e-05 	
0.00758237 	0.00189559 	
0.000612422 	1.74006e-08 	0.92 	0.04 	0.04 	0.0291565 	-1.12542e-08 	
-0.0291565 	-0.0409067 	0.0117502 	3.34125 	1.29855e-07 	23.3877 	6.68263 	
2.26911e-10 	91448.4 	1696.06 	1925.26 	0.35 	17.0603 	0.195849 	8.74889e-05 	
0.00758237 	0.00189559 	
0.000699911 	1.97209e-08 	0.92 	0.04 	0.04 	0.0291562 	-1.16927e-08 	
-0.0291563 	-0.0409067 	0.0117505 	3.34131 	1.47171e-07 	26.7289 	3.34135 	
2.26915e-10 	91448.4 	1696.06 	1925.26 	0.35 	17.0603 	0.195853 	8.74889e-05 	
0.00758237 	0.00189559 	
0.0007874 	2.0881e-08 	0.92 	0.04 	0.04 	0.029156 	-1.18389e-08 	
-0.029156 	-0.0409067 	0.0117507 	1.6707 	1.47171e-07 	29.2349 	0.835347 	
1.1346e-10 	45724.2 	848.03 	962.628 	0.35 	8.53017 	0.195857 	4.37444e-05 	
0.00379119 	0.000947796 	
ZONE T = "t = 4e-08 [s]" I = 10 SOLUTIONTIME = 4.0000000000000E-08
0 	1.16001e-09 	0.92 	0.04 	0.04 	0.0291573 	0 	
-0.0291573 	-0.0409067 	0.0117495 	1.67051 	8.65681e-09 	0.835256 	29.2351 	
1.55316e-10 	45724.2 	848.03 	962.628 	0.35 	8.53017 	0.195836 	4.37444e-05 	
0.00379119 	0.000947796 	
8.74889e-05 	3.48004e-09 	0.92 	0.04 	0.04 	0.0291572 	-2.48467e-09 	
-0.0291572 	-0.0409067 	0.0117495 	3.34103 	2.59705e-08 	3.34103 	26.7293 	
3.10632e-10 	91448.4 	1696.06 	1925.26 	0.35 	17.0603 	0.195836 	8.74889e-05 	
0.00758237 	0.00189559 	
0.000174978 	5.80008e-09 	0.92 	0.04 	0.04 	0.0291572 	-4.67703e-09 	
-0.0291572 	-0.0409067 	0.0117495 	3.34104 	4.32842e-08 	6.68206 	23.3883 	
3.10633e-10 	91448.4 	1696.06 	1925.26 	0.35 	17.0603 	0.195837 	8.74889e-05 	
0.00758237 	0.00189559 	
0.000262467 	8.12014e-09 	0.92 	0.04 	0.04 	0.0291571 	-6.57709e-09 	
-0.0291571 	-0.0409067 	0.0117496 	3.34106 	6.0598e-08 	10.0231 	20.0472 	
3.10635e-10 	91448.4 	1696.06 	1925.26 	0.35 	17.0603 	0.195838 	8.74889e-05 	
0.00758237 	0.00189559 	
0.000349956 	1.04402e-08 	0.92 	0.04 	0.04 	0.029157 	-8.18485e-09 	
-0.029157 	-0.0409067 	0.0117497 	3.3411 	7.7912e-08 	13.3642 	16.7061 	
3.10638e-10 	91448.4 	1696.06 	1925.26 	0.35 	17.0603 	0.19584 	8.74889e-05 	
0.00758237 	0.00189559 	
0.000437444 	1.27603e-08 	0.92 	0.04 	0.04 	0.0291569 	-9.50029e-09 	
-0.0291569 	-0.0409067 	0.0117498 	3.34114 	9.52262e-08 	16.7053 	13.365 	
3.10642e-10 	91448.4 	1696.06 	1925.26 	0.35 	17.0603 	0.195842 	8.74889e-05 	
0.00758237 	0.00189559 	
0.000524933 	1.50805e-08 	0.92 	0.04 	0.04 	0.0291567 	-1.05234e-08 	
-0.0291567 	-0.0409067 	0.01175 	3.34119 	1.12541e-07 	20.0465 	10.0238 	
3.10647e-10 	91448.4 	1696.06 	1925.26 	0.35 	17.0603 	0.195845 	8.74889e-05 	
0.00758237 	0.00189559 	
0.000612422 	1.74006e-08 	0.92 	0.04 	0.04 	0.0291565 	-1.12542e-08 	
-0.0291565 	-0.0409067 	0.0117502 	3.34124 	1.29855e-07 	23.3877 	6.68263 	
3.10652e-10 	91448.4 	1696.06 	1925.26 	0.35 	17.0603 	0.195849 	8.74889e-05 	
0.00758237 	0.00189559 	
0.000699911 	1.97209e-08 	0.92 	0.04 	0.04 	0.0291562 	-1.16927e-08 	
-0.0291563 	-0.0409067 	0.0117505 	3.34131 	1.47171e-07 	26.729 	3.34135 	
3.10659e-10 	91448.4 	1696.06 	1925.26 	0.35 	17.0603 	0.195853 	8.74889e-05 	
0.00758237 	0.00189559 	
0.0007874 	2.0881e-08 	0.92 	0.04 	0.04 	0.029156 	-1.18389e-08 	
-0.029156 	-0.0409067 	0.0117507 	1.6707 	1.47171e-07 	29.235 	0.835348 	
1.55333e-10 	45724.2 	848.03 	962.628 	0.35 	8.53017 	0.195857 	4.37444e-05 	
0.00379119 	0.000947796 	
ZONE T = "t = 5.5e-08 [s]" I = 10 SOLUTIONTIME = 5.5000000000000E-08
0 	1.16001e-09 	0.92 	0.04 	0.04 	0.0291573 	0 	
-0.0291573 	-0.0409067 	0.0117495 	1.67051 	8.65682e-09 	0.835256 	29.2351 	
1.97184e-10 	45724.2 	848.03 	962.628 	0.35 	8.53017 	0.195836 	4.37444e-05 	
0.00379119 	0.000947796 	
8.74889e-05 	3.48004e-09 	0.92 	0.04 	0.04 	0.0291572 	-2.48467e-09 	
-0.0291572 	-0.0409067 	0.0117495 	3.34103 	2.59705e-08 	3.34103 	26.7293 	
3.94368e-10 	91448.4 	1696.06 	1925.26 	0.35 	17.0603 	0.195836 	8.74889e-05 	
0.00758237 	0.00189559 	
0.000174978 	5.80008e-09 	0.92 	0.04 	0.04 	0.0291572 	-4.67703e-09 	
-0.0291572 	-0.0409067 	0.0117495 	3.34104 	4.32842e-08 	6.68206 	23.3883 	
3.94369e-10 	91448.4 	1696.06 	1925.26 	0.35 	17.0603 	0.195837 	8.74889e-05 	
0.00758237 	0.00189559 	
0.000262467 	8.12014e-09 	0.92 	0.04 	0.04 	0.0291571 	-6.57709e-09 	
-0.0291571 	-0.0409067 	0.0117496 	3.34106 	6.05981e-08 	10.0231 	20.0472 	
3.94372e-10 	91448.4 	1696.06 	1925.26 	0.35 	17.0603 	0.195838 	8.74889e-05 	
0.00758237 	0.00189559 	
0.000349956 	1.04402e-08 	0.92 	0.04 	0.04 	0.029157 	-8.18485e-09 	
-0.029157 	-0.0409067 	0.0117497 	3.3411 	7.79121e-08 	13.3642 	16.7061 	
3.94376e-10 	91448.4 	1696.06 	1925.26 	0.35 	17.0603 	0.19584 	8.74889e-05 	
0.00758237 	0.00189559 	
0.000437444 	1.27603e-08 	0.92 	0.04 	0.04 	0.0291569 	-9.50029e-09 	
-0.0291569 	-0.0409067 	0.0117498 	3.34114 	9.52263e-08 	16.7053 	13.365 	
3.94381e-10 	91448.4 	1696.06 	1925.26 	0.35 	17.0603 	0.195842 	8.74889e-05 	
0.00758237 	0.00189559 	
0.000524933 	1.50805e-08 	0.92 	0.04 	0.04 	0.0291567 	-1.05234e-08 	
-0.0291567 	-0.0409067 	0.01175 	3.34119 	1.12541e-07 	20.0465 	10.0238 	
3.94387e-10 	91448.4 	1696.06 	1925.26 	0.35 	17.0603 	0.195845 	8.74889e-05 	
0.00758237 	0.00189559 	
0.000612422 	1.74006e-08 	0.92 	0.04 	0.04 	0.0291565 	-1.12542e-08 	
-0.0291565 	-0.0409067 	0.0117502 	3.34124 	1.29856e-07 	23.3877 	6.68263 	
3.94394e-10 	91448.4 	1696.06 	1925.26 	0.35 	17.0603 	0.195849 	8.74889e-05 	
0.00758237 	0.00189559 	
0.000699911 	1.97209e-08 	0.92 	0.04 	0.04 	0.0291562 	-1.16927e-08 	
-0.0291563 	-0.0409067 	0.0117505 	3.34131 	1.47171e-07 	26.729 	3.34135 	
3.94402e-10 	91448.4 	1696.06 	1925.26 	0.35 	17.0603 	0.195853 	8.74889e-05 	
0.00758237 	0.00189559 	
0.0007874 	2.0881e-08 	0.92 	0.04 	0.04 	0.029156 	-1.18389e-08 	
-0.029156 	-0.0409067 	0.0117507 	1.6707 	1.47171e-07 	29.235 	0.835348 	
1.97206e-10 	45724.2 	848.03 	962.628 	0.35 	8.53017 	0.195857 	4.37444e-05 	
0.00379119 	0.000947796 	
ZONE T = "t = 7.75e-08 [s]" I = 10 SOLUTIONTIME = 7.7500000000000E-08
0 	1.16001e-09 	0.92 	0.04 	0.04 	0.0291573 	0 	
-0.0291573 	-0.0409067 	0.0117495 	1.67051 	8.65682e-09 	0.835256 	29.2351 	
2.59986e-10 	45724.2 	848.03 	962.628 	0.35 	8.53017 	0.195836 	4.37444e-05 	
0.00379119 	0.000947796 	
8.74889e-05 	3.48004e-09 	0.92 	0.04 	0.04 	0.0291572 	-2.48467e-09 	
-0.0291572 	-0.0409067 	0.0117495 	3.34103 	2.59705e-08 	3.34103 	26.7293 	
5.19972e-10 	91448.4 	1696.06 	1925.26 	0.35 	17.0603 	0.195836 	8.74889e-05 	
0.00758237 	0.00189559 	
0.000174978 	5.80008e-09 	0.92 	0.04 	0.04 	0.0291572 	-4.67703e-09 	
-0.0291572 	-0.0409067 	0.0117495 	3.34104 	4.32842e-08 	6.68206 	23.3883 	
5.19974e-10 	91448.4 	1696.06 	1925.26 	0.35 	17.0603 	0.195837 	8.74889e-05 	
0.00758237 	0.00189559 	
0.000262467 	8.12014e-09 	0.92 	0.04 	0.04 	0.0291571 	-6.57709e-09 	
-0.0291571 	-0.0409067 	0.0117496 	3.34106 	6.05981e-08 	10.0231 	20.0472 	
5.19978e-10 	91448.4 	1696.06 	1925.26 	0.35 	17.0603 	0.195838 	8.74889e-05 	
0.00758237 	0.00189559 	
0.000349956 	1.04402e-08 	0.92 	0.04 	0.04 	0.029157 	-8.18485e-09 	
-0.029157 	-0.0409067 	0.0117497 	3.3411 	7.79121e-08 	13.3642 	16.7061 	
5.19983e-10 	91448.4 	1696.06 	1925.26 	0.35 	17.0603 	0.19584 	8.74889e-05 	
0.00758237 	0.00189559 	
0.000437444 	1.27603e-08 	0.92 	0.04 	0.04 	0.0291569 	-9.50029e-09 	
-0.0291569 	-0.0409067 	0.0117498 	3.34114 	9.52263e-08 	16.7053 	13.365 	
5.19989e-10 	91448.4 	1696.06 	1925.26 	0.35 	17.0603 	0.195842 	8.74889e-05 	
0.00758237 	0.00189559 	
0.000524933 	1.50805e-08 	0.92 	0.04 	0.04 	0.0291567 	-1.05234e-08 	
-0.0291567 	-0.0409067 	0.01175 	3.34119 	1.12541e-07 	20.0465 	10.0238 	
5.19997e-10 	91448.4 	1696.06 	1925.26 	0.35 	17.0603 	0.195845 	8.74889e-05 	
0.00758237 	0.00189559 	
0.000612422 	1.74006e-08 	0.92 	0.04 	0.04 	0.0291565 	-1.12542e-08 	
-0.0291565 	-0.0409067 	0.0117502 	3.34124 	1.29856e-07 	23.3877 	6.68263 	
5.20006e-10 	91448.4 	1696.06 	1925.26 	0.35 	17.0603 	0.195849 	8.74889e-05 	
0.00758237 	0.00189559 	
0.000699911 	1.97209e-08 	0.92 	0.04 	0.04 	0.0291562 	-1.16927e-08 	
-0.0291563 	-0.0409067 	0.0117505 	3.34131 	1.47171e-07 	26.729 	3.34135 	
5.20017e-10 	91448.4 	1696.06 	1925.26 	0.35 	17.0603 	0.195853 	8.74889e-05 	
0.00758237 	0.00189559 	
0.0007874 	2.0881e-08 	0.92 	0.04 	0.04 	0.029156 	-1.18389e-08 	
-0.029156 	-0.0409067 	0.0117507 	1.6707 	1.47171e-07 	29.235 	0.835348 	
2.60015e-10 	45724.2 	848.03 	962.628 	0.35 	8.53017 	0.195857 	4.37444e-05 	
0.00379119 	0.000947796 	
ZONE T = "t = 1.1125e-07 [s]" I = 10 SOLUTIONTIME = 1.1125000000000E-07
0 	1.16001e-09 	0.92 	0.04 	0.04 	0.0291573 	0 	
-0.0291573 	-0.0409067 	0.0117495 	1.67051 	8.65682e-09 	0.835256 	29.2351 	
3.54189e-10 	45724.2 	848.03 	962.628 	0.35 	8.53017 	0.195836 	4.37444e-05 	
0.00379119 	0.000947796 	
8.74889e-05 	3.48004e-09 	0.92 	0.04 	0.04 	0.0291572 	-2.48467e-09 	
-0.0291572 	-0.0409067 	0.0117495 	3.34103 	2.59705e-08 	3.34103 	26.7293 	
7.08379e-10 	91448.4 	1696.06 	1925.26 	0.35 	17.0603 	0.195836 	8.74889e-05 	
0.00758237 	0.00189559 	
0.000174978 	5.80008e-09 	0.92 	0.04 	0.04 	0.0291572 	-4.67703e-09 	
-0.0291572 	-0.0409067 	0.0117495 	3.34104 	4.32842e-08 	6.68206 	23.3883 	
7.08381e-10 	91448.4 	1696.06 	1925.26 	0.35 	17.0603 	0.195837 	8.74889e-05 	
0.00758237 	0.00189559 	
0.000262467 	8.12014e-09 	0.92 	0.04 	0.04 	0.0291571 	-6.57709e-09 	
-0.0291571 	-0.0409067 	0.0117496 	3.34106 	6.05981e-08 	10.0231 	20.0472 	
7.08386e-10 	91448.4 	1696.06 	1925.26 	0.35 	17.0603 	0.195838 	8.74889e-05 	
0.00758237 	0.00189559 	
0.000349956 	1.04402e-08 	0.92 	0.04 	0.04 	0.029157 	-8.18485e-09 	
-0.029157 	-0.0409067 	0.0117497 	3.3411 	7.79121e-08 	13.3642 	16.7061 	
7.08393e-10 	91448.4 	1696.06 	1925.26 	0.35 	17.0603 	0.19584 	8.74889e-05 	
0.00758237 	0.00189559 	
0.000437444 	1.27603e-08 	0.92 	0.04 	0.04 	0.0291569 	-9.50029e-09 	
-0.0291569 	-0.0409067 	0.0117498 	3.34114 	9.52263e-08 	16.7053 	13.365 	
7.08402e-10 	91448.4 	1696.06 	1925.26 	0.35 	17.0603 	0.195842 	8.74889e-05 	
0.00758237 	0.00189559 	
0.000524933 	1.50805e-08 	0.92 	0.04 	0.04 	0.0291567 	-1.05234e-08 	
-0.0291567 	-0.0409067 	0.01175 	3.34119 	1.12541e-07 	20.0465 	10.0238 	
7.08412e-10 	91448.4 	1696.06 	1925.26 	0.35 	17.0603 	0.195845 	8.74889e-05 	
0.00758237 	0.00189559 	
0.000612422 	1.74006e-08 	0.92 	0.04 	0.04 	0.0291565 	-1.12542e-08 	
-0.0291565 	-0.0409067 	0.0117502 	3.34124 	1.29856e-07 	23.3877 	6.68263 	
7.08425e-10 	91448.4 	1696.06 	1925.26 	0.35 	17.0603 	0.195849 	8.74889e-05 	
0.00758237 	0.00189559 	
0.000699911 	1.97209e-08 	0.92 	0.04 	0.04 	0.0291562 	-1.16927e-08 	
-0.0291563 	-0.0409067 	0.0117505 	3.34131 	1.47171e-07 	26.729 	3.34135 	
7.0844e-10 	91448.4 	1696.06 	1925.26 	0.35 	17.0603 	0.195853 	8.74889e-05 	
0.00758237 	0.00189559 	
0.0007874 	2.0881e-08 	0.92 	0.04 	0.04 	0.029156 	-1.18389e-08 	
-0.029156 	-0.0409067 	0.0117507 	1.6707 	1.47171e-07 	29.235 	0.835348 	
3.54228e-10 	45724.2 	848.03 	962.628 	0.35 	8.53017 	0.195857 	4.37444e-05 	
0.00379119 	0.000947796 	
ZONE T = "t = 1.61875e-07 [s]" I = 10 SOLUTIONTIME = 1.6187500000000E-07
0 	1.16001e-09 	0.92 	0.04 	0.04 	0.0291573 	0 	
-0.0291573 	-0.0409067 	0.0117495 	1.67051 	8.65682e-09 	0.835256 	29.2351 	
4.95494e-10 	45724.2 	848.03 	962.628 	0.35 	8.53017 	0.195836 	4.37444e-05 	
0.00379119 	0.000947796 	
8.74889e-05 	3.48004e-09 	0.92 	0.04 	0.04 	0.0291572 	-2.48467e-09 	
-0.0291572 	-0.0409067 	0.0117495 	3.34103 	2.59705e-08 	3.34103 	26.7293 	
9.90988e-10 	91448.4 	1696.06 	1925.26 	0.35 	17.0603 	0.195836 	8.74889e-05 	
0.00758237 	0.00189559 	
0.000174978 	5.80008e-09 	0.92 	0.04 	0.04 	0.0291572 	-4.67703e-09 	
-0.0291572 	-0.0409067 	0.0117495 	3.34104 	4.32842e-08 	6.68206 	23.3883 	
9.90992e-10 	91448.4 	1696.06 	1925.26 	0.35 	17.0603 	0.195837 	8.74889e-05 	
0.00758237 	0.00189559 	
0.000262467 	8.12014e-09 	0.92 	0.04 	0.04 	0.0291571 	-6.57709e-09 	
-0.0291571 	-0.0409067 	0.0117496 	3.34106 	6.05981e-08 	10.0231 	20.0472 	
9.90999e-10 	91448.4 	1696.06 	1925.26 	0.35 	17.0603 	0.195838 	8.74889e-05 	
0.00758237 	0.00189559 	
0.000349956 	1.04402e-08 	0.92 	0.04 	0.04 	0.029157 	-8.18485e-09 	
-0.029157 	-0.0409067 	0.0117497 	3.3411 	7.79121e-08 	13.3642 	16.7061 	
9.91008e-10 	91448.4 	1696.06 	1925.26 	0.35 	17.0603 	0.19584 	8.74889e-05 	
0.00758237 	0.00189559 	
0.000437444 	1.27603e-08 	0.92 	0.04 	0.04 	0.0291569 	-9.50029e-09 	
-0.0291569 	-0.0409067 	0.0117498 	3.34114 	9.52263e-08 	16.7053 	13.365 	
9.9102e-10 	91448.4 	1696.06 	1925.26 	0.35 	17.0603 	0.195842 	8.74889e-05 	
0.00758237 	0.00189559 	
0.000524933 	1.50805e-08 	0.92 	0.04 	0.04 	0.0291567 	-1.05234e-08 	
-0.0291567 	-0.0409067 	0.01175 	3.34119 	1.12541e-07 	20.0465 	10.0238 	
9.91035e-10 	91448.4 	1696.06 	1925.26 	0.35 	17.0603 	0.195845 	8.74889e-05 	
0.00758237 	0.00189559 	
0.000612422 	1.74006e-08 	0.92 	0.04 	0.04 	0.0291565 	-1.12542e-08 	
-0.0291565 	-0.0409067 	0.0117502 	3.34124 	1.29856e-07 	23.3877 	6.68263 	
9.91053e-10 	91448.4 	1696.06 	1925.26 	0.35 	17.0603 	0.195849 	8.74889e-05 	
0.00758237 	0.00189559 	
0.000699911 	1.97209e-08 	0.92 	0.04 	0.04 	0.0291562 	-1.16927e-08 	
-0.0291563 	-0.0409067 	0.0117505 	3.34131 	1.47172e-07 	26.729 	3.34135 	
9.91073e-10 	91448.4 	1696.06 	1925.26 	0.35 	17.0603 	0.195853 	8.74889e-05 	
0.00758237 	0.00189559 	
0.0007874 	2.0881e-08 	0.92 	0.04 	0.04 	0.029156 	-1.18389e-08 	
-0.029156 	-0.0409067 	0.0117507 	1.6707 	1.47172e-07 	29.235 	0.835348 	
4.95548e-10 	45724.2 	848.03 	962.628 	0.35 	8.53017 	0.195857 	4.37444e-05 	
0.00379119 	0.000947796 	
ZONE T = "t = 2.37813e-07 [s]" I = 10 SOLUTIONTIME = 2.3781250000000E-07
0 	1.16001e-09 	0.92 	0.04 	0.04 	0.0291573 	0 	
-0.0291573 	-0.0409067 	0.0117495 	1.67051 	8.65682e-09 	0.835256 	29.2351 	
7.07451e-10 	45724.2 	848.03 	962.628 	0.35 	8.53017 	0.195836 	4.37444e-05 	
0.00379119 	0.000947796 	
8.74889e-05 	3.48004e-09 	0.92 	0.04 	0.04 	0.0291572 	-2.48467e-09 	
-0.0291572 	-0.0409067 	0.0117495 	3.34103 	2.59705e-08 	3.34103 	26.7293 	
1.4149e-09 	91448.4 	1696.06 	1925.26 	0.35 	17.0603 	0.195836 	8.74889e-05 	
0.00758237 	0.00189559 	
0.000174978 	5.80008e-09 	0.92 	0.04 	0.04 	0.0291572 	-4.67703e-09 	
-0.0291572 	-0.0409067 	0.0117495 	3.34104 	4.32842e-08 	6.68206 	23.3883 	
1.41491e-09 	91448.4 	1696.06 	1925.26 	0.35 	17.0603 	0.195837 	8.74889e-05 	
0.00758237 	0.00189559 	
0.000262467 	8.12014e-09 	0.92 	0.04 	0.04 	0.0291571 	-6.57709e-09 	
-0.0291571 	-0.0409067 	0.0117496 	3.34106 	6.05981e-08 	10.0231 	20.0472 	
1.41492e-09 	91448.4 	1696.06 	1925.26 	0.35 	17.0603 	0.195838 	8.74889e-05 	
0.00758237 	0.00189559 	
0.000349956 	1.04402e-08 	0.92 	0.04 	0.04 	0.029157 	-8.18485e-09 	
-0.029157 	-0.0409067 	0.0117497 	3.3411 	7.79121e-08 	13.3642 	16.7061 	
1.41493e-09 	91448.4 	1696.06 	1925.26 	0.35 	17.0603 	0.19584 	8.74889e-05 	
0.00758237 	0.00189559 	
0.000437444 	1.27603e-08 	0.92 	0.04 	0.04 	0.0291569 	-9.50029e-09 	
-0.0291569 	-0.0409067 	0.0117498 	3.34114 	9.52263e-08 	16.7053 	13.365 	
1.41495e-09 	91448.4 	1696.06 	1925.26 	0.35 	17.0603 	0.195842 	8.74889e-05 	
0.00758237 	0.00189559 	
0.000524933 	1.50805e-08 	0.92 	0.04 	0.04 	0.0291567 	-1.05234e-08 	
-0.0291567 	-0.0409067 	0.01175 	3.34119 	1.12541e-07 	20.0465 	10.0238 	
1.41497e-09 	91448.4 	1696.06 	1925.26 	0.35 	17.0603 	0.195845 	8.74889e-05 	
0.00758237 	0.00189559 	
0.000612422 	1.74006e-08 	0.92 	0.04 	0.04 	0.0291565 	-1.12542e-08 	
-0.0291565 	-0.0409067 	0.0117502 	3.34124 	1.29856e-07 	23.3877 	6.68263 	
1.41499e-09 	91448.4 	1696.06 	1925.26 	0.35 	17.0603 	0.195849 	8.74889e-05 	
0.00758237 	0.00189559 	
0.000699911 	1.97209e-08 	0.92 	0.04 	0.04 	0.0291562 	-1.16927e-08 	
-0.0291563 	-0.0409067 	0.0117505 	3.34131 	1.47172e-07 	26.729 	3.34135 	
1.41502e-09 	91448.4 	1696.06 	1925.26 	0.35 	17.0603 	0.195853 	8.74889e-05 	
0.00758237 	0.00189559 	
0.0007874 	2.0881e-08 	0.92 	0.04 	0.04 	0.029156 	-1.18389e-08 	
-0.029156 	-0.0409067 	0.0117507 	1.6707 	1.47172e-07 	29.235 	0.835348 	
7.07528e-10 	45724.2 	848.03 	962.628 	0.35 	8.53017 	0.195857 	4.37444e-05 	
0.00379119 	0.000947796 	
ZONE T = "t = 3.51719e-07 [s]" I = 10 SOLUTIONTIME = 3.5171875000000E-07
0 	1.16001e-09 	0.92 	0.04 	0.04 	0.0291573 	0 	
-0.0291573 	-0.0409067 	0.0117495 	1.67051 	8.65682e-09 	0.835256 	29.2351 	
1.02539e-09 	45724.2 	848.03 	962.628 	0.35 	8.53017 	0.195836 	4.37444e-05 	
0.00379119 	0.000947796 	
8.74889e-05 	3.48004e-09 	0.92 	0.04 	0.04 	0.0291572 	-2.48467e-09 	
-0.0291572 	-0.0409067 	0.0117495 	3.34103 	2.59705e-08 	3.34103 	26.7293 	
2.05077e-09 	91448.4 	1696.06 	1925.26 	0.35 	17.0603 	0.195836 	8.74889e-05 	
0.00758237 	0.00189559 	
0.000174978 	5.80008e-09 	0.92 	0.04 	0.04 	0.0291572 	-4.67703e-09 	
-0.0291572 	-0.0409067 	0.0117495 	3.34104 	4.32842e-08 	6.68206 	23.3883 	
2.05078e-09 	91448.4 	1696.06 	1925.26 	0.35 	17.0603 	0.195837 	8.74889e-05 	
0.00758237 	0.00189559 	
0.000262467 	8.12014e-09 	0.92 	0.04 	0.04 	0.0291571 	-6.57709e-09 	
-0.0291571 	-0.0409067 	0.0117496 	3.34106 	6.05981e-08 	10.0231 	20.0472 	
2.0508e-09 	91448.4 	1696.06 	1925.26 	0.35 	17.0603 	0.195838 	8.74889e-05 	
0.00758237 	0.00189559 	
0.000349956 	1.04402e-08 	0.92 	0.04 	0.04 	0.029157 	-8.18485e-09 	
-0.029157 	-0.0409067 	0.0117497 	3.3411 	7.79121e-08 	13.3642 	16.7061 	
2.05082e-09 	91448.4 	1696.06 	1925.26 	0.35 	17.0603 	0.19584 	8.74889e-05 	
0.00758237 	0.00189559 	
0.000437444 	1.27603e-08 	0.92 	0.04 	0.04 	0.0291569 	-9.50029e-09 	
-0.0291569 	-0.0409067 	0.0117498 	3.34114 	9.52263e-08 	16.7053 	13.365 	
2.05084e-09 	91448.4 	1696.06 	1925.26 	0.35 	17.0603 	0.195842 	8.74889e-05 	
0.00758237 	0.00189559 	
0.000524933 	1.50805e-08 	0.92 	0.04 	0.04 	0.0291567 	-1.05234e-08 	
-0.0291567 	-0.0409067 	0.01175 	3.34119 	1.12541e-07 	20.0465 	10.0238 	
2.05087e-09 	91448.4 	1696.06 	1925.26 	0.35 	17.0603 	0.195845 	8.74889e-05 	
0.00758237 	0.00189559 	
0.000612422 	1.74006e-08 	0.92 	0.04 	0.04 	0.0291565 	-1.12542e-08 	
-0.0291565 	-0.0409067 	0.0117502 	3.34124 	1.29856e-07 	23.3877 	6.68263 	
2.05091e-09 	91448.4 	1696.06 	1925.26 	0.35 	17.0603 	0.195849 	8.74889e-05 	
0.00758237 	0.00189559 	
0.000699911 	1.97209e-08 	0.92 	0.04 	0.04 	0.0291562 	-1.16927e-08 	
-0.0291563 	-0.0409067 	0.0117505 	3.34131 	1.47172e-07 	26.729 	3.34135 	
2.05095e-09 	91448.4 	1696.06 	1925.26 	0.35 	17.0603 	0.195853 	8.74889e-05 	
0.00758237 	0.00189559 	
0.0007874 	2.0881e-08 	0.92 	0.04 	0.04 	0.029156 	-1.18389e-08 	
-0.029156 	-0.0409067 	0.0117507 	1.6707 	1.47172e-07 	29.235 	0.835348 	
1.0255e-09 	45724.2 	848.03 	962.628 	0.35 	8.53017 	0.195857 	4.37444e-05 	
0.00379119 	0.000947796 	
ZONE T = "t = 5.22578e-07 [s]" I = 10 SOLUTIONTIME = 5.2257812500000E-07
0 	1.16001e-09 	0.92 	0.04 	0.04 	0.0291573 	0 	
-0.0291573 	-0.0409067 	0.0117495 	1.67051 	8.65682e-09 	0.835256 	29.2351 	
1.50229e-09 	45724.2 	848.03 	962.628 	0.35 	8.53017 	0.195836 	4.37444e-05 	
0.00379119 	0.000947796 	
8.74889e-05 	3.48004e-09 	0.92 	0.04 	0.04 	0.0291572 	-2.48467e-09 	
-0.0291572 	-0.0409067 	0.0117495 	3.34103 	2.59705e-08 	3.34103 	26.7293 	
3.00458e-09 	91448.4 	1696.06 	1925.26 	0.35 	17.0603 	0.195836 	8.74889e-05 	
0.00758237 	0.00189559 	
0.000174978 	5.80008e-09 	0.92 	0.04 	0.04 	0.0291572 	-4.67703e-09 	
-0.0291572 	-0.0409067 	0.0117495 	3.34104 	4.32842e-08 	6.68206 	23.3883 	
3.00459e-09 	91448.4 	1696.06 	1925.26 	0.35 	17.0603 	0.195837 	8.74889e-05 	
0.00758237 	0.00189559 	
0.000262467 	8.12014e-09 	0.92 	0.04 	0.04 	0.0291571 	-6.57709e-09 	
-0.0291571 	-0.0409067 	0.0117496 	3.34106 	6.05981e-08 	10.0231 	20.0472 	
3.00461e-09 	91448.4 	1696.06 	1925.26 	0.35 	17.0603 	0.195838 	8.74889e-05 	
0.00758237 	0.00189559 	
0.000349956 	1.04402e-08 	0.92 	0.04 	0.04 	0.029157 	-8.18485e-09 	
-0.029157 	-0.0409067 	0.0117497 	3.3411 	7.79121e-08 	13.3642 	16.7061 	
3.00464e-09 	91448.4 	1696.06 	1925.26 	0.35 	17.0603 	0.19584 	8.74889e-05 	
0.00758237 	0.00189559 	
0.000437444 	1.27603e-08 	0.92 	0.04 	0.04 	0.0291569 	-9.50029e-09 	
-0.0291569 	-0.0409067 	0.0117498 	3.34114 	9.52263e-08 	16.7053 	13.365 	
3.00468e-09 	91448.4 	1696.06 	1925.26 	0.35 	17.0603 	0.195842 	8.74889e-05 	
0.00758237 	0.00189559 	
0.000524933 	1.50805e-08 	0.92 	0.04 	0.04 	0.0291567 	-1.05234e-08 	
-0.0291567 	-0.0409067 	0.01175 	3.34119 	1.12541e-07 	20.0465 	10.0238 	
3.00472e-09 	91448.4 	1696.06 	1925.26 	0.35 	17.0603 	0.195845 	8.74889e-05 	
0.00758237 	0.00189559 	
0.000612422 	1.74006e-08 	0.92 	0.04 	0.04 	0.0291565 	-1.12542e-08 	
-0.0291565 	-0.0409067 	0.0117502 	3.34124 	1.29856e-07 	23.3877 	6.68263 	
3.00478e-09 	91448.4 	1696.06 	1925.26 	0.35 	17.0603 	0.195849 	8.74889e-05 	
0.00758237 	0.00189559 	
0.000699911 	1.97209e-08 	0.92 	0.04 	0.04 	0.0291562 	-1.16927e-08 	
-0.0291563 	-0.0409067 	0.0117505 	3.34131 	1.47173e-07 	26.729 	3.34135 	
3.00484e-09 	91448.4 	1696.06 	1925.26 	0.35 	17.0603 	0.195853 	8.74889e-05 	
0.00758237 	0.00189559 	
0.0007874 	2.0881e-08 	0.92 	0.04 	0.04 	0.029156 	-1.18389e-08 	
-0.029156 	-0.0409067 	0.0117507 	1.6707 	1.47173e-07 	29.235 	0.835348 	
1.50245e-09 	45724.2 	848.03 	962.628 	0.35 	8.53017 	0.195857 	4.37444e-05 	
0.00379119 	0.000947796 	