TITLE = "Solution on Domain BulkDomain1D_2"
VARIABLES = "x [m]"  
"Vel_axial(0)" 	"MF_sp(ECDMC)" 	"MF_sp(Li+)" 	"MF_sp(PF6-)" 	"Volt(Electroly)" 	"Volt(CathodeVo)" 	
"Potential Drop Electrode-Electrolyte [V]" 	"Surf_0 Equilibrium Potential Drop Electrode-Electrolyte [V]" 	"Overpotential_0 [V]" 	"Current Source [A/m^2]" 	"Li+ flux [kmol/m^2/s]" 	"Electrolyte Current [A/m^2]" 	"Electrode Current [A/m^2]" 	
"Capacity discharged [A-s]" 	"Depth of discharge [-]" 	"Capacity remaining [A-s]" 	"Initial capacity [A-s]" 	"Porosity []" 	"Surface Area [m2/m2] (area per area)" 	"Specific current (per particle area) [A/m^2]" 	"Control volume thickness [m]" 	
"Moles LiCoO2 [mol/m^2] (per electrode area)" 	"Moles CoO2 [mol/m^2] (per electrode area)" 	"qHeat_accum [J/m3]" 	"qHeat_step [W/m3]" 	"Joule_Lyte [W/m3]" 	"Joule_Solid [W/m3]" 	"electrodHeat [W/m3]" 	"OverpotHeat [W/m3]" 	"deltaSHeat [W/m3]" 	

ZONE T = "t = 0 [s]" I = 10 SOLUTIONTIME = 0.0000000000000E+00
0.00127 	0 	0.92 	0.04 	0.04 	-0.07 	3.8 	
0 	0 	0 	0 	0 	0.119132 	0 	
0 	0 	0 	0 	0.35 	6.604 	-0.0360787 	3.38667e-05 	
0.000900955 	0.000600637 	0 	0.0 	 0.0 	 0.0 	 0.0 	 0.0 	 0.0 	 
0.00133773 	0 	0.92 	0.04 	0.04 	-0.07 	3.8 	
0 	0 	0 	0 	0 	0 	-0 	
0 	0 	0 	0 	0.35 	13.208 	-0.0360787 	6.77333e-05 	
0.00180191 	0.00120127 	0 	0.0 	 0.0 	 0.0 	 0.0 	 0.0 	 0.0 	 
0.00140547 	0 	0.92 	0.04 	0.04 	-0.07 	3.8 	
0 	0 	0 	0 	0 	0 	-0 	
0 	0 	0 	0 	0.35 	13.208 	-0.0360787 	6.77333e-05 	
0.00180191 	0.00120127 	0 	0.0 	 0.0 	 0.0 	 0.0 	 0.0 	 0.0 	 
0.0014732 	0 	0.92 	0.04 	0.04 	-0.07 	3.8 	
0 	0 	0 	0 	0 	0 	-0 	
0 	0 	0 	0 	0.35 	13.208 	-0.0360787 	6.77333e-05 	
0.00180191 	0.00120127 	0 	0.0 	 0.0 	 0.0 	 0.0 	 0.0 	 0.0 	 
0.00154093 	0 	0.92 	0.04 	0.04 	-0.07 	3.8 	
0 	0 	0 	0 	0 	0 	-0 	
0 	0 	0 	0 	0.35 	13.208 	-0.0360787 	6.77333e-05 	
0.00180191 	0.00120127 	0 	0.0 	 0.0 	 0.0 	 0.0 	 0.0 	 0.0 	 
0.00160867 	0 	0.92 	0.04 	0.04 	-0.07 	3.8 	
0 	0 	0 	0 	0 	0 	-0 	
0 	0 	0 	0 	0.35 	13.208 	-0.0360787 	6.77333e-05 	
0.00180191 	0.00120127 	0 	0.0 	 0.0 	 0.0 	 0.0 	 0.0 	 0.0 	 
0.0016764 	0 	0.92 	0.04 	0.04 	-0.07 	3.8 	
0 	0 	0 	0 	0 	0 	-0 	
0 	0 	0 	0 	0.35 	13.208 	-0.0360787 	6.77333e-05 	
0.00180191 	0.00120127 	0 	0.0 	 0.0 	 0.0 	 0.0 	 0.0 	 0.0 	 
0.00174413 	0 	0.92 	0.04 	0.04 	-0.07 	3.8 	
0 	0 	0 	0 	0 	0 	-0 	
0 	0 	0 	0 	0.35 	13.208 	-0.0360787 	6.77333e-05 	
0.00180191 	0.00120127 	0 	0.0 	 0.0 	 0.0 	 0.0 	 0.0 	 0.0 	 
0.00181187 	0 	0.92 	0.04 	0.04 	-0.07 	3.8 	
0 	0 	0 	0 	0 	0 	-0 	
0 	0 	0 	0 	0.35 	13.208 	-0.0360787 	6.77333e-05 	
0.00180191 	0.00120127 	0 	0.0 	 0.0 	 0.0 	 0.0 	 0.0 	 0.0 	 
0.0018796 	0 	0.92 	0.04 	0.04 	-0.07 	3.8 	
0 	0 	0 	0 	0 	0 	0.119132 	
0 	0 	0 	0 	0.35 	6.604 	-0.0360787 	3.38667e-05 	
0.000900955 	0.000600637 	0 	0.0 	 0.0 	 0.0 	 0.0 	 0.0 	 0.0 	 
ZONE T = "t = 1e-08 [s]" I = 10 SOLUTIONTIME = 1.0000000000000E-08
0.00127 	1.85473e-08 	0.92 	0.04 	0.04 	0.0291657 	3.80017 	
3.87 	3.97141 	-0.101414 	-0.238264 	-0 	29.2102 	0.833608 	
-0 	7244.08 	123.46 	141.616 	0.35 	6.604 	-0.252457 	3.38667e-05 	
0.000900955 	0.000600637 	1.39767e-09 	0.139767 	0.0867258 	0.0530412 	0 	0 	0 	
0.00133773 	1.39162e-08 	0.92 	0.04 	0.04 	0.0291654 	3.80017 	
3.87 	3.97141 	-0.101414 	-0.476527 	-0 	26.7093 	3.33449 	
-0 	14488.2 	246.919 	283.231 	0.35 	13.208 	-0.252467 	6.77333e-05 	
0.00180191 	0.00120127 	3.42352e-09 	0.342352 	0.0771333 	0.265218 	0 	0 	0 	
0.00140547 	9.28459e-09 	0.92 	0.04 	0.04 	0.0291653 	3.80017 	
3.87 	3.97141 	-0.101414 	-0.476527 	-0 	23.3745 	6.66926 	
-0 	14488.2 	246.919 	283.231 	0.35 	13.208 	-0.252497 	6.77333e-05 	
0.00180191 	0.00120127 	9.60963e-09 	0.960963 	0.0591451 	0.901818 	0 	0 	0 	
0.0014732 	4.65199e-09 	0.92 	0.04 	0.04 	0.0291651 	3.80016 	
3.87 	3.97141 	-0.101414 	-0.476527 	-0 	20.0392 	10.0046 	
-0 	14488.2 	246.919 	283.231 	0.35 	13.208 	-0.25255 	6.77333e-05 	
0.00180191 	0.00120127 	2.0066e-08 	2.0066 	0.0435499 	1.96305 	0 	0 	0 	
0.00154093 	1.80386e-11 	0.92 	0.04 	0.04 	0.029165 	3.80014 	
3.87 	3.97141 	-0.101414 	-0.476527 	-0 	16.7031 	13.3407 	
-0 	14488.2 	246.919 	283.231 	0.35 	13.208 	-0.252623 	6.77333e-05 	
0.00180191 	0.00120127 	3.47962e-08 	3.47962 	0.0303481 	3.44927 	0 	0 	0 	
0.00160867 	-4.61765e-09 	0.92 	0.04 	0.04 	0.0291649 	3.80012 	
3.87 	3.97141 	-0.101414 	-0.476527 	-0 	13.3658 	16.678 	
-0 	14488.2 	246.919 	283.231 	0.35 	13.208 	-0.252718 	6.77333e-05 	
0.00180191 	0.00120127 	5.38051e-08 	5.38051 	0.0195406 	5.36097 	0 	0 	0 	
0.0016764 	-9.25547e-09 	0.92 	0.04 	0.04 	0.0291648 	3.8001 	
3.87 	3.97141 	-0.101414 	-0.476527 	-0 	10.0271 	20.0166 	
-0 	14488.2 	246.919 	283.231 	0.35 	13.208 	-0.252835 	6.77333e-05 	
0.00180191 	0.00120127 	7.70992e-08 	7.70992 	0.0111292 	7.69879 	0 	0 	0 	
0.00174413 	-1.38958e-08 	0.92 	0.04 	0.04 	0.0291647 	3.80007 	
3.87 	3.97141 	-0.101414 	-0.476527 	-0 	6.68682 	23.3569 	
-0 	14488.2 	246.919 	283.231 	0.35 	13.208 	-0.252972 	6.77333e-05 	
0.00180191 	0.00120127 	1.04686e-07 	10.4686 	0.0051164 	10.4635 	0 	0 	0 	
0.00181187 	-1.85391e-08 	0.92 	0.04 	0.04 	0.0291647 	3.80004 	
3.87 	3.97141 	-0.101414 	-0.476527 	-0 	3.34453 	26.6992 	
-0 	14488.2 	246.919 	283.231 	0.35 	13.208 	-0.253132 	6.77333e-05 	
0.00180191 	0.00120127 	1.36576e-07 	13.6576 	0.00150573 	13.6561 	0 	0 	0 	
0.0018796 	0 	0.92 	0.04 	0.04 	0.0291647 	3.8 	
3.87 	3.97141 	-0.101414 	-0.238264 	-0 	0.836432 	29.2073 	
-0 	7244.08 	123.46 	141.616 	0.35 	6.604 	-0.253312 	3.38667e-05 	
0.000900955 	0.000600637 	1.53598e-07 	15.3598 	0.000301405 	15.3595 	0 	0 	0 	
ZONE T = "t = 2e-08 [s]" I = 10 SOLUTIONTIME = 2.0000000000000E-08
0.00127 	1.85447e-08 	0.92 	0.04 	0.04 	0.0291657 	3.80017 	
3.77101 	3.97141 	-0.200405 	-1.66723 	1.47051e-07 	29.2103 	0.833613 	
4.17857e-11 	7244.08 	123.46 	141.616 	0.35 	6.604 	-0.252457 	3.38667e-05 	
0.000900955 	0.000600637 	2.79536e-09 	0.139769 	0.0867269 	0.0530419 	0 	0 	0 	
0.00133773 	1.39136e-08 	0.92 	0.04 	0.04 	0.0291654 	3.80017 	
3.77101 	3.97141 	-0.200407 	-3.33458 	1.29771e-07 	26.7094 	3.33452 	
8.35745e-11 	14488.2 	246.919 	283.231 	0.35 	13.208 	-0.252467 	6.77333e-05 	
0.00180191 	0.00120127 	6.84707e-09 	0.342356 	0.0771343 	0.265222 	0 	0 	0 	
0.00140547 	9.28192e-09 	0.92 	0.04 	0.04 	0.0291653 	3.80017 	
3.771 	3.97141 	-0.200414 	-3.33499 	1.12489e-07 	23.3747 	6.6693 	
8.35848e-11 	14488.2 	246.919 	283.231 	0.35 	13.208 	-0.252497 	6.77333e-05 	
0.00180191 	0.00120127 	1.92194e-08 	0.960975 	0.0591458 	0.901829 	0 	0 	0 	
0.0014732 	4.64929e-09 	0.92 	0.04 	0.04 	0.0291651 	3.80016 	
3.77099 	3.97141 	-0.200424 	-3.33568 	9.52029e-08 	20.0393 	10.0046 	
8.36021e-11 	14488.2 	246.919 	283.231 	0.35 	13.208 	-0.25255 	6.77333e-05 	
0.00180191 	0.00120127 	4.01323e-08 	2.00663 	0.0435505 	1.96307 	0 	0 	0 	
0.00154093 	1.53164e-11 	0.92 	0.04 	0.04 	0.029165 	3.80014 	
3.77098 	3.97141 	-0.200439 	-3.33665 	7.7912e-08 	16.7032 	13.3408 	
8.36264e-11 	14488.2 	246.919 	283.231 	0.35 	13.208 	-0.252623 	6.77333e-05 	
0.00180191 	0.00120127 	6.95928e-08 	3.47966 	0.0303485 	3.44931 	0 	0 	0 	
0.00160867 	-4.6204e-09 	0.92 	0.04 	0.04 	0.0291649 	3.80012 	
3.77096 	3.97141 	-0.200458 	-3.3379 	6.06147e-08 	13.3659 	16.6781 	
8.36578e-11 	14488.2 	246.919 	283.231 	0.35 	13.208 	-0.252718 	6.77333e-05 	
0.00180191 	0.00120127 	1.07611e-07 	5.38058 	0.0195409 	5.36104 	0 	0 	0 	
0.0016764 	-9.25898e-09 	0.92 	0.04 	0.04 	0.0291648 	3.8001 	
3.77093 	3.97141 	-0.200482 	-3.33944 	4.33094e-08 	10.0272 	20.0167 	
8.36963e-11 	14488.2 	246.919 	283.231 	0.35 	13.208 	-0.252835 	6.77333e-05 	
0.00180191 	0.00120127 	1.54199e-07 	7.71002 	0.0111293 	7.69889 	0 	0 	0 	
0.00174413 	-1.38994e-08 	0.92 	0.04 	0.04 	0.0291647 	3.80007 	
3.7709 	3.97141 	-0.20051 	-3.34126 	2.59946e-08 	6.68687 	23.3571 	
8.37419e-11 	14488.2 	246.919 	283.231 	0.35 	13.208 	-0.252972 	6.77333e-05 	
0.00180191 	0.00120127 	2.09374e-07 	10.4688 	0.00511646 	10.4637 	0 	0 	0 	
0.00181187 	-1.8543e-08 	0.92 	0.04 	0.04 	0.0291647 	3.80004 	
3.77087 	3.97141 	-0.200542 	-3.34336 	8.66933e-09 	3.34456 	26.6994 	
8.37947e-11 	14488.2 	246.919 	283.231 	0.35 	13.208 	-0.253132 	6.77333e-05 	
0.00180191 	0.00120127 	2.73154e-07 	13.6578 	0.00150575 	13.6563 	0 	0 	0 	
0.0018796 	0 	0.92 	0.04 	0.04 	0.0291647 	3.8 	
3.77084 	3.97141 	-0.200579 	-1.67287 	8.66933e-09 	0.836437 	29.2075 	
4.19273e-11 	7244.08 	123.46 	141.616 	0.35 	6.604 	-0.253312 	3.38667e-05 	
0.000900955 	0.000600637 	3.07197e-07 	15.36 	0.000301409 	15.3597 	0 	0 	0 	
ZONE T = "t = 3e-08 [s]" I = 10 SOLUTIONTIME = 3.0000000000000E-08
0.00127 	1.85492e-08 	0.92 	0.04 	0.04 	0.0291657 	3.80017 	
3.77101 	3.97141 	-0.200405 	-1.66723 	1.47052e-07 	29.2103 	0.833613 	
8.35714e-11 	7244.08 	123.46 	141.616 	0.35 	6.604 	-0.252457 	3.38667e-05 	
0.000900955 	0.000600637 	4.19304e-09 	0.139769 	0.0867269 	0.0530419 	0 	0 	0 	
0.00133773 	1.39181e-08 	0.92 	0.04 	0.04 	0.0291654 	3.80017 	
3.77101 	3.97141 	-0.200407 	-3.33458 	1.29772e-07 	26.7094 	3.33452 	
1.67149e-10 	14488.2 	246.919 	283.231 	0.35 	13.208 	-0.252467 	6.77333e-05 	
0.00180191 	0.00120127 	1.02706e-08 	0.342356 	0.0771343 	0.265222 	0 	0 	0 	
0.00140547 	9.28646e-09 	0.92 	0.04 	0.04 	0.0291653 	3.80017 	
3.771 	3.97141 	-0.200414 	-3.33499 	1.12489e-07 	23.3747 	6.6693 	
1.6717e-10 	14488.2 	246.919 	283.231 	0.35 	13.208 	-0.252497 	6.77333e-05 	
0.00180191 	0.00120127 	2.88291e-08 	0.960975 	0.0591458 	0.901829 	0 	0 	0 	
0.0014732 	4.65456e-09 	0.92 	0.04 	0.04 	0.0291651 	3.80016 	
3.77099 	3.97141 	-0.200424 	-3.33568 	9.52035e-08 	20.0393 	10.0046 	
1.67204e-10 	14488.2 	246.919 	283.231 	0.35 	13.208 	-0.25255 	6.77333e-05 	
0.00180191 	0.00120127 	6.01985e-08 	2.00663 	0.0435505 	1.96307 	0 	0 	0 	
0.00154093 	2.05829e-11 	0.92 	0.04 	0.04 	0.029165 	3.80014 	
3.77098 	3.97141 	-0.200439 	-3.33665 	7.79125e-08 	16.7032 	13.3408 	
1.67253e-10 	14488.2 	246.919 	283.231 	0.35 	13.208 	-0.252623 	6.77333e-05 	
0.00180191 	0.00120127 	1.04389e-07 	3.47966 	0.0303485 	3.44931 	0 	0 	0 	
0.00160867 	-4.61514e-09 	0.92 	0.04 	0.04 	0.0291649 	3.80012 	
3.77096 	3.97141 	-0.200458 	-3.3379 	6.06151e-08 	13.3659 	16.6781 	
1.67316e-10 	14488.2 	246.919 	283.231 	0.35 	13.208 	-0.252718 	6.77333e-05 	
0.00180191 	0.00120127 	1.61417e-07 	5.38058 	0.0195409 	5.36104 	0 	0 	0 	
0.0016764 	-9.25262e-09 	0.92 	0.04 	0.04 	0.0291648 	3.8001 	
3.77093 	3.97141 	-0.200482 	-3.33944 	4.33097e-08 	10.0272 	20.0167 	
1.67393e-10 	14488.2 	246.919 	283.231 	0.35 	13.208 	-0.252835 	6.77333e-05 	
0.00180191 	0.00120127 	2.313e-07 	7.71002 	0.0111293 	7.69889 	0 	0 	0 	
0.00174413 	-1.38934e-08 	0.92 	0.04 	0.04 	0.0291647 	3.80007 	
3.7709 	3.97141 	-0.20051 	-3.34126 	2.59948e-08 	6.68687 	23.3571 	
1.67484e-10 	14488.2 	246.919 	283.231 	0.35 	13.208 	-0.252972 	6.77333e-05 	
0.00180191 	0.00120127 	3.14062e-07 	10.4688 	0.00511646 	10.4637 	0 	0 	0 	
0.00181187 	-1.8537e-08 	0.92 	0.04 	0.04 	0.0291647 	3.80004 	
3.77087 	3.97141 	-0.200542 	-3.34336 	8.6697e-09 	3.34456 	26.6994 	
1.67589e-10 	14488.2 	246.919 	283.231 	0.35 	13.208 	-0.253132 	6.77333e-05 	
0.00180191 	0.00120127 	4.09731e-07 	13.6578 	0.00150575 	13.6563 	0 	0 	0 	
0.0018796 	0 	0.92 	0.04 	0.04 	0.0291647 	3.8 	
3.77084 	3.97141 	-0.200579 	-1.67287 	8.6697e-09 	0.836437 	29.2075 	
8.38545e-11 	7244.08 	123.46 	141.616 	0.35 	6.604 	-0.253312 	3.38667e-05 	
0.000900955 	0.000600637 	4.60797e-07 	15.36 	0.000301409 	15.3597 	0 	0 	0 	
ZONE T = "t = 4e-08 [s]" I = 10 SOLUTIONTIME = 4.0000000000000E-08
0.00127 	1.85427e-08 	0.92 	0.04 	0.04 	0.0291657 	3.80017 	
3.77101 	3.97141 	-0.200405 	-1.66723 	1.47052e-07 	29.2103 	0.833613 	
1.25357e-10 	7244.08 	123.46 	141.616 	0.35 	6.604 	-0.252457 	3.38667e-05 	
0.000900955 	0.000600637 	5.59073e-09 	0.139769 	0.0867269 	0.0530419 	0 	0 	0 	
0.00133773 	1.39116e-08 	0.92 	0.04 	0.04 	0.0291654 	3.80017 	
3.77101 	3.97141 	-0.200407 	-3.33458 	1.29772e-07 	26.7094 	3.33452 	
2.50724e-10 	14488.2 	246.919 	283.231 	0.35 	13.208 	-0.252467 	6.77333e-05 	
0.00180191 	0.00120127 	1.36942e-08 	0.342356 	0.0771343 	0.265222 	0 	0 	0 	
0.00140547 	9.27992e-09 	0.92 	0.04 	0.04 	0.0291653 	3.80017 	
3.771 	3.97141 	-0.200414 	-3.33499 	1.12489e-07 	23.3747 	6.6693 	
2.50754e-10 	14488.2 	246.919 	283.231 	0.35 	13.208 	-0.252497 	6.77333e-05 	
0.00180191 	0.00120127 	3.84389e-08 	0.960975 	0.0591458 	0.901829 	0 	0 	0 	
0.0014732 	4.6473e-09 	0.92 	0.04 	0.04 	0.0291651 	3.80016 	
3.77099 	3.97141 	-0.200424 	-3.33568 	9.52035e-08 	20.0393 	10.0046 	
2.50806e-10 	14488.2 	246.919 	283.231 	0.35 	13.208 	-0.25255 	6.77333e-05 	
0.00180191 	0.00120127 	8.02648e-08 	2.00663 	0.0435505 	1.96307 	0 	0 	0 	
0.00154093 	1.25923e-11 	0.92 	0.04 	0.04 	0.029165 	3.80014 	
3.77098 	3.97141 	-0.200439 	-3.33665 	7.79125e-08 	16.7032 	13.3408 	
2.50879e-10 	14488.2 	246.919 	283.231 	0.35 	13.208 	-0.252623 	6.77333e-05 	
0.00180191 	0.00120127 	1.39186e-07 	3.47966 	0.0303485 	3.44931 	0 	0 	0 	
0.00160867 	-4.62313e-09 	0.92 	0.04 	0.04 	0.0291649 	3.80012 	
3.77096 	3.97141 	-0.200458 	-3.3379 	6.06151e-08 	13.3659 	16.6781 	
2.50974e-10 	14488.2 	246.919 	283.231 	0.35 	13.208 	-0.252718 	6.77333e-05 	
0.00180191 	0.00120127 	2.15222e-07 	5.38058 	0.0195409 	5.36104 	0 	0 	0 	
0.0016764 	-9.26134e-09 	0.92 	0.04 	0.04 	0.0291648 	3.8001 	
3.77093 	3.97141 	-0.200482 	-3.33944 	4.33097e-08 	10.0272 	20.0167 	
2.51089e-10 	14488.2 	246.919 	283.231 	0.35 	13.208 	-0.252835 	6.77333e-05 	
0.00180191 	0.00120127 	3.084e-07 	7.71002 	0.0111293 	7.69889 	0 	0 	0 	
0.00174413 	-1.39017e-08 	0.92 	0.04 	0.04 	0.0291647 	3.80007 	
3.7709 	3.97141 	-0.20051 	-3.34126 	2.59948e-08 	6.68687 	23.3571 	
2.51226e-10 	14488.2 	246.919 	283.231 	0.35 	13.208 	-0.252972 	6.77333e-05 	
0.00180191 	0.00120127 	4.1875e-07 	10.4688 	0.00511646 	10.4637 	0 	0 	0 	
0.00181187 	-1.85447e-08 	0.92 	0.04 	0.04 	0.0291647 	3.80004 	
3.77087 	3.97141 	-0.200542 	-3.34336 	8.67003e-09 	3.34456 	26.6994 	
2.51384e-10 	14488.2 	246.919 	283.231 	0.35 	13.208 	-0.253132 	6.77333e-05 	
0.00180191 	0.00120127 	5.46309e-07 	13.6578 	0.00150575 	13.6563 	0 	0 	0 	
0.0018796 	0 	0.92 	0.04 	0.04 	0.0291647 	3.8 	
3.77084 	3.97141 	-0.200579 	-1.67287 	8.67003e-09 	0.836437 	29.2075 	
1.25782e-10 	7244.08 	123.46 	141.616 	0.35 	6.604 	-0.253312 	3.38667e-05 	
0.000900955 	0.000600637 	6.14396e-07 	15.36 	0.000301409 	15.3597 	0 	0 	0 	
ZONE T = "t = 5.5e-08 [s]" I = 10 SOLUTIONTIME = 5.5000000000000E-08
0.00127 	1.85495e-08 	0.92 	0.04 	0.04 	0.0291657 	3.80017 	
3.77101 	3.97141 	-0.200405 	-1.66723 	1.47052e-07 	29.2103 	0.833613 	
1.67143e-10 	7244.08 	123.46 	141.616 	0.35 	6.604 	-0.252457 	3.38667e-05 	
0.000900955 	0.000600637 	7.68726e-09 	0.139769 	0.0867269 	0.0530419 	0 	0 	0 	
0.00133773 	1.39187e-08 	0.92 	0.04 	0.04 	0.0291654 	3.80017 	
3.77101 	3.97141 	-0.200407 	-3.33458 	1.29772e-07 	26.7094 	3.33452 	
3.34298e-10 	14488.2 	246.919 	283.231 	0.35 	13.208 	-0.252467 	6.77333e-05 	
0.00180191 	0.00120127 	1.88295e-08 	0.342356 	0.0771343 	0.265222 	0 	0 	0 	
0.00140547 	9.28676e-09 	0.92 	0.04 	0.04 	0.0291653 	3.80017 	
3.771 	3.97141 	-0.200414 	-3.33499 	1.12489e-07 	23.3747 	6.6693 	
3.34339e-10 	14488.2 	246.919 	283.231 	0.35 	13.208 	-0.252497 	6.77333e-05 	
0.00180191 	0.00120127 	5.28535e-08 	0.960975 	0.0591458 	0.901829 	0 	0 	0 	
0.0014732 	4.65438e-09 	0.92 	0.04 	0.04 	0.0291651 	3.80016 	
3.77099 	3.97141 	-0.200424 	-3.33568 	9.52035e-08 	20.0393 	10.0046 	
3.34408e-10 	14488.2 	246.919 	283.231 	0.35 	13.208 	-0.25255 	6.77333e-05 	
0.00180191 	0.00120127 	1.10364e-07 	2.00663 	0.0435505 	1.96307 	0 	0 	0 	
0.00154093 	2.11277e-11 	0.92 	0.04 	0.04 	0.029165 	3.80014 	
3.77098 	3.97141 	-0.200439 	-3.33665 	7.79125e-08 	16.7032 	13.3408 	
3.34506e-10 	14488.2 	246.919 	283.231 	0.35 	13.208 	-0.252623 	6.77333e-05 	
0.00180191 	0.00120127 	1.91381e-07 	3.47966 	0.0303485 	3.44931 	0 	0 	0 	
0.00160867 	-4.61459e-09 	0.92 	0.04 	0.04 	0.0291649 	3.80012 	
3.77096 	3.97141 	-0.200458 	-3.3379 	6.06151e-08 	13.3659 	16.6781 	
3.34631e-10 	14488.2 	246.919 	283.231 	0.35 	13.208 	-0.252718 	6.77333e-05 	
0.00180191 	0.00120127 	2.95931e-07 	5.38058 	0.0195409 	5.36104 	0 	0 	0 	
0.0016764 	-9.25196e-09 	0.92 	0.04 	0.04 	0.0291648 	3.8001 	
3.77093 	3.97141 	-0.200482 	-3.33944 	4.33097e-08 	10.0272 	20.0167 	
3.34785e-10 	14488.2 	246.919 	283.231 	0.35 	13.208 	-0.252835 	6.77333e-05 	
0.00180191 	0.00120127 	4.2405e-07 	7.71002 	0.0111293 	7.69889 	0 	0 	0 	
0.00174413 	-1.38921e-08 	0.92 	0.04 	0.04 	0.0291647 	3.80007 	
3.7709 	3.97141 	-0.20051 	-3.34126 	2.59948e-08 	6.68687 	23.3571 	
3.34968e-10 	14488.2 	246.919 	283.231 	0.35 	13.208 	-0.252972 	6.77333e-05 	
0.00180191 	0.00120127 	5.75781e-07 	10.4688 	0.00511646 	10.4637 	0 	0 	0 	
0.00181187 	-1.85352e-08 	0.92 	0.04 	0.04 	0.0291647 	3.80004 	
3.77087 	3.97141 	-0.200542 	-3.34336 	8.67035e-09 	3.34456 	26.6994 	
3.35179e-10 	14488.2 	246.919 	283.231 	0.35 	13.208 	-0.253132 	6.77333e-05 	
0.00180191 	0.00120127 	7.51176e-07 	13.6578 	0.00150575 	13.6563 	0 	0 	0 	
0.0018796 	0 	0.92 	0.04 	0.04 	0.0291647 	3.8 	
3.77084 	3.97141 	-0.200579 	-1.67287 	8.67035e-09 	0.836437 	29.2075 	
1.67709e-10 	7244.08 	123.46 	141.616 	0.35 	6.604 	-0.253312 	3.38667e-05 	
0.000900955 	0.000600637 	8.44796e-07 	15.36 	0.000301409 	15.3597 	0 	0 	0 	
ZONE T = "t = 7.75e-08 [s]" I = 10 SOLUTIONTIME = 7.7500000000000E-08
0.00127 	1.8547e-08 	0.92 	0.04 	0.04 	0.0291657 	3.80017 	
3.77101 	3.97141 	-0.200405 	-1.66723 	1.47053e-07 	29.2103 	0.833613 	
2.29821e-10 	7244.08 	123.46 	141.616 	0.35 	6.604 	-0.252457 	3.38667e-05 	
0.000900955 	0.000600637 	1.08321e-08 	0.139769 	0.0867269 	0.0530419 	0 	0 	0 	
0.00133773 	1.39157e-08 	0.92 	0.04 	0.04 	0.0291654 	3.80017 	
3.77101 	3.97141 	-0.200407 	-3.33458 	1.29772e-07 	26.7094 	3.33452 	
4.5966e-10 	14488.2 	246.919 	283.231 	0.35 	13.208 	-0.252467 	6.77333e-05 	
0.00180191 	0.00120127 	2.65325e-08 	0.342356 	0.0771343 	0.265222 	0 	0 	0 	
0.00140547 	9.28422e-09 	0.92 	0.04 	0.04 	0.0291653 	3.80017 	
3.771 	3.97141 	-0.200414 	-3.33499 	1.12489e-07 	23.3747 	6.6693 	
4.59716e-10 	14488.2 	246.919 	283.231 	0.35 	13.208 	-0.252497 	6.77333e-05 	
0.00180191 	0.00120127 	7.44755e-08 	0.960975 	0.0591458 	0.901829 	0 	0 	0 	
0.0014732 	4.65143e-09 	0.92 	0.04 	0.04 	0.0291651 	3.80016 	
3.77099 	3.97141 	-0.200424 	-3.33568 	9.52035e-08 	20.0393 	10.0046 	
4.59811e-10 	14488.2 	246.919 	283.231 	0.35 	13.208 	-0.25255 	6.77333e-05 	
0.00180191 	0.00120127 	1.55513e-07 	2.00663 	0.0435505 	1.96307 	0 	0 	0 	
0.00154093 	1.71324e-11 	0.92 	0.04 	0.04 	0.029165 	3.80014 	
3.77098 	3.97141 	-0.200439 	-3.33665 	7.79125e-08 	16.7032 	13.3408 	
4.59945e-10 	14488.2 	246.919 	283.231 	0.35 	13.208 	-0.252623 	6.77333e-05 	
0.00180191 	0.00120127 	2.69673e-07 	3.47966 	0.0303485 	3.44931 	0 	0 	0 	
0.00160867 	-4.61842e-09 	0.92 	0.04 	0.04 	0.0291649 	3.80012 	
3.77096 	3.97141 	-0.200458 	-3.3379 	6.06151e-08 	13.3659 	16.6781 	
4.60118e-10 	14488.2 	246.919 	283.231 	0.35 	13.208 	-0.252718 	6.77333e-05 	
0.00180191 	0.00120127 	4.16994e-07 	5.38058 	0.0195409 	5.36104 	0 	0 	0 	
0.0016764 	-9.25628e-09 	0.92 	0.04 	0.04 	0.0291648 	3.8001 	
3.77093 	3.97141 	-0.200482 	-3.33944 	4.33097e-08 	10.0272 	20.0167 	
4.6033e-10 	14488.2 	246.919 	283.231 	0.35 	13.208 	-0.252835 	6.77333e-05 	
0.00180191 	0.00120127 	5.97525e-07 	7.71002 	0.0111293 	7.69889 	0 	0 	0 	
0.00174413 	-1.38967e-08 	0.92 	0.04 	0.04 	0.0291647 	3.80007 	
3.7709 	3.97141 	-0.20051 	-3.34126 	2.59948e-08 	6.68687 	23.3571 	
4.60581e-10 	14488.2 	246.919 	283.231 	0.35 	13.208 	-0.252972 	6.77333e-05 	
0.00180191 	0.00120127 	8.11328e-07 	10.4688 	0.00511646 	10.4637 	0 	0 	0 	
0.00181187 	-1.854e-08 	0.92 	0.04 	0.04 	0.0291647 	3.80004 	
3.77087 	3.97141 	-0.200542 	-3.34336 	8.67083e-09 	3.34456 	26.6994 	
4.60871e-10 	14488.2 	246.919 	283.231 	0.35 	13.208 	-0.253132 	6.77333e-05 	
0.00180191 	0.00120127 	1.05848e-06 	13.6578 	0.00150575 	13.6563 	0 	0 	0 	
0.0018796 	0 	0.92 	0.04 	0.04 	0.0291647 	3.8 	
3.77084 	3.97141 	-0.200579 	-1.67287 	8.67083e-09 	0.836437 	29.2075 	
2.306e-10 	7244.08 	123.46 	141.616 	0.35 	6.604 	-0.253312 	3.38667e-05 	
0.000900955 	0.000600637 	1.19039e-06 	15.36 	0.000301409 	15.3597 	0 	0 	0 	
ZONE T = "t = 1.1125e-07 [s]" I = 10 SOLUTIONTIME = 1.1125000000000E-07
0.00127 	1.85459e-08 	0.92 	0.04 	0.04 	0.0291657 	3.80017 	
3.77101 	3.97141 	-0.200405 	-1.66723 	1.47053e-07 	29.2103 	0.833613 	
3.23839e-10 	7244.08 	123.46 	141.616 	0.35 	6.604 	-0.252457 	3.38667e-05 	
0.000900955 	0.000600637 	1.55493e-08 	0.139769 	0.0867269 	0.0530419 	0 	0 	0 	
0.00133773 	1.39147e-08 	0.92 	0.04 	0.04 	0.0291654 	3.80017 	
3.77101 	3.97141 	-0.200407 	-3.33458 	1.29772e-07 	26.7094 	3.33452 	
6.47703e-10 	14488.2 	246.919 	283.231 	0.35 	13.208 	-0.252467 	6.77333e-05 	
0.00180191 	0.00120127 	3.8087e-08 	0.342356 	0.0771343 	0.265222 	0 	0 	0 	
0.00140547 	9.28306e-09 	0.92 	0.04 	0.04 	0.0291653 	3.80017 	
3.771 	3.97141 	-0.200414 	-3.33499 	1.12489e-07 	23.3747 	6.6693 	
6.47782e-10 	14488.2 	246.919 	283.231 	0.35 	13.208 	-0.252497 	6.77333e-05 	
0.00180191 	0.00120127 	1.06908e-07 	0.960975 	0.0591458 	0.901829 	0 	0 	0 	
0.0014732 	4.65001e-09 	0.92 	0.04 	0.04 	0.0291651 	3.80016 	
3.77099 	3.97141 	-0.200424 	-3.33568 	9.52035e-08 	20.0393 	10.0046 	
6.47916e-10 	14488.2 	246.919 	283.231 	0.35 	13.208 	-0.25255 	6.77333e-05 	
0.00180191 	0.00120127 	2.23237e-07 	2.00663 	0.0435505 	1.96307 	0 	0 	0 	
0.00154093 	1.61369e-11 	0.92 	0.04 	0.04 	0.029165 	3.80014 	
3.77098 	3.97141 	-0.200439 	-3.33665 	7.79125e-08 	16.7032 	13.3408 	
6.48105e-10 	14488.2 	246.919 	283.231 	0.35 	13.208 	-0.252623 	6.77333e-05 	
0.00180191 	0.00120127 	3.87112e-07 	3.47966 	0.0303485 	3.44931 	0 	0 	0 	
0.00160867 	-4.61969e-09 	0.92 	0.04 	0.04 	0.0291649 	3.80012 	
3.77096 	3.97141 	-0.200458 	-3.3379 	6.06151e-08 	13.3659 	16.6781 	
6.48348e-10 	14488.2 	246.919 	283.231 	0.35 	13.208 	-0.252718 	6.77333e-05 	
0.00180191 	0.00120127 	5.98588e-07 	5.38058 	0.0195409 	5.36104 	0 	0 	0 	
0.0016764 	-9.25765e-09 	0.92 	0.04 	0.04 	0.0291648 	3.8001 	
3.77093 	3.97141 	-0.200482 	-3.33944 	4.33097e-08 	10.0272 	20.0167 	
6.48647e-10 	14488.2 	246.919 	283.231 	0.35 	13.208 	-0.252835 	6.77333e-05 	
0.00180191 	0.00120127 	8.57738e-07 	7.71002 	0.0111293 	7.69889 	0 	0 	0 	
0.00174413 	-1.38981e-08 	0.92 	0.04 	0.04 	0.0291647 	3.80007 	
3.7709 	3.97141 	-0.20051 	-3.34126 	2.59948e-08 	6.68687 	23.3571 	
6.49e-10 	14488.2 	246.919 	283.231 	0.35 	13.208 	-0.252972 	6.77333e-05 	
0.00180191 	0.00120127 	1.16465e-06 	10.4688 	0.00511646 	10.4637 	0 	0 	0 	
0.00181187 	-1.85414e-08 	0.92 	0.04 	0.04 	0.0291647 	3.80004 	
3.77087 	3.97141 	-0.200542 	-3.34336 	8.67155e-09 	3.34456 	26.6994 	
6.49409e-10 	14488.2 	246.919 	283.231 	0.35 	13.208 	-0.253132 	6.77333e-05 	
0.00180191 	0.00120127 	1.51943e-06 	13.6578 	0.00150575 	13.6563 	0 	0 	0 	
0.0018796 	0 	0.92 	0.04 	0.04 	0.0291647 	3.8 	
3.77084 	3.97141 	-0.200579 	-1.67287 	8.67155e-09 	0.836437 	29.2075 	
3.24936e-10 	7244.08 	123.46 	141.616 	0.35 	6.604 	-0.253312 	3.38667e-05 	
0.000900955 	0.000600637 	1.70879e-06 	15.36 	0.000301409 	15.3597 	0 	0 	0 	
ZONE T = "t = 1.61875e-07 [s]" I = 10 SOLUTIONTIME = 1.6187500000000E-07
0.00127 	1.85487e-08 	0.92 	0.04 	0.04 	0.0291657 	3.80017 	
3.77101 	3.97141 	-0.200405 	-1.66723 	1.47053e-07 	29.2103 	0.833613 	
4.64866e-10 	7244.08 	123.46 	141.616 	0.35 	6.604 	-0.252457 	3.38667e-05 	
0.000900955 	0.000600637 	2.2625e-08 	0.139769 	0.0867269 	0.0530419 	0 	0 	0 	
0.00133773 	1.39176e-08 	0.92 	0.04 	0.04 	0.0291654 	3.80017 	
3.77101 	3.97141 	-0.200407 	-3.33458 	1.29772e-07 	26.7094 	3.33452 	
9.29767e-10 	14488.2 	246.919 	283.231 	0.35 	13.208 	-0.252467 	6.77333e-05 	
0.00180191 	0.00120127 	5.54188e-08 	0.342356 	0.0771343 	0.265222 	0 	0 	0 	
0.00140547 	9.28583e-09 	0.92 	0.04 	0.04 	0.0291653 	3.80017 	
3.771 	3.97141 	-0.200414 	-3.33499 	1.12489e-07 	23.3747 	6.6693 	
9.29881e-10 	14488.2 	246.919 	283.231 	0.35 	13.208 	-0.252497 	6.77333e-05 	
0.00180191 	0.00120127 	1.55558e-07 	0.960975 	0.0591458 	0.901829 	0 	0 	0 	
0.0014732 	4.65349e-09 	0.92 	0.04 	0.04 	0.0291651 	3.80016 	
3.77099 	3.97141 	-0.200424 	-3.33568 	9.52035e-08 	20.0393 	10.0046 	
9.30073e-10 	14488.2 	246.919 	283.231 	0.35 	13.208 	-0.25255 	6.77333e-05 	
0.00180191 	0.00120127 	3.24822e-07 	2.00663 	0.0435505 	1.96307 	0 	0 	0 	
0.00154093 	1.95089e-11 	0.92 	0.04 	0.04 	0.029165 	3.80014 	
3.77098 	3.97141 	-0.200439 	-3.33665 	7.79125e-08 	16.7032 	13.3408 	
9.30344e-10 	14488.2 	246.919 	283.231 	0.35 	13.208 	-0.252623 	6.77333e-05 	
0.00180191 	0.00120127 	5.6327e-07 	3.47966 	0.0303485 	3.44931 	0 	0 	0 	
0.00160867 	-4.61621e-09 	0.92 	0.04 	0.04 	0.0291649 	3.80012 	
3.77096 	3.97141 	-0.200458 	-3.3379 	6.06151e-08 	13.3659 	16.6781 	
9.30693e-10 	14488.2 	246.919 	283.231 	0.35 	13.208 	-0.252718 	6.77333e-05 	
0.00180191 	0.00120127 	8.7098e-07 	5.38058 	0.0195409 	5.36104 	0 	0 	0 	
0.0016764 	-9.25392e-09 	0.92 	0.04 	0.04 	0.0291648 	3.8001 	
3.77093 	3.97141 	-0.200482 	-3.33944 	4.33097e-08 	10.0272 	20.0167 	
9.31122e-10 	14488.2 	246.919 	283.231 	0.35 	13.208 	-0.252835 	6.77333e-05 	
0.00180191 	0.00120127 	1.24806e-06 	7.71002 	0.0111293 	7.69889 	0 	0 	0 	
0.00174413 	-1.38943e-08 	0.92 	0.04 	0.04 	0.0291647 	3.80007 	
3.7709 	3.97141 	-0.20051 	-3.34126 	2.59948e-08 	6.68687 	23.3571 	
9.31629e-10 	14488.2 	246.919 	283.231 	0.35 	13.208 	-0.252972 	6.77333e-05 	
0.00180191 	0.00120127 	1.69463e-06 	10.4688 	0.00511646 	10.4637 	0 	0 	0 	
0.00181187 	-1.85377e-08 	0.92 	0.04 	0.04 	0.0291647 	3.80004 	
3.77087 	3.97141 	-0.200542 	-3.34336 	8.67264e-09 	3.34456 	26.6994 	
9.32216e-10 	14488.2 	246.919 	283.231 	0.35 	13.208 	-0.253132 	6.77333e-05 	
0.00180191 	0.00120127 	2.21085e-06 	13.6578 	0.00150575 	13.6563 	0 	0 	0 	
0.0018796 	0 	0.92 	0.04 	0.04 	0.0291647 	3.8 	
3.77084 	3.97141 	-0.200579 	-1.67287 	8.67264e-09 	0.836437 	29.2075 	
4.66441e-10 	7244.08 	123.46 	141.616 	0.35 	6.604 	-0.253312 	3.38667e-05 	
0.000900955 	0.000600637 	2.48639e-06 	15.36 	0.000301409 	15.3597 	0 	0 	0 	
ZONE T = "t = 2.37813e-07 [s]" I = 10 SOLUTIONTIME = 2.3781250000000E-07
0.00127 	1.85469e-08 	0.92 	0.04 	0.04 	0.0291657 	3.80017 	
3.77101 	3.97141 	-0.200405 	-1.66723 	1.47054e-07 	29.2103 	0.833613 	
6.76406e-10 	7244.08 	123.46 	141.616 	0.35 	6.604 	-0.252457 	3.38667e-05 	
0.000900955 	0.000600637 	3.32387e-08 	0.139769 	0.0867269 	0.0530419 	0 	0 	0 	
0.00133773 	1.39159e-08 	0.92 	0.04 	0.04 	0.0291654 	3.80017 	
3.77101 	3.97141 	-0.200407 	-3.33458 	1.29772e-07 	26.7094 	3.33452 	
1.35286e-09 	14488.2 	246.919 	283.231 	0.35 	13.208 	-0.252467 	6.77333e-05 	
0.00180191 	0.00120127 	8.14164e-08 	0.342356 	0.0771343 	0.265222 	0 	0 	0 	
0.00140547 	9.28427e-09 	0.92 	0.04 	0.04 	0.0291653 	3.80017 	
3.771 	3.97141 	-0.200414 	-3.33499 	1.12489e-07 	23.3747 	6.6693 	
1.35303e-09 	14488.2 	246.919 	283.231 	0.35 	13.208 	-0.252497 	6.77333e-05 	
0.00180191 	0.00120127 	2.28532e-07 	0.960975 	0.0591458 	0.901829 	0 	0 	0 	
0.0014732 	4.65164e-09 	0.92 	0.04 	0.04 	0.0291651 	3.80016 	
3.77099 	3.97141 	-0.200424 	-3.33568 	9.52035e-08 	20.0393 	10.0046 	
1.35331e-09 	14488.2 	246.919 	283.231 	0.35 	13.208 	-0.25255 	6.77333e-05 	
0.00180191 	0.00120127 	4.772e-07 	2.00663 	0.0435505 	1.96307 	0 	0 	0 	
0.00154093 	1.77153e-11 	0.92 	0.04 	0.04 	0.029165 	3.80014 	
3.77098 	3.97141 	-0.200439 	-3.33665 	7.79125e-08 	16.7032 	13.3408 	
1.3537e-09 	14488.2 	246.919 	283.231 	0.35 	13.208 	-0.252623 	6.77333e-05 	
0.00180191 	0.00120127 	8.27506e-07 	3.47966 	0.0303485 	3.44931 	0 	0 	0 	
0.00160867 	-4.6181e-09 	0.92 	0.04 	0.04 	0.0291649 	3.80012 	
3.77096 	3.97141 	-0.200458 	-3.3379 	6.06151e-08 	13.3659 	16.6781 	
1.35421e-09 	14488.2 	246.919 	283.231 	0.35 	13.208 	-0.252718 	6.77333e-05 	
0.00180191 	0.00120127 	1.27957e-06 	5.38058 	0.0195409 	5.36104 	0 	0 	0 	
0.0016764 	-9.256e-09 	0.92 	0.04 	0.04 	0.0291648 	3.8001 	
3.77093 	3.97141 	-0.200482 	-3.33944 	4.33097e-08 	10.0272 	20.0167 	
1.35483e-09 	14488.2 	246.919 	283.231 	0.35 	13.208 	-0.252835 	6.77333e-05 	
0.00180191 	0.00120127 	1.83354e-06 	7.71002 	0.0111293 	7.69889 	0 	0 	0 	
0.00174413 	-1.38963e-08 	0.92 	0.04 	0.04 	0.0291647 	3.80007 	
3.7709 	3.97141 	-0.20051 	-3.34126 	2.59948e-08 	6.68687 	23.3571 	
1.35557e-09 	14488.2 	246.919 	283.231 	0.35 	13.208 	-0.252972 	6.77333e-05 	
0.00180191 	0.00120127 	2.4896e-06 	10.4688 	0.00511646 	10.4637 	0 	0 	0 	
0.00181187 	-1.85396e-08 	0.92 	0.04 	0.04 	0.0291647 	3.80004 	
3.77087 	3.97141 	-0.200542 	-3.34336 	8.67426e-09 	3.34456 	26.6994 	
1.35643e-09 	14488.2 	246.919 	283.231 	0.35 	13.208 	-0.253132 	6.77333e-05 	
0.00180191 	0.00120127 	3.24799e-06 	13.6578 	0.00150575 	13.6563 	0 	0 	0 	
0.0018796 	0 	0.92 	0.04 	0.04 	0.0291647 	3.8 	
3.77084 	3.97141 	-0.200579 	-1.67287 	8.67426e-09 	0.836437 	29.2075 	
6.78697e-10 	7244.08 	123.46 	141.616 	0.35 	6.604 	-0.253312 	3.38667e-05 	
0.000900955 	0.000600637 	3.65279e-06 	15.36 	0.000301409 	15.3597 	0 	0 	0 	
ZONE T = "t = 3.51719e-07 [s]" I = 10 SOLUTIONTIME = 3.5171875000000E-07
0.00127 	1.85472e-08 	0.92 	0.04 	0.04 	0.0291657 	3.80017 	
3.77101 	3.97141 	-0.200405 	-1.66723 	1.47055e-07 	29.2103 	0.833613 	
9.93716e-10 	7244.08 	123.46 	141.616 	0.35 	6.604 	-0.252457 	3.38667e-05 	
0.000900955 	0.000600637 	4.91593e-08 	0.139769 	0.0867269 	0.0530419 	0 	0 	0 	
0.00133773 	1.39161e-08 	0.92 	0.04 	0.04 	0.0291654 	3.80017 	
3.77101 	3.97141 	-0.200407 	-3.33458 	1.29772e-07 	26.7094 	3.33452 	
1.98751e-09 	14488.2 	246.919 	283.231 	0.35 	13.208 	-0.252467 	6.77333e-05 	
0.00180191 	0.00120127 	1.20413e-07 	0.342356 	0.0771343 	0.265222 	0 	0 	0 	
0.00140547 	9.28442e-09 	0.92 	0.04 	0.04 	0.0291653 	3.80017 	
3.771 	3.97141 	-0.200414 	-3.33499 	1.12489e-07 	23.3747 	6.6693 	