TITLE = "Solution on Domain BulkDomain1D_2"
VARIABLES = "x [m]"  
"Vel_axial" 	"MF_sp(ECDMC)" 	"MF_sp(Li+)" 	"MF_sp(PF6-)" 	"Volt(Electroly)" 	"Volt(CathodeVo)" 	
"Potential Drop Electrode-Electrolyte [V]" 	"Surf_0 Equilibrium Potential Drop Electrode-Electrolyte [V]" 	"Overpotential_0 [V]" 	"Current Source [A/m^2]" 	"Li+ flux [kmol/m^2/s]" 	"Electrolyte Current [A/m^2]" 	"Electrode Current [A/m^2]" 	
"CV Capacity discharged [A-s/m^2]" 	"Depth of discharge in CV [A-s/m^2]" 	"CV Capacity remaining [A-s/m^2]" 	"Initial CV capacity [A-s/m^2]" 	"Porosity []" 	"Surface Area [m2/m2] (area per area)" 	"Specific current (per particle area) [A/m^2]" 	"Control volume thickness [m]" 	
"MoleDens LiCoO2 [kmol/m^3]" 	"MoleDens CoO2 [kmol/m^3]" 	"qHeat_accum [J/m3]" 	"qHeat_step [W/m3]" 	"Joule_Lyte [W/m3]" 	"Joule_Solid [W/m3]" 	"electrodHeat [W/m3]" 	"OverpotHeat [W/m3]" 	"deltaSHeat [W/m3]" 	

ZONE T = "CATH, 0.0000E+00", I = 10, SOLUTIONTIME = 0.000000E+00
ZONETYPE = ORDERED
DATAPACKING = BLOCK
STRANDID = 3
 1.2700000000000E-03  1.3377333333333E-03  1.4054666666667E-03  1.4732000000000E-03  1.5409333333333E-03  1.6086666666667E-03  1.6764000000000E-03  1.7441333333333E-03  1.8118666666667E-03  1.8796000000000E-03 
 0.0000000000000E+00  0.0000000000000E+00  0.0000000000000E+00  0.0000000000000E+00  0.0000000000000E+00  0.0000000000000E+00  0.0000000000000E+00  0.0000000000000E+00  0.0000000000000E+00  0.0000000000000E+00 
 9.2000000000000E-01  9.2000000000000E-01  9.2000000000000E-01  9.2000000000000E-01  9.2000000000000E-01  9.2000000000000E-01  9.2000000000000E-01  9.2000000000000E-01  9.2000000000000E-01  9.2000000000000E-01 
 4.0000000000000E-02  4.0000000000000E-02  4.0000000000000E-02  4.0000000000000E-02  4.0000000000000E-02  4.0000000000000E-02  4.0000000000000E-02  4.0000000000000E-02  4.0000000000000E-02  4.0000000000000E-02 
 4.0000000000000E-02  4.0000000000000E-02  4.0000000000000E-02  4.0000000000000E-02  4.0000000000000E-02  4.0000000000000E-02  4.0000000000000E-02  4.0000000000000E-02  4.0000000000000E-02  4.0000000000000E-02 
-7.0000000000000E-02 -7.0000000000000E-02 -7.0000000000000E-02 -7.0000000000000E-02 -7.0000000000000E-02 -7.0000000000000E-02 -7.0000000000000E-02 -7.0000000000000E-02 -7.0000000000000E-02 -7.0000000000000E-02 
 3.8000000000000E+00  3.8000000000000E+00  3.8000000000000E+00  3.8000000000000E+00  3.8000000000000E+00  3.8000000000000E+00  3.8000000000000E+00  3.8000000000000E+00  3.8000000000000E+00  3.8000000000000E+00 
 3.8700000000000E+00  3.8700000000000E+00  3.8700000000000E+00  3.8700000000000E+00  3.8700000000000E+00  3.8700000000000E+00  3.8700000000000E+00  3.8700000000000E+00  3.8700000000000E+00  3.8700000000000E+00 
 3.9714142713289E+00  3.9714142713289E+00  3.9714142713289E+00  3.9714142713289E+00  3.9714142713289E+00  3.9714142713289E+00  3.9714142713289E+00  3.9714142713289E+00  3.9714142713289E+00  3.9714142713289E+00 
-1.0141427132889E-01 -1.0141427132889E-01 -1.0141427132889E-01 -1.0141427132889E-01 -1.0141427132889E-01 -1.0141427132889E-01 -1.0141427132889E-01 -1.0141427132889E-01 -1.0141427132889E-01 -1.0141427132889E-01 
-2.3826357195711E-01 -4.7652714391422E-01 -4.7652714391423E-01 -4.7652714391422E-01 -4.7652714391423E-01 -4.7652714391423E-01 -4.7652714391422E-01 -4.7652714391423E-01 -4.7652714391422E-01 -2.3826357195711E-01 
-0.0000000000000E+00 -0.0000000000000E+00 -0.0000000000000E+00 -0.0000000000000E+00 -0.0000000000000E+00 -0.0000000000000E+00 -0.0000000000000E+00 -0.0000000000000E+00 -0.0000000000000E+00 -0.0000000000000E+00 
 2.3826357195711E-01  0.0000000000000E+00  0.0000000000000E+00  0.0000000000000E+00  0.0000000000000E+00  0.0000000000000E+00  0.0000000000000E+00  0.0000000000000E+00  0.0000000000000E+00  0.0000000000000E+00 
 0.0000000000000E+00 -0.0000000000000E+00 -0.0000000000000E+00 -0.0000000000000E+00 -0.0000000000000E+00 -0.0000000000000E+00 -0.0000000000000E+00 -0.0000000000000E+00 -0.0000000000000E+00  2.3826357195711E-01 
-0.0000000000000E+00 -0.0000000000000E+00 -0.0000000000000E+00 -0.0000000000000E+00 -0.0000000000000E+00 -0.0000000000000E+00 -0.0000000000000E+00 -0.0000000000000E+00 -0.0000000000000E+00 -0.0000000000000E+00 
 7.2440786946225E+03  1.4488157389245E+04  1.4488157389245E+04  1.4488157389245E+04  1.4488157389245E+04  1.4488157389245E+04  1.4488157389245E+04  1.4488157389245E+04  1.4488157389245E+04  7.2440786946225E+03 
 4.9259735123433E+04  9.8519470246865E+04  9.8519470246866E+04  9.8519470246865E+04  9.8519470246866E+04  9.8519470246866E+04  9.8519470246865E+04  9.8519470246866E+04  9.8519470246865E+04  4.9259735123433E+04 
 5.6503813818055E+04  1.1300762763611E+05  1.1300762763611E+05  1.1300762763611E+05  1.1300762763611E+05  1.1300762763611E+05  1.1300762763611E+05  1.1300762763611E+05  1.1300762763611E+05  5.6503813818055E+04 
 3.5000000000000E-01  3.5000000000000E-01  3.5000000000000E-01  3.5000000000000E-01  3.5000000000000E-01  3.5000000000000E-01  3.5000000000000E-01  3.5000000000000E-01  3.5000000000000E-01  3.5000000000000E-01 
 6.6040000000000E+00  1.3208000000000E+01  1.3208000000000E+01  1.3208000000000E+01  1.3208000000000E+01  1.3208000000000E+01  1.3208000000000E+01  1.3208000000000E+01  1.3208000000000E+01  6.6040000000000E+00 
-3.6078675341780E-02 -3.6078675341780E-02 -3.6078675341780E-02 -3.6078675341780E-02 -3.6078675341780E-02 -3.6078675341780E-02 -3.6078675341780E-02 -3.6078675341780E-02 -3.6078675341780E-02 -3.6078675341780E-02 
 3.3866666666667E-05  6.7733333333333E-05  6.7733333333334E-05  6.7733333333333E-05  6.7733333333334E-05  6.7733333333334E-05  6.7733333333333E-05  6.7733333333334E-05  6.7733333333333E-05  3.3866666666667E-05 
 2.6603001364256E+01  2.6603001364256E+01  2.6603001364256E+01  2.6603001364256E+01  2.6603001364256E+01  2.6603001364256E+01  2.6603001364256E+01  2.6603001364256E+01  2.6603001364256E+01  2.6603001364256E+01 
 1.7735334242838E+01  1.7735334242838E+01  1.7735334242838E+01  1.7735334242838E+01  1.7735334242838E+01  1.7735334242838E+01  1.7735334242838E+01  1.7735334242838E+01  1.7735334242838E+01  1.7735334242838E+01 
 0.0000000000000E+00  0.0000000000000E+00  0.0000000000000E+00  0.0000000000000E+00  0.0000000000000E+00  0.0000000000000E+00  0.0000000000000E+00  0.0000000000000E+00  0.0000000000000E+00  0.0000000000000E+00 
 0.0000000000000E+00  0.0000000000000E+00  0.0000000000000E+00  0.0000000000000E+00  0.0000000000000E+00  0.0000000000000E+00  0.0000000000000E+00  0.0000000000000E+00  0.0000000000000E+00  0.0000000000000E+00 
 0.0000000000000E+00  0.0000000000000E+00  0.0000000000000E+00  0.0000000000000E+00  0.0000000000000E+00  0.0000000000000E+00  0.0000000000000E+00  0.0000000000000E+00  0.0000000000000E+00  0.0000000000000E+00 
 0.0000000000000E+00  0.0000000000000E+00  0.0000000000000E+00  0.0000000000000E+00  0.0000000000000E+00  0.0000000000000E+00  0.0000000000000E+00  0.0000000000000E+00  0.0000000000000E+00  0.0000000000000E+00 
 0.0000000000000E+00  0.0000000000000E+00  0.0000000000000E+00  0.0000000000000E+00  0.0000000000000E+00  0.0000000000000E+00  0.0000000000000E+00  0.0000000000000E+00  0.0000000000000E+00  0.0000000000000E+00 
 0.0000000000000E+00  0.0000000000000E+00  0.0000000000000E+00  0.0000000000000E+00  0.0000000000000E+00  0.0000000000000E+00  0.0000000000000E+00  0.0000000000000E+00  0.0000000000000E+00  0.0000000000000E+00 
 0.0000000000000E+00  0.0000000000000E+00  0.0000000000000E+00  0.0000000000000E+00  0.0000000000000E+00  0.0000000000000E+00  0.0000000000000E+00  0.0000000000000E+00  0.0000000000000E+00  0.0000000000000E+00 
ZONE T = "CATH, 1.0000E-08", I = 10, SOLUTIONTIME = 1.000000E-08
ZONETYPE = ORDERED
DATAPACKING = BLOCK
STRANDID = 3
 1.2700000000000E-03  1.3377333333333E-03  1.4054666666667E-03  1.4732000000000E-03  1.5409333333333E-03  1.6086666666667E-03  1.6764000000000E-03  1.7441333333333E-03  1.8118666666667E-03  1.8796000000000E-03 
 1.9705052572827E-08  1.7389149038255E-08  1.5072962185314E-08  1.2756296440601E-08  1.0438956068740E-08  8.1207451070023E-09  5.8011040911140E-09  3.4801996122569E-09  1.1585610419769E-09 -3.0872658238981E-12 
 9.2000000000032E-01  9.2000000000090E-01  9.2000000000090E-01  9.2000000000090E-01  9.2000000000090E-01  9.2000000000090E-01  9.2000000000090E-01  9.2000000000090E-01  9.2000000000090E-01  9.2000000000090E-01 
 3.9999999999841E-02  3.9999999999551E-02  3.9999999999551E-02  3.9999999999551E-02  3.9999999999550E-02  3.9999999999550E-02  3.9999999999550E-02  3.9999999999550E-02  3.9999999999550E-02  3.9999999999549E-02 
 3.9999999999841E-02  3.9999999999551E-02  3.9999999999551E-02  3.9999999999551E-02  3.9999999999550E-02  3.9999999999550E-02  3.9999999999550E-02  3.9999999999550E-02  3.9999999999550E-02  3.9999999999549E-02 
 2.9165653271163E-02  2.9165446261000E-02  2.9165263576841E-02  2.9165105221630E-02  2.9164971200398E-02  2.9164861520267E-02  2.9164776190338E-02  2.9164715221857E-02  2.9164678628067E-02  2.9164666424336E-02 
 3.8001746420670E+00  3.8001724871785E+00  3.8001660223495E+00  3.8001552470526E+00  3.8001401603965E+00  3.8001207611255E+00  3.8000970476191E+00  3.8000690178917E+00  3.8000366695915E+00  3.8000000000000E+00 
 3.7710089887958E+00  3.7710070409175E+00  3.7710007587726E+00  3.7709901418310E+00  3.7709751891961E+00  3.7709558996052E+00  3.7709322714288E+00  3.7709043026698E+00  3.7708719909634E+00  3.7708353335757E+00 
 3.9714142713287E+00  3.9714142713285E+00  3.9714142713285E+00  3.9714142713285E+00  3.9714142713285E+00  3.9714142713285E+00  3.9714142713285E+00  3.9714142713285E+00  3.9714142713285E+00  3.9714142713285E+00 
-2.0040528253288E-01 -2.0040723041103E-01 -2.0041351255589E-01 -2.0042412949755E-01 -2.0043908213242E-01 -2.0045837172330E-01 -2.0048199989973E-01 -2.0050996865869E-01 -2.0054228036512E-01 -2.0057893775286E-01 
-1.6672260832722E+00 -3.3345786730155E+00 -3.3349867044380E+00 -3.3356763984403E+00 -3.3366479877163E+00 -3.3379018001925E+00 -3.3394382592560E+00 -3.3412578840695E+00 -3.3433612899343E+00 -1.6728745943709E+00 
 1.4705141523093E-07  1.2977111688605E-07  1.1248885832657E-07  9.5203026676741E-08  7.7912135841234E-08  6.0614780773469E-08  4.3309435763233E-08  2.5994684020539E-08  8.6690152016471E-09  8.6690152016471E-09 
 3.0043811051403E+01  2.6709302356825E+01  2.3374535212503E+01  2.0039221394691E+01  1.6703074688542E+01  1.3365816141927E+01  1.0027162979009E+01  6.6868312920576E+00  3.3445386555041E+00  0.0000000000000E+00 
 0.0000000000000E+00  3.3344992520474E+00  6.6692657529149E+00  1.0004581075257E+01  1.3340726977265E+01  1.6677985497154E+01  2.0016639048339E+01  2.3356970514778E+01  2.6699263348377E+01  3.0043810171286E+01 
 1.6672260832722E-08  3.3345786730155E-08  3.3349867044380E-08  3.3356763984403E-08  3.3366479877163E-08  3.3379018001925E-08  3.3394382592560E-08  3.3412578840695E-08  3.3433612899343E-08  1.6728745943709E-08 
 7.2440786946392E+03  1.4488157389278E+04  1.4488157389278E+04  1.4488157389278E+04  1.4488157389278E+04  1.4488157389278E+04  1.4488157389278E+04  1.4488157389278E+04  1.4488157389278E+04  7.2440786946392E+03 
 4.9259735123416E+04  9.8519470246832E+04  9.8519470246832E+04  9.8519470246832E+04  9.8519470246832E+04  9.8519470246832E+04  9.8519470246832E+04  9.8519470246832E+04  9.8519470246832E+04  4.9259735123416E+04 
 5.6503813818055E+04  1.1300762763611E+05  1.1300762763611E+05  1.1300762763611E+05  1.1300762763611E+05  1.1300762763611E+05  1.1300762763611E+05  1.1300762763611E+05  1.1300762763611E+05  5.6503813818055E+04 
 3.5000000000000E-01  3.5000000000000E-01  3.5000000000000E-01  3.5000000000000E-01  3.5000000000000E-01  3.5000000000000E-01  3.5000000000000E-01  3.5000000000000E-01  3.5000000000000E-01  3.5000000000000E-01 
 6.6040000000000E+00  1.3208000000000E+01  1.3208000000000E+01  1.3208000000000E+01  1.3208000000000E+01  1.3208000000000E+01  1.3208000000000E+01  1.3208000000000E+01  1.3208000000000E+01  6.6040000000000E+00 
-2.5245700836950E-01 -2.5246658638821E-01 -2.5249747913674E-01 -2.5254969703515E-01 -2.5262325770111E-01 -2.5271818596249E-01 -2.5283451387462E-01 -2.5297228074421E-01 -2.5313153315675E-01 -2.5331232501073E-01 
 3.3866666666667E-05  6.7733333333333E-05  6.7733333333334E-05  6.7733333333333E-05  6.7733333333334E-05  6.7733333333334E-05  6.7733333333333E-05  6.7733333333334E-05  6.7733333333333E-05  3.3866666666667E-05 
 2.6603001364262E+01  2.6603001364262E+01  2.6603001364262E+01  2.6603001364262E+01  2.6603001364262E+01  2.6603001364262E+01  2.6603001364262E+01  2.6603001364262E+01  2.6603001364262E+01  2.6603001364262E+01 
 1.7735334242833E+01  1.7735334242833E+01  1.7735334242833E+01  1.7735334242833E+01  1.7735334242833E+01  1.7735334242833E+01  1.7735334242833E+01  1.7735334242833E+01  1.7735334242833E+01  1.7735334242833E+01 
 1.3976737769078E-09  3.4235245910131E-09  9.6096575556795E-09  2.0066058144542E-08  3.4796258306420E-08  5.3805235844388E-08  7.7099417574186E-08  1.0468668395250E-07  1.3657637494375E-07  1.5359808547210E-07 
 1.3976737769078E-01  3.4235245910131E-01  9.6096575556795E-01  2.0066058144542E+00  3.4796258306420E+00  5.3805235844388E+00  7.7099417574186E+00  1.0468668395250E+01  1.3657637494375E+01  1.5359808547210E+01 
 8.6726005989840E-02  7.7133527136031E-02  5.9145213504676E-02  4.3550057963584E-02  3.0348209218271E-02  1.9540656979178E-02  1.1129192505208E-02  5.1164120323630E-03  1.5057386565764E-03  3.0140553699196E-04 
 5.3041371700940E-02  2.6521893196528E-01  9.0182054206327E-01  1.9630557564906E+00  3.4492776214237E+00  5.3609829274596E+00  7.6988125649134E+00  1.0463551983218E+01  1.3656131755719E+01  1.5359507141673E+01 
 0.0000000000000E+00  0.0000000000000E+00  0.0000000000000E+00  0.0000000000000E+00  0.0000000000000E+00  0.0000000000000E+00  0.0000000000000E+00  0.0000000000000E+00  0.0000000000000E+00  0.0000000000000E+00 
 0.0000000000000E+00  0.0000000000000E+00  0.0000000000000E+00  0.0000000000000E+00  0.0000000000000E+00  0.0000000000000E+00  0.0000000000000E+00  0.0000000000000E+00  0.0000000000000E+00  0.0000000000000E+00 
 0.0000000000000E+00  0.0000000000000E+00  0.0000000000000E+00  0.0000000000000E+00  0.0000000000000E+00  0.0000000000000E+00  0.0000000000000E+00  0.0000000000000E+00  0.0000000000000E+00  0.0000000000000E+00 
ZONE T = "CATH, 2.0000E-08", I = 10, SOLUTIONTIME = 2.000000E-08
ZONETYPE = ORDERED
DATAPACKING = BLOCK
STRANDID = 3
 1.2700000000000E-03  1.3377333333333E-03  1.4054666666667E-03  1.4732000000000E-03  1.5409333333333E-03  1.6086666666667E-03  1.6764000000000E-03  1.7441333333333E-03  1.8118666666667E-03  1.8796000000000E-03 
 1.9701699892611E-08  1.7386511482739E-08  1.5070313316542E-08  1.2753636220319E-08  1.0436647651050E-08  8.1187884225448E-09  5.7998622623260E-09  3.4789461219432E-09  1.1569325643032E-09 -4.9033043250259E-12 
 9.2000000000063E-01  9.2000000000180E-01  9.2000000000180E-01  9.2000000000180E-01  9.2000000000180E-01  9.2000000000180E-01  9.2000000000180E-01  9.2000000000180E-01  9.2000000000180E-01  9.2000000000180E-01 
 3.9999999999683E-02  3.9999999999101E-02  3.9999999999101E-02  3.9999999999101E-02  3.9999999999101E-02  3.9999999999100E-02  3.9999999999100E-02  3.9999999999100E-02  3.9999999999099E-02  3.9999999999098E-02 
 3.9999999999683E-02  3.9999999999101E-02  3.9999999999101E-02  3.9999999999101E-02  3.9999999999101E-02  3.9999999999100E-02  3.9999999999100E-02  3.9999999999100E-02  3.9999999999099E-02  3.9999999999098E-02 
 2.9165655458450E-02  2.9165448447270E-02  2.9165265762191E-02  2.9165107406190E-02  2.9164973384300E-02  2.9164863703607E-02  2.9164778373258E-02  2.9164717404462E-02  2.9164680810494E-02  2.9164668606698E-02 
 3.8001746429253E+00  3.8001724880263E+00  3.8001660231657E+00  3.8001552478163E+00  3.8001401610865E+00  3.8001207617205E+00  3.8000970480979E+00  3.8000690182326E+00  3.8000366697729E+00  3.8000000000000E+00 
 3.7710089874668E+00  3.7710070395790E+00  3.7710007574035E+00  3.7709901404101E+00  3.7709751877022E+00  3.7709558980169E+00  3.7709322697246E+00  3.7709043008282E+00  3.7708719889624E+00  3.7708353313933E+00 
 3.9714142713285E+00  3.9714142713282E+00  3.9714142713282E+00  3.9714142713282E+00  3.9714142713282E+00  3.9714142713282E+00  3.9714142713282E+00  3.9714142713282E+00  3.9714142713282E+00  3.9714142713282E+00 
-2.0040528386171E-01 -2.0040723174917E-01 -2.0041351392462E-01 -2.0042413091807E-01 -2.0043908362598E-01 -2.0045837331123E-01 -2.0048200160352E-01 -2.0050997049998E-01 -2.0054228236575E-01 -2.0057893993485E-01 
-1.6672261264188E+00 -3.3345787599036E+00 -3.3349867933242E+00 -3.3356764907091E+00 -3.3366480847589E+00 -3.3379019034066E+00 -3.3394383700539E+00 -3.3412580038751E+00 -3.3433614201905E+00 -1.6728746654548E+00 
 1.4705227082538E-07  1.2977176979644E-07  1.1248941938230E-07  9.5203494878553E-08  7.7912535439401E-08  6.0615078543858E-08  4.3309659473906E-08  2.5994810818193E-08  8.6690619715772E-09  8.6690619715772E-09 
 3.0043950617838E+01  2.6709435111546E+01  2.3374652335186E+01  2.0039320693176E+01  1.6703158405453E+01  1.3365883411222E+01  1.0027213274454E+01  6.6868650875720E+00  3.3445553756300E+00  0.0000000000000E+00 
 0.0000000000000E+00  3.3345155063300E+00  6.6692982829543E+00  1.0004629925032E+01  1.3340792212745E+01  1.6678067206813E+01  2.0016737343672E+01  2.3357085530641E+01  2.6699395242478E+01  3.0043950617938E+01 
 3.3344522096910E-08  6.6691574329192E-08  6.6699734977622E-08  6.6713528891495E-08  6.6732960724752E-08  6.6758037035992E-08  6.6788766293099E-08  6.6825158879446E-08  6.6867227101249E-08  3.3457492598257E-08 
 7.2440786946558E+03  1.4488157389312E+04  1.4488157389312E+04  1.4488157389312E+04  1.4488157389312E+04  1.4488157389312E+04  1.4488157389312E+04  1.4488157389312E+04  1.4488157389312E+04  7.2440786946559E+03 
 4.9259735123400E+04  9.8519470246798E+04  9.8519470246799E+04  9.8519470246798E+04  9.8519470246799E+04  9.8519470246799E+04  9.8519470246798E+04  9.8519470246799E+04  9.8519470246798E+04  4.9259735123399E+04 
 5.6503813818055E+04  1.1300762763611E+05  1.1300762763611E+05  1.1300762763611E+05  1.1300762763611E+05  1.1300762763611E+05  1.1300762763611E+05  1.1300762763611E+05  1.1300762763611E+05  5.6503813818055E+04 
 3.5000000000000E-01  3.5000000000000E-01  3.5000000000000E-01  3.5000000000000E-01  3.5000000000000E-01  3.5000000000000E-01  3.5000000000000E-01  3.5000000000000E-01  3.5000000000000E-01  3.5000000000000E-01 
 6.6040000000000E+00  1.3208000000000E+01  1.3208000000000E+01  1.3208000000000E+01  1.3208000000000E+01  1.3208000000000E+01  1.3208000000000E+01  1.3208000000000E+01  1.3208000000000E+01  6.6040000000000E+00 
-2.5245701490291E-01 -2.5246659296666E-01 -2.5249748586646E-01 -2.5254970402098E-01 -2.5262326504837E-01 -2.5271819377700E-01 -2.5283452226332E-01 -2.5297228981489E-01 -2.5313154301867E-01 -2.5331233577451E-01 
 3.3866666666667E-05  6.7733333333333E-05  6.7733333333334E-05  6.7733333333333E-05  6.7733333333334E-05  6.7733333333334E-05  6.7733333333333E-05  6.7733333333334E-05  6.7733333333333E-05  3.3866666666667E-05 
 2.6603001364267E+01  2.6603001364267E+01  2.6603001364267E+01  2.6603001364267E+01  2.6603001364267E+01  2.6603001364267E+01  2.6603001364267E+01  2.6603001364267E+01  2.6603001364267E+01  2.6603001364267E+01 
 1.7735334242827E+01  1.7735334242827E+01  1.7735334242827E+01  1.7735334242827E+01  1.7735334242827E+01  1.7735334242827E+01  1.7735334242827E+01  1.7735334242827E+01  1.7735334242827E+01  1.7735334242827E+01 
 2.7953612519338E-09  6.8470827022771E-09  1.9219409023319E-08  4.0132312328911E-08  6.9592857019991E-08  1.0761099901266E-07  1.5419959246979E-07  2.0937439904212E-07  2.7315409940481E-07  3.0719769091582E-07 
 1.3976874750260E-01  3.4235581112640E-01  9.6097514676391E-01  2.0066254184369E+00  3.4796598713571E+00  5.3805763168269E+00  7.7100174895604E+00  1.0468771508962E+01  1.3657772446106E+01  1.5359960544373E+01 
 8.6726858829366E-02  7.7134293355374E-02  5.9145806406705E-02  4.3550489814376E-02  3.0348512808209E-02  1.9540854186684E-02  1.1129303710191E-02  5.1164640769414E-03  1.5057534832132E-03  3.0140877925135E-04 
 5.3041888673234E-02  2.6522151777102E-01  9.0182934035721E-01  1.9630749286225E+00  3.4493113585489E+00  5.3610354626402E+00  7.6988881858502E+00  1.0463655044885E+01  1.3656266692623E+01  1.5359659135594E+01 
 0.0000000000000E+00  0.0000000000000E+00  0.0000000000000E+00  0.0000000000000E+00  0.0000000000000E+00  0.0000000000000E+00  0.0000000000000E+00  0.0000000000000E+00  0.0000000000000E+00  0.0000000000000E+00 
 0.0000000000000E+00  0.0000000000000E+00  0.0000000000000E+00  0.0000000000000E+00  0.0000000000000E+00  0.0000000000000E+00  0.0000000000000E+00  0.0000000000000E+00  0.0000000000000E+00  0.0000000000000E+00 
 0.0000000000000E+00  0.0000000000000E+00  0.0000000000000E+00  0.0000000000000E+00  0.0000000000000E+00  0.0000000000000E+00  0.0000000000000E+00  0.0000000000000E+00  0.0000000000000E+00  0.0000000000000E+00 
ZONE T = "CATH, 3.0000E-08", I = 10, SOLUTIONTIME = 3.000000E-08
ZONETYPE = ORDERED
DATAPACKING = BLOCK
STRANDID = 3
 1.2700000000000E-03  1.3377333333333E-03  1.4054666666667E-03  1.4732000000000E-03  1.5409333333333E-03  1.6086666666667E-03  1.6764000000000E-03  1.7441333333333E-03  1.8118666666667E-03  1.8796000000000E-03 
 1.9707511215970E-08  1.7391596390677E-08  1.5075398224513E-08  1.2759447543778E-08  1.0442095766816E-08  8.1242365383438E-09  5.8053103781585E-09  3.4858470687205E-09  1.1645599265696E-09  3.0872656860844E-12 
 9.2000000000095E-01  9.2000000000270E-01  9.2000000000270E-01  9.2000000000270E-01  9.2000000000270E-01  9.2000000000270E-01  9.2000000000270E-01  9.2000000000270E-01  9.2000000000270E-01  9.2000000000270E-01 
 3.9999999999524E-02  3.9999999998652E-02  3.9999999998652E-02  3.9999999998652E-02  3.9999999998651E-02  3.9999999998651E-02  3.9999999998650E-02  3.9999999998649E-02  3.9999999998649E-02  3.9999999998648E-02 
 3.9999999999524E-02  3.9999999998652E-02  3.9999999998652E-02  3.9999999998652E-02  3.9999999998651E-02  3.9999999998651E-02  3.9999999998650E-02  3.9999999998649E-02  3.9999999998649E-02  3.9999999998648E-02 
 2.9165655458379E-02  2.9165448447199E-02  2.9165265762120E-02  2.9165107406119E-02  2.9164973384229E-02  2.9164863703535E-02  2.9164778373187E-02  2.9164717404391E-02  2.9164680810423E-02  2.9164668606627E-02 
 3.8001746429253E+00  3.8001724880263E+00  3.8001660231657E+00  3.8001552478163E+00  3.8001401610865E+00  3.8001207617205E+00  3.8000970480979E+00  3.8000690182326E+00  3.8000366697729E+00  3.8000000000000E+00 
 3.7710089874669E+00  3.7710070395791E+00  3.7710007574036E+00  3.7709901404102E+00  3.7709751877022E+00  3.7709558980170E+00  3.7709322697247E+00  3.7709043008282E+00  3.7708719889625E+00  3.7708353313934E+00 
 3.9714142713283E+00  3.9714142713278E+00  3.9714142713278E+00  3.9714142713278E+00  3.9714142713278E+00  3.9714142713278E+00  3.9714142713278E+00  3.9714142713278E+00  3.9714142713278E+00  3.9714142713278E+00 
-2.0040528386146E-01 -2.0040723174873E-01 -2.0041351392419E-01 -2.0042413091763E-01 -2.0043908362554E-01 -2.0045837331079E-01 -2.0048200160309E-01 -2.0050997049954E-01 -2.0054228236531E-01 -2.0057893993441E-01 
-1.6672261264069E+00 -3.3345787598556E+00 -3.3349867932761E+00 -3.3356764906610E+00 -3.3366480847108E+00 -3.3379019033584E+00 -3.3394383700056E+00 -3.3412580038267E+00 -3.3433614201421E+00 -1.6728746654306E+00 
 1.4705240339519E-07  1.2977176982614E-07  1.1248941942049E-07  9.5203494936878E-08  7.7912535514510E-08  6.0615078638664E-08  4.3309659586382E-08  2.5994810949481E-08  8.6690621155972E-09  8.6690621155972E-09 
 3.0043950617610E+01  2.6709435111298E+01  2.3374652334686E+01  2.0039320692713E+01  1.6703158405265E+01  1.3365883411072E+01  1.0027213274341E+01  6.6868650874967E+00  3.3445553755924E+00  0.0000000000000E+00 
 0.0000000000000E+00  3.3345155063300E+00  6.6692982827825E+00  1.0004629924860E+01  1.3340792212573E+01  1.6678067206470E+01  2.0016737343328E+01  2.3357085530298E+01  2.6699395242135E+01  3.0043950617570E+01 
 5.0016783360979E-08  1.0003736192775E-07  1.0004960291038E-07  1.0007029379810E-07  1.0009944157186E-07  1.0013705606958E-07  1.0018314999315E-07  1.0023773891771E-07  1.0030084130267E-07  5.0186239252563E-08 
 7.2440786946725E+03  1.4488157389345E+04  1.4488157389345E+04  1.4488157389345E+04  1.4488157389345E+04  1.4488157389345E+04  1.4488157389345E+04  1.4488157389345E+04  1.4488157389345E+04  7.2440786946727E+03 
 4.9259735123383E+04  9.8519470246765E+04  9.8519470246766E+04  9.8519470246765E+04  9.8519470246766E+04  9.8519470246766E+04  9.8519470246765E+04  9.8519470246766E+04  9.8519470246765E+04  4.9259735123383E+04 
 5.6503813818055E+04  1.1300762763611E+05  1.1300762763611E+05  1.1300762763611E+05  1.1300762763611E+05  1.1300762763611E+05  1.1300762763611E+05  1.1300762763611E+05  1.1300762763611E+05  5.6503813818055E+04 
 3.5000000000000E-01  3.5000000000000E-01  3.5000000000000E-01  3.5000000000000E-01  3.5000000000000E-01  3.5000000000000E-01  3.5000000000000E-01  3.5000000000000E-01  3.5000000000000E-01  3.5000000000000E-01 
 6.6040000000000E+00  1.3208000000000E+01  1.3208000000000E+01  1.3208000000000E+01  1.3208000000000E+01  1.3208000000000E+01  1.3208000000000E+01  1.3208000000000E+01  1.3208000000000E+01  6.6040000000000E+00 
-2.5245701490111E-01 -2.5246659296302E-01 -2.5249748586282E-01 -2.5254970401734E-01 -2.5262326504473E-01 -2.5271819377335E-01 -2.5283452225966E-01 -2.5297228981123E-01 -2.5313154301500E-01 -2.5331233577083E-01 
 3.3866666666667E-05  6.7733333333333E-05  6.7733333333334E-05  6.7733333333333E-05  6.7733333333334E-05  6.7733333333334E-05  6.7733333333333E-05  6.7733333333334E-05  6.7733333333333E-05  3.3866666666667E-05 
 2.6603001364272E+01  2.6603001364272E+01  2.6603001364272E+01  2.6603001364272E+01  2.6603001364272E+01  2.6603001364272E+01  2.6603001364272E+01  2.6603001364272E+01  2.6603001364272E+01  2.6603001364272E+01 
 1.7735334242822E+01  1.7735334242822E+01  1.7735334242822E+01  1.7735334242822E+01  1.7735334242822E+01  1.7735334242822E+01  1.7735334242822E+01  1.7735334242822E+01  1.7735334242822E+01  1.7735334242822E+01 
 4.1930487269532E-09  1.0270640813534E-08  2.8829160490393E-08  6.0198566512717E-08  1.0438945573257E-07  1.6141676217874E-07  2.3129976736277E-07  3.1406211412867E-07  4.0973182386237E-07  4.6079729635583E-07 
 1.3976874750194E-01  3.4235581112569E-01  9.6097514670748E-01  2.0066254183806E+00  3.4796598712584E+00  5.3805763166080E+00  7.7100174892978E+00  1.0468771508655E+01  1.3657772445756E+01  1.5359960544001E+01 
 8.6726858828707E-02  7.7134293354665E-02  5.9145806404929E-02  4.3550489812775E-02  3.0348512807868E-02  1.9540854186465E-02  1.1129303710066E-02  5.1164640768838E-03  1.5057534831962E-03  3.0140877924795E-04 
 5.3041888673234E-02  2.6522151777102E-01  9.0182934030255E-01  1.9630749285678E+00  3.4493113584505E+00  5.3610354624215E+00  7.6988881855877E+00  1.0463655044579E+01  1.3656266692272E+01  1.5359659135222E+01 
 0.0000000000000E+00  0.0000000000000E+00  0.0000000000000E+00  0.0000000000000E+00  0.0000000000000E+00  0.0000000000000E+00  0.0000000000000E+00  0.0000000000000E+00  0.0000000000000E+00  0.0000000000000E+00 
 0.0000000000000E+00  0.0000000000000E+00  0.0000000000000E+00  0.0000000000000E+00  0.0000000000000E+00  0.0000000000000E+00  0.0000000000000E+00  0.0000000000000E+00  0.0000000000000E+00  0.0000000000000E+00 
 0.0000000000000E+00  0.0000000000000E+00  0.0000000000000E+00  0.0000000000000E+00  0.0000000000000E+00  0.0000000000000E+00  0.0000000000000E+00  0.0000000000000E+00  0.0000000000000E+00  0.0000000000000E+00 
ZONE T = "CATH, 4.0000E-08", I = 10, SOLUTIONTIME = 4.000000E-08
ZONETYPE = ORDERED
DATAPACKING = BLOCK
STRANDID = 3
 1.2700000000000E-03  1.3377333333333E-03  1.4054666666667E-03  1.4732000000000E-03  1.5409333333333E-03  1.6086666666667E-03  1.6764000000000E-03  1.7441333333333E-03  1.8118666666667E-03  1.8796000000000E-03 
 1.9703515930679E-08  1.7388327520875E-08  1.5072855770200E-08  1.2756178674043E-08  1.0439553312570E-08  8.1216940841315E-09  5.8027679239798E-09  3.4822149913921E-09  1.1609278492750E-09 -5.4481159164913E-13 
 9.2000000000127E-01  9.2000000000359E-01  9.2000000000359E-01  9.2000000000360E-01  9.2000000000360E-01  9.2000000000360E-01  9.2000000000360E-01  9.2000000000360E-01  9.2000000000360E-01  9.2000000000361E-01 
 3.9999999999365E-02  3.9999999998203E-02  3.9999999998203E-02  3.9999999998202E-02  3.9999999998202E-02  3.9999999998201E-02  3.9999999998200E-02  3.9999999998199E-02  3.9999999998198E-02  3.9999999998197E-02 
 3.9999999999365E-02  3.9999999998203E-02  3.9999999998203E-02  3.9999999998202E-02  3.9999999998202E-02  3.9999999998201E-02  3.9999999998200E-02  3.9999999998199E-02  3.9999999998198E-02  3.9999999998197E-02 
 2.9165655458305E-02  2.9165448447125E-02  2.9165265762046E-02  2.9165107406045E-02  2.9164973384155E-02  2.9164863703461E-02  2.9164778373113E-02  2.9164717404317E-02  2.9164680810349E-02  2.9164668606553E-02 
 3.8001746429253E+00  3.8001724880263E+00  3.8001660231657E+00  3.8001552478163E+00  3.8001401610865E+00  3.8001207617205E+00  3.8000970480979E+00  3.8000690182326E+00  3.8000366697729E+00  3.8000000000000E+00 
 3.7710089874670E+00  3.7710070395791E+00  3.7710007574037E+00  3.7709901404102E+00  3.7709751877023E+00  3.7709558980171E+00  3.7709322697248E+00  3.7709043008283E+00  3.7708719889626E+00  3.7708353313934E+00 
 3.9714142713282E+00  3.9714142713274E+00  3.9714142713274E+00  3.9714142713274E+00  3.9714142713274E+00  3.9714142713274E+00  3.9714142713274E+00  3.9714142713274E+00  3.9714142713274E+00  3.9714142713274E+00 
-2.0040528386121E-01 -2.0040723174829E-01 -2.0041351392375E-01 -2.0042413091720E-01 -2.0043908362510E-01 -2.0045837331035E-01 -2.0048200160265E-01 -2.0050997049910E-01 -2.0054228236486E-01 -2.0057893993397E-01 
-1.6672261263949E+00 -3.3345787598073E+00 -3.3349867932278E+00 -3.3356764906127E+00 -3.3366480846624E+00 -3.3379019033100E+00 -3.3394383699571E+00 -3.3412580037782E+00 -3.3433614200935E+00 -1.6728746654062E+00 