TITLE = "Solution on Domain BulkDomain1D_0"
VARIABLES = "x [m]"  
"Vel_axial" 
"MF_sp(ECDMC)" 
"MF_sp(Li+)" 
"MF_sp(PF6-)" 
"Volt(Electroly)" 
"Volt(AnodeVolt)" 
"Potential Drop Electrode-Electrolyte [V]" 
"Surf_0 Equilibrium Potential Drop Electrode-Electrolyte [V]" 
"Overpotential_0 [V]" 
"Current Source [A/m^2]" 
"Li+ flux [kmol/m^2/s]" 
"Electrolyte Current [A/m^2]" 
"Electrode Current [A/m^2]" 
"CV Capacity discharged [A-s/m^2]" 
"Depth of discharge in CV [A-s/m^2]" 
"CV Capacity remaining [A-s/m^2]" 
"Initial CV capacity [A-s/m^2]" 
"Porosity []" 
"Surface Area [m2/m2] (area per area)" 
"Specific current (per particle area) [A/m^2]" 
"Control volume thickness [m]" 
"MoleDens Li_C6-bulk [kmol/m^3]" 
"MoleDens V_C6-bulk [kmol/m^3]" 
"qHeat_accum [J/m3]" 
"qHeat_step [W/m3]" 
"Joule_Lyte [W/m3]" 
"Joule_Solid [W/m3]" 
"electrodHeat [W/m3]" 
"OverpotHeat [W/m3]" 
"deltaSHeat [W/m3]" 

ZONE T = "ANOD, 0.0000E+00", I = 10, SOLUTIONTIME = 0.000000E+00
ZONETYPE = ORDERED
DATAPACKING = BLOCK
STRANDID = 1
 0.0000000000000E+00  8.7488888888889E-05  1.7497777777778E-04  2.6246666666667E-04  3.4995555555556E-04  4.3744444444444E-04  5.2493333333333E-04  6.1242222222222E-04  6.9991111111111E-04  7.8740000000000E-04 
 0.0000000000000E+00  0.0000000000000E+00  0.0000000000000E+00  0.0000000000000E+00  0.0000000000000E+00  0.0000000000000E+00  0.0000000000000E+00  0.0000000000000E+00  0.0000000000000E+00  0.0000000000000E+00 
 9.2000000000000E-01  9.2000000000000E-01  9.2000000000000E-01  9.2000000000000E-01  9.2000000000000E-01  9.2000000000000E-01  9.2000000000000E-01  9.2000000000000E-01  9.2000000000000E-01  9.2000000000000E-01 
 4.0000000000000E-02  4.0000000000000E-02  4.0000000000000E-02  4.0000000000000E-02  4.0000000000000E-02  4.0000000000000E-02  4.0000000000000E-02  4.0000000000000E-02  4.0000000000000E-02  4.0000000000000E-02 
 4.0000000000000E-02  4.0000000000000E-02  4.0000000000000E-02  4.0000000000000E-02  4.0000000000000E-02  4.0000000000000E-02  4.0000000000000E-02  4.0000000000000E-02  4.0000000000000E-02  4.0000000000000E-02 
-7.0000000000000E-02 -7.0000000000000E-02 -7.0000000000000E-02 -7.0000000000000E-02 -7.0000000000000E-02 -7.0000000000000E-02 -7.0000000000000E-02 -7.0000000000000E-02 -7.0000000000000E-02 -7.0000000000000E-02 
 0.0000000000000E+00  0.0000000000000E+00  0.0000000000000E+00  0.0000000000000E+00  0.0000000000000E+00  0.0000000000000E+00  0.0000000000000E+00  0.0000000000000E+00  0.0000000000000E+00  0.0000000000000E+00 
 7.0000000000000E-02  7.0000000000000E-02  7.0000000000000E-02  7.0000000000000E-02  7.0000000000000E-02  7.0000000000000E-02  7.0000000000000E-02  7.0000000000000E-02  7.0000000000000E-02  7.0000000000000E-02 
-4.0906712753391E-02 -4.0906712753391E-02 -4.0906712753391E-02 -4.0906712753391E-02 -4.0906712753391E-02 -4.0906712753391E-02 -4.0906712753391E-02 -4.0906712753391E-02 -4.0906712753391E-02 -4.0906712753391E-02 
 1.1090671275339E-01  1.1090671275339E-01  1.1090671275339E-01  1.1090671275339E-01  1.1090671275339E-01  1.1090671275339E-01  1.1090671275339E-01  1.1090671275339E-01  1.1090671275339E-01  1.1090671275339E-01 
 3.0930240924008E+01  6.1860481848017E+01  6.1860481848017E+01  6.1860481848017E+01  6.1860481848017E+01  6.1860481848017E+01  6.1860481848017E+01  6.1860481848017E+01  6.1860481848017E+01  3.0930240924008E+01 
-0.0000000000000E+00 -0.0000000000000E+00 -0.0000000000000E+00 -0.0000000000000E+00 -0.0000000000000E+00 -0.0000000000000E+00 -0.0000000000000E+00 -0.0000000000000E+00 -0.0000000000000E+00 -0.0000000000000E+00 
 0.0000000000000E+00  0.0000000000000E+00  0.0000000000000E+00  0.0000000000000E+00  0.0000000000000E+00  0.0000000000000E+00  0.0000000000000E+00  0.0000000000000E+00  0.0000000000000E+00  3.0930240924008E+01 
 3.0930240924008E+01 -0.0000000000000E+00 -0.0000000000000E+00 -0.0000000000000E+00 -0.0000000000000E+00 -0.0000000000000E+00 -0.0000000000000E+00 -0.0000000000000E+00 -0.0000000000000E+00  0.0000000000000E+00 
 0.0000000000000E+00  0.0000000000000E+00  0.0000000000000E+00  0.0000000000000E+00  0.0000000000000E+00  0.0000000000000E+00  0.0000000000000E+00  0.0000000000000E+00  0.0000000000000E+00  0.0000000000000E+00 
 4.5724222271641E+04  9.1448444543281E+04  9.1448444543281E+04  9.1448444543281E+04  9.1448444543281E+04  9.1448444543281E+04  9.1448444543281E+04  9.1448444543281E+04  9.1448444543281E+04  4.5724222271641E+04 
 3.3835924481014E+05  6.7671848962028E+05  6.7671848962028E+05  6.7671848962028E+05  6.7671848962028E+05  6.7671848962028E+05  6.7671848962028E+05  6.7671848962028E+05  6.7671848962028E+05  3.3835924481014E+05 
 3.8408346708178E+05  7.6816693416356E+05  7.6816693416356E+05  7.6816693416356E+05  7.6816693416356E+05  7.6816693416356E+05  7.6816693416356E+05  7.6816693416356E+05  7.6816693416356E+05  3.8408346708178E+05 
 3.5000000000000E-01  3.5000000000000E-01  3.5000000000000E-01  3.5000000000000E-01  3.5000000000000E-01  3.5000000000000E-01  3.5000000000000E-01  3.5000000000000E-01  3.5000000000000E-01  3.5000000000000E-01 
 8.5301666666667E+00  1.7060333333333E+01  1.7060333333333E+01  1.7060333333333E+01  1.7060333333333E+01  1.7060333333333E+01  1.7060333333333E+01  1.7060333333333E+01  1.7060333333333E+01  8.5301666666667E+00 
 3.6259831879809E+00  3.6259831879809E+00  3.6259831879809E+00  3.6259831879809E+00  3.6259831879809E+00  3.6259831879809E+00  3.6259831879809E+00  3.6259831879809E+00  3.6259831879809E+00  3.6259831879809E+00 
 4.3744444444444E-05  8.7488888888889E-05  8.7488888888889E-05  8.7488888888889E-05  8.7488888888889E-05  8.7488888888889E-05  8.7488888888889E-05  8.7488888888889E-05  8.7488888888889E-05  4.3744444444444E-05 
 8.6666666666667E+01  8.6666666666667E+01  8.6666666666667E+01  8.6666666666667E+01  8.6666666666667E+01  8.6666666666667E+01  8.6666666666667E+01  8.6666666666667E+01  8.6666666666667E+01  8.6666666666667E+01 
 2.1666666666667E+01  2.1666666666667E+01  2.1666666666667E+01  2.1666666666667E+01  2.1666666666667E+01  2.1666666666667E+01  2.1666666666667E+01  2.1666666666667E+01  2.1666666666667E+01  2.1666666666667E+01 
 0.0000000000000E+00  0.0000000000000E+00  0.0000000000000E+00  0.0000000000000E+00  0.0000000000000E+00  0.0000000000000E+00  0.0000000000000E+00  0.0000000000000E+00  0.0000000000000E+00  0.0000000000000E+00 
 0.0000000000000E+00  0.0000000000000E+00  0.0000000000000E+00  0.0000000000000E+00  0.0000000000000E+00  0.0000000000000E+00  0.0000000000000E+00  0.0000000000000E+00  0.0000000000000E+00  0.0000000000000E+00 
 0.0000000000000E+00  0.0000000000000E+00  0.0000000000000E+00  0.0000000000000E+00  0.0000000000000E+00  0.0000000000000E+00  0.0000000000000E+00  0.0000000000000E+00  0.0000000000000E+00  0.0000000000000E+00 
 0.0000000000000E+00  0.0000000000000E+00  0.0000000000000E+00  0.0000000000000E+00  0.0000000000000E+00  0.0000000000000E+00  0.0000000000000E+00  0.0000000000000E+00  0.0000000000000E+00  0.0000000000000E+00 
 0.0000000000000E+00  0.0000000000000E+00  0.0000000000000E+00  0.0000000000000E+00  0.0000000000000E+00  0.0000000000000E+00  0.0000000000000E+00  0.0000000000000E+00  0.0000000000000E+00  0.0000000000000E+00 
 0.0000000000000E+00  0.0000000000000E+00  0.0000000000000E+00  0.0000000000000E+00  0.0000000000000E+00  0.0000000000000E+00  0.0000000000000E+00  0.0000000000000E+00  0.0000000000000E+00  0.0000000000000E+00 
 0.0000000000000E+00  0.0000000000000E+00  0.0000000000000E+00  0.0000000000000E+00  0.0000000000000E+00  0.0000000000000E+00  0.0000000000000E+00  0.0000000000000E+00  0.0000000000000E+00  0.0000000000000E+00 
ZONE T = "ANOD, 1.0000E-08", I = 10, SOLUTIONTIME = 1.000000E-08
ZONETYPE = ORDERED
DATAPACKING = BLOCK
STRANDID = 1
 0.0000000000000E+00  8.7488888888889E-05  1.7497777777778E-04  2.6246666666667E-04  3.4995555555556E-04  4.3744444444444E-04  5.2493333333333E-04  6.1242222222222E-04  6.9991111111111E-04  7.8740000000000E-04 
 1.1589860995453E-09  3.4769605063018E-09  5.7949435511702E-09  8.1129416646391E-09  1.0430961277253E-08  1.2749008819602E-08  1.5067090722752E-08  1.7385213417838E-08  1.9703383335096E-08  2.0862131912607E-08 
 9.1999999999930E-01  9.1999999999930E-01  9.1999999999930E-01  9.1999999999930E-01  9.1999999999930E-01  9.1999999999930E-01  9.1999999999930E-01  9.1999999999930E-01  9.1999999999930E-01  9.1999999999967E-01 
 4.0000000000348E-02  4.0000000000348E-02  4.0000000000348E-02  4.0000000000348E-02  4.0000000000348E-02  4.0000000000348E-02  4.0000000000348E-02  4.0000000000348E-02  4.0000000000348E-02  4.0000000000167E-02 
 4.0000000000348E-02  4.0000000000348E-02  4.0000000000348E-02  4.0000000000348E-02  4.0000000000348E-02  4.0000000000348E-02  4.0000000000348E-02  4.0000000000348E-02  4.0000000000348E-02  4.0000000000167E-02 
 2.9167411314282E-02  2.9167395587251E-02  2.9167348406130E-02  2.9167269770800E-02  2.9167159681057E-02  2.9167018136610E-02  2.9166845137079E-02  2.9166640681999E-02  2.9166404770815E-02  2.9166137402887E-02 
 0.0000000000000E+00 -4.7371043988271E-09 -8.9169229483663E-09 -1.2539453571848E-08 -1.5604692646490E-08 -1.8112635003483E-08 -2.0063273927977E-08 -2.1456601158971E-08 -2.2292606889298E-08 -2.2571279765833E-08 
-2.9167411314282E-02 -2.9167400324356E-02 -2.9167357323053E-02 -2.9167282310253E-02 -2.9167175285750E-02 -2.9167036249245E-02 -2.9166865200353E-02 -2.9166662138600E-02 -2.9166427063422E-02 -2.9166159974167E-02 
-4.0906712753087E-02 -4.0906712753087E-02 -4.0906712753087E-02 -4.0906712753087E-02 -4.0906712753090E-02 -4.0906712753090E-02 -4.0906712753090E-02 -4.0906712753090E-02 -4.0906712753090E-02 -4.0906712753207E-02 
 1.1739301438805E-02  1.1739312428731E-02  1.1739355430034E-02  1.1739430442833E-02  1.1739537467341E-02  1.1739676503845E-02  1.1739847552737E-02  1.1740050614490E-02  1.1740285689669E-02  1.1740552779040E-02 
 1.6690432927818E+00  3.3380897647434E+00  3.3381022042167E+00  3.3381239040233E+00  3.3381548642329E+00  3.3381950849433E+00  3.3382445662835E+00  3.3383033084115E+00  3.3383713115150E+00  1.6692242879056E+00 
 8.6491499991904E-09  2.5947466462549E-08  4.3245847395378E-08  6.0544340780665E-08  7.7842994604514E-08  9.5141856859618E-08  1.1244097554217E-07  1.2974039863755E-07  1.4704023809078E-07  1.4704023809078E-07 
 0.0000000000000E+00  3.3380661796736E+00  6.6761401687698E+00  1.0014231227585E+01  1.3352348616600E+01  1.6690501596294E+01  2.0028699427885E+01  2.3366951372406E+01  2.6705266690489E+01  3.0043665638562E+01 
 3.0043665640644E+01  2.6705588463231E+01  2.3367514474184E+01  2.0029423415360E+01  1.6691306026303E+01  1.3353153046484E+01  1.0014955214996E+01  6.6767032705459E+00  3.3383879524344E+00  0.0000000000000E+00 
 1.6690432927818E-08  3.3380897647434E-08  3.3381022042167E-08  3.3381239040233E-08  3.3381548642329E-08  3.3381950849433E-08  3.3382445662835E-08  3.3383033084115E-08  3.3383713115150E-08  1.6692242879056E-08 
 4.5724222271657E+04  9.1448444543315E+04  9.1448444543315E+04  9.1448444543315E+04  9.1448444543315E+04  9.1448444543315E+04  9.1448444543315E+04  9.1448444543315E+04  9.1448444543315E+04  4.5724222271657E+04 
 3.3835924481012E+05  6.7671848962025E+05  6.7671848962025E+05  6.7671848962025E+05  6.7671848962025E+05  6.7671848962025E+05  6.7671848962025E+05  6.7671848962025E+05  6.7671848962025E+05  3.3835924481012E+05 
 3.8408346708178E+05  7.6816693416356E+05  7.6816693416356E+05  7.6816693416356E+05  7.6816693416356E+05  7.6816693416356E+05  7.6816693416356E+05  7.6816693416356E+05  7.6816693416356E+05  3.8408346708178E+05 
 3.5000000000000E-01  3.5000000000000E-01  3.5000000000000E-01  3.5000000000000E-01  3.5000000000000E-01  3.5000000000000E-01  3.5000000000000E-01  3.5000000000000E-01  3.5000000000000E-01  3.5000000000000E-01 
 8.5301666666667E+00  1.7060333333333E+01  1.7060333333333E+01  1.7060333333333E+01  1.7060333333333E+01  1.7060333333333E+01  1.7060333333333E+01  1.7060333333333E+01  1.7060333333333E+01  8.5301666666667E+00 
 1.9566362041951E-01  1.9566380676873E-01  1.9566453591469E-01  1.9566580785975E-01  1.9566762260798E-01  1.9566998016510E-01  1.9567288053869E-01  1.9567632373800E-01  1.9568030977404E-01  1.9568483865954E-01 
 4.3744444444444E-05  8.7488888888889E-05  8.7488888888889E-05  8.7488888888889E-05  8.7488888888889E-05  8.7488888888889E-05  8.7488888888889E-05  8.7488888888889E-05  8.7488888888889E-05  4.3744444444444E-05 
 8.6666666666663E+01  8.6666666666663E+01  8.6666666666663E+01  8.6666666666663E+01  8.6666666666663E+01  8.6666666666663E+01  8.6666666666663E+01  8.6666666666663E+01  8.6666666666663E+01  8.6666666666663E+01 
 2.1666666666671E+01  2.1666666666671E+01  2.1666666666671E+01  2.1666666666671E+01  2.1666666666671E+01  2.1666666666671E+01  2.1666666666671E+01  2.1666666666671E+01  2.1666666666671E+01  2.1666666666671E+01 
 1.8363757077665E-11  2.8663715420866E-11  6.1477420633499E-11  1.1871895272128E-10  2.0038894687833E-10  3.0648830936723E-10  4.3701821757026E-10  5.9198011995869E-10  7.7137573610685E-10  8.6718220451941E-10 
 1.8363757077665E-03  2.8663715420866E-03  6.1477420633499E-03  1.1871895272128E-02  2.0038894687833E-02  3.0648830936723E-02  4.3701821757026E-02  5.9198011995869E-02  7.7137573610685E-02  8.6718220451941E-02 
 3.0002577755048E-04  1.5001306021262E-03  5.1004568282829E-03  1.1101041277451E-02  1.9501947406559E-02  3.0303265307472E-02  4.3505111712113E-02  5.9107629989357E-02  7.7110990146385E-02  8.6712903611418E-02 
 1.5363499302160E-03  1.3662409399604E-03  1.0472852350670E-03  7.7085399467651E-04  5.3694728127369E-04  3.4556562925051E-04  1.9671004491219E-04  9.0382006511089E-05  2.6583464299177E-05  5.3168405230296E-06 
 0.0000000000000E+00  0.0000000000000E+00  0.0000000000000E+00  0.0000000000000E+00  0.0000000000000E+00  0.0000000000000E+00  0.0000000000000E+00  0.0000000000000E+00  0.0000000000000E+00  0.0000000000000E+00 
 0.0000000000000E+00  0.0000000000000E+00  0.0000000000000E+00  0.0000000000000E+00  0.0000000000000E+00  0.0000000000000E+00  0.0000000000000E+00  0.0000000000000E+00  0.0000000000000E+00  0.0000000000000E+00 
 0.0000000000000E+00  0.0000000000000E+00  0.0000000000000E+00  0.0000000000000E+00  0.0000000000000E+00  0.0000000000000E+00  0.0000000000000E+00  0.0000000000000E+00  0.0000000000000E+00  0.0000000000000E+00 
ZONE T = "ANOD, 2.0000E-08", I = 10, SOLUTIONTIME = 2.000000E-08
ZONETYPE = ORDERED
DATAPACKING = BLOCK
STRANDID = 1
 0.0000000000000E+00  8.7488888888889E-05  1.7497777777778E-04  2.6246666666667E-04  3.4995555555556E-04  4.3744444444444E-04  5.2493333333333E-04  6.1242222222222E-04  6.9991111111111E-04  7.8740000000000E-04 
 1.1589934535755E-09  3.4769825683823E-09  5.7949803212890E-09  8.1129931427678E-09  1.0431027463339E-08  1.2748363298135E-08  1.5065733493290E-08  1.7383507687319E-08  1.9701329103413E-08  2.0860448241899E-08 
 9.1999999999861E-01  9.1999999999861E-01  9.1999999999861E-01  9.1999999999861E-01  9.1999999999861E-01  9.1999999999861E-01  9.1999999999861E-01  9.1999999999861E-01  9.1999999999861E-01  9.1999999999933E-01 
 4.0000000000696E-02  4.0000000000696E-02  4.0000000000696E-02  4.0000000000696E-02  4.0000000000696E-02  4.0000000000696E-02  4.0000000000696E-02  4.0000000000696E-02  4.0000000000696E-02  4.0000000000334E-02 
 4.0000000000696E-02  4.0000000000696E-02  4.0000000000696E-02  4.0000000000696E-02  4.0000000000696E-02  4.0000000000696E-02  4.0000000000696E-02  4.0000000000696E-02  4.0000000000696E-02  4.0000000000334E-02 
 2.9167414130466E-02  2.9167398403336E-02  2.9167351221915E-02  2.9167272586086E-02  2.9167162495645E-02  2.9167020950299E-02  2.9166847949671E-02  2.9166643493293E-02  2.9166407580612E-02  2.9166140210988E-02 
 0.0000000000000E+00 -4.7371344545808E-09 -8.9169795237740E-09 -1.2539533130814E-08 -1.5604791652923E-08 -1.8112749921306E-08 -2.0063401221127E-08 -2.1456737291491E-08 -2.2292748325418E-08 -2.2571422969813E-08 
-2.9167414130466E-02 -2.9167403140470E-02 -2.9167360138894E-02 -2.9167285125619E-02 -2.9167178100436E-02 -2.9167039063049E-02 -2.9166868013072E-02 -2.9166664950030E-02 -2.9166429873361E-02 -2.9166162782411E-02 
-4.0906712752791E-02 -4.0906712752791E-02 -4.0906712752791E-02 -4.0906712752791E-02 -4.0906712752790E-02 -4.0906712752790E-02 -4.0906712752790E-02 -4.0906712752790E-02 -4.0906712752790E-02 -4.0906712753023E-02 
 1.1739298622325E-02  1.1739309612321E-02  1.1739352613897E-02  1.1739427627172E-02  1.1739534652354E-02  1.1739673689741E-02  1.1739844739718E-02  1.1740047802760E-02  1.1740282879430E-02  1.1740549970612E-02 
 1.6690428854130E+00  3.3380889500260E+00  3.3381013895781E+00  3.3381230895220E+00  3.3381540499268E+00  3.3381942708919E+00  3.3382437525454E+00  3.3383024950454E+00  3.3383704985796E+00  1.6692238816956E+00 
 8.6492048801539E-09  2.5947631101276E-08  4.3246121798287E-08  6.0544724947409E-08  7.7843488525545E-08  9.5142460547621E-08  1.1244168898324E-07  1.2974122182841E-07  1.4704123498563E-07  1.4704123498563E-07 
 0.0000000000000E+00  3.3380873603223E+00  6.6761825300674E+00  1.0014294769900E+01  1.3352433339563E+01  1.6690607499906E+01  2.0028826511594E+01  2.3367099635291E+01  2.6705436132333E+01  3.0043845263476E+01 
 3.0043845263224E+01  2.6705757902798E+01  2.3367662732995E+01  2.0029550493445E+01  1.6691411923721E+01  1.3353237763312E+01  1.0015018751593E+01  6.6767456277978E+00  3.3384091309853E+00  0.0000000000000E+00 
 3.3380861781948E-08  6.6761787147694E-08  6.6762035937948E-08  6.6762469935452E-08  6.6763089141597E-08  6.6763893558351E-08  6.6764883188289E-08  6.6766058034569E-08  6.6767418100946E-08  3.3384481696012E-08 
 4.5724222271674E+04  9.1448444543348E+04  9.1448444543348E+04  9.1448444543348E+04  9.1448444543348E+04  9.1448444543348E+04  9.1448444543348E+04  9.1448444543348E+04  9.1448444543348E+04  4.5724222271674E+04 
 3.3835924481011E+05  6.7671848962021E+05  6.7671848962021E+05  6.7671848962021E+05  6.7671848962021E+05  6.7671848962021E+05  6.7671848962021E+05  6.7671848962021E+05  6.7671848962021E+05  3.3835924481011E+05 
 3.8408346708178E+05  7.6816693416356E+05  7.6816693416356E+05  7.6816693416356E+05  7.6816693416356E+05  7.6816693416356E+05  7.6816693416356E+05  7.6816693416356E+05  7.6816693416356E+05  3.8408346708178E+05 
 3.5000000000000E-01  3.5000000000000E-01  3.5000000000000E-01  3.5000000000000E-01  3.5000000000000E-01  3.5000000000000E-01  3.5000000000000E-01  3.5000000000000E-01  3.5000000000000E-01  3.5000000000000E-01 
 8.5301666666667E+00  1.7060333333333E+01  1.7060333333333E+01  1.7060333333333E+01  1.7060333333333E+01  1.7060333333333E+01  1.7060333333333E+01  1.7060333333333E+01  1.7060333333333E+01  8.5301666666667E+00 
 1.9566357266326E-01  1.9566375901366E-01  1.9566448816425E-01  1.9566576011735E-01  1.9566757487701E-01  1.9566993244906E-01  1.9567283284102E-01  1.9567627606213E-01  1.9568026212342E-01  1.9568479103912E-01 
 4.3744444444444E-05  8.7488888888889E-05  8.7488888888889E-05  8.7488888888889E-05  8.7488888888889E-05  8.7488888888889E-05  8.7488888888889E-05  8.7488888888889E-05  8.7488888888889E-05  4.3744444444444E-05 
 8.6666666666659E+01  8.6666666666659E+01  8.6666666666659E+01  8.6666666666659E+01  8.6666666666659E+01  8.6666666666659E+01  8.6666666666659E+01  8.6666666666659E+01  8.6666666666659E+01  8.6666666666659E+01 
 2.1666666666675E+01  2.1666666666675E+01  2.1666666666675E+01  2.1666666666675E+01  2.1666666666675E+01  2.1666666666675E+01  2.1666666666675E+01  2.1666666666675E+01  2.1666666666675E+01  2.1666666666675E+01 
 3.6727747185968E-11  5.7327794583007E-11  1.2295562142869E-10  2.3743941202853E-10  4.0078043675892E-10  6.1298050816269E-10  8.7404198097814E-10  1.1839677521372E-09  1.5427612608139E-09  1.7343754133225E-09 
 1.8363990108303E-03  2.8664079162141E-03  6.1478200795194E-03  1.1872045930725E-02  2.0039148988059E-02  3.0649219879546E-02  4.3702376340788E-02  5.9198763217848E-02  7.7138552470708E-02  8.6719320880314E-02 
 6.0005536258370E-04  3.0002802414785E-03  1.0200978383361E-02  2.2202223431988E-02  3.9004142300030E-02  6.0606915172981E-02  8.7010775512052E-02  1.1821601005392E-01  1.5422295881550E-01  1.7342690758375E-01 
 3.0727193560131E-03  2.7324992168223E-03  2.0945837595083E-03  1.5417177708648E-03  1.0739013758624E-03  6.9113564328727E-04  3.9342258576221E-04  1.8076515980129E-04  5.3167265888527E-05  1.0633748504755E-05 
 0.0000000000000E+00  0.0000000000000E+00  0.0000000000000E+00  0.0000000000000E+00  0.0000000000000E+00  0.0000000000000E+00  0.0000000000000E+00  0.0000000000000E+00  0.0000000000000E+00  0.0000000000000E+00 
 0.0000000000000E+00  0.0000000000000E+00  0.0000000000000E+00  0.0000000000000E+00  0.0000000000000E+00  0.0000000000000E+00  0.0000000000000E+00  0.0000000000000E+00  0.0000000000000E+00  0.0000000000000E+00 
 0.0000000000000E+00  0.0000000000000E+00  0.0000000000000E+00  0.0000000000000E+00  0.0000000000000E+00  0.0000000000000E+00  0.0000000000000E+00  0.0000000000000E+00  0.0000000000000E+00  0.0000000000000E+00 
ZONE T = "ANOD, 3.0000E-08", I = 10, SOLUTIONTIME = 3.000000E-08
ZONETYPE = ORDERED
DATAPACKING = BLOCK
STRANDID = 1
 0.0000000000000E+00  8.7488888888889E-05  1.7497777777778E-04  2.6246666666667E-04  3.4995555555556E-04  4.3744444444444E-04  5.2493333333333E-04  6.1242222222222E-04  6.9991111111111E-04  7.8740000000000E-04 
 1.1589934535586E-09  3.4769825683316E-09  5.7949803212045E-09  8.1129931426495E-09  1.0431027463187E-08  1.2749816128860E-08  1.5068639154893E-08  1.7387139764344E-08  1.9705687595860E-08  2.0864806734339E-08 
 9.1999999999791E-01  9.1999999999791E-01  9.1999999999791E-01  9.1999999999791E-01  9.1999999999791E-01  9.1999999999791E-01  9.1999999999791E-01  9.1999999999791E-01  9.1999999999791E-01  9.1999999999900E-01 
 4.0000000001045E-02  4.0000000001045E-02  4.0000000001045E-02  4.0000000001045E-02  4.0000000001045E-02  4.0000000001045E-02  4.0000000001045E-02  4.0000000001045E-02  4.0000000001045E-02  4.0000000000502E-02 
 4.0000000001045E-02  4.0000000001045E-02  4.0000000001045E-02  4.0000000001045E-02  4.0000000001045E-02  4.0000000001045E-02  4.0000000001045E-02  4.0000000001045E-02  4.0000000001045E-02  4.0000000000502E-02 
 2.9167414130395E-02  2.9167398403264E-02  2.9167351221843E-02  2.9167272586014E-02  2.9167162495573E-02  2.9167020950228E-02  2.9166847949599E-02  2.9166643493222E-02  2.9166407580541E-02  2.9166140210917E-02 
 0.0000000000000E+00 -4.7371344545142E-09 -8.9169795236490E-09 -1.2539533130638E-08 -1.5604791652706E-08 -1.8112749921054E-08 -2.0063401220849E-08 -2.1456737291195E-08 -2.2292748325113E-08 -2.2571422969505E-08 
-2.9167414130395E-02 -2.9167403140399E-02 -2.9167360138823E-02 -2.9167285125548E-02 -2.9167178100365E-02 -2.9167039062978E-02 -2.9166868013001E-02 -2.9166664949959E-02 -2.9166429873289E-02 -2.9166162782340E-02 
-4.0906712752491E-02 -4.0906712752491E-02 -4.0906712752491E-02 -4.0906712752491E-02 -4.0906712752491E-02 -4.0906712752491E-02 -4.0906712752491E-02 -4.0906712752491E-02 -4.0906712752491E-02 -4.0906712752840E-02 
 1.1739298622096E-02  1.1739309612092E-02  1.1739352613668E-02  1.1739427626944E-02  1.1739534652126E-02  1.1739673689513E-02  1.1739844739490E-02  1.1740047802532E-02  1.1740282879202E-02  1.1740549970500E-02 
 1.6690428853887E+00  3.3380889499773E+00  3.3381013895295E+00  3.3381230894734E+00  3.3381540498784E+00  3.3381942708435E+00  3.3382437524970E+00  3.3383024949971E+00  3.3383704985312E+00  1.6692238816844E+00 
 8.6492048779741E-09  2.5947631099247E-08  4.3246121798664E-08  6.0544724944120E-08  7.7843488523968E-08  9.5142460544634E-08  1.1244168897971E-07  1.2974122182641E-07  1.4704129893141E-07  1.4704129893141E-07 
 0.0000000000000E+00  3.3380873603514E+00  6.6761825301255E+00  1.0014294769619E+01  1.3352433339311E+01  1.6690607499683E+01  2.0028826511400E+01  2.3367099635126E+01  2.6705436131797E+01  3.0043845262911E+01 
 3.0043845262801E+01  2.6705757902423E+01  2.3367662732670E+01  2.0029550493168E+01  1.6691411923492E+01  1.3353237763131E+01  1.0015018751461E+01  6.6767456277142E+00  3.3384091309500E+00  0.0000000000000E+00 
 5.0071290635835E-08  1.0014267664747E-07  1.0014304983324E-07  1.0014370083019E-07  1.0014462964038E-07  1.0014583626679E-07  1.0014732071326E-07  1.0014908298454E-07  1.0015112308626E-07  5.0076720512856E-08 
 4.5724222271691E+04  9.1448444543381E+04  9.1448444543381E+04  9.1448444543381E+04  9.1448444543381E+04  9.1448444543381E+04  9.1448444543381E+04  9.1448444543381E+04  9.1448444543381E+04  4.5724222271691E+04 
 3.3835924481009E+05  6.7671848962018E+05  6.7671848962018E+05  6.7671848962018E+05  6.7671848962018E+05  6.7671848962018E+05  6.7671848962018E+05  6.7671848962018E+05  6.7671848962018E+05  3.3835924481009E+05 
 3.8408346708178E+05  7.6816693416356E+05  7.6816693416356E+05  7.6816693416356E+05  7.6816693416356E+05  7.6816693416356E+05  7.6816693416356E+05  7.6816693416356E+05  7.6816693416356E+05  3.8408346708178E+05 
 3.5000000000000E-01  3.5000000000000E-01  3.5000000000000E-01  3.5000000000000E-01  3.5000000000000E-01  3.5000000000000E-01  3.5000000000000E-01  3.5000000000000E-01  3.5000000000000E-01  3.5000000000000E-01 
 8.5301666666667E+00  1.7060333333333E+01  1.7060333333333E+01  1.7060333333333E+01  1.7060333333333E+01  1.7060333333333E+01  1.7060333333333E+01  1.7060333333333E+01  1.7060333333333E+01  8.5301666666667E+00 
 1.9566357266040E-01  1.9566375901081E-01  1.9566448816140E-01  1.9566576011450E-01  1.9566757487418E-01  1.9566993244623E-01  1.9567283283818E-01  1.9567627605930E-01  1.9568026212058E-01  1.9568479103782E-01 
 4.3744444444444E-05  8.7488888888889E-05  8.7488888888889E-05  8.7488888888889E-05  8.7488888888889E-05  8.7488888888889E-05  8.7488888888889E-05  8.7488888888889E-05  8.7488888888889E-05  4.3744444444444E-05 
 8.6666666666655E+01  8.6666666666655E+01  8.6666666666655E+01  8.6666666666655E+01  8.6666666666655E+01  8.6666666666655E+01  8.6666666666655E+01  8.6666666666655E+01  8.6666666666655E+01  8.6666666666655E+01 
 2.1666666666679E+01  2.1666666666679E+01  2.1666666666679E+01  2.1666666666679E+01  2.1666666666679E+01  2.1666666666679E+01  2.1666666666679E+01  2.1666666666679E+01  2.1666666666679E+01  2.1666666666679E+01 
 5.5091737293865E-11  8.5991873744895E-11  1.8443382222404E-10  3.5615987132726E-10  6.0117192663180E-10  9.1947270694612E-10  1.3110657443752E-09  1.7759553843009E-09  2.3141467854844E-09  2.6015686220863E-09 
 1.8363990107897E-03  2.8664079161888E-03  6.1478200795346E-03  1.1872045929874E-02  2.0039148987288E-02  3.0649219878344E-02  4.3702376339706E-02  5.9198763216375E-02  7.7138552467044E-02  8.6719320876372E-02 
 9.0008494761953E-04  4.5004298808438E-03  1.5301499938483E-02  3.3303405585695E-02  5.8506337192744E-02  9.0910565037298E-02  1.3051643931091E-01  1.7732439011700E-01  2.3133492748096E-01  2.6014091155214E-01 
 4.6090887817670E-03  4.0987574936458E-03  3.1418822839204E-03  2.3125815470317E-03  1.6108554704364E-03  1.0367056573147E-03  5.9013512660704E-04  2.7114831308921E-04  7.9751067477273E-05  1.5950656486410E-05 
 0.0000000000000E+00  0.0000000000000E+00  0.0000000000000E+00  0.0000000000000E+00  0.0000000000000E+00  0.0000000000000E+00  0.0000000000000E+00  0.0000000000000E+00  0.0000000000000E+00  0.0000000000000E+00 
 0.0000000000000E+00  0.0000000000000E+00  0.0000000000000E+00  0.0000000000000E+00  0.0000000000000E+00  0.0000000000000E+00  0.0000000000000E+00  0.0000000000000E+00  0.0000000000000E+00  0.0000000000000E+00 
 0.0000000000000E+00  0.0000000000000E+00  0.0000000000000E+00  0.0000000000000E+00  0.0000000000000E+00  0.0000000000000E+00  0.0000000000000E+00  0.0000000000000E+00  0.0000000000000E+00  0.0000000000000E+00 
ZONE T = "ANOD, 4.0000E-08", I = 10, SOLUTIONTIME = 4.000000E-08
ZONETYPE = ORDERED
DATAPACKING = BLOCK
STRANDID = 1
 0.0000000000000E+00  8.7488888888889E-05  1.7497777777778E-04  2.6246666666667E-04  3.4995555555556E-04  4.3744444444444E-04  5.2493333333333E-04  6.1242222222222E-04  6.9991111111111E-04  7.8740000000000E-04 
 1.1589934535418E-09  3.4769825682811E-09  5.7938906979371E-09  8.1119035193485E-09  1.0429937839852E-08  1.2746910466853E-08  1.5065007077396E-08  1.7383144479085E-08  1.9701329102840E-08  2.0859540221991E-08 
 9.1999999999721E-01  9.1999999999721E-01  9.1999999999721E-01  9.1999999999721E-01  9.1999999999721E-01  9.1999999999721E-01  9.1999999999721E-01  9.1999999999721E-01  9.1999999999721E-01  9.1999999999866E-01 
 4.0000000001393E-02  4.0000000001393E-02  4.0000000001393E-02  4.0000000001393E-02  4.0000000001393E-02  4.0000000001393E-02  4.0000000001393E-02  4.0000000001393E-02  4.0000000001393E-02  4.0000000000669E-02 
 4.0000000001393E-02  4.0000000001393E-02  4.0000000001393E-02  4.0000000001393E-02  4.0000000001393E-02  4.0000000001393E-02  4.0000000001393E-02  4.0000000001393E-02  4.0000000001393E-02  4.0000000000669E-02 
 2.9167414130320E-02  2.9167398403190E-02  2.9167351221769E-02  2.9167272585940E-02  2.9167162495499E-02  2.9167020950154E-02  2.9166847949525E-02  2.9166643493147E-02  2.9166407580467E-02  2.9166140210842E-02 
 0.0000000000000E+00 -4.7371344544474E-09 -8.9169795235234E-09 -1.2539533130462E-08 -1.5604791652487E-08 -1.8112749920801E-08 -2.0063401220569E-08 -2.1456737290897E-08 -2.2292748324805E-08 -2.2571422969195E-08 
-2.9167414130320E-02 -2.9167403140325E-02 -2.9167360138749E-02 -2.9167285125473E-02 -2.9167178100291E-02 -2.9167039062904E-02 -2.9166868012926E-02 -2.9166664949885E-02 -2.9166429873215E-02 -2.9166162782265E-02 
-4.0906712752189E-02 -4.0906712752189E-02 -4.0906712752189E-02 -4.0906712752189E-02 -4.0906712752188E-02 -4.0906712752187E-02 -4.0906712752187E-02 -4.0906712752187E-02 -4.0906712752187E-02 -4.0906712752653E-02 
 1.1739298621868E-02  1.1739309611864E-02  1.1739352613440E-02  1.1739427626716E-02  1.1739534651897E-02  1.1739673689284E-02  1.1739844739261E-02  1.1740047802303E-02  1.1740282878972E-02  1.1740549970387E-02 
 1.6690428853645E+00  3.3380889499289E+00  3.3381013894810E+00  3.3381230894249E+00  3.3381540498298E+00  3.3381942707947E+00  3.3382437524483E+00  3.3383024949483E+00  3.3383704984825E+00  1.6692238816731E+00 