TITLE = "Solution on Domain BulkDomain1D_1"
VARIABLES = "x [m]"  
"Vel_axial" 	"MF_sp(ECDMC)" 	"MF_sp(Li+)" 	"MF_sp(PF6-)" 	"Volt(Electroly)" 	"Porosity []" 	"Control volume thickness [m]" 	"volFrac MgO(S) []" 	"qHeat_accum [J/m3]" 	"qHeat_step [W/m3]" 	"Joule_Lyte [W/m3]" 	"Joule_Solid [W/m3]" 	
ZONE T = "SEP , 0.0000E+00", I = 10, SOLUTIONTIME = 0.000000E+00
ZONETYPE = ORDERED
DATAPACKING = BLOCK
STRANDID = 2
 7.8740000000000E-04  8.4102222222222E-04  8.9464444444444E-04  9.4826666666667E-04  1.0018888888889E-03  1.0555111111111E-03  1.1091333333333E-03  1.1627555555556E-03  1.2163777777778E-03  1.2700000000000E-03 
 0.0000000000000E+00  0.0000000000000E+00  0.0000000000000E+00  0.0000000000000E+00  0.0000000000000E+00  0.0000000000000E+00  0.0000000000000E+00  0.0000000000000E+00  0.0000000000000E+00  0.0000000000000E+00 
 9.2000000000000E-01  9.2000000000000E-01  9.2000000000000E-01  9.2000000000000E-01  9.2000000000000E-01  9.2000000000000E-01  9.2000000000000E-01  9.2000000000000E-01  9.2000000000000E-01  9.2000000000000E-01 
 4.0000000000000E-02  4.0000000000000E-02  4.0000000000000E-02  4.0000000000000E-02  4.0000000000000E-02  4.0000000000000E-02  4.0000000000000E-02  4.0000000000000E-02  4.0000000000000E-02  4.0000000000000E-02 
 4.0000000000000E-02  4.0000000000000E-02  4.0000000000000E-02  4.0000000000000E-02  4.0000000000000E-02  4.0000000000000E-02  4.0000000000000E-02  4.0000000000000E-02  4.0000000000000E-02  4.0000000000000E-02 
-7.0000000000000E-02 -7.0000000000000E-02 -7.0000000000000E-02 -7.0000000000000E-02 -7.0000000000000E-02 -7.0000000000000E-02 -7.0000000000000E-02 -7.0000000000000E-02 -7.0000000000000E-02 -7.0000000000000E-02 
 8.0911139820575E-01  8.0911139820575E-01  8.0911139820575E-01  8.0911139820575E-01  8.0911139820575E-01  8.0911139820575E-01  8.0911139820575E-01  8.0911139820575E-01  8.0911139820575E-01  8.0911139820575E-01 
 2.6811111111111E-05  5.3622222222222E-05  5.3622222222222E-05  5.3622222222222E-05  5.3622222222222E-05  5.3622222222222E-05  5.3622222222222E-05  5.3622222222223E-05  5.3622222222222E-05  2.6811111111111E-05 
 1.9088860179425E-01  1.9088860179425E-01  1.9088860179425E-01  1.9088860179425E-01  1.9088860179425E-01  1.9088860179425E-01  1.9088860179425E-01  1.9088860179425E-01  1.9088860179425E-01  1.9088860179425E-01 
 0.0000000000000E+00  0.0000000000000E+00  0.0000000000000E+00  0.0000000000000E+00  0.0000000000000E+00  0.0000000000000E+00  0.0000000000000E+00  0.0000000000000E+00  0.0000000000000E+00  0.0000000000000E+00 
 0.0000000000000E+00  0.0000000000000E+00  0.0000000000000E+00  0.0000000000000E+00  0.0000000000000E+00  0.0000000000000E+00  0.0000000000000E+00  0.0000000000000E+00  0.0000000000000E+00  0.0000000000000E+00 
 0.0000000000000E+00  0.0000000000000E+00  0.0000000000000E+00  0.0000000000000E+00  0.0000000000000E+00  0.0000000000000E+00  0.0000000000000E+00  0.0000000000000E+00  0.0000000000000E+00  0.0000000000000E+00 
 0.0000000000000E+00  0.0000000000000E+00  0.0000000000000E+00  0.0000000000000E+00  0.0000000000000E+00  0.0000000000000E+00  0.0000000000000E+00  0.0000000000000E+00  0.0000000000000E+00  0.0000000000000E+00 
ZONE T = "SEP , 1.0000E-08", I = 10, SOLUTIONTIME = 1.000000E-08
ZONETYPE = ORDERED
DATAPACKING = BLOCK
STRANDID = 2
 7.8740000000000E-04  8.4102222222222E-04  8.9464444444444E-04  9.4826666666667E-04  1.0018888888889E-03  1.0555111111111E-03  1.1091333333333E-03  1.1627555555556E-03  1.2163777777778E-03  1.2700000000000E-03 
 2.0862700646645E-08  2.0862700646645E-08  2.0862700646645E-08  2.0862700646645E-08  2.0862700646645E-08  2.0862700646645E-08  2.0862700646645E-08  2.0862700646645E-08  2.0862700646645E-08  1.9704423949934E-08 
 9.1999999999971E-01  9.2000000000000E-01  9.2000000000000E-01  9.2000000000000E-01  9.2000000000000E-01  9.2000000000000E-01  9.2000000000000E-01  9.2000000000000E-01  9.2000000000000E-01  9.2000000000032E-01 
 4.0000000000144E-02  4.0000000000000E-02  4.0000000000000E-02  4.0000000000000E-02  4.0000000000000E-02  4.0000000000000E-02  4.0000000000000E-02  4.0000000000000E-02  4.0000000000000E-02  3.9999999999841E-02 
 4.0000000000144E-02  4.0000000000000E-02  4.0000000000000E-02  4.0000000000000E-02  4.0000000000000E-02  4.0000000000000E-02  4.0000000000000E-02  4.0000000000000E-02  4.0000000000000E-02  3.9999999999841E-02 
 2.9166099742510E-02  2.9166050377353E-02  2.9166001012195E-02  2.9165951647038E-02  2.9165902281881E-02  2.9165852916724E-02  2.9165803551566E-02  2.9165754186409E-02  2.9165704821252E-02  2.9165655456095E-02 
 8.0911139820575E-01  8.0911139820575E-01  8.0911139820575E-01  8.0911139820575E-01  8.0911139820575E-01  8.0911139820575E-01  8.0911139820575E-01  8.0911139820575E-01  8.0911139820575E-01  8.0911139820575E-01 
 2.6811111111111E-05  5.3622222222222E-05  5.3622222222222E-05  5.3622222222222E-05  5.3622222222222E-05  5.3622222222222E-05  5.3622222222222E-05  5.3622222222223E-05  5.3622222222222E-05  2.6811111111111E-05 
 1.9088860179425E-01  1.9088860179425E-01  1.9088860179425E-01  1.9088860179425E-01  1.9088860179425E-01  1.9088860179425E-01  1.9088860179425E-01  1.9088860179425E-01  1.9088860179425E-01  1.9088860179425E-01 
 2.7658763203412E-10  2.7658763201443E-10  2.7658763201418E-10  2.7658763203362E-10  2.7658763201418E-10  2.7658763201418E-10  2.7658763201418E-10  2.7658763201418E-10  2.7658763201391E-10  2.7658763199420E-10 
 2.7658763203412E-02  2.7658763201443E-02  2.7658763201418E-02  2.7658763203362E-02  2.7658763201418E-02  2.7658763201418E-02  2.7658763201418E-02  2.7658763201418E-02  2.7658763201391E-02  2.7658763199420E-02 
 2.7658763203412E-02  2.7658763201443E-02  2.7658763201418E-02  2.7658763203362E-02  2.7658763201418E-02  2.7658763201418E-02  2.7658763201418E-02  2.7658763201418E-02  2.7658763201391E-02  2.7658763199420E-02 
 0.0000000000000E+00  0.0000000000000E+00  0.0000000000000E+00  0.0000000000000E+00  0.0000000000000E+00  0.0000000000000E+00  0.0000000000000E+00  0.0000000000000E+00  0.0000000000000E+00  0.0000000000000E+00 
ZONE T = "SEP , 2.0000E-08", I = 10, SOLUTIONTIME = 2.000000E-08
ZONETYPE = ORDERED
DATAPACKING = BLOCK
STRANDID = 2
 7.8740000000000E-04  8.4102222222222E-04  8.9464444444444E-04  9.4826666666667E-04  1.0018888888889E-03  1.0555111111111E-03  1.1091333333333E-03  1.1627555555556E-03  1.2163777777778E-03  1.2700000000000E-03 
 2.0860884607704E-08  2.0860884607704E-08  2.0860884607704E-08  2.0860884607704E-08  2.0860884607704E-08  2.0860884607704E-08  2.0860884607704E-08  2.0860884607704E-08  2.0860884607704E-08  1.9703152722594E-08 
 9.1999999999942E-01  9.2000000000000E-01  9.2000000000000E-01  9.2000000000000E-01  9.2000000000000E-01  9.2000000000000E-01  9.2000000000000E-01  9.2000000000000E-01  9.2000000000000E-01  9.2000000000063E-01 
 4.0000000000288E-02  4.0000000000000E-02  4.0000000000000E-02  4.0000000000000E-02  4.0000000000000E-02  4.0000000000000E-02  4.0000000000000E-02  4.0000000000000E-02  4.0000000000000E-02  3.9999999999683E-02 
 4.0000000000288E-02  4.0000000000000E-02  4.0000000000000E-02  4.0000000000000E-02  4.0000000000000E-02  4.0000000000000E-02  4.0000000000000E-02  4.0000000000000E-02  4.0000000000000E-02  3.9999999999683E-02 
 2.9166099742444E-02  2.9166050377287E-02  2.9166001012130E-02  2.9165951646973E-02  2.9165902281815E-02  2.9165852916658E-02  2.9165803551501E-02  2.9165754186344E-02  2.9165704821186E-02  2.9165655456029E-02 
 8.0911139820575E-01  8.0911139820575E-01  8.0911139820575E-01  8.0911139820575E-01  8.0911139820575E-01  8.0911139820575E-01  8.0911139820575E-01  8.0911139820575E-01  8.0911139820575E-01  8.0911139820575E-01 
 2.6811111111111E-05  5.3622222222222E-05  5.3622222222222E-05  5.3622222222222E-05  5.3622222222222E-05  5.3622222222222E-05  5.3622222222222E-05  5.3622222222223E-05  5.3622222222222E-05  2.6811111111111E-05 
 1.9088860179425E-01  1.9088860179425E-01  1.9088860179425E-01  1.9088860179425E-01  1.9088860179425E-01  1.9088860179425E-01  1.9088860179425E-01  1.9088860179425E-01  1.9088860179425E-01  1.9088860179425E-01 
 5.5317526406874E-10  5.5317526402911E-10  5.5317526402837E-10  5.5317526404781E-10  5.5317526400893E-10  5.5317526402837E-10  5.5317526402837E-10  5.5317526400892E-10  5.5317526402755E-10  5.5317526402672E-10 
 2.7658763203462E-02  2.7658763201468E-02  2.7658763201418E-02  2.7658763201418E-02  2.7658763199474E-02  2.7658763201418E-02  2.7658763201418E-02  2.7658763199474E-02  2.7658763201364E-02  2.7658763203253E-02 
 2.7658763203462E-02  2.7658763201468E-02  2.7658763201418E-02  2.7658763201418E-02  2.7658763199474E-02  2.7658763201418E-02  2.7658763201418E-02  2.7658763199474E-02  2.7658763201364E-02  2.7658763203253E-02 
 0.0000000000000E+00  0.0000000000000E+00  0.0000000000000E+00  0.0000000000000E+00  0.0000000000000E+00  0.0000000000000E+00  0.0000000000000E+00  0.0000000000000E+00  0.0000000000000E+00  0.0000000000000E+00 
ZONE T = "SEP , 3.0000E-08", I = 10, SOLUTIONTIME = 3.000000E-08
ZONETYPE = ORDERED
DATAPACKING = BLOCK
STRANDID = 2
 7.8740000000000E-04  8.4102222222222E-04  8.9464444444444E-04  9.4826666666667E-04  1.0018888888889E-03  1.0555111111111E-03  1.1091333333333E-03  1.1627555555556E-03  1.2163777777778E-03  1.2700000000000E-03 
 2.0864516684689E-08  2.0864516684689E-08  2.0864516684689E-08  2.0864516684689E-08  2.0864516684689E-08  2.0864516684689E-08  2.0864516684689E-08  2.0864516684689E-08  2.0864516684689E-08  1.9706058384132E-08 
 9.1999999999914E-01  9.2000000000000E-01  9.2000000000000E-01  9.2000000000000E-01  9.2000000000000E-01  9.2000000000000E-01  9.2000000000000E-01  9.2000000000000E-01  9.2000000000000E-01  9.2000000000095E-01 
 4.0000000000432E-02  4.0000000000000E-02  4.0000000000000E-02  4.0000000000000E-02  4.0000000000000E-02  4.0000000000000E-02  4.0000000000000E-02  4.0000000000000E-02  4.0000000000000E-02  3.9999999999524E-02 
 4.0000000000432E-02  4.0000000000000E-02  4.0000000000000E-02  4.0000000000000E-02  4.0000000000000E-02  4.0000000000000E-02  4.0000000000000E-02  4.0000000000000E-02  4.0000000000000E-02  3.9999999999524E-02 
 2.9166099742373E-02  2.9166050377216E-02  2.9166001012059E-02  2.9165951646901E-02  2.9165902281744E-02  2.9165852916587E-02  2.9165803551430E-02  2.9165754186272E-02  2.9165704821115E-02  2.9165655455958E-02 
 8.0911139820575E-01  8.0911139820575E-01  8.0911139820575E-01  8.0911139820575E-01  8.0911139820575E-01  8.0911139820575E-01  8.0911139820575E-01  8.0911139820575E-01  8.0911139820575E-01  8.0911139820575E-01 
 2.6811111111111E-05  5.3622222222222E-05  5.3622222222222E-05  5.3622222222222E-05  5.3622222222222E-05  5.3622222222222E-05  5.3622222222222E-05  5.3622222222223E-05  5.3622222222222E-05  2.6811111111111E-05 
 1.9088860179425E-01  1.9088860179425E-01  1.9088860179425E-01  1.9088860179425E-01  1.9088860179425E-01  1.9088860179425E-01  1.9088860179425E-01  1.9088860179425E-01  1.9088860179425E-01  1.9088860179425E-01 
 8.2976289610386E-10  8.2976289604404E-10  8.2976289602311E-10  8.2976289604255E-10  8.2976289600367E-10  8.2976289602311E-10  8.2976289604255E-10  8.2976289602311E-10  8.2976289602147E-10  8.2976289601982E-10 
 2.7658763203512E-02  2.7658763201493E-02  2.7658763199474E-02  2.7658763199474E-02  2.7658763199474E-02  2.7658763199475E-02  2.7658763201418E-02  2.7658763201418E-02  2.7658763199392E-02  2.7658763199310E-02 
 2.7658763203512E-02  2.7658763201493E-02  2.7658763199474E-02  2.7658763199474E-02  2.7658763199474E-02  2.7658763199475E-02  2.7658763201418E-02  2.7658763201418E-02  2.7658763199392E-02  2.7658763199310E-02 
 0.0000000000000E+00  0.0000000000000E+00  0.0000000000000E+00  0.0000000000000E+00  0.0000000000000E+00  0.0000000000000E+00  0.0000000000000E+00  0.0000000000000E+00  0.0000000000000E+00  0.0000000000000E+00 
ZONE T = "SEP , 4.0000E-08", I = 10, SOLUTIONTIME = 4.000000E-08
ZONETYPE = ORDERED
DATAPACKING = BLOCK
STRANDID = 2
 7.8740000000000E-04  8.4102222222222E-04  8.9464444444444E-04  9.4826666666667E-04  1.0018888888889E-03  1.0555111111111E-03  1.1091333333333E-03  1.1627555555556E-03  1.2163777777778E-03  1.2700000000000E-03 
 2.0859976587798E-08  2.0859976587798E-08  2.0859976587798E-08  2.0859976587798E-08  2.0859976587798E-08  2.0859976587798E-08  2.0859976587798E-08  2.0859976587798E-08  2.0859976587798E-08  1.9703515929752E-08 
 9.1999999999885E-01  9.2000000000000E-01  9.2000000000000E-01  9.2000000000000E-01  9.2000000000000E-01  9.2000000000000E-01  9.2000000000000E-01  9.2000000000000E-01  9.2000000000000E-01  9.2000000000127E-01 
 4.0000000000576E-02  4.0000000000000E-02  4.0000000000000E-02  4.0000000000000E-02  4.0000000000000E-02  4.0000000000000E-02  4.0000000000000E-02  4.0000000000000E-02  4.0000000000000E-02  3.9999999999365E-02 
 4.0000000000576E-02  4.0000000000000E-02  4.0000000000000E-02  4.0000000000000E-02  4.0000000000000E-02  4.0000000000000E-02  4.0000000000000E-02  4.0000000000000E-02  4.0000000000000E-02  3.9999999999365E-02 
 2.9166099742299E-02  2.9166050377142E-02  2.9166001011985E-02  2.9165951646827E-02  2.9165902281670E-02  2.9165852916513E-02  2.9165803551356E-02  2.9165754186198E-02  2.9165704821041E-02  2.9165655455884E-02 
 8.0911139820575E-01  8.0911139820575E-01  8.0911139820575E-01  8.0911139820575E-01  8.0911139820575E-01  8.0911139820575E-01  8.0911139820575E-01  8.0911139820575E-01  8.0911139820575E-01  8.0911139820575E-01 
 2.6811111111111E-05  5.3622222222222E-05  5.3622222222222E-05  5.3622222222222E-05  5.3622222222222E-05  5.3622222222222E-05  5.3622222222222E-05  5.3622222222223E-05  5.3622222222222E-05  2.6811111111111E-05 
 1.9088860179425E-01  1.9088860179425E-01  1.9088860179425E-01  1.9088860179425E-01  1.9088860179425E-01  1.9088860179425E-01  1.9088860179425E-01  1.9088860179425E-01  1.9088860179425E-01  1.9088860179425E-01 
 1.1063505281006E-09  1.1063505280398E-09  1.1063505280179E-09  1.1063505280373E-09  1.1063505279984E-09  1.1063505280179E-09  1.1063505280373E-09  1.1063505279984E-09  1.1063505280151E-09  1.1063505280513E-09 
 2.7658763199674E-02  2.7658763199574E-02  2.7658763199474E-02  2.7658763199474E-02  2.7658763199474E-02  2.7658763199475E-02  2.7658763199475E-02  2.7658763197530E-02  2.7658763199365E-02  2.7658763203143E-02 
 2.7658763199674E-02  2.7658763199574E-02  2.7658763199474E-02  2.7658763199474E-02  2.7658763199474E-02  2.7658763199475E-02  2.7658763199475E-02  2.7658763197530E-02  2.7658763199365E-02  2.7658763203143E-02 
 0.0000000000000E+00  0.0000000000000E+00  0.0000000000000E+00  0.0000000000000E+00  0.0000000000000E+00  0.0000000000000E+00  0.0000000000000E+00  0.0000000000000E+00  0.0000000000000E+00  0.0000000000000E+00 
ZONE T = "SEP , 5.5000E-08", I = 10, SOLUTIONTIME = 5.500000E-08
ZONETYPE = ORDERED
DATAPACKING = BLOCK
STRANDID = 2
 7.8740000000000E-04  8.4102222222222E-04  8.9464444444444E-04  9.4826666666667E-04  1.0018888888889E-03  1.0555111111111E-03  1.1091333333333E-03  1.1627555555556E-03  1.2163777777778E-03  1.2700000000000E-03 
 2.0864395614850E-08  2.0864395614850E-08  2.0864395614850E-08  2.0864395614850E-08  2.0864395614850E-08  2.0864395614850E-08  2.0864395614850E-08  2.0864395614850E-08  2.0864395614850E-08  1.9706663729765E-08 
 9.1999999999842E-01  9.2000000000000E-01  9.2000000000000E-01  9.2000000000000E-01  9.2000000000000E-01  9.2000000000000E-01  9.2000000000000E-01  9.2000000000000E-01  9.2000000000000E-01  9.2000000000175E-01 
 4.0000000000792E-02  4.0000000000000E-02  4.0000000000000E-02  4.0000000000000E-02  4.0000000000000E-02  4.0000000000000E-02  4.0000000000000E-02  4.0000000000000E-02  4.0000000000000E-02  3.9999999999127E-02 
 4.0000000000792E-02  4.0000000000000E-02  4.0000000000000E-02  4.0000000000000E-02  4.0000000000000E-02  4.0000000000000E-02  4.0000000000000E-02  4.0000000000000E-02  4.0000000000000E-02  3.9999999999127E-02 
 2.9166099742220E-02  2.9166050377063E-02  2.9166001011905E-02  2.9165951646748E-02  2.9165902281591E-02  2.9165852916434E-02  2.9165803551276E-02  2.9165754186119E-02  2.9165704820962E-02  2.9165655455805E-02 
 8.0911139820575E-01  8.0911139820575E-01  8.0911139820575E-01  8.0911139820575E-01  8.0911139820575E-01  8.0911139820575E-01  8.0911139820575E-01  8.0911139820575E-01  8.0911139820575E-01  8.0911139820575E-01 
 2.6811111111111E-05  5.3622222222222E-05  5.3622222222222E-05  5.3622222222222E-05  5.3622222222222E-05  5.3622222222222E-05  5.3622222222222E-05  5.3622222222223E-05  5.3622222222222E-05  2.6811111111111E-05 
 1.9088860179425E-01  1.9088860179425E-01  1.9088860179425E-01  1.9088860179425E-01  1.9088860179425E-01  1.9088860179425E-01  1.9088860179425E-01  1.9088860179425E-01  1.9088860179425E-01  1.9088860179425E-01 
 1.5212319760968E-09  1.5212319760340E-09  1.5212319759808E-09  1.5212319760003E-09  1.5212319759905E-09  1.5212319760100E-09  1.5212319760294E-09  1.5212319759614E-09  1.5212319759758E-09  1.5212319760388E-09 
 2.7658763199749E-02  2.7658763199611E-02  2.7658763197531E-02  2.7658763197531E-02  2.7658763199474E-02  2.7658763199475E-02  2.7658763199475E-02  2.7658763197530E-02  2.7658763197380E-02  2.7658763199173E-02 
 2.7658763199749E-02  2.7658763199611E-02  2.7658763197531E-02  2.7658763197531E-02  2.7658763199474E-02  2.7658763199475E-02  2.7658763199475E-02  2.7658763197530E-02  2.7658763197380E-02  2.7658763199173E-02 
 0.0000000000000E+00  0.0000000000000E+00  0.0000000000000E+00  0.0000000000000E+00  0.0000000000000E+00  0.0000000000000E+00  0.0000000000000E+00  0.0000000000000E+00  0.0000000000000E+00  0.0000000000000E+00 
ZONE T = "SEP , 7.7500E-08", I = 10, SOLUTIONTIME = 7.750000E-08
ZONETYPE = ORDERED
DATAPACKING = BLOCK
STRANDID = 2
 7.8740000000000E-04  8.4102222222222E-04  8.9464444444444E-04  9.4826666666667E-04  1.0018888888889E-03  1.0555111111111E-03  1.1091333333333E-03  1.1627555555556E-03  1.2163777777778E-03  1.2700000000000E-03 
 2.0861893516700E-08  2.0861893516700E-08  2.0861893516700E-08  2.0861893516700E-08  2.0861893516700E-08  2.0861893516700E-08  2.0861893516700E-08  2.0861893516700E-08  2.0861893516700E-08  1.9704323057286E-08 
 9.1999999999777E-01  9.2000000000000E-01  9.2000000000000E-01  9.2000000000000E-01  9.2000000000000E-01  9.2000000000000E-01  9.2000000000000E-01  9.2000000000000E-01  9.2000000000000E-01  9.2000000000246E-01 
 4.0000000001117E-02  4.0000000000000E-02  4.0000000000000E-02  4.0000000000000E-02  4.0000000000000E-02  4.0000000000000E-02  4.0000000000000E-02  4.0000000000000E-02  4.0000000000000E-02  3.9999999998770E-02 
 4.0000000001117E-02  4.0000000000000E-02  4.0000000000000E-02  4.0000000000000E-02  4.0000000000000E-02  4.0000000000000E-02  4.0000000000000E-02  4.0000000000000E-02  4.0000000000000E-02  3.9999999998770E-02 
 2.9166099742093E-02  2.9166050376936E-02  2.9166001011778E-02  2.9165951646621E-02  2.9165902281464E-02  2.9165852916307E-02  2.9165803551149E-02  2.9165754185992E-02  2.9165704820835E-02  2.9165655455678E-02 
 8.0911139820575E-01  8.0911139820575E-01  8.0911139820575E-01  8.0911139820575E-01  8.0911139820575E-01  8.0911139820575E-01  8.0911139820575E-01  8.0911139820575E-01  8.0911139820575E-01  8.0911139820575E-01 
 2.6811111111111E-05  5.3622222222222E-05  5.3622222222222E-05  5.3622222222222E-05  5.3622222222222E-05  5.3622222222222E-05  5.3622222222222E-05  5.3622222222223E-05  5.3622222222222E-05  2.6811111111111E-05 
 1.9088860179425E-01  1.9088860179425E-01  1.9088860179425E-01  1.9088860179425E-01  1.9088860179425E-01  1.9088860179425E-01  1.9088860179425E-01  1.9088860179425E-01  1.9088860179425E-01  1.9088860179425E-01 
 2.1435541480062E-09  2.1435541479827E-09  2.1435541479253E-09  2.1435541479447E-09  2.1435541479350E-09  2.1435541479544E-09  2.1435541479739E-09  2.1435541479058E-09  2.1435541479155E-09  2.1435541479300E-09 
 2.7658763195973E-02  2.7658763197724E-02  2.7658763197531E-02  2.7658763197531E-02  2.7658763197531E-02  2.7658763197531E-02  2.7658763197531E-02  2.7658763197530E-02  2.7658763197318E-02  2.7658763195161E-02 
 2.7658763195973E-02  2.7658763197724E-02  2.7658763197531E-02  2.7658763197531E-02  2.7658763197531E-02  2.7658763197531E-02  2.7658763197531E-02  2.7658763197530E-02  2.7658763197318E-02  2.7658763195161E-02 
 0.0000000000000E+00  0.0000000000000E+00  0.0000000000000E+00  0.0000000000000E+00  0.0000000000000E+00  0.0000000000000E+00  0.0000000000000E+00  0.0000000000000E+00  0.0000000000000E+00  0.0000000000000E+00 
ZONE T = "SEP , 1.1125E-07", I = 10, SOLUTIONTIME = 1.112500E-07
ZONETYPE = ORDERED
DATAPACKING = BLOCK
STRANDID = 2
 7.8740000000000E-04  8.4102222222222E-04  8.9464444444444E-04  9.4826666666667E-04  1.0018888888889E-03  1.0555111111111E-03  1.1091333333333E-03  1.1627555555556E-03  1.2163777777778E-03  1.2700000000000E-03 
 2.0861463047574E-08  2.0861463047574E-08  2.0861463047574E-08  2.0861463047574E-08  2.0861463047574E-08  2.0861463047574E-08  2.0861463047574E-08  2.0861463047574E-08  2.0861463047574E-08  1.9703731162525E-08 
 9.1999999999679E-01  9.2000000000000E-01  9.2000000000000E-01  9.2000000000000E-01  9.2000000000000E-01  9.2000000000000E-01  9.2000000000000E-01  9.2000000000000E-01  9.2000000000000E-01  9.2000000000353E-01 
 4.0000000001603E-02  4.0000000000000E-02  4.0000000000000E-02  4.0000000000000E-02  4.0000000000000E-02  4.0000000000000E-02  4.0000000000000E-02  4.0000000000000E-02  4.0000000000000E-02  3.9999999998234E-02 
 4.0000000001603E-02  4.0000000000000E-02  4.0000000000000E-02  4.0000000000000E-02  4.0000000000000E-02  4.0000000000000E-02  4.0000000000000E-02  4.0000000000000E-02  4.0000000000000E-02  3.9999999998234E-02 
 2.9166099741897E-02  2.9166050376739E-02  2.9166001011582E-02  2.9165951646425E-02  2.9165902281268E-02  2.9165852916110E-02  2.9165803550953E-02  2.9165754185796E-02  2.9165704820639E-02  2.9165655455481E-02 
 8.0911139820575E-01  8.0911139820575E-01  8.0911139820575E-01  8.0911139820575E-01  8.0911139820575E-01  8.0911139820575E-01  8.0911139820575E-01  8.0911139820575E-01  8.0911139820575E-01  8.0911139820575E-01 
 2.6811111111111E-05  5.3622222222222E-05  5.3622222222222E-05  5.3622222222222E-05  5.3622222222222E-05  5.3622222222222E-05  5.3622222222222E-05  5.3622222222223E-05  5.3622222222222E-05  2.6811111111111E-05 
 1.9088860179425E-01  1.9088860179425E-01  1.9088860179425E-01  1.9088860179425E-01  1.9088860179425E-01  1.9088860179425E-01  1.9088860179425E-01  1.9088860179425E-01  1.9088860179425E-01  1.9088860179425E-01 
 3.0770374058760E-09  3.0770374058431E-09  3.0770374057763E-09  3.0770374057957E-09  3.0770374057860E-09  3.0770374058055E-09  3.0770374058249E-09  3.0770374056912E-09  3.0770374057562E-09  3.0770374058916E-09 
 2.7658763196141E-02  2.7658763195864E-02  2.7658763195587E-02  2.7658763195587E-02  2.7658763195587E-02  2.7658763195587E-02  2.7658763195587E-02  2.7658763193643E-02  2.7658763195281E-02  2.7658763198864E-02 
 2.7658763196141E-02  2.7658763195864E-02  2.7658763195587E-02  2.7658763195587E-02  2.7658763195587E-02  2.7658763195587E-02  2.7658763195587E-02  2.7658763193643E-02  2.7658763195281E-02  2.7658763198864E-02 
 0.0000000000000E+00  0.0000000000000E+00  0.0000000000000E+00  0.0000000000000E+00  0.0000000000000E+00  0.0000000000000E+00  0.0000000000000E+00  0.0000000000000E+00  0.0000000000000E+00  0.0000000000000E+00 
ZONE T = "SEP , 1.6188E-07", I = 10, SOLUTIONTIME = 1.618750E-07
ZONETYPE = ORDERED
DATAPACKING = BLOCK
STRANDID = 2
 7.8740000000000E-04  8.4102222222222E-04  8.9464444444444E-04  9.4826666666667E-04  1.0018888888889E-03  1.0555111111111E-03  1.1091333333333E-03  1.1627555555556E-03  1.2163777777778E-03  1.2700000000000E-03 
 2.0864027920839E-08  2.0864027920839E-08  2.0864027920839E-08  2.0864027920839E-08  2.0864027920839E-08  2.0864027920839E-08  2.0864027920839E-08  2.0864027920839E-08  2.0864027920839E-08  1.9706116673981E-08 
 9.1999999999534E-01  9.2000000000000E-01  9.2000000000000E-01  9.2000000000000E-01  9.2000000000000E-01  9.2000000000000E-01  9.2000000000000E-01  9.2000000000000E-01  9.2000000000000E-01  9.2000000000514E-01 
 4.0000000002332E-02  4.0000000000001E-02  4.0000000000000E-02  4.0000000000000E-02  4.0000000000000E-02  4.0000000000000E-02  4.0000000000000E-02  4.0000000000000E-02  3.9999999999999E-02  3.9999999997431E-02 
 4.0000000002332E-02  4.0000000000001E-02  4.0000000000000E-02  4.0000000000000E-02  4.0000000000000E-02  4.0000000000000E-02  4.0000000000000E-02  4.0000000000000E-02  3.9999999999999E-02  3.9999999997431E-02 
 2.9166099741605E-02  2.9166050376448E-02  2.9166001011291E-02  2.9165951646133E-02  2.9165902280976E-02  2.9165852915819E-02  2.9165803550662E-02  2.9165754185505E-02  2.9165704820347E-02  2.9165655455190E-02 
 8.0911139820575E-01  8.0911139820575E-01  8.0911139820575E-01  8.0911139820575E-01  8.0911139820575E-01  8.0911139820575E-01  8.0911139820575E-01  8.0911139820575E-01  8.0911139820575E-01  8.0911139820575E-01 
 2.6811111111111E-05  5.3622222222222E-05  5.3622222222222E-05  5.3622222222222E-05  5.3622222222222E-05  5.3622222222222E-05  5.3622222222222E-05  5.3622222222223E-05  5.3622222222222E-05  2.6811111111111E-05 
 1.9088860179425E-01  1.9088860179425E-01  1.9088860179425E-01  1.9088860179425E-01  1.9088860179425E-01  1.9088860179425E-01  1.9088860179425E-01  1.9088860179425E-01  1.9088860179425E-01  1.9088860179425E-01 
 4.4772622924966E-09  4.4772622924433E-09  4.4772622923561E-09  4.4772622923755E-09  4.4772622924642E-09  4.4772622924836E-09  4.4772622924047E-09  4.4772622922710E-09  4.4772622924119E-09  4.4772622926232E-09 
 2.7658763192505E-02  2.7658763192102E-02  2.7658763191699E-02  2.7658763191699E-02  2.7658763193643E-02  2.7658763193643E-02  2.7658763191699E-02  2.7658763191699E-02  2.7658763193198E-02  2.7658763194698E-02 
 2.7658763192505E-02  2.7658763192102E-02  2.7658763191699E-02  2.7658763191699E-02  2.7658763193643E-02  2.7658763193643E-02  2.7658763191699E-02  2.7658763191699E-02  2.7658763193198E-02  2.7658763194698E-02 
 0.0000000000000E+00  0.0000000000000E+00  0.0000000000000E+00  0.0000000000000E+00  0.0000000000000E+00  0.0000000000000E+00  0.0000000000000E+00  0.0000000000000E+00  0.0000000000000E+00  0.0000000000000E+00 
ZONE T = "SEP , 2.3781E-07", I = 10, SOLUTIONTIME = 2.378125E-07
ZONETYPE = ORDERED
DATAPACKING = BLOCK
STRANDID = 2
 7.8740000000000E-04  8.4102222222222E-04  8.9464444444444E-04  9.4826666666667E-04  1.0018888888889E-03  1.0555111111111E-03  1.1091333333333E-03  1.1627555555556E-03  1.2163777777778E-03  1.2700000000000E-03 
 2.0862318003032E-08  2.0862413662681E-08  2.0862413662681E-08  2.0862413662681E-08  2.0862413662681E-08  2.0862413662681E-08  2.0862413662681E-08  2.0862413662681E-08  2.0862318003032E-08  1.9704657862799E-08 
 9.1999999999315E-01  9.2000000000000E-01  9.2000000000000E-01  9.2000000000000E-01  9.2000000000000E-01  9.2000000000000E-01  9.2000000000000E-01  9.2000000000000E-01  9.2000000000000E-01  9.2000000000755E-01 
 4.0000000003425E-02  4.0000000000002E-02  4.0000000000000E-02  4.0000000000000E-02  4.0000000000000E-02  4.0000000000000E-02  4.0000000000000E-02  4.0000000000000E-02  3.9999999999998E-02  3.9999999996226E-02 
 4.0000000003425E-02  4.0000000000002E-02  4.0000000000000E-02  4.0000000000000E-02  4.0000000000000E-02  4.0000000000000E-02  4.0000000000000E-02  4.0000000000000E-02  3.9999999999998E-02  3.9999999996226E-02 
 2.9166099741167E-02  2.9166050376009E-02  2.9166001010852E-02  2.9165951645695E-02  2.9165902280538E-02  2.9165852915380E-02  2.9165803550223E-02  2.9165754185066E-02  2.9165704819909E-02  2.9165655454751E-02 
 8.0911139820575E-01  8.0911139820575E-01  8.0911139820575E-01  8.0911139820575E-01  8.0911139820575E-01  8.0911139820575E-01  8.0911139820575E-01  8.0911139820575E-01  8.0911139820575E-01  8.0911139820575E-01 
 2.6811111111111E-05  5.3622222222222E-05  5.3622222222222E-05  5.3622222222222E-05  5.3622222222222E-05  5.3622222222222E-05  5.3622222222222E-05  5.3622222222223E-05  5.3622222222222E-05  2.6811111111111E-05 
 1.9088860179425E-01  1.9088860179425E-01  1.9088860179425E-01  1.9088860179425E-01  1.9088860179425E-01  1.9088860179425E-01  1.9088860179425E-01  1.9088860179425E-01  1.9088860179425E-01  1.9088860179425E-01 
 6.5775996218657E-09  6.5775996220627E-09  6.5775996220781E-09  6.5775996219499E-09  6.5775996220386E-09  6.5775996220580E-09  6.5775996219791E-09  6.5775996218453E-09  6.5775996220843E-09  6.5775996223937E-09 
 2.7658763185108E-02  2.7658763188404E-02  2.7658763189755E-02  2.7658763187811E-02  2.7658763187811E-02  2.7658763187811E-02  2.7658763187811E-02  2.7658763187811E-02  2.7658763189102E-02  2.7658763190394E-02 
 2.7658763185108E-02  2.7658763188404E-02  2.7658763189755E-02  2.7658763187811E-02  2.7658763187811E-02  2.7658763187811E-02  2.7658763187811E-02  2.7658763187811E-02  2.7658763189102E-02  2.7658763190394E-02 
 0.0000000000000E+00  0.0000000000000E+00  0.0000000000000E+00  0.0000000000000E+00  0.0000000000000E+00  0.0000000000000E+00  0.0000000000000E+00  0.0000000000000E+00  0.0000000000000E+00  0.0000000000000E+00 
ZONE T = "SEP , 3.5172E-07", I = 10, SOLUTIONTIME = 3.517188E-07
ZONETYPE = ORDERED
DATAPACKING = BLOCK
STRANDID = 2
 7.8740000000000E-04  8.4102222222222E-04  8.9464444444444E-04  9.4826666666667E-04  1.0018888888889E-03  1.0555111111111E-03  1.1091333333333E-03  1.1627555555556E-03  1.2163777777778E-03  1.2700000000000E-03 
 2.0862764412341E-08  2.0862700639242E-08  2.0862700639242E-08  2.0862700639242E-08  2.0862700639242E-08  2.0862700639242E-08  2.0862700639242E-08  2.0862700639242E-08  2.0862700639242E-08  1.9704968754344E-08 
 9.1999999998987E-01  9.1999999999999E-01  9.2000000000000E-01  9.2000000000000E-01  9.2000000000000E-01  9.2000000000000E-01  9.2000000000000E-01  9.2000000000000E-01  9.2000000000001E-01  9.2000000001116E-01 
 4.0000000005065E-02  4.0000000000003E-02  4.0000000000000E-02  4.0000000000000E-02  4.0000000000000E-02  4.0000000000000E-02  4.0000000000000E-02  4.0000000000000E-02  3.9999999999996E-02  3.9999999994419E-02 