TITLE = "Solution on Domain BulkDomain1D_2"
VARIABLES = "x [m]"  
"Vel_axial" 	"MF_sp(ECDMC)" 	"MF_sp(Li+)" 	"MF_sp(PF6-)" 	"Volt(Electroly)" 	"Volt(CathodeVo)" 	
"Potential Drop Electrode-Electrolyte [V]" 	"Surf_0 Equilibrium Potential Drop Electrode-Electrolyte [V]" 	"Overpotential_0 [V]" 	"Current Source [A/m^2]" 	"Li+ flux [kmol/m^2/s]" 	"Electrolyte Current [A/m^2]" 	"Electrode Current [A/m^2]" 	
"CV Capacity discharged [A-s/m^2]" 	"Depth of discharge in CV [A-s/m^2]" 	"CV Capacity remaining [A-s/m^2]" 	"Initial CV capacity [A-s/m^2]" 	"Porosity []" 	"Surface Area [m2/m2] (area per area)" 	"Specific current (per particle area) [A/m^2]" 	"Control volume thickness [m]" 	
"MoleDens LiCoO2 [kmol/m^3]" 	"MoleDens CoO2 [kmol/m^3]" 	"qHeat_accum [J/m3]" 	"qHeat_step [W/m3]" 	"Joule_Lyte [W/m3]" 	"Joule_Solid [W/m3]" 	"electrodHeat [W/m3]" 	"OverpotHeat [W/m3]" 	"deltaSHeat [W/m3]" 	

ZONE T = "CATH, 0.0000E+00", I = 10, SOLUTIONTIME = 0.000000E+00
ZONETYPE = ORDERED
DATAPACKING = BLOCK
STRANDID = 3
 1.2700000000000E-03  1.3377333333333E-03  1.4054666666667E-03  1.4732000000000E-03  1.5409333333333E-03  1.6086666666667E-03  1.6764000000000E-03  1.7441333333333E-03  1.8118666666667E-03  1.8796000000000E-03 
 0.0000000000000E+00  0.0000000000000E+00  0.0000000000000E+00  0.0000000000000E+00  0.0000000000000E+00  0.0000000000000E+00  0.0000000000000E+00  0.0000000000000E+00  0.0000000000000E+00  0.0000000000000E+00 
 9.2000000000000E-01  9.2000000000000E-01  9.2000000000000E-01  9.2000000000000E-01  9.2000000000000E-01  9.2000000000000E-01  9.2000000000000E-01  9.2000000000000E-01  9.2000000000000E-01  9.2000000000000E-01 
 4.0000000000000E-02  4.0000000000000E-02  4.0000000000000E-02  4.0000000000000E-02  4.0000000000000E-02  4.0000000000000E-02  4.0000000000000E-02  4.0000000000000E-02  4.0000000000000E-02  4.0000000000000E-02 
 4.0000000000000E-02  4.0000000000000E-02  4.0000000000000E-02  4.0000000000000E-02  4.0000000000000E-02  4.0000000000000E-02  4.0000000000000E-02  4.0000000000000E-02  4.0000000000000E-02  4.0000000000000E-02 
-7.0000000000000E-02 -7.0000000000000E-02 -7.0000000000000E-02 -7.0000000000000E-02 -7.0000000000000E-02 -7.0000000000000E-02 -7.0000000000000E-02 -7.0000000000000E-02 -7.0000000000000E-02 -7.0000000000000E-02 
 3.8000000000000E+00  3.8000000000000E+00  3.8000000000000E+00  3.8000000000000E+00  3.8000000000000E+00  3.8000000000000E+00  3.8000000000000E+00  3.8000000000000E+00  3.8000000000000E+00  3.8000000000000E+00 
 3.8700000000000E+00  3.8700000000000E+00  3.8700000000000E+00  3.8700000000000E+00  3.8700000000000E+00  3.8700000000000E+00  3.8700000000000E+00  3.8700000000000E+00  3.8700000000000E+00  3.8700000000000E+00 
 3.9714142713289E+00  3.9714142713289E+00  3.9714142713289E+00  3.9714142713289E+00  3.9714142713289E+00  3.9714142713289E+00  3.9714142713289E+00  3.9714142713289E+00  3.9714142713289E+00  3.9714142713289E+00 
-1.0141427132889E-01 -1.0141427132889E-01 -1.0141427132889E-01 -1.0141427132889E-01 -1.0141427132889E-01 -1.0141427132889E-01 -1.0141427132889E-01 -1.0141427132889E-01 -1.0141427132889E-01 -1.0141427132889E-01 
-2.3826357195711E-01 -4.7652714391422E-01 -4.7652714391423E-01 -4.7652714391422E-01 -4.7652714391423E-01 -4.7652714391423E-01 -4.7652714391422E-01 -4.7652714391423E-01 -4.7652714391422E-01 -2.3826357195711E-01 
-0.0000000000000E+00 -0.0000000000000E+00 -0.0000000000000E+00 -0.0000000000000E+00 -0.0000000000000E+00 -0.0000000000000E+00 -0.0000000000000E+00 -0.0000000000000E+00 -0.0000000000000E+00 -0.0000000000000E+00 
 2.3826357195711E-01  0.0000000000000E+00  0.0000000000000E+00  0.0000000000000E+00  0.0000000000000E+00  0.0000000000000E+00  0.0000000000000E+00  0.0000000000000E+00  0.0000000000000E+00  0.0000000000000E+00 
 0.0000000000000E+00 -0.0000000000000E+00 -0.0000000000000E+00 -0.0000000000000E+00 -0.0000000000000E+00 -0.0000000000000E+00 -0.0000000000000E+00 -0.0000000000000E+00 -0.0000000000000E+00  2.3826357195711E-01 
-0.0000000000000E+00 -0.0000000000000E+00 -0.0000000000000E+00 -0.0000000000000E+00 -0.0000000000000E+00 -0.0000000000000E+00 -0.0000000000000E+00 -0.0000000000000E+00 -0.0000000000000E+00 -0.0000000000000E+00 
 7.2440786946225E+03  1.4488157389245E+04  1.4488157389245E+04  1.4488157389245E+04  1.4488157389245E+04  1.4488157389245E+04  1.4488157389245E+04  1.4488157389245E+04  1.4488157389245E+04  7.2440786946225E+03 
 4.9259735123433E+04  9.8519470246865E+04  9.8519470246866E+04  9.8519470246865E+04  9.8519470246866E+04  9.8519470246866E+04  9.8519470246865E+04  9.8519470246866E+04  9.8519470246865E+04  4.9259735123433E+04 
 5.6503813818055E+04  1.1300762763611E+05  1.1300762763611E+05  1.1300762763611E+05  1.1300762763611E+05  1.1300762763611E+05  1.1300762763611E+05  1.1300762763611E+05  1.1300762763611E+05  5.6503813818055E+04 
 3.5000000000000E-01  3.5000000000000E-01  3.5000000000000E-01  3.5000000000000E-01  3.5000000000000E-01  3.5000000000000E-01  3.5000000000000E-01  3.5000000000000E-01  3.5000000000000E-01  3.5000000000000E-01 
 6.6040000000000E+00  1.3208000000000E+01  1.3208000000000E+01  1.3208000000000E+01  1.3208000000000E+01  1.3208000000000E+01  1.3208000000000E+01  1.3208000000000E+01  1.3208000000000E+01  6.6040000000000E+00 
-3.6078675341780E-02 -3.6078675341780E-02 -3.6078675341780E-02 -3.6078675341780E-02 -3.6078675341780E-02 -3.6078675341780E-02 -3.6078675341780E-02 -3.6078675341780E-02 -3.6078675341780E-02 -3.6078675341780E-02 
 3.3866666666667E-05  6.7733333333333E-05  6.7733333333334E-05  6.7733333333333E-05  6.7733333333334E-05  6.7733333333334E-05  6.7733333333333E-05  6.7733333333334E-05  6.7733333333333E-05  3.3866666666667E-05 
 2.6603001364256E+01  2.6603001364256E+01  2.6603001364256E+01  2.6603001364256E+01  2.6603001364256E+01  2.6603001364256E+01  2.6603001364256E+01  2.6603001364256E+01  2.6603001364256E+01  2.6603001364256E+01 
 1.7735334242838E+01  1.7735334242838E+01  1.7735334242838E+01  1.7735334242838E+01  1.7735334242838E+01  1.7735334242838E+01  1.7735334242838E+01  1.7735334242838E+01  1.7735334242838E+01  1.7735334242838E+01 
 0.0000000000000E+00  0.0000000000000E+00  0.0000000000000E+00  0.0000000000000E+00  0.0000000000000E+00  0.0000000000000E+00  0.0000000000000E+00  0.0000000000000E+00  0.0000000000000E+00  0.0000000000000E+00 
 0.0000000000000E+00  0.0000000000000E+00  0.0000000000000E+00  0.0000000000000E+00  0.0000000000000E+00  0.0000000000000E+00  0.0000000000000E+00  0.0000000000000E+00  0.0000000000000E+00  0.0000000000000E+00 
 0.0000000000000E+00  0.0000000000000E+00  0.0000000000000E+00  0.0000000000000E+00  0.0000000000000E+00  0.0000000000000E+00  0.0000000000000E+00  0.0000000000000E+00  0.0000000000000E+00  0.0000000000000E+00 
 0.0000000000000E+00  0.0000000000000E+00  0.0000000000000E+00  0.0000000000000E+00  0.0000000000000E+00  0.0000000000000E+00  0.0000000000000E+00  0.0000000000000E+00  0.0000000000000E+00  0.0000000000000E+00 
 0.0000000000000E+00  0.0000000000000E+00  0.0000000000000E+00  0.0000000000000E+00  0.0000000000000E+00  0.0000000000000E+00  0.0000000000000E+00  0.0000000000000E+00  0.0000000000000E+00  0.0000000000000E+00 
 0.0000000000000E+00  0.0000000000000E+00  0.0000000000000E+00  0.0000000000000E+00  0.0000000000000E+00  0.0000000000000E+00  0.0000000000000E+00  0.0000000000000E+00  0.0000000000000E+00  0.0000000000000E+00 
 0.0000000000000E+00  0.0000000000000E+00  0.0000000000000E+00  0.0000000000000E+00  0.0000000000000E+00  0.0000000000000E+00  0.0000000000000E+00  0.0000000000000E+00  0.0000000000000E+00  0.0000000000000E+00 
ZONE T = "CATH, 1.0000E-08", I = 10, SOLUTIONTIME = 1.000000E-08
ZONETYPE = ORDERED
DATAPACKING = BLOCK
STRANDID = 3
 1.2700000000000E-03  1.3377333333333E-03  1.4054666666667E-03  1.4732000000000E-03  1.5409333333333E-03  1.6086666666667E-03  1.6764000000000E-03  1.7441333333333E-03  1.8118666666667E-03  1.8796000000000E-03 
 1.9704411308154E-08  1.7388882261439E-08  1.5072706695380E-08  1.2756778665033E-08  1.0439449608949E-08  8.1212499852253E-09  5.8027099573561E-09  3.4821800827090E-09  1.1601897385244E-09 -1.6344350060166E-12 
 9.2000000000037E-01  9.2000000000090E-01  9.2000000000090E-01  9.2000000000090E-01  9.2000000000090E-01  9.2000000000090E-01  9.2000000000090E-01  9.2000000000090E-01  9.2000000000090E-01  9.2000000000090E-01 
 3.9999999999813E-02  3.9999999999551E-02  3.9999999999551E-02  3.9999999999551E-02  3.9999999999550E-02  3.9999999999550E-02  3.9999999999550E-02  3.9999999999550E-02  3.9999999999550E-02  3.9999999999549E-02 
 3.9999999999813E-02  3.9999999999551E-02  3.9999999999551E-02  3.9999999999551E-02  3.9999999999550E-02  3.9999999999550E-02  3.9999999999550E-02  3.9999999999550E-02  3.9999999999550E-02  3.9999999999549E-02 
 2.9165472200633E-02  2.9165265191493E-02  2.9165082508218E-02  2.9164924153784E-02  2.9164790133221E-02  2.9164680453617E-02  2.9164595124118E-02  2.9164534155932E-02  2.9164497562330E-02  2.9164485358657E-02 
 3.8001746412144E+00  3.8001724863364E+00  3.8001660215389E+00  3.8001552462945E+00  3.8001401597120E+00  3.8001207605355E+00  3.8000970471449E+00  3.8000690175543E+00  3.8000366694121E+00  3.8000000000000E+00 
 3.7710091690138E+00  3.7710072211449E+00  3.7710009390307E+00  3.7709903221407E+00  3.7709753695787E+00  3.7709560800819E+00  3.7709324520208E+00  3.7709044833984E+00  3.7708721718498E+00  3.7708355146413E+00 
 3.9714142713287E+00  3.9714142713285E+00  3.9714142713285E+00  3.9714142713285E+00  3.9714142713285E+00  3.9714142713285E+00  3.9714142713285E+00  3.9714142713285E+00  3.9714142713285E+00  3.9714142713285E+00 
-2.0040510231489E-01 -2.0040705018359E-01 -2.0041333229784E-01 -2.0042394918778E-01 -2.0043890174979E-01 -2.0045819124660E-01 -2.0048181930776E-01 -2.0050978793017E-01 -2.0054209947873E-01 -2.0057875668718E-01 
-1.6672202311954E+00 -3.3345669678033E+00 -3.3349749958077E+00 -3.3356646840321E+00 -3.3366362651667E+00 -3.3378900671298E+00 -3.3394265133044E+00 -3.3412461228415E+00 -3.3433495110340E+00 -1.6728686948797E+00 
 1.4705067562107E-07  1.2977048860067E-07  1.1248830683989E-07  9.5202551346630E-08  7.7911761451643E-08  6.0614474780033E-08  4.3309226771969E-08  2.5994550173365E-08  8.6689745460038E-09  8.6689745460038E-09 
 3.0043664992871E+01  2.6709171633553E+01  2.3374421381799E+01  2.0039122321646E+01  1.6702992703051E+01  1.3365750494942E+01  1.0027113290537E+01  6.6867982131755E+00  3.3445218188220E+00  0.0000000000000E+00 
 0.0000000000000E+00  3.3344830094468E+00  6.6692332611856E+00  1.0004532321171E+01  1.3340661940034E+01  1.6677904148091E+01  2.0016541352225E+01  2.3356856429694E+01  2.6699132824160E+01  3.0043665514526E+01 
 1.6672202311954E-08  3.3345669678033E-08  3.3349749958077E-08  3.3356646840321E-08  3.3366362651667E-08  3.3378900671298E-08  3.3394265133044E-08  3.3412461228415E-08  3.3433495110340E-08  1.6728686948797E-08 
 7.2440786946392E+03  1.4488157389278E+04  1.4488157389278E+04  1.4488157389278E+04  1.4488157389278E+04  1.4488157389278E+04  1.4488157389278E+04  1.4488157389278E+04  1.4488157389278E+04  7.2440786946392E+03 
 4.9259735123416E+04  9.8519470246832E+04  9.8519470246832E+04  9.8519470246832E+04  9.8519470246832E+04  9.8519470246832E+04  9.8519470246832E+04  9.8519470246832E+04  9.8519470246832E+04  4.9259735123416E+04 
 5.6503813818055E+04  1.1300762763611E+05  1.1300762763611E+05  1.1300762763611E+05  1.1300762763611E+05  1.1300762763611E+05  1.1300762763611E+05  1.1300762763611E+05  1.1300762763611E+05  5.6503813818055E+04 
 3.5000000000000E-01  3.5000000000000E-01  3.5000000000000E-01  3.5000000000000E-01  3.5000000000000E-01  3.5000000000000E-01  3.5000000000000E-01  3.5000000000000E-01  3.5000000000000E-01  3.5000000000000E-01 
 6.6040000000000E+00  1.3208000000000E+01  1.3208000000000E+01  1.3208000000000E+01  1.3208000000000E+01  1.3208000000000E+01  1.3208000000000E+01  1.3208000000000E+01  1.3208000000000E+01  6.6040000000000E+00 
-2.5245612222825E-01 -2.5246570016681E-01 -2.5249659265654E-01 -2.5254881011752E-01 -2.5262237016707E-01 -2.5271729763248E-01 -2.5283362456878E-01 -2.5297139028176E-01 -2.5313064135630E-01 -2.5331143168983E-01 
 3.3866666666667E-05  6.7733333333333E-05  6.7733333333334E-05  6.7733333333333E-05  6.7733333333334E-05  6.7733333333334E-05  6.7733333333333E-05  6.7733333333334E-05  6.7733333333333E-05  3.3866666666667E-05 
 2.6603001364262E+01  2.6603001364262E+01  2.6603001364262E+01  2.6603001364262E+01  2.6603001364262E+01  2.6603001364262E+01  2.6603001364262E+01  2.6603001364262E+01  2.6603001364262E+01  2.6603001364262E+01 
 1.7735334242833E+01  1.7735334242833E+01  1.7735334242833E+01  1.7735334242833E+01  1.7735334242833E+01  1.7735334242833E+01  1.7735334242833E+01  1.7735334242833E+01  1.7735334242833E+01  1.7735334242833E+01 
 1.3976600399473E-09  3.4234911975178E-09  9.6095639250234E-09  2.0065862510727E-08  3.4795919002525E-08  5.3804710938871E-08  7.7098664928962E-08  1.0468566125693E-07  1.3657503954477E-07  1.5359658303440E-07 
 1.3976600399473E-01  3.4234911975178E-01  9.6095639250234E-01  2.0065862510727E+00  3.4795919002525E+00  5.3804710938871E+00  7.7098664928962E+00  1.0468566125693E+01  1.3657503954477E+01  1.5359658303440E+01 
 8.6725148979358E-02  7.7132771633884E-02  5.9144637703701E-02  4.3549627667839E-02  3.0347910739072E-02  1.9540465603933E-02  1.1129081816257E-02  5.1163617769539E-03  1.5057232889792E-03  3.0140271015885E-04 
 5.3040855015370E-02  2.6521634811790E-01  9.0181175479864E-01  1.9630366234049E+00  3.4492439895134E+00  5.3609306282831E+00  7.6987374110800E+00  1.0463449763917E+01  1.3655998231188E+01  1.5359356900730E+01 
 0.0000000000000E+00  0.0000000000000E+00  0.0000000000000E+00  0.0000000000000E+00  0.0000000000000E+00  0.0000000000000E+00  0.0000000000000E+00  0.0000000000000E+00  0.0000000000000E+00  0.0000000000000E+00 
 0.0000000000000E+00  0.0000000000000E+00  0.0000000000000E+00  0.0000000000000E+00  0.0000000000000E+00  0.0000000000000E+00  0.0000000000000E+00  0.0000000000000E+00  0.0000000000000E+00  0.0000000000000E+00 
 0.0000000000000E+00  0.0000000000000E+00  0.0000000000000E+00  0.0000000000000E+00  0.0000000000000E+00  0.0000000000000E+00  0.0000000000000E+00  0.0000000000000E+00  0.0000000000000E+00  0.0000000000000E+00 
ZONE T = "CATH, 2.0000E-08", I = 10, SOLUTIONTIME = 2.000000E-08
ZONETYPE = ORDERED
DATAPACKING = BLOCK
STRANDID = 3
 1.2700000000000E-03  1.3377333333333E-03  1.4054666666667E-03  1.4732000000000E-03  1.5409333333333E-03  1.6086666666667E-03  1.6764000000000E-03  1.7441333333333E-03  1.8118666666667E-03  1.8796000000000E-03 
 1.9701449184926E-08  1.7386268886143E-08  1.5070078833019E-08  1.2753409853220E-08  1.0436429405101E-08  8.1185783038428E-09  5.7996602783456E-09  3.4787522815395E-09  1.1567468777159E-09 -5.0849081888906E-12 
 9.2000000000075E-01  9.2000000000180E-01  9.2000000000180E-01  9.2000000000180E-01  9.2000000000180E-01  9.2000000000180E-01  9.2000000000180E-01  9.2000000000180E-01  9.2000000000180E-01  9.2000000000180E-01 
 3.9999999999625E-02  3.9999999999101E-02  3.9999999999101E-02  3.9999999999101E-02  3.9999999999101E-02  3.9999999999100E-02  3.9999999999100E-02  3.9999999999100E-02  3.9999999999099E-02  3.9999999999098E-02 
 3.9999999999625E-02  3.9999999999101E-02  3.9999999999101E-02  3.9999999999101E-02  3.9999999999101E-02  3.9999999999100E-02  3.9999999999100E-02  3.9999999999100E-02  3.9999999999099E-02  3.9999999999098E-02 
 2.9165475004514E-02  2.9165267994059E-02  2.9165085309621E-02  2.9164926954176E-02  2.9164792932756E-02  2.9164683252447E-02  2.9164597922398E-02  2.9164536953817E-02  2.9164500359977E-02  2.9164488156224E-02 
 3.8001746423132E+00  3.8001724874217E+00  3.8001660225838E+00  3.8001552472721E+00  3.8001401605952E+00  3.8001207612972E+00  3.8000970477577E+00  3.8000690179907E+00  3.8000366696443E+00  3.8000000000000E+00 
 3.7710091673087E+00  3.7710072194277E+00  3.7710009372742E+00  3.7709903203180E+00  3.7709753676624E+00  3.7709560780448E+00  3.7709324498353E+00  3.7709044810369E+00  3.7708721692844E+00  3.7708355118438E+00 
 3.9714142713285E+00  3.9714142713282E+00  3.9714142713282E+00  3.9714142713282E+00  3.9714142713282E+00  3.9714142713282E+00  3.9714142713282E+00  3.9714142713282E+00  3.9714142713282E+00  3.9714142713282E+00 
-2.0040510401981E-01 -2.0040705190047E-01 -2.0041333405393E-01 -2.0042395101018E-01 -2.0043890366571E-01 -2.0045819328337E-01 -2.0048182149287E-01 -2.0050979029130E-01 -2.0054210204380E-01 -2.0057875948438E-01 
-1.6672202865533E+00 -3.3345670792896E+00 -3.3349751098538E+00 -3.3356648024103E+00 -3.3366363896570E+00 -3.3378901995234E+00 -3.3394266554068E+00 -3.3412462764762E+00 -3.3433496780452E+00 -1.6728687860080E+00 
 1.4705172904359E-07  1.2977131462386E-07  1.1248902476124E-07  9.5203160820854E-08  7.7912261993244E-08  6.0614865749796E-08  4.3309507381677E-08  2.5994719498822E-08  8.6690315023618E-09  8.6690315023618E-09 
 3.0043845263088E+01  2.6709341437102E+01  2.3374570342561E+01  2.0039250386165E+01  1.6703099790239E+01  1.3365836495890E+01  1.0027178068277E+01  6.6868416022030E+00  3.3445436250984E+00  0.0000000000000E+00 
 0.0000000000000E+00  3.3345038262326E+00  6.6692749206979E+00  1.0004594877009E+01  1.3340745472942E+01  1.6678008767501E+01  2.0016667195057E+01  2.3357003660870E+01  2.6699301638151E+01  3.0043845263278E+01 
 3.3344405177487E-08  6.6691340470928E-08  6.6699501056615E-08  6.6713294864425E-08  6.6732726548237E-08  6.6757802666532E-08  6.6788531687112E-08  6.6824923993177E-08  6.6866991890792E-08  3.3457374808877E-08 
 7.2440786946558E+03  1.4488157389312E+04  1.4488157389312E+04  1.4488157389312E+04  1.4488157389312E+04  1.4488157389312E+04  1.4488157389312E+04  1.4488157389312E+04  1.4488157389312E+04  7.2440786946559E+03 
 4.9259735123400E+04  9.8519470246798E+04  9.8519470246799E+04  9.8519470246798E+04  9.8519470246799E+04  9.8519470246799E+04  9.8519470246798E+04  9.8519470246799E+04  9.8519470246798E+04  4.9259735123399E+04 
 5.6503813818055E+04  1.1300762763611E+05  1.1300762763611E+05  1.1300762763611E+05  1.1300762763611E+05  1.1300762763611E+05  1.1300762763611E+05  1.1300762763611E+05  1.1300762763611E+05  5.6503813818055E+04 
 3.5000000000000E-01  3.5000000000000E-01  3.5000000000000E-01  3.5000000000000E-01  3.5000000000000E-01  3.5000000000000E-01  3.5000000000000E-01  3.5000000000000E-01  3.5000000000000E-01  3.5000000000000E-01 
 6.6040000000000E+00  1.3208000000000E+01  1.3208000000000E+01  1.3208000000000E+01  1.3208000000000E+01  1.3208000000000E+01  1.3208000000000E+01  1.3208000000000E+01  1.3208000000000E+01  6.6040000000000E+00 
-2.5245613061074E-01 -2.5246570860763E-01 -2.5249660129117E-01 -2.5254881908013E-01 -2.5262237959244E-01 -2.5271730765622E-01 -2.5283363532759E-01 -2.5297140191370E-01 -2.5313065400100E-01 -2.5331144548879E-01 
 3.3866666666667E-05  6.7733333333333E-05  6.7733333333334E-05  6.7733333333333E-05  6.7733333333334E-05  6.7733333333334E-05  6.7733333333333E-05  6.7733333333334E-05  6.7733333333333E-05  3.3866666666667E-05 
 2.6603001364267E+01  2.6603001364267E+01  2.6603001364267E+01  2.6603001364267E+01  2.6603001364267E+01  2.6603001364267E+01  2.6603001364267E+01  2.6603001364267E+01  2.6603001364267E+01  2.6603001364267E+01 
 1.7735334242827E+01  1.7735334242827E+01  1.7735334242827E+01  1.7735334242827E+01  1.7735334242827E+01  1.7735334242827E+01  1.7735334242827E+01  1.7735334242827E+01  1.7735334242827E+01  1.7735334242827E+01 
 2.7953377164232E-09  6.8470253179004E-09  1.9219248061726E-08  4.0131976098503E-08  6.9592273889857E-08  1.0761009703627E-07  1.5419829942547E-07  2.0937264245266E-07  2.7315180635616E-07  3.0719511137218E-07 
 1.3976776764759E-01  3.4235341203826E-01  9.6096841367028E-01  2.0066113587776E+00  3.4796354887331E+00  5.3805386097399E+00  7.7099634496504E+00  1.0468698119572E+01  1.3657676681139E+01  1.5359852833778E+01 
 8.6726250542296E-02  7.7133752313206E-02  5.9145391471870E-02  4.3550184227857E-02  3.0348299811302E-02  1.9540717009064E-02  1.1129225560990E-02  5.1164281385579E-03  1.5057429036384E-03  3.0140666052773E-04 
 5.3041517105292E-02  2.6521965972505E-01  9.0182302219841E-01  1.9630611745498E+00  3.4492871889218E+00  5.3609978927308E+00  7.6988342240894E+00  1.0463581691434E+01  1.3656170938236E+01  1.5359551427117E+01 
 0.0000000000000E+00  0.0000000000000E+00  0.0000000000000E+00  0.0000000000000E+00  0.0000000000000E+00  0.0000000000000E+00  0.0000000000000E+00  0.0000000000000E+00  0.0000000000000E+00  0.0000000000000E+00 
 0.0000000000000E+00  0.0000000000000E+00  0.0000000000000E+00  0.0000000000000E+00  0.0000000000000E+00  0.0000000000000E+00  0.0000000000000E+00  0.0000000000000E+00  0.0000000000000E+00  0.0000000000000E+00 
 0.0000000000000E+00  0.0000000000000E+00  0.0000000000000E+00  0.0000000000000E+00  0.0000000000000E+00  0.0000000000000E+00  0.0000000000000E+00  0.0000000000000E+00  0.0000000000000E+00  0.0000000000000E+00 
ZONE T = "CATH, 3.0000E-08", I = 10, SOLUTIONTIME = 3.000000E-08
ZONETYPE = ORDERED
DATAPACKING = BLOCK
STRANDID = 3
 1.2700000000000E-03  1.3377333333333E-03  1.4054666666667E-03  1.4732000000000E-03  1.5409333333333E-03  1.6086666666667E-03  1.6764000000000E-03  1.7441333333333E-03  1.8118666666667E-03  1.8796000000000E-03 
 1.9706534092830E-08  1.7390627378625E-08  1.5075163740989E-08  1.2758494761224E-08  1.0441151105411E-08  8.1233000041865E-09  5.8043819787228E-09  3.4849268128614E-09  1.1632846167993E-09  1.8160386391312E-12 
 9.2000000000112E-01  9.2000000000270E-01  9.2000000000270E-01  9.2000000000270E-01  9.2000000000270E-01  9.2000000000270E-01  9.2000000000270E-01  9.2000000000270E-01  9.2000000000270E-01  9.2000000000270E-01 
 3.9999999999438E-02  3.9999999998652E-02  3.9999999998652E-02  3.9999999998652E-02  3.9999999998651E-02  3.9999999998651E-02  3.9999999998650E-02  3.9999999998649E-02  3.9999999998649E-02  3.9999999998648E-02 
 3.9999999999438E-02  3.9999999998652E-02  3.9999999998652E-02  3.9999999998652E-02  3.9999999998651E-02  3.9999999998651E-02  3.9999999998650E-02  3.9999999998649E-02  3.9999999998649E-02  3.9999999998648E-02 
 2.9165475004443E-02  2.9165267993988E-02  2.9165085309550E-02  2.9164926954105E-02  2.9164792932684E-02  2.9164683252376E-02  2.9164597922327E-02  2.9164536953745E-02  2.9164500359906E-02  2.9164488156152E-02 
 3.8001746423132E+00  3.8001724874217E+00  3.8001660225838E+00  3.8001552472721E+00  3.8001401605952E+00  3.8001207612972E+00  3.8000970477577E+00  3.8000690179907E+00  3.8000366696443E+00  3.8000000000000E+00 
 3.7710091673088E+00  3.7710072194277E+00  3.7710009372743E+00  3.7709903203180E+00  3.7709753676625E+00  3.7709560780449E+00  3.7709324498354E+00  3.7709044810369E+00  3.7708721692844E+00  3.7708355118438E+00 
 3.9714142713283E+00  3.9714142713278E+00  3.9714142713278E+00  3.9714142713278E+00  3.9714142713278E+00  3.9714142713278E+00  3.9714142713278E+00  3.9714142713278E+00  3.9714142713278E+00  3.9714142713278E+00 
-2.0040510401954E-01 -2.0040705190004E-01 -2.0041333405349E-01 -2.0042395100975E-01 -2.0043890366527E-01 -2.0045819328293E-01 -2.0048182149243E-01 -2.0050979029086E-01 -2.0054210204336E-01 -2.0057875948394E-01 
-1.6672202865402E+00 -3.3345670792415E+00 -3.3349751098057E+00 -3.3356648023622E+00 -3.3366363896088E+00 -3.3378901994752E+00 -3.3394266553586E+00 -3.3412462764278E+00 -3.3433496779968E+00 -1.6728687859837E+00 
 1.4705184857425E-07  1.2977131465109E-07  1.1248902480189E-07  9.5203160876704E-08  7.7912262070827E-08  6.0614865844601E-08  4.3309507494154E-08  2.5994719625171E-08  8.6690316484081E-09  8.6690316484081E-09 
 3.0043845262849E+01  2.6709341436610E+01  2.3374570342061E+01  2.0039250386178E+01  1.6703099790051E+01  1.3365836495502E+01  1.0027178068164E+01  6.6868416021277E+00  3.3445436250607E+00  0.0000000000000E+00 
 0.0000000000000E+00  3.3345038260608E+00  6.6692749206979E+00  1.0004594876837E+01  1.3340745472771E+01  1.6678008767329E+01  2.0016667194713E+01  2.3357003660526E+01  2.6699301637808E+01  3.0043845262910E+01 
 5.0016608042889E-08  1.0003701126334E-07  1.0004925215467E-07  1.0006994288805E-07  1.0009909044432E-07  1.0013670466128E-07  1.0018279824070E-07  1.0023738675746E-07  1.0030048867076E-07  5.0186062668714E-08 
 7.2440786946725E+03  1.4488157389345E+04  1.4488157389345E+04  1.4488157389345E+04  1.4488157389345E+04  1.4488157389345E+04  1.4488157389345E+04  1.4488157389345E+04  1.4488157389345E+04  7.2440786946727E+03 
 4.9259735123383E+04  9.8519470246765E+04  9.8519470246766E+04  9.8519470246765E+04  9.8519470246766E+04  9.8519470246766E+04  9.8519470246765E+04  9.8519470246766E+04  9.8519470246765E+04  4.9259735123383E+04 
 5.6503813818055E+04  1.1300762763611E+05  1.1300762763611E+05  1.1300762763611E+05  1.1300762763611E+05  1.1300762763611E+05  1.1300762763611E+05  1.1300762763611E+05  1.1300762763611E+05  5.6503813818055E+04 
 3.5000000000000E-01  3.5000000000000E-01  3.5000000000000E-01  3.5000000000000E-01  3.5000000000000E-01  3.5000000000000E-01  3.5000000000000E-01  3.5000000000000E-01  3.5000000000000E-01  3.5000000000000E-01 
 6.6040000000000E+00  1.3208000000000E+01  1.3208000000000E+01  1.3208000000000E+01  1.3208000000000E+01  1.3208000000000E+01  1.3208000000000E+01  1.3208000000000E+01  1.3208000000000E+01  6.6040000000000E+00 
-2.5245613060875E-01 -2.5246570860399E-01 -2.5249660128753E-01 -2.5254881907648E-01 -2.5262237958879E-01 -2.5271730765258E-01 -2.5283363532394E-01 -2.5297140191004E-01 -2.5313065399733E-01 -2.5331144548512E-01 
 3.3866666666667E-05  6.7733333333333E-05  6.7733333333334E-05  6.7733333333333E-05  6.7733333333334E-05  6.7733333333334E-05  6.7733333333333E-05  6.7733333333334E-05  6.7733333333333E-05  3.3866666666667E-05 
 2.6603001364272E+01  2.6603001364272E+01  2.6603001364272E+01  2.6603001364272E+01  2.6603001364272E+01  2.6603001364272E+01  2.6603001364272E+01  2.6603001364272E+01  2.6603001364272E+01  2.6603001364272E+01 
 1.7735334242822E+01  1.7735334242822E+01  1.7735334242822E+01  1.7735334242822E+01  1.7735334242822E+01  1.7735334242822E+01  1.7735334242822E+01  1.7735334242822E+01  1.7735334242822E+01  1.7735334242822E+01 
 4.1930153926735E-09  1.0270559438154E-08  2.8828932198410E-08  6.0198089685519E-08  1.0438862877642E-07  1.6141548313246E-07  2.3129793391934E-07  3.1405962364532E-07  4.0972857316405E-07  4.6079363970623E-07 
 1.3976776762504E-01  3.4235341202532E-01  9.6096841366833E-01  2.0066113587015E+00  3.4796354886564E+00  5.3805386096186E+00  7.7099634493878E+00  1.0468698119266E+01  1.3657676680789E+01  1.5359852833406E+01 
 8.6726250541606E-02  7.7133752311199E-02  5.9145391469923E-02  4.3550184228309E-02  3.0348299811132E-02  1.9540717008074E-02  1.1129225560865E-02  5.1164281385003E-03  1.5057429036214E-03  3.0140666052433E-04 
 5.3041517083430E-02  2.6521965971412E-01  9.0182302219841E-01  1.9630611744732E+00  3.4492871888453E+00  5.3609978926106E+00  7.6988342238269E+00  1.0463581691127E+01  1.3656170937886E+01  1.5359551426745E+01 
 0.0000000000000E+00  0.0000000000000E+00  0.0000000000000E+00  0.0000000000000E+00  0.0000000000000E+00  0.0000000000000E+00  0.0000000000000E+00  0.0000000000000E+00  0.0000000000000E+00  0.0000000000000E+00 
 0.0000000000000E+00  0.0000000000000E+00  0.0000000000000E+00  0.0000000000000E+00  0.0000000000000E+00  0.0000000000000E+00  0.0000000000000E+00  0.0000000000000E+00  0.0000000000000E+00  0.0000000000000E+00 
 0.0000000000000E+00  0.0000000000000E+00  0.0000000000000E+00  0.0000000000000E+00  0.0000000000000E+00  0.0000000000000E+00  0.0000000000000E+00  0.0000000000000E+00  0.0000000000000E+00  0.0000000000000E+00 
ZONE T = "CATH, 4.0000E-08", I = 10, SOLUTIONTIME = 4.000000E-08
ZONETYPE = ORDERED
DATAPACKING = BLOCK
STRANDID = 3
 1.2700000000000E-03  1.3377333333333E-03  1.4054666666667E-03  1.4732000000000E-03  1.5409333333333E-03  1.6086666666667E-03  1.6764000000000E-03  1.7441333333333E-03  1.8118666666667E-03  1.8796000000000E-03 
 1.9702357203675E-08  1.7387176904959E-08  1.5070986851901E-08  1.2754317872170E-08  1.0437700631846E-08  8.1198495306545E-09  5.8009315052244E-09  3.4803867162133E-09  1.1594709356406E-09 -1.9976425026633E-12 
 9.2000000000150E-01  9.2000000000359E-01  9.2000000000359E-01  9.2000000000360E-01  9.2000000000360E-01  9.2000000000360E-01  9.2000000000360E-01  9.2000000000360E-01  9.2000000000360E-01  9.2000000000361E-01 
 3.9999999999251E-02  3.9999999998203E-02  3.9999999998203E-02  3.9999999998202E-02  3.9999999998202E-02  3.9999999998201E-02  3.9999999998200E-02  3.9999999998199E-02  3.9999999998198E-02  3.9999999998197E-02 
 3.9999999999251E-02  3.9999999998203E-02  3.9999999998203E-02  3.9999999998202E-02  3.9999999998202E-02  3.9999999998201E-02  3.9999999998200E-02  3.9999999998199E-02  3.9999999998198E-02  3.9999999998197E-02 
 2.9165475004368E-02  2.9165267993914E-02  2.9165085309476E-02  2.9164926954031E-02  2.9164792932610E-02  2.9164683252302E-02  2.9164597922253E-02  2.9164536953671E-02  2.9164500359831E-02  2.9164488156078E-02 
 3.8001746423132E+00  3.8001724874217E+00  3.8001660225838E+00  3.8001552472721E+00  3.8001401605952E+00  3.8001207612972E+00  3.8000970477577E+00  3.8000690179907E+00  3.8000366696443E+00  3.8000000000000E+00 
 3.7710091673088E+00  3.7710072194278E+00  3.7710009372744E+00  3.7709903203181E+00  3.7709753676626E+00  3.7709560780449E+00  3.7709324498354E+00  3.7709044810370E+00  3.7708721692845E+00  3.7708355118439E+00 
 3.9714142713281E+00  3.9714142713274E+00  3.9714142713274E+00  3.9714142713274E+00  3.9714142713274E+00  3.9714142713274E+00  3.9714142713274E+00  3.9714142713274E+00  3.9714142713274E+00  3.9714142713274E+00 
-2.0040510401927E-01 -2.0040705189960E-01 -2.0041333405305E-01 -2.0042395100931E-01 -2.0043890366483E-01 -2.0045819328249E-01 -2.0048182149199E-01 -2.0050979029042E-01 -2.0054210204292E-01 -2.0057875948349E-01 
-1.6672202865270E+00 -3.3345670791932E+00 -3.3349751097575E+00 -3.3356648023139E+00 -3.3366363895604E+00 -3.3378901994268E+00 -3.3394266553101E+00 -3.3412462763793E+00 -3.3433496779482E+00 -1.6728687859594E+00 