TITLE = "Solution on Domain BulkDomain1D_0"
VARIABLES = "x [m]"  
"Vel_axial(0)" 	"MF_sp(ECDMC)" 	"MF_sp(Li+)" 	"MF_sp(PF6-)" 	"Volt(Electroly)" 	"Volt(AnodeVolt)" 	
"Potential Drop Electrode-Electrolyte [V]" 	"Surf_0 Equilibrium Potential Drop Electrode-Electrolyte [V]" 	"Overpotential_0 [V]" 	"Current Source [A/m^2]" 	"Li+ flux [kmol/m^2/s]" 	"Electrolyte Current [A/m^2]" 	"Electrode Current [A/m^2]" 	
"Capacity discharged [A-s]" 	"Depth of discharge [-]" 	"Capacity remaining [A-s]" 	"Initial capacity [A-s]" 	"Porosity []" 	"Surface Area [m2/m2] (area per area)" 	"Specific current (per particle area) [A/m^2]" 	"Control volume thickness [m]" 	
"Moles Li_C6-bulk [mol/m^2] (per electrode area)" 	"Moles V_C6-bulk [mol/m^2] (per electrode area)" 	"qHeat_accum [J/m3]" 	"qHeat_step [W/m3]" 	"Joule_Lyte [W/m3]" 	"Joule_Solid [W/m3]" 	"electrodHeat [W/m3]" 	"OverpotHeat [W/m3]" 	"deltaSHeat [W/m3]" 	

ZONE T = "t = 0 [s]" I = 10 SOLUTIONTIME = 0.0000000000000E+00
0 	0 	0.92 	0.04 	0.04 	-0.07 	0 	
0 	0 	0 	0 	0 	0 	15.4651 	
0 	0 	0 	0 	0.35 	8.53017 	3.62598 	4.37444e-05 	
0.00379119 	0.000947796 	0 	0.0 	 0.0 	 0.0 	 0.0 	 0.0 	 0.0 	 
8.74889e-05 	0 	0.92 	0.04 	0.04 	-0.07 	0 	
0 	0 	0 	0 	0 	0 	-0 	
0 	0 	0 	0 	0.35 	17.0603 	3.62598 	8.74889e-05 	
0.00758237 	0.00189559 	0 	0.0 	 0.0 	 0.0 	 0.0 	 0.0 	 0.0 	 
0.000174978 	0 	0.92 	0.04 	0.04 	-0.07 	0 	
0 	0 	0 	0 	0 	0 	-0 	
0 	0 	0 	0 	0.35 	17.0603 	3.62598 	8.74889e-05 	
0.00758237 	0.00189559 	0 	0.0 	 0.0 	 0.0 	 0.0 	 0.0 	 0.0 	 
0.000262467 	0 	0.92 	0.04 	0.04 	-0.07 	0 	
0 	0 	0 	0 	0 	0 	-0 	
0 	0 	0 	0 	0.35 	17.0603 	3.62598 	8.74889e-05 	
0.00758237 	0.00189559 	0 	0.0 	 0.0 	 0.0 	 0.0 	 0.0 	 0.0 	 
0.000349956 	0 	0.92 	0.04 	0.04 	-0.07 	0 	
0 	0 	0 	0 	0 	0 	-0 	
0 	0 	0 	0 	0.35 	17.0603 	3.62598 	8.74889e-05 	
0.00758237 	0.00189559 	0 	0.0 	 0.0 	 0.0 	 0.0 	 0.0 	 0.0 	 
0.000437444 	0 	0.92 	0.04 	0.04 	-0.07 	0 	
0 	0 	0 	0 	0 	0 	-0 	
0 	0 	0 	0 	0.35 	17.0603 	3.62598 	8.74889e-05 	
0.00758237 	0.00189559 	0 	0.0 	 0.0 	 0.0 	 0.0 	 0.0 	 0.0 	 
0.000524933 	0 	0.92 	0.04 	0.04 	-0.07 	0 	
0 	0 	0 	0 	0 	0 	-0 	
0 	0 	0 	0 	0.35 	17.0603 	3.62598 	8.74889e-05 	
0.00758237 	0.00189559 	0 	0.0 	 0.0 	 0.0 	 0.0 	 0.0 	 0.0 	 
0.000612422 	0 	0.92 	0.04 	0.04 	-0.07 	0 	
0 	0 	0 	0 	0 	0 	-0 	
0 	0 	0 	0 	0.35 	17.0603 	3.62598 	8.74889e-05 	
0.00758237 	0.00189559 	0 	0.0 	 0.0 	 0.0 	 0.0 	 0.0 	 0.0 	 
0.000699911 	0 	0.92 	0.04 	0.04 	-0.07 	0 	
0 	0 	0 	0 	0 	0 	-0 	
0 	0 	0 	0 	0.35 	17.0603 	3.62598 	8.74889e-05 	
0.00758237 	0.00189559 	0 	0.0 	 0.0 	 0.0 	 0.0 	 0.0 	 0.0 	 
0.0007874 	0 	0.92 	0.04 	0.04 	-0.07 	0 	
0 	0 	0 	0 	0 	15.4651 	0 	
0 	0 	0 	0 	0.35 	8.53017 	3.62598 	4.37444e-05 	
0.00379119 	0.000947796 	0 	0.0 	 0.0 	 0.0 	 0.0 	 0.0 	 0.0 	 
ZONE T = "t = 1e-08 [s]" I = 10 SOLUTIONTIME = 1.0000000000000E-08
0 	1.98164e-09 	0.92 	0.04 	0.04 	0.0211503 	0 	
0.07 	-0.0409067 	0.110907 	30.9302 	-0 	1.42686 	49.9419 	
0 	45724.2 	848.03 	962.628 	0.35 	8.53017 	0.334544 	4.37444e-05 	
0.00379119 	0.000947796 	0 	0 	0 	0 	0 	0 	0 	
8.74889e-05 	5.94491e-09 	0.92 	0.04 	0.04 	0.0211502 	-6.53004e-09 	
0.07 	-0.0409067 	0.110907 	61.8605 	-0 	5.70743 	45.6613 	
0 	91448.4 	1696.06 	1925.26 	0.35 	17.0603 	0.334544 	8.74889e-05 	
0.00758237 	0.00189559 	0 	0 	0 	0 	0 	0 	0 	
0.000174978 	9.9082e-09 	0.92 	0.04 	0.04 	0.0211502 	-1.22919e-08 	
0.07 	-0.0409067 	0.110907 	61.8605 	-0 	11.4149 	39.9539 	
0 	91448.4 	1696.06 	1925.26 	0.35 	17.0603 	0.334546 	8.74889e-05 	
0.00758237 	0.00189559 	0 	0 	0 	0 	0 	0 	0 	
0.000262467 	1.38715e-08 	0.92 	0.04 	0.04 	0.02115 	-1.72855e-08 	
0.07 	-0.0409067 	0.110907 	61.8605 	-0 	17.1223 	34.2464 	
0 	91448.4 	1696.06 	1925.26 	0.35 	17.0603 	0.334548 	8.74889e-05 	
0.00758237 	0.00189559 	0 	0 	0 	0 	0 	0 	0 	
0.000349956 	1.78349e-08 	0.92 	0.04 	0.04 	0.0211498 	-2.15109e-08 	
0.07 	-0.0409067 	0.110907 	61.8605 	-0 	22.8299 	28.5389 	
0 	91448.4 	1696.06 	1925.26 	0.35 	17.0603 	0.334551 	8.74889e-05 	
0.00758237 	0.00189559 	0 	0 	0 	0 	0 	0 	0 	
0.000437444 	2.17983e-08 	0.92 	0.04 	0.04 	0.0211496 	-2.49681e-08 	
0.07 	-0.0409067 	0.110907 	61.8605 	-0 	28.5375 	22.8313 	
0 	91448.4 	1696.06 	1925.26 	0.35 	17.0603 	0.334555 	8.74889e-05 	
0.00758237 	0.00189559 	0 	0 	0 	0 	0 	0 	0 	
0.000524933 	2.57617e-08 	0.92 	0.04 	0.04 	0.0211493 	-2.7657e-08 	
0.07 	-0.0409067 	0.110907 	61.8605 	-0 	34.2451 	17.1236 	
0 	91448.4 	1696.06 	1925.26 	0.35 	17.0603 	0.334561 	8.74889e-05 	
0.00758237 	0.00189559 	0 	0 	0 	0 	0 	0 	0 	
0.000612422 	2.97253e-08 	0.92 	0.04 	0.04 	0.0211489 	-2.95777e-08 	
0.07 	-0.0409067 	0.110907 	61.8605 	-0 	39.9529 	11.4159 	
0 	91448.4 	1696.06 	1925.26 	0.35 	17.0603 	0.334567 	8.74889e-05 	
0.00758237 	0.00189559 	0 	0 	0 	0 	0 	0 	0 	
0.000699911 	3.36889e-08 	0.92 	0.04 	0.04 	0.0211485 	-3.07301e-08 	
0.07 	-0.0409067 	0.110907 	61.8605 	-0 	45.6608 	5.70801 	
0 	91448.4 	1696.06 	1925.26 	0.35 	17.0603 	0.334574 	8.74889e-05 	
0.00758237 	0.00189559 	0 	0 	0 	0 	0 	0 	0 	
0.0007874 	3.56708e-08 	0.92 	0.04 	0.04 	0.0211481 	-3.11143e-08 	
0.07 	-0.0409067 	0.110907 	30.9302 	-0 	49.9417 	1.42702 	
0 	45724.2 	848.03 	962.628 	0.35 	8.53017 	0.334582 	4.37444e-05 	
0.00379119 	0.000947796 	0 	0 	0 	0 	0 	0 	0 	
ZONE T = "t = 2e-08 [s]" I = 10 SOLUTIONTIME = 2.0000000000000E-08
0 	1.15941e-09 	0.92 	0.04 	0.04 	0.0291633 	0 	
-0.0211503 	-0.0409067 	0.0197564 	2.85371 	1.47883e-08 	0.834821 	29.2198 	
7.15226e-11 	45724.2 	848.03 	962.628 	0.35 	8.53017 	0.195734 	4.37444e-05 	
0.00379119 	0.000947796 	0 	0 	0 	0 	0 	0 	0 	
8.74889e-05 	3.47823e-09 	0.92 	0.04 	0.04 	0.0291632 	-3.82057e-09 	
-0.0211502 	-0.0409067 	0.0197565 	5.70744 	4.4365e-08 	3.33929 	26.7154 	
1.43045e-10 	91448.4 	1696.06 	1925.26 	0.35 	17.0603 	0.195734 	8.74889e-05 	
0.00758237 	0.00189559 	0 	0 	0 	0 	0 	0 	0 	
0.000174978 	5.79706e-09 	0.92 	0.04 	0.04 	0.0291632 	-7.19169e-09 	
-0.0211502 	-0.0409067 	0.0197565 	5.70746 	7.39418e-08 	6.67858 	23.3761 	
1.43046e-10 	91448.4 	1696.06 	1925.26 	0.35 	17.0603 	0.195735 	8.74889e-05 	
0.00758237 	0.00189559 	0 	0 	0 	0 	0 	0 	0 	
0.000262467 	8.11591e-09 	0.92 	0.04 	0.04 	0.0291631 	-1.01133e-08 	
-0.02115 	-0.0409067 	0.0197567 	5.7075 	1.03519e-07 	10.0179 	20.0368 	
1.43047e-10 	91448.4 	1696.06 	1925.26 	0.35 	17.0603 	0.195736 	8.74889e-05 	
0.00758237 	0.00189559 	0 	0 	0 	0 	0 	0 	0 	
0.000349956 	1.04348e-08 	0.92 	0.04 	0.04 	0.029163 	-1.25855e-08 	
-0.0211499 	-0.0409067 	0.0197569 	5.70755 	1.33096e-07 	13.3572 	16.6974 	
1.43048e-10 	91448.4 	1696.06 	1925.26 	0.35 	17.0603 	0.195738 	8.74889e-05 	
0.00758237 	0.00189559 	0 	0 	0 	0 	0 	0 	0 	
0.000437444 	1.27537e-08 	0.92 	0.04 	0.04 	0.0291629 	-1.46082e-08 	
-0.0211496 	-0.0409067 	0.0197571 	5.70763 	1.62674e-07 	16.6966 	13.358 	
1.4305e-10 	91448.4 	1696.06 	1925.26 	0.35 	17.0603 	0.19574 	8.74889e-05 	
0.00758237 	0.00189559 	0 	0 	0 	0 	0 	0 	0 	
0.000524933 	1.50726e-08 	0.92 	0.04 	0.04 	0.0291627 	-1.61815e-08 	
-0.0211493 	-0.0409067 	0.0197574 	5.70771 	1.92252e-07 	20.036 	10.0186 	
1.43052e-10 	91448.4 	1696.06 	1925.26 	0.35 	17.0603 	0.195743 	8.74889e-05 	
0.00758237 	0.00189559 	0 	0 	0 	0 	0 	0 	0 	
0.000612422 	1.73916e-08 	0.92 	0.04 	0.04 	0.0291625 	-1.73052e-08 	
-0.021149 	-0.0409067 	0.0197577 	5.70782 	2.21831e-07 	23.3755 	6.67915 	
1.43055e-10 	91448.4 	1696.06 	1925.26 	0.35 	17.0603 	0.195747 	8.74889e-05 	
0.00758237 	0.00189559 	0 	0 	0 	0 	0 	0 	0 	
0.000699911 	1.97106e-08 	0.92 	0.04 	0.04 	0.0291623 	-1.79795e-08 	
-0.0211486 	-0.0409067 	0.0197581 	5.70794 	2.5141e-07 	26.715 	3.33961 	
1.43058e-10 	91448.4 	1696.06 	1925.26 	0.35 	17.0603 	0.195751 	8.74889e-05 	
0.00758237 	0.00189559 	0 	0 	0 	0 	0 	0 	0 	
0.0007874 	2.08701e-08 	0.92 	0.04 	0.04 	0.029162 	-1.82042e-08 	
-0.0211481 	-0.0409067 	0.0197586 	2.85404 	2.5141e-07 	29.2197 	0.834912 	
7.15308e-11 	45724.2 	848.03 	962.628 	0.35 	8.53017 	0.195755 	4.37444e-05 	
0.00379119 	0.000947796 	0 	0 	0 	0 	0 	0 	0 	
ZONE T = "t = 3e-08 [s]" I = 10 SOLUTIONTIME = 3.0000000000000E-08
0 	1.15941e-09 	0.92 	0.04 	0.04 	0.0291633 	0 	
-0.0291633 	-0.0409067 	0.0117435 	1.66964 	8.65231e-09 	0.834821 	29.2198 	
1.13369e-10 	45724.2 	848.03 	962.628 	0.35 	8.53017 	0.195734 	4.37444e-05 	
0.00379119 	0.000947796 	0 	0 	0 	0 	0 	0 	0 	
8.74889e-05 	3.47823e-09 	0.92 	0.04 	0.04 	0.0291632 	-3.82057e-09 	
-0.0291632 	-0.0409067 	0.0117435 	3.33929 	2.5957e-08 	3.33929 	26.7154 	
2.26738e-10 	91448.4 	1696.06 	1925.26 	0.35 	17.0603 	0.195734 	8.74889e-05 	
0.00758237 	0.00189559 	0 	0 	0 	0 	0 	0 	0 	
0.000174978 	5.79706e-09 	0.92 	0.04 	0.04 	0.0291632 	-7.19168e-09 	
-0.0291632 	-0.0409067 	0.0117435 	3.3393 	4.32617e-08 	6.67858 	23.3761 	
2.26739e-10 	91448.4 	1696.06 	1925.26 	0.35 	17.0603 	0.195735 	8.74889e-05 	
0.00758237 	0.00189559 	0 	0 	0 	0 	0 	0 	0 	
0.000262467 	8.11591e-09 	0.92 	0.04 	0.04 	0.0291631 	-1.01133e-08 	
-0.0291631 	-0.0409067 	0.0117436 	3.33933 	6.05665e-08 	10.0179 	20.0368 	
2.26741e-10 	91448.4 	1696.06 	1925.26 	0.35 	17.0603 	0.195736 	8.74889e-05 	
0.00758237 	0.00189559 	0 	0 	0 	0 	0 	0 	0 	
0.000349956 	1.04348e-08 	0.92 	0.04 	0.04 	0.029163 	-1.25855e-08 	
-0.029163 	-0.0409067 	0.0117437 	3.33936 	7.78715e-08 	13.3572 	16.6974 	
2.26743e-10 	91448.4 	1696.06 	1925.26 	0.35 	17.0603 	0.195738 	8.74889e-05 	
0.00758237 	0.00189559 	0 	0 	0 	0 	0 	0 	0 	
0.000437444 	1.27537e-08 	0.92 	0.04 	0.04 	0.0291629 	-1.46082e-08 	
-0.0291629 	-0.0409067 	0.0117438 	3.3394 	9.51767e-08 	16.6966 	13.358 	
2.26746e-10 	91448.4 	1696.06 	1925.26 	0.35 	17.0603 	0.19574 	8.74889e-05 	
0.00758237 	0.00189559 	0 	0 	0 	0 	0 	0 	0 	
0.000524933 	1.50726e-08 	0.92 	0.04 	0.04 	0.0291627 	-1.61814e-08 	
-0.0291627 	-0.0409067 	0.011744 	3.33945 	1.12482e-07 	20.036 	10.0186 	
2.26749e-10 	91448.4 	1696.06 	1925.26 	0.35 	17.0603 	0.195743 	8.74889e-05 	
0.00758237 	0.00189559 	0 	0 	0 	0 	0 	0 	0 	
0.000612422 	1.73916e-08 	0.92 	0.04 	0.04 	0.0291625 	-1.73052e-08 	
-0.0291625 	-0.0409067 	0.0117442 	3.33951 	1.29788e-07 	23.3755 	6.67915 	
2.26753e-10 	91448.4 	1696.06 	1925.26 	0.35 	17.0603 	0.195747 	8.74889e-05 	
0.00758237 	0.00189559 	0 	0 	0 	0 	0 	0 	0 	
0.000699911 	1.97106e-08 	0.92 	0.04 	0.04 	0.0291623 	-1.79795e-08 	
-0.0291623 	-0.0409067 	0.0117444 	3.33957 	1.47094e-07 	26.715 	3.33961 	
2.26758e-10 	91448.4 	1696.06 	1925.26 	0.35 	17.0603 	0.195751 	8.74889e-05 	
0.00758237 	0.00189559 	0 	0 	0 	0 	0 	0 	0 	
0.0007874 	2.08701e-08 	0.92 	0.04 	0.04 	0.029162 	-1.82042e-08 	
-0.029162 	-0.0409067 	0.0117447 	1.66983 	1.47094e-07 	29.2197 	0.834912 	
1.13382e-10 	45724.2 	848.03 	962.628 	0.35 	8.53017 	0.195755 	4.37444e-05 	
0.00379119 	0.000947796 	0 	0 	0 	0 	0 	0 	0 	
ZONE T = "t = 4e-08 [s]" I = 10 SOLUTIONTIME = 4.0000000000000E-08
0 	1.15941e-09 	0.92 	0.04 	0.04 	0.0291633 	0 	
-0.0291633 	-0.0409067 	0.0117435 	1.66964 	8.65231e-09 	0.834822 	29.2199 	
1.55215e-10 	45724.2 	848.03 	962.628 	0.35 	8.53017 	0.195734 	4.37444e-05 	
0.00379119 	0.000947796 	0 	0 	0 	0 	0 	0 	0 	
8.74889e-05 	3.47824e-09 	0.92 	0.04 	0.04 	0.0291632 	-3.82058e-09 	
-0.0291632 	-0.0409067 	0.0117435 	3.33929 	2.5957e-08 	3.33929 	26.7154 	
3.10431e-10 	91448.4 	1696.06 	1925.26 	0.35 	17.0603 	0.195734 	8.74889e-05 	
0.00758237 	0.00189559 	0 	0 	0 	0 	0 	0 	0 	
0.000174978 	5.79707e-09 	0.92 	0.04 	0.04 	0.0291632 	-7.19169e-09 	
-0.0291632 	-0.0409067 	0.0117435 	3.3393 	4.32617e-08 	6.67859 	23.3761 	
3.10432e-10 	91448.4 	1696.06 	1925.26 	0.35 	17.0603 	0.195735 	8.74889e-05 	
0.00758237 	0.00189559 	0 	0 	0 	0 	0 	0 	0 	
0.000262467 	8.11592e-09 	0.92 	0.04 	0.04 	0.0291631 	-1.01133e-08 	
-0.0291631 	-0.0409067 	0.0117436 	3.33933 	6.05665e-08 	10.0179 	20.0368 	
3.10434e-10 	91448.4 	1696.06 	1925.26 	0.35 	17.0603 	0.195736 	8.74889e-05 	
0.00758237 	0.00189559 	0 	0 	0 	0 	0 	0 	0 	
0.000349956 	1.04348e-08 	0.92 	0.04 	0.04 	0.029163 	-1.25855e-08 	
-0.029163 	-0.0409067 	0.0117437 	3.33936 	7.78715e-08 	13.3572 	16.6974 	
3.10437e-10 	91448.4 	1696.06 	1925.26 	0.35 	17.0603 	0.195738 	8.74889e-05 	
0.00758237 	0.00189559 	0 	0 	0 	0 	0 	0 	0 	
0.000437444 	1.27537e-08 	0.92 	0.04 	0.04 	0.0291629 	-1.46082e-08 	
-0.0291629 	-0.0409067 	0.0117438 	3.3394 	9.51767e-08 	16.6966 	13.3581 	
3.10441e-10 	91448.4 	1696.06 	1925.26 	0.35 	17.0603 	0.19574 	8.74889e-05 	
0.00758237 	0.00189559 	0 	0 	0 	0 	0 	0 	0 	
0.000524933 	1.50726e-08 	0.92 	0.04 	0.04 	0.0291627 	-1.61815e-08 	
-0.0291627 	-0.0409067 	0.011744 	3.33945 	1.12482e-07 	20.036 	10.0186 	
3.10446e-10 	91448.4 	1696.06 	1925.26 	0.35 	17.0603 	0.195743 	8.74889e-05 	
0.00758237 	0.00189559 	0 	0 	0 	0 	0 	0 	0 	
0.000612422 	1.73916e-08 	0.92 	0.04 	0.04 	0.0291625 	-1.73052e-08 	
-0.0291625 	-0.0409067 	0.0117442 	3.33951 	1.29788e-07 	23.3755 	6.67915 	
3.10451e-10 	91448.4 	1696.06 	1925.26 	0.35 	17.0603 	0.195747 	8.74889e-05 	
0.00758237 	0.00189559 	0 	0 	0 	0 	0 	0 	0 	
0.000699911 	1.97106e-08 	0.92 	0.04 	0.04 	0.0291623 	-1.79795e-08 	
-0.0291623 	-0.0409067 	0.0117444 	3.33957 	1.47094e-07 	26.7151 	3.33961 	
3.10458e-10 	91448.4 	1696.06 	1925.26 	0.35 	17.0603 	0.195751 	8.74889e-05 	
0.00758237 	0.00189559 	0 	0 	0 	0 	0 	0 	0 	
0.0007874 	2.08701e-08 	0.92 	0.04 	0.04 	0.029162 	-1.82042e-08 	
-0.029162 	-0.0409067 	0.0117447 	1.66983 	1.47094e-07 	29.2198 	0.834913 	
1.55232e-10 	45724.2 	848.03 	962.628 	0.35 	8.53017 	0.195755 	4.37444e-05 	
0.00379119 	0.000947796 	0 	0 	0 	0 	0 	0 	0 	
ZONE T = "t = 5.5e-08 [s]" I = 10 SOLUTIONTIME = 5.5000000000000E-08
0 	1.15941e-09 	0.92 	0.04 	0.04 	0.0291633 	0 	
-0.0291633 	-0.0409067 	0.0117435 	1.66964 	8.65232e-09 	0.834822 	29.2199 	
1.97062e-10 	45724.2 	848.03 	962.628 	0.35 	8.53017 	0.195734 	4.37444e-05 	
0.00379119 	0.000947796 	0 	0 	0 	0 	0 	0 	0 	
8.74889e-05 	3.47824e-09 	0.92 	0.04 	0.04 	0.0291632 	-3.82058e-09 	
-0.0291632 	-0.0409067 	0.0117435 	3.33929 	2.5957e-08 	3.33929 	26.7154 	
3.94123e-10 	91448.4 	1696.06 	1925.26 	0.35 	17.0603 	0.195734 	8.74889e-05 	
0.00758237 	0.00189559 	0 	0 	0 	0 	0 	0 	0 	
0.000174978 	5.79707e-09 	0.92 	0.04 	0.04 	0.0291632 	-7.19169e-09 	
-0.0291632 	-0.0409067 	0.0117435 	3.3393 	4.32617e-08 	6.67859 	23.3761 	
3.94125e-10 	91448.4 	1696.06 	1925.26 	0.35 	17.0603 	0.195735 	8.74889e-05 	
0.00758237 	0.00189559 	0 	0 	0 	0 	0 	0 	0 	
0.000262467 	8.11592e-09 	0.92 	0.04 	0.04 	0.0291631 	-1.01133e-08 	
-0.0291631 	-0.0409067 	0.0117436 	3.33933 	6.05665e-08 	10.0179 	20.0368 	
3.94128e-10 	91448.4 	1696.06 	1925.26 	0.35 	17.0603 	0.195736 	8.74889e-05 	
0.00758237 	0.00189559 	0 	0 	0 	0 	0 	0 	0 	
0.000349956 	1.04348e-08 	0.92 	0.04 	0.04 	0.029163 	-1.25855e-08 	
-0.029163 	-0.0409067 	0.0117437 	3.33936 	7.78715e-08 	13.3572 	16.6974 	
3.94131e-10 	91448.4 	1696.06 	1925.26 	0.35 	17.0603 	0.195738 	8.74889e-05 	
0.00758237 	0.00189559 	0 	0 	0 	0 	0 	0 	0 	
0.000437444 	1.27537e-08 	0.92 	0.04 	0.04 	0.0291629 	-1.46082e-08 	
-0.0291629 	-0.0409067 	0.0117438 	3.3394 	9.51768e-08 	16.6966 	13.3581 	
3.94136e-10 	91448.4 	1696.06 	1925.26 	0.35 	17.0603 	0.19574 	8.74889e-05 	
0.00758237 	0.00189559 	0 	0 	0 	0 	0 	0 	0 	
0.000524933 	1.50726e-08 	0.92 	0.04 	0.04 	0.0291627 	-1.61815e-08 	
-0.0291627 	-0.0409067 	0.011744 	3.33945 	1.12482e-07 	20.036 	10.0186 	
3.94142e-10 	91448.4 	1696.06 	1925.26 	0.35 	17.0603 	0.195743 	8.74889e-05 	
0.00758237 	0.00189559 	0 	0 	0 	0 	0 	0 	0 	
0.000612422 	1.73916e-08 	0.92 	0.04 	0.04 	0.0291625 	-1.73052e-08 	
-0.0291625 	-0.0409067 	0.0117442 	3.33951 	1.29788e-07 	23.3755 	6.67915 	
3.94149e-10 	91448.4 	1696.06 	1925.26 	0.35 	17.0603 	0.195747 	8.74889e-05 	
0.00758237 	0.00189559 	0 	0 	0 	0 	0 	0 	0 	
0.000699911 	1.97106e-08 	0.92 	0.04 	0.04 	0.0291623 	-1.79795e-08 	
-0.0291623 	-0.0409067 	0.0117444 	3.33957 	1.47094e-07 	26.7151 	3.33961 	
3.94157e-10 	91448.4 	1696.06 	1925.26 	0.35 	17.0603 	0.195751 	8.74889e-05 	
0.00758237 	0.00189559 	0 	0 	0 	0 	0 	0 	0 	
0.0007874 	2.08701e-08 	0.92 	0.04 	0.04 	0.029162 	-1.82042e-08 	
-0.029162 	-0.0409067 	0.0117447 	1.66983 	1.47094e-07 	29.2198 	0.834913 	
1.97083e-10 	45724.2 	848.03 	962.628 	0.35 	8.53017 	0.195755 	4.37444e-05 	
0.00379119 	0.000947796 	0 	0 	0 	0 	0 	0 	0 	
ZONE T = "t = 7.75e-08 [s]" I = 10 SOLUTIONTIME = 7.7500000000000E-08
0 	1.15941e-09 	0.92 	0.04 	0.04 	0.0291633 	0 	
-0.0291633 	-0.0409067 	0.0117435 	1.66964 	8.65232e-09 	0.834822 	29.2199 	
2.59831e-10 	45724.2 	848.03 	962.628 	0.35 	8.53017 	0.195734 	4.37444e-05 	
0.00379119 	0.000947796 	0 	0 	0 	0 	0 	0 	0 	
8.74889e-05 	3.47824e-09 	0.92 	0.04 	0.04 	0.0291632 	-3.82058e-09 	
-0.0291632 	-0.0409067 	0.0117435 	3.33929 	2.5957e-08 	3.33929 	26.7154 	
5.19662e-10 	91448.4 	1696.06 	1925.26 	0.35 	17.0603 	0.195734 	8.74889e-05 	
0.00758237 	0.00189559 	0 	0 	0 	0 	0 	0 	0 	
0.000174978 	5.79707e-09 	0.92 	0.04 	0.04 	0.0291632 	-7.19169e-09 	
-0.0291632 	-0.0409067 	0.0117435 	3.3393 	4.32617e-08 	6.67859 	23.3761 	
5.19664e-10 	91448.4 	1696.06 	1925.26 	0.35 	17.0603 	0.195735 	8.74889e-05 	
0.00758237 	0.00189559 	0 	0 	0 	0 	0 	0 	0 	
0.000262467 	8.11592e-09 	0.92 	0.04 	0.04 	0.0291631 	-1.01133e-08 	
-0.0291631 	-0.0409067 	0.0117436 	3.33933 	6.05665e-08 	10.0179 	20.0368 	
5.19668e-10 	91448.4 	1696.06 	1925.26 	0.35 	17.0603 	0.195736 	8.74889e-05 	
0.00758237 	0.00189559 	0 	0 	0 	0 	0 	0 	0 	
0.000349956 	1.04348e-08 	0.92 	0.04 	0.04 	0.029163 	-1.25855e-08 	
-0.029163 	-0.0409067 	0.0117437 	3.33936 	7.78715e-08 	13.3572 	16.6974 	
5.19673e-10 	91448.4 	1696.06 	1925.26 	0.35 	17.0603 	0.195738 	8.74889e-05 	
0.00758237 	0.00189559 	0 	0 	0 	0 	0 	0 	0 	
0.000437444 	1.27537e-08 	0.92 	0.04 	0.04 	0.0291629 	-1.46082e-08 	
-0.0291629 	-0.0409067 	0.0117438 	3.3394 	9.51768e-08 	16.6966 	13.3581 	
5.19679e-10 	91448.4 	1696.06 	1925.26 	0.35 	17.0603 	0.19574 	8.74889e-05 	
0.00758237 	0.00189559 	0 	0 	0 	0 	0 	0 	0 	
0.000524933 	1.50726e-08 	0.92 	0.04 	0.04 	0.0291627 	-1.61815e-08 	
-0.0291627 	-0.0409067 	0.011744 	3.33945 	1.12482e-07 	20.036 	10.0186 	
5.19687e-10 	91448.4 	1696.06 	1925.26 	0.35 	17.0603 	0.195743 	8.74889e-05 	
0.00758237 	0.00189559 	0 	0 	0 	0 	0 	0 	0 	
0.000612422 	1.73916e-08 	0.92 	0.04 	0.04 	0.0291625 	-1.73052e-08 	
-0.0291625 	-0.0409067 	0.0117442 	3.33951 	1.29788e-07 	23.3755 	6.67915 	
5.19696e-10 	91448.4 	1696.06 	1925.26 	0.35 	17.0603 	0.195747 	8.74889e-05 	
0.00758237 	0.00189559 	0 	0 	0 	0 	0 	0 	0 	
0.000699911 	1.97106e-08 	0.92 	0.04 	0.04 	0.0291623 	-1.79795e-08 	
-0.0291623 	-0.0409067 	0.0117444 	3.33957 	1.47095e-07 	26.7151 	3.33961 	
5.19707e-10 	91448.4 	1696.06 	1925.26 	0.35 	17.0603 	0.195751 	8.74889e-05 	
0.00758237 	0.00189559 	0 	0 	0 	0 	0 	0 	0 	
0.0007874 	2.08701e-08 	0.92 	0.04 	0.04 	0.029162 	-1.82042e-08 	
-0.029162 	-0.0409067 	0.0117447 	1.66983 	1.47095e-07 	29.2198 	0.834913 	
2.5986e-10 	45724.2 	848.03 	962.628 	0.35 	8.53017 	0.195755 	4.37444e-05 	
0.00379119 	0.000947796 	0 	0 	0 	0 	0 	0 	0 	
ZONE T = "t = 1.1125e-07 [s]" I = 10 SOLUTIONTIME = 1.1125000000000E-07
0 	1.15941e-09 	0.92 	0.04 	0.04 	0.0291633 	0 	
-0.0291633 	-0.0409067 	0.0117435 	1.66964 	8.65232e-09 	0.834822 	29.2199 	
3.53985e-10 	45724.2 	848.03 	962.628 	0.35 	8.53017 	0.195734 	4.37444e-05 	
0.00379119 	0.000947796 	0 	0 	0 	0 	0 	0 	0 	
8.74889e-05 	3.47824e-09 	0.92 	0.04 	0.04 	0.0291632 	-3.82058e-09 	
-0.0291632 	-0.0409067 	0.0117435 	3.33929 	2.5957e-08 	3.33929 	26.7154 	
7.07971e-10 	91448.4 	1696.06 	1925.26 	0.35 	17.0603 	0.195734 	8.74889e-05 	
0.00758237 	0.00189559 	0 	0 	0 	0 	0 	0 	0 	
0.000174978 	5.79707e-09 	0.92 	0.04 	0.04 	0.0291632 	-7.19169e-09 	
-0.0291632 	-0.0409067 	0.0117435 	3.3393 	4.32617e-08 	6.67859 	23.3761 	
7.07974e-10 	91448.4 	1696.06 	1925.26 	0.35 	17.0603 	0.195735 	8.74889e-05 	
0.00758237 	0.00189559 	0 	0 	0 	0 	0 	0 	0 	
0.000262467 	8.11592e-09 	0.92 	0.04 	0.04 	0.0291631 	-1.01133e-08 	
-0.0291631 	-0.0409067 	0.0117436 	3.33933 	6.05665e-08 	10.0179 	20.0368 	
7.07978e-10 	91448.4 	1696.06 	1925.26 	0.35 	17.0603 	0.195736 	8.74889e-05 	
0.00758237 	0.00189559 	0 	0 	0 	0 	0 	0 	0 	
0.000349956 	1.04348e-08 	0.92 	0.04 	0.04 	0.029163 	-1.25855e-08 	
-0.029163 	-0.0409067 	0.0117437 	3.33936 	7.78715e-08 	13.3572 	16.6974 	
7.07985e-10 	91448.4 	1696.06 	1925.26 	0.35 	17.0603 	0.195738 	8.74889e-05 	
0.00758237 	0.00189559 	0 	0 	0 	0 	0 	0 	0 	
0.000437444 	1.27537e-08 	0.92 	0.04 	0.04 	0.0291629 	-1.46082e-08 	
-0.0291629 	-0.0409067 	0.0117438 	3.3394 	9.51768e-08 	16.6966 	13.3581 	
7.07994e-10 	91448.4 	1696.06 	1925.26 	0.35 	17.0603 	0.19574 	8.74889e-05 	
0.00758237 	0.00189559 	0 	0 	0 	0 	0 	0 	0 	
0.000524933 	1.50726e-08 	0.92 	0.04 	0.04 	0.0291627 	-1.61815e-08 	
-0.0291627 	-0.0409067 	0.011744 	3.33945 	1.12482e-07 	20.036 	10.0186 	
7.08004e-10 	91448.4 	1696.06 	1925.26 	0.35 	17.0603 	0.195743 	8.74889e-05 	
0.00758237 	0.00189559 	0 	0 	0 	0 	0 	0 	0 	
0.000612422 	1.73916e-08 	0.92 	0.04 	0.04 	0.0291625 	-1.73052e-08 	
-0.0291625 	-0.0409067 	0.0117442 	3.33951 	1.29788e-07 	23.3755 	6.67915 	
7.08017e-10 	91448.4 	1696.06 	1925.26 	0.35 	17.0603 	0.195747 	8.74889e-05 	
0.00758237 	0.00189559 	0 	0 	0 	0 	0 	0 	0 	
0.000699911 	1.97106e-08 	0.92 	0.04 	0.04 	0.0291623 	-1.79795e-08 	
-0.0291623 	-0.0409067 	0.0117444 	3.33957 	1.47095e-07 	26.7151 	3.33961 	
7.08031e-10 	91448.4 	1696.06 	1925.26 	0.35 	17.0603 	0.195751 	8.74889e-05 	
0.00758237 	0.00189559 	0 	0 	0 	0 	0 	0 	0 	
0.0007874 	2.08701e-08 	0.92 	0.04 	0.04 	0.029162 	-1.82042e-08 	
-0.029162 	-0.0409067 	0.0117447 	1.66983 	1.47095e-07 	29.2198 	0.834913 	
3.54024e-10 	45724.2 	848.03 	962.628 	0.35 	8.53017 	0.195755 	4.37444e-05 	
0.00379119 	0.000947796 	0 	0 	0 	0 	0 	0 	0 	
ZONE T = "t = 1.61875e-07 [s]" I = 10 SOLUTIONTIME = 1.6187500000000E-07
0 	1.15941e-09 	0.92 	0.04 	0.04 	0.0291633 	0 	
-0.0291633 	-0.0409067 	0.0117435 	1.66964 	8.65232e-09 	0.834822 	29.2199 	
4.95216e-10 	45724.2 	848.03 	962.628 	0.35 	8.53017 	0.195734 	4.37444e-05 	
0.00379119 	0.000947796 	0 	0 	0 	0 	0 	0 	0 	
8.74889e-05 	3.47824e-09 	0.92 	0.04 	0.04 	0.0291632 	-3.82058e-09 	
-0.0291632 	-0.0409067 	0.0117435 	3.33929 	2.5957e-08 	3.33929 	26.7154 	
9.90434e-10 	91448.4 	1696.06 	1925.26 	0.35 	17.0603 	0.195734 	8.74889e-05 	
0.00758237 	0.00189559 	0 	0 	0 	0 	0 	0 	0 	
0.000174978 	5.79707e-09 	0.92 	0.04 	0.04 	0.0291632 	-7.19169e-09 	
-0.0291632 	-0.0409067 	0.0117435 	3.3393 	4.32617e-08 	6.67859 	23.3761 	
9.90437e-10 	91448.4 	1696.06 	1925.26 	0.35 	17.0603 	0.195735 	8.74889e-05 	
0.00758237 	0.00189559 	0 	0 	0 	0 	0 	0 	0 	
0.000262467 	8.11592e-09 	0.92 	0.04 	0.04 	0.0291631 	-1.01133e-08 	
-0.0291631 	-0.0409067 	0.0117436 	3.33933 	6.05665e-08 	10.0179 	20.0368 	
9.90444e-10 	91448.4 	1696.06 	1925.26 	0.35 	17.0603 	0.195736 	8.74889e-05 	
0.00758237 	0.00189559 	0 	0 	0 	0 	0 	0 	0 	
0.000349956 	1.04348e-08 	0.92 	0.04 	0.04 	0.029163 	-1.25855e-08 	
-0.029163 	-0.0409067 	0.0117437 	3.33936 	7.78715e-08 	13.3572 	16.6974 	
9.90453e-10 	91448.4 	1696.06 	1925.26 	0.35 	17.0603 	0.195738 	8.74889e-05 	
0.00758237 	0.00189559 	0 	0 	0 	0 	0 	0 	0 	
0.000437444 	1.27537e-08 	0.92 	0.04 	0.04 	0.0291629 	-1.46082e-08 	
-0.0291629 	-0.0409067 	0.0117438 	3.3394 	9.51768e-08 	16.6966 	13.3581 	
9.90465e-10 	91448.4 	1696.06 	1925.26 	0.35 	17.0603 	0.19574 	8.74889e-05 	
0.00758237 	0.00189559 	0 	0 	0 	0 	0 	0 	0 	
0.000524933 	1.50726e-08 	0.92 	0.04 	0.04 	0.0291627 	-1.61815e-08 	
-0.0291627 	-0.0409067 	0.011744 	3.33945 	1.12482e-07 	20.036 	10.0186 	
9.9048e-10 	91448.4 	1696.06 	1925.26 	0.35 	17.0603 	0.195743 	8.74889e-05 	
0.00758237 	0.00189559 	0 	0 	0 	0 	0 	0 	0 	
0.000612422 	1.73916e-08 	0.92 	0.04 	0.04 	0.0291625 	-1.73052e-08 	
-0.0291625 	-0.0409067 	0.0117442 	3.33951 	1.29788e-07 	23.3755 	6.67915 	
9.90498e-10 	91448.4 	1696.06 	1925.26 	0.35 	17.0603 	0.195747 	8.74889e-05 	
0.00758237 	0.00189559 	0 	0 	0 	0 	0 	0 	0 	
0.000699911 	1.97106e-08 	0.92 	0.04 	0.04 	0.0291623 	-1.79795e-08 	
-0.0291623 	-0.0409067 	0.0117444 	3.33957 	1.47095e-07 	26.7151 	3.33961 	
9.90518e-10 	91448.4 	1696.06 	1925.26 	0.35 	17.0603 	0.195751 	8.74889e-05 	
0.00758237 	0.00189559 	0 	0 	0 	0 	0 	0 	0 	
0.0007874 	2.08701e-08 	0.92 	0.04 	0.04 	0.029162 	-1.82042e-08 	
-0.029162 	-0.0409067 	0.0117447 	1.66983 	1.47095e-07 	29.2198 	0.834913 	
4.95271e-10 	45724.2 	848.03 	962.628 	0.35 	8.53017 	0.195755 	4.37444e-05 	
0.00379119 	0.000947796 	0 	0 	0 	0 	0 	0 	0 	
ZONE T = "t = 2.37813e-07 [s]" I = 10 SOLUTIONTIME = 2.3781250000000E-07
0 	1.15941e-09 	0.92 	0.04 	0.04 	0.0291633 	0 	
-0.0291633 	-0.0409067 	0.0117435 	1.66964 	8.65232e-09 	0.834822 	29.2199 	
7.07063e-10 	45724.2 	848.03 	962.628 	0.35 	8.53017 	0.195734 	4.37444e-05 	
0.00379119 	0.000947796 	0 	0 	0 	0 	0 	0 	0 	
8.74889e-05 	3.47824e-09 	0.92 	0.04 	0.04 	0.0291632 	-3.82058e-09 	
-0.0291632 	-0.0409067 	0.0117435 	3.33929 	2.5957e-08 	3.33929 	26.7154 	
1.41413e-09 	91448.4 	1696.06 	1925.26 	0.35 	17.0603 	0.195734 	8.74889e-05 	
0.00758237 	0.00189559 	0 	0 	0 	0 	0 	0 	0 	
0.000174978 	5.79707e-09 	0.92 	0.04 	0.04 	0.0291632 	-7.19169e-09 	
-0.0291632 	-0.0409067 	0.0117435 	3.3393 	4.32617e-08 	6.67859 	23.3761 	
1.41413e-09 	91448.4 	1696.06 	1925.26 	0.35 	17.0603 	0.195735 	8.74889e-05 	
0.00758237 	0.00189559 	0 	0 	0 	0 	0 	0 	0 	
0.000262467 	8.11592e-09 	0.92 	0.04 	0.04 	0.0291631 	-1.01133e-08 	
-0.0291631 	-0.0409067 	0.0117436 	3.33933 	6.05665e-08 	10.0179 	20.0368 	
1.41414e-09 	91448.4 	1696.06 	1925.26 	0.35 	17.0603 	0.195736 	8.74889e-05 	
0.00758237 	0.00189559 	0 	0 	0 	0 	0 	0 	0 	
0.000349956 	1.04348e-08 	0.92 	0.04 	0.04 	0.029163 	-1.25855e-08 	
-0.029163 	-0.0409067 	0.0117437 	3.33936 	7.78715e-08 	13.3572 	16.6974 	
1.41416e-09 	91448.4 	1696.06 	1925.26 	0.35 	17.0603 	0.195738 	8.74889e-05 	
0.00758237 	0.00189559 	0 	0 	0 	0 	0 	0 	0 	
0.000437444 	1.27537e-08 	0.92 	0.04 	0.04 	0.0291629 	-1.46082e-08 	
-0.0291629 	-0.0409067 	0.0117438 	3.3394 	9.51768e-08 	16.6966 	13.3581 	
1.41417e-09 	91448.4 	1696.06 	1925.26 	0.35 	17.0603 	0.19574 	8.74889e-05 	
0.00758237 	0.00189559 	0 	0 	0 	0 	0 	0 	0 	
0.000524933 	1.50726e-08 	0.92 	0.04 	0.04 	0.0291627 	-1.61815e-08 	
-0.0291627 	-0.0409067 	0.011744 	3.33945 	1.12482e-07 	20.036 	10.0186 	
1.41419e-09 	91448.4 	1696.06 	1925.26 	0.35 	17.0603 	0.195743 	8.74889e-05 	
0.00758237 	0.00189559 	0 	0 	0 	0 	0 	0 	0 	
0.000612422 	1.73916e-08 	0.92 	0.04 	0.04 	0.0291625 	-1.73052e-08 	
-0.0291625 	-0.0409067 	0.0117442 	3.33951 	1.29788e-07 	23.3755 	6.67915 	
1.41422e-09 	91448.4 	1696.06 	1925.26 	0.35 	17.0603 	0.195747 	8.74889e-05 	
0.00758237 	0.00189559 	0 	0 	0 	0 	0 	0 	0 	
0.000699911 	1.97106e-08 	0.92 	0.04 	0.04 	0.0291623 	-1.79795e-08 	
-0.0291623 	-0.0409067 	0.0117444 	3.33957 	1.47095e-07 	26.7151 	3.33961 	
1.41425e-09 	91448.4 	1696.06 	1925.26 	0.35 	17.0603 	0.195751 	8.74889e-05 	
0.00758237 	0.00189559 	0 	0 	0 	0 	0 	0 	0 	
0.0007874 	2.08701e-08 	0.92 	0.04 	0.04 	0.029162 	-1.82042e-08 	
-0.029162 	-0.0409067 	0.0117447 	1.66983 	1.47095e-07 	29.2198 	0.834913 	
7.07141e-10 	45724.2 	848.03 	962.628 	0.35 	8.53017 	0.195755 	4.37444e-05 	
0.00379119 	0.000947796 	0 	0 	0 	0 	0 	0 	0 	
ZONE T = "t = 3.51719e-07 [s]" I = 10 SOLUTIONTIME = 3.5171875000000E-07
0 	1.15941e-09 	0.92 	0.04 	0.04 	0.0291633 	0 	
-0.0291633 	-0.0409067 	0.0117435 	1.66964 	8.65232e-09 	0.834822 	29.2199 	
1.02483e-09 	45724.2 	848.03 	962.628 	0.35 	8.53017 	0.195734 	4.37444e-05 	
0.00379119 	0.000947796 	0 	0 	0 	0 	0 	0 	0 	
8.74889e-05 	3.47824e-09 	0.92 	0.04 	0.04 	0.0291632 	-3.82058e-09 	
-0.0291632 	-0.0409067 	0.0117435 	3.33929 	2.5957e-08 	3.33929 	26.7154 	
2.04967e-09 	91448.4 	1696.06 	1925.26 	0.35 	17.0603 	0.195734 	8.74889e-05 	
0.00758237 	0.00189559 	0 	0 	0 	0 	0 	0 	0 	
0.000174978 	5.79707e-09 	0.92 	0.04 	0.04 	0.0291632 	-7.19169e-09 	
-0.0291632 	-0.0409067 	0.0117435 	3.3393 	4.32617e-08 	6.67859 	23.3761 	
2.04968e-09 	91448.4 	1696.06 	1925.26 	0.35 	17.0603 	0.195735 	8.74889e-05 	
0.00758237 	0.00189559 	0 	0 	0 	0 	0 	0 	0 	
0.000262467 	8.11592e-09 	0.92 	0.04 	0.04 	0.0291631 	-1.01133e-08 	
-0.0291631 	-0.0409067 	0.0117436 	3.33933 	6.05665e-08 	10.0179 	20.0368 	
2.04969e-09 	91448.4 	1696.06 	1925.26 	0.35 	17.0603 	0.195736 	8.74889e-05 	
0.00758237 	0.00189559 	0 	0 	0 	0 	0 	0 	0 	
0.000349956 	1.04348e-08 	0.92 	0.04 	0.04 	0.029163 	-1.25855e-08 	
-0.029163 	-0.0409067 	0.0117437 	3.33936 	7.78715e-08 	13.3572 	16.6974 	
2.04971e-09 	91448.4 	1696.06 	1925.26 	0.35 	17.0603 	0.195738 	8.74889e-05 	
0.00758237 	0.00189559 	0 	0 	0 	0 	0 	0 	0 	
0.000437444 	1.27537e-08 	0.92 	0.04 	0.04 	0.0291629 	-1.46082e-08 	
-0.0291629 	-0.0409067 	0.0117438 	3.3394 	9.51768e-08 	16.6966 	13.3581 	
2.04973e-09 	91448.4 	1696.06 	1925.26 	0.35 	17.0603 	0.19574 	8.74889e-05 	
0.00758237 	0.00189559 	0 	0 	0 	0 	0 	0 	0 	
0.000524933 	1.50726e-08 	0.92 	0.04 	0.04 	0.0291627 	-1.61815e-08 	
-0.0291627 	-0.0409067 	0.011744 	3.33945 	1.12482e-07 	20.036 	10.0186 	
2.04976e-09 	91448.4 	1696.06 	1925.26 	0.35 	17.0603 	0.195743 	8.74889e-05 	
0.00758237 	0.00189559 	0 	0 	0 	0 	0 	0 	0 	
0.000612422 	1.73916e-08 	0.92 	0.04 	0.04 	0.0291625 	-1.73052e-08 	
-0.0291625 	-0.0409067 	0.0117442 	3.33951 	1.29788e-07 	23.3755 	6.67915 	
2.0498e-09 	91448.4 	1696.06 	1925.26 	0.35 	17.0603 	0.195747 	8.74889e-05 	
0.00758237 	0.00189559 	0 	0 	0 	0 	0 	0 	0 	
0.000699911 	1.97106e-08 	0.92 	0.04 	0.04 	0.0291623 	-1.79795e-08 	
-0.0291623 	-0.0409067 	0.0117444 	3.33957 	1.47096e-07 	26.7151 	3.33961 	
2.04984e-09 	91448.4 	1696.06 	1925.26 	0.35 	17.0603 	0.195751 	8.74889e-05 	
0.00758237 	0.00189559 	0 	0 	0 	0 	0 	0 	0 	
0.0007874 	2.08701e-08 	0.92 	0.04 	0.04 	0.029162 	-1.82042e-08 	
-0.029162 	-0.0409067 	0.0117447 	1.66983 	1.47096e-07 	29.2198 	0.834913 	
1.02495e-09 	45724.2 	848.03 	962.628 	0.35 	8.53017 	0.195755 	4.37444e-05 	