TITLE = "Solution on Domain BulkDomain1D_0"
VARIABLES = "x [m]"  
"Vel_axial" 
"MF_sp(ECDMC)" 
"MF_sp(Li+)" 
"MF_sp(PF6-)" 
"Volt(Electroly)" 
"Volt(AnodeVolt)" 
"Potential Drop Electrode-Electrolyte [V]" 
"Surf_0 Equilibrium Potential Drop Electrode-Electrolyte [V]" 
"Overpotential_0 [V]" 
"Current Source [A/m^2]" 
"Li+ flux [kmol/m^2/s]" 
"Electrolyte Current [A/m^2]" 
"Electrode Current [A/m^2]" 
"CV Capacity discharged [A-s/m^2]" 
"Depth of discharge in CV [A-s/m^2]" 
"CV Capacity remaining [A-s/m^2]" 
"Initial CV capacity [A-s/m^2]" 
"Porosity []" 
"Surface Area [m2/m2] (area per area)" 
"Specific current (per particle area) [A/m^2]" 
"Control volume thickness [m]" 
"MoleDens Li_C6-bulk [kmol/m^3]" 
"MoleDens V_C6-bulk [kmol/m^3]" 
"qHeat_accum [J/m3]" 
"qHeat_step [W/m3]" 
"Joule_Lyte [W/m3]" 
"Joule_Solid [W/m3]" 
"electrodHeat [W/m3]" 
"OverpotHeat [W/m3]" 
"deltaSHeat [W/m3]" 

ZONE T = "ANOD, 0.0000E+00", I = 10, SOLUTIONTIME = 0.000000E+00
ZONETYPE = ORDERED
DATAPACKING = BLOCK
STRANDID = 1
 0.0000000000000E+00  8.7488888888889E-05  1.7497777777778E-04  2.6246666666667E-04  3.4995555555556E-04  4.3744444444444E-04  5.2493333333333E-04  6.1242222222222E-04  6.9991111111111E-04  7.8740000000000E-04 
 0.0000000000000E+00  0.0000000000000E+00  0.0000000000000E+00  0.0000000000000E+00  0.0000000000000E+00  0.0000000000000E+00  0.0000000000000E+00  0.0000000000000E+00  0.0000000000000E+00  0.0000000000000E+00 
 9.2000000000000E-01  9.2000000000000E-01  9.2000000000000E-01  9.2000000000000E-01  9.2000000000000E-01  9.2000000000000E-01  9.2000000000000E-01  9.2000000000000E-01  9.2000000000000E-01  9.2000000000000E-01 
 4.0000000000000E-02  4.0000000000000E-02  4.0000000000000E-02  4.0000000000000E-02  4.0000000000000E-02  4.0000000000000E-02  4.0000000000000E-02  4.0000000000000E-02  4.0000000000000E-02  4.0000000000000E-02 
 4.0000000000000E-02  4.0000000000000E-02  4.0000000000000E-02  4.0000000000000E-02  4.0000000000000E-02  4.0000000000000E-02  4.0000000000000E-02  4.0000000000000E-02  4.0000000000000E-02  4.0000000000000E-02 
-7.0000000000000E-02 -7.0000000000000E-02 -7.0000000000000E-02 -7.0000000000000E-02 -7.0000000000000E-02 -7.0000000000000E-02 -7.0000000000000E-02 -7.0000000000000E-02 -7.0000000000000E-02 -7.0000000000000E-02 
 0.0000000000000E+00  0.0000000000000E+00  0.0000000000000E+00  0.0000000000000E+00  0.0000000000000E+00  0.0000000000000E+00  0.0000000000000E+00  0.0000000000000E+00  0.0000000000000E+00  0.0000000000000E+00 
 7.0000000000000E-02  7.0000000000000E-02  7.0000000000000E-02  7.0000000000000E-02  7.0000000000000E-02  7.0000000000000E-02  7.0000000000000E-02  7.0000000000000E-02  7.0000000000000E-02  7.0000000000000E-02 
-4.0906712753391E-02 -4.0906712753391E-02 -4.0906712753391E-02 -4.0906712753391E-02 -4.0906712753391E-02 -4.0906712753391E-02 -4.0906712753391E-02 -4.0906712753391E-02 -4.0906712753391E-02 -4.0906712753391E-02 
 1.1090671275339E-01  1.1090671275339E-01  1.1090671275339E-01  1.1090671275339E-01  1.1090671275339E-01  1.1090671275339E-01  1.1090671275339E-01  1.1090671275339E-01  1.1090671275339E-01  1.1090671275339E-01 
 3.0930240924008E+01  6.1860481848017E+01  6.1860481848017E+01  6.1860481848017E+01  6.1860481848017E+01  6.1860481848017E+01  6.1860481848017E+01  6.1860481848017E+01  6.1860481848017E+01  3.0930240924008E+01 
-0.0000000000000E+00 -0.0000000000000E+00 -0.0000000000000E+00 -0.0000000000000E+00 -0.0000000000000E+00 -0.0000000000000E+00 -0.0000000000000E+00 -0.0000000000000E+00 -0.0000000000000E+00 -0.0000000000000E+00 
 0.0000000000000E+00  0.0000000000000E+00  0.0000000000000E+00  0.0000000000000E+00  0.0000000000000E+00  0.0000000000000E+00  0.0000000000000E+00  0.0000000000000E+00  0.0000000000000E+00  3.0930240924008E+01 
 3.0930240924008E+01 -0.0000000000000E+00 -0.0000000000000E+00 -0.0000000000000E+00 -0.0000000000000E+00 -0.0000000000000E+00 -0.0000000000000E+00 -0.0000000000000E+00 -0.0000000000000E+00  0.0000000000000E+00 
 0.0000000000000E+00  0.0000000000000E+00  0.0000000000000E+00  0.0000000000000E+00  0.0000000000000E+00  0.0000000000000E+00  0.0000000000000E+00  0.0000000000000E+00  0.0000000000000E+00  0.0000000000000E+00 
 4.5724222271641E+04  9.1448444543281E+04  9.1448444543281E+04  9.1448444543281E+04  9.1448444543281E+04  9.1448444543281E+04  9.1448444543281E+04  9.1448444543281E+04  9.1448444543281E+04  4.5724222271641E+04 
 3.3835924481014E+05  6.7671848962028E+05  6.7671848962028E+05  6.7671848962028E+05  6.7671848962028E+05  6.7671848962028E+05  6.7671848962028E+05  6.7671848962028E+05  6.7671848962028E+05  3.3835924481014E+05 
 3.8408346708178E+05  7.6816693416356E+05  7.6816693416356E+05  7.6816693416356E+05  7.6816693416356E+05  7.6816693416356E+05  7.6816693416356E+05  7.6816693416356E+05  7.6816693416356E+05  3.8408346708178E+05 
 3.5000000000000E-01  3.5000000000000E-01  3.5000000000000E-01  3.5000000000000E-01  3.5000000000000E-01  3.5000000000000E-01  3.5000000000000E-01  3.5000000000000E-01  3.5000000000000E-01  3.5000000000000E-01 
 8.5301666666667E+00  1.7060333333333E+01  1.7060333333333E+01  1.7060333333333E+01  1.7060333333333E+01  1.7060333333333E+01  1.7060333333333E+01  1.7060333333333E+01  1.7060333333333E+01  8.5301666666667E+00 
 3.6259831879809E+00  3.6259831879809E+00  3.6259831879809E+00  3.6259831879809E+00  3.6259831879809E+00  3.6259831879809E+00  3.6259831879809E+00  3.6259831879809E+00  3.6259831879809E+00  3.6259831879809E+00 
 4.3744444444444E-05  8.7488888888889E-05  8.7488888888889E-05  8.7488888888889E-05  8.7488888888889E-05  8.7488888888889E-05  8.7488888888889E-05  8.7488888888889E-05  8.7488888888889E-05  4.3744444444444E-05 
 8.6666666666667E+01  8.6666666666667E+01  8.6666666666667E+01  8.6666666666667E+01  8.6666666666667E+01  8.6666666666667E+01  8.6666666666667E+01  8.6666666666667E+01  8.6666666666667E+01  8.6666666666667E+01 
 2.1666666666667E+01  2.1666666666667E+01  2.1666666666667E+01  2.1666666666667E+01  2.1666666666667E+01  2.1666666666667E+01  2.1666666666667E+01  2.1666666666667E+01  2.1666666666667E+01  2.1666666666667E+01 
 0.0000000000000E+00  0.0000000000000E+00  0.0000000000000E+00  0.0000000000000E+00  0.0000000000000E+00  0.0000000000000E+00  0.0000000000000E+00  0.0000000000000E+00  0.0000000000000E+00  0.0000000000000E+00 
 0.0000000000000E+00  0.0000000000000E+00  0.0000000000000E+00  0.0000000000000E+00  0.0000000000000E+00  0.0000000000000E+00  0.0000000000000E+00  0.0000000000000E+00  0.0000000000000E+00  0.0000000000000E+00 
 0.0000000000000E+00  0.0000000000000E+00  0.0000000000000E+00  0.0000000000000E+00  0.0000000000000E+00  0.0000000000000E+00  0.0000000000000E+00  0.0000000000000E+00  0.0000000000000E+00  0.0000000000000E+00 
 0.0000000000000E+00  0.0000000000000E+00  0.0000000000000E+00  0.0000000000000E+00  0.0000000000000E+00  0.0000000000000E+00  0.0000000000000E+00  0.0000000000000E+00  0.0000000000000E+00  0.0000000000000E+00 
 0.0000000000000E+00  0.0000000000000E+00  0.0000000000000E+00  0.0000000000000E+00  0.0000000000000E+00  0.0000000000000E+00  0.0000000000000E+00  0.0000000000000E+00  0.0000000000000E+00  0.0000000000000E+00 
 0.0000000000000E+00  0.0000000000000E+00  0.0000000000000E+00  0.0000000000000E+00  0.0000000000000E+00  0.0000000000000E+00  0.0000000000000E+00  0.0000000000000E+00  0.0000000000000E+00  0.0000000000000E+00 
 0.0000000000000E+00  0.0000000000000E+00  0.0000000000000E+00  0.0000000000000E+00  0.0000000000000E+00  0.0000000000000E+00  0.0000000000000E+00  0.0000000000000E+00  0.0000000000000E+00  0.0000000000000E+00 
ZONE T = "ANOD, 1.0000E-08", I = 10, SOLUTIONTIME = 1.000000E-08
ZONETYPE = ORDERED
DATAPACKING = BLOCK
STRANDID = 1
 0.0000000000000E+00  8.7488888888889E-05  1.7497777777778E-04  2.6246666666667E-04  3.4995555555556E-04  4.3744444444444E-04  5.2493333333333E-04  6.1242222222222E-04  6.9991111111111E-04  7.8740000000000E-04 
 1.1589975177777E-09  3.4769947609968E-09  5.7950006423478E-09  8.1130215923264E-09  1.0431064041477E-08  1.2749134420411E-08  1.5067239159831E-08  1.7385384690547E-08  1.9703577443502E-08  2.0862700646645E-08 
 9.1999999999930E-01  9.1999999999930E-01  9.1999999999930E-01  9.1999999999930E-01  9.1999999999930E-01  9.1999999999930E-01  9.1999999999930E-01  9.1999999999930E-01  9.1999999999930E-01  9.1999999999971E-01 
 4.0000000000348E-02  4.0000000000348E-02  4.0000000000348E-02  4.0000000000348E-02  4.0000000000348E-02  4.0000000000348E-02  4.0000000000348E-02  4.0000000000348E-02  4.0000000000348E-02  4.0000000000144E-02 
 4.0000000000348E-02  4.0000000000348E-02  4.0000000000348E-02  4.0000000000348E-02  4.0000000000348E-02  4.0000000000348E-02  4.0000000000348E-02  4.0000000000348E-02  4.0000000000348E-02  4.0000000000144E-02 
 2.9167373666455E-02  2.9167357939270E-02  2.9167310757683E-02  2.9167232121579E-02  2.9167122030751E-02  2.9166980484910E-02  2.9166807483674E-02  2.9166603026580E-02  2.9166367113072E-02  2.9166099742510E-02 
 0.0000000000000E+00 -4.7371510661564E-09 -8.9170107926979E-09 -1.2539577102850E-08 -1.5604846373825E-08 -1.8112813436804E-08 -2.0063471576930E-08 -2.1456812533276E-08 -2.2292826498826E-08 -2.2571502120442E-08 
-2.9167373666455E-02 -2.9167362676421E-02 -2.9167319674694E-02 -2.9167244661156E-02 -2.9167137635598E-02 -2.9166998597723E-02 -2.9166827547146E-02 -2.9166624483392E-02 -2.9166389405898E-02 -2.9166122314012E-02 
-4.0906712753087E-02 -4.0906712753087E-02 -4.0906712753087E-02 -4.0906712753087E-02 -4.0906712753090E-02 -4.0906712753090E-02 -4.0906712753090E-02 -4.0906712753090E-02 -4.0906712753090E-02 -4.0906712753221E-02 
 1.1739339086632E-02  1.1739350076666E-02  1.1739393078393E-02  1.1739468091931E-02  1.1739575117493E-02  1.1739714155367E-02  1.1739885205944E-02  1.1740088269698E-02  1.1740323347192E-02  1.1740590439209E-02 
 1.6690487381878E+00  3.3381006555873E+00  3.3381130951852E+00  3.3381347952090E+00  3.3381657557289E+00  3.3382059768422E+00  3.3382554586779E+00  3.3383142013943E+00  3.3383822051790E+00  1.6692297351245E+00 
 8.6492352083377E-09  2.5947722095714E-08  4.3246273449094E-08  6.0544937253888E-08  7.7843761502790E-08  9.5142794180540E-08  1.1244208328016E-07  1.2974167679419E-07  1.4704169482976E-07  1.4704169482976E-07 
 0.0000000000000E+00  3.3380990659588E+00  6.6762059413403E+00  1.0014329886441E+01  1.3352480162109E+01  1.6690666028457E+01  2.0028896746149E+01  2.3367181576035E+01  2.6705529779294E+01  3.0043950617080E+01 
 3.0043950617117E+01  2.6705851551135E+01  2.3367744675749E+01  2.0029620730552E+01  1.6691470455083E+01  1.3353284588797E+01  1.0015053871037E+01  6.6767690410009E+00  3.3384208377141E+00  0.0000000000000E+00 
 1.6690487381878E-08  3.3381006555873E-08  3.3381130951852E-08  3.3381347952090E-08  3.3381657557289E-08  3.3382059768422E-08  3.3382554586779E-08  3.3383142013943E-08  3.3383822051790E-08  1.6692297351245E-08 
 4.5724222271657E+04  9.1448444543315E+04  9.1448444543315E+04  9.1448444543315E+04  9.1448444543315E+04  9.1448444543315E+04  9.1448444543315E+04  9.1448444543315E+04  9.1448444543315E+04  4.5724222271657E+04 
 3.3835924481012E+05  6.7671848962025E+05  6.7671848962025E+05  6.7671848962025E+05  6.7671848962025E+05  6.7671848962025E+05  6.7671848962025E+05  6.7671848962025E+05  6.7671848962025E+05  3.3835924481012E+05 
 3.8408346708178E+05  7.6816693416356E+05  7.6816693416356E+05  7.6816693416356E+05  7.6816693416356E+05  7.6816693416356E+05  7.6816693416356E+05  7.6816693416356E+05  7.6816693416356E+05  3.8408346708178E+05 
 3.5000000000000E-01  3.5000000000000E-01  3.5000000000000E-01  3.5000000000000E-01  3.5000000000000E-01  3.5000000000000E-01  3.5000000000000E-01  3.5000000000000E-01  3.5000000000000E-01  3.5000000000000E-01 
 8.5301666666667E+00  1.7060333333333E+01  1.7060333333333E+01  1.7060333333333E+01  1.7060333333333E+01  1.7060333333333E+01  1.7060333333333E+01  1.7060333333333E+01  1.7060333333333E+01  8.5301666666667E+00 
 1.9566425878992E-01  1.9566444514101E-01  1.9566517429428E-01  1.9566644625207E-01  1.9566826101848E-01  1.9567061859922E-01  1.9567351900185E-01  1.9567696223565E-01  1.9568094831162E-01  1.9568547724248E-01 
 4.3744444444444E-05  8.7488888888889E-05  8.7488888888889E-05  8.7488888888889E-05  8.7488888888889E-05  8.7488888888889E-05  8.7488888888889E-05  8.7488888888889E-05  8.7488888888889E-05  4.3744444444444E-05 
 8.6666666666663E+01  8.6666666666663E+01  8.6666666666663E+01  8.6666666666663E+01  8.6666666666663E+01  8.6666666666663E+01  8.6666666666663E+01  8.6666666666663E+01  8.6666666666663E+01  8.6666666666663E+01 
 2.1666666666671E+01  2.1666666666671E+01  2.1666666666671E+01  2.1666666666671E+01  2.1666666666671E+01  2.1666666666671E+01  2.1666666666671E+01  2.1666666666671E+01  2.1666666666671E+01  2.1666666666671E+01 
 1.8364118900320E-11  2.8664280195519E-11  6.1478631964183E-11  1.1872129193041E-10  2.0039289529858E-10  3.0649434833887E-10  4.3702682841680E-10  5.9199178400273E-10  7.7139093470015E-10  8.6719929072467E-10 
 1.8364118900320E-03  2.8664280195519E-03  6.1478631964183E-03  1.1872129193041E-02  2.0039289529858E-02  3.0649434833887E-02  4.3702682841680E-02  5.9199178400273E-02  7.7139093470015E-02  8.6719929072467E-02 
 3.0003168912944E-04  1.5001601606336E-03  5.1005573268971E-03  1.1101260010508E-02  1.9502331669415E-02  3.0303862396242E-02  4.3505968921212E-02  5.9108794613093E-02  7.7112509481984E-02  8.6714612127195E-02 
 1.5363802009026E-03  1.3662678589183E-03  1.0473058695212E-03  7.7086918253379E-04  5.3695786044255E-04  3.4557243764547E-04  1.9671392046740E-04  9.0383787180691E-05  2.6583988031408E-05  5.3169452711491E-06 
 0.0000000000000E+00  0.0000000000000E+00  0.0000000000000E+00  0.0000000000000E+00  0.0000000000000E+00  0.0000000000000E+00  0.0000000000000E+00  0.0000000000000E+00  0.0000000000000E+00  0.0000000000000E+00 
 0.0000000000000E+00  0.0000000000000E+00  0.0000000000000E+00  0.0000000000000E+00  0.0000000000000E+00  0.0000000000000E+00  0.0000000000000E+00  0.0000000000000E+00  0.0000000000000E+00  0.0000000000000E+00 
 0.0000000000000E+00  0.0000000000000E+00  0.0000000000000E+00  0.0000000000000E+00  0.0000000000000E+00  0.0000000000000E+00  0.0000000000000E+00  0.0000000000000E+00  0.0000000000000E+00  0.0000000000000E+00 
ZONE T = "ANOD, 2.0000E-08", I = 10, SOLUTIONTIME = 2.000000E-08
ZONETYPE = ORDERED
DATAPACKING = BLOCK
STRANDID = 1
 0.0000000000000E+00  8.7488888888889E-05  1.7497777777778E-04  2.6246666666667E-04  3.4995555555556E-04  4.3744444444444E-04  5.2493333333333E-04  6.1242222222222E-04  6.9991111111111E-04  7.8740000000000E-04 
 1.1589975177606E-09  3.4769947609455E-09  5.7950006422622E-09  8.1130215922066E-09  1.0430700833594E-08  1.2748044797038E-08  1.5065423120967E-08  1.7383205443921E-08  1.9701034989113E-08  2.0860884607704E-08 
 9.1999999999861E-01  9.1999999999861E-01  9.1999999999861E-01  9.1999999999861E-01  9.1999999999861E-01  9.1999999999861E-01  9.1999999999861E-01  9.1999999999861E-01  9.1999999999861E-01  9.1999999999942E-01 
 4.0000000000696E-02  4.0000000000696E-02  4.0000000000696E-02  4.0000000000696E-02  4.0000000000696E-02  4.0000000000696E-02  4.0000000000696E-02  4.0000000000696E-02  4.0000000000696E-02  4.0000000000288E-02 
 4.0000000000696E-02  4.0000000000696E-02  4.0000000000696E-02  4.0000000000696E-02  4.0000000000696E-02  4.0000000000696E-02  4.0000000000696E-02  4.0000000000696E-02  4.0000000000696E-02  4.0000000000288E-02 
 2.9167373666390E-02  2.9167357939204E-02  2.9167310757618E-02  2.9167232121513E-02  2.9167122030686E-02  2.9166980484844E-02  2.9166807483609E-02  2.9166603026514E-02  2.9166367113006E-02  2.9166099742444E-02 
 0.0000000000000E+00 -4.7371510660879E-09 -8.9170107925691E-09 -1.2539577102670E-08 -1.5604846373600E-08 -1.8112813436544E-08 -2.0063471576643E-08 -2.1456812532970E-08 -2.2292826498510E-08 -2.2571502120125E-08 
-2.9167373666390E-02 -2.9167362676355E-02 -2.9167319674628E-02 -2.9167244661090E-02 -2.9167137635532E-02 -2.9166998597657E-02 -2.9166827547080E-02 -2.9166624483327E-02 -2.9166389405833E-02 -2.9166122313946E-02 
-4.0906712752791E-02 -4.0906712752791E-02 -4.0906712752791E-02 -4.0906712752791E-02 -4.0906712752790E-02 -4.0906712752790E-02 -4.0906712752790E-02 -4.0906712752790E-02 -4.0906712752790E-02 -4.0906712753053E-02 
 1.1739339086402E-02  1.1739350076436E-02  1.1739393078163E-02  1.1739468091701E-02  1.1739575117258E-02  1.1739714155133E-02  1.1739885205710E-02  1.1740088269464E-02  1.1740323346958E-02  1.1740590439106E-02 
 1.6690487381632E+00  3.3381006555381E+00  3.3381130951359E+00  3.3381347951598E+00  3.3381657556786E+00  3.3382059767918E+00  3.3382554586276E+00  3.3383142013440E+00  3.3383822051286E+00  1.6692297351141E+00 
 8.6492352103210E-09  2.5947722094032E-08  4.3246273449470E-08  6.0544937250939E-08  7.7843761500873E-08  9.5142794177205E-08  1.1244208327507E-07  1.2974167679115E-07  1.4704176694479E-07  1.4704176694479E-07 
 0.0000000000000E+00  3.3380990659879E+00  6.6762059412143E+00  1.0014329886344E+01  1.3352480161857E+01  1.6690666028234E+01  2.0028896745771E+01  2.3367181575686E+01  2.6705529778938E+01  3.0043950616508E+01 
 3.0043950616682E+01  2.6705851550750E+01  2.3367744675413E+01  2.0029620730265E+01  1.6691470454846E+01  1.3353284588610E+01  1.0015053870901E+01  6.6767690409148E+00  3.3384208376784E+00  0.0000000000000E+00 
 3.3380974763509E-08  6.6762013111253E-08  6.6762261903211E-08  6.6762695903689E-08  6.6763315114076E-08  6.6764119536339E-08  6.6765109173055E-08  6.6766284027383E-08  6.6767644103076E-08  3.3384594702386E-08 
 4.5724222271674E+04  9.1448444543348E+04  9.1448444543348E+04  9.1448444543348E+04  9.1448444543348E+04  9.1448444543348E+04  9.1448444543348E+04  9.1448444543348E+04  9.1448444543348E+04  4.5724222271674E+04 
 3.3835924481011E+05  6.7671848962021E+05  6.7671848962021E+05  6.7671848962021E+05  6.7671848962021E+05  6.7671848962021E+05  6.7671848962021E+05  6.7671848962021E+05  6.7671848962021E+05  3.3835924481011E+05 
 3.8408346708178E+05  7.6816693416356E+05  7.6816693416356E+05  7.6816693416356E+05  7.6816693416356E+05  7.6816693416356E+05  7.6816693416356E+05  7.6816693416356E+05  7.6816693416356E+05  3.8408346708178E+05 
 3.5000000000000E-01  3.5000000000000E-01  3.5000000000000E-01  3.5000000000000E-01  3.5000000000000E-01  3.5000000000000E-01  3.5000000000000E-01  3.5000000000000E-01  3.5000000000000E-01  3.5000000000000E-01 
 8.5301666666667E+00  1.7060333333333E+01  1.7060333333333E+01  1.7060333333333E+01  1.7060333333333E+01  1.7060333333333E+01  1.7060333333333E+01  1.7060333333333E+01  1.7060333333333E+01  8.5301666666667E+00 
 1.9566425878703E-01  1.9566444513812E-01  1.9566517429139E-01  1.9566644624918E-01  1.9566826101553E-01  1.9567061859626E-01  1.9567351899890E-01  1.9567696223270E-01  1.9568094830867E-01  1.9568547724125E-01 
 4.3744444444444E-05  8.7488888888889E-05  8.7488888888889E-05  8.7488888888889E-05  8.7488888888889E-05  8.7488888888889E-05  8.7488888888889E-05  8.7488888888889E-05  8.7488888888889E-05  4.3744444444444E-05 
 8.6666666666659E+01  8.6666666666659E+01  8.6666666666659E+01  8.6666666666659E+01  8.6666666666659E+01  8.6666666666659E+01  8.6666666666659E+01  8.6666666666659E+01  8.6666666666659E+01  8.6666666666659E+01 
 2.1666666666675E+01  2.1666666666675E+01  2.1666666666675E+01  2.1666666666675E+01  2.1666666666675E+01  2.1666666666675E+01  2.1666666666675E+01  2.1666666666675E+01  2.1666666666675E+01  2.1666666666675E+01 
 3.6728237801545E-11  5.7328560389450E-11  1.2295726392652E-10  2.3744258385694E-10  4.0078579058811E-10  6.1298869666704E-10  8.7405365681284E-10  1.1839835679835E-09  1.5427818693735E-09  1.7343985814097E-09 
 1.8364118901226E-03  2.8664280193931E-03  6.1478631962340E-03  1.1872129192653E-02  2.0039289528953E-02  3.0649434832817E-02  4.3702682839604E-02  5.9199178398072E-02  7.7139093467332E-02  8.6719929068499E-02 
 6.0006337839387E-04  3.0003203211479E-03  1.0201114653640E-02  2.2202520020648E-02  3.9004663337941E-02  6.0607724791423E-02  8.7011937840354E-02  1.1821758922399E-01  1.5422501896128E-01  1.7342922425042E-01 
 3.0727604017607E-03  2.7325357177971E-03  2.0946117390121E-03  1.5417383650455E-03  1.0739157208698E-03  6.9114487528125E-04  3.9342784092943E-04  1.8076757435903E-04  5.3167976062200E-05  1.0633890542231E-05 
 0.0000000000000E+00  0.0000000000000E+00  0.0000000000000E+00  0.0000000000000E+00  0.0000000000000E+00  0.0000000000000E+00  0.0000000000000E+00  0.0000000000000E+00  0.0000000000000E+00  0.0000000000000E+00 
 0.0000000000000E+00  0.0000000000000E+00  0.0000000000000E+00  0.0000000000000E+00  0.0000000000000E+00  0.0000000000000E+00  0.0000000000000E+00  0.0000000000000E+00  0.0000000000000E+00  0.0000000000000E+00 
 0.0000000000000E+00  0.0000000000000E+00  0.0000000000000E+00  0.0000000000000E+00  0.0000000000000E+00  0.0000000000000E+00  0.0000000000000E+00  0.0000000000000E+00  0.0000000000000E+00  0.0000000000000E+00 
ZONE T = "ANOD, 3.0000E-08", I = 10, SOLUTIONTIME = 3.000000E-08
ZONETYPE = ORDERED
DATAPACKING = BLOCK
STRANDID = 1
 0.0000000000000E+00  8.7488888888889E-05  1.7497777777778E-04  2.6246666666667E-04  3.4995555555556E-04  4.3744444444444E-04  5.2493333333333E-04  6.1242222222222E-04  6.9991111111111E-04  7.8740000000000E-04 
 1.1589975177437E-09  3.4769947608948E-09  5.7950006421778E-09  8.1130215920883E-09  1.0431427248898E-08  1.2750224043219E-08  1.5069055198026E-08  1.7387563936401E-08  1.9706119897016E-08  2.0864516684689E-08 
 9.1999999999791E-01  9.1999999999791E-01  9.1999999999791E-01  9.1999999999791E-01  9.1999999999791E-01  9.1999999999791E-01  9.1999999999791E-01  9.1999999999791E-01  9.1999999999791E-01  9.1999999999914E-01 
 4.0000000001045E-02  4.0000000001045E-02  4.0000000001045E-02  4.0000000001045E-02  4.0000000001045E-02  4.0000000001045E-02  4.0000000001045E-02  4.0000000001045E-02  4.0000000001045E-02  4.0000000000432E-02 
 4.0000000001045E-02  4.0000000001045E-02  4.0000000001045E-02  4.0000000001045E-02  4.0000000001045E-02  4.0000000001045E-02  4.0000000001045E-02  4.0000000001045E-02  4.0000000001045E-02  4.0000000000432E-02 
 2.9167373666318E-02  2.9167357939133E-02  2.9167310757546E-02  2.9167232121442E-02  2.9167122030614E-02  2.9166980484773E-02  2.9166807483538E-02  2.9166603026443E-02  2.9166367112935E-02  2.9166099742373E-02 
 0.0000000000000E+00 -4.7371510660216E-09 -8.9170107924445E-09 -1.2539577102495E-08 -1.5604846373383E-08 -1.8112813436294E-08 -2.0063471576366E-08 -2.1456812532676E-08 -2.2292826498206E-08 -2.2571502119819E-08 
-2.9167373666318E-02 -2.9167362676284E-02 -2.9167319674557E-02 -2.9167244661019E-02 -2.9167137635461E-02 -2.9166998597586E-02 -2.9166827547009E-02 -2.9166624483255E-02 -2.9166389405761E-02 -2.9166122313875E-02 
-4.0906712752491E-02 -4.0906712752491E-02 -4.0906712752491E-02 -4.0906712752491E-02 -4.0906712752491E-02 -4.0906712752491E-02 -4.0906712752491E-02 -4.0906712752491E-02 -4.0906712752491E-02 -4.0906712752884E-02 
 1.1739339086173E-02  1.1739350076207E-02  1.1739393077934E-02  1.1739468091472E-02  1.1739575117030E-02  1.1739714154905E-02  1.1739885205482E-02  1.1740088269236E-02  1.1740323346729E-02  1.1740590439009E-02 
 1.6690487381388E+00  3.3381006554894E+00  3.3381130950873E+00  3.3381347951111E+00  3.3381657556301E+00  3.3382059767435E+00  3.3382554585792E+00  3.3383142012956E+00  3.3383822050803E+00  1.6692297351046E+00 
 8.6492352084883E-09  2.5947722094258E-08  4.3246273449847E-08  6.0544937247303E-08  7.7843761499643E-08  9.5142794171962E-08  1.1244208327414E-07  1.2974167678881E-07  1.4704183906070E-07  1.4704183906070E-07 
 0.0000000000000E+00  3.3380990658328E+00  6.6762059412724E+00  1.0014329886247E+01  1.3352480161605E+01  1.6690666027827E+01  2.0028896745393E+01  2.3367181575521E+01  2.6705529778582E+01  3.0043950615937E+01 
 3.0043950616260E+01  2.6705851550376E+01  2.3367744675088E+01  2.0029620729989E+01  1.6691470454618E+01  1.3353284588431E+01  1.0015053870770E+01  6.6767690408327E+00  3.3384208376448E+00  0.0000000000000E+00 
 5.0071462144898E-08  1.0014301966615E-07  1.0014339285408E-07  1.0014404385480E-07  1.0014497267038E-07  1.0014617930377E-07  1.0014766375885E-07  1.0014942604034E-07  1.0015146615388E-07  5.0076892053432E-08 
 4.5724222271691E+04  9.1448444543381E+04  9.1448444543381E+04  9.1448444543381E+04  9.1448444543381E+04  9.1448444543381E+04  9.1448444543381E+04  9.1448444543381E+04  9.1448444543381E+04  4.5724222271691E+04 
 3.3835924481009E+05  6.7671848962018E+05  6.7671848962018E+05  6.7671848962018E+05  6.7671848962018E+05  6.7671848962018E+05  6.7671848962018E+05  6.7671848962018E+05  6.7671848962018E+05  3.3835924481009E+05 
 3.8408346708178E+05  7.6816693416356E+05  7.6816693416356E+05  7.6816693416356E+05  7.6816693416356E+05  7.6816693416356E+05  7.6816693416356E+05  7.6816693416356E+05  7.6816693416356E+05  3.8408346708178E+05 
 3.5000000000000E-01  3.5000000000000E-01  3.5000000000000E-01  3.5000000000000E-01  3.5000000000000E-01  3.5000000000000E-01  3.5000000000000E-01  3.5000000000000E-01  3.5000000000000E-01  3.5000000000000E-01 
 8.5301666666667E+00  1.7060333333333E+01  1.7060333333333E+01  1.7060333333333E+01  1.7060333333333E+01  1.7060333333333E+01  1.7060333333333E+01  1.7060333333333E+01  1.7060333333333E+01  8.5301666666667E+00 
 1.9566425878418E-01  1.9566444513527E-01  1.9566517428854E-01  1.9566644624633E-01  1.9566826101269E-01  1.9567061859343E-01  1.9567351899607E-01  1.9567696222987E-01  1.9568094830583E-01  1.9568547724014E-01 
 4.3744444444444E-05  8.7488888888889E-05  8.7488888888889E-05  8.7488888888889E-05  8.7488888888889E-05  8.7488888888889E-05  8.7488888888889E-05  8.7488888888889E-05  8.7488888888889E-05  4.3744444444444E-05 
 8.6666666666655E+01  8.6666666666655E+01  8.6666666666655E+01  8.6666666666655E+01  8.6666666666655E+01  8.6666666666655E+01  8.6666666666655E+01  8.6666666666655E+01  8.6666666666655E+01  8.6666666666655E+01 
 2.1666666666679E+01  2.1666666666679E+01  2.1666666666679E+01  2.1666666666679E+01  2.1666666666679E+01  2.1666666666679E+01  2.1666666666679E+01  2.1666666666679E+01  2.1666666666679E+01  2.1666666666679E+01 
 5.5092356701043E-11  8.5992840582468E-11  1.8443589588901E-10  3.5616387577958E-10  6.0117868586861E-10  9.1948304497725E-10  1.3110804851894E-09  1.7759753519508E-09  2.3141728040200E-09  2.6015978720550E-09 
 1.8364118899497E-03  2.8664280193018E-03  6.1478631962493E-03  1.1872129192265E-02  2.0039289528050E-02  3.0649434831020E-02  4.3702682837661E-02  5.9199178396731E-02  7.7139093464649E-02  8.6719929064532E-02 
 9.0009506752853E-04  4.5004804816091E-03  1.5301671980427E-02  3.3303780030423E-02  5.8506995005578E-02  9.0911587184817E-02  1.3051790675756E-01  1.7732638383354E-01  2.3133752843790E-01  2.6014383636968E-01 
 4.6091406025758E-03  4.0988035766377E-03  3.1419176084741E-03  2.3126075475359E-03  1.6108735812825E-03  1.0367173129078E-03  5.9014176138632E-04  2.7115136153512E-04  7.9751964092409E-05  1.5950835813253E-05 
 0.0000000000000E+00  0.0000000000000E+00  0.0000000000000E+00  0.0000000000000E+00  0.0000000000000E+00  0.0000000000000E+00  0.0000000000000E+00  0.0000000000000E+00  0.0000000000000E+00  0.0000000000000E+00 
 0.0000000000000E+00  0.0000000000000E+00  0.0000000000000E+00  0.0000000000000E+00  0.0000000000000E+00  0.0000000000000E+00  0.0000000000000E+00  0.0000000000000E+00  0.0000000000000E+00  0.0000000000000E+00 
 0.0000000000000E+00  0.0000000000000E+00  0.0000000000000E+00  0.0000000000000E+00  0.0000000000000E+00  0.0000000000000E+00  0.0000000000000E+00  0.0000000000000E+00  0.0000000000000E+00  0.0000000000000E+00 
ZONE T = "ANOD, 4.0000E-08", I = 10, SOLUTIONTIME = 4.000000E-08
ZONETYPE = ORDERED
DATAPACKING = BLOCK
STRANDID = 1
 0.0000000000000E+00  8.7488888888889E-05  1.7497777777778E-04  2.6246666666667E-04  3.4995555555556E-04  4.3744444444444E-04  5.2493333333333E-04  6.1242222222222E-04  6.9991111111111E-04  7.8740000000000E-04 
 1.1584527061351E-09  3.4764499492525E-09  5.7944558305018E-09  8.1124767803787E-09  1.0429429606243E-08  1.2746410361892E-08  1.5064515101209E-08  1.7382660631823E-08  1.9700853384676E-08  2.0859976587798E-08 
 9.1999999999721E-01  9.1999999999721E-01  9.1999999999721E-01  9.1999999999721E-01  9.1999999999721E-01  9.1999999999721E-01  9.1999999999721E-01  9.1999999999721E-01  9.1999999999721E-01  9.1999999999885E-01 
 4.0000000001393E-02  4.0000000001393E-02  4.0000000001393E-02  4.0000000001393E-02  4.0000000001393E-02  4.0000000001393E-02  4.0000000001393E-02  4.0000000001393E-02  4.0000000001393E-02  4.0000000000576E-02 
 4.0000000001393E-02  4.0000000001393E-02  4.0000000001393E-02  4.0000000001393E-02  4.0000000001393E-02  4.0000000001393E-02  4.0000000001393E-02  4.0000000001393E-02  4.0000000001393E-02  4.0000000000576E-02 
 2.9167373666244E-02  2.9167357939059E-02  2.9167310757472E-02  2.9167232121368E-02  2.9167122030540E-02  2.9166980484699E-02  2.9166807483464E-02  2.9166603026369E-02  2.9166367112861E-02  2.9166099742299E-02 
 0.0000000000000E+00 -4.7371510659549E-09 -8.9170107923193E-09 -1.2539577102319E-08 -1.5604846373165E-08 -1.8112813436042E-08 -2.0063471576088E-08 -2.1456812532380E-08 -2.2292826497901E-08 -2.2571502119512E-08 
-2.9167373666244E-02 -2.9167362676210E-02 -2.9167319674483E-02 -2.9167244660945E-02 -2.9167137635387E-02 -2.9166998597512E-02 -2.9166827546935E-02 -2.9166624483181E-02 -2.9166389405688E-02 -2.9166122313801E-02 
-4.0906712752189E-02 -4.0906712752189E-02 -4.0906712752189E-02 -4.0906712752189E-02 -4.0906712752188E-02 -4.0906712752187E-02 -4.0906712752187E-02 -4.0906712752187E-02 -4.0906712752187E-02 -4.0906712752712E-02 
 1.1739339085944E-02  1.1739350075979E-02  1.1739393077706E-02  1.1739468091244E-02  1.1739575116801E-02  1.1739714154675E-02  1.1739885205252E-02  1.1740088269006E-02  1.1740323346500E-02  1.1740590438911E-02 
 1.6690487381145E+00  3.3381006554409E+00  3.3381130950388E+00  3.3381347950626E+00  3.3381657555814E+00  3.3382059766946E+00  3.3382554585304E+00  3.3383142012468E+00  3.3383822050315E+00  1.6692297350949E+00 