TITLE = "Solution on Domain BulkDomain1D_0"
VARIABLES = "x [m]"  
"Vel_axial" 
"MF_sp(ECDMC)" 
"MF_sp(Li+)" 
"MF_sp(PF6-)" 
"Volt(Electroly)" 
"Volt(AnodeVolt)" 
"Potential Drop Electrode-Electrolyte [V]" 
"Surf_0 Equilibrium Potential Drop Electrode-Electrolyte [V]" 
"Overpotential_0 [V]" 
"Current Source [A/m^2]" 
"Li+ flux [kmol/m^2/s]" 
"Electrolyte Current [A/m^2]" 
"Electrode Current [A/m^2]" 
"CV Capacity discharged [A-s/m^2]" 
"Depth of discharge in CV [A-s/m^2]" 
"CV Capacity remaining [A-s/m^2]" 
"Initial CV capacity [A-s/m^2]" 
"Porosity []" 
"Surface Area [m2/m2] (area per area)" 
"Specific current (per particle area) [A/m^2]" 
"Control volume thickness [m]" 
"MoleDens Li_C6-bulk [kmol/m^3]" 
"MoleDens V_C6-bulk [kmol/m^3]" 
"qHeat_accum [J/m3]" 
"qHeat_step [W/m3]" 
"Joule_Lyte [W/m3]" 
"Joule_Solid [W/m3]" 
"electrodHeat [W/m3]" 
"OverpotHeat [W/m3]" 
"deltaSHeat [W/m3]" 

ZONE T = "ANOD, 0.0000E+00", I = 10, SOLUTIONTIME = 0.000000E+00
ZONETYPE = ORDERED
DATAPACKING = BLOCK
STRANDID = 1
 0.0000000000000E+00  8.7488888888889E-05  1.7497777777778E-04  2.6246666666667E-04  3.4995555555556E-04  4.3744444444444E-04  5.2493333333333E-04  6.1242222222222E-04  6.9991111111111E-04  7.8740000000000E-04 
 0.0000000000000E+00  0.0000000000000E+00  0.0000000000000E+00  0.0000000000000E+00  0.0000000000000E+00  0.0000000000000E+00  0.0000000000000E+00  0.0000000000000E+00  0.0000000000000E+00  0.0000000000000E+00 
 9.2000000000000E-01  9.2000000000000E-01  9.2000000000000E-01  9.2000000000000E-01  9.2000000000000E-01  9.2000000000000E-01  9.2000000000000E-01  9.2000000000000E-01  9.2000000000000E-01  9.2000000000000E-01 
 4.0000000000000E-02  4.0000000000000E-02  4.0000000000000E-02  4.0000000000000E-02  4.0000000000000E-02  4.0000000000000E-02  4.0000000000000E-02  4.0000000000000E-02  4.0000000000000E-02  4.0000000000000E-02 
 4.0000000000000E-02  4.0000000000000E-02  4.0000000000000E-02  4.0000000000000E-02  4.0000000000000E-02  4.0000000000000E-02  4.0000000000000E-02  4.0000000000000E-02  4.0000000000000E-02  4.0000000000000E-02 
-7.0000000000000E-02 -7.0000000000000E-02 -7.0000000000000E-02 -7.0000000000000E-02 -7.0000000000000E-02 -7.0000000000000E-02 -7.0000000000000E-02 -7.0000000000000E-02 -7.0000000000000E-02 -7.0000000000000E-02 
 0.0000000000000E+00  0.0000000000000E+00  0.0000000000000E+00  0.0000000000000E+00  0.0000000000000E+00  0.0000000000000E+00  0.0000000000000E+00  0.0000000000000E+00  0.0000000000000E+00  0.0000000000000E+00 
 7.0000000000000E-02  7.0000000000000E-02  7.0000000000000E-02  7.0000000000000E-02  7.0000000000000E-02  7.0000000000000E-02  7.0000000000000E-02  7.0000000000000E-02  7.0000000000000E-02  7.0000000000000E-02 
-4.0906712753390E-02 -4.0906712753390E-02 -4.0906712753390E-02 -4.0906712753390E-02 -4.0906712753390E-02 -4.0906712753390E-02 -4.0906712753390E-02 -4.0906712753390E-02 -4.0906712753390E-02 -4.0906712753390E-02 
 1.1090671275339E-01  1.1090671275339E-01  1.1090671275339E-01  1.1090671275339E-01  1.1090671275339E-01  1.1090671275339E-01  1.1090671275339E-01  1.1090671275339E-01  1.1090671275339E-01  1.1090671275339E-01 
 3.0930240924008E+01  6.1860481848017E+01  6.1860481848017E+01  6.1860481848017E+01  6.1860481848017E+01  6.1860481848017E+01  6.1860481848017E+01  6.1860481848017E+01  6.1860481848017E+01  3.0930240924008E+01 
-0.0000000000000E+00 -0.0000000000000E+00 -0.0000000000000E+00 -0.0000000000000E+00 -0.0000000000000E+00 -0.0000000000000E+00 -0.0000000000000E+00 -0.0000000000000E+00 -0.0000000000000E+00 -0.0000000000000E+00 
 0.0000000000000E+00  0.0000000000000E+00  0.0000000000000E+00  0.0000000000000E+00  0.0000000000000E+00  0.0000000000000E+00  0.0000000000000E+00  0.0000000000000E+00  0.0000000000000E+00  3.0930240924008E+01 
 3.0930240924008E+01 -0.0000000000000E+00 -0.0000000000000E+00 -0.0000000000000E+00 -0.0000000000000E+00 -0.0000000000000E+00 -0.0000000000000E+00 -0.0000000000000E+00 -0.0000000000000E+00  0.0000000000000E+00 
 0.0000000000000E+00  0.0000000000000E+00  0.0000000000000E+00  0.0000000000000E+00  0.0000000000000E+00  0.0000000000000E+00  0.0000000000000E+00  0.0000000000000E+00  0.0000000000000E+00  0.0000000000000E+00 
 4.5724222271641E+04  9.1448444543281E+04  9.1448444543281E+04  9.1448444543281E+04  9.1448444543281E+04  9.1448444543281E+04  9.1448444543281E+04  9.1448444543281E+04  9.1448444543281E+04  4.5724222271641E+04 
 3.3835924481014E+05  6.7671848962028E+05  6.7671848962028E+05  6.7671848962028E+05  6.7671848962028E+05  6.7671848962028E+05  6.7671848962028E+05  6.7671848962028E+05  6.7671848962028E+05  3.3835924481014E+05 
 3.8408346708178E+05  7.6816693416356E+05  7.6816693416356E+05  7.6816693416356E+05  7.6816693416356E+05  7.6816693416356E+05  7.6816693416356E+05  7.6816693416356E+05  7.6816693416356E+05  3.8408346708178E+05 
 3.5000000000000E-01  3.5000000000000E-01  3.5000000000000E-01  3.5000000000000E-01  3.5000000000000E-01  3.5000000000000E-01  3.5000000000000E-01  3.5000000000000E-01  3.5000000000000E-01  3.5000000000000E-01 
 8.5301666666667E+00  1.7060333333333E+01  1.7060333333333E+01  1.7060333333333E+01  1.7060333333333E+01  1.7060333333333E+01  1.7060333333333E+01  1.7060333333333E+01  1.7060333333333E+01  8.5301666666667E+00 
 3.6259831879809E+00  3.6259831879809E+00  3.6259831879809E+00  3.6259831879809E+00  3.6259831879809E+00  3.6259831879809E+00  3.6259831879809E+00  3.6259831879809E+00  3.6259831879809E+00  3.6259831879809E+00 
 4.3744444444444E-05  8.7488888888889E-05  8.7488888888889E-05  8.7488888888889E-05  8.7488888888889E-05  8.7488888888889E-05  8.7488888888889E-05  8.7488888888889E-05  8.7488888888889E-05  4.3744444444444E-05 
 8.6666666666667E+01  8.6666666666667E+01  8.6666666666667E+01  8.6666666666667E+01  8.6666666666667E+01  8.6666666666667E+01  8.6666666666667E+01  8.6666666666667E+01  8.6666666666667E+01  8.6666666666667E+01 
 2.1666666666667E+01  2.1666666666667E+01  2.1666666666667E+01  2.1666666666667E+01  2.1666666666667E+01  2.1666666666667E+01  2.1666666666667E+01  2.1666666666667E+01  2.1666666666667E+01  2.1666666666667E+01 
 0.0000000000000E+00  0.0000000000000E+00  0.0000000000000E+00  0.0000000000000E+00  0.0000000000000E+00  0.0000000000000E+00  0.0000000000000E+00  0.0000000000000E+00  0.0000000000000E+00  0.0000000000000E+00 
 0.0000000000000E+00  0.0000000000000E+00  0.0000000000000E+00  0.0000000000000E+00  0.0000000000000E+00  0.0000000000000E+00  0.0000000000000E+00  0.0000000000000E+00  0.0000000000000E+00  0.0000000000000E+00 
 0.0000000000000E+00  0.0000000000000E+00  0.0000000000000E+00  0.0000000000000E+00  0.0000000000000E+00  0.0000000000000E+00  0.0000000000000E+00  0.0000000000000E+00  0.0000000000000E+00  0.0000000000000E+00 
 0.0000000000000E+00  0.0000000000000E+00  0.0000000000000E+00  0.0000000000000E+00  0.0000000000000E+00  0.0000000000000E+00  0.0000000000000E+00  0.0000000000000E+00  0.0000000000000E+00  0.0000000000000E+00 
 0.0000000000000E+00  0.0000000000000E+00  0.0000000000000E+00  0.0000000000000E+00  0.0000000000000E+00  0.0000000000000E+00  0.0000000000000E+00  0.0000000000000E+00  0.0000000000000E+00  0.0000000000000E+00 
 0.0000000000000E+00  0.0000000000000E+00  0.0000000000000E+00  0.0000000000000E+00  0.0000000000000E+00  0.0000000000000E+00  0.0000000000000E+00  0.0000000000000E+00  0.0000000000000E+00  0.0000000000000E+00 
 0.0000000000000E+00  0.0000000000000E+00  0.0000000000000E+00  0.0000000000000E+00  0.0000000000000E+00  0.0000000000000E+00  0.0000000000000E+00  0.0000000000000E+00  0.0000000000000E+00  0.0000000000000E+00 
ZONE T = "ANOD, 1.0000E-08", I = 10, SOLUTIONTIME = 1.000000E-08
ZONETYPE = ORDERED
DATAPACKING = BLOCK
STRANDID = 1
 0.0000000000000E+00  8.7488888888889E-05  1.7497777777778E-04  2.6246666666667E-04  3.4995555555556E-04  4.3744444444444E-04  5.2493333333333E-04  6.1242222222222E-04  6.9991111111111E-04  7.8740000000000E-04 
 1.1589917711552E-09  3.4769775213519E-09  5.7949719096471E-09  8.1129813665277E-09  1.0431012322741E-08  1.2749071208900E-08  1.5067164455908E-08  1.7385298494338E-08  1.9703479755339E-08  2.0863323627982E-08 
 9.1999999999930E-01  9.1999999999930E-01  9.1999999999930E-01  9.1999999999930E-01  9.1999999999930E-01  9.1999999999930E-01  9.1999999999930E-01  9.1999999999930E-01  9.1999999999930E-01  9.1999999999971E-01 
 4.0000000000348E-02  4.0000000000348E-02  4.0000000000348E-02  4.0000000000348E-02  4.0000000000348E-02  4.0000000000348E-02  4.0000000000348E-02  4.0000000000348E-02  4.0000000000348E-02  4.0000000000144E-02 
 4.0000000000348E-02  4.0000000000348E-02  4.0000000000348E-02  4.0000000000348E-02  4.0000000000348E-02  4.0000000000348E-02  4.0000000000348E-02  4.0000000000348E-02  4.0000000000348E-02  4.0000000000144E-02 
 2.9167371470048E-02  2.9167355742936E-02  2.9167308561589E-02  2.9167229925872E-02  2.9167119835601E-02  2.9166978290449E-02  2.9166805290079E-02  2.9166600833994E-02  2.9166364921662E-02  2.9166097552422E-02 
 0.0000000000000E+00 -4.7371275801990E-09 -8.9169665839274E-09 -1.2539514934419E-08 -1.5604769008896E-08 -1.8112723638501E-08 -2.0063372108338E-08 -2.1456706157393E-08 -2.2292715978621E-08 -2.2571390218802E-08 
-2.9167371470048E-02 -2.9167360480064E-02 -2.9167317478556E-02 -2.9167242465387E-02 -2.9167135440370E-02 -2.9166996403172E-02 -2.9166825353452E-02 -2.9166622290700E-02 -2.9166387214378E-02 -2.9166120123812E-02 
-4.0906712753087E-02 -4.0906712753087E-02 -4.0906712753087E-02 -4.0906712753087E-02 -4.0906712753090E-02 -4.0906712753090E-02 -4.0906712753090E-02 -4.0906712753090E-02 -4.0906712753090E-02 -4.0906712753221E-02 
 1.1739341283039E-02  1.1739352273023E-02  1.1739395274531E-02  1.1739470287700E-02  1.1739577312721E-02  1.1739716349918E-02  1.1739887399639E-02  1.1740090462390E-02  1.1740325538713E-02  1.1740592629409E-02 
 1.6690490558776E+00  3.3381012909523E+00  3.3381137304871E+00  3.3381354304043E+00  3.3381663907680E+00  3.3382066116856E+00  3.3382560932743E+00  3.3383148357012E+00  3.3383828391477E+00  1.6692300519182E+00 
 8.6491946835252E-09  2.5947590439206E-08  4.3246060483467E-08  6.0544631401171E-08  7.7843382060874E-08  9.5142318077435E-08  1.1244152802784E-07  1.2974103045024E-07  1.4704096764798E-07  1.4704096764798E-07 
 0.0000000000000E+00  3.3380824529861E+00  6.6761726903576E+00  1.0014279828078E+01  1.3352414041226E+01  1.6690583480908E+01  2.0028797235474E+01  2.3367065639614E+01  2.6705397254201E+01  3.0043810609115E+01 
 3.0043810257060E+01  2.6705719148821E+01  2.3367628824325E+01  2.0029521430072E+01  1.6691387705462E+01  1.3353218389805E+01  1.0015004222295E+01  6.6767359421565E+00  3.3384042884386E+00  0.0000000000000E+00 
 1.6690490558776E-08  3.3381012909523E-08  3.3381137304871E-08  3.3381354304043E-08  3.3381663907680E-08  3.3382066116856E-08  3.3382560932743E-08  3.3383148357012E-08  3.3383828391477E-08  1.6692300519182E-08 
 4.5724222271657E+04  9.1448444543315E+04  9.1448444543315E+04  9.1448444543315E+04  9.1448444543315E+04  9.1448444543315E+04  9.1448444543315E+04  9.1448444543315E+04  9.1448444543315E+04  4.5724222271657E+04 
 3.3835924481012E+05  6.7671848962025E+05  6.7671848962025E+05  6.7671848962025E+05  6.7671848962025E+05  6.7671848962025E+05  6.7671848962025E+05  6.7671848962025E+05  6.7671848962025E+05  3.3835924481012E+05 
 3.8408346708178E+05  7.6816693416356E+05  7.6816693416356E+05  7.6816693416356E+05  7.6816693416356E+05  7.6816693416356E+05  7.6816693416356E+05  7.6816693416356E+05  7.6816693416356E+05  3.8408346708178E+05 
 3.5000000000000E-01  3.5000000000000E-01  3.5000000000000E-01  3.5000000000000E-01  3.5000000000000E-01  3.5000000000000E-01  3.5000000000000E-01  3.5000000000000E-01  3.5000000000000E-01  3.5000000000000E-01 
 8.5301666666667E+00  1.7060333333333E+01  1.7060333333333E+01  1.7060333333333E+01  1.7060333333333E+01  1.7060333333333E+01  1.7060333333333E+01  1.7060333333333E+01  1.7060333333333E+01  8.5301666666667E+00 
 1.9566429603301E-01  1.9566448238325E-01  1.9566521153282E-01  1.9566648348436E-01  1.9566829824161E-01  1.9567065581088E-01  1.9567355619903E-01  1.9567699941587E-01  1.9568098547201E-01  1.9568551438051E-01 
 4.3744444444444E-05  8.7488888888889E-05  8.7488888888889E-05  8.7488888888889E-05  8.7488888888889E-05  8.7488888888889E-05  8.7488888888889E-05  8.7488888888889E-05  8.7488888888889E-05  4.3744444444444E-05 
 8.6666666666663E+01  8.6666666666663E+01  8.6666666666663E+01  8.6666666666663E+01  8.6666666666663E+01  8.6666666666663E+01  8.6666666666663E+01  8.6666666666663E+01  8.6666666666663E+01  8.6666666666663E+01 
 2.1666666666671E+01  2.1666666666671E+01  2.1666666666671E+01  2.1666666666671E+01  2.1666666666671E+01  2.1666666666671E+01  2.1666666666671E+01  2.1666666666671E+01  2.1666666666671E+01  2.1666666666671E+01 
 1.8363938443584E-11  2.8663993654599E-11  6.1478021732673E-11  1.1872010344153E-10  2.0039091475789E-10  3.0649131273533E-10  4.3702248822035E-10  5.9198590785821E-10  7.7138328046926E-10  8.6719071342459E-10 
 1.8363938443584E-03  2.8663993654599E-03  6.1478021732673E-03  1.1872010344153E-02  2.0039091475789E-02  3.0649131273533E-02  4.3702248822035E-02  5.9198590785821E-02  7.7138328046926E-02  8.6719071342459E-02 
 3.0002887762087E-04  1.5001450538820E-03  5.1005066882851E-03  1.1101148805053E-02  1.9502138939382E-02  3.0303562262239E-02  4.3505536851949E-02  5.9108207894762E-02  7.7111744322460E-02  8.6713754449902E-02 
 1.5363649667375E-03  1.3662543115780E-03  1.0472954849822E-03  7.7086153910003E-04  5.3695253640740E-04  3.4556901129464E-04  1.9671197008578E-04  9.0382891058845E-05  2.6583724466097E-05  5.3168925575645E-06 
 0.0000000000000E+00  0.0000000000000E+00  0.0000000000000E+00  0.0000000000000E+00  0.0000000000000E+00  0.0000000000000E+00  0.0000000000000E+00  0.0000000000000E+00  0.0000000000000E+00  0.0000000000000E+00 
 0.0000000000000E+00  0.0000000000000E+00  0.0000000000000E+00  0.0000000000000E+00  0.0000000000000E+00  0.0000000000000E+00  0.0000000000000E+00  0.0000000000000E+00  0.0000000000000E+00  0.0000000000000E+00 
 0.0000000000000E+00  0.0000000000000E+00  0.0000000000000E+00  0.0000000000000E+00  0.0000000000000E+00  0.0000000000000E+00  0.0000000000000E+00  0.0000000000000E+00  0.0000000000000E+00  0.0000000000000E+00 
ZONE T = "ANOD, 2.0000E-08", I = 10, SOLUTIONTIME = 2.000000E-08
ZONETYPE = ORDERED
DATAPACKING = BLOCK
STRANDID = 1
 0.0000000000000E+00  8.7488888888889E-05  1.7497777777778E-04  2.6246666666667E-04  3.4995555555556E-04  4.3744444444444E-04  5.2493333333333E-04  6.1242222222222E-04  6.9991111111111E-04  7.8740000000000E-04 
 1.1589975178151E-09  3.4769947611091E-09  5.7950006425350E-09  8.1130215925884E-09  1.0430700834085E-08  1.2748044797638E-08  1.5065423121676E-08  1.7383205444739E-08  1.9701034990040E-08  2.0860884608686E-08 
 9.1999999999861E-01  9.1999999999861E-01  9.1999999999861E-01  9.1999999999861E-01  9.1999999999861E-01  9.1999999999861E-01  9.1999999999861E-01  9.1999999999861E-01  9.1999999999861E-01  9.1999999999942E-01 
 4.0000000000696E-02  4.0000000000696E-02  4.0000000000696E-02  4.0000000000696E-02  4.0000000000696E-02  4.0000000000696E-02  4.0000000000696E-02  4.0000000000696E-02  4.0000000000696E-02  4.0000000000288E-02 
 4.0000000000696E-02  4.0000000000696E-02  4.0000000000696E-02  4.0000000000696E-02  4.0000000000696E-02  4.0000000000696E-02  4.0000000000696E-02  4.0000000000696E-02  4.0000000000696E-02  4.0000000000288E-02 
 2.9167373665846E-02  2.9167357938661E-02  2.9167310757074E-02  2.9167232120970E-02  2.9167122030142E-02  2.9166980484301E-02  2.9166807483066E-02  2.9166603025971E-02  2.9166367112463E-02  2.9166099741901E-02 
 0.0000000000000E+00 -4.7371510663109E-09 -8.9170107929888E-09 -1.2539577103260E-08 -1.5604846374335E-08 -1.8112813437397E-08 -2.0063471577587E-08 -2.1456812533980E-08 -2.2292826499559E-08 -2.2571502121187E-08 
-2.9167373665846E-02 -2.9167362675812E-02 -2.9167319674085E-02 -2.9167244660547E-02 -2.9167137634989E-02 -2.9166998597114E-02 -2.9166827546537E-02 -2.9166624482783E-02 -2.9166389405289E-02 -2.9166122313403E-02 
-4.0906712752791E-02 -4.0906712752791E-02 -4.0906712752791E-02 -4.0906712752791E-02 -4.0906712752790E-02 -4.0906712752790E-02 -4.0906712752790E-02 -4.0906712752790E-02 -4.0906712752790E-02 -4.0906712753052E-02 
 1.1739339086945E-02  1.1739350076979E-02  1.1739393078706E-02  1.1739468092244E-02  1.1739575117801E-02  1.1739714155676E-02  1.1739885206253E-02  1.1740088270007E-02  1.1740323347501E-02  1.1740590439649E-02 
 1.6690487382417E+00  3.3381006556951E+00  3.3381130952931E+00  3.3381347953169E+00  3.3381657558357E+00  3.3382059769489E+00  3.3382554587847E+00  3.3383142015012E+00  3.3383822052858E+00  1.6692297351926E+00 
 8.6492352103210E-09  2.5947722095940E-08  4.3246273451378E-08  6.0544937254755E-08  7.7843761502781E-08  9.5142794181021E-08  1.1244208328079E-07  1.2974167679879E-07  1.4704176695242E-07  1.4704176695242E-07 
 0.0000000000000E+00  3.3380990661720E+00  6.6762059415825E+00  1.0014329886896E+01  1.3352480162409E+01  1.6690666028786E+01  2.0028896746692E+01  2.3367181576975E+01  2.6705529780410E+01  3.0043950618059E+01 
 3.0043950618096E+01  2.6705851552006E+01  2.3367744676512E+01  2.0029620731207E+01  1.6691470455631E+01  1.3353284589239E+01  1.0015053871372E+01  6.6767690412290E+00  3.3384208378355E+00  0.0000000000000E+00 
 3.3380977941193E-08  6.6762019466475E-08  6.6762268257802E-08  6.6762702257212E-08  6.6763321466037E-08  6.6764125886345E-08  6.6765115520590E-08  6.6766290372023E-08  6.6767650444335E-08  3.3384597871108E-08 
 4.5724222271674E+04  9.1448444543348E+04  9.1448444543348E+04  9.1448444543348E+04  9.1448444543348E+04  9.1448444543348E+04  9.1448444543348E+04  9.1448444543348E+04  9.1448444543348E+04  4.5724222271674E+04 
 3.3835924481011E+05  6.7671848962021E+05  6.7671848962021E+05  6.7671848962021E+05  6.7671848962021E+05  6.7671848962021E+05  6.7671848962021E+05  6.7671848962021E+05  6.7671848962021E+05  3.3835924481011E+05 
 3.8408346708178E+05  7.6816693416356E+05  7.6816693416356E+05  7.6816693416356E+05  7.6816693416356E+05  7.6816693416356E+05  7.6816693416356E+05  7.6816693416356E+05  7.6816693416356E+05  3.8408346708178E+05 
 3.5000000000000E-01  3.5000000000000E-01  3.5000000000000E-01  3.5000000000000E-01  3.5000000000000E-01  3.5000000000000E-01  3.5000000000000E-01  3.5000000000000E-01  3.5000000000000E-01  3.5000000000000E-01 
 8.5301666666667E+00  1.7060333333333E+01  1.7060333333333E+01  1.7060333333333E+01  1.7060333333333E+01  1.7060333333333E+01  1.7060333333333E+01  1.7060333333333E+01  1.7060333333333E+01  8.5301666666667E+00 
 1.9566425879624E-01  1.9566444514733E-01  1.9566517430061E-01  1.9566644625839E-01  1.9566826102474E-01  1.9567061860547E-01  1.9567351900811E-01  1.9567696224192E-01  1.9568094831788E-01  1.9568547725046E-01 
 4.3744444444444E-05  8.7488888888889E-05  8.7488888888889E-05  8.7488888888889E-05  8.7488888888889E-05  8.7488888888889E-05  8.7488888888889E-05  8.7488888888889E-05  8.7488888888889E-05  4.3744444444444E-05 
 8.6666666666659E+01  8.6666666666659E+01  8.6666666666659E+01  8.6666666666659E+01  8.6666666666659E+01  8.6666666666659E+01  8.6666666666659E+01  8.6666666666659E+01  8.6666666666659E+01  8.6666666666659E+01 
 2.1666666666675E+01  2.1666666666675E+01  2.1666666666675E+01  2.1666666666675E+01  2.1666666666675E+01  2.1666666666675E+01  2.1666666666675E+01  2.1666666666675E+01  2.1666666666675E+01  2.1666666666675E+01 
 3.6728057346255E-11  5.7328273851802E-11  1.2295665370129E-10  2.3744139538136E-10  4.0078381006315E-10  6.1298566108435E-10  8.7404931665695E-10  1.1839776919045E-09  1.5427742152273E-09  1.7343900041996E-09 
 1.8364118902672E-03  2.8664280197203E-03  6.1478631968620E-03  1.1872129193983E-02  2.0039289530526E-02  3.0649434834902E-02  4.3702682843660E-02  5.9199178404633E-02  7.7139093475807E-02  8.6719929077502E-02 
 6.0006056688529E-04  3.0003052145948E-03  1.0201064015558E-02  2.2202408816451E-02  3.9004470609430E-02  6.0607424659472E-02  8.7011505775129E-02  1.1821700251221E-01  1.5422425381023E-01  1.7342836658213E-01 
 3.0727451677402E-03  2.7325221705854E-03  2.0946013545718E-03  1.5417307216843E-03  1.0739103968852E-03  6.9114144896294E-04  3.9342589056632E-04  1.8076667824569E-04  5.3167712499392E-05  1.0633837829147E-05 
 0.0000000000000E+00  0.0000000000000E+00  0.0000000000000E+00  0.0000000000000E+00  0.0000000000000E+00  0.0000000000000E+00  0.0000000000000E+00  0.0000000000000E+00  0.0000000000000E+00  0.0000000000000E+00 
 0.0000000000000E+00  0.0000000000000E+00  0.0000000000000E+00  0.0000000000000E+00  0.0000000000000E+00  0.0000000000000E+00  0.0000000000000E+00  0.0000000000000E+00  0.0000000000000E+00  0.0000000000000E+00 
 0.0000000000000E+00  0.0000000000000E+00  0.0000000000000E+00  0.0000000000000E+00  0.0000000000000E+00  0.0000000000000E+00  0.0000000000000E+00  0.0000000000000E+00  0.0000000000000E+00  0.0000000000000E+00 
ZONE T = "ANOD, 3.0000E-08", I = 10, SOLUTIONTIME = 3.000000E-08
ZONETYPE = ORDERED
DATAPACKING = BLOCK
STRANDID = 1
 0.0000000000000E+00  8.7488888888889E-05  1.7497777777778E-04  2.6246666666667E-04  3.4995555555556E-04  4.3744444444444E-04  5.2493333333333E-04  6.1242222222222E-04  6.9991111111111E-04  7.8740000000000E-04 
 1.1589975177982E-09  3.4769947610584E-09  5.7950006424504E-09  8.1130215924700E-09  1.0431427249389E-08  1.2751313667002E-08  1.5070144821918E-08  1.7388653560403E-08  1.9707209521126E-08  2.0865606308854E-08 
 9.1999999999791E-01  9.1999999999791E-01  9.1999999999791E-01  9.1999999999791E-01  9.1999999999791E-01  9.1999999999791E-01  9.1999999999791E-01  9.1999999999791E-01  9.1999999999791E-01  9.1999999999914E-01 
 4.0000000001045E-02  4.0000000001045E-02  4.0000000001045E-02  4.0000000001045E-02  4.0000000001045E-02  4.0000000001045E-02  4.0000000001045E-02  4.0000000001045E-02  4.0000000001045E-02  4.0000000000432E-02 
 4.0000000001045E-02  4.0000000001045E-02  4.0000000001045E-02  4.0000000001045E-02  4.0000000001045E-02  4.0000000001045E-02  4.0000000001045E-02  4.0000000001045E-02  4.0000000001045E-02  4.0000000000432E-02 
 2.9167373665775E-02  2.9167357938590E-02  2.9167310757003E-02  2.9167232120899E-02  2.9167122030071E-02  2.9166980484230E-02  2.9166807482995E-02  2.9166603025900E-02  2.9166367112392E-02  2.9166099741830E-02 
 0.0000000000000E+00 -4.7371510662445E-09 -8.9170107928641E-09 -1.2539577103085E-08 -1.5604846374118E-08 -1.8112813437146E-08 -2.0063471577310E-08 -2.1456812533686E-08 -2.2292826499256E-08 -2.2571502120881E-08 
-2.9167373665775E-02 -2.9167362675741E-02 -2.9167319674014E-02 -2.9167244660476E-02 -2.9167137634918E-02 -2.9166998597043E-02 -2.9166827546466E-02 -2.9166624482712E-02 -2.9166389405218E-02 -2.9166122313332E-02 
-4.0906712752491E-02 -4.0906712752491E-02 -4.0906712752491E-02 -4.0906712752491E-02 -4.0906712752491E-02 -4.0906712752491E-02 -4.0906712752491E-02 -4.0906712752491E-02 -4.0906712752491E-02 -4.0906712752884E-02 
 1.1739339086716E-02  1.1739350076750E-02  1.1739393078477E-02  1.1739468092015E-02  1.1739575117573E-02  1.1739714155448E-02  1.1739885206025E-02  1.1740088269779E-02  1.1740323347273E-02  1.1740590439552E-02 
 1.6690487382174E+00  3.3381006556464E+00  3.3381130952443E+00  3.3381347952682E+00  3.3381657557873E+00  3.3382059769005E+00  3.3382554587363E+00  3.3383142014527E+00  3.3383822052374E+00  1.6692297351831E+00 
 8.6492352084883E-09  2.5947722096166E-08  4.3246273451755E-08  6.0544937251119E-08  7.7843761501551E-08  9.5142794177686E-08  1.1244208327986E-07  1.2974167679262E-07  1.4704183907024E-07  1.4704183907024E-07 
 0.0000000000000E+00  3.3380990660169E+00  6.6762059416406E+00  1.0014329886799E+01  1.3352480162157E+01  1.6690666028563E+01  2.0028896746498E+01  2.3367181576442E+01  2.6705529779870E+01  3.0043950617856E+01 
 3.0043950617674E+01  2.6705851551633E+01  2.3367744676188E+01  2.0029620730931E+01  1.6691470455404E+01  1.3353284589060E+01  1.0015053871241E+01  6.6767690411469E+00  3.3384208378019E+00  0.0000000000000E+00 
 5.0071465323366E-08  1.0014302602294E-07  1.0014339921025E-07  1.0014405020989E-07  1.0014497902391E-07  1.0014618565535E-07  1.0014767010795E-07  1.0014943238655E-07  1.0015147249671E-07  5.0076895222940E-08 
 4.5724222271691E+04  9.1448444543381E+04  9.1448444543381E+04  9.1448444543381E+04  9.1448444543381E+04  9.1448444543381E+04  9.1448444543381E+04  9.1448444543381E+04  9.1448444543381E+04  4.5724222271691E+04 
 3.3835924481009E+05  6.7671848962018E+05  6.7671848962018E+05  6.7671848962018E+05  6.7671848962018E+05  6.7671848962018E+05  6.7671848962018E+05  6.7671848962018E+05  6.7671848962018E+05  3.3835924481009E+05 
 3.8408346708178E+05  7.6816693416356E+05  7.6816693416356E+05  7.6816693416356E+05  7.6816693416356E+05  7.6816693416356E+05  7.6816693416356E+05  7.6816693416356E+05  7.6816693416356E+05  3.8408346708178E+05 
 3.5000000000000E-01  3.5000000000000E-01  3.5000000000000E-01  3.5000000000000E-01  3.5000000000000E-01  3.5000000000000E-01  3.5000000000000E-01  3.5000000000000E-01  3.5000000000000E-01  3.5000000000000E-01 
 8.5301666666667E+00  1.7060333333333E+01  1.7060333333333E+01  1.7060333333333E+01  1.7060333333333E+01  1.7060333333333E+01  1.7060333333333E+01  1.7060333333333E+01  1.7060333333333E+01  8.5301666666667E+00 
 1.9566425879338E-01  1.9566444514447E-01  1.9566517429775E-01  1.9566644625554E-01  1.9566826102190E-01  1.9567061860264E-01  1.9567351900527E-01  1.9567696223907E-01  1.9568094831504E-01  1.9568547724935E-01 
 4.3744444444444E-05  8.7488888888889E-05  8.7488888888889E-05  8.7488888888889E-05  8.7488888888889E-05  8.7488888888889E-05  8.7488888888889E-05  8.7488888888889E-05  8.7488888888889E-05  4.3744444444444E-05 
 8.6666666666655E+01  8.6666666666655E+01  8.6666666666655E+01  8.6666666666655E+01  8.6666666666655E+01  8.6666666666655E+01  8.6666666666655E+01  8.6666666666655E+01  8.6666666666655E+01  8.6666666666655E+01 
 2.1666666666679E+01  2.1666666666679E+01  2.1666666666679E+01  2.1666666666679E+01  2.1666666666679E+01  2.1666666666679E+01  2.1666666666679E+01  2.1666666666679E+01  2.1666666666679E+01  2.1666666666679E+01 
 5.5092176247199E-11  8.5992554048091E-11  1.8443528567007E-10  3.5616268731730E-10  6.0117670535938E-10  9.1948000942267E-10  1.3110761450814E-09  1.7759694759176E-09  2.3141651499500E-09  2.6015892949575E-09 
 1.8364118900943E-03  2.8664280196289E-03  6.1478631968773E-03  1.1872129193595E-02  2.0039289529622E-02  3.0649434833833E-02  4.3702682842445E-02  5.9199178401307E-02  7.7139093472263E-02  8.6719929075785E-02 
 9.0009225601996E-04  4.5004653752545E-03  1.5301621342874E-02  3.3303668827483E-02  5.8506802278589E-02  9.0911287055645E-02  1.3051747469710E-01  1.7732579712633E-01  2.3133676329446E-01  2.6014297871265E-01 
 4.6091253686999E-03  4.0987900295546E-03  3.1419072241323E-03  2.3125999042473E-03  1.6108682573484E-03  1.0367138866220E-03  5.9013981104172E-04  2.7115046543029E-04  7.9751700532103E-05  1.5950783100670E-05 
 0.0000000000000E+00  0.0000000000000E+00  0.0000000000000E+00  0.0000000000000E+00  0.0000000000000E+00  0.0000000000000E+00  0.0000000000000E+00  0.0000000000000E+00  0.0000000000000E+00  0.0000000000000E+00 
 0.0000000000000E+00  0.0000000000000E+00  0.0000000000000E+00  0.0000000000000E+00  0.0000000000000E+00  0.0000000000000E+00  0.0000000000000E+00  0.0000000000000E+00  0.0000000000000E+00  0.0000000000000E+00 
 0.0000000000000E+00  0.0000000000000E+00  0.0000000000000E+00  0.0000000000000E+00  0.0000000000000E+00  0.0000000000000E+00  0.0000000000000E+00  0.0000000000000E+00  0.0000000000000E+00  0.0000000000000E+00 
ZONE T = "ANOD, 4.0000E-08", I = 10, SOLUTIONTIME = 4.000000E-08
ZONETYPE = ORDERED
DATAPACKING = BLOCK
STRANDID = 1
 0.0000000000000E+00  8.7488888888889E-05  1.7497777777778E-04  2.6246666666667E-04  3.4995555555556E-04  4.3744444444444E-04  5.2493333333333E-04  6.1242222222222E-04  6.9991111111111E-04  7.8740000000000E-04 
 1.1589975177814E-09  3.4769947610079E-09  5.7950006423662E-09  8.1130215923522E-09  1.0429974418326E-08  1.2745865550900E-08  1.5063970290326E-08  1.7382115821049E-08  1.9700308574011E-08  2.0859431777188E-08 
 9.1999999999721E-01  9.1999999999721E-01  9.1999999999721E-01  9.1999999999721E-01  9.1999999999721E-01  9.1999999999721E-01  9.1999999999721E-01  9.1999999999721E-01  9.1999999999721E-01  9.1999999999885E-01 
 4.0000000001393E-02  4.0000000001393E-02  4.0000000001393E-02  4.0000000001393E-02  4.0000000001393E-02  4.0000000001393E-02  4.0000000001393E-02  4.0000000001393E-02  4.0000000001393E-02  4.0000000000576E-02 
 4.0000000001393E-02  4.0000000001393E-02  4.0000000001393E-02  4.0000000001393E-02  4.0000000001393E-02  4.0000000001393E-02  4.0000000001393E-02  4.0000000001393E-02  4.0000000001393E-02  4.0000000000576E-02 
 2.9167373665701E-02  2.9167357938516E-02  2.9167310756929E-02  2.9167232120825E-02  2.9167122029997E-02  2.9166980484156E-02  2.9166807482920E-02  2.9166603025826E-02  2.9166367112318E-02  2.9166099741756E-02 
 0.0000000000000E+00 -4.7371510661779E-09 -8.9170107927389E-09 -1.2539577102909E-08 -1.5604846373900E-08 -1.8112813436894E-08 -2.0063471577032E-08 -2.1456812533389E-08 -2.2292826498950E-08 -2.2571502120574E-08 
-2.9167373665701E-02 -2.9167362675667E-02 -2.9167319673940E-02 -2.9167244660402E-02 -2.9167137634844E-02 -2.9166998596969E-02 -2.9166827546392E-02 -2.9166624482638E-02 -2.9166389405144E-02 -2.9166122313258E-02 
-4.0906712752189E-02 -4.0906712752189E-02 -4.0906712752189E-02 -4.0906712752189E-02 -4.0906712752187E-02 -4.0906712752187E-02 -4.0906712752187E-02 -4.0906712752187E-02 -4.0906712752187E-02 -4.0906712752712E-02 
 1.1739339086488E-02  1.1739350076522E-02  1.1739393078249E-02  1.1739468091787E-02  1.1739575117344E-02  1.1739714155218E-02  1.1739885205795E-02  1.1740088269549E-02  1.1740323347043E-02  1.1740590439454E-02 
 1.6690487381931E+00  3.3381006555980E+00  3.3381130951959E+00  3.3381347952197E+00  3.3381657557385E+00  3.3382059768517E+00  3.3382554586875E+00  3.3383142014039E+00  3.3383822051886E+00  1.6692297351735E+00 