TITLE = "Solution on Domain BulkDomain1D_1"
VARIABLES = "x [m]"  
"Vel_axial(0)" 	"MF_sp(ECDMC)" 	"MF_sp(Li+)" 	"MF_sp(PF6-)" 	"Volt(Electroly)" 	"qHeat_accum [J/m3]" 	"qHeat_step [W/m3]" 	"Joule_Lyte [W/m3]" 	"Joule_Solid [W/m3]" 	
ZONE T = "t = 0 [s]" I = 10 SOLUTIONTIME = 0.0000000000000E+00
0.0007874 	0 	0.92 	0.04 	0.04 	-0.07 	
0 	0.0 	 0.0 	 0.0 	 
0.000841022 	0 	0.92 	0.04 	0.04 	-0.07 	
0 	0.0 	 0.0 	 0.0 	 
0.000894644 	0 	0.92 	0.04 	0.04 	-0.07 	
0 	0.0 	 0.0 	 0.0 	 
0.000948267 	0 	0.92 	0.04 	0.04 	-0.07 	
0 	0.0 	 0.0 	 0.0 	 
0.00100189 	0 	0.92 	0.04 	0.04 	-0.07 	
0 	0.0 	 0.0 	 0.0 	 
0.00105551 	0 	0.92 	0.04 	0.04 	-0.07 	
0 	0.0 	 0.0 	 0.0 	 
0.00110913 	0 	0.92 	0.04 	0.04 	-0.07 	
0 	0.0 	 0.0 	 0.0 	 
0.00116276 	0 	0.92 	0.04 	0.04 	-0.07 	
0 	0.0 	 0.0 	 0.0 	 
0.00121638 	0 	0.92 	0.04 	0.04 	-0.07 	
0 	0.0 	 0.0 	 0.0 	 
0.00127 	0 	0.92 	0.04 	0.04 	-0.07 	
0 	0.0 	 0.0 	 0.0 	 
ZONE T = "t = 1e-08 [s]" I = 10 SOLUTIONTIME = 1.0000000000000E-08
0.0007874 	3.56737e-08 	0.92 	0.04 	0.04 	0.0211481 	
0 	0 	0 	0 	
0.000841022 	3.56737e-08 	0.92 	0.04 	0.04 	0.021148 	
0 	0 	0 	0 	
0.000894644 	3.56737e-08 	0.92 	0.04 	0.04 	0.0211479 	
0 	0 	0 	0 	
0.000948267 	3.56737e-08 	0.92 	0.04 	0.04 	0.0211478 	
0 	0 	0 	0 	
0.00100189 	3.56737e-08 	0.92 	0.04 	0.04 	0.0211477 	
0 	0 	0 	0 	
0.00105551 	3.56737e-08 	0.92 	0.04 	0.04 	0.0211477 	
0 	0 	0 	0 	
0.00110913 	3.56737e-08 	0.92 	0.04 	0.04 	0.0211476 	
0 	0 	0 	0 	
0.00116276 	3.56737e-08 	0.92 	0.04 	0.04 	0.0211475 	
0 	0 	0 	0 	
0.00121638 	3.56737e-08 	0.92 	0.04 	0.04 	0.0211474 	
0 	0 	0 	0 	
0.00127 	3.17164e-08 	0.92 	0.04 	0.04 	0.0211473 	
0 	0 	0 	0 	
ZONE T = "t = 2e-08 [s]" I = 10 SOLUTIONTIME = 2.0000000000000E-08
0.0007874 	2.08694e-08 	0.92 	0.04 	0.04 	0.029162 	
0 	0 	0 	0 	
0.000841022 	2.08694e-08 	0.92 	0.04 	0.04 	0.0291619 	
0 	0 	0 	0 	
0.000894644 	2.08694e-08 	0.92 	0.04 	0.04 	0.0291619 	
0 	0 	0 	0 	
0.000948267 	2.08694e-08 	0.92 	0.04 	0.04 	0.0291618 	
0 	0 	0 	0 	
0.00100189 	2.08694e-08 	0.92 	0.04 	0.04 	0.0291618 	
0 	0 	0 	0 	
0.00105551 	2.08694e-08 	0.92 	0.04 	0.04 	0.0291617 	
0 	0 	0 	0 	
0.00110913 	2.08694e-08 	0.92 	0.04 	0.04 	0.0291617 	
0 	0 	0 	0 	
0.00116276 	2.08694e-08 	0.92 	0.04 	0.04 	0.0291616 	
0 	0 	0 	0 	
0.00121638 	2.08694e-08 	0.92 	0.04 	0.04 	0.0291616 	
0 	0 	0 	0 	
0.00127 	1.85532e-08 	0.92 	0.04 	0.04 	0.0291615 	
0 	0 	0 	0 	
ZONE T = "t = 3e-08 [s]" I = 10 SOLUTIONTIME = 3.0000000000000E-08
0.0007874 	2.08747e-08 	0.92 	0.04 	0.04 	0.029162 	
0 	0 	0 	0 	
0.000841022 	2.08747e-08 	0.92 	0.04 	0.04 	0.0291619 	
0 	0 	0 	0 	
0.000894644 	2.08747e-08 	0.92 	0.04 	0.04 	0.0291619 	
0 	0 	0 	0 	
0.000948267 	2.08747e-08 	0.92 	0.04 	0.04 	0.0291618 	
0 	0 	0 	0 	
0.00100189 	2.08747e-08 	0.92 	0.04 	0.04 	0.0291618 	
0 	0 	0 	0 	
0.00105551 	2.08747e-08 	0.92 	0.04 	0.04 	0.0291617 	
0 	0 	0 	0 	
0.00110913 	2.08747e-08 	0.92 	0.04 	0.04 	0.0291617 	
0 	0 	0 	0 	
0.00116276 	2.08747e-08 	0.92 	0.04 	0.04 	0.0291616 	
0 	0 	0 	0 	
0.00121638 	2.08747e-08 	0.92 	0.04 	0.04 	0.0291616 	
0 	0 	0 	0 	
0.00127 	1.8557e-08 	0.92 	0.04 	0.04 	0.0291615 	
0 	0 	0 	0 	
ZONE T = "t = 4e-08 [s]" I = 10 SOLUTIONTIME = 4.0000000000000E-08
0.0007874 	2.08718e-08 	0.92 	0.04 	0.04 	0.029162 	
0 	0 	0 	0 	
0.000841022 	2.08718e-08 	0.92 	0.04 	0.04 	0.0291619 	
0 	0 	0 	0 	
0.000894644 	2.08718e-08 	0.92 	0.04 	0.04 	0.0291619 	
0 	0 	0 	0 	
0.000948267 	2.08718e-08 	0.92 	0.04 	0.04 	0.0291618 	
0 	0 	0 	0 	
0.00100189 	2.08718e-08 	0.92 	0.04 	0.04 	0.0291618 	
0 	0 	0 	0 	
0.00105551 	2.08718e-08 	0.92 	0.04 	0.04 	0.0291617 	
0 	0 	0 	0 	
0.00110913 	2.08718e-08 	0.92 	0.04 	0.04 	0.0291617 	
0 	0 	0 	0 	
0.00116276 	2.08718e-08 	0.92 	0.04 	0.04 	0.0291616 	
0 	0 	0 	0 	
0.00121638 	2.08718e-08 	0.92 	0.04 	0.04 	0.0291616 	
0 	0 	0 	0 	
0.00127 	1.85555e-08 	0.92 	0.04 	0.04 	0.0291615 	
0 	0 	0 	0 	
ZONE T = "t = 5.5e-08 [s]" I = 10 SOLUTIONTIME = 5.5000000000000E-08
0.0007874 	2.08681e-08 	0.92 	0.04 	0.04 	0.029162 	
0 	0 	0 	0 	
0.000841022 	2.08681e-08 	0.92 	0.04 	0.04 	0.0291619 	
0 	0 	0 	0 	
0.000894644 	2.08681e-08 	0.92 	0.04 	0.04 	0.0291619 	
0 	0 	0 	0 	
0.000948267 	2.08681e-08 	0.92 	0.04 	0.04 	0.0291618 	
0 	0 	0 	0 	
0.00100189 	2.08681e-08 	0.92 	0.04 	0.04 	0.0291618 	
0 	0 	0 	0 	
0.00105551 	2.08681e-08 	0.92 	0.04 	0.04 	0.0291617 	
0 	0 	0 	0 	
0.00110913 	2.08681e-08 	0.92 	0.04 	0.04 	0.0291617 	
0 	0 	0 	0 	
0.00116276 	2.08681e-08 	0.92 	0.04 	0.04 	0.0291616 	
0 	0 	0 	0 	
0.00121638 	2.08681e-08 	0.92 	0.04 	0.04 	0.0291616 	
0 	0 	0 	0 	
0.00127 	1.8552e-08 	0.92 	0.04 	0.04 	0.0291615 	
0 	0 	0 	0 	
ZONE T = "t = 7.75e-08 [s]" I = 10 SOLUTIONTIME = 7.7500000000000E-08
0.0007874 	2.08733e-08 	0.92 	0.04 	0.04 	0.029162 	
0 	0 	0 	0 	
0.000841022 	2.08733e-08 	0.92 	0.04 	0.04 	0.0291619 	
0 	0 	0 	0 	
0.000894644 	2.08733e-08 	0.92 	0.04 	0.04 	0.0291619 	
0 	0 	0 	0 	
0.000948267 	2.08733e-08 	0.92 	0.04 	0.04 	0.0291618 	
0 	0 	0 	0 	
0.00100189 	2.08733e-08 	0.92 	0.04 	0.04 	0.0291618 	
0 	0 	0 	0 	
0.00105551 	2.08733e-08 	0.92 	0.04 	0.04 	0.0291617 	
0 	0 	0 	0 	
0.00110913 	2.08733e-08 	0.92 	0.04 	0.04 	0.0291617 	
0 	0 	0 	0 	
0.00116276 	2.08733e-08 	0.92 	0.04 	0.04 	0.0291616 	
0 	0 	0 	0 	
0.00121638 	2.08733e-08 	0.92 	0.04 	0.04 	0.0291616 	
0 	0 	0 	0 	
0.00127 	1.85563e-08 	0.92 	0.04 	0.04 	0.0291615 	
0 	0 	0 	0 	
ZONE T = "t = 1.1125e-07 [s]" I = 10 SOLUTIONTIME = 1.1125000000000E-07
0.0007874 	2.08685e-08 	0.92 	0.04 	0.04 	0.029162 	
0 	0 	0 	0 	
0.000841022 	2.08685e-08 	0.92 	0.04 	0.04 	0.0291619 	
0 	0 	0 	0 	
0.000894644 	2.08685e-08 	0.92 	0.04 	0.04 	0.0291619 	
0 	0 	0 	0 	
0.000948267 	2.08685e-08 	0.92 	0.04 	0.04 	0.0291618 	
0 	0 	0 	0 	
0.00100189 	2.08685e-08 	0.92 	0.04 	0.04 	0.0291618 	
0 	0 	0 	0 	
0.00105551 	2.08685e-08 	0.92 	0.04 	0.04 	0.0291617 	
0 	0 	0 	0 	
0.00110913 	2.08685e-08 	0.92 	0.04 	0.04 	0.0291617 	
0 	0 	0 	0 	
0.00116276 	2.08685e-08 	0.92 	0.04 	0.04 	0.0291616 	
0 	0 	0 	0 	
0.00121638 	2.08685e-08 	0.92 	0.04 	0.04 	0.0291616 	
0 	0 	0 	0 	
0.00127 	1.85517e-08 	0.92 	0.04 	0.04 	0.0291615 	
0 	0 	0 	0 	
ZONE T = "t = 1.61875e-07 [s]" I = 10 SOLUTIONTIME = 1.6187500000000E-07
0.0007874 	2.08701e-08 	0.92 	0.04 	0.04 	0.029162 	
0 	0 	0 	0 	
0.000841022 	2.08701e-08 	0.92 	0.04 	0.04 	0.0291619 	
0 	0 	0 	0 	
0.000894644 	2.08701e-08 	0.92 	0.04 	0.04 	0.0291619 	
0 	0 	0 	0 	
0.000948267 	2.08701e-08 	0.92 	0.04 	0.04 	0.0291618 	
0 	0 	0 	0 	
0.00100189 	2.08701e-08 	0.92 	0.04 	0.04 	0.0291618 	
0 	0 	0 	0 	
0.00105551 	2.08701e-08 	0.92 	0.04 	0.04 	0.0291617 	
0 	0 	0 	0 	
0.00110913 	2.08701e-08 	0.92 	0.04 	0.04 	0.0291617 	
0 	0 	0 	0 	
0.00116276 	2.08701e-08 	0.92 	0.04 	0.04 	0.0291616 	
0 	0 	0 	0 	
0.00121638 	2.08701e-08 	0.92 	0.04 	0.04 	0.0291616 	
0 	0 	0 	0 	
0.00127 	1.85532e-08 	0.92 	0.04 	0.04 	0.0291615 	
0 	0 	0 	0 	
ZONE T = "t = 2.37813e-07 [s]" I = 10 SOLUTIONTIME = 2.3781250000000E-07
0.0007874 	2.08699e-08 	0.92 	0.04 	0.04 	0.029162 	
0 	0 	0 	0 	
0.000841022 	2.08699e-08 	0.92 	0.04 	0.04 	0.0291619 	
0 	0 	0 	0 	
0.000894644 	2.08699e-08 	0.92 	0.04 	0.04 	0.0291619 	
0 	0 	0 	0 	
0.000948267 	2.08699e-08 	0.92 	0.04 	0.04 	0.0291618 	
0 	0 	0 	0 	
0.00100189 	2.08699e-08 	0.92 	0.04 	0.04 	0.0291618 	
0 	0 	0 	0 	
0.00105551 	2.08699e-08 	0.92 	0.04 	0.04 	0.0291617 	
0 	0 	0 	0 	
0.00110913 	2.08699e-08 	0.92 	0.04 	0.04 	0.0291617 	
0 	0 	0 	0 	
0.00116276 	2.08699e-08 	0.92 	0.04 	0.04 	0.0291616 	
0 	0 	0 	0 	
0.00121638 	2.08698e-08 	0.92 	0.04 	0.04 	0.0291616 	
0 	0 	0 	0 	
0.00127 	1.85531e-08 	0.92 	0.04 	0.04 	0.0291615 	
0 	0 	0 	0 	
ZONE T = "t = 3.51719e-07 [s]" I = 10 SOLUTIONTIME = 3.5171875000000E-07
0.0007874 	2.08703e-08 	0.92 	0.04 	0.04 	0.029162 	
0 	0 	0 	0 	
0.000841022 	2.08703e-08 	0.92 	0.04 	0.04 	0.0291619 	
0 	0 	0 	0 	
0.000894644 	2.08703e-08 	0.92 	0.04 	0.04 	0.0291619 	
0 	0 	0 	0 	
0.000948267 	2.08703e-08 	0.92 	0.04 	0.04 	0.0291618 	
0 	0 	0 	0 	
0.00100189 	2.08703e-08 	0.92 	0.04 	0.04 	0.0291618 	
0 	0 	0 	0 	
0.00105551 	2.08703e-08 	0.92 	0.04 	0.04 	0.0291617 	
0 	0 	0 	0 	
0.00110913 	2.08703e-08 	0.92 	0.04 	0.04 	0.0291617 	
0 	0 	0 	0 	
0.00116276 	2.08703e-08 	0.92 	0.04 	0.04 	0.0291616 	
0 	0 	0 	0 	
0.00121638 	2.08703e-08 	0.92 	0.04 	0.04 	0.0291616 	
0 	0 	0 	0 	
0.00127 	1.85534e-08 	0.92 	0.04 	0.04 	0.0291615 	
0 	0 	0 	0 	
ZONE T = "t = 5.22578e-07 [s]" I = 10 SOLUTIONTIME = 5.2257812500000E-07
0.0007874 	2.08701e-08 	0.92 	0.04 	0.04 	0.029162 	
0 	0 	0 	0 	
0.000841022 	2.08701e-08 	0.92 	0.04 	0.04 	0.0291619 	
0 	0 	0 	0 	
0.000894644 	2.08701e-08 	0.92 	0.04 	0.04 	0.0291619 	
0 	0 	0 	0 	
0.000948267 	2.08701e-08 	0.92 	0.04 	0.04 	0.0291618 	
0 	0 	0 	0 	
0.00100189 	2.08701e-08 	0.92 	0.04 	0.04 	0.0291618 	
0 	0 	0 	0 	
0.00105551 	2.08701e-08 	0.92 	0.04 	0.04 	0.0291617 	
0 	0 	0 	0 	
0.00110913 	2.08701e-08 	0.92 	0.04 	0.04 	0.0291617 	
0 	0 	0 	0 	
0.00116276 	2.08701e-08 	0.92 	0.04 	0.04 	0.0291616 	
0 	0 	0 	0 	
0.00121638 	2.08702e-08 	0.92 	0.04 	0.04 	0.0291616 	
0 	0 	0 	0 	
0.00127 	1.85534e-08 	0.92 	0.04 	0.04 	0.0291615 	
0 	0 	0 	0 	
ZONE T = "t = 7.78867e-07 [s]" I = 10 SOLUTIONTIME = 7.7886718750000E-07
0.0007874 	2.08701e-08 	0.92 	0.04 	0.04 	0.029162 	
0 	0 	0 	0 	
0.000841022 	2.08701e-08 	0.92 	0.04 	0.04 	0.0291619 	
0 	0 	0 	0 	
0.000894644 	2.08701e-08 	0.92 	0.04 	0.04 	0.0291619 	
0 	0 	0 	0 	
0.000948267 	2.08701e-08 	0.92 	0.04 	0.04 	0.0291618 	
0 	0 	0 	0 	
0.00100189 	2.08701e-08 	0.92 	0.04 	0.04 	0.0291618 	
0 	0 	0 	0 	
0.00105551 	2.08701e-08 	0.92 	0.04 	0.04 	0.0291617 	
0 	0 	0 	0 	
0.00110913 	2.08701e-08 	0.92 	0.04 	0.04 	0.0291617 	
0 	0 	0 	0 	
0.00116276 	2.08701e-08 	0.92 	0.04 	0.04 	0.0291616 	
0 	0 	0 	0 	
0.00121638 	2.08701e-08 	0.92 	0.04 	0.04 	0.0291616 	
0 	0 	0 	0 	
0.00127 	1.85533e-08 	0.92 	0.04 	0.04 	0.0291615 	
0 	0 	0 	0 	
ZONE T = "t = 1.1633e-06 [s]" I = 10 SOLUTIONTIME = 1.1633007812500E-06
0.0007874 	2.08702e-08 	0.92 	0.04 	0.04 	0.029162 	
0 	0 	0 	0 	
0.000841022 	2.08702e-08 	0.92 	0.04 	0.04 	0.0291619 	
0 	0 	0 	0 	
0.000894644 	2.08702e-08 	0.92 	0.04 	0.04 	0.0291619 	
0 	0 	0 	0 	
0.000948267 	2.08702e-08 	0.92 	0.04 	0.04 	0.0291618 	
0 	0 	0 	0 	
0.00100189 	2.08702e-08 	0.92 	0.04 	0.04 	0.0291618 	
0 	0 	0 	0 	
0.00105551 	2.08702e-08 	0.92 	0.04 	0.04 	0.0291617 	
0 	0 	0 	0 	
0.00110913 	2.08702e-08 	0.92 	0.04 	0.04 	0.0291617 	
0 	0 	0 	0 	
0.00116276 	2.08702e-08 	0.92 	0.04 	0.04 	0.0291616 	
0 	0 	0 	0 	
0.00121638 	2.08701e-08 	0.92 	0.04 	0.04 	0.0291616 	
0 	0 	0 	0 	
0.00127 	1.85534e-08 	0.92 	0.04 	0.04 	0.0291615 	
0 	0 	0 	0 	
ZONE T = "t = 1.73995e-06 [s]" I = 10 SOLUTIONTIME = 1.7399511718750E-06
0.0007874 	2.08701e-08 	0.92 	0.04 	0.04 	0.029162 	
0 	0 	0 	0 	
0.000841022 	2.08702e-08 	0.92 	0.04 	0.04 	0.0291619 	
0 	0 	0 	0 	
0.000894644 	2.08702e-08 	0.92 	0.04 	0.04 	0.0291619 	
0 	0 	0 	0 	
0.000948267 	2.08702e-08 	0.92 	0.04 	0.04 	0.0291618 	
0 	0 	0 	0 	
0.00100189 	2.08702e-08 	0.92 	0.04 	0.04 	0.0291618 	
0 	0 	0 	0 	
0.00105551 	2.08702e-08 	0.92 	0.04 	0.04 	0.0291617 	
0 	0 	0 	0 	
0.00110913 	2.08702e-08 	0.92 	0.04 	0.04 	0.0291617 	
0 	0 	0 	0 	
0.00116276 	2.08702e-08 	0.92 	0.04 	0.04 	0.0291616 	
0 	0 	0 	0 	
0.00121638 	2.08702e-08 	0.92 	0.04 	0.04 	0.0291616 	
0 	0 	0 	0 	
0.00127 	1.85533e-08 	0.92 	0.04 	0.04 	0.0291615 	
0 	0 	0 	0 	
ZONE T = "t = 2.60493e-06 [s]" I = 10 SOLUTIONTIME = 2.6049267578125E-06
0.0007874 	2.08701e-08 	0.92 	0.04 	0.04 	0.029162 	
0 	0 	0 	0 	
0.000841022 	2.08701e-08 	0.92 	0.04 	0.04 	0.0291619 	
0 	0 	0 	0 	
0.000894644 	2.08701e-08 	0.92 	0.04 	0.04 	0.0291619 	
0 	0 	0 	0 	
0.000948267 	2.08701e-08 	0.92 	0.04 	0.04 	0.0291618 	
0 	0 	0 	0 	
0.00100189 	2.08701e-08 	0.92 	0.04 	0.04 	0.0291618 	
0 	0 	0 	0 	
0.00105551 	2.08701e-08 	0.92 	0.04 	0.04 	0.0291617 	
0 	0 	0 	0 	
0.00110913 	2.08701e-08 	0.92 	0.04 	0.04 	0.0291617 	
0 	0 	0 	0 	
0.00116276 	2.08701e-08 	0.92 	0.04 	0.04 	0.0291616 	
0 	0 	0 	0 	
0.00121638 	2.08701e-08 	0.92 	0.04 	0.04 	0.0291616 	
0 	0 	0 	0 	
0.00127 	1.85533e-08 	0.92 	0.04 	0.04 	0.0291615 	
0 	0 	0 	0 	
ZONE T = "t = 3.90239e-06 [s]" I = 10 SOLUTIONTIME = 3.9023901367188E-06
0.0007874 	2.08701e-08 	0.92 	0.04 	0.04 	0.029162 	
0 	0 	0 	0 	
0.000841022 	2.08701e-08 	0.92 	0.04 	0.04 	0.0291619 	
0 	0 	0 	0 	
0.000894644 	2.08701e-08 	0.92 	0.04 	0.04 	0.0291619 	
0 	0 	0 	0 	
0.000948267 	2.08701e-08 	0.92 	0.04 	0.04 	0.0291618 	
0 	0 	0 	0 	
0.00100189 	2.08701e-08 	0.92 	0.04 	0.04 	0.0291618 	
0 	0 	0 	0 	
0.00105551 	2.08701e-08 	0.92 	0.04 	0.04 	0.0291617 	
0 	0 	0 	0 	
0.00110913 	2.08701e-08 	0.92 	0.04 	0.04 	0.0291617 	
0 	0 	0 	0 	
0.00116276 	2.08701e-08 	0.92 	0.04 	0.04 	0.0291616 	
0 	0 	0 	0 	
0.00121638 	2.08701e-08 	0.92 	0.04 	0.04 	0.0291616 	
0 	0 	0 	0 	
0.00127 	1.85533e-08 	0.92 	0.04 	0.04 	0.0291615 	
0 	0 	0 	0 	
ZONE T = "t = 5.84859e-06 [s]" I = 10 SOLUTIONTIME = 5.8485852050781E-06
0.0007874 	2.08702e-08 	0.92 	0.04 	0.04 	0.029162 	
0 	0 	0 	0 	
0.000841022 	2.08702e-08 	0.92 	0.04 	0.04 	0.0291619 	
0 	0 	0 	0 	
0.000894644 	2.08702e-08 	0.92 	0.04 	0.04 	0.0291619 	
0 	0 	0 	0 	
0.000948267 	2.08702e-08 	0.92 	0.04 	0.04 	0.0291618 	
0 	0 	0 	0 	
0.00100189 	2.08702e-08 	0.92 	0.04 	0.04 	0.0291618 	
0 	0 	0 	0 	
0.00105551 	2.08702e-08 	0.92 	0.04 	0.04 	0.0291617 	
0 	0 	0 	0 	
0.00110913 	2.08702e-08 	0.92 	0.04 	0.04 	0.0291617 	
0 	0 	0 	0 	
0.00116276 	2.08702e-08 	0.92 	0.04 	0.04 	0.0291616 	
0 	0 	0 	0 	
0.00121638 	2.08702e-08 	0.92 	0.04 	0.04 	0.0291616 	
0 	0 	0 	0 	
0.00127 	1.85534e-08 	0.92 	0.04 	0.04 	0.0291615 	
0 	0 	0 	0 	
ZONE T = "t = 8.76788e-06 [s]" I = 10 SOLUTIONTIME = 8.7678778076172E-06
0.0007874 	2.08701e-08 	0.92 	0.04 	0.04 	0.029162 	
0 	0 	0 	0 	
0.000841022 	2.08701e-08 	0.92 	0.04 	0.04 	0.0291619 	
0 	0 	0 	0 	
0.000894644 	2.08701e-08 	0.92 	0.04 	0.04 	0.0291619 	
0 	0 	0 	0 	
0.000948267 	2.08701e-08 	0.92 	0.04 	0.04 	0.0291618 	
0 	0 	0 	0 	
0.00100189 	2.08701e-08 	0.92 	0.04 	0.04 	0.0291618 	
0 	0 	0 	0 	
0.00105551 	2.08701e-08 	0.92 	0.04 	0.04 	0.0291617 	
0 	0 	0 	0 	
0.00110913 	2.08701e-08 	0.92 	0.04 	0.04 	0.0291617 	
0 	0 	0 	0 	
0.00116276 	2.08701e-08 	0.92 	0.04 	0.04 	0.0291616 	
0 	0 	0 	0 	
0.00121638 	2.08701e-08 	0.92 	0.04 	0.04 	0.0291616 	
0 	0 	0 	0 	
0.00127 	1.85533e-08 	0.92 	0.04 	0.04 	0.0291615 	
0 	0 	0 	0 	
ZONE T = "t = 1.31468e-05 [s]" I = 10 SOLUTIONTIME = 1.3146816711426E-05
0.0007874 	2.08701e-08 	0.92 	0.04 	0.04 	0.029162 	
0 	0 	0 	0 	
0.000841022 	2.08701e-08 	0.92 	0.04 	0.04 	0.0291619 	
0 	0 	0 	0 	
0.000894644 	2.08701e-08 	0.92 	0.04 	0.04 	0.0291619 	
0 	0 	0 	0 	
0.000948267 	2.08701e-08 	0.92 	0.04 	0.04 	0.0291618 	
0 	0 	0 	0 	
0.00100189 	2.08701e-08 	0.92 	0.04 	0.04 	0.0291618 	
0 	0 	0 	0 	
0.00105551 	2.08701e-08 	0.92 	0.04 	0.04 	0.0291617 	
0 	0 	0 	0 	
0.00110913 	2.08701e-08 	0.92 	0.04 	0.04 	0.0291617 	
0 	0 	0 	0 	
0.00116276 	2.08701e-08 	0.92 	0.04 	0.04 	0.0291616 	
0 	0 	0 	0 	
0.00121638 	2.08701e-08 	0.92 	0.04 	0.04 	0.0291616 	
0 	0 	0 	0 	
0.00127 	1.85533e-08 	0.92 	0.04 	0.04 	0.0291615 	
0 	0 	0 	0 	
ZONE T = "t = 1.97152e-05 [s]" I = 10 SOLUTIONTIME = 1.9715225067139E-05
0.0007874 	2.08701e-08 	0.92 	0.04 	0.04 	0.029162 	
0 	0 	0 	0 	
0.000841022 	2.08701e-08 	0.92 	0.04 	0.04 	0.0291619 	
0 	0 	0 	0 	
0.000894644 	2.08701e-08 	0.92 	0.04 	0.04 	0.0291619 	
0 	0 	0 	0 	
0.000948267 	2.08701e-08 	0.92 	0.04 	0.04 	0.0291618 	
0 	0 	0 	0 	
0.00100189 	2.08701e-08 	0.92 	0.04 	0.04 	0.0291618 	
0 	0 	0 	0 	
0.00105551 	2.08701e-08 	0.92 	0.04 	0.04 	0.0291617 	
0 	0 	0 	0 	
0.00110913 	2.08701e-08 	0.92 	0.04 	0.04 	0.0291617 	
0 	0 	0 	0 	
0.00116276 	2.08701e-08 	0.92 	0.04 	0.04 	0.0291616 	
0 	0 	0 	0 	
0.00121638 	2.08701e-08 	0.92 	0.04 	0.04 	0.0291616 	
0 	0 	0 	0 	
0.00127 	1.85533e-08 	0.92 	0.04 	0.04 	0.0291615 	
0 	0 	0 	0 	
ZONE T = "t = 2.95678e-05 [s]" I = 10 SOLUTIONTIME = 2.9567837600708E-05
0.0007874 	2.08701e-08 	0.92 	0.04 	0.04 	0.029162 	
0 	0 	0 	0 	
0.000841022 	2.08701e-08 	0.92 	0.04 	0.04 	0.0291619 	
0 	0 	0 	0 	
0.000894644 	2.08701e-08 	0.92 	0.04 	0.04 	0.0291619 	
0 	0 	0 	0 	
0.000948267 	2.08701e-08 	0.92 	0.04 	0.04 	0.0291618 	
0 	0 	0 	0 	
0.00100189 	2.08701e-08 	0.92 	0.04 	0.04 	0.0291618 	
0 	0 	0 	0 	
0.00105551 	2.08701e-08 	0.92 	0.04 	0.04 	0.0291617 	
0 	0 	0 	0 	
0.00110913 	2.08701e-08 	0.92 	0.04 	0.04 	0.0291617 	
0 	0 	0 	0 	
0.00116276 	2.08701e-08 	0.92 	0.04 	0.04 	0.0291616 	
0 	0 	0 	0 	
0.00121638 	2.08701e-08 	0.92 	0.04 	0.04 	0.0291616 	
0 	0 	0 	0 	
0.00127 	1.85533e-08 	0.92 	0.04 	0.04 	0.0291615 	
0 	0 	0 	0 	
ZONE T = "t = 4.43468e-05 [s]" I = 10 SOLUTIONTIME = 4.4346756401062E-05
0.0007874 	2.08701e-08 	0.92 	0.04 	0.04 	0.029162 	
0 	0 	0 	0 	
0.000841022 	2.08701e-08 	0.92 	0.04 	0.04 	0.0291619 	
0 	0 	0 	0 	
0.000894644 	2.08701e-08 	0.92 	0.04 	0.04 	0.0291619 	
0 	0 	0 	0 	
0.000948267 	2.08701e-08 	0.92 	0.04 	0.04 	0.0291618 	
0 	0 	0 	0 	
0.00100189 	2.08701e-08 	0.92 	0.04 	0.04 	0.0291618 	
0 	0 	0 	0 	
0.00105551 	2.08701e-08 	0.92 	0.04 	0.04 	0.0291617 	
0 	0 	0 	0 	
0.00110913 	2.08701e-08 	0.92 	0.04 	0.04 	0.0291617 	
0 	0 	0 	0 	
0.00116276 	2.08701e-08 	0.92 	0.04 	0.04 	0.0291616 	
0 	0 	0 	0 	
0.00121638 	2.08701e-08 	0.92 	0.04 	0.04 	0.0291616 	
0 	0 	0 	0 	
0.00127 	1.85533e-08 	0.92 	0.04 	0.04 	0.0291615 	
0 	0 	0 	0 	
ZONE T = "t = 6.65151e-05 [s]" I = 10 SOLUTIONTIME = 6.6515134601593E-05
0.0007874 	2.08701e-08 	0.92 	0.04 	0.04 	0.029162 	
0 	0 	0 	0 	
0.000841022 	2.08701e-08 	0.92 	0.04 	0.04 	0.0291619 	
0 	0 	0 	0 	
0.000894644 	2.08701e-08 	0.92 	0.04 	0.04 	0.0291619 	
0 	0 	0 	0 	
0.000948267 	2.08701e-08 	0.92 	0.04 	0.04 	0.0291618 	
0 	0 	0 	0 	
0.00100189 	2.08701e-08 	0.92 	0.04 	0.04 	0.0291618 	
0 	0 	0 	0 	
0.00105551 	2.08701e-08 	0.92 	0.04 	0.04 	0.0291617 	
0 	0 	0 	0 	
0.00110913 	2.08701e-08 	0.92 	0.04 	0.04 	0.0291617 	
0 	0 	0 	0 	
0.00116276 	2.08701e-08 	0.92 	0.04 	0.04 	0.0291616 	
0 	0 	0 	0 	
0.00121638 	2.08701e-08 	0.92 	0.04 	0.04 	0.0291616 	
0 	0 	0 	0 	
0.00127 	1.85533e-08 	0.92 	0.04 	0.04 	0.0291615 	
0 	0 	0 	0 	
ZONE T = "t = 9.97677e-05 [s]" I = 10 SOLUTIONTIME = 9.9767701902390E-05
0.0007874 	2.08701e-08 	0.92 	0.04 	0.04 	0.029162 	
0 	0 	0 	0 	
0.000841022 	2.08701e-08 	0.92 	0.04 	0.04 	0.0291619 	
0 	0 	0 	0 	
0.000894644 	2.08701e-08 	0.92 	0.04 	0.04 	0.0291619 	
0 	0 	0 	0 	
0.000948267 	2.08701e-08 	0.92 	0.04 	0.04 	0.0291618 	
0 	0 	0 	0 	
0.00100189 	2.08701e-08 	0.92 	0.04 	0.04 	0.0291618 	
0 	0 	0 	0 	
0.00105551 	2.08701e-08 	0.92 	0.04 	0.04 	0.0291617 	
0 	0 	0 	0 	
0.00110913 	2.08701e-08 	0.92 	0.04 	0.04 	0.0291617 	
0 	0 	0 	0 	
0.00116276 	2.08701e-08 	0.92 	0.04 	0.04 	0.0291616 	
0 	0 	0 	0 	
0.00121638 	2.08701e-08 	0.92 	0.04 	0.04 	0.0291616 	
0 	0 	0 	0 	
0.00127 	1.85533e-08 	0.92 	0.04 	0.04 	0.0291615 	
0 	0 	0 	0 	
ZONE T = "t = 0.000149647 [s]" I = 10 SOLUTIONTIME = 1.4964655285358E-04
0.0007874 	2.08701e-08 	0.92 	0.04 	0.04 	0.029162 	
0 	0 	0 	0 	
0.000841022 	2.08701e-08 	0.92 	0.04 	0.04 	0.0291619 	
0 	0 	0 	0 	
0.000894644 	2.08701e-08 	0.92 	0.04 	0.04 	0.0291619 	
0 	0 	0 	0 	
0.000948267 	2.08701e-08 	0.92 	0.04 	0.04 	0.0291618 	
0 	0 	0 	0 	
0.00100189 	2.08701e-08 	0.92 	0.04 	0.04 	0.0291618 	
0 	0 	0 	0 	
0.00105551 	2.08701e-08 	0.92 	0.04 	0.04 	0.0291617 	
0 	0 	0 	0 	
0.00110913 	2.08701e-08 	0.92 	0.04 	0.04 	0.0291617 	
0 	0 	0 	0 	
0.00116276 	2.08701e-08 	0.92 	0.04 	0.04 	0.0291616 	
0 	0 	0 	0 	
0.00121638 	2.08701e-08 	0.92 	0.04 	0.04 	0.0291616 	
0 	0 	0 	0 	
0.00127 	1.85533e-08 	0.92 	0.04 	0.04 	0.0291615 	
0 	0 	0 	0 	
ZONE T = "t = 0.000224465 [s]" I = 10 SOLUTIONTIME = 2.2446482928038E-04
0.0007874 	2.08701e-08 	0.92 	0.04 	0.04 	0.029162 	
0 	0 	0 	0 	
0.000841022 	2.08701e-08 	0.92 	0.04 	0.04 	0.0291619 	
0 	0 	0 	0 	
0.000894644 	2.08701e-08 	0.92 	0.04 	0.04 	0.0291619 	
0 	0 	0 	0 	
0.000948267 	2.08701e-08 	0.92 	0.04 	0.04 	0.0291618 	
0 	0 	0 	0 	
0.00100189 	2.08701e-08 	0.92 	0.04 	0.04 	0.0291618 	
0 	0 	0 	0 	
0.00105551 	2.08701e-08 	0.92 	0.04 	0.04 	0.0291617 	
0 	0 	0 	0 	
0.00110913 	2.08701e-08 	0.92 	0.04 	0.04 	0.0291617 	
0 	0 	0 	0 	
0.00116276 	2.08701e-08 	0.92 	0.04 	0.04 	0.0291616 	
0 	0 	0 	0 	
0.00121638 	2.08701e-08 	0.92 	0.04 	0.04 	0.0291616 	
0 	0 	0 	0 	
0.00127 	1.85533e-08 	0.92 	0.04 	0.04 	0.0291615 	
0 	0 	0 	0 	
ZONE T = "t = 0.000336692 [s]" I = 10 SOLUTIONTIME = 3.3669224392056E-04
0.0007874 	2.08701e-08 	0.92 	0.04 	0.04 	0.029162 	
0 	0 	0 	0 	
0.000841022 	2.08701e-08 	0.92 	0.04 	0.04 	0.0291619 	
0 	0 	0 	0 	
0.000894644 	2.08701e-08 	0.92 	0.04 	0.04 	0.0291619 	
0 	0 	0 	0 	
0.000948267 	2.08701e-08 	0.92 	0.04 	0.04 	0.0291618 	
0 	0 	0 	0 	
0.00100189 	2.08701e-08 	0.92 	0.04 	0.04 	0.0291618 	
0 	0 	0 	0 	
0.00105551 	2.08701e-08 	0.92 	0.04 	0.04 	0.0291617 	
0 	0 	0 	0 	
0.00110913 	2.08701e-08 	0.92 	0.04 	0.04 	0.0291617 	
0 	0 	0 	0 	
0.00116276 	2.08701e-08 	0.92 	0.04 	0.04 	0.0291616 	
0 	0 	0 	0 	
0.00121638 	2.08701e-08 	0.92 	0.04 	0.04 	0.0291616 	
0 	0 	0 	0 	
0.00127 	1.85533e-08 	0.92 	0.04 	0.04 	0.0291615 	
0 	0 	0 	0 	
ZONE T = "t = 0.000505033 [s]" I = 10 SOLUTIONTIME = 5.0503336588085E-04
0.0007874 	2.08701e-08 	0.92 	0.04 	0.04 	0.029162 	
0 	0 	0 	0 	
0.000841022 	2.08701e-08 	0.92 	0.04 	0.04 	0.0291619 	
0 	0 	0 	0 	
0.000894644 	2.08701e-08 	0.92 	0.04 	0.04 	0.0291619 	
0 	0 	0 	0 	
0.000948267 	2.08701e-08 	0.92 	0.04 	0.04 	0.0291618 	
0 	0 	0 	0 	
0.00100189 	2.08701e-08 	0.92 	0.04 	0.04 	0.0291618 	
0 	0 	0 	0 	
0.00105551 	2.08701e-08 	0.92 	0.04 	0.04 	0.0291617 	
0 	0 	0 	0 	
0.00110913 	2.08701e-08 	0.92 	0.04 	0.04 	0.0291617 	
0 	0 	0 	0 	
0.00116276 	2.08701e-08 	0.92 	0.04 	0.04 	0.0291616 	
0 	0 	0 	0 	
0.00121638 	2.08701e-08 	0.92 	0.04 	0.04 	0.0291616 	
0 	0 	0 	0 	
0.00127 	1.85533e-08 	0.92 	0.04 	0.04 	0.0291615 	
0 	0 	0 	0 	
ZONE T = "t = 0.000757545 [s]" I = 10 SOLUTIONTIME = 7.5754504882127E-04
0.0007874 	2.08701e-08 	0.92 	0.04 	0.04 	0.029162 	
0 	0 	0 	0 	
0.000841022 	2.08701e-08 	0.92 	0.04 	0.04 	0.0291619 	
0 	0 	0 	0 	
0.000894644 	2.08701e-08 	0.92 	0.04 	0.04 	0.0291619 	
0 	0 	0 	0 	
0.000948267 	2.08701e-08 	0.92 	0.04 	0.04 	0.0291618 	
0 	0 	0 	0 	
0.00100189 	2.08701e-08 	0.92 	0.04 	0.04 	0.0291618 	
0 	0 	0 	0 	
0.00105551 	2.08701e-08 	0.92 	0.04 	0.04 	0.0291617 	
0 	0 	0 	0 	
0.00110913 	2.08701e-08 	0.92 	0.04 	0.04 	0.0291617 	
0 	0 	0 	0 	
0.00116276 	2.08701e-08 	0.92 	0.04 	0.04 	0.0291616 	
0 	0 	0 	0 	
0.00121638 	2.08701e-08 	0.92 	0.04 	0.04 	0.0291616 	
0 	0 	0 	0 	
0.00127 	1.85533e-08 	0.92 	0.04 	0.04 	0.0291615 	
0 	0 	0 	0 	
ZONE T = "t = 0.00113631 [s]" I = 10 SOLUTIONTIME = 1.1363125732319E-03
0.0007874 	2.08701e-08 	0.92 	0.04 	0.04 	0.029162 	
0 	0 	0 	0 	
0.000841022 	2.08701e-08 	0.92 	0.04 	0.04 	0.0291619 	
0 	0 	0 	0 	
0.000894644 	2.08701e-08 	0.92 	0.04 	0.04 	0.0291619 	
0 	0 	0 	0 	
0.000948267 	2.08701e-08 	0.92 	0.04 	0.04 	0.0291618 	
0 	0 	0 	0 	
0.00100189 	2.08701e-08 	0.92 	0.04 	0.04 	0.0291618 	
0 	0 	0 	0 	
0.00105551 	2.08701e-08 	0.92 	0.04 	0.04 	0.0291617 	
0 	0 	0 	0 	
0.00110913 	2.08701e-08 	0.92 	0.04 	0.04 	0.0291617 	
0 	0 	0 	0 	
0.00116276 	2.08701e-08 	0.92 	0.04 	0.04 	0.0291616 	
0 	0 	0 	0 	
0.00121638 	2.08701e-08 	0.92 	0.04 	0.04 	0.0291616 	
0 	0 	0 	0 	
0.00127 	1.85533e-08 	0.92 	0.04 	0.04 	0.0291615 	
0 	0 	0 	0 	
ZONE T = "t = 0.00170446 [s]" I = 10 SOLUTIONTIME = 1.7044638598479E-03
0.0007874 	2.08701e-08 	0.92 	0.04 	0.04 	0.029162 	
0 	0 	0 	0 	
0.000841022 	2.08701e-08 	0.92 	0.04 	0.04 	0.0291619 	
0 	0 	0 	0 	
0.000894644 	2.08701e-08 	0.92 	0.04 	0.04 	0.0291619 	
0 	0 	0 	0 	
0.000948267 	2.08701e-08 	0.92 	0.04 	0.04 	0.0291618 	
0 	0 	0 	0 	
0.00100189 	2.08701e-08 	0.92 	0.04 	0.04 	0.0291618 	
0 	0 	0 	0 	
0.00105551 	2.08701e-08 	0.92 	0.04 	0.04 	0.0291617 	
0 	0 	0 	0 	
0.00110913 	2.08701e-08 	0.92 	0.04 	0.04 	0.0291617 	
0 	0 	0 	0 	
0.00116276 	2.08701e-08 	0.92 	0.04 	0.04 	0.0291616 	
0 	0 	0 	0 	
0.00121638 	2.08701e-08 	0.92 	0.04 	0.04 	0.0291616 	
0 	0 	0 	0 	
0.00127 	1.85533e-08 	0.92 	0.04 	0.04 	0.0291615 	
0 	0 	0 	0 	
ZONE T = "t = 0.00255669 [s]" I = 10 SOLUTIONTIME = 2.5566907897718E-03
0.0007874 	2.08701e-08 	0.92 	0.04 	0.04 	0.029162 	
0 	0 	0 	0 	
0.000841022 	2.08701e-08 	0.92 	0.04 	0.04 	0.0291619 	
0 	0 	0 	0 	
0.000894644 	2.08701e-08 	0.92 	0.04 	0.04 	0.0291619 	
0 	0 	0 	0 	
0.000948267 	2.08701e-08 	0.92 	0.04 	0.04 	0.0291618 	
0 	0 	0 	0 	
0.00100189 	2.08701e-08 	0.92 	0.04 	0.04 	0.0291618 	
0 	0 	0 	0 	
0.00105551 	2.08701e-08 	0.92 	0.04 	0.04 	0.0291617 	
0 	0 	0 	0 	
0.00110913 	2.08701e-08 	0.92 	0.04 	0.04 	0.0291617 	
0 	0 	0 	0 	
0.00116276 	2.08701e-08 	0.92 	0.04 	0.04 	0.0291616 	
0 	0 	0 	0 	
0.00121638 	2.08701e-08 	0.92 	0.04 	0.04 	0.0291616 	
0 	0 	0 	0 	
0.00127 	1.85533e-08 	0.92 	0.04 	0.04 	0.0291615 	
0 	0 	0 	0 	
ZONE T = "t = 0.00383503 [s]" I = 10 SOLUTIONTIME = 3.8350311846577E-03
0.0007874 	2.08701e-08 	0.92 	0.04 	0.04 	0.029162 	
0 	0 	0 	0 	
0.000841022 	2.08701e-08 	0.92 	0.04 	0.04 	0.0291619 	
0 	0 	0 	0 	
0.000894644 	2.08701e-08 	0.92 	0.04 	0.04 	0.0291619 	
0 	0 	0 	0 	
0.000948267 	2.08701e-08 	0.92 	0.04 	0.04 	0.0291618 	
0 	0 	0 	0 	
0.00100189 	2.08701e-08 	0.92 	0.04 	0.04 	0.0291618 	
0 	0 	0 	0 	
0.00105551 	2.08701e-08 	0.92 	0.04 	0.04 	0.0291617 	
0 	0 	0 	0 	
0.00110913 	2.08701e-08 	0.92 	0.04 	0.04 	0.0291617 	
0 	0 	0 	0 	
0.00116276 	2.08701e-08 	0.92 	0.04 	0.04 	0.0291616 	
0 	0 	0 	0 	
0.00121638 	2.08701e-08 	0.92 	0.04 	0.04 	0.0291616 	
0 	0 	0 	0 	
0.00127 	1.85533e-08 	0.92 	0.04 	0.04 	0.0291615 	
0 	0 	0 	0 	
ZONE T = "t = 0.00575254 [s]" I = 10 SOLUTIONTIME = 5.7525417769865E-03
0.0007874 	2.087e-08 	0.92 	0.04 	0.04 	0.029162 	
0 	0 	0 	0 	
0.000841022 	2.087e-08 	0.92 	0.04 	0.04 	0.0291619 	
0 	0 	0 	0 	
0.000894644 	2.087e-08 	0.92 	0.04 	0.04 	0.0291619 	
0 	0 	0 	0 	
0.000948267 	2.087e-08 	0.92 	0.04 	0.04 	0.0291618 	
0 	0 	0 	0 	
0.00100189 	2.087e-08 	0.92 	0.04 	0.04 	0.0291618 	
0 	0 	0 	0 	
0.00105551 	2.087e-08 	0.92 	0.04 	0.04 	0.0291617 	
0 	0 	0 	0 	
0.00110913 	2.087e-08 	0.92 	0.04 	0.04 	0.0291617 	
0 	0 	0 	0 	
0.00116276 	2.087e-08 	0.92 	0.04 	0.04 	0.0291616 	
0 	0 	0 	0 	
0.00121638 	2.087e-08 	0.92 	0.04 	0.04 	0.0291616 	
0 	0 	0 	0 	
0.00127 	1.85532e-08 	0.92 	0.0399999 	0.0399999 	0.0291615 	
0 	0 	0 	0 	
ZONE T = "t = 0.00862881 [s]" I = 10 SOLUTIONTIME = 8.6288076654798E-03
0.0007874 	2.087e-08 	0.92 	0.0400001 	0.0400001 	0.0291619 	
0 	0 	0 	0 	
0.000841022 	2.087e-08 	0.92 	0.04 	0.04 	0.0291619 	
0 	0 	0 	0 	
0.000894644 	2.087e-08 	0.92 	0.04 	0.04 	0.0291618 	
0 	0 	0 	0 	
0.000948267 	2.087e-08 	0.92 	0.04 	0.04 	0.0291618 	
0 	0 	0 	0 	
0.00100189 	2.087e-08 	0.92 	0.04 	0.04 	0.0291617 	
0 	0 	0 	0 	
0.00105551 	2.087e-08 	0.92 	0.04 	0.04 	0.0291617 	
0 	0 	0 	0 	
0.00110913 	2.087e-08 	0.92 	0.04 	0.04 	0.0291616 	
0 	0 	0 	0 	
0.00116276 	2.087e-08 	0.92 	0.04 	0.04 	0.0291616 	
0 	0 	0 	0 	
0.00121638 	2.087e-08 	0.92 	0.0399999 	0.0399999 	0.0291615 	
0 	0 	0 	0 	
0.00127 	1.85532e-08 	0.92 	0.0399999 	0.0399999 	0.0291615 	
0 	0 	0 	0 	
ZONE T = "t = 0.0129432 [s]" I = 10 SOLUTIONTIME = 1.2943206498220E-02
0.0007874 	2.08699e-08 	0.92 	0.0400001 	0.0400001 	0.0291619 	
0 	0 	0 	0 	
0.000841022 	2.08699e-08 	0.92 	0.0400001 	0.0400001 	0.0291619 	
0 	0 	0 	0 	
0.000894644 	2.08699e-08 	0.92 	0.04 	0.04 	0.0291618 	
0 	0 	0 	0 	
0.000948267 	2.08699e-08 	0.92 	0.04 	0.04 	0.0291618 	
0 	0 	0 	0 	
0.00100189 	2.08699e-08 	0.92 	0.04 	0.04 	0.0291617 	
0 	0 	0 	0 	
0.00105551 	2.08699e-08 	0.92 	0.04 	0.04 	0.0291617 	
0 	0 	0 	0 	
0.00110913 	2.08699e-08 	0.92 	0.04 	0.04 	0.0291616 	
0 	0 	0 	0 	
0.00116276 	2.08699e-08 	0.92 	0.0399999 	0.0399999 	0.0291616 	
0 	0 	0 	0 	
0.00121638 	2.08699e-08 	0.92 	0.0399999 	0.0399999 	0.0291615 	
0 	0 	0 	0 	
0.00127 	1.85531e-08 	0.92 	0.0399999 	0.0399999 	0.0291615 	
0 	0 	0 	0 	
ZONE T = "t = 0.0194148 [s]" I = 10 SOLUTIONTIME = 1.9414804747330E-02
0.0007874 	2.08698e-08 	0.92 	0.0400001 	0.0400001 	0.0291619 	
0 	0 	0 	0 	
0.000841022 	2.08698e-08 	0.92 	0.0400001 	0.0400001 	0.0291618 	
0 	0 	0 	0 	
0.000894644 	2.08698e-08 	0.92 	0.04 	0.04 	0.0291618 	
0 	0 	0 	0 	
0.000948267 	2.08698e-08 	0.92 	0.04 	0.04 	0.0291617 	
0 	0 	0 	0 	
0.00100189 	2.08698e-08 	0.92 	0.04 	0.04 	0.0291617 	
0 	0 	0 	0 	
0.00105551 	2.08698e-08 	0.92 	0.04 	0.04 	0.0291616 	
0 	0 	0 	0 	
0.00110913 	2.08698e-08 	0.92 	0.0399999 	0.0399999 	0.0291616 	
0 	0 	0 	0 	
0.00116276 	2.08698e-08 	0.92 	0.0399999 	0.0399999 	0.0291615 	
0 	0 	0 	0 	
0.00121638 	2.08698e-08 	0.92 	0.0399999 	0.0399999 	0.0291615 	
0 	0 	0 	0 	
0.00127 	1.8553e-08 	0.92 	0.0399998 	0.0399998 	0.0291614 	
0 	0 	0 	0 	
ZONE T = "t = 0.0291222 [s]" I = 10 SOLUTIONTIME = 2.9122202120994E-02
0.0007874 	2.08697e-08 	0.92 	0.0400001 	0.0400001 	0.0291618 	
0 	0 	0 	0 	
0.000841022 	2.08697e-08 	0.92 	0.0400001 	0.0400001 	0.0291618 	
0 	0 	0 	0 	
0.000894644 	2.08697e-08 	0.92 	0.0400001 	0.0400001 	0.0291617 	
0 	0 	0 	0 	
0.000948267 	2.08697e-08 	0.92 	0.04 	0.04 	0.0291617 	
0 	0 	0 	0 	
0.00100189 	2.08697e-08 	0.92 	0.04 	0.04 	0.0291616 	
0 	0 	0 	0 	
0.00105551 	2.08697e-08 	0.92 	0.0399999 	0.0399999 	0.0291616 	
0 	0 	0 	0 	
0.00110913 	2.08697e-08 	0.92 	0.0399999 	0.0399999 	0.0291615 	
0 	0 	0 	0 	
0.00116276 	2.08697e-08 	0.92 	0.0399999 	0.0399999 	0.0291615 	
0 	0 	0 	0 	
0.00121638 	2.08697e-08 	0.92 	0.0399998 	0.0399998 	0.0291614 	
0 	0 	0 	0 	
0.00127 	1.85529e-08 	0.92 	0.0399998 	0.0399998 	0.0291614 	
0 	0 	0 	0 	
ZONE T = "t = 0.0436833 [s]" I = 10 SOLUTIONTIME = 4.3683298181491E-02
0.0007874 	2.08695e-08 	0.92 	0.0400001 	0.0400001 	0.0291617 	
0 	0 	0 	0 	
0.000841022 	2.08695e-08 	0.92 	0.0400001 	0.0400001 	0.0291617 	
0 	0 	0 	0 	
0.000894644 	2.08695e-08 	0.92 	0.04 	0.04 	0.0291617 	
0 	0 	0 	0 	
0.000948267 	2.08695e-08 	0.92 	0.04 	0.04 	0.0291616 	
0 	0 	0 	0 	