TITLE = "Solution on Domain BulkDomain1D_1"
VARIABLES = "x [m]"  
"Vel_axial" 	"MF_sp(ECDMC)" 	"MF_sp(Li+)" 	"MF_sp(PF6-)" 	"Volt(Electroly)" 	"Porosity []" 	"Control volume thickness [m]" 	"volFrac MgO(S) []" 	"qHeat_accum [J/m3]" 	"qHeat_step [W/m3]" 	"Joule_Lyte [W/m3]" 	"Joule_Solid [W/m3]" 	
ZONE T = "SEP , 0.0000E+00", I = 10, SOLUTIONTIME = 0.000000E+00
ZONETYPE = ORDERED
DATAPACKING = BLOCK
STRANDID = 2
 7.8740000000000E-04  8.4102222222222E-04  8.9464444444444E-04  9.4826666666667E-04  1.0018888888889E-03  1.0555111111111E-03  1.1091333333333E-03  1.1627555555556E-03  1.2163777777778E-03  1.2700000000000E-03 
 0.0000000000000E+00  0.0000000000000E+00  0.0000000000000E+00  0.0000000000000E+00  0.0000000000000E+00  0.0000000000000E+00  0.0000000000000E+00  0.0000000000000E+00  0.0000000000000E+00  0.0000000000000E+00 
 9.2000000000000E-01  9.2000000000000E-01  9.2000000000000E-01  9.2000000000000E-01  9.2000000000000E-01  9.2000000000000E-01  9.2000000000000E-01  9.2000000000000E-01  9.2000000000000E-01  9.2000000000000E-01 
 4.0000000000000E-02  4.0000000000000E-02  4.0000000000000E-02  4.0000000000000E-02  4.0000000000000E-02  4.0000000000000E-02  4.0000000000000E-02  4.0000000000000E-02  4.0000000000000E-02  4.0000000000000E-02 
 4.0000000000000E-02  4.0000000000000E-02  4.0000000000000E-02  4.0000000000000E-02  4.0000000000000E-02  4.0000000000000E-02  4.0000000000000E-02  4.0000000000000E-02  4.0000000000000E-02  4.0000000000000E-02 
-7.0000000000000E-02 -7.0000000000000E-02 -7.0000000000000E-02 -7.0000000000000E-02 -7.0000000000000E-02 -7.0000000000000E-02 -7.0000000000000E-02 -7.0000000000000E-02 -7.0000000000000E-02 -7.0000000000000E-02 
 8.0911139820575E-01  8.0911139820575E-01  8.0911139820575E-01  8.0911139820575E-01  8.0911139820575E-01  8.0911139820575E-01  8.0911139820575E-01  8.0911139820575E-01  8.0911139820575E-01  8.0911139820575E-01 
 2.6811111111111E-05  5.3622222222222E-05  5.3622222222222E-05  5.3622222222222E-05  5.3622222222222E-05  5.3622222222222E-05  5.3622222222222E-05  5.3622222222223E-05  5.3622222222222E-05  2.6811111111111E-05 
 1.9088860179425E-01  1.9088860179425E-01  1.9088860179425E-01  1.9088860179425E-01  1.9088860179425E-01  1.9088860179425E-01  1.9088860179425E-01  1.9088860179425E-01  1.9088860179425E-01  1.9088860179425E-01 
 0.0000000000000E+00  0.0000000000000E+00  0.0000000000000E+00  0.0000000000000E+00  0.0000000000000E+00  0.0000000000000E+00  0.0000000000000E+00  0.0000000000000E+00  0.0000000000000E+00  0.0000000000000E+00 
 0.0000000000000E+00  0.0000000000000E+00  0.0000000000000E+00  0.0000000000000E+00  0.0000000000000E+00  0.0000000000000E+00  0.0000000000000E+00  0.0000000000000E+00  0.0000000000000E+00  0.0000000000000E+00 
 0.0000000000000E+00  0.0000000000000E+00  0.0000000000000E+00  0.0000000000000E+00  0.0000000000000E+00  0.0000000000000E+00  0.0000000000000E+00  0.0000000000000E+00  0.0000000000000E+00  0.0000000000000E+00 
 0.0000000000000E+00  0.0000000000000E+00  0.0000000000000E+00  0.0000000000000E+00  0.0000000000000E+00  0.0000000000000E+00  0.0000000000000E+00  0.0000000000000E+00  0.0000000000000E+00  0.0000000000000E+00 
ZONE T = "SEP , 1.0000E-08", I = 10, SOLUTIONTIME = 1.000000E-08
ZONETYPE = ORDERED
DATAPACKING = BLOCK
STRANDID = 2
 7.8740000000000E-04  8.4102222222222E-04  8.9464444444444E-04  9.4826666666667E-04  1.0018888888889E-03  1.0555111111111E-03  1.1091333333333E-03  1.1627555555556E-03  1.2163777777778E-03  1.2700000000000E-03 
 2.0841538117915E-08  2.0841538117915E-08  2.0841538117915E-08  2.0841538117915E-08  2.0841538117915E-08  2.0841538117915E-08  2.0841538117915E-08  2.0841538117915E-08  2.0841538117915E-08  1.9684328397676E-08 
 9.1999999999971E-01  9.2000000000000E-01  9.2000000000000E-01  9.2000000000000E-01  9.2000000000000E-01  9.2000000000000E-01  9.2000000000000E-01  9.2000000000000E-01  9.2000000000000E-01  9.2000000000032E-01 
 4.0000000000144E-02  4.0000000000000E-02  4.0000000000000E-02  4.0000000000000E-02  4.0000000000000E-02  4.0000000000000E-02  4.0000000000000E-02  4.0000000000000E-02  4.0000000000000E-02  3.9999999999841E-02 
 4.0000000000144E-02  4.0000000000000E-02  4.0000000000000E-02  4.0000000000000E-02  4.0000000000000E-02  4.0000000000000E-02  4.0000000000000E-02  4.0000000000000E-02  4.0000000000000E-02  3.9999999999841E-02 
 2.9180986242661E-02  2.9180936922852E-02  2.9180887603043E-02  2.9180838283233E-02  2.9180788963424E-02  2.9180739643614E-02  2.9180690323805E-02  2.9180641003995E-02  2.9180591684186E-02  2.9180542364376E-02 
 8.0911139820575E-01  8.0911139820575E-01  8.0911139820575E-01  8.0911139820575E-01  8.0911139820575E-01  8.0911139820575E-01  8.0911139820575E-01  8.0911139820575E-01  8.0911139820575E-01  8.0911139820575E-01 
 2.6811111111111E-05  5.3622222222222E-05  5.3622222222222E-05  5.3622222222222E-05  5.3622222222222E-05  5.3622222222222E-05  5.3622222222222E-05  5.3622222222223E-05  5.3622222222222E-05  2.6811111111111E-05 
 1.9088860179425E-01  1.9088860179425E-01  1.9088860179425E-01  1.9088860179425E-01  1.9088860179425E-01  1.9088860179425E-01  1.9088860179425E-01  1.9088860179425E-01  1.9088860179425E-01  1.9088860179425E-01 
 2.7607970774730E-10  2.7607970776647E-10  2.7607970776622E-10  2.7607970776623E-10  2.7607970776622E-10  2.7607970776623E-10  2.7607970776623E-10  2.7607970776622E-10  2.7607970776595E-10  2.7607970774626E-10 
 2.7607970774730E-02  2.7607970776647E-02  2.7607970776622E-02  2.7607970776623E-02  2.7607970776622E-02  2.7607970776623E-02  2.7607970776623E-02  2.7607970776622E-02  2.7607970776595E-02  2.7607970774626E-02 
 2.7607970774730E-02  2.7607970776647E-02  2.7607970776622E-02  2.7607970776623E-02  2.7607970776622E-02  2.7607970776623E-02  2.7607970776623E-02  2.7607970776622E-02  2.7607970776595E-02  2.7607970774626E-02 
 0.0000000000000E+00  0.0000000000000E+00  0.0000000000000E+00  0.0000000000000E+00  0.0000000000000E+00  0.0000000000000E+00  0.0000000000000E+00  0.0000000000000E+00  0.0000000000000E+00  0.0000000000000E+00 
ZONE T = "SEP , 2.0000E-08", I = 10, SOLUTIONTIME = 2.000000E-08
ZONETYPE = ORDERED
DATAPACKING = BLOCK
STRANDID = 2
 7.8740000000000E-04  8.4102222222222E-04  8.9464444444444E-04  9.4826666666667E-04  1.0018888888889E-03  1.0555111111111E-03  1.1091333333333E-03  1.1627555555556E-03  1.2163777777778E-03  1.2700000000000E-03 
 2.0858684238978E-08  2.0858684238978E-08  2.0858684238978E-08  2.0858684238978E-08  2.0858684238978E-08  2.0858684238978E-08  2.0858684238978E-08  2.0858684238978E-08  2.0858684238978E-08  1.9700065583645E-08 
 9.1999999999942E-01  9.2000000000000E-01  9.2000000000000E-01  9.2000000000000E-01  9.2000000000000E-01  9.2000000000000E-01  9.2000000000000E-01  9.2000000000000E-01  9.2000000000000E-01  9.2000000000063E-01 
 4.0000000000288E-02  4.0000000000000E-02  4.0000000000000E-02  4.0000000000000E-02  4.0000000000000E-02  4.0000000000000E-02  4.0000000000000E-02  4.0000000000000E-02  4.0000000000000E-02  3.9999999999683E-02 
 4.0000000000288E-02  4.0000000000000E-02  4.0000000000000E-02  4.0000000000000E-02  4.0000000000000E-02  4.0000000000000E-02  4.0000000000000E-02  4.0000000000000E-02  4.0000000000000E-02  3.9999999999683E-02 
 2.9166397951124E-02  2.9166348586876E-02  2.9166299222628E-02  2.9166249858381E-02  2.9166200494133E-02  2.9166151129885E-02  2.9166101765637E-02  2.9166052401389E-02  2.9166003037141E-02  2.9165953672893E-02 
 8.0911139820575E-01  8.0911139820575E-01  8.0911139820575E-01  8.0911139820575E-01  8.0911139820575E-01  8.0911139820575E-01  8.0911139820575E-01  8.0911139820575E-01  8.0911139820575E-01  8.0911139820575E-01 
 2.6811111111111E-05  5.3622222222222E-05  5.3622222222222E-05  5.3622222222222E-05  5.3622222222222E-05  5.3622222222222E-05  5.3622222222222E-05  5.3622222222223E-05  5.3622222222222E-05  2.6811111111111E-05 
 1.9088860179425E-01  1.9088860179425E-01  1.9088860179425E-01  1.9088860179425E-01  1.9088860179425E-01  1.9088860179425E-01  1.9088860179425E-01  1.9088860179425E-01  1.9088860179425E-01  1.9088860179425E-01 
 5.5265714928590E-10  5.5265714932401E-10  5.5265714934270E-10  5.5265714934270E-10  5.5265714934270E-10  5.5265714936214E-10  5.5265714936214E-10  5.5265714934270E-10  5.5265714934188E-10  5.5265714932164E-10 
 2.7657744153860E-02  2.7657744155754E-02  2.7657744157648E-02  2.7657744157648E-02  2.7657744157648E-02  2.7657744159592E-02  2.7657744159592E-02  2.7657744157648E-02  2.7657744157593E-02  2.7657744157538E-02 
 2.7657744153860E-02  2.7657744155754E-02  2.7657744157648E-02  2.7657744157648E-02  2.7657744157648E-02  2.7657744159592E-02  2.7657744159592E-02  2.7657744157648E-02  2.7657744157593E-02  2.7657744157538E-02 
 0.0000000000000E+00  0.0000000000000E+00  0.0000000000000E+00  0.0000000000000E+00  0.0000000000000E+00  0.0000000000000E+00  0.0000000000000E+00  0.0000000000000E+00  0.0000000000000E+00  0.0000000000000E+00 
ZONE T = "SEP , 3.0000E-08", I = 10, SOLUTIONTIME = 3.000000E-08
ZONETYPE = ORDERED
DATAPACKING = BLOCK
STRANDID = 2
 7.8740000000000E-04  8.4102222222222E-04  8.9464444444444E-04  9.4826666666667E-04  1.0018888888889E-03  1.0555111111111E-03  1.1091333333333E-03  1.1627555555556E-03  1.2163777777778E-03  1.2700000000000E-03 
 2.0864158604558E-08  2.0864158604558E-08  2.0864158604558E-08  2.0864158604558E-08  2.0864158604558E-08  2.0864158604558E-08  2.0864158604558E-08  2.0864158604558E-08  2.0864158604558E-08  1.9706951166369E-08 
 9.1999999999914E-01  9.2000000000000E-01  9.2000000000000E-01  9.2000000000000E-01  9.2000000000000E-01  9.2000000000000E-01  9.2000000000000E-01  9.2000000000000E-01  9.2000000000000E-01  9.2000000000095E-01 
 4.0000000000432E-02  4.0000000000000E-02  4.0000000000000E-02  4.0000000000000E-02  4.0000000000000E-02  4.0000000000000E-02  4.0000000000000E-02  4.0000000000000E-02  4.0000000000000E-02  3.9999999999524E-02 
 4.0000000000432E-02  4.0000000000000E-02  4.0000000000000E-02  4.0000000000000E-02  4.0000000000000E-02  4.0000000000000E-02  4.0000000000000E-02  4.0000000000000E-02  4.0000000000000E-02  3.9999999999524E-02 
 2.9165813991530E-02  2.9165764625501E-02  2.9165715259473E-02  2.9165665893444E-02  2.9165616527415E-02  2.9165567161386E-02  2.9165517795357E-02  2.9165468429329E-02  2.9165419063300E-02  2.9165369697271E-02 
 8.0911139820575E-01  8.0911139820575E-01  8.0911139820575E-01  8.0911139820575E-01  8.0911139820575E-01  8.0911139820575E-01  8.0911139820575E-01  8.0911139820575E-01  8.0911139820575E-01  8.0911139820575E-01 
 2.6811111111111E-05  5.3622222222222E-05  5.3622222222222E-05  5.3622222222222E-05  5.3622222222222E-05  5.3622222222222E-05  5.3622222222222E-05  5.3622222222223E-05  5.3622222222222E-05  2.6811111111111E-05 
 1.9088860179425E-01  1.9088860179425E-01  1.9088860179425E-01  1.9088860179425E-01  1.9088860179425E-01  1.9088860179425E-01  1.9088860179425E-01  1.9088860179425E-01  1.9088860179425E-01  1.9088860179425E-01 
 8.2925454776178E-10  8.2925454781859E-10  8.2925454785597E-10  8.2925454785597E-10  8.2925454785597E-10  8.2925454787541E-10  8.2925454787541E-10  8.2925454785597E-10  8.2925454785433E-10  8.2925454783326E-10 
 2.7659739847588E-02  2.7659739849458E-02  2.7659739851327E-02  2.7659739851327E-02  2.7659739851327E-02  2.7659739851327E-02  2.7659739851327E-02  2.7659739851327E-02  2.7659739851245E-02  2.7659739851162E-02 
 2.7659739847588E-02  2.7659739849458E-02  2.7659739851327E-02  2.7659739851327E-02  2.7659739851327E-02  2.7659739851327E-02  2.7659739851327E-02  2.7659739851327E-02  2.7659739851245E-02  2.7659739851162E-02 
 0.0000000000000E+00  0.0000000000000E+00  0.0000000000000E+00  0.0000000000000E+00  0.0000000000000E+00  0.0000000000000E+00  0.0000000000000E+00  0.0000000000000E+00  0.0000000000000E+00  0.0000000000000E+00 
ZONE T = "SEP , 4.0000E-08", I = 10, SOLUTIONTIME = 4.000000E-08
ZONETYPE = ORDERED
DATAPACKING = BLOCK
STRANDID = 2
 7.8740000000000E-04  8.4102222222222E-04  8.9464444444444E-04  9.4826666666667E-04  1.0018888888889E-03  1.0555111111111E-03  1.1091333333333E-03  1.1627555555556E-03  1.2163777777778E-03  1.2700000000000E-03 
 2.0858909398729E-08  2.0858909398729E-08  2.0858909398729E-08  2.0858909398729E-08  2.0858909398729E-08  2.0858909398729E-08  2.0858909398729E-08  2.0858909398729E-08  2.0858909398729E-08  1.9701176273286E-08 
 9.1999999999885E-01  9.2000000000000E-01  9.2000000000000E-01  9.2000000000000E-01  9.2000000000000E-01  9.2000000000000E-01  9.2000000000000E-01  9.2000000000000E-01  9.2000000000000E-01  9.2000000000127E-01 
 4.0000000000576E-02  4.0000000000000E-02  4.0000000000000E-02  4.0000000000000E-02  4.0000000000000E-02  4.0000000000000E-02  4.0000000000000E-02  4.0000000000000E-02  4.0000000000000E-02  3.9999999999365E-02 
 4.0000000000576E-02  4.0000000000000E-02  4.0000000000000E-02  4.0000000000000E-02  4.0000000000000E-02  4.0000000000000E-02  4.0000000000000E-02  4.0000000000000E-02  4.0000000000000E-02  3.9999999999365E-02 
 2.9166082336819E-02  2.9166032971609E-02  2.9165983606398E-02  2.9165934241188E-02  2.9165884875978E-02  2.9165835510767E-02  2.9165786145557E-02  2.9165736780347E-02  2.9165687415136E-02  2.9165638049926E-02 
 8.0911139820575E-01  8.0911139820575E-01  8.0911139820575E-01  8.0911139820575E-01  8.0911139820575E-01  8.0911139820575E-01  8.0911139820575E-01  8.0911139820575E-01  8.0911139820575E-01  8.0911139820575E-01 
 2.6811111111111E-05  5.3622222222222E-05  5.3622222222222E-05  5.3622222222222E-05  5.3622222222222E-05  5.3622222222222E-05  5.3622222222222E-05  5.3622222222223E-05  5.3622222222222E-05  2.6811111111111E-05 
 1.9088860179425E-01  1.9088860179425E-01  1.9088860179425E-01  1.9088860179425E-01  1.9088860179425E-01  1.9088860179425E-01  1.9088860179425E-01  1.9088860179425E-01  1.9088860179425E-01  1.9088860179425E-01 
 1.1058427745903E-09  1.1058427746461E-09  1.1058427746825E-09  1.1058427746825E-09  1.1058427747019E-09  1.1058427747213E-09  1.1058427747019E-09  1.1058427746825E-09  1.1058427746992E-09  1.1058427746964E-09 
 2.7658822682849E-02  2.7658822682749E-02  2.7658822682650E-02  2.7658822682650E-02  2.7658822684593E-02  2.7658822684594E-02  2.7658822682650E-02  2.7658822682649E-02  2.7658822684484E-02  2.7658822686318E-02 
 2.7658822682849E-02  2.7658822682749E-02  2.7658822682650E-02  2.7658822682650E-02  2.7658822684593E-02  2.7658822684594E-02  2.7658822682650E-02  2.7658822682649E-02  2.7658822684484E-02  2.7658822686318E-02 
 0.0000000000000E+00  0.0000000000000E+00  0.0000000000000E+00  0.0000000000000E+00  0.0000000000000E+00  0.0000000000000E+00  0.0000000000000E+00  0.0000000000000E+00  0.0000000000000E+00  0.0000000000000E+00 
ZONE T = "SEP , 5.5000E-08", I = 10, SOLUTIONTIME = 5.500000E-08
ZONETYPE = ORDERED
DATAPACKING = BLOCK
STRANDID = 2
 7.8740000000000E-04  8.4102222222222E-04  8.9464444444444E-04  9.4826666666667E-04  1.0018888888889E-03  1.0555111111111E-03  1.1091333333333E-03  1.1627555555556E-03  1.2163777777778E-03  1.2700000000000E-03 
 2.0861480018390E-08  2.0861480018390E-08  2.0861480018390E-08  2.0861480018390E-08  2.0861480018390E-08  2.0861480018390E-08  2.0861480018390E-08  2.0861480018390E-08  2.0861480018390E-08  1.9703748682577E-08 
 9.1999999999842E-01  9.2000000000000E-01  9.2000000000000E-01  9.2000000000000E-01  9.2000000000000E-01  9.2000000000000E-01  9.2000000000000E-01  9.2000000000000E-01  9.2000000000000E-01  9.2000000000175E-01 
 4.0000000000792E-02  4.0000000000000E-02  4.0000000000000E-02  4.0000000000000E-02  4.0000000000000E-02  4.0000000000000E-02  4.0000000000000E-02  4.0000000000000E-02  4.0000000000000E-02  3.9999999999127E-02 
 4.0000000000792E-02  4.0000000000000E-02  4.0000000000000E-02  4.0000000000000E-02  4.0000000000000E-02  4.0000000000000E-02  4.0000000000000E-02  4.0000000000000E-02  4.0000000000000E-02  3.9999999999127E-02 
 2.9166107450053E-02  2.9166058084920E-02  2.9166008719786E-02  2.9165959354652E-02  2.9165909989519E-02  2.9165860624385E-02  2.9165811259251E-02  2.9165761894117E-02  2.9165712528984E-02  2.9165663163850E-02 
 8.0911139820575E-01  8.0911139820575E-01  8.0911139820575E-01  8.0911139820575E-01  8.0911139820575E-01  8.0911139820575E-01  8.0911139820575E-01  8.0911139820575E-01  8.0911139820575E-01  8.0911139820575E-01 
 2.6811111111111E-05  5.3622222222222E-05  5.3622222222222E-05  5.3622222222222E-05  5.3622222222222E-05  5.3622222222222E-05  5.3622222222222E-05  5.3622222222223E-05  5.3622222222222E-05  2.6811111111111E-05 
 1.9088860179425E-01  1.9088860179425E-01  1.9088860179425E-01  1.9088860179425E-01  1.9088860179425E-01  1.9088860179425E-01  1.9088860179425E-01  1.9088860179425E-01  1.9088860179425E-01  1.9088860179425E-01 
 1.5207238274319E-09  1.5207238274857E-09  1.5207238275200E-09  1.5207238275200E-09  1.5207238275686E-09  1.5207238275880E-09  1.5207238275394E-09  1.5207238275200E-09  1.5207238275636E-09  1.5207238275878E-09 
 2.7658736856109E-02  2.7658736855972E-02  2.7658736855835E-02  2.7658736855835E-02  2.7658736857779E-02  2.7658736857779E-02  2.7658736855835E-02  2.7658736855835E-02  2.7658736857628E-02  2.7658736859421E-02 
 2.7658736856109E-02  2.7658736855972E-02  2.7658736855835E-02  2.7658736855835E-02  2.7658736857779E-02  2.7658736857779E-02  2.7658736855835E-02  2.7658736855835E-02  2.7658736857628E-02  2.7658736859421E-02 
 0.0000000000000E+00  0.0000000000000E+00  0.0000000000000E+00  0.0000000000000E+00  0.0000000000000E+00  0.0000000000000E+00  0.0000000000000E+00  0.0000000000000E+00  0.0000000000000E+00  0.0000000000000E+00 
ZONE T = "SEP , 7.7500E-08", I = 10, SOLUTIONTIME = 7.750000E-08
ZONETYPE = ORDERED
DATAPACKING = BLOCK
STRANDID = 2
 7.8740000000000E-04  8.4102222222222E-04  8.9464444444444E-04  9.4826666666667E-04  1.0018888888889E-03  1.0555111111111E-03  1.1091333333333E-03  1.1627555555556E-03  1.2163777777778E-03  1.2700000000000E-03 
 2.0862860900064E-08  2.0862860900064E-08  2.0862860900064E-08  2.0862860900064E-08  2.0862860900064E-08  2.0862860900064E-08  2.0862860900064E-08  2.0862860900064E-08  2.0862860900064E-08  1.9705129079713E-08 
 9.1999999999777E-01  9.2000000000000E-01  9.2000000000000E-01  9.2000000000000E-01  9.2000000000000E-01  9.2000000000000E-01  9.2000000000000E-01  9.2000000000000E-01  9.2000000000000E-01  9.2000000000246E-01 
 4.0000000001116E-02  4.0000000000000E-02  4.0000000000000E-02  4.0000000000000E-02  4.0000000000000E-02  4.0000000000000E-02  4.0000000000000E-02  4.0000000000000E-02  4.0000000000000E-02  3.9999999998770E-02 
 4.0000000001116E-02  4.0000000000000E-02  4.0000000000000E-02  4.0000000000000E-02  4.0000000000000E-02  4.0000000000000E-02  4.0000000000000E-02  4.0000000000000E-02  4.0000000000000E-02  3.9999999998770E-02 
 2.9166100650288E-02  2.9166051285133E-02  2.9166001919979E-02  2.9165952554824E-02  2.9165903189670E-02  2.9165853824515E-02  2.9165804459361E-02  2.9165755094206E-02  2.9165705729052E-02  2.9165656363897E-02 
 8.0911139820575E-01  8.0911139820575E-01  8.0911139820575E-01  8.0911139820575E-01  8.0911139820575E-01  8.0911139820575E-01  8.0911139820575E-01  8.0911139820575E-01  8.0911139820575E-01  8.0911139820575E-01 
 2.6811111111111E-05  5.3622222222222E-05  5.3622222222222E-05  5.3622222222222E-05  5.3622222222222E-05  5.3622222222222E-05  5.3622222222222E-05  5.3622222222223E-05  5.3622222222222E-05  2.6811111111111E-05 
 1.9088860179425E-01  1.9088860179425E-01  1.9088860179425E-01  1.9088860179425E-01  1.9088860179425E-01  1.9088860179425E-01  1.9088860179425E-01  1.9088860179425E-01  1.9088860179425E-01  1.9088860179425E-01 
 2.1430459295361E-09  2.1430459295855E-09  2.1430459296155E-09  2.1430459296155E-09  2.1430459296641E-09  2.1430459296835E-09  2.1430459296349E-09  2.1430459296592E-09  2.1430459296980E-09  2.1430459296737E-09 
 2.7658760093519E-02  2.7658760093326E-02  2.7658760093133E-02  2.7658760093133E-02  2.7658760093133E-02  2.7658760093133E-02  2.7658760093133E-02  2.7658760095076E-02  2.7658760094864E-02  2.7658760092707E-02 
 2.7658760093519E-02  2.7658760093326E-02  2.7658760093133E-02  2.7658760093133E-02  2.7658760093133E-02  2.7658760093133E-02  2.7658760093133E-02  2.7658760095076E-02  2.7658760094864E-02  2.7658760092707E-02 
 0.0000000000000E+00  0.0000000000000E+00  0.0000000000000E+00  0.0000000000000E+00  0.0000000000000E+00  0.0000000000000E+00  0.0000000000000E+00  0.0000000000000E+00  0.0000000000000E+00  0.0000000000000E+00 
ZONE T = "SEP , 1.1125E-07", I = 10, SOLUTIONTIME = 1.112500E-07
ZONETYPE = ORDERED
DATAPACKING = BLOCK
STRANDID = 2
 7.8740000000000E-04  8.4102222222222E-04  8.9464444444444E-04  9.4826666666667E-04  1.0018888888889E-03  1.0555111111111E-03  1.1091333333333E-03  1.1627555555556E-03  1.2163777777778E-03  1.2700000000000E-03 
 2.0862593266851E-08  2.0862593266851E-08  2.0862593266851E-08  2.0862593266851E-08  2.0862593266851E-08  2.0862593266851E-08  2.0862593266851E-08  2.0862593266851E-08  2.0862593266851E-08  1.9704699942893E-08 
 9.1999999999679E-01  9.2000000000000E-01  9.2000000000000E-01  9.2000000000000E-01  9.2000000000000E-01  9.2000000000000E-01  9.2000000000000E-01  9.2000000000000E-01  9.2000000000000E-01  9.2000000000353E-01 
 4.0000000001603E-02  4.0000000000000E-02  4.0000000000000E-02  4.0000000000000E-02  4.0000000000000E-02  4.0000000000000E-02  4.0000000000000E-02  4.0000000000000E-02  4.0000000000000E-02  3.9999999998234E-02 
 4.0000000001603E-02  4.0000000000000E-02  4.0000000000000E-02  4.0000000000000E-02  4.0000000000000E-02  4.0000000000000E-02  4.0000000000000E-02  4.0000000000000E-02  4.0000000000000E-02  3.9999999998234E-02 
 2.9166099555942E-02  2.9166050190784E-02  2.9166000825626E-02  2.9165951460468E-02  2.9165902095310E-02  2.9165852730152E-02  2.9165803364995E-02  2.9165753999837E-02  2.9165704634679E-02  2.9165655269521E-02 
 8.0911139820575E-01  8.0911139820575E-01  8.0911139820575E-01  8.0911139820575E-01  8.0911139820575E-01  8.0911139820575E-01  8.0911139820575E-01  8.0911139820575E-01  8.0911139820575E-01  8.0911139820575E-01 
 2.6811111111111E-05  5.3622222222222E-05  5.3622222222222E-05  5.3622222222222E-05  5.3622222222222E-05  5.3622222222222E-05  5.3622222222222E-05  5.3622222222223E-05  5.3622222222222E-05  2.6811111111111E-05 
 1.9088860179425E-01  1.9088860179425E-01  1.9088860179425E-01  1.9088860179425E-01  1.9088860179425E-01  1.9088860179425E-01  1.9088860179425E-01  1.9088860179425E-01  1.9088860179425E-01  1.9088860179425E-01 
 3.0765292087935E-09  3.0765292088992E-09  3.0765292089198E-09  3.0765292089198E-09  3.0765292089684E-09  3.0765292089223E-09  3.0765292089393E-09  3.0765292089635E-09  3.0765292089921E-09  3.0765292090230E-09 
 2.7658763829850E-02  2.7658763831517E-02  2.7658763831240E-02  2.7658763831240E-02  2.7658763831240E-02  2.7658763829296E-02  2.7658763831240E-02  2.7658763831240E-02  2.7658763830935E-02  2.7658763832573E-02 
 2.7658763829850E-02  2.7658763831517E-02  2.7658763831240E-02  2.7658763831240E-02  2.7658763831240E-02  2.7658763829296E-02  2.7658763831240E-02  2.7658763831240E-02  2.7658763830935E-02  2.7658763832573E-02 
 0.0000000000000E+00  0.0000000000000E+00  0.0000000000000E+00  0.0000000000000E+00  0.0000000000000E+00  0.0000000000000E+00  0.0000000000000E+00  0.0000000000000E+00  0.0000000000000E+00  0.0000000000000E+00 
ZONE T = "SEP , 1.6188E-07", I = 10, SOLUTIONTIME = 1.618750E-07
ZONETYPE = ORDERED
DATAPACKING = BLOCK
STRANDID = 2
 7.8740000000000E-04  8.4102222222222E-04  8.9464444444444E-04  9.4826666666667E-04  1.0018888888889E-03  1.0555111111111E-03  1.1091333333333E-03  1.1627555555556E-03  1.2163777777778E-03  1.2700000000000E-03 
 2.0863561627188E-08  2.0863561627188E-08  2.0863561627188E-08  2.0863561627188E-08  2.0863561627188E-08  2.0863561627188E-08  2.0863561627188E-08  2.0863561627188E-08  2.0863561627188E-08  1.9705829739564E-08 
 9.1999999999534E-01  9.2000000000000E-01  9.2000000000000E-01  9.2000000000000E-01  9.2000000000000E-01  9.2000000000000E-01  9.2000000000000E-01  9.2000000000000E-01  9.2000000000000E-01  9.2000000000514E-01 
 4.0000000002332E-02  4.0000000000001E-02  4.0000000000000E-02  4.0000000000000E-02  4.0000000000000E-02  4.0000000000000E-02  4.0000000000000E-02  4.0000000000000E-02  3.9999999999999E-02  3.9999999997431E-02 
 4.0000000002332E-02  4.0000000000001E-02  4.0000000000000E-02  4.0000000000000E-02  4.0000000000000E-02  4.0000000000000E-02  4.0000000000000E-02  4.0000000000000E-02  3.9999999999999E-02  3.9999999997431E-02 
 2.9166099705037E-02  2.9166050339879E-02  2.9166000974722E-02  2.9165951609564E-02  2.9165902244407E-02  2.9165852879250E-02  2.9165803514092E-02  2.9165754148935E-02  2.9165704783778E-02  2.9165655418620E-02 
 8.0911139820575E-01  8.0911139820575E-01  8.0911139820575E-01  8.0911139820575E-01  8.0911139820575E-01  8.0911139820575E-01  8.0911139820575E-01  8.0911139820575E-01  8.0911139820575E-01  8.0911139820575E-01 
 2.6811111111111E-05  5.3622222222222E-05  5.3622222222222E-05  5.3622222222222E-05  5.3622222222222E-05  5.3622222222222E-05  5.3622222222222E-05  5.3622222222223E-05  5.3622222222222E-05  2.6811111111111E-05 
 1.9088860179425E-01  1.9088860179425E-01  1.9088860179425E-01  1.9088860179425E-01  1.9088860179425E-01  1.9088860179425E-01  1.9088860179425E-01  1.9088860179425E-01  1.9088860179425E-01  1.9088860179425E-01 
 4.4767541017123E-09  4.4767541018960E-09  4.4767541018962E-09  4.4767541017978E-09  4.4767541019448E-09  4.4767541018986E-09  4.4767541018172E-09  4.4767541019399E-09  4.4767541020444E-09  4.4767541020528E-09 
 2.7658763316915E-02  2.7658763318455E-02  2.7658763318052E-02  2.7658763316108E-02  2.7658763318052E-02  2.7658763318052E-02  2.7658763316108E-02  2.7658763318052E-02  2.7658763319552E-02  2.7658763319108E-02 
 2.7658763316915E-02  2.7658763318455E-02  2.7658763318052E-02  2.7658763316108E-02  2.7658763318052E-02  2.7658763318052E-02  2.7658763316108E-02  2.7658763318052E-02  2.7658763319552E-02  2.7658763319108E-02 
 0.0000000000000E+00  0.0000000000000E+00  0.0000000000000E+00  0.0000000000000E+00  0.0000000000000E+00  0.0000000000000E+00  0.0000000000000E+00  0.0000000000000E+00  0.0000000000000E+00  0.0000000000000E+00 
ZONE T = "SEP , 2.3781E-07", I = 10, SOLUTIONTIME = 2.378125E-07
ZONETYPE = ORDERED
DATAPACKING = BLOCK
STRANDID = 2
 7.8740000000000E-04  8.4102222222222E-04  8.9464444444444E-04  9.4826666666667E-04  1.0018888888889E-03  1.0555111111111E-03  1.1091333333333E-03  1.1627555555556E-03  1.2163777777778E-03  1.2700000000000E-03 
 2.0862365828020E-08  2.0862461487668E-08  2.0862461487668E-08  2.0862461487668E-08  2.0862461487668E-08  2.0862461487668E-08  2.0862461487668E-08  2.0862461487668E-08  2.0862365828020E-08  1.9704705688054E-08 
 9.1999999999315E-01  9.2000000000000E-01  9.2000000000000E-01  9.2000000000000E-01  9.2000000000000E-01  9.2000000000000E-01  9.2000000000000E-01  9.2000000000000E-01  9.2000000000000E-01  9.2000000000755E-01 
 4.0000000003425E-02  4.0000000000002E-02  4.0000000000000E-02  4.0000000000000E-02  4.0000000000000E-02  4.0000000000000E-02  4.0000000000000E-02  4.0000000000000E-02  3.9999999999998E-02  3.9999999996226E-02 
 4.0000000003425E-02  4.0000000000002E-02  4.0000000000000E-02  4.0000000000000E-02  4.0000000000000E-02  4.0000000000000E-02  4.0000000000000E-02  4.0000000000000E-02  3.9999999999998E-02  3.9999999996226E-02 
 2.9166099744919E-02  2.9166050379762E-02  2.9166001014605E-02  2.9165951649448E-02  2.9165902284291E-02  2.9165852919133E-02  2.9165803553976E-02  2.9165754188819E-02  2.9165704823662E-02  2.9165655458504E-02 
 8.0911139820575E-01  8.0911139820575E-01  8.0911139820575E-01  8.0911139820575E-01  8.0911139820575E-01  8.0911139820575E-01  8.0911139820575E-01  8.0911139820575E-01  8.0911139820575E-01  8.0911139820575E-01 
 2.6811111111111E-05  5.3622222222222E-05  5.3622222222222E-05  5.3622222222222E-05  5.3622222222222E-05  5.3622222222222E-05  5.3622222222222E-05  5.3622222222223E-05  5.3622222222222E-05  2.6811111111111E-05 
 1.9088860179425E-01  1.9088860179425E-01  1.9088860179425E-01  1.9088860179425E-01  1.9088860179425E-01  1.9088860179425E-01  1.9088860179425E-01  1.9088860179425E-01  1.9088860179425E-01  1.9088860179425E-01 
 6.5770914301958E-09  6.5770914304821E-09  6.5770914305850E-09  6.5770914304865E-09  6.5770914304859E-09  6.5770914304398E-09  6.5770914305060E-09  6.5770914306286E-09  6.5770914308311E-09  6.5770914309377E-09 
 2.7658763173445E-02  2.7658763174796E-02  2.7658763176148E-02  2.7658763176148E-02  2.7658763174204E-02  2.7658763174204E-02  2.7658763176148E-02  2.7658763176147E-02  2.7658763177439E-02  2.7658763178730E-02 
 2.7658763173445E-02  2.7658763174796E-02  2.7658763176148E-02  2.7658763176148E-02  2.7658763174204E-02  2.7658763174204E-02  2.7658763176148E-02  2.7658763176147E-02  2.7658763177439E-02  2.7658763178730E-02 
 0.0000000000000E+00  0.0000000000000E+00  0.0000000000000E+00  0.0000000000000E+00  0.0000000000000E+00  0.0000000000000E+00  0.0000000000000E+00  0.0000000000000E+00  0.0000000000000E+00  0.0000000000000E+00 
ZONE T = "SEP , 3.5172E-07", I = 10, SOLUTIONTIME = 3.517188E-07
ZONETYPE = ORDERED
DATAPACKING = BLOCK
STRANDID = 2
 7.8740000000000E-04  8.4102222222222E-04  8.9464444444444E-04  9.4826666666667E-04  1.0018888888889E-03  1.0555111111111E-03  1.1091333333333E-03  1.1627555555556E-03  1.2163777777778E-03  1.2700000000000E-03 
 2.0862668751036E-08  2.0862604977937E-08  2.0862604977937E-08  2.0862604977937E-08  2.0862604977937E-08  2.0862604977937E-08  2.0862604977937E-08  2.0862604977937E-08  2.0862604977937E-08  1.9704873093130E-08 
 9.1999999998987E-01  9.1999999999999E-01  9.2000000000000E-01  9.2000000000000E-01  9.2000000000000E-01  9.2000000000000E-01  9.2000000000000E-01  9.2000000000000E-01  9.2000000000001E-01  9.2000000001116E-01 
 4.0000000005065E-02  4.0000000000003E-02  4.0000000000000E-02  4.0000000000000E-02  4.0000000000000E-02  4.0000000000000E-02  4.0000000000000E-02  4.0000000000000E-02  3.9999999999996E-02  3.9999999994419E-02 