TITLE = "Solution on Domain BulkDomain1D_0"
VARIABLES = "x [m]"  
"Vel_axial" 
"MF_sp(ECDMC)" 
"MF_sp(Li+)" 
"MF_sp(PF6-)" 
"Volt(Electroly)" 
"Volt(AnodeVolt)" 
"Potential Drop Electrode-Electrolyte [V]" 
"Surf_0 Equilibrium Potential Drop Electrode-Electrolyte [V]" 
"Overpotential_0 [V]" 
"Current Source [A/m^2]" 
"Li+ flux [kmol/m^2/s]" 
"Electrolyte Current [A/m^2]" 
"Electrode Current [A/m^2]" 
"CV Capacity discharged [A-s/m^2]" 
"Depth of discharge in CV [A-s/m^2]" 
"CV Capacity remaining [A-s/m^2]" 
"Initial CV capacity [A-s/m^2]" 
"Porosity []" 
"Surface Area [m2/m2] (area per area)" 
"Specific current (per particle area) [A/m^2]" 
"Control volume thickness [m]" 
"MoleDens Li_C6-bulk [kmol/m^3]" 
"MoleDens V_C6-bulk [kmol/m^3]" 
"qHeat_accum [J/m3]" 
"qHeat_step [W/m3]" 
"Joule_Lyte [W/m3]" 
"Joule_Solid [W/m3]" 
"electrodHeat [W/m3]" 
"OverpotHeat [W/m3]" 
"deltaSHeat [W/m3]" 

ZONE T = "ANOD, 0.0000E+00", I = 10, SOLUTIONTIME = 0.000000E+00
ZONETYPE = ORDERED
DATAPACKING = BLOCK
STRANDID = 1
 0.0000000000000E+00  8.7488888888889E-05  1.7497777777778E-04  2.6246666666667E-04  3.4995555555556E-04  4.3744444444444E-04  5.2493333333333E-04  6.1242222222222E-04  6.9991111111111E-04  7.8740000000000E-04 
 0.0000000000000E+00  0.0000000000000E+00  0.0000000000000E+00  0.0000000000000E+00  0.0000000000000E+00  0.0000000000000E+00  0.0000000000000E+00  0.0000000000000E+00  0.0000000000000E+00  0.0000000000000E+00 
 9.2000000000000E-01  9.2000000000000E-01  9.2000000000000E-01  9.2000000000000E-01  9.2000000000000E-01  9.2000000000000E-01  9.2000000000000E-01  9.2000000000000E-01  9.2000000000000E-01  9.2000000000000E-01 
 4.0000000000000E-02  4.0000000000000E-02  4.0000000000000E-02  4.0000000000000E-02  4.0000000000000E-02  4.0000000000000E-02  4.0000000000000E-02  4.0000000000000E-02  4.0000000000000E-02  4.0000000000000E-02 
 4.0000000000000E-02  4.0000000000000E-02  4.0000000000000E-02  4.0000000000000E-02  4.0000000000000E-02  4.0000000000000E-02  4.0000000000000E-02  4.0000000000000E-02  4.0000000000000E-02  4.0000000000000E-02 
-7.0000000000000E-02 -7.0000000000000E-02 -7.0000000000000E-02 -7.0000000000000E-02 -7.0000000000000E-02 -7.0000000000000E-02 -7.0000000000000E-02 -7.0000000000000E-02 -7.0000000000000E-02 -7.0000000000000E-02 
 0.0000000000000E+00  0.0000000000000E+00  0.0000000000000E+00  0.0000000000000E+00  0.0000000000000E+00  0.0000000000000E+00  0.0000000000000E+00  0.0000000000000E+00  0.0000000000000E+00  0.0000000000000E+00 
 7.0000000000000E-02  7.0000000000000E-02  7.0000000000000E-02  7.0000000000000E-02  7.0000000000000E-02  7.0000000000000E-02  7.0000000000000E-02  7.0000000000000E-02  7.0000000000000E-02  7.0000000000000E-02 
-4.0906712753391E-02 -4.0906712753391E-02 -4.0906712753391E-02 -4.0906712753391E-02 -4.0906712753391E-02 -4.0906712753391E-02 -4.0906712753391E-02 -4.0906712753391E-02 -4.0906712753391E-02 -4.0906712753391E-02 
 1.1090671275339E-01  1.1090671275339E-01  1.1090671275339E-01  1.1090671275339E-01  1.1090671275339E-01  1.1090671275339E-01  1.1090671275339E-01  1.1090671275339E-01  1.1090671275339E-01  1.1090671275339E-01 
 3.0930240924008E+01  6.1860481848017E+01  6.1860481848017E+01  6.1860481848017E+01  6.1860481848017E+01  6.1860481848017E+01  6.1860481848017E+01  6.1860481848017E+01  6.1860481848017E+01  3.0930240924008E+01 
-0.0000000000000E+00 -0.0000000000000E+00 -0.0000000000000E+00 -0.0000000000000E+00 -0.0000000000000E+00 -0.0000000000000E+00 -0.0000000000000E+00 -0.0000000000000E+00 -0.0000000000000E+00 -0.0000000000000E+00 
 0.0000000000000E+00  0.0000000000000E+00  0.0000000000000E+00  0.0000000000000E+00  0.0000000000000E+00  0.0000000000000E+00  0.0000000000000E+00  0.0000000000000E+00  0.0000000000000E+00  3.0930240924008E+01 
 3.0930240924008E+01 -0.0000000000000E+00 -0.0000000000000E+00 -0.0000000000000E+00 -0.0000000000000E+00 -0.0000000000000E+00 -0.0000000000000E+00 -0.0000000000000E+00 -0.0000000000000E+00  0.0000000000000E+00 
 0.0000000000000E+00  0.0000000000000E+00  0.0000000000000E+00  0.0000000000000E+00  0.0000000000000E+00  0.0000000000000E+00  0.0000000000000E+00  0.0000000000000E+00  0.0000000000000E+00  0.0000000000000E+00 
 4.5724222271641E+04  9.1448444543281E+04  9.1448444543281E+04  9.1448444543281E+04  9.1448444543281E+04  9.1448444543281E+04  9.1448444543281E+04  9.1448444543281E+04  9.1448444543281E+04  4.5724222271641E+04 
 3.3835924481014E+05  6.7671848962028E+05  6.7671848962028E+05  6.7671848962028E+05  6.7671848962028E+05  6.7671848962028E+05  6.7671848962028E+05  6.7671848962028E+05  6.7671848962028E+05  3.3835924481014E+05 
 3.8408346708178E+05  7.6816693416356E+05  7.6816693416356E+05  7.6816693416356E+05  7.6816693416356E+05  7.6816693416356E+05  7.6816693416356E+05  7.6816693416356E+05  7.6816693416356E+05  3.8408346708178E+05 
 3.5000000000000E-01  3.5000000000000E-01  3.5000000000000E-01  3.5000000000000E-01  3.5000000000000E-01  3.5000000000000E-01  3.5000000000000E-01  3.5000000000000E-01  3.5000000000000E-01  3.5000000000000E-01 
 8.5301666666667E+00  1.7060333333333E+01  1.7060333333333E+01  1.7060333333333E+01  1.7060333333333E+01  1.7060333333333E+01  1.7060333333333E+01  1.7060333333333E+01  1.7060333333333E+01  8.5301666666667E+00 
 3.6259831879809E+00  3.6259831879809E+00  3.6259831879809E+00  3.6259831879809E+00  3.6259831879809E+00  3.6259831879809E+00  3.6259831879809E+00  3.6259831879809E+00  3.6259831879809E+00  3.6259831879809E+00 
 4.3744444444444E-05  8.7488888888889E-05  8.7488888888889E-05  8.7488888888889E-05  8.7488888888889E-05  8.7488888888889E-05  8.7488888888889E-05  8.7488888888889E-05  8.7488888888889E-05  4.3744444444444E-05 
 8.6666666666667E+01  8.6666666666667E+01  8.6666666666667E+01  8.6666666666667E+01  8.6666666666667E+01  8.6666666666667E+01  8.6666666666667E+01  8.6666666666667E+01  8.6666666666667E+01  8.6666666666667E+01 
 2.1666666666667E+01  2.1666666666667E+01  2.1666666666667E+01  2.1666666666667E+01  2.1666666666667E+01  2.1666666666667E+01  2.1666666666667E+01  2.1666666666667E+01  2.1666666666667E+01  2.1666666666667E+01 
 0.0000000000000E+00  0.0000000000000E+00  0.0000000000000E+00  0.0000000000000E+00  0.0000000000000E+00  0.0000000000000E+00  0.0000000000000E+00  0.0000000000000E+00  0.0000000000000E+00  0.0000000000000E+00 
 0.0000000000000E+00  0.0000000000000E+00  0.0000000000000E+00  0.0000000000000E+00  0.0000000000000E+00  0.0000000000000E+00  0.0000000000000E+00  0.0000000000000E+00  0.0000000000000E+00  0.0000000000000E+00 
 0.0000000000000E+00  0.0000000000000E+00  0.0000000000000E+00  0.0000000000000E+00  0.0000000000000E+00  0.0000000000000E+00  0.0000000000000E+00  0.0000000000000E+00  0.0000000000000E+00  0.0000000000000E+00 
 0.0000000000000E+00  0.0000000000000E+00  0.0000000000000E+00  0.0000000000000E+00  0.0000000000000E+00  0.0000000000000E+00  0.0000000000000E+00  0.0000000000000E+00  0.0000000000000E+00  0.0000000000000E+00 
 0.0000000000000E+00  0.0000000000000E+00  0.0000000000000E+00  0.0000000000000E+00  0.0000000000000E+00  0.0000000000000E+00  0.0000000000000E+00  0.0000000000000E+00  0.0000000000000E+00  0.0000000000000E+00 
 0.0000000000000E+00  0.0000000000000E+00  0.0000000000000E+00  0.0000000000000E+00  0.0000000000000E+00  0.0000000000000E+00  0.0000000000000E+00  0.0000000000000E+00  0.0000000000000E+00  0.0000000000000E+00 
 0.0000000000000E+00  0.0000000000000E+00  0.0000000000000E+00  0.0000000000000E+00  0.0000000000000E+00  0.0000000000000E+00  0.0000000000000E+00  0.0000000000000E+00  0.0000000000000E+00  0.0000000000000E+00 
ZONE T = "ANOD, 1.0000E-08", I = 10, SOLUTIONTIME = 1.000000E-08
ZONETYPE = ORDERED
DATAPACKING = BLOCK
STRANDID = 1
 0.0000000000000E+00  8.7488888888889E-05  1.7497777777778E-04  2.6246666666667E-04  3.4995555555556E-04  4.3744444444444E-04  5.2493333333333E-04  6.1242222222222E-04  6.9991111111111E-04  7.8740000000000E-04 
 1.1589917711728E-09  3.4769775211640E-09  5.7949719095067E-09  8.1129813666595E-09  1.0431012322913E-08  1.2749071209344E-08  1.5067164456153E-08  1.7385298494620E-08  1.9703479755419E-08  2.0863323628201E-08 
 9.1999999999930E-01  9.1999999999930E-01  9.1999999999930E-01  9.1999999999930E-01  9.1999999999930E-01  9.1999999999930E-01  9.1999999999930E-01  9.1999999999930E-01  9.1999999999930E-01  9.1999999999971E-01 
 4.0000000000348E-02  4.0000000000348E-02  4.0000000000348E-02  4.0000000000348E-02  4.0000000000348E-02  4.0000000000348E-02  4.0000000000348E-02  4.0000000000348E-02  4.0000000000348E-02  4.0000000000144E-02 
 4.0000000000348E-02  4.0000000000348E-02  4.0000000000348E-02  4.0000000000348E-02  4.0000000000348E-02  4.0000000000348E-02  4.0000000000348E-02  4.0000000000348E-02  4.0000000000348E-02  4.0000000000144E-02 
 2.9167371469902E-02  2.9167355742790E-02  2.9167308561429E-02  2.9167229925726E-02  2.9167119835440E-02  2.9166978290303E-02  2.9166805289919E-02  2.9166600833848E-02  2.9166364921501E-02  2.9166097552261E-02 
 0.0000000000000E+00 -4.7371275802468E-09 -8.9169665840722E-09 -1.2539514934650E-08 -1.5604769009147E-08 -1.8112723638764E-08 -2.0063372108546E-08 -2.1456706157595E-08 -2.2292715978807E-08 -2.2571390219022E-08 
-2.9167371469902E-02 -2.9167360479918E-02 -2.9167317478396E-02 -2.9167242465240E-02 -2.9167135440209E-02 -2.9166996403026E-02 -2.9166825353291E-02 -2.9166622290555E-02 -2.9166387214217E-02 -2.9166120123651E-02 
-4.0906712753087E-02 -4.0906712753087E-02 -4.0906712753087E-02 -4.0906712753087E-02 -4.0906712753090E-02 -4.0906712753090E-02 -4.0906712753090E-02 -4.0906712753090E-02 -4.0906712753090E-02 -4.0906712753221E-02 
 1.1739341283185E-02  1.1739352273169E-02  1.1739395274691E-02  1.1739470287846E-02  1.1739577312882E-02  1.1739716350064E-02  1.1739887399799E-02  1.1740090462536E-02  1.1740325538874E-02  1.1740592629570E-02 
 1.6690490558987E+00  3.3381012909947E+00  3.3381137305334E+00  3.3381354304466E+00  3.3381663908146E+00  3.3382066117280E+00  3.3382560933206E+00  3.3383148357434E+00  3.3383828391942E+00  1.6692300519415E+00 
 8.6491946129278E-09  2.5947597920622E-08  4.3246053005867E-08  6.0544639496974E-08  7.7843374033760E-08  9.5142325829792E-08  1.1244152006178E-07  1.2974103866625E-07  1.4704096768232E-07  1.4704096768232E-07 
 0.0000000000000E+00  3.3380831680214E+00  6.6761726907258E+00  1.0014279887726E+01  1.3352414047853E+01  1.6690583454398E+01  2.0028797214855E+01  2.3367065663730E+01  2.6705398050239E+01  3.0043810615766E+01 
 3.0043810257367E+01  2.6705719149255E+01  2.3367628824873E+01  2.0029521430392E+01  1.6691387705558E+01  1.3353218389675E+01  1.0015004222111E+01  6.6767359420911E+00  3.3384042884933E+00  0.0000000000000E+00 
 1.6690490558987E-08  3.3381012909947E-08  3.3381137305334E-08  3.3381354304466E-08  3.3381663908146E-08  3.3382066117280E-08  3.3382560933206E-08  3.3383148357434E-08  3.3383828391942E-08  1.6692300519415E-08 
 4.5724222271657E+04  9.1448444543315E+04  9.1448444543315E+04  9.1448444543315E+04  9.1448444543315E+04  9.1448444543315E+04  9.1448444543315E+04  9.1448444543315E+04  9.1448444543315E+04  4.5724222271657E+04 
 3.3835924481012E+05  6.7671848962025E+05  6.7671848962025E+05  6.7671848962025E+05  6.7671848962025E+05  6.7671848962025E+05  6.7671848962025E+05  6.7671848962025E+05  6.7671848962025E+05  3.3835924481012E+05 
 3.8408346708178E+05  7.6816693416356E+05  7.6816693416356E+05  7.6816693416356E+05  7.6816693416356E+05  7.6816693416356E+05  7.6816693416356E+05  7.6816693416356E+05  7.6816693416356E+05  3.8408346708178E+05 
 3.5000000000000E-01  3.5000000000000E-01  3.5000000000000E-01  3.5000000000000E-01  3.5000000000000E-01  3.5000000000000E-01  3.5000000000000E-01  3.5000000000000E-01  3.5000000000000E-01  3.5000000000000E-01 
 8.5301666666667E+00  1.7060333333333E+01  1.7060333333333E+01  1.7060333333333E+01  1.7060333333333E+01  1.7060333333333E+01  1.7060333333333E+01  1.7060333333333E+01  1.7060333333333E+01  8.5301666666667E+00 
 1.9566429603549E-01  1.9566448238573E-01  1.9566521153554E-01  1.9566648348684E-01  1.9566829824434E-01  1.9567065581337E-01  1.9567355620175E-01  1.9567699941834E-01  1.9568098547474E-01  1.9568551438324E-01 
 4.3744444444444E-05  8.7488888888889E-05  8.7488888888889E-05  8.7488888888889E-05  8.7488888888889E-05  8.7488888888889E-05  8.7488888888889E-05  8.7488888888889E-05  8.7488888888889E-05  4.3744444444444E-05 
 8.6666666666663E+01  8.6666666666663E+01  8.6666666666663E+01  8.6666666666663E+01  8.6666666666663E+01  8.6666666666663E+01  8.6666666666663E+01  8.6666666666663E+01  8.6666666666663E+01  8.6666666666663E+01 
 2.1666666666671E+01  2.1666666666671E+01  2.1666666666671E+01  2.1666666666671E+01  2.1666666666671E+01  2.1666666666671E+01  2.1666666666671E+01  2.1666666666671E+01  2.1666666666671E+01  2.1666666666671E+01 
 1.8363938394916E-11  2.8664001416152E-11  6.1478016549357E-11  1.1872011013073E-10  2.0039090935564E-10  3.0649131725603E-10  4.3702248187794E-10  5.9198591468580E-10  7.7138332342317E-10  8.6719071382969E-10 
 1.8363938394916E-03  2.8664001416152E-03  6.1478016549357E-03  1.1872011013073E-02  2.0039090935564E-02  3.0649131725603E-02  4.3702248187794E-02  5.9198591468580E-02  7.7138332342317E-02  8.6719071382969E-02 
 3.0002887272301E-04  1.5001458299940E-03  5.1005061699044E-03  1.1101149473948E-02  1.9502138399150E-02  3.0303562714314E-02  4.3505536217716E-02  5.9108208577523E-02  7.7111748617851E-02  8.6713754490410E-02 
 1.5363649667685E-03  1.3662543116212E-03  1.0472954850313E-03  7.7086153912573E-04  5.3695253641366E-04  3.4556901128926E-04  1.9671197007784E-04  9.0382891057336E-05  2.6583724465871E-05  5.3168925588369E-06 
 0.0000000000000E+00  0.0000000000000E+00  0.0000000000000E+00  0.0000000000000E+00  0.0000000000000E+00  0.0000000000000E+00  0.0000000000000E+00  0.0000000000000E+00  0.0000000000000E+00  0.0000000000000E+00 
 0.0000000000000E+00  0.0000000000000E+00  0.0000000000000E+00  0.0000000000000E+00  0.0000000000000E+00  0.0000000000000E+00  0.0000000000000E+00  0.0000000000000E+00  0.0000000000000E+00  0.0000000000000E+00 
 0.0000000000000E+00  0.0000000000000E+00  0.0000000000000E+00  0.0000000000000E+00  0.0000000000000E+00  0.0000000000000E+00  0.0000000000000E+00  0.0000000000000E+00  0.0000000000000E+00  0.0000000000000E+00 
ZONE T = "ANOD, 2.0000E-08", I = 10, SOLUTIONTIME = 2.000000E-08
ZONETYPE = ORDERED
DATAPACKING = BLOCK
STRANDID = 1
 0.0000000000000E+00  8.7488888888889E-05  1.7497777777778E-04  2.6246666666667E-04  3.4995555555556E-04  4.3744444444444E-04  5.2493333333333E-04  6.1242222222222E-04  6.9991111111111E-04  7.8740000000000E-04 
 1.1589975178151E-09  3.4769947611091E-09  5.7950006425350E-09  8.1130215925884E-09  1.0430700834085E-08  1.2748044797638E-08  1.5065423121676E-08  1.7383205444739E-08  1.9701034990040E-08  2.0860884608686E-08 
 9.1999999999861E-01  9.1999999999861E-01  9.1999999999861E-01  9.1999999999861E-01  9.1999999999861E-01  9.1999999999861E-01  9.1999999999861E-01  9.1999999999861E-01  9.1999999999861E-01  9.1999999999942E-01 
 4.0000000000696E-02  4.0000000000696E-02  4.0000000000696E-02  4.0000000000696E-02  4.0000000000696E-02  4.0000000000696E-02  4.0000000000696E-02  4.0000000000696E-02  4.0000000000696E-02  4.0000000000288E-02 
 4.0000000000696E-02  4.0000000000696E-02  4.0000000000696E-02  4.0000000000696E-02  4.0000000000696E-02  4.0000000000696E-02  4.0000000000696E-02  4.0000000000696E-02  4.0000000000696E-02  4.0000000000288E-02 
 2.9167373665846E-02  2.9167357938661E-02  2.9167310757075E-02  2.9167232120970E-02  2.9167122030143E-02  2.9166980484301E-02  2.9166807483066E-02  2.9166603025971E-02  2.9166367112463E-02  2.9166099741901E-02 
 0.0000000000000E+00 -4.7371510663109E-09 -8.9170107929888E-09 -1.2539577103260E-08 -1.5604846374335E-08 -1.8112813437397E-08 -2.0063471577587E-08 -2.1456812533980E-08 -2.2292826499559E-08 -2.2571502121187E-08 
-2.9167373665846E-02 -2.9167362675812E-02 -2.9167319674085E-02 -2.9167244660547E-02 -2.9167137634989E-02 -2.9166998597114E-02 -2.9166827546537E-02 -2.9166624482784E-02 -2.9166389405290E-02 -2.9166122313403E-02 
-4.0906712752791E-02 -4.0906712752791E-02 -4.0906712752791E-02 -4.0906712752791E-02 -4.0906712752790E-02 -4.0906712752790E-02 -4.0906712752790E-02 -4.0906712752790E-02 -4.0906712752790E-02 -4.0906712753053E-02 
 1.1739339086945E-02  1.1739350076979E-02  1.1739393078706E-02  1.1739468092244E-02  1.1739575117801E-02  1.1739714155676E-02  1.1739885206253E-02  1.1740088270007E-02  1.1740323347501E-02  1.1740590439649E-02 
 1.6690487382417E+00  3.3381006556951E+00  3.3381130952931E+00  3.3381347953169E+00  3.3381657558357E+00  3.3382059769489E+00  3.3382554587847E+00  3.3383142015012E+00  3.3383822052858E+00  1.6692297351926E+00 
 8.6492352103210E-09  2.5947722095940E-08  4.3246273451378E-08  6.0544937254755E-08  7.7843761502781E-08  9.5142794181021E-08  1.1244208328270E-07  1.2974167679688E-07  1.4704176695242E-07  1.4704176695242E-07 
 0.0000000000000E+00  3.3380990661720E+00  6.6762059415825E+00  1.0014329886896E+01  1.3352480162409E+01  1.6690666028786E+01  2.0028896746876E+01  2.3367181576975E+01  2.6705529780226E+01  3.0043950618059E+01 
 3.0043950618096E+01  2.6705851552006E+01  2.3367744676512E+01  2.0029620731207E+01  1.6691470455631E+01  1.3353284589239E+01  1.0015053871372E+01  6.6767690412290E+00  3.3384208378355E+00  0.0000000000000E+00 
 3.3380977941404E-08  6.6762019466898E-08  6.6762268258265E-08  6.6762702257635E-08  6.6763321466503E-08  6.6764125886769E-08  6.6765115521053E-08  6.6766290372446E-08  6.6767650444800E-08  3.3384597871341E-08 
 4.5724222271674E+04  9.1448444543348E+04  9.1448444543348E+04  9.1448444543348E+04  9.1448444543348E+04  9.1448444543348E+04  9.1448444543348E+04  9.1448444543348E+04  9.1448444543348E+04  4.5724222271674E+04 
 3.3835924481011E+05  6.7671848962021E+05  6.7671848962021E+05  6.7671848962021E+05  6.7671848962021E+05  6.7671848962021E+05  6.7671848962021E+05  6.7671848962021E+05  6.7671848962021E+05  3.3835924481011E+05 
 3.8408346708178E+05  7.6816693416356E+05  7.6816693416356E+05  7.6816693416356E+05  7.6816693416356E+05  7.6816693416356E+05  7.6816693416356E+05  7.6816693416356E+05  7.6816693416356E+05  3.8408346708178E+05 
 3.5000000000000E-01  3.5000000000000E-01  3.5000000000000E-01  3.5000000000000E-01  3.5000000000000E-01  3.5000000000000E-01  3.5000000000000E-01  3.5000000000000E-01  3.5000000000000E-01  3.5000000000000E-01 
 8.5301666666667E+00  1.7060333333333E+01  1.7060333333333E+01  1.7060333333333E+01  1.7060333333333E+01  1.7060333333333E+01  1.7060333333333E+01  1.7060333333333E+01  1.7060333333333E+01  8.5301666666667E+00 
 1.9566425879624E-01  1.9566444514733E-01  1.9566517430061E-01  1.9566644625839E-01  1.9566826102474E-01  1.9567061860547E-01  1.9567351900811E-01  1.9567696224192E-01  1.9568094831788E-01  1.9568547725046E-01 
 4.3744444444444E-05  8.7488888888889E-05  8.7488888888889E-05  8.7488888888889E-05  8.7488888888889E-05  8.7488888888889E-05  8.7488888888889E-05  8.7488888888889E-05  8.7488888888889E-05  4.3744444444444E-05 
 8.6666666666659E+01  8.6666666666659E+01  8.6666666666659E+01  8.6666666666659E+01  8.6666666666659E+01  8.6666666666659E+01  8.6666666666659E+01  8.6666666666659E+01  8.6666666666659E+01  8.6666666666659E+01 
 2.1666666666675E+01  2.1666666666675E+01  2.1666666666675E+01  2.1666666666675E+01  2.1666666666675E+01  2.1666666666675E+01  2.1666666666675E+01  2.1666666666675E+01  2.1666666666675E+01  2.1666666666675E+01 
 3.6728057297587E-11  5.7328281613354E-11  1.2295664851798E-10  2.3744140207056E-10  4.0078380466090E-10  6.1298566560505E-10  8.7404931032314E-10  1.1839776987308E-09  1.5427742581713E-09  1.7343900046047E-09 
 1.8364118902672E-03  2.8664280197203E-03  6.1478631968620E-03  1.1872129193983E-02  2.0039289530526E-02  3.0649434834902E-02  4.3702682844521E-02  5.9199178404501E-02  7.7139093474814E-02  8.6719929077502E-02 
 6.0006056198744E-04  3.0003059907068E-03  1.0201063497177E-02  2.2202409485346E-02  3.9004470069198E-02  6.0607425111547E-02  8.7011505141756E-02  1.1821700319484E-01  1.5422425810463E-01  1.7342836662264E-01 
 3.0727451677713E-03  2.7325221706286E-03  2.0946013546209E-03  1.5417307217100E-03  1.0739103968915E-03  6.9114144895757E-04  3.9342589055839E-04  1.8076667824418E-04  5.3167712499165E-05  1.0633837830420E-05 
 0.0000000000000E+00  0.0000000000000E+00  0.0000000000000E+00  0.0000000000000E+00  0.0000000000000E+00  0.0000000000000E+00  0.0000000000000E+00  0.0000000000000E+00  0.0000000000000E+00  0.0000000000000E+00 
 0.0000000000000E+00  0.0000000000000E+00  0.0000000000000E+00  0.0000000000000E+00  0.0000000000000E+00  0.0000000000000E+00  0.0000000000000E+00  0.0000000000000E+00  0.0000000000000E+00  0.0000000000000E+00 
 0.0000000000000E+00  0.0000000000000E+00  0.0000000000000E+00  0.0000000000000E+00  0.0000000000000E+00  0.0000000000000E+00  0.0000000000000E+00  0.0000000000000E+00  0.0000000000000E+00  0.0000000000000E+00 
ZONE T = "ANOD, 3.0000E-08", I = 10, SOLUTIONTIME = 3.000000E-08
ZONETYPE = ORDERED
DATAPACKING = BLOCK
STRANDID = 1
 0.0000000000000E+00  8.7488888888889E-05  1.7497777777778E-04  2.6246666666667E-04  3.4995555555556E-04  4.3744444444444E-04  5.2493333333333E-04  6.1242222222222E-04  6.9991111111111E-04  7.8740000000000E-04 
 1.1589975177982E-09  3.4769947610584E-09  5.7950006424504E-09  8.1130215924700E-09  1.0431427249389E-08  1.2750224043819E-08  1.5069055198735E-08  1.7387563937219E-08  1.9706119897943E-08  2.0864516685671E-08 
 9.1999999999791E-01  9.1999999999791E-01  9.1999999999791E-01  9.1999999999791E-01  9.1999999999791E-01  9.1999999999791E-01  9.1999999999791E-01  9.1999999999791E-01  9.1999999999791E-01  9.1999999999914E-01 
 4.0000000001045E-02  4.0000000001045E-02  4.0000000001045E-02  4.0000000001045E-02  4.0000000001045E-02  4.0000000001045E-02  4.0000000001045E-02  4.0000000001045E-02  4.0000000001045E-02  4.0000000000432E-02 
 4.0000000001045E-02  4.0000000001045E-02  4.0000000001045E-02  4.0000000001045E-02  4.0000000001045E-02  4.0000000001045E-02  4.0000000001045E-02  4.0000000001045E-02  4.0000000001045E-02  4.0000000000432E-02 
 2.9167373665775E-02  2.9167357938590E-02  2.9167310757003E-02  2.9167232120899E-02  2.9167122030071E-02  2.9166980484230E-02  2.9166807482995E-02  2.9166603025900E-02  2.9166367112392E-02  2.9166099741830E-02 
 0.0000000000000E+00 -4.7371510662445E-09 -8.9170107928641E-09 -1.2539577103085E-08 -1.5604846374118E-08 -1.8112813437146E-08 -2.0063471577310E-08 -2.1456812533686E-08 -2.2292826499256E-08 -2.2571502120881E-08 
-2.9167373665775E-02 -2.9167362675741E-02 -2.9167319674014E-02 -2.9167244660476E-02 -2.9167137634918E-02 -2.9166998597043E-02 -2.9166827546466E-02 -2.9166624482712E-02 -2.9166389405218E-02 -2.9166122313332E-02 
-4.0906712752491E-02 -4.0906712752491E-02 -4.0906712752491E-02 -4.0906712752491E-02 -4.0906712752491E-02 -4.0906712752491E-02 -4.0906712752491E-02 -4.0906712752491E-02 -4.0906712752491E-02 -4.0906712752884E-02 
 1.1739339086716E-02  1.1739350076750E-02  1.1739393078477E-02  1.1739468092015E-02  1.1739575117573E-02  1.1739714155448E-02  1.1739885206025E-02  1.1740088269779E-02  1.1740323347272E-02  1.1740590439552E-02 
 1.6690487382174E+00  3.3381006556464E+00  3.3381130952443E+00  3.3381347952682E+00  3.3381657557873E+00  3.3382059769005E+00  3.3382554587363E+00  3.3383142014527E+00  3.3383822052374E+00  1.6692297351831E+00 
 8.6492352084883E-09  2.5947722096166E-08  4.3246273449847E-08  6.0544937251119E-08  7.7843761503459E-08  9.5142794177686E-08  1.1244208327986E-07  1.2974167679262E-07  1.4704183907024E-07  1.4704183907024E-07 
 0.0000000000000E+00  3.3380990660169E+00  6.6762059414565E+00  1.0014329886615E+01  1.3352480162341E+01  1.6690666028748E+01  2.0028896746498E+01  2.3367181576442E+01  2.6705529779870E+01  3.0043950617856E+01 
 3.0043950617674E+01  2.6705851551633E+01  2.3367744676188E+01  2.0029620730931E+01  1.6691470455404E+01  1.3353284589060E+01  1.0015053871241E+01  6.6767690411469E+00  3.3384208378019E+00  0.0000000000000E+00 
 5.0071465323578E-08  1.0014302602336E-07  1.0014339921071E-07  1.0014405021032E-07  1.0014497902438E-07  1.0014618565577E-07  1.0014767010842E-07  1.0014943238697E-07  1.0015147249717E-07  5.0076895223172E-08 
 4.5724222271691E+04  9.1448444543381E+04  9.1448444543381E+04  9.1448444543381E+04  9.1448444543381E+04  9.1448444543381E+04  9.1448444543381E+04  9.1448444543381E+04  9.1448444543381E+04  4.5724222271691E+04 
 3.3835924481009E+05  6.7671848962018E+05  6.7671848962018E+05  6.7671848962018E+05  6.7671848962018E+05  6.7671848962018E+05  6.7671848962018E+05  6.7671848962018E+05  6.7671848962018E+05  3.3835924481009E+05 
 3.8408346708178E+05  7.6816693416356E+05  7.6816693416356E+05  7.6816693416356E+05  7.6816693416356E+05  7.6816693416356E+05  7.6816693416356E+05  7.6816693416356E+05  7.6816693416356E+05  3.8408346708178E+05 
 3.5000000000000E-01  3.5000000000000E-01  3.5000000000000E-01  3.5000000000000E-01  3.5000000000000E-01  3.5000000000000E-01  3.5000000000000E-01  3.5000000000000E-01  3.5000000000000E-01  3.5000000000000E-01 
 8.5301666666667E+00  1.7060333333333E+01  1.7060333333333E+01  1.7060333333333E+01  1.7060333333333E+01  1.7060333333333E+01  1.7060333333333E+01  1.7060333333333E+01  1.7060333333333E+01  8.5301666666667E+00 
 1.9566425879338E-01  1.9566444514447E-01  1.9566517429775E-01  1.9566644625554E-01  1.9566826102190E-01  1.9567061860264E-01  1.9567351900527E-01  1.9567696223907E-01  1.9568094831504E-01  1.9568547724935E-01 
 4.3744444444444E-05  8.7488888888889E-05  8.7488888888889E-05  8.7488888888889E-05  8.7488888888889E-05  8.7488888888889E-05  8.7488888888889E-05  8.7488888888889E-05  8.7488888888889E-05  4.3744444444444E-05 
 8.6666666666655E+01  8.6666666666655E+01  8.6666666666655E+01  8.6666666666655E+01  8.6666666666655E+01  8.6666666666655E+01  8.6666666666655E+01  8.6666666666655E+01  8.6666666666655E+01  8.6666666666655E+01 
 2.1666666666679E+01  2.1666666666679E+01  2.1666666666679E+01  2.1666666666679E+01  2.1666666666679E+01  2.1666666666679E+01  2.1666666666679E+01  2.1666666666679E+01  2.1666666666679E+01  2.1666666666679E+01 
 5.5092176198531E-11  8.5992561809644E-11  1.8443528048344E-10  3.5616269400320E-10  6.0117669996308E-10  9.1948001394933E-10  1.3110761387476E-09  1.7759694827439E-09  2.3141651928939E-09  2.6015892953625E-09 
 1.8364118900943E-03  2.8664280196289E-03  6.1478631965464E-03  1.1872129193264E-02  2.0039289530218E-02  3.0649434834428E-02  4.3702682842445E-02  5.9199178401306E-02  7.7139093472263E-02  8.6719929075785E-02 
 9.0009225112210E-04  4.5004661513665E-03  1.5301620824163E-02  3.3303669496047E-02  5.8506801738953E-02  9.0911287508317E-02  1.3051747406373E-01  1.7732579780896E-01  2.3133676758886E-01  2.6014297875315E-01 
 4.6091253687310E-03  4.0987900295978E-03  3.1419072241814E-03  2.3125999042730E-03  1.6108682573547E-03  1.0367138866166E-03  5.9013981103379E-04  2.7115046542878E-04  7.9751700531877E-05  1.5950783101942E-05 
 0.0000000000000E+00  0.0000000000000E+00  0.0000000000000E+00  0.0000000000000E+00  0.0000000000000E+00  0.0000000000000E+00  0.0000000000000E+00  0.0000000000000E+00  0.0000000000000E+00  0.0000000000000E+00 
 0.0000000000000E+00  0.0000000000000E+00  0.0000000000000E+00  0.0000000000000E+00  0.0000000000000E+00  0.0000000000000E+00  0.0000000000000E+00  0.0000000000000E+00  0.0000000000000E+00  0.0000000000000E+00 
 0.0000000000000E+00  0.0000000000000E+00  0.0000000000000E+00  0.0000000000000E+00  0.0000000000000E+00  0.0000000000000E+00  0.0000000000000E+00  0.0000000000000E+00  0.0000000000000E+00  0.0000000000000E+00 
ZONE T = "ANOD, 4.0000E-08", I = 10, SOLUTIONTIME = 4.000000E-08
ZONETYPE = ORDERED
DATAPACKING = BLOCK
STRANDID = 1
 0.0000000000000E+00  8.7488888888889E-05  1.7497777777778E-04  2.6246666666667E-04  3.4995555555556E-04  4.3744444444444E-04  5.2493333333333E-04  6.1242222222222E-04  6.9991111111111E-04  7.8740000000000E-04 
 1.1584527061897E-09  3.4764499494162E-09  5.7944558307746E-09  8.1124767807605E-09  1.0429429606734E-08  1.2746410362492E-08  1.5064515101918E-08  1.7382660632641E-08  1.9700853385603E-08  2.0859976588780E-08 
 9.1999999999721E-01  9.1999999999721E-01  9.1999999999721E-01  9.1999999999721E-01  9.1999999999721E-01  9.1999999999721E-01  9.1999999999721E-01  9.1999999999721E-01  9.1999999999721E-01  9.1999999999885E-01 
 4.0000000001393E-02  4.0000000001393E-02  4.0000000001393E-02  4.0000000001393E-02  4.0000000001393E-02  4.0000000001393E-02  4.0000000001393E-02  4.0000000001393E-02  4.0000000001393E-02  4.0000000000576E-02 
 4.0000000001393E-02  4.0000000001393E-02  4.0000000001393E-02  4.0000000001393E-02  4.0000000001393E-02  4.0000000001393E-02  4.0000000001393E-02  4.0000000001393E-02  4.0000000001393E-02  4.0000000000576E-02 
 2.9167373665701E-02  2.9167357938516E-02  2.9167310756929E-02  2.9167232120825E-02  2.9167122029997E-02  2.9166980484156E-02  2.9166807482921E-02  2.9166603025826E-02  2.9166367112318E-02  2.9166099741756E-02 
 0.0000000000000E+00 -4.7371510661779E-09 -8.9170107927389E-09 -1.2539577102909E-08 -1.5604846373900E-08 -1.8112813436894E-08 -2.0063471577032E-08 -2.1456812533389E-08 -2.2292826498950E-08 -2.2571502120574E-08 
-2.9167373665701E-02 -2.9167362675667E-02 -2.9167319673940E-02 -2.9167244660402E-02 -2.9167137634844E-02 -2.9166998596969E-02 -2.9166827546392E-02 -2.9166624482638E-02 -2.9166389405144E-02 -2.9166122313258E-02 
-4.0906712752189E-02 -4.0906712752189E-02 -4.0906712752189E-02 -4.0906712752189E-02 -4.0906712752188E-02 -4.0906712752187E-02 -4.0906712752187E-02 -4.0906712752187E-02 -4.0906712752187E-02 -4.0906712752712E-02 
 1.1739339086488E-02  1.1739350076522E-02  1.1739393078249E-02  1.1739468091787E-02  1.1739575117344E-02  1.1739714155218E-02  1.1739885205795E-02  1.1740088269549E-02  1.1740323347043E-02  1.1740590439454E-02 
 1.6690487381932E+00  3.3381006555979E+00  3.3381130951959E+00  3.3381347952197E+00  3.3381657557385E+00  3.3382059768517E+00  3.3382554586875E+00  3.3383142014039E+00  3.3383822051886E+00  1.6692297351735E+00 