TITLE = "Solution on Domain BulkDomain1D_0"
VARIABLES = "x [m]"  
"Vel_axial" 
"MF_sp(ECDMC)" 
"MF_sp(Li+)" 
"MF_sp(PF6-)" 
"Volt(Electroly)" 
"Volt(AnodeVolt)" 
"Potential Drop Electrode-Electrolyte [V]" 
"Surf_0 Equilibrium Potential Drop Electrode-Electrolyte [V]" 
"Overpotential_0 [V]" 
"Current Source [A/m^2]" 
"Li+ flux [kmol/m^2/s]" 
"Electrolyte Current [A/m^2]" 
"Electrode Current [A/m^2]" 
"CV Capacity discharged [A-s/m^2]" 
"Depth of discharge in CV [A-s/m^2]" 
"CV Capacity remaining [A-s/m^2]" 
"Initial CV capacity [A-s/m^2]" 
"Porosity []" 
"Surface Area [m2/m2] (area per area)" 
"Specific current (per particle area) [A/m^2]" 
"Control volume thickness [m]" 
"MoleDens Li_C6-bulk [kmol/m^3]" 
"MoleDens V_C6-bulk [kmol/m^3]" 
"qHeat_accum [J/m3]" 
"qHeat_step [W/m3]" 
"Joule_Lyte [W/m3]" 
"Joule_Solid [W/m3]" 
"electrodHeat [W/m3]" 
"OverpotHeat [W/m3]" 
"deltaSHeat [W/m3]" 

ZONE T = "ANOD, 0.0000E+00", I = 10, SOLUTIONTIME = 0.000000E+00
ZONETYPE = ORDERED
DATAPACKING = BLOCK
STRANDID = 1
 0.0000000000000E+00  8.7488888888889E-05  1.7497777777778E-04  2.6246666666667E-04  3.4995555555556E-04  4.3744444444444E-04  5.2493333333333E-04  6.1242222222222E-04  6.9991111111111E-04  7.8740000000000E-04 
 0.0000000000000E+00  0.0000000000000E+00  0.0000000000000E+00  0.0000000000000E+00  0.0000000000000E+00  0.0000000000000E+00  0.0000000000000E+00  0.0000000000000E+00  0.0000000000000E+00  0.0000000000000E+00 
 9.2000000000000E-01  9.2000000000000E-01  9.2000000000000E-01  9.2000000000000E-01  9.2000000000000E-01  9.2000000000000E-01  9.2000000000000E-01  9.2000000000000E-01  9.2000000000000E-01  9.2000000000000E-01 
 4.0000000000000E-02  4.0000000000000E-02  4.0000000000000E-02  4.0000000000000E-02  4.0000000000000E-02  4.0000000000000E-02  4.0000000000000E-02  4.0000000000000E-02  4.0000000000000E-02  4.0000000000000E-02 
 4.0000000000000E-02  4.0000000000000E-02  4.0000000000000E-02  4.0000000000000E-02  4.0000000000000E-02  4.0000000000000E-02  4.0000000000000E-02  4.0000000000000E-02  4.0000000000000E-02  4.0000000000000E-02 
-7.0000000000000E-02 -7.0000000000000E-02 -7.0000000000000E-02 -7.0000000000000E-02 -7.0000000000000E-02 -7.0000000000000E-02 -7.0000000000000E-02 -7.0000000000000E-02 -7.0000000000000E-02 -7.0000000000000E-02 
 0.0000000000000E+00  0.0000000000000E+00  0.0000000000000E+00  0.0000000000000E+00  0.0000000000000E+00  0.0000000000000E+00  0.0000000000000E+00  0.0000000000000E+00  0.0000000000000E+00  0.0000000000000E+00 
 7.0000000000000E-02  7.0000000000000E-02  7.0000000000000E-02  7.0000000000000E-02  7.0000000000000E-02  7.0000000000000E-02  7.0000000000000E-02  7.0000000000000E-02  7.0000000000000E-02  7.0000000000000E-02 
-4.0906712753391E-02 -4.0906712753391E-02 -4.0906712753391E-02 -4.0906712753391E-02 -4.0906712753391E-02 -4.0906712753391E-02 -4.0906712753391E-02 -4.0906712753391E-02 -4.0906712753391E-02 -4.0906712753391E-02 
 1.1090671275339E-01  1.1090671275339E-01  1.1090671275339E-01  1.1090671275339E-01  1.1090671275339E-01  1.1090671275339E-01  1.1090671275339E-01  1.1090671275339E-01  1.1090671275339E-01  1.1090671275339E-01 
 3.0930240924008E+01  6.1860481848017E+01  6.1860481848017E+01  6.1860481848017E+01  6.1860481848017E+01  6.1860481848017E+01  6.1860481848017E+01  6.1860481848017E+01  6.1860481848017E+01  3.0930240924008E+01 
-0.0000000000000E+00 -0.0000000000000E+00 -0.0000000000000E+00 -0.0000000000000E+00 -0.0000000000000E+00 -0.0000000000000E+00 -0.0000000000000E+00 -0.0000000000000E+00 -0.0000000000000E+00 -0.0000000000000E+00 
 0.0000000000000E+00  0.0000000000000E+00  0.0000000000000E+00  0.0000000000000E+00  0.0000000000000E+00  0.0000000000000E+00  0.0000000000000E+00  0.0000000000000E+00  0.0000000000000E+00  3.0930240924008E+01 
 3.0930240924008E+01 -0.0000000000000E+00 -0.0000000000000E+00 -0.0000000000000E+00 -0.0000000000000E+00 -0.0000000000000E+00 -0.0000000000000E+00 -0.0000000000000E+00 -0.0000000000000E+00  0.0000000000000E+00 
 0.0000000000000E+00  0.0000000000000E+00  0.0000000000000E+00  0.0000000000000E+00  0.0000000000000E+00  0.0000000000000E+00  0.0000000000000E+00  0.0000000000000E+00  0.0000000000000E+00  0.0000000000000E+00 
 4.5724222271641E+04  9.1448444543281E+04  9.1448444543281E+04  9.1448444543281E+04  9.1448444543281E+04  9.1448444543281E+04  9.1448444543281E+04  9.1448444543281E+04  9.1448444543281E+04  4.5724222271641E+04 
 3.3835924481014E+05  6.7671848962028E+05  6.7671848962028E+05  6.7671848962028E+05  6.7671848962028E+05  6.7671848962028E+05  6.7671848962028E+05  6.7671848962028E+05  6.7671848962028E+05  3.3835924481014E+05 
 3.8408346708178E+05  7.6816693416356E+05  7.6816693416356E+05  7.6816693416356E+05  7.6816693416356E+05  7.6816693416356E+05  7.6816693416356E+05  7.6816693416356E+05  7.6816693416356E+05  3.8408346708178E+05 
 3.5000000000000E-01  3.5000000000000E-01  3.5000000000000E-01  3.5000000000000E-01  3.5000000000000E-01  3.5000000000000E-01  3.5000000000000E-01  3.5000000000000E-01  3.5000000000000E-01  3.5000000000000E-01 
 8.5301666666667E+00  1.7060333333333E+01  1.7060333333333E+01  1.7060333333333E+01  1.7060333333333E+01  1.7060333333333E+01  1.7060333333333E+01  1.7060333333333E+01  1.7060333333333E+01  8.5301666666667E+00 
 3.6259831879809E+00  3.6259831879809E+00  3.6259831879809E+00  3.6259831879809E+00  3.6259831879809E+00  3.6259831879809E+00  3.6259831879809E+00  3.6259831879809E+00  3.6259831879809E+00  3.6259831879809E+00 
 4.3744444444444E-05  8.7488888888889E-05  8.7488888888889E-05  8.7488888888889E-05  8.7488888888889E-05  8.7488888888889E-05  8.7488888888889E-05  8.7488888888889E-05  8.7488888888889E-05  4.3744444444444E-05 
 8.6666666666667E+01  8.6666666666667E+01  8.6666666666667E+01  8.6666666666667E+01  8.6666666666667E+01  8.6666666666667E+01  8.6666666666667E+01  8.6666666666667E+01  8.6666666666667E+01  8.6666666666667E+01 
 2.1666666666667E+01  2.1666666666667E+01  2.1666666666667E+01  2.1666666666667E+01  2.1666666666667E+01  2.1666666666667E+01  2.1666666666667E+01  2.1666666666667E+01  2.1666666666667E+01  2.1666666666667E+01 
 0.0000000000000E+00  0.0000000000000E+00  0.0000000000000E+00  0.0000000000000E+00  0.0000000000000E+00  0.0000000000000E+00  0.0000000000000E+00  0.0000000000000E+00  0.0000000000000E+00  0.0000000000000E+00 
 0.0000000000000E+00  0.0000000000000E+00  0.0000000000000E+00  0.0000000000000E+00  0.0000000000000E+00  0.0000000000000E+00  0.0000000000000E+00  0.0000000000000E+00  0.0000000000000E+00  0.0000000000000E+00 
 0.0000000000000E+00  0.0000000000000E+00  0.0000000000000E+00  0.0000000000000E+00  0.0000000000000E+00  0.0000000000000E+00  0.0000000000000E+00  0.0000000000000E+00  0.0000000000000E+00  0.0000000000000E+00 
 0.0000000000000E+00  0.0000000000000E+00  0.0000000000000E+00  0.0000000000000E+00  0.0000000000000E+00  0.0000000000000E+00  0.0000000000000E+00  0.0000000000000E+00  0.0000000000000E+00  0.0000000000000E+00 
 0.0000000000000E+00  0.0000000000000E+00  0.0000000000000E+00  0.0000000000000E+00  0.0000000000000E+00  0.0000000000000E+00  0.0000000000000E+00  0.0000000000000E+00  0.0000000000000E+00  0.0000000000000E+00 
 0.0000000000000E+00  0.0000000000000E+00  0.0000000000000E+00  0.0000000000000E+00  0.0000000000000E+00  0.0000000000000E+00  0.0000000000000E+00  0.0000000000000E+00  0.0000000000000E+00  0.0000000000000E+00 
 0.0000000000000E+00  0.0000000000000E+00  0.0000000000000E+00  0.0000000000000E+00  0.0000000000000E+00  0.0000000000000E+00  0.0000000000000E+00  0.0000000000000E+00  0.0000000000000E+00  0.0000000000000E+00 
ZONE T = "ANOD, 1.0000E-08", I = 10, SOLUTIONTIME = 1.000000E-08
ZONETYPE = ORDERED
DATAPACKING = BLOCK
STRANDID = 1
 0.0000000000000E+00  8.7488888888889E-05  1.7497777777778E-04  2.6246666666667E-04  3.4995555555556E-04  4.3744444444444E-04  5.2493333333333E-04  6.1242222222222E-04  6.9991111111111E-04  7.8740000000000E-04 
 1.1589901637491E-09  3.4769726989103E-09  5.7949638722179E-09  8.1129701141816E-09  1.0430997855010E-08  1.2749053526404E-08  1.5067143558348E-08  1.7385274381687E-08  1.9703452428068E-08  2.0863294693441E-08 
 9.1999999999930E-01  9.1999999999930E-01  9.1999999999930E-01  9.1999999999930E-01  9.1999999999930E-01  9.1999999999930E-01  9.1999999999930E-01  9.1999999999930E-01  9.1999999999930E-01  9.1999999999971E-01 
 4.0000000000348E-02  4.0000000000348E-02  4.0000000000348E-02  4.0000000000348E-02  4.0000000000348E-02  4.0000000000348E-02  4.0000000000348E-02  4.0000000000348E-02  4.0000000000348E-02  4.0000000000144E-02 
 4.0000000000348E-02  4.0000000000348E-02  4.0000000000348E-02  4.0000000000348E-02  4.0000000000348E-02  4.0000000000348E-02  4.0000000000348E-02  4.0000000000348E-02  4.0000000000348E-02  4.0000000000144E-02 
 2.9167370854556E-02  2.9167355127471E-02  2.9167307946184E-02  2.9167229310578E-02  2.9167119220449E-02  2.9166977675506E-02  2.9166804675368E-02  2.9166600219571E-02  2.9166364307560E-02  2.9166096938694E-02 
 0.0000000000000E+00 -4.7371210102230E-09 -8.9169542169327E-09 -1.2539497543351E-08 -1.5604747366682E-08 -1.8112698518182E-08 -2.0063344282805E-08 -2.1456676399609E-08 -2.2292685061557E-08 -2.2571358915315E-08 
-2.9167370854556E-02 -2.9167359864592E-02 -2.9167316863138E-02 -2.9167241850075E-02 -2.9167134825196E-02 -2.9166995788204E-02 -2.9166824738712E-02 -2.9166621676247E-02 -2.9166386600245E-02 -2.9166119510053E-02 
-4.0906712753087E-02 -4.0906712753087E-02 -4.0906712753087E-02 -4.0906712753087E-02 -4.0906712753090E-02 -4.0906712753090E-02 -4.0906712753090E-02 -4.0906712753090E-02 -4.0906712753090E-02 -4.0906712753221E-02 
 1.1739341898530E-02  1.1739352888495E-02  1.1739395889949E-02  1.1739470903011E-02  1.1739577927894E-02  1.1739716964886E-02  1.1739888014378E-02  1.1740091076843E-02  1.1740326152846E-02  1.1740593243168E-02 
 1.6690491449027E+00  3.3381014689969E+00  3.3381139085161E+00  3.3381356084026E+00  3.3381665687263E+00  3.3382067895847E+00  3.3382562711072E+00  3.3383150134517E+00  3.3383830168057E+00  1.6692301406932E+00 
 8.6491803293576E-09  2.5947557448887E-08  4.3245999046561E-08  6.0544553091835E-08  7.7843267572202E-08  9.5142190491110E-08  1.1244136983850E-07  1.2974085359197E-07  1.4704076187722E-07  1.4704076187722E-07 
 0.0000000000000E+00  3.3380778851550E+00  6.6761635797326E+00  1.0014266344398E+01  1.3352395438894E+01  1.6690560124438E+01  2.0028769662247E+01  2.3367033312433E+01  2.6705360336545E+01  3.0043770990603E+01 
 3.0043770992807E+01  2.6705682110499E+01  2.3367596415876E+01  2.0029493651410E+01  1.6691364556873E+01  1.3353199871176E+01  1.0014990333397E+01  6.6767266832289E+00  3.3383996591611E+00  0.0000000000000E+00 
 1.6690491449027E-08  3.3381014689969E-08  3.3381139085161E-08  3.3381356084026E-08  3.3381665687263E-08  3.3382067895847E-08  3.3382562711072E-08  3.3383150134517E-08  3.3383830168057E-08  1.6692301406932E-08 
 4.5724222271657E+04  9.1448444543315E+04  9.1448444543315E+04  9.1448444543315E+04  9.1448444543315E+04  9.1448444543315E+04  9.1448444543315E+04  9.1448444543315E+04  9.1448444543315E+04  4.5724222271657E+04 
 3.3835924481012E+05  6.7671848962025E+05  6.7671848962025E+05  6.7671848962025E+05  6.7671848962025E+05  6.7671848962025E+05  6.7671848962025E+05  6.7671848962025E+05  6.7671848962025E+05  3.3835924481012E+05 
 3.8408346708178E+05  7.6816693416356E+05  7.6816693416356E+05  7.6816693416356E+05  7.6816693416356E+05  7.6816693416356E+05  7.6816693416356E+05  7.6816693416356E+05  7.6816693416356E+05  3.8408346708178E+05 
 3.5000000000000E-01  3.5000000000000E-01  3.5000000000000E-01  3.5000000000000E-01  3.5000000000000E-01  3.5000000000000E-01  3.5000000000000E-01  3.5000000000000E-01  3.5000000000000E-01  3.5000000000000E-01 
 8.5301666666667E+00  1.7060333333333E+01  1.7060333333333E+01  1.7060333333333E+01  1.7060333333333E+01  1.7060333333333E+01  1.7060333333333E+01  1.7060333333333E+01  1.7060333333333E+01  8.5301666666667E+00 
 1.9566430646951E-01  1.9566449281942E-01  1.9566522196808E-01  1.9566649391781E-01  1.9566830867273E-01  1.9567066623853E-01  1.9567356662280E-01  1.9567700983480E-01  1.9568099588553E-01  1.9568552478770E-01 
 4.3744444444444E-05  8.7488888888889E-05  8.7488888888889E-05  8.7488888888889E-05  8.7488888888889E-05  8.7488888888889E-05  8.7488888888889E-05  8.7488888888889E-05  8.7488888888889E-05  4.3744444444444E-05 
 8.6666666666663E+01  8.6666666666663E+01  8.6666666666663E+01  8.6666666666663E+01  8.6666666666663E+01  8.6666666666663E+01  8.6666666666663E+01  8.6666666666663E+01  8.6666666666663E+01  8.6666666666663E+01 
 2.1666666666671E+01  2.1666666666671E+01  2.1666666666671E+01  2.1666666666671E+01  2.1666666666671E+01  2.1666666666671E+01  2.1666666666671E+01  2.1666666666671E+01  2.1666666666671E+01  2.1666666666671E+01 
 1.8363885869048E-11  2.8663916448699E-11  6.1477851795278E-11  1.1871978534395E-10  2.0039035227533E-10  3.0649045888138E-10  4.3702128254590E-10  5.9198427171458E-10  7.7138114600778E-10  8.6718828634042E-10 
 1.8363885869048E-03  2.8663916448699E-03  6.1477851795278E-03  1.1871978534395E-02  2.0039035227533E-02  3.0649045888138E-02  4.3702128254590E-02  5.9198427171458E-02  7.7138114600778E-02  8.6718828634042E-02 
 3.0002788176834E-04  1.5001411230230E-03  5.1004925995222E-03  1.1101119133488E-02  1.9502084180482E-02  3.0303477835333E-02  4.3505416830109E-02  5.9108044531077E-02  7.7111530950038E-02  8.6713511756230E-02 
 1.5363607051365E-03  1.3662505218470E-03  1.0472925800056E-03  7.7085940090696E-04  5.3695104705154E-04  3.4556805280508E-04  1.9671142448084E-04  9.0382640381046E-05  2.6583650739982E-05  5.3168778122463E-06 
 0.0000000000000E+00  0.0000000000000E+00  0.0000000000000E+00  0.0000000000000E+00  0.0000000000000E+00  0.0000000000000E+00  0.0000000000000E+00  0.0000000000000E+00  0.0000000000000E+00  0.0000000000000E+00 
 0.0000000000000E+00  0.0000000000000E+00  0.0000000000000E+00  0.0000000000000E+00  0.0000000000000E+00  0.0000000000000E+00  0.0000000000000E+00  0.0000000000000E+00  0.0000000000000E+00  0.0000000000000E+00 
 0.0000000000000E+00  0.0000000000000E+00  0.0000000000000E+00  0.0000000000000E+00  0.0000000000000E+00  0.0000000000000E+00  0.0000000000000E+00  0.0000000000000E+00  0.0000000000000E+00  0.0000000000000E+00 
ZONE T = "ANOD, 2.0000E-08", I = 10, SOLUTIONTIME = 2.000000E-08
ZONETYPE = ORDERED
DATAPACKING = BLOCK
STRANDID = 1
 0.0000000000000E+00  8.7488888888889E-05  1.7497777777778E-04  2.6246666666667E-04  3.4995555555556E-04  4.3744444444444E-04  5.2493333333333E-04  6.1242222222222E-04  6.9991111111111E-04  7.8740000000000E-04 
 1.1589975177605E-09  3.4769947609455E-09  5.7950006422623E-09  8.1130215922066E-09  1.0431064041322E-08  1.2748408004766E-08  1.5065786328695E-08  1.7383568651649E-08  1.9701398196841E-08  2.0861247815432E-08 
 9.1999999999861E-01  9.1999999999861E-01  9.1999999999861E-01  9.1999999999861E-01  9.1999999999861E-01  9.1999999999861E-01  9.1999999999861E-01  9.1999999999861E-01  9.1999999999861E-01  9.1999999999942E-01 
 4.0000000000696E-02  4.0000000000696E-02  4.0000000000696E-02  4.0000000000696E-02  4.0000000000696E-02  4.0000000000696E-02  4.0000000000696E-02  4.0000000000696E-02  4.0000000000696E-02  4.0000000000288E-02 
 4.0000000000696E-02  4.0000000000696E-02  4.0000000000696E-02  4.0000000000696E-02  4.0000000000696E-02  4.0000000000696E-02  4.0000000000696E-02  4.0000000000696E-02  4.0000000000696E-02  4.0000000000288E-02 
 2.9167373666390E-02  2.9167357939204E-02  2.9167310757618E-02  2.9167232121513E-02  2.9167122030686E-02  2.9166980484844E-02  2.9166807483609E-02  2.9166603026514E-02  2.9166367113006E-02  2.9166099742444E-02 
 0.0000000000000E+00 -4.7371510660880E-09 -8.9170107925691E-09 -1.2539577102670E-08 -1.5604846373600E-08 -1.8112813436544E-08 -2.0063471576643E-08 -2.1456812532970E-08 -2.2292826498510E-08 -2.2571502120125E-08 
-2.9167373666390E-02 -2.9167362676355E-02 -2.9167319674628E-02 -2.9167244661090E-02 -2.9167137635532E-02 -2.9166998597657E-02 -2.9166827547080E-02 -2.9166624483327E-02 -2.9166389405833E-02 -2.9166122313946E-02 
-4.0906712752791E-02 -4.0906712752791E-02 -4.0906712752791E-02 -4.0906712752791E-02 -4.0906712752790E-02 -4.0906712752790E-02 -4.0906712752790E-02 -4.0906712752790E-02 -4.0906712752790E-02 -4.0906712753053E-02 
 1.1739339086402E-02  1.1739350076436E-02  1.1739393078163E-02  1.1739468091701E-02  1.1739575117258E-02  1.1739714155133E-02  1.1739885205710E-02  1.1740088269464E-02  1.1740323346958E-02  1.1740590439106E-02 
 1.6690487381632E+00  3.3381006555381E+00  3.3381130951360E+00  3.3381347951598E+00  3.3381657556786E+00  3.3382059767918E+00  3.3382554586276E+00  3.3383142013440E+00  3.3383822051286E+00  1.6692297351141E+00 
 8.6492352084130E-09  2.5947722093685E-08  4.3246273449470E-08  6.0544937252507E-08  7.7843761499304E-08  9.5142794175297E-08  1.1244208327923E-07  1.2974167678699E-07  1.4704176694444E-07  1.4704176694444E-07 
 0.0000000000000E+00  3.3380990659879E+00  6.6762059413984E+00  1.0014329886344E+01  1.3352480161857E+01  1.6690666028050E+01  2.0028896745771E+01  2.3367181575686E+01  2.6705529778938E+01  3.0043950616876E+01 
 3.0043950616682E+01  2.6705851550750E+01  2.3367744675413E+01  2.0029620730265E+01  1.6691470454845E+01  1.3353284588610E+01  1.0015053870901E+01  6.6767690409149E+00  3.3384208376785E+00  0.0000000000000E+00 
 3.3380978830658E-08  6.6762021245350E-08  6.6762270036521E-08  6.6762704035624E-08  6.6763323244049E-08  6.6764127663765E-08  6.6765117297348E-08  6.6766292147957E-08  6.6767652219344E-08  3.3384598758073E-08 
 4.5724222271674E+04  9.1448444543348E+04  9.1448444543348E+04  9.1448444543348E+04  9.1448444543348E+04  9.1448444543348E+04  9.1448444543348E+04  9.1448444543348E+04  9.1448444543348E+04  4.5724222271674E+04 
 3.3835924481011E+05  6.7671848962021E+05  6.7671848962021E+05  6.7671848962021E+05  6.7671848962021E+05  6.7671848962021E+05  6.7671848962021E+05  6.7671848962021E+05  6.7671848962021E+05  3.3835924481011E+05 
 3.8408346708178E+05  7.6816693416356E+05  7.6816693416356E+05  7.6816693416356E+05  7.6816693416356E+05  7.6816693416356E+05  7.6816693416356E+05  7.6816693416356E+05  7.6816693416356E+05  3.8408346708178E+05 
 3.5000000000000E-01  3.5000000000000E-01  3.5000000000000E-01  3.5000000000000E-01  3.5000000000000E-01  3.5000000000000E-01  3.5000000000000E-01  3.5000000000000E-01  3.5000000000000E-01  3.5000000000000E-01 
 8.5301666666667E+00  1.7060333333333E+01  1.7060333333333E+01  1.7060333333333E+01  1.7060333333333E+01  1.7060333333333E+01  1.7060333333333E+01  1.7060333333333E+01  1.7060333333333E+01  8.5301666666667E+00 
 1.9566425878703E-01  1.9566444513812E-01  1.9566517429140E-01  1.9566644624918E-01  1.9566826101553E-01  1.9567061859626E-01  1.9567351899890E-01  1.9567696223270E-01  1.9568094830867E-01  1.9568547724125E-01 
 4.3744444444444E-05  8.7488888888889E-05  8.7488888888889E-05  8.7488888888889E-05  8.7488888888889E-05  8.7488888888889E-05  8.7488888888889E-05  8.7488888888889E-05  8.7488888888889E-05  4.3744444444444E-05 
 8.6666666666659E+01  8.6666666666659E+01  8.6666666666659E+01  8.6666666666659E+01  8.6666666666659E+01  8.6666666666659E+01  8.6666666666659E+01  8.6666666666659E+01  8.6666666666659E+01  8.6666666666659E+01 
 2.1666666666675E+01  2.1666666666675E+01  2.1666666666675E+01  2.1666666666675E+01  2.1666666666675E+01  2.1666666666675E+01  2.1666666666675E+01  2.1666666666675E+01  2.1666666666675E+01  2.1666666666675E+01 
 3.6728004768950E-11  5.7328196643954E-11  1.2295648375960E-10  2.3744107727047E-10  4.0078324756487E-10  6.1298480720228E-10  8.7404811094327E-10  1.1839760556940E-09  1.5427720806824E-09  1.7343875770479E-09 
 1.8364118899902E-03  2.8664280195255E-03  6.1478631964325E-03  1.1872129192653E-02  2.0039289528953E-02  3.0649434832089E-02  4.3702682839736E-02  5.9199178397940E-02  7.7139093467464E-02  8.6719929070750E-02 
 6.0005957090039E-04  3.0003012836696E-03  1.0201049926464E-02  2.2202379143629E-02  3.9004415849008E-02  6.0607340229787E-02  8.7011385749384E-02  1.1821683914184E-01  1.5422404042947E-01  1.7342812388171E-01 
 3.0727409059946E-03  2.7325183807258E-03  2.0945984494966E-03  1.5417285834186E-03  1.0739089074788E-03  6.9114049044087E-04  3.9342534494287E-04  1.8076642755938E-04  5.3167638770775E-05  1.0633823083329E-05 
 0.0000000000000E+00  0.0000000000000E+00  0.0000000000000E+00  0.0000000000000E+00  0.0000000000000E+00  0.0000000000000E+00  0.0000000000000E+00  0.0000000000000E+00  0.0000000000000E+00  0.0000000000000E+00 
 0.0000000000000E+00  0.0000000000000E+00  0.0000000000000E+00  0.0000000000000E+00  0.0000000000000E+00  0.0000000000000E+00  0.0000000000000E+00  0.0000000000000E+00  0.0000000000000E+00  0.0000000000000E+00 
 0.0000000000000E+00  0.0000000000000E+00  0.0000000000000E+00  0.0000000000000E+00  0.0000000000000E+00  0.0000000000000E+00  0.0000000000000E+00  0.0000000000000E+00  0.0000000000000E+00  0.0000000000000E+00 
ZONE T = "ANOD, 3.0000E-08", I = 10, SOLUTIONTIME = 3.000000E-08
ZONETYPE = ORDERED
DATAPACKING = BLOCK
STRANDID = 1
 0.0000000000000E+00  8.7488888888889E-05  1.7497777777778E-04  2.6246666666667E-04  3.4995555555556E-04  4.3744444444444E-04  5.2493333333333E-04  6.1242222222222E-04  6.9991111111111E-04  7.8740000000000E-04 
 1.1589975177437E-09  3.4769947608948E-09  5.7950006421777E-09  8.1130215920882E-09  1.0431064041170E-08  1.2749860835491E-08  1.5068691990298E-08  1.7387200728673E-08  1.9705756689288E-08  2.0864153476961E-08 
 9.1999999999791E-01  9.1999999999791E-01  9.1999999999791E-01  9.1999999999791E-01  9.1999999999791E-01  9.1999999999791E-01  9.1999999999791E-01  9.1999999999791E-01  9.1999999999791E-01  9.1999999999914E-01 
 4.0000000001045E-02  4.0000000001045E-02  4.0000000001045E-02  4.0000000001045E-02  4.0000000001045E-02  4.0000000001045E-02  4.0000000001045E-02  4.0000000001045E-02  4.0000000001045E-02  4.0000000000432E-02 
 4.0000000001045E-02  4.0000000001045E-02  4.0000000001045E-02  4.0000000001045E-02  4.0000000001045E-02  4.0000000001045E-02  4.0000000001045E-02  4.0000000001045E-02  4.0000000001045E-02  4.0000000000432E-02 
 2.9167373666318E-02  2.9167357939133E-02  2.9167310757546E-02  2.9167232121442E-02  2.9167122030614E-02  2.9166980484773E-02  2.9166807483538E-02  2.9166603026443E-02  2.9166367112935E-02  2.9166099742373E-02 
 0.0000000000000E+00 -4.7371510660216E-09 -8.9170107924445E-09 -1.2539577102495E-08 -1.5604846373383E-08 -1.8112813436294E-08 -2.0063471576366E-08 -2.1456812532676E-08 -2.2292826498206E-08 -2.2571502119819E-08 
-2.9167373666318E-02 -2.9167362676284E-02 -2.9167319674557E-02 -2.9167244661019E-02 -2.9167137635461E-02 -2.9166998597586E-02 -2.9166827547009E-02 -2.9166624483255E-02 -2.9166389405761E-02 -2.9166122313875E-02 
-4.0906712752491E-02 -4.0906712752491E-02 -4.0906712752491E-02 -4.0906712752491E-02 -4.0906712752491E-02 -4.0906712752491E-02 -4.0906712752491E-02 -4.0906712752491E-02 -4.0906712752491E-02 -4.0906712752884E-02 
 1.1739339086173E-02  1.1739350076207E-02  1.1739393077934E-02  1.1739468091472E-02  1.1739575117030E-02  1.1739714154905E-02  1.1739885205482E-02  1.1740088269236E-02  1.1740323346730E-02  1.1740590439009E-02 
 1.6690487381388E+00  3.3381006554894E+00  3.3381130950873E+00  3.3381347951111E+00  3.3381657556301E+00  3.3382059767435E+00  3.3382554585792E+00  3.3383142012956E+00  3.3383822050803E+00  1.6692297351046E+00 
 8.6492352084883E-09  2.5947722092003E-08  4.3246273449847E-08  6.0544937247303E-08  7.7843761499643E-08  9.5142794171962E-08  1.1244208327640E-07  1.2974167678655E-07  1.4704183906035E-07  1.4704183906035E-07 
 0.0000000000000E+00  3.3380990658328E+00  6.6762059412724E+00  1.0014329886247E+01  1.3352480161605E+01  1.6690666027827E+01  2.0028896745393E+01  2.3367181575521E+01  2.6705529778766E+01  3.0043950616305E+01 
 3.0043950616260E+01  2.6705851550376E+01  2.3367744675088E+01  2.0029620729989E+01  1.6691470454618E+01  1.3353284588431E+01  1.0015053870770E+01  6.6767690408327E+00  3.3384208376447E+00  0.0000000000000E+00 
 5.0071466212047E-08  1.0014302780024E-07  1.0014340098739E-07  1.0014405198674E-07  1.0014498080035E-07  1.0014618743120E-07  1.0014767188314E-07  1.0014943416091E-07  1.0015147427015E-07  5.0076896109119E-08 
 4.5724222271691E+04  9.1448444543381E+04  9.1448444543381E+04  9.1448444543381E+04  9.1448444543381E+04  9.1448444543381E+04  9.1448444543381E+04  9.1448444543381E+04  9.1448444543381E+04  4.5724222271691E+04 
 3.3835924481009E+05  6.7671848962018E+05  6.7671848962018E+05  6.7671848962018E+05  6.7671848962018E+05  6.7671848962018E+05  6.7671848962018E+05  6.7671848962018E+05  6.7671848962018E+05  3.3835924481009E+05 
 3.8408346708178E+05  7.6816693416356E+05  7.6816693416356E+05  7.6816693416356E+05  7.6816693416356E+05  7.6816693416356E+05  7.6816693416356E+05  7.6816693416356E+05  7.6816693416356E+05  3.8408346708178E+05 
 3.5000000000000E-01  3.5000000000000E-01  3.5000000000000E-01  3.5000000000000E-01  3.5000000000000E-01  3.5000000000000E-01  3.5000000000000E-01  3.5000000000000E-01  3.5000000000000E-01  3.5000000000000E-01 
 8.5301666666667E+00  1.7060333333333E+01  1.7060333333333E+01  1.7060333333333E+01  1.7060333333333E+01  1.7060333333333E+01  1.7060333333333E+01  1.7060333333333E+01  1.7060333333333E+01  8.5301666666667E+00 
 1.9566425878418E-01  1.9566444513527E-01  1.9566517428854E-01  1.9566644624633E-01  1.9566826101269E-01  1.9567061859343E-01  1.9567351899607E-01  1.9567696222987E-01  1.9568094830583E-01  1.9568547724014E-01 
 4.3744444444444E-05  8.7488888888889E-05  8.7488888888889E-05  8.7488888888889E-05  8.7488888888889E-05  8.7488888888889E-05  8.7488888888889E-05  8.7488888888889E-05  8.7488888888889E-05  4.3744444444444E-05 
 8.6666666666655E+01  8.6666666666655E+01  8.6666666666655E+01  8.6666666666655E+01  8.6666666666655E+01  8.6666666666655E+01  8.6666666666655E+01  8.6666666666655E+01  8.6666666666655E+01  8.6666666666655E+01 
 2.1666666666679E+01  2.1666666666679E+01  2.1666666666679E+01  2.1666666666679E+01  2.1666666666679E+01  2.1666666666679E+01  2.1666666666679E+01  2.1666666666679E+01  2.1666666666679E+01  2.1666666666679E+01 
 5.5092123668447E-11  8.5992476836972E-11  1.8443511572210E-10  3.5616236919312E-10  6.0117614284536E-10  9.1947915551248E-10  1.3110749393199E-09  1.7759678396613E-09  2.3141630153402E-09  2.6015868677157E-09 
 1.8364118899497E-03  2.8664280193018E-03  6.1478631962493E-03  1.1872129192265E-02  2.0039289528050E-02  3.0649434831020E-02  4.3702682837661E-02  5.9199178396731E-02  7.7139093465774E-02  8.6719929066782E-02 
 9.0009126003505E-04  4.5004614441308E-03  1.5301607253251E-02  3.3303639153403E-02  5.8506747516645E-02  9.0911202623180E-02  1.3051735466659E-01  1.7732563375139E-01  2.3133654990722E-01  2.6014273600322E-01 
 4.6091211068097E-03  4.0987862395664E-03  3.1419043189585E-03  2.3125977659091E-03  1.6108667678915E-03  1.0367129280674E-03  5.9013926539976E-04  2.7115021473547E-04  7.9751626800983E-05  1.5950768354350E-05 
 0.0000000000000E+00  0.0000000000000E+00  0.0000000000000E+00  0.0000000000000E+00  0.0000000000000E+00  0.0000000000000E+00  0.0000000000000E+00  0.0000000000000E+00  0.0000000000000E+00  0.0000000000000E+00 
 0.0000000000000E+00  0.0000000000000E+00  0.0000000000000E+00  0.0000000000000E+00  0.0000000000000E+00  0.0000000000000E+00  0.0000000000000E+00  0.0000000000000E+00  0.0000000000000E+00  0.0000000000000E+00 
 0.0000000000000E+00  0.0000000000000E+00  0.0000000000000E+00  0.0000000000000E+00  0.0000000000000E+00  0.0000000000000E+00  0.0000000000000E+00  0.0000000000000E+00  0.0000000000000E+00  0.0000000000000E+00 
ZONE T = "ANOD, 4.0000E-08", I = 10, SOLUTIONTIME = 4.000000E-08
ZONETYPE = ORDERED
DATAPACKING = BLOCK
STRANDID = 1
 0.0000000000000E+00  8.7488888888889E-05  1.7497777777778E-04  2.6246666666667E-04  3.4995555555556E-04  4.3744444444444E-04  5.2493333333333E-04  6.1242222222222E-04  6.9991111111111E-04  7.8740000000000E-04 
 1.1584527061351E-09  3.4753603260692E-09  5.7933662073185E-09  8.1113871571953E-09  1.0428339983060E-08  1.2745320738708E-08  1.5063425478026E-08  1.7381571008640E-08  1.9699763761492E-08  2.0858886964615E-08 
 9.1999999999721E-01  9.1999999999721E-01  9.1999999999721E-01  9.1999999999721E-01  9.1999999999721E-01  9.1999999999721E-01  9.1999999999721E-01  9.1999999999721E-01  9.1999999999721E-01  9.1999999999885E-01 
 4.0000000001393E-02  4.0000000001393E-02  4.0000000001393E-02  4.0000000001393E-02  4.0000000001393E-02  4.0000000001393E-02  4.0000000001393E-02  4.0000000001393E-02  4.0000000001393E-02  4.0000000000576E-02 
 4.0000000001393E-02  4.0000000001393E-02  4.0000000001393E-02  4.0000000001393E-02  4.0000000001393E-02  4.0000000001393E-02  4.0000000001393E-02  4.0000000001393E-02  4.0000000001393E-02  4.0000000000576E-02 
 2.9167373666244E-02  2.9167357939059E-02  2.9167310757472E-02  2.9167232121368E-02  2.9167122030540E-02  2.9166980484699E-02  2.9166807483464E-02  2.9166603026369E-02  2.9166367112861E-02  2.9166099742299E-02 
 0.0000000000000E+00 -4.7371510659549E-09 -8.9170107923193E-09 -1.2539577102319E-08 -1.5604846373165E-08 -1.8112813436042E-08 -2.0063471576088E-08 -2.1456812532380E-08 -2.2292826497901E-08 -2.2571502119512E-08 
-2.9167373666244E-02 -2.9167362676210E-02 -2.9167319674483E-02 -2.9167244660945E-02 -2.9167137635387E-02 -2.9166998597512E-02 -2.9166827546935E-02 -2.9166624483181E-02 -2.9166389405688E-02 -2.9166122313801E-02 
-4.0906712752189E-02 -4.0906712752189E-02 -4.0906712752189E-02 -4.0906712752189E-02 -4.0906712752188E-02 -4.0906712752187E-02 -4.0906712752187E-02 -4.0906712752187E-02 -4.0906712752187E-02 -4.0906712752712E-02 
 1.1739339085945E-02  1.1739350075979E-02  1.1739393077706E-02  1.1739468091244E-02  1.1739575116801E-02  1.1739714154675E-02  1.1739885205252E-02  1.1740088269006E-02  1.1740323346500E-02  1.1740590438911E-02 
 1.6690487381145E+00  3.3381006554409E+00  3.3381130950388E+00  3.3381347950626E+00  3.3381657555814E+00  3.3382059766946E+00  3.3382554585304E+00  3.3383142012468E+00  3.3383822050315E+00  1.6692297350949E+00 