TITLE = "Solution on Domain BulkDomain1D_0"
VARIABLES = "x [m]"  
"Vel_axial" 
"MF_sp(ECDMC)" 
"MF_sp(Li+)" 
"MF_sp(PF6-)" 
"Volt(Electroly)" 
"Volt(AnodeVolt)" 
"Potential Drop Electrode-Electrolyte [V]" 
"Surf_0 Equilibrium Potential Drop Electrode-Electrolyte [V]" 
"Overpotential_0 [V]" 
"Current Source [A/m^2]" 
"Li+ flux [kmol/m^2/s]" 
"Electrolyte Current [A/m^2]" 
"Electrode Current [A/m^2]" 
"CV Capacity discharged [A-s/m^2]" 
"Depth of discharge in CV [A-s/m^2]" 
"CV Capacity remaining [A-s/m^2]" 
"Initial CV capacity [A-s/m^2]" 
"Porosity []" 
"Surface Area [m2/m2] (area per area)" 
"Specific current (per particle area) [A/m^2]" 
"Control volume thickness [m]" 
"MoleDens Li_C6-bulk [kmol/m^3]" 
"MoleDens V_C6-bulk [kmol/m^3]" 
"qHeat_accum [J/m3]" 
"qHeat_step [W/m3]" 
"Joule_Lyte [W/m3]" 
"Joule_Solid [W/m3]" 
"electrodHeat [W/m3]" 
"OverpotHeat [W/m3]" 
"deltaSHeat [W/m3]" 

ZONE T = "ANOD, 0.0000E+00", I = 10, SOLUTIONTIME = 0.000000E+00
ZONETYPE = ORDERED
DATAPACKING = BLOCK
STRANDID = 1
 0.0000000000000E+00  8.7488888888889E-05  1.7497777777778E-04  2.6246666666667E-04  3.4995555555556E-04  4.3744444444444E-04  5.2493333333333E-04  6.1242222222222E-04  6.9991111111111E-04  7.8740000000000E-04 
 0.0000000000000E+00  0.0000000000000E+00  0.0000000000000E+00  0.0000000000000E+00  0.0000000000000E+00  0.0000000000000E+00  0.0000000000000E+00  0.0000000000000E+00  0.0000000000000E+00  0.0000000000000E+00 
 9.2000000000000E-01  9.2000000000000E-01  9.2000000000000E-01  9.2000000000000E-01  9.2000000000000E-01  9.2000000000000E-01  9.2000000000000E-01  9.2000000000000E-01  9.2000000000000E-01  9.2000000000000E-01 
 4.0000000000000E-02  4.0000000000000E-02  4.0000000000000E-02  4.0000000000000E-02  4.0000000000000E-02  4.0000000000000E-02  4.0000000000000E-02  4.0000000000000E-02  4.0000000000000E-02  4.0000000000000E-02 
 4.0000000000000E-02  4.0000000000000E-02  4.0000000000000E-02  4.0000000000000E-02  4.0000000000000E-02  4.0000000000000E-02  4.0000000000000E-02  4.0000000000000E-02  4.0000000000000E-02  4.0000000000000E-02 
-7.0000000000000E-02 -7.0000000000000E-02 -7.0000000000000E-02 -7.0000000000000E-02 -7.0000000000000E-02 -7.0000000000000E-02 -7.0000000000000E-02 -7.0000000000000E-02 -7.0000000000000E-02 -7.0000000000000E-02 
 0.0000000000000E+00  0.0000000000000E+00  0.0000000000000E+00  0.0000000000000E+00  0.0000000000000E+00  0.0000000000000E+00  0.0000000000000E+00  0.0000000000000E+00  0.0000000000000E+00  0.0000000000000E+00 
 7.0000000000000E-02  7.0000000000000E-02  7.0000000000000E-02  7.0000000000000E-02  7.0000000000000E-02  7.0000000000000E-02  7.0000000000000E-02  7.0000000000000E-02  7.0000000000000E-02  7.0000000000000E-02 
-4.0899179293840E-02 -4.0899179293840E-02 -4.0899179293840E-02 -4.0899179293840E-02 -4.0899179293840E-02 -4.0899179293840E-02 -4.0899179293840E-02 -4.0899179293840E-02 -4.0899179293840E-02 -4.0899179293840E-02 
 1.1089917929384E-01  1.1089917929384E-01  1.1089917929384E-01  1.1089917929384E-01  1.1089917929384E-01  1.1089917929384E-01  1.1089917929384E-01  1.1089917929384E-01  1.1089917929384E-01  1.1089917929384E-01 
 3.0925583987519E+01  6.1851167975038E+01  6.1851167975038E+01  6.1851167975038E+01  6.1851167975038E+01  6.1851167975038E+01  6.1851167975038E+01  6.1851167975038E+01  6.1851167975038E+01  3.0925583987519E+01 
-0.0000000000000E+00 -0.0000000000000E+00 -0.0000000000000E+00 -0.0000000000000E+00 -0.0000000000000E+00 -0.0000000000000E+00 -0.0000000000000E+00 -0.0000000000000E+00 -0.0000000000000E+00 -0.0000000000000E+00 
 0.0000000000000E+00  0.0000000000000E+00  0.0000000000000E+00  0.0000000000000E+00  0.0000000000000E+00  0.0000000000000E+00  0.0000000000000E+00  0.0000000000000E+00  0.0000000000000E+00  3.0925583987519E+01 
 3.0925583987519E+01 -0.0000000000000E+00 -0.0000000000000E+00 -0.0000000000000E+00 -0.0000000000000E+00 -0.0000000000000E+00 -0.0000000000000E+00 -0.0000000000000E+00 -0.0000000000000E+00  0.0000000000000E+00 
 0.0000000000000E+00  0.0000000000000E+00  0.0000000000000E+00  0.0000000000000E+00  0.0000000000000E+00  0.0000000000000E+00  0.0000000000000E+00  0.0000000000000E+00  0.0000000000000E+00  0.0000000000000E+00 
 4.5724222271641E+04  9.1448444543281E+04  9.1448444543281E+04  9.1448444543281E+04  9.1448444543281E+04  9.1448444543281E+04  9.1448444543281E+04  9.1448444543281E+04  9.1448444543281E+04  4.5724222271641E+04 
 3.3835924481014E+05  6.7671848962028E+05  6.7671848962028E+05  6.7671848962028E+05  6.7671848962028E+05  6.7671848962028E+05  6.7671848962028E+05  6.7671848962028E+05  6.7671848962028E+05  3.3835924481014E+05 
 3.8408346708178E+05  7.6816693416356E+05  7.6816693416356E+05  7.6816693416356E+05  7.6816693416356E+05  7.6816693416356E+05  7.6816693416356E+05  7.6816693416356E+05  7.6816693416356E+05  3.8408346708178E+05 
 3.5000000000000E-01  3.5000000000000E-01  3.5000000000000E-01  3.5000000000000E-01  3.5000000000000E-01  3.5000000000000E-01  3.5000000000000E-01  3.5000000000000E-01  3.5000000000000E-01  3.5000000000000E-01 
 8.5301666666667E+00  1.7060333333333E+01  1.7060333333333E+01  1.7060333333333E+01  1.7060333333333E+01  1.7060333333333E+01  1.7060333333333E+01  1.7060333333333E+01  1.7060333333333E+01  8.5301666666667E+00 
 3.6254372506421E+00  3.6254372506421E+00  3.6254372506421E+00  3.6254372506421E+00  3.6254372506421E+00  3.6254372506421E+00  3.6254372506421E+00  3.6254372506421E+00  3.6254372506421E+00  3.6254372506421E+00 
 4.3744444444444E-05  8.7488888888889E-05  8.7488888888889E-05  8.7488888888889E-05  8.7488888888889E-05  8.7488888888889E-05  8.7488888888889E-05  8.7488888888889E-05  8.7488888888889E-05  4.3744444444444E-05 
 8.6666666666667E+01  8.6666666666667E+01  8.6666666666667E+01  8.6666666666667E+01  8.6666666666667E+01  8.6666666666667E+01  8.6666666666667E+01  8.6666666666667E+01  8.6666666666667E+01  8.6666666666667E+01 
 2.1666666666667E+01  2.1666666666667E+01  2.1666666666667E+01  2.1666666666667E+01  2.1666666666667E+01  2.1666666666667E+01  2.1666666666667E+01  2.1666666666667E+01  2.1666666666667E+01  2.1666666666667E+01 
 0.0000000000000E+00  0.0000000000000E+00  0.0000000000000E+00  0.0000000000000E+00  0.0000000000000E+00  0.0000000000000E+00  0.0000000000000E+00  0.0000000000000E+00  0.0000000000000E+00  0.0000000000000E+00 
 0.0000000000000E+00  0.0000000000000E+00  0.0000000000000E+00  0.0000000000000E+00  0.0000000000000E+00  0.0000000000000E+00  0.0000000000000E+00  0.0000000000000E+00  0.0000000000000E+00  0.0000000000000E+00 
 0.0000000000000E+00  0.0000000000000E+00  0.0000000000000E+00  0.0000000000000E+00  0.0000000000000E+00  0.0000000000000E+00  0.0000000000000E+00  0.0000000000000E+00  0.0000000000000E+00  0.0000000000000E+00 
 0.0000000000000E+00  0.0000000000000E+00  0.0000000000000E+00  0.0000000000000E+00  0.0000000000000E+00  0.0000000000000E+00  0.0000000000000E+00  0.0000000000000E+00  0.0000000000000E+00  0.0000000000000E+00 
 0.0000000000000E+00  0.0000000000000E+00  0.0000000000000E+00  0.0000000000000E+00  0.0000000000000E+00  0.0000000000000E+00  0.0000000000000E+00  0.0000000000000E+00  0.0000000000000E+00  0.0000000000000E+00 
 0.0000000000000E+00  0.0000000000000E+00  0.0000000000000E+00  0.0000000000000E+00  0.0000000000000E+00  0.0000000000000E+00  0.0000000000000E+00  0.0000000000000E+00  0.0000000000000E+00  0.0000000000000E+00 
 0.0000000000000E+00  0.0000000000000E+00  0.0000000000000E+00  0.0000000000000E+00  0.0000000000000E+00  0.0000000000000E+00  0.0000000000000E+00  0.0000000000000E+00  0.0000000000000E+00  0.0000000000000E+00 
ZONE T = "ANOD, 1.0000E-08", I = 10, SOLUTIONTIME = 1.000000E-08
ZONETYPE = ORDERED
DATAPACKING = BLOCK
STRANDID = 1
 0.0000000000000E+00  8.7488888888889E-05  1.7497777777778E-04  2.6246666666667E-04  3.4995555555556E-04  4.3744444444444E-04  5.2493333333333E-04  6.1242222222222E-04  6.9991111111111E-04  7.8740000000000E-04 
 1.1589917777536E-09  3.4769775411435E-09  5.7949719426338E-09  8.1129814124622E-09  1.0431012381870E-08  1.2749071281211E-08  1.5067164541169E-08  1.7385298592784E-08  1.9703479866726E-08  2.0862597330517E-08 
 9.1999999999930E-01  9.1999999999930E-01  9.1999999999930E-01  9.1999999999930E-01  9.1999999999930E-01  9.1999999999930E-01  9.1999999999930E-01  9.1999999999930E-01  9.1999999999930E-01  9.1999999999971E-01 
 4.0000000000348E-02  4.0000000000348E-02  4.0000000000348E-02  4.0000000000348E-02  4.0000000000348E-02  4.0000000000348E-02  4.0000000000348E-02  4.0000000000348E-02  4.0000000000348E-02  4.0000000000144E-02 
 4.0000000000348E-02  4.0000000000348E-02  4.0000000000348E-02  4.0000000000348E-02  4.0000000000348E-02  4.0000000000348E-02  4.0000000000348E-02  4.0000000000348E-02  4.0000000000348E-02  4.0000000000144E-02 
 2.9159838012744E-02  2.9159822285640E-02  2.9159775104280E-02  2.9159696468575E-02  2.9159586378294E-02  2.9159444833144E-02  2.9159271832774E-02  2.9159067376686E-02  2.9158831464342E-02  2.9158564095109E-02 
 0.0000000000000E+00 -4.7371276069759E-09 -8.9169666343098E-09 -1.2539515005236E-08 -1.5604769097033E-08 -1.8112723740787E-08 -2.0063372221604E-08 -2.1456706278525E-08 -2.2292716104449E-08 -2.2571390346215E-08 
-2.9159838012744E-02 -2.9159827022767E-02 -2.9159784021247E-02 -2.9159709008090E-02 -2.9159601983063E-02 -2.9159462945868E-02 -2.9159291896146E-02 -2.9159088833392E-02 -2.9158853757058E-02 -2.9158586666499E-02 
-4.0899179293536E-02 -4.0899179293536E-02 -4.0899179293536E-02 -4.0899179293536E-02 -4.0899179293540E-02 -4.0899179293540E-02 -4.0899179293540E-02 -4.0899179293540E-02 -4.0899179293540E-02 -4.0899179293671E-02 
 1.1739341280793E-02  1.1739352270769E-02  1.1739395272290E-02  1.1739470285447E-02  1.1739577310477E-02  1.1739716347672E-02  1.1739887397394E-02  1.1740090460147E-02  1.1740325536482E-02  1.1740592627172E-02 
 1.6690490555527E+00  3.3381012903003E+00  3.3381137298388E+00  3.3381354297525E+00  3.3381663901190E+00  3.3382066110359E+00  3.3382560926248E+00  3.3383148350525E+00  3.3383828385023E+00  1.6692300515947E+00 
 8.6491903828082E-09  2.5947597409267E-08  4.3246053833955E-08  6.0544636877239E-08  7.7843380612674E-08  9.5142318646030E-08  1.1244152948367E-07  1.2974103667235E-07  1.4704096439668E-07  1.4704096439668E-07 
 0.0000000000000E+00  3.3380827105387E+00  6.6761727212860E+00  1.0014279714858E+01  1.3352414429856E+01  1.6690583396039E+01  2.0028797430801E+01  2.3367066380423E+01  2.6705397540841E+01  3.0043809981387E+01 
 3.0043810417125E+01  2.6705719299713E+01  2.3367628956220E+01  2.0029521543145E+01  1.6691387799712E+01  1.3353218465063E+01  1.0015004278737E+01  6.6767359797805E+00  3.3384043072497E+00  0.0000000000000E+00 
 1.6690490555527E-08  3.3381012903003E-08  3.3381137298388E-08  3.3381354297525E-08  3.3381663901190E-08  3.3382066110359E-08  3.3382560926248E-08  3.3383148350525E-08  3.3383828385023E-08  1.6692300515947E-08 
 4.5724222271657E+04  9.1448444543315E+04  9.1448444543315E+04  9.1448444543315E+04  9.1448444543315E+04  9.1448444543315E+04  9.1448444543315E+04  9.1448444543315E+04  9.1448444543315E+04  4.5724222271657E+04 
 3.3835924481012E+05  6.7671848962025E+05  6.7671848962025E+05  6.7671848962025E+05  6.7671848962025E+05  6.7671848962025E+05  6.7671848962025E+05  6.7671848962025E+05  6.7671848962025E+05  3.3835924481012E+05 
 3.8408346708178E+05  7.6816693416356E+05  7.6816693416356E+05  7.6816693416356E+05  7.6816693416356E+05  7.6816693416356E+05  7.6816693416356E+05  7.6816693416356E+05  7.6816693416356E+05  3.8408346708178E+05 
 3.5000000000000E-01  3.5000000000000E-01  3.5000000000000E-01  3.5000000000000E-01  3.5000000000000E-01  3.5000000000000E-01  3.5000000000000E-01  3.5000000000000E-01  3.5000000000000E-01  3.5000000000000E-01 
 8.5301666666667E+00  1.7060333333333E+01  1.7060333333333E+01  1.7060333333333E+01  1.7060333333333E+01  1.7060333333333E+01  1.7060333333333E+01  1.7060333333333E+01  1.7060333333333E+01  8.5301666666667E+00 
 1.9566429599492E-01  1.9566448234503E-01  1.9566521149482E-01  1.9566648344615E-01  1.9566829820357E-01  1.9567065577280E-01  1.9567355616097E-01  1.9567699937784E-01  1.9568098543418E-01  1.9568551434259E-01 
 4.3744444444444E-05  8.7488888888889E-05  8.7488888888889E-05  8.7488888888889E-05  8.7488888888889E-05  8.7488888888889E-05  8.7488888888889E-05  8.7488888888889E-05  8.7488888888889E-05  4.3744444444444E-05 
 8.6666666666663E+01  8.6666666666663E+01  8.6666666666663E+01  8.6666666666663E+01  8.6666666666663E+01  8.6666666666663E+01  8.6666666666663E+01  8.6666666666663E+01  8.6666666666663E+01  8.6666666666663E+01 
 2.1666666666671E+01  2.1666666666671E+01  2.1666666666671E+01  2.1666666666671E+01  2.1666666666671E+01  2.1666666666671E+01  2.1666666666671E+01  2.1666666666671E+01  2.1666666666671E+01  2.1666666666671E+01 
 1.8363935633552E-11  2.8663999570598E-11  6.1478017571217E-11  1.1872010529249E-10  2.0039092359432E-10  3.0649131042265E-10  4.3702249697739E-10  5.9198594680990E-10  7.7138329367480E-10  8.6719067507776E-10 
 1.8363935633552E-03  2.8663999570598E-03  6.1478017571217E-03  1.1872010529249E-02  2.0039092359432E-02  3.0649131042265E-02  4.3702249697739E-02  5.9198594680990E-02  7.7138329367480E-02  8.6719067507776E-02 
 3.0002857924882E-04  1.5001456300423E-03  5.1005062603164E-03  1.1101148981446E-02  1.9502139816961E-02  3.0303562027074E-02  4.3505537725437E-02  5.9108211788912E-02  7.7111745642715E-02  8.6713750615158E-02 
 1.5363649841063E-03  1.3662543270175E-03  1.0472954968053E-03  7.7086154780290E-04  5.3695254247181E-04  3.4556901519041E-04  1.9671197230249E-04  9.0382892078039E-05  2.6583724765134E-05  5.3168926180333E-06 
 0.0000000000000E+00  0.0000000000000E+00  0.0000000000000E+00  0.0000000000000E+00  0.0000000000000E+00  0.0000000000000E+00  0.0000000000000E+00  0.0000000000000E+00  0.0000000000000E+00  0.0000000000000E+00 
 0.0000000000000E+00  0.0000000000000E+00  0.0000000000000E+00  0.0000000000000E+00  0.0000000000000E+00  0.0000000000000E+00  0.0000000000000E+00  0.0000000000000E+00  0.0000000000000E+00  0.0000000000000E+00 
 0.0000000000000E+00  0.0000000000000E+00  0.0000000000000E+00  0.0000000000000E+00  0.0000000000000E+00  0.0000000000000E+00  0.0000000000000E+00  0.0000000000000E+00  0.0000000000000E+00  0.0000000000000E+00 
ZONE T = "ANOD, 2.0000E-08", I = 10, SOLUTIONTIME = 2.000000E-08
ZONETYPE = ORDERED
DATAPACKING = BLOCK
STRANDID = 1
 0.0000000000000E+00  8.7488888888889E-05  1.7497777777778E-04  2.6246666666667E-04  3.4995555555556E-04  4.3744444444444E-04  5.2493333333333E-04  6.1242222222222E-04  6.9991111111111E-04  7.8740000000000E-04 
 1.1589975178151E-09  3.4769947611091E-09  5.7950006425350E-09  8.1130215925884E-09  1.0430700834085E-08  1.2748044797638E-08  1.5065423121676E-08  1.7383205444739E-08  1.9701034990040E-08  2.0860884608686E-08 
 9.1999999999861E-01  9.1999999999861E-01  9.1999999999861E-01  9.1999999999861E-01  9.1999999999861E-01  9.1999999999861E-01  9.1999999999861E-01  9.1999999999861E-01  9.1999999999861E-01  9.1999999999942E-01 
 4.0000000000696E-02  4.0000000000696E-02  4.0000000000696E-02  4.0000000000696E-02  4.0000000000696E-02  4.0000000000696E-02  4.0000000000696E-02  4.0000000000696E-02  4.0000000000696E-02  4.0000000000288E-02 
 4.0000000000696E-02  4.0000000000696E-02  4.0000000000696E-02  4.0000000000696E-02  4.0000000000696E-02  4.0000000000696E-02  4.0000000000696E-02  4.0000000000696E-02  4.0000000000696E-02  4.0000000000288E-02 
 2.9159840206296E-02  2.9159824479111E-02  2.9159777297524E-02  2.9159698661419E-02  2.9159588570592E-02  2.9159447024750E-02  2.9159274023515E-02  2.9159069566421E-02  2.9158833652913E-02  2.9158566282351E-02 
 0.0000000000000E+00 -4.7371510663109E-09 -8.9170107929888E-09 -1.2539577103260E-08 -1.5604846374335E-08 -1.8112813437397E-08 -2.0063471577587E-08 -2.1456812533980E-08 -2.2292826499559E-08 -2.2571502121187E-08 
-2.9159840206296E-02 -2.9159829216262E-02 -2.9159786214535E-02 -2.9159711200997E-02 -2.9159604175439E-02 -2.9159465137564E-02 -2.9159294086987E-02 -2.9159091023233E-02 -2.9158855945739E-02 -2.9158588853853E-02 
-4.0899179293241E-02 -4.0899179293241E-02 -4.0899179293241E-02 -4.0899179293241E-02 -4.0899179293240E-02 -4.0899179293240E-02 -4.0899179293240E-02 -4.0899179293240E-02 -4.0899179293240E-02 -4.0899179293502E-02 
 1.1739339086945E-02  1.1739350076979E-02  1.1739393078706E-02  1.1739468092244E-02  1.1739575117801E-02  1.1739714155676E-02  1.1739885206253E-02  1.1740088270007E-02  1.1740323347501E-02  1.1740590439649E-02 
 1.6690487382417E+00  3.3381006556951E+00  3.3381130952931E+00  3.3381347953169E+00  3.3381657558357E+00  3.3382059769489E+00  3.3382554587847E+00  3.3383142015012E+00  3.3383822052857E+00  1.6692297351926E+00 
 8.6492352103210E-09  2.5947722094032E-08  4.3246273453286E-08  6.0544937252847E-08  7.7843761504689E-08  9.5142794181021E-08  1.1244208328079E-07  1.2974167679688E-07  1.4704176695242E-07  1.4704176695242E-07 
 0.0000000000000E+00  3.3380990659879E+00  6.6762059415825E+00  1.0014329886896E+01  1.3352480162409E+01  1.6690666028970E+01  2.0028896746692E+01  2.3367181576790E+01  2.6705529780226E+01  3.0043950618059E+01 
 3.0043950618096E+01  2.6705851552006E+01  2.3367744676512E+01  2.0029620731207E+01  1.6691470455631E+01  1.3353284589239E+01  1.0015053871372E+01  6.6767690412290E+00  3.3384208378355E+00  0.0000000000000E+00 
 3.3380977937944E-08  6.6762019459955E-08  6.6762268251319E-08  6.6762702250694E-08  6.6763321459547E-08  6.6764125879848E-08  6.6765115514095E-08  6.6766290365536E-08  6.6767650437880E-08  3.3384597867873E-08 
 4.5724222271674E+04  9.1448444543348E+04  9.1448444543348E+04  9.1448444543348E+04  9.1448444543348E+04  9.1448444543348E+04  9.1448444543348E+04  9.1448444543348E+04  9.1448444543348E+04  4.5724222271674E+04 
 3.3835924481011E+05  6.7671848962021E+05  6.7671848962021E+05  6.7671848962021E+05  6.7671848962021E+05  6.7671848962021E+05  6.7671848962021E+05  6.7671848962021E+05  6.7671848962021E+05  3.3835924481011E+05 
 3.8408346708178E+05  7.6816693416356E+05  7.6816693416356E+05  7.6816693416356E+05  7.6816693416356E+05  7.6816693416356E+05  7.6816693416356E+05  7.6816693416356E+05  7.6816693416356E+05  3.8408346708178E+05 
 3.5000000000000E-01  3.5000000000000E-01  3.5000000000000E-01  3.5000000000000E-01  3.5000000000000E-01  3.5000000000000E-01  3.5000000000000E-01  3.5000000000000E-01  3.5000000000000E-01  3.5000000000000E-01 
 8.5301666666667E+00  1.7060333333333E+01  1.7060333333333E+01  1.7060333333333E+01  1.7060333333333E+01  1.7060333333333E+01  1.7060333333333E+01  1.7060333333333E+01  1.7060333333333E+01  8.5301666666667E+00 
 1.9566425879624E-01  1.9566444514733E-01  1.9566517430060E-01  1.9566644625839E-01  1.9566826102474E-01  1.9567061860547E-01  1.9567351900811E-01  1.9567696224192E-01  1.9568094831788E-01  1.9568547725046E-01 
 4.3744444444444E-05  8.7488888888889E-05  8.7488888888889E-05  8.7488888888889E-05  8.7488888888889E-05  8.7488888888889E-05  8.7488888888889E-05  8.7488888888889E-05  8.7488888888889E-05  4.3744444444444E-05 
 8.6666666666659E+01  8.6666666666659E+01  8.6666666666659E+01  8.6666666666659E+01  8.6666666666659E+01  8.6666666666659E+01  8.6666666666659E+01  8.6666666666659E+01  8.6666666666659E+01  8.6666666666659E+01 
 2.1666666666675E+01  2.1666666666675E+01  2.1666666666675E+01  2.1666666666675E+01  2.1666666666675E+01  2.1666666666675E+01  2.1666666666675E+01  2.1666666666675E+01  2.1666666666675E+01  2.1666666666675E+01 
 3.6728054536223E-11  5.7328279765815E-11  1.2295664954116E-10  2.3744139723099E-10  4.0078381890091E-10  6.1298565877762E-10  8.7404932541399E-10  1.1839777308463E-09  1.5427742284229E-09  1.7343899658528E-09 
 1.8364118902672E-03  2.8664280195217E-03  6.1478631969944E-03  1.1872129193850E-02  2.0039289530659E-02  3.0649434835497E-02  4.3702682843660E-02  5.9199178403640E-02  7.7139093474814E-02  8.6719929077502E-02 
 6.0006026851325E-04  3.0003057905566E-03  1.0201063587721E-02  2.2202408992712E-02  3.9004471487141E-02  6.0607424424903E-02  8.7011506648616E-02  1.1821700640537E-01  1.5422425512950E-01  1.7342836274739E-01 
 3.0727451851091E-03  2.7325221860249E-03  2.0946013663949E-03  1.5417307303871E-03  1.0739104029496E-03  6.9114145285871E-04  3.9342589278303E-04  1.8076667926488E-04  5.3167712798428E-05  1.0633837889616E-05 
 0.0000000000000E+00  0.0000000000000E+00  0.0000000000000E+00  0.0000000000000E+00  0.0000000000000E+00  0.0000000000000E+00  0.0000000000000E+00  0.0000000000000E+00  0.0000000000000E+00  0.0000000000000E+00 
 0.0000000000000E+00  0.0000000000000E+00  0.0000000000000E+00  0.0000000000000E+00  0.0000000000000E+00  0.0000000000000E+00  0.0000000000000E+00  0.0000000000000E+00  0.0000000000000E+00  0.0000000000000E+00 
 0.0000000000000E+00  0.0000000000000E+00  0.0000000000000E+00  0.0000000000000E+00  0.0000000000000E+00  0.0000000000000E+00  0.0000000000000E+00  0.0000000000000E+00  0.0000000000000E+00  0.0000000000000E+00 
ZONE T = "ANOD, 3.0000E-08", I = 10, SOLUTIONTIME = 3.000000E-08
ZONETYPE = ORDERED
DATAPACKING = BLOCK
STRANDID = 1
 0.0000000000000E+00  8.7488888888889E-05  1.7497777777778E-04  2.6246666666667E-04  3.4995555555556E-04  4.3744444444444E-04  5.2493333333333E-04  6.1242222222222E-04  6.9991111111111E-04  7.8740000000000E-04 
 1.1589975177982E-09  3.4769947610583E-09  5.7950006424504E-09  8.1130215924700E-09  1.0431427249389E-08  1.2750224043819E-08  1.5069055198735E-08  1.7387563937219E-08  1.9706119897943E-08  2.0864516685671E-08 
 9.1999999999791E-01  9.1999999999791E-01  9.1999999999791E-01  9.1999999999791E-01  9.1999999999791E-01  9.1999999999791E-01  9.1999999999791E-01  9.1999999999791E-01  9.1999999999791E-01  9.1999999999914E-01 
 4.0000000001045E-02  4.0000000001045E-02  4.0000000001045E-02  4.0000000001045E-02  4.0000000001045E-02  4.0000000001045E-02  4.0000000001045E-02  4.0000000001045E-02  4.0000000001045E-02  4.0000000000432E-02 
 4.0000000001045E-02  4.0000000001045E-02  4.0000000001045E-02  4.0000000001045E-02  4.0000000001045E-02  4.0000000001045E-02  4.0000000001045E-02  4.0000000001045E-02  4.0000000001045E-02  4.0000000000432E-02 
 2.9159840206225E-02  2.9159824479039E-02  2.9159777297453E-02  2.9159698661348E-02  2.9159588570521E-02  2.9159447024679E-02  2.9159274023444E-02  2.9159069566350E-02  2.9158833652842E-02  2.9158566282280E-02 
 0.0000000000000E+00 -4.7371510662445E-09 -8.9170107928641E-09 -1.2539577103085E-08 -1.5604846374118E-08 -1.8112813437146E-08 -2.0063471577310E-08 -2.1456812533686E-08 -2.2292826499255E-08 -2.2571502120881E-08 
-2.9159840206225E-02 -2.9159829216191E-02 -2.9159786214464E-02 -2.9159711200925E-02 -2.9159604175367E-02 -2.9159465137493E-02 -2.9159294086916E-02 -2.9159091023162E-02 -2.9158855945668E-02 -2.9158588853782E-02 
-4.0899179292941E-02 -4.0899179292941E-02 -4.0899179292941E-02 -4.0899179292941E-02 -4.0899179292941E-02 -4.0899179292941E-02 -4.0899179292941E-02 -4.0899179292941E-02 -4.0899179292941E-02 -4.0899179293334E-02 
 1.1739339086716E-02  1.1739350076750E-02  1.1739393078477E-02  1.1739468092015E-02  1.1739575117573E-02  1.1739714155448E-02  1.1739885206025E-02  1.1740088269778E-02  1.1740323347272E-02  1.1740590439552E-02 
 1.6690487382174E+00  3.3381006556464E+00  3.3381130952444E+00  3.3381347952682E+00  3.3381657557873E+00  3.3382059769004E+00  3.3382554587363E+00  3.3383142014527E+00  3.3383822052374E+00  1.6692297351831E+00 
 8.6492352103963E-09  2.5947722094258E-08  4.3246273451755E-08  6.0544937251119E-08  7.7843761503459E-08  9.5142794175778E-08  1.1244208327986E-07  1.2974167679453E-07  1.4704183906833E-07  1.4704183906833E-07 
 0.0000000000000E+00  3.3380990660169E+00  6.6762059414565E+00  1.0014329886799E+01  1.3352480162341E+01  1.6690666028563E+01  2.0028896746314E+01  2.3367181576626E+01  2.6705529779870E+01  3.0043950617488E+01 
 3.0043950617674E+01  2.6705851551633E+01  2.3367744676188E+01  2.0029620730931E+01  1.6691470455404E+01  1.3353284589060E+01  1.0015053871241E+01  6.6767690411469E+00  3.3384208378018E+00  0.0000000000000E+00 
 5.0071465320118E-08  1.0014302601642E-07  1.0014339920376E-07  1.0014405020338E-07  1.0014497901742E-07  1.0014618564885E-07  1.0014767010146E-07  1.0014943238006E-07  1.0015147249025E-07  5.0076895219704E-08 
 4.5724222271691E+04  9.1448444543381E+04  9.1448444543381E+04  9.1448444543381E+04  9.1448444543381E+04  9.1448444543381E+04  9.1448444543381E+04  9.1448444543381E+04  9.1448444543381E+04  4.5724222271691E+04 
 3.3835924481009E+05  6.7671848962018E+05  6.7671848962018E+05  6.7671848962018E+05  6.7671848962018E+05  6.7671848962018E+05  6.7671848962018E+05  6.7671848962018E+05  6.7671848962018E+05  3.3835924481009E+05 
 3.8408346708178E+05  7.6816693416356E+05  7.6816693416356E+05  7.6816693416356E+05  7.6816693416356E+05  7.6816693416356E+05  7.6816693416356E+05  7.6816693416356E+05  7.6816693416356E+05  3.8408346708178E+05 
 3.5000000000000E-01  3.5000000000000E-01  3.5000000000000E-01  3.5000000000000E-01  3.5000000000000E-01  3.5000000000000E-01  3.5000000000000E-01  3.5000000000000E-01  3.5000000000000E-01  3.5000000000000E-01 
 8.5301666666667E+00  1.7060333333333E+01  1.7060333333333E+01  1.7060333333333E+01  1.7060333333333E+01  1.7060333333333E+01  1.7060333333333E+01  1.7060333333333E+01  1.7060333333333E+01  8.5301666666667E+00 
 1.9566425879338E-01  1.9566444514447E-01  1.9566517429775E-01  1.9566644625554E-01  1.9566826102190E-01  1.9567061860263E-01  1.9567351900527E-01  1.9567696223907E-01  1.9568094831504E-01  1.9568547724935E-01 
 4.3744444444444E-05  8.7488888888889E-05  8.7488888888889E-05  8.7488888888889E-05  8.7488888888889E-05  8.7488888888889E-05  8.7488888888889E-05  8.7488888888889E-05  8.7488888888889E-05  4.3744444444444E-05 
 8.6666666666655E+01  8.6666666666655E+01  8.6666666666655E+01  8.6666666666655E+01  8.6666666666655E+01  8.6666666666655E+01  8.6666666666655E+01  8.6666666666655E+01  8.6666666666655E+01  8.6666666666655E+01 
 2.1666666666679E+01  2.1666666666679E+01  2.1666666666679E+01  2.1666666666679E+01  2.1666666666679E+01  2.1666666666679E+01  2.1666666666679E+01  2.1666666666679E+01  2.1666666666679E+01  2.1666666666679E+01 
 5.5092173438490E-11  8.5992559960781E-11  1.8443528150795E-10  3.5616268916694E-10  6.0117671420309E-10  9.1948000711462E-10  1.3110761538312E-09  1.7759695148693E-09  2.3141651631443E-09  2.6015892565881E-09 
 1.8364118902267E-03  2.8664280194966E-03  6.1478631966788E-03  1.1872129193595E-02  2.0039289530218E-02  3.0649434833700E-02  4.3702682841717E-02  5.9199178402299E-02  7.7139093472131E-02  8.6719929073534E-02 
 9.0009195778029E-04  4.5004659510839E-03  1.5301620914840E-02  3.3303669003743E-02  5.8506803156896E-02  9.0911286820945E-02  1.3051747556986E-01  1.7732580102048E-01  2.3133676461359E-01  2.6014297487565E-01 
 4.6091253860687E-03  4.0987900449941E-03  3.1419072359553E-03  2.3125999129501E-03  1.6108682634128E-03  1.0367138905178E-03  5.9013981325843E-04  2.7115046644948E-04  7.9751700831139E-05  1.5950783161138E-05 
 0.0000000000000E+00  0.0000000000000E+00  0.0000000000000E+00  0.0000000000000E+00  0.0000000000000E+00  0.0000000000000E+00  0.0000000000000E+00  0.0000000000000E+00  0.0000000000000E+00  0.0000000000000E+00 
 0.0000000000000E+00  0.0000000000000E+00  0.0000000000000E+00  0.0000000000000E+00  0.0000000000000E+00  0.0000000000000E+00  0.0000000000000E+00  0.0000000000000E+00  0.0000000000000E+00  0.0000000000000E+00 
 0.0000000000000E+00  0.0000000000000E+00  0.0000000000000E+00  0.0000000000000E+00  0.0000000000000E+00  0.0000000000000E+00  0.0000000000000E+00  0.0000000000000E+00  0.0000000000000E+00  0.0000000000000E+00 
ZONE T = "ANOD, 4.0000E-08", I = 10, SOLUTIONTIME = 4.000000E-08
ZONETYPE = ORDERED
DATAPACKING = BLOCK
STRANDID = 1
 0.0000000000000E+00  8.7488888888889E-05  1.7497777777778E-04  2.6246666666667E-04  3.4995555555556E-04  4.3744444444444E-04  5.2493333333333E-04  6.1242222222222E-04  6.9991111111111E-04  7.8740000000000E-04 
 1.1584527061897E-09  3.4764499494162E-09  5.7944558307746E-09  8.1124767807605E-09  1.0429429606734E-08  1.2746410362492E-08  1.5064515101918E-08  1.7382660632641E-08  1.9700853385603E-08  2.0859976588779E-08 
 9.1999999999721E-01  9.1999999999721E-01  9.1999999999721E-01  9.1999999999721E-01  9.1999999999721E-01  9.1999999999721E-01  9.1999999999721E-01  9.1999999999721E-01  9.1999999999721E-01  9.1999999999885E-01 
 4.0000000001393E-02  4.0000000001393E-02  4.0000000001393E-02  4.0000000001393E-02  4.0000000001393E-02  4.0000000001393E-02  4.0000000001393E-02  4.0000000001393E-02  4.0000000001393E-02  4.0000000000576E-02 
 4.0000000001393E-02  4.0000000001393E-02  4.0000000001393E-02  4.0000000001393E-02  4.0000000001393E-02  4.0000000001393E-02  4.0000000001393E-02  4.0000000001393E-02  4.0000000001393E-02  4.0000000000576E-02 
 2.9159840206151E-02  2.9159824478965E-02  2.9159777297379E-02  2.9159698661274E-02  2.9159588570447E-02  2.9159447024605E-02  2.9159274023370E-02  2.9159069566275E-02  2.9158833652768E-02  2.9158566282206E-02 
 0.0000000000000E+00 -4.7371510661778E-09 -8.9170107927389E-09 -1.2539577102909E-08 -1.5604846373900E-08 -1.8112813436894E-08 -2.0063471577032E-08 -2.1456812533389E-08 -2.2292826498949E-08 -2.2571502120574E-08 
-2.9159840206151E-02 -2.9159829216117E-02 -2.9159786214390E-02 -2.9159711200851E-02 -2.9159604175293E-02 -2.9159465137419E-02 -2.9159294086842E-02 -2.9159091023088E-02 -2.9158855945594E-02 -2.9158588853708E-02 
-4.0899179292638E-02 -4.0899179292638E-02 -4.0899179292638E-02 -4.0899179292638E-02 -4.0899179292637E-02 -4.0899179292637E-02 -4.0899179292637E-02 -4.0899179292637E-02 -4.0899179292637E-02 -4.0899179293161E-02 
 1.1739339086487E-02  1.1739350076522E-02  1.1739393078249E-02  1.1739468091787E-02  1.1739575117344E-02  1.1739714155218E-02  1.1739885205795E-02  1.1740088269549E-02  1.1740323347043E-02  1.1740590439454E-02 
 1.6690487381931E+00  3.3381006555980E+00  3.3381130951958E+00  3.3381347952196E+00  3.3381657557385E+00  3.3382059768517E+00  3.3382554586875E+00  3.3383142014039E+00  3.3383822051885E+00  1.6692297351734E+00 