TITLE = "Solution on Domain BulkDomain1D_2"
VARIABLES = "x [m]"  
"Vel_axial(0)" 	"MF_sp(ECDMC)" 	"MF_sp(Li+)" 	"MF_sp(PF6-)" 	"Volt(Electroly)" 	"Volt(CathodeVo)" 	
"Potential Drop Electrode-Electrolyte [V]" 	"Surf_0 Equilibrium Potential Drop Electrode-Electrolyte [V]" 	"Overpotential_0 [V]" 	"Current Source [A/m^2]" 	"Li+ flux [kmol/m^2/s]" 	"Electrolyte Current [A/m^2]" 	"Electrode Current [A/m^2]" 	
"Capacity discharged [A-s]" 	"Depth of discharge [-]" 	"Capacity remaining [A-s]" 	"Initial capacity [A-s]" 	"Porosity []" 	"Surface Area [m2/m2] (area per area)" 	"Specific current (per particle area) [A/m^2]" 	"Control volume thickness [m]" 	
"Moles LiCoO2 [mol/m^2] (per electrode area)" 	"Moles CoO2 [mol/m^2] (per electrode area)" 	

ZONE T = "t = 0 [s]" I = 10 SOLUTIONTIME = 0.0000000000000E+00
0.00127 	0 	0.92 	0.04 	0.04 	-0.07 	3.8 	
0 	0 	0 	0 	0 	0.119132 	0 	
0 	0 	0 	0 	0.35 	6.604 	-0.0360787 	3.38667e-05 	
0.000900955 	0.000600637 	
0.00133773 	0 	0.92 	0.04 	0.04 	-0.07 	3.8 	
0 	0 	0 	0 	0 	0 	-0 	
0 	0 	0 	0 	0.35 	13.208 	-0.0360787 	6.77333e-05 	
0.00180191 	0.00120127 	
0.00140547 	0 	0.92 	0.04 	0.04 	-0.07 	3.8 	
0 	0 	0 	0 	0 	0 	-0 	
0 	0 	0 	0 	0.35 	13.208 	-0.0360787 	6.77333e-05 	
0.00180191 	0.00120127 	
0.0014732 	0 	0.92 	0.04 	0.04 	-0.07 	3.8 	
0 	0 	0 	0 	0 	0 	-0 	
0 	0 	0 	0 	0.35 	13.208 	-0.0360787 	6.77333e-05 	
0.00180191 	0.00120127 	
0.00154093 	0 	0.92 	0.04 	0.04 	-0.07 	3.8 	
0 	0 	0 	0 	0 	0 	-0 	
0 	0 	0 	0 	0.35 	13.208 	-0.0360787 	6.77333e-05 	
0.00180191 	0.00120127 	
0.00160867 	0 	0.92 	0.04 	0.04 	-0.07 	3.8 	
0 	0 	0 	0 	0 	0 	-0 	
0 	0 	0 	0 	0.35 	13.208 	-0.0360787 	6.77333e-05 	
0.00180191 	0.00120127 	
0.0016764 	0 	0.92 	0.04 	0.04 	-0.07 	3.8 	
0 	0 	0 	0 	0 	0 	-0 	
0 	0 	0 	0 	0.35 	13.208 	-0.0360787 	6.77333e-05 	
0.00180191 	0.00120127 	
0.00174413 	0 	0.92 	0.04 	0.04 	-0.07 	3.8 	
0 	0 	0 	0 	0 	0 	-0 	
0 	0 	0 	0 	0.35 	13.208 	-0.0360787 	6.77333e-05 	
0.00180191 	0.00120127 	
0.00181187 	0 	0.92 	0.04 	0.04 	-0.07 	3.8 	
0 	0 	0 	0 	0 	0 	-0 	
0 	0 	0 	0 	0.35 	13.208 	-0.0360787 	6.77333e-05 	
0.00180191 	0.00120127 	
0.0018796 	0 	0.92 	0.04 	0.04 	-0.07 	3.8 	
0 	0 	0 	0 	0 	0 	0.119132 	
0 	0 	0 	0 	0.35 	6.604 	-0.0360787 	3.38667e-05 	
0.000900955 	0.000600637 	
ZONE T = "t = 1e-08 [s]" I = 10 SOLUTIONTIME = 1.0000000000000E-08
0.00127 	3.37179e-08 	0.92 	0.04 	0.04 	0.0211323 	3.80016 	
3.87 	3.97141 	-0.101414 	-0.238264 	-0 	49.983 	1.42662 	
-0 	7244.08 	123.46 	141.616 	0.35 	6.604 	-0.432047 	3.38667e-05 	
0.000900955 	0.000600637 	
0.00133773 	2.97551e-08 	0.92 	0.04 	0.04 	0.021132 	3.80015 	
3.87 	3.97141 	-0.101414 	-0.476527 	-0 	45.7031 	5.70656 	
-0 	14488.2 	246.919 	283.231 	0.35 	13.208 	-0.43206 	6.77333e-05 	
0.00180191 	0.00120127 	
0.00140547 	2.5792e-08 	0.92 	0.04 	0.04 	0.0211317 	3.80015 	
3.87 	3.97141 	-0.101414 	-0.476527 	-0 	39.9962 	11.4135 	
-0 	14488.2 	246.919 	283.231 	0.35 	13.208 	-0.432106 	6.77333e-05 	
0.00180191 	0.00120127 	
0.0014732 	2.18281e-08 	0.92 	0.04 	0.04 	0.0211314 	3.80014 	
3.87 	3.97141 	-0.101414 	-0.476527 	-0 	34.2884 	17.1213 	
-0 	14488.2 	246.919 	283.231 	0.35 	13.208 	-0.432185 	6.77333e-05 	
0.00180191 	0.00120127 	
0.00154093 	1.78632e-08 	0.92 	0.04 	0.04 	0.0211312 	3.80013 	
3.87 	3.97141 	-0.101414 	-0.476527 	-0 	28.5793 	22.8303 	
-0 	14488.2 	246.919 	283.231 	0.35 	13.208 	-0.432297 	6.77333e-05 	
0.00180191 	0.00120127 	
0.00160867 	1.3897e-08 	0.92 	0.04 	0.04 	0.021131 	3.80011 	
3.87 	3.97141 	-0.101414 	-0.476527 	-0 	22.8686 	28.541 	
-0 	14488.2 	246.919 	283.231 	0.35 	13.208 	-0.432442 	6.77333e-05 	
0.00180191 	0.00120127 	
0.0016764 	9.92912e-09 	0.92 	0.04 	0.04 	0.0211308 	3.80009 	
3.87 	3.97141 	-0.101414 	-0.476527 	-0 	17.1557 	34.2539 	
-0 	14488.2 	246.919 	283.231 	0.35 	13.208 	-0.43262 	6.77333e-05 	
0.00180191 	0.00120127 	
0.00174413 	5.95932e-09 	0.92 	0.04 	0.04 	0.0211307 	3.80006 	
3.87 	3.97141 	-0.101414 	-0.476527 	-0 	11.4403 	39.9693 	
-0 	14488.2 	246.919 	283.231 	0.35 	13.208 	-0.432831 	6.77333e-05 	
0.00180191 	0.00120127 	
0.00181187 	1.98729e-09 	0.92 	0.04 	0.04 	0.0211307 	3.80003 	
3.87 	3.97141 	-0.101414 	-0.476527 	-0 	5.72188 	45.6878 	
-0 	14488.2 	246.919 	283.231 	0.35 	13.208 	-0.433075 	6.77333e-05 	
0.00180191 	0.00120127 	
0.0018796 	0 	0.92 	0.04 	0.04 	0.0211306 	3.8 	
3.87 	3.97141 	-0.101414 	-0.238264 	-0 	1.43093 	49.9787 	
-0 	7244.08 	123.46 	141.616 	0.35 	6.604 	-0.433352 	3.38667e-05 	
0.000900955 	0.000600637 	
ZONE T = "t = 2e-08 [s]" I = 10 SOLUTIONTIME = 2.0000000000000E-08
0.00127 	1.97216e-08 	0.92 	0.04 	0.04 	0.0291555 	3.80009 	
3.77902 	3.97141 	-0.19239 	-2.85324 	2.51626e-07 	29.2355 	0.834797 	
7.15106e-11 	7244.08 	123.46 	141.616 	0.35 	6.604 	-0.252816 	3.38667e-05 	
0.000900955 	0.000600637 	
0.00133773 	1.74028e-08 	0.92 	0.04 	0.04 	0.0291553 	3.80009 	
3.77902 	3.97141 	-0.192392 	-5.70665 	2.22053e-07 	26.7311 	3.33922 	
1.43026e-10 	14488.2 	246.919 	283.231 	0.35 	13.208 	-0.25282 	6.77333e-05 	
0.00180191 	0.00120127 	
0.00140547 	1.50839e-08 	0.92 	0.04 	0.04 	0.0291551 	3.80009 	
3.77902 	3.97141 	-0.192397 	-5.70726 	1.92478e-07 	23.3917 	6.67857 	
1.43041e-10 	14488.2 	246.919 	283.231 	0.35 	13.208 	-0.252836 	6.77333e-05 	
0.00180191 	0.00120127 	
0.0014732 	1.27647e-08 	0.92 	0.04 	0.04 	0.029155 	3.80008 	
3.77901 	3.97141 	-0.192406 	-5.7083 	1.62896e-07 	20.0521 	10.0182 	
1.43067e-10 	14488.2 	246.919 	283.231 	0.35 	13.208 	-0.252863 	6.77333e-05 	
0.00180191 	0.00120127 	
0.00154093 	1.04452e-08 	0.92 	0.04 	0.04 	0.0291549 	3.80007 	
3.77899 	3.97141 	-0.19242 	-5.70978 	1.33308e-07 	16.712 	13.3583 	
1.43104e-10 	14488.2 	246.919 	283.231 	0.35 	13.208 	-0.252901 	6.77333e-05 	
0.00180191 	0.00120127 	
0.00160867 	8.12517e-09 	0.92 	0.04 	0.04 	0.0291547 	3.80006 	
3.77898 	3.97141 	-0.192437 	-5.71169 	1.03709e-07 	13.3714 	16.6989 	
1.43152e-10 	14488.2 	246.919 	283.231 	0.35 	13.208 	-0.252951 	6.77333e-05 	
0.00180191 	0.00120127 	
0.0016764 	5.80462e-09 	0.92 	0.04 	0.04 	0.0291547 	3.80005 	
3.77896 	3.97141 	-0.192458 	-5.71404 	7.40979e-08 	10.03 	20.0403 	
1.43211e-10 	14488.2 	246.919 	283.231 	0.35 	13.208 	-0.253012 	6.77333e-05 	
0.00180191 	0.00120127 	
0.00174413 	3.4834e-09 	0.92 	0.04 	0.04 	0.0291546 	3.80004 	
3.77893 	3.97141 	-0.192483 	-5.71683 	4.44726e-08 	6.68774 	23.3826 	
1.43281e-10 	14488.2 	246.919 	283.231 	0.35 	13.208 	-0.253084 	6.77333e-05 	
0.00180191 	0.00120127 	
0.00181187 	1.16142e-09 	0.92 	0.04 	0.04 	0.0291546 	3.80002 	
3.7789 	3.97141 	-0.192512 	-5.72005 	1.48305e-08 	3.34446 	26.7258 	
1.43362e-10 	14488.2 	246.919 	283.231 	0.35 	13.208 	-0.253168 	6.77333e-05 	
0.00180191 	0.00120127 	
0.0018796 	0 	0.92 	0.04 	0.04 	0.0291545 	3.8 	
3.77887 	3.97141 	-0.192545 	-2.86186 	1.48305e-08 	0.836272 	29.234 	
7.17267e-11 	7244.08 	123.46 	141.616 	0.35 	6.604 	-0.253262 	3.38667e-05 	
0.000900955 	0.000600637 	
ZONE T = "t = 3e-08 [s]" I = 10 SOLUTIONTIME = 3.0000000000000E-08
0.00127 	1.97216e-08 	0.92 	0.04 	0.04 	0.0291555 	3.80009 	
3.77094 	3.97141 	-0.200478 	-1.66959 	1.47177e-07 	29.2355 	0.834797 	
1.13356e-10 	7244.08 	123.46 	141.616 	0.35 	6.604 	-0.252816 	3.38667e-05 	
0.000900955 	0.000600637 	
0.00133773 	1.74028e-08 	0.92 	0.04 	0.04 	0.0291553 	3.80009 	
3.77094 	3.97141 	-0.200479 	-3.33925 	1.29872e-07 	26.7311 	3.33922 	
2.26717e-10 	14488.2 	246.919 	283.231 	0.35 	13.208 	-0.25282 	6.77333e-05 	
0.00180191 	0.00120127 	
0.00140547 	1.50839e-08 	0.92 	0.04 	0.04 	0.0291551 	3.80009 	
3.77093 	3.97141 	-0.200482 	-3.33946 	1.12566e-07 	23.3917 	6.67857 	
2.26738e-10 	14488.2 	246.919 	283.231 	0.35 	13.208 	-0.252836 	6.77333e-05 	
0.00180191 	0.00120127 	
0.0014732 	1.27647e-08 	0.92 	0.04 	0.04 	0.029155 	3.80008 	
3.77093 	3.97141 	-0.200488 	-3.33982 	9.5259e-08 	20.0521 	10.0182 	
2.26773e-10 	14488.2 	246.919 	283.231 	0.35 	13.208 	-0.252863 	6.77333e-05 	
0.00180191 	0.00120127 	
0.00154093 	1.04452e-08 	0.92 	0.04 	0.04 	0.0291549 	3.80007 	
3.77092 	3.97141 	-0.200496 	-3.34032 	7.7949e-08 	16.712 	13.3583 	
2.26823e-10 	14488.2 	246.919 	283.231 	0.35 	13.208 	-0.252901 	6.77333e-05 	
0.00180191 	0.00120127 	
0.00160867 	8.12517e-09 	0.92 	0.04 	0.04 	0.0291547 	3.80006 	
3.77091 	3.97141 	-0.200506 	-3.34098 	6.06356e-08 	13.3714 	16.6989 	
2.26887e-10 	14488.2 	246.919 	283.231 	0.35 	13.208 	-0.252951 	6.77333e-05 	
0.00180191 	0.00120127 	
0.0016764 	5.80462e-09 	0.92 	0.04 	0.04 	0.0291547 	3.80005 	
3.7709 	3.97141 	-0.200518 	-3.34178 	4.3318e-08 	10.03 	20.0403 	
2.26966e-10 	14488.2 	246.919 	283.231 	0.35 	13.208 	-0.253012 	6.77333e-05 	
0.00180191 	0.00120127 	
0.00174413 	3.4834e-09 	0.92 	0.04 	0.04 	0.0291546 	3.80004 	
3.77088 	3.97141 	-0.200533 	-3.34274 	2.59955e-08 	6.68774 	23.3825 	
2.2706e-10 	14488.2 	246.919 	283.231 	0.35 	13.208 	-0.253084 	6.77333e-05 	
0.00180191 	0.00120127 	
0.00181187 	1.16142e-09 	0.92 	0.04 	0.04 	0.0291546 	3.80002 	
3.77086 	3.97141 	-0.20055 	-3.34384 	8.66735e-09 	3.34446 	26.7258 	
2.27168e-10 	14488.2 	246.919 	283.231 	0.35 	13.208 	-0.253168 	6.77333e-05 	
0.00180191 	0.00120127 	
0.0018796 	0 	0.92 	0.04 	0.04 	0.0291545 	3.8 	
3.77085 	3.97141 	-0.200569 	-1.67254 	8.66735e-09 	0.836272 	29.234 	
1.13646e-10 	7244.08 	123.46 	141.616 	0.35 	6.604 	-0.253262 	3.38667e-05 	
0.000900955 	0.000600637 	
ZONE T = "t = 4e-08 [s]" I = 10 SOLUTIONTIME = 4.0000000000000E-08
0.00127 	1.97216e-08 	0.92 	0.04 	0.04 	0.0291555 	3.80009 	
3.77094 	3.97141 	-0.200478 	-1.66959 	1.47177e-07 	29.2355 	0.834797 	
1.55201e-10 	7244.08 	123.46 	141.616 	0.35 	6.604 	-0.252816 	3.38667e-05 	
0.000900955 	0.000600637 	
0.00133773 	1.74028e-08 	0.92 	0.04 	0.04 	0.0291553 	3.80009 	
3.77094 	3.97141 	-0.200479 	-3.33925 	1.29872e-07 	26.7311 	3.33922 	
3.10409e-10 	14488.2 	246.919 	283.231 	0.35 	13.208 	-0.25282 	6.77333e-05 	
0.00180191 	0.00120127 	
0.00140547 	1.50839e-08 	0.92 	0.04 	0.04 	0.0291551 	3.80009 	
3.77093 	3.97141 	-0.200482 	-3.33946 	1.12566e-07 	23.3917 	6.67857 	
3.10435e-10 	14488.2 	246.919 	283.231 	0.35 	13.208 	-0.252836 	6.77333e-05 	
0.00180191 	0.00120127 	
0.0014732 	1.27647e-08 	0.92 	0.04 	0.04 	0.029155 	3.80008 	
3.77093 	3.97141 	-0.200488 	-3.33982 	9.5259e-08 	20.0521 	10.0182 	
3.10479e-10 	14488.2 	246.919 	283.231 	0.35 	13.208 	-0.252863 	6.77333e-05 	
0.00180191 	0.00120127 	
0.00154093 	1.04452e-08 	0.92 	0.04 	0.04 	0.0291549 	3.80007 	
3.77092 	3.97141 	-0.200496 	-3.34032 	7.7949e-08 	16.712 	13.3583 	
3.10541e-10 	14488.2 	246.919 	283.231 	0.35 	13.208 	-0.252901 	6.77333e-05 	
0.00180191 	0.00120127 	
0.00160867 	8.12518e-09 	0.92 	0.04 	0.04 	0.0291547 	3.80006 	
3.77091 	3.97141 	-0.200506 	-3.34098 	6.06356e-08 	13.3714 	16.6989 	
3.10622e-10 	14488.2 	246.919 	283.231 	0.35 	13.208 	-0.252951 	6.77333e-05 	
0.00180191 	0.00120127 	
0.0016764 	5.80462e-09 	0.92 	0.04 	0.04 	0.0291547 	3.80005 	
3.7709 	3.97141 	-0.200518 	-3.34178 	4.3318e-08 	10.03 	20.0403 	
3.10721e-10 	14488.2 	246.919 	283.231 	0.35 	13.208 	-0.253012 	6.77333e-05 	
0.00180191 	0.00120127 	
0.00174413 	3.48341e-09 	0.92 	0.04 	0.04 	0.0291546 	3.80004 	
3.77088 	3.97141 	-0.200533 	-3.34274 	2.59955e-08 	6.68775 	23.3826 	
3.10839e-10 	14488.2 	246.919 	283.231 	0.35 	13.208 	-0.253084 	6.77333e-05 	
0.00180191 	0.00120127 	
0.00181187 	1.16143e-09 	0.92 	0.04 	0.04 	0.0291546 	3.80002 	
3.77086 	3.97141 	-0.20055 	-3.34384 	8.66735e-09 	3.34446 	26.7259 	
3.10975e-10 	14488.2 	246.919 	283.231 	0.35 	13.208 	-0.253168 	6.77333e-05 	
0.00180191 	0.00120127 	
0.0018796 	0 	0.92 	0.04 	0.04 	0.0291545 	3.8 	
3.77085 	3.97141 	-0.200569 	-1.67254 	8.66735e-09 	0.836272 	29.234 	
1.55565e-10 	7244.08 	123.46 	141.616 	0.35 	6.604 	-0.253262 	3.38667e-05 	
0.000900955 	0.000600637 	
ZONE T = "t = 5.5e-08 [s]" I = 10 SOLUTIONTIME = 5.5000000000000E-08
0.00127 	1.97216e-08 	0.92 	0.04 	0.04 	0.0291555 	3.80009 	
3.77094 	3.97141 	-0.200478 	-1.66959 	1.47177e-07 	29.2355 	0.834797 	
1.97046e-10 	7244.08 	123.46 	141.616 	0.35 	6.604 	-0.252816 	3.38667e-05 	
0.000900955 	0.000600637 	
0.00133773 	1.74028e-08 	0.92 	0.04 	0.04 	0.0291553 	3.80009 	
3.77094 	3.97141 	-0.200479 	-3.33925 	1.29872e-07 	26.7311 	3.33922 	
3.94101e-10 	14488.2 	246.919 	283.231 	0.35 	13.208 	-0.25282 	6.77333e-05 	
0.00180191 	0.00120127 	
0.00140547 	1.50839e-08 	0.92 	0.04 	0.04 	0.0291551 	3.80009 	
3.77093 	3.97141 	-0.200482 	-3.33946 	1.12566e-07 	23.3917 	6.67857 	
3.94132e-10 	14488.2 	246.919 	283.231 	0.35 	13.208 	-0.252836 	6.77333e-05 	
0.00180191 	0.00120127 	
0.0014732 	1.27647e-08 	0.92 	0.04 	0.04 	0.029155 	3.80008 	
3.77093 	3.97141 	-0.200488 	-3.33982 	9.5259e-08 	20.0521 	10.0182 	
3.94185e-10 	14488.2 	246.919 	283.231 	0.35 	13.208 	-0.252863 	6.77333e-05 	
0.00180191 	0.00120127 	
0.00154093 	1.04452e-08 	0.92 	0.04 	0.04 	0.0291549 	3.80007 	
3.77092 	3.97141 	-0.200496 	-3.34032 	7.7949e-08 	16.712 	13.3583 	
3.9426e-10 	14488.2 	246.919 	283.231 	0.35 	13.208 	-0.252901 	6.77333e-05 	
0.00180191 	0.00120127 	
0.00160867 	8.12518e-09 	0.92 	0.04 	0.04 	0.0291547 	3.80006 	
3.77091 	3.97141 	-0.200506 	-3.34098 	6.06356e-08 	13.3714 	16.6989 	
3.94357e-10 	14488.2 	246.919 	283.231 	0.35 	13.208 	-0.252951 	6.77333e-05 	
0.00180191 	0.00120127 	
0.0016764 	5.80462e-09 	0.92 	0.04 	0.04 	0.0291547 	3.80005 	
3.7709 	3.97141 	-0.200518 	-3.34178 	4.33181e-08 	10.03 	20.0403 	
3.94476e-10 	14488.2 	246.919 	283.231 	0.35 	13.208 	-0.253012 	6.77333e-05 	
0.00180191 	0.00120127 	
0.00174413 	3.48341e-09 	0.92 	0.04 	0.04 	0.0291546 	3.80004 	
3.77088 	3.97141 	-0.200533 	-3.34274 	2.59956e-08 	6.68775 	23.3826 	
3.94618e-10 	14488.2 	246.919 	283.231 	0.35 	13.208 	-0.253084 	6.77333e-05 	
0.00180191 	0.00120127 	
0.00181187 	1.16143e-09 	0.92 	0.04 	0.04 	0.0291546 	3.80002 	
3.77086 	3.97141 	-0.20055 	-3.34384 	8.66735e-09 	3.34446 	26.7259 	
3.94781e-10 	14488.2 	246.919 	283.231 	0.35 	13.208 	-0.253168 	6.77333e-05 	
0.00180191 	0.00120127 	
0.0018796 	0 	0.92 	0.04 	0.04 	0.0291545 	3.8 	
3.77085 	3.97141 	-0.200569 	-1.67254 	8.66735e-09 	0.836272 	29.234 	
1.97484e-10 	7244.08 	123.46 	141.616 	0.35 	6.604 	-0.253262 	3.38667e-05 	
0.000900955 	0.000600637 	
ZONE T = "t = 7.75e-08 [s]" I = 10 SOLUTIONTIME = 7.7500000000000E-08
0.00127 	1.97216e-08 	0.92 	0.04 	0.04 	0.0291555 	3.80009 	
3.77094 	3.97141 	-0.200478 	-1.66959 	1.47177e-07 	29.2355 	0.834797 	
2.59813e-10 	7244.08 	123.46 	141.616 	0.35 	6.604 	-0.252816 	3.38667e-05 	
0.000900955 	0.000600637 	
0.00133773 	1.74028e-08 	0.92 	0.04 	0.04 	0.0291553 	3.80009 	
3.77094 	3.97141 	-0.200479 	-3.33925 	1.29872e-07 	26.7311 	3.33922 	
5.19638e-10 	14488.2 	246.919 	283.231 	0.35 	13.208 	-0.25282 	6.77333e-05 	
0.00180191 	0.00120127 	
0.00140547 	1.50839e-08 	0.92 	0.04 	0.04 	0.0291551 	3.80009 	
3.77093 	3.97141 	-0.200482 	-3.33946 	1.12566e-07 	23.3917 	6.67857 	
5.19677e-10 	14488.2 	246.919 	283.231 	0.35 	13.208 	-0.252836 	6.77333e-05 	
0.00180191 	0.00120127 	
0.0014732 	1.27647e-08 	0.92 	0.04 	0.04 	0.029155 	3.80008 	
3.77093 	3.97141 	-0.200488 	-3.33982 	9.5259e-08 	20.0521 	10.0182 	
5.19743e-10 	14488.2 	246.919 	283.231 	0.35 	13.208 	-0.252863 	6.77333e-05 	
0.00180191 	0.00120127 	
0.00154093 	1.04452e-08 	0.92 	0.04 	0.04 	0.0291549 	3.80007 	
3.77092 	3.97141 	-0.200496 	-3.34032 	7.7949e-08 	16.712 	13.3583 	
5.19837e-10 	14488.2 	246.919 	283.231 	0.35 	13.208 	-0.252901 	6.77333e-05 	
0.00180191 	0.00120127 	
0.00160867 	8.12518e-09 	0.92 	0.04 	0.04 	0.0291547 	3.80006 	
3.77091 	3.97141 	-0.200506 	-3.34098 	6.06356e-08 	13.3714 	16.6989 	
5.19959e-10 	14488.2 	246.919 	283.231 	0.35 	13.208 	-0.252951 	6.77333e-05 	
0.00180191 	0.00120127 	
0.0016764 	5.80462e-09 	0.92 	0.04 	0.04 	0.0291547 	3.80005 	
3.7709 	3.97141 	-0.200518 	-3.34178 	4.33181e-08 	10.03 	20.0403 	
5.20109e-10 	14488.2 	246.919 	283.231 	0.35 	13.208 	-0.253012 	6.77333e-05 	
0.00180191 	0.00120127 	
0.00174413 	3.48341e-09 	0.92 	0.04 	0.04 	0.0291546 	3.80004 	
3.77088 	3.97141 	-0.200533 	-3.34274 	2.59956e-08 	6.68775 	23.3826 	
5.20286e-10 	14488.2 	246.919 	283.231 	0.35 	13.208 	-0.253084 	6.77333e-05 	
0.00180191 	0.00120127 	
0.00181187 	1.16143e-09 	0.92 	0.04 	0.04 	0.0291546 	3.80002 	
3.77086 	3.97141 	-0.20055 	-3.34384 	8.66735e-09 	3.34446 	26.7259 	
5.20491e-10 	14488.2 	246.919 	283.231 	0.35 	13.208 	-0.253168 	6.77333e-05 	
0.00180191 	0.00120127 	
0.0018796 	0 	0.92 	0.04 	0.04 	0.0291545 	3.8 	
3.77085 	3.97141 	-0.200569 	-1.67254 	8.66735e-09 	0.836272 	29.234 	
2.60362e-10 	7244.08 	123.46 	141.616 	0.35 	6.604 	-0.253262 	3.38667e-05 	
0.000900955 	0.000600637 	
ZONE T = "t = 1.1125e-07 [s]" I = 10 SOLUTIONTIME = 1.1125000000000E-07
0.00127 	1.97216e-08 	0.92 	0.04 	0.04 	0.0291555 	3.80009 	
3.77094 	3.97141 	-0.200478 	-1.66959 	1.47177e-07 	29.2355 	0.834797 	
3.53965e-10 	7244.08 	123.46 	141.616 	0.35 	6.604 	-0.252816 	3.38667e-05 	
0.000900955 	0.000600637 	
0.00133773 	1.74028e-08 	0.92 	0.04 	0.04 	0.0291553 	3.80009 	
3.77094 	3.97141 	-0.200479 	-3.33925 	1.29872e-07 	26.7311 	3.33922 	
7.07944e-10 	14488.2 	246.919 	283.231 	0.35 	13.208 	-0.25282 	6.77333e-05 	
0.00180191 	0.00120127 	
0.00140547 	1.50839e-08 	0.92 	0.04 	0.04 	0.0291551 	3.80009 	
3.77093 	3.97141 	-0.200482 	-3.33946 	1.12566e-07 	23.3917 	6.67857 	
7.07995e-10 	14488.2 	246.919 	283.231 	0.35 	13.208 	-0.252836 	6.77333e-05 	
0.00180191 	0.00120127 	
0.0014732 	1.27647e-08 	0.92 	0.04 	0.04 	0.029155 	3.80008 	
3.77093 	3.97141 	-0.200488 	-3.33982 	9.5259e-08 	20.0521 	10.0182 	
7.08081e-10 	14488.2 	246.919 	283.231 	0.35 	13.208 	-0.252863 	6.77333e-05 	
0.00180191 	0.00120127 	
0.00154093 	1.04452e-08 	0.92 	0.04 	0.04 	0.0291549 	3.80007 	
3.77092 	3.97141 	-0.200496 	-3.34032 	7.7949e-08 	16.712 	13.3583 	
7.08204e-10 	14488.2 	246.919 	283.231 	0.35 	13.208 	-0.252901 	6.77333e-05 	
0.00180191 	0.00120127 	
0.00160867 	8.12518e-09 	0.92 	0.04 	0.04 	0.0291547 	3.80006 	
3.77091 	3.97141 	-0.200506 	-3.34098 	6.06356e-08 	13.3714 	16.6989 	
7.08363e-10 	14488.2 	246.919 	283.231 	0.35 	13.208 	-0.252951 	6.77333e-05 	
0.00180191 	0.00120127 	
0.0016764 	5.80462e-09 	0.92 	0.04 	0.04 	0.0291547 	3.80005 	
3.7709 	3.97141 	-0.200518 	-3.34178 	4.33181e-08 	10.03 	20.0403 	
7.08558e-10 	14488.2 	246.919 	283.231 	0.35 	13.208 	-0.253012 	6.77333e-05 	
0.00180191 	0.00120127 	
0.00174413 	3.48341e-09 	0.92 	0.04 	0.04 	0.0291546 	3.80004 	
3.77088 	3.97141 	-0.200533 	-3.34274 	2.59956e-08 	6.68775 	23.3826 	
7.08789e-10 	14488.2 	246.919 	283.231 	0.35 	13.208 	-0.253084 	6.77333e-05 	
0.00180191 	0.00120127 	
0.00181187 	1.16143e-09 	0.92 	0.04 	0.04 	0.0291546 	3.80002 	
3.77086 	3.97141 	-0.20055 	-3.34384 	8.66735e-09 	3.34446 	26.7259 	
7.09056e-10 	14488.2 	246.919 	283.231 	0.35 	13.208 	-0.253168 	6.77333e-05 	
0.00180191 	0.00120127 	
0.0018796 	0 	0.92 	0.04 	0.04 	0.0291545 	3.8 	
3.77085 	3.97141 	-0.200569 	-1.67254 	8.66735e-09 	0.836272 	29.234 	
3.5468e-10 	7244.08 	123.46 	141.616 	0.35 	6.604 	-0.253262 	3.38667e-05 	
0.000900955 	0.000600637 	
ZONE T = "t = 1.61875e-07 [s]" I = 10 SOLUTIONTIME = 1.6187500000000E-07
0.00127 	1.97216e-08 	0.92 	0.04 	0.04 	0.0291555 	3.80009 	
3.77094 	3.97141 	-0.200478 	-1.66959 	1.47178e-07 	29.2355 	0.834797 	
4.95192e-10 	7244.08 	123.46 	141.616 	0.35 	6.604 	-0.252816 	3.38667e-05 	
0.000900955 	0.000600637 	
0.00133773 	1.74028e-08 	0.92 	0.04 	0.04 	0.0291553 	3.80009 	
3.77094 	3.97141 	-0.200479 	-3.33925 	1.29872e-07 	26.7311 	3.33922 	
9.90403e-10 	14488.2 	246.919 	283.231 	0.35 	13.208 	-0.25282 	6.77333e-05 	
0.00180191 	0.00120127 	
0.00140547 	1.50839e-08 	0.92 	0.04 	0.04 	0.0291551 	3.80009 	
3.77093 	3.97141 	-0.200482 	-3.33946 	1.12566e-07 	23.3917 	6.67857 	
9.90472e-10 	14488.2 	246.919 	283.231 	0.35 	13.208 	-0.252836 	6.77333e-05 	
0.00180191 	0.00120127 	
0.0014732 	1.27647e-08 	0.92 	0.04 	0.04 	0.029155 	3.80008 	
3.77093 	3.97141 	-0.200488 	-3.33982 	9.5259e-08 	20.0521 	10.0182 	
9.90588e-10 	14488.2 	246.919 	283.231 	0.35 	13.208 	-0.252863 	6.77333e-05 	
0.00180191 	0.00120127 	
0.00154093 	1.04452e-08 	0.92 	0.04 	0.04 	0.0291549 	3.80007 	
3.77092 	3.97141 	-0.200496 	-3.34032 	7.7949e-08 	16.712 	13.3583 	
9.90754e-10 	14488.2 	246.919 	283.231 	0.35 	13.208 	-0.252901 	6.77333e-05 	
0.00180191 	0.00120127 	
0.00160867 	8.12518e-09 	0.92 	0.04 	0.04 	0.0291547 	3.80006 	
3.77091 	3.97141 	-0.200506 	-3.34098 	6.06356e-08 	13.3714 	16.6989 	
9.90968e-10 	14488.2 	246.919 	283.231 	0.35 	13.208 	-0.252951 	6.77333e-05 	
0.00180191 	0.00120127 	
0.0016764 	5.80462e-09 	0.92 	0.04 	0.04 	0.0291547 	3.80005 	
3.7709 	3.97141 	-0.200518 	-3.34178 	4.33181e-08 	10.03 	20.0403 	
9.91231e-10 	14488.2 	246.919 	283.231 	0.35 	13.208 	-0.253012 	6.77333e-05 	
0.00180191 	0.00120127 	
0.00174413 	3.48341e-09 	0.92 	0.04 	0.04 	0.0291546 	3.80004 	
3.77088 	3.97141 	-0.200533 	-3.34274 	2.59956e-08 	6.68775 	23.3826 	
9.91543e-10 	14488.2 	246.919 	283.231 	0.35 	13.208 	-0.253084 	6.77333e-05 	
0.00180191 	0.00120127 	
0.00181187 	1.16143e-09 	0.92 	0.04 	0.04 	0.0291546 	3.80002 	
3.77086 	3.97141 	-0.20055 	-3.34384 	8.66735e-09 	3.34446 	26.7259 	
9.91903e-10 	14488.2 	246.919 	283.231 	0.35 	13.208 	-0.253168 	6.77333e-05 	
0.00180191 	0.00120127 	
0.0018796 	0 	0.92 	0.04 	0.04 	0.0291545 	3.8 	
3.77085 	3.97141 	-0.200569 	-1.67254 	8.66735e-09 	0.836272 	29.234 	
4.96157e-10 	7244.08 	123.46 	141.616 	0.35 	6.604 	-0.253262 	3.38667e-05 	
0.000900955 	0.000600637 	
ZONE T = "t = 2.37813e-07 [s]" I = 10 SOLUTIONTIME = 2.3781250000000E-07
0.00127 	1.97216e-08 	0.92 	0.04 	0.04 	0.0291555 	3.80009 	
3.77094 	3.97141 	-0.200478 	-1.66959 	1.47179e-07 	29.2355 	0.834797 	
7.07032e-10 	7244.08 	123.46 	141.616 	0.35 	6.604 	-0.252816 	3.38667e-05 	
0.000900955 	0.000600637 	
0.00133773 	1.74028e-08 	0.92 	0.04 	0.04 	0.0291553 	3.80009 	
3.77094 	3.97141 	-0.200479 	-3.33925 	1.29872e-07 	26.7311 	3.33922 	
1.41409e-09 	14488.2 	246.919 	283.231 	0.35 	13.208 	-0.25282 	6.77333e-05 	
0.00180191 	0.00120127 	
0.00140547 	1.50839e-08 	0.92 	0.04 	0.04 	0.0291551 	3.80009 	
3.77093 	3.97141 	-0.200482 	-3.33946 	1.12566e-07 	23.3917 	6.67857 	
1.41419e-09 	14488.2 	246.919 	283.231 	0.35 	13.208 	-0.252836 	6.77333e-05 	
0.00180191 	0.00120127 	
0.0014732 	1.27647e-08 	0.92 	0.04 	0.04 	0.029155 	3.80008 	
3.77093 	3.97141 	-0.200488 	-3.33982 	9.5259e-08 	20.0521 	10.0182 	
1.41435e-09 	14488.2 	246.919 	283.231 	0.35 	13.208 	-0.252863 	6.77333e-05 	
0.00180191 	0.00120127 	
0.00154093 	1.04452e-08 	0.92 	0.04 	0.04 	0.0291549 	3.80007 	
3.77092 	3.97141 	-0.200496 	-3.34032 	7.7949e-08 	16.712 	13.3583 	
1.41458e-09 	14488.2 	246.919 	283.231 	0.35 	13.208 	-0.252901 	6.77333e-05 	
0.00180191 	0.00120127 	
0.00160867 	8.12518e-09 	0.92 	0.04 	0.04 	0.0291547 	3.80006 	
3.77091 	3.97141 	-0.200506 	-3.34098 	6.06356e-08 	13.3714 	16.6989 	
1.41488e-09 	14488.2 	246.919 	283.231 	0.35 	13.208 	-0.252951 	6.77333e-05 	
0.00180191 	0.00120127 	
0.0016764 	5.80462e-09 	0.92 	0.04 	0.04 	0.0291547 	3.80005 	
3.7709 	3.97141 	-0.200518 	-3.34178 	4.33181e-08 	10.03 	20.0403 	
1.41524e-09 	14488.2 	246.919 	283.231 	0.35 	13.208 	-0.253012 	6.77333e-05 	
0.00180191 	0.00120127 	
0.00174413 	3.48341e-09 	0.92 	0.04 	0.04 	0.0291546 	3.80004 	
3.77088 	3.97141 	-0.200533 	-3.34274 	2.59956e-08 	6.68775 	23.3826 	
1.41567e-09 	14488.2 	246.919 	283.231 	0.35 	13.208 	-0.253084 	6.77333e-05 	
0.00180191 	0.00120127 	
0.00181187 	1.16143e-09 	0.92 	0.04 	0.04 	0.0291546 	3.80002 	
3.77086 	3.97141 	-0.20055 	-3.34384 	8.66735e-09 	3.34446 	26.7259 	
1.41617e-09 	14488.2 	246.919 	283.231 	0.35 	13.208 	-0.253168 	6.77333e-05 	
0.00180191 	0.00120127 	
0.0018796 	0 	0.92 	0.04 	0.04 	0.0291545 	3.8 	
3.77085 	3.97141 	-0.200569 	-1.67254 	8.66735e-09 	0.836272 	29.234 	
7.08371e-10 	7244.08 	123.46 	141.616 	0.35 	6.604 	-0.253262 	3.38667e-05 	
0.000900955 	0.000600637 	
ZONE T = "t = 3.51719e-07 [s]" I = 10 SOLUTIONTIME = 3.5171875000000E-07
0.00127 	1.97216e-08 	0.92 	0.04 	0.04 	0.0291555 	3.80009 	
3.77094 	3.97141 	-0.200478 	-1.66959 	1.4718e-07 	29.2355 	0.834797 	
1.02479e-09 	7244.08 	123.46 	141.616 	0.35 	6.604 	-0.252816 	3.38667e-05 	
0.000900955 	0.000600637 	
0.00133773 	1.74028e-08 	0.92 	0.04 	0.04 	0.0291553 	3.80009 	
3.77094 	3.97141 	-0.200479 	-3.33925 	1.29872e-07 	26.7311 	3.33922 	
2.04963e-09 	14488.2 	246.919 	283.231 	0.35 	13.208 	-0.25282 	6.77333e-05 	
0.00180191 	0.00120127 	
0.00140547 	1.50839e-08 	0.92 	0.04 	0.04 	0.0291551 	3.80009 	
3.77093 	3.97141 	-0.200482 	-3.33946 	1.12566e-07 	23.3917 	6.67857 	
2.04976e-09 	14488.2 	246.919 	283.231 	0.35 	13.208 	-0.252836 	6.77333e-05 	
0.00180191 	0.00120127 	
0.0014732 	1.27647e-08 	0.92 	0.04 	0.04 	0.029155 	3.80008 	
3.77093 	3.97141 	-0.200488 	-3.33982 	9.5259e-08 	20.0521 	10.0182 	
2.04999e-09 	14488.2 	246.919 	283.231 	0.35 	13.208 	-0.252863 	6.77333e-05 	
0.00180191 	0.00120127 	
0.00154093 	1.04452e-08 	0.92 	0.04 	0.04 	0.0291549 	3.80007 	
3.77092 	3.97141 	-0.200496 	-3.34032 	7.7949e-08 	16.712 	13.3583 	
2.05032e-09 	14488.2 	246.919 	283.231 	0.35 	13.208 	-0.252901 	6.77333e-05 	
0.00180191 	0.00120127 	
0.00160867 	8.12518e-09 	0.92 	0.04 	0.04 	0.0291547 	3.80006 	
3.77091 	3.97141 	-0.200506 	-3.34098 	6.06356e-08 	13.3714 	16.6989 	
2.05074e-09 	14488.2 	246.919 	283.231 	0.35 	13.208 	-0.252951 	6.77333e-05 	
0.00180191 	0.00120127 	
0.0016764 	5.80462e-09 	0.92 	0.04 	0.04 	0.0291547 	3.80005 	
3.7709 	3.97141 	-0.200518 	-3.34178 	4.33181e-08 	10.03 	20.0403 	
2.05126e-09 	14488.2 	246.919 	283.231 	0.35 	13.208 	-0.253012 	6.77333e-05 	
0.00180191 	0.00120127 	
0.00174413 	3.48341e-09 	0.92 	0.04 	0.04 	0.0291546 	3.80004 	
3.77088 	3.97141 	-0.200533 	-3.34274 	2.59956e-08 	6.68775 	23.3826 	
2.05187e-09 	14488.2 	246.919 	283.231 	0.35 	13.208 	-0.253084 	6.77333e-05 	
0.00180191 	0.00120127 	
0.00181187 	1.16143e-09 	0.92 	0.04 	0.04 	0.0291546 	3.80002 	
3.77086 	3.97141 	-0.20055 	-3.34384 	8.66735e-09 	3.34446 	26.7259 	
2.05258e-09 	14488.2 	246.919 	283.231 	0.35 	13.208 	-0.253168 	6.77333e-05 	
0.00180191 	0.00120127 	
0.0018796 	0 	0.92 	0.04 	0.04 	0.0291545 	3.8 	
3.77085 	3.97141 	-0.200569 	-1.67254 	8.66735e-09 	0.836272 	29.234 	
1.02669e-09 	7244.08 	123.46 	141.616 	0.35 	6.604 	-0.253262 	3.38667e-05 	
0.000900955 	0.000600637 	
ZONE T = "t = 5.22578e-07 [s]" I = 10 SOLUTIONTIME = 5.2257812500000E-07
0.00127 	1.97216e-08 	0.92 	0.04 	0.04 	0.0291555 	3.80009 	
3.77094 	3.97141 	-0.200478 	-1.66959 	1.47181e-07 	29.2355 	0.834797 	
1.50143e-09 	7244.08 	123.46 	141.616 	0.35 	6.604 	-0.252816 	3.38667e-05 	
0.000900955 	0.000600637 	
0.00133773 	1.74028e-08 	0.92 	0.04 	0.04 	0.0291553 	3.80009 	
3.77094 	3.97141 	-0.200479 	-3.33925 	1.29872e-07 	26.7311 	3.33922 	
3.00293e-09 	14488.2 	246.919 	283.231 	0.35 	13.208 	-0.25282 	6.77333e-05 	
0.00180191 	0.00120127 	
0.00140547 	1.50839e-08 	0.92 	0.04 	0.04 	0.0291551 	3.80009 	
3.77093 	3.97141 	-0.200482 	-3.33946 	1.12566e-07 	23.3917 	6.67857 	
3.00312e-09 	14488.2 	246.919 	283.231 	0.35 	13.208 	-0.252836 	6.77333e-05 	
0.00180191 	0.00120127 	
0.0014732 	1.27647e-08 	0.92 	0.04 	0.04 	0.029155 	3.80008 	
3.77093 	3.97141 	-0.200488 	-3.33982 	9.5259e-08 	20.0521 	10.0182 	
3.00345e-09 	14488.2 	246.919 	283.231 	0.35 	13.208 	-0.252863 	6.77333e-05 	
0.00180191 	0.00120127 	
0.00154093 	1.04452e-08 	0.92 	0.04 	0.04 	0.0291549 	3.80007 	
3.77092 	3.97141 	-0.200496 	-3.34032 	7.7949e-08 	16.712 	13.3583 	
3.00392e-09 	14488.2 	246.919 	283.231 	0.35 	13.208 	-0.252901 	6.77333e-05 	
0.00180191 	0.00120127 	
0.00160867 	8.12518e-09 	0.92 	0.04 	0.04 	0.0291547 	3.80006 	
3.77091 	3.97141 	-0.200506 	-3.34098 	6.06356e-08 	13.3714 	16.6989 	
3.00453e-09 	14488.2 	246.919 	283.231 	0.35 	13.208 	-0.252951 	6.77333e-05 	
0.00180191 	0.00120127 	
0.0016764 	5.80462e-09 	0.92 	0.04 	0.04 	0.0291547 	3.80005 	
3.7709 	3.97141 	-0.200518 	-3.34178 	4.33181e-08 	10.03 	20.0403 	
3.00528e-09 	14488.2 	246.919 	283.231 	0.35 	13.208 	-0.253012 	6.77333e-05 	
0.00180191 	0.00120127 	
0.00174413 	3.48341e-09 	0.92 	0.04 	0.04 	0.0291546 	3.80004 	
3.77088 	3.97141 	-0.200533 	-3.34274 	2.59956e-08 	6.68775 	23.3826 	
3.00617e-09 	14488.2 	246.919 	283.231 	0.35 	13.208 	-0.253084 	6.77333e-05 	
0.00180191 	0.00120127 	
0.00181187 	1.16143e-09 	0.92 	0.04 	0.04 	0.0291546 	3.80002 	
3.77086 	3.97141 	-0.20055 	-3.34384 	8.66736e-09 	3.34446 	26.7259 	
3.00719e-09 	14488.2 	246.919 	283.231 	0.35 	13.208 	-0.253168 	6.77333e-05 	
0.00180191 	0.00120127 	
0.0018796 	0 	0.92 	0.04 	0.04 	0.0291545 	3.8 	
3.77085 	3.97141 	-0.200569 	-1.67254 	8.66736e-09 	0.836272 	29.234 	
1.50418e-09 	7244.08 	123.46 	141.616 	0.35 	6.604 	-0.253262 	3.38667e-05 	
0.000900955 	0.000600637 	
ZONE T = "t = 7.78867e-07 [s]" I = 10 SOLUTIONTIME = 7.7886718750000E-07
0.00127 	1.97216e-08 	0.92 	0.04 	0.04 	0.0291555 	3.80009 	
3.77094 	3.97141 	-0.200478 	-1.66959 	1.47183e-07 	29.2355 	0.834797 	
2.2164e-09 	7244.08 	123.46 	141.616 	0.35 	6.604 	-0.252816 	3.38667e-05 	
0.000900955 	0.000600637 	
0.00133773 	1.74028e-08 	0.92 	0.04 	0.04 	0.0291553 	3.80009 	
3.77094 	3.97141 	-0.200479 	-3.33925 	1.29872e-07 	26.7311 	3.33922 	
4.43287e-09 	14488.2 	246.919 	283.231 	0.35 	13.208 	-0.25282 	6.77333e-05 	
0.00180191 	0.00120127 	
0.00140547 	1.50839e-08 	0.92 	0.04 	0.04 	0.0291551 	3.80009 	
3.77093 	3.97141 	-0.200482 	-3.33946 	1.12566e-07 	23.3917 	6.67857 	
4.43316e-09 	14488.2 	246.919 	283.231 	0.35 	13.208 	-0.252836 	6.77333e-05 	
0.00180191 	0.00120127 	
0.0014732 	1.27647e-08 	0.92 	0.04 	0.04 	0.029155 	3.80008 	
3.77093 	3.97141 	-0.200488 	-3.33982 	9.5259e-08 	20.0521 	10.0182 	
4.43364e-09 	14488.2 	246.919 	283.231 	0.35 	13.208 	-0.252863 	6.77333e-05 	
0.00180191 	0.00120127 	
0.00154093 	1.04452e-08 	0.92 	0.04 	0.04 	0.0291549 	3.80007 	
3.77092 	3.97141 	-0.200496 	-3.34032 	7.7949e-08 	16.712 	13.3583 	