TITLE = "Solution on Domain BulkDomain1D_2"
VARIABLES = "x [m]"  
"Vel_axial(0)" 	"MF_sp(ECDMC)" 	"MF_sp(Li+)" 	"MF_sp(PF6-)" 	"Volt(Electroly)" 	"Volt(CathodeVo)" 	
"Potential Drop Electrode-Electrolyte [V]" 	"Surf_0 Equilibrium Potential Drop Electrode-Electrolyte [V]" 	"Overpotential_0 [V]" 	"Current Source [A/m^2]" 	"Li+ flux [kmol/m^2/s]" 	"Electrolyte Current [A/m^2]" 	"Electrode Current [A/m^2]" 	
"Capacity discharged [A-s]" 	"Depth of discharge [-]" 	"Capacity remaining [A-s]" 	"Initial capacity [A-s]" 	"Porosity []" 	"Surface Area [m2/m2] (area per area)" 	"Specific current (per particle area) [A/m^2]" 	"Control volume thickness [m]" 	
"Moles LiCoO2 [mol/m^2] (per electrode area)" 	"Moles CoO2 [mol/m^2] (per electrode area)" 	"qHeat_accum [J/m3]" 	"qHeat_step [W/m3]" 	"Joule_Lyte [W/m3]" 	"Joule_Solid [W/m3]" 	"electrodHeat [W/m3]" 	"OverpotHeat [W/m3]" 	"deltaSHeat [W/m3]" 	

ZONE T = "t = 0 [s]" I = 10 SOLUTIONTIME = 0.0000000000000E+00
0.000125 	0 	0.843947 	0.0780266 	0.0780266 	-0.07 	3.8 	
0 	0 	0 	0 	0 	14517 	0 	
0 	0 	0 	0 	0.3 	1.16667 	-24886.3 	5.55556e-06 	
9.99124e-05 	9.99124e-05 	0 	0.0 	 0.0 	 0.0 	 0.0 	 0.0 	 0.0 	 
0.000136111 	0 	0.843947 	0.0780266 	0.0780266 	-0.07 	3.8 	
0 	0 	0 	0 	0 	0 	-0 	
0 	0 	0 	0 	0.3 	2.33333 	-24886.3 	1.11111e-05 	
0.000199825 	0.000199825 	0 	0.0 	 0.0 	 0.0 	 0.0 	 0.0 	 0.0 	 
0.000147222 	0 	0.843947 	0.0780266 	0.0780266 	-0.07 	3.8 	
0 	0 	0 	0 	0 	0 	-0 	
0 	0 	0 	0 	0.3 	2.33333 	-24886.3 	1.11111e-05 	
0.000199825 	0.000199825 	0 	0.0 	 0.0 	 0.0 	 0.0 	 0.0 	 0.0 	 
0.000158333 	0 	0.843947 	0.0780266 	0.0780266 	-0.07 	3.8 	
0 	0 	0 	0 	0 	0 	-0 	
0 	0 	0 	0 	0.3 	2.33333 	-24886.3 	1.11111e-05 	
0.000199825 	0.000199825 	0 	0.0 	 0.0 	 0.0 	 0.0 	 0.0 	 0.0 	 
0.000169444 	0 	0.843947 	0.0780266 	0.0780266 	-0.07 	3.8 	
0 	0 	0 	0 	0 	0 	-0 	
0 	0 	0 	0 	0.3 	2.33333 	-24886.3 	1.11111e-05 	
0.000199825 	0.000199825 	0 	0.0 	 0.0 	 0.0 	 0.0 	 0.0 	 0.0 	 
0.000180556 	0 	0.843947 	0.0780266 	0.0780266 	-0.07 	3.8 	
0 	0 	0 	0 	0 	0 	-0 	
0 	0 	0 	0 	0.3 	2.33333 	-24886.3 	1.11111e-05 	
0.000199825 	0.000199825 	0 	0.0 	 0.0 	 0.0 	 0.0 	 0.0 	 0.0 	 
0.000191667 	0 	0.843947 	0.0780266 	0.0780266 	-0.07 	3.8 	
0 	0 	0 	0 	0 	0 	-0 	
0 	0 	0 	0 	0.3 	2.33333 	-24886.3 	1.11111e-05 	
0.000199825 	0.000199825 	0 	0.0 	 0.0 	 0.0 	 0.0 	 0.0 	 0.0 	 
0.000202778 	0 	0.843947 	0.0780266 	0.0780266 	-0.07 	3.8 	
0 	0 	0 	0 	0 	0 	-0 	
0 	0 	0 	0 	0.3 	2.33333 	-24886.3 	1.11111e-05 	
0.000199825 	0.000199825 	0 	0.0 	 0.0 	 0.0 	 0.0 	 0.0 	 0.0 	 
0.000213889 	0 	0.843947 	0.0780266 	0.0780266 	-0.07 	3.8 	
0 	0 	0 	0 	0 	0 	-0 	
0 	0 	0 	0 	0.3 	2.33333 	-24886.3 	1.11111e-05 	
0.000199825 	0.000199825 	0 	0.0 	 0.0 	 0.0 	 0.0 	 0.0 	 0.0 	 
0.000225 	0 	0.843947 	0.0780266 	0.0780266 	-0.07 	3.8 	
0 	0 	0 	0 	0 	0 	14517 	
0 	0 	0 	0 	0.3 	1.16667 	-24886.3 	5.55556e-06 	
9.99124e-05 	9.99124e-05 	0 	0.0 	 0.0 	 0.0 	 0.0 	 0.0 	 0.0 	 
ZONE T = "t = 1e-08 [s]" I = 10 SOLUTIONTIME = 1.0000000000000E-08
0.000125 	1.53791e-08 	0.843947 	0.0780266 	0.0780266 	-0.148426 	4.02735 	
3.87 	4.17612 	-0.306118 	-29034 	-0 	19.5092 	0.491369 	
-0 	9640.08 	0.964008 	1.92802 	0.3 	1.16667 	-0.843266 	5.55556e-06 	
9.99124e-05 	9.99124e-05 	-0.000210967 	-21096.7 	0.0293044 	0.137968 	-21096.9 	-21096.9 	0 	
0.000136111 	1.37824e-08 	0.843947 	0.0780266 	0.0780266 	-0.148426 	4.02735 	
3.87 	4.17612 	-0.306118 	-58068 	-0 	18.03 	1.96998 	
-0 	19280.2 	1.92802 	3.85603 	0.3 	2.33333 	-0.847132 	1.11111e-05 	
0.000199825 	0.000199825 	-0.000211898 	-21189.8 	0.0264198 	0.693642 	-21190.5 	-21190.5 	0 	
0.000147222 	1.21635e-08 	0.843947 	0.0780266 	0.0780266 	-0.148426 	4.02735 	
3.87 	4.17612 	-0.306118 	-58068 	-0 	16.0418 	3.95815 	
-0 	19280.2 	1.92802 	3.85603 	0.3 	2.33333 	-0.858855 	1.11111e-05 	
0.000199825 	0.000199825 	-0.000215023 	-21502.3 	0.0209331 	2.38126 	-21504.7 	-21504.7 	0 	
0.000158333 	1.05075e-08 	0.843947 	0.0780266 	0.0780266 	-0.148426 	4.02734 	
3.87 	4.17612 	-0.306118 	-58068 	-0 	14.017 	5.98295 	
-0 	19280.2 	1.92802 	3.85603 	0.3 	2.33333 	-0.878545 	1.11111e-05 	
0.000199825 	0.000199825 	-0.000219691 	-21969.1 	0.0160052 	5.26344 	-21974.4 	-21974.4 	0 	
0.000169444 	8.79894e-09 	0.843947 	0.0780266 	0.0780266 	-0.148426 	4.02733 	
3.87 	4.17612 	-0.306118 	-58068 	-0 	11.9368 	8.06319 	
-0 	19280.2 	1.92802 	3.85603 	0.3 	2.33333 	-0.906385 	1.11111e-05 	
0.000199825 	0.000199825 	-0.000226762 	-22676.2 	0.0116359 	9.44728 	-22685.7 	-22685.7 	0 	
0.000180556 	7.02204e-09 	0.843947 	0.0780266 	0.0780266 	-0.148426 	4.02732 	
3.87 	4.17612 	-0.306118 	-58068 	-0 	9.78183 	10.2182 	
-0 	19280.2 	1.92802 	3.85603 	0.3 	2.33333 	-0.942632 	1.11111e-05 	
0.000199825 	0.000199825 	-0.000235724 	-23572.4 	0.00785092 	15.0883 	-23587.5 	-23587.5 	0 	
0.000191667 	5.16026e-09 	0.843947 	0.0780266 	0.0780266 	-0.148426 	4.0273 	
3.87 	4.17612 	-0.306118 	-58068 	-0 	7.5321 	12.4679 	
-0 	19280.2 	1.92802 	3.85603 	0.3 	2.33333 	-0.987623 	1.11111e-05 	
0.000199825 	0.000199825 	-0.000246786 	-24678.6 	0.0047043 	22.3962 	-24701.1 	-24701.1 	0 	
0.000202778 	3.19633e-09 	0.843947 	0.0780266 	0.0780266 	-0.148426 	4.02728 	
3.87 	4.17612 	-0.306118 	-58068 	-0 	5.16673 	14.8333 	
-0 	19280.2 	1.92802 	3.85603 	0.3 	2.33333 	-1.04178 	1.11111e-05 	
0.000199825 	0.000199825 	-0.000260077 	-26007.7 	0.00228253 	31.6429 	-26039.4 	-26039.4 	0 	
0.000213889 	1.11202e-09 	0.843947 	0.0780266 	0.0780266 	-0.148426 	4.02725 	
3.87 	4.17612 	-0.306118 	-58068 	-0 	2.66378 	17.3362 	
-0 	19280.2 	1.92802 	3.85603 	0.3 	2.33333 	-1.1056 	1.11111e-05 	
0.000199825 	0.000199825 	-0.000276073 	-27607.3 	0.00070952 	43.1722 	-27650.5 	-27650.5 	0 	
0.000225 	0 	0.843947 	0.0780266 	0.0780266 	-0.148426 	4.02722 	
3.87 	4.17612 	-0.306118 	-29034 	-0 	0.687544 	19.3131 	
-0 	9640.08 	0.964008 	1.92802 	0.3 	1.16667 	-1.17967 	5.55556e-06 	
9.99124e-05 	9.99124e-05 	-0.000294164 	-29416.4 	0.000153214 	49.5553 	-29466 	-29466 	0 	
ZONE T = "t = 2e-08 [s]" I = 10 SOLUTIONTIME = 2.0000000000000E-08
0.000125 	1.53791e-08 	0.843947 	0.0780266 	0.0780266 	-0.148426 	4.02736 	
4.17578 	4.17612 	-0.00033654 	-0.98381 	9.85516e-08 	19.5086 	0.49135 	
9.8381e-13 	9640.08 	0.964008 	1.92802 	0.3 	1.16667 	-0.842315 	5.55556e-06 	
9.99124e-05 	9.99124e-05 	-0.000421654 	-21068.7 	0.0293045 	0.137957 	-21068.8 	-21068.8 	0 	
0.000136111 	1.37824e-08 	0.843947 	0.0780266 	0.0780266 	-0.148426 	4.02735 	
4.17578 	4.17612 	-0.000338083 	-1.97664 	8.8318e-08 	18.0301 	1.96991 	
1.97664e-12 	19280.2 	1.92802 	3.85603 	0.3 	2.33333 	-0.846181 	1.11111e-05 	
0.000199825 	0.000199825 	-0.000423644 	-21174.7 	0.02642 	0.693591 	-21175.4 	-21175.4 	0 	
0.000147222 	1.21636e-08 	0.843947 	0.0780266 	0.0780266 	-0.148426 	4.02735 	
4.17577 	4.17612 	-0.000342762 	-2.004 	7.79442e-08 	16.042 	3.95801 	
2.004e-12 	19280.2 	1.92802 	3.85603 	0.3 	2.33333 	-0.857904 	1.11111e-05 	
0.000199825 	0.000199825 	-0.000429349 	-21432.6 	0.0209334 	2.38109 	-21435 	-21435 	0 	
0.000158333 	1.05076e-08 	0.843947 	0.0780266 	0.0780266 	-0.148426 	4.02734 	
4.17577 	4.17612 	-0.00035062 	-2.04994 	6.73324e-08 	14.0172 	5.98276 	
2.04994e-12 	19280.2 	1.92802 	3.85603 	0.3 	2.33333 	-0.877593 	1.11111e-05 	
0.000199825 	0.000199825 	-0.000439653 	-21996.1 	0.0160056 	5.26309 	-22001.4 	-22001.4 	0 	
0.000169444 	8.79915e-09 	0.843947 	0.0780266 	0.0780266 	-0.148426 	4.02733 	
4.17576 	4.17612 	-0.00036173 	-2.1149 	5.63841e-08 	11.937 	8.06295 	
2.1149e-12 	19280.2 	1.92802 	3.85603 	0.3 	2.33333 	-0.905432 	1.11111e-05 	
0.000199825 	0.000199825 	-0.000453043 	-22628.1 	0.0116364 	9.44672 	-22637.6 	-22637.6 	0 	
0.000180556 	7.02225e-09 	0.843947 	0.0780266 	0.0780266 	-0.148426 	4.02732 	
4.17574 	4.17612 	-0.000376196 	-2.19947 	4.49977e-08 	9.78209 	10.2179 	
2.19947e-12 	19280.2 	1.92802 	3.85603 	0.3 	2.33333 	-0.941678 	1.11111e-05 	
0.000199825 	0.000199825 	-0.000471227 	-23550.2 	0.00785133 	15.0875 	-23565.3 	-23565.3 	0 	
0.000191667 	5.16046e-09 	0.843947 	0.0780266 	0.0780266 	-0.148426 	4.0273 	
4.17572 	4.17612 	-0.000394151 	-2.30445 	3.30674e-08 	7.53235 	12.4676 	
2.30445e-12 	19280.2 	1.92802 	3.85603 	0.3 	2.33333 	-0.986668 	1.11111e-05 	
0.000199825 	0.000199825 	-0.00049371 	-24692.4 	0.00470461 	22.3953 	-24714.8 	-24714.8 	0 	
0.000202778 	3.19648e-09 	0.843947 	0.0780266 	0.0780266 	-0.148426 	4.02728 	
4.1757 	4.17612 	-0.000415763 	-2.43081 	2.04825e-08 	5.16695 	14.8331 	
2.43081e-12 	19280.2 	1.92802 	3.85603 	0.3 	2.33333 	-1.04082 	1.11111e-05 	
0.000199825 	0.000199825 	-0.00051974 	-25966.2 	0.00228271 	31.642 	-25997.9 	-25997.9 	0 	
0.000213889 	1.11209e-09 	0.843947 	0.0780266 	0.0780266 	-0.148426 	4.02725 	
4.17568 	4.17612 	-0.000441232 	-2.57972 	7.12619e-09 	2.66391 	17.3361 	
2.57972e-12 	19280.2 	1.92802 	3.85603 	0.3 	2.33333 	-1.10464 	1.11111e-05 	
0.000199825 	0.000199825 	-0.000551744 	-27567.1 	0.000709587 	43.1715 	-27610.2 	-27610.2 	0 	
0.000225 	0 	0.843947 	0.0780266 	0.0780266 	-0.148426 	4.02722 	
4.17565 	4.17612 	-0.000470794 	-1.37628 	7.12619e-09 	0.687583 	19.3124 	
1.37628e-12 	9640.08 	0.964008 	1.92802 	0.3 	1.16667 	-1.17871 	5.55556e-06 	
9.99124e-05 	9.99124e-05 	-0.000587842 	-29367.7 	0.000153231 	49.5549 	-29417.3 	-29417.3 	0 	
ZONE T = "t = 3e-08 [s]" I = 10 SOLUTIONTIME = 3.0000000000000E-08
0.000125 	1.53791e-08 	0.843947 	0.0780266 	0.0780266 	-0.148426 	4.02736 	
4.17578 	4.17612 	-0.000336161 	-0.982701 	9.85534e-08 	19.5086 	0.49135 	
1.96651e-12 	9640.08 	0.964008 	1.92802 	0.3 	1.16667 	-0.842315 	5.55556e-06 	
9.99124e-05 	9.99124e-05 	-0.000632497 	-21084.3 	0.0293045 	0.137957 	-21084.4 	-21084.4 	0 	
0.000136111 	1.37824e-08 	0.843947 	0.0780266 	0.0780266 	-0.148426 	4.02735 	
4.17578 	4.17612 	-0.000337704 	-1.97442 	8.83186e-08 	18.0301 	1.96991 	
3.95106e-12 	19280.2 	1.92802 	3.85603 	0.3 	2.33333 	-0.846181 	1.11111e-05 	
0.000199825 	0.000199825 	-0.000635341 	-21169.7 	0.02642 	0.693591 	-21170.4 	-21170.4 	0 	
0.000147222 	1.21636e-08 	0.843947 	0.0780266 	0.0780266 	-0.148426 	4.02735 	
4.17578 	4.17612 	-0.000342382 	-2.00178 	7.79452e-08 	16.042 	3.95801 	
4.00577e-12 	19280.2 	1.92802 	3.85603 	0.3 	2.33333 	-0.857904 	1.11111e-05 	
0.000199825 	0.000199825 	-0.000643868 	-21451.9 	0.0209334 	2.38109 	-21454.3 	-21454.3 	0 	
0.000158333 	1.05076e-08 	0.843947 	0.0780266 	0.0780266 	-0.148426 	4.02734 	
4.17577 	4.17612 	-0.00035024 	-2.04772 	6.73337e-08 	14.0172 	5.98276 	
4.09766e-12 	19280.2 	1.92802 	3.85603 	0.3 	2.33333 	-0.877593 	1.11111e-05 	
0.000199825 	0.000199825 	-0.000659183 	-21953 	0.0160056 	5.26309 	-21958.3 	-21958.3 	0 	
0.000169444 	8.79915e-09 	0.843947 	0.0780266 	0.0780266 	-0.148426 	4.02733 	
4.17576 	4.17612 	-0.00036135 	-2.11267 	5.63856e-08 	11.937 	8.06295 	
4.22757e-12 	19280.2 	1.92802 	3.85603 	0.3 	2.33333 	-0.905432 	1.11111e-05 	
0.000199825 	0.000199825 	-0.000679306 	-22626.2 	0.0116364 	9.44672 	-22635.7 	-22635.7 	0 	
0.000180556 	7.02225e-09 	0.843947 	0.0780266 	0.0780266 	-0.148426 	4.02732 	
4.17574 	4.17612 	-0.000375815 	-2.19725 	4.49992e-08 	9.78209 	10.2179 	
4.39672e-12 	19280.2 	1.92802 	3.85603 	0.3 	2.33333 	-0.941678 	1.11111e-05 	
0.000199825 	0.000199825 	-0.000706511 	-23528.4 	0.00785133 	15.0875 	-23543.5 	-23543.5 	0 	
0.000191667 	5.16046e-09 	0.843947 	0.0780266 	0.0780266 	-0.148426 	4.0273 	
4.17572 	4.17612 	-0.00039377 	-2.30223 	3.30689e-08 	7.53235 	12.4676 	
4.60668e-12 	19280.2 	1.92802 	3.85603 	0.3 	2.33333 	-0.986668 	1.11111e-05 	
0.000199825 	0.000199825 	-0.000740384 	-24667.4 	0.00470461 	22.3953 	-24689.8 	-24689.8 	0 	
0.000202778 	3.19648e-09 	0.843947 	0.0780266 	0.0780266 	-0.148426 	4.02728 	
4.1757 	4.17612 	-0.000415381 	-2.42858 	2.04837e-08 	5.16695 	14.8331 	
4.85939e-12 	19280.2 	1.92802 	3.85603 	0.3 	2.33333 	-1.04082 	1.11111e-05 	
0.000199825 	0.000199825 	-0.000779883 	-26014.3 	0.00228271 	31.642 	-26046 	-26046 	0 	
0.000213889 	1.11209e-09 	0.843947 	0.0780266 	0.0780266 	-0.148426 	4.02725 	
4.17568 	4.17612 	-0.00044085 	-2.57749 	7.1269e-09 	2.66391 	17.3361 	
5.15721e-12 	19280.2 	1.92802 	3.85603 	0.3 	2.33333 	-1.10464 	1.11111e-05 	
0.000199825 	0.000199825 	-0.000827471 	-27572.7 	0.000709587 	43.1715 	-27615.8 	-27615.8 	0 	
0.000225 	0 	0.843947 	0.0780266 	0.0780266 	-0.148426 	4.02722 	
4.17565 	4.17612 	-0.000470412 	-1.37517 	7.1269e-09 	0.687583 	19.3124 	
2.75145e-12 	9640.08 	0.964008 	1.92802 	0.3 	1.16667 	-1.17871 	5.55556e-06 	
9.99124e-05 	9.99124e-05 	-0.000882 	-29415.8 	0.000153231 	49.5549 	-29465.4 	-29465.4 	0 	
ZONE T = "t = 4e-08 [s]" I = 10 SOLUTIONTIME = 4.0000000000000E-08
0.000125 	1.53791e-08 	0.843947 	0.0780266 	0.0780266 	-0.148426 	4.02736 	
4.17578 	4.17612 	-0.000336161 	-0.982701 	9.8555e-08 	19.5086 	0.49135 	
2.94921e-12 	9640.08 	0.964008 	1.92802 	0.3 	1.16667 	-0.842315 	5.55556e-06 	
9.99124e-05 	9.99124e-05 	-0.000843052 	-21055.6 	0.0293045 	0.137957 	-21055.7 	-21055.7 	0 	
0.000136111 	1.37824e-08 	0.843947 	0.0780266 	0.0780266 	-0.148426 	4.02735 	
4.17578 	4.17612 	-0.000337704 	-1.97442 	8.83186e-08 	18.0301 	1.96991 	
5.92548e-12 	19280.2 	1.92802 	3.85603 	0.3 	2.33333 	-0.846181 	1.11111e-05 	
0.000199825 	0.000199825 	-0.000847357 	-21201.5 	0.02642 	0.693591 	-21202.3 	-21202.3 	0 	
0.000147222 	1.21636e-08 	0.843947 	0.0780266 	0.0780266 	-0.148426 	4.02735 	
4.17578 	4.17612 	-0.000342382 	-2.00178 	7.79453e-08 	16.042 	3.95801 	
6.00755e-12 	19280.2 	1.92802 	3.85603 	0.3 	2.33333 	-0.857904 	1.11111e-05 	
0.000199825 	0.000199825 	-0.000858131 	-21426.3 	0.0209334 	2.38109 	-21428.7 	-21428.7 	0 	
0.000158333 	1.05076e-08 	0.843947 	0.0780266 	0.0780266 	-0.148426 	4.02734 	
4.17577 	4.17612 	-0.00035024 	-2.04772 	6.73338e-08 	14.0172 	5.98276 	
6.14537e-12 	19280.2 	1.92802 	3.85603 	0.3 	2.33333 	-0.877593 	1.11111e-05 	
0.000199825 	0.000199825 	-0.000878301 	-21911.8 	0.0160056 	5.26309 	-21917.1 	-21917.1 	0 	
0.000169444 	8.79915e-09 	0.843947 	0.0780266 	0.0780266 	-0.148426 	4.02733 	
4.17576 	4.17612 	-0.00036135 	-2.11267 	5.63858e-08 	11.937 	8.06295 	
6.34024e-12 	19280.2 	1.92802 	3.85603 	0.3 	2.33333 	-0.905432 	1.11111e-05 	
0.000199825 	0.000199825 	-0.000905937 	-22663.1 	0.0116364 	9.44672 	-22672.5 	-22672.5 	0 	
0.000180556 	7.02225e-09 	0.843947 	0.0780266 	0.0780266 	-0.148426 	4.02732 	
4.17574 	4.17612 	-0.000375815 	-2.19725 	4.49994e-08 	9.78209 	10.2179 	
6.59397e-12 	19280.2 	1.92802 	3.85603 	0.3 	2.33333 	-0.941678 	1.11111e-05 	
0.000199825 	0.000199825 	-0.000941582 	-23507.1 	0.00785133 	15.0875 	-23522.2 	-23522.2 	0 	
0.000191667 	5.16046e-09 	0.843947 	0.0780266 	0.0780266 	-0.148426 	4.0273 	
4.17572 	4.17612 	-0.00039377 	-2.30223 	3.30691e-08 	7.53235 	12.4676 	
6.90891e-12 	19280.2 	1.92802 	3.85603 	0.3 	2.33333 	-0.986668 	1.11111e-05 	
0.000199825 	0.000199825 	-0.00098722 	-24683.6 	0.00470461 	22.3953 	-24706 	-24706 	0 	
0.000202778 	3.19648e-09 	0.843947 	0.0780266 	0.0780266 	-0.148426 	4.02728 	
4.1757 	4.17612 	-0.000415381 	-2.42858 	2.0484e-08 	5.16695 	14.8331 	
7.28798e-12 	19280.2 	1.92802 	3.85603 	0.3 	2.33333 	-1.04082 	1.11111e-05 	
0.000199825 	0.000199825 	-0.00104015 	-26026.2 	0.00228271 	31.642 	-26057.8 	-26057.8 	0 	
0.000213889 	1.11209e-09 	0.843947 	0.0780266 	0.0780266 	-0.148426 	4.02725 	
4.17568 	4.17612 	-0.00044085 	-2.57749 	7.1272e-09 	2.66391 	17.3361 	
7.7347e-12 	19280.2 	1.92802 	3.85603 	0.3 	2.33333 	-1.10464 	1.11111e-05 	
0.000199825 	0.000199825 	-0.00110284 	-27537.1 	0.000709587 	43.1715 	-27580.2 	-27580.2 	0 	
0.000225 	0 	0.843947 	0.0780266 	0.0780266 	-0.148426 	4.02722 	
4.17565 	4.17612 	-0.000470412 	-1.37517 	7.1272e-09 	0.687583 	19.3124 	
4.12662e-12 	9640.08 	0.964008 	1.92802 	0.3 	1.16667 	-1.17871 	5.55556e-06 	
9.99124e-05 	9.99124e-05 	-0.00117623 	-29423.3 	0.000153231 	49.5549 	-29472.9 	-29472.9 	0 	
ZONE T = "t = 5.5e-08 [s]" I = 10 SOLUTIONTIME = 5.5000000000000E-08
0.000125 	1.53791e-08 	0.843947 	0.0780266 	0.0780266 	-0.148426 	4.02736 	
4.17578 	4.17612 	-0.000336161 	-0.982701 	9.85567e-08 	19.5086 	0.49135 	
3.93191e-12 	9640.08 	0.964008 	1.92802 	0.3 	1.16667 	-0.842315 	5.55556e-06 	
9.99124e-05 	9.99124e-05 	-0.00115905 	-21066.6 	0.0293045 	0.137957 	-21066.8 	-21066.8 	0 	
0.000136111 	1.37824e-08 	0.843947 	0.0780266 	0.0780266 	-0.148426 	4.02735 	
4.17578 	4.17612 	-0.000337704 	-1.97442 	8.83187e-08 	18.0301 	1.96991 	
7.89991e-12 	19280.2 	1.92802 	3.85603 	0.3 	2.33333 	-0.846181 	1.11111e-05 	
0.000199825 	0.000199825 	-0.00116535 	-21199.5 	0.02642 	0.693591 	-21200.2 	-21200.2 	0 	
0.000147222 	1.21636e-08 	0.843947 	0.0780266 	0.0780266 	-0.148426 	4.02735 	
4.17578 	4.17612 	-0.000342382 	-2.00178 	7.79453e-08 	16.042 	3.95801 	
8.00932e-12 	19280.2 	1.92802 	3.85603 	0.3 	2.33333 	-0.857904 	1.11111e-05 	
0.000199825 	0.000199825 	-0.00117978 	-21443.4 	0.0209334 	2.38109 	-21445.8 	-21445.8 	0 	
0.000158333 	1.05076e-08 	0.843947 	0.0780266 	0.0780266 	-0.148426 	4.02734 	
4.17577 	4.17612 	-0.00035024 	-2.04772 	6.73339e-08 	14.0172 	5.98276 	
8.19309e-12 	19280.2 	1.92802 	3.85603 	0.3 	2.33333 	-0.877593 	1.11111e-05 	
0.000199825 	0.000199825 	-0.00120715 	-21923.5 	0.0160056 	5.26309 	-21928.8 	-21928.8 	0 	
0.000169444 	8.79915e-09 	0.843947 	0.0780266 	0.0780266 	-0.148426 	4.02733 	
4.17576 	4.17612 	-0.00036135 	-2.11267 	5.63859e-08 	11.937 	8.06295 	
8.45292e-12 	19280.2 	1.92802 	3.85603 	0.3 	2.33333 	-0.905432 	1.11111e-05 	
0.000199825 	0.000199825 	-0.00124532 	-22625.6 	0.0116364 	9.44672 	-22635.1 	-22635.1 	0 	
0.000180556 	7.02225e-09 	0.843947 	0.0780266 	0.0780266 	-0.148426 	4.02732 	
4.17574 	4.17612 	-0.000375815 	-2.19725 	4.49996e-08 	9.78209 	10.2179 	
8.79122e-12 	19280.2 	1.92802 	3.85603 	0.3 	2.33333 	-0.941678 	1.11111e-05 	
0.000199825 	0.000199825 	-0.00129437 	-23519 	0.00785133 	15.0875 	-23534.1 	-23534.1 	0 	
0.000191667 	5.16046e-09 	0.843947 	0.0780266 	0.0780266 	-0.148426 	4.0273 	
4.17572 	4.17612 	-0.00039377 	-2.30223 	3.30693e-08 	7.53235 	12.4676 	
9.21113e-12 	19280.2 	1.92802 	3.85603 	0.3 	2.33333 	-0.986668 	1.11111e-05 	
0.000199825 	0.000199825 	-0.00135723 	-24667.2 	0.00470461 	22.3953 	-24689.6 	-24689.6 	0 	
0.000202778 	3.19648e-09 	0.843947 	0.0780266 	0.0780266 	-0.148426 	4.02728 	
4.1757 	4.17612 	-0.000415381 	-2.42858 	2.04842e-08 	5.16695 	14.8331 	
9.71656e-12 	19280.2 	1.92802 	3.85603 	0.3 	2.33333 	-1.04082 	1.11111e-05 	
0.000199825 	0.000199825 	-0.0014302 	-26003.7 	0.00228271 	31.642 	-26035.4 	-26035.4 	0 	
0.000213889 	1.11209e-09 	0.843947 	0.0780266 	0.0780266 	-0.148426 	4.02725 	
4.17568 	4.17612 	-0.00044085 	-2.57749 	7.1275e-09 	2.66391 	17.3361 	
1.03122e-11 	19280.2 	1.92802 	3.85603 	0.3 	2.33333 	-1.10464 	1.11111e-05 	
0.000199825 	0.000199825 	-0.00151628 	-27562.9 	0.000709587 	43.1715 	-27606.1 	-27606.1 	0 	
0.000225 	0 	0.843947 	0.0780266 	0.0780266 	-0.148426 	4.02722 	
4.17565 	4.17612 	-0.000470412 	-1.37517 	7.1275e-09 	0.687583 	19.3124 	
5.50178e-12 	9640.08 	0.964008 	1.92802 	0.3 	1.16667 	-1.17871 	5.55556e-06 	
9.99124e-05 	9.99124e-05 	-0.00161704 	-29387.1 	0.000153231 	49.5549 	-29436.7 	-29436.7 	0 	
ZONE T = "t = 7.75e-08 [s]" I = 10 SOLUTIONTIME = 7.7500000000000E-08
0.000125 	1.53791e-08 	0.843947 	0.0780266 	0.0780266 	-0.148426 	4.02736 	
4.17578 	4.17612 	-0.000336161 	-0.982701 	9.85592e-08 	19.5086 	0.49135 	
5.40596e-12 	9640.08 	0.964008 	1.92802 	0.3 	1.16667 	-0.842315 	5.55556e-06 	
9.99124e-05 	9.99124e-05 	-0.00163252 	-21042.9 	0.0293045 	0.137957 	-21043 	-21043 	0 	
0.000136111 	1.37824e-08 	0.843947 	0.0780266 	0.0780266 	-0.148426 	4.02735 	
4.17578 	4.17612 	-0.000337704 	-1.97442 	8.83188e-08 	18.0301 	1.96991 	
1.08615e-11 	19280.2 	1.92802 	3.85603 	0.3 	2.33333 	-0.846181 	1.11111e-05 	
0.000199825 	0.000199825 	-0.00164133 	-21154.6 	0.02642 	0.693591 	-21155.4 	-21155.4 	0 	
0.000147222 	1.21636e-08 	0.843947 	0.0780266 	0.0780266 	-0.148426 	4.02735 	
4.17578 	4.17612 	-0.000342382 	-2.00178 	7.79455e-08 	16.042 	3.95801 	
1.1012e-11 	19280.2 	1.92802 	3.85603 	0.3 	2.33333 	-0.857904 	1.11111e-05 	
0.000199825 	0.000199825 	-0.00166257 	-21457.3 	0.0209334 	2.38109 	-21459.7 	-21459.7 	0 	
0.000158333 	1.05076e-08 	0.843947 	0.0780266 	0.0780266 	-0.148426 	4.02734 	
4.17577 	4.17612 	-0.00035024 	-2.04772 	6.73341e-08 	14.0172 	5.98276 	
1.12647e-11 	19280.2 	1.92802 	3.85603 	0.3 	2.33333 	-0.877593 	1.11111e-05 	
0.000199825 	0.000199825 	-0.00170078 	-21939.2 	0.0160056 	5.26309 	-21944.4 	-21944.4 	0 	
0.000169444 	8.79915e-09 	0.843947 	0.0780266 	0.0780266 	-0.148426 	4.02733 	
4.17576 	4.17612 	-0.00036135 	-2.11267 	5.63861e-08 	11.937 	8.06295 	
1.16219e-11 	19280.2 	1.92802 	3.85603 	0.3 	2.33333 	-0.905432 	1.11111e-05 	
0.000199825 	0.000199825 	-0.00175466 	-22637.1 	0.0116364 	9.44672 	-22646.6 	-22646.6 	0 	
0.000180556 	7.02225e-09 	0.843947 	0.0780266 	0.0780266 	-0.148426 	4.02732 	
4.17574 	4.17612 	-0.000375815 	-2.19725 	4.49999e-08 	9.78209 	10.2179 	
1.20871e-11 	19280.2 	1.92802 	3.85603 	0.3 	2.33333 	-0.941678 	1.11111e-05 	
0.000199825 	0.000199825 	-0.00182371 	-23526.2 	0.00785133 	15.0875 	-23541.3 	-23541.3 	0 	
0.000191667 	5.16046e-09 	0.843947 	0.0780266 	0.0780266 	-0.148426 	4.0273 	
4.17572 	4.17612 	-0.00039377 	-2.30223 	3.30696e-08 	7.53235 	12.4676 	
1.26645e-11 	19280.2 	1.92802 	3.85603 	0.3 	2.33333 	-0.986668 	1.11111e-05 	
0.000199825 	0.000199825 	-0.00191186 	-24650.2 	0.00470461 	22.3953 	-24672.6 	-24672.6 	0 	
0.000202778 	3.19648e-09 	0.843947 	0.0780266 	0.0780266 	-0.148426 	4.02728 	
4.1757 	4.17612 	-0.000415381 	-2.42858 	2.04846e-08 	5.16695 	14.8331 	
1.33594e-11 	19280.2 	1.92802 	3.85603 	0.3 	2.33333 	-1.04082 	1.11111e-05 	
0.000199825 	0.000199825 	-0.00201488 	-25985.7 	0.00228271 	31.642 	-26017.3 	-26017.3 	0 	
0.000213889 	1.11209e-09 	0.843947 	0.0780266 	0.0780266 	-0.148426 	4.02725 	
4.17568 	4.17612 	-0.00044085 	-2.57749 	7.12795e-09 	2.66391 	17.3361 	
1.41784e-11 	19280.2 	1.92802 	3.85603 	0.3 	2.33333 	-1.10464 	1.11111e-05 	
0.000199825 	0.000199825 	-0.00213705 	-27589.7 	0.000709587 	43.1715 	-27632.8 	-27632.8 	0 	
0.000225 	0 	0.843947 	0.0780266 	0.0780266 	-0.148426 	4.02722 	
4.17565 	4.17612 	-0.000470412 	-1.37517 	7.12795e-09 	0.687583 	19.3124 	
7.56453e-12 	9640.08 	0.964008 	1.92802 	0.3 	1.16667 	-1.17871 	5.55556e-06 	
9.99124e-05 	9.99124e-05 	-0.00227886 	-29414.2 	0.000153231 	49.5549 	-29463.7 	-29463.7 	0 	
ZONE T = "t = 1.1125e-07 [s]" I = 10 SOLUTIONTIME = 1.1125000000000E-07
0.000125 	1.53791e-08 	0.843947 	0.0780266 	0.0780266 	-0.148426 	4.02736 	
4.17578 	4.17612 	-0.000336161 	-0.982701 	9.8563e-08 	19.5086 	0.49135 	
7.61704e-12 	9640.08 	0.964008 	1.92802 	0.3 	1.16667 	-0.842315 	5.55556e-06 	
9.99124e-05 	9.99124e-05 	-0.00234381 	-21075.5 	0.0293045 	0.137957 	-21075.7 	-21075.7 	0 	
0.000136111 	1.37824e-08 	0.843947 	0.0780266 	0.0780266 	-0.148426 	4.02735 	
4.17578 	4.17612 	-0.000337704 	-1.97442 	8.83189e-08 	18.0301 	1.96991 	
1.5304e-11 	19280.2 	1.92802 	3.85603 	0.3 	2.33333 	-0.846181 	1.11111e-05 	
0.000199825 	0.000199825 	-0.00235592 	-21173 	0.02642 	0.693591 	-21173.8 	-21173.8 	0 	
0.000147222 	1.21636e-08 	0.843947 	0.0780266 	0.0780266 	-0.148426 	4.02735 	
4.17578 	4.17612 	-0.000342382 	-2.00178 	7.79456e-08 	16.042 	3.95801 	
1.5516e-11 	19280.2 	1.92802 	3.85603 	0.3 	2.33333 	-0.857904 	1.11111e-05 	
0.000199825 	0.000199825 	-0.00238663 	-21453.7 	0.0209334 	2.38109 	-21456.1 	-21456.1 	0 	
0.000158333 	1.05076e-08 	0.843947 	0.0780266 	0.0780266 	-0.148426 	4.02734 	
4.17577 	4.17612 	-0.00035024 	-2.04772 	6.73343e-08 	14.0172 	5.98276 	
1.5872e-11 	19280.2 	1.92802 	3.85603 	0.3 	2.33333 	-0.877593 	1.11111e-05 	
0.000199825 	0.000199825 	-0.00244155 	-21948.6 	0.0160056 	5.26309 	-21953.9 	-21953.9 	0 	
0.000169444 	8.79915e-09 	0.843947 	0.0780266 	0.0780266 	-0.148426 	4.02733 	
4.17576 	4.17612 	-0.00036135 	-2.11267 	5.63865e-08 	11.937 	8.06295 	
1.63754e-11 	19280.2 	1.92802 	3.85603 	0.3 	2.33333 	-0.905432 	1.11111e-05 	
0.000199825 	0.000199825 	-0.0025182 	-22623.5 	0.0116364 	9.44672 	-22633 	-22633 	0 	
0.000180556 	7.02225e-09 	0.843947 	0.0780266 	0.0780266 	-0.148426 	4.02732 	
4.17574 	4.17612 	-0.000375815 	-2.19725 	4.50003e-08 	9.78209 	10.2179 	
1.70309e-11 	19280.2 	1.92802 	3.85603 	0.3 	2.33333 	-0.941678 	1.11111e-05 	
0.000199825 	0.000199825 	-0.00261774 	-23526.9 	0.00785133 	15.0875 	-23542 	-23542 	0 	
0.000191667 	5.16046e-09 	0.843947 	0.0780266 	0.0780266 	-0.148426 	4.0273 	
4.17572 	4.17612 	-0.00039377 	-2.30223 	3.30701e-08 	7.53235 	12.4676 	
1.78445e-11 	19280.2 	1.92802 	3.85603 	0.3 	2.33333 	-0.986668 	1.11111e-05 	
0.000199825 	0.000199825 	-0.00274358 	-24643.6 	0.00470461 	22.3953 	-24666 	-24666 	0 	
0.000202778 	3.19648e-09 	0.843947 	0.0780266 	0.0780266 	-0.148426 	4.02728 	
4.1757 	4.17612 	-0.000415381 	-2.42858 	2.04852e-08 	5.16695 	14.8331 	
1.88237e-11 	19280.2 	1.92802 	3.85603 	0.3 	2.33333 	-1.04082 	1.11111e-05 	
0.000199825 	0.000199825 	-0.00289166 	-25978.6 	0.00228271 	31.642 	-26010.3 	-26010.3 	0 	
0.000213889 	1.11209e-09 	0.843947 	0.0780266 	0.0780266 	-0.148426 	4.02725 	
4.17568 	4.17612 	-0.00044085 	-2.57749 	7.12862e-09 	2.66391 	17.3361 	
1.99778e-11 	19280.2 	1.92802 	3.85603 	0.3 	2.33333 	-1.10464 	1.11111e-05 	
0.000199825 	0.000199825 	-0.00306719 	-27559.6 	0.000709587 	43.1715 	-27602.8 	-27602.8 	0 	
0.000225 	0 	0.843947 	0.0780266 	0.0780266 	-0.148426 	4.02722 	
4.17565 	4.17612 	-0.000470412 	-1.37517 	7.12862e-09 	0.687583 	19.3124 	
1.06587e-11 	9640.08 	0.964008 	1.92802 	0.3 	1.16667 	-1.17871 	5.55556e-06 	
9.99124e-05 	9.99124e-05 	-0.00327134 	-29406.8 	0.000153231 	49.5549 	-29456.3 	-29456.3 	0 	
ZONE T = "t = 1.61875e-07 [s]" I = 10 SOLUTIONTIME = 1.6187500000000E-07
0.000125 	1.53791e-08 	0.843947 	0.0780266 	0.0780266 	-0.148426 	4.02736 	
4.17578 	4.17612 	-0.000336161 	-0.982701 	9.85689e-08 	19.5086 	0.49135 	
1.09337e-11 	9640.08 	0.964008 	1.92802 	0.3 	1.16667 	-0.842315 	5.55556e-06 	
9.99124e-05 	9.99124e-05 	-0.00341059 	-21072.2 	0.0293045 	0.137957 	-21072.4 	-21072.4 	0 	
0.000136111 	1.37824e-08 	0.843947 	0.0780266 	0.0780266 	-0.148426 	4.02735 	
4.17578 	4.17612 	-0.000337704 	-1.97442 	8.83191e-08 	18.0301 	1.96991 	
2.19677e-11 	19280.2 	1.92802 	3.85603 	0.3 	2.33333 	-0.846181 	1.11111e-05 	
0.000199825 	0.000199825 	-0.00342734 	-21163.9 	0.02642 	0.693591 	-21164.6 	-21164.6 	0 	
0.000147222 	1.21636e-08 	0.843947 	0.0780266 	0.0780266 	-0.148426 	4.02735 	
4.17578 	4.17612 	-0.000342382 	-2.00178 	7.79459e-08 	16.042 	3.95801 	
2.2272e-11 	19280.2 	1.92802 	3.85603 	0.3 	2.33333 	-0.857904 	1.11111e-05 	
0.000199825 	0.000199825 	-0.00347254 	-21450 	0.0209334 	2.38109 	-21452.4 	-21452.4 	0 	
0.000158333 	1.05076e-08 	0.843947 	0.0780266 	0.0780266 	-0.148426 	4.02734 	
4.17577 	4.17612 	-0.00035024 	-2.04772 	6.73347e-08 	14.0172 	5.98276 	
2.27831e-11 	19280.2 	1.92802 	3.85603 	0.3 	2.33333 	-0.877593 	1.11111e-05 	
0.000199825 	0.000199825 	-0.0035525 	-21944.6 	0.0160056 	5.26309 	-21949.9 	-21949.9 	0 	
0.000169444 	8.79915e-09 	0.843947 	0.0780266 	0.0780266 	-0.148426 	4.02733 	
4.17576 	4.17612 	-0.00036135 	-2.11267 	5.63869e-08 	11.937 	8.06295 	
2.35057e-11 	19280.2 	1.92802 	3.85603 	0.3 	2.33333 	-0.905432 	1.11111e-05 	
0.000199825 	0.000199825 	-0.00366309 	-22615.1 	0.0116364 	9.44672 	-22624.5 	-22624.5 	0 	
0.000180556 	7.02225e-09 	0.843947 	0.0780266 	0.0780266 	-0.148426 	4.02732 	
4.17574 	4.17612 	-0.000375815 	-2.19725 	4.50009e-08 	9.78209 	10.2179 	
2.44466e-11 	19280.2 	1.92802 	3.85603 	0.3 	2.33333 	-0.941678 	1.11111e-05 	
0.000199825 	0.000199825 	-0.00380916 	-23534.3 	0.00785133 	15.0875 	-23549.4 	-23549.4 	0 	
0.000191667 	5.16046e-09 	0.843947 	0.0780266 	0.0780266 	-0.148426 	4.0273 	
4.17572 	4.17612 	-0.00039377 	-2.30223 	3.30709e-08 	7.53235 	12.4676 	
2.56145e-11 	19280.2 	1.92802 	3.85603 	0.3 	2.33333 	-0.986668 	1.11111e-05 	
0.000199825 	0.000199825 	-0.0039914 	-24648.3 	0.00470461 	22.3953 	-24670.7 	-24670.7 	0 	
0.000202778 	3.19648e-09 	0.843947 	0.0780266 	0.0780266 	-0.148426 	4.02728 	
4.1757 	4.17612 	-0.000415381 	-2.42858 	2.04861e-08 	5.16695 	14.8331 	
2.70202e-11 	19280.2 	1.92802 	3.85603 	0.3 	2.33333 	-1.04082 	1.11111e-05 	
0.000199825 	0.000199825 	-0.00420733 	-25988.7 	0.00228271 	31.642 	-26020.3 	-26020.3 	0 	
0.000213889 	1.11209e-09 	0.843947 	0.0780266 	0.0780266 	-0.148426 	4.02725 	
4.17568 	4.17612 	-0.00044085 	-2.57749 	7.12962e-09 	2.66391 	17.3361 	
2.86768e-11 	19280.2 	1.92802 	3.85603 	0.3 	2.33333 	-1.10464 	1.11111e-05 	
0.000199825 	0.000199825 	-0.00446239 	-27559.5 	0.000709587 	43.1715 	-27602.7 	-27602.7 	0 	
0.000225 	0 	0.843947 	0.0780266 	0.0780266 	-0.148426 	4.02722 	
4.17565 	4.17612 	-0.000470412 	-1.37517 	7.12962e-09 	0.687583 	19.3124 	
1.52998e-11 	9640.08 	0.964008 	1.92802 	0.3 	1.16667 	-1.17871 	5.55556e-06 	
9.99124e-05 	9.99124e-05 	-0.00475967 	-29399.1 	0.000153231 	49.5549 	-29448.7 	-29448.7 	0 	
ZONE T = "t = 2.37813e-07 [s]" I = 10 SOLUTIONTIME = 2.3781250000000E-07
0.000125 	1.53791e-08 	0.843947 	0.0780266 	0.0780266 	-0.148426 	4.02736 	
4.17578 	4.17612 	-0.000336161 	-0.982701 	9.8578e-08 	19.5086 	0.49135 	
1.59086e-11 	9640.08 	0.964008 	1.92802 	0.3 	1.16667 	-0.842315 	5.55556e-06 	
9.99124e-05 	9.99124e-05 	-0.00501095 	-21074.6 	0.0293045 	0.137957 	-21074.8 	-21074.8 	0 	
0.000136111 	1.37824e-08 	0.843947 	0.0780266 	0.0780266 	-0.148426 	4.02735 	
4.17578 	4.17612 	-0.000337704 	-1.97442 	8.83194e-08 	18.0301 	1.96991 	
3.19632e-11 	19280.2 	1.92802 	3.85603 	0.3 	2.33333 	-0.846181 	1.11111e-05 	
0.000199825 	0.000199825 	-0.00503489 	-21169.3 	0.02642 	0.693591 	-21170 	-21170 	0 	
0.000147222 	1.21636e-08 	0.843947 	0.0780266 	0.0780266 	-0.148426 	4.02735 	
4.17578 	4.17612 	-0.000342382 	-2.00178 	7.79463e-08 	16.042 	3.95801 	