TITLE = "Solution on Domain BulkDomain1D_2"
VARIABLES = "x [m]"  
"Vel_axial(0)" 	"MF_sp(ECDMC)" 	"MF_sp(Li+)" 	"MF_sp(PF6-)" 	"Volt(Electroly)" 	"Volt(CathodeVo)" 	
"Potential Drop Electrode-Electrolyte [V]" 	"Surf_0 Equilibrium Potential Drop Electrode-Electrolyte [V]" 	"Overpotential_0 [V]" 	"Current Source [A/m^2]" 	"Li+ flux [kmol/m^2/s]" 	"Electrolyte Current [A/m^2]" 	"Electrode Current [A/m^2]" 	
"Capacity discharged [A-s]" 	"Depth of discharge [-]" 	"Capacity remaining [A-s]" 	"Initial capacity [A-s]" 	"Porosity []" 	"Surface Area [m2/m2] (area per area)" 	"Specific current (per particle area) [A/m^2]" 	"Control volume thickness [m]" 	
"Moles LiCoO2 [mol/m^2] (per electrode area)" 	"Moles CoO2 [mol/m^2] (per electrode area)" 	

ZONE T = "t = 0 [s]" I = 10 SOLUTIONTIME = 0.0000000000000E+00
0.760128 	0 	0.92 	0.04 	0.04 	-0.07 	3.8 	
0 	0 	0 	0 	0 	88.3125 	0 	
0 	0 	0 	0 	0.3 	2.21667 	-79.6804 	1.05556e-05 	
0.000166326 	0.000337691 	
0.760149 	0 	0.92 	0.04 	0.04 	-0.07 	3.8 	
0 	0 	0 	0 	0 	0 	-0 	
0 	0 	0 	0 	0.3 	4.43333 	-79.6804 	2.11111e-05 	
0.000332651 	0.000675383 	
0.76017 	0 	0.92 	0.04 	0.04 	-0.07 	3.8 	
0 	0 	0 	0 	0 	0 	-0 	
0 	0 	0 	0 	0.3 	4.43333 	-79.6804 	2.11111e-05 	
0.000332651 	0.000675383 	
0.760191 	0 	0.92 	0.04 	0.04 	-0.07 	3.8 	
0 	0 	0 	0 	0 	0 	-0 	
0 	0 	0 	0 	0.3 	4.43333 	-79.6804 	2.11111e-05 	
0.000332651 	0.000675383 	
0.760212 	0 	0.92 	0.04 	0.04 	-0.07 	3.8 	
0 	0 	0 	0 	0 	0 	-0 	
0 	0 	0 	0 	0.3 	4.43333 	-79.6804 	2.11111e-05 	
0.000332651 	0.000675383 	
0.760234 	0 	0.92 	0.04 	0.04 	-0.07 	3.8 	
0 	0 	0 	0 	0 	0 	-0 	
0 	0 	0 	0 	0.3 	4.43333 	-79.6804 	2.11111e-05 	
0.000332651 	0.000675383 	
0.760255 	0 	0.92 	0.04 	0.04 	-0.07 	3.8 	
0 	0 	0 	0 	0 	0 	-0 	
0 	0 	0 	0 	0.3 	4.43333 	-79.6804 	2.11111e-05 	
0.000332651 	0.000675383 	
0.760276 	0 	0.92 	0.04 	0.04 	-0.07 	3.8 	
0 	0 	0 	0 	0 	0 	-0 	
0 	0 	0 	0 	0.3 	4.43333 	-79.6804 	2.11111e-05 	
0.000332651 	0.000675383 	
0.760297 	0 	0.92 	0.04 	0.04 	-0.07 	3.8 	
0 	0 	0 	0 	0 	0 	-0 	
0 	0 	0 	0 	0.3 	4.43333 	-79.6804 	2.11111e-05 	
0.000332651 	0.000675383 	
0.760318 	0 	0.92 	0.04 	0.04 	-0.07 	3.8 	
0 	0 	0 	0 	0 	0 	88.3125 	
0 	0 	0 	0 	0.3 	2.21667 	-79.6804 	1.05556e-05 	
0.000166326 	0.000337691 	
ZONE T = "t = 1e-08 [s]" I = 10 SOLUTIONTIME = 1.0000000000000E-08
0.760128 	1.31168e-08 	0.92 	0.04 	0.04 	-0.113646 	4.03163 	
3.87 	4.15572 	-0.285721 	-176.625 	-0 	19.4448 	0.555363 	
-0 	16048 	81.6609 	121.882 	0.3 	2.21667 	-0.501213 	1.05556e-05 	
0.000166326 	0.000337691 	
0.760149 	1.15742e-08 	0.92 	0.04 	0.04 	-0.113646 	4.03163 	
3.87 	4.15572 	-0.285721 	-353.25 	-0 	17.7785 	2.22146 	
-0 	32096 	163.322 	243.764 	0.3 	4.43333 	-0.501218 	2.11111e-05 	
0.000332651 	0.000675383 	
0.76017 	1.00316e-08 	0.92 	0.04 	0.04 	-0.113646 	4.03163 	
3.87 	4.15572 	-0.285721 	-353.25 	-0 	15.557 	4.44298 	
-0 	32096 	163.322 	243.764 	0.3 	4.43333 	-0.501237 	2.11111e-05 	
0.000332651 	0.000675383 	
0.760191 	8.4888e-09 	0.92 	0.04 	0.04 	-0.113646 	4.03162 	
3.87 	4.15572 	-0.285721 	-353.25 	-0 	13.3354 	6.66461 	
-0 	32096 	163.322 	243.764 	0.3 	4.43333 	-0.501269 	2.11111e-05 	
0.000332651 	0.000675383 	
0.760212 	6.9459e-09 	0.92 	0.04 	0.04 	-0.113646 	4.03162 	
3.87 	4.15572 	-0.285721 	-353.25 	-0 	11.1136 	8.88641 	
-0 	32096 	163.322 	243.764 	0.3 	4.43333 	-0.501314 	2.11111e-05 	
0.000332651 	0.000675383 	
0.760234 	5.40282e-09 	0.92 	0.04 	0.04 	-0.113646 	4.03162 	
3.87 	4.15572 	-0.285721 	-353.25 	-0 	8.89157 	11.1084 	
-0 	32096 	163.322 	243.764 	0.3 	4.43333 	-0.501372 	2.11111e-05 	
0.000332651 	0.000675383 	
0.760255 	3.85952e-09 	0.92 	0.04 	0.04 	-0.113646 	4.03161 	
3.87 	4.15572 	-0.285721 	-353.25 	-0 	6.66925 	13.3307 	
-0 	32096 	163.322 	243.764 	0.3 	4.43333 	-0.501443 	2.11111e-05 	
0.000332651 	0.000675383 	
0.760276 	2.31596e-09 	0.92 	0.04 	0.04 	-0.113646 	4.03161 	
3.87 	4.15572 	-0.285721 	-353.25 	-0 	4.44659 	15.5534 	
-0 	32096 	163.322 	243.764 	0.3 	4.43333 	-0.501528 	2.11111e-05 	
0.000332651 	0.000675383 	
0.760297 	7.72101e-10 	0.92 	0.04 	0.04 	-0.113646 	4.03161 	
3.87 	4.15572 	-0.285721 	-353.25 	-0 	2.22353 	17.7765 	
-0 	32096 	163.322 	243.764 	0.3 	4.43333 	-0.501626 	2.11111e-05 	
0.000332651 	0.000675383 	
0.760318 	0 	0.92 	0.04 	0.04 	-0.113646 	4.0316 	
3.87 	4.15572 	-0.285721 	-176.625 	-0 	0.555943 	19.4442 	
-0 	16048 	81.6609 	121.882 	0.3 	2.21667 	-0.501737 	1.05556e-05 	
0.000166326 	0.000337691 	
ZONE T = "t = 2e-08 [s]" I = 10 SOLUTIONTIME = 2.0000000000000E-08
0.760128 	1.31168e-08 	0.92 	0.04 	0.04 	-0.113092 	4.00423 	
4.14527 	4.15572 	-0.0104483 	-1.11102 	9.78881e-08 	19.4455 	0.555403 	
2.78455e-11 	16048 	81.6609 	121.882 	0.3 	2.21667 	-0.501958 	1.05556e-05 	
0.000166326 	0.000337691 	
0.760149 	1.15741e-08 	0.92 	0.04 	0.04 	-0.113092 	4.00423 	
4.14527 	4.15572 	-0.0104486 	-2.22207 	8.63748e-08 	17.7784 	2.22162 	
5.56917e-11 	32096 	163.322 	243.764 	0.3 	4.43333 	-0.501962 	2.11111e-05 	
0.000332651 	0.000675383 	
0.76017 	1.00313e-08 	0.92 	0.04 	0.04 	-0.113092 	4.00423 	
4.14527 	4.15572 	-0.0104496 	-2.22215 	7.48624e-08 	15.5567 	4.44329 	
5.56938e-11 	32096 	163.322 	243.764 	0.3 	4.43333 	-0.501977 	2.11111e-05 	
0.000332651 	0.000675383 	
0.760191 	8.48846e-09 	0.92 	0.04 	0.04 	-0.113092 	4.00423 	
4.14527 	4.15572 	-0.0104512 	-2.22229 	6.33492e-08 	13.335 	6.66504 	
5.56973e-11 	32096 	163.322 	243.764 	0.3 	4.43333 	-0.502002 	2.11111e-05 	
0.000332651 	0.000675383 	
0.760212 	6.94551e-09 	0.92 	0.04 	0.04 	-0.113092 	4.00423 	
4.14527 	4.15572 	-0.0104535 	-2.22249 	5.18351e-08 	11.1131 	8.88693 	
5.57023e-11 	32096 	163.322 	243.764 	0.3 	4.43333 	-0.502038 	2.11111e-05 	
0.000332651 	0.000675383 	
0.760234 	5.40242e-09 	0.92 	0.04 	0.04 	-0.113092 	4.00423 	
4.14526 	4.15572 	-0.0104565 	-2.22275 	4.03195e-08 	8.891 	11.109 	
5.57088e-11 	32096 	163.322 	243.764 	0.3 	4.43333 	-0.502084 	2.11111e-05 	
0.000332651 	0.000675383 	
0.760255 	3.85916e-09 	0.92 	0.04 	0.04 	-0.113092 	4.00422 	
4.14526 	4.15572 	-0.0104601 	-2.22307 	2.88024e-08 	6.66871 	13.3313 	
5.57167e-11 	32096 	163.322 	243.764 	0.3 	4.43333 	-0.50214 	2.11111e-05 	
0.000332651 	0.000675383 	
0.760276 	2.31569e-09 	0.92 	0.04 	0.04 	-0.113092 	4.00422 	
4.14526 	4.15572 	-0.0104645 	-2.22344 	1.72833e-08 	4.44614 	15.5539 	
5.57261e-11 	32096 	163.322 	243.764 	0.3 	4.43333 	-0.502207 	2.11111e-05 	
0.000332651 	0.000675383 	
0.760297 	7.71988e-10 	0.92 	0.04 	0.04 	-0.113092 	4.00421 	
4.14525 	4.15572 	-0.0104695 	-2.22387 	5.76195e-09 	2.22325 	17.7767 	
5.5737e-11 	32096 	163.322 	243.764 	0.3 	4.43333 	-0.502284 	2.11111e-05 	
0.000332651 	0.000675383 	
0.760318 	0 	0.92 	0.04 	0.04 	-0.113092 	4.00421 	
4.14525 	4.15572 	-0.0104752 	-1.11218 	5.76195e-09 	0.555862 	19.4451 	
2.78747e-11 	16048 	81.6609 	121.882 	0.3 	2.21667 	-0.502372 	1.05556e-05 	
0.000166326 	0.000337691 	
ZONE T = "t = 3e-08 [s]" I = 10 SOLUTIONTIME = 3.0000000000000E-08
0.760128 	1.31168e-08 	0.92 	0.04 	0.04 	-0.113092 	4.00411 	
4.11733 	4.15572 	-0.0383949 	-1.11267 	9.78889e-08 	19.4477 	0.555403 	
5.57325e-11 	16048 	81.6609 	121.882 	0.3 	2.21667 	-0.503898 	1.05556e-05 	
0.000166326 	0.000337691 	
0.760149 	1.15741e-08 	0.92 	0.04 	0.04 	-0.113092 	4.00411 	
4.11733 	4.15572 	-0.0383952 	-2.22536 	8.63735e-08 	17.7784 	2.22162 	
1.11466e-10 	32096 	163.322 	243.764 	0.3 	4.43333 	-0.503903 	2.11111e-05 	
0.000332651 	0.000675383 	
0.76017 	1.00313e-08 	0.92 	0.04 	0.04 	-0.113092 	4.00411 	
4.11732 	4.15572 	-0.0383961 	-2.22543 	7.48604e-08 	15.5567 	4.44329 	
1.1147e-10 	32096 	163.322 	243.764 	0.3 	4.43333 	-0.503917 	2.11111e-05 	
0.000332651 	0.000675383 	
0.760191 	8.48846e-09 	0.92 	0.04 	0.04 	-0.113092 	4.00411 	
4.11732 	4.15572 	-0.0383978 	-2.22554 	6.33467e-08 	13.335 	6.66504 	
1.11476e-10 	32096 	163.322 	243.764 	0.3 	4.43333 	-0.503943 	2.11111e-05 	
0.000332651 	0.000675383 	
0.760212 	6.94551e-09 	0.92 	0.04 	0.04 	-0.113092 	4.0041 	
4.11732 	4.15572 	-0.0384001 	-2.2257 	5.18322e-08 	11.1131 	8.88693 	
1.11485e-10 	32096 	163.322 	243.764 	0.3 	4.43333 	-0.503978 	2.11111e-05 	
0.000332651 	0.000675383 	
0.760234 	5.40242e-09 	0.92 	0.04 	0.04 	-0.113092 	4.0041 	
4.11732 	4.15572 	-0.0384031 	-2.2259 	4.03166e-08 	8.891 	11.109 	
1.11497e-10 	32096 	163.322 	243.764 	0.3 	4.43333 	-0.504024 	2.11111e-05 	
0.000332651 	0.000675383 	
0.760255 	3.85916e-09 	0.92 	0.04 	0.04 	-0.113092 	4.0041 	
4.11731 	4.15572 	-0.0384067 	-2.22615 	2.87997e-08 	6.66871 	13.3313 	
1.11511e-10 	32096 	163.322 	243.764 	0.3 	4.43333 	-0.504081 	2.11111e-05 	
0.000332651 	0.000675383 	
0.760276 	2.31569e-09 	0.92 	0.04 	0.04 	-0.113092 	4.00409 	
4.11731 	4.15572 	-0.0384111 	-2.22645 	1.72813e-08 	4.44614 	15.5539 	
1.11528e-10 	32096 	163.322 	243.764 	0.3 	4.43333 	-0.504148 	2.11111e-05 	
0.000332651 	0.000675383 	
0.760297 	7.71987e-10 	0.92 	0.04 	0.04 	-0.113092 	4.00409 	
4.1173 	4.15572 	-0.0384161 	-2.22679 	5.7611e-09 	2.22325 	17.7767 	
1.11547e-10 	32096 	163.322 	243.764 	0.3 	4.43333 	-0.504226 	2.11111e-05 	
0.000332651 	0.000675383 	
0.760318 	0 	0.92 	0.04 	0.04 	-0.113092 	4.00408 	
4.1173 	4.15572 	-0.0384218 	-1.11359 	5.7611e-09 	0.555861 	19.4472 	
5.57846e-11 	16048 	81.6609 	121.882 	0.3 	2.21667 	-0.504313 	1.05556e-05 	
0.000166326 	0.000337691 	
ZONE T = "t = 4e-08 [s]" I = 10 SOLUTIONTIME = 4.0000000000000E-08
0.760128 	1.31168e-08 	0.92 	0.04 	0.04 	-0.113092 	4.00429 	
4.1172 	4.15572 	-0.0385206 	-1.11697 	9.78902e-08 	19.4446 	0.555403 	
8.37272e-11 	16048 	81.6609 	121.882 	0.3 	2.21667 	-0.501116 	1.05556e-05 	
0.000166326 	0.000337691 	
0.760149 	1.15741e-08 	0.92 	0.04 	0.04 	-0.113092 	4.00429 	
4.1172 	4.15572 	-0.0385209 	-2.23397 	8.63735e-08 	17.7784 	2.22162 	
1.67456e-10 	32096 	163.322 	243.764 	0.3 	4.43333 	-0.50112 	2.11111e-05 	
0.000332651 	0.000675383 	
0.76017 	1.00313e-08 	0.92 	0.04 	0.04 	-0.113092 	4.00429 	
4.1172 	4.15572 	-0.0385219 	-2.23403 	7.48604e-08 	15.5567 	4.44329 	
1.67461e-10 	32096 	163.322 	243.764 	0.3 	4.43333 	-0.501135 	2.11111e-05 	
0.000332651 	0.000675383 	
0.760191 	8.48846e-09 	0.92 	0.04 	0.04 	-0.113092 	4.00429 	
4.1172 	4.15572 	-0.0385235 	-2.23415 	6.33467e-08 	13.335 	6.66504 	
1.6747e-10 	32096 	163.322 	243.764 	0.3 	4.43333 	-0.50116 	2.11111e-05 	
0.000332651 	0.000675383 	
0.760212 	6.94551e-09 	0.92 	0.04 	0.04 	-0.113092 	4.00428 	
4.1172 	4.15572 	-0.0385258 	-2.2343 	5.18322e-08 	11.1131 	8.88693 	
1.67483e-10 	32096 	163.322 	243.764 	0.3 	4.43333 	-0.501195 	2.11111e-05 	
0.000332651 	0.000675383 	
0.760234 	5.40242e-09 	0.92 	0.04 	0.04 	-0.113092 	4.00428 	
4.11719 	4.15572 	-0.0385288 	-2.23451 	4.03166e-08 	8.89101 	11.109 	
1.675e-10 	32096 	163.322 	243.764 	0.3 	4.43333 	-0.501241 	2.11111e-05 	
0.000332651 	0.000675383 	
0.760255 	3.85916e-09 	0.92 	0.04 	0.04 	-0.113092 	4.00428 	
4.11719 	4.15572 	-0.0385325 	-2.23476 	2.87997e-08 	6.66871 	13.3313 	
1.67521e-10 	32096 	163.322 	243.764 	0.3 	4.43333 	-0.501298 	2.11111e-05 	
0.000332651 	0.000675383 	
0.760276 	2.31569e-09 	0.92 	0.04 	0.04 	-0.113092 	4.00427 	
4.11718 	4.15572 	-0.0385368 	-2.23506 	1.72813e-08 	4.44614 	15.5539 	
1.67545e-10 	32096 	163.322 	243.764 	0.3 	4.43333 	-0.501365 	2.11111e-05 	
0.000332651 	0.000675383 	
0.760297 	7.71988e-10 	0.92 	0.04 	0.04 	-0.113092 	4.00427 	
4.11718 	4.15572 	-0.0385418 	-2.2354 	5.7611e-09 	2.22325 	17.7767 	
1.67573e-10 	32096 	163.322 	243.764 	0.3 	4.43333 	-0.501442 	2.11111e-05 	
0.000332651 	0.000675383 	
0.760318 	0 	0.92 	0.04 	0.04 	-0.113092 	4.00426 	
4.11717 	4.15572 	-0.0385475 	-1.11789 	5.7611e-09 	0.555862 	19.4441 	
8.38024e-11 	16048 	81.6609 	121.882 	0.3 	2.21667 	-0.50153 	1.05556e-05 	
0.000166326 	0.000337691 	
ZONE T = "t = 4.57155e-08 [s]" I = 10 SOLUTIONTIME = 4.5715481302889E-08
0.760128 	1.31168e-08 	0.92 	0.04 	0.04 	-0.113092 	4.00429 	
4.11738 	4.15572 	-0.0383403 	-1.11081 	9.78916e-08 	19.4446 	0.555403 	
1.11567e-10 	16048 	81.6609 	121.882 	0.3 	2.21667 	-0.501116 	1.05556e-05 	
0.000166326 	0.000337691 	
0.760149 	1.15741e-08 	0.92 	0.04 	0.04 	-0.113092 	4.00429 	
4.11738 	4.15572 	-0.0383405 	-2.22163 	8.63736e-08 	17.7784 	2.22162 	
2.23137e-10 	32096 	163.322 	243.764 	0.3 	4.43333 	-0.50112 	2.11111e-05 	
0.000332651 	0.000675383 	
0.76017 	1.00313e-08 	0.92 	0.04 	0.04 	-0.113092 	4.00429 	
4.11738 	4.15572 	-0.0383415 	-2.2217 	7.48604e-08 	15.5567 	4.44329 	
2.23144e-10 	32096 	163.322 	243.764 	0.3 	4.43333 	-0.501135 	2.11111e-05 	
0.000332651 	0.000675383 	
0.760191 	8.48846e-09 	0.92 	0.04 	0.04 	-0.113092 	4.00429 	
4.11738 	4.15572 	-0.0383431 	-2.22181 	6.33467e-08 	13.335 	6.66504 	
2.23156e-10 	32096 	163.322 	243.764 	0.3 	4.43333 	-0.50116 	2.11111e-05 	
0.000332651 	0.000675383 	
0.760212 	6.94551e-09 	0.92 	0.04 	0.04 	-0.113092 	4.00428 	
4.11738 	4.15572 	-0.0383454 	-2.22197 	5.18322e-08 	11.1131 	8.88693 	
2.23173e-10 	32096 	163.322 	243.764 	0.3 	4.43333 	-0.501195 	2.11111e-05 	
0.000332651 	0.000675383 	
0.760234 	5.40242e-09 	0.92 	0.04 	0.04 	-0.113092 	4.00428 	
4.11737 	4.15572 	-0.0383484 	-2.22217 	4.03166e-08 	8.89101 	11.109 	
2.23194e-10 	32096 	163.322 	243.764 	0.3 	4.43333 	-0.501241 	2.11111e-05 	
0.000332651 	0.000675383 	
0.760255 	3.85916e-09 	0.92 	0.04 	0.04 	-0.113092 	4.00428 	
4.11737 	4.15572 	-0.0383521 	-2.22242 	2.87997e-08 	6.66871 	13.3313 	
2.23221e-10 	32096 	163.322 	243.764 	0.3 	4.43333 	-0.501298 	2.11111e-05 	
0.000332651 	0.000675383 	
0.760276 	2.31569e-09 	0.92 	0.04 	0.04 	-0.113092 	4.00427 	
4.11736 	4.15572 	-0.0383564 	-2.22272 	1.72813e-08 	4.44614 	15.5539 	
2.23253e-10 	32096 	163.322 	243.764 	0.3 	4.43333 	-0.501365 	2.11111e-05 	
0.000332651 	0.000675383 	
0.760297 	7.71988e-10 	0.92 	0.04 	0.04 	-0.113092 	4.00427 	
4.11736 	4.15572 	-0.0383615 	-2.22306 	5.76111e-09 	2.22325 	17.7767 	
2.23289e-10 	32096 	163.322 	243.764 	0.3 	4.43333 	-0.501442 	2.11111e-05 	
0.000332651 	0.000675383 	
0.760318 	0 	0.92 	0.04 	0.04 	-0.113092 	4.00426 	
4.11735 	4.15572 	-0.0383671 	-1.11172 	5.76111e-09 	0.555862 	19.4441 	
1.11666e-10 	16048 	81.6609 	121.882 	0.3 	2.21667 	-0.50153 	1.05556e-05 	
0.000166326 	0.000337691 	
ZONE T = "t = 5.42887e-08 [s]" I = 10 SOLUTIONTIME = 5.4288703257222E-08
0.760128 	1.31168e-08 	0.92 	0.04 	0.04 	-0.113092 	4.00429 	
4.11738 	4.15572 	-0.0383403 	-1.11081 	9.78923e-08 	19.4446 	0.555403 	
1.27479e-10 	16048 	81.6609 	121.882 	0.3 	2.21667 	-0.501116 	1.05556e-05 	
0.000166326 	0.000337691 	
0.760149 	1.15741e-08 	0.92 	0.04 	0.04 	-0.113092 	4.00429 	
4.11738 	4.15572 	-0.0383405 	-2.22163 	8.63736e-08 	17.7784 	2.22162 	
2.54961e-10 	32096 	163.322 	243.764 	0.3 	4.43333 	-0.50112 	2.11111e-05 	
0.000332651 	0.000675383 	
0.76017 	1.00313e-08 	0.92 	0.04 	0.04 	-0.113092 	4.00429 	
4.11738 	4.15572 	-0.0383415 	-2.2217 	7.48604e-08 	15.5567 	4.44329 	
2.54969e-10 	32096 	163.322 	243.764 	0.3 	4.43333 	-0.501135 	2.11111e-05 	
0.000332651 	0.000675383 	
0.760191 	8.48846e-09 	0.92 	0.04 	0.04 	-0.113092 	4.00429 	
4.11738 	4.15572 	-0.0383431 	-2.22181 	6.33467e-08 	13.335 	6.66504 	
2.54982e-10 	32096 	163.322 	243.764 	0.3 	4.43333 	-0.50116 	2.11111e-05 	
0.000332651 	0.000675383 	
0.760212 	6.94551e-09 	0.92 	0.04 	0.04 	-0.113092 	4.00428 	
4.11738 	4.15572 	-0.0383454 	-2.22197 	5.18322e-08 	11.1131 	8.88693 	
2.55002e-10 	32096 	163.322 	243.764 	0.3 	4.43333 	-0.501195 	2.11111e-05 	
0.000332651 	0.000675383 	
0.760234 	5.40242e-09 	0.92 	0.04 	0.04 	-0.113092 	4.00428 	
4.11737 	4.15572 	-0.0383484 	-2.22217 	4.03166e-08 	8.89101 	11.109 	
2.55026e-10 	32096 	163.322 	243.764 	0.3 	4.43333 	-0.501241 	2.11111e-05 	
0.000332651 	0.000675383 	
0.760255 	3.85916e-09 	0.92 	0.04 	0.04 	-0.113092 	4.00428 	
4.11737 	4.15572 	-0.0383521 	-2.22242 	2.87997e-08 	6.66871 	13.3313 	
2.55057e-10 	32096 	163.322 	243.764 	0.3 	4.43333 	-0.501298 	2.11111e-05 	
0.000332651 	0.000675383 	
0.760276 	2.31569e-09 	0.92 	0.04 	0.04 	-0.113092 	4.00427 	
4.11736 	4.15572 	-0.0383564 	-2.22272 	1.72813e-08 	4.44614 	15.5539 	
2.55093e-10 	32096 	163.322 	243.764 	0.3 	4.43333 	-0.501365 	2.11111e-05 	
0.000332651 	0.000675383 	
0.760297 	7.71988e-10 	0.92 	0.04 	0.04 	-0.113092 	4.00427 	
4.11736 	4.15572 	-0.0383615 	-2.22306 	5.76111e-09 	2.22325 	17.7767 	
2.55134e-10 	32096 	163.322 	243.764 	0.3 	4.43333 	-0.501442 	2.11111e-05 	
0.000332651 	0.000675383 	
0.760318 	0 	0.92 	0.04 	0.04 	-0.113092 	4.00426 	
4.11735 	4.15572 	-0.0383671 	-1.11172 	5.76111e-09 	0.555862 	19.4441 	
1.27591e-10 	16048 	81.6609 	121.882 	0.3 	2.21667 	-0.50153 	1.05556e-05 	
0.000166326 	0.000337691 	
ZONE T = "t = 6.71485e-08 [s]" I = 10 SOLUTIONTIME = 6.7148536188721E-08
0.760128 	1.31168e-08 	0.92 	0.04 	0.04 	-0.113092 	4.00429 	
4.11738 	4.15572 	-0.0383403 	-1.11081 	9.78934e-08 	19.4446 	0.555403 	
1.51347e-10 	16048 	81.6609 	121.882 	0.3 	2.21667 	-0.501116 	1.05556e-05 	
0.000166326 	0.000337691 	
0.760149 	1.15741e-08 	0.92 	0.04 	0.04 	-0.113092 	4.00429 	
4.11738 	4.15572 	-0.0383405 	-2.22163 	8.63736e-08 	17.7784 	2.22162 	
3.02697e-10 	32096 	163.322 	243.764 	0.3 	4.43333 	-0.50112 	2.11111e-05 	
0.000332651 	0.000675383 	
0.76017 	1.00313e-08 	0.92 	0.04 	0.04 	-0.113092 	4.00429 	
4.11738 	4.15572 	-0.0383415 	-2.2217 	7.48604e-08 	15.5567 	4.44329 	
3.02707e-10 	32096 	163.322 	243.764 	0.3 	4.43333 	-0.501135 	2.11111e-05 	
0.000332651 	0.000675383 	
0.760191 	8.48846e-09 	0.92 	0.04 	0.04 	-0.113092 	4.00429 	
4.11738 	4.15572 	-0.0383431 	-2.22181 	6.33467e-08 	13.335 	6.66504 	
3.02723e-10 	32096 	163.322 	243.764 	0.3 	4.43333 	-0.50116 	2.11111e-05 	
0.000332651 	0.000675383 	
0.760212 	6.94551e-09 	0.92 	0.04 	0.04 	-0.113092 	4.00428 	
4.11738 	4.15572 	-0.0383454 	-2.22197 	5.18322e-08 	11.1131 	8.88693 	
3.02745e-10 	32096 	163.322 	243.764 	0.3 	4.43333 	-0.501195 	2.11111e-05 	
0.000332651 	0.000675383 	
0.760234 	5.40242e-09 	0.92 	0.04 	0.04 	-0.113092 	4.00428 	
4.11737 	4.15572 	-0.0383484 	-2.22217 	4.03166e-08 	8.89101 	11.109 	
3.02774e-10 	32096 	163.322 	243.764 	0.3 	4.43333 	-0.501241 	2.11111e-05 	
0.000332651 	0.000675383 	
0.760255 	3.85916e-09 	0.92 	0.04 	0.04 	-0.113092 	4.00428 	
4.11737 	4.15572 	-0.0383521 	-2.22242 	2.87997e-08 	6.66871 	13.3313 	
3.0281e-10 	32096 	163.322 	243.764 	0.3 	4.43333 	-0.501298 	2.11111e-05 	
0.000332651 	0.000675383 	
0.760276 	2.31569e-09 	0.92 	0.04 	0.04 	-0.113092 	4.00427 	
4.11736 	4.15572 	-0.0383564 	-2.22272 	1.72813e-08 	4.44614 	15.5539 	
3.02852e-10 	32096 	163.322 	243.764 	0.3 	4.43333 	-0.501365 	2.11111e-05 	
0.000332651 	0.000675383 	
0.760297 	7.71988e-10 	0.92 	0.04 	0.04 	-0.113092 	4.00427 	
4.11736 	4.15572 	-0.0383615 	-2.22306 	5.76111e-09 	2.22325 	17.7767 	
3.02901e-10 	32096 	163.322 	243.764 	0.3 	4.43333 	-0.501442 	2.11111e-05 	
0.000332651 	0.000675383 	
0.760318 	0 	0.92 	0.04 	0.04 	-0.113092 	4.00426 	
4.11735 	4.15572 	-0.0383671 	-1.11172 	5.76111e-09 	0.555862 	19.4441 	
1.51478e-10 	16048 	81.6609 	121.882 	0.3 	2.21667 	-0.50153 	1.05556e-05 	
0.000166326 	0.000337691 	
ZONE T = "t = 8.64383e-08 [s]" I = 10 SOLUTIONTIME = 8.6438285585971E-08
0.760128 	1.31168e-08 	0.92 	0.04 	0.04 	-0.113092 	4.00429 	
4.11738 	4.15572 	-0.0383403 	-1.11081 	9.78951e-08 	19.4446 	0.555403 	
1.87149e-10 	16048 	81.6609 	121.882 	0.3 	2.21667 	-0.501116 	1.05556e-05 	
0.000166326 	0.000337691 	
0.760149 	1.15741e-08 	0.92 	0.04 	0.04 	-0.113092 	4.00429 	
4.11738 	4.15572 	-0.0383405 	-2.22163 	8.63736e-08 	17.7784 	2.22162 	
3.74302e-10 	32096 	163.322 	243.764 	0.3 	4.43333 	-0.50112 	2.11111e-05 	
0.000332651 	0.000675383 	
0.76017 	1.00313e-08 	0.92 	0.04 	0.04 	-0.113092 	4.00429 	
4.11738 	4.15572 	-0.0383415 	-2.2217 	7.48604e-08 	15.5567 	4.44329 	
3.74313e-10 	32096 	163.322 	243.764 	0.3 	4.43333 	-0.501135 	2.11111e-05 	
0.000332651 	0.000675383 	
0.760191 	8.48846e-09 	0.92 	0.04 	0.04 	-0.113092 	4.00429 	
4.11738 	4.15572 	-0.0383431 	-2.22181 	6.33467e-08 	13.335 	6.66504 	
3.74333e-10 	32096 	163.322 	243.764 	0.3 	4.43333 	-0.50116 	2.11111e-05 	
0.000332651 	0.000675383 	
0.760212 	6.94551e-09 	0.92 	0.04 	0.04 	-0.113092 	4.00428 	
4.11738 	4.15572 	-0.0383454 	-2.22197 	5.18322e-08 	11.1131 	8.88693 	
3.7436e-10 	32096 	163.322 	243.764 	0.3 	4.43333 	-0.501195 	2.11111e-05 	
0.000332651 	0.000675383 	
0.760234 	5.40242e-09 	0.92 	0.04 	0.04 	-0.113092 	4.00428 	
4.11737 	4.15572 	-0.0383484 	-2.22217 	4.03166e-08 	8.89101 	11.109 	
3.74396e-10 	32096 	163.322 	243.764 	0.3 	4.43333 	-0.501241 	2.11111e-05 	
0.000332651 	0.000675383 	
0.760255 	3.85916e-09 	0.92 	0.04 	0.04 	-0.113092 	4.00428 	
4.11737 	4.15572 	-0.0383521 	-2.22242 	2.87997e-08 	6.66871 	13.3313 	
3.7444e-10 	32096 	163.322 	243.764 	0.3 	4.43333 	-0.501298 	2.11111e-05 	
0.000332651 	0.000675383 	
0.760276 	2.31569e-09 	0.92 	0.04 	0.04 	-0.113092 	4.00427 	
4.11736 	4.15572 	-0.0383564 	-2.22272 	1.72813e-08 	4.44614 	15.5539 	
3.74492e-10 	32096 	163.322 	243.764 	0.3 	4.43333 	-0.501365 	2.11111e-05 	
0.000332651 	0.000675383 	
0.760297 	7.71988e-10 	0.92 	0.04 	0.04 	-0.113092 	4.00427 	
4.11736 	4.15572 	-0.0383615 	-2.22306 	5.76111e-09 	2.22325 	17.7767 	
3.74552e-10 	32096 	163.322 	243.764 	0.3 	4.43333 	-0.501442 	2.11111e-05 	
0.000332651 	0.000675383 	
0.760318 	0 	0.92 	0.04 	0.04 	-0.113092 	4.00426 	
4.11735 	4.15572 	-0.0383671 	-1.11172 	5.76111e-09 	0.555862 	19.4441 	
1.8731e-10 	16048 	81.6609 	121.882 	0.3 	2.21667 	-0.50153 	1.05556e-05 	
0.000166326 	0.000337691 	
ZONE T = "t = 1.15373e-07 [s]" I = 10 SOLUTIONTIME = 1.1537290968184E-07
0.760128 	1.31168e-08 	0.92 	0.04 	0.04 	-0.113092 	4.00429 	
4.11738 	4.15572 	-0.0383403 	-1.11081 	9.78976e-08 	19.4446 	0.555403 	
2.40852e-10 	16048 	81.6609 	121.882 	0.3 	2.21667 	-0.501116 	1.05556e-05 	
0.000166326 	0.000337691 	
0.760149 	1.15741e-08 	0.92 	0.04 	0.04 	-0.113092 	4.00429 	
4.11738 	4.15572 	-0.0383405 	-2.22163 	8.63736e-08 	17.7784 	2.22162 	
4.81709e-10 	32096 	163.322 	243.764 	0.3 	4.43333 	-0.50112 	2.11111e-05 	
0.000332651 	0.000675383 	
0.76017 	1.00313e-08 	0.92 	0.04 	0.04 	-0.113092 	4.00429 	
4.11738 	4.15572 	-0.0383415 	-2.2217 	7.48604e-08 	15.5567 	4.44329 	
4.81723e-10 	32096 	163.322 	243.764 	0.3 	4.43333 	-0.501135 	2.11111e-05 	
0.000332651 	0.000675383 	
0.760191 	8.48846e-09 	0.92 	0.04 	0.04 	-0.113092 	4.00429 	
4.11738 	4.15572 	-0.0383431 	-2.22181 	6.33467e-08 	13.335 	6.66504 	
4.81748e-10 	32096 	163.322 	243.764 	0.3 	4.43333 	-0.50116 	2.11111e-05 	
0.000332651 	0.000675383 	
0.760212 	6.94551e-09 	0.92 	0.04 	0.04 	-0.113092 	4.00428 	
4.11738 	4.15572 	-0.0383454 	-2.22197 	5.18322e-08 	11.1131 	8.88693 	
4.81783e-10 	32096 	163.322 	243.764 	0.3 	4.43333 	-0.501195 	2.11111e-05 	
0.000332651 	0.000675383 	
0.760234 	5.40242e-09 	0.92 	0.04 	0.04 	-0.113092 	4.00428 	
4.11737 	4.15572 	-0.0383484 	-2.22217 	4.03166e-08 	8.89101 	11.109 	
4.81829e-10 	32096 	163.322 	243.764 	0.3 	4.43333 	-0.501241 	2.11111e-05 	
0.000332651 	0.000675383 	
0.760255 	3.85916e-09 	0.92 	0.04 	0.04 	-0.113092 	4.00428 	
4.11737 	4.15572 	-0.0383521 	-2.22242 	2.87997e-08 	6.66871 	13.3313 	
4.81885e-10 	32096 	163.322 	243.764 	0.3 	4.43333 	-0.501298 	2.11111e-05 	
0.000332651 	0.000675383 	
0.760276 	2.31569e-09 	0.92 	0.04 	0.04 	-0.113092 	4.00427 	
4.11736 	4.15572 	-0.0383564 	-2.22272 	1.72813e-08 	4.44614 	15.5539 	
4.81951e-10 	32096 	163.322 	243.764 	0.3 	4.43333 	-0.501365 	2.11111e-05 	
0.000332651 	0.000675383 	
0.760297 	7.71988e-10 	0.92 	0.04 	0.04 	-0.113092 	4.00427 	
4.11736 	4.15572 	-0.0383615 	-2.22306 	5.76111e-09 	2.22325 	17.7767 	
4.82028e-10 	32096 	163.322 	243.764 	0.3 	4.43333 	-0.501442 	2.11111e-05 	
0.000332651 	0.000675383 	
0.760318 	0 	0.92 	0.04 	0.04 	-0.113092 	4.00426 	
4.11735 	4.15572 	-0.0383671 	-1.11172 	5.76111e-09 	0.555862 	19.4441 	
2.41057e-10 	16048 	81.6609 	121.882 	0.3 	2.21667 	-0.50153 	1.05556e-05 	
0.000166326 	0.000337691 	
ZONE T = "t = 1.58775e-07 [s]" I = 10 SOLUTIONTIME = 1.5877484582566E-07
0.760128 	1.31168e-08 	0.92 	0.04 	0.04 	-0.113092 	4.00429 	
4.11738 	4.15572 	-0.0383403 	-1.11081 	9.79014e-08 	19.4446 	0.555403 	
3.21406e-10 	16048 	81.6609 	121.882 	0.3 	2.21667 	-0.501116 	1.05556e-05 	
0.000166326 	0.000337691 	
0.760149 	1.15741e-08 	0.92 	0.04 	0.04 	-0.113092 	4.00429 	
4.11738 	4.15572 	-0.0383405 	-2.22163 	8.63736e-08 	17.7784 	2.22162 	
6.42819e-10 	32096 	163.322 	243.764 	0.3 	4.43333 	-0.50112 	2.11111e-05 	
0.000332651 	0.000675383 	
0.76017 	1.00313e-08 	0.92 	0.04 	0.04 	-0.113092 	4.00429 	
4.11738 	4.15572 	-0.0383415 	-2.2217 	7.48604e-08 	15.5567 	4.44329 	
6.42838e-10 	32096 	163.322 	243.764 	0.3 	4.43333 	-0.501135 	2.11111e-05 	
0.000332651 	0.000675383 	
0.760191 	8.48846e-09 	0.92 	0.04 	0.04 	-0.113092 	4.00429 	
4.11738 	4.15572 	-0.0383431 	-2.22181 	6.33467e-08 	13.335 	6.66504 	
6.42871e-10 	32096 	163.322 	243.764 	0.3 	4.43333 	-0.50116 	2.11111e-05 	
0.000332651 	0.000675383 	
0.760212 	6.94551e-09 	0.92 	0.04 	0.04 	-0.113092 	4.00428 	
4.11738 	4.15572 	-0.0383454 	-2.22197 	5.18322e-08 	11.1131 	8.88693 	
6.42918e-10 	32096 	163.322 	243.764 	0.3 	4.43333 	-0.501195 	2.11111e-05 	
0.000332651 	0.000675383 	
0.760234 	5.40242e-09 	0.92 	0.04 	0.04 	-0.113092 	4.00428 	
4.11737 	4.15572 	-0.0383484 	-2.22217 	4.03166e-08 	8.89101 	11.109 	
6.42978e-10 	32096 	163.322 	243.764 	0.3 	4.43333 	-0.501241 	2.11111e-05 	
0.000332651 	0.000675383 	
0.760255 	3.85916e-09 	0.92 	0.04 	0.04 	-0.113092 	4.00428 	
4.11737 	4.15572 	-0.0383521 	-2.22242 	2.87997e-08 	6.66871 	13.3313 	
6.43052e-10 	32096 	163.322 	243.764 	0.3 	4.43333 	-0.501298 	2.11111e-05 	
0.000332651 	0.000675383 	
0.760276 	2.31569e-09 	0.92 	0.04 	0.04 	-0.113092 	4.00427 	
4.11736 	4.15572 	-0.0383564 	-2.22272 	1.72813e-08 	4.44614 	15.5539 	
6.4314e-10 	32096 	163.322 	243.764 	0.3 	4.43333 	-0.501365 	2.11111e-05 	
0.000332651 	0.000675383 	
0.760297 	7.71988e-10 	0.92 	0.04 	0.04 	-0.113092 	4.00427 	
4.11736 	4.15572 	-0.0383615 	-2.22306 	5.76111e-09 	2.22325 	17.7767 	
6.43241e-10 	32096 	163.322 	243.764 	0.3 	4.43333 	-0.501442 	2.11111e-05 	
0.000332651 	0.000675383 	
0.760318 	0 	0.92 	0.04 	0.04 	-0.113092 	4.00426 	
4.11735 	4.15572 	-0.0383671 	-1.11172 	5.76111e-09 	0.555862 	19.4441 	
3.21678e-10 	16048 	81.6609 	121.882 	0.3 	2.21667 	-0.50153 	1.05556e-05 	
0.000166326 	0.000337691 	
ZONE T = "t = 2.23878e-07 [s]" I = 10 SOLUTIONTIME = 2.2387775004137E-07
0.760128 	1.31168e-08 	0.92 	0.04 	0.04 	-0.113092 	4.00429 	
4.11738 	4.15572 	-0.0383403 	-1.11081 	9.7907e-08 	19.4446 	0.555403 	
4.42238e-10 	16048 	81.6609 	121.882 	0.3 	2.21667 	-0.501116 	1.05556e-05 	
0.000166326 	0.000337691 	
0.760149 	1.15741e-08 	0.92 	0.04 	0.04 	-0.113092 	4.00429 	
4.11738 	4.15572 	-0.0383405 	-2.22163 	8.63736e-08 	17.7784 	2.22162 	
8.84484e-10 	32096 	163.322 	243.764 	0.3 	4.43333 	-0.50112 	2.11111e-05 	
0.000332651 	0.000675383 	
0.76017 	1.00313e-08 	0.92 	0.04 	0.04 	-0.113092 	4.00429 	
4.11738 	4.15572 	-0.0383415 	-2.2217 	7.48604e-08 	15.5567 	4.44329 	
8.8451e-10 	32096 	163.322 	243.764 	0.3 	4.43333 	-0.501135 	2.11111e-05 	
0.000332651 	0.000675383 	
0.760191 	8.48846e-09 	0.92 	0.04 	0.04 	-0.113092 	4.00429 	
4.11738 	4.15572 	-0.0383431 	-2.22181 	6.33467e-08 	13.335 	6.66504 	
8.84556e-10 	32096 	163.322 	243.764 	0.3 	4.43333 	-0.50116 	2.11111e-05 	
0.000332651 	0.000675383 	
0.760212 	6.94551e-09 	0.92 	0.04 	0.04 	-0.113092 	4.00428 	
4.11738 	4.15572 	-0.0383454 	-2.22197 	5.18322e-08 	11.1131 	8.88693 	
8.84619e-10 	32096 	163.322 	243.764 	0.3 	4.43333 	-0.501195 	2.11111e-05 	
0.000332651 	0.000675383 	
0.760234 	5.40242e-09 	0.92 	0.04 	0.04 	-0.113092 	4.00428 	
4.11737 	4.15572 	-0.0383484 	-2.22217 	4.03166e-08 	8.89101 	11.109 	
8.84702e-10 	32096 	163.322 	243.764 	0.3 	4.43333 	-0.501241 	2.11111e-05 	
0.000332651 	0.000675383 	
0.760255 	3.85916e-09 	0.92 	0.04 	0.04 	-0.113092 	4.00428 	
4.11737 	4.15572 	-0.0383521 	-2.22242 	2.87997e-08 	6.66871 	13.3313 	
8.84803e-10 	32096 	163.322 	243.764 	0.3 	4.43333 	-0.501298 	2.11111e-05 	
0.000332651 	0.000675383 	
0.760276 	2.31569e-09 	0.92 	0.04 	0.04 	-0.113092 	4.00427 	
4.11736 	4.15572 	-0.0383564 	-2.22272 	1.72813e-08 	4.44614 	15.5539 	
8.84923e-10 	32096 	163.322 	243.764 	0.3 	4.43333 	-0.501365 	2.11111e-05 	
0.000332651 	0.000675383 	
0.760297 	7.71988e-10 	0.92 	0.04 	0.04 	-0.113092 	4.00427 	
4.11736 	4.15572 	-0.0383615 	-2.22306 	5.76111e-09 	2.22325 	17.7767 	
8.85062e-10 	32096 	163.322 	243.764 	0.3 	4.43333 	-0.501442 	2.11111e-05 	
0.000332651 	0.000675383 	
0.760318 	0 	0.92 	0.04 	0.04 	-0.113092 	4.00426 	
4.11735 	4.15572 	-0.0383671 	-1.11172 	5.76111e-09 	0.555862 	19.4441 	
4.4261e-10 	16048 	81.6609 	121.882 	0.3 	2.21667 	-0.50153 	1.05556e-05 	
0.000166326 	0.000337691 	
ZONE T = "t = 3.21532e-07 [s]" I = 10 SOLUTIONTIME = 3.2153210636495E-07
0.760128 	1.31168e-08 	0.92 	0.04 	0.04 	-0.113092 	4.00429 	
4.11738 	4.15572 	-0.0383403 	-1.11081 	9.79154e-08 	19.4446 	0.555403 	
6.23485e-10 	16048 	81.6609 	121.882 	0.3 	2.21667 	-0.501116 	1.05556e-05 	
0.000166326 	0.000337691 	
0.760149 	1.15741e-08 	0.92 	0.04 	0.04 	-0.113092 	4.00429 	
4.11738 	4.15572 	-0.0383405 	-2.22163 	8.63736e-08 	17.7784 	2.22162 	
1.24698e-09 	32096 	163.322 	243.764 	0.3 	4.43333 	-0.50112 	2.11111e-05 	
0.000332651 	0.000675383 	
0.76017 	1.00313e-08 	0.92 	0.04 	0.04 	-0.113092 	4.00429 	
4.11738 	4.15572 	-0.0383415 	-2.2217 	7.48604e-08 	15.5567 	4.44329 	
1.24702e-09 	32096 	163.322 	243.764 	0.3 	4.43333 	-0.501135 	2.11111e-05 	
0.000332651 	0.000675383 	
0.760191 	8.48846e-09 	0.92 	0.04 	0.04 	-0.113092 	4.00429 	
4.11738 	4.15572 	-0.0383431 	-2.22181 	6.33467e-08 	13.335 	6.66504 	
1.24708e-09 	32096 	163.322 	243.764 	0.3 	4.43333 	-0.50116 	2.11111e-05 	
0.000332651 	0.000675383 	
0.760212 	6.94551e-09 	0.92 	0.04 	0.04 	-0.113092 	4.00428 	
4.11738 	4.15572 	-0.0383454 	-2.22197 	5.18322e-08 	11.1131 	8.88693 	