TITLE = "Solution on Domain BulkDomain1D_2"
VARIABLES = "x [m]"  
"Vel_axial(0)" 	"MF_sp(ECDMC)" 	"MF_sp(Li+)" 	"MF_sp(PF6-)" 	"Volt(Electroly)" 	"Volt(CathodeVo)" 	
"Potential Drop Electrode-Electrolyte [V]" 	"Surf_0 Equilibrium Potential Drop Electrode-Electrolyte [V]" 	"Overpotential_0 [V]" 	"Current Source [A/m^2]" 	"Li+ flux [kmol/m^2/s]" 	"Electrolyte Current [A/m^2]" 	"Electrode Current [A/m^2]" 	
"Capacity discharged [A-s]" 	"Depth of discharge [-]" 	"Capacity remaining [A-s]" 	"Initial capacity [A-s]" 	"Porosity []" 	"Surface Area [m2/m2] (area per area)" 	"Specific current (per particle area) [A/m^2]" 	"Control volume thickness [m]" 	
"Moles LiCoO2 [mol/m^2] (per electrode area)" 	"Moles CoO2 [mol/m^2] (per electrode area)" 	"qHeat_accum [J/m3]" 	"qHeat_step [W/m3]" 	"Joule_Lyte [W/m3]" 	"Joule_Solid [W/m3]" 	"electrodHeat [W/m3]" 	"OverpotHeat [W/m3]" 	"deltaSHeat [W/m3]" 	

ZONE T = "t = 0 [s]" I = 10 SOLUTIONTIME = 0.0000000000000E+00
0.000125 	0 	0.92 	0.04 	0.04 	-0.07 	3.8 	
0 	0 	0 	0 	0 	46.4803 	0 	
0 	0 	0 	0 	0.3 	1.16667 	-79.6804 	5.55556e-06 	
8.75398e-05 	0.000177732 	0 	0.0 	 0.0 	 0.0 	 0.0 	 0.0 	 0.0 	 
0.000136111 	0 	0.92 	0.04 	0.04 	-0.07 	3.8 	
0 	0 	0 	0 	0 	0 	-0 	
0 	0 	0 	0 	0.3 	2.33333 	-79.6804 	1.11111e-05 	
0.00017508 	0.000355465 	0 	0.0 	 0.0 	 0.0 	 0.0 	 0.0 	 0.0 	 
0.000147222 	0 	0.92 	0.04 	0.04 	-0.07 	3.8 	
0 	0 	0 	0 	0 	0 	-0 	
0 	0 	0 	0 	0.3 	2.33333 	-79.6804 	1.11111e-05 	
0.00017508 	0.000355465 	0 	0.0 	 0.0 	 0.0 	 0.0 	 0.0 	 0.0 	 
0.000158333 	0 	0.92 	0.04 	0.04 	-0.07 	3.8 	
0 	0 	0 	0 	0 	0 	-0 	
0 	0 	0 	0 	0.3 	2.33333 	-79.6804 	1.11111e-05 	
0.00017508 	0.000355465 	0 	0.0 	 0.0 	 0.0 	 0.0 	 0.0 	 0.0 	 
0.000169444 	0 	0.92 	0.04 	0.04 	-0.07 	3.8 	
0 	0 	0 	0 	0 	0 	-0 	
0 	0 	0 	0 	0.3 	2.33333 	-79.6804 	1.11111e-05 	
0.00017508 	0.000355465 	0 	0.0 	 0.0 	 0.0 	 0.0 	 0.0 	 0.0 	 
0.000180556 	0 	0.92 	0.04 	0.04 	-0.07 	3.8 	
0 	0 	0 	0 	0 	0 	-0 	
0 	0 	0 	0 	0.3 	2.33333 	-79.6804 	1.11111e-05 	
0.00017508 	0.000355465 	0 	0.0 	 0.0 	 0.0 	 0.0 	 0.0 	 0.0 	 
0.000191667 	0 	0.92 	0.04 	0.04 	-0.07 	3.8 	
0 	0 	0 	0 	0 	0 	-0 	
0 	0 	0 	0 	0.3 	2.33333 	-79.6804 	1.11111e-05 	
0.00017508 	0.000355465 	0 	0.0 	 0.0 	 0.0 	 0.0 	 0.0 	 0.0 	 
0.000202778 	0 	0.92 	0.04 	0.04 	-0.07 	3.8 	
0 	0 	0 	0 	0 	0 	-0 	
0 	0 	0 	0 	0.3 	2.33333 	-79.6804 	1.11111e-05 	
0.00017508 	0.000355465 	0 	0.0 	 0.0 	 0.0 	 0.0 	 0.0 	 0.0 	 
0.000213889 	0 	0.92 	0.04 	0.04 	-0.07 	3.8 	
0 	0 	0 	0 	0 	0 	-0 	
0 	0 	0 	0 	0.3 	2.33333 	-79.6804 	1.11111e-05 	
0.00017508 	0.000355465 	0 	0.0 	 0.0 	 0.0 	 0.0 	 0.0 	 0.0 	 
0.000225 	0 	0.92 	0.04 	0.04 	-0.07 	3.8 	
0 	0 	0 	0 	0 	0 	46.4803 	
0 	0 	0 	0 	0.3 	1.16667 	-79.6804 	5.55556e-06 	
8.75398e-05 	0.000177732 	0 	0.0 	 0.0 	 0.0 	 0.0 	 0.0 	 0.0 	 
ZONE T = "t = 1e-08 [s]" I = 10 SOLUTIONTIME = 1.0000000000000E-08
0.000125 	1.61326e-08 	0.92 	0.04 	0.04 	-0.126235 	3.99856 	
3.87 	4.15572 	-0.285721 	-92.9605 	-0 	19.4452 	0.554857 	
-0 	8446.31 	42.9794 	64.1484 	0.3 	1.16667 	-0.951292 	5.55556e-06 	
8.75398e-05 	0.000177732 	9.71006e-05 	9710.06 	0.0595633 	0.175924 	9709.82 	9709.82 	0 	
0.000136111 	1.42371e-08 	0.92 	0.04 	0.04 	-0.126235 	3.99856 	
3.87 	4.15572 	-0.285721 	-185.921 	-0 	17.7805 	2.21948 	
-0 	16892.6 	85.9589 	128.297 	0.3 	2.33333 	-0.951335 	1.11111e-05 	
0.00017508 	0.000355465 	9.93586e-05 	9935.86 	0.052976 	0.879667 	9934.93 	9934.93 	0 	
0.000147222 	1.23413e-08 	0.92 	0.04 	0.04 	-0.126235 	3.99855 	
3.87 	4.15572 	-0.285721 	-185.921 	-0 	15.5608 	4.43916 	
-0 	16892.6 	85.9589 	128.297 	0.3 	2.33333 	-0.951467 	1.11111e-05 	
0.00017508 	0.000355465 	9.71658e-05 	9716.58 	0.040623 	2.99116 	9713.55 	9713.55 	0 	
0.000158333 	1.04451e-08 	0.92 	0.04 	0.04 	-0.126235 	3.99854 	
3.87 	4.15572 	-0.285721 	-185.921 	-0 	13.3407 	6.65926 	
-0 	16892.6 	85.9589 	128.297 	0.3 	2.33333 	-0.951687 	1.11111e-05 	
0.00017508 	0.000355465 	9.75895e-05 	9758.95 	0.0299129 	6.51117 	9752.4 	9752.4 	0 	
0.000169444 	8.54827e-09 	0.92 	0.04 	0.04 	-0.126235 	3.99853 	
3.87 	4.15572 	-0.285721 	-185.921 	-0 	11.12 	8.87997 	
-0 	16892.6 	85.9589 	128.297 	0.3 	2.33333 	-0.951995 	1.11111e-05 	
0.00017508 	0.000355465 	9.90903e-05 	9909.03 	0.0208461 	11.441 	9897.57 	9897.57 	0 	
0.000180556 	6.65065e-09 	0.92 	0.04 	0.04 	-0.126235 	3.99852 	
3.87 	4.15572 	-0.285721 	-185.921 	-0 	8.8985 	11.1015 	
-0 	16892.6 	85.9589 	128.297 	0.3 	2.33333 	-0.952392 	1.11111e-05 	
0.00017508 	0.000355465 	9.79569e-05 	9795.69 	0.0134231 	17.7825 	9777.9 	9777.9 	0 	
0.000191667 	4.75206e-09 	0.92 	0.04 	0.04 	-0.126235 	3.9985 	
3.87 	4.15572 	-0.285721 	-185.921 	-0 	6.67594 	13.3241 	
-0 	16892.6 	85.9589 	128.297 	0.3 	2.33333 	-0.952878 	1.11111e-05 	
0.00017508 	0.000355465 	0.000100256 	10025.6 	0.00764544 	25.538 	10000.1 	10000.1 	0 	
0.000202778 	2.85233e-09 	0.92 	0.04 	0.04 	-0.126235 	3.99847 	
3.87 	4.15572 	-0.285721 	-185.921 	-0 	4.45214 	15.5479 	
-0 	16892.6 	85.9589 	128.297 	0.3 	2.33333 	-0.953452 	1.11111e-05 	
0.00017508 	0.000355465 	9.81219e-05 	9812.19 	0.00351505 	34.7104 	9777.48 	9777.48 	0 	
0.000213889 	9.51276e-10 	0.92 	0.04 	0.04 	-0.126235 	3.99845 	
3.87 	4.15572 	-0.285721 	-185.921 	-0 	2.22689 	17.7731 	
-0 	16892.6 	85.9589 	128.297 	0.3 	2.33333 	-0.954116 	1.11111e-05 	
0.00017508 	0.000355465 	0.000100187 	10018.7 	0.00103453 	45.3032 	9973.44 	9973.44 	0 	
0.000225 	0 	0.92 	0.04 	0.04 	-0.126235 	3.99842 	
3.87 	4.15572 	-0.285721 	-92.9605 	-0 	0.556943 	19.4431 	
-0 	8446.31 	42.9794 	64.1484 	0.3 	1.16667 	-0.954868 	5.55556e-06 	
8.75398e-05 	0.000177732 	9.8251e-05 	9825.1 	0.000207101 	50.955 	9774.14 	9774.14 	0 	
ZONE T = "t = 2e-08 [s]" I = 10 SOLUTIONTIME = 2.0000000000000E-08
0.000125 	1.61325e-08 	0.92 	0.04 	0.04 	-0.125904 	3.96697 	
4.1248 	4.15572 	-0.0309252 	-1.10984 	9.7894e-08 	19.4451 	0.554941 	
2.78159e-11 	8446.31 	42.9794 	64.1484 	0.3 	1.16667 	-0.951367 	5.55556e-06 	
8.75398e-05 	0.000177732 	0.000222486 	12538.6 	0.0595622 	0.175977 	12538.3 	12538.3 	0 	
0.000136111 	1.42367e-08 	0.92 	0.04 	0.04 	-0.125904 	3.96697 	
4.12479 	4.15572 	-0.030927 	-2.21978 	8.63901e-08 	17.7802 	2.21981 	
5.56344e-11 	16892.6 	85.9589 	128.297 	0.3 	2.33333 	-0.951405 	1.11111e-05 	
0.00017508 	0.000355465 	0.00022524 	12588.2 	0.0529741 	0.879928 	12587.2 	12587.2 	0 	
0.000147222 	1.23406e-08 	0.92 	0.04 	0.04 	-0.125904 	3.96696 	
4.12479 	4.15572 	-0.0309322 	-2.22009 	7.48866e-08 	15.5602 	4.4398 	
5.56421e-11 	16892.6 	85.9589 	128.297 	0.3 	2.33333 	-0.951521 	1.11111e-05 	
0.00017508 	0.000355465 	0.000222878 	12571.3 	0.0406197 	2.99201 	12568.2 	12568.2 	0 	
0.000158333 	1.04442e-08 	0.92 	0.04 	0.04 	-0.125904 	3.96695 	
4.12478 	4.15572 	-0.030941 	-2.2206 	6.33804e-08 	13.3399 	6.66015 	
5.5655e-11 	16892.6 	85.9589 	128.297 	0.3 	2.33333 	-0.951715 	1.11111e-05 	
0.00017508 	0.000355465 	0.000223001 	12541.2 	0.029909 	6.51291 	12534.6 	12534.6 	0 	
0.000169444 	8.54729e-09 	0.92 	0.04 	0.04 	-0.125904 	3.96694 	
4.12477 	4.15572 	-0.0309533 	-2.22132 	5.18706e-08 	11.119 	8.88104 	
5.5673e-11 	16892.6 	85.9589 	128.297 	0.3 	2.33333 	-0.951986 	1.11111e-05 	
0.00017508 	0.000355465 	0.000224583 	12549.3 	0.0208421 	11.4438 	12537.8 	12537.8 	0 	
0.000180556 	6.64965e-09 	0.92 	0.04 	0.04 	-0.125904 	3.96692 	
4.12475 	4.15572 	-0.0309691 	-2.22225 	4.03559e-08 	8.89734 	11.1027 	
5.56962e-11 	16892.6 	85.9589 	128.297 	0.3 	2.33333 	-0.952335 	1.11111e-05 	
0.00017508 	0.000355465 	0.000223689 	12573.2 	0.0134197 	17.7862 	12555.4 	12555.4 	0 	
0.000191667 	4.75115e-09 	0.92 	0.04 	0.04 	-0.125904 	3.9669 	
4.12473 	4.15572 	-0.0309885 	-2.22338 	2.88353e-08 	6.67482 	13.3252 	
5.57246e-11 	16892.6 	85.9589 	128.297 	0.3 	2.33333 	-0.952762 	1.11111e-05 	
0.00017508 	0.000355465 	0.000226371 	12611.5 	0.00764293 	25.5423 	12585.9 	12585.9 	0 	
0.000202778 	2.85165e-09 	0.92 	0.04 	0.04 	-0.125904 	3.96688 	
4.12471 	4.15572 	-0.0310114 	-2.22472 	1.73078e-08 	4.45121 	15.5488 	
5.57582e-11 	16892.6 	85.9589 	128.297 	0.3 	2.33333 	-0.953267 	1.11111e-05 	
0.00017508 	0.000355465 	0.000224509 	12638.7 	0.00351362 	34.7145 	12604 	12604 	0 	
0.000213889 	9.50991e-10 	0.92 	0.04 	0.04 	-0.125904 	3.96686 	
4.12468 	4.15572 	-0.0310379 	-2.22627 	5.77231e-09 	2.22633 	17.7737 	
5.5797e-11 	16892.6 	85.9589 	128.297 	0.3 	2.33333 	-0.953851 	1.11111e-05 	
0.00017508 	0.000355465 	0.000227219 	12703.1 	0.00103403 	45.3059 	12657.8 	12657.8 	0 	
0.000225 	0 	0.92 	0.04 	0.04 	-0.125904 	3.96683 	
4.12465 	4.15572 	-0.0310678 	-1.11401 	5.77231e-09 	0.556776 	19.4432 	
2.79205e-11 	8446.31 	42.9794 	64.1484 	0.3 	1.16667 	-0.954512 	5.55556e-06 	
8.75398e-05 	0.000177732 	0.000224953 	12670.2 	0.000206977 	50.9568 	12619.2 	12619.2 	0 	
ZONE T = "t = 3e-08 [s]" I = 10 SOLUTIONTIME = 3.0000000000000E-08
0.000125 	1.61325e-08 	0.92 	0.04 	0.04 	-0.125904 	3.96697 	
4.09287 	4.15572 	-0.0628488 	-1.10993 	9.78952e-08 	19.4451 	0.554941 	
5.56341e-11 	8446.31 	42.9794 	64.1484 	0.3 	1.16667 	-0.951368 	5.55556e-06 	
8.75398e-05 	0.000177732 	0.000348005 	12551.9 	0.0595622 	0.175977 	12551.7 	12551.7 	0 	
0.000136111 	1.42367e-08 	0.92 	0.04 	0.04 	-0.125904 	3.96697 	
4.09287 	4.15572 	-0.0628505 	-2.21995 	8.63875e-08 	17.7802 	2.21981 	
1.11273e-10 	16892.6 	85.9589 	128.297 	0.3 	2.33333 	-0.951406 	1.11111e-05 	
0.00017508 	0.000355465 	0.000351255 	12601.5 	0.0529741 	0.879928 	12600.6 	12600.6 	0 	
0.000147222 	1.23406e-08 	0.92 	0.04 	0.04 	-0.125904 	3.96696 	
4.09287 	4.15572 	-0.0628558 	-2.22022 	7.48826e-08 	15.5602 	4.4398 	
1.11287e-10 	16892.6 	85.9589 	128.297 	0.3 	2.33333 	-0.951522 	1.11111e-05 	
0.00017508 	0.000355465 	0.000348513 	12563.5 	0.0406197 	2.99201 	12560.4 	12560.4 	0 	
0.000158333 	1.04442e-08 	0.92 	0.04 	0.04 	-0.125904 	3.96695 	
4.09286 	4.15572 	-0.0628645 	-2.22067 	6.33752e-08 	13.3399 	6.66015 	
1.11312e-10 	16892.6 	85.9589 	128.297 	0.3 	2.33333 	-0.951715 	1.11111e-05 	
0.00017508 	0.000355465 	0.000348634 	12563.3 	0.029909 	6.51291 	12556.7 	12556.7 	0 	
0.000169444 	8.54729e-09 	0.92 	0.04 	0.04 	-0.125904 	3.96694 	
4.09284 	4.15572 	-0.0628769 	-2.2213 	5.18646e-08 	11.119 	8.88104 	
1.11345e-10 	16892.6 	85.9589 	128.297 	0.3 	2.33333 	-0.951987 	1.11111e-05 	
0.00017508 	0.000355465 	0.0003504 	12581.7 	0.0208421 	11.4438 	12570.2 	12570.2 	0 	
0.000180556 	6.64965e-09 	0.92 	0.04 	0.04 	-0.125904 	3.96692 	
4.09283 	4.15572 	-0.0628927 	-2.22212 	4.03498e-08 	8.89734 	11.1027 	
1.11389e-10 	16892.6 	85.9589 	128.297 	0.3 	2.33333 	-0.952336 	1.11111e-05 	
0.00017508 	0.000355465 	0.000349607 	12591.7 	0.0134197 	17.7862 	12573.9 	12573.9 	0 	
0.000191667 	4.75115e-09 	0.92 	0.04 	0.04 	-0.125904 	3.9669 	
4.09281 	4.15572 	-0.0629121 	-2.22311 	2.88298e-08 	6.67482 	13.3252 	
1.11442e-10 	16892.6 	85.9589 	128.297 	0.3 	2.33333 	-0.952763 	1.11111e-05 	
0.00017508 	0.000355465 	0.000352559 	12618.8 	0.00764293 	25.5423 	12593.3 	12593.3 	0 	
0.000202778 	2.85165e-09 	0.92 	0.04 	0.04 	-0.125904 	3.96688 	
4.09279 	4.15572 	-0.062935 	-2.22429 	1.73037e-08 	4.45121 	15.5488 	
1.11506e-10 	16892.6 	85.9589 	128.297 	0.3 	2.33333 	-0.953268 	1.11111e-05 	
0.00017508 	0.000355465 	0.00035087 	12636.1 	0.00351362 	34.7145 	12601.4 	12601.4 	0 	
0.000213889 	9.50991e-10 	0.92 	0.04 	0.04 	-0.125904 	3.96686 	
4.09276 	4.15572 	-0.0629614 	-2.22565 	5.77058e-09 	2.22633 	17.7737 	
1.11578e-10 	16892.6 	85.9589 	128.297 	0.3 	2.33333 	-0.953851 	1.11111e-05 	
0.00017508 	0.000355465 	0.000354164 	12694.5 	0.00103403 	45.3059 	12649.2 	12649.2 	0 	
0.000225 	0 	0.92 	0.04 	0.04 	-0.125904 	3.96683 	
4.09273 	4.15572 	-0.0629914 	-1.1136 	5.77058e-09 	0.556776 	19.4432 	
5.58306e-11 	8446.31 	42.9794 	64.1484 	0.3 	1.16667 	-0.954513 	5.55556e-06 	
8.75398e-05 	0.000177732 	0.000351744 	12679.1 	0.000206977 	50.9568 	12628.2 	12628.2 	0 	
ZONE T = "t = 4e-08 [s]" I = 10 SOLUTIONTIME = 4.0000000000000E-08
0.000125 	1.61325e-08 	0.92 	0.04 	0.04 	-0.125904 	3.96697 	
4.09287 	4.15572 	-0.0628488 	-1.10993 	9.78973e-08 	19.4451 	0.554941 	
8.34522e-11 	8446.31 	42.9794 	64.1484 	0.3 	1.16667 	-0.951328 	5.55556e-06 	
8.75398e-05 	0.000177732 	0.000473723 	12571.7 	0.0595622 	0.175977 	12571.5 	12571.5 	0 	
0.000136111 	1.42367e-08 	0.92 	0.04 	0.04 	-0.125904 	3.96697 	
4.09287 	4.15572 	-0.0628505 	-2.21995 	8.63876e-08 	17.7802 	2.21981 	
1.66911e-10 	16892.6 	85.9589 	128.297 	0.3 	2.33333 	-0.951366 	1.11111e-05 	
0.00017508 	0.000355465 	0.000476711 	12545.6 	0.0529741 	0.879928 	12544.7 	12544.7 	0 	
0.000147222 	1.23406e-08 	0.92 	0.04 	0.04 	-0.125904 	3.96696 	
4.09287 	4.15572 	-0.0628558 	-2.22022 	7.48826e-08 	15.5602 	4.4398 	
1.66933e-10 	16892.6 	85.9589 	128.297 	0.3 	2.33333 	-0.951482 	1.11111e-05 	
0.00017508 	0.000355465 	0.000474442 	12592.9 	0.0406197 	2.99201 	12589.9 	12589.9 	0 	
0.000158333 	1.04442e-08 	0.92 	0.04 	0.04 	-0.125904 	3.96695 	
4.09286 	4.15572 	-0.0628646 	-2.22067 	6.33752e-08 	13.3399 	6.66015 	
1.66968e-10 	16892.6 	85.9589 	128.297 	0.3 	2.33333 	-0.951675 	1.11111e-05 	
0.00017508 	0.000355465 	0.000474333 	12570 	0.029909 	6.5129 	12563.4 	12563.4 	0 	
0.000169444 	8.54729e-09 	0.92 	0.04 	0.04 	-0.125904 	3.96694 	
4.09284 	4.15572 	-0.0628769 	-2.2213 	5.18646e-08 	11.119 	8.88104 	
1.67018e-10 	16892.6 	85.9589 	128.297 	0.3 	2.33333 	-0.951947 	1.11111e-05 	
0.00017508 	0.000355465 	0.00047638 	12598 	0.0208421 	11.4438 	12586.5 	12586.5 	0 	
0.000180556 	6.64965e-09 	0.92 	0.04 	0.04 	-0.125904 	3.96693 	
4.09283 	4.15572 	-0.0628927 	-2.22212 	4.03498e-08 	8.89734 	11.1027 	
1.67082e-10 	16892.6 	85.9589 	128.297 	0.3 	2.33333 	-0.952296 	1.11111e-05 	
0.00017508 	0.000355465 	0.000475548 	12594.1 	0.0134197 	17.7862 	12576.3 	12576.3 	0 	
0.000191667 	4.75115e-09 	0.92 	0.04 	0.04 	-0.125904 	3.96691 	
4.09281 	4.15572 	-0.0629121 	-2.22311 	2.88298e-08 	6.67482 	13.3252 	
1.6716e-10 	16892.6 	85.9589 	128.297 	0.3 	2.33333 	-0.952723 	1.11111e-05 	
0.00017508 	0.000355465 	0.00047889 	12633.1 	0.00764293 	25.5423 	12607.6 	12607.6 	0 	
0.000202778 	2.85165e-09 	0.92 	0.04 	0.04 	-0.125904 	3.96688 	
4.09279 	4.15572 	-0.062935 	-2.22429 	1.73037e-08 	4.45121 	15.5488 	
1.67253e-10 	16892.6 	85.9589 	128.297 	0.3 	2.33333 	-0.953228 	1.11111e-05 	
0.00017508 	0.000355465 	0.000477533 	12666.4 	0.00351362 	34.7145 	12631.6 	12631.6 	0 	
0.000213889 	9.50991e-10 	0.92 	0.04 	0.04 	-0.125904 	3.96686 	
4.09276 	4.15572 	-0.0629614 	-2.22565 	5.77058e-09 	2.22633 	17.7737 	
1.6736e-10 	16892.6 	85.9589 	128.297 	0.3 	2.33333 	-0.953811 	1.11111e-05 	
0.00017508 	0.000355465 	0.000480813 	12665 	0.00103403 	45.3059 	12619.7 	12619.7 	0 	
0.000225 	0 	0.92 	0.04 	0.04 	-0.125904 	3.96683 	
4.09273 	4.15572 	-0.0629914 	-1.1136 	5.77058e-09 	0.556776 	19.4432 	
8.37407e-11 	8446.31 	42.9794 	64.1484 	0.3 	1.16667 	-0.954473 	5.55556e-06 	
8.75398e-05 	0.000177732 	0.0004785 	12675.5 	0.000206977 	50.9568 	12624.6 	12624.6 	0 	
ZONE T = "t = 5.5e-08 [s]" I = 10 SOLUTIONTIME = 5.5000000000000E-08
0.000125 	1.61325e-08 	0.92 	0.04 	0.04 	-0.125904 	3.96697 	
4.09287 	4.15572 	-0.062847 	-1.10988 	9.78995e-08 	19.4451 	0.554941 	
1.11269e-10 	8446.31 	42.9794 	64.1484 	0.3 	1.16667 	-0.951328 	5.55556e-06 	
8.75398e-05 	0.000177732 	0.000662219 	12566.4 	0.0595622 	0.175977 	12566.2 	12566.2 	0 	
0.000136111 	1.42367e-08 	0.92 	0.04 	0.04 	-0.125904 	3.96697 	
4.09287 	4.15572 	-0.0628487 	-2.21985 	8.63876e-08 	17.7802 	2.21981 	
2.22548e-10 	16892.6 	85.9589 	128.297 	0.3 	2.33333 	-0.951366 	1.11111e-05 	
0.00017508 	0.000355465 	0.00066472 	12533.9 	0.0529741 	0.879928 	12533 	12533 	0 	
0.000147222 	1.23406e-08 	0.92 	0.04 	0.04 	-0.125904 	3.96696 	
4.09287 	4.15572 	-0.062854 	-2.22012 	7.48826e-08 	15.5602 	4.4398 	
2.22576e-10 	16892.6 	85.9589 	128.297 	0.3 	2.33333 	-0.951482 	1.11111e-05 	
0.00017508 	0.000355465 	0.000663487 	12603 	0.0406197 	2.99201 	12600 	12600 	0 	
0.000158333 	1.04442e-08 	0.92 	0.04 	0.04 	-0.125904 	3.96695 	
4.09286 	4.15572 	-0.0628628 	-2.22058 	6.33752e-08 	13.3399 	6.66015 	
2.22622e-10 	16892.6 	85.9589 	128.297 	0.3 	2.33333 	-0.951675 	1.11111e-05 	
0.00017508 	0.000355465 	0.000663182 	12589.9 	0.029909 	6.5129 	12583.4 	12583.4 	0 	
0.000169444 	8.54729e-09 	0.92 	0.04 	0.04 	-0.125904 	3.96694 	
4.09285 	4.15572 	-0.0628751 	-2.22121 	5.18646e-08 	11.119 	8.88104 	
2.22688e-10 	16892.6 	85.9589 	128.297 	0.3 	2.33333 	-0.951947 	1.11111e-05 	
0.00017508 	0.000355465 	0.000665003 	12574.9 	0.0208421 	11.4438 	12563.4 	12563.4 	0 	
0.000180556 	6.64965e-09 	0.92 	0.04 	0.04 	-0.125904 	3.96693 	
4.09283 	4.15572 	-0.0628909 	-2.22202 	4.03498e-08 	8.89734 	11.1027 	
2.22773e-10 	16892.6 	85.9589 	128.297 	0.3 	2.33333 	-0.952296 	1.11111e-05 	
0.00017508 	0.000355465 	0.000664252 	12580.3 	0.0134197 	17.7862 	12562.5 	12562.5 	0 	
0.000191667 	4.75115e-09 	0.92 	0.04 	0.04 	-0.125904 	3.96691 	
4.09281 	4.15572 	-0.0629103 	-2.22302 	2.88298e-08 	6.67482 	13.3252 	
2.22876e-10 	16892.6 	85.9589 	128.297 	0.3 	2.33333 	-0.952723 	1.11111e-05 	
0.00017508 	0.000355465 	0.000668409 	12634.6 	0.00764293 	25.5423 	12609.1 	12609.1 	0 	
0.000202778 	2.85165e-09 	0.92 	0.04 	0.04 	-0.125904 	3.96688 	
4.09279 	4.15572 	-0.0629332 	-2.2242 	1.73037e-08 	4.45121 	15.5488 	
2.22998e-10 	16892.6 	85.9589 	128.297 	0.3 	2.33333 	-0.953228 	1.11111e-05 	
0.00017508 	0.000355465 	0.000667628 	12673 	0.00351362 	34.7145 	12638.3 	12638.3 	0 	
0.000213889 	9.50991e-10 	0.92 	0.04 	0.04 	-0.125904 	3.96686 	
4.09276 	4.15572 	-0.0629596 	-2.22556 	5.77059e-09 	2.22633 	17.7737 	
2.23139e-10 	16892.6 	85.9589 	128.297 	0.3 	2.33333 	-0.953811 	1.11111e-05 	
0.00017508 	0.000355465 	0.000670494 	12645.3 	0.00103403 	45.3059 	12600 	12600 	0 	
0.000225 	0 	0.92 	0.04 	0.04 	-0.125904 	3.96683 	
4.09273 	4.15572 	-0.0629896 	-1.11355 	5.77059e-09 	0.556776 	19.4432 	
1.1165e-10 	8446.31 	42.9794 	64.1484 	0.3 	1.16667 	-0.954473 	5.55556e-06 	
8.75398e-05 	0.000177732 	0.00066889 	12692.7 	0.000206977 	50.9568 	12641.7 	12641.7 	0 	
ZONE T = "t = 7.75e-08 [s]" I = 10 SOLUTIONTIME = 7.7500000000000E-08
0.000125 	1.61325e-08 	0.92 	0.04 	0.04 	-0.125904 	3.96697 	
4.09287 	4.15572 	-0.062847 	-1.10988 	9.79027e-08 	19.4451 	0.554941 	
1.52995e-10 	8446.31 	42.9794 	64.1484 	0.3 	1.16667 	-0.951328 	5.55556e-06 	
8.75398e-05 	0.000177732 	0.000945038 	12569.7 	0.0595622 	0.175977 	12569.5 	12569.5 	0 	
0.000136111 	1.42367e-08 	0.92 	0.04 	0.04 	-0.125904 	3.96697 	
4.09287 	4.15572 	-0.0628487 	-2.21985 	8.63876e-08 	17.7802 	2.21981 	
3.06002e-10 	16892.6 	85.9589 	128.297 	0.3 	2.33333 	-0.951366 	1.11111e-05 	
0.00017508 	0.000355465 	0.000946863 	12539.7 	0.0529741 	0.879928 	12538.8 	12538.8 	0 	
0.000147222 	1.23406e-08 	0.92 	0.04 	0.04 	-0.125904 	3.96696 	
4.09287 	4.15572 	-0.062854 	-2.22012 	7.48826e-08 	15.5602 	4.4398 	
3.0604e-10 	16892.6 	85.9589 	128.297 	0.3 	2.33333 	-0.951482 	1.11111e-05 	
0.00017508 	0.000355465 	0.000945676 	12541.8 	0.0406197 	2.99201 	12538.7 	12538.7 	0 	
0.000158333 	1.04442e-08 	0.92 	0.04 	0.04 	-0.125904 	3.96695 	
4.09286 	4.15572 	-0.0628628 	-2.22058 	6.33752e-08 	13.3399 	6.66015 	
3.06104e-10 	16892.6 	85.9589 	128.297 	0.3 	2.33333 	-0.951675 	1.11111e-05 	
0.00017508 	0.000355465 	0.000946435 	12589 	0.029909 	6.5129 	12582.5 	12582.5 	0 	
0.000169444 	8.54729e-09 	0.92 	0.04 	0.04 	-0.125904 	3.96694 	
4.09285 	4.15572 	-0.0628751 	-2.22121 	5.18646e-08 	11.119 	8.88104 	
3.06193e-10 	16892.6 	85.9589 	128.297 	0.3 	2.33333 	-0.951947 	1.11111e-05 	
0.00017508 	0.000355465 	0.000947572 	12558.6 	0.0208421 	11.4438 	12547.1 	12547.1 	0 	
0.000180556 	6.64965e-09 	0.92 	0.04 	0.04 	-0.125904 	3.96693 	
4.09283 	4.15572 	-0.0628909 	-2.22202 	4.03498e-08 	8.89734 	11.1027 	
3.06308e-10 	16892.6 	85.9589 	128.297 	0.3 	2.33333 	-0.952296 	1.11111e-05 	
0.00017508 	0.000355465 	0.000946895 	12561.9 	0.0134197 	17.7862 	12544.1 	12544.1 	0 	
0.000191667 	4.75115e-09 	0.92 	0.04 	0.04 	-0.125904 	3.96691 	
4.09281 	4.15572 	-0.0629103 	-2.22302 	2.88298e-08 	6.67482 	13.3252 	
3.06449e-10 	16892.6 	85.9589 	128.297 	0.3 	2.33333 	-0.952723 	1.11111e-05 	
0.00017508 	0.000355465 	0.000952415 	12622.5 	0.00764293 	25.5423 	12596.9 	12596.9 	0 	
0.000202778 	2.85165e-09 	0.92 	0.04 	0.04 	-0.125904 	3.96688 	
4.09279 	4.15572 	-0.0629332 	-2.2242 	1.73037e-08 	4.45121 	15.5488 	
3.06616e-10 	16892.6 	85.9589 	128.297 	0.3 	2.33333 	-0.953228 	1.11111e-05 	
0.00017508 	0.000355465 	0.000951463 	12614.9 	0.00351362 	34.7145 	12580.2 	12580.2 	0 	
0.000213889 	9.50991e-10 	0.92 	0.04 	0.04 	-0.125904 	3.96686 	
4.09276 	4.15572 	-0.0629596 	-2.22556 	5.77059e-09 	2.22633 	17.7737 	
3.06808e-10 	16892.6 	85.9589 	128.297 	0.3 	2.33333 	-0.953811 	1.11111e-05 	
0.00017508 	0.000355465 	0.000955002 	12644.8 	0.00103403 	45.3059 	12599.5 	12599.5 	0 	
0.000225 	0 	0.92 	0.04 	0.04 	-0.125904 	3.96683 	
4.09273 	4.15572 	-0.0629896 	-1.11355 	5.77059e-09 	0.556776 	19.4432 	
1.53513e-10 	8446.31 	42.9794 	64.1484 	0.3 	1.16667 	-0.954473 	5.55556e-06 	
8.75398e-05 	0.000177732 	0.000954619 	12699.1 	0.000206977 	50.9568 	12648.1 	12648.1 	0 	
ZONE T = "t = 1.1125e-07 [s]" I = 10 SOLUTIONTIME = 1.1125000000000E-07
0.000125 	1.61325e-08 	0.92 	0.04 	0.04 	-0.125904 	3.96697 	
4.09287 	4.15572 	-0.062847 	-1.10988 	9.79076e-08 	19.4451 	0.554941 	
2.15583e-10 	8446.31 	42.9794 	64.1484 	0.3 	1.16667 	-0.951328 	5.55556e-06 	
8.75398e-05 	0.000177732 	0.00136833 	12542.1 	0.0595622 	0.175977 	12541.9 	12541.9 	0 	
0.000136111 	1.42367e-08 	0.92 	0.04 	0.04 	-0.125904 	3.96697 	
4.09287 	4.15572 	-0.0628487 	-2.21985 	8.63876e-08 	17.7802 	2.21981 	
4.31183e-10 	16892.6 	85.9589 	128.297 	0.3 	2.33333 	-0.951366 	1.11111e-05 	
0.00017508 	0.000355465 	0.0013703 	12546.3 	0.0529741 	0.879928 	12545.4 	12545.4 	0 	
0.000147222 	1.23406e-08 	0.92 	0.04 	0.04 	-0.125904 	3.96696 	
4.09287 	4.15572 	-0.062854 	-2.22012 	7.48826e-08 	15.5602 	4.4398 	
4.31237e-10 	16892.6 	85.9589 	128.297 	0.3 	2.33333 	-0.951482 	1.11111e-05 	
0.00017508 	0.000355465 	0.00136913 	12546.9 	0.0406197 	2.99201 	12543.9 	12543.9 	0 	
0.000158333 	1.04442e-08 	0.92 	0.04 	0.04 	-0.125904 	3.96695 	
4.09286 	4.15572 	-0.0628628 	-2.22058 	6.33752e-08 	13.3399 	6.66015 	
4.31326e-10 	16892.6 	85.9589 	128.297 	0.3 	2.33333 	-0.951675 	1.11111e-05 	
0.00017508 	0.000355465 	0.00137081 	12574 	0.029909 	6.5129 	12567.5 	12567.5 	0 	
0.000169444 	8.54729e-09 	0.92 	0.04 	0.04 	-0.125904 	3.96694 	
4.09285 	4.15572 	-0.0628751 	-2.22121 	5.18646e-08 	11.119 	8.88104 	
4.31451e-10 	16892.6 	85.9589 	128.297 	0.3 	2.33333 	-0.951947 	1.11111e-05 	
0.00017508 	0.000355465 	0.00137165 	12565.3 	0.0208421 	11.4438 	12553.9 	12553.9 	0 	
0.000180556 	6.64965e-09 	0.92 	0.04 	0.04 	-0.125904 	3.96693 	
4.09283 	4.15572 	-0.0628909 	-2.22202 	4.03498e-08 	8.89734 	11.1027 	
4.31612e-10 	16892.6 	85.9589 	128.297 	0.3 	2.33333 	-0.952296 	1.11111e-05 	
0.00017508 	0.000355465 	0.00137181 	12590.2 	0.0134197 	17.7862 	12572.4 	12572.4 	0 	
0.000191667 	4.75115e-09 	0.92 	0.04 	0.04 	-0.125904 	3.96691 	
4.09281 	4.15572 	-0.0629103 	-2.22302 	2.88298e-08 	6.67482 	13.3252 	
4.31809e-10 	16892.6 	85.9589 	128.297 	0.3 	2.33333 	-0.952723 	1.11111e-05 	
0.00017508 	0.000355465 	0.0013778 	12603.9 	0.00764293 	25.5423 	12578.3 	12578.3 	0 	
0.000202778 	2.85165e-09 	0.92 	0.04 	0.04 	-0.125904 	3.96688 	
4.09279 	4.15572 	-0.0629332 	-2.2242 	1.73037e-08 	4.45121 	15.5488 	
4.32042e-10 	16892.6 	85.9589 	128.297 	0.3 	2.33333 	-0.953228 	1.11111e-05 	
0.00017508 	0.000355465 	0.00137736 	12619.1 	0.00351362 	34.7145 	12584.4 	12584.4 	0 	
0.000213889 	9.50991e-10 	0.92 	0.04 	0.04 	-0.125904 	3.96686 	
4.09276 	4.15572 	-0.0629596 	-2.22556 	5.7706e-09 	2.22633 	17.7737 	
4.32311e-10 	16892.6 	85.9589 	128.297 	0.3 	2.33333 	-0.953811 	1.11111e-05 	
0.00017508 	0.000355465 	0.00138174 	12644.2 	0.00103403 	45.3059 	12598.9 	12598.9 	0 	
0.000225 	0 	0.92 	0.04 	0.04 	-0.125904 	3.96683 	
4.09273 	4.15572 	-0.0629896 	-1.11355 	5.7706e-09 	0.556776 	19.4432 	
2.16308e-10 	8446.31 	42.9794 	64.1484 	0.3 	1.16667 	-0.954473 	5.55556e-06 	
8.75398e-05 	0.000177732 	0.00138218 	12668.4 	0.000206977 	50.9568 	12617.5 	12617.5 	0 	
ZONE T = "t = 1.61875e-07 [s]" I = 10 SOLUTIONTIME = 1.6187500000000E-07
0.000125 	1.61325e-08 	0.92 	0.04 	0.04 	-0.125904 	3.96697 	
4.09287 	4.15572 	-0.062847 	-1.10988 	9.79153e-08 	19.4451 	0.554941 	
3.09465e-10 	8446.31 	42.9794 	64.1484 	0.3 	1.16667 	-0.951328 	5.55556e-06 	
8.75398e-05 	0.000177732 	0.00200429 	12562.1 	0.0595622 	0.175977 	12561.9 	12561.9 	0 	
0.000136111 	1.42367e-08 	0.92 	0.04 	0.04 	-0.125904 	3.96697 	
4.09287 	4.15572 	-0.0628487 	-2.21985 	8.63876e-08 	17.7802 	2.21981 	
6.18956e-10 	16892.6 	85.9589 	128.297 	0.3 	2.33333 	-0.951366 	1.11111e-05 	
0.00017508 	0.000355465 	0.00200638 	12564.5 	0.0529741 	0.879928 	12563.6 	12563.6 	0 	
0.000147222 	1.23406e-08 	0.92 	0.04 	0.04 	-0.125904 	3.96696 	
4.09287 	4.15572 	-0.062854 	-2.22012 	7.48826e-08 	15.5602 	4.4398 	
6.19032e-10 	16892.6 	85.9589 	128.297 	0.3 	2.33333 	-0.951482 	1.11111e-05 	
0.00017508 	0.000355465 	0.00200558 	12571.8 	0.0406197 	2.99201 	12568.8 	12568.8 	0 	
0.000158333 	1.04442e-08 	0.92 	0.04 	0.04 	-0.125904 	3.96695 	
4.09286 	4.15572 	-0.0628628 	-2.22058 	6.33753e-08 	13.3399 	6.66015 	
6.19159e-10 	16892.6 	85.9589 	128.297 	0.3 	2.33333 	-0.951675 	1.11111e-05 	
0.00017508 	0.000355465 	0.0020076 	12578.5 	0.029909 	6.5129 	12572 	12572 	0 	
0.000169444 	8.54729e-09 	0.92 	0.04 	0.04 	-0.125904 	3.96694 	
4.09285 	4.15572 	-0.0628751 	-2.22121 	5.18647e-08 	11.119 	8.88104 	
6.19338e-10 	16892.6 	85.9589 	128.297 	0.3 	2.33333 	-0.951947 	1.11111e-05 	
0.00017508 	0.000355465 	0.00200906 	12590.8 	0.0208421 	11.4438 	12579.4 	12579.4 	0 	
0.000180556 	6.64965e-09 	0.92 	0.04 	0.04 	-0.125904 	3.96693 	
4.09283 	4.15572 	-0.0628909 	-2.22202 	4.03498e-08 	8.89734 	11.1027 	
6.19568e-10 	16892.6 	85.9589 	128.297 	0.3 	2.33333 	-0.952296 	1.11111e-05 	
0.00017508 	0.000355465 	0.00200977 	12601.5 	0.0134197 	17.7862 	12583.7 	12583.7 	0 	
0.000191667 	4.75115e-09 	0.92 	0.04 	0.04 	-0.125904 	3.96691 	
4.09281 	4.15572 	-0.0629103 	-2.22302 	2.88298e-08 	6.67482 	13.3252 	
6.19849e-10 	16892.6 	85.9589 	128.297 	0.3 	2.33333 	-0.952723 	1.11111e-05 	
0.00017508 	0.000355465 	0.00201661 	12618.5 	0.00764293 	25.5423 	12592.9 	12592.9 	0 	
0.000202778 	2.85165e-09 	0.92 	0.04 	0.04 	-0.125904 	3.96688 	
4.09279 	4.15572 	-0.0629332 	-2.2242 	1.73038e-08 	4.45121 	15.5488 	
6.20182e-10 	16892.6 	85.9589 	128.297 	0.3 	2.33333 	-0.953228 	1.11111e-05 	
0.00017508 	0.000355465 	0.00201722 	12639.3 	0.00351362 	34.7145 	12604.6 	12604.6 	0 	
0.000213889 	9.50991e-10 	0.92 	0.04 	0.04 	-0.125904 	3.96686 	
4.09276 	4.15572 	-0.0629596 	-2.22556 	5.77061e-09 	2.22633 	17.7737 	
6.20566e-10 	16892.6 	85.9589 	128.297 	0.3 	2.33333 	-0.953811 	1.11111e-05 	
0.00017508 	0.000355465 	0.0020227 	12660.8 	0.00103403 	45.3059 	12615.5 	12615.5 	0 	
0.000225 	0 	0.92 	0.04 	0.04 	-0.125904 	3.96683 	
4.09273 	4.15572 	-0.0629896 	-1.11355 	5.77061e-09 	0.556776 	19.4432 	
3.10501e-10 	8446.31 	42.9794 	64.1484 	0.3 	1.16667 	-0.954473 	5.55556e-06 	
8.75398e-05 	0.000177732 	0.002024 	12678 	0.000206977 	50.9568 	12627.1 	12627.1 	0 	
ZONE T = "t = 2.37813e-07 [s]" I = 10 SOLUTIONTIME = 2.3781250000000E-07
0.000125 	1.61325e-08 	0.92 	0.04 	0.04 	-0.125904 	3.96697 	
4.09287 	4.15572 	-0.062847 	-1.10988 	9.79271e-08 	19.4451 	0.554941 	
4.50289e-10 	8446.31 	42.9794 	64.1484 	0.3 	1.16667 	-0.951328 	5.55556e-06 	
8.75398e-05 	0.000177732 	0.00295822 	12562 	0.0595622 	0.175977 	12561.8 	12561.8 	0 	
0.000136111 	1.42367e-08 	0.92 	0.04 	0.04 	-0.125904 	3.96697 	
4.09287 	4.15572 	-0.0628487 	-2.21985 	8.63877e-08 	17.7802 	2.21981 	
9.00614e-10 	16892.6 	85.9589 	128.297 	0.3 	2.33333 	-0.951366 	1.11111e-05 	
0.00017508 	0.000355465 	0.00296012 	12559.5 	0.0529741 	0.879928 	12558.5 	12558.5 	0 	
0.000147222 	1.23406e-08 	0.92 	0.04 	0.04 	-0.125904 	3.96696 	
4.09287 	4.15572 	-0.062854 	-2.22012 	7.48826e-08 	15.5602 	4.4398 	
9.00725e-10 	16892.6 	85.9589 	128.297 	0.3 	2.33333 	-0.951482 	1.11111e-05 	
0.00017508 	0.000355465 	0.00295948 	12561.6 	0.0406197 	2.99201 	12558.6 	12558.6 	0 	
0.000158333 	1.04442e-08 	0.92 	0.04 	0.04 	-0.125904 	3.96695 	
4.09286 	4.15572 	-0.0628628 	-2.22058 	6.33753e-08 	13.3399 	6.66015 	
9.00909e-10 	16892.6 	85.9589 	128.297 	0.3 	2.33333 	-0.951675 	1.11111e-05 	
0.00017508 	0.000355465 	0.00296266 	12577 	0.029909 	6.5129 	12570.5 	12570.5 	0 	
0.000169444 	8.54729e-09 	0.92 	0.04 	0.04 	-0.125904 	3.96694 	
4.09285 	4.15572 	-0.0628751 	-2.22121 	5.18647e-08 	11.119 	8.88104 	
9.01168e-10 	16892.6 	85.9589 	128.297 	0.3 	2.33333 	-0.951947 	1.11111e-05 	
0.00017508 	0.000355465 	0.00296415 	12577.3 	0.0208421 	11.4438 	12565.9 	12565.9 	0 	
0.000180556 	6.64965e-09 	0.92 	0.04 	0.04 	-0.125904 	3.96693 	
4.09283 	4.15572 	-0.0628909 	-2.22202 	4.03498e-08 	8.89734 	11.1027 	
9.01501e-10 	16892.6 	85.9589 	128.297 	0.3 	2.33333 	-0.952296 	1.11111e-05 	
0.00017508 	0.000355465 	0.00296652 	12599.2 	0.0134197 	17.7862 	12581.4 	12581.4 	0 	
0.000191667 	4.75115e-09 	0.92 	0.04 	0.04 	-0.125904 	3.96691 	
4.09281 	4.15572 	-0.0629103 	-2.22302 	2.88299e-08 	6.67482 	13.3252 	
9.01909e-10 	16892.6 	85.9589 	128.297 	0.3 	2.33333 	-0.952723 	1.11111e-05 	
0.00017508 	0.000355465 	0.00297419 	12610.1 	0.00764293 	25.5423 	12584.6 	12584.6 	0 	
0.000202778 	2.85165e-09 	0.92 	0.04 	0.04 	-0.125904 	3.96688 	
4.09279 	4.15572 	-0.0629332 	-2.2242 	1.73038e-08 	4.45121 	15.5488 	
9.02391e-10 	16892.6 	85.9589 	128.297 	0.3 	2.33333 	-0.953228 	1.11111e-05 	
0.00017508 	0.000355465 	0.00297704 	12639.6 	0.00351362 	34.7145 	12604.9 	12604.9 	0 	
0.000213889 	9.50991e-10 	0.92 	0.04 	0.04 	-0.125904 	3.96686 	
4.09276 	4.15572 	-0.0629596 	-2.22556 	5.77062e-09 	2.22633 	17.7737 	