TITLE = "Solution on Domain BulkDomain1D_1"
VARIABLES = "x [m]"  
"Vel_axial" 	"MF_sp(ECDMC)" 	"MF_sp(Li+)" 	"MF_sp(PF6-)" 	"Volt(Electroly)" 	"Porosity []" 	"Control volume thickness [m]" 	"volFrac MgO(S) []" 	"qHeat_accum [J/m3]" 	"qHeat_step [W/m3]" 	"Joule_Lyte [W/m3]" 	"Joule_Solid [W/m3]" 	
ZONE T = "SEP , 0.0000E+00", I = 10, SOLUTIONTIME = 0.000000E+00
ZONETYPE = ORDERED
DATAPACKING = BLOCK
STRANDID = 2
 1.0000000000000E-04  1.0277777777778E-04  1.0555555555556E-04  1.0833333333333E-04  1.1111111111111E-04  1.1388888888889E-04  1.1666666666667E-04  1.1944444444444E-04  1.2222222222222E-04  1.2500000000000E-04 
 0.0000000000000E+00  0.0000000000000E+00  0.0000000000000E+00  0.0000000000000E+00  0.0000000000000E+00  0.0000000000000E+00  0.0000000000000E+00  0.0000000000000E+00  0.0000000000000E+00  0.0000000000000E+00 
 8.4394680000000E-01  8.4394680000000E-01  8.4394680000000E-01  8.4394680000000E-01  8.4394680000000E-01  8.4394680000000E-01  8.4394680000000E-01  8.4394680000000E-01  8.4394680000000E-01  8.4394680000000E-01 
 7.8026600000000E-02  7.8026600000000E-02  7.8026600000000E-02  7.8026600000000E-02  7.8026600000000E-02  7.8026600000000E-02  7.8026600000000E-02  7.8026600000000E-02  7.8026600000000E-02  7.8026600000000E-02 
 7.8026600000000E-02  7.8026600000000E-02  7.8026600000000E-02  7.8026600000000E-02  7.8026600000000E-02  7.8026600000000E-02  7.8026600000000E-02  7.8026600000000E-02  7.8026600000000E-02  7.8026600000000E-02 
-7.0000000000000E-02 -7.0000000000000E-02 -7.0000000000000E-02 -7.0000000000000E-02 -7.0000000000000E-02 -7.0000000000000E-02 -7.0000000000000E-02 -7.0000000000000E-02 -7.0000000000000E-02 -7.0000000000000E-02 
 8.0000000000000E-01  8.0000000000000E-01  8.0000000000000E-01  8.0000000000000E-01  8.0000000000000E-01  8.0000000000000E-01  8.0000000000000E-01  8.0000000000000E-01  8.0000000000000E-01  8.0000000000000E-01 
 1.3888888888889E-06  2.7777777777778E-06  2.7777777777778E-06  2.7777777777778E-06  2.7777777777778E-06  2.7777777777778E-06  2.7777777777778E-06  2.7777777777778E-06  2.7777777777778E-06  1.3888888888889E-06 
 2.0000000000000E-01  2.0000000000000E-01  2.0000000000000E-01  2.0000000000000E-01  2.0000000000000E-01  2.0000000000000E-01  2.0000000000000E-01  2.0000000000000E-01  2.0000000000000E-01  2.0000000000000E-01 
 0.0000000000000E+00  0.0000000000000E+00  0.0000000000000E+00  0.0000000000000E+00  0.0000000000000E+00  0.0000000000000E+00  0.0000000000000E+00  0.0000000000000E+00  0.0000000000000E+00  0.0000000000000E+00 
 0.0000000000000E+00  0.0000000000000E+00  0.0000000000000E+00  0.0000000000000E+00  0.0000000000000E+00  0.0000000000000E+00  0.0000000000000E+00  0.0000000000000E+00  0.0000000000000E+00  0.0000000000000E+00 
 0.0000000000000E+00  0.0000000000000E+00  0.0000000000000E+00  0.0000000000000E+00  0.0000000000000E+00  0.0000000000000E+00  0.0000000000000E+00  0.0000000000000E+00  0.0000000000000E+00  0.0000000000000E+00 
 0.0000000000000E+00  0.0000000000000E+00  0.0000000000000E+00  0.0000000000000E+00  0.0000000000000E+00  0.0000000000000E+00  0.0000000000000E+00  0.0000000000000E+00  0.0000000000000E+00  0.0000000000000E+00 
ZONE T = "SEP , 1.0000E-08", I = 10, SOLUTIONTIME = 1.000000E-08
ZONETYPE = ORDERED
DATAPACKING = BLOCK
STRANDID = 2
 1.0000000000000E-04  1.0277777777778E-04  1.0555555555556E-04  1.0833333333333E-04  1.1111111111111E-04  1.1388888888889E-04  1.1666666666667E-04  1.1944444444444E-04  1.2222222222222E-04  1.2500000000000E-04 
 6.1205641915894E-09  6.1155961429853E-09  6.1155970595956E-09  6.1155964084974E-09  6.1155964012118E-09  6.1155964083162E-09  6.1155970423548E-09  6.1156248946200E-09  6.1207525331723E-09  5.7765985034198E-09 
 8.4394679999730E-01  8.4394679999997E-01  8.4394680000000E-01  8.4394680000000E-01  8.4394680000000E-01  8.4394680000000E-01  8.4394680000000E-01  8.4394680000000E-01  8.4394680000003E-01  8.4394680000270E-01 
 7.8026600001352E-02  7.8026600000015E-02  7.8026600000000E-02  7.8026600000000E-02  7.8026600000000E-02  7.8026600000000E-02  7.8026600000000E-02  7.8026600000000E-02  7.8026599999985E-02  7.8026599998648E-02 
 7.8026600001352E-02  7.8026600000015E-02  7.8026600000000E-02  7.8026600000000E-02  7.8026600000000E-02  7.8026600000000E-02  7.8026600000000E-02  7.8026600000000E-02  7.8026599999985E-02  7.8026599998648E-02 
-1.2132858616252E-01 -1.2132858719626E-01 -1.2132858823000E-01 -1.2132858926374E-01 -1.2132859029748E-01 -1.2132859133122E-01 -1.2132859236495E-01 -1.2132859339869E-01 -1.2132859443243E-01 -1.2132859546617E-01 
 8.0000000000000E-01  8.0000000000000E-01  8.0000000000000E-01  8.0000000000000E-01  8.0000000000000E-01  8.0000000000000E-01  8.0000000000000E-01  8.0000000000000E-01  8.0000000000000E-01  8.0000000000000E-01 
 1.3888888888889E-06  2.7777777777778E-06  2.7777777777778E-06  2.7777777777778E-06  2.7777777777778E-06  2.7777777777778E-06  2.7777777777778E-06  2.7777777777778E-06  2.7777777777778E-06  1.3888888888889E-06 
 2.0000000000000E-01  2.0000000000000E-01  2.0000000000000E-01  2.0000000000000E-01  2.0000000000000E-01  2.0000000000000E-01  2.0000000000000E-01  2.0000000000000E-01  2.0000000000000E-01  2.0000000000000E-01 
 7.4429184332502E-11  7.4429183332942E-11  7.4429183332578E-11  7.4429183332574E-11  7.4429183332575E-11  7.4429183332574E-11  7.4429183332574E-11  7.4429183332570E-11  7.4429183332206E-11  7.4429184331048E-11 
 7.4429184332502E-03  7.4429183332942E-03  7.4429183332578E-03  7.4429183332574E-03  7.4429183332575E-03  7.4429183332574E-03  7.4429183332574E-03  7.4429183332570E-03  7.4429183332206E-03  7.4429184331048E-03 
 7.4429184332502E-03  7.4429183332942E-03  7.4429183332578E-03  7.4429183332574E-03  7.4429183332575E-03  7.4429183332574E-03  7.4429183332574E-03  7.4429183332570E-03  7.4429183332206E-03  7.4429184331048E-03 
 0.0000000000000E+00  0.0000000000000E+00  0.0000000000000E+00  0.0000000000000E+00  0.0000000000000E+00  0.0000000000000E+00  0.0000000000000E+00  0.0000000000000E+00  0.0000000000000E+00  0.0000000000000E+00 
ZONE T = "SEP , 2.0000E-08", I = 10, SOLUTIONTIME = 2.000000E-08
ZONETYPE = ORDERED
DATAPACKING = BLOCK
STRANDID = 2
 1.0000000000000E-04  1.0277777777778E-04  1.0555555555556E-04  1.0833333333333E-04  1.1111111111111E-04  1.1388888888889E-04  1.1666666666667E-04  1.1944444444444E-04  1.2222222222222E-04  1.2500000000000E-04 
 6.1251195027601E-09  6.1152605256887E-09  6.1150752587896E-09  6.1150768512472E-09  6.1150768261126E-09  6.1150768510479E-09  6.1150752411962E-09  6.1152892454920E-09  6.1250445036151E-09  5.7760147546775E-09 
 8.4394679999461E-01  8.4394679999991E-01  8.4394680000000E-01  8.4394680000000E-01  8.4394680000000E-01  8.4394680000000E-01  8.4394680000000E-01  8.4394680000000E-01  8.4394680000009E-01  8.4394680000538E-01 
 7.8026600002693E-02  7.8026600000045E-02  7.8026600000001E-02  7.8026600000000E-02  7.8026600000000E-02  7.8026600000000E-02  7.8026600000000E-02  7.8026599999999E-02  7.8026599999955E-02  7.8026599997309E-02 
 7.8026600002693E-02  7.8026600000045E-02  7.8026600000001E-02  7.8026600000000E-02  7.8026600000000E-02  7.8026600000000E-02  7.8026600000000E-02  7.8026599999999E-02  7.8026599999955E-02  7.8026599997309E-02 
-1.2132858616048E-01 -1.2132858719422E-01 -1.2132858822796E-01 -1.2132858926170E-01 -1.2132859029544E-01 -1.2132859132918E-01 -1.2132859236292E-01 -1.2132859339665E-01 -1.2132859443039E-01 -1.2132859546413E-01 
 8.0000000000000E-01  8.0000000000000E-01  8.0000000000000E-01  8.0000000000000E-01  8.0000000000000E-01  8.0000000000000E-01  8.0000000000000E-01  8.0000000000000E-01  8.0000000000000E-01  8.0000000000000E-01 
 1.3888888888889E-06  2.7777777777778E-06  2.7777777777778E-06  2.7777777777778E-06  2.7777777777778E-06  2.7777777777778E-06  2.7777777777778E-06  2.7777777777778E-06  2.7777777777778E-06  1.3888888888889E-06 
 2.0000000000000E-01  2.0000000000000E-01  2.0000000000000E-01  2.0000000000000E-01  2.0000000000000E-01  2.0000000000000E-01  2.0000000000000E-01  2.0000000000000E-01  2.0000000000000E-01  2.0000000000000E-01 
 1.4885836866573E-10  1.4885836666626E-10  1.4885836666516E-10  1.4885836666515E-10  1.4885836666515E-10  1.4885836666515E-10  1.4885836666515E-10  1.4885836666513E-10  1.4885836666404E-10  1.4885836866137E-10 
 7.4429184333231E-03  7.4429183333315E-03  7.4429183332586E-03  7.4429183332574E-03  7.4429183332575E-03  7.4429183332574E-03  7.4429183332574E-03  7.4429183332562E-03  7.4429183331834E-03  7.4429184330319E-03 
 7.4429184333231E-03  7.4429183333315E-03  7.4429183332586E-03  7.4429183332574E-03  7.4429183332575E-03  7.4429183332574E-03  7.4429183332574E-03  7.4429183332562E-03  7.4429183331834E-03  7.4429184330319E-03 
 0.0000000000000E+00  0.0000000000000E+00  0.0000000000000E+00  0.0000000000000E+00  0.0000000000000E+00  0.0000000000000E+00  0.0000000000000E+00  0.0000000000000E+00  0.0000000000000E+00  0.0000000000000E+00 
ZONE T = "SEP , 3.0000E-08", I = 10, SOLUTIONTIME = 3.000000E-08
ZONETYPE = ORDERED
DATAPACKING = BLOCK
STRANDID = 2
 1.0000000000000E-04  1.0277777777778E-04  1.0555555555556E-04  1.0833333333333E-04  1.1111111111111E-04  1.1388888888889E-04  1.1666666666667E-04  1.1944444444444E-04  1.2222222222222E-04  1.2500000000000E-04 
 6.1292644056361E-09  6.1146702121246E-09  6.1143535687554E-09  6.1143513866931E-09  6.1143513192611E-09  6.1143513852136E-09  6.1143534381604E-09  6.1147749416360E-09  6.1293695631193E-09  5.7757687828988E-09 
 8.4394679999196E-01  8.4394679999982E-01  8.4394680000000E-01  8.4394680000000E-01  8.4394680000000E-01  8.4394680000000E-01  8.4394680000000E-01  8.4394680000000E-01  8.4394680000018E-01  8.4394680000804E-01 
 7.8026600004022E-02  7.8026600000090E-02  7.8026600000002E-02  7.8026600000000E-02  7.8026600000000E-02  7.8026600000000E-02  7.8026600000000E-02  7.8026599999998E-02  7.8026599999910E-02  7.8026599995980E-02 
 7.8026600004022E-02  7.8026600000090E-02  7.8026600000002E-02  7.8026600000000E-02  7.8026600000000E-02  7.8026600000000E-02  7.8026600000000E-02  7.8026599999998E-02  7.8026599999910E-02  7.8026599995980E-02 
-1.2132858616115E-01 -1.2132858719489E-01 -1.2132858822863E-01 -1.2132858926237E-01 -1.2132859029610E-01 -1.2132859132984E-01 -1.2132859236358E-01 -1.2132859339732E-01 -1.2132859443106E-01 -1.2132859546480E-01 
 8.0000000000000E-01  8.0000000000000E-01  8.0000000000000E-01  8.0000000000000E-01  8.0000000000000E-01  8.0000000000000E-01  8.0000000000000E-01  8.0000000000000E-01  8.0000000000000E-01  8.0000000000000E-01 
 1.3888888888889E-06  2.7777777777778E-06  2.7777777777778E-06  2.7777777777778E-06  2.7777777777778E-06  2.7777777777778E-06  2.7777777777778E-06  2.7777777777778E-06  2.7777777777778E-06  1.3888888888889E-06 
 2.0000000000000E-01  2.0000000000000E-01  2.0000000000000E-01  2.0000000000000E-01  2.0000000000000E-01  2.0000000000000E-01  2.0000000000000E-01  2.0000000000000E-01  2.0000000000000E-01  2.0000000000000E-01 
 2.2328755299969E-10  2.2328754999995E-10  2.2328754999776E-10  2.2328754999772E-10  2.2328754999772E-10  2.2328754999772E-10  2.2328754999772E-10  2.2328754999768E-10  2.2328754999550E-10  2.2328755299096E-10 
 7.4429184333961E-03  7.4429183333692E-03  7.4429183332599E-03  7.4429183332574E-03  7.4429183332575E-03  7.4429183332574E-03  7.4429183332574E-03  7.4429183332549E-03  7.4429183331457E-03  7.4429184329589E-03 
 7.4429184333961E-03  7.4429183333692E-03  7.4429183332599E-03  7.4429183332574E-03  7.4429183332575E-03  7.4429183332574E-03  7.4429183332574E-03  7.4429183332549E-03  7.4429183331457E-03  7.4429184329589E-03 
 0.0000000000000E+00  0.0000000000000E+00  0.0000000000000E+00  0.0000000000000E+00  0.0000000000000E+00  0.0000000000000E+00  0.0000000000000E+00  0.0000000000000E+00  0.0000000000000E+00  0.0000000000000E+00 
ZONE T = "SEP , 4.0000E-08", I = 10, SOLUTIONTIME = 4.000000E-08
ZONETYPE = ORDERED
DATAPACKING = BLOCK
STRANDID = 2
 1.0000000000000E-04  1.0277777777778E-04  1.0555555555556E-04  1.0833333333333E-04  1.1111111111111E-04  1.1388888888889E-04  1.1666666666667E-04  1.1944444444444E-04  1.2222222222222E-04  1.2500000000000E-04 
 6.1350430273758E-09  6.1159056134639E-09  6.1153505287459E-09  6.1153521674790E-09  6.1153519385399E-09  6.1153521088999E-09  6.1154285037225E-09  6.1159328370444E-09  6.1351552225361E-09  5.7769123478337E-09 
 8.4394679998932E-01  8.4394679999970E-01  8.4394679999999E-01  8.4394680000000E-01  8.4394680000000E-01  8.4394680000000E-01  8.4394680000000E-01  8.4394680000001E-01  8.4394680000030E-01  8.4394680001067E-01 
 7.8026600005339E-02  7.8026600000149E-02  7.8026600000003E-02  7.8026600000000E-02  7.8026600000000E-02  7.8026600000000E-02  7.8026600000000E-02  7.8026599999997E-02  7.8026599999852E-02  7.8026599994663E-02 
 7.8026600005339E-02  7.8026600000149E-02  7.8026600000003E-02  7.8026600000000E-02  7.8026600000000E-02  7.8026600000000E-02  7.8026600000000E-02  7.8026599999997E-02  7.8026599999852E-02  7.8026599994663E-02 
-1.2132858616181E-01 -1.2132858719555E-01 -1.2132858822929E-01 -1.2132858926303E-01 -1.2132859029677E-01 -1.2132859133051E-01 -1.2132859236425E-01 -1.2132859339799E-01 -1.2132859443172E-01 -1.2132859546546E-01 
 8.0000000000000E-01  8.0000000000000E-01  8.0000000000000E-01  8.0000000000000E-01  8.0000000000000E-01  8.0000000000000E-01  8.0000000000000E-01  8.0000000000000E-01  8.0000000000000E-01  8.0000000000000E-01 
 1.3888888888889E-06  2.7777777777778E-06  2.7777777777778E-06  2.7777777777778E-06  2.7777777777778E-06  2.7777777777778E-06  2.7777777777778E-06  2.7777777777778E-06  2.7777777777778E-06  1.3888888888889E-06 
 2.0000000000000E-01  2.0000000000000E-01  2.0000000000000E-01  2.0000000000000E-01  2.0000000000000E-01  2.0000000000000E-01  2.0000000000000E-01  2.0000000000000E-01  2.0000000000000E-01  2.0000000000000E-01 
 2.9771673533599E-10  2.9771673333402E-10  2.9771673333038E-10  2.9771673333030E-10  2.9771673333030E-10  2.9771673333030E-10  2.9771673333029E-10  2.9771673333021E-10  2.9771673332657E-10  2.9771673532141E-10 
 7.4429182336292E-03  7.4429183334074E-03  7.4429183332615E-03  7.4429183332575E-03  7.4429183332575E-03  7.4429183332574E-03  7.4429183332573E-03  7.4429183332533E-03  7.4429183331075E-03  7.4429182330456E-03 
 7.4429182336292E-03  7.4429183334074E-03  7.4429183332615E-03  7.4429183332575E-03  7.4429183332575E-03  7.4429183332574E-03  7.4429183332573E-03  7.4429183332533E-03  7.4429183331075E-03  7.4429182330456E-03 
 0.0000000000000E+00  0.0000000000000E+00  0.0000000000000E+00  0.0000000000000E+00  0.0000000000000E+00  0.0000000000000E+00  0.0000000000000E+00  0.0000000000000E+00  0.0000000000000E+00  0.0000000000000E+00 
ZONE T = "SEP , 5.5000E-08", I = 10, SOLUTIONTIME = 5.500000E-08
ZONETYPE = ORDERED
DATAPACKING = BLOCK
STRANDID = 2
 1.0000000000000E-04  1.0277777777778E-04  1.0555555555556E-04  1.0833333333333E-04  1.1111111111111E-04  1.1388888888889E-04  1.1666666666667E-04  1.1944444444444E-04  1.2222222222222E-04  1.2500000000000E-04 
 6.1414650884691E-09  6.1157498798369E-09  6.1147813889921E-09  6.1147821742136E-09  6.1147815431638E-09  6.1147821224620E-09  6.1147808664641E-09  6.1156957148183E-09  6.1413749785485E-09  5.7765074148185E-09 
 8.4394679998542E-01  8.4394679999947E-01  8.4394679999998E-01  8.4394680000000E-01  8.4394680000000E-01  8.4394680000000E-01  8.4394680000000E-01  8.4394680000002E-01  8.4394680000053E-01  8.4394680001458E-01 
 7.8026600007292E-02  7.8026600000266E-02  7.8026600000008E-02  7.8026600000000E-02  7.8026600000000E-02  7.8026600000000E-02  7.8026600000000E-02  7.8026599999992E-02  7.8026599999734E-02  7.8026599992711E-02 
 7.8026600007292E-02  7.8026600000266E-02  7.8026600000008E-02  7.8026600000000E-02  7.8026600000000E-02  7.8026600000000E-02  7.8026600000000E-02  7.8026599999992E-02  7.8026599999734E-02  7.8026599992711E-02 
-1.2132858616249E-01 -1.2132858719623E-01 -1.2132858822996E-01 -1.2132858926370E-01 -1.2132859029744E-01 -1.2132859133118E-01 -1.2132859236492E-01 -1.2132859339866E-01 -1.2132859443240E-01 -1.2132859546614E-01 
 8.0000000000000E-01  8.0000000000000E-01  8.0000000000000E-01  8.0000000000000E-01  8.0000000000000E-01  8.0000000000000E-01  8.0000000000000E-01  8.0000000000000E-01  8.0000000000000E-01  8.0000000000000E-01 
 1.3888888888889E-06  2.7777777777778E-06  2.7777777777778E-06  2.7777777777778E-06  2.7777777777778E-06  2.7777777777778E-06  2.7777777777778E-06  2.7777777777778E-06  2.7777777777778E-06  1.3888888888889E-06 
 2.0000000000000E-01  2.0000000000000E-01  2.0000000000000E-01  2.0000000000000E-01  2.0000000000000E-01  2.0000000000000E-01  2.0000000000000E-01  2.0000000000000E-01  2.0000000000000E-01  2.0000000000000E-01 
 4.0936051183968E-10  4.0936050833601E-10  4.0936050832935E-10  4.0936050832916E-10  4.0936050832916E-10  4.0936050832916E-10  4.0936050832915E-10  4.0936050832896E-10  4.0936050832231E-10  4.0936051181305E-10 
 7.4429184335794E-03  7.4429183334657E-03  7.4429183332649E-03  7.4429183332576E-03  7.4429183332575E-03  7.4429183332574E-03  7.4429183332572E-03  7.4429183332499E-03  7.4429183330492E-03  7.4429184327757E-03 
 7.4429184335794E-03  7.4429183334657E-03  7.4429183332649E-03  7.4429183332576E-03  7.4429183332575E-03  7.4429183332574E-03  7.4429183332572E-03  7.4429183332499E-03  7.4429183330492E-03  7.4429184327757E-03 
 0.0000000000000E+00  0.0000000000000E+00  0.0000000000000E+00  0.0000000000000E+00  0.0000000000000E+00  0.0000000000000E+00  0.0000000000000E+00  0.0000000000000E+00  0.0000000000000E+00  0.0000000000000E+00 
ZONE T = "SEP , 7.7500E-08", I = 10, SOLUTIONTIME = 7.750000E-08
ZONETYPE = ORDERED
DATAPACKING = BLOCK
STRANDID = 2
 1.0000000000000E-04  1.0277777777778E-04  1.0555555555556E-04  1.0833333333333E-04  1.1111111111111E-04  1.1388888888889E-04  1.1666666666667E-04  1.1944444444444E-04  1.2222222222222E-04  1.2500000000000E-04 
 6.1516502043802E-09  6.1168014654764E-09  6.1150393718216E-09  6.1149572665050E-09  6.1149567628919E-09  6.1149572478834E-09  6.1150520750596E-09  6.1168388947615E-09  6.1516656920562E-09  5.7773153862261E-09 
 8.4394679997966E-01  8.4394679999899E-01  8.4394679999996E-01  8.4394680000000E-01  8.4394680000000E-01  8.4394680000000E-01  8.4394680000000E-01  8.4394680000004E-01  8.4394680000101E-01  8.4394680002033E-01 
 7.8026600010168E-02  7.8026600000506E-02  7.8026600000020E-02  7.8026600000001E-02  7.8026600000000E-02  7.8026600000000E-02  7.8026599999999E-02  7.8026599999980E-02  7.8026599999495E-02  7.8026599989836E-02 
 7.8026600010168E-02  7.8026600000506E-02  7.8026600000020E-02  7.8026600000001E-02  7.8026600000000E-02  7.8026600000000E-02  7.8026599999999E-02  7.8026599999980E-02  7.8026599999495E-02  7.8026599989836E-02 
-1.2132858616351E-01 -1.2132858719725E-01 -1.2132858823099E-01 -1.2132858926473E-01 -1.2132859029847E-01 -1.2132859133220E-01 -1.2132859236594E-01 -1.2132859339968E-01 -1.2132859443342E-01 -1.2132859546716E-01 
 8.0000000000000E-01  8.0000000000000E-01  8.0000000000000E-01  8.0000000000000E-01  8.0000000000000E-01  8.0000000000000E-01  8.0000000000000E-01  8.0000000000000E-01  8.0000000000000E-01  8.0000000000000E-01 
 1.3888888888889E-06  2.7777777777778E-06  2.7777777777778E-06  2.7777777777778E-06  2.7777777777778E-06  2.7777777777778E-06  2.7777777777778E-06  2.7777777777778E-06  2.7777777777778E-06  1.3888888888889E-06 
 2.0000000000000E-01  2.0000000000000E-01  2.0000000000000E-01  2.0000000000000E-01  2.0000000000000E-01  2.0000000000000E-01  2.0000000000000E-01  2.0000000000000E-01  2.0000000000000E-01  2.0000000000000E-01 
 5.7682617210254E-10  5.7682617084100E-10  5.7682617082797E-10  5.7682617082746E-10  5.7682617082745E-10  5.7682617082745E-10  5.7682617082743E-10  5.7682617082693E-10  5.7682617081390E-10  5.7682617205037E-10 
 7.4429182339049E-03  7.4429183335552E-03  7.4429183332719E-03  7.4429183332579E-03  7.4429183332575E-03  7.4429183332574E-03  7.4429183332568E-03  7.4429183332429E-03  7.4429183329597E-03  7.4429182327700E-03 
 7.4429182339049E-03  7.4429183335552E-03  7.4429183332719E-03  7.4429183332579E-03  7.4429183332575E-03  7.4429183332574E-03  7.4429183332568E-03  7.4429183332429E-03  7.4429183329597E-03  7.4429182327700E-03 
 0.0000000000000E+00  0.0000000000000E+00  0.0000000000000E+00  0.0000000000000E+00  0.0000000000000E+00  0.0000000000000E+00  0.0000000000000E+00  0.0000000000000E+00  0.0000000000000E+00  0.0000000000000E+00 
ZONE T = "SEP , 1.1125E-07", I = 10, SOLUTIONTIME = 1.112500E-07
ZONETYPE = ORDERED
DATAPACKING = BLOCK
STRANDID = 2
 1.0000000000000E-04  1.0277777777778E-04  1.0555555555556E-04  1.0833333333333E-04  1.1111111111111E-04  1.1388888888889E-04  1.1666666666667E-04  1.1944444444444E-04  1.2222222222222E-04  1.2500000000000E-04 
 6.1657676561385E-09  6.1185346759002E-09  6.1151583841008E-09  6.1149703684950E-09  6.1149704321316E-09  6.1149776256584E-09  6.1151653432560E-09  6.1185088780204E-09  6.1657262855178E-09  5.7779661319423E-09 
 8.4394679997126E-01  8.4394679999802E-01  8.4394679999989E-01  8.4394679999999E-01  8.4394680000000E-01  8.4394680000000E-01  8.4394680000001E-01  8.4394680000011E-01  8.4394680000198E-01  8.4394680002873E-01 
 7.8026600014372E-02  7.8026600000992E-02  7.8026600000055E-02  7.8026600000003E-02  7.8026600000000E-02  7.8026600000000E-02  7.8026599999997E-02  7.8026599999946E-02  7.8026599999008E-02  7.8026599985633E-02 
 7.8026600014372E-02  7.8026600000992E-02  7.8026600000055E-02  7.8026600000003E-02  7.8026600000000E-02  7.8026600000000E-02  7.8026599999997E-02  7.8026599999946E-02  7.8026599999008E-02  7.8026599985633E-02 
-1.2132858616505E-01 -1.2132858719878E-01 -1.2132858823252E-01 -1.2132858926626E-01 -1.2132859030000E-01 -1.2132859133374E-01 -1.2132859236748E-01 -1.2132859340122E-01 -1.2132859443495E-01 -1.2132859546869E-01 
 8.0000000000000E-01  8.0000000000000E-01  8.0000000000000E-01  8.0000000000000E-01  8.0000000000000E-01  8.0000000000000E-01  8.0000000000000E-01  8.0000000000000E-01  8.0000000000000E-01  8.0000000000000E-01 
 1.3888888888889E-06  2.7777777777778E-06  2.7777777777778E-06  2.7777777777778E-06  2.7777777777778E-06  2.7777777777778E-06  2.7777777777778E-06  2.7777777777778E-06  2.7777777777778E-06  1.3888888888889E-06 
 2.0000000000000E-01  2.0000000000000E-01  2.0000000000000E-01  2.0000000000000E-01  2.0000000000000E-01  2.0000000000000E-01  2.0000000000000E-01  2.0000000000000E-01  2.0000000000000E-01  2.0000000000000E-01 
 8.2802466924985E-10  8.2802466460317E-10  8.2802466457639E-10  8.2802466457495E-10  8.2802466457490E-10  8.2802466457488E-10  8.2802466120251E-10  8.2802466457338E-10  8.2802466454662E-10  8.2802466239794E-10 
 7.4429184339945E-03  7.4429183336938E-03  7.4429183332867E-03  7.4429183332590E-03  7.4429183332575E-03  7.4429183332573E-03  7.4429182333357E-03  7.4429183332281E-03  7.4429183328212E-03  7.4429182325206E-03 
 7.4429184339945E-03  7.4429183336938E-03  7.4429183332867E-03  7.4429183332590E-03  7.4429183332575E-03  7.4429183332573E-03  7.4429182333357E-03  7.4429183332281E-03  7.4429183328212E-03  7.4429182325206E-03 
 0.0000000000000E+00  0.0000000000000E+00  0.0000000000000E+00  0.0000000000000E+00  0.0000000000000E+00  0.0000000000000E+00  0.0000000000000E+00  0.0000000000000E+00  0.0000000000000E+00  0.0000000000000E+00 
ZONE T = "SEP , 1.6188E-07", I = 10, SOLUTIONTIME = 1.618750E-07
ZONETYPE = ORDERED
DATAPACKING = BLOCK
STRANDID = 2
 1.0000000000000E-04  1.0277777777778E-04  1.0555555555556E-04  1.0833333333333E-04  1.1111111111111E-04  1.1388888888889E-04  1.1666666666667E-04  1.1944444444444E-04  1.2222222222222E-04  1.2500000000000E-04 
 6.1850184627074E-09  6.1217379390458E-09  6.1153876665969E-09  6.1148867166572E-09  6.1148557843691E-09  6.1149030371045E-09  6.1154143172259E-09  6.1217688950284E-09  6.1850285309918E-09  5.7790761788470E-09 
 8.4394679995909E-01  8.4394679999606E-01  8.4394679999969E-01  8.4394679999998E-01  8.4394680000000E-01  8.4394680000000E-01  8.4394680000002E-01  8.4394680000031E-01  8.4394680000394E-01  8.4394680004089E-01 
 7.8026600020454E-02  7.8026600001970E-02  7.8026600000153E-02  7.8026600000010E-02  7.8026600000001E-02  7.8026599999999E-02  7.8026599999990E-02  7.8026599999847E-02  7.8026599998030E-02  7.8026599979554E-02 
 7.8026600020454E-02  7.8026600001970E-02  7.8026600000153E-02  7.8026600000010E-02  7.8026600000001E-02  7.8026599999999E-02  7.8026599999990E-02  7.8026599999847E-02  7.8026599998030E-02  7.8026599979554E-02 
-1.2132858616734E-01 -1.2132858720108E-01 -1.2132858823482E-01 -1.2132858926856E-01 -1.2132859030230E-01 -1.2132859133604E-01 -1.2132859236978E-01 -1.2132859340352E-01 -1.2132859443725E-01 -1.2132859547099E-01 
 8.0000000000000E-01  8.0000000000000E-01  8.0000000000000E-01  8.0000000000000E-01  8.0000000000000E-01  8.0000000000000E-01  8.0000000000000E-01  8.0000000000000E-01  8.0000000000000E-01  8.0000000000000E-01 
 1.3888888888889E-06  2.7777777777778E-06  2.7777777777778E-06  2.7777777777778E-06  2.7777777777778E-06  2.7777777777778E-06  2.7777777777778E-06  2.7777777777778E-06  2.7777777777778E-06  1.3888888888889E-06 
 2.0000000000000E-01  2.0000000000000E-01  2.0000000000000E-01  2.0000000000000E-01  2.0000000000000E-01  2.0000000000000E-01  2.0000000000000E-01  2.0000000000000E-01  2.0000000000000E-01  2.0000000000000E-01 
 1.2048224149898E-09  1.2048224052574E-09  1.2048224052006E-09  1.2048224051963E-09  1.2048224051961E-09  1.2048224051960E-09  1.2048224018234E-09  1.2048224051915E-09  1.2048224051347E-09  1.2048224080172E-09 
 7.4429184343700E-03  7.4429183339102E-03  7.4429183333182E-03  7.4429183332620E-03  7.4429183332577E-03  7.4429183332571E-03  7.4429183332528E-03  7.4429183331967E-03  7.4429183326049E-03  7.4429184319855E-03 
 7.4429184343700E-03  7.4429183339102E-03  7.4429183333182E-03  7.4429183332620E-03  7.4429183332577E-03  7.4429183332571E-03  7.4429183332528E-03  7.4429183331967E-03  7.4429183326049E-03  7.4429184319855E-03 
 0.0000000000000E+00  0.0000000000000E+00  0.0000000000000E+00  0.0000000000000E+00  0.0000000000000E+00  0.0000000000000E+00  0.0000000000000E+00  0.0000000000000E+00  0.0000000000000E+00  0.0000000000000E+00 
ZONE T = "SEP , 2.3781E-07", I = 10, SOLUTIONTIME = 2.378125E-07
ZONETYPE = ORDERED
DATAPACKING = BLOCK
STRANDID = 2
 1.0000000000000E-04  1.0277777777778E-04  1.0555555555556E-04  1.0833333333333E-04  1.1111111111111E-04  1.1388888888889E-04  1.1666666666667E-04  1.1944444444444E-04  1.2222222222222E-04  1.2500000000000E-04 
 6.2107857289355E-09  6.1280931954848E-09  6.1164027213477E-09  6.1150936552366E-09  6.1149792334763E-09  6.1150973560111E-09  6.1164096336698E-09  6.1281000301067E-09  6.2107613042980E-09  5.7810060118555E-09 
 8.4394679994173E-01  8.4394679999222E-01  8.4394679999915E-01  8.4394679999992E-01  8.4394679999999E-01  8.4394680000001E-01  8.4394680000008E-01  8.4394680000085E-01  8.4394680000777E-01  8.4394680005825E-01 
 7.8026600029134E-02  7.8026600003888E-02  7.8026600000424E-02  7.8026600000041E-02  7.8026600000003E-02  7.8026599999997E-02  7.8026599999959E-02  7.8026599999576E-02  7.8026599996114E-02  7.8026599970877E-02 
 7.8026600029134E-02  7.8026600003888E-02  7.8026600000424E-02  7.8026600000041E-02  7.8026600000003E-02  7.8026599999997E-02  7.8026599999959E-02  7.8026599999576E-02  7.8026599996114E-02  7.8026599970877E-02 
-1.2132858617079E-01 -1.2132858720453E-01 -1.2132858823827E-01 -1.2132858927201E-01 -1.2132859030574E-01 -1.2132859133948E-01 -1.2132859237322E-01 -1.2132859340696E-01 -1.2132859444070E-01 -1.2132859547444E-01 
 8.0000000000000E-01  8.0000000000000E-01  8.0000000000000E-01  8.0000000000000E-01  8.0000000000000E-01  8.0000000000000E-01  8.0000000000000E-01  8.0000000000000E-01  8.0000000000000E-01  8.0000000000000E-01 
 1.3888888888889E-06  2.7777777777778E-06  2.7777777777778E-06  2.7777777777778E-06  2.7777777777778E-06  2.7777777777778E-06  2.7777777777778E-06  2.7777777777778E-06  2.7777777777778E-06  1.3888888888889E-06 
 2.0000000000000E-01  2.0000000000000E-01  2.0000000000000E-01  2.0000000000000E-01  2.0000000000000E-01  2.0000000000000E-01  2.0000000000000E-01  2.0000000000000E-01  2.0000000000000E-01  2.0000000000000E-01 
 1.7700190184672E-09  1.7700190162645E-09  1.7700190161420E-09  1.7700190161291E-09  1.7700190161279E-09  1.7700190161277E-09  1.7700190127541E-09  1.7700190161136E-09  1.7700190159911E-09  1.7700190112280E-09 
 7.4429182350934E-03  7.4429183342501E-03  7.4429183333844E-03  7.4429183332709E-03  7.4429183332586E-03  7.4429183332562E-03  7.4429183332439E-03  7.4429183331305E-03  7.4429183322651E-03  7.4429182315820E-03 
 7.4429182350934E-03  7.4429183342501E-03  7.4429183333844E-03  7.4429183332709E-03  7.4429183332586E-03  7.4429183332562E-03  7.4429183332439E-03  7.4429183331305E-03  7.4429183322651E-03  7.4429182315820E-03 
 0.0000000000000E+00  0.0000000000000E+00  0.0000000000000E+00  0.0000000000000E+00  0.0000000000000E+00  0.0000000000000E+00  0.0000000000000E+00  0.0000000000000E+00  0.0000000000000E+00  0.0000000000000E+00 
ZONE T = "SEP , 3.5172E-07", I = 10, SOLUTIONTIME = 3.517188E-07
ZONETYPE = ORDERED
DATAPACKING = BLOCK
STRANDID = 2
 1.0000000000000E-04  1.0277777777778E-04  1.0555555555556E-04  1.0833333333333E-04  1.1111111111111E-04  1.1388888888889E-04  1.1666666666667E-04  1.1944444444444E-04  1.2222222222222E-04  1.2500000000000E-04 
 6.2433444757374E-09  6.1391476002328E-09  6.1186773377798E-09  6.1154605644953E-09  6.1150751371483E-09  6.1154559554959E-09  6.1186680021886E-09  6.1391364863499E-09  6.2432919379204E-09  5.7839535275005E-09 
 8.4394679991734E-01  8.4394679998498E-01  8.4394679999773E-01  8.4394679999969E-01  8.4394679999997E-01  8.4394680000003E-01  8.4394680000031E-01  8.4394680000227E-01  8.4394680001502E-01  8.4394680008263E-01 
 7.8026600041331E-02  7.8026600007511E-02  7.8026600001136E-02  7.8026600000153E-02  7.8026600000017E-02  7.8026599999983E-02  7.8026599999847E-02  7.8026599998864E-02  7.8026599992492E-02  7.8026599958685E-02 