TITLE = "Solution on Domain BulkDomain1D_1"
VARIABLES = "x [m]"  
"Vel_axial" 	"MF_sp(ECDMC)" 	"MF_sp(Li+)" 	"MF_sp(PF6-)" 	"Volt(Electroly)" 	"qHeat_accum [J/m3]" 	"qHeat_step [W/m3]" 	"Joule_Lyte [W/m3]" 	"Joule_Solid [W/m3]" 	
ZONE T = "SEP , 0.0000E+00", I = 10, SOLUTIONTIME = 0.000000E+00
ZONETYPE = ORDERED
DATAPACKING = BLOCK
STRANDID = 2
 1.0000000000000E-04  1.0277777777778E-04  1.0555555555556E-04  1.0833333333333E-04  1.1111111111111E-04  1.1388888888889E-04  1.1666666666667E-04  1.1944444444444E-04  1.2222222222222E-04  1.2500000000000E-04 
 0.0000000000000E+00  0.0000000000000E+00  0.0000000000000E+00  0.0000000000000E+00  0.0000000000000E+00  0.0000000000000E+00  0.0000000000000E+00  0.0000000000000E+00  0.0000000000000E+00  0.0000000000000E+00 
 8.4394680000000E-01  8.4394680000000E-01  8.4394680000000E-01  8.4394680000000E-01  8.4394680000000E-01  8.4394680000000E-01  8.4394680000000E-01  8.4394680000000E-01  8.4394680000000E-01  8.4394680000000E-01 
 7.8026600000000E-02  7.8026600000000E-02  7.8026600000000E-02  7.8026600000000E-02  7.8026600000000E-02  7.8026600000000E-02  7.8026600000000E-02  7.8026600000000E-02  7.8026600000000E-02  7.8026600000000E-02 
 7.8026600000000E-02  7.8026600000000E-02  7.8026600000000E-02  7.8026600000000E-02  7.8026600000000E-02  7.8026600000000E-02  7.8026600000000E-02  7.8026600000000E-02  7.8026600000000E-02  7.8026600000000E-02 
-7.0000000000000E-02 -7.0000000000000E-02 -7.0000000000000E-02 -7.0000000000000E-02 -7.0000000000000E-02 -7.0000000000000E-02 -7.0000000000000E-02 -7.0000000000000E-02 -7.0000000000000E-02 -7.0000000000000E-02 
 0.0000000000000E+00  0.0000000000000E+00  0.0000000000000E+00  0.0000000000000E+00  0.0000000000000E+00  0.0000000000000E+00  0.0000000000000E+00  0.0000000000000E+00  0.0000000000000E+00  0.0000000000000E+00 
 0.0000000000000E+00  0.0000000000000E+00  0.0000000000000E+00  0.0000000000000E+00  0.0000000000000E+00  0.0000000000000E+00  0.0000000000000E+00  0.0000000000000E+00  0.0000000000000E+00  0.0000000000000E+00 
 0.0000000000000E+00  0.0000000000000E+00  0.0000000000000E+00  0.0000000000000E+00  0.0000000000000E+00  0.0000000000000E+00  0.0000000000000E+00  0.0000000000000E+00  0.0000000000000E+00  0.0000000000000E+00 
 0.0000000000000E+00  0.0000000000000E+00  0.0000000000000E+00  0.0000000000000E+00  0.0000000000000E+00  0.0000000000000E+00  0.0000000000000E+00  0.0000000000000E+00  0.0000000000000E+00  0.0000000000000E+00 
ZONE T = "SEP , 1.0000E-08", I = 10, SOLUTIONTIME = 1.000000E-08
ZONETYPE = ORDERED
DATAPACKING = BLOCK
STRANDID = 2
 1.0000000000000E-04  1.0277777777778E-04  1.0555555555556E-04  1.0833333333333E-04  1.1111111111111E-04  1.1388888888889E-04  1.1666666666667E-04  1.1944444444444E-04  1.2222222222222E-04  1.2500000000000E-04 
 6.1217941591958E-09  6.1154480196885E-09  6.1154487691147E-09  6.1154477942831E-09  6.1154477677027E-09  6.1154477899477E-09  6.1154487744633E-09  6.1155020144416E-09  6.1220071242324E-09  5.7764977619717E-09 
 8.4394679999755E-01  8.4394679999997E-01  8.4394680000000E-01  8.4394680000000E-01  8.4394680000000E-01  8.4394680000000E-01  8.4394680000000E-01  8.4394680000000E-01  8.4394680000003E-01  8.4394680000245E-01 
 7.8026600001226E-02  7.8026600000016E-02  7.8026600000000E-02  7.8026600000000E-02  7.8026600000000E-02  7.8026600000000E-02  7.8026600000000E-02  7.8026600000000E-02  7.8026599999985E-02  7.8026599998774E-02 
 7.8026600001226E-02  7.8026600000016E-02  7.8026600000000E-02  7.8026600000000E-02  7.8026600000000E-02  7.8026600000000E-02  7.8026600000000E-02  7.8026600000000E-02  7.8026599999985E-02  7.8026599998774E-02 
-1.2133000123400E-01 -1.2133000197368E-01 -1.2133000271337E-01 -1.2133000345305E-01 -1.2133000419273E-01 -1.2133000493241E-01 -1.2133000567210E-01 -1.2133000641178E-01 -1.2133000715146E-01 -1.2133000789115E-01 
 5.3257187041949E-11  5.3257188040917E-11  5.3257188040680E-11  5.3257188040677E-11  5.3257189039879E-11  5.3257188040677E-11  5.3257188040677E-11  5.3257188040675E-11  5.3257188040438E-11  5.3257189039406E-11 
 5.3257187041949E-03  5.3257188040917E-03  5.3257188040680E-03  5.3257188040677E-03  5.3257189039879E-03  5.3257188040677E-03  5.3257188040677E-03  5.3257188040675E-03  5.3257188040438E-03  5.3257189039406E-03 
 5.3257187041949E-03  5.3257188040917E-03  5.3257188040680E-03  5.3257188040677E-03  5.3257189039879E-03  5.3257188040677E-03  5.3257188040677E-03  5.3257188040675E-03  5.3257188040438E-03  5.3257189039406E-03 
 0.0000000000000E+00  0.0000000000000E+00  0.0000000000000E+00  0.0000000000000E+00  0.0000000000000E+00  0.0000000000000E+00  0.0000000000000E+00  0.0000000000000E+00  0.0000000000000E+00  0.0000000000000E+00 
ZONE T = "SEP , 2.0000E-08", I = 10, SOLUTIONTIME = 2.000000E-08
ZONETYPE = ORDERED
DATAPACKING = BLOCK
STRANDID = 2
 1.0000000000000E-04  1.0277777777778E-04  1.0555555555556E-04  1.0833333333333E-04  1.1111111111111E-04  1.1388888888889E-04  1.1666666666667E-04  1.1944444444444E-04  1.2222222222222E-04  1.2500000000000E-04 
 6.1276036145080E-09  6.1152343225608E-09  6.1149138418940E-09  6.1149138457577E-09  6.1149137859885E-09  6.1149138457373E-09  6.1149138402777E-09  6.1152341946290E-09  6.1276559520535E-09  5.7760528415764E-09 
 8.4394679999512E-01  8.4394679999991E-01  8.4394680000000E-01  8.4394680000000E-01  8.4394680000000E-01  8.4394680000000E-01  8.4394680000000E-01  8.4394680000000E-01  8.4394680000009E-01  8.4394680000488E-01 
 7.8026600002439E-02  7.8026600000046E-02  7.8026600000001E-02  7.8026600000000E-02  7.8026600000000E-02  7.8026600000000E-02  7.8026600000000E-02  7.8026599999999E-02  7.8026599999954E-02  7.8026599997562E-02 
 7.8026600002439E-02  7.8026600000046E-02  7.8026600000001E-02  7.8026600000000E-02  7.8026600000000E-02  7.8026600000000E-02  7.8026600000000E-02  7.8026599999999E-02  7.8026599999954E-02  7.8026599997562E-02 
-1.2132858616048E-01 -1.2132858690017E-01 -1.2132858763985E-01 -1.2132858837953E-01 -1.2132858911921E-01 -1.2132858985890E-01 -1.2132859059858E-01 -1.2132859133826E-01 -1.2132859207795E-01 -1.2132859281763E-01 
 1.0651437608277E-10  1.0651437608208E-10  1.0651437608137E-10  1.0651437708056E-10  1.0651437708056E-10  1.0651437608135E-10  1.0651437708056E-10  1.0651437608134E-10  1.0651437608063E-10  1.0651437807834E-10 
 5.3257189040824E-03  5.3257188041159E-03  5.3257188040686E-03  5.3257189039878E-03  5.3257188040678E-03  5.3257188040677E-03  5.3257189039878E-03  5.3257188040669E-03  5.3257188040196E-03  5.3257189038933E-03 
 5.3257189040824E-03  5.3257188041159E-03  5.3257188040686E-03  5.3257189039878E-03  5.3257188040678E-03  5.3257188040677E-03  5.3257189039878E-03  5.3257188040669E-03  5.3257188040196E-03  5.3257189038933E-03 
 0.0000000000000E+00  0.0000000000000E+00  0.0000000000000E+00  0.0000000000000E+00  0.0000000000000E+00  0.0000000000000E+00  0.0000000000000E+00  0.0000000000000E+00  0.0000000000000E+00  0.0000000000000E+00 
ZONE T = "SEP , 3.0000E-08", I = 10, SOLUTIONTIME = 3.000000E-08
ZONETYPE = ORDERED
DATAPACKING = BLOCK
STRANDID = 2
 1.0000000000000E-04  1.0277777777778E-04  1.0555555555556E-04  1.0833333333333E-04  1.1111111111111E-04  1.1388888888889E-04  1.1666666666667E-04  1.1944444444444E-04  1.2222222222222E-04  1.2500000000000E-04 
 6.1331647950461E-09  6.1147655730506E-09  6.1143381477004E-09  6.1143398232029E-09  6.1143396805990E-09  6.1143398529680E-09  6.1144462501393E-09  6.1149768355156E-09  6.1332174045723E-09  5.7758228123531E-09 
 8.4394679999272E-01  8.4394679999982E-01  8.4394680000000E-01  8.4394680000000E-01  8.4394680000000E-01  8.4394680000000E-01  8.4394680000000E-01  8.4394680000000E-01  8.4394680000018E-01  8.4394680000727E-01 
 7.8026600003639E-02  7.8026600000091E-02  7.8026600000002E-02  7.8026600000000E-02  7.8026600000000E-02  7.8026600000000E-02  7.8026600000000E-02  7.8026599999998E-02  7.8026599999909E-02  7.8026599996363E-02 
 7.8026600003639E-02  7.8026600000091E-02  7.8026600000002E-02  7.8026600000000E-02  7.8026600000000E-02  7.8026600000000E-02  7.8026600000000E-02  7.8026599999998E-02  7.8026599999909E-02  7.8026599996363E-02 
-1.2132858616115E-01 -1.2132858690083E-01 -1.2132858764051E-01 -1.2132858838019E-01 -1.2132858911988E-01 -1.2132858985956E-01 -1.2132859059924E-01 -1.2132859133893E-01 -1.2132859207861E-01 -1.2132859281829E-01 
 1.5977156312567E-10  1.5977156412348E-10  1.5977156412206E-10  1.5977156512123E-10  1.5977156612043E-10  1.5977156412203E-10  1.5977156512123E-10  1.5977156512120E-10  1.5977156412058E-10  1.5977156511840E-10 
 5.3257187042896E-03  5.3257188041405E-03  5.3257188040695E-03  5.3257188040678E-03  5.3257189039879E-03  5.3257188040677E-03  5.3257188040677E-03  5.3257189039860E-03  5.3257188039950E-03  5.3257187040058E-03 
 5.3257187042896E-03  5.3257188041405E-03  5.3257188040695E-03  5.3257188040678E-03  5.3257189039879E-03  5.3257188040677E-03  5.3257188040677E-03  5.3257189039860E-03  5.3257188039950E-03  5.3257187040058E-03 
 0.0000000000000E+00  0.0000000000000E+00  0.0000000000000E+00  0.0000000000000E+00  0.0000000000000E+00  0.0000000000000E+00  0.0000000000000E+00  0.0000000000000E+00  0.0000000000000E+00  0.0000000000000E+00 
ZONE T = "SEP , 4.0000E-08", I = 10, SOLUTIONTIME = 4.000000E-08
ZONETYPE = ORDERED
DATAPACKING = BLOCK
STRANDID = 2
 1.0000000000000E-04  1.0277777777778E-04  1.0555555555556E-04  1.0833333333333E-04  1.1111111111111E-04  1.1388888888889E-04  1.1666666666667E-04  1.1944444444444E-04  1.2222222222222E-04  1.2500000000000E-04 
 6.1402313864930E-09  6.1162849129876E-09  6.1155986630295E-09  6.1155972874353E-09  6.1155968667989E-09  6.1155972609632E-09  6.1155484893425E-09  6.1161871897402E-09  6.1401955437844E-09  5.7769566967821E-09 
 8.4394679999035E-01  8.4394679999970E-01  8.4394679999999E-01  8.4394680000000E-01  8.4394680000000E-01  8.4394680000000E-01  8.4394680000000E-01  8.4394680000001E-01  8.4394680000030E-01  8.4394680000965E-01 
 7.8026600004826E-02  7.8026600000149E-02  7.8026600000004E-02  7.8026600000000E-02  7.8026600000000E-02  7.8026600000000E-02  7.8026600000000E-02  7.8026599999996E-02  7.8026599999851E-02  7.8026599995176E-02 
 7.8026600004826E-02  7.8026600000149E-02  7.8026600000004E-02  7.8026600000000E-02  7.8026600000000E-02  7.8026600000000E-02  7.8026600000000E-02  7.8026599999996E-02  7.8026599999851E-02  7.8026599995176E-02 
-1.2132858616181E-01 -1.2132858690149E-01 -1.2132858764118E-01 -1.2132858838086E-01 -1.2132858912054E-01 -1.2132858986022E-01 -1.2132859059991E-01 -1.2132859133959E-01 -1.2132859207927E-01 -1.2132859281896E-01 
 2.1302875016904E-10  2.1302875216514E-10  2.1302875216277E-10  2.1302875316191E-10  2.1302875516031E-10  2.1302875216271E-10  2.1302875316191E-10  2.1302875416105E-10  2.1302875216029E-10  2.1302875215798E-10 
 5.3257187043370E-03  5.3257188041654E-03  5.3257188040707E-03  5.3257188040678E-03  5.3257189039879E-03  5.3257188040677E-03  5.3257188040677E-03  5.3257189039848E-03  5.3257188039702E-03  5.3257187039584E-03 
 5.3257187043370E-03  5.3257188041654E-03  5.3257188040707E-03  5.3257188040678E-03  5.3257189039879E-03  5.3257188040677E-03  5.3257188040677E-03  5.3257189039848E-03  5.3257188039702E-03  5.3257187039584E-03 
 0.0000000000000E+00  0.0000000000000E+00  0.0000000000000E+00  0.0000000000000E+00  0.0000000000000E+00  0.0000000000000E+00  0.0000000000000E+00  0.0000000000000E+00  0.0000000000000E+00  0.0000000000000E+00 
ZONE T = "SEP , 5.5000E-08", I = 10, SOLUTIONTIME = 5.500000E-08
ZONETYPE = ORDERED
DATAPACKING = BLOCK
STRANDID = 2
 1.0000000000000E-04  1.0277777777778E-04  1.0555555555556E-04  1.0833333333333E-04  1.1111111111111E-04  1.1388888888889E-04  1.1666666666667E-04  1.1944444444444E-04  1.2222222222222E-04  1.2500000000000E-04 
 6.1482809292596E-09  6.1161682532653E-09  6.1147916735718E-09  6.1147211369939E-09  6.1147199655941E-09  6.1147212051119E-09  6.1147921171746E-09  6.1161678789745E-09  6.1482459466879E-09  5.7767505579164E-09 
 8.4394679998684E-01  8.4394679999947E-01  8.4394679999998E-01  8.4394680000000E-01  8.4394680000000E-01  8.4394680000000E-01  8.4394680000000E-01  8.4394680000002E-01  8.4394680000053E-01  8.4394680001315E-01 
 7.8026600006579E-02  7.8026600000267E-02  7.8026600000009E-02  7.8026600000000E-02  7.8026600000000E-02  7.8026600000000E-02  7.8026600000000E-02  7.8026599999991E-02  7.8026599999733E-02  7.8026599993424E-02 
 7.8026600006579E-02  7.8026600000267E-02  7.8026600000009E-02  7.8026600000000E-02  7.8026600000000E-02  7.8026600000000E-02  7.8026600000000E-02  7.8026599999991E-02  7.8026599999733E-02  7.8026599993424E-02 
-1.2132858616248E-01 -1.2132858690216E-01 -1.2132858764185E-01 -1.2132858838153E-01 -1.2132858912121E-01 -1.2132858986090E-01 -1.2132859060058E-01 -1.2132859134026E-01 -1.2132859207994E-01 -1.2132859281963E-01 
 2.9291453373276E-10  2.9291453422818E-10  2.9291453422387E-10  2.9291453672173E-10  2.9291453722133E-10  2.9291453422373E-10  2.9291453672172E-10  2.9291453622199E-10  2.9291453421927E-10  2.9291453571389E-10 
 5.3257189042483E-03  5.3257188042033E-03  5.3257188040731E-03  5.3257189039880E-03  5.3257188040678E-03  5.3257188040677E-03  5.3257189039876E-03  5.3257188040623E-03  5.3257188039323E-03  5.3257189037274E-03 
 5.3257189042483E-03  5.3257188042033E-03  5.3257188040731E-03  5.3257189039880E-03  5.3257188040678E-03  5.3257188040677E-03  5.3257189039876E-03  5.3257188040623E-03  5.3257188039323E-03  5.3257189037274E-03 
 0.0000000000000E+00  0.0000000000000E+00  0.0000000000000E+00  0.0000000000000E+00  0.0000000000000E+00  0.0000000000000E+00  0.0000000000000E+00  0.0000000000000E+00  0.0000000000000E+00  0.0000000000000E+00 
ZONE T = "SEP , 7.7500E-08", I = 10, SOLUTIONTIME = 7.750000E-08
ZONETYPE = ORDERED
DATAPACKING = BLOCK
STRANDID = 2
 1.0000000000000E-04  1.0277777777778E-04  1.0555555555556E-04  1.0833333333333E-04  1.1111111111111E-04  1.1388888888889E-04  1.1666666666667E-04  1.1944444444444E-04  1.2222222222222E-04  1.2500000000000E-04 
 6.1607971186546E-09  6.1175116847933E-09  6.1151147534931E-09  6.1150425096069E-09  6.1150419712211E-09  6.1150884598391E-09  6.1151845624171E-09  6.1176278547026E-09  6.1609351247152E-09  5.7775497424923E-09 
 8.4394679998170E-01  8.4394679999899E-01  8.4394679999996E-01  8.4394680000000E-01  8.4394680000000E-01  8.4394680000000E-01  8.4394680000000E-01  8.4394680000004E-01  8.4394680000101E-01  8.4394680001829E-01 
 7.8026600009149E-02  7.8026600000505E-02  7.8026600000022E-02  7.8026600000001E-02  7.8026600000000E-02  7.8026600000000E-02  7.8026599999999E-02  7.8026599999978E-02  7.8026599999495E-02  7.8026599990855E-02 
 7.8026600009149E-02  7.8026600000505E-02  7.8026600000022E-02  7.8026600000001E-02  7.8026600000000E-02  7.8026600000000E-02  7.8026599999999E-02  7.8026599999978E-02  7.8026599999495E-02  7.8026599990855E-02 
-1.2132858616350E-01 -1.2132858690318E-01 -1.2132858764287E-01 -1.2132858838255E-01 -1.2132858912223E-01 -1.2132858986192E-01 -1.2132859060160E-01 -1.2132859134128E-01 -1.2132859208097E-01 -1.2132859282065E-01 
 4.1274320908075E-10  4.1274320957227E-10  4.1274320731562E-10  4.1274320981326E-10  4.1274321031286E-10  4.1274320731525E-10  4.1274321206144E-10  4.1274320931328E-10  4.1274320730644E-10  4.1274321104536E-10 
 5.3257189043551E-03  5.3257189041816E-03  5.3257188040782E-03  5.3257188040682E-03  5.3257188040678E-03  5.3257188040677E-03  5.3257189039874E-03  5.3257188040573E-03  5.3257188038741E-03  5.3257189036206E-03 
 5.3257189043551E-03  5.3257189041816E-03  5.3257188040782E-03  5.3257188040682E-03  5.3257188040678E-03  5.3257188040677E-03  5.3257189039874E-03  5.3257188040573E-03  5.3257188038741E-03  5.3257189036206E-03 
 0.0000000000000E+00  0.0000000000000E+00  0.0000000000000E+00  0.0000000000000E+00  0.0000000000000E+00  0.0000000000000E+00  0.0000000000000E+00  0.0000000000000E+00  0.0000000000000E+00  0.0000000000000E+00 
ZONE T = "SEP , 1.1125E-07", I = 10, SOLUTIONTIME = 1.112500E-07
ZONETYPE = ORDERED
DATAPACKING = BLOCK
STRANDID = 2
 1.0000000000000E-04  1.0277777777778E-04  1.0555555555556E-04  1.0833333333333E-04  1.1111111111111E-04  1.1388888888889E-04  1.1666666666667E-04  1.1944444444444E-04  1.2222222222222E-04  1.2500000000000E-04 
 6.1780810722928E-09  6.1198653653427E-09  6.1152602892353E-09  6.1149635816931E-09  6.1149636496258E-09  6.1149950579008E-09  6.1152927325632E-09  6.1199153323558E-09  6.1780987752269E-09  5.7783810617616E-09 
 8.4394679997424E-01  8.4394679999803E-01  8.4394679999988E-01  8.4394679999999E-01  8.4394680000000E-01  8.4394680000000E-01  8.4394680000001E-01  8.4394680000012E-01  8.4394680000197E-01  8.4394680002575E-01 
 7.8026600012881E-02  7.8026600000985E-02  7.8026600000060E-02  7.8026600000003E-02  7.8026600000000E-02  7.8026600000000E-02  7.8026599999997E-02  7.8026599999940E-02  7.8026599999015E-02  7.8026599987124E-02 
 7.8026600012881E-02  7.8026600000985E-02  7.8026600000060E-02  7.8026600000003E-02  7.8026600000000E-02  7.8026600000000E-02  7.8026599999997E-02  7.8026599999940E-02  7.8026599999015E-02  7.8026599987124E-02 
-1.2132858616503E-01 -1.2132858690471E-01 -1.2132858764440E-01 -1.2132858838408E-01 -1.2132858912376E-01 -1.2132858986345E-01 -1.2132859060313E-01 -1.2132859134281E-01 -1.2132859208249E-01 -1.2132859282218E-01 
 5.9248622210815E-10  5.9248621921913E-10  5.9248621695362E-10  5.9248621945059E-10  5.9248621995015E-10  5.9248622032484E-10  5.9248622169868E-10  5.9248621894985E-10  5.9248622030646E-10  5.9248622403715E-10 
 5.3257189045154E-03  5.3257188043515E-03  5.3257188040888E-03  5.3257188040690E-03  5.3257188040678E-03  5.3257189039877E-03  5.3257188040665E-03  5.3257188040467E-03  5.3257189037042E-03  5.3257189034604E-03 
 5.3257189045154E-03  5.3257188043515E-03  5.3257188040888E-03  5.3257188040690E-03  5.3257188040678E-03  5.3257189039877E-03  5.3257188040665E-03  5.3257188040467E-03  5.3257189037042E-03  5.3257189034604E-03 
 0.0000000000000E+00  0.0000000000000E+00  0.0000000000000E+00  0.0000000000000E+00  0.0000000000000E+00  0.0000000000000E+00  0.0000000000000E+00  0.0000000000000E+00  0.0000000000000E+00  0.0000000000000E+00 
ZONE T = "SEP , 1.6188E-07", I = 10, SOLUTIONTIME = 1.618750E-07
ZONETYPE = ORDERED
DATAPACKING = BLOCK
STRANDID = 2
 1.0000000000000E-04  1.0277777777778E-04  1.0555555555556E-04  1.0833333333333E-04  1.1111111111111E-04  1.1388888888889E-04  1.1666666666667E-04  1.1944444444444E-04  1.2222222222222E-04  1.2500000000000E-04 
 6.2013603067184E-09  6.1243148427836E-09  6.1157085330542E-09  6.1149561024720E-09  6.1149033522334E-09  6.1149565976094E-09  6.1156986178345E-09  6.1242626607159E-09  6.2012871666465E-09  5.7795718017295E-09 
 8.4394679996354E-01  8.4394679999612E-01  8.4394679999967E-01  8.4394679999997E-01  8.4394680000000E-01  8.4394680000000E-01  8.4394680000002E-01  8.4394680000033E-01  8.4394680000387E-01  8.4394680003645E-01 
 7.8026600018232E-02  7.8026600001938E-02  7.8026600000166E-02  7.8026600000013E-02  7.8026600000001E-02  7.8026599999999E-02  7.8026599999987E-02  7.8026599999834E-02  7.8026599998063E-02  7.8026599981775E-02 
 7.8026600018232E-02  7.8026600001938E-02  7.8026600000166E-02  7.8026600000013E-02  7.8026600000001E-02  7.8026599999999E-02  7.8026599999987E-02  7.8026599999834E-02  7.8026599998063E-02  7.8026599981775E-02 
-1.2132858616732E-01 -1.2132858690700E-01 -1.2132858764669E-01 -1.2132858838637E-01 -1.2132858912605E-01 -1.2132858986574E-01 -1.2132859060542E-01 -1.2132859134510E-01 -1.2132859208479E-01 -1.2132859282447E-01 
 8.6210073154448E-10  8.6210073369652E-10  8.6210073647020E-10  8.6210073390671E-10  8.6210073440609E-10  8.6210073478075E-10  8.6210073615443E-10  8.6210073846204E-10  8.6210073474094E-10  8.6210073339578E-10 
 5.3257187049151E-03  5.3257188044916E-03  5.3257189040312E-03  5.3257188040714E-03  5.3257188040680E-03  5.3257188040675E-03  5.3257188040641E-03  5.3257189039444E-03  5.3257188036441E-03  5.3257187033805E-03 
 5.3257187049151E-03  5.3257188044916E-03  5.3257189040312E-03  5.3257188040714E-03  5.3257188040680E-03  5.3257188040675E-03  5.3257188040641E-03  5.3257189039444E-03  5.3257188036441E-03  5.3257187033805E-03 
 0.0000000000000E+00  0.0000000000000E+00  0.0000000000000E+00  0.0000000000000E+00  0.0000000000000E+00  0.0000000000000E+00  0.0000000000000E+00  0.0000000000000E+00  0.0000000000000E+00  0.0000000000000E+00 
ZONE T = "SEP , 2.3781E-07", I = 10, SOLUTIONTIME = 2.378125E-07
ZONETYPE = ORDERED
DATAPACKING = BLOCK
STRANDID = 2
 1.0000000000000E-04  1.0277777777778E-04  1.0555555555556E-04  1.0833333333333E-04  1.1111111111111E-04  1.1388888888889E-04  1.1666666666667E-04  1.1944444444444E-04  1.2222222222222E-04  1.2500000000000E-04 
 6.2316921899627E-09  6.1325708497212E-09  6.1170926113812E-09  6.1151845181557E-09  6.1149962014738E-09  6.1151907697457E-09  6.1171121988063E-09  6.1325901205280E-09  6.2316764830641E-09  5.7817381269562E-09 
 8.4394679994844E-01  8.4394679999245E-01  8.4394679999909E-01  8.4394679999990E-01  8.4394679999999E-01  8.4394680000001E-01  8.4394680000010E-01  8.4394680000091E-01  8.4394680000755E-01  8.4394680005154E-01 
 7.8026600025782E-02  7.8026600003776E-02  7.8026600000453E-02  7.8026600000048E-02  7.8026600000004E-02  7.8026599999996E-02  7.8026599999952E-02  7.8026599999547E-02  7.8026599996225E-02  7.8026599974228E-02 
 7.8026600025782E-02  7.8026600003776E-02  7.8026600000453E-02  7.8026600000048E-02  7.8026600000004E-02  7.8026599999996E-02  7.8026599999952E-02  7.8026599999547E-02  7.8026599996225E-02  7.8026599974228E-02 
-1.2132858617076E-01 -1.2132858691044E-01 -1.2132858765012E-01 -1.2132858838980E-01 -1.2132858912949E-01 -1.2132858986917E-01 -1.2132859060885E-01 -1.2132859134854E-01 -1.2132859208822E-01 -1.2132859282790E-01 
 1.2665224957261E-09  1.2665225054292E-09  1.2665225081609E-09  1.2665225055914E-09  1.2665225136777E-09  1.2665225064646E-09  1.2665225078375E-09  1.2665225101391E-09  1.2665225063760E-09  1.2665225125820E-09 
 5.3257187052724E-03  5.3257188047106E-03  5.3257188041577E-03  5.3257188040783E-03  5.3257189039889E-03  5.3257188040667E-03  5.3257188040572E-03  5.3257188039778E-03  5.3257188034251E-03  5.3257189028635E-03 
 5.3257187052724E-03  5.3257188047106E-03  5.3257188041577E-03  5.3257188040783E-03  5.3257189039889E-03  5.3257188040667E-03  5.3257188040572E-03  5.3257188039778E-03  5.3257188034251E-03  5.3257189028635E-03 
 0.0000000000000E+00  0.0000000000000E+00  0.0000000000000E+00  0.0000000000000E+00  0.0000000000000E+00  0.0000000000000E+00  0.0000000000000E+00  0.0000000000000E+00  0.0000000000000E+00  0.0000000000000E+00 
ZONE T = "SEP , 3.5172E-07", I = 10, SOLUTIONTIME = 3.517188E-07
ZONETYPE = ORDERED
DATAPACKING = BLOCK
STRANDID = 2
 1.0000000000000E-04  1.0277777777778E-04  1.0555555555556E-04  1.0833333333333E-04  1.1111111111111E-04  1.1388888888889E-04  1.1666666666667E-04  1.1944444444444E-04  1.2222222222222E-04  1.2500000000000E-04 
 6.2691353946572E-09  6.1467311099224E-09  6.1203053209786E-09  6.1157428155924E-09  6.1151485704004E-09  6.1157427738212E-09  6.1203055287305E-09  6.1467174311602E-09  6.2690754958094E-09  5.7850347721201E-09 
 8.4394679992751E-01  8.4394679998564E-01  8.4394679999762E-01  8.4394679999965E-01  8.4394679999996E-01  8.4394680000004E-01  8.4394680000035E-01  8.4394680000238E-01  8.4394680001436E-01  8.4394680007246E-01 
 7.8026600036245E-02  7.8026600007182E-02  7.8026600001189E-02  7.8026600000175E-02  7.8026600000021E-02  7.8026599999979E-02  7.8026599999825E-02  7.8026599998812E-02  7.8026599992821E-02  7.8026599963769E-02 
 7.8026600036245E-02  7.8026600007182E-02  7.8026600001189E-02  7.8026600000175E-02  7.8026600000021E-02  7.8026599999979E-02  7.8026599999825E-02  7.8026599998812E-02  7.8026599992821E-02  7.8026599963769E-02 
-1.2132858617590E-01 -1.2132858691558E-01 -1.2132858765526E-01 -1.2132858839495E-01 -1.2132858913463E-01 -1.2132858987431E-01 -1.2132859061400E-01 -1.2132859135368E-01 -1.2132859209336E-01 -1.2132859283305E-01 
 1.8731551648217E-09  1.8731551744489E-09  1.8731551657079E-09  1.8731551631206E-09  1.8731551712040E-09  1.8731551639900E-09  1.8731551767415E-09  1.8731551676439E-09  1.8731551637897E-09  1.8731551813012E-09 
 5.3257189056403E-03  5.3257189049734E-03  5.3257188042529E-03  5.3257188040974E-03  5.3257188040715E-03  5.3257188040640E-03  5.3257189039582E-03  5.3257188038826E-03  5.3257188030826E-03  5.3257189023360E-03 
 5.3257189056403E-03  5.3257189049734E-03  5.3257188042529E-03  5.3257188040974E-03  5.3257188040715E-03  5.3257188040640E-03  5.3257189039582E-03  5.3257188038826E-03  5.3257188030826E-03  5.3257189023360E-03 
 0.0000000000000E+00  0.0000000000000E+00  0.0000000000000E+00  0.0000000000000E+00  0.0000000000000E+00  0.0000000000000E+00  0.0000000000000E+00  0.0000000000000E+00  0.0000000000000E+00  0.0000000000000E+00 
ZONE T = "SEP , 5.2258E-07", I = 10, SOLUTIONTIME = 5.225781E-07
ZONETYPE = ORDERED
DATAPACKING = BLOCK
STRANDID = 2
 1.0000000000000E-04  1.0277777777778E-04  1.0555555555556E-04  1.0833333333333E-04  1.1111111111111E-04  1.1388888888889E-04  1.1666666666667E-04  1.1944444444444E-04  1.2222222222222E-04  1.2500000000000E-04 
 6.3128663549087E-09  6.1692672377570E-09  6.1274103165448E-09  6.1175758179470E-09  6.1159080309681E-09  6.1175727883767E-09  6.1274041804295E-09  6.1692452628517E-09  6.3127915740134E-09  5.7902837507258E-09 
 8.4394679989904E-01  8.4394679997365E-01  8.4394679999413E-01  8.4394679999883E-01  8.4394679999982E-01  8.4394680000018E-01  8.4394680000117E-01  8.4394680000587E-01  8.4394680002634E-01  8.4394680010092E-01 
 7.8026600050480E-02  7.8026600013175E-02  7.8026600002936E-02  7.8026600000586E-02  7.8026600000090E-02  7.8026599999910E-02  7.8026599999415E-02  7.8026599997066E-02  7.8026599986830E-02  7.8026599949540E-02 
 7.8026600050480E-02  7.8026600013175E-02  7.8026600002936E-02  7.8026600000586E-02  7.8026600000090E-02  7.8026599999910E-02  7.8026599999415E-02  7.8026599997066E-02  7.8026599986830E-02  7.8026599949540E-02 
-1.2132858618360E-01 -1.2132858692328E-01 -1.2132858766296E-01 -1.2132858840265E-01 -1.2132858914233E-01 -1.2132858988201E-01 -1.2132859062170E-01 -1.2132859136138E-01 -1.2132859210106E-01 -1.2132859284074E-01 
 2.7831041344520E-09  2.7831041609969E-09  2.7831041520604E-09  2.7831041494230E-09  2.7831041745673E-09  2.7831041502765E-09  2.7831041630166E-09  2.7831041538688E-09  2.7831041498192E-09  2.7831041842485E-09 
 5.3257187065699E-03  5.3257188055854E-03  5.3257188044412E-03  5.3257188041476E-03  5.3257189040007E-03  5.3257188040549E-03  5.3257188039879E-03  5.3257188036944E-03  5.3257188025507E-03  5.3257189015666E-03 
 5.3257187065699E-03  5.3257188055854E-03  5.3257188044412E-03  5.3257188041476E-03  5.3257189040007E-03  5.3257188040549E-03  5.3257188039879E-03  5.3257188036944E-03  5.3257188025507E-03  5.3257189015666E-03 
 0.0000000000000E+00  0.0000000000000E+00  0.0000000000000E+00  0.0000000000000E+00  0.0000000000000E+00  0.0000000000000E+00  0.0000000000000E+00  0.0000000000000E+00  0.0000000000000E+00  0.0000000000000E+00 
ZONE T = "SEP , 7.7887E-07", I = 10, SOLUTIONTIME = 7.788672E-07
ZONETYPE = ORDERED
DATAPACKING = BLOCK
STRANDID = 2
 1.0000000000000E-04  1.0277777777778E-04  1.0555555555556E-04  1.0833333333333E-04  1.1111111111111E-04  1.1388888888889E-04  1.1666666666667E-04  1.1944444444444E-04  1.2222222222222E-04  1.2500000000000E-04 
 6.3611593254701E-09  6.2019555706560E-09  6.1412738672737E-09  6.1224570485659E-09  6.1184939825354E-09  6.1224571088923E-09  6.1412658053176E-09  6.2019250593673E-09  6.3610628895495E-09  5.7985399120949E-09 
 8.4394679986089E-01  8.4394679995372E-01  8.4394679998653E-01  8.4394679999647E-01  8.4394679999932E-01  8.4394680000068E-01  8.4394680000353E-01  8.4394680001346E-01  8.4394680004626E-01  8.4394680013905E-01 
 7.8026600069553E-02  7.8026600023141E-02  7.8026600006734E-02  7.8026600001763E-02  7.8026600000339E-02  7.8026599999661E-02  7.8026599998237E-02  7.8026599993268E-02  7.8026599976868E-02  7.8026599930474E-02 
 7.8026600069553E-02  7.8026600023141E-02  7.8026600006734E-02  7.8026600001763E-02  7.8026600000339E-02  7.8026599999661E-02  7.8026599998237E-02  7.8026599993268E-02  7.8026599976868E-02  7.8026599930474E-02 
-1.2132858619512E-01 -1.2132858693480E-01 -1.2132858767448E-01 -1.2132858841417E-01 -1.2132858915385E-01 -1.2132858989353E-01 -1.2132859063321E-01 -1.2132859137290E-01 -1.2132859211258E-01 -1.2132859285226E-01 
 4.1480276403976E-09  4.1480276410278E-09  4.1480276316807E-09  4.1480276545163E-09  4.1480276540107E-09  4.1480276296994E-09  4.1480276680065E-09  4.1480276331149E-09  4.1480276286549E-09  4.1480276883865E-09 
 5.3257189075150E-03  5.3257188063998E-03  5.3257188047978E-03  5.3257189041895E-03  5.3257188041078E-03  5.3257188040278E-03  5.3257189037862E-03  5.3257188033379E-03  5.3257188017366E-03  5.3257189004620E-03 
 5.3257189075150E-03  5.3257188063998E-03  5.3257188047978E-03  5.3257189041895E-03  5.3257188041078E-03  5.3257188040278E-03  5.3257189037862E-03  5.3257188033379E-03  5.3257188017366E-03  5.3257189004620E-03 
 0.0000000000000E+00  0.0000000000000E+00  0.0000000000000E+00  0.0000000000000E+00  0.0000000000000E+00  0.0000000000000E+00  0.0000000000000E+00  0.0000000000000E+00  0.0000000000000E+00  0.0000000000000E+00 
ZONE T = "SEP , 1.1633E-06", I = 10, SOLUTIONTIME = 1.163301E-06
ZONETYPE = ORDERED
DATAPACKING = BLOCK
STRANDID = 2
 1.0000000000000E-04  1.0277777777778E-04  1.0555555555556E-04  1.0833333333333E-04  1.1111111111111E-04  1.1388888888889E-04  1.1666666666667E-04  1.1944444444444E-04  1.2222222222222E-04  1.2500000000000E-04 
 6.4124125694608E-09  6.2453872197533E-09  6.1654985750653E-09  6.1341804858156E-09  6.1263340985679E-09  6.1341749900219E-09  6.1654820190172E-09  6.2453431029831E-09  6.4123010646807E-09  5.8114842980553E-09 
 8.4394679981021E-01  8.4394679992235E-01  8.4394679997153E-01  8.4394679999059E-01  8.4394679999785E-01  8.4394680000215E-01  8.4394680000940E-01  8.4394680002846E-01  8.4394680007762E-01  8.4394680018971E-01 