TITLE = "Solution on Domain BulkDomain1D_0"
VARIABLES = "x [m]"  
"Vel_axial(0)" 	"MF_sp(ECDMC)" 	"MF_sp(Li+)" 	"MF_sp(PF6-)" 	"Volt(Electroly)" 	"Volt(AnodeVolt)" 	
"Potential Drop Electrode-Electrolyte [V]" 	"Surf_0 Equilibrium Potential Drop Electrode-Electrolyte [V]" 	"Overpotential_0 [V]" 	"Current Source [A/m^2]" 	"Li+ flux [kmol/m^2/s]" 	"Electrolyte Current [A/m^2]" 	"Electrode Current [A/m^2]" 	
"Capacity discharged [A-s]" 	"Depth of discharge [-]" 	"Capacity remaining [A-s]" 	"Initial capacity [A-s]" 	"Porosity []" 	"Surface Area [m2/m2] (area per area)" 	"Specific current (per particle area) [A/m^2]" 	"Control volume thickness [m]" 	
"Moles Li_C6-bulk [mol/m^2] (per electrode area)" 	"Moles V_C6-bulk [mol/m^2] (per electrode area)" 	"qHeat_accum [J/m3]" 	"qHeat_step [W/m3]" 	"Joule_Lyte [W/m3]" 	"Joule_Solid [W/m3]" 	"electrodHeat [W/m3]" 	"OverpotHeat [W/m3]" 	"deltaSHeat [W/m3]" 	

ZONE T = "t = 0 [s]" I = 10 SOLUTIONTIME = 0.0000000000000E+00
0 	0 	0.92 	0.04 	0.04 	-0.07 	0 	
0 	0 	0 	0 	0 	0 	0.177076 	
0 	0 	0 	0 	0.35 	1.08333 	0.32691 	5.55556e-06 	
0.000361111 	0.000240741 	0 	0.0 	 0.0 	 0.0 	 0.0 	 0.0 	 0.0 	 
1.11111e-05 	0 	0.92 	0.04 	0.04 	-0.07 	0 	
0 	0 	0 	0 	0 	0 	-0 	
0 	0 	0 	0 	0.35 	2.16667 	0.32691 	1.11111e-05 	
0.000722222 	0.000481481 	0 	0.0 	 0.0 	 0.0 	 0.0 	 0.0 	 0.0 	 
2.22222e-05 	0 	0.92 	0.04 	0.04 	-0.07 	0 	
0 	0 	0 	0 	0 	0 	-0 	
0 	0 	0 	0 	0.35 	2.16667 	0.32691 	1.11111e-05 	
0.000722222 	0.000481481 	0 	0.0 	 0.0 	 0.0 	 0.0 	 0.0 	 0.0 	 
3.33333e-05 	0 	0.92 	0.04 	0.04 	-0.07 	0 	
0 	0 	0 	0 	0 	0 	-0 	
0 	0 	0 	0 	0.35 	2.16667 	0.32691 	1.11111e-05 	
0.000722222 	0.000481481 	0 	0.0 	 0.0 	 0.0 	 0.0 	 0.0 	 0.0 	 
4.44444e-05 	0 	0.92 	0.04 	0.04 	-0.07 	0 	
0 	0 	0 	0 	0 	0 	-0 	
0 	0 	0 	0 	0.35 	2.16667 	0.32691 	1.11111e-05 	
0.000722222 	0.000481481 	0 	0.0 	 0.0 	 0.0 	 0.0 	 0.0 	 0.0 	 
5.55556e-05 	0 	0.92 	0.04 	0.04 	-0.07 	0 	
0 	0 	0 	0 	0 	0 	-0 	
0 	0 	0 	0 	0.35 	2.16667 	0.32691 	1.11111e-05 	
0.000722222 	0.000481481 	0 	0.0 	 0.0 	 0.0 	 0.0 	 0.0 	 0.0 	 
6.66667e-05 	0 	0.92 	0.04 	0.04 	-0.07 	0 	
0 	0 	0 	0 	0 	0 	-0 	
0 	0 	0 	0 	0.35 	2.16667 	0.32691 	1.11111e-05 	
0.000722222 	0.000481481 	0 	0.0 	 0.0 	 0.0 	 0.0 	 0.0 	 0.0 	 
7.77778e-05 	0 	0.92 	0.04 	0.04 	-0.07 	0 	
0 	0 	0 	0 	0 	0 	-0 	
0 	0 	0 	0 	0.35 	2.16667 	0.32691 	1.11111e-05 	
0.000722222 	0.000481481 	0 	0.0 	 0.0 	 0.0 	 0.0 	 0.0 	 0.0 	 
8.88889e-05 	0 	0.92 	0.04 	0.04 	-0.07 	0 	
0 	0 	0 	0 	0 	0 	-0 	
0 	0 	0 	0 	0.35 	2.16667 	0.32691 	1.11111e-05 	
0.000722222 	0.000481481 	0 	0.0 	 0.0 	 0.0 	 0.0 	 0.0 	 0.0 	 
0.0001 	0 	0.92 	0.04 	0.04 	-0.07 	0 	
0 	0 	0 	0 	0 	0.177076 	0 	
0 	0 	0 	0 	0.35 	1.08333 	0.32691 	5.55556e-06 	
0.000361111 	0.000240741 	0 	0.0 	 0.0 	 0.0 	 0.0 	 0.0 	 0.0 	 
ZONE T = "t = 1e-08 [s]" I = 10 SOLUTIONTIME = 1.0000000000000E-08
0 	9.49099e-10 	0.92 	0.04 	0.04 	-0.126235 	0 	
0.07 	-0.00201166 	0.0720117 	0.354152 	-0 	0.555669 	19.4443 	
0 	23228 	87.3243 	145.541 	0.35 	1.08333 	1.02585 	5.55556e-06 	
0.000361111 	0.000240741 	0.000220128 	22012.8 	0.000163596 	5.48895 	22007.3 	22007.3 	0 	
1.11111e-05 	2.84718e-09 	0.92 	0.04 	0.04 	-0.126235 	-3.22883e-06 	
0.07 	-0.00201166 	0.0720117 	0.708305 	-0 	2.2226 	17.7774 	
0 	46455.9 	174.649 	291.081 	0.35 	2.16667 	1.02578 	1.11111e-05 	
0.000722222 	0.000481481 	0.000221163 	22116.3 	0.000817918 	4.88109 	22111.4 	22111.4 	0 	
2.22222e-05 	4.74514e-09 	0.92 	0.04 	0.04 	-0.126235 	-6.07774e-06 	
0.07 	-0.00201166 	0.0720117 	0.708305 	-0 	4.44507 	15.5549 	
0 	46455.9 	174.649 	291.081 	0.35 	2.16667 	1.02573 	1.11111e-05 	
0.000722222 	0.000481481 	0.000221114 	22111.4 	0.00278077 	3.74139 	22107.7 	22107.7 	0 	
3.33333e-05 	6.64302e-09 	0.92 	0.04 	0.04 	-0.126235 	-8.54676e-06 	
0.07 	-0.00201166 	0.0720117 	0.708305 	-0 	6.66742 	13.3326 	
0 	46455.9 	174.649 	291.081 	0.35 	2.16667 	1.02567 	1.11111e-05 	
0.000722222 	0.000481481 	0.00022108 	22108 	0.00605194 	2.75373 	22105.2 	22105.2 	0 	
4.44444e-05 	8.54082e-09 	0.92 	0.04 	0.04 	-0.126235 	-1.06359e-05 	
0.07 	-0.00201166 	0.0720117 	0.708305 	-0 	8.88967 	11.1103 	
0 	46455.9 	174.649 	291.081 	0.35 	2.16667 	1.02563 	1.11111e-05 	
0.000722222 	0.000481481 	0.000221044 	22104.4 	0.0106313 	1.91806 	22102.5 	22102.5 	0 	
5.55556e-05 	1.04385e-08 	0.92 	0.04 	0.04 	-0.126235 	-1.23452e-05 	
0.07 	-0.00201166 	0.0720117 	0.708305 	-0 	11.1118 	8.88816 	
0 	46455.9 	174.649 	291.081 	0.35 	2.16667 	1.0256 	1.11111e-05 	
0.000722222 	0.000481481 	0.000220648 	22064.8 	0.0165186 	1.23437 	22063.5 	22063.5 	0 	
6.66667e-05 	1.23362e-08 	0.92 	0.04 	0.04 	-0.126235 	-1.36746e-05 	
0.07 	-0.00201166 	0.0720117 	0.708305 	-0 	13.3339 	6.66607 	
0 	46455.9 	174.649 	291.081 	0.35 	2.16667 	1.02557 	1.11111e-05 	
0.000722222 	0.000481481 	0.000223703 	22370.3 	0.0237139 	0.702628 	22369.6 	22369.6 	0 	
7.77778e-05 	1.42339e-08 	0.92 	0.04 	0.04 	-0.126235 	-1.46242e-05 	
0.07 	-0.00201166 	0.0720117 	0.708305 	-0 	15.556 	4.44402 	
0 	46455.9 	174.649 	291.081 	0.35 	2.16667 	1.02555 	1.11111e-05 	
0.000722222 	0.000481481 	0.000219772 	21977.2 	0.0322171 	0.322825 	21976.8 	21976.8 	0 	
8.88889e-05 	1.61315e-08 	0.92 	0.04 	0.04 	-0.126235 	-1.51939e-05 	
0.07 	-0.00201166 	0.0720117 	0.708305 	-0 	17.778 	2.222 	
0 	46455.9 	174.649 	291.081 	0.35 	2.16667 	1.02554 	1.11111e-05 	
0.000722222 	0.000481481 	0.000223678 	22367.8 	0.0420281 	0.0949479 	22367.6 	22367.6 	0 	
0.0001 	1.70803e-08 	0.92 	0.04 	0.04 	-0.126235 	-1.53838e-05 	
0.07 	-0.00201166 	0.0720117 	0.354152 	-0 	19.4445 	0.555499 	
0 	23228 	87.3243 	145.541 	0.35 	1.08333 	1.02554 	5.55556e-06 	
0.000361111 	0.000240741 	0.00021976 	21976 	0.0472606 	0.0189895 	21975.9 	21975.9 	0 	
ZONE T = "t = 2e-08 [s]" I = 10 SOLUTIONTIME = 2.0000000000000E-08
0 	9.49097e-10 	0.92 	0.04 	0.04 	-0.125904 	0 	
0.126235 	-0.00201166 	0.128247 	1.11134 	5.7591e-09 	0.555667 	19.4443 	
2.78534e-11 	23228 	87.3243 	145.541 	0.35 	1.08333 	1.02585 	5.55556e-06 	
0.000361111 	0.000240741 	0.000475281 	25515.3 	0.000327192 	10.9779 	25509.8 	25509.8 	0 	
1.11111e-05 	2.84717e-09 	0.92 	0.04 	0.04 	-0.125904 	-3.22883e-06 	
0.126232 	-0.00201166 	0.128243 	2.22253 	1.72766e-08 	2.2226 	17.7774 	
5.57033e-11 	46455.9 	174.649 	291.081 	0.35 	2.16667 	1.02578 	1.11111e-05 	
0.000722222 	0.000481481 	0.000476832 	25566.8 	0.00163583 	9.76218 	25562 	25562 	0 	
2.22222e-05 	4.74514e-09 	0.92 	0.04 	0.04 	-0.125904 	-6.07774e-06 	
0.126229 	-0.00201166 	0.12824 	2.2224 	2.87934e-08 	4.44506 	15.5549 	
5.57001e-11 	46455.9 	174.649 	291.081 	0.35 	2.16667 	1.02572 	1.11111e-05 	
0.000722222 	0.000481481 	0.000476732 	25561.8 	0.00556153 	7.48279 	25558 	25558 	0 	
3.33333e-05 	6.64301e-09 	0.92 	0.04 	0.04 	-0.125904 	-8.54676e-06 	
0.126226 	-0.00201166 	0.128238 	2.2223 	4.03096e-08 	6.66741 	13.3326 	
5.56974e-11 	46455.9 	174.649 	291.081 	0.35 	2.16667 	1.02567 	1.11111e-05 	
0.000722222 	0.000481481 	0.000475665 	25458.5 	0.0121039 	5.50746 	25455.8 	25455.8 	0 	
4.44444e-05 	8.54081e-09 	0.92 	0.04 	0.04 	-0.125904 	-1.06359e-05 	
0.126224 	-0.00201166 	0.128236 	2.2222 	5.18253e-08 	8.88966 	11.1103 	
5.56951e-11 	46455.9 	174.649 	291.081 	0.35 	2.16667 	1.02563 	1.11111e-05 	
0.000722222 	0.000481481 	0.000475592 	25454.8 	0.0212625 	3.83613 	25452.9 	25452.9 	0 	
5.55556e-05 	1.04385e-08 	0.92 	0.04 	0.04 	-0.125904 	-1.23452e-05 	
0.126223 	-0.00201166 	0.128234 	2.22213 	6.33407e-08 	11.1118 	8.88817 	
5.56932e-11 	46455.9 	174.649 	291.081 	0.35 	2.16667 	1.0256 	1.11111e-05 	
0.000722222 	0.000481481 	0.000476163 	25551.5 	0.0330372 	2.46874 	25550.3 	25550.3 	0 	
6.66667e-05 	1.23362e-08 	0.92 	0.04 	0.04 	-0.125904 	-1.36746e-05 	
0.126221 	-0.00201166 	0.128233 	2.22207 	7.48558e-08 	13.3339 	6.66607 	
5.56917e-11 	46455.9 	174.649 	291.081 	0.35 	2.16667 	1.02557 	1.11111e-05 	
0.000722222 	0.000481481 	0.000482041 	25833.8 	0.0474278 	1.40526 	25833.1 	25833.1 	0 	
7.77778e-05 	1.42339e-08 	0.92 	0.04 	0.04 	-0.125904 	-1.46242e-05 	
0.12622 	-0.00201166 	0.128232 	2.22203 	8.63706e-08 	15.556 	4.44402 	
5.56907e-11 	46455.9 	174.649 	291.081 	0.35 	2.16667 	1.02555 	1.11111e-05 	
0.000722222 	0.000481481 	0.000473286 	25351.4 	0.0644341 	0.645651 	25351 	25351 	0 	
8.88889e-05 	1.61315e-08 	0.92 	0.04 	0.04 	-0.125904 	-1.51939e-05 	
0.12622 	-0.00201166 	0.128231 	2.222 	9.78874e-08 	17.778 	2.222 	
5.56901e-11 	46455.9 	174.649 	291.081 	0.35 	2.16667 	1.02554 	1.11111e-05 	
0.000722222 	0.000481481 	0.00048199 	25831.2 	0.0840562 	0.189896 	25831.1 	25831.1 	0 	
0.0001 	1.70803e-08 	0.92 	0.04 	0.04 	-0.125904 	-1.53838e-05 	
0.12622 	-0.00201166 	0.128231 	1.111 	9.78874e-08 	19.4445 	0.5555 	
2.7845e-11 	23228 	87.3243 	145.541 	0.35 	1.08333 	1.02554 	5.55556e-06 	
0.000361111 	0.000240741 	0.000473261 	25350.1 	0.0945213 	0.0379791 	25350 	25350 	0 	
ZONE T = "t = 3e-08 [s]" I = 10 SOLUTIONTIME = 3.0000000000000E-08
0 	9.49097e-10 	0.92 	0.04 	0.04 	-0.125904 	0 	
0.125904 	-0.00201166 	0.127916 	1.11133 	5.75908e-09 	0.555667 	19.4443 	
5.57068e-11 	23228 	87.3243 	145.541 	0.35 	1.08333 	1.02585 	5.55556e-06 	
0.000361111 	0.000240741 	0.000730737 	25545.6 	0.000490787 	16.4668 	25540.1 	25540.1 	0 	
1.11111e-05 	2.84717e-09 	0.92 	0.04 	0.04 	-0.125904 	-3.22883e-06 	
0.125901 	-0.00201166 	0.127912 	2.22253 	1.72765e-08 	2.2226 	17.7774 	
1.11406e-10 	46455.9 	174.649 	291.081 	0.35 	2.16667 	1.02578 	1.11111e-05 	
0.000722222 	0.000481481 	0.00073258 	25574.8 	0.00245375 	14.6433 	25569.9 	25569.9 	0 	
2.22222e-05 	4.74514e-09 	0.92 	0.04 	0.04 	-0.125904 	-6.07774e-06 	
0.125898 	-0.00201166 	0.12791 	2.2224 	2.87933e-08 	4.44506 	15.5549 	
1.114e-10 	46455.9 	174.649 	291.081 	0.35 	2.16667 	1.02572 	1.11111e-05 	
0.000722222 	0.000481481 	0.00073243 	25569.8 	0.00834228 	11.2242 	25566 	25566 	0 	
3.33333e-05 	6.64301e-09 	0.92 	0.04 	0.04 	-0.125904 	-8.54676e-06 	
0.125895 	-0.00201166 	0.127907 	2.22229 	4.03095e-08 	6.66741 	13.3326 	
1.11395e-10 	46455.9 	174.649 	291.081 	0.35 	2.16667 	1.02567 	1.11111e-05 	
0.000722222 	0.000481481 	0.000731901 	25623.6 	0.0181558 	8.26119 	25620.8 	25620.8 	0 	
4.44444e-05 	8.54081e-09 	0.92 	0.04 	0.04 	-0.125904 	-1.06359e-05 	
0.125893 	-0.00201166 	0.127905 	2.2222 	5.18253e-08 	8.88966 	11.1103 	
1.1139e-10 	46455.9 	174.649 	291.081 	0.35 	2.16667 	1.02563 	1.11111e-05 	
0.000722222 	0.000481481 	0.000731791 	25619.9 	0.0318937 	5.75419 	25618 	25618 	0 	
5.55556e-05 	1.04385e-08 	0.92 	0.04 	0.04 	-0.125904 	-1.23452e-05 	
0.125892 	-0.00201166 	0.127903 	2.22213 	6.33407e-08 	11.1118 	8.88817 	
1.11386e-10 	46455.9 	174.649 	291.081 	0.35 	2.16667 	1.0256 	1.11111e-05 	
0.000722222 	0.000481481 	0.000731582 	25541.9 	0.0495558 	3.70311 	25540.7 	25540.7 	0 	
6.66667e-05 	1.23362e-08 	0.92 	0.04 	0.04 	-0.125904 	-1.36746e-05 	
0.12589 	-0.00201166 	0.127902 	2.22207 	7.48557e-08 	13.3339 	6.66607 	
1.11384e-10 	46455.9 	174.649 	291.081 	0.35 	2.16667 	1.02557 	1.11111e-05 	
0.000722222 	0.000481481 	0.000740818 	25877.7 	0.0711416 	2.10789 	25877 	25877 	0 	
7.77778e-05 	1.42339e-08 	0.92 	0.04 	0.04 	-0.125904 	-1.46242e-05 	
0.125889 	-0.00201166 	0.127901 	2.22203 	8.63706e-08 	15.556 	4.44402 	
1.11381e-10 	46455.9 	174.649 	291.081 	0.35 	2.16667 	1.02555 	1.11111e-05 	
0.000722222 	0.000481481 	0.00072782 	25453.4 	0.0966512 	0.968477 	25453.1 	25453.1 	0 	
8.88889e-05 	1.61315e-08 	0.92 	0.04 	0.04 	-0.125904 	-1.51939e-05 	
0.125889 	-0.00201166 	0.127901 	2.22201 	9.78894e-08 	17.778 	2.222 	
1.1138e-10 	46455.9 	174.649 	291.081 	0.35 	2.16667 	1.02554 	1.11111e-05 	
0.000722222 	0.000481481 	0.00074074 	25875.1 	0.126084 	0.284844 	25874.9 	25874.9 	0 	
0.0001 	1.70803e-08 	0.92 	0.04 	0.04 	-0.125904 	-1.53838e-05 	
0.125889 	-0.00201166 	0.1279 	1.111 	9.78894e-08 	19.4445 	0.5555 	
5.56899e-11 	23228 	87.3243 	145.541 	0.35 	1.08333 	1.02554 	5.55556e-06 	
0.000361111 	0.000240741 	0.000727783 	25452.2 	0.141782 	0.0569686 	25452.1 	25452.1 	0 	
ZONE T = "t = 4e-08 [s]" I = 10 SOLUTIONTIME = 4.0000000000000E-08
0 	9.49097e-10 	0.92 	0.04 	0.04 	-0.125904 	0 	
0.125904 	-0.00201166 	0.127916 	1.11133 	5.75908e-09 	0.555667 	19.4443 	
8.35602e-11 	23228 	87.3243 	145.541 	0.35 	1.08333 	1.02585 	5.55556e-06 	
0.000361111 	0.000240741 	0.000985124 	25438.7 	0.000654382 	21.9558 	25433.3 	25433.3 	0 	
1.11111e-05 	2.84717e-09 	0.92 	0.04 	0.04 	-0.125904 	-3.22883e-06 	
0.125901 	-0.00201166 	0.127912 	2.22253 	1.72765e-08 	2.2226 	17.7774 	
1.6711e-10 	46455.9 	174.649 	291.081 	0.35 	2.16667 	1.02578 	1.11111e-05 	
0.000722222 	0.000481481 	0.000986797 	25421.7 	0.00327166 	19.5244 	25416.8 	25416.8 	0 	
2.22222e-05 	4.74514e-09 	0.92 	0.04 	0.04 	-0.125904 	-6.07774e-06 	
0.125898 	-0.00201166 	0.12791 	2.2224 	2.87933e-08 	4.44506 	15.5549 	
1.671e-10 	46455.9 	174.649 	291.081 	0.35 	2.16667 	1.02572 	1.11111e-05 	
0.000722222 	0.000481481 	0.000986596 	25416.7 	0.011123 	14.9656 	25412.9 	25412.9 	0 	
3.33333e-05 	6.64301e-09 	0.92 	0.04 	0.04 	-0.125904 	-8.54676e-06 	
0.125895 	-0.00201166 	0.127907 	2.22229 	4.03095e-08 	6.66741 	13.3326 	
1.67092e-10 	46455.9 	174.649 	291.081 	0.35 	2.16667 	1.02567 	1.11111e-05 	
0.000722222 	0.000481481 	0.000986016 	25411.5 	0.0242077 	11.0149 	25408.7 	25408.7 	0 	
4.44444e-05 	8.54081e-09 	0.92 	0.04 	0.04 	-0.125904 	-1.06359e-05 	
0.125893 	-0.00201166 	0.127905 	2.2222 	5.18253e-08 	8.88966 	11.1103 	
1.67085e-10 	46455.9 	174.649 	291.081 	0.35 	2.16667 	1.02563 	1.11111e-05 	
0.000722222 	0.000481481 	0.000985869 	25407.8 	0.042525 	7.67226 	25405.9 	25405.9 	0 	
5.55556e-05 	1.04385e-08 	0.92 	0.04 	0.04 	-0.125904 	-1.23452e-05 	
0.125892 	-0.00201166 	0.127903 	2.22213 	6.33407e-08 	11.1118 	8.88817 	
1.6708e-10 	46455.9 	174.649 	291.081 	0.35 	2.16667 	1.0256 	1.11111e-05 	
0.000722222 	0.000481481 	0.0009863 	25471.8 	0.0660744 	4.93748 	25470.5 	25470.5 	0 	
6.66667e-05 	1.23362e-08 	0.92 	0.04 	0.04 	-0.125904 	-1.36746e-05 	
0.12589 	-0.00201166 	0.127902 	2.22207 	7.48557e-08 	13.3339 	6.66607 	
1.67075e-10 	46455.9 	174.649 	291.081 	0.35 	2.16667 	1.02557 	1.11111e-05 	
0.000722222 	0.000481481 	0.000998989 	25817.1 	0.0948555 	2.81052 	25816.4 	25816.4 	0 	
7.77778e-05 	1.42339e-08 	0.92 	0.04 	0.04 	-0.125904 	-1.46242e-05 	
0.125889 	-0.00201166 	0.127901 	2.22203 	8.63706e-08 	15.556 	4.44402 	
1.67072e-10 	46455.9 	174.649 	291.081 	0.35 	2.16667 	1.02555 	1.11111e-05 	
0.000722222 	0.000481481 	0.000981071 	25325.1 	0.128868 	1.2913 	25324.7 	25324.7 	0 	
8.88889e-05 	1.61315e-08 	0.92 	0.04 	0.04 	-0.125904 	-1.51939e-05 	
0.125889 	-0.00201166 	0.127901 	2.22201 	9.78915e-08 	17.778 	2.222 	
1.6707e-10 	46455.9 	174.649 	291.081 	0.35 	2.16667 	1.02554 	1.11111e-05 	
0.000722222 	0.000481481 	0.000998885 	25814.5 	0.168112 	0.379792 	25814.3 	25814.3 	0 	
0.0001 	1.70803e-08 	0.92 	0.04 	0.04 	-0.125904 	-1.53838e-05 	
0.125889 	-0.00201166 	0.1279 	1.111 	9.78915e-08 	19.4445 	0.5555 	
8.35349e-11 	23228 	87.3243 	145.541 	0.35 	1.08333 	1.02554 	5.55556e-06 	
0.000361111 	0.000240741 	0.000981021 	25323.8 	0.189042 	0.0759582 	25323.7 	25323.7 	0 	
ZONE T = "t = 5.5e-08 [s]" I = 10 SOLUTIONTIME = 5.5000000000000E-08
0 	9.49097e-10 	0.92 	0.04 	0.04 	-0.125904 	0 	
0.125904 	-0.00201166 	0.127916 	1.11133 	5.75909e-09 	0.555667 	19.4443 	
1.11414e-10 	23228 	87.3243 	145.541 	0.35 	1.08333 	1.02585 	5.55556e-06 	
0.000361111 	0.000240741 	0.00136796 	25522.2 	0.00059985 	20.1261 	25516.7 	25516.7 	0 	
1.11111e-05 	2.84717e-09 	0.92 	0.04 	0.04 	-0.125904 	-3.22883e-06 	
0.125901 	-0.00201166 	0.127912 	2.22253 	1.72765e-08 	2.2226 	17.7774 	
2.22813e-10 	46455.9 	174.649 	291.081 	0.35 	2.16667 	1.02578 	1.11111e-05 	
0.000722222 	0.000481481 	0.00137124 	25629.3 	0.00299902 	17.8973 	25624.4 	25624.4 	0 	
2.22222e-05 	4.74514e-09 	0.92 	0.04 	0.04 	-0.125904 	-6.07774e-06 	
0.125898 	-0.00201166 	0.12791 	2.2224 	2.87933e-08 	4.44506 	15.5549 	
2.228e-10 	46455.9 	174.649 	291.081 	0.35 	2.16667 	1.02572 	1.11111e-05 	
0.000722222 	0.000481481 	0.00137145 	25656.7 	0.0101961 	13.7185 	25652.9 	25652.9 	0 	
3.33333e-05 	6.64301e-09 	0.92 	0.04 	0.04 	-0.125904 	-8.54676e-06 	
0.125895 	-0.00201166 	0.127907 	2.22229 	4.03095e-08 	6.66741 	13.3326 	
2.22789e-10 	46455.9 	174.649 	291.081 	0.35 	2.16667 	1.02567 	1.11111e-05 	
0.000722222 	0.000481481 	0.00137057 	25636.9 	0.0221904 	10.097 	25634.1 	25634.1 	0 	
4.44444e-05 	8.54081e-09 	0.92 	0.04 	0.04 	-0.125904 	-1.06359e-05 	
0.125893 	-0.00201166 	0.127905 	2.2222 	5.18253e-08 	8.88966 	11.1103 	
2.2278e-10 	46455.9 	174.649 	291.081 	0.35 	2.16667 	1.02563 	1.11111e-05 	
0.000722222 	0.000481481 	0.00137037 	25633.2 	0.0389812 	7.0329 	25631.3 	25631.3 	0 	
5.55556e-05 	1.04385e-08 	0.92 	0.04 	0.04 	-0.125904 	-1.23452e-05 	
0.125892 	-0.00201166 	0.127903 	2.22213 	6.33407e-08 	11.1118 	8.88817 	
2.22773e-10 	46455.9 	174.649 	291.081 	0.35 	2.16667 	1.0256 	1.11111e-05 	
0.000722222 	0.000481481 	0.00137049 	25612.6 	0.0605682 	4.52602 	25611.4 	25611.4 	0 	
6.66667e-05 	1.23362e-08 	0.92 	0.04 	0.04 	-0.125904 	-1.36746e-05 	
0.12589 	-0.00201166 	0.127902 	2.22207 	7.48557e-08 	13.3339 	6.66607 	
2.22767e-10 	46455.9 	174.649 	291.081 	0.35 	2.16667 	1.02557 	1.11111e-05 	
0.000722222 	0.000481481 	0.00138363 	25642.7 	0.0869509 	2.57631 	25642 	25642 	0 	
7.77778e-05 	1.42339e-08 	0.92 	0.04 	0.04 	-0.125904 	-1.46242e-05 	
0.125889 	-0.00201166 	0.127901 	2.22203 	8.63706e-08 	15.556 	4.44402 	
2.22763e-10 	46455.9 	174.649 	291.081 	0.35 	2.16667 	1.02555 	1.11111e-05 	
0.000722222 	0.000481481 	0.00136662 	25703.3 	0.118129 	1.18369 	25702.9 	25702.9 	0 	
8.88889e-05 	1.61315e-08 	0.92 	0.04 	0.04 	-0.125904 	-1.51939e-05 	
0.125889 	-0.00201166 	0.127901 	2.22201 	9.78936e-08 	17.778 	2.222 	
2.22761e-10 	46455.9 	174.649 	291.081 	0.35 	2.16667 	1.02554 	1.11111e-05 	
0.000722222 	0.000481481 	0.00138383 	25663 	0.154103 	0.348143 	25662.8 	25662.8 	0 	
0.0001 	1.70803e-08 	0.92 	0.04 	0.04 	-0.125904 	-1.53838e-05 	
0.125889 	-0.00201166 	0.1279 	1.111 	9.78936e-08 	19.4445 	0.5555 	
1.1138e-10 	23228 	87.3243 	145.541 	0.35 	1.08333 	1.02554 	5.55556e-06 	
0.000361111 	0.000240741 	0.00136655 	25702 	0.173289 	0.0696283 	25701.9 	25701.9 	0 	
ZONE T = "t = 7.75e-08 [s]" I = 10 SOLUTIONTIME = 7.7500000000000E-08
0 	9.49097e-10 	0.92 	0.04 	0.04 	-0.125904 	0 	
0.125904 	-0.00201166 	0.127916 	1.11133 	5.75909e-09 	0.555667 	19.4443 	
1.53194e-10 	23228 	87.3243 	145.541 	0.35 	1.08333 	1.02585 	5.55556e-06 	
0.000361111 	0.000240741 	0.00194294 	25554.8 	0.000563495 	18.9064 	25549.3 	25549.3 	0 	
1.11111e-05 	2.84717e-09 	0.92 	0.04 	0.04 	-0.125904 	-3.22883e-06 	
0.125901 	-0.00201166 	0.127912 	2.22253 	1.72765e-08 	2.2226 	17.7774 	
3.06368e-10 	46455.9 	174.649 	291.081 	0.35 	2.16667 	1.02578 	1.11111e-05 	
0.000722222 	0.000481481 	0.00194633 	25559.7 	0.00281726 	16.8126 	25554.8 	25554.8 	0 	
2.22222e-05 	4.74514e-09 	0.92 	0.04 	0.04 	-0.125904 	-6.07774e-06 	
0.125898 	-0.00201166 	0.12791 	2.2224 	2.87933e-08 	4.44506 	15.5549 	
3.0635e-10 	46455.9 	174.649 	291.081 	0.35 	2.16667 	1.02572 	1.11111e-05 	
0.000722222 	0.000481481 	0.00194951 	25691.8 	0.00957817 	12.887 	25688 	25688 	0 	
3.33333e-05 	6.64301e-09 	0.92 	0.04 	0.04 	-0.125904 	-8.54676e-06 	
0.125895 	-0.00201166 	0.127907 	2.22229 	4.03095e-08 	6.66741 	13.3326 	
3.06336e-10 	46455.9 	174.649 	291.081 	0.35 	2.16667 	1.02567 	1.11111e-05 	
0.000722222 	0.000481481 	0.0019472 	25627.8 	0.0208455 	9.48508 	25625.1 	25625.1 	0 	
4.44444e-05 	8.54081e-09 	0.92 	0.04 	0.04 	-0.125904 	-1.06359e-05 	
0.125893 	-0.00201166 	0.127905 	2.2222 	5.18253e-08 	8.88966 	11.1103 	
3.06323e-10 	46455.9 	174.649 	291.081 	0.35 	2.16667 	1.02563 	1.11111e-05 	
0.000722222 	0.000481481 	0.00194691 	25624.2 	0.0366187 	6.60667 	25622.2 	25622.2 	0 	
5.55556e-05 	1.04385e-08 	0.92 	0.04 	0.04 	-0.125904 	-1.23452e-05 	
0.125892 	-0.00201166 	0.127903 	2.22213 	6.33407e-08 	11.1118 	8.88817 	
3.06313e-10 	46455.9 	174.649 	291.081 	0.35 	2.16667 	1.0256 	1.11111e-05 	
0.000722222 	0.000481481 	0.00194606 	25580.7 	0.0568974 	4.25172 	25579.5 	25579.5 	0 	
6.66667e-05 	1.23362e-08 	0.92 	0.04 	0.04 	-0.125904 	-1.36746e-05 	
0.12589 	-0.00201166 	0.127902 	2.22207 	7.48557e-08 	13.3339 	6.66607 	
3.06305e-10 	46455.9 	174.649 	291.081 	0.35 	2.16667 	1.02557 	1.11111e-05 	
0.000722222 	0.000481481 	0.00196071 	25647.9 	0.0816811 	2.42017 	25647.1 	25647.1 	0 	
7.77778e-05 	1.42339e-08 	0.92 	0.04 	0.04 	-0.125904 	-1.46242e-05 	
0.125889 	-0.00201166 	0.127901 	2.22203 	8.63706e-08 	15.556 	4.44402 	
3.06299e-10 	46455.9 	174.649 	291.081 	0.35 	2.16667 	1.02555 	1.11111e-05 	
0.000722222 	0.000481481 	0.00194318 	25625 	0.11097 	1.11196 	25624.6 	25624.6 	0 	
8.88889e-05 	1.61315e-08 	0.92 	0.04 	0.04 	-0.125904 	-1.51939e-05 	
0.125889 	-0.00201166 	0.127901 	2.22201 	9.78968e-08 	17.778 	2.222 	
3.06296e-10 	46455.9 	174.649 	291.081 	0.35 	2.16667 	1.02554 	1.11111e-05 	
0.000722222 	0.000481481 	0.00196025 	25618.7 	0.144764 	0.327043 	25618.5 	25618.5 	0 	
0.0001 	1.70803e-08 	0.92 	0.04 	0.04 	-0.125904 	-1.53838e-05 	
0.125889 	-0.00201166 	0.1279 	1.111 	9.78968e-08 	19.4445 	0.5555 	
1.53147e-10 	23228 	87.3243 	145.541 	0.35 	1.08333 	1.02554 	5.55556e-06 	
0.000361111 	0.000240741 	0.00194308 	25623.7 	0.162787 	0.0654084 	25623.6 	25623.6 	0 	
ZONE T = "t = 1.1125e-07 [s]" I = 10 SOLUTIONTIME = 1.1125000000000E-07
0 	9.49097e-10 	0.92 	0.04 	0.04 	-0.125904 	0 	
0.125904 	-0.00201166 	0.127916 	1.11133 	5.75909e-09 	0.555667 	19.4443 	
2.15864e-10 	23228 	87.3243 	145.541 	0.35 	1.08333 	1.02585 	5.55556e-06 	
0.000361111 	0.000240741 	0.00280519 	25548.1 	0.000539259 	18.0932 	25542.6 	25542.6 	0 	
1.11111e-05 	2.84717e-09 	0.92 	0.04 	0.04 	-0.125904 	-3.22883e-06 	
0.125901 	-0.00201166 	0.127912 	2.22253 	1.72765e-08 	2.2226 	17.7774 	
4.317e-10 	46455.9 	174.649 	291.081 	0.35 	2.16667 	1.02578 	1.11111e-05 	
0.000722222 	0.000481481 	0.00281116 	25624.8 	0.00269609 	16.0895 	25619.9 	25619.9 	0 	
2.22222e-05 	4.74514e-09 	0.92 	0.04 	0.04 	-0.125904 	-6.07774e-06 	
0.125898 	-0.00201166 	0.12791 	2.2224 	2.87933e-08 	4.44506 	15.5549 	
4.31676e-10 	46455.9 	174.649 	291.081 	0.35 	2.16667 	1.02572 	1.11111e-05 	
0.000722222 	0.000481481 	0.00281316 	25589.7 	0.00916621 	12.3328 	25586 	25586 	0 	
3.33333e-05 	6.64301e-09 	0.92 	0.04 	0.04 	-0.125904 	-8.54676e-06 	
0.125895 	-0.00201166 	0.127907 	2.22229 	4.03095e-08 	6.66741 	13.3326 	
4.31655e-10 	46455.9 	174.649 	291.081 	0.35 	2.16667 	1.02567 	1.11111e-05 	
0.000722222 	0.000481481 	0.00280982 	25559.1 	0.0199489 	9.07712 	25556.3 	25556.3 	0 	
4.44444e-05 	8.54081e-09 	0.92 	0.04 	0.04 	-0.125904 	-1.06359e-05 	
0.125893 	-0.00201166 	0.127905 	2.2222 	5.18253e-08 	8.88966 	11.1103 	
4.31637e-10 	46455.9 	174.649 	291.081 	0.35 	2.16667 	1.02563 	1.11111e-05 	
0.000722222 	0.000481481 	0.00281072 	25594.4 	0.0350437 	6.32251 	25592.5 	25592.5 	0 	
5.55556e-05 	1.04385e-08 	0.92 	0.04 	0.04 	-0.125904 	-1.23452e-05 	
0.125892 	-0.00201166 	0.127903 	2.22213 	6.33407e-08 	11.1118 	8.88817 	
4.31622e-10 	46455.9 	174.649 	291.081 	0.35 	2.16667 	1.0256 	1.11111e-05 	
0.000722222 	0.000481481 	0.0028092 	25574.6 	0.0544502 	4.06885 	25573.3 	25573.3 	0 	
6.66667e-05 	1.23362e-08 	0.92 	0.04 	0.04 	-0.125904 	-1.36746e-05 	
0.12589 	-0.00201166 	0.127902 	2.22207 	7.48557e-08 	13.3339 	6.66607 	
4.31611e-10 	46455.9 	174.649 	291.081 	0.35 	2.16667 	1.02557 	1.11111e-05 	
0.000722222 	0.000481481 	0.00282345 	25562.8 	0.078168 	2.31608 	25562.1 	25562.1 	0 	
7.77778e-05 	1.42339e-08 	0.92 	0.04 	0.04 	-0.125904 	-1.46242e-05 	
0.125889 	-0.00201166 	0.127901 	2.22203 	8.63706e-08 	15.556 	4.44402 	
4.31603e-10 	46455.9 	174.649 	291.081 	0.35 	2.16667 	1.02555 	1.11111e-05 	
0.000722222 	0.000481481 	0.00280511 	25538.5 	0.106197 	1.06413 	25538.1 	25538.1 	0 	
8.88889e-05 	1.61315e-08 	0.92 	0.04 	0.04 	-0.125904 	-1.51939e-05 	
0.125889 	-0.00201166 	0.127901 	2.22201 	9.79017e-08 	17.778 	2.222 	
4.31599e-10 	46455.9 	174.649 	291.081 	0.35 	2.16667 	1.02554 	1.11111e-05 	
0.000722222 	0.000481481 	0.00282216 	25538 	0.138537 	0.312977 	25537.9 	25537.9 	0 	
0.0001 	1.70803e-08 	0.92 	0.04 	0.04 	-0.125904 	-1.53838e-05 	
0.125889 	-0.00201166 	0.1279 	1.111 	9.79017e-08 	19.4445 	0.5555 	
2.15799e-10 	23228 	87.3243 	145.541 	0.35 	1.08333 	1.02554 	5.55556e-06 	
0.000361111 	0.000240741 	0.00280497 	25537.2 	0.155785 	0.0625952 	25537.2 	25537.2 	0 	
ZONE T = "t = 1.61875e-07 [s]" I = 10 SOLUTIONTIME = 1.6187500000000E-07
0 	9.49097e-10 	0.92 	0.04 	0.04 	-0.125904 	0 	
0.125904 	-0.00201166 	0.127916 	1.11133 	5.75909e-09 	0.555667 	19.4443 	
3.09869e-10 	23228 	87.3243 	145.541 	0.35 	1.08333 	1.02585 	5.55556e-06 	
0.000361111 	0.000240741 	0.00409964 	25569.4 	0.000523101 	17.5511 	25563.9 	25563.9 	0 	
1.11111e-05 	2.84717e-09 	0.92 	0.04 	0.04 	-0.125904 	-3.22883e-06 	
0.125901 	-0.00201166 	0.127912 	2.22253 	1.72765e-08 	2.2226 	17.7774 	
6.19698e-10 	46455.9 	174.649 	291.081 	0.35 	2.16667 	1.02578 	1.11111e-05 	
0.000722222 	0.000481481 	0.00410497 	25556.6 	0.00261531 	15.6074 	25551.8 	25551.8 	0 	
2.22222e-05 	4.74514e-09 	0.92 	0.04 	0.04 	-0.125904 	-6.07774e-06 	
0.125898 	-0.00201166 	0.12791 	2.2224 	2.87933e-08 	4.44506 	15.5549 	
6.19663e-10 	46455.9 	174.649 	291.081 	0.35 	2.16667 	1.02572 	1.11111e-05 	
0.000722222 	0.000481481 	0.00410687 	25554.7 	0.00889156 	11.9632 	25551 	25551 	0 	
3.33333e-05 	6.64301e-09 	0.92 	0.04 	0.04 	-0.125904 	-8.54676e-06 	
0.125895 	-0.00201166 	0.127907 	2.22229 	4.03095e-08 	6.66741 	13.3326 	
6.19633e-10 	46455.9 	174.649 	291.081 	0.35 	2.16667 	1.02567 	1.11111e-05 	
0.000722222 	0.000481481 	0.00410457 	25575.4 	0.0193512 	8.80514 	25572.6 	25572.6 	0 	
4.44444e-05 	8.54081e-09 	0.92 	0.04 	0.04 	-0.125904 	-1.06359e-05 	
0.125893 	-0.00201166 	0.127905 	2.2222 	5.18253e-08 	8.88966 	11.1103 	
6.19608e-10 	46455.9 	174.649 	291.081 	0.35 	2.16667 	1.02563 	1.11111e-05 	
0.000722222 	0.000481481 	0.00410499 	25565.7 	0.0339937 	6.13307 	25563.8 	25563.8 	0 	
5.55556e-05 	1.04385e-08 	0.92 	0.04 	0.04 	-0.125904 	-1.23452e-05 	
0.125892 	-0.00201166 	0.127903 	2.22213 	6.33407e-08 	11.1118 	8.88817 	
6.19587e-10 	46455.9 	174.649 	291.081 	0.35 	2.16667 	1.0256 	1.11111e-05 	
0.000722222 	0.000481481 	0.0041044 	25584.1 	0.0528187 	3.94694 	25582.9 	25582.9 	0 	
6.66667e-05 	1.23362e-08 	0.92 	0.04 	0.04 	-0.125904 	-1.36746e-05 	
0.12589 	-0.00201166 	0.127902 	2.22207 	7.48557e-08 	13.3339 	6.66607 	
6.19571e-10 	46455.9 	174.649 	291.081 	0.35 	2.16667 	1.02557 	1.11111e-05 	
0.000722222 	0.000481481 	0.00411789 	25569.2 	0.0758258 	2.24668 	25568.5 	25568.5 	0 	
7.77778e-05 	1.42339e-08 	0.92 	0.04 	0.04 	-0.125904 	-1.46242e-05 	
0.125889 	-0.00201166 	0.127901 	2.22203 	8.63707e-08 	15.556 	4.44402 	
6.1956e-10 	46455.9 	174.649 	291.081 	0.35 	2.16667 	1.02555 	1.11111e-05 	
0.000722222 	0.000481481 	0.00409872 	25552.9 	0.103015 	1.03225 	25552.5 	25552.5 	0 	
8.88889e-05 	1.61315e-08 	0.92 	0.04 	0.04 	-0.125904 	-1.51939e-05 	
0.125889 	-0.00201166 	0.127901 	2.22201 	9.79094e-08 	17.778 	2.222 	
6.19553e-10 	46455.9 	174.649 	291.081 	0.35 	2.16667 	1.02554 	1.11111e-05 	
0.000722222 	0.000481481 	0.00411662 	25569.7 	0.134386 	0.3036 	25569.6 	25569.6 	0 	
0.0001 	1.70803e-08 	0.92 	0.04 	0.04 	-0.125904 	-1.53838e-05 	
0.125889 	-0.00201166 	0.1279 	1.111 	9.79094e-08 	19.4445 	0.5555 	
3.09775e-10 	23228 	87.3243 	145.541 	0.35 	1.08333 	1.02554 	5.55556e-06 	
0.000361111 	0.000240741 	0.00409893 	25559.8 	0.151117 	0.0607197 	25559.8 	25559.8 	0 	
ZONE T = "t = 2.37813e-07 [s]" I = 10 SOLUTIONTIME = 2.3781250000000E-07
0 	9.49097e-10 	0.92 	0.04 	0.04 	-0.125904 	0 	
0.125904 	-0.00201166 	0.127916 	1.11133 	5.75909e-09 	0.555667 	19.4443 	
4.50877e-10 	23228 	87.3243 	145.541 	0.35 	1.08333 	1.02585 	5.55556e-06 	
0.000361111 	0.000240741 	0.00604379 	25602 	0.00051233 	17.1897 	25596.5 	25596.5 	0 	
1.11111e-05 	2.84717e-09 	0.92 	0.04 	0.04 	-0.125904 	-3.22883e-06 	
0.125901 	-0.00201166 	0.127912 	2.22253 	1.72765e-08 	2.2226 	17.7774 	
9.01696e-10 	46455.9 	174.649 	291.081 	0.35 	2.16667 	1.02578 	1.11111e-05 	
0.000722222 	0.000481481 	0.00604849 	25593.7 	0.00256145 	15.2861 	25588.8 	25588.8 	0 	
2.22222e-05 	4.74514e-09 	0.92 	0.04 	0.04 	-0.125904 	-6.07774e-06 	
0.125898 	-0.00201166 	0.12791 	2.2224 	2.87933e-08 	4.44506 	15.5549 	
9.01645e-10 	46455.9 	174.649 	291.081 	0.35 	2.16667 	1.02572 	1.11111e-05 	
0.000722222 	0.000481481 	0.00605003 	25589 	0.00870847 	11.7169 	25585.2 	25585.2 	0 	
3.33333e-05 	6.64301e-09 	0.92 	0.04 	0.04 	-0.125904 	-8.54676e-06 	
0.125895 	-0.00201166 	0.127907 	2.22229 	4.03095e-08 	6.66741 	13.3326 	
9.01601e-10 	46455.9 	174.649 	291.081 	0.35 	2.16667 	1.02567 	1.11111e-05 	
0.000722222 	0.000481481 	0.00604727 	25582.9 	0.0189527 	8.62383 	25580.1 	25580.1 	0 	
4.44444e-05 	8.54081e-09 	0.92 	0.04 	0.04 	-0.125904 	-1.06359e-05 	
0.125893 	-0.00201166 	0.127905 	2.2222 	5.18253e-08 	8.88966 	11.1103 	
9.01564e-10 	46455.9 	174.649 	291.081 	0.35 	2.16667 	1.02563 	1.11111e-05 	
0.000722222 	0.000481481 	0.00604782 	25584.7 	0.0332937 	6.00678 	25582.7 	25582.7 	0 	
5.55556e-05 	1.04385e-08 	0.92 	0.04 	0.04 	-0.125904 	-1.23452e-05 	
0.125892 	-0.00201166 	0.127903 	2.22213 	6.33407e-08 	11.1118 	8.88817 	
9.01534e-10 	46455.9 	174.649 	291.081 	0.35 	2.16667 	1.0256 	1.11111e-05 	
0.000722222 	0.000481481 	0.00604624 	25571.6 	0.051731 	3.86566 	25570.3 	25570.3 	0 	
6.66667e-05 	1.23362e-08 	0.92 	0.04 	0.04 	-0.125904 	-1.36746e-05 	
0.12589 	-0.00201166 	0.127902 	2.22207 	7.48557e-08 	13.3339 	6.66607 	
9.01511e-10 	46455.9 	174.649 	291.081 	0.35 	2.16667 	1.02557 	1.11111e-05 	
0.000722222 	0.000481481 	0.00606142 	25593.7 	0.0742644 	2.20042 	25593 	25593 	0 	
7.77778e-05 	1.42339e-08 	0.92 	0.04 	0.04 	-0.125904 	-1.46242e-05 	