TITLE = "Solution on Domain BulkDomain1D_1"
VARIABLES = "x [m]"  
"Vel_axial" 	"MF_sp(ECDMC)" 	"MF_sp(Li+)" 	"MF_sp(PF6-)" 	"Volt(Electroly)" 	"qHeat_accum [J/m3]" 	"qHeat_step [W/m3]" 	"Joule_Lyte [W/m3]" 	"Joule_Solid [W/m3]" 	
ZONE T = "t = 0 [s]" I = 10 SOLUTIONTIME = 0.0000000000000E+00
0.0001 	0 	0.843947 	0.0780266 	0.0780266 	-0.07 	
0 	0.0 	 0.0 	 0.0 	 
0.000102778 	0 	0.843947 	0.0780266 	0.0780266 	-0.07 	
0 	0.0 	 0.0 	 0.0 	 
0.000105556 	0 	0.843947 	0.0780266 	0.0780266 	-0.07 	
0 	0.0 	 0.0 	 0.0 	 
0.000108333 	0 	0.843947 	0.0780266 	0.0780266 	-0.07 	
0 	0.0 	 0.0 	 0.0 	 
0.000111111 	0 	0.843947 	0.0780266 	0.0780266 	-0.07 	
0 	0.0 	 0.0 	 0.0 	 
0.000113889 	0 	0.843947 	0.0780266 	0.0780266 	-0.07 	
0 	0.0 	 0.0 	 0.0 	 
0.000116667 	0 	0.843947 	0.0780266 	0.0780266 	-0.07 	
0 	0.0 	 0.0 	 0.0 	 
0.000119444 	0 	0.843947 	0.0780266 	0.0780266 	-0.07 	
0 	0.0 	 0.0 	 0.0 	 
0.000122222 	0 	0.843947 	0.0780266 	0.0780266 	-0.07 	
0 	0.0 	 0.0 	 0.0 	 
0.000125 	0 	0.843947 	0.0780266 	0.0780266 	-0.07 	
0 	0.0 	 0.0 	 0.0 	 
ZONE T = "t = 1e-08 [s]" I = 10 SOLUTIONTIME = 1.0000000000000E-08
0.0001 	6.12179e-09 	0.843947 	0.0780266 	0.0780266 	-0.12133 	
5.32572e-11 	0.00532572 	0.00532572 	0 	
0.000102778 	6.11545e-09 	0.843947 	0.0780266 	0.0780266 	-0.12133 	
5.32572e-11 	0.00532572 	0.00532572 	0 	
0.000105556 	6.11545e-09 	0.843947 	0.0780266 	0.0780266 	-0.12133 	
5.32572e-11 	0.00532572 	0.00532572 	0 	
0.000108333 	6.11545e-09 	0.843947 	0.0780266 	0.0780266 	-0.12133 	
5.32572e-11 	0.00532572 	0.00532572 	0 	
0.000111111 	6.11545e-09 	0.843947 	0.0780266 	0.0780266 	-0.12133 	
5.32572e-11 	0.00532572 	0.00532572 	0 	
0.000113889 	6.11545e-09 	0.843947 	0.0780266 	0.0780266 	-0.12133 	
5.32572e-11 	0.00532572 	0.00532572 	0 	
0.000116667 	6.11545e-09 	0.843947 	0.0780266 	0.0780266 	-0.12133 	
5.32572e-11 	0.00532572 	0.00532572 	0 	
0.000119444 	6.11555e-09 	0.843947 	0.0780266 	0.0780266 	-0.12133 	
5.32572e-11 	0.00532572 	0.00532572 	0 	
0.000122222 	6.12068e-09 	0.843947 	0.0780266 	0.0780266 	-0.12133 	
5.32572e-11 	0.00532572 	0.00532572 	0 	
0.000125 	4.77562e-09 	0.843947 	0.0780266 	0.0780266 	-0.12133 	
5.32572e-11 	0.00532572 	0.00532572 	0 	
ZONE T = "t = 2e-08 [s]" I = 10 SOLUTIONTIME = 2.0000000000000E-08
0.0001 	6.1276e-09 	0.843947 	0.0780266 	0.0780266 	-0.121329 	
1.06514e-10 	0.00532572 	0.00532572 	0 	
0.000102778 	6.11523e-09 	0.843947 	0.0780266 	0.0780266 	-0.121329 	
1.06514e-10 	0.00532572 	0.00532572 	0 	
0.000105556 	6.11491e-09 	0.843947 	0.0780266 	0.0780266 	-0.121329 	
1.06514e-10 	0.00532572 	0.00532572 	0 	
0.000108333 	6.11491e-09 	0.843947 	0.0780266 	0.0780266 	-0.121329 	
1.06514e-10 	0.00532572 	0.00532572 	0 	
0.000111111 	6.11491e-09 	0.843947 	0.0780266 	0.0780266 	-0.121329 	
1.06514e-10 	0.00532572 	0.00532572 	0 	
0.000113889 	6.11491e-09 	0.843947 	0.0780266 	0.0780266 	-0.121329 	
1.06514e-10 	0.00532572 	0.00532572 	0 	
0.000116667 	6.11491e-09 	0.843947 	0.0780266 	0.0780266 	-0.121329 	
1.06514e-10 	0.00532572 	0.00532572 	0 	
0.000119444 	6.11507e-09 	0.843947 	0.0780266 	0.0780266 	-0.121329 	
1.06514e-10 	0.00532572 	0.00532572 	0 	
0.000122222 	6.12527e-09 	0.843947 	0.0780266 	0.0780266 	-0.121329 	
1.06514e-10 	0.00532572 	0.00532572 	0 	
0.000125 	4.77516e-09 	0.843947 	0.0780266 	0.0780266 	-0.121329 	
1.06514e-10 	0.00532572 	0.00532572 	0 	
ZONE T = "t = 3e-08 [s]" I = 10 SOLUTIONTIME = 3.0000000000000E-08
0.0001 	6.13316e-09 	0.843947 	0.0780266 	0.0780266 	-0.121329 	
1.59772e-10 	0.00532572 	0.00532572 	0 	
0.000102778 	6.11477e-09 	0.843947 	0.0780266 	0.0780266 	-0.121329 	
1.59772e-10 	0.00532572 	0.00532572 	0 	
0.000105556 	6.11434e-09 	0.843947 	0.0780266 	0.0780266 	-0.121329 	
1.59772e-10 	0.00532572 	0.00532572 	0 	
0.000108333 	6.11434e-09 	0.843947 	0.0780266 	0.0780266 	-0.121329 	
1.59772e-10 	0.00532572 	0.00532572 	0 	
0.000111111 	6.11434e-09 	0.843947 	0.0780266 	0.0780266 	-0.121329 	
1.59772e-10 	0.00532572 	0.00532572 	0 	
0.000113889 	6.11434e-09 	0.843947 	0.0780266 	0.0780266 	-0.121329 	
1.59772e-10 	0.00532572 	0.00532572 	0 	
0.000116667 	6.11444e-09 	0.843947 	0.0780266 	0.0780266 	-0.121329 	
1.59772e-10 	0.00532572 	0.00532572 	0 	
0.000119444 	6.11481e-09 	0.843947 	0.0780266 	0.0780266 	-0.121329 	
1.59772e-10 	0.00532572 	0.00532572 	0 	
0.000122222 	6.12962e-09 	0.843947 	0.0780266 	0.0780266 	-0.121329 	
1.59772e-10 	0.00532572 	0.00532572 	0 	
0.000125 	4.77464e-09 	0.843947 	0.0780266 	0.0780266 	-0.121329 	
1.59772e-10 	0.00532572 	0.00532572 	0 	
ZONE T = "t = 4e-08 [s]" I = 10 SOLUTIONTIME = 4.0000000000000E-08
0.0001 	6.14023e-09 	0.843947 	0.0780266 	0.0780266 	-0.121329 	
2.13029e-10 	0.00532572 	0.00532572 	0 	
0.000102778 	6.11628e-09 	0.843947 	0.0780266 	0.0780266 	-0.121329 	
2.13029e-10 	0.00532572 	0.00532572 	0 	
0.000105556 	6.1156e-09 	0.843947 	0.0780266 	0.0780266 	-0.121329 	
2.13029e-10 	0.00532572 	0.00532572 	0 	
0.000108333 	6.1156e-09 	0.843947 	0.0780266 	0.0780266 	-0.121329 	
2.13029e-10 	0.00532572 	0.00532572 	0 	
0.000111111 	6.1156e-09 	0.843947 	0.0780266 	0.0780266 	-0.121329 	
2.13029e-10 	0.00532572 	0.00532572 	0 	
0.000113889 	6.1156e-09 	0.843947 	0.0780266 	0.0780266 	-0.121329 	
2.13029e-10 	0.00532572 	0.00532572 	0 	
0.000116667 	6.11554e-09 	0.843947 	0.0780266 	0.0780266 	-0.121329 	
2.13029e-10 	0.00532572 	0.00532572 	0 	
0.000119444 	6.11623e-09 	0.843947 	0.0780266 	0.0780266 	-0.121329 	
2.13029e-10 	0.00532572 	0.00532572 	0 	
0.000122222 	6.13585e-09 	0.843947 	0.0780266 	0.0780266 	-0.121329 	
2.13029e-10 	0.00532572 	0.00532572 	0 	
0.000125 	4.77638e-09 	0.843947 	0.0780266 	0.0780266 	-0.121329 	
2.13029e-10 	0.00532572 	0.00532572 	0 	
ZONE T = "t = 5.5e-08 [s]" I = 10 SOLUTIONTIME = 5.5000000000000E-08
0.0001 	6.14828e-09 	0.843947 	0.0780266 	0.0780266 	-0.121329 	
2.92915e-10 	0.00532572 	0.00532572 	0 	
0.000102778 	6.11617e-09 	0.843947 	0.0780266 	0.0780266 	-0.121329 	
2.92915e-10 	0.00532572 	0.00532572 	0 	
0.000105556 	6.11479e-09 	0.843947 	0.0780266 	0.0780266 	-0.121329 	
2.92915e-10 	0.00532572 	0.00532572 	0 	
0.000108333 	6.11472e-09 	0.843947 	0.0780266 	0.0780266 	-0.121329 	
2.92915e-10 	0.00532572 	0.00532572 	0 	
0.000111111 	6.11472e-09 	0.843947 	0.0780266 	0.0780266 	-0.121329 	
2.92915e-10 	0.00532572 	0.00532572 	0 	
0.000113889 	6.11472e-09 	0.843947 	0.0780266 	0.0780266 	-0.121329 	
2.92915e-10 	0.00532572 	0.00532572 	0 	
0.000116667 	6.11476e-09 	0.843947 	0.0780266 	0.0780266 	-0.121329 	
2.92915e-10 	0.00532572 	0.00532572 	0 	
0.000119444 	6.11581e-09 	0.843947 	0.0780266 	0.0780266 	-0.121329 	
2.92915e-10 	0.00532572 	0.00532572 	0 	
0.000122222 	6.142e-09 	0.843947 	0.0780266 	0.0780266 	-0.121329 	
2.92915e-10 	0.00532572 	0.00532572 	0 	
0.000125 	4.77564e-09 	0.843947 	0.0780266 	0.0780266 	-0.121329 	
2.92915e-10 	0.00532572 	0.00532572 	0 	
ZONE T = "t = 7.75e-08 [s]" I = 10 SOLUTIONTIME = 7.7500000000000E-08
0.0001 	6.1608e-09 	0.843947 	0.0780266 	0.0780266 	-0.121329 	
4.12743e-10 	0.00532572 	0.00532572 	0 	
0.000102778 	6.11751e-09 	0.843947 	0.0780266 	0.0780266 	-0.121329 	
4.12743e-10 	0.00532572 	0.00532572 	0 	
0.000105556 	6.11511e-09 	0.843947 	0.0780266 	0.0780266 	-0.121329 	
4.12743e-10 	0.00532572 	0.00532572 	0 	
0.000108333 	6.11504e-09 	0.843947 	0.0780266 	0.0780266 	-0.121329 	
4.12743e-10 	0.00532572 	0.00532572 	0 	
0.000111111 	6.11504e-09 	0.843947 	0.0780266 	0.0780266 	-0.121329 	
4.12743e-10 	0.00532572 	0.00532572 	0 	
0.000113889 	6.11504e-09 	0.843947 	0.0780266 	0.0780266 	-0.121329 	
4.12743e-10 	0.00532572 	0.00532572 	0 	
0.000116667 	6.11512e-09 	0.843947 	0.0780266 	0.0780266 	-0.121329 	
4.12743e-10 	0.00532572 	0.00532572 	0 	
0.000119444 	6.11709e-09 	0.843947 	0.0780266 	0.0780266 	-0.121329 	
4.12743e-10 	0.00532572 	0.00532572 	0 	
0.000122222 	6.15233e-09 	0.843947 	0.0780266 	0.0780266 	-0.121329 	
4.12743e-10 	0.00532572 	0.00532572 	0 	
0.000125 	4.77641e-09 	0.843947 	0.0780266 	0.0780266 	-0.121329 	
4.12743e-10 	0.00532572 	0.00532572 	0 	
ZONE T = "t = 1.1125e-07 [s]" I = 10 SOLUTIONTIME = 1.1125000000000E-07
0.0001 	6.17808e-09 	0.843947 	0.0780266 	0.0780266 	-0.121329 	
5.92486e-10 	0.00532572 	0.00532572 	0 	
0.000102778 	6.11987e-09 	0.843947 	0.0780266 	0.0780266 	-0.121329 	
5.92486e-10 	0.00532572 	0.00532572 	0 	
0.000105556 	6.11526e-09 	0.843947 	0.0780266 	0.0780266 	-0.121329 	
5.92486e-10 	0.00532572 	0.00532572 	0 	
0.000108333 	6.11496e-09 	0.843947 	0.0780266 	0.0780266 	-0.121329 	
5.92486e-10 	0.00532572 	0.00532572 	0 	
0.000111111 	6.11496e-09 	0.843947 	0.0780266 	0.0780266 	-0.121329 	
5.92486e-10 	0.00532572 	0.00532572 	0 	
0.000113889 	6.11498e-09 	0.843947 	0.0780266 	0.0780266 	-0.121329 	
5.92486e-10 	0.00532572 	0.00532572 	0 	
0.000116667 	6.11521e-09 	0.843947 	0.0780266 	0.0780266 	-0.121329 	
5.92486e-10 	0.00532572 	0.00532572 	0 	
0.000119444 	6.11901e-09 	0.843947 	0.0780266 	0.0780266 	-0.121329 	
5.92486e-10 	0.00532572 	0.00532572 	0 	
0.000122222 	6.16643e-09 	0.843947 	0.0780266 	0.0780266 	-0.121329 	
5.92486e-10 	0.00532572 	0.00532572 	0 	
0.000125 	4.77706e-09 	0.843947 	0.0780266 	0.0780266 	-0.121329 	
5.92486e-10 	0.00532572 	0.00532572 	0 	
ZONE T = "t = 1.61875e-07 [s]" I = 10 SOLUTIONTIME = 1.6187500000000E-07
0.0001 	6.20136e-09 	0.843947 	0.0780266 	0.0780266 	-0.121329 	
8.62101e-10 	0.00532572 	0.00532572 	0 	
0.000102778 	6.12431e-09 	0.843947 	0.0780266 	0.0780266 	-0.121329 	
8.62101e-10 	0.00532572 	0.00532572 	0 	
0.000105556 	6.11571e-09 	0.843947 	0.0780266 	0.0780266 	-0.121329 	
8.62101e-10 	0.00532572 	0.00532572 	0 	
0.000108333 	6.11496e-09 	0.843947 	0.0780266 	0.0780266 	-0.121329 	
8.62101e-10 	0.00532572 	0.00532572 	0 	
0.000111111 	6.1149e-09 	0.843947 	0.0780266 	0.0780266 	-0.121329 	
8.62101e-10 	0.00532572 	0.00532572 	0 	
0.000113889 	6.11495e-09 	0.843947 	0.0780266 	0.0780266 	-0.121329 	
8.62101e-10 	0.00532572 	0.00532572 	0 	
0.000116667 	6.11558e-09 	0.843947 	0.0780266 	0.0780266 	-0.121329 	
8.62101e-10 	0.00532572 	0.00532572 	0 	
0.000119444 	6.12256e-09 	0.843947 	0.0780266 	0.0780266 	-0.121329 	
8.62101e-10 	0.00532572 	0.00532572 	0 	
0.000122222 	6.18535e-09 	0.843947 	0.0780266 	0.0780266 	-0.121329 	
8.62101e-10 	0.00532572 	0.00532572 	0 	
0.000125 	4.7781e-09 	0.843947 	0.0780266 	0.0780266 	-0.121329 	
8.62101e-10 	0.00532572 	0.00532572 	0 	
ZONE T = "t = 2.37813e-07 [s]" I = 10 SOLUTIONTIME = 2.3781250000000E-07
0.0001 	6.23169e-09 	0.843947 	0.0780266 	0.0780266 	-0.121329 	
1.26652e-09 	0.00532572 	0.00532572 	0 	
0.000102778 	6.13257e-09 	0.843947 	0.0780266 	0.0780266 	-0.121329 	
1.26652e-09 	0.00532572 	0.00532572 	0 	
0.000105556 	6.11709e-09 	0.843947 	0.0780266 	0.0780266 	-0.121329 	
1.26652e-09 	0.00532572 	0.00532572 	0 	
0.000108333 	6.11517e-09 	0.843947 	0.0780266 	0.0780266 	-0.121329 	
1.26652e-09 	0.00532572 	0.00532572 	0 	
0.000111111 	6.11498e-09 	0.843947 	0.0780266 	0.0780266 	-0.121329 	
1.26652e-09 	0.00532572 	0.00532572 	0 	
0.000113889 	6.11514e-09 	0.843947 	0.0780266 	0.0780266 	-0.121329 	
1.26652e-09 	0.00532572 	0.00532572 	0 	
0.000116667 	6.11668e-09 	0.843947 	0.0780266 	0.0780266 	-0.121329 	
1.26652e-09 	0.00532572 	0.00532572 	0 	
0.000119444 	6.12929e-09 	0.843947 	0.0780266 	0.0780266 	-0.121329 	
1.26652e-09 	0.00532572 	0.00532572 	0 	
0.000122222 	6.21006e-09 	0.843947 	0.0780266 	0.0780266 	-0.121329 	
1.26652e-09 	0.00532572 	0.00532572 	0 	
0.000125 	4.77982e-09 	0.843947 	0.0780266 	0.0780266 	-0.121329 	
1.26652e-09 	0.00532572 	0.00532572 	0 	
ZONE T = "t = 3.51719e-07 [s]" I = 10 SOLUTIONTIME = 3.5171875000000E-07
0.0001 	6.26914e-09 	0.843947 	0.0780266 	0.0780266 	-0.121329 	
1.87316e-09 	0.00532572 	0.00532572 	0 	
0.000102778 	6.14673e-09 	0.843947 	0.0780266 	0.0780266 	-0.121329 	
1.87316e-09 	0.00532572 	0.00532572 	0 	
0.000105556 	6.12031e-09 	0.843947 	0.0780266 	0.0780266 	-0.121329 	
1.87316e-09 	0.00532572 	0.00532572 	0 	
0.000108333 	6.11575e-09 	0.843947 	0.0780266 	0.0780266 	-0.121329 	
1.87316e-09 	0.00532572 	0.00532572 	0 	
0.000111111 	6.11513e-09 	0.843947 	0.0780266 	0.0780266 	-0.121329 	
1.87316e-09 	0.00532572 	0.00532572 	0 	
0.000113889 	6.1156e-09 	0.843947 	0.0780266 	0.0780266 	-0.121329 	
1.87316e-09 	0.00532572 	0.00532572 	0 	
0.000116667 	6.11932e-09 	0.843947 	0.0780266 	0.0780266 	-0.121329 	
1.87316e-09 	0.00532572 	0.00532572 	0 	
0.000119444 	6.14084e-09 	0.843947 	0.0780266 	0.0780266 	-0.121329 	
1.87316e-09 	0.00532572 	0.00532572 	0 	
0.000122222 	6.24056e-09 	0.843947 	0.0780266 	0.0780266 	-0.121329 	
1.87316e-09 	0.00532572 	0.00532572 	0 	
0.000125 	4.78251e-09 	0.843947 	0.0780266 	0.0780266 	-0.121329 	
1.87316e-09 	0.00532572 	0.00532572 	0 	
ZONE T = "t = 5.22578e-07 [s]" I = 10 SOLUTIONTIME = 5.2257812500000E-07
0.0001 	6.31287e-09 	0.843947 	0.0780266 	0.0780266 	-0.121329 	
2.7831e-09 	0.00532572 	0.00532572 	0 	
0.000102778 	6.16926e-09 	0.843947 	0.0780266 	0.0780266 	-0.121329 	
2.7831e-09 	0.00532572 	0.00532572 	0 	
0.000105556 	6.1274e-09 	0.843947 	0.0780266 	0.0780266 	-0.121329 	
2.7831e-09 	0.00532572 	0.00532572 	0 	
0.000108333 	6.11754e-09 	0.843947 	0.0780266 	0.0780266 	-0.121329 	
2.7831e-09 	0.00532572 	0.00532572 	0 	
0.000111111 	6.11581e-09 	0.843947 	0.0780266 	0.0780266 	-0.121329 	
2.7831e-09 	0.00532572 	0.00532572 	0 	
0.000113889 	6.11709e-09 	0.843947 	0.0780266 	0.0780266 	-0.121329 	
2.7831e-09 	0.00532572 	0.00532572 	0 	
0.000116667 	6.1251e-09 	0.843947 	0.0780266 	0.0780266 	-0.121329 	
2.7831e-09 	0.00532572 	0.00532572 	0 	
0.000119444 	6.1592e-09 	0.843947 	0.0780266 	0.0780266 	-0.121329 	
2.7831e-09 	0.00532572 	0.00532572 	0 	
0.000122222 	6.27621e-09 	0.843947 	0.0780266 	0.0780266 	-0.121329 	
2.7831e-09 	0.00532572 	0.00532572 	0 	
0.000125 	4.78681e-09 	0.843947 	0.0780266 	0.0780266 	-0.121329 	
2.7831e-09 	0.00532572 	0.00532572 	0 	
ZONE T = "t = 7.78867e-07 [s]" I = 10 SOLUTIONTIME = 7.7886718750000E-07
0.0001 	6.36116e-09 	0.843947 	0.0780266 	0.0780266 	-0.121329 	
4.14803e-09 	0.00532572 	0.00532572 	0 	
0.000102778 	6.20195e-09 	0.843947 	0.0780266 	0.0780266 	-0.121329 	
4.14803e-09 	0.00532572 	0.00532572 	0 	
0.000105556 	6.14126e-09 	0.843947 	0.0780266 	0.0780266 	-0.121329 	
4.14803e-09 	0.00532572 	0.00532572 	0 	
0.000108333 	6.12238e-09 	0.843947 	0.0780266 	0.0780266 	-0.121329 	
4.14803e-09 	0.00532572 	0.00532572 	0 	
0.000111111 	6.11816e-09 	0.843947 	0.0780266 	0.0780266 	-0.121329 	
4.14803e-09 	0.00532572 	0.00532572 	0 	
0.000113889 	6.12114e-09 	0.843947 	0.0780266 	0.0780266 	-0.121329 	
4.14803e-09 	0.00532572 	0.00532572 	0 	
0.000116667 	6.13641e-09 	0.843947 	0.0780266 	0.0780266 	-0.121329 	
4.14803e-09 	0.00532572 	0.00532572 	0 	
0.000119444 	6.18583e-09 	0.843947 	0.0780266 	0.0780266 	-0.121329 	
4.14803e-09 	0.00532572 	0.00532572 	0 	
0.000122222 	6.31554e-09 	0.843947 	0.0780266 	0.0780266 	-0.121329 	
4.14803e-09 	0.00532572 	0.00532572 	0 	
0.000125 	4.79352e-09 	0.843947 	0.0780266 	0.0780266 	-0.121329 	
4.14803e-09 	0.00532572 	0.00532572 	0 	
ZONE T = "t = 1.1633e-06 [s]" I = 10 SOLUTIONTIME = 1.1633007812500E-06
0.0001 	6.4124e-09 	0.843947 	0.0780266 	0.0780266 	-0.121329 	
6.19541e-09 	0.00532572 	0.00532572 	0 	
0.000102778 	6.24536e-09 	0.843947 	0.0780266 	0.0780266 	-0.121329 	
6.19541e-09 	0.00532572 	0.00532572 	0 	
0.000105556 	6.1654e-09 	0.843947 	0.0780266 	0.0780266 	-0.121329 	
6.19541e-09 	0.00532572 	0.00532572 	0 	
0.000108333 	6.13385e-09 	0.843947 	0.0780266 	0.0780266 	-0.121329 	
6.19541e-09 	0.00532572 	0.00532572 	0 	
0.000111111 	6.12528e-09 	0.843947 	0.0780266 	0.0780266 	-0.121329 	
6.19541e-09 	0.00532572 	0.00532572 	0 	
0.000113889 	6.13094e-09 	0.843947 	0.0780266 	0.0780266 	-0.121329 	
6.19541e-09 	0.00532572 	0.00532572 	0 	
0.000116667 	6.15623e-09 	0.843947 	0.0780266 	0.0780266 	-0.121329 	
6.19541e-09 	0.00532572 	0.00532572 	0 	
0.000119444 	6.22126e-09 	0.843947 	0.0780266 	0.0780266 	-0.121329 	
6.19541e-09 	0.00532572 	0.00532572 	0 	
0.000122222 	6.35733e-09 	0.843947 	0.0780266 	0.0780266 	-0.121329 	
6.19541e-09 	0.00532572 	0.00532572 	0 	
0.000125 	4.80409e-09 	0.843947 	0.0780266 	0.0780266 	-0.121329 	
6.19541e-09 	0.00532572 	0.00532572 	0 	
ZONE T = "t = 1.73995e-06 [s]" I = 10 SOLUTIONTIME = 1.7399511718750E-06
0.0001 	6.46607e-09 	0.843947 	0.0780266 	0.0780266 	-0.121329 	
9.26649e-09 	0.00532572 	0.00532572 	0 	
0.000102778 	6.29875e-09 	0.843947 	0.0780266 	0.0780266 	-0.121329 	
9.26649e-09 	0.00532572 	0.00532572 	0 	
0.000105556 	6.20287e-09 	0.843947 	0.0780266 	0.0780266 	-0.121329 	
9.26649e-09 	0.00532572 	0.00532572 	0 	
0.000108333 	6.15715e-09 	0.843947 	0.0780266 	0.0780266 	-0.121329 	
9.26649e-09 	0.00532572 	0.00532572 	0 	
0.000111111 	6.14263e-09 	0.843947 	0.0780266 	0.0780266 	-0.121329 	
9.26649e-09 	0.00532572 	0.00532572 	0 	
0.000113889 	6.15133e-09 	0.843947 	0.0780266 	0.0780266 	-0.121329 	
9.26649e-09 	0.00532572 	0.00532572 	0 	
0.000116667 	6.18733e-09 	0.843947 	0.0780266 	0.0780266 	-0.121329 	
9.26649e-09 	0.00532572 	0.00532572 	0 	
0.000119444 	6.26497e-09 	0.843947 	0.0780266 	0.0780266 	-0.121329 	
9.26649e-09 	0.00532572 	0.00532572 	0 	
0.000122222 	6.40111e-09 	0.843947 	0.0780266 	0.0780266 	-0.121329 	
9.26649e-09 	0.00532572 	0.00532572 	0 	
0.000125 	4.82025e-09 	0.843947 	0.0780266 	0.0780266 	-0.121329 	
9.26649e-09 	0.00532572 	0.00532572 	0 	
ZONE T = "t = 2.60493e-06 [s]" I = 10 SOLUTIONTIME = 2.6049267578125E-06
0.0001 	6.52401e-09 	0.843947 	0.0780266 	0.0780266 	-0.121329 	
1.38731e-08 	0.00532572 	0.00532572 	0 	
0.000102778 	6.36201e-09 	0.843947 	0.0780266 	0.0780266 	-0.121329 	
1.38731e-08 	0.00532572 	0.00532572 	0 	
0.000105556 	6.25645e-09 	0.843947 	0.0780266 	0.0780266 	-0.121329 	
1.38731e-08 	0.00532572 	0.00532572 	0 	
0.000108333 	6.19868e-09 	0.843947 	0.0780266 	0.0780266 	-0.121329 	
1.38731e-08 	0.00532572 	0.00532572 	0 	
0.000111111 	6.17794e-09 	0.843947 	0.0780266 	0.0780266 	-0.121329 	
1.38731e-08 	0.00532572 	0.00532572 	0 	
0.000113889 	6.18869e-09 	0.843947 	0.0780266 	0.0780266 	-0.121329 	
1.38731e-08 	0.00532572 	0.00532572 	0 	
0.000116667 	6.23276e-09 	0.843947 	0.0780266 	0.0780266 	-0.121329 	
1.38731e-08 	0.00532572 	0.00532572 	0 	
0.000119444 	6.31735e-09 	0.843947 	0.0780266 	0.0780266 	-0.121329 	
1.38731e-08 	0.00532572 	0.00532572 	0 	
0.000122222 	6.44867e-09 	0.843947 	0.0780266 	0.0780266 	-0.121329 	
1.38731e-08 	0.00532572 	0.00532572 	0 	
0.000125 	4.84467e-09 	0.843947 	0.0780266 	0.0780266 	-0.121329 	
1.38731e-08 	0.00532572 	0.00532572 	0 	
ZONE T = "t = 3.90239e-06 [s]" I = 10 SOLUTIONTIME = 3.9023901367188E-06
0.0001 	6.59089e-09 	0.843947 	0.0780266 	0.0780266 	-0.121329 	
2.0783e-08 	0.00532572 	0.00532572 	0 	
0.000102778 	6.43767e-09 	0.843947 	0.0780266 	0.0780266 	-0.121329 	
2.0783e-08 	0.00532572 	0.00532572 	0 	
0.000105556 	6.32943e-09 	0.843947 	0.0780266 	0.0780266 	-0.121329 	
2.0783e-08 	0.00532572 	0.00532572 	0 	
0.000108333 	6.2646e-09 	0.843947 	0.0780266 	0.0780266 	-0.121329 	
2.0783e-08 	0.00532572 	0.00532572 	0 	
0.000111111 	6.23896e-09 	0.843947 	0.0780266 	0.0780266 	-0.121329 	
2.0783e-08 	0.00532572 	0.00532572 	0 	
0.000113889 	6.24963e-09 	0.843947 	0.0780266 	0.0780266 	-0.121329 	
2.0783e-08 	0.00532572 	0.00532572 	0 	
0.000116667 	6.29653e-09 	0.843947 	0.0780266 	0.0780266 	-0.121329 	
2.0783e-08 	0.00532572 	0.00532572 	0 	
0.000119444 	6.38136e-09 	0.843947 	0.0780266 	0.0780266 	-0.121329 	
2.0783e-08 	0.00532572 	0.00532572 	0 	
0.000122222 	6.50426e-09 	0.843947 	0.0780266 	0.0780266 	-0.121329 	
2.0783e-08 	0.00532572 	0.00532572 	0 	
0.000125 	4.88072e-09 	0.843947 	0.0780266 	0.0780266 	-0.121329 	
2.0783e-08 	0.00532572 	0.00532572 	0 	
ZONE T = "t = 5.84859e-06 [s]" I = 10 SOLUTIONTIME = 5.8485852050781E-06
0.0001 	6.67405e-09 	0.843947 	0.0780266 	0.0780266 	-0.121329 	
3.11479e-08 	0.00532572 	0.00532572 	0 	
0.000102778 	6.53174e-09 	0.843947 	0.0780266 	0.0780266 	-0.121329 	
3.11479e-08 	0.00532572 	0.00532572 	0 	
0.000105556 	6.42673e-09 	0.843947 	0.0780266 	0.0780266 	-0.121329 	
3.11479e-08 	0.00532572 	0.00532572 	0 	
0.000108333 	6.36029e-09 	0.843947 	0.0780266 	0.0780266 	-0.121329 	
3.11479e-08 	0.00532572 	0.00532572 	0 	
0.000111111 	6.33179e-09 	0.843947 	0.0780266 	0.0780266 	-0.121329 	
3.11479e-08 	0.00532572 	0.00532572 	0 	
0.000113889 	6.3401e-09 	0.843947 	0.0780266 	0.0780266 	-0.121329 	
3.11479e-08 	0.00532572 	0.00532572 	0 	
0.000116667 	6.38429e-09 	0.843947 	0.0780266 	0.0780266 	-0.121329 	
3.11479e-08 	0.00532572 	0.00532572 	0 	
0.000119444 	6.46326e-09 	0.843947 	0.0780266 	0.0780266 	-0.121329 	
3.11479e-08 	0.00532572 	0.00532572 	0 	
0.000122222 	6.5747e-09 	0.843947 	0.0780266 	0.0780266 	-0.121329 	
3.11479e-08 	0.00532572 	0.00532572 	0 	
0.000125 	4.93291e-09 	0.843947 	0.0780266 	0.0780266 	-0.121329 	
3.11479e-08 	0.00532572 	0.00532572 	0 	
ZONE T = "t = 8.76788e-06 [s]" I = 10 SOLUTIONTIME = 8.7678778076172E-06
0.0001 	6.78229e-09 	0.843947 	0.0780266 	0.0780266 	-0.121329 	
4.66953e-08 	0.00532572 	0.00532572 	0 	
0.000102778 	6.65247e-09 	0.843947 	0.0780266 	0.0780266 	-0.121329 	
4.66953e-08 	0.00532572 	0.00532572 	0 	
0.000105556 	6.55456e-09 	0.843947 	0.0780266 	0.0780266 	-0.121329 	
4.66953e-08 	0.00532572 	0.00532572 	0 	
0.000108333 	6.49043e-09 	0.843947 	0.0780266 	0.0780266 	-0.121329 	
4.66953e-08 	0.00532572 	0.00532572 	0 	
0.000111111 	6.46071e-09 	0.843947 	0.0780266 	0.0780266 	-0.121329 	
4.66953e-08 	0.00532572 	0.00532572 	0 	
0.000113889 	6.46506e-09 	0.843947 	0.0780266 	0.0780266 	-0.121329 	
4.66953e-08 	0.00532572 	0.00532572 	0 	
0.000116667 	6.50243e-09 	0.843947 	0.0780266 	0.0780266 	-0.121329 	
4.66953e-08 	0.00532572 	0.00532572 	0 	
0.000119444 	6.57103e-09 	0.843947 	0.0780266 	0.0780266 	-0.121329 	
4.66953e-08 	0.00532572 	0.00532572 	0 	
0.000122222 	6.66812e-09 	0.843947 	0.0780266 	0.0780266 	-0.121329 	
4.66953e-08 	0.00532572 	0.00532572 	0 	
0.000125 	5.00698e-09 	0.843947 	0.0780266 	0.0780266 	-0.121329 	
4.66953e-08 	0.00532572 	0.00532572 	0 	
ZONE T = "t = 1.31468e-05 [s]" I = 10 SOLUTIONTIME = 1.3146816711426E-05
0.0001 	6.92446e-09 	0.843947 	0.0780266 	0.0780266 	-0.121329 	
7.00162e-08 	0.00532572 	0.00532572 	0 	
0.000102778 	6.8081e-09 	0.843947 	0.0780266 	0.0780266 	-0.121329 	
7.00162e-08 	0.00532572 	0.00532572 	0 	
0.000105556 	6.71916e-09 	0.843947 	0.0780266 	0.0780266 	-0.121329 	
7.00162e-08 	0.00532572 	0.00532572 	0 	
0.000108333 	6.65922e-09 	0.843947 	0.0780266 	0.0780266 	-0.121329 	
7.00162e-08 	0.00532572 	0.00532572 	0 	
0.000111111 	6.62903e-09 	0.843947 	0.0780266 	0.0780266 	-0.121329 	
7.00162e-08 	0.00532572 	0.00532572 	0 	
0.000113889 	6.6285e-09 	0.843947 	0.0780266 	0.0780266 	-0.121329 	
7.00162e-08 	0.00532572 	0.00532572 	0 	
0.000116667 	6.65677e-09 	0.843947 	0.0780266 	0.0780266 	-0.121329 	
7.00162e-08 	0.00532572 	0.00532572 	0 	
0.000119444 	6.71223e-09 	0.843947 	0.0780266 	0.0780266 	-0.121329 	
7.00162e-08 	0.00532572 	0.00532572 	0 	
0.000122222 	6.79258e-09 	0.843947 	0.0780266 	0.0780266 	-0.121329 	
7.00162e-08 	0.00532572 	0.00532572 	0 	
0.000125 	5.10998e-09 	0.843947 	0.0780266 	0.0780266 	-0.121329 	
7.00162e-08 	0.00532572 	0.00532572 	0 	
ZONE T = "t = 1.97152e-05 [s]" I = 10 SOLUTIONTIME = 1.9715225067139E-05
0.0001 	7.10867e-09 	0.843947 	0.0780266 	0.0780266 	-0.121329 	
1.04998e-07 	0.00532572 	0.00532572 	0 	
0.000102778 	7.00568e-09 	0.843947 	0.0780266 	0.0780266 	-0.121329 	
1.04998e-07 	0.00532572 	0.00532572 	0 	
0.000105556 	6.92591e-09 	0.843947 	0.0780266 	0.0780266 	-0.121329 	
1.04998e-07 	0.00532572 	0.00532572 	0 	
0.000108333 	6.87042e-09 	0.843947 	0.0780266 	0.0780266 	-0.121329 	
1.04998e-07 	0.00532572 	0.00532572 	0 	
0.000111111 	6.83974e-09 	0.843947 	0.0780266 	0.0780266 	-0.121329 	
1.04998e-07 	0.00532572 	0.00532572 	0 	
0.000113889 	6.83382e-09 	0.843947 	0.0780266 	0.0780266 	-0.121329 	
1.04998e-07 	0.00532572 	0.00532572 	0 	
0.000116667 	6.85201e-09 	0.843947 	0.0780266 	0.0780266 	-0.121329 	
1.04998e-07 	0.00532572 	0.00532572 	0 	
0.000119444 	6.89314e-09 	0.843947 	0.0780266 	0.0780266 	-0.121329 	
1.04998e-07 	0.00532572 	0.00532572 	0 	
0.000122222 	6.95552e-09 	0.843947 	0.0780266 	0.0780266 	-0.121329 	
1.04998e-07 	0.00532572 	0.00532572 	0 	
0.000125 	5.2501e-09 	0.843947 	0.0780266 	0.0780266 	-0.121329 	
1.04998e-07 	0.00532572 	0.00532572 	0 	
ZONE T = "t = 2.95678e-05 [s]" I = 10 SOLUTIONTIME = 2.9567837600708E-05
0.0001 	7.34267e-09 	0.843947 	0.0780266 	0.0780266 	-0.121329 	
1.5747e-07 	0.00532572 	0.00532572 	0 	
0.000102778 	7.25166e-09 	0.843947 	0.0780266 	0.0780266 	-0.121329 	
1.5747e-07 	0.00532572 	0.00532572 	0 	
0.000105556 	7.17991e-09 	0.843947 	0.0780266 	0.0780266 	-0.121329 	
1.5747e-07 	0.00532572 	0.00532572 	0 	
0.000108333 	7.12805e-09 	0.843947 	0.0780266 	0.0780266 	-0.121329 	
1.5747e-07 	0.00532572 	0.00532572 	0 	
0.000111111 	7.09636e-09 	0.843947 	0.0780266 	0.0780266 	-0.121329 	
1.5747e-07 	0.00532572 	0.00532572 	0 	
0.000113889 	7.08478e-09 	0.843947 	0.0780266 	0.0780266 	-0.121329 	
1.5747e-07 	0.00532572 	0.00532572 	0 	
0.000116667 	7.09285e-09 	0.843947 	0.0780266 	0.0780266 	-0.121329 	
1.5747e-07 	0.00532572 	0.00532572 	0 	
0.000119444 	7.11978e-09 	0.843947 	0.0780266 	0.0780266 	-0.121329 	
1.5747e-07 	0.00532572 	0.00532572 	0 	
0.000122222 	7.16446e-09 	0.843947 	0.0780266 	0.0780266 	-0.121329 	
1.5747e-07 	0.00532572 	0.00532572 	0 	
0.000125 	5.43651e-09 	0.843947 	0.0780266 	0.0780266 	-0.121329 	
1.5747e-07 	0.00532572 	0.00532572 	0 	
ZONE T = "t = 4.43468e-05 [s]" I = 10 SOLUTIONTIME = 4.4346756401062E-05
0.0001 	7.635e-09 	0.843947 	0.0780266 	0.0780266 	-0.121329 	
2.36178e-07 	0.00532572 	0.00532572 	0 	
0.000102778 	7.55357e-09 	0.843947 	0.0780266 	0.0780266 	-0.121329 	
2.36178e-07 	0.00532572 	0.00532572 	0 	
0.000105556 	7.4879e-09 	0.843947 	0.0780266 	0.0780266 	-0.121329 	
2.36178e-07 	0.00532572 	0.00532572 	0 	
0.000108333 	7.43831e-09 	0.843947 	0.0780266 	0.0780266 	-0.121329 	
2.36178e-07 	0.00532572 	0.00532572 	0 	
0.000111111 	7.40492e-09 	0.843947 	0.0780266 	0.0780266 	-0.121329 	
2.36178e-07 	0.00532572 	0.00532572 	0 	
0.000113889 	7.38764e-09 	0.843947 	0.0780266 	0.0780266 	-0.121329 	
2.36178e-07 	0.00532572 	0.00532572 	0 	
0.000116667 	7.38617e-09 	0.843947 	0.0780266 	0.0780266 	-0.121329 	
2.36178e-07 	0.00532572 	0.00532572 	0 	
0.000119444 	7.40001e-09 	0.843947 	0.0780266 	0.0780266 	-0.121329 	
2.36178e-07 	0.00532572 	0.00532572 	0 	
0.000122222 	7.42848e-09 	0.843947 	0.0780266 	0.0780266 	-0.121329 	
2.36178e-07 	0.00532572 	0.00532572 	0 	
0.000125 	5.67987e-09 	0.843947 	0.0780266 	0.0780266 	-0.121329 	
2.36178e-07 	0.00532572 	0.00532572 	0 	
ZONE T = "t = 6.65151e-05 [s]" I = 10 SOLUTIONTIME = 6.6515134601593E-05
0.0001 	7.99652e-09 	0.843947 	0.0780266 	0.0780266 	-0.121329 	
3.54241e-07 	0.00532572 	0.00532572 	0 	
0.000102778 	7.92211e-09 	0.843947 	0.0780266 	0.0780266 	-0.121329 	
3.54241e-07 	0.00532572 	0.00532572 	0 	
0.000105556 	7.86053e-09 	0.843947 	0.0780266 	0.0780266 	-0.121329 	
3.54241e-07 	0.00532572 	0.00532572 	0 	
0.000108333 	7.81193e-09 	0.843947 	0.0780266 	0.0780266 	-0.121329 	
3.54241e-07 	0.00532572 	0.00532572 	0 	
0.000111111 	7.77632e-09 	0.843947 	0.0780266 	0.0780266 	-0.121329 	
3.54241e-07 	0.00532572 	0.00532572 	0 	
0.000113889 	7.75365e-09 	0.843947 	0.0780266 	0.0780266 	-0.121329 	
3.54241e-07 	0.00532572 	0.00532572 	0 	
0.000116667 	7.74371e-09 	0.843947 	0.0780266 	0.0780266 	-0.121329 	
3.54241e-07 	0.00532572 	0.00532572 	0 	
0.000119444 	7.74622e-09 	0.843947 	0.0780266 	0.0780266 	-0.121329 	
3.54241e-07 	0.00532572 	0.00532572 	0 	
0.000122222 	7.76078e-09 	0.843947 	0.0780266 	0.0780266 	-0.121329 	
3.54241e-07 	0.00532572 	0.00532572 	0 	
0.000125 	5.99443e-09 	0.843947 	0.0780266 	0.0780266 	-0.121329 	
3.54241e-07 	0.00532572 	0.00532572 	0 	
ZONE T = "t = 9.97677e-05 [s]" I = 10 SOLUTIONTIME = 9.9767701902390E-05
0.0001 	8.44211e-09 	0.843947 	0.0780266 	0.0780266 	-0.121329 	
5.31335e-07 	0.00532572 	0.00532572 	0 	
0.000102778 	8.37304e-09 	0.843947 	0.0780266 	0.0780266 	-0.121329 	
5.31335e-07 	0.00532572 	0.00532572 	0 	
0.000105556 	8.31443e-09 	0.843947 	0.0780266 	0.0780266 	-0.121329 	
5.31335e-07 	0.00532572 	0.00532572 	0 	
0.000108333 	8.26634e-09 	0.843947 	0.0780266 	0.0780266 	-0.121329 	
5.31335e-07 	0.00532572 	0.00532572 	0 	
0.000111111 	8.22881e-09 	0.843947 	0.0780266 	0.0780266 	-0.121329 	
5.31335e-07 	0.00532572 	0.00532572 	0 	
0.000113889 	8.20177e-09 	0.843947 	0.0780266 	0.0780266 	-0.121329 	
5.31335e-07 	0.00532572 	0.00532572 	0 	
0.000116667 	8.18513e-09 	0.843947 	0.0780266 	0.0780266 	-0.121329 	
5.31335e-07 	0.00532572 	0.00532572 	0 	
0.000119444 	8.17874e-09 	0.843947 	0.0780266 	0.0780266 	-0.121329 	
5.31335e-07 	0.00532572 	0.00532572 	0 	
0.000122222 	8.18238e-09 	0.843947 	0.0780266 	0.0780266 	-0.121329 	
5.31335e-07 	0.00532572 	0.00532572 	0 	
0.000125 	6.40205e-09 	0.843947 	0.0780266 	0.0780266 	-0.121329 	
5.31335e-07 	0.00532572 	0.00532572 	0 	
ZONE T = "t = 0.000149647 [s]" I = 10 SOLUTIONTIME = 1.4964655285358E-04
0.0001 	8.99275e-09 	0.843947 	0.0780266 	0.0780266 	-0.121329 	
7.96975e-07 	0.00532572 	0.00532572 	0 	
0.000102778 	8.92903e-09 	0.843947 	0.0780266 	0.0780266 	-0.121329 	
7.96975e-07 	0.00532572 	0.00532572 	0 	
0.000105556 	8.87391e-09 	0.843947 	0.0780266 	0.0780266 	-0.121329 	
7.96975e-07 	0.00532572 	0.00532572 	0 	
0.000108333 	8.82744e-09 	0.843947 	0.0780266 	0.0780266 	-0.121329 	
7.96975e-07 	0.00532572 	0.00532572 	0 	
0.000111111 	8.78966e-09 	0.843947 	0.0780266 	0.0780266 	-0.121329 	
7.96975e-07 	0.00532572 	0.00532572 	0 	
0.000113889 	8.76055e-09 	0.843947 	0.0780266 	0.0780266 	-0.121329 	
7.96975e-07 	0.00532572 	0.00532572 	0 	
0.000116667 	8.74008e-09 	0.843947 	0.0780266 	0.0780266 	-0.121329 	