TITLE = "Solution on Domain BulkDomain1D_2"
VARIABLES = "x [m]"  
"Vel_axial" 	"MF_sp(ECDMC)" 	"MF_sp(Li+)" 	"MF_sp(PF6-)" 	"Volt(Electroly)" 	"Volt(CathodeVo)" 	
"Potential Drop Electrode-Electrolyte [V]" 	"Surf_0 Equilibrium Potential Drop Electrode-Electrolyte [V]" 	"Overpotential_0 [V]" 	"Current Source [A/m^2]" 	"Li+ flux [kmol/m^2/s]" 	"Electrolyte Current [A/m^2]" 	"Electrode Current [A/m^2]" 	
"Capacity discharged [A-s]" 	"Depth of discharge [-]" 	"Capacity remaining [A-s]" 	"Initial capacity [A-s]" 	"Porosity []" 	"Surface Area [m2/m2] (area per area)" 	"Specific current (per particle area) [A/m^2]" 	"Control volume thickness [m]" 	
"Moles LiCoO2 [mol/m^2] (per electrode area)" 	"Moles CoO2 [mol/m^2] (per electrode area)" 	"qHeat_accum [J/m3]" 	"qHeat_step [W/m3]" 	"Joule_Lyte [W/m3]" 	"Joule_Solid [W/m3]" 	"electrodHeat [W/m3]" 	"OverpotHeat [W/m3]" 	"deltaSHeat [W/m3]" 	

ZONE T = "t = 0 [s]" I = 10 SOLUTIONTIME = 0.0000000000000E+00
0.000125 	0 	0.843947 	0.0780266 	0.0780266 	-0.07 	3.8 	
3.87 	4.17612 	-0.306118 	-0.0109571 	-0 	0.00547856 	0 	
-0 	9633.18 	0.963318 	1.92664 	0.3 	1.16667 	-0.00939182 	5.55556e-06 	
9.98408e-05 	9.98408e-05 	0 	0 	0 	0 	0 	0 	0 	
0.000136111 	0 	0.843947 	0.0780266 	0.0780266 	-0.07 	3.8 	
3.87 	4.17612 	-0.306118 	-0.0219142 	-0 	0 	-0 	
-0 	19266.4 	1.92664 	3.85327 	0.3 	2.33333 	-0.00939182 	1.11111e-05 	
0.000199682 	0.000199682 	0 	0 	0 	0 	0 	0 	0 	
0.000147222 	0 	0.843947 	0.0780266 	0.0780266 	-0.07 	3.8 	
3.87 	4.17612 	-0.306118 	-0.0219142 	-0 	0 	-0 	
-0 	19266.4 	1.92664 	3.85327 	0.3 	2.33333 	-0.00939182 	1.11111e-05 	
0.000199682 	0.000199682 	0 	0 	0 	0 	0 	0 	0 	
0.000158333 	0 	0.843947 	0.0780266 	0.0780266 	-0.07 	3.8 	
3.87 	4.17612 	-0.306118 	-0.0219142 	-0 	0 	-0 	
-0 	19266.4 	1.92664 	3.85327 	0.3 	2.33333 	-0.00939182 	1.11111e-05 	
0.000199682 	0.000199682 	0 	0 	0 	0 	0 	0 	0 	
0.000169444 	0 	0.843947 	0.0780266 	0.0780266 	-0.07 	3.8 	
3.87 	4.17612 	-0.306118 	-0.0219142 	-0 	0 	-0 	
-0 	19266.4 	1.92664 	3.85327 	0.3 	2.33333 	-0.00939182 	1.11111e-05 	
0.000199682 	0.000199682 	0 	0 	0 	0 	0 	0 	0 	
0.000180556 	0 	0.843947 	0.0780266 	0.0780266 	-0.07 	3.8 	
3.87 	4.17612 	-0.306118 	-0.0219142 	-0 	0 	-0 	
-0 	19266.4 	1.92664 	3.85327 	0.3 	2.33333 	-0.00939182 	1.11111e-05 	
0.000199682 	0.000199682 	0 	0 	0 	0 	0 	0 	0 	
0.000191667 	0 	0.843947 	0.0780266 	0.0780266 	-0.07 	3.8 	
3.87 	4.17612 	-0.306118 	-0.0219142 	-0 	0 	-0 	
-0 	19266.4 	1.92664 	3.85327 	0.3 	2.33333 	-0.00939182 	1.11111e-05 	
0.000199682 	0.000199682 	0 	0 	0 	0 	0 	0 	0 	
0.000202778 	0 	0.843947 	0.0780266 	0.0780266 	-0.07 	3.8 	
3.87 	4.17612 	-0.306118 	-0.0219142 	-0 	0 	-0 	
-0 	19266.4 	1.92664 	3.85327 	0.3 	2.33333 	-0.00939182 	1.11111e-05 	
0.000199682 	0.000199682 	0 	0 	0 	0 	0 	0 	0 	
0.000213889 	0 	0.843947 	0.0780266 	0.0780266 	-0.07 	3.8 	
3.87 	4.17612 	-0.306118 	-0.0219142 	-0 	0 	-0 	
-0 	19266.4 	1.92664 	3.85327 	0.3 	2.33333 	-0.00939182 	1.11111e-05 	
0.000199682 	0.000199682 	0 	0 	0 	0 	0 	0 	0 	
0.000225 	0 	0.843947 	0.0780266 	0.0780266 	-0.07 	3.8 	
3.87 	4.17612 	-0.306118 	-0.0109571 	-0 	0 	0.00547856 	
-0 	9633.18 	0.963318 	1.92664 	0.3 	1.16667 	-0.00939182 	5.55556e-06 	
9.98408e-05 	9.98408e-05 	0 	0 	0 	0 	0 	0 	0 	
ZONE T = "t = 1e-08 [s]" I = 10 SOLUTIONTIME = 1.0000000000000E-08
0.000125 	5.7765e-09 	0.843947 	0.0780266 	0.0780266 	-0.12133 	3.51134 	
3.63267 	4.17612 	-0.543452 	-1.11067 	9.78932e-08 	19.4455 	0.554938 	
1.11067e-12 	9633.18 	0.963318 	1.92664 	0.3 	1.16667 	-0.952006 	5.55556e-06 	
9.98408e-05 	9.98408e-05 	0.00123645 	123645 	0.0289139 	0.21033 	123645 	92574.3 	31070.5 	
0.000136111 	5.09773e-09 	0.843947 	0.0780266 	0.0780266 	-0.12133 	3.51133 	
3.63266 	4.17612 	-0.543454 	-2.22144 	8.63877e-08 	17.7802 	2.2198 	
2.22144e-12 	19266.4 	1.92664 	3.85327 	0.3 	2.33333 	-0.952045 	1.11111e-05 	
0.000199682 	0.000199682 	0.00123651 	123651 	0.0257157 	1.0517 	123650 	92578.5 	31071.7 	
0.000147222 	4.41903e-09 	0.843947 	0.0780266 	0.0780266 	-0.12133 	3.51133 	
3.63266 	4.17612 	-0.54346 	-2.22171 	7.48827e-08 	15.5602 	4.43977 	
2.22171e-12 	19266.4 	1.92664 	3.85327 	0.3 	2.33333 	-0.952161 	1.11111e-05 	
0.000199682 	0.000199682 	0.0012367 	123670 	0.0197185 	3.57609 	123667 	92591.1 	31075.5 	
0.000158333 	3.74013e-09 	0.843947 	0.0780266 	0.0780266 	-0.12133 	3.51132 	
3.63265 	4.17612 	-0.543471 	-2.22216 	6.33755e-08 	13.3399 	6.66011 	
2.22216e-12 	19266.4 	1.92664 	3.85327 	0.3 	2.33333 	-0.952356 	1.11111e-05 	
0.000199682 	0.000199682 	0.00123702 	123702 	0.0145191 	7.78432 	123694 	92612.1 	31081.9 	
0.000169444 	3.06107e-09 	0.843947 	0.0780266 	0.0780266 	-0.12133 	3.5113 	
3.63263 	4.17612 	-0.543485 	-2.2228 	5.18649e-08 	11.119 	8.881 	
2.2228e-12 	19266.4 	1.92664 	3.85327 	0.3 	2.33333 	-0.952629 	1.11111e-05 	
0.000199682 	0.000199682 	0.00123746 	123746 	0.0101176 	13.6778 	123732 	92641.7 	31090.8 	
0.000180556 	2.38176e-09 	0.843947 	0.0780266 	0.0780266 	-0.12133 	3.51128 	
3.63261 	4.17612 	-0.543504 	-2.22362 	4.03501e-08 	8.89739 	11.1026 	
2.22362e-12 	19266.4 	1.92664 	3.85327 	0.3 	2.33333 	-0.952981 	1.11111e-05 	
0.000199682 	0.000199682 	0.00123803 	123803 	0.0065145 	21.2584 	123782 	92679.6 	31102.3 	
0.000191667 	1.70206e-09 	0.843947 	0.0780266 	0.0780266 	-0.12133 	3.51126 	
3.63259 	4.17612 	-0.543527 	-2.22462 	2.883e-08 	6.67487 	13.3251 	
2.22462e-12 	19266.4 	1.92664 	3.85327 	0.3 	2.33333 	-0.95341 	1.11111e-05 	
0.000199682 	0.000199682 	0.00123873 	123873 	0.00371023 	30.5286 	123842 	92726 	31116.3 	
0.000202778 	1.02215e-09 	0.843947 	0.0780266 	0.0780266 	-0.12133 	3.51123 	
3.63256 	4.17612 	-0.543555 	-2.22581 	1.73039e-08 	4.45125 	15.5488 	
2.22581e-12 	19266.4 	1.92664 	3.85327 	0.3 	2.33333 	-0.953919 	1.11111e-05 	
0.000199682 	0.000199682 	0.00123955 	123955 	0.00170568 	41.4916 	123914 	92780.9 	31132.9 	
0.000213889 	3.41781e-10 	0.843947 	0.0780266 	0.0780266 	-0.12133 	3.5112 	
3.63253 	4.17612 	-0.543586 	-2.22718 	5.77065e-09 	2.22635 	17.7736 	
2.22718e-12 	19266.4 	1.92664 	3.85327 	0.3 	2.33333 	-0.954506 	1.11111e-05 	
0.000199682 	0.000199682 	0.00124051 	124051 	0.000501966 	54.1508 	123996 	92844.4 	31152.1 	
0.000225 	1.31999e-12 	0.843947 	0.0780266 	0.0780266 	-0.12133 	3.51117 	
3.6325 	4.17612 	-0.543622 	-1.11437 	5.77065e-09 	0.556783 	19.4436 	
1.11437e-12 	9633.18 	0.963318 	1.92664 	0.3 	1.16667 	-0.955171 	5.55556e-06 	
9.98408e-05 	9.98408e-05 	0.00124151 	124151 	0.000100477 	60.905 	124090 	92916.3 	31173.8 	
ZONE T = "t = 2e-08 [s]" I = 10 SOLUTIONTIME = 2.0000000000000E-08
0.000125 	5.77605e-09 	0.843947 	0.0780266 	0.0780266 	-0.121329 	3.51137 	
3.6327 	4.17612 	-0.543415 	-1.10988 	9.78952e-08 	19.4451 	0.554938 	
2.22055e-12 	9633.18 	0.963318 	1.92664 	0.3 	1.16667 	-0.951321 	5.55556e-06 	
9.98408e-05 	9.98408e-05 	0.00247194 	123549 	0.0289139 	0.21033 	123548 	92500.4 	31048.1 	
0.000136111 	5.09704e-09 	0.843947 	0.0780266 	0.0780266 	-0.121329 	3.51137 	
3.6327 	4.17612 	-0.543417 	-2.21984 	8.63877e-08 	17.7802 	2.2198 	
4.44128e-12 	19266.4 	1.92664 	3.85327 	0.3 	2.33333 	-0.95136 	1.11111e-05 	
0.000199682 	0.000199682 	0.00247206 	123555 	0.0257157 	1.0517 	123554 	92504.5 	31049.4 	
0.000147222 	4.41822e-09 	0.843947 	0.0780266 	0.0780266 	-0.121329 	3.51137 	
3.63269 	4.17612 	-0.543423 	-2.22011 	7.48827e-08 	15.5602 	4.43977 	
4.44182e-12 	19266.4 	1.92664 	3.85327 	0.3 	2.33333 	-0.951477 	1.11111e-05 	
0.000199682 	0.000199682 	0.00247244 	123574 	0.0197185 	3.57609 	123570 	92517.1 	31053.2 	
0.000158333 	3.73941e-09 	0.843947 	0.0780266 	0.0780266 	-0.121329 	3.51136 	
3.63268 	4.17612 	-0.543434 	-2.22057 	6.33755e-08 	13.3399 	6.66011 	
4.44273e-12 	19266.4 	1.92664 	3.85327 	0.3 	2.33333 	-0.951672 	1.11111e-05 	
0.000199682 	0.000199682 	0.00247307 	123606 	0.0145191 	7.78432 	123598 	92538.2 	31059.6 	
0.000169444 	3.06035e-09 	0.843947 	0.0780266 	0.0780266 	-0.121329 	3.51134 	
3.63267 	4.17612 	-0.543448 	-2.2212 	5.18649e-08 	11.119 	8.881 	
4.44401e-12 	19266.4 	1.92664 	3.85327 	0.3 	2.33333 	-0.951944 	1.11111e-05 	
0.000199682 	0.000199682 	0.00247396 	123650 	0.0101176 	13.6778 	123636 	92567.7 	31068.5 	
0.000180556 	2.38094e-09 	0.843947 	0.0780266 	0.0780266 	-0.121329 	3.51132 	
3.63265 	4.17612 	-0.543467 	-2.22202 	4.03501e-08 	8.89739 	11.1026 	
4.44564e-12 	19266.4 	1.92664 	3.85327 	0.3 	2.33333 	-0.952296 	1.11111e-05 	
0.000199682 	0.000199682 	0.0024751 	123707 	0.0065145 	21.2584 	123686 	92605.6 	31079.9 	
0.000191667 	1.70142e-09 	0.843947 	0.0780266 	0.0780266 	-0.121329 	3.5113 	
3.63263 	4.17612 	-0.54349 	-2.22302 	2.88301e-08 	6.67487 	13.3251 	
4.44765e-12 	19266.4 	1.92664 	3.85327 	0.3 	2.33333 	-0.952725 	1.11111e-05 	
0.000199682 	0.000199682 	0.00247649 	123776 	0.00371023 	30.5286 	123746 	92652 	31093.9 	
0.000202778 	1.0213e-09 	0.843947 	0.0780266 	0.0780266 	-0.121329 	3.51127 	
3.6326 	4.17612 	-0.543518 	-2.22421 	1.73039e-08 	4.45125 	15.5488 	
4.45002e-12 	19266.4 	1.92664 	3.85327 	0.3 	2.33333 	-0.953233 	1.11111e-05 	
0.000199682 	0.000199682 	0.00247814 	123859 	0.00170568 	41.4916 	123817 	92706.8 	31110.5 	
0.000213889 	3.40868e-10 	0.843947 	0.0780266 	0.0780266 	-0.121329 	3.51124 	
3.63257 	4.17612 	-0.543549 	-2.22558 	5.77065e-09 	2.22635 	17.7736 	
4.45276e-12 	19266.4 	1.92664 	3.85327 	0.3 	2.33333 	-0.953819 	1.11111e-05 	
0.000199682 	0.000199682 	0.00248005 	123954 	0.000501966 	54.1508 	123900 	92770.2 	31129.7 	
0.000225 	3.67741e-13 	0.843947 	0.0780266 	0.0780266 	-0.121329 	3.5112 	
3.63253 	4.17612 	-0.543585 	-1.11357 	5.77065e-09 	0.556783 	19.4432 	
2.22793e-12 	9633.18 	0.963318 	1.92664 	0.3 	1.16667 	-0.954485 	5.55556e-06 	
9.98408e-05 	9.98408e-05 	0.00248205 	124054 	0.000100477 	60.905 	123993 	92842.1 	31151.4 	
ZONE T = "t = 3e-08 [s]" I = 10 SOLUTIONTIME = 3.0000000000000E-08
0.000125 	5.77582e-09 	0.843947 	0.0780266 	0.0780266 	-0.121329 	3.51137 	
3.6327 	4.17612 	-0.543415 	-1.10988 	9.78972e-08 	19.4451 	0.554938 	
3.33042e-12 	9633.18 	0.963318 	1.92664 	0.3 	1.16667 	-0.951321 	5.55556e-06 	
9.98408e-05 	9.98408e-05 	0.00370742 	123549 	0.0289139 	0.21033 	123548 	92500.4 	31048.1 	
0.000136111 	5.09633e-09 	0.843947 	0.0780266 	0.0780266 	-0.121329 	3.51137 	
3.6327 	4.17612 	-0.543417 	-2.21984 	8.63877e-08 	17.7802 	2.2198 	
6.66112e-12 	19266.4 	1.92664 	3.85327 	0.3 	2.33333 	-0.95136 	1.11111e-05 	
0.000199682 	0.000199682 	0.00370761 	123555 	0.0257157 	1.0517 	123554 	92504.5 	31049.4 	
0.000147222 	4.41757e-09 	0.843947 	0.0780266 	0.0780266 	-0.121329 	3.51137 	
3.63269 	4.17612 	-0.543423 	-2.22011 	7.48827e-08 	15.5602 	4.43977 	
6.66194e-12 	19266.4 	1.92664 	3.85327 	0.3 	2.33333 	-0.951477 	1.11111e-05 	
0.000199682 	0.000199682 	0.00370818 	123574 	0.0197185 	3.57609 	123570 	92517.1 	31053.2 	
0.000158333 	3.7386e-09 	0.843947 	0.0780266 	0.0780266 	-0.121329 	3.51136 	
3.63268 	4.17612 	-0.543434 	-2.22057 	6.33755e-08 	13.3399 	6.66011 	
6.6633e-12 	19266.4 	1.92664 	3.85327 	0.3 	2.33333 	-0.951672 	1.11111e-05 	
0.000199682 	0.000199682 	0.00370913 	123606 	0.0145191 	7.78432 	123598 	92538.2 	31059.6 	
0.000169444 	3.05948e-09 	0.843947 	0.0780266 	0.0780266 	-0.121329 	3.51134 	
3.63267 	4.17612 	-0.543448 	-2.2212 	5.18649e-08 	11.119 	8.881 	
6.66521e-12 	19266.4 	1.92664 	3.85327 	0.3 	2.33333 	-0.951944 	1.11111e-05 	
0.000199682 	0.000199682 	0.00371046 	123650 	0.0101176 	13.6778 	123636 	92567.7 	31068.5 	
0.000180556 	2.38002e-09 	0.843947 	0.0780266 	0.0780266 	-0.121329 	3.51132 	
3.63265 	4.17612 	-0.543467 	-2.22202 	4.03501e-08 	8.89739 	11.1026 	
6.66767e-12 	19266.4 	1.92664 	3.85327 	0.3 	2.33333 	-0.952296 	1.11111e-05 	
0.000199682 	0.000199682 	0.00371217 	123707 	0.0065145 	21.2584 	123686 	92605.6 	31079.9 	
0.000191667 	1.70022e-09 	0.843947 	0.0780266 	0.0780266 	-0.121329 	3.5113 	
3.63263 	4.17612 	-0.54349 	-2.22302 	2.88301e-08 	6.67487 	13.3251 	
6.67067e-12 	19266.4 	1.92664 	3.85327 	0.3 	2.33333 	-0.952725 	1.11111e-05 	
0.000199682 	0.000199682 	0.00371426 	123776 	0.00371023 	30.5286 	123746 	92652 	31093.9 	
0.000202778 	1.02026e-09 	0.843947 	0.0780266 	0.0780266 	-0.121329 	3.51127 	
3.6326 	4.17612 	-0.543518 	-2.22421 	1.73039e-08 	4.45125 	15.5488 	
6.67423e-12 	19266.4 	1.92664 	3.85327 	0.3 	2.33333 	-0.953233 	1.11111e-05 	
0.000199682 	0.000199682 	0.00371673 	123859 	0.00170568 	41.4916 	123817 	92706.8 	31110.5 	
0.000213889 	3.39883e-10 	0.843947 	0.0780266 	0.0780266 	-0.121329 	3.51124 	
3.63257 	4.17612 	-0.543549 	-2.22558 	5.77065e-09 	2.22635 	17.7736 	
6.67834e-12 	19266.4 	1.92664 	3.85327 	0.3 	2.33333 	-0.953819 	1.11111e-05 	
0.000199682 	0.000199682 	0.00371959 	123954 	0.000501966 	54.1508 	123900 	92770.2 	31129.7 	
0.000225 	-5.35345e-13 	0.843947 	0.0780266 	0.0780266 	-0.121329 	3.5112 	
3.63253 	4.17612 	-0.543585 	-1.11357 	5.77065e-09 	0.556783 	19.4432 	
3.3415e-12 	9633.18 	0.963318 	1.92664 	0.3 	1.16667 	-0.954485 	5.55556e-06 	
9.98408e-05 	9.98408e-05 	0.0037226 	124054 	0.000100477 	60.905 	123993 	92842.1 	31151.4 	
ZONE T = "t = 4e-08 [s]" I = 10 SOLUTIONTIME = 4.0000000000000E-08
0.000125 	5.77696e-09 	0.843947 	0.0780266 	0.0780266 	-0.121329 	3.51137 	
3.6327 	4.17612 	-0.543415 	-1.10988 	9.78992e-08 	19.4451 	0.554938 	
4.4403e-12 	9633.18 	0.963318 	1.92664 	0.3 	1.16667 	-0.951321 	5.55556e-06 	
9.98408e-05 	9.98408e-05 	0.00494291 	123549 	0.0289139 	0.21033 	123548 	92500.4 	31048.1 	
0.000136111 	5.09731e-09 	0.843947 	0.0780266 	0.0780266 	-0.121329 	3.51137 	
3.6327 	4.17612 	-0.543417 	-2.21984 	8.63877e-08 	17.7802 	2.2198 	
8.88096e-12 	19266.4 	1.92664 	3.85327 	0.3 	2.33333 	-0.95136 	1.11111e-05 	
0.000199682 	0.000199682 	0.00494316 	123555 	0.0257157 	1.0517 	123554 	92504.5 	31049.4 	
0.000147222 	4.41839e-09 	0.843947 	0.0780266 	0.0780266 	-0.121329 	3.51137 	
3.63269 	4.17612 	-0.543423 	-2.22011 	7.48827e-08 	15.5602 	4.43977 	
8.88205e-12 	19266.4 	1.92664 	3.85327 	0.3 	2.33333 	-0.951477 	1.11111e-05 	
0.000199682 	0.000199682 	0.00494392 	123574 	0.0197185 	3.57609 	123570 	92517.1 	31053.2 	
0.000158333 	3.73932e-09 	0.843947 	0.0780266 	0.0780266 	-0.121329 	3.51136 	
3.63268 	4.17612 	-0.543434 	-2.22057 	6.33755e-08 	13.3399 	6.66011 	
8.88387e-12 	19266.4 	1.92664 	3.85327 	0.3 	2.33333 	-0.951672 	1.11111e-05 	
0.000199682 	0.000199682 	0.00494518 	123606 	0.0145191 	7.78432 	123598 	92538.2 	31059.6 	
0.000169444 	3.06015e-09 	0.843947 	0.0780266 	0.0780266 	-0.121329 	3.51134 	
3.63267 	4.17612 	-0.543448 	-2.2212 	5.18649e-08 	11.119 	8.881 	
8.88641e-12 	19266.4 	1.92664 	3.85327 	0.3 	2.33333 	-0.951944 	1.11111e-05 	
0.000199682 	0.000199682 	0.00494696 	123650 	0.0101176 	13.6778 	123636 	92567.7 	31068.5 	
0.000180556 	2.38085e-09 	0.843947 	0.0780266 	0.0780266 	-0.121329 	3.51132 	
3.63265 	4.17612 	-0.543467 	-2.22202 	4.03501e-08 	8.89739 	11.1026 	
8.88969e-12 	19266.4 	1.92664 	3.85327 	0.3 	2.33333 	-0.952296 	1.11111e-05 	
0.000199682 	0.000199682 	0.00494923 	123707 	0.0065145 	21.2584 	123686 	92605.6 	31079.9 	
0.000191667 	1.70116e-09 	0.843947 	0.0780266 	0.0780266 	-0.121329 	3.5113 	
3.63263 	4.17612 	-0.54349 	-2.22302 	2.88301e-08 	6.67487 	13.3251 	
8.8937e-12 	19266.4 	1.92664 	3.85327 	0.3 	2.33333 	-0.952725 	1.11111e-05 	
0.000199682 	0.000199682 	0.00495202 	123776 	0.00371023 	30.5286 	123746 	92652 	31093.9 	
0.000202778 	1.02115e-09 	0.843947 	0.0780266 	0.0780266 	-0.121329 	3.51127 	
3.6326 	4.17612 	-0.543518 	-2.22421 	1.73039e-08 	4.45125 	15.5488 	
8.89844e-12 	19266.4 	1.92664 	3.85327 	0.3 	2.33333 	-0.953233 	1.11111e-05 	
0.000199682 	0.000199682 	0.00495532 	123859 	0.00170568 	41.4916 	123817 	92706.8 	31110.5 	
0.000213889 	3.40568e-10 	0.843947 	0.0780266 	0.0780266 	-0.121329 	3.51124 	
3.63257 	4.17612 	-0.543549 	-2.22558 	5.77066e-09 	2.22635 	17.7736 	
8.90391e-12 	19266.4 	1.92664 	3.85327 	0.3 	2.33333 	-0.953819 	1.11111e-05 	
0.000199682 	0.000199682 	0.00495913 	123954 	0.000501966 	54.1508 	123900 	92770.2 	31129.7 	
0.000225 	4.44667e-14 	0.843947 	0.0780266 	0.0780266 	-0.121329 	3.5112 	
3.63253 	4.17612 	-0.543585 	-1.11357 	5.77066e-09 	0.556783 	19.4432 	
4.45506e-12 	9633.18 	0.963318 	1.92664 	0.3 	1.16667 	-0.954485 	5.55556e-06 	
9.98408e-05 	9.98408e-05 	0.00496314 	124054 	0.000100477 	60.905 	123993 	92842.1 	31151.4 	
ZONE T = "t = 5.5e-08 [s]" I = 10 SOLUTIONTIME = 5.5000000000000E-08
0.000125 	5.77675e-09 	0.843947 	0.0780266 	0.0780266 	-0.121329 	3.51137 	
3.6327 	4.17612 	-0.543415 	-1.10988 	9.79024e-08 	19.4451 	0.554938 	
6.10511e-12 	9633.18 	0.963318 	1.92664 	0.3 	1.16667 	-0.951321 	5.55556e-06 	
9.98408e-05 	9.98408e-05 	0.00679614 	123549 	0.0289139 	0.21033 	123548 	92500.4 	31048.1 	
0.000136111 	5.09678e-09 	0.843947 	0.0780266 	0.0780266 	-0.121329 	3.51137 	
3.6327 	4.17612 	-0.543417 	-2.21984 	8.63877e-08 	17.7802 	2.2198 	
1.22107e-11 	19266.4 	1.92664 	3.85327 	0.3 	2.33333 	-0.95136 	1.11111e-05 	
0.000199682 	0.000199682 	0.00679649 	123555 	0.0257157 	1.0517 	123554 	92504.5 	31049.4 	
0.000147222 	4.418e-09 	0.843947 	0.0780266 	0.0780266 	-0.121329 	3.51137 	
3.63269 	4.17612 	-0.543423 	-2.22011 	7.48827e-08 	15.5602 	4.43977 	
1.22122e-11 	19266.4 	1.92664 	3.85327 	0.3 	2.33333 	-0.951477 	1.11111e-05 	
0.000199682 	0.000199682 	0.00679753 	123574 	0.0197185 	3.57609 	123570 	92517.1 	31053.2 	
0.000158333 	3.73911e-09 	0.843947 	0.0780266 	0.0780266 	-0.121329 	3.51136 	
3.63268 	4.17612 	-0.543434 	-2.22057 	6.33755e-08 	13.3399 	6.66011 	
1.22147e-11 	19266.4 	1.92664 	3.85327 	0.3 	2.33333 	-0.951672 	1.11111e-05 	
0.000199682 	0.000199682 	0.00679927 	123606 	0.0145191 	7.78432 	123598 	92538.2 	31059.6 	
0.000169444 	3.06001e-09 	0.843947 	0.0780266 	0.0780266 	-0.121329 	3.51134 	
3.63267 	4.17612 	-0.543448 	-2.2212 	5.18649e-08 	11.119 	8.881 	
1.22182e-11 	19266.4 	1.92664 	3.85327 	0.3 	2.33333 	-0.951944 	1.11111e-05 	
0.000199682 	0.000199682 	0.0068017 	123650 	0.0101176 	13.6778 	123636 	92567.7 	31068.5 	
0.000180556 	2.38071e-09 	0.843947 	0.0780266 	0.0780266 	-0.121329 	3.51132 	
3.63265 	4.17612 	-0.543467 	-2.22202 	4.03501e-08 	8.89739 	11.1026 	
1.22227e-11 	19266.4 	1.92664 	3.85327 	0.3 	2.33333 	-0.952296 	1.11111e-05 	
0.000199682 	0.000199682 	0.00680484 	123707 	0.0065145 	21.2584 	123686 	92605.6 	31079.9 	
0.000191667 	1.70106e-09 	0.843947 	0.0780266 	0.0780266 	-0.121329 	3.5113 	
3.63263 	4.17612 	-0.54349 	-2.22302 	2.88301e-08 	6.67487 	13.3251 	
1.22282e-11 	19266.4 	1.92664 	3.85327 	0.3 	2.33333 	-0.952725 	1.11111e-05 	
0.000199682 	0.000199682 	0.00680867 	123776 	0.00371023 	30.5286 	123746 	92652 	31093.9 	
0.000202778 	1.02105e-09 	0.843947 	0.0780266 	0.0780266 	-0.121329 	3.51127 	
3.6326 	4.17612 	-0.543518 	-2.22421 	1.73039e-08 	4.45125 	15.5488 	
1.22348e-11 	19266.4 	1.92664 	3.85327 	0.3 	2.33333 	-0.953233 	1.11111e-05 	
0.000199682 	0.000199682 	0.0068132 	123859 	0.00170568 	41.4916 	123817 	92706.8 	31110.5 	
0.000213889 	3.40598e-10 	0.843947 	0.0780266 	0.0780266 	-0.121329 	3.51124 	
3.63257 	4.17612 	-0.543549 	-2.22558 	5.77066e-09 	2.22635 	17.7736 	
1.22423e-11 	19266.4 	1.92664 	3.85327 	0.3 	2.33333 	-0.953819 	1.11111e-05 	
0.000199682 	0.000199682 	0.00681844 	123954 	0.000501966 	54.1508 	123900 	92770.2 	31129.7 	
0.000225 	1.16701e-13 	0.843947 	0.0780266 	0.0780266 	-0.121329 	3.5112 	
3.63253 	4.17612 	-0.543585 	-1.11357 	5.77066e-09 	0.556783 	19.4432 	
6.12541e-12 	9633.18 	0.963318 	1.92664 	0.3 	1.16667 	-0.954485 	5.55556e-06 	
9.98408e-05 	9.98408e-05 	0.00682396 	124054 	0.000100477 	60.905 	123993 	92842.1 	31151.4 	
ZONE T = "t = 7.75e-08 [s]" I = 10 SOLUTIONTIME = 7.7500000000000E-08
0.000125 	5.77755e-09 	0.843947 	0.0780266 	0.0780266 	-0.121329 	3.51137 	
3.6327 	4.17612 	-0.543415 	-1.10988 	9.79072e-08 	19.4451 	0.554938 	
8.60233e-12 	9633.18 	0.963318 	1.92664 	0.3 	1.16667 	-0.951321 	5.55556e-06 	
9.98408e-05 	9.98408e-05 	0.00957599 	123549 	0.0289139 	0.21033 	123548 	92500.4 	31048.1 	
0.000136111 	5.09697e-09 	0.843947 	0.0780266 	0.0780266 	-0.121329 	3.51137 	
3.6327 	4.17612 	-0.543417 	-2.21984 	8.63877e-08 	17.7802 	2.2198 	
1.72054e-11 	19266.4 	1.92664 	3.85327 	0.3 	2.33333 	-0.95136 	1.11111e-05 	
0.000199682 	0.000199682 	0.00957648 	123555 	0.0257157 	1.0517 	123554 	92504.5 	31049.4 	
0.000147222 	4.41819e-09 	0.843947 	0.0780266 	0.0780266 	-0.121329 	3.51137 	
3.63269 	4.17612 	-0.543423 	-2.22011 	7.48827e-08 	15.5602 	4.43977 	
1.72075e-11 	19266.4 	1.92664 	3.85327 	0.3 	2.33333 	-0.951477 	1.11111e-05 	
0.000199682 	0.000199682 	0.00957794 	123574 	0.0197185 	3.57609 	123570 	92517.1 	31053.2 	
0.000158333 	3.73928e-09 	0.843947 	0.0780266 	0.0780266 	-0.121329 	3.51136 	
3.63268 	4.17612 	-0.543434 	-2.22057 	6.33755e-08 	13.3399 	6.66011 	
1.7211e-11 	19266.4 	1.92664 	3.85327 	0.3 	2.33333 	-0.951672 	1.11111e-05 	
0.000199682 	0.000199682 	0.00958039 	123606 	0.0145191 	7.78432 	123598 	92538.2 	31059.6 	
0.000169444 	3.06016e-09 	0.843947 	0.0780266 	0.0780266 	-0.121329 	3.51134 	
3.63267 	4.17612 	-0.543448 	-2.2212 	5.18649e-08 	11.119 	8.881 	
1.72159e-11 	19266.4 	1.92664 	3.85327 	0.3 	2.33333 	-0.951944 	1.11111e-05 	
0.000199682 	0.000199682 	0.00958382 	123650 	0.0101176 	13.6778 	123636 	92567.7 	31068.5 	
0.000180556 	2.3808e-09 	0.843947 	0.0780266 	0.0780266 	-0.121329 	3.51132 	
3.63265 	4.17612 	-0.543467 	-2.22202 	4.03501e-08 	8.89739 	11.1026 	
1.72223e-11 	19266.4 	1.92664 	3.85327 	0.3 	2.33333 	-0.952296 	1.11111e-05 	
0.000199682 	0.000199682 	0.00958824 	123707 	0.0065145 	21.2584 	123686 	92605.6 	31079.9 	
0.000191667 	1.70108e-09 	0.843947 	0.0780266 	0.0780266 	-0.121329 	3.5113 	
3.63263 	4.17612 	-0.54349 	-2.22302 	2.88301e-08 	6.67487 	13.3251 	
1.723e-11 	19266.4 	1.92664 	3.85327 	0.3 	2.33333 	-0.952725 	1.11111e-05 	
0.000199682 	0.000199682 	0.00959364 	123776 	0.00371023 	30.5286 	123746 	92652 	31093.9 	
0.000202778 	1.02099e-09 	0.843947 	0.0780266 	0.0780266 	-0.121329 	3.51127 	
3.6326 	4.17612 	-0.543518 	-2.22421 	1.73039e-08 	4.45125 	15.5488 	
1.72392e-11 	19266.4 	1.92664 	3.85327 	0.3 	2.33333 	-0.953233 	1.11111e-05 	
0.000199682 	0.000199682 	0.00960003 	123859 	0.00170568 	41.4916 	123817 	92706.8 	31110.5 	
0.000213889 	3.40516e-10 	0.843947 	0.0780266 	0.0780266 	-0.121329 	3.51124 	
3.63257 	4.17612 	-0.543549 	-2.22558 	5.77067e-09 	2.22635 	17.7736 	
1.72498e-11 	19266.4 	1.92664 	3.85327 	0.3 	2.33333 	-0.953819 	1.11111e-05 	
0.000199682 	0.000199682 	0.0096074 	123954 	0.000501966 	54.1508 	123900 	92770.2 	31129.7 	
0.000225 	3.94443e-14 	0.843947 	0.0780266 	0.0780266 	-0.121329 	3.5112 	
3.63253 	4.17612 	-0.543585 	-1.11357 	5.77067e-09 	0.556783 	19.4432 	
8.63093e-12 	9633.18 	0.963318 	1.92664 	0.3 	1.16667 	-0.954485 	5.55556e-06 	
9.98408e-05 	9.98408e-05 	0.00961518 	124054 	0.000100477 	60.905 	123993 	92842.1 	31151.4 	
ZONE T = "t = 1.1125e-07 [s]" I = 10 SOLUTIONTIME = 1.1125000000000E-07
0.000125 	5.77838e-09 	0.843947 	0.0780266 	0.0780266 	-0.121329 	3.51137 	
3.6327 	4.17612 	-0.543415 	-1.10988 	9.79146e-08 	19.4451 	0.554938 	
1.23482e-11 	9633.18 	0.963318 	1.92664 	0.3 	1.16667 	-0.951321 	5.55556e-06 	
9.98408e-05 	9.98408e-05 	0.0137458 	123549 	0.0289139 	0.21033 	123548 	92500.4 	31048.1 	
0.000136111 	5.097e-09 	0.843947 	0.0780266 	0.0780266 	-0.121329 	3.51137 	
3.6327 	4.17612 	-0.543417 	-2.21984 	8.63877e-08 	17.7802 	2.2198 	
2.46973e-11 	19266.4 	1.92664 	3.85327 	0.3 	2.33333 	-0.95136 	1.11111e-05 	
0.000199682 	0.000199682 	0.0137465 	123555 	0.0257157 	1.0517 	123554 	92504.5 	31049.4 	
0.000147222 	4.41819e-09 	0.843947 	0.0780266 	0.0780266 	-0.121329 	3.51137 	
3.63269 	4.17612 	-0.543423 	-2.22011 	7.48827e-08 	15.5602 	4.43977 	
2.47004e-11 	19266.4 	1.92664 	3.85327 	0.3 	2.33333 	-0.951477 	1.11111e-05 	
0.000199682 	0.000199682 	0.0137486 	123574 	0.0197185 	3.57609 	123570 	92517.1 	31053.2 	
0.000158333 	3.73927e-09 	0.843947 	0.0780266 	0.0780266 	-0.121329 	3.51136 	
3.63268 	4.17612 	-0.543434 	-2.22057 	6.33755e-08 	13.3399 	6.66011 	
2.47054e-11 	19266.4 	1.92664 	3.85327 	0.3 	2.33333 	-0.951672 	1.11111e-05 	
0.000199682 	0.000199682 	0.0137521 	123606 	0.0145191 	7.78432 	123598 	92538.2 	31059.6 	
0.000169444 	3.06017e-09 	0.843947 	0.0780266 	0.0780266 	-0.121329 	3.51134 	
3.63267 	4.17612 	-0.543448 	-2.2212 	5.18649e-08 	11.119 	8.881 	
2.47125e-11 	19266.4 	1.92664 	3.85327 	0.3 	2.33333 	-0.951944 	1.11111e-05 	
0.000199682 	0.000199682 	0.013757 	123650 	0.0101176 	13.6778 	123636 	92567.7 	31068.5 	
0.000180556 	2.38079e-09 	0.843947 	0.0780266 	0.0780266 	-0.121329 	3.51132 	
3.63265 	4.17612 	-0.543467 	-2.22202 	4.03501e-08 	8.89739 	11.1026 	
2.47216e-11 	19266.4 	1.92664 	3.85327 	0.3 	2.33333 	-0.952296 	1.11111e-05 	
0.000199682 	0.000199682 	0.0137633 	123707 	0.0065145 	21.2584 	123686 	92605.6 	31079.9 	
0.000191667 	1.70112e-09 	0.843947 	0.0780266 	0.0780266 	-0.121329 	3.5113 	
3.63263 	4.17612 	-0.54349 	-2.22302 	2.88301e-08 	6.67487 	13.3251 	
2.47328e-11 	19266.4 	1.92664 	3.85327 	0.3 	2.33333 	-0.952725 	1.11111e-05 	
0.000199682 	0.000199682 	0.0137711 	123776 	0.00371023 	30.5286 	123746 	92652 	31093.9 	
0.000202778 	1.02108e-09 	0.843947 	0.0780266 	0.0780266 	-0.121329 	3.51127 	
3.6326 	4.17612 	-0.543518 	-2.22421 	1.73039e-08 	4.45125 	15.5488 	
2.47459e-11 	19266.4 	1.92664 	3.85327 	0.3 	2.33333 	-0.953233 	1.11111e-05 	
0.000199682 	0.000199682 	0.0137803 	123859 	0.00170568 	41.4916 	123817 	92706.8 	31110.5 	
0.000213889 	3.40612e-10 	0.843947 	0.0780266 	0.0780266 	-0.121329 	3.51124 	
3.63257 	4.17612 	-0.543549 	-2.22558 	5.77068e-09 	2.22635 	17.7736 	
2.47612e-11 	19266.4 	1.92664 	3.85327 	0.3 	2.33333 	-0.953819 	1.11111e-05 	
0.000199682 	0.000199682 	0.0137908 	123954 	0.000501966 	54.1508 	123900 	92770.2 	31129.7 	
0.000225 	1.66721e-13 	0.843947 	0.0780266 	0.0780266 	-0.121329 	3.5112 	
3.63253 	4.17612 	-0.543585 	-1.11357 	5.77068e-09 	0.556783 	19.4432 	
1.23892e-11 	9633.18 	0.963318 	1.92664 	0.3 	1.16667 	-0.954485 	5.55556e-06 	
9.98408e-05 	9.98408e-05 	0.013802 	124054 	0.000100477 	60.905 	123993 	92842.1 	31151.4 	
ZONE T = "t = 1.61875e-07 [s]" I = 10 SOLUTIONTIME = 1.6187500000000E-07
0.000125 	5.77957e-09 	0.843947 	0.0780266 	0.0780266 	-0.121329 	3.51137 	
3.6327 	4.17612 	-0.543415 	-1.10988 	9.79262e-08 	19.4451 	0.554938 	
1.79669e-11 	9633.18 	0.963318 	1.92664 	0.3 	1.16667 	-0.951321 	5.55556e-06 	
9.98408e-05 	9.98408e-05 	0.0200004 	123549 	0.0289139 	0.21033 	123548 	92500.4 	31048.1 	
0.000136111 	5.09687e-09 	0.843947 	0.0780266 	0.0780266 	-0.121329 	3.51137 	
3.6327 	4.17612 	-0.543417 	-2.21984 	8.63878e-08 	17.7802 	2.2198 	
3.59353e-11 	19266.4 	1.92664 	3.85327 	0.3 	2.33333 	-0.95136 	1.11111e-05 	
0.000199682 	0.000199682 	0.0200014 	123555 	0.0257157 	1.0517 	123554 	92504.5 	31049.4 	
0.000147222 	4.41806e-09 	0.843947 	0.0780266 	0.0780266 	-0.121329 	3.51137 	
3.63269 	4.17612 	-0.543423 	-2.22011 	7.48828e-08 	15.5602 	4.43977 	
3.59397e-11 	19266.4 	1.92664 	3.85327 	0.3 	2.33333 	-0.951477 	1.11111e-05 	
0.000199682 	0.000199682 	0.0200045 	123574 	0.0197185 	3.57609 	123570 	92517.1 	31053.2 	
0.000158333 	3.73916e-09 	0.843947 	0.0780266 	0.0780266 	-0.121329 	3.51136 	
3.63268 	4.17612 	-0.543434 	-2.22057 	6.33755e-08 	13.3399 	6.66011 	
3.5947e-11 	19266.4 	1.92664 	3.85327 	0.3 	2.33333 	-0.951672 	1.11111e-05 	
0.000199682 	0.000199682 	0.0200096 	123606 	0.0145191 	7.78432 	123598 	92538.2 	31059.6 	
0.000169444 	3.06003e-09 	0.843947 	0.0780266 	0.0780266 	-0.121329 	3.51134 	
3.63267 	4.17612 	-0.543448 	-2.2212 	5.18649e-08 	11.119 	8.881 	
3.59573e-11 	19266.4 	1.92664 	3.85327 	0.3 	2.33333 	-0.951944 	1.11111e-05 	
0.000199682 	0.000199682 	0.0200168 	123650 	0.0101176 	13.6778 	123636 	92567.7 	31068.5 	
0.000180556 	2.38064e-09 	0.843947 	0.0780266 	0.0780266 	-0.121329 	3.51132 	
3.63265 	4.17612 	-0.543467 	-2.22202 	4.03501e-08 	8.89739 	11.1026 	
3.59706e-11 	19266.4 	1.92664 	3.85327 	0.3 	2.33333 	-0.952296 	1.11111e-05 	
0.000199682 	0.000199682 	0.020026 	123707 	0.0065145 	21.2584 	123686 	92605.6 	31079.9 	
0.000191667 	1.70097e-09 	0.843947 	0.0780266 	0.0780266 	-0.121329 	3.5113 	
3.63263 	4.17612 	-0.54349 	-2.22302 	2.88301e-08 	6.67487 	13.3251 	
3.59868e-11 	19266.4 	1.92664 	3.85327 	0.3 	2.33333 	-0.952725 	1.11111e-05 	
0.000199682 	0.000199682 	0.0200373 	123776 	0.00371023 	30.5286 	123746 	92652 	31093.9 	
0.000202778 	1.02093e-09 	0.843947 	0.0780266 	0.0780266 	-0.121329 	3.51127 	
3.6326 	4.17612 	-0.543518 	-2.22421 	1.73039e-08 	4.45125 	15.5488 	
3.6006e-11 	19266.4 	1.92664 	3.85327 	0.3 	2.33333 	-0.953233 	1.11111e-05 	
0.000199682 	0.000199682 	0.0200506 	123859 	0.00170568 	41.4916 	123817 	92706.8 	31110.5 	
0.000213889 	3.40476e-10 	0.843947 	0.0780266 	0.0780266 	-0.121329 	3.51124 	
3.63257 	4.17612 	-0.543549 	-2.22558 	5.77069e-09 	2.22635 	17.7736 	
3.60281e-11 	19266.4 	1.92664 	3.85327 	0.3 	2.33333 	-0.953819 	1.11111e-05 	
0.000199682 	0.000199682 	0.020066 	123954 	0.000501966 	54.1508 	123900 	92770.2 	31129.7 	
0.000225 	-1.80748e-14 	0.843947 	0.0780266 	0.0780266 	-0.121329 	3.5112 	
3.63253 	4.17612 	-0.543585 	-1.11357 	5.77069e-09 	0.556783 	19.4432 	
1.80266e-11 	9633.18 	0.963318 	1.92664 	0.3 	1.16667 	-0.954485 	5.55556e-06 	
9.98408e-05 	9.98408e-05 	0.0200823 	124054 	0.000100477 	60.905 	123993 	92842.1 	31151.4 	
ZONE T = "t = 2.37813e-07 [s]" I = 10 SOLUTIONTIME = 2.3781250000000E-07
0.000125 	5.78174e-09 	0.843947 	0.0780266 	0.0780266 	-0.121329 	3.51137 	
3.6327 	4.17612 	-0.543415 	-1.10988 	9.79444e-08 	19.4451 	0.554938 	
2.6395e-11 	9633.18 	0.963318 	1.92664 	0.3 	1.16667 	-0.951321 	5.55556e-06 	
9.98408e-05 	9.98408e-05 	0.0293824 	123549 	0.0289139 	0.21033 	123548 	92500.4 	31048.1 	
0.000136111 	5.09692e-09 	0.843947 	0.0780266 	0.0780266 	-0.121329 	3.51137 	
3.6327 	4.17612 	-0.543417 	-2.21984 	8.6388e-08 	17.7802 	2.2198 	