TITLE = "Solution on Domain BulkDomain1D_1"
VARIABLES = "x [m]"  
"Vel_axial" 	"MF_sp(ECDMC)" 	"MF_sp(Li+)" 	"MF_sp(PF6-)" 	"Volt(Electroly)" 	"Porosity []" 	"Control volume thickness [m]" 	"volFrac MgO(S) []" 	"qHeat_accum [J/m3]" 	"qHeat_step [W/m3]" 	"Joule_Lyte [W/m3]" 	"Joule_Solid [W/m3]" 	
ZONE T = "SEP , 0.0000E+00", I = 10, SOLUTIONTIME = 0.000000E+00
ZONETYPE = ORDERED
DATAPACKING = BLOCK
STRANDID = 2
 1.0000000000000E-04  1.0277777777778E-04  1.0555555555556E-04  1.0833333333333E-04  1.1111111111111E-04  1.1388888888889E-04  1.1666666666667E-04  1.1944444444444E-04  1.2222222222222E-04  1.2500000000000E-04 
 0.0000000000000E+00  0.0000000000000E+00  0.0000000000000E+00  0.0000000000000E+00  0.0000000000000E+00  0.0000000000000E+00  0.0000000000000E+00  0.0000000000000E+00  0.0000000000000E+00  0.0000000000000E+00 
 8.4394680000000E-01  8.4394680000000E-01  8.4394680000000E-01  8.4394680000000E-01  8.4394680000000E-01  8.4394680000000E-01  8.4394680000000E-01  8.4394680000000E-01  8.4394680000000E-01  8.4394680000000E-01 
 7.8026600000000E-02  7.8026600000000E-02  7.8026600000000E-02  7.8026600000000E-02  7.8026600000000E-02  7.8026600000000E-02  7.8026600000000E-02  7.8026600000000E-02  7.8026600000000E-02  7.8026600000000E-02 
 7.8026600000000E-02  7.8026600000000E-02  7.8026600000000E-02  7.8026600000000E-02  7.8026600000000E-02  7.8026600000000E-02  7.8026600000000E-02  7.8026600000000E-02  7.8026600000000E-02  7.8026600000000E-02 
-7.0000000000000E-02 -7.0000000000000E-02 -7.0000000000000E-02 -7.0000000000000E-02 -7.0000000000000E-02 -7.0000000000000E-02 -7.0000000000000E-02 -7.0000000000000E-02 -7.0000000000000E-02 -7.0000000000000E-02 
 8.0000000000000E-01  8.0000000000000E-01  8.0000000000000E-01  8.0000000000000E-01  8.0000000000000E-01  8.0000000000000E-01  8.0000000000000E-01  8.0000000000000E-01  8.0000000000000E-01  8.0000000000000E-01 
 1.3888888888889E-06  2.7777777777778E-06  2.7777777777778E-06  2.7777777777778E-06  2.7777777777778E-06  2.7777777777778E-06  2.7777777777778E-06  2.7777777777778E-06  2.7777777777778E-06  1.3888888888889E-06 
 2.0000000000000E-01  2.0000000000000E-01  2.0000000000000E-01  2.0000000000000E-01  2.0000000000000E-01  2.0000000000000E-01  2.0000000000000E-01  2.0000000000000E-01  2.0000000000000E-01  2.0000000000000E-01 
 0.0000000000000E+00  0.0000000000000E+00  0.0000000000000E+00  0.0000000000000E+00  0.0000000000000E+00  0.0000000000000E+00  0.0000000000000E+00  0.0000000000000E+00  0.0000000000000E+00  0.0000000000000E+00 
 0.0000000000000E+00  0.0000000000000E+00  0.0000000000000E+00  0.0000000000000E+00  0.0000000000000E+00  0.0000000000000E+00  0.0000000000000E+00  0.0000000000000E+00  0.0000000000000E+00  0.0000000000000E+00 
 0.0000000000000E+00  0.0000000000000E+00  0.0000000000000E+00  0.0000000000000E+00  0.0000000000000E+00  0.0000000000000E+00  0.0000000000000E+00  0.0000000000000E+00  0.0000000000000E+00  0.0000000000000E+00 
 0.0000000000000E+00  0.0000000000000E+00  0.0000000000000E+00  0.0000000000000E+00  0.0000000000000E+00  0.0000000000000E+00  0.0000000000000E+00  0.0000000000000E+00  0.0000000000000E+00  0.0000000000000E+00 
ZONE T = "SEP , 1.0000E-08", I = 10, SOLUTIONTIME = 1.000000E-08
ZONETYPE = ORDERED
DATAPACKING = BLOCK
STRANDID = 2
 1.0000000000000E-04  1.0277777777778E-04  1.0555555555556E-04  1.0833333333333E-04  1.1111111111111E-04  1.1388888888889E-04  1.1666666666667E-04  1.1944444444444E-04  1.2222222222222E-04  1.2500000000000E-04 
 6.1202762385078E-09  6.1152793950042E-09  6.1152761704268E-09  6.1152755183307E-09  6.1152755026359E-09  6.1152755014815E-09  6.1152761343475E-09  6.1152998250447E-09  6.1204274555767E-09  5.7762708372655E-09 
 8.4394679999730E-01  8.4394679999997E-01  8.4394680000000E-01  8.4394680000000E-01  8.4394680000000E-01  8.4394680000000E-01  8.4394680000000E-01  8.4394680000000E-01  8.4394680000003E-01  8.4394680000270E-01 
 7.8026600001352E-02  7.8026600000015E-02  7.8026600000000E-02  7.8026600000000E-02  7.8026600000000E-02  7.8026600000000E-02  7.8026600000000E-02  7.8026600000000E-02  7.8026599999985E-02  7.8026599998648E-02 
 7.8026600001352E-02  7.8026600000015E-02  7.8026600000000E-02  7.8026600000000E-02  7.8026600000000E-02  7.8026600000000E-02  7.8026600000000E-02  7.8026600000000E-02  7.8026599999985E-02  7.8026599998648E-02 
-1.2133013861019E-01 -1.2133013964389E-01 -1.2133014067767E-01 -1.2133014171135E-01 -1.2133014274516E-01 -1.2133014377884E-01 -1.2133014481263E-01 -1.2133014584631E-01 -1.2133014688011E-01 -1.2133014791379E-01 
 8.0000000000000E-01  8.0000000000000E-01  8.0000000000000E-01  8.0000000000000E-01  8.0000000000000E-01  8.0000000000000E-01  8.0000000000000E-01  8.0000000000000E-01  8.0000000000000E-01  8.0000000000000E-01 
 1.3888888888889E-06  2.7777777777778E-06  2.7777777777778E-06  2.7777777777778E-06  2.7777777777778E-06  2.7777777777778E-06  2.7777777777778E-06  2.7777777777778E-06  2.7777777777778E-06  1.3888888888889E-06 
 2.0000000000000E-01  2.0000000000000E-01  2.0000000000000E-01  2.0000000000000E-01  2.0000000000000E-01  2.0000000000000E-01  2.0000000000000E-01  2.0000000000000E-01  2.0000000000000E-01  2.0000000000000E-01 
 7.4424254357744E-11  7.4428990562674E-11  7.4427308982175E-11  7.4430460624156E-11  7.4430460624157E-11  7.4428753884538E-11  7.4428687940993E-11  7.4428975725723E-11  7.4429095622757E-11  7.4420999103727E-11 
 7.4424254357744E-03  7.4428990562674E-03  7.4427308982175E-03  7.4430460624156E-03  7.4430460624157E-03  7.4428753884538E-03  7.4428687940993E-03  7.4428975725723E-03  7.4429095622757E-03  7.4420999103727E-03 
 7.4424254357744E-03  7.4428990562674E-03  7.4427308982175E-03  7.4430460624156E-03  7.4430460624157E-03  7.4428753884538E-03  7.4428687940993E-03  7.4428975725723E-03  7.4429095622757E-03  7.4420999103727E-03 
 0.0000000000000E+00  0.0000000000000E+00  0.0000000000000E+00  0.0000000000000E+00  0.0000000000000E+00  0.0000000000000E+00  0.0000000000000E+00  0.0000000000000E+00  0.0000000000000E+00  0.0000000000000E+00 
ZONE T = "SEP , 2.0000E-08", I = 10, SOLUTIONTIME = 2.000000E-08
ZONETYPE = ORDERED
DATAPACKING = BLOCK
STRANDID = 2
 1.0000000000000E-04  1.0277777777778E-04  1.0555555555556E-04  1.0833333333333E-04  1.1111111111111E-04  1.1388888888889E-04  1.1666666666667E-04  1.1944444444444E-04  1.2222222222222E-04  1.2500000000000E-04 
 6.1248806050451E-09  6.1150469521141E-09  6.1148617160841E-09  6.1148633088927E-09  6.1148632837622E-09  6.1148633086974E-09  6.1148616988445E-09  6.1150757031305E-09  6.1248309612455E-09  5.7758012114683E-09 
 8.4394679999461E-01  8.4394679999991E-01  8.4394680000000E-01  8.4394680000000E-01  8.4394680000000E-01  8.4394680000000E-01  8.4394680000000E-01  8.4394680000000E-01  8.4394680000009E-01  8.4394680000538E-01 
 7.8026600002693E-02  7.8026600000045E-02  7.8026600000001E-02  7.8026600000000E-02  7.8026600000000E-02  7.8026600000000E-02  7.8026600000000E-02  7.8026599999999E-02  7.8026599999955E-02  7.8026599997309E-02 
 7.8026600002693E-02  7.8026600000045E-02  7.8026600000001E-02  7.8026600000000E-02  7.8026600000000E-02  7.8026600000000E-02  7.8026600000000E-02  7.8026599999999E-02  7.8026599999955E-02  7.8026599997309E-02 
-1.2132872348705E-01 -1.2132872452079E-01 -1.2132872555453E-01 -1.2132872658827E-01 -1.2132872762201E-01 -1.2132872865574E-01 -1.2132872968948E-01 -1.2132873072322E-01 -1.2132873175696E-01 -1.2132873279070E-01 
 8.0000000000000E-01  8.0000000000000E-01  8.0000000000000E-01  8.0000000000000E-01  8.0000000000000E-01  8.0000000000000E-01  8.0000000000000E-01  8.0000000000000E-01  8.0000000000000E-01  8.0000000000000E-01 
 1.3888888888889E-06  2.7777777777778E-06  2.7777777777778E-06  2.7777777777778E-06  2.7777777777778E-06  2.7777777777778E-06  2.7777777777778E-06  2.7777777777778E-06  2.7777777777778E-06  1.3888888888889E-06 
 2.0000000000000E-01  2.0000000000000E-01  2.0000000000000E-01  2.0000000000000E-01  2.0000000000000E-01  2.0000000000000E-01  2.0000000000000E-01  2.0000000000000E-01  2.0000000000000E-01  2.0000000000000E-01 
 1.4885343869097E-10  1.4885817389599E-10  1.4885649231476E-10  1.4885964395673E-10  1.4885964395673E-10  1.4885793721711E-10  1.4885787127357E-10  1.4885815905828E-10  1.4885827895459E-10  1.4885018343405E-10 
 7.4429184333231E-03  7.4429183333315E-03  7.4429183332586E-03  7.4429183332574E-03  7.4429183332575E-03  7.4429183332574E-03  7.4429183332574E-03  7.4429183332562E-03  7.4429183331834E-03  7.4429184330319E-03 
 7.4429184333231E-03  7.4429183333315E-03  7.4429183332586E-03  7.4429183332574E-03  7.4429183332575E-03  7.4429183332574E-03  7.4429183332574E-03  7.4429183332562E-03  7.4429183331834E-03  7.4429184330319E-03 
 0.0000000000000E+00  0.0000000000000E+00  0.0000000000000E+00  0.0000000000000E+00  0.0000000000000E+00  0.0000000000000E+00  0.0000000000000E+00  0.0000000000000E+00  0.0000000000000E+00  0.0000000000000E+00 
ZONE T = "SEP , 3.0000E-08", I = 10, SOLUTIONTIME = 3.000000E-08
ZONETYPE = ORDERED
DATAPACKING = BLOCK
STRANDID = 2
 1.0000000000000E-04  1.0277777777778E-04  1.0555555555556E-04  1.0833333333333E-04  1.1111111111111E-04  1.1388888888889E-04  1.1666666666667E-04  1.1944444444444E-04  1.2222222222222E-04  1.2500000000000E-04 
 6.1296382416000E-09  6.1150982040200E-09  6.1147815751801E-09  6.1147793932915E-09  6.1147793258614E-09  6.1147793918086E-09  6.1147814442872E-09  6.1152029072158E-09  6.1298468233952E-09  5.7762459991102E-09 
 8.4394679999196E-01  8.4394679999982E-01  8.4394680000000E-01  8.4394680000000E-01  8.4394680000000E-01  8.4394680000000E-01  8.4394680000000E-01  8.4394680000000E-01  8.4394680000018E-01  8.4394680000804E-01 
 7.8026600004022E-02  7.8026600000090E-02  7.8026600000002E-02  7.8026600000000E-02  7.8026600000000E-02  7.8026600000000E-02  7.8026600000000E-02  7.8026599999998E-02  7.8026599999910E-02  7.8026599995980E-02 
 7.8026600004022E-02  7.8026600000090E-02  7.8026600000002E-02  7.8026600000000E-02  7.8026600000000E-02  7.8026600000000E-02  7.8026600000000E-02  7.8026599999998E-02  7.8026599999910E-02  7.8026599995980E-02 
-1.2132872348772E-01 -1.2132872452145E-01 -1.2132872555519E-01 -1.2132872658893E-01 -1.2132872762267E-01 -1.2132872865641E-01 -1.2132872969015E-01 -1.2132873072389E-01 -1.2132873175763E-01 -1.2132873279136E-01 
 8.0000000000000E-01  8.0000000000000E-01  8.0000000000000E-01  8.0000000000000E-01  8.0000000000000E-01  8.0000000000000E-01  8.0000000000000E-01  8.0000000000000E-01  8.0000000000000E-01  8.0000000000000E-01 
 1.3888888888889E-06  2.7777777777778E-06  2.7777777777778E-06  2.7777777777778E-06  2.7777777777778E-06  2.7777777777778E-06  2.7777777777778E-06  2.7777777777778E-06  2.7777777777778E-06  1.3888888888889E-06 
 2.0000000000000E-01  2.0000000000000E-01  2.0000000000000E-01  2.0000000000000E-01  2.0000000000000E-01  2.0000000000000E-01  2.0000000000000E-01  2.0000000000000E-01  2.0000000000000E-01  2.0000000000000E-01 
 2.2328262102653E-10  2.2328735722968E-10  2.2328567564736E-10  2.2328882728930E-10  2.2328882728931E-10  2.2328712054969E-10  2.2328705460614E-10  2.2328734239083E-10  2.2328746228605E-10  2.2327936576523E-10 
 7.4429182335560E-03  7.4429183333692E-03  7.4429183332599E-03  7.4429183332574E-03  7.4429183332575E-03  7.4429183332574E-03  7.4429183332574E-03  7.4429183332549E-03  7.4429183331457E-03  7.4429182331188E-03 
 7.4429182335560E-03  7.4429183333692E-03  7.4429183332599E-03  7.4429183332574E-03  7.4429183332575E-03  7.4429183332574E-03  7.4429183332574E-03  7.4429183332549E-03  7.4429183331457E-03  7.4429182331188E-03 
 0.0000000000000E+00  0.0000000000000E+00  0.0000000000000E+00  0.0000000000000E+00  0.0000000000000E+00  0.0000000000000E+00  0.0000000000000E+00  0.0000000000000E+00  0.0000000000000E+00  0.0000000000000E+00 
ZONE T = "SEP , 4.0000E-08", I = 10, SOLUTIONTIME = 4.000000E-08
ZONETYPE = ORDERED
DATAPACKING = BLOCK
STRANDID = 2
 1.0000000000000E-04  1.0277777777778E-04  1.0555555555556E-04  1.0833333333333E-04  1.1111111111111E-04  1.1388888888889E-04  1.1666666666667E-04  1.1944444444444E-04  1.2222222222222E-04  1.2500000000000E-04 
 6.1351736795412E-09  6.1159823139449E-09  6.1154230968836E-09  6.1154541404956E-09  6.1154539451899E-09  6.1154541159314E-09  6.1155305108422E-09  6.1160348510306E-09  6.1351785332130E-09  5.7769356630266E-09 
 8.4394679998932E-01  8.4394679999970E-01  8.4394679999999E-01  8.4394680000000E-01  8.4394680000000E-01  8.4394680000000E-01  8.4394680000000E-01  8.4394680000001E-01  8.4394680000030E-01  8.4394680001067E-01 
 7.8026600005339E-02  7.8026600000149E-02  7.8026600000003E-02  7.8026600000000E-02  7.8026600000000E-02  7.8026600000000E-02  7.8026600000000E-02  7.8026599999997E-02  7.8026599999852E-02  7.8026599994663E-02 
 7.8026600005339E-02  7.8026600000149E-02  7.8026600000003E-02  7.8026600000000E-02  7.8026600000000E-02  7.8026600000000E-02  7.8026600000000E-02  7.8026599999997E-02  7.8026599999852E-02  7.8026599994663E-02 
-1.2132872348838E-01 -1.2132872452212E-01 -1.2132872555586E-01 -1.2132872658960E-01 -1.2132872762334E-01 -1.2132872865707E-01 -1.2132872969081E-01 -1.2132873072455E-01 -1.2132873175829E-01 -1.2132873279203E-01 
 8.0000000000000E-01  8.0000000000000E-01  8.0000000000000E-01  8.0000000000000E-01  8.0000000000000E-01  8.0000000000000E-01  8.0000000000000E-01  8.0000000000000E-01  8.0000000000000E-01  8.0000000000000E-01 
 1.3888888888889E-06  2.7777777777778E-06  2.7777777777778E-06  2.7777777777778E-06  2.7777777777778E-06  2.7777777777778E-06  2.7777777777778E-06  2.7777777777778E-06  2.7777777777778E-06  1.3888888888889E-06 
 2.0000000000000E-01  2.0000000000000E-01  2.0000000000000E-01  2.0000000000000E-01  2.0000000000000E-01  2.0000000000000E-01  2.0000000000000E-01  2.0000000000000E-01  2.0000000000000E-01  2.0000000000000E-01 
 2.9771180536123E-10  2.9771654056375E-10  2.9771485897997E-10  2.9771801062188E-10  2.9771801062188E-10  2.9771630388226E-10  2.9771623693951E-10  2.9771652572337E-10  2.9771664561712E-10  2.9770854809569E-10 
 7.4429184334693E-03  7.4429183334074E-03  7.4429183332615E-03  7.4429183332575E-03  7.4429183332575E-03  7.4429183332574E-03  7.4429182333372E-03  7.4429183332533E-03  7.4429183331075E-03  7.4429182330456E-03 
 7.4429184334693E-03  7.4429183334074E-03  7.4429183332615E-03  7.4429183332575E-03  7.4429183332575E-03  7.4429183332574E-03  7.4429182333372E-03  7.4429183332533E-03  7.4429183331075E-03  7.4429182330456E-03 
 0.0000000000000E+00  0.0000000000000E+00  0.0000000000000E+00  0.0000000000000E+00  0.0000000000000E+00  0.0000000000000E+00  0.0000000000000E+00  0.0000000000000E+00  0.0000000000000E+00  0.0000000000000E+00 
ZONE T = "SEP , 5.5000E-08", I = 10, SOLUTIONTIME = 5.500000E-08
ZONETYPE = ORDERED
DATAPACKING = BLOCK
STRANDID = 2
 1.0000000000000E-04  1.0277777777778E-04  1.0555555555556E-04  1.0833333333333E-04  1.1111111111111E-04  1.1388888888889E-04  1.1666666666667E-04  1.1944444444444E-04  1.2222222222222E-04  1.2500000000000E-04 
 6.1414463124761E-09  6.1157312042562E-09  6.1147627150976E-09  6.1147635003591E-09  6.1147628699186E-09  6.1147634853573E-09  6.1147265735710E-09  6.1156414712706E-09  6.1413567695619E-09  5.7765072376316E-09 
 8.4394679998542E-01  8.4394679999947E-01  8.4394679999998E-01  8.4394680000000E-01  8.4394680000000E-01  8.4394680000000E-01  8.4394680000000E-01  8.4394680000002E-01  8.4394680000053E-01  8.4394680001458E-01 
 7.8026600007292E-02  7.8026600000266E-02  7.8026600000008E-02  7.8026600000000E-02  7.8026600000000E-02  7.8026600000000E-02  7.8026600000000E-02  7.8026599999992E-02  7.8026599999734E-02  7.8026599992711E-02 
 7.8026600007292E-02  7.8026600000266E-02  7.8026600000008E-02  7.8026600000000E-02  7.8026600000000E-02  7.8026600000000E-02  7.8026600000000E-02  7.8026599999992E-02  7.8026599999734E-02  7.8026599992711E-02 
-1.2132872348905E-01 -1.2132872452279E-01 -1.2132872555653E-01 -1.2132872659027E-01 -1.2132872762401E-01 -1.2132872865775E-01 -1.2132872969149E-01 -1.2132873072522E-01 -1.2132873175896E-01 -1.2132873279270E-01 
 8.0000000000000E-01  8.0000000000000E-01  8.0000000000000E-01  8.0000000000000E-01  8.0000000000000E-01  8.0000000000000E-01  8.0000000000000E-01  8.0000000000000E-01  8.0000000000000E-01  8.0000000000000E-01 
 1.3888888888889E-06  2.7777777777778E-06  2.7777777777778E-06  2.7777777777778E-06  2.7777777777778E-06  2.7777777777778E-06  2.7777777777778E-06  2.7777777777778E-06  2.7777777777778E-06  1.3888888888889E-06 
 2.0000000000000E-01  2.0000000000000E-01  2.0000000000000E-01  2.0000000000000E-01  2.0000000000000E-01  2.0000000000000E-01  2.0000000000000E-01  2.0000000000000E-01  2.0000000000000E-01  2.0000000000000E-01 
 4.0935557886732E-10  4.0936031556574E-10  4.0935863397895E-10  4.0936178562074E-10  4.0936178562074E-10  4.0936007888112E-10  4.0936001193837E-10  4.0936030072212E-10  4.0936042061286E-10  4.0935232158972E-10 
 7.4429182337392E-03  7.4429183334657E-03  7.4429183332649E-03  7.4429183332576E-03  7.4429183332575E-03  7.4429183332574E-03  7.4429183332572E-03  7.4429183332499E-03  7.4429183330492E-03  7.4429182329356E-03 
 7.4429182337392E-03  7.4429183334657E-03  7.4429183332649E-03  7.4429183332576E-03  7.4429183332575E-03  7.4429183332574E-03  7.4429183332572E-03  7.4429183332499E-03  7.4429183330492E-03  7.4429182329356E-03 
 0.0000000000000E+00  0.0000000000000E+00  0.0000000000000E+00  0.0000000000000E+00  0.0000000000000E+00  0.0000000000000E+00  0.0000000000000E+00  0.0000000000000E+00  0.0000000000000E+00  0.0000000000000E+00 
ZONE T = "SEP , 7.7500E-08", I = 10, SOLUTIONTIME = 7.750000E-08
ZONETYPE = ORDERED
DATAPACKING = BLOCK
STRANDID = 2
 1.0000000000000E-04  1.0277777777778E-04  1.0555555555556E-04  1.0833333333333E-04  1.1111111111111E-04  1.1388888888889E-04  1.1666666666667E-04  1.1944444444444E-04  1.2222222222222E-04  1.2500000000000E-04 
 6.1516432546052E-09  6.1167946182555E-09  6.1150325271458E-09  6.1149504218921E-09  6.1149499182831E-09  6.1149504032520E-09  6.1150452296343E-09  6.1168320173178E-09  6.1516457740695E-09  5.7772834181162E-09 
 8.4394679997966E-01  8.4394679999899E-01  8.4394679999996E-01  8.4394680000000E-01  8.4394680000000E-01  8.4394680000000E-01  8.4394680000000E-01  8.4394680000004E-01  8.4394680000101E-01  8.4394680002033E-01 
 7.8026600010168E-02  7.8026600000506E-02  7.8026600000020E-02  7.8026600000001E-02  7.8026600000000E-02  7.8026600000000E-02  7.8026599999999E-02  7.8026599999980E-02  7.8026599999495E-02  7.8026599989836E-02 
 7.8026600010168E-02  7.8026600000506E-02  7.8026600000020E-02  7.8026600000001E-02  7.8026600000000E-02  7.8026600000000E-02  7.8026599999999E-02  7.8026599999980E-02  7.8026599999495E-02  7.8026599989836E-02 
-1.2132872349008E-01 -1.2132872452382E-01 -1.2132872555755E-01 -1.2132872659129E-01 -1.2132872762503E-01 -1.2132872865877E-01 -1.2132872969251E-01 -1.2132873072625E-01 -1.2132873175999E-01 -1.2132873279373E-01 
 8.0000000000000E-01  8.0000000000000E-01  8.0000000000000E-01  8.0000000000000E-01  8.0000000000000E-01  8.0000000000000E-01  8.0000000000000E-01  8.0000000000000E-01  8.0000000000000E-01  8.0000000000000E-01 
 1.3888888888889E-06  2.7777777777778E-06  2.7777777777778E-06  2.7777777777778E-06  2.7777777777778E-06  2.7777777777778E-06  2.7777777777778E-06  2.7777777777778E-06  2.7777777777778E-06  1.3888888888889E-06 
 2.0000000000000E-01  2.0000000000000E-01  2.0000000000000E-01  2.0000000000000E-01  2.0000000000000E-01  2.0000000000000E-01  2.0000000000000E-01  2.0000000000000E-01  2.0000000000000E-01  2.0000000000000E-01 
 5.7682123913018E-10  5.7682597807073E-10  5.7682429647756E-10  5.7682744811905E-10  5.7682744811904E-10  5.7682574137941E-10  5.7682567443665E-10  5.7682596322008E-10  5.7682608310445E-10  5.7681798182705E-10 
 7.4429182339049E-03  7.4429183335552E-03  7.4429183332719E-03  7.4429183332579E-03  7.4429183332575E-03  7.4429183332574E-03  7.4429183332568E-03  7.4429183332429E-03  7.4429183329597E-03  7.4429182327700E-03 
 7.4429182339049E-03  7.4429183335552E-03  7.4429183332719E-03  7.4429183332579E-03  7.4429183332575E-03  7.4429183332574E-03  7.4429183332568E-03  7.4429183332429E-03  7.4429183329597E-03  7.4429182327700E-03 
 0.0000000000000E+00  0.0000000000000E+00  0.0000000000000E+00  0.0000000000000E+00  0.0000000000000E+00  0.0000000000000E+00  0.0000000000000E+00  0.0000000000000E+00  0.0000000000000E+00  0.0000000000000E+00 
ZONE T = "SEP , 1.1125E-07", I = 10, SOLUTIONTIME = 1.112500E-07
ZONETYPE = ORDERED
DATAPACKING = BLOCK
STRANDID = 2
 1.0000000000000E-04  1.0277777777778E-04  1.0555555555556E-04  1.0833333333333E-04  1.1111111111111E-04  1.1388888888889E-04  1.1666666666667E-04  1.1944444444444E-04  1.2222222222222E-04  1.2500000000000E-04 
 6.1658025562892E-09  6.1185696733111E-09  6.1151933843786E-09  6.1150053505804E-09  6.1150127430034E-09  6.1150199182480E-09  6.1152076361689E-09  6.1185511980789E-09  6.1657760498156E-09  5.7780159206111E-09 
 8.4394679997126E-01  8.4394679999802E-01  8.4394679999989E-01  8.4394679999999E-01  8.4394680000000E-01  8.4394680000000E-01  8.4394680000001E-01  8.4394680000011E-01  8.4394680000198E-01  8.4394680002873E-01 
 7.8026600014372E-02  7.8026600000992E-02  7.8026600000055E-02  7.8026600000003E-02  7.8026600000000E-02  7.8026600000000E-02  7.8026599999997E-02  7.8026599999946E-02  7.8026599999008E-02  7.8026599985633E-02 
 7.8026600014372E-02  7.8026600000992E-02  7.8026600000055E-02  7.8026600000003E-02  7.8026600000000E-02  7.8026600000000E-02  7.8026599999997E-02  7.8026599999946E-02  7.8026599999008E-02  7.8026599985633E-02 
-1.2132872349161E-01 -1.2132872452535E-01 -1.2132872555909E-01 -1.2132872659283E-01 -1.2132872762657E-01 -1.2132872866031E-01 -1.2132872969404E-01 -1.2132873072778E-01 -1.2132873176152E-01 -1.2132873279526E-01 
 8.0000000000000E-01  8.0000000000000E-01  8.0000000000000E-01  8.0000000000000E-01  8.0000000000000E-01  8.0000000000000E-01  8.0000000000000E-01  8.0000000000000E-01  8.0000000000000E-01  8.0000000000000E-01 
 1.3888888888889E-06  2.7777777777778E-06  2.7777777777778E-06  2.7777777777778E-06  2.7777777777778E-06  2.7777777777778E-06  2.7777777777778E-06  2.7777777777778E-06  2.7777777777778E-06  1.3888888888889E-06 
 2.0000000000000E-01  2.0000000000000E-01  2.0000000000000E-01  2.0000000000000E-01  2.0000000000000E-01  2.0000000000000E-01  2.0000000000000E-01  2.0000000000000E-01  2.0000000000000E-01  2.0000000000000E-01 
 8.2801972953289E-10  8.2802447183290E-10  8.2802279022599E-10  8.2802594186654E-10  8.2802594186648E-10  8.2802423512685E-10  8.2802416818403E-10  8.2802445359423E-10  8.2802457683717E-10  8.2801647891922E-10 
 7.4429182341544E-03  7.4429183336938E-03  7.4429183332867E-03  7.4429183332590E-03  7.4429183332575E-03  7.4429183332573E-03  7.4429183332558E-03  7.4429182333080E-03  7.4429183328212E-03  7.4429184323607E-03 
 7.4429182341544E-03  7.4429183336938E-03  7.4429183332867E-03  7.4429183332590E-03  7.4429183332575E-03  7.4429183332573E-03  7.4429183332558E-03  7.4429182333080E-03  7.4429183328212E-03  7.4429184323607E-03 
 0.0000000000000E+00  0.0000000000000E+00  0.0000000000000E+00  0.0000000000000E+00  0.0000000000000E+00  0.0000000000000E+00  0.0000000000000E+00  0.0000000000000E+00  0.0000000000000E+00  0.0000000000000E+00 
ZONE T = "SEP , 1.6188E-07", I = 10, SOLUTIONTIME = 1.618750E-07
ZONETYPE = ORDERED
DATAPACKING = BLOCK
STRANDID = 2
 1.0000000000000E-04  1.0277777777778E-04  1.0555555555556E-04  1.0833333333333E-04  1.1111111111111E-04  1.1388888888889E-04  1.1666666666667E-04  1.1944444444444E-04  1.2222222222222E-04  1.2500000000000E-04 
 6.1850064771976E-09  6.1217260441176E-09  6.1153757839109E-09  6.1148593103514E-09  6.1148177890942E-09  6.1148593612840E-09  6.1153706595777E-09  6.1217252841588E-09  6.1849857926193E-09  5.7790512320870E-09 
 8.4394679995909E-01  8.4394679999606E-01  8.4394679999969E-01  8.4394679999998E-01  8.4394680000000E-01  8.4394680000000E-01  8.4394680000002E-01  8.4394680000031E-01  8.4394680000394E-01  8.4394680004089E-01 
 7.8026600020454E-02  7.8026600001970E-02  7.8026600000153E-02  7.8026600000010E-02  7.8026600000001E-02  7.8026599999999E-02  7.8026599999990E-02  7.8026599999847E-02  7.8026599998030E-02  7.8026599979554E-02 
 7.8026600020454E-02  7.8026600001970E-02  7.8026600000153E-02  7.8026600000010E-02  7.8026600000001E-02  7.8026599999999E-02  7.8026599999990E-02  7.8026599999847E-02  7.8026599998030E-02  7.8026599979554E-02 
-1.2132872349391E-01 -1.2132872452765E-01 -1.2132872556139E-01 -1.2132872659513E-01 -1.2132872762887E-01 -1.2132872866260E-01 -1.2132872969634E-01 -1.2132873073008E-01 -1.2132873176382E-01 -1.2132873279756E-01 
 8.0000000000000E-01  8.0000000000000E-01  8.0000000000000E-01  8.0000000000000E-01  8.0000000000000E-01  8.0000000000000E-01  8.0000000000000E-01  8.0000000000000E-01  8.0000000000000E-01  8.0000000000000E-01 
 1.3888888888889E-06  2.7777777777778E-06  2.7777777777778E-06  2.7777777777778E-06  2.7777777777778E-06  2.7777777777778E-06  2.7777777777778E-06  2.7777777777778E-06  2.7777777777778E-06  1.3888888888889E-06 
 2.0000000000000E-01  2.0000000000000E-01  2.0000000000000E-01  2.0000000000000E-01  2.0000000000000E-01  2.0000000000000E-01  2.0000000000000E-01  2.0000000000000E-01  2.0000000000000E-01  2.0000000000000E-01 
 1.2048174651560E-09  1.2048222074286E-09  1.2048205308502E-09  1.2048236824879E-09  1.2048236824877E-09  1.2048219757480E-09  1.2048219088050E-09  1.2048221942123E-09  1.2048223174253E-09  1.2048142245385E-09 
 7.4429182345298E-03  7.4429182339901E-03  7.4429183333182E-03  7.4429183332620E-03  7.4429183332577E-03  7.4429183332571E-03  7.4429183332528E-03  7.4429183331967E-03  7.4429183326049E-03  7.4429184319855E-03 
 7.4429182345298E-03  7.4429182339901E-03  7.4429183333182E-03  7.4429183332620E-03  7.4429183332577E-03  7.4429183332571E-03  7.4429183332528E-03  7.4429183331967E-03  7.4429183326049E-03  7.4429184319855E-03 
 0.0000000000000E+00  0.0000000000000E+00  0.0000000000000E+00  0.0000000000000E+00  0.0000000000000E+00  0.0000000000000E+00  0.0000000000000E+00  0.0000000000000E+00  0.0000000000000E+00  0.0000000000000E+00 
ZONE T = "SEP , 2.3781E-07", I = 10, SOLUTIONTIME = 2.378125E-07
ZONETYPE = ORDERED
DATAPACKING = BLOCK
STRANDID = 2
 1.0000000000000E-04  1.0277777777778E-04  1.0555555555556E-04  1.0833333333333E-04  1.1111111111111E-04  1.1388888888889E-04  1.1666666666667E-04  1.1944444444444E-04  1.2222222222222E-04  1.2500000000000E-04 
 6.2107870359503E-09  6.1280875050906E-09  6.1163970253493E-09  6.1150983631290E-09  6.1149768702580E-09  6.1150983202426E-09  6.1164073507648E-09  6.1280977871505E-09  6.2107623370538E-09  5.7809999566379E-09 
 8.4394679994173E-01  8.4394679999222E-01  8.4394679999915E-01  8.4394679999992E-01  8.4394679999999E-01  8.4394680000001E-01  8.4394680000008E-01  8.4394680000085E-01  8.4394680000777E-01  8.4394680005825E-01 
 7.8026600029134E-02  7.8026600003888E-02  7.8026600000424E-02  7.8026600000041E-02  7.8026600000003E-02  7.8026599999997E-02  7.8026599999959E-02  7.8026599999576E-02  7.8026599996114E-02  7.8026599970877E-02 
 7.8026600029134E-02  7.8026600003888E-02  7.8026600000424E-02  7.8026600000041E-02  7.8026600000003E-02  7.8026599999997E-02  7.8026599999959E-02  7.8026599999576E-02  7.8026599996114E-02  7.8026599970877E-02 
-1.2132872349736E-01 -1.2132872453110E-01 -1.2132872556483E-01 -1.2132872659857E-01 -1.2132872763231E-01 -1.2132872866605E-01 -1.2132872969979E-01 -1.2132873073353E-01 -1.2132873176727E-01 -1.2132873280100E-01 
 8.0000000000000E-01  8.0000000000000E-01  8.0000000000000E-01  8.0000000000000E-01  8.0000000000000E-01  8.0000000000000E-01  8.0000000000000E-01  8.0000000000000E-01  8.0000000000000E-01  8.0000000000000E-01 
 1.3888888888889E-06  2.7777777777778E-06  2.7777777777778E-06  2.7777777777778E-06  2.7777777777778E-06  2.7777777777778E-06  2.7777777777778E-06  2.7777777777778E-06  2.7777777777778E-06  1.3888888888889E-06 
 2.0000000000000E-01  2.0000000000000E-01  2.0000000000000E-01  2.0000000000000E-01  2.0000000000000E-01  2.0000000000000E-01  2.0000000000000E-01  2.0000000000000E-01  2.0000000000000E-01  2.0000000000000E-01 
 1.7700140686334E-09  1.7700188108481E-09  1.7700171417916E-09  1.7700202934207E-09  1.7700202934195E-09  1.7700185866796E-09  1.7700185197357E-09  1.7700188051344E-09  1.7700189282817E-09  1.7700108429246E-09 
 7.4429182350934E-03  7.4429182343301E-03  7.4429183333844E-03  7.4429183332709E-03  7.4429183332586E-03  7.4429183332562E-03  7.4429183332439E-03  7.4429183331305E-03  7.4429183322651E-03  7.4429184314221E-03 
 7.4429182350934E-03  7.4429182343301E-03  7.4429183333844E-03  7.4429183332709E-03  7.4429183332586E-03  7.4429183332562E-03  7.4429183332439E-03  7.4429183331305E-03  7.4429183322651E-03  7.4429184314221E-03 
 0.0000000000000E+00  0.0000000000000E+00  0.0000000000000E+00  0.0000000000000E+00  0.0000000000000E+00  0.0000000000000E+00  0.0000000000000E+00  0.0000000000000E+00  0.0000000000000E+00  0.0000000000000E+00 
ZONE T = "SEP , 3.5172E-07", I = 10, SOLUTIONTIME = 3.517188E-07
ZONETYPE = ORDERED
DATAPACKING = BLOCK
STRANDID = 2
 1.0000000000000E-04  1.0277777777778E-04  1.0555555555556E-04  1.0833333333333E-04  1.1111111111111E-04  1.1388888888889E-04  1.1666666666667E-04  1.1944444444444E-04  1.2222222222222E-04  1.2500000000000E-04 
 6.2433312771376E-09  6.1391388324133E-09  6.1186685832500E-09  6.1154518114692E-09  6.1150663852315E-09  6.1154472126913E-09  6.1186639873223E-09  6.1391321456720E-09  6.2432828536176E-09  5.7839444690868E-09 
 8.4394679991734E-01  8.4394679998498E-01  8.4394679999773E-01  8.4394679999969E-01  8.4394679999997E-01  8.4394680000003E-01  8.4394680000031E-01  8.4394680000227E-01  8.4394680001502E-01  8.4394680008263E-01 
 7.8026600041331E-02  7.8026600007511E-02  7.8026600001136E-02  7.8026600000153E-02  7.8026600000017E-02  7.8026599999983E-02  7.8026599999847E-02  7.8026599998864E-02  7.8026599992492E-02  7.8026599958685E-02 