TITLE = "Solution on Domain BulkDomain1D_2"
VARIABLES = "x [m]"  
"Vel_axial(0)" 	"MF_sp(ECDMC)" 	"MF_sp(Li+)" 	"MF_sp(PF6-)" 	"Volt(Electroly)" 	"Volt(CathodeVo)" 	
"Potential Drop Electrode-Electrolyte [V]" 	"Surf_0 Equilibrium Potential Drop Electrode-Electrolyte [V]" 	"Overpotential_0 [V]" 	"Current Source [A/m^2]" 	"Li+ flux [kmol/m^2/s]" 	"Electrolyte Current [A/m^2]" 	"Electrode Current [A/m^2]" 	
"Capacity discharged [A-s]" 	"Depth of discharge [-]" 	"Capacity remaining [A-s]" 	"Initial capacity [A-s]" 	"Porosity []" 	"Surface Area [m2/m2] (area per area)" 	"Specific current (per particle area) [A/m^2]" 	"Control volume thickness [m]" 	
"Moles LiCoO2 [mol/m^2] (per electrode area)" 	"Moles CoO2 [mol/m^2] (per electrode area)" 	"qHeat_accum [J/m3]" 	"qHeat_step [W/m3]" 	"Joule_Lyte [W/m3]" 	"Joule_Solid [W/m3]" 	"electrodHeat [W/m3]" 	"OverpotHeat [W/m3]" 	"deltaSHeat [W/m3]" 	

ZONE T = "t = 0 [s]" I = 10 SOLUTIONTIME = 0.0000000000000E+00
0.000125 	0 	0.843947 	0.0780266 	0.0780266 	-0.07 	3.8 	
0 	0 	0 	0 	0 	0.00547856 	0 	
0 	0 	0 	0 	0.3 	1.16667 	-0.00939182 	5.55556e-06 	
9.98408e-05 	9.98408e-05 	0 	0.0 	 0.0 	 0.0 	 0.0 	 0.0 	 0.0 	 
0.000136111 	0 	0.843947 	0.0780266 	0.0780266 	-0.07 	3.8 	
0 	0 	0 	0 	0 	0 	-0 	
0 	0 	0 	0 	0.3 	2.33333 	-0.00939182 	1.11111e-05 	
0.000199682 	0.000199682 	0 	0.0 	 0.0 	 0.0 	 0.0 	 0.0 	 0.0 	 
0.000147222 	0 	0.843947 	0.0780266 	0.0780266 	-0.07 	3.8 	
0 	0 	0 	0 	0 	0 	-0 	
0 	0 	0 	0 	0.3 	2.33333 	-0.00939182 	1.11111e-05 	
0.000199682 	0.000199682 	0 	0.0 	 0.0 	 0.0 	 0.0 	 0.0 	 0.0 	 
0.000158333 	0 	0.843947 	0.0780266 	0.0780266 	-0.07 	3.8 	
0 	0 	0 	0 	0 	0 	-0 	
0 	0 	0 	0 	0.3 	2.33333 	-0.00939182 	1.11111e-05 	
0.000199682 	0.000199682 	0 	0.0 	 0.0 	 0.0 	 0.0 	 0.0 	 0.0 	 
0.000169444 	0 	0.843947 	0.0780266 	0.0780266 	-0.07 	3.8 	
0 	0 	0 	0 	0 	0 	-0 	
0 	0 	0 	0 	0.3 	2.33333 	-0.00939182 	1.11111e-05 	
0.000199682 	0.000199682 	0 	0.0 	 0.0 	 0.0 	 0.0 	 0.0 	 0.0 	 
0.000180556 	0 	0.843947 	0.0780266 	0.0780266 	-0.07 	3.8 	
0 	0 	0 	0 	0 	0 	-0 	
0 	0 	0 	0 	0.3 	2.33333 	-0.00939182 	1.11111e-05 	
0.000199682 	0.000199682 	0 	0.0 	 0.0 	 0.0 	 0.0 	 0.0 	 0.0 	 
0.000191667 	0 	0.843947 	0.0780266 	0.0780266 	-0.07 	3.8 	
0 	0 	0 	0 	0 	0 	-0 	
0 	0 	0 	0 	0.3 	2.33333 	-0.00939182 	1.11111e-05 	
0.000199682 	0.000199682 	0 	0.0 	 0.0 	 0.0 	 0.0 	 0.0 	 0.0 	 
0.000202778 	0 	0.843947 	0.0780266 	0.0780266 	-0.07 	3.8 	
0 	0 	0 	0 	0 	0 	-0 	
0 	0 	0 	0 	0.3 	2.33333 	-0.00939182 	1.11111e-05 	
0.000199682 	0.000199682 	0 	0.0 	 0.0 	 0.0 	 0.0 	 0.0 	 0.0 	 
0.000213889 	0 	0.843947 	0.0780266 	0.0780266 	-0.07 	3.8 	
0 	0 	0 	0 	0 	0 	-0 	
0 	0 	0 	0 	0.3 	2.33333 	-0.00939182 	1.11111e-05 	
0.000199682 	0.000199682 	0 	0.0 	 0.0 	 0.0 	 0.0 	 0.0 	 0.0 	 
0.000225 	0 	0.843947 	0.0780266 	0.0780266 	-0.07 	3.8 	
0 	0 	0 	0 	0 	0 	0.00547856 	
0 	0 	0 	0 	0.3 	1.16667 	-0.00939182 	5.55556e-06 	
9.98408e-05 	9.98408e-05 	0 	0.0 	 0.0 	 0.0 	 0.0 	 0.0 	 0.0 	 
ZONE T = "t = 1e-08 [s]" I = 10 SOLUTIONTIME = 1.0000000000000E-08
0.000125 	4.77561e-09 	0.843947 	0.0780266 	0.0780266 	-0.12133 	3.51134 	
3.87 	4.17612 	-0.306118 	-0.0109571 	-0 	19.4455 	0.554938 	
-0 	9633.18 	0.963318 	1.92664 	0.3 	1.16667 	-0.952006 	5.55556e-06 	
9.98408e-05 	9.98408e-05 	0.000938425 	93842.5 	0.0289139 	0.21033 	93842.2 	93842.2 	0 	
0.000136111 	2.09518e-09 	0.843947 	0.0780266 	0.0780266 	-0.12133 	3.51133 	
3.87 	4.17612 	-0.306118 	-0.0219142 	-0 	17.7802 	2.2198 	
-0 	19266.4 	1.92664 	3.85327 	0.3 	2.33333 	-0.952045 	1.11111e-05 	
0.000199682 	0.000199682 	0.00093733 	93733 	0.0257157 	1.0517 	93731.9 	93731.9 	0 	
0.000147222 	-5.85366e-10 	0.843947 	0.0780266 	0.0780266 	-0.12133 	3.51133 	
3.87 	4.17612 	-0.306118 	-0.0219142 	-0 	15.5602 	4.43977 	
-0 	19266.4 	1.92664 	3.85327 	0.3 	2.33333 	-0.952161 	1.11111e-05 	
0.000199682 	0.000199682 	0.000937238 	93723.8 	0.0197185 	3.57609 	93720.2 	93720.2 	0 	
0.000158333 	-3.26652e-09 	0.843947 	0.0780266 	0.0780266 	-0.12133 	3.51132 	
3.87 	4.17612 	-0.306118 	-0.0219142 	-0 	13.3399 	6.66011 	
-0 	19266.4 	1.92664 	3.85327 	0.3 	2.33333 	-0.952356 	1.11111e-05 	
0.000199682 	0.000199682 	0.000935751 	93575.1 	0.0145191 	7.78432 	93567.3 	93567.3 	0 	
0.000169444 	-5.94847e-09 	0.843947 	0.0780266 	0.0780266 	-0.12133 	3.5113 	
3.87 	4.17612 	-0.306118 	-0.0219142 	-0 	11.119 	8.881 	
-0 	19266.4 	1.92664 	3.85327 	0.3 	2.33333 	-0.952629 	1.11111e-05 	
0.000199682 	0.000199682 	0.000937664 	93766.4 	0.0101176 	13.6778 	93752.7 	93752.7 	0 	
0.000180556 	-8.63129e-09 	0.843947 	0.0780266 	0.0780266 	-0.12133 	3.51128 	
3.87 	4.17612 	-0.306118 	-0.0219142 	-0 	8.89739 	11.1026 	
-0 	19266.4 	1.92664 	3.85327 	0.3 	2.33333 	-0.952981 	1.11111e-05 	
0.000199682 	0.000199682 	0.00093898 	93898 	0.0065145 	21.2584 	93876.7 	93876.7 	0 	
0.000191667 	-1.13154e-08 	0.843947 	0.0780266 	0.0780266 	-0.12133 	3.51126 	
3.87 	4.17612 	-0.306118 	-0.0219142 	-0 	6.67487 	13.3251 	
-0 	19266.4 	1.92664 	3.85327 	0.3 	2.33333 	-0.95341 	1.11111e-05 	
0.000199682 	0.000199682 	0.000941296 	94129.6 	0.00371023 	30.5286 	94099.1 	94099.1 	0 	
0.000202778 	-1.40008e-08 	0.843947 	0.0780266 	0.0780266 	-0.12133 	3.51123 	
3.87 	4.17612 	-0.306118 	-0.0219142 	-0 	4.45125 	15.5488 	
-0 	19266.4 	1.92664 	3.85327 	0.3 	2.33333 	-0.953919 	1.11111e-05 	
0.000199682 	0.000199682 	0.00093502 	93502 	0.00170568 	41.4916 	93460.5 	93460.5 	0 	
0.000213889 	-1.66864e-08 	0.843947 	0.0780266 	0.0780266 	-0.12133 	3.5112 	
3.87 	4.17612 	-0.306118 	-0.0219142 	-0 	2.22635 	17.7736 	
-0 	19266.4 	1.92664 	3.85327 	0.3 	2.33333 	-0.954506 	1.11111e-05 	
0.000199682 	0.000199682 	0.000942531 	94253.1 	0.000501966 	54.1508 	94199 	94199 	0 	
0.000225 	0 	0.843947 	0.0780266 	0.0780266 	-0.12133 	3.51117 	
3.87 	4.17612 	-0.306118 	-0.0109571 	-0 	0.556783 	19.4436 	
-0 	9633.18 	0.963318 	1.92664 	0.3 	1.16667 	-0.955171 	5.55556e-06 	
9.98408e-05 	9.98408e-05 	0.000941371 	94137.1 	0.000100477 	60.905 	94076.2 	94076.2 	0 	
ZONE T = "t = 2e-08 [s]" I = 10 SOLUTIONTIME = 2.0000000000000E-08
0.000125 	4.77516e-09 	0.843947 	0.0780266 	0.0780266 	-0.121329 	3.51137 	
3.63267 	4.17612 	-0.543452 	-1.11067 	9.78928e-08 	19.4451 	0.554938 	
1.11067e-12 	9633.18 	0.963318 	1.92664 	0.3 	1.16667 	-0.951321 	5.55556e-06 	
9.98408e-05 	9.98408e-05 	0.00187263 	93420.3 	0.0289139 	0.21033 	93420.1 	93420.1 	0 	
0.000136111 	2.09445e-09 	0.843947 	0.0780266 	0.0780266 	-0.121329 	3.51137 	
3.63266 	4.17612 	-0.543454 	-2.22144 	8.63877e-08 	17.7802 	2.2198 	
2.22144e-12 	19266.4 	1.92664 	3.85327 	0.3 	2.33333 	-0.95136 	1.11111e-05 	
0.000199682 	0.000199682 	0.00186484 	92751.4 	0.0257157 	1.0517 	92750.3 	92750.3 	0 	
0.000147222 	-5.8628e-10 	0.843947 	0.0780266 	0.0780266 	-0.121329 	3.51137 	
3.63266 	4.17612 	-0.54346 	-2.22171 	7.48827e-08 	15.5602 	4.43977 	
2.22171e-12 	19266.4 	1.92664 	3.85327 	0.3 	2.33333 	-0.951477 	1.11111e-05 	
0.000199682 	0.000199682 	0.00186706 	92982.1 	0.0197185 	3.57609 	92978.5 	92978.5 	0 	
0.000158333 	-3.26742e-09 	0.843947 	0.0780266 	0.0780266 	-0.121329 	3.51136 	
3.63265 	4.17612 	-0.543471 	-2.22216 	6.33755e-08 	13.3399 	6.66011 	
2.22216e-12 	19266.4 	1.92664 	3.85327 	0.3 	2.33333 	-0.951672 	1.11111e-05 	
0.000199682 	0.000199682 	0.00186409 	92833.4 	0.0145191 	7.78432 	92825.6 	92825.6 	0 	
0.000169444 	-5.94938e-09 	0.843947 	0.0780266 	0.0780266 	-0.121329 	3.51134 	
3.63263 	4.17612 	-0.543485 	-2.2228 	5.18649e-08 	11.119 	8.881 	
2.2228e-12 	19266.4 	1.92664 	3.85327 	0.3 	2.33333 	-0.951944 	1.11111e-05 	
0.000199682 	0.000199682 	0.00186232 	92465.3 	0.0101176 	13.6778 	92451.7 	92451.7 	0 	
0.000180556 	-8.63235e-09 	0.843947 	0.0780266 	0.0780266 	-0.121329 	3.51132 	
3.63261 	4.17612 	-0.543504 	-2.22362 	4.03501e-08 	8.89739 	11.1026 	
2.22362e-12 	19266.4 	1.92664 	3.85327 	0.3 	2.33333 	-0.952296 	1.11111e-05 	
0.000199682 	0.000199682 	0.00186575 	92677 	0.0065145 	21.2584 	92655.8 	92655.8 	0 	
0.000191667 	-1.13165e-08 	0.843947 	0.0780266 	0.0780266 	-0.121329 	3.5113 	
3.63259 	4.17612 	-0.543527 	-2.22462 	2.883e-08 	6.67487 	13.3251 	
2.22462e-12 	19266.4 	1.92664 	3.85327 	0.3 	2.33333 	-0.952725 	1.11111e-05 	
0.000199682 	0.000199682 	0.00186479 	92349.4 	0.00371023 	30.5286 	92318.8 	92318.8 	0 	
0.000202778 	-1.40023e-08 	0.843947 	0.0780266 	0.0780266 	-0.121329 	3.51127 	
3.63256 	4.17612 	-0.543555 	-2.22581 	1.73039e-08 	4.45125 	15.5488 	
2.22581e-12 	19266.4 	1.92664 	3.85327 	0.3 	2.33333 	-0.953233 	1.11111e-05 	
0.000199682 	0.000199682 	0.00186583 	93080.9 	0.00170568 	41.4916 	93039.4 	93039.4 	0 	
0.000213889 	-1.66862e-08 	0.843947 	0.0780266 	0.0780266 	-0.121329 	3.51124 	
3.63253 	4.17612 	-0.543586 	-2.22718 	5.78498e-09 	2.22635 	17.7736 	
2.22718e-12 	19266.4 	1.92664 	3.85327 	0.3 	2.33333 	-0.953819 	1.11111e-05 	
0.000199682 	0.000199682 	0.00187366 	93113 	0.000501966 	54.1508 	93058.8 	93058.8 	0 	
0.000225 	0 	0.843947 	0.0780266 	0.0780266 	-0.121329 	3.5112 	
3.6325 	4.17612 	-0.543622 	-1.11437 	5.78498e-09 	0.556783 	19.4432 	
1.11437e-12 	9633.18 	0.963318 	1.92664 	0.3 	1.16667 	-0.954485 	5.55556e-06 	
9.98408e-05 	9.98408e-05 	0.00187534 	93397 	0.000100477 	60.905 	93336.1 	93336.1 	0 	
ZONE T = "t = 3e-08 [s]" I = 10 SOLUTIONTIME = 3.0000000000000E-08
0.000125 	4.77464e-09 	0.843947 	0.0780266 	0.0780266 	-0.121329 	3.51137 	
3.6327 	4.17612 	-0.543415 	-1.10988 	9.78944e-08 	19.4451 	0.554938 	
2.22055e-12 	9633.18 	0.963318 	1.92664 	0.3 	1.16667 	-0.951321 	5.55556e-06 	
9.98408e-05 	9.98408e-05 	0.00279084 	91821.6 	0.0289139 	0.21033 	91821.4 	91821.4 	0 	
0.000136111 	2.09367e-09 	0.843947 	0.0780266 	0.0780266 	-0.121329 	3.51137 	
3.6327 	4.17612 	-0.543417 	-2.21984 	8.63877e-08 	17.7802 	2.2198 	
4.44128e-12 	19266.4 	1.92664 	3.85327 	0.3 	2.33333 	-0.95136 	1.11111e-05 	
0.000199682 	0.000199682 	0.00278436 	91952 	0.0257157 	1.0517 	91950.9 	91950.9 	0 	
0.000147222 	-5.86994e-10 	0.843947 	0.0780266 	0.0780266 	-0.121329 	3.51137 	
3.63269 	4.17612 	-0.543423 	-2.22011 	7.48827e-08 	15.5602 	4.43977 	
4.44182e-12 	19266.4 	1.92664 	3.85327 	0.3 	2.33333 	-0.951477 	1.11111e-05 	
0.000199682 	0.000199682 	0.00279048 	92342.6 	0.0197185 	3.57609 	92339 	92339 	0 	
0.000158333 	-3.26824e-09 	0.843947 	0.0780266 	0.0780266 	-0.121329 	3.51136 	
3.63268 	4.17612 	-0.543434 	-2.22057 	6.33755e-08 	13.3399 	6.66011 	
4.44273e-12 	19266.4 	1.92664 	3.85327 	0.3 	2.33333 	-0.951672 	1.11111e-05 	
0.000199682 	0.000199682 	0.00278443 	92034.1 	0.0145191 	7.78432 	92026.3 	92026.3 	0 	
0.000169444 	-5.95026e-09 	0.843947 	0.0780266 	0.0780266 	-0.121329 	3.51134 	
3.63267 	4.17612 	-0.543448 	-2.2212 	5.18649e-08 	11.119 	8.881 	
4.44401e-12 	19266.4 	1.92664 	3.85327 	0.3 	2.33333 	-0.951944 	1.11111e-05 	
0.000199682 	0.000199682 	0.00278857 	92625.2 	0.0101176 	13.6778 	92611.5 	92611.5 	0 	
0.000180556 	-8.63317e-09 	0.843947 	0.0780266 	0.0780266 	-0.121329 	3.51132 	
3.63265 	4.17612 	-0.543467 	-2.22202 	4.03501e-08 	8.89739 	11.1026 	
4.44564e-12 	19266.4 	1.92664 	3.85327 	0.3 	2.33333 	-0.952296 	1.11111e-05 	
0.000199682 	0.000199682 	0.00278133 	91557.9 	0.0065145 	21.2584 	91536.7 	91536.7 	0 	
0.000191667 	-1.13173e-08 	0.843947 	0.0780266 	0.0780266 	-0.121329 	3.5113 	
3.63263 	4.17612 	-0.54349 	-2.22302 	2.88301e-08 	6.67487 	13.3251 	
4.44765e-12 	19266.4 	1.92664 	3.85327 	0.3 	2.33333 	-0.952725 	1.11111e-05 	
0.000199682 	0.000199682 	0.00279308 	92829 	0.00371023 	30.5286 	92798.5 	92798.5 	0 	
0.000202778 	-1.40028e-08 	0.843947 	0.0780266 	0.0780266 	-0.121329 	3.51127 	
3.6326 	4.17612 	-0.543518 	-2.22421 	1.73039e-08 	4.45125 	15.5488 	
4.45002e-12 	19266.4 	1.92664 	3.85327 	0.3 	2.33333 	-0.953233 	1.11111e-05 	
0.000199682 	0.000199682 	0.00279504 	92921.1 	0.00170568 	41.4916 	92879.6 	92879.6 	0 	
0.000213889 	-1.6685e-08 	0.843947 	0.0780266 	0.0780266 	-0.121329 	3.51124 	
3.63257 	4.17612 	-0.543549 	-2.22558 	5.79929e-09 	2.22635 	17.7736 	
4.45276e-12 	19266.4 	1.92664 	3.85327 	0.3 	2.33333 	-0.953819 	1.11111e-05 	
0.000199682 	0.000199682 	0.00280959 	93592.6 	0.000501966 	54.1508 	93538.5 	93538.5 	0 	
0.000225 	0 	0.843947 	0.0780266 	0.0780266 	-0.121329 	3.5112 	
3.63253 	4.17612 	-0.543585 	-1.11357 	5.79929e-09 	0.556783 	19.4432 	
2.22793e-12 	9633.18 	0.963318 	1.92664 	0.3 	1.16667 	-0.954485 	5.55556e-06 	
9.98408e-05 	9.98408e-05 	0.00280611 	93077.3 	0.000100477 	60.905 	93016.4 	93016.4 	0 	
ZONE T = "t = 4e-08 [s]" I = 10 SOLUTIONTIME = 4.0000000000000E-08
0.000125 	4.77638e-09 	0.843947 	0.0780266 	0.0780266 	-0.121329 	3.51137 	
3.6327 	4.17612 	-0.543415 	-1.10988 	9.78961e-08 	19.4451 	0.554938 	
3.33042e-12 	9633.18 	0.963318 	1.92664 	0.3 	1.16667 	-0.951321 	5.55556e-06 	
9.98408e-05 	9.98408e-05 	0.00371865 	92780.9 	0.0289139 	0.21033 	92780.6 	92780.6 	0 	
0.000136111 	2.0953e-09 	0.843947 	0.0780266 	0.0780266 	-0.121329 	3.51137 	
3.6327 	4.17612 	-0.543417 	-2.21984 	8.63877e-08 	17.7802 	2.2198 	
6.66112e-12 	19266.4 	1.92664 	3.85327 	0.3 	2.33333 	-0.95136 	1.11111e-05 	
0.000199682 	0.000199682 	0.00371348 	92911.2 	0.0257157 	1.0517 	92910.1 	92910.1 	0 	
0.000147222 	-5.85416e-10 	0.843947 	0.0780266 	0.0780266 	-0.121329 	3.51137 	
3.63269 	4.17612 	-0.543423 	-2.22011 	7.48827e-08 	15.5602 	4.43977 	
6.66194e-12 	19266.4 	1.92664 	3.85327 	0.3 	2.33333 	-0.951477 	1.11111e-05 	
0.000199682 	0.000199682 	0.00371071 	92022.8 	0.0197185 	3.57609 	92019.2 	92019.2 	0 	
0.000158333 	-3.26666e-09 	0.843947 	0.0780266 	0.0780266 	-0.121329 	3.51136 	
3.63268 	4.17612 	-0.543434 	-2.22057 	6.33755e-08 	13.3399 	6.66011 	
6.6633e-12 	19266.4 	1.92664 	3.85327 	0.3 	2.33333 	-0.951672 	1.11111e-05 	
0.000199682 	0.000199682 	0.00371116 	92673.6 	0.0145191 	7.78432 	92665.8 	92665.8 	0 	
0.000169444 	-5.94851e-09 	0.843947 	0.0780266 	0.0780266 	-0.121329 	3.51134 	
3.63267 	4.17612 	-0.543448 	-2.2212 	5.18649e-08 	11.119 	8.881 	
6.66521e-12 	19266.4 	1.92664 	3.85327 	0.3 	2.33333 	-0.951944 	1.11111e-05 	
0.000199682 	0.000199682 	0.00371482 	92625.2 	0.0101176 	13.6778 	92611.5 	92611.5 	0 	
0.000180556 	-8.63142e-09 	0.843947 	0.0780266 	0.0780266 	-0.121329 	3.51132 	
3.63265 	4.17612 	-0.543467 	-2.22202 	4.03501e-08 	8.89739 	11.1026 	
6.66767e-12 	19266.4 	1.92664 	3.85327 	0.3 	2.33333 	-0.952296 	1.11111e-05 	
0.000199682 	0.000199682 	0.0037113 	92996.8 	0.0065145 	21.2584 	92975.5 	92975.5 	0 	
0.000191667 	-1.13156e-08 	0.843947 	0.0780266 	0.0780266 	-0.121329 	3.5113 	
3.63263 	4.17612 	-0.54349 	-2.22302 	2.88301e-08 	6.67487 	13.3251 	
6.67067e-12 	19266.4 	1.92664 	3.85327 	0.3 	2.33333 	-0.952725 	1.11111e-05 	
0.000199682 	0.000199682 	0.00371817 	92509.2 	0.00371023 	30.5286 	92478.7 	92478.7 	0 	
0.000202778 	-1.40012e-08 	0.843947 	0.0780266 	0.0780266 	-0.121329 	3.51127 	
3.6326 	4.17612 	-0.543518 	-2.22421 	1.73039e-08 	4.45125 	15.5488 	
6.67423e-12 	19266.4 	1.92664 	3.85327 	0.3 	2.33333 	-0.953233 	1.11111e-05 	
0.000199682 	0.000199682 	0.00371466 	91961.8 	0.00170568 	41.4916 	91920.3 	91920.3 	0 	
0.000213889 	-1.66819e-08 	0.843947 	0.0780266 	0.0780266 	-0.121329 	3.51124 	
3.63257 	4.17612 	-0.543549 	-2.22558 	5.81359e-09 	2.22635 	17.7736 	
6.67834e-12 	19266.4 	1.92664 	3.85327 	0.3 	2.33333 	-0.953819 	1.11111e-05 	
0.000199682 	0.000199682 	0.00374072 	93113 	0.000501966 	54.1508 	93058.8 	93058.8 	0 	
0.000225 	0 	0.843947 	0.0780266 	0.0780266 	-0.121329 	3.5112 	
3.63253 	4.17612 	-0.543585 	-1.11357 	5.81359e-09 	0.556783 	19.4432 	
3.3415e-12 	9633.18 	0.963318 	1.92664 	0.3 	1.16667 	-0.954485 	5.55556e-06 	
9.98408e-05 	9.98408e-05 	0.00373049 	92437.8 	0.000100477 	60.905 	92376.9 	92376.9 	0 	
ZONE T = "t = 5.5e-08 [s]" I = 10 SOLUTIONTIME = 5.5000000000000E-08
0.000125 	4.77564e-09 	0.843947 	0.0780266 	0.0780266 	-0.121329 	3.51137 	
3.6327 	4.17612 	-0.543415 	-1.10988 	9.78978e-08 	19.4451 	0.554938 	
4.4403e-12 	9633.18 	0.963318 	1.92664 	0.3 	1.16667 	-0.951321 	5.55556e-06 	
9.98408e-05 	9.98408e-05 	0.00510077 	92141.4 	0.0289139 	0.21033 	92141.1 	92141.1 	0 	
0.000136111 	2.0943e-09 	0.843947 	0.0780266 	0.0780266 	-0.121329 	3.51137 	
3.6327 	4.17612 	-0.543417 	-2.21984 	8.63877e-08 	17.7802 	2.2198 	
8.88096e-12 	19266.4 	1.92664 	3.85327 	0.3 	2.33333 	-0.95136 	1.11111e-05 	
0.000199682 	0.000199682 	0.00509835 	92325 	0.0257157 	1.0517 	92324 	92324 	0 	
0.000147222 	-5.86321e-10 	0.843947 	0.0780266 	0.0780266 	-0.121329 	3.51137 	
3.63269 	4.17612 	-0.543423 	-2.22011 	7.48827e-08 	15.5602 	4.43977 	
8.88205e-12 	19266.4 	1.92664 	3.85327 	0.3 	2.33333 	-0.951477 	1.11111e-05 	
0.000199682 	0.000199682 	0.00509105 	92022.8 	0.0197185 	3.57609 	92019.2 	92019.2 	0 	
0.000158333 	-3.26746e-09 	0.843947 	0.0780266 	0.0780266 	-0.121329 	3.51136 	
3.63268 	4.17612 	-0.543434 	-2.22057 	6.33755e-08 	13.3399 	6.66011 	
8.88387e-12 	19266.4 	1.92664 	3.85327 	0.3 	2.33333 	-0.951672 	1.11111e-05 	
0.000199682 	0.000199682 	0.00509887 	92513.7 	0.0145191 	7.78432 	92505.9 	92505.9 	0 	
0.000169444 	-5.9495e-09 	0.843947 	0.0780266 	0.0780266 	-0.121329 	3.51134 	
3.63267 	4.17612 	-0.543448 	-2.2212 	5.18649e-08 	11.119 	8.881 	
8.88641e-12 	19266.4 	1.92664 	3.85327 	0.3 	2.33333 	-0.951944 	1.11111e-05 	
0.000199682 	0.000199682 	0.005101 	92412.1 	0.0101176 	13.6778 	92398.4 	92398.4 	0 	
0.000180556 	-8.63243e-09 	0.843947 	0.0780266 	0.0780266 	-0.121329 	3.51132 	
3.63265 	4.17612 	-0.543467 	-2.22202 	4.03501e-08 	8.89739 	11.1026 	
8.88969e-12 	19266.4 	1.92664 	3.85327 	0.3 	2.33333 	-0.952296 	1.11111e-05 	
0.000199682 	0.000199682 	0.00508866 	91824.4 	0.0065145 	21.2584 	91803.1 	91803.1 	0 	
0.000191667 	-1.13166e-08 	0.843947 	0.0780266 	0.0780266 	-0.121329 	3.5113 	
3.63263 	4.17612 	-0.54349 	-2.22302 	2.88301e-08 	6.67487 	13.3251 	
8.8937e-12 	19266.4 	1.92664 	3.85327 	0.3 	2.33333 	-0.952725 	1.11111e-05 	
0.000199682 	0.000199682 	0.00510981 	92775.7 	0.00371023 	30.5286 	92745.2 	92745.2 	0 	
0.000202778 	-1.40021e-08 	0.843947 	0.0780266 	0.0780266 	-0.121329 	3.51127 	
3.6326 	4.17612 	-0.543518 	-2.22421 	1.7304e-08 	4.45125 	15.5488 	
8.89844e-12 	19266.4 	1.92664 	3.85327 	0.3 	2.33333 	-0.953233 	1.11111e-05 	
0.000199682 	0.000199682 	0.00510528 	92707.9 	0.00170568 	41.4916 	92666.4 	92666.4 	0 	
0.000213889 	-1.66804e-08 	0.843947 	0.0780266 	0.0780266 	-0.121329 	3.51124 	
3.63257 	4.17612 	-0.543549 	-2.22558 	5.82787e-09 	2.22635 	17.7736 	
8.90391e-12 	19266.4 	1.92664 	3.85327 	0.3 	2.33333 	-0.953819 	1.11111e-05 	
0.000199682 	0.000199682 	0.00512942 	92580.1 	0.000501966 	54.1508 	92525.9 	92525.9 	0 	
0.000225 	0 	0.843947 	0.0780266 	0.0780266 	-0.121329 	3.5112 	
3.63253 	4.17612 	-0.543585 	-1.11357 	5.82787e-09 	0.556783 	19.4432 	
4.45506e-12 	9633.18 	0.963318 	1.92664 	0.3 	1.16667 	-0.954485 	5.55556e-06 	
9.98408e-05 	9.98408e-05 	0.00512106 	92704.3 	0.000100477 	60.905 	92643.4 	92643.4 	0 	
ZONE T = "t = 7.75e-08 [s]" I = 10 SOLUTIONTIME = 7.7500000000000E-08
0.000125 	4.77641e-09 	0.843947 	0.0780266 	0.0780266 	-0.121329 	3.51137 	
3.6327 	4.17612 	-0.543415 	-1.10988 	9.79003e-08 	19.4451 	0.554938 	
6.10511e-12 	9633.18 	0.963318 	1.92664 	0.3 	1.16667 	-0.951321 	5.55556e-06 	
9.98408e-05 	9.98408e-05 	0.00718115 	92461.1 	0.0289139 	0.21033 	92460.9 	92460.9 	0 	
0.000136111 	2.09457e-09 	0.843947 	0.0780266 	0.0780266 	-0.121329 	3.51137 	
3.6327 	4.17612 	-0.543417 	-2.21984 	8.63877e-08 	17.7802 	2.2198 	
1.22107e-11 	19266.4 	1.92664 	3.85327 	0.3 	2.33333 	-0.95136 	1.11111e-05 	
0.000199682 	0.000199682 	0.00717646 	92360.6 	0.0257157 	1.0517 	92359.5 	92359.5 	0 	
0.000147222 	-5.86081e-10 	0.843947 	0.0780266 	0.0780266 	-0.121329 	3.51137 	
3.63269 	4.17612 	-0.543423 	-2.22011 	7.48827e-08 	15.5602 	4.43977 	
1.22122e-11 	19266.4 	1.92664 	3.85327 	0.3 	2.33333 	-0.951477 	1.11111e-05 	
0.000199682 	0.000199682 	0.00717036 	92413.6 	0.0197185 	3.57609 	92410 	92410 	0 	
0.000158333 	-3.26731e-09 	0.843947 	0.0780266 	0.0780266 	-0.121329 	3.51136 	
3.63268 	4.17612 	-0.543434 	-2.22057 	6.33755e-08 	13.3399 	6.66011 	
1.22147e-11 	19266.4 	1.92664 	3.85327 	0.3 	2.33333 	-0.951672 	1.11111e-05 	
0.000199682 	0.000199682 	0.00718442 	92691.3 	0.0145191 	7.78432 	92683.5 	92683.5 	0 	
0.000169444 	-5.94925e-09 	0.843947 	0.0780266 	0.0780266 	-0.121329 	3.51134 	
3.63267 	4.17612 	-0.543448 	-2.2212 	5.18649e-08 	11.119 	8.881 	
1.22182e-11 	19266.4 	1.92664 	3.85327 	0.3 	2.33333 	-0.951944 	1.11111e-05 	
0.000199682 	0.000199682 	0.00718827 	92767.3 	0.0101176 	13.6778 	92753.6 	92753.6 	0 	
0.000180556 	-8.63222e-09 	0.843947 	0.0780266 	0.0780266 	-0.121329 	3.51132 	
3.63265 	4.17612 	-0.543467 	-2.22202 	4.03501e-08 	8.89739 	11.1026 	
1.22227e-11 	19266.4 	1.92664 	3.85327 	0.3 	2.33333 	-0.952296 	1.11111e-05 	
0.000199682 	0.000199682 	0.0071747 	92712.6 	0.0065145 	21.2584 	92691.3 	92691.3 	0 	
0.000191667 	-1.13164e-08 	0.843947 	0.0780266 	0.0780266 	-0.121329 	3.5113 	
3.63263 	4.17612 	-0.54349 	-2.22302 	2.88301e-08 	6.67487 	13.3251 	
1.22282e-11 	19266.4 	1.92664 	3.85327 	0.3 	2.33333 	-0.952725 	1.11111e-05 	
0.000199682 	0.000199682 	0.00719806 	92811.2 	0.00371023 	30.5286 	92780.7 	92780.7 	0 	
0.000202778 	-1.40019e-08 	0.843947 	0.0780266 	0.0780266 	-0.121329 	3.51127 	
3.6326 	4.17612 	-0.543518 	-2.22421 	1.7304e-08 	4.45125 	15.5488 	
1.22348e-11 	19266.4 	1.92664 	3.85327 	0.3 	2.33333 	-0.953233 	1.11111e-05 	
0.000199682 	0.000199682 	0.0071976 	92992.1 	0.00170568 	41.4916 	92950.6 	92950.6 	0 	
0.000213889 	-1.66765e-08 	0.843947 	0.0780266 	0.0780266 	-0.121329 	3.51124 	
3.63257 	4.17612 	-0.543549 	-2.22558 	5.84924e-09 	2.22635 	17.7736 	
1.22423e-11 	19266.4 	1.92664 	3.85327 	0.3 	2.33333 	-0.953819 	1.11111e-05 	
0.000199682 	0.000199682 	0.00721647 	92757.7 	0.000501966 	54.1508 	92703.6 	92703.6 	0 	
0.000225 	0 	0.843947 	0.0780266 	0.0780266 	-0.121329 	3.5112 	
3.63253 	4.17612 	-0.543585 	-1.11357 	5.84924e-09 	0.556783 	19.4432 	
6.12541e-12 	9633.18 	0.963318 	1.92664 	0.3 	1.16667 	-0.954485 	5.55556e-06 	
9.98408e-05 	9.98408e-05 	0.0072157 	93095.1 	0.000100477 	60.905 	93034.2 	93034.2 	0 	
ZONE T = "t = 1.1125e-07 [s]" I = 10 SOLUTIONTIME = 1.1125000000000E-07
0.000125 	4.77706e-09 	0.843947 	0.0780266 	0.0780266 	-0.121329 	3.51137 	
3.6327 	4.17612 	-0.543415 	-1.10988 	9.79042e-08 	19.4451 	0.554938 	
8.60233e-12 	9633.18 	0.963318 	1.92664 	0.3 	1.16667 	-0.951321 	5.55556e-06 	
9.98408e-05 	9.98408e-05 	0.0103017 	92461.1 	0.0289139 	0.21033 	92460.9 	92460.9 	0 	
0.000136111 	2.09454e-09 	0.843947 	0.0780266 	0.0780266 	-0.121329 	3.51137 	
3.6327 	4.17612 	-0.543417 	-2.21984 	8.63877e-08 	17.7802 	2.2198 	
1.72054e-11 	19266.4 	1.92664 	3.85327 	0.3 	2.33333 	-0.95136 	1.11111e-05 	
0.000199682 	0.000199682 	0.010296 	92431.6 	0.0257157 	1.0517 	92430.5 	92430.5 	0 	
0.000147222 	-5.86079e-10 	0.843947 	0.0780266 	0.0780266 	-0.121329 	3.51137 	
3.63269 	4.17612 	-0.543423 	-2.22011 	7.48827e-08 	15.5602 	4.43977 	
1.72075e-11 	19266.4 	1.92664 	3.85327 	0.3 	2.33333 	-0.951477 	1.11111e-05 	
0.000199682 	0.000199682 	0.0102997 	92721.5 	0.0197185 	3.57609 	92717.9 	92717.9 	0 	
0.000158333 	-3.26726e-09 	0.843947 	0.0780266 	0.0780266 	-0.121329 	3.51136 	
3.63268 	4.17612 	-0.543434 	-2.22057 	6.33755e-08 	13.3399 	6.66011 	
1.7211e-11 	19266.4 	1.92664 	3.85327 	0.3 	2.33333 	-0.951672 	1.11111e-05 	
0.000199682 	0.000199682 	0.0103104 	92620.3 	0.0145191 	7.78432 	92612.5 	92612.5 	0 	
0.000169444 	-5.94924e-09 	0.843947 	0.0780266 	0.0780266 	-0.121329 	3.51134 	
3.63267 	4.17612 	-0.543448 	-2.2212 	5.18649e-08 	11.119 	8.881 	
1.72159e-11 	19266.4 	1.92664 	3.85327 	0.3 	2.33333 	-0.951944 	1.11111e-05 	
0.000199682 	0.000199682 	0.0103136 	92601.5 	0.0101176 	13.6778 	92587.8 	92587.8 	0 	
0.000180556 	-8.63222e-09 	0.843947 	0.0780266 	0.0780266 	-0.121329 	3.51132 	
3.63265 	4.17612 	-0.543467 	-2.22202 	4.03501e-08 	8.89739 	11.1026 	
1.72223e-11 	19266.4 	1.92664 	3.85327 	0.3 	2.33333 	-0.952296 	1.11111e-05 	
0.000199682 	0.000199682 	0.0103069 	92807.3 	0.0065145 	21.2584 	92786.1 	92786.1 	0 	
0.000191667 	-1.13163e-08 	0.843947 	0.0780266 	0.0780266 	-0.121329 	3.5113 	
3.63263 	4.17612 	-0.54349 	-2.22302 	2.88301e-08 	6.67487 	13.3251 	
1.723e-11 	19266.4 	1.92664 	3.85327 	0.3 	2.33333 	-0.952725 	1.11111e-05 	
0.000199682 	0.000199682 	0.0103208 	92527 	0.00371023 	30.5286 	92496.5 	92496.5 	0 	
0.000202778 	-1.40019e-08 	0.843947 	0.0780266 	0.0780266 	-0.121329 	3.51127 	
3.6326 	4.17612 	-0.543518 	-2.22421 	1.73041e-08 	4.45125 	15.5488 	
1.72392e-11 	19266.4 	1.92664 	3.85327 	0.3 	2.33333 	-0.953233 	1.11111e-05 	
0.000199682 	0.000199682 	0.0103281 	92755.3 	0.00170568 	41.4916 	92713.8 	92713.8 	0 	
0.000213889 	-1.6671e-08 	0.843947 	0.0780266 	0.0780266 	-0.121329 	3.51124 	
3.63257 	4.17612 	-0.543549 	-2.22558 	5.88121e-09 	2.22635 	17.7736 	
1.72498e-11 	19266.4 	1.92664 	3.85327 	0.3 	2.33333 	-0.953819 	1.11111e-05 	
0.000199682 	0.000199682 	0.010351 	92876.1 	0.000501966 	54.1508 	92822 	92822 	0 	
0.000225 	0 	0.843947 	0.0780266 	0.0780266 	-0.121329 	3.5112 	
3.63253 	4.17612 	-0.543585 	-1.11357 	5.88121e-09 	0.556783 	19.4432 	
8.63093e-12 	9633.18 	0.963318 	1.92664 	0.3 	1.16667 	-0.954485 	5.55556e-06 	
9.98408e-05 	9.98408e-05 	0.0103569 	93071.4 	0.000100477 	60.905 	93010.5 	93010.5 	0 	
ZONE T = "t = 1.61875e-07 [s]" I = 10 SOLUTIONTIME = 1.6187500000000E-07
0.000125 	4.7781e-09 	0.843947 	0.0780266 	0.0780266 	-0.121329 	3.51137 	
3.6327 	4.17612 	-0.543415 	-1.10988 	9.79103e-08 	19.4451 	0.554938 	
1.23482e-11 	9633.18 	0.963318 	1.92664 	0.3 	1.16667 	-0.951321 	5.55556e-06 	
9.98408e-05 	9.98408e-05 	0.0149937 	92682.2 	0.0289139 	0.21033 	92681.9 	92681.9 	0 	
0.000136111 	2.09449e-09 	0.843947 	0.0780266 	0.0780266 	-0.121329 	3.51137 	
3.6327 	4.17612 	-0.543417 	-2.21984 	8.63877e-08 	17.7802 	2.2198 	
2.46973e-11 	19266.4 	1.92664 	3.85327 	0.3 	2.33333 	-0.95136 	1.11111e-05 	
0.000199682 	0.000199682 	0.014985 	92621.1 	0.0257157 	1.0517 	92620 	92620 	0 	
0.000147222 	-5.86175e-10 	0.843947 	0.0780266 	0.0780266 	-0.121329 	3.51137 	
3.63269 	4.17612 	-0.543423 	-2.22011 	7.48827e-08 	15.5602 	4.43977 	
2.47004e-11 	19266.4 	1.92664 	3.85327 	0.3 	2.33333 	-0.951477 	1.11111e-05 	
0.000199682 	0.000199682 	0.0149841 	92532 	0.0197185 	3.57609 	92528.4 	92528.4 	0 	
0.000158333 	-3.26736e-09 	0.843947 	0.0780266 	0.0780266 	-0.121329 	3.51136 	
3.63268 	4.17612 	-0.543434 	-2.22057 	6.33755e-08 	13.3399 	6.66011 	
2.47054e-11 	19266.4 	1.92664 	3.85327 	0.3 	2.33333 	-0.951672 	1.11111e-05 	
0.000199682 	0.000199682 	0.0149969 	92572.9 	0.0145191 	7.78432 	92565.1 	92565.1 	0 	
0.000169444 	-5.94931e-09 	0.843947 	0.0780266 	0.0780266 	-0.121329 	3.51134 	
3.63267 	4.17612 	-0.543448 	-2.2212 	5.18649e-08 	11.119 	8.881 	
2.47125e-11 	19266.4 	1.92664 	3.85327 	0.3 	2.33333 	-0.951944 	1.11111e-05 	
0.000199682 	0.000199682 	0.0149991 	92554.2 	0.0101176 	13.6778 	92540.5 	92540.5 	0 	
0.000180556 	-8.63227e-09 	0.843947 	0.0780266 	0.0780266 	-0.121329 	3.51132 	
3.63265 	4.17612 	-0.543467 	-2.22202 	4.03501e-08 	8.89739 	11.1026 	
2.47216e-11 	19266.4 	1.92664 	3.85327 	0.3 	2.33333 	-0.952296 	1.11111e-05 	
0.000199682 	0.000199682 	0.0150045 	92791.5 	0.0065145 	21.2584 	92770.3 	92770.3 	0 	
0.000191667 	-1.13164e-08 	0.843947 	0.0780266 	0.0780266 	-0.121329 	3.5113 	
3.63263 	4.17612 	-0.54349 	-2.22302 	2.88301e-08 	6.67487 	13.3251 	
2.47328e-11 	19266.4 	1.92664 	3.85327 	0.3 	2.33333 	-0.952725 	1.11111e-05 	
0.000199682 	0.000199682 	0.0150098 	92621.7 	0.00371023 	30.5286 	92591.2 	92591.2 	0 	
0.000202778 	-1.40019e-08 	0.843947 	0.0780266 	0.0780266 	-0.121329 	3.51127 	
3.6326 	4.17612 	-0.543518 	-2.22421 	1.73044e-08 	4.45125 	15.5488 	
2.47459e-11 	19266.4 	1.92664 	3.85327 	0.3 	2.33333 	-0.953233 	1.11111e-05 	
0.000199682 	0.000199682 	0.0150246 	92771 	0.00170568 	41.4916 	92729.6 	92729.6 	0 	
0.000213889 	-1.66629e-08 	0.843947 	0.0780266 	0.0780266 	-0.121329 	3.51124 	
3.63257 	4.17612 	-0.543549 	-2.22558 	5.92894e-09 	2.22635 	17.7736 	
2.47612e-11 	19266.4 	1.92664 	3.85327 	0.3 	2.33333 	-0.953819 	1.11111e-05 	
0.000199682 	0.000199682 	0.0150441 	92702.4 	0.000501966 	54.1508 	92648.3 	92648.3 	0 	
0.000225 	0 	0.843947 	0.0780266 	0.0780266 	-0.121329 	3.5112 	
3.63253 	4.17612 	-0.543585 	-1.11357 	5.92894e-09 	0.556783 	19.4432 	
1.23892e-11 	9633.18 	0.963318 	1.92664 	0.3 	1.16667 	-0.954485 	5.55556e-06 	
9.98408e-05 	9.98408e-05 	0.015059 	92881.9 	0.000100477 	60.905 	92821 	92821 	0 	
ZONE T = "t = 2.37813e-07 [s]" I = 10 SOLUTIONTIME = 2.3781250000000E-07
0.000125 	4.77982e-09 	0.843947 	0.0780266 	0.0780266 	-0.121329 	3.51137 	
3.6327 	4.17612 	-0.543415 	-1.10988 	9.79197e-08 	19.4451 	0.554938 	
1.79669e-11 	9633.18 	0.963318 	1.92664 	0.3 	1.16667 	-0.951321 	5.55556e-06 	
9.98408e-05 	9.98408e-05 	0.0220214 	92545.3 	0.0289139 	0.21033 	92545.1 	92545.1 	0 	
0.000136111 	2.09455e-09 	0.843947 	0.0780266 	0.0780266 	-0.121329 	3.51137 	
3.6327 	4.17612 	-0.543417 	-2.21984 	8.63878e-08 	17.7802 	2.2198 	
3.59353e-11 	19266.4 	1.92664 	3.85327 	0.3 	2.33333 	-0.95136 	1.11111e-05 	
0.000199682 	0.000199682 	0.0220072 	92473.7 	0.0257157 	1.0517 	92472.6 	92472.6 	0 	
0.000147222 	-5.86122e-10 	0.843947 	0.0780266 	0.0780266 	-0.121329 	3.51137 	
3.63269 	4.17612 	-0.543423 	-2.22011 	7.48827e-08 	15.5602 	4.43977 	
3.59397e-11 	19266.4 	1.92664 	3.85327 	0.3 	2.33333 	-0.951477 	1.11111e-05 	
0.000199682 	0.000199682 	0.0220092 	92511 	0.0197185 	3.57609 	92507.4 	92507.4 	0 	
0.000158333 	-3.26731e-09 	0.843947 	0.0780266 	0.0780266 	-0.121329 	3.51136 	
3.63268 	4.17612 	-0.543434 	-2.22057 	6.33755e-08 	13.3399 	6.66011 	
3.5947e-11 	19266.4 	1.92664 	3.85327 	0.3 	2.33333 	-0.951672 	1.11111e-05 	
0.000199682 	0.000199682 	0.0220234 	92530.8 	0.0145191 	7.78432 	92523 	92523 	0 	