TITLE = "Solution on Domain BulkDomain1D_2"
VARIABLES = "x [m]"  
"Vel_axial(0)" 	"MF_sp(ECDMC)" 	"MF_sp(Li+)" 	"MF_sp(PF6-)" 	"Volt(Electroly)" 	"Volt(CathodeVo)" 	
"Potential Drop Electrode-Electrolyte [V]" 	"Surf_0 Equilibrium Potential Drop Electrode-Electrolyte [V]" 	"Overpotential_0 [V]" 	"Current Source [A/m^2]" 	"Li+ flux [kmol/m^2/s]" 	"Electrolyte Current [A/m^2]" 	"Electrode Current [A/m^2]" 	
"Capacity discharged [A-s]" 	"Depth of discharge [-]" 	"Capacity remaining [A-s]" 	"Initial capacity [A-s]" 	"Porosity []" 	"Surface Area [m2/m2] (area per area)" 	"Specific current (per particle area) [A/m^2]" 	"Control volume thickness [m]" 	
"Moles LiCoO2 [mol/m^2] (per electrode area)" 	"Moles CoO2 [mol/m^2] (per electrode area)" 	"qHeat_accum [J/m3]" 	"qHeat_step [W/m3]" 	"Joule_Lyte [W/m3]" 	"Joule_Solid [W/m3]" 	"electrodHeat [W/m3]" 	"OverpotHeat [W/m3]" 	"deltaSHeat [W/m3]" 	

ZONE T = "t = 0 [s]" I = 10 SOLUTIONTIME = 0.0000000000000E+00
0.000125 	0 	0.843947 	0.0780266 	0.0780266 	-0.07 	3.8 	
0 	0 	0 	0 	0 	14517 	0 	
0 	0 	0 	0 	0.3 	1.16667 	-24886.3 	5.55556e-06 	
9.99124e-05 	9.99124e-05 	0 	0.0 	 0.0 	 0.0 	 0.0 	 0.0 	 0.0 	 
0.000136111 	0 	0.843947 	0.0780266 	0.0780266 	-0.07 	3.8 	
0 	0 	0 	0 	0 	0 	-0 	
0 	0 	0 	0 	0.3 	2.33333 	-24886.3 	1.11111e-05 	
0.000199825 	0.000199825 	0 	0.0 	 0.0 	 0.0 	 0.0 	 0.0 	 0.0 	 
0.000147222 	0 	0.843947 	0.0780266 	0.0780266 	-0.07 	3.8 	
0 	0 	0 	0 	0 	0 	-0 	
0 	0 	0 	0 	0.3 	2.33333 	-24886.3 	1.11111e-05 	
0.000199825 	0.000199825 	0 	0.0 	 0.0 	 0.0 	 0.0 	 0.0 	 0.0 	 
0.000158333 	0 	0.843947 	0.0780266 	0.0780266 	-0.07 	3.8 	
0 	0 	0 	0 	0 	0 	-0 	
0 	0 	0 	0 	0.3 	2.33333 	-24886.3 	1.11111e-05 	
0.000199825 	0.000199825 	0 	0.0 	 0.0 	 0.0 	 0.0 	 0.0 	 0.0 	 
0.000169444 	0 	0.843947 	0.0780266 	0.0780266 	-0.07 	3.8 	
0 	0 	0 	0 	0 	0 	-0 	
0 	0 	0 	0 	0.3 	2.33333 	-24886.3 	1.11111e-05 	
0.000199825 	0.000199825 	0 	0.0 	 0.0 	 0.0 	 0.0 	 0.0 	 0.0 	 
0.000180556 	0 	0.843947 	0.0780266 	0.0780266 	-0.07 	3.8 	
0 	0 	0 	0 	0 	0 	-0 	
0 	0 	0 	0 	0.3 	2.33333 	-24886.3 	1.11111e-05 	
0.000199825 	0.000199825 	0 	0.0 	 0.0 	 0.0 	 0.0 	 0.0 	 0.0 	 
0.000191667 	0 	0.843947 	0.0780266 	0.0780266 	-0.07 	3.8 	
0 	0 	0 	0 	0 	0 	-0 	
0 	0 	0 	0 	0.3 	2.33333 	-24886.3 	1.11111e-05 	
0.000199825 	0.000199825 	0 	0.0 	 0.0 	 0.0 	 0.0 	 0.0 	 0.0 	 
0.000202778 	0 	0.843947 	0.0780266 	0.0780266 	-0.07 	3.8 	
0 	0 	0 	0 	0 	0 	-0 	
0 	0 	0 	0 	0.3 	2.33333 	-24886.3 	1.11111e-05 	
0.000199825 	0.000199825 	0 	0.0 	 0.0 	 0.0 	 0.0 	 0.0 	 0.0 	 
0.000213889 	0 	0.843947 	0.0780266 	0.0780266 	-0.07 	3.8 	
0 	0 	0 	0 	0 	0 	-0 	
0 	0 	0 	0 	0.3 	2.33333 	-24886.3 	1.11111e-05 	
0.000199825 	0.000199825 	0 	0.0 	 0.0 	 0.0 	 0.0 	 0.0 	 0.0 	 
0.000225 	0 	0.843947 	0.0780266 	0.0780266 	-0.07 	3.8 	
0 	0 	0 	0 	0 	0 	14517 	
0 	0 	0 	0 	0.3 	1.16667 	-24886.3 	5.55556e-06 	
9.99124e-05 	9.99124e-05 	0 	0.0 	 0.0 	 0.0 	 0.0 	 0.0 	 0.0 	 
ZONE T = "t = 1e-08 [s]" I = 10 SOLUTIONTIME = 1.0000000000000E-08
0.000125 	4.95643e-09 	0.843947 	0.0780266 	0.0780266 	-0.148428 	4.02736 	
3.87 	4.17612 	-0.306118 	-29034 	-0 	19.5205 	0.480046 	
-0 	9640.08 	0.964008 	1.92802 	0.3 	1.16667 	-0.82385 	5.55556e-06 	
9.99124e-05 	9.99124e-05 	-0.000206305 	-20630.5 	0.0293742 	0.15739 	-20630.7 	-20630.7 	0 	
0.000136111 	2.62506e-09 	0.843947 	0.0780266 	0.0780266 	-0.148428 	4.02736 	
3.87 	4.17612 	-0.306118 	-58068 	-0 	18.0745 	1.92546 	
-0 	19280.2 	1.92802 	3.85603 	0.3 	2.33333 	-0.828372 	1.11111e-05 	
0.000199825 	0.000199825 	-0.000207107 	-20710.7 	0.0265466 	0.792148 	-20711.5 	-20711.5 	0 	
0.000147222 	2.5531e-10 	0.843947 	0.0780266 	0.0780266 	-0.148428 	4.02735 	
3.87 	4.17612 	-0.306118 	-58068 	-0 	16.1278 	3.87217 	
-0 	19280.2 	1.92802 	3.85603 	0.3 	2.33333 	-0.842076 	1.11111e-05 	
0.000199825 	0.000199825 	-0.000210718 	-21071.8 	0.021154 	2.72456 	-21074.6 	-21074.6 	0 	
0.000158333 	-2.17934e-09 	0.843947 	0.0780266 	0.0780266 	-0.148428 	4.02734 	
3.87 	4.17612 	-0.306118 	-58068 	-0 	14.1383 	5.86173 	
-0 	19280.2 	1.92802 	3.85603 	0.3 	2.33333 	-0.865114 	1.11111e-05 	
0.000199825 	0.000199825 	-0.000216498 	-21649.8 	0.0162791 	6.04042 	-21655.9 	-21655.9 	0 	
0.000169444 	-4.70581e-09 	0.843947 	0.0780266 	0.0780266 	-0.148428 	4.02733 	
3.87 	4.17612 	-0.306118 	-58068 	-0 	12.0838 	7.91622 	
-0 	19280.2 	1.92802 	3.85603 	0.3 	2.33333 	-0.897743 	1.11111e-05 	
0.000199825 	0.000199825 	-0.000224752 	-22475.2 	0.0119203 	10.887 	-22486.1 	-22486.1 	0 	
0.000180556 	-7.35232e-09 	0.843947 	0.0780266 	0.0780266 	-0.148428 	4.02731 	
3.87 	4.17612 	-0.306118 	-58068 	-0 	9.94157 	10.0584 	
-0 	19280.2 	1.92802 	3.85603 	0.3 	2.33333 	-0.940325 	1.11111e-05 	
0.000199825 	0.000199825 	-0.000235102 	-23510.2 	0.00810573 	17.4799 	-23527.7 	-23527.7 	0 	
0.000191667 	-1.01481e-08 	0.843947 	0.0780266 	0.0780266 	-0.148428 	4.02729 	
3.87 	4.17612 	-0.306118 	-58068 	-0 	7.68788 	12.3121 	
-0 	19280.2 	1.92802 	3.85603 	0.3 	2.33333 	-0.993331 	1.11111e-05 	
0.000199825 	0.000199825 	-0.000248543 	-24854.3 	0.00489766 	26.1121 	-24880.4 	-24880.4 	0 	
0.000202778 	-1.31241e-08 	0.843947 	0.0780266 	0.0780266 	-0.148428 	4.02727 	
3.87 	4.17612 	-0.306118 	-58068 	-0 	5.2977 	14.7023 	
-0 	19280.2 	1.92802 	3.85603 	0.3 	2.33333 	-1.05735 	1.11111e-05 	
0.000199825 	0.000199825 	-0.000263954 	-26395.4 	0.00239718 	37.1676 	-26432.6 	-26432.6 	0 	
0.000213889 	-1.63118e-08 	0.843947 	0.0780266 	0.0780266 	-0.148428 	4.02724 	
3.87 	4.17612 	-0.306118 	-58068 	-0 	2.74452 	17.2555 	
-0 	19280.2 	1.92802 	3.85603 	0.3 	2.33333 	-1.13309 	1.11111e-05 	
0.000199825 	0.000199825 	-0.000282854 	-28285.4 	0.000751681 	51.1381 	-28336.5 	-28336.5 	0 	
0.000225 	0 	0.843947 	0.0780266 	0.0780266 	-0.148428 	4.0272 	
3.87 	4.17612 	-0.306118 	-29034 	-0 	0.711877 	19.2887 	
-0 	9640.08 	0.964008 	1.92802 	0.3 	1.16667 	-1.2214 	5.55556e-06 	
9.99124e-05 	9.99124e-05 	-0.000304848 	-30484.8 	0.00016425 	58.9208 	-30543.7 	-30543.7 	0 	
ZONE T = "t = 2e-08 [s]" I = 10 SOLUTIONTIME = 2.0000000000000E-08
0.000125 	4.95614e-09 	0.843947 	0.0780266 	0.0780266 	-0.148428 	4.02736 	
4.17579 	4.17612 	-0.000328792 	-0.961159 	9.86688e-08 	19.52 	0.480024 	
9.61159e-13 	9640.08 	0.964008 	1.92802 	0.3 	1.16667 	-0.822899 	5.55556e-06 	
9.99124e-05 	9.99124e-05 	-0.000412123 	-20581.8 	0.0293743 	0.157376 	-20582 	-20582 	0 	
0.000136111 	2.62479e-09 	0.843947 	0.0780266 	0.0780266 	-0.148428 	4.02736 	
4.17579 	4.17612 	-0.000330596 	-1.93287 	8.86621e-08 	18.0746 	1.92537 	
1.93287e-12 	19280.2 	1.92802 	3.85603 	0.3 	2.33333 	-0.82742 	1.11111e-05 	
0.000199825 	0.000199825 	-0.000414105 	-20699.8 	0.0265468 	0.792079 	-20700.6 	-20700.6 	0 	
0.000147222 	2.55151e-10 	0.843947 	0.0780266 	0.0780266 	-0.148428 	4.02735 	
4.17578 	4.17612 	-0.000336065 	-1.96484 	7.84912e-08 	16.128 	3.872 	
1.96484e-12 	19280.2 	1.92802 	3.85603 	0.3 	2.33333 	-0.841123 	1.11111e-05 	
0.000199825 	0.000199825 	-0.000420917 	-21019.9 	0.0211545 	2.72433 	-21022.6 	-21022.6 	0 	
0.000158333 	-2.17948e-09 	0.843947 	0.0780266 	0.0780266 	-0.148428 	4.02734 	
4.17577 	4.17612 	-0.00034526 	-2.0186 	6.80418e-08 	14.1385 	5.8615 	
2.0186e-12 	19280.2 	1.92802 	3.85603 	0.3 	2.33333 	-0.864161 	1.11111e-05 	
0.000199825 	0.000199825 	-0.000432887 	-21638.8 	0.0162797 	6.03994 	-21644.9 	-21644.9 	0 	
0.000169444 	-4.70616e-09 	0.843947 	0.0780266 	0.0780266 	-0.148428 	4.02733 	
4.17576 	4.17612 	-0.000358281 	-2.09473 	5.7198e-08 	12.0841 	7.91594 	
2.09473e-12 	19280.2 	1.92802 	3.85603 	0.3 	2.33333 	-0.896788 	1.11111e-05 	
0.000199825 	0.000199825 	-0.00044937 	-22461.8 	0.0119208 	10.8863 	-22472.7 	-22472.7 	0 	
0.000180556 	-7.35267e-09 	0.843947 	0.0780266 	0.0780266 	-0.148428 	4.02731 	
4.17574 	4.17612 	-0.000375275 	-2.19409 	4.58395e-08 	9.94187 	10.0581 	
2.19409e-12 	19280.2 	1.92802 	3.85603 	0.3 	2.33333 	-0.939369 	1.11111e-05 	
0.000199825 	0.000199825 	-0.000470051 	-23494.9 	0.00810622 	17.4788 	-23512.4 	-23512.4 	0 	
0.000191667 	-1.01485e-08 	0.843947 	0.0780266 	0.0780266 	-0.148428 	4.02729 	
4.17572 	4.17612 	-0.000396429 	-2.31777 	3.38402e-08 	7.68817 	12.3118 	
2.31777e-12 	19280.2 	1.92802 	3.85603 	0.3 	2.33333 	-0.992373 	1.11111e-05 	
0.000199825 	0.000199825 	-0.000496539 	-24799.6 	0.00489803 	26.1109 	-24825.7 	-24825.7 	0 	
0.000202778 	-1.31248e-08 	0.843947 	0.0780266 	0.0780266 	-0.148428 	4.02727 	
4.1757 	4.17612 	-0.000421978 	-2.46715 	2.10671e-08 	5.29795 	14.7021 	
2.46715e-12 	19280.2 	1.92802 	3.85603 	0.3 	2.33333 	-1.05639 	1.11111e-05 	
0.000199825 	0.000199825 	-0.000528142 	-26418.8 	0.0023974 	37.1664 	-26456 	-26456 	0 	
0.000213889 	-1.63112e-08 	0.843947 	0.0780266 	0.0780266 	-0.148428 	4.02724 	
4.17567 	4.17612 	-0.000452206 	-2.64389 	7.39274e-09 	2.74467 	17.2553 	
2.64389e-12 	19280.2 	1.92802 	3.85603 	0.3 	2.33333 	-1.13213 	1.11111e-05 	
0.000199825 	0.000199825 	-0.000565526 	-28267.2 	0.000751762 	51.1372 	-28318.4 	-28318.4 	0 	
0.000225 	0 	0.843947 	0.0780266 	0.0780266 	-0.148428 	4.0272 	
4.17563 	4.17612 	-0.000487447 	-1.42497 	7.39274e-09 	0.711923 	19.2881 	
1.42497e-12 	9640.08 	0.964008 	1.92802 	0.3 	1.16667 	-1.22044 	5.55556e-06 	
9.99124e-05 	9.99124e-05 	-0.000608717 	-30386.9 	0.000164272 	58.9202 	-30445.8 	-30445.8 	0 	
ZONE T = "t = 3e-08 [s]" I = 10 SOLUTIONTIME = 3.0000000000000E-08
0.000125 	4.95626e-09 	0.843947 	0.0780266 	0.0780266 	-0.148428 	4.02736 	
4.17579 	4.17612 	-0.000328412 	-0.960049 	9.86704e-08 	19.52 	0.480024 	
1.92121e-12 	9640.08 	0.964008 	1.92802 	0.3 	1.16667 	-0.822899 	5.55556e-06 	
9.99124e-05 	9.99124e-05 	-0.000617928 	-20580.5 	0.0293743 	0.157376 	-20580.7 	-20580.7 	0 	
0.000136111 	2.62469e-09 	0.843947 	0.0780266 	0.0780266 	-0.148428 	4.02736 	
4.17579 	4.17612 	-0.000330216 	-1.93065 	8.86628e-08 	18.0746 	1.92537 	
3.86351e-12 	19280.2 	1.92802 	3.85603 	0.3 	2.33333 	-0.82742 	1.11111e-05 	
0.000199825 	0.000199825 	-0.000621103 	-20699.8 	0.0265468 	0.792079 	-20700.6 	-20700.6 	0 	
0.000147222 	2.54947e-10 	0.843947 	0.0780266 	0.0780266 	-0.148428 	4.02735 	
4.17578 	4.17612 	-0.000335685 	-1.96262 	7.84923e-08 	16.128 	3.872 	
3.92746e-12 	19280.2 	1.92802 	3.85603 	0.3 	2.33333 	-0.841123 	1.11111e-05 	
0.000199825 	0.000199825 	-0.000631115 	-21019.9 	0.0211545 	2.72433 	-21022.6 	-21022.6 	0 	
0.000158333 	-2.17963e-09 	0.843947 	0.0780266 	0.0780266 	-0.148428 	4.02734 	
4.17577 	4.17612 	-0.000344879 	-2.01637 	6.80433e-08 	14.1385 	5.8615 	
4.03497e-12 	19280.2 	1.92802 	3.85603 	0.3 	2.33333 	-0.864161 	1.11111e-05 	
0.000199825 	0.000199825 	-0.000648869 	-21598.2 	0.0162797 	6.03994 	-21604.3 	-21604.3 	0 	
0.000169444 	-4.70615e-09 	0.843947 	0.0780266 	0.0780266 	-0.148428 	4.02733 	
4.17576 	4.17612 	-0.0003579 	-2.09251 	5.71997e-08 	12.0841 	7.91594 	
4.18724e-12 	19280.2 	1.92802 	3.85603 	0.3 	2.33333 	-0.896788 	1.11111e-05 	
0.000199825 	0.000199825 	-0.000673594 	-22422.5 	0.0119208 	10.8863 	-22433.4 	-22433.4 	0 	
0.000180556 	-7.35281e-09 	0.843947 	0.0780266 	0.0780266 	-0.148428 	4.02731 	
4.17574 	4.17612 	-0.000374893 	-2.19186 	4.58413e-08 	9.94187 	10.0581 	
4.38595e-12 	19280.2 	1.92802 	3.85603 	0.3 	2.33333 	-0.939369 	1.11111e-05 	
0.000199825 	0.000199825 	-0.000704994 	-23494.3 	0.00810622 	17.4788 	-23511.8 	-23511.8 	0 	
0.000191667 	-1.01486e-08 	0.843947 	0.0780266 	0.0780266 	-0.148428 	4.02729 	
4.17572 	4.17612 	-0.000396047 	-2.31554 	3.38419e-08 	7.68817 	12.3118 	
4.63331e-12 	19280.2 	1.92802 	3.85603 	0.3 	2.33333 	-0.992373 	1.11111e-05 	
0.000199825 	0.000199825 	-0.000744135 	-24759.6 	0.00489803 	26.1109 	-24785.7 	-24785.7 	0 	
0.000202778 	-1.31248e-08 	0.843947 	0.0780266 	0.0780266 	-0.148428 	4.02727 	
4.1757 	4.17612 	-0.000421595 	-2.46491 	2.10685e-08 	5.29795 	14.7021 	
4.93207e-12 	19280.2 	1.92802 	3.85603 	0.3 	2.33333 	-1.05639 	1.11111e-05 	
0.000199825 	0.000199825 	-0.000791543 	-26340.1 	0.0023974 	37.1664 	-26377.3 	-26377.3 	0 	
0.000213889 	-1.63094e-08 	0.843947 	0.0780266 	0.0780266 	-0.148428 	4.02724 	
4.17567 	4.17612 	-0.000451822 	-2.64165 	7.40786e-09 	2.74467 	17.2553 	
5.28553e-12 	19280.2 	1.92802 	3.85603 	0.3 	2.33333 	-1.13213 	1.11111e-05 	
0.000199825 	0.000199825 	-0.000847805 	-28227.9 	0.000751762 	51.1372 	-28279 	-28279 	0 	
0.000225 	0 	0.843947 	0.0780266 	0.0780266 	-0.148428 	4.0272 	
4.17563 	4.17612 	-0.000487064 	-1.42385 	7.40786e-09 	0.711923 	19.2881 	
2.84881e-12 	9640.08 	0.964008 	1.92802 	0.3 	1.16667 	-1.22044 	5.55556e-06 	
9.99124e-05 	9.99124e-05 	-0.000912973 	-30425.6 	0.000164272 	58.9202 	-30484.5 	-30484.5 	0 	
ZONE T = "t = 4e-08 [s]" I = 10 SOLUTIONTIME = 4.0000000000000E-08
0.000125 	4.95662e-09 	0.843947 	0.0780266 	0.0780266 	-0.148428 	4.02736 	
4.17579 	4.17612 	-0.000328412 	-0.960049 	9.86719e-08 	19.52 	0.480024 	
2.88126e-12 	9640.08 	0.964008 	1.92802 	0.3 	1.16667 	-0.822899 	5.55556e-06 	
9.99124e-05 	9.99124e-05 	-0.000823753 	-20582.4 	0.0293743 	0.157376 	-20582.6 	-20582.6 	0 	
0.000136111 	2.6249e-09 	0.843947 	0.0780266 	0.0780266 	-0.148428 	4.02736 	
4.17579 	4.17612 	-0.000330216 	-1.93065 	8.86629e-08 	18.0746 	1.92537 	
5.79416e-12 	19280.2 	1.92802 	3.85603 	0.3 	2.33333 	-0.82742 	1.11111e-05 	
0.000199825 	0.000199825 	-0.000828108 	-20700.5 	0.0265468 	0.792079 	-20701.3 	-20701.3 	0 	
0.000147222 	2.5521e-10 	0.843947 	0.0780266 	0.0780266 	-0.148428 	4.02735 	
4.17578 	4.17612 	-0.000335685 	-1.96262 	7.84924e-08 	16.128 	3.872 	
5.89008e-12 	19280.2 	1.92802 	3.85603 	0.3 	2.33333 	-0.841123 	1.11111e-05 	
0.000199825 	0.000199825 	-0.000841308 	-21019.2 	0.0211545 	2.72433 	-21022 	-21022 	0 	
0.000158333 	-2.17948e-09 	0.843947 	0.0780266 	0.0780266 	-0.148428 	4.02734 	
4.17577 	4.17612 	-0.000344879 	-2.01637 	6.80434e-08 	14.1385 	5.8615 	
6.05135e-12 	19280.2 	1.92802 	3.85603 	0.3 	2.33333 	-0.864161 	1.11111e-05 	
0.000199825 	0.000199825 	-0.000865257 	-21638.8 	0.0162797 	6.03994 	-21644.9 	-21644.9 	0 	
0.000169444 	-4.70595e-09 	0.843947 	0.0780266 	0.0780266 	-0.148428 	4.02733 	
4.17576 	4.17612 	-0.0003579 	-2.09251 	5.71999e-08 	12.0841 	7.91594 	
6.27975e-12 	19280.2 	1.92802 	3.85603 	0.3 	2.33333 	-0.896788 	1.11111e-05 	
0.000199825 	0.000199825 	-0.000898225 	-22463.1 	0.0119208 	10.8863 	-22474 	-22474 	0 	
0.000180556 	-7.35229e-09 	0.843947 	0.0780266 	0.0780266 	-0.148428 	4.02731 	
4.17574 	4.17612 	-0.000374893 	-2.19186 	4.58415e-08 	9.94187 	10.0581 	
6.57781e-12 	19280.2 	1.92802 	3.85603 	0.3 	2.33333 	-0.939369 	1.11111e-05 	
0.000199825 	0.000199825 	-0.000939967 	-23497.4 	0.00810622 	17.4788 	-23514.9 	-23514.9 	0 	
0.000191667 	-1.01482e-08 	0.843947 	0.0780266 	0.0780266 	-0.148428 	4.02729 	
4.17572 	4.17612 	-0.000396047 	-2.31554 	3.38421e-08 	7.68817 	12.3118 	
6.94885e-12 	19280.2 	1.92802 	3.85603 	0.3 	2.33333 	-0.992373 	1.11111e-05 	
0.000199825 	0.000199825 	-0.000992125 	-24799 	0.00489803 	26.1109 	-24825.1 	-24825.1 	0 	
0.000202778 	-1.31245e-08 	0.843947 	0.0780266 	0.0780266 	-0.148428 	4.02727 	
4.1757 	4.17612 	-0.000421595 	-2.46491 	2.10688e-08 	5.29795 	14.7021 	
7.39698e-12 	19280.2 	1.92802 	3.85603 	0.3 	2.33333 	-1.05639 	1.11111e-05 	
0.000199825 	0.000199825 	-0.00105572 	-26418.2 	0.0023974 	37.1664 	-26455.3 	-26455.3 	0 	
0.000213889 	-1.63076e-08 	0.843947 	0.0780266 	0.0780266 	-0.148428 	4.02724 	
4.17567 	4.17612 	-0.000451822 	-2.64165 	7.42248e-09 	2.74467 	17.2553 	
7.92718e-12 	19280.2 	1.92802 	3.85603 	0.3 	2.33333 	-1.13213 	1.11111e-05 	
0.000199825 	0.000199825 	-0.0011305 	-28269.1 	0.000751762 	51.1372 	-28320.3 	-28320.3 	0 	
0.000225 	0 	0.843947 	0.0780266 	0.0780266 	-0.148428 	4.0272 	
4.17563 	4.17612 	-0.000487064 	-1.42385 	7.42248e-09 	0.711923 	19.2881 	
4.27266e-12 	9640.08 	0.964008 	1.92802 	0.3 	1.16667 	-1.22044 	5.55556e-06 	
9.99124e-05 	9.99124e-05 	-0.00121725 	-30428.1 	0.000164272 	58.9202 	-30487 	-30487 	0 	
ZONE T = "t = 5.5e-08 [s]" I = 10 SOLUTIONTIME = 5.5000000000000E-08
0.000125 	4.95657e-09 	0.843947 	0.0780266 	0.0780266 	-0.148428 	4.02736 	
4.17579 	4.17612 	-0.000328412 	-0.960049 	9.86734e-08 	19.52 	0.480024 	
3.8413e-12 	9640.08 	0.964008 	1.92802 	0.3 	1.16667 	-0.822899 	5.55556e-06 	
9.99124e-05 	9.99124e-05 	-0.00113263 	-20592 	0.0293743 	0.157376 	-20592.2 	-20592.2 	0 	
0.000136111 	2.62449e-09 	0.843947 	0.0780266 	0.0780266 	-0.148428 	4.02736 	
4.17579 	4.17612 	-0.000330216 	-1.93065 	8.86629e-08 	18.0746 	1.92537 	
7.72481e-12 	19280.2 	1.92802 	3.85603 	0.3 	2.33333 	-0.82742 	1.11111e-05 	
0.000199825 	0.000199825 	-0.0011392 	-20739.6 	0.0265468 	0.792079 	-20740.4 	-20740.4 	0 	
0.000147222 	2.5477e-10 	0.843947 	0.0780266 	0.0780266 	-0.148428 	4.02735 	
4.17578 	4.17612 	-0.000335685 	-1.96262 	7.84925e-08 	16.128 	3.872 	
7.8527e-12 	19280.2 	1.92802 	3.85603 	0.3 	2.33333 	-0.841123 	1.11111e-05 	
0.000199825 	0.000199825 	-0.00115725 	-21062.7 	0.0211545 	2.72433 	-21065.5 	-21065.5 	0 	
0.000158333 	-2.17979e-09 	0.843947 	0.0780266 	0.0780266 	-0.148428 	4.02734 	
4.17577 	4.17612 	-0.000344879 	-2.01637 	6.80435e-08 	14.1385 	5.8615 	
8.06772e-12 	19280.2 	1.92802 	3.85603 	0.3 	2.33333 	-0.864161 	1.11111e-05 	
0.000199825 	0.000199825 	-0.00118972 	-21630.5 	0.0162797 	6.03994 	-21636.6 	-21636.6 	0 	
0.000169444 	-4.70637e-09 	0.843947 	0.0780266 	0.0780266 	-0.148428 	4.02733 	
4.17576 	4.17612 	-0.0003579 	-2.09251 	5.72e-08 	12.0841 	7.91594 	
8.37225e-12 	19280.2 	1.92802 	3.85603 	0.3 	2.33333 	-0.896788 	1.11111e-05 	
0.000199825 	0.000199825 	-0.0012343 	-22405 	0.0119208 	10.8863 	-22415.9 	-22415.9 	0 	
0.000180556 	-7.35292e-09 	0.843947 	0.0780266 	0.0780266 	-0.148428 	4.02731 	
4.17574 	4.17612 	-0.000374893 	-2.19186 	4.58417e-08 	9.94187 	10.0581 	
8.76967e-12 	19280.2 	1.92802 	3.85603 	0.3 	2.33333 	-0.939369 	1.11111e-05 	
0.000199825 	0.000199825 	-0.00129173 	-23450.8 	0.00810622 	17.4788 	-23468.3 	-23468.3 	0 	
0.000191667 	-1.01488e-08 	0.843947 	0.0780266 	0.0780266 	-0.148428 	4.02729 	
4.17572 	4.17612 	-0.000396047 	-2.31554 	3.38424e-08 	7.68817 	12.3118 	
9.26439e-12 	19280.2 	1.92802 	3.85603 	0.3 	2.33333 	-0.992373 	1.11111e-05 	
0.000199825 	0.000199825 	-0.00136417 	-24803.3 	0.00489803 	26.1109 	-24829.5 	-24829.5 	0 	
0.000202778 	-1.31249e-08 	0.843947 	0.0780266 	0.0780266 	-0.148428 	4.02727 	
4.1757 	4.17612 	-0.000421595 	-2.46491 	2.10691e-08 	5.29795 	14.7021 	
9.86189e-12 	19280.2 	1.92802 	3.85603 	0.3 	2.33333 	-1.05639 	1.11111e-05 	
0.000199825 	0.000199825 	-0.00145153 	-26386.7 	0.0023974 	37.1664 	-26423.9 	-26423.9 	0 	
0.000213889 	-1.63055e-08 	0.843947 	0.0780266 	0.0780266 	-0.148428 	4.02724 	
4.17567 	4.17612 	-0.000451822 	-2.64165 	7.43708e-09 	2.74467 	17.2553 	
1.05688e-11 	19280.2 	1.92802 	3.85603 	0.3 	2.33333 	-1.13213 	1.11111e-05 	
0.000199825 	0.000199825 	-0.00155407 	-28238.1 	0.000751762 	51.1372 	-28289.2 	-28289.2 	0 	
0.000225 	0 	0.843947 	0.0780266 	0.0780266 	-0.148428 	4.0272 	
4.17563 	4.17612 	-0.000487064 	-1.42385 	7.43708e-09 	0.711923 	19.2881 	
5.69651e-12 	9640.08 	0.964008 	1.92802 	0.3 	1.16667 	-1.22044 	5.55556e-06 	
9.99124e-05 	9.99124e-05 	-0.00167353 	-30418.3 	0.000164272 	58.9202 	-30477.2 	-30477.2 	0 	
ZONE T = "t = 7.75e-08 [s]" I = 10 SOLUTIONTIME = 7.7500000000000E-08
0.000125 	4.95703e-09 	0.843947 	0.0780266 	0.0780266 	-0.148428 	4.02736 	
4.17579 	4.17612 	-0.000328412 	-0.960049 	9.86756e-08 	19.52 	0.480024 	
5.28138e-12 	9640.08 	0.964008 	1.92802 	0.3 	1.16667 	-0.822899 	5.55556e-06 	
9.99124e-05 	9.99124e-05 	-0.00159542 	-20568.1 	0.0293743 	0.157376 	-20568.3 	-20568.3 	0 	
0.000136111 	2.62464e-09 	0.843947 	0.0780266 	0.0780266 	-0.148428 	4.02736 	
4.17579 	4.17612 	-0.000330216 	-1.93065 	8.8663e-08 	18.0746 	1.92537 	
1.06208e-11 	19280.2 	1.92802 	3.85603 	0.3 	2.33333 	-0.82742 	1.11111e-05 	
0.000199825 	0.000199825 	-0.00160521 	-20711.3 	0.0265468 	0.792079 	-20712.1 	-20712.1 	0 	
0.000147222 	2.54897e-10 	0.843947 	0.0780266 	0.0780266 	-0.148428 	4.02735 	
4.17578 	4.17612 	-0.000335685 	-1.96262 	7.84926e-08 	16.128 	3.872 	
1.07966e-11 	19280.2 	1.92802 	3.85603 	0.3 	2.33333 	-0.841123 	1.11111e-05 	
0.000199825 	0.000199825 	-0.00163065 	-21040.3 	0.0211545 	2.72433 	-21043 	-21043 	0 	
0.000158333 	-2.17973e-09 	0.843947 	0.0780266 	0.0780266 	-0.148428 	4.02734 	
4.17577 	4.17612 	-0.000344879 	-2.01637 	6.80437e-08 	14.1385 	5.8615 	
1.10923e-11 	19280.2 	1.92802 	3.85603 	0.3 	2.33333 	-0.864161 	1.11111e-05 	
0.000199825 	0.000199825 	-0.0016762 	-21621.6 	0.0162797 	6.03994 	-21627.7 	-21627.7 	0 	
0.000169444 	-4.70623e-09 	0.843947 	0.0780266 	0.0780266 	-0.148428 	4.02733 	
4.17576 	4.17612 	-0.0003579 	-2.09251 	5.72002e-08 	12.0841 	7.91594 	
1.1511e-11 	19280.2 	1.92802 	3.85603 	0.3 	2.33333 	-0.896788 	1.11111e-05 	
0.000199825 	0.000199825 	-0.00173842 	-22405.1 	0.0119208 	10.8863 	-22416 	-22416 	0 	
0.000180556 	-7.35268e-09 	0.843947 	0.0780266 	0.0780266 	-0.148428 	4.02731 	
4.17574 	4.17612 	-0.000374893 	-2.19186 	4.58419e-08 	9.94187 	10.0581 	
1.20575e-11 	19280.2 	1.92802 	3.85603 	0.3 	2.33333 	-0.939369 	1.11111e-05 	
0.000199825 	0.000199825 	-0.00181979 	-23469.4 	0.00810622 	17.4788 	-23486.9 	-23486.9 	0 	
0.000191667 	-1.01485e-08 	0.843947 	0.0780266 	0.0780266 	-0.148428 	4.02729 	
4.17572 	4.17612 	-0.000396047 	-2.31554 	3.38427e-08 	7.68817 	12.3118 	
1.27377e-11 	19280.2 	1.92802 	3.85603 	0.3 	2.33333 	-0.992373 	1.11111e-05 	
0.000199825 	0.000199825 	-0.00192206 	-24794.9 	0.00489803 	26.1109 	-24821 	-24821 	0 	
0.000202778 	-1.31247e-08 	0.843947 	0.0780266 	0.0780266 	-0.148428 	4.02727 	
4.1757 	4.17612 	-0.000421595 	-2.46491 	2.10696e-08 	5.29795 	14.7021 	
1.35593e-11 	19280.2 	1.92802 	3.85603 	0.3 	2.33333 	-1.05639 	1.11111e-05 	
0.000199825 	0.000199825 	-0.00204468 	-26362.3 	0.0023974 	37.1664 	-26399.5 	-26399.5 	0 	
0.000213889 	-1.63016e-08 	0.843947 	0.0780266 	0.0780266 	-0.148428 	4.02724 	
4.17567 	4.17612 	-0.000451822 	-2.64164 	7.45893e-09 	2.74467 	17.2553 	
1.45313e-11 	19280.2 	1.92802 	3.85603 	0.3 	2.33333 	-1.13213 	1.11111e-05 	
0.000199825 	0.000199825 	-0.00218961 	-28246.1 	0.000751762 	51.1372 	-28297.3 	-28297.3 	0 	
0.000225 	0 	0.843947 	0.0780266 	0.0780266 	-0.148428 	4.0272 	
4.17563 	4.17612 	-0.000487064 	-1.42385 	7.45893e-09 	0.711923 	19.2881 	
7.83228e-12 	9640.08 	0.964008 	1.92802 	0.3 	1.16667 	-1.22044 	5.55556e-06 	
9.99124e-05 	9.99124e-05 	-0.00235854 	-30445 	0.000164272 	58.9202 	-30503.9 	-30503.9 	0 	
ZONE T = "t = 1.1125e-07 [s]" I = 10 SOLUTIONTIME = 1.1125000000000E-07
0.000125 	4.95762e-09 	0.843947 	0.0780266 	0.0780266 	-0.148428 	4.02736 	
4.17579 	4.17612 	-0.000328412 	-0.960049 	9.8679e-08 	19.52 	0.480024 	
7.44149e-12 	9640.08 	0.964008 	1.92802 	0.3 	1.16667 	-0.822899 	5.55556e-06 	
9.99124e-05 	9.99124e-05 	-0.00229013 	-20584.1 	0.0293743 	0.157376 	-20584.3 	-20584.3 	0 	
0.000136111 	2.62462e-09 	0.843947 	0.0780266 	0.0780266 	-0.148428 	4.02736 	
4.17579 	4.17612 	-0.000330216 	-1.93065 	8.86631e-08 	18.0746 	1.92537 	
1.49647e-11 	19280.2 	1.92802 	3.85603 	0.3 	2.33333 	-0.82742 	1.11111e-05 	
0.000199825 	0.000199825 	-0.00230385 	-20700.5 	0.0265468 	0.792079 	-20701.3 	-20701.3 	0 	
0.000147222 	2.54915e-10 	0.843947 	0.0780266 	0.0780266 	-0.148428 	4.02735 	
4.17578 	4.17612 	-0.000335685 	-1.96262 	7.84928e-08 	16.128 	3.872 	
1.52125e-11 	19280.2 	1.92802 	3.85603 	0.3 	2.33333 	-0.841123 	1.11111e-05 	
0.000199825 	0.000199825 	-0.00234047 	-21031.7 	0.0211545 	2.72433 	-21034.4 	-21034.4 	0 	
0.000158333 	-2.1797e-09 	0.843947 	0.0780266 	0.0780266 	-0.148428 	4.02734 	
4.17577 	4.17612 	-0.000344879 	-2.01637 	6.8044e-08 	14.1385 	5.8615 	
1.56291e-11 	19280.2 	1.92802 	3.85603 	0.3 	2.33333 	-0.864161 	1.11111e-05 	
0.000199825 	0.000199825 	-0.00240629 	-21632.3 	0.0162797 	6.03994 	-21638.3 	-21638.3 	0 	
0.000169444 	-4.70626e-09 	0.843947 	0.0780266 	0.0780266 	-0.148428 	4.02733 	
4.17576 	4.17612 	-0.0003579 	-2.09251 	5.72006e-08 	12.0841 	7.91594 	
1.62192e-11 	19280.2 	1.92802 	3.85603 	0.3 	2.33333 	-0.896789 	1.11111e-05 	
0.000199825 	0.000199825 	-0.00249517 	-22422.4 	0.0119208 	10.8863 	-22433.3 	-22433.3 	0 	
0.000180556 	-7.35277e-09 	0.843947 	0.0780266 	0.0780266 	-0.148428 	4.02731 	
4.17574 	4.17612 	-0.000374893 	-2.19186 	4.58424e-08 	9.94187 	10.0581 	
1.69891e-11 	19280.2 	1.92802 	3.85603 	0.3 	2.33333 	-0.939369 	1.11111e-05 	
0.000199825 	0.000199825 	-0.00261186 	-23468.7 	0.00810622 	17.4788 	-23486.2 	-23486.2 	0 	
0.000191667 	-1.01486e-08 	0.843947 	0.0780266 	0.0780266 	-0.148428 	4.02729 	
4.17572 	4.17612 	-0.000396047 	-2.31554 	3.38433e-08 	7.68817 	12.3118 	
1.79477e-11 	19280.2 	1.92802 	3.85603 	0.3 	2.33333 	-0.992373 	1.11111e-05 	
0.000199825 	0.000199825 	-0.00275829 	-24777.1 	0.00489803 	26.1109 	-24803.2 	-24803.2 	0 	
0.000202778 	-1.31247e-08 	0.843947 	0.0780266 	0.0780266 	-0.148428 	4.02727 	
4.1757 	4.17612 	-0.000421595 	-2.46491 	2.10703e-08 	5.29795 	14.7021 	
1.91053e-11 	19280.2 	1.92802 	3.85603 	0.3 	2.33333 	-1.05639 	1.11111e-05 	
0.000199825 	0.000199825 	-0.00293491 	-26377.2 	0.0023974 	37.1664 	-26414.4 	-26414.4 	0 	
0.000213889 	-1.62961e-08 	0.843947 	0.0780266 	0.0780266 	-0.148428 	4.02724 	
4.17567 	4.17612 	-0.000451822 	-2.64164 	7.49162e-09 	2.74467 	17.2553 	
2.0475e-11 	19280.2 	1.92802 	3.85603 	0.3 	2.33333 	-1.13213 	1.11111e-05 	
0.000199825 	0.000199825 	-0.00314293 	-28246.6 	0.000751762 	51.1372 	-28297.7 	-28297.7 	0 	
0.000225 	0 	0.843947 	0.0780266 	0.0780266 	-0.148428 	4.0272 	
4.17563 	4.17612 	-0.000487064 	-1.42385 	7.49162e-09 	0.711923 	19.2881 	
1.10359e-11 	9640.08 	0.964008 	1.92802 	0.3 	1.16667 	-1.22044 	5.55556e-06 	
9.99124e-05 	9.99124e-05 	-0.0033858 	-30437.3 	0.000164272 	58.9202 	-30496.2 	-30496.2 	0 	
ZONE T = "t = 1.61875e-07 [s]" I = 10 SOLUTIONTIME = 1.6187500000000E-07
0.000125 	4.95859e-09 	0.843947 	0.0780266 	0.0780266 	-0.148428 	4.02736 	
4.17579 	4.17612 	-0.000328412 	-0.960049 	9.86843e-08 	19.52 	0.480024 	
1.06817e-11 	9640.08 	0.964008 	1.92802 	0.3 	1.16667 	-0.822899 	5.55556e-06 	
9.99124e-05 	9.99124e-05 	-0.0033329 	-20597.8 	0.0293743 	0.157376 	-20598 	-20598 	0 	
0.000136111 	2.62471e-09 	0.843947 	0.0780266 	0.0780266 	-0.148428 	4.02736 	
4.17579 	4.17612 	-0.000330216 	-1.93065 	8.86633e-08 	18.0746 	1.92537 	
2.14807e-11 	19280.2 	1.92802 	3.85603 	0.3 	2.33333 	-0.82742 	1.11111e-05 	
0.000199825 	0.000199825 	-0.00335223 	-20708.8 	0.0265468 	0.792079 	-20709.6 	-20709.6 	0 	
0.000147222 	2.55051e-10 	0.843947 	0.0780266 	0.0780266 	-0.148428 	4.02735 	
4.17578 	4.17612 	-0.000335685 	-1.96262 	7.84931e-08 	16.128 	3.872 	
2.18364e-11 	19280.2 	1.92802 	3.85603 	0.3 	2.33333 	-0.841123 	1.11111e-05 	
0.000199825 	0.000199825 	-0.00340559 	-21039.4 	0.0211545 	2.72433 	-21042.2 	-21042.2 	0 	
0.000158333 	-2.17951e-09 	0.843947 	0.0780266 	0.0780266 	-0.148428 	4.02734 	
4.17577 	4.17612 	-0.000344879 	-2.01637 	6.80444e-08 	14.1385 	5.8615 	
2.24344e-11 	19280.2 	1.92802 	3.85603 	0.3 	2.33333 	-0.864161 	1.11111e-05 	
0.000199825 	0.000199825 	-0.00349987 	-21601.6 	0.0162797 	6.03994 	-21607.7 	-21607.7 	0 	
0.000169444 	-4.706e-09 	0.843947 	0.0780266 	0.0780266 	-0.148428 	4.02733 	
4.17576 	4.17612 	-0.0003579 	-2.09251 	5.72011e-08 	12.0841 	7.91594 	
2.32814e-11 	19280.2 	1.92802 	3.85603 	0.3 	2.33333 	-0.896789 	1.11111e-05 	
0.000199825 	0.000199825 	-0.00363072 	-22430.5 	0.0119208 	10.8863 	-22441.4 	-22441.4 	0 	
0.000180556 	-7.35248e-09 	0.843947 	0.0780266 	0.0780266 	-0.148428 	4.02731 	
4.17574 	4.17612 	-0.000374893 	-2.19186 	4.5843e-08 	9.94187 	10.0581 	
2.43867e-11 	19280.2 	1.92802 	3.85603 	0.3 	2.33333 	-0.939369 	1.11111e-05 	
0.000199825 	0.000199825 	-0.00380036 	-23476.6 	0.00810622 	17.4788 	-23494.1 	-23494.1 	0 	
0.000191667 	-1.01483e-08 	0.843947 	0.0780266 	0.0780266 	-0.148428 	4.02729 	
4.17572 	4.17612 	-0.000396047 	-2.31554 	3.38441e-08 	7.68817 	12.3118 	
2.57626e-11 	19280.2 	1.92802 	3.85603 	0.3 	2.33333 	-0.992373 	1.11111e-05 	
0.000199825 	0.000199825 	-0.00401322 	-24788.8 	0.00489803 	26.1109 	-24814.9 	-24814.9 	0 	
0.000202778 	-1.31243e-08 	0.843947 	0.0780266 	0.0780266 	-0.148428 	4.02727 	
4.1757 	4.17612 	-0.000421595 	-2.46491 	2.10715e-08 	5.29795 	14.7021 	
2.74244e-11 	19280.2 	1.92802 	3.85603 	0.3 	2.33333 	-1.05639 	1.11111e-05 	
0.000199825 	0.000199825 	-0.00427007 	-26373.6 	0.0023974 	37.1664 	-26410.7 	-26410.7 	0 	
0.000213889 	-1.62876e-08 	0.843947 	0.0780266 	0.0780266 	-0.148428 	4.02724 	
4.17567 	4.17612 	-0.000451822 	-2.64164 	7.54044e-09 	2.74467 	17.2553 	
2.93905e-11 	19280.2 	1.92802 	3.85603 	0.3 	2.33333 	-1.13213 	1.11111e-05 	
0.000199825 	0.000199825 	-0.00457274 	-28243.2 	0.000751762 	51.1372 	-28294.3 	-28294.3 	0 	
0.000225 	0 	0.843947 	0.0780266 	0.0780266 	-0.148428 	4.0272 	
4.17563 	4.17612 	-0.000487064 	-1.42385 	7.54044e-09 	0.711923 	19.2881 	
1.58414e-11 	9640.08 	0.964008 	1.92802 	0.3 	1.16667 	-1.22044 	5.55556e-06 	
9.99124e-05 	9.99124e-05 	-0.00492657 	-30435 	0.000164272 	58.9202 	-30493.9 	-30493.9 	0 	
ZONE T = "t = 2.37813e-07 [s]" I = 10 SOLUTIONTIME = 2.3781250000000E-07
0.000125 	4.96014e-09 	0.843947 	0.0780266 	0.0780266 	-0.148428 	4.02736 	
4.17579 	4.17612 	-0.000328412 	-0.960049 	9.86926e-08 	19.52 	0.480024 	
1.55419e-11 	9640.08 	0.964008 	1.92802 	0.3 	1.16667 	-0.822899 	5.55556e-06 	
9.99124e-05 	9.99124e-05 	-0.00489618 	-20586.4 	0.0293743 	0.157376 	-20586.6 	-20586.6 	0 	
0.000136111 	2.6248e-09 	0.843947 	0.0780266 	0.0780266 	-0.148428 	4.02736 	
4.17579 	4.17612 	-0.000330216 	-1.93065 	8.86636e-08 	18.0746 	1.92537 	
3.12546e-11 	19280.2 	1.92802 	3.85603 	0.3 	2.33333 	-0.82742 	1.11111e-05 	
0.000199825 	0.000199825 	-0.0049239 	-20696.9 	0.0265468 	0.792079 	-20697.7 	-20697.7 	0 	
0.000147222 	2.55126e-10 	0.843947 	0.0780266 	0.0780266 	-0.148428 	4.02735 	
4.17578 	4.17612 	-0.000335685 	-1.96262 	7.84935e-08 	16.128 	3.872 	