TITLE = "Solution on Domain BulkDomain1D_1"
VARIABLES = "x [m]"  
"Vel_axial" 	"MF_sp(ECDMC)" 	"MF_sp(Li+)" 	"MF_sp(PF6-)" 	"Volt(Electroly)" 	"Porosity []" 	"Control volume thickness [m]" 	"volFrac MgO(S) []" 	"qHeat_accum [J/m3]" 	"qHeat_step [W/m3]" 	"Joule_Lyte [W/m3]" 	"Joule_Solid [W/m3]" 	
ZONE T = "SEP , 0.0000E+00", I = 10, SOLUTIONTIME = 0.000000E+00
ZONETYPE = ORDERED
DATAPACKING = BLOCK
STRANDID = 2
 1.0000000000000E-04  1.0277777777778E-04  1.0555555555556E-04  1.0833333333333E-04  1.1111111111111E-04  1.1388888888889E-04  1.1666666666667E-04  1.1944444444444E-04  1.2222222222222E-04  1.2500000000000E-04 
 0.0000000000000E+00  0.0000000000000E+00  0.0000000000000E+00  0.0000000000000E+00  0.0000000000000E+00  0.0000000000000E+00  0.0000000000000E+00  0.0000000000000E+00  0.0000000000000E+00  0.0000000000000E+00 
 8.4394680000000E-01  8.4394680000000E-01  8.4394680000000E-01  8.4394680000000E-01  8.4394680000000E-01  8.4394680000000E-01  8.4394680000000E-01  8.4394680000000E-01  8.4394680000000E-01  8.4394680000000E-01 
 7.8026600000000E-02  7.8026600000000E-02  7.8026600000000E-02  7.8026600000000E-02  7.8026600000000E-02  7.8026600000000E-02  7.8026600000000E-02  7.8026600000000E-02  7.8026600000000E-02  7.8026600000000E-02 
 7.8026600000000E-02  7.8026600000000E-02  7.8026600000000E-02  7.8026600000000E-02  7.8026600000000E-02  7.8026600000000E-02  7.8026600000000E-02  7.8026600000000E-02  7.8026600000000E-02  7.8026600000000E-02 
-7.0000000000000E-02 -7.0000000000000E-02 -7.0000000000000E-02 -7.0000000000000E-02 -7.0000000000000E-02 -7.0000000000000E-02 -7.0000000000000E-02 -7.0000000000000E-02 -7.0000000000000E-02 -7.0000000000000E-02 
 8.0000000000000E-01  8.0000000000000E-01  8.0000000000000E-01  8.0000000000000E-01  8.0000000000000E-01  8.0000000000000E-01  8.0000000000000E-01  8.0000000000000E-01  8.0000000000000E-01  8.0000000000000E-01 
 1.3888888888889E-06  2.7777777777778E-06  2.7777777777778E-06  2.7777777777778E-06  2.7777777777778E-06  2.7777777777778E-06  2.7777777777778E-06  2.7777777777778E-06  2.7777777777778E-06  1.3888888888889E-06 
 2.0000000000000E-01  2.0000000000000E-01  2.0000000000000E-01  2.0000000000000E-01  2.0000000000000E-01  2.0000000000000E-01  2.0000000000000E-01  2.0000000000000E-01  2.0000000000000E-01  2.0000000000000E-01 
 0.0000000000000E+00  0.0000000000000E+00  0.0000000000000E+00  0.0000000000000E+00  0.0000000000000E+00  0.0000000000000E+00  0.0000000000000E+00  0.0000000000000E+00  0.0000000000000E+00  0.0000000000000E+00 
 0.0000000000000E+00  0.0000000000000E+00  0.0000000000000E+00  0.0000000000000E+00  0.0000000000000E+00  0.0000000000000E+00  0.0000000000000E+00  0.0000000000000E+00  0.0000000000000E+00  0.0000000000000E+00 
 0.0000000000000E+00  0.0000000000000E+00  0.0000000000000E+00  0.0000000000000E+00  0.0000000000000E+00  0.0000000000000E+00  0.0000000000000E+00  0.0000000000000E+00  0.0000000000000E+00  0.0000000000000E+00 
 0.0000000000000E+00  0.0000000000000E+00  0.0000000000000E+00  0.0000000000000E+00  0.0000000000000E+00  0.0000000000000E+00  0.0000000000000E+00  0.0000000000000E+00  0.0000000000000E+00  0.0000000000000E+00 
ZONE T = "SEP , 1.0000E-08", I = 10, SOLUTIONTIME = 1.000000E-08
ZONETYPE = ORDERED
DATAPACKING = BLOCK
STRANDID = 2
 1.0000000000000E-04  1.0277777777778E-04  1.0555555555556E-04  1.0833333333333E-04  1.1111111111111E-04  1.1388888888889E-04  1.1666666666667E-04  1.1944444444444E-04  1.2222222222222E-04  1.2500000000000E-04 
 6.1203711353797E-09  6.1154030969147E-09  6.1154040131935E-09  6.1154033586742E-09  6.1154033486022E-09  6.1154033587580E-09  6.1154039949189E-09  6.1154276977512E-09  6.1205553162388E-09  5.7763987012505E-09 
 8.4394679999730E-01  8.4394679999997E-01  8.4394680000000E-01  8.4394680000000E-01  8.4394680000000E-01  8.4394680000000E-01  8.4394680000000E-01  8.4394680000000E-01  8.4394680000003E-01  8.4394680000270E-01 
 7.8026600001352E-02  7.8026600000015E-02  7.8026600000000E-02  7.8026600000000E-02  7.8026600000000E-02  7.8026600000000E-02  7.8026600000000E-02  7.8026600000000E-02  7.8026599999985E-02  7.8026599998648E-02 
 7.8026600001352E-02  7.8026600000015E-02  7.8026600000000E-02  7.8026600000000E-02  7.8026600000000E-02  7.8026600000000E-02  7.8026600000000E-02  7.8026600000000E-02  7.8026599999985E-02  7.8026599998648E-02 
-1.2133000125521E-01 -1.2133000228900E-01 -1.2133000332280E-01 -1.2133000435648E-01 -1.2133000539027E-01 -1.2133000642395E-01 -1.2133000745774E-01 -1.2133000849142E-01 -1.2133000952521E-01 -1.2133001055890E-01 
 8.0000000000000E-01  8.0000000000000E-01  8.0000000000000E-01  8.0000000000000E-01  8.0000000000000E-01  8.0000000000000E-01  8.0000000000000E-01  8.0000000000000E-01  8.0000000000000E-01  8.0000000000000E-01 
 1.3888888888889E-06  2.7777777777778E-06  2.7777777777778E-06  2.7777777777778E-06  2.7777777777778E-06  2.7777777777778E-06  2.7777777777778E-06  2.7777777777778E-06  2.7777777777778E-06  1.3888888888889E-06 
 2.0000000000000E-01  2.0000000000000E-01  2.0000000000000E-01  2.0000000000000E-01  2.0000000000000E-01  2.0000000000000E-01  2.0000000000000E-01  2.0000000000000E-01  2.0000000000000E-01  2.0000000000000E-01 
 7.4436696513126E-11  7.4436839405819E-11  7.4428975714297E-11  7.4428792851205E-11  7.4428648974381E-11  7.4428673955650E-11  7.4428777866662E-11  7.4428989708162E-11  7.4428990706943E-11  7.4420891196021E-11 
 7.4436696513126E-03  7.4436839405819E-03  7.4428975714297E-03  7.4428792851205E-03  7.4428648974381E-03  7.4428673955650E-03  7.4428777866662E-03  7.4428989708162E-03  7.4428990706943E-03  7.4420891196021E-03 
 7.4436696513126E-03  7.4436839405819E-03  7.4428975714297E-03  7.4428792851205E-03  7.4428648974381E-03  7.4428673955650E-03  7.4428777866662E-03  7.4428989708162E-03  7.4428990706943E-03  7.4420891196021E-03 
 0.0000000000000E+00  0.0000000000000E+00  0.0000000000000E+00  0.0000000000000E+00  0.0000000000000E+00  0.0000000000000E+00  0.0000000000000E+00  0.0000000000000E+00  0.0000000000000E+00  0.0000000000000E+00 
ZONE T = "SEP , 2.0000E-08", I = 10, SOLUTIONTIME = 2.000000E-08
ZONETYPE = ORDERED
DATAPACKING = BLOCK
STRANDID = 2
 1.0000000000000E-04  1.0277777777778E-04  1.0555555555556E-04  1.0833333333333E-04  1.1111111111111E-04  1.1388888888889E-04  1.1666666666667E-04  1.1944444444444E-04  1.2222222222222E-04  1.2500000000000E-04 
 6.1250097651535E-09  6.1151508575128E-09  6.1149655914100E-09  6.1149671838780E-09  6.1149671587435E-09  6.1149671836787E-09  6.1149655738258E-09  6.1151795781118E-09  6.1249348362268E-09  5.7759050864496E-09 
 8.4394679999461E-01  8.4394679999991E-01  8.4394680000000E-01  8.4394680000000E-01  8.4394680000000E-01  8.4394680000000E-01  8.4394680000000E-01  8.4394680000000E-01  8.4394680000009E-01  8.4394680000538E-01 
 7.8026600002693E-02  7.8026600000045E-02  7.8026600000001E-02  7.8026600000000E-02  7.8026600000000E-02  7.8026600000000E-02  7.8026600000000E-02  7.8026599999999E-02  7.8026599999955E-02  7.8026599997309E-02 
 7.8026600002693E-02  7.8026600000045E-02  7.8026600000001E-02  7.8026600000000E-02  7.8026600000000E-02  7.8026600000000E-02  7.8026600000000E-02  7.8026599999999E-02  7.8026599999955E-02  7.8026599997309E-02 
-1.2132858616048E-01 -1.2132858719422E-01 -1.2132858822796E-01 -1.2132858926170E-01 -1.2132859029544E-01 -1.2132859132918E-01 -1.2132859236292E-01 -1.2132859339665E-01 -1.2132859443039E-01 -1.2132859546413E-01 
 8.0000000000000E-01  8.0000000000000E-01  8.0000000000000E-01  8.0000000000000E-01  8.0000000000000E-01  8.0000000000000E-01  8.0000000000000E-01  8.0000000000000E-01  8.0000000000000E-01  8.0000000000000E-01 
 1.3888888888889E-06  2.7777777777778E-06  2.7777777777778E-06  2.7777777777778E-06  2.7777777777778E-06  2.7777777777778E-06  2.7777777777778E-06  2.7777777777778E-06  2.7777777777778E-06  1.3888888888889E-06 
 2.0000000000000E-01  2.0000000000000E-01  2.0000000000000E-01  2.0000000000000E-01  2.0000000000000E-01  2.0000000000000E-01  2.0000000000000E-01  2.0000000000000E-01  2.0000000000000E-01  2.0000000000000E-01 
 1.4886587884795E-10  1.4886602273913E-10  1.4885815904688E-10  1.4885797518458E-10  1.4885783230696E-10  1.4885785728822E-10  1.4885796119924E-10  1.4885817304072E-10  1.4885817403878E-10  1.4885007552634E-10 
 7.4429182334829E-03  7.4429183333315E-03  7.4429183332586E-03  7.4429182333373E-03  7.4429183332575E-03  7.4429183332574E-03  7.4429183332574E-03  7.4429183332562E-03  7.4429183331834E-03  7.4429184330319E-03 
 7.4429182334829E-03  7.4429183333315E-03  7.4429183332586E-03  7.4429182333373E-03  7.4429183332575E-03  7.4429183332574E-03  7.4429183332574E-03  7.4429183332562E-03  7.4429183331834E-03  7.4429184330319E-03 
 0.0000000000000E+00  0.0000000000000E+00  0.0000000000000E+00  0.0000000000000E+00  0.0000000000000E+00  0.0000000000000E+00  0.0000000000000E+00  0.0000000000000E+00  0.0000000000000E+00  0.0000000000000E+00 
ZONE T = "SEP , 3.0000E-08", I = 10, SOLUTIONTIME = 3.000000E-08
ZONETYPE = ORDERED
DATAPACKING = BLOCK
STRANDID = 2
 1.0000000000000E-04  1.0277777777778E-04  1.0555555555556E-04  1.0833333333333E-04  1.1111111111111E-04  1.1388888888889E-04  1.1666666666667E-04  1.1944444444444E-04  1.2222222222222E-04  1.2500000000000E-04 
 6.1294284986705E-09  6.1148344106108E-09  6.1145177684307E-09  6.1145155863909E-09  6.1145155189592E-09  6.1145155849115E-09  6.1145176378495E-09  6.1149391413233E-09  6.1295337627716E-09  5.7759329795636E-09 
 8.4394679999196E-01  8.4394679999982E-01  8.4394680000000E-01  8.4394680000000E-01  8.4394680000000E-01  8.4394680000000E-01  8.4394680000000E-01  8.4394680000000E-01  8.4394680000018E-01  8.4394680000804E-01 
 7.8026600004022E-02  7.8026600000090E-02  7.8026600000002E-02  7.8026600000000E-02  7.8026600000000E-02  7.8026600000000E-02  7.8026600000000E-02  7.8026599999998E-02  7.8026599999910E-02  7.8026599995980E-02 
 7.8026600004022E-02  7.8026600000090E-02  7.8026600000002E-02  7.8026600000000E-02  7.8026600000000E-02  7.8026600000000E-02  7.8026600000000E-02  7.8026599999998E-02  7.8026599999910E-02  7.8026599995980E-02 
-1.2132858616115E-01 -1.2132858719489E-01 -1.2132858822863E-01 -1.2132858926237E-01 -1.2132859029610E-01 -1.2132859132984E-01 -1.2132859236358E-01 -1.2132859339732E-01 -1.2132859443106E-01 -1.2132859546480E-01 
 8.0000000000000E-01  8.0000000000000E-01  8.0000000000000E-01  8.0000000000000E-01  8.0000000000000E-01  8.0000000000000E-01  8.0000000000000E-01  8.0000000000000E-01  8.0000000000000E-01  8.0000000000000E-01 
 1.3888888888889E-06  2.7777777777778E-06  2.7777777777778E-06  2.7777777777778E-06  2.7777777777778E-06  2.7777777777778E-06  2.7777777777778E-06  2.7777777777778E-06  2.7777777777778E-06  1.3888888888889E-06 
 2.0000000000000E-01  2.0000000000000E-01  2.0000000000000E-01  2.0000000000000E-01  2.0000000000000E-01  2.0000000000000E-01  2.0000000000000E-01  2.0000000000000E-01  2.0000000000000E-01  2.0000000000000E-01 
 2.2329506118351E-10  2.2329520607283E-10  2.2328734237948E-10  2.2328715851715E-10  2.2328701563953E-10  2.2328704062080E-10  2.2328714453181E-10  2.2328735637327E-10  2.2328735737023E-10  2.2327925785753E-10 
 7.4429182335560E-03  7.4429183333692E-03  7.4429183332599E-03  7.4429183332574E-03  7.4429183332575E-03  7.4429183332574E-03  7.4429183332574E-03  7.4429183332549E-03  7.4429183331457E-03  7.4429182331188E-03 
 7.4429182335560E-03  7.4429183333692E-03  7.4429183332599E-03  7.4429183332574E-03  7.4429183332575E-03  7.4429183332574E-03  7.4429183332574E-03  7.4429183332549E-03  7.4429183331457E-03  7.4429182331188E-03 
 0.0000000000000E+00  0.0000000000000E+00  0.0000000000000E+00  0.0000000000000E+00  0.0000000000000E+00  0.0000000000000E+00  0.0000000000000E+00  0.0000000000000E+00  0.0000000000000E+00  0.0000000000000E+00 
ZONE T = "SEP , 4.0000E-08", I = 10, SOLUTIONTIME = 4.000000E-08
ZONETYPE = ORDERED
DATAPACKING = BLOCK
STRANDID = 2
 1.0000000000000E-04  1.0277777777778E-04  1.0555555555556E-04  1.0833333333333E-04  1.1111111111111E-04  1.1388888888889E-04  1.1666666666667E-04  1.1944444444444E-04  1.2222222222222E-04  1.2500000000000E-04 
 6.1350698446392E-09  6.1159326056103E-09  6.1153775228830E-09  6.1153791616398E-09  6.1153789327014E-09  6.1153791030610E-09  6.1154554978896E-09  6.1159598312070E-09  6.1351822166581E-09  5.7769393386558E-09 
 8.4394679998932E-01  8.4394679999970E-01  8.4394679999999E-01  8.4394680000000E-01  8.4394680000000E-01  8.4394680000000E-01  8.4394680000000E-01  8.4394680000001E-01  8.4394680000030E-01  8.4394680001067E-01 
 7.8026600005339E-02  7.8026600000149E-02  7.8026600000003E-02  7.8026600000000E-02  7.8026600000000E-02  7.8026600000000E-02  7.8026600000000E-02  7.8026599999997E-02  7.8026599999852E-02  7.8026599994663E-02 
 7.8026600005339E-02  7.8026600000149E-02  7.8026600000003E-02  7.8026600000000E-02  7.8026600000000E-02  7.8026600000000E-02  7.8026600000000E-02  7.8026599999997E-02  7.8026599999852E-02  7.8026599994663E-02 
-1.2132858616181E-01 -1.2132858719555E-01 -1.2132858822929E-01 -1.2132858926303E-01 -1.2132859029677E-01 -1.2132859133051E-01 -1.2132859236425E-01 -1.2132859339799E-01 -1.2132859443172E-01 -1.2132859546546E-01 
 8.0000000000000E-01  8.0000000000000E-01  8.0000000000000E-01  8.0000000000000E-01  8.0000000000000E-01  8.0000000000000E-01  8.0000000000000E-01  8.0000000000000E-01  8.0000000000000E-01  8.0000000000000E-01 
 1.3888888888889E-06  2.7777777777778E-06  2.7777777777778E-06  2.7777777777778E-06  2.7777777777778E-06  2.7777777777778E-06  2.7777777777778E-06  2.7777777777778E-06  2.7777777777778E-06  1.3888888888889E-06 
 2.0000000000000E-01  2.0000000000000E-01  2.0000000000000E-01  2.0000000000000E-01  2.0000000000000E-01  2.0000000000000E-01  2.0000000000000E-01  2.0000000000000E-01  2.0000000000000E-01  2.0000000000000E-01 
 2.9772424351981E-10  2.9772438940690E-10  2.9771652571210E-10  2.9771634184973E-10  2.9771619897210E-10  2.9771622395337E-10  2.9771632786438E-10  2.9771653970581E-10  2.9771654070131E-10  2.9770844018798E-10 
 7.4429182336292E-03  7.4429183334074E-03  7.4429183332615E-03  7.4429183332575E-03  7.4429183332575E-03  7.4429183332574E-03  7.4429183332573E-03  7.4429183332533E-03  7.4429183331075E-03  7.4429182330456E-03 
 7.4429182336292E-03  7.4429183334074E-03  7.4429183332615E-03  7.4429183332575E-03  7.4429183332575E-03  7.4429183332574E-03  7.4429183332573E-03  7.4429183332533E-03  7.4429183331075E-03  7.4429182330456E-03 
 0.0000000000000E+00  0.0000000000000E+00  0.0000000000000E+00  0.0000000000000E+00  0.0000000000000E+00  0.0000000000000E+00  0.0000000000000E+00  0.0000000000000E+00  0.0000000000000E+00  0.0000000000000E+00 
ZONE T = "SEP , 5.5000E-08", I = 10, SOLUTIONTIME = 5.500000E-08
ZONETYPE = ORDERED
DATAPACKING = BLOCK
STRANDID = 2
 1.0000000000000E-04  1.0277777777778E-04  1.0555555555556E-04  1.0833333333333E-04  1.1111111111111E-04  1.1388888888889E-04  1.1666666666667E-04  1.1944444444444E-04  1.2222222222222E-04  1.2500000000000E-04 
 6.1415105717121E-09  6.1157955216479E-09  6.1148270334666E-09  6.1148278187344E-09  6.1148271876867E-09  6.1148277669836E-09  6.1148265109882E-09  6.1157413593510E-09  6.1414206230299E-09  5.7765530557956E-09 
 8.4394679998542E-01  8.4394679999947E-01  8.4394679999998E-01  8.4394680000000E-01  8.4394680000000E-01  8.4394680000000E-01  8.4394680000000E-01  8.4394680000002E-01  8.4394680000053E-01  8.4394680001458E-01 
 7.8026600007292E-02  7.8026600000266E-02  7.8026600000008E-02  7.8026600000000E-02  7.8026600000000E-02  7.8026600000000E-02  7.8026600000000E-02  7.8026599999992E-02  7.8026599999734E-02  7.8026599992711E-02 
 7.8026600007292E-02  7.8026600000266E-02  7.8026600000008E-02  7.8026600000000E-02  7.8026600000000E-02  7.8026600000000E-02  7.8026600000000E-02  7.8026599999992E-02  7.8026599999734E-02  7.8026599992711E-02 
-1.2132858616249E-01 -1.2132858719623E-01 -1.2132858822996E-01 -1.2132858926370E-01 -1.2132859029744E-01 -1.2132859133118E-01 -1.2132859236492E-01 -1.2132859339866E-01 -1.2132859443240E-01 -1.2132859546614E-01 
 8.0000000000000E-01  8.0000000000000E-01  8.0000000000000E-01  8.0000000000000E-01  8.0000000000000E-01  8.0000000000000E-01  8.0000000000000E-01  8.0000000000000E-01  8.0000000000000E-01  8.0000000000000E-01 
 1.3888888888889E-06  2.7777777777778E-06  2.7777777777778E-06  2.7777777777778E-06  2.7777777777778E-06  2.7777777777778E-06  2.7777777777778E-06  2.7777777777778E-06  2.7777777777778E-06  1.3888888888889E-06 
 2.0000000000000E-01  2.0000000000000E-01  2.0000000000000E-01  2.0000000000000E-01  2.0000000000000E-01  2.0000000000000E-01  2.0000000000000E-01  2.0000000000000E-01  2.0000000000000E-01  2.0000000000000E-01 
 4.0936802002350E-10  4.0936816440889E-10  4.0936030071107E-10  4.0936011684859E-10  4.0935997247217E-10  4.0935999895223E-10  4.0936010286324E-10  4.0936031470455E-10  4.0936031569705E-10  4.0935221368202E-10 
 7.4429184335794E-03  7.4429183334657E-03  7.4429183332649E-03  7.4429183332576E-03  7.4429182333374E-03  7.4429183332574E-03  7.4429183332572E-03  7.4429183332499E-03  7.4429183330492E-03  7.4429182329356E-03 
 7.4429184335794E-03  7.4429183334657E-03  7.4429183332649E-03  7.4429183332576E-03  7.4429182333374E-03  7.4429183332574E-03  7.4429183332572E-03  7.4429183332499E-03  7.4429183330492E-03  7.4429182329356E-03 
 0.0000000000000E+00  0.0000000000000E+00  0.0000000000000E+00  0.0000000000000E+00  0.0000000000000E+00  0.0000000000000E+00  0.0000000000000E+00  0.0000000000000E+00  0.0000000000000E+00  0.0000000000000E+00 
ZONE T = "SEP , 7.7500E-08", I = 10, SOLUTIONTIME = 7.750000E-08
ZONETYPE = ORDERED
DATAPACKING = BLOCK
STRANDID = 2
 1.0000000000000E-04  1.0277777777778E-04  1.0555555555556E-04  1.0833333333333E-04  1.1111111111111E-04  1.1388888888889E-04  1.1666666666667E-04  1.1944444444444E-04  1.2222222222222E-04  1.2500000000000E-04 
 6.1515963672793E-09  6.1167477625311E-09  6.1149856722053E-09  6.1149035669710E-09  6.1149030633629E-09  6.1149035483515E-09  6.1149983755280E-09  6.1167851952299E-09  6.1516119924306E-09  5.7772616820704E-09 
 8.4394679997966E-01  8.4394679999899E-01  8.4394679999996E-01  8.4394680000000E-01  8.4394680000000E-01  8.4394680000000E-01  8.4394680000000E-01  8.4394680000004E-01  8.4394680000101E-01  8.4394680002033E-01 
 7.8026600010168E-02  7.8026600000506E-02  7.8026600000020E-02  7.8026600000001E-02  7.8026600000000E-02  7.8026600000000E-02  7.8026599999999E-02  7.8026599999980E-02  7.8026599999495E-02  7.8026599989836E-02 
 7.8026600010168E-02  7.8026600000506E-02  7.8026600000020E-02  7.8026600000001E-02  7.8026600000000E-02  7.8026600000000E-02  7.8026599999999E-02  7.8026599999980E-02  7.8026599999495E-02  7.8026599989836E-02 
-1.2132858616351E-01 -1.2132858719725E-01 -1.2132858823099E-01 -1.2132858926473E-01 -1.2132859029847E-01 -1.2132859133220E-01 -1.2132859236594E-01 -1.2132859339968E-01 -1.2132859443342E-01 -1.2132859546716E-01 
 8.0000000000000E-01  8.0000000000000E-01  8.0000000000000E-01  8.0000000000000E-01  8.0000000000000E-01  8.0000000000000E-01  8.0000000000000E-01  8.0000000000000E-01  8.0000000000000E-01  8.0000000000000E-01 
 1.3888888888889E-06  2.7777777777778E-06  2.7777777777778E-06  2.7777777777778E-06  2.7777777777778E-06  2.7777777777778E-06  2.7777777777778E-06  2.7777777777778E-06  2.7777777777778E-06  1.3888888888889E-06 
 2.0000000000000E-01  2.0000000000000E-01  2.0000000000000E-01  2.0000000000000E-01  2.0000000000000E-01  2.0000000000000E-01  2.0000000000000E-01  2.0000000000000E-01  2.0000000000000E-01  2.0000000000000E-01 
 5.7683368478276E-10  5.7683382691388E-10  5.7682596320969E-10  5.7682577934689E-10  5.7682563497046E-10  5.7682566145052E-10  5.7682576536152E-10  5.7682597720252E-10  5.7682597818864E-10  5.7681787841575E-10 
 7.4429184337451E-03  7.4429183335552E-03  7.4429183332719E-03  7.4429183332579E-03  7.4429183332575E-03  7.4429183332574E-03  7.4429183332568E-03  7.4429183332429E-03  7.4429183329597E-03  7.4429184326101E-03 
 7.4429184337451E-03  7.4429183335552E-03  7.4429183332719E-03  7.4429183332579E-03  7.4429183332575E-03  7.4429183332574E-03  7.4429183332568E-03  7.4429183332429E-03  7.4429183329597E-03  7.4429184326101E-03 
 0.0000000000000E+00  0.0000000000000E+00  0.0000000000000E+00  0.0000000000000E+00  0.0000000000000E+00  0.0000000000000E+00  0.0000000000000E+00  0.0000000000000E+00  0.0000000000000E+00  0.0000000000000E+00 
ZONE T = "SEP , 1.1125E-07", I = 10, SOLUTIONTIME = 1.112500E-07
ZONETYPE = ORDERED
DATAPACKING = BLOCK
STRANDID = 2
 1.0000000000000E-04  1.0277777777778E-04  1.0555555555556E-04  1.0833333333333E-04  1.1111111111111E-04  1.1388888888889E-04  1.1666666666667E-04  1.1944444444444E-04  1.2222222222222E-04  1.2500000000000E-04 
 6.1657768117607E-09  6.1185439313951E-09  6.1151676432222E-09  6.1149796277482E-09  6.1149796913881E-09  6.1149868849177E-09  6.1151746025170E-09  6.1185181372798E-09  6.1657355446641E-09  5.7779753871379E-09 
 8.4394679997126E-01  8.4394679999802E-01  8.4394679999989E-01  8.4394679999999E-01  8.4394680000000E-01  8.4394680000000E-01  8.4394680000001E-01  8.4394680000011E-01  8.4394680000198E-01  8.4394680002873E-01 
 7.8026600014372E-02  7.8026600000992E-02  7.8026600000055E-02  7.8026600000003E-02  7.8026600000000E-02  7.8026600000000E-02  7.8026599999997E-02  7.8026599999946E-02  7.8026599999008E-02  7.8026599985633E-02 
 7.8026600014372E-02  7.8026600000992E-02  7.8026600000055E-02  7.8026600000003E-02  7.8026600000000E-02  7.8026600000000E-02  7.8026599999997E-02  7.8026599999946E-02  7.8026599999008E-02  7.8026599985633E-02 
-1.2132858616505E-01 -1.2132858719878E-01 -1.2132858823252E-01 -1.2132858926626E-01 -1.2132859030000E-01 -1.2132859133374E-01 -1.2132859236748E-01 -1.2132859340122E-01 -1.2132859443495E-01 -1.2132859546869E-01 
 8.0000000000000E-01  8.0000000000000E-01  8.0000000000000E-01  8.0000000000000E-01  8.0000000000000E-01  8.0000000000000E-01  8.0000000000000E-01  8.0000000000000E-01  8.0000000000000E-01  8.0000000000000E-01 
 1.3888888888889E-06  2.7777777777778E-06  2.7777777777778E-06  2.7777777777778E-06  2.7777777777778E-06  2.7777777777778E-06  2.7777777777778E-06  2.7777777777778E-06  2.7777777777778E-06  1.3888888888889E-06 
 2.0000000000000E-01  2.0000000000000E-01  2.0000000000000E-01  2.0000000000000E-01  2.0000000000000E-01  2.0000000000000E-01  2.0000000000000E-01  2.0000000000000E-01  2.0000000000000E-01  2.0000000000000E-01 
 8.2803218193008E-10  8.2803232067605E-10  8.2802445695811E-10  8.2802427309438E-10  8.2802412871790E-10  8.2802415519796E-10  8.2802425910890E-10  8.2802447094897E-10  8.2802447192136E-10  8.2801637550792E-10 
 7.4429184339945E-03  7.4429183336938E-03  7.4429183332867E-03  7.4429183332590E-03  7.4429183332575E-03  7.4429183332573E-03  7.4429183332558E-03  7.4429183332281E-03  7.4429183328212E-03  7.4429184323607E-03 
 7.4429184339945E-03  7.4429183336938E-03  7.4429183332867E-03  7.4429183332590E-03  7.4429183332575E-03  7.4429183332573E-03  7.4429183332558E-03  7.4429183332281E-03  7.4429183328212E-03  7.4429184323607E-03 
 0.0000000000000E+00  0.0000000000000E+00  0.0000000000000E+00  0.0000000000000E+00  0.0000000000000E+00  0.0000000000000E+00  0.0000000000000E+00  0.0000000000000E+00  0.0000000000000E+00  0.0000000000000E+00 
ZONE T = "SEP , 1.6188E-07", I = 10, SOLUTIONTIME = 1.618750E-07
ZONETYPE = ORDERED
DATAPACKING = BLOCK
STRANDID = 2
 1.0000000000000E-04  1.0277777777778E-04  1.0555555555556E-04  1.0833333333333E-04  1.1111111111111E-04  1.1388888888889E-04  1.1666666666667E-04  1.1944444444444E-04  1.2222222222222E-04  1.2500000000000E-04 
 6.1850443489568E-09  6.1217639154825E-09  6.1154136477848E-09  6.1149126980954E-09  6.1148817658197E-09  6.1149290185561E-09  6.1154402986783E-09  6.1217948764751E-09  6.1850545123079E-09  5.7791021570752E-09 
 8.4394679995909E-01  8.4394679999606E-01  8.4394679999969E-01  8.4394679999998E-01  8.4394680000000E-01  8.4394680000000E-01  8.4394680000002E-01  8.4394680000031E-01  8.4394680000394E-01  8.4394680004089E-01 
 7.8026600020454E-02  7.8026600001970E-02  7.8026600000153E-02  7.8026600000010E-02  7.8026600000001E-02  7.8026599999999E-02  7.8026599999990E-02  7.8026599999847E-02  7.8026599998030E-02  7.8026599979554E-02 
 7.8026600020454E-02  7.8026600001970E-02  7.8026600000153E-02  7.8026600000010E-02  7.8026600000001E-02  7.8026599999999E-02  7.8026599999990E-02  7.8026599999847E-02  7.8026599998030E-02  7.8026599979554E-02 
-1.2132858616734E-01 -1.2132858720108E-01 -1.2132858823482E-01 -1.2132858926856E-01 -1.2132859030230E-01 -1.2132859133604E-01 -1.2132859236978E-01 -1.2132859340352E-01 -1.2132859443725E-01 -1.2132859547099E-01 
 8.0000000000000E-01  8.0000000000000E-01  8.0000000000000E-01  8.0000000000000E-01  8.0000000000000E-01  8.0000000000000E-01  8.0000000000000E-01  8.0000000000000E-01  8.0000000000000E-01  8.0000000000000E-01 
 1.3888888888889E-06  2.7777777777778E-06  2.7777777777778E-06  2.7777777777778E-06  2.7777777777778E-06  2.7777777777778E-06  2.7777777777778E-06  2.7777777777778E-06  2.7777777777778E-06  1.3888888888889E-06 
 2.0000000000000E-01  2.0000000000000E-01  2.0000000000000E-01  2.0000000000000E-01  2.0000000000000E-01  2.0000000000000E-01  2.0000000000000E-01  2.0000000000000E-01  2.0000000000000E-01  2.0000000000000E-01 
 1.2048299175531E-09  1.2048300613302E-09  1.2048221975823E-09  1.2048220137158E-09  1.2048218693391E-09  1.2048218958191E-09  1.2048219997298E-09  1.2048222115670E-09  1.2048222125095E-09  1.2048141110103E-09 
 7.4429182345298E-03  7.4429183339102E-03  7.4429183333182E-03  7.4429183332620E-03  7.4429183332577E-03  7.4429183332571E-03  7.4429183332528E-03  7.4429183331967E-03  7.4429183326049E-03  7.4429182321453E-03 
 7.4429182345298E-03  7.4429183339102E-03  7.4429183333182E-03  7.4429183332620E-03  7.4429183332577E-03  7.4429183332571E-03  7.4429183332528E-03  7.4429183331967E-03  7.4429183326049E-03  7.4429182321453E-03 
 0.0000000000000E+00  0.0000000000000E+00  0.0000000000000E+00  0.0000000000000E+00  0.0000000000000E+00  0.0000000000000E+00  0.0000000000000E+00  0.0000000000000E+00  0.0000000000000E+00  0.0000000000000E+00 
ZONE T = "SEP , 2.3781E-07", I = 10, SOLUTIONTIME = 2.378125E-07
ZONETYPE = ORDERED
DATAPACKING = BLOCK
STRANDID = 2
 1.0000000000000E-04  1.0277777777778E-04  1.0555555555556E-04  1.0833333333333E-04  1.1111111111111E-04  1.1388888888889E-04  1.1666666666667E-04  1.1944444444444E-04  1.2222222222222E-04  1.2500000000000E-04 
 6.2107787638465E-09  6.1280863328522E-09  6.1163958664275E-09  6.1150868008976E-09  6.1149723791800E-09  6.1150905017193E-09  6.1164027793789E-09  6.1280931758128E-09  6.2107544499566E-09  5.7809991567098E-09 
 8.4394679994173E-01  8.4394679999222E-01  8.4394679999915E-01  8.4394679999992E-01  8.4394679999999E-01  8.4394680000001E-01  8.4394680000008E-01  8.4394680000085E-01  8.4394680000777E-01  8.4394680005825E-01 
 7.8026600029134E-02  7.8026600003888E-02  7.8026600000424E-02  7.8026600000041E-02  7.8026600000003E-02  7.8026599999997E-02  7.8026599999959E-02  7.8026599999576E-02  7.8026599996114E-02  7.8026599970877E-02 
 7.8026600029134E-02  7.8026600003888E-02  7.8026600000424E-02  7.8026600000041E-02  7.8026600000003E-02  7.8026599999997E-02  7.8026599999959E-02  7.8026599999576E-02  7.8026599996114E-02  7.8026599970877E-02 
-1.2132858617079E-01 -1.2132858720453E-01 -1.2132858823827E-01 -1.2132858927201E-01 -1.2132859030574E-01 -1.2132859133948E-01 -1.2132859237322E-01 -1.2132859340696E-01 -1.2132859444070E-01 -1.2132859547444E-01 
 8.0000000000000E-01  8.0000000000000E-01  8.0000000000000E-01  8.0000000000000E-01  8.0000000000000E-01  8.0000000000000E-01  8.0000000000000E-01  8.0000000000000E-01  8.0000000000000E-01  8.0000000000000E-01 
 1.3888888888889E-06  2.7777777777778E-06  2.7777777777778E-06  2.7777777777778E-06  2.7777777777778E-06  2.7777777777778E-06  2.7777777777778E-06  2.7777777777778E-06  2.7777777777778E-06  1.3888888888889E-06 
 2.0000000000000E-01  2.0000000000000E-01  2.0000000000000E-01  2.0000000000000E-01  2.0000000000000E-01  2.0000000000000E-01  2.0000000000000E-01  2.0000000000000E-01  2.0000000000000E-01  2.0000000000000E-01 
 1.7700265362059E-09  1.7700266723374E-09  1.7700188085237E-09  1.7700186246485E-09  1.7700184802709E-09  1.7700185067507E-09  1.7700186106605E-09  1.7700188224891E-09  1.7700188233659E-09  1.7700107293964E-09 
 7.4429184349335E-03  7.4429183342501E-03  7.4429183333844E-03  7.4429183332709E-03  7.4429183332586E-03  7.4429183332562E-03  7.4429183332439E-03  7.4429183331305E-03  7.4429183322651E-03  7.4429184314221E-03 
 7.4429184349335E-03  7.4429183342501E-03  7.4429183333844E-03  7.4429183332709E-03  7.4429183332586E-03  7.4429183332562E-03  7.4429183332439E-03  7.4429183331305E-03  7.4429183322651E-03  7.4429184314221E-03 
 0.0000000000000E+00  0.0000000000000E+00  0.0000000000000E+00  0.0000000000000E+00  0.0000000000000E+00  0.0000000000000E+00  0.0000000000000E+00  0.0000000000000E+00  0.0000000000000E+00  0.0000000000000E+00 
ZONE T = "SEP , 3.5172E-07", I = 10, SOLUTIONTIME = 3.517188E-07
ZONETYPE = ORDERED
DATAPACKING = BLOCK
STRANDID = 2
 1.0000000000000E-04  1.0277777777778E-04  1.0555555555556E-04  1.0833333333333E-04  1.1111111111111E-04  1.1388888888889E-04  1.1666666666667E-04  1.1944444444444E-04  1.2222222222222E-04  1.2500000000000E-04 
 6.2433350268971E-09  6.1391378545317E-09  6.1186675962923E-09  6.1154508234526E-09  6.1150653961529E-09  6.1154462145056E-09  6.1186582612009E-09  6.1391267453713E-09  6.2432821970399E-09  5.7839437877807E-09 
 8.4394679991734E-01  8.4394679998498E-01  8.4394679999773E-01  8.4394679999969E-01  8.4394679999997E-01  8.4394680000003E-01  8.4394680000031E-01  8.4394680000227E-01  8.4394680001502E-01  8.4394680008263E-01 
 7.8026600041331E-02  7.8026600007511E-02  7.8026600001136E-02  7.8026600000153E-02  7.8026600000017E-02  7.8026599999983E-02  7.8026599999847E-02  7.8026599998864E-02  7.8026599992492E-02  7.8026599958685E-02 