TITLE = "Solution on Domain BulkDomain1D_0"
VARIABLES = "x [m]"  
"Vel_axial(0)" 	"MF_sp(ECDMC)" 	"MF_sp(Li+)" 	"MF_sp(PF6-)" 	"Volt(Electroly)" 	"Volt(AnodeVolt)" 	
"Potential Drop Electrode-Electrolyte [V]" 	"Surf_0 Equilibrium Potential Drop Electrode-Electrolyte [V]" 	"Overpotential_0 [V]" 	"Current Source [A/m^2]" 	"Li+ flux [kmol/m^2/s]" 	"Electrolyte Current [A/m^2]" 	"Electrode Current [A/m^2]" 	
"Capacity discharged [A-s]" 	"Depth of discharge [-]" 	"Capacity remaining [A-s]" 	"Initial capacity [A-s]" 	"Porosity []" 	"Surface Area [m2/m2] (area per area)" 	"Specific current (per particle area) [A/m^2]" 	"Control volume thickness [m]" 	
"Moles Li_C6-bulk [mol/m^2] (per electrode area)" 	"Moles V_C6-bulk [mol/m^2] (per electrode area)" 	"qHeat_accum [J/m3]" 	"qHeat_step [W/m3]" 	"Joule_Lyte [W/m3]" 	"Joule_Solid [W/m3]" 	"electrodHeat [W/m3]" 	"OverpotHeat [W/m3]" 	"deltaSHeat [W/m3]" 	

ZONE T = "t = 0 [s]" I = 10 SOLUTIONTIME = 0.0000000000000E+00
0 	0 	0.843947 	0.0780266 	0.0780266 	-0.07 	0 	
0 	0 	0 	0 	0 	0 	-0.718561 	
0 	0 	0 	0 	0.3 	0.933333 	-1.53977 	5.55556e-06 	
6.79932e-05 	4.53288e-05 	0 	0.0 	 0.0 	 0.0 	 0.0 	 0.0 	 0.0 	 
1.11111e-05 	0 	0.843947 	0.0780266 	0.0780266 	-0.07 	0 	
0 	0 	0 	0 	0 	0 	-0 	
0 	0 	0 	0 	0.3 	1.86667 	-1.53977 	1.11111e-05 	
0.000135986 	9.06576e-05 	0 	0.0 	 0.0 	 0.0 	 0.0 	 0.0 	 0.0 	 
2.22222e-05 	0 	0.843947 	0.0780266 	0.0780266 	-0.07 	0 	
0 	0 	0 	0 	0 	0 	-0 	
0 	0 	0 	0 	0.3 	1.86667 	-1.53977 	1.11111e-05 	
0.000135986 	9.06576e-05 	0 	0.0 	 0.0 	 0.0 	 0.0 	 0.0 	 0.0 	 
3.33333e-05 	0 	0.843947 	0.0780266 	0.0780266 	-0.07 	0 	
0 	0 	0 	0 	0 	0 	-0 	
0 	0 	0 	0 	0.3 	1.86667 	-1.53977 	1.11111e-05 	
0.000135986 	9.06576e-05 	0 	0.0 	 0.0 	 0.0 	 0.0 	 0.0 	 0.0 	 
4.44444e-05 	0 	0.843947 	0.0780266 	0.0780266 	-0.07 	0 	
0 	0 	0 	0 	0 	0 	-0 	
0 	0 	0 	0 	0.3 	1.86667 	-1.53977 	1.11111e-05 	
0.000135986 	9.06576e-05 	0 	0.0 	 0.0 	 0.0 	 0.0 	 0.0 	 0.0 	 
5.55556e-05 	0 	0.843947 	0.0780266 	0.0780266 	-0.07 	0 	
0 	0 	0 	0 	0 	0 	-0 	
0 	0 	0 	0 	0.3 	1.86667 	-1.53977 	1.11111e-05 	
0.000135986 	9.06576e-05 	0 	0.0 	 0.0 	 0.0 	 0.0 	 0.0 	 0.0 	 
6.66667e-05 	0 	0.843947 	0.0780266 	0.0780266 	-0.07 	0 	
0 	0 	0 	0 	0 	0 	-0 	
0 	0 	0 	0 	0.3 	1.86667 	-1.53977 	1.11111e-05 	
0.000135986 	9.06576e-05 	0 	0.0 	 0.0 	 0.0 	 0.0 	 0.0 	 0.0 	 
7.77778e-05 	0 	0.843947 	0.0780266 	0.0780266 	-0.07 	0 	
0 	0 	0 	0 	0 	0 	-0 	
0 	0 	0 	0 	0.3 	1.86667 	-1.53977 	1.11111e-05 	
0.000135986 	9.06576e-05 	0 	0.0 	 0.0 	 0.0 	 0.0 	 0.0 	 0.0 	 
8.88889e-05 	0 	0.843947 	0.0780266 	0.0780266 	-0.07 	0 	
0 	0 	0 	0 	0 	0 	-0 	
0 	0 	0 	0 	0.3 	1.86667 	-1.53977 	1.11111e-05 	
0.000135986 	9.06576e-05 	0 	0.0 	 0.0 	 0.0 	 0.0 	 0.0 	 0.0 	 
0.0001 	0 	0.843947 	0.0780266 	0.0780266 	-0.07 	0 	
0 	0 	0 	0 	0 	-0.718561 	0 	
0 	0 	0 	0 	0.3 	0.933333 	-1.53977 	5.55556e-06 	
6.79932e-05 	4.53288e-05 	0 	0.0 	 0.0 	 0.0 	 0.0 	 0.0 	 0.0 	 
ZONE T = "t = 1e-08 [s]" I = 10 SOLUTIONTIME = 1.0000000000000E-08
0 	3.39881e-10 	0.843947 	0.0780266 	0.0780266 	-0.148428 	0 	
0.07 	0.113444 	-0.0434441 	-1.43712 	-0 	0.555762 	19.4442 	
0 	4373.57 	0.656035 	1.09339 	0.3 	0.933333 	1.19092 	5.55556e-06 	
6.79932e-05 	4.53288e-05 	0.00026682 	26682 	0.000100109 	6.09182 	26675.9 	26675.9 	0 	
1.11111e-05 	1.01954e-09 	0.843947 	0.0780266 	0.0780266 	-0.148428 	-3.5835e-06 	
0.07 	0.113444 	-0.0434441 	-2.87424 	-0 	2.22292 	17.7771 	
0 	8747.13 	1.31207 	2.18678 	0.3 	1.86667 	1.19078 	1.11111e-05 	
0.000135986 	9.06576e-05 	0.000266778 	26677.8 	0.000500476 	5.41711 	26672.4 	26672.4 	0 	
2.22222e-05 	1.69911e-09 	0.843947 	0.0780266 	0.0780266 	-0.148428 	-6.74529e-06 	
0.07 	0.113444 	-0.0434441 	-2.87424 	-0 	4.44559 	15.5544 	
0 	8747.13 	1.31207 	2.18678 	0.3 	1.86667 	1.19066 	1.11111e-05 	
0.000135986 	9.06576e-05 	0.000266332 	26633.2 	0.00170145 	4.15213 	26629.1 	26629.1 	0 	
3.33333e-05 	2.37858e-09 	0.843947 	0.0780266 	0.0780266 	-0.148428 	-9.48543e-06 	
0.07 	0.113444 	-0.0434441 	-2.87424 	-0 	6.66805 	13.332 	
0 	8747.13 	1.31207 	2.18678 	0.3 	1.86667 	1.19055 	1.11111e-05 	
0.000135986 	9.06576e-05 	0.000266466 	26646.6 	0.00370279 	3.05595 	26643.5 	26643.5 	0 	
4.44444e-05 	3.05811e-09 	0.843947 	0.0780266 	0.0780266 	-0.148428 	-1.18039e-05 	
0.07 	0.113444 	-0.0434441 	-2.87424 	-0 	8.89032 	11.1097 	
0 	8747.13 	1.31207 	2.18678 	0.3 	1.86667 	1.19046 	1.11111e-05 	
0.000135986 	9.06576e-05 	0.000266507 	26650.7 	0.00650432 	2.12852 	26648.6 	26648.6 	0 	
5.55556e-05 	3.73754e-09 	0.843947 	0.0780266 	0.0780266 	-0.148428 	-1.37009e-05 	
0.07 	0.113444 	-0.0434441 	-2.87424 	-0 	11.1124 	8.88756 	
0 	8747.13 	1.31207 	2.18678 	0.3 	1.86667 	1.19038 	1.11111e-05 	
0.000135986 	9.06576e-05 	0.000266705 	26670.5 	0.0101059 	1.36979 	26669.2 	26669.2 	0 	
6.66667e-05 	4.41694e-09 	0.843947 	0.0780266 	0.0780266 	-0.148428 	-1.51762e-05 	
0.07 	0.113444 	-0.0434441 	-2.87424 	-0 	13.3344 	6.66556 	
0 	8747.13 	1.31207 	2.18678 	0.3 	1.86667 	1.19033 	1.11111e-05 	
0.000135986 	9.06576e-05 	0.000266275 	26627.5 	0.0145074 	0.779699 	26626.8 	26626.8 	0 	
7.77778e-05 	5.09622e-09 	0.843947 	0.0780266 	0.0780266 	-0.148428 	-1.623e-05 	
0.07 	0.113444 	-0.0434441 	-2.87424 	-0 	15.5563 	4.44366 	
0 	8747.13 	1.31207 	2.18678 	0.3 	1.86667 	1.19029 	1.11111e-05 	
0.000135986 	9.06576e-05 	0.000266478 	26647.8 	0.0197088 	0.358232 	26647.4 	26647.4 	0 	
8.88889e-05 	5.77584e-09 	0.843947 	0.0780266 	0.0780266 	-0.148428 	-1.68623e-05 	
0.07 	0.113444 	-0.0434441 	-2.87424 	-0 	17.7782 	2.22181 	
0 	8747.13 	1.31207 	2.18678 	0.3 	1.86667 	1.19026 	1.11111e-05 	
0.000135986 	9.06576e-05 	0.000266267 	26626.7 	0.0257101 	0.105361 	26626.5 	26626.5 	0 	
0.0001 	6.12175e-09 	0.843947 	0.0780266 	0.0780266 	-0.148428 	-1.70731e-05 	
0.07 	0.113444 	-0.0434441 	-1.43712 	-0 	19.4445 	0.555452 	
0 	4373.57 	0.656035 	1.09339 	0.3 	0.933333 	1.19025 	5.55556e-06 	
6.79932e-05 	4.53288e-05 	0.000266399 	26639.9 	0.0289107 	0.021072 	26639.9 	26639.9 	0 	
ZONE T = "t = 2e-08 [s]" I = 10 SOLUTIONTIME = 2.0000000000000E-08
0 	3.3988e-10 	0.843947 	0.0780266 	0.0780266 	-0.148428 	0 	
0.148428 	0.113444 	0.034984 	1.11152 	5.76007e-09 	0.555762 	19.4442 	
1.11152e-12 	4373.57 	0.656035 	1.09339 	0.3 	0.933333 	1.19092 	5.55556e-06 	
6.79932e-05 	4.53288e-05 	0.000533311 	26649.1 	0.000200219 	12.1836 	26643 	26643 	0 	
1.11111e-05 	1.01954e-09 	0.843947 	0.0780266 	0.0780266 	-0.148428 	-3.5835e-06 	
0.148424 	0.113444 	0.0349804 	2.22279 	1.72789e-08 	2.22292 	17.7771 	
2.22279e-12 	8747.13 	1.31207 	2.18678 	0.3 	1.86667 	1.19078 	1.11111e-05 	
0.000135986 	9.06576e-05 	0.000533341 	26656.3 	0.00100095 	10.8342 	26650.9 	26650.9 	0 	
2.22222e-05 	1.69906e-09 	0.843947 	0.0780266 	0.0780266 	-0.148428 	-6.74529e-06 	
0.148421 	0.113444 	0.0349772 	2.22256 	2.87964e-08 	4.44559 	15.5544 	
2.22256e-12 	8747.13 	1.31207 	2.18678 	0.3 	1.86667 	1.19066 	1.11111e-05 	
0.000135986 	9.06576e-05 	0.000532887 	26655.5 	0.0034029 	8.30426 	26651.3 	26651.3 	0 	
3.33333e-05 	2.37868e-09 	0.843947 	0.0780266 	0.0780266 	-0.148428 	-9.48543e-06 	
0.148419 	0.113444 	0.0349745 	2.22236 	4.0313e-08 	6.66805 	13.332 	
2.22236e-12 	8747.13 	1.31207 	2.18678 	0.3 	1.86667 	1.19055 	1.11111e-05 	
0.000135986 	9.06576e-05 	0.000533133 	26666.8 	0.00740559 	6.11191 	26663.7 	26663.7 	0 	
4.44444e-05 	3.05806e-09 	0.843947 	0.0780266 	0.0780266 	-0.148428 	-1.18039e-05 	
0.148416 	0.113444 	0.0349722 	2.22219 	5.18287e-08 	8.89032 	11.1097 	
2.22219e-12 	8747.13 	1.31207 	2.18678 	0.3 	1.86667 	1.19046 	1.11111e-05 	
0.000135986 	9.06576e-05 	0.000533324 	26681.7 	0.0130086 	4.25705 	26679.6 	26679.6 	0 	
5.55556e-05 	3.73744e-09 	0.843947 	0.0780266 	0.0780266 	-0.148428 	-1.37009e-05 	
0.148414 	0.113444 	0.0349703 	2.22205 	6.33436e-08 	11.1124 	8.88756 	
2.22205e-12 	8747.13 	1.31207 	2.18678 	0.3 	1.86667 	1.19038 	1.11111e-05 	
0.000135986 	9.06576e-05 	0.000533039 	26633.4 	0.0202118 	2.73957 	26632 	26632 	0 	
6.66667e-05 	4.41678e-09 	0.843947 	0.0780266 	0.0780266 	-0.148428 	-1.51762e-05 	
0.148413 	0.113444 	0.0349688 	2.22194 	7.4858e-08 	13.3344 	6.66556 	
2.22194e-12 	8747.13 	1.31207 	2.18678 	0.3 	1.86667 	1.19033 	1.11111e-05 	
0.000135986 	9.06576e-05 	0.000532607 	26633.2 	0.0290148 	1.5594 	26632.4 	26632.4 	0 	
7.77778e-05 	5.09611e-09 	0.843947 	0.0780266 	0.0780266 	-0.148428 	-1.623e-05 	
0.148412 	0.113444 	0.0349678 	2.22187 	8.63721e-08 	15.5563 	4.44366 	
2.22187e-12 	8747.13 	1.31207 	2.18678 	0.3 	1.86667 	1.19029 	1.11111e-05 	
0.000135986 	9.06576e-05 	0.000532834 	26635.6 	0.0394176 	0.716464 	26635.2 	26635.2 	0 	
8.88889e-05 	5.77584e-09 	0.843947 	0.0780266 	0.0780266 	-0.148428 	-1.68623e-05 	
0.148411 	0.113444 	0.0349672 	2.22182 	9.78878e-08 	17.7782 	2.22181 	
2.22182e-12 	8747.13 	1.31207 	2.18678 	0.3 	1.86667 	1.19026 	1.11111e-05 	
0.000135986 	9.06576e-05 	0.000532619 	26635.3 	0.0514202 	0.210722 	26635.1 	26635.1 	0 	
0.0001 	6.12775e-09 	0.843947 	0.0780266 	0.0780266 	-0.148428 	-1.70731e-05 	
0.148411 	0.113444 	0.034967 	1.1109 	9.78878e-08 	19.4445 	0.555452 	
1.1109e-12 	4373.57 	0.656035 	1.09339 	0.3 	0.933333 	1.19025 	5.55556e-06 	
6.79932e-05 	4.53288e-05 	0.000532742 	26634.3 	0.0578214 	0.042144 	26634.2 	26634.2 	0 	
ZONE T = "t = 3e-08 [s]" I = 10 SOLUTIONTIME = 3.0000000000000E-08
0 	3.39827e-10 	0.843947 	0.0780266 	0.0780266 	-0.148428 	0 	
0.148428 	0.113444 	0.034984 	1.11152 	5.76007e-09 	0.555762 	19.4442 	
2.22305e-12 	4373.57 	0.656035 	1.09339 	0.3 	0.933333 	1.19092 	5.55556e-06 	
6.79932e-05 	4.53288e-05 	0.000799944 	26663.3 	0.000300328 	18.2754 	26657.2 	26657.2 	0 	
1.11111e-05 	1.01932e-09 	0.843947 	0.0780266 	0.0780266 	-0.148428 	-3.5835e-06 	
0.148424 	0.113444 	0.0349804 	2.22279 	1.72789e-08 	2.22292 	17.7771 	
4.44558e-12 	8747.13 	1.31207 	2.18678 	0.3 	1.86667 	1.19078 	1.11111e-05 	
0.000135986 	9.06576e-05 	0.000800048 	26670.7 	0.00150143 	16.2513 	26665.3 	26665.3 	0 	
2.22222e-05 	1.69895e-09 	0.843947 	0.0780266 	0.0780266 	-0.148428 	-6.74529e-06 	
0.148421 	0.113444 	0.0349772 	2.22256 	2.87964e-08 	4.44559 	15.5544 	
4.44511e-12 	8747.13 	1.31207 	2.18678 	0.3 	1.86667 	1.19066 	1.11111e-05 	
0.000135986 	9.06576e-05 	0.000799354 	26646.7 	0.00510434 	12.4564 	26642.6 	26642.6 	0 	
3.33333e-05 	2.37836e-09 	0.843947 	0.0780266 	0.0780266 	-0.148428 	-9.48543e-06 	
0.148419 	0.113444 	0.0349745 	2.22236 	4.0313e-08 	6.66805 	13.332 	
4.44471e-12 	8747.13 	1.31207 	2.18678 	0.3 	1.86667 	1.19055 	1.11111e-05 	
0.000135986 	9.06576e-05 	0.000799501 	26636.8 	0.0111084 	9.16786 	26633.7 	26633.7 	0 	
4.44444e-05 	3.05784e-09 	0.843947 	0.0780266 	0.0780266 	-0.148428 	-1.18039e-05 	
0.148416 	0.113444 	0.0349722 	2.22219 	5.18287e-08 	8.89032 	11.1097 	
4.44438e-12 	8747.13 	1.31207 	2.18678 	0.3 	1.86667 	1.19046 	1.11111e-05 	
0.000135986 	9.06576e-05 	0.000799557 	26623.3 	0.019513 	6.38557 	26621.2 	26621.2 	0 	
5.55556e-05 	3.73732e-09 	0.843947 	0.0780266 	0.0780266 	-0.148428 	-1.37009e-05 	
0.148414 	0.113444 	0.0349703 	2.22205 	6.33436e-08 	11.1124 	8.88756 	
4.4441e-12 	8747.13 	1.31207 	2.18678 	0.3 	1.86667 	1.19038 	1.11111e-05 	
0.000135986 	9.06576e-05 	0.000799556 	26651.6 	0.0303177 	4.10936 	26650.3 	26650.3 	0 	
6.66667e-05 	4.41661e-09 	0.843947 	0.0780266 	0.0780266 	-0.148428 	-1.51762e-05 	
0.148413 	0.113444 	0.0349688 	2.22194 	7.4858e-08 	13.3344 	6.66556 	
4.44389e-12 	8747.13 	1.31207 	2.18678 	0.3 	1.86667 	1.19033 	1.11111e-05 	
0.000135986 	9.06576e-05 	0.000799126 	26651.9 	0.0435222 	2.3391 	26651.1 	26651.1 	0 	
7.77778e-05 	5.09594e-09 	0.843947 	0.0780266 	0.0780266 	-0.148428 	-1.623e-05 	
0.148412 	0.113444 	0.0349678 	2.22187 	8.63721e-08 	15.5563 	4.44366 	
4.44373e-12 	8747.13 	1.31207 	2.18678 	0.3 	1.86667 	1.19029 	1.11111e-05 	
0.000135986 	9.06576e-05 	0.000799129 	26629.5 	0.0591264 	1.0747 	26629.2 	26629.2 	0 	
8.88889e-05 	5.77598e-09 	0.843947 	0.0780266 	0.0780266 	-0.148428 	-1.68623e-05 	
0.148411 	0.113444 	0.0349672 	2.22182 	9.78898e-08 	17.7782 	2.22181 	
4.44364e-12 	8747.13 	1.31207 	2.18678 	0.3 	1.86667 	1.19026 	1.11111e-05 	
0.000135986 	9.06576e-05 	0.000798924 	26630.4 	0.0771303 	0.316083 	26630.3 	26630.3 	0 	
0.0001 	6.13384e-09 	0.843947 	0.0780266 	0.0780266 	-0.148428 	-1.70731e-05 	
0.148411 	0.113444 	0.034967 	1.1109 	9.78898e-08 	19.4445 	0.555452 	
2.22181e-12 	4373.57 	0.656035 	1.09339 	0.3 	0.933333 	1.19025 	5.55556e-06 	
6.79932e-05 	4.53288e-05 	0.000799114 	26637.3 	0.0867321 	0.063216 	26637.2 	26637.2 	0 	
ZONE T = "t = 4e-08 [s]" I = 10 SOLUTIONTIME = 4.0000000000000E-08
0 	3.39801e-10 	0.843947 	0.0780266 	0.0780266 	-0.148428 	0 	
0.148428 	0.113444 	0.034984 	1.11152 	5.76007e-09 	0.555762 	19.4442 	
3.33457e-12 	4373.57 	0.656035 	1.09339 	0.3 	0.933333 	1.19092 	5.55556e-06 	
6.79932e-05 	4.53288e-05 	0.00106673 	26678.3 	0.000400437 	24.3673 	26672.2 	26672.2 	0 	
1.11111e-05 	1.01956e-09 	0.843947 	0.0780266 	0.0780266 	-0.148428 	-3.5835e-06 	
0.148424 	0.113444 	0.0349804 	2.22279 	1.72789e-08 	2.22292 	17.7771 	
6.66836e-12 	8747.13 	1.31207 	2.18678 	0.3 	1.86667 	1.19078 	1.11111e-05 	
0.000135986 	9.06576e-05 	0.00106674 	26669.3 	0.0020019 	21.6685 	26663.9 	26663.9 	0 	
2.22222e-05 	1.69908e-09 	0.843947 	0.0780266 	0.0780266 	-0.148428 	-6.74529e-06 	
0.148421 	0.113444 	0.0349772 	2.22256 	2.87964e-08 	4.44559 	15.5544 	
6.66767e-12 	8747.13 	1.31207 	2.18678 	0.3 	1.86667 	1.19066 	1.11111e-05 	
0.000135986 	9.06576e-05 	0.00106613 	26677.6 	0.00680579 	16.6085 	26673.5 	26673.5 	0 	
3.33333e-05 	2.3786e-09 	0.843947 	0.0780266 	0.0780266 	-0.148428 	-9.48543e-06 	
0.148419 	0.113444 	0.0349745 	2.22236 	4.0313e-08 	6.66805 	13.332 	
6.66707e-12 	8747.13 	1.31207 	2.18678 	0.3 	1.86667 	1.19055 	1.11111e-05 	
0.000135986 	9.06576e-05 	0.00106608 	26658.2 	0.0148112 	12.2238 	26655.1 	26655.1 	0 	
4.44444e-05 	3.05792e-09 	0.843947 	0.0780266 	0.0780266 	-0.148428 	-1.18039e-05 	
0.148416 	0.113444 	0.0349722 	2.22219 	5.18287e-08 	8.89032 	11.1097 	
6.66656e-12 	8747.13 	1.31207 	2.18678 	0.3 	1.86667 	1.19046 	1.11111e-05 	
0.000135986 	9.06576e-05 	0.00106634 	26678.7 	0.0260173 	8.51409 	26676.6 	26676.6 	0 	
5.55556e-05 	3.7373e-09 	0.843947 	0.0780266 	0.0780266 	-0.148428 	-1.37009e-05 	
0.148414 	0.113444 	0.0349703 	2.22205 	6.33436e-08 	11.1124 	8.88756 	
6.66615e-12 	8747.13 	1.31207 	2.18678 	0.3 	1.86667 	1.19038 	1.11111e-05 	
0.000135986 	9.06576e-05 	0.0010661 	26654.1 	0.0404236 	5.47914 	26652.8 	26652.8 	0 	
6.66667e-05 	4.41665e-09 	0.843947 	0.0780266 	0.0780266 	-0.148428 	-1.51762e-05 	
0.148413 	0.113444 	0.0349688 	2.22194 	7.4858e-08 	13.3344 	6.66556 	
6.66583e-12 	8747.13 	1.31207 	2.18678 	0.3 	1.86667 	1.19033 	1.11111e-05 	
0.000135986 	9.06576e-05 	0.00106544 	26631.5 	0.0580296 	3.1188 	26630.7 	26630.7 	0 	
7.77778e-05 	5.09603e-09 	0.843947 	0.0780266 	0.0780266 	-0.148428 	-1.623e-05 	
0.148412 	0.113444 	0.0349678 	2.22187 	8.63721e-08 	15.5563 	4.44366 	
6.6656e-12 	8747.13 	1.31207 	2.18678 	0.3 	1.86667 	1.19029 	1.11111e-05 	
0.000135986 	9.06576e-05 	0.00106555 	26641.9 	0.0788353 	1.43293 	26641.5 	26641.5 	0 	
8.88889e-05 	5.77618e-09 	0.843947 	0.0780266 	0.0780266 	-0.148428 	-1.68623e-05 	
0.148411 	0.113444 	0.0349672 	2.22182 	9.78919e-08 	17.7782 	2.22181 	
6.66547e-12 	8747.13 	1.31207 	2.18678 	0.3 	1.86667 	1.19026 	1.11111e-05 	
0.000135986 	9.06576e-05 	0.00106548 	26656 	0.10284 	0.421443 	26655.9 	26655.9 	0 	
0.0001 	6.13961e-09 	0.843947 	0.0780266 	0.0780266 	-0.148428 	-1.70731e-05 	
0.148411 	0.113444 	0.034967 	1.1109 	9.78919e-08 	19.4445 	0.555452 	
3.33271e-12 	4373.57 	0.656035 	1.09339 	0.3 	0.933333 	1.19025 	5.55556e-06 	
6.79932e-05 	4.53288e-05 	0.00106593 	26681.9 	0.115643 	0.084288 	26681.9 	26681.9 	0 	
ZONE T = "t = 5.5e-08 [s]" I = 10 SOLUTIONTIME = 5.5000000000000E-08
0 	3.39854e-10 	0.843947 	0.0780266 	0.0780266 	-0.148428 	0 	
0.148428 	0.113444 	0.034984 	1.11152 	5.76007e-09 	0.555762 	19.4442 	
4.4461e-12 	4373.57 	0.656035 	1.09339 	0.3 	0.933333 	1.19092 	5.55556e-06 	
6.79932e-05 	4.53288e-05 	0.00146709 	26691 	0.000367068 	22.3367 	26684.9 	26684.9 	0 	
1.11111e-05 	1.01942e-09 	0.843947 	0.0780266 	0.0780266 	-0.148428 	-3.5835e-06 	
0.148424 	0.113444 	0.0349804 	2.22279 	1.72789e-08 	2.22292 	17.7771 	
8.89115e-12 	8747.13 	1.31207 	2.18678 	0.3 	1.86667 	1.19078 	1.11111e-05 	
0.000135986 	9.06576e-05 	0.00146628 	26636 	0.00183508 	19.8628 	26630.6 	26630.6 	0 	
2.22222e-05 	1.69894e-09 	0.843947 	0.0780266 	0.0780266 	-0.148428 	-6.74529e-06 	
0.148421 	0.113444 	0.0349772 	2.22256 	2.87964e-08 	4.44559 	15.5544 	
8.89023e-12 	8747.13 	1.31207 	2.18678 	0.3 	1.86667 	1.19066 	1.11111e-05 	
0.000135986 	9.06576e-05 	0.00146615 	26668 	0.00623864 	15.2245 	26663.8 	26663.8 	0 	
3.33333e-05 	2.3784e-09 	0.843947 	0.0780266 	0.0780266 	-0.148428 	-9.48543e-06 	
0.148419 	0.113444 	0.0349745 	2.22236 	4.0313e-08 	6.66805 	13.332 	
8.88943e-12 	8747.13 	1.31207 	2.18678 	0.3 	1.86667 	1.19055 	1.11111e-05 	
0.000135986 	9.06576e-05 	0.00146592 	26656.1 	0.0135769 	11.2052 	26653 	26653 	0 	
4.44444e-05 	3.05784e-09 	0.843947 	0.0780266 	0.0780266 	-0.148428 	-1.18039e-05 	
0.148416 	0.113444 	0.0349722 	2.22219 	5.18287e-08 	8.89032 	11.1097 	
8.88875e-12 	8747.13 	1.31207 	2.18678 	0.3 	1.86667 	1.19046 	1.11111e-05 	
0.000135986 	9.06576e-05 	0.00146615 	26653.8 	0.0238492 	7.80459 	26651.7 	26651.7 	0 	
5.55556e-05 	3.73723e-09 	0.843947 	0.0780266 	0.0780266 	-0.148428 	-1.37009e-05 	
0.148414 	0.113444 	0.0349703 	2.22205 	6.33436e-08 	11.1124 	8.88756 	
8.8882e-12 	8747.13 	1.31207 	2.18678 	0.3 	1.86667 	1.19038 	1.11111e-05 	
0.000135986 	9.06576e-05 	0.00146584 	26649.8 	0.037055 	5.02255 	26648.4 	26648.4 	0 	
6.66667e-05 	4.41657e-09 	0.843947 	0.0780266 	0.0780266 	-0.148428 	-1.51762e-05 	
0.148413 	0.113444 	0.0349688 	2.22194 	7.4858e-08 	13.3344 	6.66556 	
8.88777e-12 	8747.13 	1.31207 	2.18678 	0.3 	1.86667 	1.19033 	1.11111e-05 	
0.000135986 	9.06576e-05 	0.00146529 	26656.7 	0.0531938 	2.8589 	26655.9 	26655.9 	0 	
7.77778e-05 	5.09588e-09 	0.843947 	0.0780266 	0.0780266 	-0.148428 	-1.623e-05 	
0.148412 	0.113444 	0.0349678 	2.22187 	8.63721e-08 	15.5563 	4.44366 	
8.88747e-12 	8747.13 	1.31207 	2.18678 	0.3 	1.86667 	1.19029 	1.11111e-05 	
0.000135986 	9.06576e-05 	0.00146547 	26661.6 	0.0722656 	1.31352 	26661.2 	26661.2 	0 	
8.88889e-05 	5.77654e-09 	0.843947 	0.0780266 	0.0780266 	-0.148428 	-1.68623e-05 	
0.148411 	0.113444 	0.0349672 	2.22182 	9.78939e-08 	17.7782 	2.22181 	
8.88729e-12 	8747.13 	1.31207 	2.18678 	0.3 	1.86667 	1.19026 	1.11111e-05 	
0.000135986 	9.06576e-05 	0.00146509 	26640.3 	0.0942703 	0.386323 	26640.2 	26640.2 	0 	
0.0001 	6.14848e-09 	0.843947 	0.0780266 	0.0780266 	-0.148428 	-1.70731e-05 	
0.148411 	0.113444 	0.034967 	1.1109 	9.78939e-08 	19.4445 	0.555452 	
4.44362e-12 	4373.57 	0.656035 	1.09339 	0.3 	0.933333 	1.19025 	5.55556e-06 	
6.79932e-05 	4.53288e-05 	0.00146541 	26631.6 	0.106006 	0.077264 	26631.5 	26631.5 	0 	
ZONE T = "t = 7.75e-08 [s]" I = 10 SOLUTIONTIME = 7.7500000000000E-08
0 	3.39848e-10 	0.843947 	0.0780266 	0.0780266 	-0.148428 	0 	
0.148428 	0.113444 	0.034984 	1.11152 	5.76007e-09 	0.555762 	19.4442 	
6.11339e-12 	4373.57 	0.656035 	1.09339 	0.3 	0.933333 	1.19092 	5.55556e-06 	
6.79932e-05 	4.53288e-05 	0.00206711 	26667.4 	0.000344821 	20.9829 	26661.4 	26661.4 	0 	
1.11111e-05 	1.01947e-09 	0.843947 	0.0780266 	0.0780266 	-0.148428 	-3.5835e-06 	
0.148424 	0.113444 	0.0349804 	2.22279 	1.72789e-08 	2.22292 	17.7771 	
1.22253e-11 	8747.13 	1.31207 	2.18678 	0.3 	1.86667 	1.19078 	1.11111e-05 	
0.000135986 	9.06576e-05 	0.00206602 	26655.2 	0.00172386 	18.659 	26649.8 	26649.8 	0 	
2.22222e-05 	1.69898e-09 	0.843947 	0.0780266 	0.0780266 	-0.148428 	-6.74529e-06 	
0.148421 	0.113444 	0.0349772 	2.22256 	2.87964e-08 	4.44559 	15.5544 	
1.22241e-11 	8747.13 	1.31207 	2.18678 	0.3 	1.86667 	1.19066 	1.11111e-05 	
0.000135986 	9.06576e-05 	0.00206585 	26653.5 	0.00586054 	14.3018 	26649.4 	26649.4 	0 	
3.33333e-05 	2.37847e-09 	0.843947 	0.0780266 	0.0780266 	-0.148428 	-9.48543e-06 	
0.148419 	0.113444 	0.0349745 	2.22236 	4.0313e-08 	6.66805 	13.332 	
1.2223e-11 	8747.13 	1.31207 	2.18678 	0.3 	1.86667 	1.19055 	1.11111e-05 	
0.000135986 	9.06576e-05 	0.00206588 	26664.5 	0.0127541 	10.5261 	26661.5 	26661.5 	0 	
4.44444e-05 	3.05789e-09 	0.843947 	0.0780266 	0.0780266 	-0.148428 	-1.18039e-05 	
0.148416 	0.113444 	0.0349722 	2.22219 	5.18287e-08 	8.89032 	11.1097 	
1.2222e-11 	8747.13 	1.31207 	2.18678 	0.3 	1.86667 	1.19046 	1.11111e-05 	
0.000135986 	9.06576e-05 	0.00206579 	26650.8 	0.0224038 	7.33158 	26648.6 	26648.6 	0 	
5.55556e-05 	3.73725e-09 	0.843947 	0.0780266 	0.0780266 	-0.148428 	-1.37009e-05 	
0.148414 	0.113444 	0.0349703 	2.22205 	6.33436e-08 	11.1124 	8.88756 	
1.22213e-11 	8747.13 	1.31207 	2.18678 	0.3 	1.86667 	1.19038 	1.11111e-05 	
0.000135986 	9.06576e-05 	0.00206548 	26650.6 	0.0348092 	4.71815 	26649.3 	26649.3 	0 	
6.66667e-05 	4.41662e-09 	0.843947 	0.0780266 	0.0780266 	-0.148428 	-1.51762e-05 	
0.148413 	0.113444 	0.0349688 	2.22194 	7.4858e-08 	13.3344 	6.66556 	
1.22207e-11 	8747.13 	1.31207 	2.18678 	0.3 	1.86667 	1.19033 	1.11111e-05 	
0.000135986 	9.06576e-05 	0.00206483 	26646.1 	0.04997 	2.68563 	26645.3 	26645.3 	0 	
7.77778e-05 	5.0959e-09 	0.843947 	0.0780266 	0.0780266 	-0.148428 	-1.623e-05 	
0.148412 	0.113444 	0.0349678 	2.22187 	8.63721e-08 	15.5563 	4.44366 	
1.22203e-11 	8747.13 	1.31207 	2.18678 	0.3 	1.86667 	1.19029 	1.11111e-05 	
0.000135986 	9.06576e-05 	0.00206526 	26657.3 	0.0678859 	1.23391 	26656.9 	26656.9 	0 	
8.88889e-05 	5.77704e-09 	0.843947 	0.0780266 	0.0780266 	-0.148428 	-1.68623e-05 	
0.148411 	0.113444 	0.0349672 	2.22182 	9.78971e-08 	17.7782 	2.22181 	
1.222e-11 	8747.13 	1.31207 	2.18678 	0.3 	1.86667 	1.19026 	1.11111e-05 	
0.000135986 	9.06576e-05 	0.0020648 	26654 	0.088557 	0.36291 	26653.9 	26653.9 	0 	
0.0001 	6.16073e-09 	0.843947 	0.0780266 	0.0780266 	-0.148428 	-1.70731e-05 	
0.148411 	0.113444 	0.034967 	1.1109 	9.78971e-08 	19.4445 	0.555452 	
6.10997e-12 	4373.57 	0.656035 	1.09339 	0.3 	0.933333 	1.19025 	5.55556e-06 	
6.79932e-05 	4.53288e-05 	0.00206503 	26649.9 	0.0995813 	0.0725814 	26649.8 	26649.8 	0 	
ZONE T = "t = 1.1125e-07 [s]" I = 10 SOLUTIONTIME = 1.1125000000000E-07
0 	3.39852e-10 	0.843947 	0.0780266 	0.0780266 	-0.148428 	0 	
0.148428 	0.113444 	0.034984 	1.11152 	5.76007e-09 	0.555762 	19.4442 	
8.61432e-12 	4373.57 	0.656035 	1.09339 	0.3 	0.933333 	1.19092 	5.55556e-06 	
6.79932e-05 	4.53288e-05 	0.00296736 	26674 	0.00032999 	20.0804 	26667.9 	26667.9 	0 	
1.11111e-05 	1.01944e-09 	0.843947 	0.0780266 	0.0780266 	-0.148428 	-3.5835e-06 	
0.148424 	0.113444 	0.0349804 	2.22279 	1.72789e-08 	2.22292 	17.7771 	
1.72266e-11 	8747.13 	1.31207 	2.18678 	0.3 	1.86667 	1.19078 	1.11111e-05 	
0.000135986 	9.06576e-05 	0.00296584 	26661.4 	0.00164972 	17.8564 	26656 	26656 	0 	
2.22222e-05 	1.69901e-09 	0.843947 	0.0780266 	0.0780266 	-0.148428 	-6.74529e-06 	
0.148421 	0.113444 	0.0349772 	2.22256 	2.87964e-08 	4.44559 	15.5544 	
1.72248e-11 	8747.13 	1.31207 	2.18678 	0.3 	1.86667 	1.19066 	1.11111e-05 	
0.000135986 	9.06576e-05 	0.00296547 	26655.3 	0.00560848 	13.6867 	26651.1 	26651.1 	0 	
3.33333e-05 	2.37845e-09 	0.843947 	0.0780266 	0.0780266 	-0.148428 	-9.48543e-06 	
0.148419 	0.113444 	0.0349745 	2.22236 	4.0313e-08 	6.66805 	13.332 	
1.72233e-11 	8747.13 	1.31207 	2.18678 	0.3 	1.86667 	1.19055 	1.11111e-05 	
0.000135986 	9.06576e-05 	0.00296547 	26654.5 	0.0122055 	10.0733 	26651.5 	26651.5 	0 	
4.44444e-05 	3.05786e-09 	0.843947 	0.0780266 	0.0780266 	-0.148428 	-1.18039e-05 	
0.148416 	0.113444 	0.0349722 	2.22219 	5.18287e-08 	8.89032 	11.1097 	
1.7222e-11 	8747.13 	1.31207 	2.18678 	0.3 	1.86667 	1.19046 	1.11111e-05 	
0.000135986 	9.06576e-05 	0.00296518 	26648.4 	0.0214402 	7.01624 	26646.3 	26646.3 	0 	
5.55556e-05 	3.73726e-09 	0.843947 	0.0780266 	0.0780266 	-0.148428 	-1.37009e-05 	
0.148414 	0.113444 	0.0349703 	2.22205 	6.33436e-08 	11.1124 	8.88756 	
1.72209e-11 	8747.13 	1.31207 	2.18678 	0.3 	1.86667 	1.19038 	1.11111e-05 	
0.000135986 	9.06576e-05 	0.00296503 	26653.1 	0.033312 	4.51522 	26651.8 	26651.8 	0 	
6.66667e-05 	4.41665e-09 	0.843947 	0.0780266 	0.0780266 	-0.148428 	-1.51762e-05 	
0.148413 	0.113444 	0.0349688 	2.22194 	7.4858e-08 	13.3344 	6.66556 	
1.72201e-11 	8747.13 	1.31207 	2.18678 	0.3 	1.86667 	1.19033 	1.11111e-05 	
0.000135986 	9.06576e-05 	0.00296433 	26651.8 	0.0478207 	2.57012 	26651 	26651 	0 	
7.77778e-05 	5.09601e-09 	0.843947 	0.0780266 	0.0780266 	-0.148428 	-1.623e-05 	
0.148412 	0.113444 	0.0349678 	2.22187 	8.63721e-08 	15.5563 	4.44366 	
1.72195e-11 	8747.13 	1.31207 	2.18678 	0.3 	1.86667 	1.19029 	1.11111e-05 	
0.000135986 	9.06576e-05 	0.00296493 	26656.9 	0.0649661 	1.18084 	26656.6 	26656.6 	0 	
8.88889e-05 	5.77799e-09 	0.843947 	0.0780266 	0.0780266 	-0.148428 	-1.68623e-05 	
0.148411 	0.113444 	0.0349672 	2.22182 	9.79019e-08 	17.7782 	2.22181 	
1.72191e-11 	8747.13 	1.31207 	2.18678 	0.3 	1.86667 	1.19026 	1.11111e-05 	
0.000135986 	9.06576e-05 	0.00296369 	26633.6 	0.0847481 	0.347301 	26633.5 	26633.5 	0 	
0.0001 	6.1781e-09 	0.843947 	0.0780266 	0.0780266 	-0.148428 	-1.70731e-05 	
0.148411 	0.113444 	0.034967 	1.1109 	9.79019e-08 	19.4445 	0.555452 	
8.60951e-12 	4373.57 	0.656035 	1.09339 	0.3 	0.933333 	1.19025 	5.55556e-06 	
6.79932e-05 	4.53288e-05 	0.00296442 	26648.5 	0.0952983 	0.0694596 	26648.5 	26648.5 	0 	
ZONE T = "t = 1.61875e-07 [s]" I = 10 SOLUTIONTIME = 1.6187500000000E-07
0 	3.39841e-10 	0.843947 	0.0780266 	0.0780266 	-0.148428 	0 	
0.148428 	0.113444 	0.034984 	1.11152 	5.76008e-09 	0.555762 	19.4442 	
1.23657e-11 	4373.57 	0.656035 	1.09339 	0.3 	0.933333 	1.19092 	5.55556e-06 	
6.79932e-05 	4.53288e-05 	0.00431739 	26667.2 	0.000320103 	19.4788 	26661.1 	26661.1 	0 	
1.11111e-05 	1.01945e-09 	0.843947 	0.0780266 	0.0780266 	-0.148428 	-3.5835e-06 	
0.148424 	0.113444 	0.0349804 	2.22279 	1.72789e-08 	2.22292 	17.7771 	
2.47285e-11 	8747.13 	1.31207 	2.18678 	0.3 	1.86667 	1.19078 	1.11111e-05 	
0.000135986 	9.06576e-05 	0.00431566 	26663 	0.00160029 	17.3214 	26657.6 	26657.6 	0 	
2.22222e-05 	1.699e-09 	0.843947 	0.0780266 	0.0780266 	-0.148428 	-6.74529e-06 	
0.148421 	0.113444 	0.0349772 	2.22256 	2.87964e-08 	4.44559 	15.5544 	
2.47259e-11 	8747.13 	1.31207 	2.18678 	0.3 	1.86667 	1.19066 	1.11111e-05 	
0.000135986 	9.06576e-05 	0.00431507 	26658.8 	0.00544043 	13.2766 	26654.6 	26654.6 	0 	
3.33333e-05 	2.37847e-09 	0.843947 	0.0780266 	0.0780266 	-0.148428 	-9.48543e-06 	
0.148419 	0.113444 	0.0349745 	2.22236 	4.0313e-08 	6.66805 	13.332 	
2.47237e-11 	8747.13 	1.31207 	2.18678 	0.3 	1.86667 	1.19055 	1.11111e-05 	
0.000135986 	9.06576e-05 	0.0043149 	26655.5 	0.0118398 	9.77151 	26652.5 	26652.5 	0 	
4.44444e-05 	3.0579e-09 	0.843947 	0.0780266 	0.0780266 	-0.148428 	-1.18039e-05 	
0.148416 	0.113444 	0.0349722 	2.22219 	5.18287e-08 	8.89032 	11.1097 	
2.47218e-11 	8747.13 	1.31207 	2.18678 	0.3 	1.86667 	1.19046 	1.11111e-05 	
0.000135986 	9.06576e-05 	0.00431444 	26652 	0.0207978 	6.80602 	26649.9 	26649.9 	0 	
5.55556e-05 	3.73727e-09 	0.843947 	0.0780266 	0.0780266 	-0.148428 	-1.37009e-05 	
0.148414 	0.113444 	0.0349703 	2.22205 	6.33436e-08 	11.1124 	8.88756 	
2.47203e-11 	8747.13 	1.31207 	2.18678 	0.3 	1.86667 	1.19038 	1.11111e-05 	
0.000135986 	9.06576e-05 	0.00431431 	26652.5 	0.0323139 	4.37993 	26651.1 	26651.1 	0 	
6.66667e-05 	4.41662e-09 	0.843947 	0.0780266 	0.0780266 	-0.148428 	-1.51762e-05 	
0.148413 	0.113444 	0.0349688 	2.22194 	7.4858e-08 	13.3344 	6.66556 	
2.47191e-11 	8747.13 	1.31207 	2.18678 	0.3 	1.86667 	1.19033 	1.11111e-05 	
0.000135986 	9.06576e-05 	0.00431342 	26648.7 	0.0463879 	2.49311 	26647.9 	26647.9 	0 	
7.77778e-05 	5.09596e-09 	0.843947 	0.0780266 	0.0780266 	-0.148428 	-1.623e-05 	
0.148412 	0.113444 	0.0349678 	2.22187 	8.63721e-08 	15.5563 	4.44366 	
2.47183e-11 	8747.13 	1.31207 	2.18678 	0.3 	1.86667 	1.19029 	1.11111e-05 	
0.000135986 	9.06576e-05 	0.00431409 	26650.1 	0.0630195 	1.14546 	26649.7 	26649.7 	0 	
8.88889e-05 	5.7793e-09 	0.843947 	0.0780266 	0.0780266 	-0.148428 	-1.68623e-05 	
0.148411 	0.113444 	0.0349672 	2.22182 	9.79093e-08 	17.7782 	2.22181 	
2.47178e-11 	8747.13 	1.31207 	2.18678 	0.3 	1.86667 	1.19026 	1.11111e-05 	
0.000135986 	9.06576e-05 	0.00431248 	26642.9 	0.0822088 	0.336895 	26642.7 	26642.7 	0 	
0.0001 	6.20141e-09 	0.843947 	0.0780266 	0.0780266 	-0.148428 	-1.70731e-05 	
0.148411 	0.113444 	0.034967 	1.1109 	9.79093e-08 	19.4445 	0.555452 	
1.23588e-11 	4373.57 	0.656035 	1.09339 	0.3 	0.933333 	1.19025 	5.55556e-06 	
6.79932e-05 	4.53288e-05 	0.00431361 	26650.8 	0.0924429 	0.0673784 	26650.7 	26650.7 	0 	
ZONE T = "t = 2.37813e-07 [s]" I = 10 SOLUTIONTIME = 2.3781250000000E-07
0 	3.39842e-10 	0.843947 	0.0780266 	0.0780266 	-0.148428 	0 	
0.148428 	0.113444 	0.034984 	1.11152 	5.76008e-09 	0.555762 	19.4442 	
1.79928e-11 	4373.57 	0.656035 	1.09339 	0.3 	0.933333 	1.19092 	5.55556e-06 	
6.79932e-05 	4.53288e-05 	0.00634244 	26667.3 	0.000313511 	19.0777 	26661.3 	26661.3 	0 	
1.11111e-05 	1.01945e-09 	0.843947 	0.0780266 	0.0780266 	-0.148428 	-3.5835e-06 	
0.148424 	0.113444 	0.0349804 	2.22279 	1.72789e-08 	2.22292 	17.7771 	
3.59814e-11 	8747.13 	1.31207 	2.18678 	0.3 	1.86667 	1.19078 	1.11111e-05 	
0.000135986 	9.06576e-05 	0.00634045 	26663.9 	0.00156733 	16.9647 	26658.4 	26658.4 	0 	
2.22222e-05 	1.69897e-09 	0.843947 	0.0780266 	0.0780266 	-0.148428 	-6.74529e-06 	
0.148421 	0.113444 	0.0349772 	2.22256 	2.87964e-08 	4.44559 	15.5544 	
3.59776e-11 	8747.13 	1.31207 	2.18678 	0.3 	1.86667 	1.19066 	1.11111e-05 	
0.000135986 	9.06576e-05 	0.00633958 	26660.2 	0.0053284 	13.0032 	26656 	26656 	0 	
3.33333e-05 	2.37845e-09 	0.843947 	0.0780266 	0.0780266 	-0.148428 	-9.48543e-06 	