TITLE = "Solution on Domain BulkDomain1D_2"
VARIABLES = "x [m]"  
"Vel_axial(0)" 	"MF_sp(ECDMC)" 	"MF_sp(Li+)" 	"MF_sp(PF6-)" 	"Volt(Electroly)" 	"Volt(CathodeVo)" 	
"Potential Drop Electrode-Electrolyte [V]" 	"Surf_0 Equilibrium Potential Drop Electrode-Electrolyte [V]" 	"Overpotential_0 [V]" 	"Current Source [A/m^2]" 	"Li+ flux [kmol/m^2/s]" 	"Electrolyte Current [A/m^2]" 	"Electrode Current [A/m^2]" 	
"Capacity discharged [A-s]" 	"Depth of discharge [-]" 	"Capacity remaining [A-s]" 	"Initial capacity [A-s]" 	"Porosity []" 	"Surface Area [m2/m2] (area per area)" 	"Specific current (per particle area) [A/m^2]" 	"Control volume thickness [m]" 	
"Moles LiCoO2 [mol/m^2] (per electrode area)" 	"Moles CoO2 [mol/m^2] (per electrode area)" 	"qHeat_accum [J/m3]" 	"qHeat_step [W/m3]" 	"Joule_Lyte [W/m3]" 	"Joule_Solid [W/m3]" 	"electrodHeat [W/m3]" 	"OverpotHeat [W/m3]" 	"deltaSHeat [W/m3]" 	

ZONE T = "t = 0 [s]" I = 10 SOLUTIONTIME = 0.0000000000000E+00
0.000125 	0 	0.92 	0.04 	0.04 	-0.07 	3.8 	
0 	0 	0 	0 	0 	46.4803 	0 	
0 	0 	0 	0 	0.3 	1.16667 	-79.6804 	5.55556e-06 	
8.75398e-05 	0.000177732 	0 	0.0 	 0.0 	 0.0 	 0.0 	 0.0 	 0.0 	 
0.000136111 	0 	0.92 	0.04 	0.04 	-0.07 	3.8 	
0 	0 	0 	0 	0 	0 	-0 	
0 	0 	0 	0 	0.3 	2.33333 	-79.6804 	1.11111e-05 	
0.00017508 	0.000355465 	0 	0.0 	 0.0 	 0.0 	 0.0 	 0.0 	 0.0 	 
0.000147222 	0 	0.92 	0.04 	0.04 	-0.07 	3.8 	
0 	0 	0 	0 	0 	0 	-0 	
0 	0 	0 	0 	0.3 	2.33333 	-79.6804 	1.11111e-05 	
0.00017508 	0.000355465 	0 	0.0 	 0.0 	 0.0 	 0.0 	 0.0 	 0.0 	 
0.000158333 	0 	0.92 	0.04 	0.04 	-0.07 	3.8 	
0 	0 	0 	0 	0 	0 	-0 	
0 	0 	0 	0 	0.3 	2.33333 	-79.6804 	1.11111e-05 	
0.00017508 	0.000355465 	0 	0.0 	 0.0 	 0.0 	 0.0 	 0.0 	 0.0 	 
0.000169444 	0 	0.92 	0.04 	0.04 	-0.07 	3.8 	
0 	0 	0 	0 	0 	0 	-0 	
0 	0 	0 	0 	0.3 	2.33333 	-79.6804 	1.11111e-05 	
0.00017508 	0.000355465 	0 	0.0 	 0.0 	 0.0 	 0.0 	 0.0 	 0.0 	 
0.000180556 	0 	0.92 	0.04 	0.04 	-0.07 	3.8 	
0 	0 	0 	0 	0 	0 	-0 	
0 	0 	0 	0 	0.3 	2.33333 	-79.6804 	1.11111e-05 	
0.00017508 	0.000355465 	0 	0.0 	 0.0 	 0.0 	 0.0 	 0.0 	 0.0 	 
0.000191667 	0 	0.92 	0.04 	0.04 	-0.07 	3.8 	
0 	0 	0 	0 	0 	0 	-0 	
0 	0 	0 	0 	0.3 	2.33333 	-79.6804 	1.11111e-05 	
0.00017508 	0.000355465 	0 	0.0 	 0.0 	 0.0 	 0.0 	 0.0 	 0.0 	 
0.000202778 	0 	0.92 	0.04 	0.04 	-0.07 	3.8 	
0 	0 	0 	0 	0 	0 	-0 	
0 	0 	0 	0 	0.3 	2.33333 	-79.6804 	1.11111e-05 	
0.00017508 	0.000355465 	0 	0.0 	 0.0 	 0.0 	 0.0 	 0.0 	 0.0 	 
0.000213889 	0 	0.92 	0.04 	0.04 	-0.07 	3.8 	
0 	0 	0 	0 	0 	0 	-0 	
0 	0 	0 	0 	0.3 	2.33333 	-79.6804 	1.11111e-05 	
0.00017508 	0.000355465 	0 	0.0 	 0.0 	 0.0 	 0.0 	 0.0 	 0.0 	 
0.000225 	0 	0.92 	0.04 	0.04 	-0.07 	3.8 	
0 	0 	0 	0 	0 	0 	46.4803 	
0 	0 	0 	0 	0.3 	1.16667 	-79.6804 	5.55556e-06 	
8.75398e-05 	0.000177732 	0 	0.0 	 0.0 	 0.0 	 0.0 	 0.0 	 0.0 	 
ZONE T = "t = 1e-08 [s]" I = 10 SOLUTIONTIME = 1.0000000000000E-08
0.000125 	1.31175e-08 	0.92 	0.04 	0.04 	-0.125572 	3.99922 	
3.87 	4.15572 	-0.285721 	-92.9605 	-0 	19.4452 	0.554857 	
-0 	8446.31 	42.9794 	64.1484 	0.3 	1.16667 	-0.951283 	5.55556e-06 	
8.75398e-05 	0.000177732 	9.81829e-05 	9818.29 	0.0484313 	0.175924 	9818.07 	9818.07 	0 	
0.000136111 	1.15763e-08 	0.92 	0.04 	0.04 	-0.125572 	3.99922 	
3.87 	4.15572 	-0.285721 	-185.921 	-0 	17.7805 	2.21948 	
-0 	16892.6 	85.9589 	128.297 	0.3 	2.33333 	-0.951326 	1.11111e-05 	
0.00017508 	0.000355465 	0.000100139 	10013.9 	0.0430751 	0.879666 	10013 	10013 	0 	
0.000147222 	1.00348e-08 	0.92 	0.04 	0.04 	-0.125572 	3.99922 	
3.87 	4.15572 	-0.285721 	-185.921 	-0 	15.5608 	4.43916 	
-0 	16892.6 	85.9589 	128.297 	0.3 	2.33333 	-0.951458 	1.11111e-05 	
0.00017508 	0.000355465 	9.82334e-05 	9823.34 	0.0330308 	2.99115 	9820.32 	9820.32 	0 	
0.000158333 	8.49298e-09 	0.92 	0.04 	0.04 	-0.125572 	3.99921 	
3.87 	4.15572 	-0.285721 	-185.921 	-0 	13.3407 	6.65926 	
-0 	16892.6 	85.9589 	128.297 	0.3 	2.33333 	-0.951678 	1.11111e-05 	
0.00017508 	0.000355465 	9.8656e-05 	9865.6 	0.0243224 	6.51117 	9859.07 	9859.07 	0 	
0.000169444 	6.95066e-09 	0.92 	0.04 	0.04 	-0.125572 	3.9992 	
3.87 	4.15572 	-0.285721 	-185.921 	-0 	11.12 	8.87997 	
-0 	16892.6 	85.9589 	128.297 	0.3 	2.33333 	-0.951987 	1.11111e-05 	
0.00017508 	0.000355465 	9.98719e-05 	9987.19 	0.0169501 	11.441 	9975.73 	9975.73 	0 	
0.000180556 	5.40769e-09 	0.92 	0.04 	0.04 	-0.125572 	3.99918 	
3.87 	4.15572 	-0.285721 	-185.921 	-0 	8.8985 	11.1015 	
-0 	16892.6 	85.9589 	128.297 	0.3 	2.33333 	-0.952384 	1.11111e-05 	
0.00017508 	0.000355465 	9.90218e-05 	9902.18 	0.0109144 	17.7825 	9884.39 	9884.39 	0 	
0.000191667 	3.86393e-09 	0.92 	0.04 	0.04 	-0.125572 	3.99916 	
3.87 	4.15572 	-0.285721 	-185.921 	-0 	6.67594 	13.3241 	
-0 	16892.6 	85.9589 	128.297 	0.3 	2.33333 	-0.95287 	1.11111e-05 	
0.00017508 	0.000355465 	0.000100255 	10025.5 	0.00621656 	25.538 	9999.99 	9999.99 	0 	
0.000202778 	2.31925e-09 	0.92 	0.04 	0.04 	-0.125572 	3.99914 	
3.87 	4.15572 	-0.285721 	-185.921 	-0 	4.45214 	15.5479 	
-0 	16892.6 	85.9589 	128.297 	0.3 	2.33333 	-0.953444 	1.11111e-05 	
0.00017508 	0.000355465 	9.91938e-05 	9919.38 	0.00285811 	34.7104 	9884.67 	9884.67 	0 	
0.000213889 	7.73489e-10 	0.92 	0.04 	0.04 	-0.125572 	3.99911 	
3.87 	4.15572 	-0.285721 	-185.921 	-0 	2.22689 	17.7731 	
-0 	16892.6 	85.9589 	128.297 	0.3 	2.33333 	-0.954107 	1.11111e-05 	
0.00017508 	0.000355465 	0.000101218 	10121.8 	0.000841182 	45.3032 	10076.5 	10076.5 	0 	
0.000225 	0 	0.92 	0.04 	0.04 	-0.125572 	3.99908 	
3.87 	4.15572 	-0.285721 	-92.9605 	-0 	0.556943 	19.4431 	
-0 	8446.31 	42.9794 	64.1484 	0.3 	1.16667 	-0.954859 	5.55556e-06 	
8.75398e-05 	0.000177732 	9.93146e-05 	9931.46 	0.000168396 	50.955 	9880.51 	9880.51 	0 	
ZONE T = "t = 2e-08 [s]" I = 10 SOLUTIONTIME = 2.0000000000000E-08
0.000125 	1.31174e-08 	0.92 	0.04 	0.04 	-0.125227 	3.96764 	
4.1248 	4.15572 	-0.0309249 	-1.10983 	9.78942e-08 	19.4451 	0.554941 	
2.78157e-11 	8446.31 	42.9794 	64.1484 	0.3 	1.16667 	-0.951367 	5.55556e-06 	
8.75398e-05 	0.000177732 	0.000223836 	12565.3 	0.0484305 	0.175977 	12565.1 	12565.1 	0 	
0.000136111 	1.15759e-08 	0.92 	0.04 	0.04 	-0.125227 	3.96764 	
4.12479 	4.15572 	-0.0309266 	-2.21976 	8.63901e-08 	17.7802 	2.21981 	
5.56339e-11 	16892.6 	85.9589 	128.297 	0.3 	2.33333 	-0.951405 	1.11111e-05 	
0.00017508 	0.000355465 	0.000226322 	12618.2 	0.0430736 	0.879927 	12617.3 	12617.3 	0 	
0.000147222 	1.00343e-08 	0.92 	0.04 	0.04 	-0.125228 	3.96764 	
4.12479 	4.15572 	-0.0309319 	-2.22007 	7.48866e-08 	15.5602 	4.4398 	
5.56416e-11 	16892.6 	85.9589 	128.297 	0.3 	2.33333 	-0.951521 	1.11111e-05 	
0.00017508 	0.000355465 	0.000223936 	12570.2 	0.0330282 	2.99201 	12567.2 	12567.2 	0 	
0.000158333 	8.49228e-09 	0.92 	0.04 	0.04 	-0.125228 	3.96763 	
4.12478 	4.15572 	-0.0309407 	-2.22058 	6.33805e-08 	13.3399 	6.66015 	
5.56545e-11 	16892.6 	85.9589 	128.297 	0.3 	2.33333 	-0.951715 	1.11111e-05 	
0.00017508 	0.000355465 	0.000224044 	12538.8 	0.0243192 	6.5129 	12532.3 	12532.3 	0 	
0.000169444 	6.94986e-09 	0.92 	0.04 	0.04 	-0.125228 	3.96762 	
4.12477 	4.15572 	-0.030953 	-2.2213 	5.18706e-08 	11.119 	8.88104 	
5.56725e-11 	16892.6 	85.9589 	128.297 	0.3 	2.33333 	-0.951986 	1.11111e-05 	
0.00017508 	0.000355465 	0.000225662 	12579 	0.0169468 	11.4438 	12567.6 	12567.6 	0 	
0.000180556 	5.40688e-09 	0.92 	0.04 	0.04 	-0.125228 	3.9676 	
4.12475 	4.15572 	-0.0309688 	-2.22223 	4.03559e-08 	8.89734 	11.1027 	
5.56957e-11 	16892.6 	85.9589 	128.297 	0.3 	2.33333 	-0.952335 	1.11111e-05 	
0.00017508 	0.000355465 	0.000224773 	12575.1 	0.0109116 	17.7862 	12557.4 	12557.4 	0 	
0.000191667 	3.8632e-09 	0.92 	0.04 	0.04 	-0.125228 	3.96758 	
4.12473 	4.15572 	-0.0309882 	-2.22336 	2.88353e-08 	6.67482 	13.3252 	
5.57241e-11 	16892.6 	85.9589 	128.297 	0.3 	2.33333 	-0.952762 	1.11111e-05 	
0.00017508 	0.000355465 	0.000226411 	12615.6 	0.00621452 	25.5423 	12590.1 	12590.1 	0 	
0.000202778 	2.3187e-09 	0.92 	0.04 	0.04 	-0.125228 	3.96756 	
4.12471 	4.15572 	-0.0310111 	-2.2247 	1.73078e-08 	4.45121 	15.5488 	
5.57577e-11 	16892.6 	85.9589 	128.297 	0.3 	2.33333 	-0.953267 	1.11111e-05 	
0.00017508 	0.000355465 	0.000225559 	12636.5 	0.00285695 	34.7145 	12601.8 	12601.8 	0 	
0.000213889 	7.73257e-10 	0.92 	0.04 	0.04 	-0.125228 	3.96753 	
4.12468 	4.15572 	-0.0310375 	-2.22625 	5.77231e-09 	2.22633 	17.7737 	
5.57965e-11 	16892.6 	85.9589 	128.297 	0.3 	2.33333 	-0.953851 	1.11111e-05 	
0.00017508 	0.000355465 	0.00022829 	12707.2 	0.000840773 	45.3059 	12661.9 	12661.9 	0 	
0.000225 	0 	0.92 	0.04 	0.04 	-0.125228 	3.9675 	
4.12465 	4.15572 	-0.0310675 	-1.114 	5.77231e-09 	0.556776 	19.4432 	
2.79202e-11 	8446.31 	42.9794 	64.1484 	0.3 	1.16667 	-0.954512 	5.55556e-06 	
8.75398e-05 	0.000177732 	0.000225751 	12643.7 	0.000168295 	50.9568 	12592.7 	12592.7 	0 	
ZONE T = "t = 3e-08 [s]" I = 10 SOLUTIONTIME = 3.0000000000000E-08
0.000125 	1.31174e-08 	0.92 	0.04 	0.04 	-0.125227 	3.96764 	
4.09287 	4.15572 	-0.0628488 	-1.10993 	9.78955e-08 	19.4451 	0.554941 	
5.56338e-11 	8446.31 	42.9794 	64.1484 	0.3 	1.16667 	-0.951368 	5.55556e-06 	
8.75398e-05 	0.000177732 	0.000349343 	12550.7 	0.0484305 	0.175977 	12550.5 	12550.5 	0 	
0.000136111 	1.15759e-08 	0.92 	0.04 	0.04 	-0.125227 	3.96764 	
4.09287 	4.15572 	-0.0628505 	-2.21995 	8.63876e-08 	17.7802 	2.21981 	
1.11272e-10 	16892.6 	85.9589 	128.297 	0.3 	2.33333 	-0.951406 	1.11111e-05 	
0.00017508 	0.000355465 	0.000352362 	12604.1 	0.0430736 	0.879927 	12603.1 	12603.1 	0 	
0.000147222 	1.00343e-08 	0.92 	0.04 	0.04 	-0.125228 	3.96764 	
4.09287 	4.15572 	-0.0628557 	-2.22022 	7.48826e-08 	15.5602 	4.4398 	
1.11287e-10 	16892.6 	85.9589 	128.297 	0.3 	2.33333 	-0.951522 	1.11111e-05 	
0.00017508 	0.000355465 	0.000349576 	12564 	0.0330282 	2.99201 	12561 	12561 	0 	
0.000158333 	8.49228e-09 	0.92 	0.04 	0.04 	-0.125228 	3.96763 	
4.09286 	4.15572 	-0.0628645 	-2.22067 	6.33752e-08 	13.3399 	6.66015 	
1.11311e-10 	16892.6 	85.9589 	128.297 	0.3 	2.33333 	-0.951715 	1.11111e-05 	
0.00017508 	0.000355465 	0.000349682 	12563.7 	0.0243192 	6.5129 	12557.2 	12557.2 	0 	
0.000169444 	6.94986e-09 	0.92 	0.04 	0.04 	-0.125228 	3.96762 	
4.09284 	4.15572 	-0.0628769 	-2.2213 	5.18646e-08 	11.119 	8.88104 	
1.11345e-10 	16892.6 	85.9589 	128.297 	0.3 	2.33333 	-0.951987 	1.11111e-05 	
0.00017508 	0.000355465 	0.000351514 	12585.2 	0.0169468 	11.4438 	12573.7 	12573.7 	0 	
0.000180556 	5.40688e-09 	0.92 	0.04 	0.04 	-0.125228 	3.9676 	
4.09283 	4.15572 	-0.0628927 	-2.22212 	4.03498e-08 	8.89734 	11.1027 	
1.11389e-10 	16892.6 	85.9589 	128.297 	0.3 	2.33333 	-0.952336 	1.11111e-05 	
0.00017508 	0.000355465 	0.000350423 	12564.9 	0.0109116 	17.7862 	12547.1 	12547.1 	0 	
0.000191667 	3.8632e-09 	0.92 	0.04 	0.04 	-0.125228 	3.96758 	
4.09281 	4.15572 	-0.0629121 	-2.22311 	2.88298e-08 	6.67482 	13.3252 	
1.11442e-10 	16892.6 	85.9589 	128.297 	0.3 	2.33333 	-0.952763 	1.11111e-05 	
0.00017508 	0.000355465 	0.000352641 	12623 	0.00621452 	25.5423 	12597.4 	12597.4 	0 	
0.000202778 	2.3187e-09 	0.92 	0.04 	0.04 	-0.125228 	3.96756 	
4.09279 	4.15572 	-0.062935 	-2.22429 	1.73037e-08 	4.45121 	15.5488 	
1.11505e-10 	16892.6 	85.9589 	128.297 	0.3 	2.33333 	-0.953268 	1.11111e-05 	
0.00017508 	0.000355465 	0.000352153 	12659.4 	0.00285695 	34.7145 	12624.7 	12624.7 	0 	
0.000213889 	7.73257e-10 	0.92 	0.04 	0.04 	-0.125228 	3.96753 	
4.09276 	4.15572 	-0.0629614 	-2.22565 	5.77058e-09 	2.22633 	17.7737 	
1.11578e-10 	16892.6 	85.9589 	128.297 	0.3 	2.33333 	-0.953851 	1.11111e-05 	
0.00017508 	0.000355465 	0.00035526 	12697 	0.000840773 	45.3059 	12651.7 	12651.7 	0 	
0.000225 	0 	0.92 	0.04 	0.04 	-0.125228 	3.9675 	
4.09273 	4.15572 	-0.0629914 	-1.1136 	5.77058e-09 	0.556776 	19.4432 	
5.58304e-11 	8446.31 	42.9794 	64.1484 	0.3 	1.16667 	-0.954513 	5.55556e-06 	
8.75398e-05 	0.000177732 	0.000352293 	12654.2 	0.000168295 	50.9568 	12603.2 	12603.2 	0 	
ZONE T = "t = 4e-08 [s]" I = 10 SOLUTIONTIME = 4.0000000000000E-08
0.000125 	1.31174e-08 	0.92 	0.04 	0.04 	-0.125227 	3.96765 	
4.09287 	4.15572 	-0.0628488 	-1.10993 	9.78977e-08 	19.4451 	0.554941 	
8.34519e-11 	8446.31 	42.9794 	64.1484 	0.3 	1.16667 	-0.951328 	5.55556e-06 	
8.75398e-05 	0.000177732 	0.000475048 	12570.5 	0.0484305 	0.175977 	12570.3 	12570.3 	0 	
0.000136111 	1.15759e-08 	0.92 	0.04 	0.04 	-0.125227 	3.96764 	
4.09287 	4.15572 	-0.0628505 	-2.21995 	8.63876e-08 	17.7802 	2.21981 	
1.66911e-10 	16892.6 	85.9589 	128.297 	0.3 	2.33333 	-0.951366 	1.11111e-05 	
0.00017508 	0.000355465 	0.00047784 	12547.8 	0.0430736 	0.879927 	12546.8 	12546.8 	0 	
0.000147222 	1.00343e-08 	0.92 	0.04 	0.04 	-0.125228 	3.96764 	
4.09287 	4.15572 	-0.0628558 	-2.22022 	7.48826e-08 	15.5602 	4.4398 	
1.66932e-10 	16892.6 	85.9589 	128.297 	0.3 	2.33333 	-0.951482 	1.11111e-05 	
0.00017508 	0.000355465 	0.000475757 	12618.2 	0.0330282 	2.99201 	12615.1 	12615.1 	0 	
0.000158333 	8.49228e-09 	0.92 	0.04 	0.04 	-0.125228 	3.96763 	
4.09286 	4.15572 	-0.0628646 	-2.22067 	6.33753e-08 	13.3399 	6.66015 	
1.66968e-10 	16892.6 	85.9589 	128.297 	0.3 	2.33333 	-0.951675 	1.11111e-05 	
0.00017508 	0.000355465 	0.0004759 	12621.9 	0.0243192 	6.5129 	12615.3 	12615.3 	0 	
0.000169444 	6.94986e-09 	0.92 	0.04 	0.04 	-0.125228 	3.96762 	
4.09284 	4.15572 	-0.0628769 	-2.2213 	5.18646e-08 	11.119 	8.88104 	
1.67017e-10 	16892.6 	85.9589 	128.297 	0.3 	2.33333 	-0.951947 	1.11111e-05 	
0.00017508 	0.000355465 	0.000477513 	12599.9 	0.0169468 	11.4438 	12588.4 	12588.4 	0 	
0.000180556 	5.40688e-09 	0.92 	0.04 	0.04 	-0.125228 	3.9676 	
4.09283 	4.15572 	-0.0628927 	-2.22212 	4.03498e-08 	8.89734 	11.1027 	
1.67082e-10 	16892.6 	85.9589 	128.297 	0.3 	2.33333 	-0.952296 	1.11111e-05 	
0.00017508 	0.000355465 	0.000476626 	12620.3 	0.0109116 	17.7862 	12602.5 	12602.5 	0 	
0.000191667 	3.8632e-09 	0.92 	0.04 	0.04 	-0.125228 	3.96758 	
4.09281 	4.15572 	-0.0629121 	-2.22311 	2.88298e-08 	6.67482 	13.3252 	
1.6716e-10 	16892.6 	85.9589 	128.297 	0.3 	2.33333 	-0.952723 	1.11111e-05 	
0.00017508 	0.000355465 	0.000479014 	12637.3 	0.00621452 	25.5423 	12611.7 	12611.7 	0 	
0.000202778 	2.3187e-09 	0.92 	0.04 	0.04 	-0.125228 	3.96756 	
4.09279 	4.15572 	-0.062935 	-2.22429 	1.73037e-08 	4.45121 	15.5488 	
1.67253e-10 	16892.6 	85.9589 	128.297 	0.3 	2.33333 	-0.953228 	1.11111e-05 	
0.00017508 	0.000355465 	0.000479082 	12692.9 	0.00285695 	34.7145 	12658.2 	12658.2 	0 	
0.000213889 	7.73257e-10 	0.92 	0.04 	0.04 	-0.125228 	3.96753 	
4.09276 	4.15572 	-0.0629615 	-2.22565 	5.77059e-09 	2.22633 	17.7737 	
1.6736e-10 	16892.6 	85.9589 	128.297 	0.3 	2.33333 	-0.953811 	1.11111e-05 	
0.00017508 	0.000355465 	0.000481696 	12643.6 	0.000840773 	45.3059 	12598.2 	12598.2 	0 	
0.000225 	0 	0.92 	0.04 	0.04 	-0.125228 	3.9675 	
4.09273 	4.15572 	-0.0629914 	-1.1136 	5.77059e-09 	0.556776 	19.4432 	
8.37405e-11 	8446.31 	42.9794 	64.1484 	0.3 	1.16667 	-0.954473 	5.55556e-06 	
8.75398e-05 	0.000177732 	0.000479306 	12701.3 	0.000168295 	50.9568 	12650.3 	12650.3 	0 	
ZONE T = "t = 5.5e-08 [s]" I = 10 SOLUTIONTIME = 5.5000000000000E-08
0.000125 	1.31174e-08 	0.92 	0.04 	0.04 	-0.125227 	3.96765 	
4.09287 	4.15572 	-0.062847 	-1.10988 	9.78999e-08 	19.4451 	0.554941 	
1.11269e-10 	8446.31 	42.9794 	64.1484 	0.3 	1.16667 	-0.951328 	5.55556e-06 	
8.75398e-05 	0.000177732 	0.000663546 	12566.6 	0.0484305 	0.175977 	12566.3 	12566.3 	0 	
0.000136111 	1.15759e-08 	0.92 	0.04 	0.04 	-0.125227 	3.96764 	
4.09287 	4.15572 	-0.0628487 	-2.21985 	8.63876e-08 	17.7802 	2.21981 	
2.22547e-10 	16892.6 	85.9589 	128.297 	0.3 	2.33333 	-0.951366 	1.11111e-05 	
0.00017508 	0.000355465 	0.000666112 	12551.5 	0.0430736 	0.879927 	12550.6 	12550.6 	0 	
0.000147222 	1.00343e-08 	0.92 	0.04 	0.04 	-0.125228 	3.96764 	
4.09287 	4.15572 	-0.062854 	-2.22012 	7.48826e-08 	15.5602 	4.4398 	
2.22575e-10 	16892.6 	85.9589 	128.297 	0.3 	2.33333 	-0.951482 	1.11111e-05 	
0.00017508 	0.000355465 	0.000664836 	12605.3 	0.0330282 	2.99201 	12602.2 	12602.2 	0 	
0.000158333 	8.49228e-09 	0.92 	0.04 	0.04 	-0.125228 	3.96763 	
4.09286 	4.15572 	-0.0628628 	-2.22058 	6.33753e-08 	13.3399 	6.66015 	
2.22622e-10 	16892.6 	85.9589 	128.297 	0.3 	2.33333 	-0.951675 	1.11111e-05 	
0.00017508 	0.000355465 	0.000664729 	12588.6 	0.0243192 	6.5129 	12582.1 	12582.1 	0 	
0.000169444 	6.94986e-09 	0.92 	0.04 	0.04 	-0.125228 	3.96762 	
4.09285 	4.15572 	-0.0628751 	-2.22121 	5.18647e-08 	11.119 	8.88104 	
2.22688e-10 	16892.6 	85.9589 	128.297 	0.3 	2.33333 	-0.951947 	1.11111e-05 	
0.00017508 	0.000355465 	0.000666116 	12573.6 	0.0169468 	11.4438 	12562.1 	12562.1 	0 	
0.000180556 	5.40688e-09 	0.92 	0.04 	0.04 	-0.125228 	3.9676 	
4.09283 	4.15572 	-0.0628909 	-2.22202 	4.03498e-08 	8.89734 	11.1027 	
2.22772e-10 	16892.6 	85.9589 	128.297 	0.3 	2.33333 	-0.952296 	1.11111e-05 	
0.00017508 	0.000355465 	0.00066534 	12581 	0.0109116 	17.7862 	12563.2 	12563.2 	0 	
0.000191667 	3.8632e-09 	0.92 	0.04 	0.04 	-0.125228 	3.96758 	
4.09281 	4.15572 	-0.0629103 	-2.22302 	2.88298e-08 	6.67482 	13.3252 	
2.22875e-10 	16892.6 	85.9589 	128.297 	0.3 	2.33333 	-0.952723 	1.11111e-05 	
0.00017508 	0.000355465 	0.000668762 	12649.9 	0.00621452 	25.5423 	12624.3 	12624.3 	0 	
0.000202778 	2.3187e-09 	0.92 	0.04 	0.04 	-0.125228 	3.96756 	
4.09279 	4.15572 	-0.0629332 	-2.2242 	1.73037e-08 	4.45121 	15.5488 	
2.22998e-10 	16892.6 	85.9589 	128.297 	0.3 	2.33333 	-0.953228 	1.11111e-05 	
0.00017508 	0.000355465 	0.000669175 	12672.8 	0.00285695 	34.7145 	12638.1 	12638.1 	0 	
0.000213889 	7.73257e-10 	0.92 	0.04 	0.04 	-0.125228 	3.96753 	
4.09276 	4.15572 	-0.0629596 	-2.22556 	5.77059e-09 	2.22633 	17.7737 	
2.23139e-10 	16892.6 	85.9589 	128.297 	0.3 	2.33333 	-0.953811 	1.11111e-05 	
0.00017508 	0.000355465 	0.000671114 	12627.9 	0.000840773 	45.3059 	12582.6 	12582.6 	0 	
0.000225 	0 	0.92 	0.04 	0.04 	-0.125228 	3.9675 	
4.09273 	4.15572 	-0.0629896 	-1.11355 	5.77059e-09 	0.556776 	19.4432 	
1.11649e-10 	8446.31 	42.9794 	64.1484 	0.3 	1.16667 	-0.954473 	5.55556e-06 	
8.75398e-05 	0.000177732 	0.000669697 	12692.7 	0.000168295 	50.9568 	12641.8 	12641.8 	0 	
ZONE T = "t = 7.75e-08 [s]" I = 10 SOLUTIONTIME = 7.7500000000000E-08
0.000125 	1.31174e-08 	0.92 	0.04 	0.04 	-0.125227 	3.96765 	
4.09287 	4.15572 	-0.062847 	-1.10988 	9.79034e-08 	19.4451 	0.554941 	
1.52994e-10 	8446.31 	42.9794 	64.1484 	0.3 	1.16667 	-0.951328 	5.55556e-06 	
8.75398e-05 	0.000177732 	0.000946386 	12570.6 	0.0484305 	0.175977 	12570.4 	12570.4 	0 	
0.000136111 	1.15759e-08 	0.92 	0.04 	0.04 	-0.125227 	3.96764 	
4.09287 	4.15572 	-0.0628487 	-2.21985 	8.63876e-08 	17.7802 	2.21981 	
3.06001e-10 	16892.6 	85.9589 	128.297 	0.3 	2.33333 	-0.951366 	1.11111e-05 	
0.00017508 	0.000355465 	0.000948221 	12538.2 	0.0430736 	0.879927 	12537.3 	12537.3 	0 	
0.000147222 	1.00343e-08 	0.92 	0.04 	0.04 	-0.125228 	3.96764 	
4.09287 	4.15572 	-0.062854 	-2.22012 	7.48826e-08 	15.5602 	4.4398 	
3.0604e-10 	16892.6 	85.9589 	128.297 	0.3 	2.33333 	-0.951482 	1.11111e-05 	
0.00017508 	0.000355465 	0.000947293 	12553.6 	0.0330282 	2.99201 	12550.6 	12550.6 	0 	
0.000158333 	8.49228e-09 	0.92 	0.04 	0.04 	-0.125228 	3.96763 	
4.09286 	4.15572 	-0.0628628 	-2.22058 	6.33753e-08 	13.3399 	6.66015 	
3.06103e-10 	16892.6 	85.9589 	128.297 	0.3 	2.33333 	-0.951675 	1.11111e-05 	
0.00017508 	0.000355465 	0.000947736 	12578.1 	0.0243192 	6.5129 	12571.5 	12571.5 	0 	
0.000169444 	6.94986e-09 	0.92 	0.04 	0.04 	-0.125228 	3.96762 	
4.09285 	4.15572 	-0.0628751 	-2.22121 	5.18647e-08 	11.119 	8.88104 	
3.06193e-10 	16892.6 	85.9589 	128.297 	0.3 	2.33333 	-0.951947 	1.11111e-05 	
0.00017508 	0.000355465 	0.000948656 	12557.3 	0.0169468 	11.4438 	12545.9 	12545.9 	0 	
0.000180556 	5.40688e-09 	0.92 	0.04 	0.04 	-0.125228 	3.9676 	
4.09283 	4.15572 	-0.0628909 	-2.22202 	4.03498e-08 	8.89734 	11.1027 	
3.06308e-10 	16892.6 	85.9589 	128.297 	0.3 	2.33333 	-0.952296 	1.11111e-05 	
0.00017508 	0.000355465 	0.000948488 	12584.3 	0.0109116 	17.7862 	12566.5 	12566.5 	0 	
0.000191667 	3.8632e-09 	0.92 	0.04 	0.04 	-0.125228 	3.96758 	
4.09281 	4.15572 	-0.0629103 	-2.22302 	2.88298e-08 	6.67482 	13.3252 	
3.06449e-10 	16892.6 	85.9589 	128.297 	0.3 	2.33333 	-0.952723 	1.11111e-05 	
0.00017508 	0.000355465 	0.000952796 	12623.7 	0.00621452 	25.5423 	12598.2 	12598.2 	0 	
0.000202778 	2.3187e-09 	0.92 	0.04 	0.04 	-0.125228 	3.96756 	
4.09279 	4.15572 	-0.0629332 	-2.2242 	1.73037e-08 	4.45121 	15.5488 	
3.06615e-10 	16892.6 	85.9589 	128.297 	0.3 	2.33333 	-0.953228 	1.11111e-05 	
0.00017508 	0.000355465 	0.000953065 	12617.4 	0.00285695 	34.7145 	12582.6 	12582.6 	0 	
0.000213889 	7.73257e-10 	0.92 	0.04 	0.04 	-0.125228 	3.96753 	
4.09276 	4.15572 	-0.0629596 	-2.22556 	5.77059e-09 	2.22633 	17.7737 	
3.06808e-10 	16892.6 	85.9589 	128.297 	0.3 	2.33333 	-0.953811 	1.11111e-05 	
0.00017508 	0.000355465 	0.000955885 	12656.5 	0.000840773 	45.3059 	12611.2 	12611.2 	0 	
0.000225 	0 	0.92 	0.04 	0.04 	-0.125228 	3.9675 	
4.09273 	4.15572 	-0.0629896 	-1.11355 	5.77059e-09 	0.556776 	19.4432 	
1.53513e-10 	8446.31 	42.9794 	64.1484 	0.3 	1.16667 	-0.954473 	5.55556e-06 	
8.75398e-05 	0.000177732 	0.000955142 	12686.5 	0.000168295 	50.9568 	12635.5 	12635.5 	0 	
ZONE T = "t = 1.1125e-07 [s]" I = 10 SOLUTIONTIME = 1.1125000000000E-07
0.000125 	1.31174e-08 	0.92 	0.04 	0.04 	-0.125227 	3.96765 	
4.09287 	4.15572 	-0.062847 	-1.10988 	9.79086e-08 	19.4451 	0.554941 	
2.15583e-10 	8446.31 	42.9794 	64.1484 	0.3 	1.16667 	-0.951328 	5.55556e-06 	
8.75398e-05 	0.000177732 	0.0013697 	12542.5 	0.0484305 	0.175977 	12542.3 	12542.3 	0 	
0.000136111 	1.15759e-08 	0.92 	0.04 	0.04 	-0.125227 	3.96764 	
4.09287 	4.15572 	-0.0628487 	-2.21985 	8.63876e-08 	17.7802 	2.21981 	
4.31183e-10 	16892.6 	85.9589 	128.297 	0.3 	2.33333 	-0.951366 	1.11111e-05 	
0.00017508 	0.000355465 	0.00137165 	12546.1 	0.0430736 	0.879927 	12545.2 	12545.2 	0 	
0.000147222 	1.00343e-08 	0.92 	0.04 	0.04 	-0.125228 	3.96764 	
4.09287 	4.15572 	-0.062854 	-2.22012 	7.48826e-08 	15.5602 	4.4398 	
4.31236e-10 	16892.6 	85.9589 	128.297 	0.3 	2.33333 	-0.951482 	1.11111e-05 	
0.00017508 	0.000355465 	0.00137073 	12546.4 	0.0330282 	2.99201 	12543.3 	12543.3 	0 	
0.000158333 	8.49228e-09 	0.92 	0.04 	0.04 	-0.125228 	3.96763 	
4.09286 	4.15572 	-0.0628628 	-2.22058 	6.33753e-08 	13.3399 	6.66015 	
4.31326e-10 	16892.6 	85.9589 	128.297 	0.3 	2.33333 	-0.951675 	1.11111e-05 	
0.00017508 	0.000355465 	0.00137185 	12566.3 	0.0243192 	6.5129 	12559.7 	12559.7 	0 	
0.000169444 	6.94986e-09 	0.92 	0.04 	0.04 	-0.125228 	3.96762 	
4.09285 	4.15572 	-0.0628751 	-2.22121 	5.18647e-08 	11.119 	8.88104 	
4.31451e-10 	16892.6 	85.9589 	128.297 	0.3 	2.33333 	-0.951947 	1.11111e-05 	
0.00017508 	0.000355465 	0.00137274 	12565.3 	0.0169468 	11.4438 	12553.9 	12553.9 	0 	
0.000180556 	5.40688e-09 	0.92 	0.04 	0.04 	-0.125228 	3.9676 	
4.09283 	4.15572 	-0.0628909 	-2.22202 	4.03498e-08 	8.89734 	11.1027 	
4.31612e-10 	16892.6 	85.9589 	128.297 	0.3 	2.33333 	-0.952296 	1.11111e-05 	
0.00017508 	0.000355465 	0.00137313 	12582 	0.0109116 	17.7862 	12564.2 	12564.2 	0 	
0.000191667 	3.8632e-09 	0.92 	0.04 	0.04 	-0.125228 	3.96758 	
4.09281 	4.15572 	-0.0629103 	-2.22302 	2.88298e-08 	6.67482 	13.3252 	
4.31809e-10 	16892.6 	85.9589 	128.297 	0.3 	2.33333 	-0.952723 	1.11111e-05 	
0.00017508 	0.000355465 	0.00137815 	12603.1 	0.00621452 	25.5423 	12577.6 	12577.6 	0 	
0.000202778 	2.3187e-09 	0.92 	0.04 	0.04 	-0.125228 	3.96756 	
4.09279 	4.15572 	-0.0629332 	-2.2242 	1.73038e-08 	4.45121 	15.5488 	
4.32042e-10 	16892.6 	85.9589 	128.297 	0.3 	2.33333 	-0.953228 	1.11111e-05 	
0.00017508 	0.000355465 	0.00137919 	12625.9 	0.00285695 	34.7145 	12591.2 	12591.2 	0 	
0.000213889 	7.73257e-10 	0.92 	0.04 	0.04 	-0.125228 	3.96753 	
4.09276 	4.15572 	-0.0629596 	-2.22556 	5.7706e-09 	2.22633 	17.7737 	
4.32311e-10 	16892.6 	85.9589 	128.297 	0.3 	2.33333 	-0.953811 	1.11111e-05 	
0.00017508 	0.000355465 	0.00138263 	12644.4 	0.000840773 	45.3059 	12599.1 	12599.1 	0 	
0.000225 	0 	0.92 	0.04 	0.04 	-0.125228 	3.9675 	
4.09273 	4.15572 	-0.0629896 	-1.11355 	5.7706e-09 	0.556776 	19.4432 	
2.16308e-10 	8446.31 	42.9794 	64.1484 	0.3 	1.16667 	-0.954473 	5.55556e-06 	
8.75398e-05 	0.000177732 	0.00138346 	12690.8 	0.000168295 	50.9568 	12639.8 	12639.8 	0 	
ZONE T = "t = 1.61875e-07 [s]" I = 10 SOLUTIONTIME = 1.6187500000000E-07
0.000125 	1.31174e-08 	0.92 	0.04 	0.04 	-0.125227 	3.96765 	
4.09287 	4.15572 	-0.062847 	-1.10988 	9.79167e-08 	19.4451 	0.554941 	
3.09465e-10 	8446.31 	42.9794 	64.1484 	0.3 	1.16667 	-0.951328 	5.55556e-06 	
8.75398e-05 	0.000177732 	0.00200539 	12556.9 	0.0484305 	0.175977 	12556.7 	12556.7 	0 	
0.000136111 	1.15759e-08 	0.92 	0.04 	0.04 	-0.125227 	3.96764 	
4.09287 	4.15572 	-0.0628487 	-2.21985 	8.63876e-08 	17.7802 	2.21981 	
6.18955e-10 	16892.6 	85.9589 	128.297 	0.3 	2.33333 	-0.951366 	1.11111e-05 	
0.00017508 	0.000355465 	0.00200775 	12564.9 	0.0430736 	0.879927 	12564 	12564 	0 	
0.000147222 	1.00343e-08 	0.92 	0.04 	0.04 	-0.125228 	3.96764 	
4.09287 	4.15572 	-0.062854 	-2.22012 	7.48826e-08 	15.5602 	4.4398 	
6.19031e-10 	16892.6 	85.9589 	128.297 	0.3 	2.33333 	-0.951482 	1.11111e-05 	
0.00017508 	0.000355465 	0.00200691 	12566.6 	0.0330282 	2.99201 	12563.5 	12563.5 	0 	
0.000158333 	8.49228e-09 	0.92 	0.04 	0.04 	-0.125228 	3.96763 	
4.09286 	4.15572 	-0.0628628 	-2.22058 	6.33753e-08 	13.3399 	6.66015 	
6.19159e-10 	16892.6 	85.9589 	128.297 	0.3 	2.33333 	-0.951675 	1.11111e-05 	
0.00017508 	0.000355465 	0.0020084 	12573.8 	0.0243192 	6.5129 	12567.3 	12567.3 	0 	
0.000169444 	6.94986e-09 	0.92 	0.04 	0.04 	-0.125228 	3.96762 	
4.09285 	4.15572 	-0.0628751 	-2.22121 	5.18647e-08 	11.119 	8.88104 	
6.19338e-10 	16892.6 	85.9589 	128.297 	0.3 	2.33333 	-0.951947 	1.11111e-05 	
0.00017508 	0.000355465 	0.00201012 	12590.4 	0.0169468 	11.4438 	12578.9 	12578.9 	0 	
0.000180556 	5.40688e-09 	0.92 	0.04 	0.04 	-0.125228 	3.9676 	
4.09283 	4.15572 	-0.0628909 	-2.22202 	4.03498e-08 	8.89734 	11.1027 	
6.19567e-10 	16892.6 	85.9589 	128.297 	0.3 	2.33333 	-0.952296 	1.11111e-05 	
0.00017508 	0.000355465 	0.00201112 	12602.3 	0.0109116 	17.7862 	12584.5 	12584.5 	0 	
0.000191667 	3.8632e-09 	0.92 	0.04 	0.04 	-0.125228 	3.96758 	
4.09281 	4.15572 	-0.0629103 	-2.22302 	2.88299e-08 	6.67482 	13.3252 	
6.19849e-10 	16892.6 	85.9589 	128.297 	0.3 	2.33333 	-0.952723 	1.11111e-05 	
0.00017508 	0.000355465 	0.00201696 	12618.5 	0.00621452 	25.5423 	12592.9 	12592.9 	0 	
0.000202778 	2.3187e-09 	0.92 	0.04 	0.04 	-0.125228 	3.96756 	
4.09279 	4.15572 	-0.0629332 	-2.2242 	1.73038e-08 	4.45121 	15.5488 	
6.20181e-10 	16892.6 	85.9589 	128.297 	0.3 	2.33333 	-0.953228 	1.11111e-05 	
0.00017508 	0.000355465 	0.00201904 	12639 	0.00285695 	34.7145 	12604.2 	12604.2 	0 	
0.000213889 	7.73257e-10 	0.92 	0.04 	0.04 	-0.125228 	3.96753 	
4.09276 	4.15572 	-0.0629596 	-2.22556 	5.77061e-09 	2.22633 	17.7737 	
6.20566e-10 	16892.6 	85.9589 	128.297 	0.3 	2.33333 	-0.953811 	1.11111e-05 	
0.00017508 	0.000355465 	0.00202381 	12665.3 	0.000840773 	45.3059 	12619.9 	12619.9 	0 	
0.000225 	0 	0.92 	0.04 	0.04 	-0.125228 	3.9675 	
4.09273 	4.15572 	-0.0629896 	-1.11355 	5.77061e-09 	0.556776 	19.4432 	
3.10501e-10 	8446.31 	42.9794 	64.1484 	0.3 	1.16667 	-0.954473 	5.55556e-06 	
8.75398e-05 	0.000177732 	0.00202531 	12678.5 	0.000168295 	50.9568 	12627.6 	12627.6 	0 	
ZONE T = "t = 2.37813e-07 [s]" I = 10 SOLUTIONTIME = 2.3781250000000E-07
0.000125 	1.31174e-08 	0.92 	0.04 	0.04 	-0.125227 	3.96765 	
4.09287 	4.15572 	-0.062847 	-1.10988 	9.79293e-08 	19.4451 	0.554941 	
4.50288e-10 	8446.31 	42.9794 	64.1484 	0.3 	1.16667 	-0.951328 	5.55556e-06 	
8.75398e-05 	0.000177732 	0.00295909 	12559 	0.0484305 	0.175977 	12558.8 	12558.8 	0 	
0.000136111 	1.15759e-08 	0.92 	0.04 	0.04 	-0.125227 	3.96764 	
4.09287 	4.15572 	-0.0628487 	-2.21985 	8.63877e-08 	17.7802 	2.21981 	
9.00613e-10 	16892.6 	85.9589 	128.297 	0.3 	2.33333 	-0.951366 	1.11111e-05 	
0.00017508 	0.000355465 	0.00296149 	12559.6 	0.0430736 	0.879927 	12558.7 	12558.7 	0 	
0.000147222 	1.00343e-08 	0.92 	0.04 	0.04 	-0.125228 	3.96764 	
4.09287 	4.15572 	-0.062854 	-2.22012 	7.48826e-08 	15.5602 	4.4398 	
9.00724e-10 	16892.6 	85.9589 	128.297 	0.3 	2.33333 	-0.951482 	1.11111e-05 	
0.00017508 	0.000355465 	0.00296029 	12554.8 	0.0330282 	2.99201 	12551.7 	12551.7 	0 	
0.000158333 	8.49228e-09 	0.92 	0.04 	0.04 	-0.125228 	3.96763 	
4.09286 	4.15572 	-0.0628628 	-2.22058 	6.33753e-08 	13.3399 	6.66015 	
9.00909e-10 	16892.6 	85.9589 	128.297 	0.3 	2.33333 	-0.951675 	1.11111e-05 	
0.00017508 	0.000355465 	0.00296322 	12573.8 	0.0243192 	6.5129 	12567.3 	12567.3 	0 	
0.000169444 	6.94986e-09 	0.92 	0.04 	0.04 	-0.125228 	3.96762 	
4.09285 	4.15572 	-0.0628751 	-2.22121 	5.18647e-08 	11.119 	8.88104 	
9.01168e-10 	16892.6 	85.9589 	128.297 	0.3 	2.33333 	-0.951947 	1.11111e-05 	
0.00017508 	0.000355465 	0.00296546 	12580.6 	0.0169468 	11.4438 	12569.2 	12569.2 	0 	
0.000180556 	5.40688e-09 	0.92 	0.04 	0.04 	-0.125228 	3.9676 	
4.09283 	4.15572 	-0.0628909 	-2.22202 	4.03499e-08 	8.89734 	11.1027 	
9.01501e-10 	16892.6 	85.9589 	128.297 	0.3 	2.33333 	-0.952296 	1.11111e-05 	
0.00017508 	0.000355465 	0.00296787 	12599.2 	0.0109116 	17.7862 	12581.4 	12581.4 	0 	
0.000191667 	3.8632e-09 	0.92 	0.04 	0.04 	-0.125228 	3.96758 	
4.09281 	4.15572 	-0.0629103 	-2.22302 	2.88299e-08 	6.67482 	13.3252 	
9.01909e-10 	16892.6 	85.9589 	128.297 	0.3 	2.33333 	-0.952723 	1.11111e-05 	
0.00017508 	0.000355465 	0.00297428 	12606.6 	0.00621452 	25.5423 	12581.1 	12581.1 	0 	
0.000202778 	2.3187e-09 	0.92 	0.04 	0.04 	-0.125228 	3.96756 	
4.09279 	4.15572 	-0.0629332 	-2.2242 	1.73038e-08 	4.45121 	15.5488 	
9.02391e-10 	16892.6 	85.9589 	128.297 	0.3 	2.33333 	-0.953228 	1.11111e-05 	
0.00017508 	0.000355465 	0.00297836 	12633.1 	0.00285695 	34.7145 	12598.3 	12598.3 	0 	
0.000213889 	7.73257e-10 	0.92 	0.04 	0.04 	-0.125228 	3.96753 	