TITLE = "Solution on Domain BulkDomain1D_0"
VARIABLES = "x [m]"  
"Vel_axial(0)" 	"MF_sp(ECDMC)" 	"MF_sp(Li+)" 	"MF_sp(PF6-)" 	"Volt(Electroly)" 	"Volt(AnodeVolt)" 	
"Potential Drop Electrode-Electrolyte [V]" 	"Surf_0 Equilibrium Potential Drop Electrode-Electrolyte [V]" 	"Overpotential_0 [V]" 	"Current Source [A/m^2]" 	"Li+ flux [kmol/m^2/s]" 	"Electrolyte Current [A/m^2]" 	"Electrode Current [A/m^2]" 	
"Capacity discharged [A-s]" 	"Depth of discharge [-]" 	"Capacity remaining [A-s]" 	"Initial capacity [A-s]" 	"Porosity []" 	"Surface Area [m2/m2] (area per area)" 	"Specific current (per particle area) [A/m^2]" 	"Control volume thickness [m]" 	
"Moles Li_C6-bulk [mol/m^2] (per electrode area)" 	"Moles V_C6-bulk [mol/m^2] (per electrode area)" 	

ZONE T = "t = 0 [s]" I = 10 SOLUTIONTIME = 0.0000000000000E+00
0 	0 	0.92 	0.04 	0.04 	-0.07 	0 	
0 	0 	0 	0 	0 	0 	175.708 	
0 	0 	0 	0 	0.35 	1.38667 	253.426 	7.11111e-06 	
0.000516148 	0.000254222 	
1.42222e-05 	0 	0.92 	0.04 	0.04 	-0.07 	0 	
0 	0 	0 	0 	0 	0 	-0 	
0 	0 	0 	0 	0.35 	2.77333 	253.426 	1.42222e-05 	
0.0010323 	0.000508444 	
2.84444e-05 	0 	0.92 	0.04 	0.04 	-0.07 	0 	
0 	0 	0 	0 	0 	0 	-0 	
0 	0 	0 	0 	0.35 	2.77333 	253.426 	1.42222e-05 	
0.0010323 	0.000508444 	
4.26667e-05 	0 	0.92 	0.04 	0.04 	-0.07 	0 	
0 	0 	0 	0 	0 	0 	-0 	
0 	0 	0 	0 	0.35 	2.77333 	253.426 	1.42222e-05 	
0.0010323 	0.000508444 	
5.68889e-05 	0 	0.92 	0.04 	0.04 	-0.07 	0 	
0 	0 	0 	0 	0 	0 	-0 	
0 	0 	0 	0 	0.35 	2.77333 	253.426 	1.42222e-05 	
0.0010323 	0.000508444 	
7.11111e-05 	0 	0.92 	0.04 	0.04 	-0.07 	0 	
0 	0 	0 	0 	0 	0 	-0 	
0 	0 	0 	0 	0.35 	2.77333 	253.426 	1.42222e-05 	
0.0010323 	0.000508444 	
8.53333e-05 	0 	0.92 	0.04 	0.04 	-0.07 	0 	
0 	0 	0 	0 	0 	0 	-0 	
0 	0 	0 	0 	0.35 	2.77333 	253.426 	1.42222e-05 	
0.0010323 	0.000508444 	
9.95556e-05 	0 	0.92 	0.04 	0.04 	-0.07 	0 	
0 	0 	0 	0 	0 	0 	-0 	
0 	0 	0 	0 	0.35 	2.77333 	253.426 	1.42222e-05 	
0.0010323 	0.000508444 	
0.000113778 	0 	0.92 	0.04 	0.04 	-0.07 	0 	
0 	0 	0 	0 	0 	0 	-0 	
0 	0 	0 	0 	0.35 	2.77333 	253.426 	1.42222e-05 	
0.0010323 	0.000508444 	
0.000128 	0 	0.92 	0.04 	0.04 	-0.07 	0 	
0 	0 	0 	0 	0 	175.708 	0 	
0 	0 	0 	0 	0.35 	1.38667 	253.426 	7.11111e-06 	
0.000516148 	0.000254222 	
ZONE T = "t = 1e-08 [s]" I = 10 SOLUTIONTIME = 1.0000000000000E-08
0 	7.71406e-10 	0.92 	0.04 	0.04 	-0.0150937 	0 	
0.07 	-0.00293862 	0.0729386 	351.417 	-0 	0.555443 	19.4446 	
0 	24528.7 	124.816 	186.292 	0.35 	1.38667 	0.801119 	7.11111e-06 	
0.000516148 	0.000254222 	
1.42222e-05 	2.31423e-09 	0.92 	0.04 	0.04 	-0.0150937 	-2.68645e-10 	
0.07 	-0.00293862 	0.0729386 	702.834 	-0 	2.22178 	17.7782 	
0 	49057.4 	249.631 	372.584 	0.35 	2.77333 	0.801125 	1.42222e-05 	
0.0010323 	0.000508444 	
2.84444e-05 	3.85708e-09 	0.92 	0.04 	0.04 	-0.0150937 	-5.05692e-10 	
0.07 	-0.00293862 	0.0729386 	702.834 	-0 	4.44359 	15.5564 	
0 	49057.4 	249.631 	372.584 	0.35 	2.77333 	0.801142 	1.42222e-05 	
0.0010323 	0.000508444 	
4.26667e-05 	5.39999e-09 	0.92 	0.04 	0.04 	-0.0150937 	-7.11139e-10 	
0.07 	-0.00293862 	0.0729386 	702.834 	-0 	6.66546 	13.3345 	
0 	49057.4 	249.631 	372.584 	0.35 	2.77333 	0.801172 	1.42222e-05 	
0.0010323 	0.000508444 	
5.68889e-05 	6.94299e-09 	0.92 	0.04 	0.04 	-0.0150937 	-8.84985e-10 	
0.07 	-0.00293862 	0.0729386 	702.834 	-0 	8.88744 	11.1126 	
0 	49057.4 	249.631 	372.584 	0.35 	2.77333 	0.801214 	1.42222e-05 	
0.0010323 	0.000508444 	
7.11111e-05 	8.48608e-09 	0.92 	0.04 	0.04 	-0.0150937 	-1.02723e-09 	
0.07 	-0.00293862 	0.0729386 	702.834 	-0 	11.1095 	8.89045 	
0 	49057.4 	249.631 	372.584 	0.35 	2.77333 	0.801268 	1.42222e-05 	
0.0010323 	0.000508444 	
8.53333e-05 	1.00293e-08 	0.92 	0.04 	0.04 	-0.0150938 	-1.13787e-09 	
0.07 	-0.00293862 	0.0729386 	702.834 	-0 	13.3318 	6.66818 	
0 	49057.4 	249.631 	372.584 	0.35 	2.77333 	0.801335 	1.42222e-05 	
0.0010323 	0.000508444 	
9.95556e-05 	1.15727e-08 	0.92 	0.04 	0.04 	-0.0150938 	-1.2169e-09 	
0.07 	-0.00293862 	0.0729386 	702.834 	-0 	15.5543 	4.4457 	
0 	49057.4 	249.631 	372.584 	0.35 	2.77333 	0.801414 	1.42222e-05 	
0.0010323 	0.000508444 	
0.000113778 	1.31162e-08 	0.92 	0.04 	0.04 	-0.0150938 	-1.26432e-09 	
0.07 	-0.00293862 	0.0729386 	702.834 	-0 	17.777 	2.22298 	
0 	49057.4 	249.631 	372.584 	0.35 	2.77333 	0.801505 	1.42222e-05 	
0.0010323 	0.000508444 	
0.000128 	1.38881e-08 	0.92 	0.04 	0.04 	-0.0150938 	-1.28013e-09 	
0.07 	-0.00293862 	0.0729386 	351.417 	-0 	19.4442 	0.555782 	
0 	24528.7 	124.816 	186.292 	0.35 	1.38667 	0.801609 	7.11111e-06 	
0.000516148 	0.000254222 	
ZONE T = "t = 2e-08 [s]" I = 10 SOLUTIONTIME = 2.0000000000000E-08
0 	7.71452e-10 	0.92 	0.04 	0.04 	0.00262235 	0 	
0.0150937 	-0.00293862 	0.0180323 	1.11089 	5.75676e-09 	0.555476 	19.4446 	
2.78421e-11 	24528.7 	124.816 	186.292 	0.35 	1.38667 	0.801342 	7.11111e-06 	
0.000516148 	0.000254222 	
1.42222e-05 	2.31436e-09 	0.92 	0.04 	0.04 	0.00262235 	-2.68644e-10 	
0.0150937 	-0.00293862 	0.0180323 	2.22179 	1.72704e-08 	2.22191 	17.7781 	
5.56846e-11 	49057.4 	249.631 	372.584 	0.35 	2.77333 	0.801346 	1.42222e-05 	
0.0010323 	0.000508444 	
2.84444e-05 	3.8573e-09 	0.92 	0.04 	0.04 	0.00262234 	-5.05688e-10 	
0.0150937 	-0.00293862 	0.0180323 	2.22183 	2.87842e-08 	4.44384 	15.5562 	
5.56858e-11 	49057.4 	249.631 	372.584 	0.35 	2.77333 	0.801358 	1.42222e-05 	
0.0010323 	0.000508444 	
4.26667e-05 	5.40027e-09 	0.92 	0.04 	0.04 	0.00262234 	-7.11131e-10 	
0.0150937 	-0.00293862 	0.0180323 	2.22192 	4.02985e-08 	6.66582 	13.3342 	
5.56879e-11 	49057.4 	249.631 	372.584 	0.35 	2.77333 	0.801379 	1.42222e-05 	
0.0010323 	0.000508444 	
5.68889e-05 	6.9433e-09 	0.92 	0.04 	0.04 	0.00262232 	-8.84971e-10 	
0.0150937 	-0.00293862 	0.0180323 	2.22203 	5.18133e-08 	8.88786 	11.1121 	
5.56908e-11 	49057.4 	249.631 	372.584 	0.35 	2.77333 	0.801409 	1.42222e-05 	
0.0010323 	0.000508444 	
7.11111e-05 	8.48641e-09 	0.92 	0.04 	0.04 	0.00262231 	-1.02721e-09 	
0.0150937 	-0.00293862 	0.0180324 	2.22218 	6.3329e-08 	11.11 	8.89 	
5.56946e-11 	49057.4 	249.631 	372.584 	0.35 	2.77333 	0.801448 	1.42222e-05 	
0.0010323 	0.000508444 	
8.53333e-05 	1.00296e-08 	0.92 	0.04 	0.04 	0.00262229 	-1.13784e-09 	
0.0150938 	-0.00293862 	0.0180324 	2.22237 	7.48456e-08 	13.3323 	6.66773 	
5.56992e-11 	49057.4 	249.631 	372.584 	0.35 	2.77333 	0.801495 	1.42222e-05 	
0.0010323 	0.000508444 	
9.95556e-05 	1.15729e-08 	0.92 	0.04 	0.04 	0.00262227 	-1.21687e-09 	
0.0150938 	-0.00293862 	0.0180324 	2.22259 	8.63634e-08 	15.5547 	4.44533 	
5.57047e-11 	49057.4 	249.631 	372.584 	0.35 	2.77333 	0.801551 	1.42222e-05 	
0.0010323 	0.000508444 	
0.000113778 	1.31163e-08 	0.92 	0.04 	0.04 	0.00262224 	-1.26429e-09 	
0.0150938 	-0.00293862 	0.0180324 	2.22284 	9.78855e-08 	17.7772 	2.22276 	
5.57111e-11 	49057.4 	249.631 	372.584 	0.35 	2.77333 	0.801615 	1.42222e-05 	
0.0010323 	0.000508444 	
0.000128 	1.38881e-08 	0.92 	0.04 	0.04 	0.00262221 	-1.28009e-09 	
0.0150938 	-0.00293862 	0.0180324 	1.11156 	9.78855e-08 	19.4444 	0.555716 	
2.78591e-11 	24528.7 	124.816 	186.292 	0.35 	1.38667 	0.801688 	7.11111e-06 	
0.000516148 	0.000254222 	
ZONE T = "t = 3e-08 [s]" I = 10 SOLUTIONTIME = 3.0000000000000E-08
0 	7.71452e-10 	0.92 	0.04 	0.04 	0.00262243 	0 	
-0.00262235 	-0.00293862 	0.000316269 	1.11119 	5.7571e-09 	0.555476 	19.4445 	
5.5692e-11 	24528.7 	124.816 	186.292 	0.35 	1.38667 	0.801143 	7.11111e-06 	
0.000516148 	0.000254222 	
1.42222e-05 	2.31436e-09 	0.92 	0.04 	0.04 	0.00262243 	-2.68644e-10 	
-0.00262235 	-0.00293862 	0.00031627 	2.2224 	1.72714e-08 	2.22191 	17.7781 	
1.11385e-10 	49057.4 	249.631 	372.584 	0.35 	2.77333 	0.801146 	1.42222e-05 	
0.0010323 	0.000508444 	
2.84444e-05 	3.8573e-09 	0.92 	0.04 	0.04 	0.00262242 	-5.05688e-10 	
-0.00262234 	-0.00293862 	0.000316275 	2.22243 	2.87858e-08 	4.44384 	15.5562 	
1.11387e-10 	49057.4 	249.631 	372.584 	0.35 	2.77333 	0.801159 	1.42222e-05 	
0.0010323 	0.000508444 	
4.26667e-05 	5.40027e-09 	0.92 	0.04 	0.04 	0.00262241 	-7.11131e-10 	
-0.00262234 	-0.00293862 	0.000316284 	2.22249 	4.03005e-08 	6.66582 	13.3342 	
1.1139e-10 	49057.4 	249.631 	372.584 	0.35 	2.77333 	0.80118 	1.42222e-05 	
0.0010323 	0.000508444 	
5.68889e-05 	6.9433e-09 	0.92 	0.04 	0.04 	0.0026224 	-8.84971e-10 	
-0.00262232 	-0.00293862 	0.000316295 	2.22257 	5.18157e-08 	8.88786 	11.1121 	
1.11395e-10 	49057.4 	249.631 	372.584 	0.35 	2.77333 	0.801209 	1.42222e-05 	
0.0010323 	0.000508444 	
7.11111e-05 	8.48641e-09 	0.92 	0.04 	0.04 	0.00262239 	-1.02721e-09 	
-0.00262231 	-0.00293862 	0.00031631 	2.22268 	6.33314e-08 	11.11 	8.89 	
1.11402e-10 	49057.4 	249.631 	372.584 	0.35 	2.77333 	0.801248 	1.42222e-05 	
0.0010323 	0.000508444 	
8.53333e-05 	1.00296e-08 	0.92 	0.04 	0.04 	0.00262237 	-1.13784e-09 	
-0.00262229 	-0.00293862 	0.000316329 	2.22281 	7.48478e-08 	13.3323 	6.66773 	
1.1141e-10 	49057.4 	249.631 	372.584 	0.35 	2.77333 	0.801295 	1.42222e-05 	
0.0010323 	0.000508444 	
9.95556e-05 	1.15729e-08 	0.92 	0.04 	0.04 	0.00262235 	-1.21687e-09 	
-0.00262227 	-0.00293862 	0.000316351 	2.22297 	8.6365e-08 	15.5547 	4.44533 	
1.11419e-10 	49057.4 	249.631 	372.584 	0.35 	2.77333 	0.801351 	1.42222e-05 	
0.0010323 	0.000508444 	
0.000113778 	1.31163e-08 	0.92 	0.04 	0.04 	0.00262232 	-1.26429e-09 	
-0.00262224 	-0.00293862 	0.000316377 	2.22315 	9.78893e-08 	17.7772 	2.22276 	
1.1143e-10 	49057.4 	249.631 	372.584 	0.35 	2.77333 	0.801416 	1.42222e-05 	
0.0010323 	0.000508444 	
0.000128 	1.38881e-08 	0.92 	0.04 	0.04 	0.00262229 	-1.28009e-09 	
-0.00262221 	-0.00293862 	0.000316406 	1.11167 	9.78893e-08 	19.4443 	0.555716 	
5.5721e-11 	24528.7 	124.816 	186.292 	0.35 	1.38667 	0.801489 	7.11111e-06 	
0.000516148 	0.000254222 	
ZONE T = "t = 3.5e-08 [s]" I = 10 SOLUTIONTIME = 3.5000000000000E-08
0 	7.71452e-10 	0.92 	0.04 	0.04 	0.00262242 	0 	
-0.00262243 	-0.00293862 	0.00031619 	1.11092 	5.7571e-09 	0.555476 	19.4445 	
8.35349e-11 	24528.7 	124.816 	186.292 	0.35 	1.38667 	0.801167 	7.11111e-06 	
0.000516148 	0.000254222 	
1.42222e-05 	2.31436e-09 	0.92 	0.04 	0.04 	0.00262242 	-2.68644e-10 	
-0.00262243 	-0.00293862 	0.000316192 	2.22185 	1.72714e-08 	2.22191 	17.7781 	
1.67071e-10 	49057.4 	249.631 	372.584 	0.35 	2.77333 	0.801171 	1.42222e-05 	
0.0010323 	0.000508444 	
2.84444e-05 	3.8573e-09 	0.92 	0.04 	0.04 	0.00262241 	-5.05688e-10 	
-0.00262242 	-0.00293862 	0.000316196 	2.22188 	2.87858e-08 	4.44384 	15.5562 	
1.67074e-10 	49057.4 	249.631 	372.584 	0.35 	2.77333 	0.801183 	1.42222e-05 	
0.0010323 	0.000508444 	
4.26667e-05 	5.40027e-09 	0.92 	0.04 	0.04 	0.0026224 	-7.11131e-10 	
-0.00262242 	-0.00293862 	0.000316205 	2.22194 	4.03005e-08 	6.66582 	13.3342 	
1.67079e-10 	49057.4 	249.631 	372.584 	0.35 	2.77333 	0.801204 	1.42222e-05 	
0.0010323 	0.000508444 	
5.68889e-05 	6.9433e-09 	0.92 	0.04 	0.04 	0.00262239 	-8.84971e-10 	
-0.0026224 	-0.00293862 	0.000316216 	2.22202 	5.18157e-08 	8.88786 	11.1121 	
1.67086e-10 	49057.4 	249.631 	372.584 	0.35 	2.77333 	0.801234 	1.42222e-05 	
0.0010323 	0.000508444 	
7.11111e-05 	8.48641e-09 	0.92 	0.04 	0.04 	0.00262238 	-1.02721e-09 	
-0.00262239 	-0.00293862 	0.000316232 	2.22213 	6.33314e-08 	11.11 	8.89 	
1.67095e-10 	49057.4 	249.631 	372.584 	0.35 	2.77333 	0.801272 	1.42222e-05 	
0.0010323 	0.000508444 	
8.53333e-05 	1.00296e-08 	0.92 	0.04 	0.04 	0.00262236 	-1.13784e-09 	
-0.00262237 	-0.00293862 	0.00031625 	2.22226 	7.48478e-08 	13.3323 	6.66773 	
1.67106e-10 	49057.4 	249.631 	372.584 	0.35 	2.77333 	0.801319 	1.42222e-05 	
0.0010323 	0.000508444 	
9.95556e-05 	1.15729e-08 	0.92 	0.04 	0.04 	0.00262234 	-1.21687e-09 	
-0.00262235 	-0.00293862 	0.000316272 	2.22241 	8.6365e-08 	15.5547 	4.44533 	
1.67119e-10 	49057.4 	249.631 	372.584 	0.35 	2.77333 	0.801375 	1.42222e-05 	
0.0010323 	0.000508444 	
0.000113778 	1.31163e-08 	0.92 	0.04 	0.04 	0.00262231 	-1.26429e-09 	
-0.00262232 	-0.00293862 	0.000316298 	2.22259 	9.78924e-08 	17.7772 	2.22276 	
1.67135e-10 	49057.4 	249.631 	372.584 	0.35 	2.77333 	0.80144 	1.42222e-05 	
0.0010323 	0.000508444 	
0.000128 	1.38881e-08 	0.92 	0.04 	0.04 	0.00262228 	-1.28009e-09 	
-0.00262229 	-0.00293862 	0.000316327 	1.1114 	9.78924e-08 	19.4443 	0.555716 	
8.3576e-11 	24528.7 	124.816 	186.292 	0.35 	1.38667 	0.801513 	7.11111e-06 	
0.000516148 	0.000254222 	
ZONE T = "t = 4e-08 [s]" I = 10 SOLUTIONTIME = 4.0000000000000E-08
0 	7.71452e-10 	0.92 	0.04 	0.04 	0.00262242 	0 	
-0.00262242 	-0.00293862 	0.0003162 	1.11095 	5.7571e-09 	0.555476 	19.4445 	
9.74568e-11 	24528.7 	124.816 	186.292 	0.35 	1.38667 	0.801167 	7.11111e-06 	
0.000516148 	0.000254222 	
1.42222e-05 	2.31436e-09 	0.92 	0.04 	0.04 	0.00262242 	-2.68644e-10 	
-0.00262242 	-0.00293862 	0.000316201 	2.22191 	1.72714e-08 	2.22191 	17.7781 	
1.94915e-10 	49057.4 	249.631 	372.584 	0.35 	2.77333 	0.801171 	1.42222e-05 	
0.0010323 	0.000508444 	
2.84444e-05 	3.8573e-09 	0.92 	0.04 	0.04 	0.00262241 	-5.05688e-10 	
-0.00262241 	-0.00293862 	0.000316206 	2.22195 	2.87858e-08 	4.44384 	15.5562 	
1.94918e-10 	49057.4 	249.631 	372.584 	0.35 	2.77333 	0.801183 	1.42222e-05 	
0.0010323 	0.000508444 	
4.26667e-05 	5.40027e-09 	0.92 	0.04 	0.04 	0.0026224 	-7.11131e-10 	
-0.00262241 	-0.00293862 	0.000316214 	2.22201 	4.03005e-08 	6.66582 	13.3342 	
1.94924e-10 	49057.4 	249.631 	372.584 	0.35 	2.77333 	0.801204 	1.42222e-05 	
0.0010323 	0.000508444 	
5.68889e-05 	6.9433e-09 	0.92 	0.04 	0.04 	0.00262239 	-8.84971e-10 	
-0.00262239 	-0.00293862 	0.000316226 	2.22209 	5.18157e-08 	8.88786 	11.1121 	
1.94932e-10 	49057.4 	249.631 	372.584 	0.35 	2.77333 	0.801234 	1.42222e-05 	
0.0010323 	0.000508444 	
7.11111e-05 	8.48641e-09 	0.92 	0.04 	0.04 	0.00262238 	-1.02721e-09 	
-0.00262238 	-0.00293862 	0.000316241 	2.2222 	6.33314e-08 	11.11 	8.89 	
1.94942e-10 	49057.4 	249.631 	372.584 	0.35 	2.77333 	0.801272 	1.42222e-05 	
0.0010323 	0.000508444 	
8.53333e-05 	1.00296e-08 	0.92 	0.04 	0.04 	0.00262236 	-1.13784e-09 	
-0.00262236 	-0.00293862 	0.00031626 	2.22233 	7.48478e-08 	13.3323 	6.66773 	
1.94955e-10 	49057.4 	249.631 	372.584 	0.35 	2.77333 	0.801319 	1.42222e-05 	
0.0010323 	0.000508444 	
9.95556e-05 	1.15729e-08 	0.92 	0.04 	0.04 	0.00262234 	-1.21687e-09 	
-0.00262234 	-0.00293862 	0.000316282 	2.22248 	8.6365e-08 	15.5547 	4.44533 	
1.9497e-10 	49057.4 	249.631 	372.584 	0.35 	2.77333 	0.801375 	1.42222e-05 	
0.0010323 	0.000508444 	
0.000113778 	1.31163e-08 	0.92 	0.04 	0.04 	0.00262231 	-1.26429e-09 	
-0.00262231 	-0.00293862 	0.000316307 	2.22266 	9.78939e-08 	17.7772 	2.22276 	
1.94988e-10 	49057.4 	249.631 	372.584 	0.35 	2.77333 	0.80144 	1.42222e-05 	
0.0010323 	0.000508444 	
0.000128 	1.38881e-08 	0.92 	0.04 	0.04 	0.00262228 	-1.28009e-09 	
-0.00262228 	-0.00293862 	0.000316336 	1.11143 	9.78939e-08 	19.4443 	0.555716 	
9.75039e-11 	24528.7 	124.816 	186.292 	0.35 	1.38667 	0.801513 	7.11111e-06 	
0.000516148 	0.000254222 	
ZONE T = "t = 4.5e-08 [s]" I = 10 SOLUTIONTIME = 4.5000000000000E-08
0 	7.71452e-10 	0.92 	0.04 	0.04 	0.00262242 	0 	
-0.00262242 	-0.00293862 	0.0003162 	1.11095 	5.7571e-09 	0.555476 	19.4445 	
1.11379e-10 	24528.7 	124.816 	186.292 	0.35 	1.38667 	0.801167 	7.11111e-06 	
0.000516148 	0.000254222 	
1.42222e-05 	2.31436e-09 	0.92 	0.04 	0.04 	0.00262242 	-2.68644e-10 	
-0.00262242 	-0.00293862 	0.000316201 	2.22191 	1.72714e-08 	2.22191 	17.7781 	
2.22759e-10 	49057.4 	249.631 	372.584 	0.35 	2.77333 	0.801171 	1.42222e-05 	
0.0010323 	0.000508444 	
2.84444e-05 	3.8573e-09 	0.92 	0.04 	0.04 	0.00262241 	-5.05688e-10 	
-0.00262241 	-0.00293862 	0.000316206 	2.22195 	2.87858e-08 	4.44384 	15.5562 	
2.22762e-10 	49057.4 	249.631 	372.584 	0.35 	2.77333 	0.801183 	1.42222e-05 	
0.0010323 	0.000508444 	
4.26667e-05 	5.40027e-09 	0.92 	0.04 	0.04 	0.0026224 	-7.11131e-10 	
-0.00262241 	-0.00293862 	0.000316214 	2.22201 	4.03005e-08 	6.66582 	13.3342 	
2.22769e-10 	49057.4 	249.631 	372.584 	0.35 	2.77333 	0.801204 	1.42222e-05 	
0.0010323 	0.000508444 	
5.68889e-05 	6.9433e-09 	0.92 	0.04 	0.04 	0.00262239 	-8.84971e-10 	
-0.00262239 	-0.00293862 	0.000316226 	2.22209 	5.18157e-08 	8.88786 	11.1121 	
2.22778e-10 	49057.4 	249.631 	372.584 	0.35 	2.77333 	0.801234 	1.42222e-05 	
0.0010323 	0.000508444 	
7.11111e-05 	8.48641e-09 	0.92 	0.04 	0.04 	0.00262238 	-1.02721e-09 	
-0.00262238 	-0.00293862 	0.000316241 	2.2222 	6.33314e-08 	11.11 	8.89 	
2.2279e-10 	49057.4 	249.631 	372.584 	0.35 	2.77333 	0.801272 	1.42222e-05 	
0.0010323 	0.000508444 	
8.53333e-05 	1.00296e-08 	0.92 	0.04 	0.04 	0.00262236 	-1.13784e-09 	
-0.00262236 	-0.00293862 	0.00031626 	2.22233 	7.48478e-08 	13.3323 	6.66773 	
2.22804e-10 	49057.4 	249.631 	372.584 	0.35 	2.77333 	0.801319 	1.42222e-05 	
0.0010323 	0.000508444 	
9.95556e-05 	1.15729e-08 	0.92 	0.04 	0.04 	0.00262234 	-1.21687e-09 	
-0.00262234 	-0.00293862 	0.000316282 	2.22248 	8.6365e-08 	15.5547 	4.44533 	
2.22821e-10 	49057.4 	249.631 	372.584 	0.35 	2.77333 	0.801375 	1.42222e-05 	
0.0010323 	0.000508444 	
0.000113778 	1.31163e-08 	0.92 	0.04 	0.04 	0.00262231 	-1.26429e-09 	
-0.00262231 	-0.00293862 	0.000316307 	2.22266 	9.78955e-08 	17.7772 	2.22276 	
2.22841e-10 	49057.4 	249.631 	372.584 	0.35 	2.77333 	0.80144 	1.42222e-05 	
0.0010323 	0.000508444 	
0.000128 	1.38881e-08 	0.92 	0.04 	0.04 	0.00262228 	-1.28009e-09 	
-0.00262228 	-0.00293862 	0.000316336 	1.11143 	9.78955e-08 	19.4443 	0.555716 	
1.11432e-10 	24528.7 	124.816 	186.292 	0.35 	1.38667 	0.801513 	7.11111e-06 	
0.000516148 	0.000254222 	
ZONE T = "t = 5.25e-08 [s]" I = 10 SOLUTIONTIME = 5.2500000000000E-08
0 	7.71452e-10 	0.92 	0.04 	0.04 	0.00262242 	0 	
-0.00262242 	-0.00293862 	0.0003162 	1.11095 	5.7571e-09 	0.555476 	19.4445 	
1.25301e-10 	24528.7 	124.816 	186.292 	0.35 	1.38667 	0.801167 	7.11111e-06 	
0.000516148 	0.000254222 	
1.42222e-05 	2.31436e-09 	0.92 	0.04 	0.04 	0.00262242 	-2.68644e-10 	
-0.00262242 	-0.00293862 	0.000316201 	2.22191 	1.72714e-08 	2.22191 	17.7781 	
2.50602e-10 	49057.4 	249.631 	372.584 	0.35 	2.77333 	0.801171 	1.42222e-05 	
0.0010323 	0.000508444 	
2.84444e-05 	3.8573e-09 	0.92 	0.04 	0.04 	0.00262241 	-5.05688e-10 	
-0.00262241 	-0.00293862 	0.000316206 	2.22195 	2.87858e-08 	4.44384 	15.5562 	
2.50607e-10 	49057.4 	249.631 	372.584 	0.35 	2.77333 	0.801183 	1.42222e-05 	
0.0010323 	0.000508444 	
4.26667e-05 	5.40027e-09 	0.92 	0.04 	0.04 	0.0026224 	-7.11131e-10 	
-0.00262241 	-0.00293862 	0.000316214 	2.22201 	4.03005e-08 	6.66582 	13.3342 	
2.50614e-10 	49057.4 	249.631 	372.584 	0.35 	2.77333 	0.801204 	1.42222e-05 	
0.0010323 	0.000508444 	
5.68889e-05 	6.9433e-09 	0.92 	0.04 	0.04 	0.00262239 	-8.84971e-10 	
-0.00262239 	-0.00293862 	0.000316226 	2.22209 	5.18157e-08 	8.88786 	11.1121 	
2.50624e-10 	49057.4 	249.631 	372.584 	0.35 	2.77333 	0.801234 	1.42222e-05 	
0.0010323 	0.000508444 	
7.11111e-05 	8.48641e-09 	0.92 	0.04 	0.04 	0.00262238 	-1.02721e-09 	
-0.00262238 	-0.00293862 	0.000316241 	2.2222 	6.33314e-08 	11.11 	8.89 	
2.50637e-10 	49057.4 	249.631 	372.584 	0.35 	2.77333 	0.801272 	1.42222e-05 	
0.0010323 	0.000508444 	
8.53333e-05 	1.00296e-08 	0.92 	0.04 	0.04 	0.00262236 	-1.13784e-09 	
-0.00262236 	-0.00293862 	0.00031626 	2.22233 	7.48478e-08 	13.3323 	6.66773 	
2.50653e-10 	49057.4 	249.631 	372.584 	0.35 	2.77333 	0.801319 	1.42222e-05 	
0.0010323 	0.000508444 	
9.95556e-05 	1.15729e-08 	0.92 	0.04 	0.04 	0.00262234 	-1.21687e-09 	
-0.00262234 	-0.00293862 	0.000316282 	2.22248 	8.6365e-08 	15.5547 	4.44533 	
2.50672e-10 	49057.4 	249.631 	372.584 	0.35 	2.77333 	0.801375 	1.42222e-05 	
0.0010323 	0.000508444 	
0.000113778 	1.31163e-08 	0.92 	0.04 	0.04 	0.00262231 	-1.26429e-09 	
-0.00262231 	-0.00293862 	0.000316307 	2.22266 	9.7897e-08 	17.7772 	2.22276 	
2.50694e-10 	49057.4 	249.631 	372.584 	0.35 	2.77333 	0.80144 	1.42222e-05 	
0.0010323 	0.000508444 	
0.000128 	1.38881e-08 	0.92 	0.04 	0.04 	0.00262228 	-1.28009e-09 	
-0.00262228 	-0.00293862 	0.000316336 	1.11143 	9.7897e-08 	19.4443 	0.555716 	
1.2536e-10 	24528.7 	124.816 	186.292 	0.35 	1.38667 	0.801513 	7.11111e-06 	
0.000516148 	0.000254222 	
ZONE T = "t = 6.375e-08 [s]" I = 10 SOLUTIONTIME = 6.3750000000000E-08
0 	7.71452e-10 	0.92 	0.04 	0.04 	0.00262242 	0 	
-0.00262242 	-0.00293862 	0.0003162 	1.11095 	5.7571e-09 	0.555476 	19.4445 	
1.46183e-10 	24528.7 	124.816 	186.292 	0.35 	1.38667 	0.801167 	7.11111e-06 	
0.000516148 	0.000254222 	
1.42222e-05 	2.31436e-09 	0.92 	0.04 	0.04 	0.00262242 	-2.68644e-10 	
-0.00262242 	-0.00293862 	0.000316201 	2.22191 	1.72714e-08 	2.22191 	17.7781 	
2.92368e-10 	49057.4 	249.631 	372.584 	0.35 	2.77333 	0.801171 	1.42222e-05 	
0.0010323 	0.000508444 	
2.84444e-05 	3.8573e-09 	0.92 	0.04 	0.04 	0.00262241 	-5.05688e-10 	
-0.00262241 	-0.00293862 	0.000316206 	2.22195 	2.87858e-08 	4.44384 	15.5562 	
2.92373e-10 	49057.4 	249.631 	372.584 	0.35 	2.77333 	0.801183 	1.42222e-05 	
0.0010323 	0.000508444 	
4.26667e-05 	5.40027e-09 	0.92 	0.04 	0.04 	0.0026224 	-7.11131e-10 	
-0.00262241 	-0.00293862 	0.000316214 	2.22201 	4.03005e-08 	6.66582 	13.3342 	
2.92381e-10 	49057.4 	249.631 	372.584 	0.35 	2.77333 	0.801204 	1.42222e-05 	
0.0010323 	0.000508444 	
5.68889e-05 	6.9433e-09 	0.92 	0.04 	0.04 	0.00262239 	-8.84971e-10 	
-0.00262239 	-0.00293862 	0.000316226 	2.22209 	5.18157e-08 	8.88786 	11.1121 	
2.92393e-10 	49057.4 	249.631 	372.584 	0.35 	2.77333 	0.801234 	1.42222e-05 	
0.0010323 	0.000508444 	
7.11111e-05 	8.48641e-09 	0.92 	0.04 	0.04 	0.00262238 	-1.02721e-09 	
-0.00262238 	-0.00293862 	0.000316241 	2.2222 	6.33314e-08 	11.11 	8.89 	
2.92408e-10 	49057.4 	249.631 	372.584 	0.35 	2.77333 	0.801272 	1.42222e-05 	
0.0010323 	0.000508444 	
8.53333e-05 	1.00296e-08 	0.92 	0.04 	0.04 	0.00262236 	-1.13784e-09 	
-0.00262236 	-0.00293862 	0.00031626 	2.22233 	7.48478e-08 	13.3323 	6.66773 	
2.92427e-10 	49057.4 	249.631 	372.584 	0.35 	2.77333 	0.801319 	1.42222e-05 	
0.0010323 	0.000508444 	
9.95556e-05 	1.15729e-08 	0.92 	0.04 	0.04 	0.00262234 	-1.21687e-09 	
-0.00262234 	-0.00293862 	0.000316282 	2.22248 	8.6365e-08 	15.5547 	4.44533 	
2.92449e-10 	49057.4 	249.631 	372.584 	0.35 	2.77333 	0.801375 	1.42222e-05 	
0.0010323 	0.000508444 	
0.000113778 	1.31163e-08 	0.92 	0.04 	0.04 	0.00262231 	-1.26429e-09 	
-0.00262231 	-0.00293862 	0.000316307 	2.22266 	9.78994e-08 	17.7772 	2.22276 	
2.92474e-10 	49057.4 	249.631 	372.584 	0.35 	2.77333 	0.80144 	1.42222e-05 	
0.0010323 	0.000508444 	
0.000128 	1.38881e-08 	0.92 	0.04 	0.04 	0.00262228 	-1.28009e-09 	
-0.00262228 	-0.00293862 	0.000316336 	1.11143 	9.78994e-08 	19.4443 	0.555716 	
1.46252e-10 	24528.7 	124.816 	186.292 	0.35 	1.38667 	0.801513 	7.11111e-06 	
0.000516148 	0.000254222 	
ZONE T = "t = 8.0625e-08 [s]" I = 10 SOLUTIONTIME = 8.0625000000000E-08
0 	7.71452e-10 	0.92 	0.04 	0.04 	0.00262242 	0 	
-0.00262242 	-0.00293862 	0.0003162 	1.11095 	5.7571e-09 	0.555476 	19.4445 	
1.77508e-10 	24528.7 	124.816 	186.292 	0.35 	1.38667 	0.801167 	7.11111e-06 	
0.000516148 	0.000254222 	
1.42222e-05 	2.31436e-09 	0.92 	0.04 	0.04 	0.00262242 	-2.68644e-10 	
-0.00262242 	-0.00293862 	0.000316201 	2.22191 	1.72714e-08 	2.22191 	17.7781 	
3.55017e-10 	49057.4 	249.631 	372.584 	0.35 	2.77333 	0.801171 	1.42222e-05 	
0.0010323 	0.000508444 	
2.84444e-05 	3.8573e-09 	0.92 	0.04 	0.04 	0.00262241 	-5.05688e-10 	
-0.00262241 	-0.00293862 	0.000316206 	2.22195 	2.87858e-08 	4.44384 	15.5562 	
3.55023e-10 	49057.4 	249.631 	372.584 	0.35 	2.77333 	0.801183 	1.42222e-05 	
0.0010323 	0.000508444 	
4.26667e-05 	5.40027e-09 	0.92 	0.04 	0.04 	0.0026224 	-7.11131e-10 	
-0.00262241 	-0.00293862 	0.000316214 	2.22201 	4.03005e-08 	6.66582 	13.3342 	
3.55033e-10 	49057.4 	249.631 	372.584 	0.35 	2.77333 	0.801204 	1.42222e-05 	
0.0010323 	0.000508444 	
5.68889e-05 	6.9433e-09 	0.92 	0.04 	0.04 	0.00262239 	-8.84971e-10 	
-0.00262239 	-0.00293862 	0.000316226 	2.22209 	5.18157e-08 	8.88786 	11.1121 	
3.55047e-10 	49057.4 	249.631 	372.584 	0.35 	2.77333 	0.801234 	1.42222e-05 	
0.0010323 	0.000508444 	
7.11111e-05 	8.48641e-09 	0.92 	0.04 	0.04 	0.00262238 	-1.02721e-09 	
-0.00262238 	-0.00293862 	0.000316241 	2.2222 	6.33314e-08 	11.11 	8.89 	
3.55065e-10 	49057.4 	249.631 	372.584 	0.35 	2.77333 	0.801272 	1.42222e-05 	
0.0010323 	0.000508444 	
8.53333e-05 	1.00296e-08 	0.92 	0.04 	0.04 	0.00262236 	-1.13784e-09 	
-0.00262236 	-0.00293862 	0.00031626 	2.22233 	7.48478e-08 	13.3323 	6.66773 	
3.55087e-10 	49057.4 	249.631 	372.584 	0.35 	2.77333 	0.801319 	1.42222e-05 	
0.0010323 	0.000508444 	
9.95556e-05 	1.15729e-08 	0.92 	0.04 	0.04 	0.00262234 	-1.21687e-09 	
-0.00262234 	-0.00293862 	0.000316282 	2.22248 	8.6365e-08 	15.5547 	4.44533 	
3.55114e-10 	49057.4 	249.631 	372.584 	0.35 	2.77333 	0.801375 	1.42222e-05 	
0.0010323 	0.000508444 	
0.000113778 	1.31163e-08 	0.92 	0.04 	0.04 	0.00262231 	-1.26429e-09 	
-0.00262231 	-0.00293862 	0.000316307 	2.22266 	9.79028e-08 	17.7772 	2.22276 	
3.55144e-10 	49057.4 	249.631 	372.584 	0.35 	2.77333 	0.80144 	1.42222e-05 	
0.0010323 	0.000508444 	
0.000128 	1.38881e-08 	0.92 	0.04 	0.04 	0.00262228 	-1.28009e-09 	
-0.00262228 	-0.00293862 	0.000316336 	1.11143 	9.79028e-08 	19.4443 	0.555716 	
1.77589e-10 	24528.7 	124.816 	186.292 	0.35 	1.38667 	0.801513 	7.11111e-06 	
0.000516148 	0.000254222 	
ZONE T = "t = 1.05938e-07 [s]" I = 10 SOLUTIONTIME = 1.0593750000000E-07
0 	7.71452e-10 	0.92 	0.04 	0.04 	0.00262242 	0 	
-0.00262242 	-0.00293862 	0.0003162 	1.11095 	5.7571e-09 	0.555476 	19.4445 	
2.24494e-10 	24528.7 	124.816 	186.292 	0.35 	1.38667 	0.801167 	7.11111e-06 	
0.000516148 	0.000254222 	
1.42222e-05 	2.31436e-09 	0.92 	0.04 	0.04 	0.00262242 	-2.68644e-10 	
-0.00262242 	-0.00293862 	0.000316201 	2.22191 	1.72714e-08 	2.22191 	17.7781 	
4.4899e-10 	49057.4 	249.631 	372.584 	0.35 	2.77333 	0.801171 	1.42222e-05 	
0.0010323 	0.000508444 	
2.84444e-05 	3.8573e-09 	0.92 	0.04 	0.04 	0.00262241 	-5.05688e-10 	
-0.00262241 	-0.00293862 	0.000316206 	2.22195 	2.87858e-08 	4.44384 	15.5562 	
4.48998e-10 	49057.4 	249.631 	372.584 	0.35 	2.77333 	0.801183 	1.42222e-05 	
0.0010323 	0.000508444 	
4.26667e-05 	5.40027e-09 	0.92 	0.04 	0.04 	0.0026224 	-7.11131e-10 	
-0.00262241 	-0.00293862 	0.000316214 	2.22201 	4.03005e-08 	6.66582 	13.3342 	
4.4901e-10 	49057.4 	249.631 	372.584 	0.35 	2.77333 	0.801204 	1.42222e-05 	
0.0010323 	0.000508444 	
5.68889e-05 	6.9433e-09 	0.92 	0.04 	0.04 	0.00262239 	-8.84971e-10 	
-0.00262239 	-0.00293862 	0.000316226 	2.22209 	5.18157e-08 	8.88786 	11.1121 	
4.49027e-10 	49057.4 	249.631 	372.584 	0.35 	2.77333 	0.801234 	1.42222e-05 	
0.0010323 	0.000508444 	
7.11111e-05 	8.48641e-09 	0.92 	0.04 	0.04 	0.00262238 	-1.02721e-09 	
-0.00262238 	-0.00293862 	0.000316241 	2.2222 	6.33314e-08 	11.11 	8.89 	
4.4905e-10 	49057.4 	249.631 	372.584 	0.35 	2.77333 	0.801272 	1.42222e-05 	
0.0010323 	0.000508444 	
8.53333e-05 	1.00296e-08 	0.92 	0.04 	0.04 	0.00262236 	-1.13784e-09 	
-0.00262236 	-0.00293862 	0.00031626 	2.22233 	7.48478e-08 	13.3323 	6.66773 	
4.49078e-10 	49057.4 	249.631 	372.584 	0.35 	2.77333 	0.801319 	1.42222e-05 	
0.0010323 	0.000508444 	
9.95556e-05 	1.15729e-08 	0.92 	0.04 	0.04 	0.00262234 	-1.21687e-09 	
-0.00262234 	-0.00293862 	0.000316282 	2.22248 	8.6365e-08 	15.5547 	4.44533 	
4.49111e-10 	49057.4 	249.631 	372.584 	0.35 	2.77333 	0.801375 	1.42222e-05 	
0.0010323 	0.000508444 	
0.000113778 	1.31163e-08 	0.92 	0.04 	0.04 	0.00262231 	-1.26429e-09 	
-0.00262231 	-0.00293862 	0.000316307 	2.22266 	9.79081e-08 	17.7772 	2.22276 	
4.49149e-10 	49057.4 	249.631 	372.584 	0.35 	2.77333 	0.80144 	1.42222e-05 	
0.0010323 	0.000508444 	
0.000128 	1.38881e-08 	0.92 	0.04 	0.04 	0.00262228 	-1.28009e-09 	
-0.00262228 	-0.00293862 	0.000316336 	1.11143 	9.79081e-08 	19.4443 	0.555716 	
2.24596e-10 	24528.7 	124.816 	186.292 	0.35 	1.38667 	0.801513 	7.11111e-06 	
0.000516148 	0.000254222 	
ZONE T = "t = 1.43906e-07 [s]" I = 10 SOLUTIONTIME = 1.4390625000000E-07
0 	7.71452e-10 	0.92 	0.04 	0.04 	0.00262242 	0 	
-0.00262242 	-0.00293862 	0.0003162 	1.11095 	5.7571e-09 	0.555476 	19.4445 	
2.94974e-10 	24528.7 	124.816 	186.292 	0.35 	1.38667 	0.801167 	7.11111e-06 	
0.000516148 	0.000254222 	
1.42222e-05 	2.31436e-09 	0.92 	0.04 	0.04 	0.00262242 	-2.68644e-10 	
-0.00262242 	-0.00293862 	0.000316201 	2.22191 	1.72714e-08 	2.22191 	17.7781 	
5.8995e-10 	49057.4 	249.631 	372.584 	0.35 	2.77333 	0.801171 	1.42222e-05 	
0.0010323 	0.000508444 	
2.84444e-05 	3.8573e-09 	0.92 	0.04 	0.04 	0.00262241 	-5.05688e-10 	
-0.00262241 	-0.00293862 	0.000316206 	2.22195 	2.87858e-08 	4.44384 	15.5562 	
5.8996e-10 	49057.4 	249.631 	372.584 	0.35 	2.77333 	0.801183 	1.42222e-05 	
0.0010323 	0.000508444 	
4.26667e-05 	5.40027e-09 	0.92 	0.04 	0.04 	0.0026224 	-7.11131e-10 	
-0.00262241 	-0.00293862 	0.000316214 	2.22201 	4.03005e-08 	6.66582 	13.3342 	
5.89976e-10 	49057.4 	249.631 	372.584 	0.35 	2.77333 	0.801204 	1.42222e-05 	
0.0010323 	0.000508444 	
5.68889e-05 	6.9433e-09 	0.92 	0.04 	0.04 	0.00262239 	-8.84971e-10 	
-0.00262239 	-0.00293862 	0.000316226 	2.22209 	5.18157e-08 	8.88786 	11.1121 	
5.89998e-10 	49057.4 	249.631 	372.584 	0.35 	2.77333 	0.801234 	1.42222e-05 	
0.0010323 	0.000508444 	
7.11111e-05 	8.48641e-09 	0.92 	0.04 	0.04 	0.00262238 	-1.02721e-09 	
-0.00262238 	-0.00293862 	0.000316241 	2.2222 	6.33314e-08 	11.11 	8.89 	
5.90028e-10 	49057.4 	249.631 	372.584 	0.35 	2.77333 	0.801272 	1.42222e-05 	
0.0010323 	0.000508444 	
8.53333e-05 	1.00296e-08 	0.92 	0.04 	0.04 	0.00262236 	-1.13784e-09 	
-0.00262236 	-0.00293862 	0.00031626 	2.22233 	7.48478e-08 	13.3323 	6.66773 	
5.90064e-10 	49057.4 	249.631 	372.584 	0.35 	2.77333 	0.801319 	1.42222e-05 	
0.0010323 	0.000508444 	
9.95556e-05 	1.15729e-08 	0.92 	0.04 	0.04 	0.00262234 	-1.21687e-09 	
-0.00262234 	-0.00293862 	0.000316282 	2.22248 	8.6365e-08 	15.5547 	4.44533 	
5.90107e-10 	49057.4 	249.631 	372.584 	0.35 	2.77333 	0.801375 	1.42222e-05 	
0.0010323 	0.000508444 	
0.000113778 	1.31163e-08 	0.92 	0.04 	0.04 	0.00262231 	-1.26429e-09 	