TITLE = "Solution on Domain BulkDomain1D_1"
VARIABLES = "x [m]"  
"Vel_axial" 	"MF_sp(ECDMC)" 	"MF_sp(Li+)" 	"MF_sp(PF6-)" 	"Volt(Electroly)" 	"Porosity []" 	"Control volume thickness [m]" 	"volFrac MgO(S) []" 	"qHeat_accum [J/m3]" 	"qHeat_step [W/m3]" 	"Joule_Lyte [W/m3]" 	"Joule_Solid [W/m3]" 	
ZONE T = "SEP , 0.0000E+00", I = 10, SOLUTIONTIME = 0.000000E+00
ZONETYPE = ORDERED
DATAPACKING = BLOCK
STRANDID = 2
 1.0000000000000E-04  1.0277777777778E-04  1.0555555555556E-04  1.0833333333333E-04  1.1111111111111E-04  1.1388888888889E-04  1.1666666666667E-04  1.1944444444444E-04  1.2222222222222E-04  1.2500000000000E-04 
 0.0000000000000E+00  0.0000000000000E+00  0.0000000000000E+00  0.0000000000000E+00  0.0000000000000E+00  0.0000000000000E+00  0.0000000000000E+00  0.0000000000000E+00  0.0000000000000E+00  0.0000000000000E+00 
 8.4394680000000E-01  8.4394680000000E-01  8.4394680000000E-01  8.4394680000000E-01  8.4394680000000E-01  8.4394680000000E-01  8.4394680000000E-01  8.4394680000000E-01  8.4394680000000E-01  8.4394680000000E-01 
 7.8026600000000E-02  7.8026600000000E-02  7.8026600000000E-02  7.8026600000000E-02  7.8026600000000E-02  7.8026600000000E-02  7.8026600000000E-02  7.8026600000000E-02  7.8026600000000E-02  7.8026600000000E-02 
 7.8026600000000E-02  7.8026600000000E-02  7.8026600000000E-02  7.8026600000000E-02  7.8026600000000E-02  7.8026600000000E-02  7.8026600000000E-02  7.8026600000000E-02  7.8026600000000E-02  7.8026600000000E-02 
-7.0000000000000E-02 -7.0000000000000E-02 -7.0000000000000E-02 -7.0000000000000E-02 -7.0000000000000E-02 -7.0000000000000E-02 -7.0000000000000E-02 -7.0000000000000E-02 -7.0000000000000E-02 -7.0000000000000E-02 
 8.0000000000000E-01  8.0000000000000E-01  8.0000000000000E-01  8.0000000000000E-01  8.0000000000000E-01  8.0000000000000E-01  8.0000000000000E-01  8.0000000000000E-01  8.0000000000000E-01  8.0000000000000E-01 
 1.3888888888889E-06  2.7777777777778E-06  2.7777777777778E-06  2.7777777777778E-06  2.7777777777778E-06  2.7777777777778E-06  2.7777777777778E-06  2.7777777777778E-06  2.7777777777778E-06  1.3888888888889E-06 
 2.0000000000000E-01  2.0000000000000E-01  2.0000000000000E-01  2.0000000000000E-01  2.0000000000000E-01  2.0000000000000E-01  2.0000000000000E-01  2.0000000000000E-01  2.0000000000000E-01  2.0000000000000E-01 
 0.0000000000000E+00  0.0000000000000E+00  0.0000000000000E+00  0.0000000000000E+00  0.0000000000000E+00  0.0000000000000E+00  0.0000000000000E+00  0.0000000000000E+00  0.0000000000000E+00  0.0000000000000E+00 
 0.0000000000000E+00  0.0000000000000E+00  0.0000000000000E+00  0.0000000000000E+00  0.0000000000000E+00  0.0000000000000E+00  0.0000000000000E+00  0.0000000000000E+00  0.0000000000000E+00  0.0000000000000E+00 
 0.0000000000000E+00  0.0000000000000E+00  0.0000000000000E+00  0.0000000000000E+00  0.0000000000000E+00  0.0000000000000E+00  0.0000000000000E+00  0.0000000000000E+00  0.0000000000000E+00  0.0000000000000E+00 
 0.0000000000000E+00  0.0000000000000E+00  0.0000000000000E+00  0.0000000000000E+00  0.0000000000000E+00  0.0000000000000E+00  0.0000000000000E+00  0.0000000000000E+00  0.0000000000000E+00  0.0000000000000E+00 
ZONE T = "SEP , 1.0000E-08", I = 10, SOLUTIONTIME = 1.000000E-08
ZONETYPE = ORDERED
DATAPACKING = BLOCK
STRANDID = 2
 1.0000000000000E-04  1.0277777777778E-04  1.0555555555556E-04  1.0833333333333E-04  1.1111111111111E-04  1.1388888888889E-04  1.1666666666667E-04  1.1944444444444E-04  1.2222222222222E-04  1.2500000000000E-04 
 6.1202762326994E-09  6.1152793866104E-09  6.1152803144599E-09  6.1152796667846E-09  6.1152796511605E-09  6.1152796604883E-09  6.1152803018676E-09  6.1153040018877E-09  6.1204316330813E-09  5.7762750128965E-09 
 8.4394679999730E-01  8.4394679999997E-01  8.4394680000000E-01  8.4394680000000E-01  8.4394680000000E-01  8.4394680000000E-01  8.4394680000000E-01  8.4394680000000E-01  8.4394680000003E-01  8.4394680000270E-01 
 7.8026600001352E-02  7.8026600000015E-02  7.8026600000000E-02  7.8026600000000E-02  7.8026600000000E-02  7.8026600000000E-02  7.8026600000000E-02  7.8026600000000E-02  7.8026599999985E-02  7.8026599998648E-02 
 7.8026600001352E-02  7.8026600000015E-02  7.8026600000000E-02  7.8026600000000E-02  7.8026600000000E-02  7.8026600000000E-02  7.8026600000000E-02  7.8026600000000E-02  7.8026599999985E-02  7.8026599998648E-02 
-1.2133013861312E-01 -1.2133013964680E-01 -1.2133014068059E-01 -1.2133014171427E-01 -1.2133014274806E-01 -1.2133014378175E-01 -1.2133014481554E-01 -1.2133014584922E-01 -1.2133014688301E-01 -1.2133014791669E-01 
 8.0000000000000E-01  8.0000000000000E-01  8.0000000000000E-01  8.0000000000000E-01  8.0000000000000E-01  8.0000000000000E-01  8.0000000000000E-01  8.0000000000000E-01  8.0000000000000E-01  8.0000000000000E-01 
 1.3888888888889E-06  2.7777777777778E-06  2.7777777777778E-06  2.7777777777778E-06  2.7777777777778E-06  2.7777777777778E-06  2.7777777777778E-06  2.7777777777778E-06  2.7777777777778E-06  1.3888888888889E-06 
 2.0000000000000E-01  2.0000000000000E-01  2.0000000000000E-01  2.0000000000000E-01  2.0000000000000E-01  2.0000000000000E-01  2.0000000000000E-01  2.0000000000000E-01  2.0000000000000E-01  2.0000000000000E-01 
 7.4420891197475E-11  7.4428634974178E-11  7.4428688927666E-11  7.4428793848883E-11  7.4428975693639E-11  7.4428989683146E-11  7.4428753884538E-11  7.4428674943777E-11  7.4428673944268E-11  7.4420889197731E-11 
 7.4420891197475E-03  7.4428634974178E-03  7.4428688927666E-03  7.4428793848883E-03  7.4428975693639E-03  7.4428989683146E-03  7.4428753884538E-03  7.4428674943777E-03  7.4428673944268E-03  7.4420889197731E-03 
 7.4420891197475E-03  7.4428634974178E-03  7.4428688927666E-03  7.4428793848883E-03  7.4428975693639E-03  7.4428989683146E-03  7.4428753884538E-03  7.4428674943777E-03  7.4428673944268E-03  7.4420889197731E-03 
 0.0000000000000E+00  0.0000000000000E+00  0.0000000000000E+00  0.0000000000000E+00  0.0000000000000E+00  0.0000000000000E+00  0.0000000000000E+00  0.0000000000000E+00  0.0000000000000E+00  0.0000000000000E+00 
ZONE T = "SEP , 2.0000E-08", I = 10, SOLUTIONTIME = 2.000000E-08
ZONETYPE = ORDERED
DATAPACKING = BLOCK
STRANDID = 2
 1.0000000000000E-04  1.0277777777778E-04  1.0555555555556E-04  1.0833333333333E-04  1.1111111111111E-04  1.1388888888889E-04  1.1666666666667E-04  1.1944444444444E-04  1.2222222222222E-04  1.2500000000000E-04 
 6.1249839007185E-09  6.1151502477874E-09  6.1149650117574E-09  6.1149666045660E-09  6.1149665794355E-09  6.1149666043707E-09  6.1149649945178E-09  6.1151789988038E-09  6.1249342569188E-09  5.7759045071416E-09 
 8.4394679999461E-01  8.4394679999991E-01  8.4394680000000E-01  8.4394680000000E-01  8.4394680000000E-01  8.4394680000000E-01  8.4394680000000E-01  8.4394680000000E-01  8.4394680000009E-01  8.4394680000538E-01 
 7.8026600002693E-02  7.8026600000045E-02  7.8026600000001E-02  7.8026600000000E-02  7.8026600000000E-02  7.8026600000000E-02  7.8026600000000E-02  7.8026599999999E-02  7.8026599999955E-02  7.8026599997309E-02 
 7.8026600002693E-02  7.8026600000045E-02  7.8026600000001E-02  7.8026600000000E-02  7.8026600000000E-02  7.8026600000000E-02  7.8026600000000E-02  7.8026599999999E-02  7.8026599999955E-02  7.8026599997309E-02 
-1.2132872348705E-01 -1.2132872452079E-01 -1.2132872555453E-01 -1.2132872658827E-01 -1.2132872762201E-01 -1.2132872865574E-01 -1.2132872968948E-01 -1.2132873072322E-01 -1.2132873175696E-01 -1.2132873279070E-01 
 8.0000000000000E-01  8.0000000000000E-01  8.0000000000000E-01  8.0000000000000E-01  8.0000000000000E-01  8.0000000000000E-01  8.0000000000000E-01  8.0000000000000E-01  8.0000000000000E-01  8.0000000000000E-01 
 1.3888888888889E-06  2.7777777777778E-06  2.7777777777778E-06  2.7777777777778E-06  2.7777777777778E-06  2.7777777777778E-06  2.7777777777778E-06  2.7777777777778E-06  2.7777777777778E-06  1.3888888888889E-06 
 2.0000000000000E-01  2.0000000000000E-01  2.0000000000000E-01  2.0000000000000E-01  2.0000000000000E-01  2.0000000000000E-01  2.0000000000000E-01  2.0000000000000E-01  2.0000000000000E-01  2.0000000000000E-01 
 1.4885007553071E-10  1.4885781830749E-10  1.4885787226025E-10  1.4885797718146E-10  1.4885815902621E-10  1.4885817301572E-10  1.4885793721711E-10  1.4885785827634E-10  1.4885785727610E-10  1.4885007352805E-10 
 7.4429184333231E-03  7.4429183333315E-03  7.4429183332586E-03  7.4429183332574E-03  7.4429183332575E-03  7.4429183332574E-03  7.4429183332574E-03  7.4429183332562E-03  7.4429183331834E-03  7.4429184330319E-03 
 7.4429184333231E-03  7.4429183333315E-03  7.4429183332586E-03  7.4429183332574E-03  7.4429183332575E-03  7.4429183332574E-03  7.4429183332574E-03  7.4429183332562E-03  7.4429183331834E-03  7.4429184330319E-03 
 0.0000000000000E+00  0.0000000000000E+00  0.0000000000000E+00  0.0000000000000E+00  0.0000000000000E+00  0.0000000000000E+00  0.0000000000000E+00  0.0000000000000E+00  0.0000000000000E+00  0.0000000000000E+00 
ZONE T = "SEP , 3.0000E-08", I = 10, SOLUTIONTIME = 3.000000E-08
ZONETYPE = ORDERED
DATAPACKING = BLOCK
STRANDID = 2
 1.0000000000000E-04  1.0277777777778E-04  1.0555555555556E-04  1.0833333333333E-04  1.1111111111111E-04  1.1388888888889E-04  1.1666666666667E-04  1.1944444444444E-04  1.2222222222222E-04  1.2500000000000E-04 
 6.1296203072213E-09  6.1150262191616E-09  6.1147095769815E-09  6.1147073949417E-09  6.1147073275100E-09  6.1147073934623E-09  6.1147094464003E-09  6.1151309498742E-09  6.1297255713303E-09  5.7761247889772E-09 
 8.4394679999196E-01  8.4394679999982E-01  8.4394680000000E-01  8.4394680000000E-01  8.4394680000000E-01  8.4394680000000E-01  8.4394680000000E-01  8.4394680000000E-01  8.4394680000018E-01  8.4394680000804E-01 
 7.8026600004022E-02  7.8026600000090E-02  7.8026600000002E-02  7.8026600000000E-02  7.8026600000000E-02  7.8026600000000E-02  7.8026600000000E-02  7.8026599999998E-02  7.8026599999910E-02  7.8026599995980E-02 
 7.8026600004022E-02  7.8026600000090E-02  7.8026600000002E-02  7.8026600000000E-02  7.8026600000000E-02  7.8026600000000E-02  7.8026600000000E-02  7.8026599999998E-02  7.8026599999910E-02  7.8026599995980E-02 
-1.2132872348772E-01 -1.2132872452145E-01 -1.2132872555519E-01 -1.2132872658893E-01 -1.2132872762267E-01 -1.2132872865641E-01 -1.2132872969015E-01 -1.2132873072389E-01 -1.2132873175763E-01 -1.2132873279136E-01 
 8.0000000000000E-01  8.0000000000000E-01  8.0000000000000E-01  8.0000000000000E-01  8.0000000000000E-01  8.0000000000000E-01  8.0000000000000E-01  8.0000000000000E-01  8.0000000000000E-01  8.0000000000000E-01 
 1.3888888888889E-06  2.7777777777778E-06  2.7777777777778E-06  2.7777777777778E-06  2.7777777777778E-06  2.7777777777778E-06  2.7777777777778E-06  2.7777777777778E-06  2.7777777777778E-06  1.3888888888889E-06 
 2.0000000000000E-01  2.0000000000000E-01  2.0000000000000E-01  2.0000000000000E-01  2.0000000000000E-01  2.0000000000000E-01  2.0000000000000E-01  2.0000000000000E-01  2.0000000000000E-01  2.0000000000000E-01 
 2.2327925786627E-10  2.2328700064198E-10  2.2328705559285E-10  2.2328716051403E-10  2.2328734235879E-10  2.2328735634829E-10  2.2328712054969E-10  2.2328704160889E-10  2.2328704060756E-10  2.2327925785764E-10 
 7.4429182335560E-03  7.4429182334492E-03  7.4429183332599E-03  7.4429183332574E-03  7.4429183332575E-03  7.4429183332574E-03  7.4429183332574E-03  7.4429183332549E-03  7.4429183331457E-03  7.4429184329589E-03 
 7.4429182335560E-03  7.4429182334492E-03  7.4429183332599E-03  7.4429183332574E-03  7.4429183332575E-03  7.4429183332574E-03  7.4429183332574E-03  7.4429183332549E-03  7.4429183331457E-03  7.4429184329589E-03 
 0.0000000000000E+00  0.0000000000000E+00  0.0000000000000E+00  0.0000000000000E+00  0.0000000000000E+00  0.0000000000000E+00  0.0000000000000E+00  0.0000000000000E+00  0.0000000000000E+00  0.0000000000000E+00 
ZONE T = "SEP , 4.0000E-08", I = 10, SOLUTIONTIME = 4.000000E-08
ZONETYPE = ORDERED
DATAPACKING = BLOCK
STRANDID = 2
 1.0000000000000E-04  1.0277777777778E-04  1.0555555555556E-04  1.0833333333333E-04  1.1111111111111E-04  1.1388888888889E-04  1.1666666666667E-04  1.1944444444444E-04  1.2222222222222E-04  1.2500000000000E-04 
 6.1348524484447E-09  6.1157152058142E-09  6.1151559692435E-09  6.1151576043986E-09  6.1151573754194E-09  6.1151575457785E-09  6.1152339406071E-09  6.1157382739246E-09  6.1349606593756E-09  5.7767177813734E-09 
 8.4394679998932E-01  8.4394679999970E-01  8.4394679999999E-01  8.4394680000000E-01  8.4394680000000E-01  8.4394680000000E-01  8.4394680000000E-01  8.4394680000001E-01  8.4394680000030E-01  8.4394680001067E-01 
 7.8026600005339E-02  7.8026600000149E-02  7.8026600000003E-02  7.8026600000000E-02  7.8026600000000E-02  7.8026600000000E-02  7.8026600000000E-02  7.8026599999997E-02  7.8026599999852E-02  7.8026599994663E-02 
 7.8026600005339E-02  7.8026600000149E-02  7.8026600000003E-02  7.8026600000000E-02  7.8026600000000E-02  7.8026600000000E-02  7.8026600000000E-02  7.8026599999997E-02  7.8026599999852E-02  7.8026599994663E-02 
-1.2132872348838E-01 -1.2132872452212E-01 -1.2132872555586E-01 -1.2132872658960E-01 -1.2132872762334E-01 -1.2132872865707E-01 -1.2132872969081E-01 -1.2132873072455E-01 -1.2132873175829E-01 -1.2132873279203E-01 
 8.0000000000000E-01  8.0000000000000E-01  8.0000000000000E-01  8.0000000000000E-01  8.0000000000000E-01  8.0000000000000E-01  8.0000000000000E-01  8.0000000000000E-01  8.0000000000000E-01  8.0000000000000E-01 
 1.3888888888889E-06  2.7777777777778E-06  2.7777777777778E-06  2.7777777777778E-06  2.7777777777778E-06  2.7777777777778E-06  2.7777777777778E-06  2.7777777777778E-06  2.7777777777778E-06  1.3888888888889E-06 
 2.0000000000000E-01  2.0000000000000E-01  2.0000000000000E-01  2.0000000000000E-01  2.0000000000000E-01  2.0000000000000E-01  2.0000000000000E-01  2.0000000000000E-01  2.0000000000000E-01  2.0000000000000E-01 
 2.9770844220096E-10  2.9771618397606E-10  2.9771623892547E-10  2.9771634384661E-10  2.9771652569136E-10  2.9771653968087E-10  2.9771630388226E-10  2.9771622494142E-10  2.9771622293943E-10  2.9770844018810E-10 
 7.4429184334693E-03  7.4429183334074E-03  7.4429183332615E-03  7.4429183332575E-03  7.4429183332575E-03  7.4429183332574E-03  7.4429183332573E-03  7.4429183332533E-03  7.4429182331874E-03  7.4429182330456E-03 
 7.4429184334693E-03  7.4429183334074E-03  7.4429183332615E-03  7.4429183332575E-03  7.4429183332575E-03  7.4429183332574E-03  7.4429183332573E-03  7.4429183332533E-03  7.4429182331874E-03  7.4429182330456E-03 
 0.0000000000000E+00  0.0000000000000E+00  0.0000000000000E+00  0.0000000000000E+00  0.0000000000000E+00  0.0000000000000E+00  0.0000000000000E+00  0.0000000000000E+00  0.0000000000000E+00  0.0000000000000E+00 
ZONE T = "SEP , 5.5000E-08", I = 10, SOLUTIONTIME = 5.500000E-08
ZONETYPE = ORDERED
DATAPACKING = BLOCK
STRANDID = 2
 1.0000000000000E-04  1.0277777777778E-04  1.0555555555556E-04  1.0833333333333E-04  1.1111111111111E-04  1.1388888888889E-04  1.1666666666667E-04  1.1944444444444E-04  1.2222222222222E-04  1.2500000000000E-04 
 6.1414895966320E-09  6.1157745465564E-09  6.1148060583749E-09  6.1148068436426E-09  6.1148062125949E-09  6.1148067918919E-09  6.1148055358965E-09  6.1157203842593E-09  6.1413996479382E-09  5.7765320807038E-09 
 8.4394679998542E-01  8.4394679999947E-01  8.4394679999998E-01  8.4394680000000E-01  8.4394680000000E-01  8.4394680000000E-01  8.4394680000000E-01  8.4394680000002E-01  8.4394680000053E-01  8.4394680001458E-01 
 7.8026600007292E-02  7.8026600000266E-02  7.8026600000008E-02  7.8026600000000E-02  7.8026600000000E-02  7.8026600000000E-02  7.8026600000000E-02  7.8026599999992E-02  7.8026599999734E-02  7.8026599992711E-02 
 7.8026600007292E-02  7.8026600000266E-02  7.8026600000008E-02  7.8026600000000E-02  7.8026600000000E-02  7.8026600000000E-02  7.8026600000000E-02  7.8026599999992E-02  7.8026599999734E-02  7.8026599992711E-02 
-1.2132872348905E-01 -1.2132872452279E-01 -1.2132872555653E-01 -1.2132872659027E-01 -1.2132872762401E-01 -1.2132872865775E-01 -1.2132872969149E-01 -1.2132873072522E-01 -1.2132873175896E-01 -1.2132873279270E-01 
 8.0000000000000E-01  8.0000000000000E-01  8.0000000000000E-01  8.0000000000000E-01  8.0000000000000E-01  8.0000000000000E-01  8.0000000000000E-01  8.0000000000000E-01  8.0000000000000E-01  8.0000000000000E-01 
 1.3888888888889E-06  2.7777777777778E-06  2.7777777777778E-06  2.7777777777778E-06  2.7777777777778E-06  2.7777777777778E-06  2.7777777777778E-06  2.7777777777778E-06  2.7777777777778E-06  1.3888888888889E-06 
 2.0000000000000E-01  2.0000000000000E-01  2.0000000000000E-01  2.0000000000000E-01  2.0000000000000E-01  2.0000000000000E-01  2.0000000000000E-01  2.0000000000000E-01  2.0000000000000E-01  2.0000000000000E-01 
 4.0935221870465E-10  4.0935995897804E-10  4.0936001392444E-10  4.0936011884547E-10  4.0936029919142E-10  4.0936031467973E-10  4.0936007888112E-10  4.0935999994017E-10  4.0935999793517E-10  4.0935221368213E-10 
 7.4429184335794E-03  7.4429183334657E-03  7.4429183332649E-03  7.4429183332576E-03  7.4429182333374E-03  7.4429183332574E-03  7.4429183332572E-03  7.4429183332499E-03  7.4429183330492E-03  7.4429182329356E-03 
 7.4429184335794E-03  7.4429183334657E-03  7.4429183332649E-03  7.4429183332576E-03  7.4429182333374E-03  7.4429183332574E-03  7.4429183332572E-03  7.4429183332499E-03  7.4429183330492E-03  7.4429182329356E-03 
 0.0000000000000E+00  0.0000000000000E+00  0.0000000000000E+00  0.0000000000000E+00  0.0000000000000E+00  0.0000000000000E+00  0.0000000000000E+00  0.0000000000000E+00  0.0000000000000E+00  0.0000000000000E+00 
ZONE T = "SEP , 7.7500E-08", I = 10, SOLUTIONTIME = 7.750000E-08
ZONETYPE = ORDERED
DATAPACKING = BLOCK
STRANDID = 2
 1.0000000000000E-04  1.0277777777778E-04  1.0555555555556E-04  1.0833333333333E-04  1.1111111111111E-04  1.1388888888889E-04  1.1666666666667E-04  1.1944444444444E-04  1.2222222222222E-04  1.2500000000000E-04 
 6.1516526399515E-09  6.1168040351447E-09  6.1150419448173E-09  6.1149598395830E-09  6.1149593359750E-09  6.1149598209636E-09  6.1150546481400E-09  6.1168414678420E-09  6.1516682650427E-09  5.7773179546824E-09 
 8.4394679997966E-01  8.4394679999899E-01  8.4394679999996E-01  8.4394680000000E-01  8.4394680000000E-01  8.4394680000000E-01  8.4394680000000E-01  8.4394680000004E-01  8.4394680000101E-01  8.4394680002033E-01 
 7.8026600010168E-02  7.8026600000506E-02  7.8026600000020E-02  7.8026600000001E-02  7.8026600000000E-02  7.8026600000000E-02  7.8026599999999E-02  7.8026599999980E-02  7.8026599999495E-02  7.8026599989836E-02 
 7.8026600010168E-02  7.8026600000506E-02  7.8026600000020E-02  7.8026600000001E-02  7.8026600000000E-02  7.8026600000000E-02  7.8026599999999E-02  7.8026599999980E-02  7.8026599999495E-02  7.8026599989836E-02 
-1.2132872349008E-01 -1.2132872452382E-01 -1.2132872555755E-01 -1.2132872659129E-01 -1.2132872762503E-01 -1.2132872865877E-01 -1.2132872969251E-01 -1.2132873072625E-01 -1.2132873175999E-01 -1.2132873279373E-01 
 8.0000000000000E-01  8.0000000000000E-01  8.0000000000000E-01  8.0000000000000E-01  8.0000000000000E-01  8.0000000000000E-01  8.0000000000000E-01  8.0000000000000E-01  8.0000000000000E-01  8.0000000000000E-01 
 1.3888888888889E-06  2.7777777777778E-06  2.7777777777778E-06  2.7777777777778E-06  2.7777777777778E-06  2.7777777777778E-06  2.7777777777778E-06  2.7777777777778E-06  2.7777777777778E-06  1.3888888888889E-06 
 2.0000000000000E-01  2.0000000000000E-01  2.0000000000000E-01  2.0000000000000E-01  2.0000000000000E-01  2.0000000000000E-01  2.0000000000000E-01  2.0000000000000E-01  2.0000000000000E-01  2.0000000000000E-01 
 5.7681787896751E-10  5.7682562148304E-10  5.7682567642306E-10  5.7682578134377E-10  5.7682596168972E-10  5.7682597717802E-10  5.7682574137940E-10  5.7682566243814E-10  5.7682566042677E-10  5.7681787391945E-10 
 7.4429182339049E-03  7.4429183335552E-03  7.4429183332719E-03  7.4429183332579E-03  7.4429183332575E-03  7.4429183332574E-03  7.4429183332568E-03  7.4429183332429E-03  7.4429183329597E-03  7.4429182327699E-03 
 7.4429182339049E-03  7.4429183335552E-03  7.4429183332719E-03  7.4429183332579E-03  7.4429183332575E-03  7.4429183332574E-03  7.4429183332568E-03  7.4429183332429E-03  7.4429183329597E-03  7.4429182327699E-03 
 0.0000000000000E+00  0.0000000000000E+00  0.0000000000000E+00  0.0000000000000E+00  0.0000000000000E+00  0.0000000000000E+00  0.0000000000000E+00  0.0000000000000E+00  0.0000000000000E+00  0.0000000000000E+00 
ZONE T = "SEP , 1.1125E-07", I = 10, SOLUTIONTIME = 1.112500E-07
ZONETYPE = ORDERED
DATAPACKING = BLOCK
STRANDID = 2
 1.0000000000000E-04  1.0277777777778E-04  1.0555555555556E-04  1.0833333333333E-04  1.1111111111111E-04  1.1388888888889E-04  1.1666666666667E-04  1.1944444444444E-04  1.2222222222222E-04  1.2500000000000E-04 
 6.1657080740406E-09  6.1184752165006E-09  6.1150989291569E-09  6.1149109137131E-09  6.1149109773541E-09  6.1149181708837E-09  6.1151058884830E-09  6.1184494232458E-09  6.1656668306301E-09  5.7779066731039E-09 
 8.4394679997126E-01  8.4394679999802E-01  8.4394679999989E-01  8.4394679999999E-01  8.4394680000000E-01  8.4394680000000E-01  8.4394680000001E-01  8.4394680000011E-01  8.4394680000198E-01  8.4394680002873E-01 
 7.8026600014372E-02  7.8026600000992E-02  7.8026600000055E-02  7.8026600000003E-02  7.8026600000000E-02  7.8026600000000E-02  7.8026599999997E-02  7.8026599999946E-02  7.8026599999008E-02  7.8026599985633E-02 
 7.8026600014372E-02  7.8026600000992E-02  7.8026600000055E-02  7.8026600000003E-02  7.8026600000000E-02  7.8026600000000E-02  7.8026599999997E-02  7.8026599999946E-02  7.8026599999008E-02  7.8026599985633E-02 
-1.2132872349161E-01 -1.2132872452535E-01 -1.2132872555909E-01 -1.2132872659283E-01 -1.2132872762657E-01 -1.2132872866031E-01 -1.2132872969404E-01 -1.2132873072778E-01 -1.2132873176152E-01 -1.2132873279526E-01 
 8.0000000000000E-01  8.0000000000000E-01  8.0000000000000E-01  8.0000000000000E-01  8.0000000000000E-01  8.0000000000000E-01  8.0000000000000E-01  8.0000000000000E-01  8.0000000000000E-01  8.0000000000000E-01 
 1.3888888888889E-06  2.7777777777778E-06  2.7777777777778E-06  2.7777777777778E-06  2.7777777777778E-06  2.7777777777778E-06  2.7777777777778E-06  2.7777777777778E-06  2.7777777777778E-06  1.3888888888889E-06 
 2.0000000000000E-01  2.0000000000000E-01  2.0000000000000E-01  2.0000000000000E-01  2.0000000000000E-01  2.0000000000000E-01  2.0000000000000E-01  2.0000000000000E-01  2.0000000000000E-01  2.0000000000000E-01 
 8.2801636937022E-10  8.2802411524520E-10  8.2802417017148E-10  8.2802427509126E-10  8.2802445543716E-10  8.2802446755315E-10  8.2802423512678E-10  8.2802415618458E-10  8.2802415415948E-10  8.2801637101163E-10 
 7.4429182341544E-03  7.4429183336938E-03  7.4429183332867E-03  7.4429183332590E-03  7.4429183332575E-03  7.4429182333372E-03  7.4429183332558E-03  7.4429183332281E-03  7.4429183328212E-03  7.4429184323607E-03 
 7.4429182341544E-03  7.4429183336938E-03  7.4429183332867E-03  7.4429183332590E-03  7.4429183332575E-03  7.4429182333372E-03  7.4429183332558E-03  7.4429183332281E-03  7.4429183328212E-03  7.4429184323607E-03 
 0.0000000000000E+00  0.0000000000000E+00  0.0000000000000E+00  0.0000000000000E+00  0.0000000000000E+00  0.0000000000000E+00  0.0000000000000E+00  0.0000000000000E+00  0.0000000000000E+00  0.0000000000000E+00 
ZONE T = "SEP , 1.6188E-07", I = 10, SOLUTIONTIME = 1.618750E-07
ZONETYPE = ORDERED
DATAPACKING = BLOCK
STRANDID = 2
 1.0000000000000E-04  1.0277777777778E-04  1.0555555555556E-04  1.0833333333333E-04  1.1111111111111E-04  1.1388888888889E-04  1.1666666666667E-04  1.1944444444444E-04  1.2222222222222E-04  1.2500000000000E-04 
 6.1850370221031E-09  6.1217566288888E-09  6.1154063633114E-09  6.1149054137337E-09  6.1148744814638E-09  6.1149217342002E-09  6.1154330143155E-09  6.1217875919826E-09  6.1850472253503E-09  5.7791026446659E-09 
 8.4394679995909E-01  8.4394679999606E-01  8.4394679999969E-01  8.4394679999998E-01  8.4394680000000E-01  8.4394680000000E-01  8.4394680000002E-01  8.4394680000031E-01  8.4394680000394E-01  8.4394680004089E-01 
 7.8026600020454E-02  7.8026600001970E-02  7.8026600000153E-02  7.8026600000010E-02  7.8026600000001E-02  7.8026599999999E-02  7.8026599999990E-02  7.8026599999847E-02  7.8026599998030E-02  7.8026599979554E-02 
 7.8026600020454E-02  7.8026600001970E-02  7.8026600000153E-02  7.8026600000010E-02  7.8026600000001E-02  7.8026599999999E-02  7.8026599999990E-02  7.8026599999847E-02  7.8026599998030E-02  7.8026599979554E-02 
-1.2132872349391E-01 -1.2132872452765E-01 -1.2132872556139E-01 -1.2132872659513E-01 -1.2132872762887E-01 -1.2132872866260E-01 -1.2132872969634E-01 -1.2132873073008E-01 -1.2132873176382E-01 -1.2132873279756E-01 
 8.0000000000000E-01  8.0000000000000E-01  8.0000000000000E-01  8.0000000000000E-01  8.0000000000000E-01  8.0000000000000E-01  8.0000000000000E-01  8.0000000000000E-01  8.0000000000000E-01  8.0000000000000E-01 
 1.3888888888889E-06  2.7777777777778E-06  2.7777777777778E-06  2.7777777777778E-06  2.7777777777778E-06  2.7777777777778E-06  2.7777777777778E-06  2.7777777777778E-06  2.7777777777778E-06  1.3888888888889E-06 
 2.0000000000000E-01  2.0000000000000E-01  2.0000000000000E-01  2.0000000000000E-01  2.0000000000000E-01  2.0000000000000E-01  2.0000000000000E-01  2.0000000000000E-01  2.0000000000000E-01  2.0000000000000E-01 
 1.2048141151102E-09  1.2048218558994E-09  1.2048219107957E-09  1.2048220157127E-09  1.2048221960583E-09  1.2048222081743E-09  1.2048219757477E-09  1.2048218968027E-09  1.2048218947476E-09  1.2048141166309E-09 
 7.4429184343700E-03  7.4429183339102E-03  7.4429183333182E-03  7.4429183332620E-03  7.4429183332577E-03  7.4429183332571E-03  7.4429183332528E-03  7.4429183331967E-03  7.4429183326049E-03  7.4429184319855E-03 
 7.4429184343700E-03  7.4429183339102E-03  7.4429183333182E-03  7.4429183332620E-03  7.4429183332577E-03  7.4429183332571E-03  7.4429183332528E-03  7.4429183331967E-03  7.4429183326049E-03  7.4429184319855E-03 
 0.0000000000000E+00  0.0000000000000E+00  0.0000000000000E+00  0.0000000000000E+00  0.0000000000000E+00  0.0000000000000E+00  0.0000000000000E+00  0.0000000000000E+00  0.0000000000000E+00  0.0000000000000E+00 
ZONE T = "SEP , 2.3781E-07", I = 10, SOLUTIONTIME = 2.378125E-07
ZONETYPE = ORDERED
DATAPACKING = BLOCK
STRANDID = 2
 1.0000000000000E-04  1.0277777777778E-04  1.0555555555556E-04  1.0833333333333E-04  1.1111111111111E-04  1.1388888888889E-04  1.1666666666667E-04  1.1944444444444E-04  1.2222222222222E-04  1.2500000000000E-04 
 6.2108051345336E-09  6.1281127276178E-09  6.1164222630055E-09  6.1151131976121E-09  6.1149987759047E-09  6.1151168984448E-09  6.1164291761045E-09  6.1281195725384E-09  6.2107808466821E-09  5.7810255534354E-09 
 8.4394679994173E-01  8.4394679999222E-01  8.4394679999915E-01  8.4394679999992E-01  8.4394679999999E-01  8.4394680000001E-01  8.4394680000008E-01  8.4394680000085E-01  8.4394680000777E-01  8.4394680005825E-01 
 7.8026600029134E-02  7.8026600003888E-02  7.8026600000424E-02  7.8026600000041E-02  7.8026600000003E-02  7.8026599999997E-02  7.8026599999959E-02  7.8026599999576E-02  7.8026599996114E-02  7.8026599970877E-02 
 7.8026600029134E-02  7.8026600003888E-02  7.8026600000424E-02  7.8026600000041E-02  7.8026600000003E-02  7.8026599999997E-02  7.8026599999959E-02  7.8026599999576E-02  7.8026599996114E-02  7.8026599970877E-02 
-1.2132872349736E-01 -1.2132872453110E-01 -1.2132872556483E-01 -1.2132872659857E-01 -1.2132872763231E-01 -1.2132872866605E-01 -1.2132872969979E-01 -1.2132873073353E-01 -1.2132873176727E-01 -1.2132873280100E-01 
 8.0000000000000E-01  8.0000000000000E-01  8.0000000000000E-01  8.0000000000000E-01  8.0000000000000E-01  8.0000000000000E-01  8.0000000000000E-01  8.0000000000000E-01  8.0000000000000E-01  8.0000000000000E-01 
 1.3888888888889E-06  2.7777777777778E-06  2.7777777777778E-06  2.7777777777778E-06  2.7777777777778E-06  2.7777777777778E-06  2.7777777777778E-06  2.7777777777778E-06  2.7777777777778E-06  1.3888888888889E-06 
 2.0000000000000E-01  2.0000000000000E-01  2.0000000000000E-01  2.0000000000000E-01  2.0000000000000E-01  2.0000000000000E-01  2.0000000000000E-01  2.0000000000000E-01  2.0000000000000E-01  2.0000000000000E-01 
 1.7700107337630E-09  1.7700184669065E-09  1.7700185217371E-09  1.7700186266454E-09  1.7700188069902E-09  1.7700188191059E-09  1.7700185866784E-09  1.7700185077248E-09  1.7700185056040E-09  1.7700107350170E-09 
 7.4429184349335E-03  7.4429183342501E-03  7.4429183333844E-03  7.4429183332709E-03  7.4429183332586E-03  7.4429183332562E-03  7.4429183332439E-03  7.4429183331305E-03  7.4429183322651E-03  7.4429184314221E-03 
 7.4429184349335E-03  7.4429183342501E-03  7.4429183333844E-03  7.4429183332709E-03  7.4429183332586E-03  7.4429183332562E-03  7.4429183332439E-03  7.4429183331305E-03  7.4429183322651E-03  7.4429184314221E-03 
 0.0000000000000E+00  0.0000000000000E+00  0.0000000000000E+00  0.0000000000000E+00  0.0000000000000E+00  0.0000000000000E+00  0.0000000000000E+00  0.0000000000000E+00  0.0000000000000E+00  0.0000000000000E+00 
ZONE T = "SEP , 3.5172E-07", I = 10, SOLUTIONTIME = 3.517188E-07
ZONETYPE = ORDERED
DATAPACKING = BLOCK
STRANDID = 2
 1.0000000000000E-04  1.0277777777778E-04  1.0555555555556E-04  1.0833333333333E-04  1.1111111111111E-04  1.1388888888889E-04  1.1666666666667E-04  1.1944444444444E-04  1.2222222222222E-04  1.2500000000000E-04 
 6.2433099443833E-09  6.1391128267289E-09  6.1186425742649E-09  6.1154258020051E-09  6.1150403744818E-09  6.1154208533487E-09  6.1186350745609E-09  6.1391035788386E-09  6.2432590326285E-09  5.7839206236212E-09 
 8.4394679991734E-01  8.4394679998498E-01  8.4394679999773E-01  8.4394679999969E-01  8.4394679999997E-01  8.4394680000003E-01  8.4394680000031E-01  8.4394680000227E-01  8.4394680001502E-01  8.4394680008263E-01 
 7.8026600041331E-02  7.8026600007511E-02  7.8026600001136E-02  7.8026600000153E-02  7.8026600000017E-02  7.8026599999983E-02  7.8026599999847E-02  7.8026599998864E-02  7.8026599992492E-02  7.8026599958685E-02 