TITLE = "Solution on Domain BulkDomain1D_0"
VARIABLES = "x [m]"  
"Vel_axial(0)" 	"MF_sp(ECDMC)" 	"MF_sp(Li+)" 	"MF_sp(PF6-)" 	"Volt(Electroly)" 	"Volt(AnodeVolt)" 	
"Potential Drop Electrode-Electrolyte [V]" 	"Surf_0 Equilibrium Potential Drop Electrode-Electrolyte [V]" 	"Overpotential_0 [V]" 	"Current Source [A/m^2]" 	"Li+ flux [kmol/m^2/s]" 	"Electrolyte Current [A/m^2]" 	"Electrode Current [A/m^2]" 	
"Capacity discharged [A-s]" 	"Depth of discharge [-]" 	"Capacity remaining [A-s]" 	"Initial capacity [A-s]" 	"Porosity []" 	"Surface Area [m2/m2] (area per area)" 	"Specific current (per particle area) [A/m^2]" 	"Control volume thickness [m]" 	
"Moles Li_C6-bulk [mol/m^2] (per electrode area)" 	"Moles V_C6-bulk [mol/m^2] (per electrode area)" 	"qHeat_accum [J/m3]" 	"qHeat_step [W/m3]" 	"Joule_Lyte [W/m3]" 	"Joule_Solid [W/m3]" 	"electrodHeat [W/m3]" 	"OverpotHeat [W/m3]" 	"deltaSHeat [W/m3]" 	

ZONE T = "t = 0 [s]" I = 10 SOLUTIONTIME = 0.0000000000000E+00
0 	0 	0.92 	0.04 	0.04 	-0.07 	0 	
0 	0 	0 	0 	0 	0 	0.179822 	
0 	0 	0 	0 	0.35 	1.08333 	0.331979 	5.55556e-06 	
0.000403241 	0.000198611 	0 	0.0 	 0.0 	 0.0 	 0.0 	 0.0 	 0.0 	 
1.11111e-05 	0 	0.92 	0.04 	0.04 	-0.07 	0 	
0 	0 	0 	0 	0 	0 	-0 	
0 	0 	0 	0 	0.35 	2.16667 	0.331979 	1.11111e-05 	
0.000806481 	0.000397222 	0 	0.0 	 0.0 	 0.0 	 0.0 	 0.0 	 0.0 	 
2.22222e-05 	0 	0.92 	0.04 	0.04 	-0.07 	0 	
0 	0 	0 	0 	0 	0 	-0 	
0 	0 	0 	0 	0.35 	2.16667 	0.331979 	1.11111e-05 	
0.000806481 	0.000397222 	0 	0.0 	 0.0 	 0.0 	 0.0 	 0.0 	 0.0 	 
3.33333e-05 	0 	0.92 	0.04 	0.04 	-0.07 	0 	
0 	0 	0 	0 	0 	0 	-0 	
0 	0 	0 	0 	0.35 	2.16667 	0.331979 	1.11111e-05 	
0.000806481 	0.000397222 	0 	0.0 	 0.0 	 0.0 	 0.0 	 0.0 	 0.0 	 
4.44444e-05 	0 	0.92 	0.04 	0.04 	-0.07 	0 	
0 	0 	0 	0 	0 	0 	-0 	
0 	0 	0 	0 	0.35 	2.16667 	0.331979 	1.11111e-05 	
0.000806481 	0.000397222 	0 	0.0 	 0.0 	 0.0 	 0.0 	 0.0 	 0.0 	 
5.55556e-05 	0 	0.92 	0.04 	0.04 	-0.07 	0 	
0 	0 	0 	0 	0 	0 	-0 	
0 	0 	0 	0 	0.35 	2.16667 	0.331979 	1.11111e-05 	
0.000806481 	0.000397222 	0 	0.0 	 0.0 	 0.0 	 0.0 	 0.0 	 0.0 	 
6.66667e-05 	0 	0.92 	0.04 	0.04 	-0.07 	0 	
0 	0 	0 	0 	0 	0 	-0 	
0 	0 	0 	0 	0.35 	2.16667 	0.331979 	1.11111e-05 	
0.000806481 	0.000397222 	0 	0.0 	 0.0 	 0.0 	 0.0 	 0.0 	 0.0 	 
7.77778e-05 	0 	0.92 	0.04 	0.04 	-0.07 	0 	
0 	0 	0 	0 	0 	0 	-0 	
0 	0 	0 	0 	0.35 	2.16667 	0.331979 	1.11111e-05 	
0.000806481 	0.000397222 	0 	0.0 	 0.0 	 0.0 	 0.0 	 0.0 	 0.0 	 
8.88889e-05 	0 	0.92 	0.04 	0.04 	-0.07 	0 	
0 	0 	0 	0 	0 	0 	-0 	
0 	0 	0 	0 	0.35 	2.16667 	0.331979 	1.11111e-05 	
0.000806481 	0.000397222 	0 	0.0 	 0.0 	 0.0 	 0.0 	 0.0 	 0.0 	 
0.0001 	0 	0.92 	0.04 	0.04 	-0.07 	0 	
0 	0 	0 	0 	0 	0.179822 	0 	
0 	0 	0 	0 	0.35 	1.08333 	0.331979 	5.55556e-06 	
0.000403241 	0.000198611 	0 	0.0 	 0.0 	 0.0 	 0.0 	 0.0 	 0.0 	 
ZONE T = "t = 1e-08 [s]" I = 10 SOLUTIONTIME = 1.0000000000000E-08
0 	7.71719e-10 	0.92 	0.04 	0.04 	-0.125572 	0 	
0.07 	-0.00293862 	0.0729386 	0.359644 	-0 	0.555669 	19.4443 	
0 	19163.1 	97.5122 	145.541 	0.35 	1.08333 	1.02585 	5.55556e-06 	
0.000403241 	0.000198611 	0.000221598 	22159.8 	0.000133021 	5.48895 	22154.3 	22154.3 	0 	
1.11111e-05 	2.31506e-09 	0.92 	0.04 	0.04 	-0.125572 	-3.22883e-06 	
0.07 	-0.00293862 	0.0729386 	0.719287 	-0 	2.2226 	17.7774 	
0 	38326.1 	195.024 	291.081 	0.35 	2.16667 	1.02578 	1.11111e-05 	
0.000806481 	0.000397222 	0.000222052 	22205.2 	0.000665055 	4.88109 	22200.3 	22200.3 	0 	
2.22222e-05 	3.85831e-09 	0.92 	0.04 	0.04 	-0.125572 	-6.07774e-06 	
0.07 	-0.00293862 	0.0729386 	0.719287 	-0 	4.44507 	15.5549 	
0 	38326.1 	195.024 	291.081 	0.35 	2.16667 	1.02573 	1.11111e-05 	
0.000806481 	0.000397222 	0.000222003 	22200.3 	0.00226106 	3.74139 	22196.6 	22196.6 	0 	
3.33333e-05 	5.40149e-09 	0.92 	0.04 	0.04 	-0.125572 	-8.54676e-06 	
0.07 	-0.00293862 	0.0729386 	0.719287 	-0 	6.66742 	13.3326 	
0 	38326.1 	195.024 	291.081 	0.35 	2.16667 	1.02567 	1.11111e-05 	
0.000806481 	0.000397222 	0.00022145 	22145 	0.00492087 	2.75373 	22142.3 	22142.3 	0 	
4.44444e-05 	6.9446e-09 	0.92 	0.04 	0.04 	-0.125572 	-1.06359e-05 	
0.07 	-0.00293862 	0.0729386 	0.719287 	-0 	8.88967 	11.1103 	
0 	38326.1 	195.024 	291.081 	0.35 	2.16667 	1.02563 	1.11111e-05 	
0.000806481 	0.000397222 	0.000221415 	22141.5 	0.00864435 	1.91806 	22139.5 	22139.5 	0 	
5.55556e-05 	8.48766e-09 	0.92 	0.04 	0.04 	-0.125572 	-1.23452e-05 	
0.07 	-0.00293862 	0.0729386 	0.719287 	-0 	11.1118 	8.88816 	
0 	38326.1 	195.024 	291.081 	0.35 	2.16667 	1.0256 	1.11111e-05 	
0.000806481 	0.000397222 	0.000221228 	22122.8 	0.0134314 	1.23437 	22121.5 	22121.5 	0 	
6.66667e-05 	1.00307e-08 	0.92 	0.04 	0.04 	-0.125572 	-1.36746e-05 	
0.07 	-0.00293862 	0.0729386 	0.719287 	-0 	13.3339 	6.66606 	
0 	38326.1 	195.024 	291.081 	0.35 	2.16667 	1.02557 	1.11111e-05 	
0.000806481 	0.000397222 	0.000221243 	22124.3 	0.0192819 	0.702628 	22123.6 	22123.6 	0 	
7.77778e-05 	1.15737e-08 	0.92 	0.04 	0.04 	-0.125572 	-1.46242e-05 	
0.07 	-0.00293862 	0.0729386 	0.719287 	-0 	15.556 	4.44402 	
0 	38326.1 	195.024 	291.081 	0.35 	2.16667 	1.02555 	1.11111e-05 	
0.000806481 	0.000397222 	0.000221642 	22164.2 	0.0261959 	0.322825 	22163.8 	22163.8 	0 	
8.88889e-05 	1.31166e-08 	0.92 	0.04 	0.04 	-0.125572 	-1.51939e-05 	
0.07 	-0.00293862 	0.0729386 	0.719287 	-0 	17.778 	2.222 	
0 	38326.1 	195.024 	291.081 	0.35 	2.16667 	1.02554 	1.11111e-05 	
0.000806481 	0.000397222 	0.000221218 	22121.8 	0.0341734 	0.0949478 	22121.6 	22121.6 	0 	
0.0001 	1.38881e-08 	0.92 	0.04 	0.04 	-0.125572 	-1.53838e-05 	
0.07 	-0.00293862 	0.0729386 	0.359644 	-0 	19.4445 	0.555499 	
0 	19163.1 	97.5122 	145.541 	0.35 	1.08333 	1.02554 	5.55556e-06 	
0.000403241 	0.000198611 	0.000221629 	22162.9 	0.0384279 	0.0189895 	22162.9 	22162.9 	0 	
ZONE T = "t = 2e-08 [s]" I = 10 SOLUTIONTIME = 2.0000000000000E-08
0 	7.71717e-10 	0.92 	0.04 	0.04 	-0.125227 	0 	
0.125572 	-0.00293862 	0.128511 	1.11134 	5.7591e-09 	0.555667 	19.4443 	
2.78535e-11 	19163.1 	97.5122 	145.541 	0.35 	1.08333 	1.02585 	5.55556e-06 	
0.000403241 	0.000198611 	0.000478633 	25703.5 	0.000266042 	10.9779 	25698 	25698 	0 	
1.11111e-05 	2.31505e-09 	0.92 	0.04 	0.04 	-0.125227 	-3.22883e-06 	
0.125569 	-0.00293862 	0.128507 	2.22253 	1.72766e-08 	2.2226 	17.7774 	
5.57033e-11 	38326.1 	195.024 	291.081 	0.35 	2.16667 	1.02578 	1.11111e-05 	
0.000806481 	0.000397222 	0.000478031 	25597.9 	0.00133011 	9.76218 	25593.1 	25593.1 	0 	
2.22222e-05 	3.8583e-09 	0.92 	0.04 	0.04 	-0.125227 	-6.07774e-06 	
0.125566 	-0.00293862 	0.128504 	2.22241 	2.87934e-08 	4.44506 	15.5549 	
5.57001e-11 	38326.1 	195.024 	291.081 	0.35 	2.16667 	1.02572 	1.11111e-05 	
0.000806481 	0.000397222 	0.000477932 	25592.9 	0.00452212 	7.48279 	25589.2 	25589.2 	0 	
3.33333e-05 	5.40148e-09 	0.92 	0.04 	0.04 	-0.125227 	-8.54676e-06 	
0.125563 	-0.00293862 	0.128502 	2.2223 	4.03096e-08 	6.66741 	13.3326 	
5.56974e-11 	38326.1 	195.024 	291.081 	0.35 	2.16667 	1.02567 	1.11111e-05 	
0.000806481 	0.000397222 	0.000478125 	25667.5 	0.00984173 	5.50746 	25664.7 	25664.7 	0 	
4.44444e-05 	6.94459e-09 	0.92 	0.04 	0.04 	-0.125227 	-1.06359e-05 	
0.125561 	-0.00293862 	0.1285 	2.2222 	5.18254e-08 	8.88966 	11.1103 	
5.56951e-11 	38326.1 	195.024 	291.081 	0.35 	2.16667 	1.02563 	1.11111e-05 	
0.000806481 	0.000397222 	0.000478052 	25663.8 	0.0172887 	3.83613 	25661.8 	25661.8 	0 	
5.55556e-05 	8.48765e-09 	0.92 	0.04 	0.04 	-0.125227 	-1.23452e-05 	
0.12556 	-0.00293862 	0.128498 	2.22213 	6.33407e-08 	11.1118 	8.88817 	
5.56932e-11 	38326.1 	195.024 	291.081 	0.35 	2.16667 	1.0256 	1.11111e-05 	
0.000806481 	0.000397222 	0.000477431 	25620.3 	0.0268628 	2.46874 	25619 	25619 	0 	
6.66667e-05 	1.00307e-08 	0.92 	0.04 	0.04 	-0.125227 	-1.36746e-05 	
0.125558 	-0.00293862 	0.128497 	2.22207 	7.48558e-08 	13.3339 	6.66607 	
5.56917e-11 	38326.1 	195.024 	291.081 	0.35 	2.16667 	1.02557 	1.11111e-05 	
0.000806481 	0.000397222 	0.000477253 	25601 	0.0385638 	1.40526 	25600.3 	25600.3 	0 	
7.77778e-05 	1.15737e-08 	0.92 	0.04 	0.04 	-0.125227 	-1.46242e-05 	
0.125557 	-0.00293862 	0.128496 	2.22203 	8.63706e-08 	15.556 	4.44402 	
5.56907e-11 	38326.1 	195.024 	291.081 	0.35 	2.16667 	1.02555 	1.11111e-05 	
0.000806481 	0.000397222 	0.000478162 	25652 	0.0523918 	0.645651 	25651.6 	25651.6 	0 	
8.88889e-05 	1.31166e-08 	0.92 	0.04 	0.04 	-0.125227 	-1.51939e-05 	
0.125557 	-0.00293862 	0.128495 	2.222 	9.78875e-08 	17.778 	2.222 	
5.56901e-11 	38326.1 	195.024 	291.081 	0.35 	2.16667 	1.02554 	1.11111e-05 	
0.000806481 	0.000397222 	0.000477201 	25598.4 	0.0683467 	0.189896 	25598.3 	25598.3 	0 	
0.0001 	1.38881e-08 	0.92 	0.04 	0.04 	-0.125227 	-1.53838e-05 	
0.125557 	-0.00293862 	0.128495 	1.111 	9.78875e-08 	19.4445 	0.5555 	
2.78449e-11 	19163.1 	97.5122 	145.541 	0.35 	1.08333 	1.02554 	5.55556e-06 	
0.000403241 	0.000198611 	0.000478136 	25650.7 	0.0768559 	0.037979 	25650.7 	25650.7 	0 	
ZONE T = "t = 3e-08 [s]" I = 10 SOLUTIONTIME = 3.0000000000000E-08
0 	7.71717e-10 	0.92 	0.04 	0.04 	-0.125227 	0 	
0.125227 	-0.00293862 	0.128166 	1.11133 	5.75909e-09 	0.555667 	19.4443 	
5.57068e-11 	19163.1 	97.5122 	145.541 	0.35 	1.08333 	1.02585 	5.55556e-06 	
0.000403241 	0.000198611 	0.000735093 	25646 	0.000399062 	16.4668 	25640.6 	25640.6 	0 	
1.11111e-05 	2.31505e-09 	0.92 	0.04 	0.04 	-0.125227 	-3.22883e-06 	
0.125224 	-0.00293862 	0.128163 	2.22253 	1.72765e-08 	2.2226 	17.7774 	
1.11407e-10 	38326.1 	195.024 	291.081 	0.35 	2.16667 	1.02578 	1.11111e-05 	
0.000806481 	0.000397222 	0.000733756 	25572.4 	0.00199516 	14.6433 	25567.5 	25567.5 	0 	
2.22222e-05 	3.8583e-09 	0.92 	0.04 	0.04 	-0.125227 	-6.07774e-06 	
0.125221 	-0.00293862 	0.12816 	2.2224 	2.87933e-08 	4.44506 	15.5549 	
1.114e-10 	38326.1 	195.024 	291.081 	0.35 	2.16667 	1.02572 	1.11111e-05 	
0.000806481 	0.000397222 	0.000733606 	25567.4 	0.00678317 	11.2242 	25563.6 	25563.6 	0 	
3.33333e-05 	5.40148e-09 	0.92 	0.04 	0.04 	-0.125227 	-8.54676e-06 	
0.125219 	-0.00293862 	0.128157 	2.22229 	4.03095e-08 	6.66741 	13.3326 	
1.11395e-10 	38326.1 	195.024 	291.081 	0.35 	2.16667 	1.02567 	1.11111e-05 	
0.000806481 	0.000397222 	0.000733747 	25562.2 	0.0147626 	8.26119 	25559.5 	25559.5 	0 	
4.44444e-05 	6.94459e-09 	0.92 	0.04 	0.04 	-0.125227 	-1.06359e-05 	
0.125217 	-0.00293862 	0.128155 	2.2222 	5.18253e-08 	8.88966 	11.1103 	
1.1139e-10 	38326.1 	195.024 	291.081 	0.35 	2.16667 	1.02563 	1.11111e-05 	
0.000806481 	0.000397222 	0.000733637 	25558.5 	0.025933 	5.75419 	25556.6 	25556.6 	0 	
5.55556e-05 	8.48765e-09 	0.92 	0.04 	0.04 	-0.125227 	-1.23452e-05 	
0.125215 	-0.00293862 	0.128154 	2.22213 	6.33407e-08 	11.1118 	8.88817 	
1.11386e-10 	38326.1 	195.024 	291.081 	0.35 	2.16667 	1.0256 	1.11111e-05 	
0.000806481 	0.000397222 	0.000733602 	25617.1 	0.0402942 	3.70311 	25615.9 	25615.9 	0 	
6.66667e-05 	1.00307e-08 	0.92 	0.04 	0.04 	-0.125227 	-1.36746e-05 	
0.125214 	-0.00293862 	0.128152 	2.22207 	7.48557e-08 	13.3339 	6.66607 	
1.11384e-10 	38326.1 	195.024 	291.081 	0.35 	2.16667 	1.02557 	1.11111e-05 	
0.000806481 	0.000397222 	0.000732905 	25565.1 	0.0578458 	2.10789 	25564.4 	25564.4 	0 	
7.77778e-05 	1.15737e-08 	0.92 	0.04 	0.04 	-0.125227 	-1.46242e-05 	
0.125213 	-0.00293862 	0.128151 	2.22203 	8.63706e-08 	15.556 	4.44402 	
1.11381e-10 	38326.1 	195.024 	291.081 	0.35 	2.16667 	1.02555 	1.11111e-05 	
0.000806481 	0.000397222 	0.000735543 	25738.1 	0.0785877 	0.968477 	25737.8 	25737.8 	0 	
8.88889e-05 	1.31166e-08 	0.92 	0.04 	0.04 	-0.125227 	-1.51939e-05 	
0.125212 	-0.00293862 	0.128151 	2.22201 	9.78897e-08 	17.778 	2.222 	
1.1138e-10 	38326.1 	195.024 	291.081 	0.35 	2.16667 	1.02554 	1.11111e-05 	
0.000806481 	0.000397222 	0.000732827 	25562.5 	0.10252 	0.284844 	25562.4 	25562.4 	0 	
0.0001 	1.38881e-08 	0.92 	0.04 	0.04 	-0.125227 	-1.53838e-05 	
0.125212 	-0.00293862 	0.128151 	1.111 	9.78897e-08 	19.4445 	0.5555 	
5.56899e-11 	19163.1 	97.5122 	145.541 	0.35 	1.08333 	1.02554 	5.55556e-06 	
0.000403241 	0.000198611 	0.000735505 	25736.8 	0.115284 	0.0569686 	25736.8 	25736.8 	0 	
ZONE T = "t = 4e-08 [s]" I = 10 SOLUTIONTIME = 4.0000000000000E-08
0 	7.71717e-10 	0.92 	0.04 	0.04 	-0.125227 	0 	
0.125227 	-0.00293862 	0.128166 	1.11133 	5.75909e-09 	0.555667 	19.4443 	
8.35602e-11 	19163.1 	97.5122 	145.541 	0.35 	1.08333 	1.02585 	5.55556e-06 	
0.000403241 	0.000198611 	0.000991347 	25625.3 	0.000532083 	21.9558 	25619.8 	25619.8 	0 	
1.11111e-05 	2.31505e-09 	0.92 	0.04 	0.04 	-0.125227 	-3.22883e-06 	
0.125224 	-0.00293862 	0.128163 	2.22253 	1.72765e-08 	2.2226 	17.7774 	
1.6711e-10 	38326.1 	195.024 	291.081 	0.35 	2.16667 	1.02578 	1.11111e-05 	
0.000806481 	0.000397222 	0.000990134 	25637.8 	0.00266021 	19.5244 	25632.9 	25632.9 	0 	
2.22222e-05 	3.8583e-09 	0.92 	0.04 	0.04 	-0.125227 	-6.07774e-06 	
0.125221 	-0.00293862 	0.12816 	2.2224 	2.87933e-08 	4.44506 	15.5549 	
1.671e-10 	38326.1 	195.024 	291.081 	0.35 	2.16667 	1.02572 	1.11111e-05 	
0.000806481 	0.000397222 	0.000989933 	25632.8 	0.00904422 	14.9656 	25629 	25629 	0 	
3.33333e-05 	5.40148e-09 	0.92 	0.04 	0.04 	-0.125227 	-8.54676e-06 	
0.125219 	-0.00293862 	0.128157 	2.22229 	4.03095e-08 	6.66741 	13.3326 	
1.67092e-10 	38326.1 	195.024 	291.081 	0.35 	2.16667 	1.02567 	1.11111e-05 	
0.000806481 	0.000397222 	0.000990206 	25645.9 	0.0196835 	11.0149 	25643.2 	25643.2 	0 	
4.44444e-05 	6.94459e-09 	0.92 	0.04 	0.04 	-0.125227 	-1.06359e-05 	
0.125217 	-0.00293862 	0.128155 	2.2222 	5.18253e-08 	8.88966 	11.1103 	
1.67085e-10 	38326.1 	195.024 	291.081 	0.35 	2.16667 	1.02563 	1.11111e-05 	
0.000806481 	0.000397222 	0.00099006 	25642.2 	0.0345774 	7.67225 	25640.3 	25640.3 	0 	
5.55556e-05 	8.48765e-09 	0.92 	0.04 	0.04 	-0.125227 	-1.23452e-05 	
0.125215 	-0.00293862 	0.128154 	2.22213 	6.33407e-08 	11.1118 	8.88817 	
1.6708e-10 	38326.1 	195.024 	291.081 	0.35 	2.16667 	1.0256 	1.11111e-05 	
0.000806481 	0.000397222 	0.000989892 	25629.1 	0.0537255 	4.93748 	25627.8 	25627.8 	0 	
6.66667e-05 	1.00307e-08 	0.92 	0.04 	0.04 	-0.125227 	-1.36746e-05 	
0.125214 	-0.00293862 	0.128152 	2.22207 	7.48557e-08 	13.3339 	6.66607 	
1.67075e-10 	38326.1 	195.024 	291.081 	0.35 	2.16667 	1.02557 	1.11111e-05 	
0.000806481 	0.000397222 	0.000988979 	25607.4 	0.0771277 	2.81052 	25606.7 	25606.7 	0 	
7.77778e-05 	1.15737e-08 	0.92 	0.04 	0.04 	-0.125227 	-1.46242e-05 	
0.125213 	-0.00293862 	0.128151 	2.22203 	8.63706e-08 	15.556 	4.44402 	
1.67072e-10 	38326.1 	195.024 	291.081 	0.35 	2.16667 	1.02555 	1.11111e-05 	
0.000806481 	0.000397222 	0.000991456 	25591.4 	0.104784 	1.2913 	25591 	25591 	0 	
8.88889e-05 	1.31166e-08 	0.92 	0.04 	0.04 	-0.125227 	-1.51939e-05 	
0.125212 	-0.00293862 	0.128151 	2.22201 	9.78919e-08 	17.778 	2.222 	
1.6707e-10 	38326.1 	195.024 	291.081 	0.35 	2.16667 	1.02554 	1.11111e-05 	
0.000806481 	0.000397222 	0.000988874 	25604.8 	0.136693 	0.379792 	25604.6 	25604.6 	0 	
0.0001 	1.38881e-08 	0.92 	0.04 	0.04 	-0.125227 	-1.53838e-05 	
0.125212 	-0.00293862 	0.128151 	1.111 	9.78919e-08 	19.4445 	0.5555 	
8.35349e-11 	19163.1 	97.5122 	145.541 	0.35 	1.08333 	1.02554 	5.55556e-06 	
0.000403241 	0.000198611 	0.000991406 	25590.1 	0.153712 	0.0759581 	25590.1 	25590.1 	0 	
ZONE T = "t = 5.5e-08 [s]" I = 10 SOLUTIONTIME = 5.5000000000000E-08
0 	7.71717e-10 	0.92 	0.04 	0.04 	-0.125227 	0 	
0.125227 	-0.00293862 	0.128166 	1.11133 	5.75909e-09 	0.555667 	19.4443 	
1.11414e-10 	19163.1 	97.5122 	145.541 	0.35 	1.08333 	1.02585 	5.55556e-06 	
0.000403241 	0.000198611 	0.00137444 	25539.4 	0.000487742 	20.1261 	25533.9 	25533.9 	0 	
1.11111e-05 	2.31505e-09 	0.92 	0.04 	0.04 	-0.125227 	-3.22883e-06 	
0.125224 	-0.00293862 	0.128163 	2.22253 	1.72765e-08 	2.2226 	17.7774 	
2.22813e-10 	38326.1 	195.024 	291.081 	0.35 	2.16667 	1.02578 	1.11111e-05 	
0.000806481 	0.000397222 	0.00137449 	25623.7 	0.00243853 	17.8973 	25618.8 	25618.8 	0 	
2.22222e-05 	3.8583e-09 	0.92 	0.04 	0.04 	-0.125227 	-6.07774e-06 	
0.125221 	-0.00293862 	0.12816 	2.2224 	2.87933e-08 	4.44506 	15.5549 	
2.228e-10 	38326.1 	195.024 	291.081 	0.35 	2.16667 	1.02572 	1.11111e-05 	
0.000806481 	0.000397222 	0.00137436 	25628.7 	0.00829054 	13.7185 	25625 	25625 	0 	
3.33333e-05 	5.40148e-09 	0.92 	0.04 	0.04 	-0.125227 	-8.54676e-06 	
0.125219 	-0.00293862 	0.128157 	2.22229 	4.03095e-08 	6.66741 	13.3326 	
2.2279e-10 	38326.1 	195.024 	291.081 	0.35 	2.16667 	1.02567 	1.11111e-05 	
0.000806481 	0.000397222 	0.00137505 	25656.2 	0.0180432 	10.097 	25653.5 	25653.5 	0 	
4.44444e-05 	6.94459e-09 	0.92 	0.04 	0.04 	-0.125227 	-1.06359e-05 	
0.125217 	-0.00293862 	0.128155 	2.2222 	5.18253e-08 	8.88966 	11.1103 	
2.2278e-10 	38326.1 	195.024 	291.081 	0.35 	2.16667 	1.02563 	1.11111e-05 	
0.000806481 	0.000397222 	0.00137485 	25652.5 	0.0316959 	7.0329 	25650.6 	25650.6 	0 	
5.55556e-05 	8.48765e-09 	0.92 	0.04 	0.04 	-0.125227 	-1.23452e-05 	
0.125215 	-0.00293862 	0.128154 	2.22213 	6.33407e-08 	11.1118 	8.88817 	
2.22773e-10 	38326.1 	195.024 	291.081 	0.35 	2.16667 	1.0256 	1.11111e-05 	
0.000806481 	0.000397222 	0.00137494 	25669.7 	0.0492484 	4.52602 	25668.5 	25668.5 	0 	
6.66667e-05 	1.00307e-08 	0.92 	0.04 	0.04 	-0.125227 	-1.36746e-05 	
0.125214 	-0.00293862 	0.128152 	2.22207 	7.48557e-08 	13.3339 	6.66607 	
2.22767e-10 	38326.1 	195.024 	291.081 	0.35 	2.16667 	1.02557 	1.11111e-05 	
0.000806481 	0.000397222 	0.00137267 	25579.7 	0.0707004 	2.57631 	25579 	25579 	0 	
7.77778e-05 	1.15737e-08 	0.92 	0.04 	0.04 	-0.125227 	-1.46242e-05 	
0.125213 	-0.00293862 	0.128151 	2.22203 	8.63706e-08 	15.556 	4.44402 	
2.22763e-10 	38326.1 	195.024 	291.081 	0.35 	2.16667 	1.02555 	1.11111e-05 	
0.000806481 	0.000397222 	0.00137589 	25629.1 	0.0960517 	1.18369 	25628.7 	25628.7 	0 	
8.88889e-05 	1.31166e-08 	0.92 	0.04 	0.04 	-0.125227 	-1.51939e-05 	
0.125212 	-0.00293862 	0.128151 	2.22201 	9.78941e-08 	17.778 	2.222 	
2.22761e-10 	38326.1 	195.024 	291.081 	0.35 	2.16667 	1.02554 	1.11111e-05 	
0.000806481 	0.000397222 	0.0013733 	25628.1 	0.125302 	0.348143 	25628 	25628 	0 	
0.0001 	1.38881e-08 	0.92 	0.04 	0.04 	-0.125227 	-1.53838e-05 	
0.125212 	-0.00293862 	0.128151 	1.111 	9.78941e-08 	19.4445 	0.5555 	
1.1138e-10 	19163.1 	97.5122 	145.541 	0.35 	1.08333 	1.02554 	5.55556e-06 	
0.000403241 	0.000198611 	0.00137582 	25627.8 	0.140902 	0.0696283 	25627.7 	25627.7 	0 	
ZONE T = "t = 7.75e-08 [s]" I = 10 SOLUTIONTIME = 7.7500000000000E-08
0 	7.71717e-10 	0.92 	0.04 	0.04 	-0.125227 	0 	
0.125227 	-0.00293862 	0.128166 	1.11133 	5.75909e-09 	0.555667 	19.4443 	
1.53194e-10 	19163.1 	97.5122 	145.541 	0.35 	1.08333 	1.02585 	5.55556e-06 	
0.000403241 	0.000198611 	0.00195283 	25706.5 	0.000458182 	18.9064 	25701 	25701 	0 	
1.11111e-05 	2.31505e-09 	0.92 	0.04 	0.04 	-0.125227 	-3.22883e-06 	
0.125224 	-0.00293862 	0.128163 	2.22253 	1.72765e-08 	2.2226 	17.7774 	
3.06368e-10 	38326.1 	195.024 	291.081 	0.35 	2.16667 	1.02578 	1.11111e-05 	
0.000806481 	0.000397222 	0.00195289 	25706.8 	0.00229074 	16.8126 	25701.9 	25701.9 	0 	
2.22222e-05 	3.8583e-09 	0.92 	0.04 	0.04 	-0.125227 	-6.07774e-06 	
0.125221 	-0.00293862 	0.12816 	2.2224 	2.87933e-08 	4.44506 	15.5549 	
3.0635e-10 	38326.1 	195.024 	291.081 	0.35 	2.16667 	1.02572 	1.11111e-05 	
0.000806481 	0.000397222 	0.00195168 	25658.5 	0.00778808 	12.887 	25654.7 	25654.7 	0 	
3.33333e-05 	5.40148e-09 	0.92 	0.04 	0.04 	-0.125227 	-8.54676e-06 	
0.125219 	-0.00293862 	0.128157 	2.22229 	4.03095e-08 	6.66741 	13.3326 	
3.06336e-10 	38326.1 	195.024 	291.081 	0.35 	2.16667 	1.02567 	1.11111e-05 	
0.000806481 	0.000397222 	0.00195247 	25663.3 	0.0169496 	9.48507 	25660.6 	25660.6 	0 	
4.44444e-05 	6.94459e-09 	0.92 	0.04 	0.04 	-0.125227 	-1.06359e-05 	
0.125217 	-0.00293862 	0.128155 	2.2222 	5.18253e-08 	8.88966 	11.1103 	
3.06323e-10 	38326.1 	195.024 	291.081 	0.35 	2.16667 	1.02563 	1.11111e-05 	
0.000806481 	0.000397222 	0.001953 	25695.4 	0.0297749 	6.60666 	25693.5 	25693.5 	0 	
5.55556e-05 	8.48765e-09 	0.92 	0.04 	0.04 	-0.125227 	-1.23452e-05 	
0.125215 	-0.00293862 	0.128154 	2.22213 	6.33407e-08 	11.1118 	8.88817 	
3.06313e-10 	38326.1 	195.024 	291.081 	0.35 	2.16667 	1.0256 	1.11111e-05 	
0.000806481 	0.000397222 	0.00195141 	25621.2 	0.0462636 	4.25172 	25619.9 	25619.9 	0 	
6.66667e-05 	1.00307e-08 	0.92 	0.04 	0.04 	-0.125227 	-1.36746e-05 	
0.125214 	-0.00293862 	0.128152 	2.22207 	7.48557e-08 	13.3339 	6.66607 	
3.06305e-10 	38326.1 	195.024 	291.081 	0.35 	2.16667 	1.02557 	1.11111e-05 	
0.000806481 	0.000397222 	0.00194849 	25591.9 	0.0664155 	2.42017 	25591.2 	25591.2 	0 	
7.77778e-05 	1.15737e-08 	0.92 	0.04 	0.04 	-0.125227 	-1.46242e-05 	
0.125213 	-0.00293862 	0.128151 	2.22203 	8.63706e-08 	15.556 	4.44402 	
3.06299e-10 	38326.1 	195.024 	291.081 	0.35 	2.16667 	1.02555 	1.11111e-05 	
0.000806481 	0.000397222 	0.00195285 	25642.4 	0.0902304 	1.11196 	25642 	25642 	0 	
8.88889e-05 	1.31166e-08 	0.92 	0.04 	0.04 	-0.125227 	-1.51939e-05 	
0.125212 	-0.00293862 	0.128151 	2.22201 	9.78975e-08 	17.778 	2.222 	
3.06296e-10 	38326.1 	195.024 	291.081 	0.35 	2.16667 	1.02554 	1.11111e-05 	
0.000806481 	0.000397222 	0.00195145 	25695.6 	0.117708 	0.327043 	25695.5 	25695.5 	0 	
0.0001 	1.38881e-08 	0.92 	0.04 	0.04 	-0.125227 	-1.53838e-05 	
0.125212 	-0.00293862 	0.128151 	1.111 	9.78975e-08 	19.4445 	0.5555 	
1.53147e-10 	19163.1 	97.5122 	145.541 	0.35 	1.08333 	1.02554 	5.55556e-06 	
0.000403241 	0.000198611 	0.00195275 	25641.1 	0.132363 	0.0654084 	25641 	25641 	0 	
ZONE T = "t = 1.1125e-07 [s]" I = 10 SOLUTIONTIME = 1.1125000000000E-07
0 	7.71717e-10 	0.92 	0.04 	0.04 	-0.125227 	0 	
0.125227 	-0.00293862 	0.128166 	1.11133 	5.75909e-09 	0.555667 	19.4443 	
2.15864e-10 	19163.1 	97.5122 	145.541 	0.35 	1.08333 	1.02585 	5.55556e-06 	
0.000403241 	0.000198611 	0.00281827 	25642.6 	0.000438475 	18.0932 	25637.1 	25637.1 	0 	
1.11111e-05 	2.31505e-09 	0.92 	0.04 	0.04 	-0.125227 	-3.22883e-06 	
0.125224 	-0.00293862 	0.128163 	2.22253 	1.72765e-08 	2.2226 	17.7774 	
4.317e-10 	38326.1 	195.024 	291.081 	0.35 	2.16667 	1.02578 	1.11111e-05 	
0.000806481 	0.000397222 	0.00281877 	25655.7 	0.00219221 	16.0895 	25650.9 	25650.9 	0 	
2.22222e-05 	3.8583e-09 	0.92 	0.04 	0.04 	-0.125227 	-6.07774e-06 	
0.125221 	-0.00293862 	0.12816 	2.2224 	2.87933e-08 	4.44506 	15.5549 	
4.31676e-10 	38326.1 	195.024 	291.081 	0.35 	2.16667 	1.02572 	1.11111e-05 	
0.000806481 	0.000397222 	0.00281589 	25606.3 	0.00745311 	12.3328 	25602.5 	25602.5 	0 	
3.33333e-05 	5.40148e-09 	0.92 	0.04 	0.04 	-0.125227 	-8.54676e-06 	
0.125219 	-0.00293862 	0.128157 	2.22229 	4.03095e-08 	6.66741 	13.3326 	
4.31655e-10 	38326.1 	195.024 	291.081 	0.35 	2.16667 	1.02567 	1.11111e-05 	
0.000806481 	0.000397222 	0.00281609 	25588.7 	0.0162206 	9.07711 	25585.9 	25585.9 	0 	
4.44444e-05 	6.94459e-09 	0.92 	0.04 	0.04 	-0.125227 	-1.06359e-05 	
0.125217 	-0.00293862 	0.128155 	2.2222 	5.18253e-08 	8.88966 	11.1103 	
4.31637e-10 	38326.1 	195.024 	291.081 	0.35 	2.16667 	1.02563 	1.11111e-05 	
0.000806481 	0.000397222 	0.00281644 	25583.6 	0.0284943 	6.32251 	25581.6 	25581.6 	0 	
5.55556e-05 	8.48765e-09 	0.92 	0.04 	0.04 	-0.125227 	-1.23452e-05 	
0.125215 	-0.00293862 	0.128154 	2.22213 	6.33407e-08 	11.1118 	8.88817 	
4.31622e-10 	38326.1 	195.024 	291.081 	0.35 	2.16667 	1.0256 	1.11111e-05 	
0.000806481 	0.000397222 	0.00281524 	25595 	0.0442738 	4.06885 	25593.7 	25593.7 	0 	
6.66667e-05 	1.00307e-08 	0.92 	0.04 	0.04 	-0.125227 	-1.36746e-05 	
0.125214 	-0.00293862 	0.128152 	2.22207 	7.48557e-08 	13.3339 	6.66607 	
4.31611e-10 	38326.1 	195.024 	291.081 	0.35 	2.16667 	1.02557 	1.11111e-05 	
0.000806481 	0.000397222 	0.00281437 	25655.7 	0.0635589 	2.31607 	25655 	25655 	0 	
7.77778e-05 	1.15737e-08 	0.92 	0.04 	0.04 	-0.125227 	-1.46242e-05 	
0.125213 	-0.00293862 	0.128151 	2.22203 	8.63706e-08 	15.556 	4.44402 	
4.31603e-10 	38326.1 	195.024 	291.081 	0.35 	2.16667 	1.02555 	1.11111e-05 	
0.000806481 	0.000397222 	0.00281751 	25619.8 	0.0863495 	1.06413 	25619.4 	25619.4 	0 	
8.88889e-05 	1.31166e-08 	0.92 	0.04 	0.04 	-0.125227 	-1.51939e-05 	
0.125212 	-0.00293862 	0.128151 	2.22201 	9.79027e-08 	17.778 	2.222 	
4.31599e-10 	38326.1 	195.024 	291.081 	0.35 	2.16667 	1.02554 	1.11111e-05 	
0.000806481 	0.000397222 	0.00281654 	25632.5 	0.112645 	0.312977 	25632.4 	25632.4 	0 	
0.0001 	1.38881e-08 	0.92 	0.04 	0.04 	-0.125227 	-1.53838e-05 	
0.125212 	-0.00293862 	0.128151 	1.111 	9.79027e-08 	19.4445 	0.5555 	
2.15799e-10 	19163.1 	97.5122 	145.541 	0.35 	1.08333 	1.02554 	5.55556e-06 	
0.000403241 	0.000198611 	0.00281737 	25618.5 	0.12667 	0.0625951 	25618.5 	25618.5 	0 	
ZONE T = "t = 1.61875e-07 [s]" I = 10 SOLUTIONTIME = 1.6187500000000E-07
0 	7.71717e-10 	0.92 	0.04 	0.04 	-0.125227 	0 	
0.125227 	-0.00293862 	0.128166 	1.11133 	5.75909e-09 	0.555667 	19.4443 	
3.09869e-10 	19163.1 	97.5122 	145.541 	0.35 	1.08333 	1.02585 	5.55556e-06 	
0.000403241 	0.000198611 	0.00411703 	25654.6 	0.000425337 	17.5511 	25649.1 	25649.1 	0 	
1.11111e-05 	2.31505e-09 	0.92 	0.04 	0.04 	-0.125227 	-3.22883e-06 	
0.125224 	-0.00293862 	0.128163 	2.22253 	1.72765e-08 	2.2226 	17.7774 	
6.19698e-10 	38326.1 	195.024 	291.081 	0.35 	2.16667 	1.02578 	1.11111e-05 	
0.000806481 	0.000397222 	0.00411869 	25677.4 	0.00212652 	15.6074 	25672.5 	25672.5 	0 	
2.22222e-05 	3.8583e-09 	0.92 	0.04 	0.04 	-0.125227 	-6.07774e-06 	
0.125221 	-0.00293862 	0.12816 	2.2224 	2.87933e-08 	4.44506 	15.5549 	
6.19663e-10 	38326.1 	195.024 	291.081 	0.35 	2.16667 	1.02572 	1.11111e-05 	
0.000806481 	0.000397222 	0.00411074 	25577.2 	0.00722979 	11.9632 	25573.5 	25573.5 	0 	
3.33333e-05 	5.40148e-09 	0.92 	0.04 	0.04 	-0.125227 	-8.54676e-06 	
0.125219 	-0.00293862 	0.128157 	2.22229 	4.03095e-08 	6.66741 	13.3326 	
6.19633e-10 	38326.1 	195.024 	291.081 	0.35 	2.16667 	1.02567 	1.11111e-05 	
0.000806481 	0.000397222 	0.00411537 	25664.7 	0.0157346 	8.80514 	25661.9 	25661.9 	0 	
4.44444e-05 	6.94459e-09 	0.92 	0.04 	0.04 	-0.125227 	-1.06359e-05 	
0.125217 	-0.00293862 	0.128155 	2.2222 	5.18253e-08 	8.88966 	11.1103 	
6.19608e-10 	38326.1 	195.024 	291.081 	0.35 	2.16667 	1.02563 	1.11111e-05 	
0.000806481 	0.000397222 	0.00411408 	25632.3 	0.0276405 	6.13307 	25630.4 	25630.4 	0 	
5.55556e-05 	8.48765e-09 	0.92 	0.04 	0.04 	-0.125227 	-1.23452e-05 	
0.125215 	-0.00293862 	0.128154 	2.22213 	6.33407e-08 	11.1118 	8.88817 	
6.19587e-10 	38326.1 	195.024 	291.081 	0.35 	2.16667 	1.0256 	1.11111e-05 	
0.000806481 	0.000397222 	0.00411212 	25617.3 	0.0429472 	3.94694 	25616.1 	25616.1 	0 	
6.66667e-05 	1.00307e-08 	0.92 	0.04 	0.04 	-0.125227 	-1.36746e-05 	
0.125214 	-0.00293862 	0.128152 	2.22207 	7.48557e-08 	13.3339 	6.66607 	
6.19571e-10 	38326.1 	195.024 	291.081 	0.35 	2.16667 	1.02557 	1.11111e-05 	
0.000806481 	0.000397222 	0.0041119 	25630.3 	0.0616545 	2.24668 	25629.5 	25629.5 	0 	
7.77778e-05 	1.15737e-08 	0.92 	0.04 	0.04 	-0.125227 	-1.46242e-05 	
0.125213 	-0.00293862 	0.128151 	2.22203 	8.63707e-08 	15.556 	4.44402 	
6.1956e-10 	38326.1 	195.024 	291.081 	0.35 	2.16667 	1.02555 	1.11111e-05 	
0.000806481 	0.000397222 	0.00411593 	25647.8 	0.0837622 	1.03225 	25647.5 	25647.5 	0 	
8.88889e-05 	1.31166e-08 	0.92 	0.04 	0.04 	-0.125227 	-1.51939e-05 	
0.125212 	-0.00293862 	0.128151 	2.22201 	9.79108e-08 	17.778 	2.222 	
6.19553e-10 	38326.1 	195.024 	291.081 	0.35 	2.16667 	1.02554 	1.11111e-05 	
0.000806481 	0.000397222 	0.00411194 	25588.1 	0.10927 	0.303599 	25588 	25588 	0 	
0.0001 	1.38881e-08 	0.92 	0.04 	0.04 	-0.125227 	-1.53838e-05 	
0.125212 	-0.00293862 	0.128151 	1.111 	9.79108e-08 	19.4445 	0.5555 	
3.09775e-10 	19163.1 	97.5122 	145.541 	0.35 	1.08333 	1.02554 	5.55556e-06 	
0.000403241 	0.000198611 	0.00411468 	25625.8 	0.122875 	0.0607196 	25625.7 	25625.7 	0 	
ZONE T = "t = 2.37813e-07 [s]" I = 10 SOLUTIONTIME = 2.3781250000000E-07
0 	7.71717e-10 	0.92 	0.04 	0.04 	-0.125227 	0 	
0.125227 	-0.00293862 	0.128166 	1.11133 	5.75909e-09 	0.555667 	19.4443 	
4.50877e-10 	19163.1 	97.5122 	145.541 	0.35 	1.08333 	1.02585 	5.55556e-06 	
0.000403241 	0.000198611 	0.00606543 	25657.9 	0.000416579 	17.1897 	25652.4 	25652.4 	0 	
1.11111e-05 	2.31505e-09 	0.92 	0.04 	0.04 	-0.125227 	-3.22883e-06 	
0.125224 	-0.00293862 	0.128163 	2.22253 	1.72765e-08 	2.2226 	17.7774 	
9.01696e-10 	38326.1 	195.024 	291.081 	0.35 	2.16667 	1.02578 	1.11111e-05 	
0.000806481 	0.000397222 	0.0060658 	25641 	0.00208273 	15.2861 	25636.1 	25636.1 	0 	
2.22222e-05 	3.8583e-09 	0.92 	0.04 	0.04 	-0.125227 	-6.07774e-06 	
0.125221 	-0.00293862 	0.12816 	2.2224 	2.87933e-08 	4.44506 	15.5549 	
9.01645e-10 	38326.1 	195.024 	291.081 	0.35 	2.16667 	1.02572 	1.11111e-05 	
0.000806481 	0.000397222 	0.00605848 	25649.2 	0.00708092 	11.7169 	25645.5 	25645.5 	0 	
3.33333e-05 	5.40148e-09 	0.92 	0.04 	0.04 	-0.125227 	-8.54676e-06 	
0.125219 	-0.00293862 	0.128157 	2.22229 	4.03095e-08 	6.66741 	13.3326 	
9.01601e-10 	38326.1 	195.024 	291.081 	0.35 	2.16667 	1.02567 	1.11111e-05 	
0.000806481 	0.000397222 	0.00606257 	25642.2 	0.0154106 	8.62383 	25639.5 	25639.5 	0 	
4.44444e-05 	6.94459e-09 	0.92 	0.04 	0.04 	-0.125227 	-1.06359e-05 	
0.125217 	-0.00293862 	0.128155 	2.2222 	5.18253e-08 	8.88966 	11.1103 	
9.01564e-10 	38326.1 	195.024 	291.081 	0.35 	2.16667 	1.02563 	1.11111e-05 	
0.000806481 	0.000397222 	0.0060617 	25647.8 	0.0270714 	6.00678 	25645.9 	25645.9 	0 	
5.55556e-05 	8.48765e-09 	0.92 	0.04 	0.04 	-0.125227 	-1.23452e-05 	
0.125215 	-0.00293862 	0.128154 	2.22213 	6.33407e-08 	11.1118 	8.88817 	
9.01534e-10 	38326.1 	195.024 	291.081 	0.35 	2.16667 	1.0256 	1.11111e-05 	
0.000806481 	0.000397222 	0.00605774 	25621.4 	0.0420629 	3.86566 	25620.1 	25620.1 	0 	
6.66667e-05 	1.00307e-08 	0.92 	0.04 	0.04 	-0.125227 	-1.36746e-05 	
0.125214 	-0.00293862 	0.128152 	2.22207 	7.48557e-08 	13.3339 	6.66607 	
9.01511e-10 	38326.1 	195.024 	291.081 	0.35 	2.16667 	1.02557 	1.11111e-05 	
0.000806481 	0.000397222 	0.00605701 	25614.6 	0.0603849 	2.20042 	25613.9 	25613.9 	0 	