TITLE = "Solution on Domain BulkDomain1D_0"
VARIABLES = "x [m]"  
"Vel_axial(0)" 	"MF_sp(ECDMC)" 	"MF_sp(Li+)" 	"MF_sp(PF6-)" 	"Volt(Electroly)" 	"Volt(AnodeVolt)" 	
"Potential Drop Electrode-Electrolyte [V]" 	"Surf_0 Equilibrium Potential Drop Electrode-Electrolyte [V]" 	"Overpotential_0 [V]" 	"Current Source [A/m^2]" 	"Li+ flux [kmol/m^2/s]" 	"Electrolyte Current [A/m^2]" 	"Electrode Current [A/m^2]" 	
"Capacity discharged [A-s]" 	"Depth of discharge [-]" 	"Capacity remaining [A-s]" 	"Initial capacity [A-s]" 	"Porosity []" 	"Surface Area [m2/m2] (area per area)" 	"Specific current (per particle area) [A/m^2]" 	"Control volume thickness [m]" 	
"Moles Li_C6-bulk [mol/m^2] (per electrode area)" 	"Moles V_C6-bulk [mol/m^2] (per electrode area)" 	"qHeat_accum [J/m3]" 	"qHeat_step [W/m3]" 	"Joule_Lyte [W/m3]" 	"Joule_Solid [W/m3]" 	"electrodHeat [W/m3]" 	"OverpotHeat [W/m3]" 	"deltaSHeat [W/m3]" 	

ZONE T = "t = 0 [s]" I = 10 SOLUTIONTIME = 0.0000000000000E+00
0 	0 	0.92 	0.04 	0.04 	-0.07 	0 	
0 	0 	0 	0 	0 	0 	0.179822 	
0 	0 	0 	0 	0.35 	1.08333 	0.331979 	5.55556e-06 	
0.000403241 	0.000198611 	0 	0.0 	 0.0 	 0.0 	 0.0 	 0.0 	 0.0 	 
1.11111e-05 	0 	0.92 	0.04 	0.04 	-0.07 	0 	
0 	0 	0 	0 	0 	0 	-0 	
0 	0 	0 	0 	0.35 	2.16667 	0.331979 	1.11111e-05 	
0.000806481 	0.000397222 	0 	0.0 	 0.0 	 0.0 	 0.0 	 0.0 	 0.0 	 
2.22222e-05 	0 	0.92 	0.04 	0.04 	-0.07 	0 	
0 	0 	0 	0 	0 	0 	-0 	
0 	0 	0 	0 	0.35 	2.16667 	0.331979 	1.11111e-05 	
0.000806481 	0.000397222 	0 	0.0 	 0.0 	 0.0 	 0.0 	 0.0 	 0.0 	 
3.33333e-05 	0 	0.92 	0.04 	0.04 	-0.07 	0 	
0 	0 	0 	0 	0 	0 	-0 	
0 	0 	0 	0 	0.35 	2.16667 	0.331979 	1.11111e-05 	
0.000806481 	0.000397222 	0 	0.0 	 0.0 	 0.0 	 0.0 	 0.0 	 0.0 	 
4.44444e-05 	0 	0.92 	0.04 	0.04 	-0.07 	0 	
0 	0 	0 	0 	0 	0 	-0 	
0 	0 	0 	0 	0.35 	2.16667 	0.331979 	1.11111e-05 	
0.000806481 	0.000397222 	0 	0.0 	 0.0 	 0.0 	 0.0 	 0.0 	 0.0 	 
5.55556e-05 	0 	0.92 	0.04 	0.04 	-0.07 	0 	
0 	0 	0 	0 	0 	0 	-0 	
0 	0 	0 	0 	0.35 	2.16667 	0.331979 	1.11111e-05 	
0.000806481 	0.000397222 	0 	0.0 	 0.0 	 0.0 	 0.0 	 0.0 	 0.0 	 
6.66667e-05 	0 	0.92 	0.04 	0.04 	-0.07 	0 	
0 	0 	0 	0 	0 	0 	-0 	
0 	0 	0 	0 	0.35 	2.16667 	0.331979 	1.11111e-05 	
0.000806481 	0.000397222 	0 	0.0 	 0.0 	 0.0 	 0.0 	 0.0 	 0.0 	 
7.77778e-05 	0 	0.92 	0.04 	0.04 	-0.07 	0 	
0 	0 	0 	0 	0 	0 	-0 	
0 	0 	0 	0 	0.35 	2.16667 	0.331979 	1.11111e-05 	
0.000806481 	0.000397222 	0 	0.0 	 0.0 	 0.0 	 0.0 	 0.0 	 0.0 	 
8.88889e-05 	0 	0.92 	0.04 	0.04 	-0.07 	0 	
0 	0 	0 	0 	0 	0 	-0 	
0 	0 	0 	0 	0.35 	2.16667 	0.331979 	1.11111e-05 	
0.000806481 	0.000397222 	0 	0.0 	 0.0 	 0.0 	 0.0 	 0.0 	 0.0 	 
0.0001 	0 	0.92 	0.04 	0.04 	-0.07 	0 	
0 	0 	0 	0 	0 	0.179822 	0 	
0 	0 	0 	0 	0.35 	1.08333 	0.331979 	5.55556e-06 	
0.000403241 	0.000198611 	0 	0.0 	 0.0 	 0.0 	 0.0 	 0.0 	 0.0 	 
ZONE T = "t = 1e-08 [s]" I = 10 SOLUTIONTIME = 1.0000000000000E-08
0 	7.71562e-10 	0.92 	0.04 	0.04 	-0.125562 	0 	
0.07 	-0.00293862 	0.0729386 	0.359644 	-0 	0.555555 	19.4444 	
0 	19163.1 	97.5122 	145.541 	0.35 	1.08333 	1.02564 	5.55556e-06 	
0.000403241 	0.000198611 	0.00022159 	22159 	0.000132967 	0.000548908 	22159 	22159 	0 	
1.11111e-05 	2.31469e-09 	0.92 	0.04 	0.04 	-0.125562 	-3.22887e-10 	
0.07 	-0.00293862 	0.0729386 	0.719287 	-0 	2.22222 	17.7778 	
0 	38326.1 	195.024 	291.081 	0.35 	2.16667 	1.02564 	1.11111e-05 	
0.000806481 	0.000397222 	0.00022159 	22159 	0.000664834 	0.000488129 	22159 	22159 	0 	
2.22222e-05 	3.85781e-09 	0.92 	0.04 	0.04 	-0.125562 	-6.07787e-10 	
0.07 	-0.00293862 	0.0729386 	0.719287 	-0 	4.44444 	15.5556 	
0 	38326.1 	195.024 	291.081 	0.35 	2.16667 	1.02564 	1.11111e-05 	
0.000806481 	0.000397222 	0.00022159 	22159 	0.00226044 	0.000374169 	22159 	22159 	0 	
3.33333e-05 	5.40093e-09 	0.92 	0.04 	0.04 	-0.125562 	-8.54701e-10 	
0.07 	-0.00293862 	0.0729386 	0.719287 	-0 	6.66666 	13.3333 	
0 	38326.1 	195.024 	291.081 	0.35 	2.16667 	1.02564 	1.11111e-05 	
0.000806481 	0.000397222 	0.00022159 	22159 	0.00491978 	0.000275404 	22159 	22159 	0 	
4.44444e-05 	6.94406e-09 	0.92 	0.04 	0.04 	-0.125562 	-1.06363e-09 	
0.07 	-0.00293862 	0.0729386 	0.719287 	-0 	8.88888 	11.1111 	
0 	38326.1 	195.024 	291.081 	0.35 	2.16667 	1.02564 	1.11111e-05 	
0.000806481 	0.000397222 	0.00022159 	22159 	0.00864285 	0.000191833 	22159 	22159 	0 	
5.55556e-05 	8.48718e-09 	0.92 	0.04 	0.04 	-0.125562 	-1.23457e-09 	
0.07 	-0.00293862 	0.0729386 	0.719287 	-0 	11.1111 	8.88889 	
0 	38326.1 	195.024 	291.081 	0.35 	2.16667 	1.02564 	1.11111e-05 	
0.000806481 	0.000397222 	0.000225792 	22579.2 	0.0134297 	0.000123457 	22579.2 	22579.2 	0 	
6.66667e-05 	1.00303e-08 	0.92 	0.04 	0.04 	-0.125562 	-1.36752e-09 	
0.07 	-0.00293862 	0.0729386 	0.719287 	-0 	13.3333 	6.66667 	
0 	38326.1 	195.024 	291.081 	0.35 	2.16667 	1.02564 	1.11111e-05 	
0.000806481 	0.000397222 	0.000221577 	22157.7 	0.0192802 	7.02755e-05 	22157.6 	22157.6 	0 	
7.77778e-05 	1.15734e-08 	0.92 	0.04 	0.04 	-0.125562 	-1.46249e-09 	
0.07 	-0.00293862 	0.0729386 	0.719287 	-0 	15.5556 	4.44445 	
0 	38326.1 	195.024 	291.081 	0.35 	2.16667 	1.02564 	1.11111e-05 	
0.000806481 	0.000397222 	0.000220899 	22089.9 	0.0261945 	3.22888e-05 	22089.9 	22089.9 	0 	
8.88889e-05 	1.31166e-08 	0.92 	0.04 	0.04 	-0.125562 	-1.51947e-09 	
0.07 	-0.00293862 	0.0729386 	0.719287 	-0 	17.7778 	2.22222 	
0 	38326.1 	195.024 	291.081 	0.35 	2.16667 	1.02564 	1.11111e-05 	
0.000806481 	0.000397222 	0.000221577 	22157.7 	0.0341725 	9.4967e-06 	22157.7 	22157.7 	0 	
0.0001 	1.38881e-08 	0.92 	0.04 	0.04 	-0.125562 	-1.53846e-09 	
0.07 	-0.00293862 	0.0729386 	0.359644 	-0 	19.4444 	0.555556 	
0 	19163.1 	97.5122 	145.541 	0.35 	1.08333 	1.02564 	5.55556e-06 	
0.000403241 	0.000198611 	0.0002209 	22090 	0.0384275 	1.89934e-06 	22090 	22090 	0 	
ZONE T = "t = 2e-08 [s]" I = 10 SOLUTIONTIME = 2.0000000000000E-08
0 	7.71562e-10 	0.92 	0.04 	0.04 	-0.125217 	0 	
0.125562 	-0.00293862 	0.1285 	1.11111 	5.75792e-09 	0.555555 	19.4444 	
2.78478e-11 	19163.1 	97.5122 	145.541 	0.35 	1.08333 	1.02564 	5.55556e-06 	
0.000403241 	0.000198611 	0.00047759 	25600 	0.000265934 	0.00109782 	25600 	25600 	0 	
1.11111e-05 	2.31469e-09 	0.92 	0.04 	0.04 	-0.125217 	-3.22887e-10 	
0.125562 	-0.00293862 	0.1285 	2.22222 	1.72738e-08 	2.22222 	17.7778 	
5.56955e-11 	38326.1 	195.024 	291.081 	0.35 	2.16667 	1.02564 	1.11111e-05 	
0.000806481 	0.000397222 	0.00047759 	25600 	0.00132967 	0.000976258 	25600 	25600 	0 	
2.22222e-05 	3.85781e-09 	0.92 	0.04 	0.04 	-0.125217 	-6.07787e-10 	
0.125562 	-0.00293862 	0.1285 	2.22222 	2.87896e-08 	4.44444 	15.5556 	
5.56955e-11 	38326.1 	195.024 	291.081 	0.35 	2.16667 	1.02564 	1.11111e-05 	
0.000806481 	0.000397222 	0.00047759 	25600 	0.00452087 	0.000748338 	25600 	25600 	0 	
3.33333e-05 	5.40093e-09 	0.92 	0.04 	0.04 	-0.125217 	-8.54701e-10 	
0.125562 	-0.00293862 	0.1285 	2.22222 	4.03055e-08 	6.66666 	13.3333 	
5.56955e-11 	38326.1 	195.024 	291.081 	0.35 	2.16667 	1.02564 	1.11111e-05 	
0.000806481 	0.000397222 	0.00047759 	25600 	0.00983955 	0.000550808 	25600 	25600 	0 	
4.44444e-05 	6.94406e-09 	0.92 	0.04 	0.04 	-0.125217 	-1.06363e-09 	
0.125562 	-0.00293862 	0.1285 	2.22222 	5.18213e-08 	8.88888 	11.1111 	
5.56955e-11 	38326.1 	195.024 	291.081 	0.35 	2.16667 	1.02564 	1.11111e-05 	
0.000806481 	0.000397222 	0.00047759 	25600 	0.0172857 	0.000383666 	25600 	25600 	0 	
5.55556e-05 	8.48718e-09 	0.92 	0.04 	0.04 	-0.125217 	-1.23457e-09 	
0.125562 	-0.00293862 	0.1285 	2.22222 	6.33372e-08 	11.1111 	8.88889 	
5.56956e-11 	38326.1 	195.024 	291.081 	0.35 	2.16667 	1.02564 	1.11111e-05 	
0.000806481 	0.000397222 	0.00048633 	26053.7 	0.0268593 	0.000246914 	26053.7 	26053.7 	0 	
6.66667e-05 	1.00303e-08 	0.92 	0.04 	0.04 	-0.125217 	-1.36752e-09 	
0.125562 	-0.00293862 	0.1285 	2.22222 	7.4853e-08 	13.3333 	6.66667 	
5.56956e-11 	38326.1 	195.024 	291.081 	0.35 	2.16667 	1.02564 	1.11111e-05 	
0.000806481 	0.000397222 	0.000476918 	25534.1 	0.0385604 	0.000140551 	25534.1 	25534.1 	0 	
7.77778e-05 	1.15734e-08 	0.92 	0.04 	0.04 	-0.125217 	-1.46249e-09 	
0.125562 	-0.00293862 	0.1285 	2.22222 	8.63689e-08 	15.5556 	4.44445 	
5.56956e-11 	38326.1 	195.024 	291.081 	0.35 	2.16667 	1.02564 	1.11111e-05 	
0.000806481 	0.000397222 	0.000476009 	25511 	0.052389 	6.45775e-05 	25511 	25511 	0 	
8.88889e-05 	1.31166e-08 	0.92 	0.04 	0.04 	-0.125217 	-1.51947e-09 	
0.125562 	-0.00293862 	0.1285 	2.22222 	9.78869e-08 	17.7778 	2.22222 	
5.56956e-11 	38326.1 	195.024 	291.081 	0.35 	2.16667 	1.02564 	1.11111e-05 	
0.000806481 	0.000397222 	0.000476919 	25534.2 	0.068345 	1.89934e-05 	25534.1 	25534.1 	0 	
0.0001 	1.38881e-08 	0.92 	0.04 	0.04 	-0.125217 	-1.53846e-09 	
0.125562 	-0.00293862 	0.1285 	1.11111 	9.78869e-08 	19.4444 	0.555556 	
2.78478e-11 	19163.1 	97.5122 	145.541 	0.35 	1.08333 	1.02564 	5.55556e-06 	
0.000403241 	0.000198611 	0.000476011 	25511.1 	0.0768549 	3.79868e-06 	25511 	25511 	0 	
ZONE T = "t = 3e-08 [s]" I = 10 SOLUTIONTIME = 3.0000000000000E-08
0 	7.71562e-10 	0.92 	0.04 	0.04 	-0.125217 	0 	
0.125217 	-0.00293862 	0.128156 	1.11111 	5.75792e-09 	0.555555 	19.4444 	
5.56955e-11 	19163.1 	97.5122 	145.541 	0.35 	1.08333 	1.02564 	5.55556e-06 	
0.000403241 	0.000198611 	0.00073422 	25663 	0.000398901 	0.00164672 	25663 	25663 	0 	
1.11111e-05 	2.31469e-09 	0.92 	0.04 	0.04 	-0.125217 	-3.22887e-10 	
0.125217 	-0.00293862 	0.128156 	2.22222 	1.72738e-08 	2.22222 	17.7778 	
1.11391e-10 	38326.1 	195.024 	291.081 	0.35 	2.16667 	1.02564 	1.11111e-05 	
0.000806481 	0.000397222 	0.00073422 	25663 	0.0019945 	0.00146439 	25663 	25663 	0 	
2.22222e-05 	3.85781e-09 	0.92 	0.04 	0.04 	-0.125217 	-6.07787e-10 	
0.125217 	-0.00293862 	0.128156 	2.22222 	2.87896e-08 	4.44444 	15.5556 	
1.11391e-10 	38326.1 	195.024 	291.081 	0.35 	2.16667 	1.02564 	1.11111e-05 	
0.000806481 	0.000397222 	0.00073422 	25663 	0.00678131 	0.00112251 	25663 	25663 	0 	
3.33333e-05 	5.40093e-09 	0.92 	0.04 	0.04 	-0.125217 	-8.54701e-10 	
0.125217 	-0.00293862 	0.128156 	2.22222 	4.03055e-08 	6.66666 	13.3333 	
1.11391e-10 	38326.1 	195.024 	291.081 	0.35 	2.16667 	1.02564 	1.11111e-05 	
0.000806481 	0.000397222 	0.00073422 	25663 	0.0147593 	0.000826211 	25663 	25663 	0 	
4.44444e-05 	6.94406e-09 	0.92 	0.04 	0.04 	-0.125217 	-1.06363e-09 	
0.125217 	-0.00293862 	0.128156 	2.22222 	5.18213e-08 	8.88888 	11.1111 	
1.11391e-10 	38326.1 	195.024 	291.081 	0.35 	2.16667 	1.02564 	1.11111e-05 	
0.000806481 	0.000397222 	0.000734221 	25663 	0.0259285 	0.000575499 	25663 	25663 	0 	
5.55556e-05 	8.48718e-09 	0.92 	0.04 	0.04 	-0.125217 	-1.23457e-09 	
0.125217 	-0.00293862 	0.128156 	2.22222 	6.33372e-08 	11.1111 	8.88889 	
1.11391e-10 	38326.1 	195.024 	291.081 	0.35 	2.16667 	1.02564 	1.11111e-05 	
0.000806481 	0.000397222 	0.000747011 	26068.1 	0.040289 	0.000370371 	26068.1 	26068.1 	0 	
6.66667e-05 	1.00303e-08 	0.92 	0.04 	0.04 	-0.125217 	-1.36752e-09 	
0.125217 	-0.00293862 	0.128156 	2.22222 	7.4853e-08 	13.3333 	6.66667 	
1.11391e-10 	38326.1 	195.024 	291.081 	0.35 	2.16667 	1.02564 	1.11111e-05 	
0.000806481 	0.000397222 	0.000733064 	25614.6 	0.0578406 	0.000210827 	25614.6 	25614.6 	0 	
7.77778e-05 	1.15734e-08 	0.92 	0.04 	0.04 	-0.125217 	-1.46249e-09 	
0.125217 	-0.00293862 	0.128156 	2.22222 	8.63689e-08 	15.5556 	4.44445 	
1.11391e-10 	38326.1 	195.024 	291.081 	0.35 	2.16667 	1.02564 	1.11111e-05 	
0.000806481 	0.000397222 	0.000731909 	25589.9 	0.0785835 	9.68663e-05 	25589.9 	25589.9 	0 	
8.88889e-05 	1.31166e-08 	0.92 	0.04 	0.04 	-0.125217 	-1.51947e-09 	
0.125217 	-0.00293862 	0.128156 	2.22222 	9.78891e-08 	17.7778 	2.22222 	
1.11391e-10 	38326.1 	195.024 	291.081 	0.35 	2.16667 	1.02564 	1.11111e-05 	
0.000806481 	0.000397222 	0.000733066 	25614.7 	0.102518 	2.84901e-05 	25614.7 	25614.7 	0 	
0.0001 	1.38881e-08 	0.92 	0.04 	0.04 	-0.125217 	-1.53846e-09 	
0.125217 	-0.00293862 	0.128156 	1.11111 	9.78891e-08 	19.4444 	0.555556 	
5.56956e-11 	19163.1 	97.5122 	145.541 	0.35 	1.08333 	1.02564 	5.55556e-06 	
0.000403241 	0.000198611 	0.000731911 	25590 	0.115282 	5.69802e-06 	25590 	25590 	0 	
ZONE T = "t = 4e-08 [s]" I = 10 SOLUTIONTIME = 4.0000000000000E-08
0 	7.71562e-10 	0.92 	0.04 	0.04 	-0.125217 	0 	
0.125217 	-0.00293862 	0.128156 	1.11111 	5.75792e-09 	0.555555 	19.4444 	
8.35433e-11 	19163.1 	97.5122 	145.541 	0.35 	1.08333 	1.02564 	5.55556e-06 	
0.000403241 	0.000198611 	0.000990642 	25642.3 	0.000531868 	0.00219563 	25642.2 	25642.2 	0 	
1.11111e-05 	2.31469e-09 	0.92 	0.04 	0.04 	-0.125217 	-3.22887e-10 	
0.125217 	-0.00293862 	0.128156 	2.22222 	1.72738e-08 	2.22222 	17.7778 	
1.67087e-10 	38326.1 	195.024 	291.081 	0.35 	2.16667 	1.02564 	1.11111e-05 	
0.000806481 	0.000397222 	0.000990642 	25642.3 	0.00265934 	0.00195252 	25642.3 	25642.3 	0 	
2.22222e-05 	3.85781e-09 	0.92 	0.04 	0.04 	-0.125217 	-6.07787e-10 	
0.125217 	-0.00293862 	0.128156 	2.22222 	2.87896e-08 	4.44444 	15.5556 	
1.67087e-10 	38326.1 	195.024 	291.081 	0.35 	2.16667 	1.02564 	1.11111e-05 	
0.000806481 	0.000397222 	0.000990642 	25642.3 	0.00904175 	0.00149668 	25642.3 	25642.3 	0 	
3.33333e-05 	5.40093e-09 	0.92 	0.04 	0.04 	-0.125217 	-8.54701e-10 	
0.125217 	-0.00293862 	0.128156 	2.22222 	4.03055e-08 	6.66666 	13.3333 	
1.67087e-10 	38326.1 	195.024 	291.081 	0.35 	2.16667 	1.02564 	1.11111e-05 	
0.000806481 	0.000397222 	0.000990643 	25642.3 	0.0196791 	0.00110162 	25642.3 	25642.3 	0 	
4.44444e-05 	6.94406e-09 	0.92 	0.04 	0.04 	-0.125217 	-1.06363e-09 	
0.125217 	-0.00293862 	0.128156 	2.22222 	5.18213e-08 	8.88888 	11.1111 	
1.67087e-10 	38326.1 	195.024 	291.081 	0.35 	2.16667 	1.02564 	1.11111e-05 	
0.000806481 	0.000397222 	0.000990643 	25642.3 	0.0345714 	0.000767332 	25642.3 	25642.3 	0 	
5.55556e-05 	8.48718e-09 	0.92 	0.04 	0.04 	-0.125217 	-1.23457e-09 	
0.125217 	-0.00293862 	0.128156 	2.22222 	6.33372e-08 	11.1111 	8.88889 	
1.67087e-10 	38326.1 	195.024 	291.081 	0.35 	2.16667 	1.02564 	1.11111e-05 	
0.000806481 	0.000397222 	0.00100769 	26068.1 	0.0537186 	0.000493828 	26068.1 	26068.1 	0 	
6.66667e-05 	1.00303e-08 	0.92 	0.04 	0.04 	-0.125217 	-1.36752e-09 	
0.125217 	-0.00293862 	0.128156 	2.22222 	7.4853e-08 	13.3333 	6.66667 	
1.67087e-10 	38326.1 	195.024 	291.081 	0.35 	2.16667 	1.02564 	1.11111e-05 	
0.000806481 	0.000397222 	0.000988987 	25592.3 	0.0771208 	0.000281102 	25592.3 	25592.3 	0 	
7.77778e-05 	1.15734e-08 	0.92 	0.04 	0.04 	-0.125217 	-1.46249e-09 	
0.125217 	-0.00293862 	0.128156 	2.22222 	8.63689e-08 	15.5556 	4.44445 	
1.67087e-10 	38326.1 	195.024 	291.081 	0.35 	2.16667 	1.02564 	1.11111e-05 	
0.000806481 	0.000397222 	0.000987593 	25568.4 	0.104778 	0.000129155 	25568.4 	25568.4 	0 	
8.88889e-05 	1.31166e-08 	0.92 	0.04 	0.04 	-0.125217 	-1.51947e-09 	
0.125217 	-0.00293862 	0.128156 	2.22222 	9.78913e-08 	17.7778 	2.22222 	
1.67087e-10 	38326.1 	195.024 	291.081 	0.35 	2.16667 	1.02564 	1.11111e-05 	
0.000806481 	0.000397222 	0.000988989 	25592.4 	0.13669 	3.79868e-05 	25592.3 	25592.3 	0 	
0.0001 	1.38881e-08 	0.92 	0.04 	0.04 	-0.125217 	-1.53846e-09 	
0.125217 	-0.00293862 	0.128156 	1.11111 	9.78913e-08 	19.4444 	0.555556 	
8.35435e-11 	19163.1 	97.5122 	145.541 	0.35 	1.08333 	1.02564 	5.55556e-06 	
0.000403241 	0.000198611 	0.000987596 	25568.5 	0.15371 	7.59736e-06 	25568.4 	25568.4 	0 	
ZONE T = "t = 5.5e-08 [s]" I = 10 SOLUTIONTIME = 5.5000000000000E-08
0 	7.71562e-10 	0.92 	0.04 	0.04 	-0.125217 	0 	
0.125217 	-0.00293862 	0.128156 	1.11111 	5.75792e-09 	0.555555 	19.4444 	
1.11391e-10 	19163.1 	97.5122 	145.541 	0.35 	1.08333 	1.02564 	5.55556e-06 	
0.000403241 	0.000198611 	0.0013736 	25530.5 	0.000487545 	0.00201266 	25530.5 	25530.5 	0 	
1.11111e-05 	2.31469e-09 	0.92 	0.04 	0.04 	-0.125217 	-3.22887e-10 	
0.125217 	-0.00293862 	0.128156 	2.22222 	1.72738e-08 	2.22222 	17.7778 	
2.22782e-10 	38326.1 	195.024 	291.081 	0.35 	2.16667 	1.02564 	1.11111e-05 	
0.000806481 	0.000397222 	0.0013736 	25530.5 	0.00243773 	0.00178981 	25530.5 	25530.5 	0 	
2.22222e-05 	3.85781e-09 	0.92 	0.04 	0.04 	-0.125217 	-6.07787e-10 	
0.125217 	-0.00293862 	0.128156 	2.22222 	2.87896e-08 	4.44444 	15.5556 	
2.22782e-10 	38326.1 	195.024 	291.081 	0.35 	2.16667 	1.02564 	1.11111e-05 	
0.000806481 	0.000397222 	0.0013736 	25530.5 	0.00828827 	0.00137195 	25530.5 	25530.5 	0 	
3.33333e-05 	5.40093e-09 	0.92 	0.04 	0.04 	-0.125217 	-8.54701e-10 	
0.125217 	-0.00293862 	0.128156 	2.22222 	4.03055e-08 	6.66666 	13.3333 	
2.22782e-10 	38326.1 	195.024 	291.081 	0.35 	2.16667 	1.02564 	1.11111e-05 	
0.000806481 	0.000397222 	0.0013736 	25530.5 	0.0180392 	0.00100981 	25530.5 	25530.5 	0 	
4.44444e-05 	6.94406e-09 	0.92 	0.04 	0.04 	-0.125217 	-1.06363e-09 	
0.125217 	-0.00293862 	0.128156 	2.22222 	5.18213e-08 	8.88888 	11.1111 	
2.22782e-10 	38326.1 	195.024 	291.081 	0.35 	2.16667 	1.02564 	1.11111e-05 	
0.000806481 	0.000397222 	0.0013736 	25530.5 	0.0316904 	0.000703388 	25530.5 	25530.5 	0 	
5.55556e-05 	8.48718e-09 	0.92 	0.04 	0.04 	-0.125217 	-1.23457e-09 	
0.125217 	-0.00293862 	0.128156 	2.22222 	6.33372e-08 	11.1111 	8.88889 	
2.22782e-10 	38326.1 	195.024 	291.081 	0.35 	2.16667 	1.02564 	1.11111e-05 	
0.000806481 	0.000397222 	0.00139182 	25608.7 	0.0492421 	0.000452675 	25608.7 	25608.7 	0 	
6.66667e-05 	1.00303e-08 	0.92 	0.04 	0.04 	-0.125217 	-1.36752e-09 	
0.125217 	-0.00293862 	0.128156 	2.22222 	7.4853e-08 	13.3333 	6.66667 	
2.22782e-10 	38326.1 	195.024 	291.081 	0.35 	2.16667 	1.02564 	1.11111e-05 	
0.000806481 	0.000397222 	0.00137359 	25640.1 	0.0706941 	0.000257677 	25640.1 	25640.1 	0 	
7.77778e-05 	1.15734e-08 	0.92 	0.04 	0.04 	-0.125217 	-1.46249e-09 	
0.125217 	-0.00293862 	0.128156 	2.22222 	8.63689e-08 	15.5556 	4.44445 	
2.22782e-10 	38326.1 	195.024 	291.081 	0.35 	2.16667 	1.02564 	1.11111e-05 	
0.000806481 	0.000397222 	0.00137078 	25546 	0.0960465 	0.000118392 	25546 	25546 	0 	
8.88889e-05 	1.31166e-08 	0.92 	0.04 	0.04 	-0.125217 	-1.51947e-09 	
0.125217 	-0.00293862 	0.128156 	2.22222 	9.78935e-08 	17.7778 	2.22222 	
2.22782e-10 	38326.1 	195.024 	291.081 	0.35 	2.16667 	1.02564 	1.11111e-05 	
0.000806481 	0.000397222 	0.00137359 	25640.1 	0.125299 	3.48212e-05 	25640.1 	25640.1 	0 	
0.0001 	1.38881e-08 	0.92 	0.04 	0.04 	-0.125217 	-1.53846e-09 	
0.125217 	-0.00293862 	0.128156 	1.11111 	9.78935e-08 	19.4444 	0.555556 	
1.11391e-10 	19163.1 	97.5122 	145.541 	0.35 	1.08333 	1.02564 	5.55556e-06 	
0.000403241 	0.000198611 	0.00137079 	25546.1 	0.140901 	6.96425e-06 	25546 	25546 	0 	
ZONE T = "t = 7.75e-08 [s]" I = 10 SOLUTIONTIME = 7.7500000000000E-08
0 	7.71562e-10 	0.92 	0.04 	0.04 	-0.125217 	0 	
0.125217 	-0.00293862 	0.128156 	1.11111 	5.75792e-09 	0.555555 	19.4444 	
1.53163e-10 	19163.1 	97.5122 	145.541 	0.35 	1.08333 	1.02564 	5.55556e-06 	
0.000403241 	0.000198611 	0.00195107 	25665.3 	0.000457997 	0.00189068 	25665.3 	25665.3 	0 	
1.11111e-05 	2.31469e-09 	0.92 	0.04 	0.04 	-0.125217 	-3.22887e-10 	
0.125217 	-0.00293862 	0.128156 	2.22222 	1.72738e-08 	2.22222 	17.7778 	
3.06325e-10 	38326.1 	195.024 	291.081 	0.35 	2.16667 	1.02564 	1.11111e-05 	
0.000806481 	0.000397222 	0.00195107 	25665.3 	0.00228999 	0.00168133 	25665.3 	25665.3 	0 	
2.22222e-05 	3.85781e-09 	0.92 	0.04 	0.04 	-0.125217 	-6.07787e-10 	
0.125217 	-0.00293862 	0.128156 	2.22222 	2.87896e-08 	4.44444 	15.5556 	
3.06325e-10 	38326.1 	195.024 	291.081 	0.35 	2.16667 	1.02564 	1.11111e-05 	
0.000806481 	0.000397222 	0.00195107 	25665.3 	0.00778595 	0.0012888 	25665.3 	25665.3 	0 	
3.33333e-05 	5.40093e-09 	0.92 	0.04 	0.04 	-0.125217 	-8.54701e-10 	
0.125217 	-0.00293862 	0.128156 	2.22222 	4.03055e-08 	6.66666 	13.3333 	
3.06325e-10 	38326.1 	195.024 	291.081 	0.35 	2.16667 	1.02564 	1.11111e-05 	
0.000806481 	0.000397222 	0.00195107 	25665.3 	0.0169459 	0.000948613 	25665.3 	25665.3 	0 	
4.44444e-05 	6.94406e-09 	0.92 	0.04 	0.04 	-0.125217 	-1.06363e-09 	
0.125217 	-0.00293862 	0.128156 	2.22222 	5.18213e-08 	8.88888 	11.1111 	
3.06325e-10 	38326.1 	195.024 	291.081 	0.35 	2.16667 	1.02564 	1.11111e-05 	
0.000806481 	0.000397222 	0.00195107 	25665.4 	0.0297698 	0.000660758 	25665.4 	25665.4 	0 	
5.55556e-05 	8.48718e-09 	0.92 	0.04 	0.04 	-0.125217 	-1.23457e-09 	
0.125217 	-0.00293862 	0.128156 	2.22222 	6.33372e-08 	11.1111 	8.88889 	
3.06326e-10 	38326.1 	195.024 	291.081 	0.35 	2.16667 	1.02564 	1.11111e-05 	
0.000806481 	0.000397222 	0.00196827 	25620 	0.0462577 	0.000425241 	25620 	25620 	0 	
6.66667e-05 	1.00303e-08 	0.92 	0.04 	0.04 	-0.125217 	-1.36752e-09 	
0.125217 	-0.00293862 	0.128156 	2.22222 	7.4853e-08 	13.3333 	6.66667 	
3.06326e-10 	38326.1 	195.024 	291.081 	0.35 	2.16667 	1.02564 	1.11111e-05 	
0.000806481 	0.000397222 	0.00195073 	25650.9 	0.0664096 	0.00024206 	25650.9 	25650.9 	0 	
7.77778e-05 	1.15734e-08 	0.92 	0.04 	0.04 	-0.125217 	-1.46249e-09 	
0.125217 	-0.00293862 	0.128156 	2.22222 	8.63689e-08 	15.5556 	4.44445 	
3.06326e-10 	38326.1 	195.024 	291.081 	0.35 	2.16667 	1.02564 	1.11111e-05 	
0.000806481 	0.000397222 	0.00194862 	25681.7 	0.0902255 	0.000111217 	25681.7 	25681.7 	0 	
8.88889e-05 	1.31166e-08 	0.92 	0.04 	0.04 	-0.125217 	-1.51947e-09 	
0.125217 	-0.00293862 	0.128156 	2.22222 	9.78969e-08 	17.7778 	2.22222 	
3.06326e-10 	38326.1 	195.024 	291.081 	0.35 	2.16667 	1.02564 	1.11111e-05 	
0.000806481 	0.000397222 	0.00195074 	25650.9 	0.117705 	3.27108e-05 	25650.9 	25650.9 	0 	
0.0001 	1.38881e-08 	0.92 	0.04 	0.04 	-0.125217 	-1.53846e-09 	
0.125217 	-0.00293862 	0.128156 	1.11111 	9.78969e-08 	19.4444 	0.555556 	
1.53163e-10 	19163.1 	97.5122 	145.541 	0.35 	1.08333 	1.02564 	5.55556e-06 	
0.000403241 	0.000198611 	0.00194863 	25681.8 	0.132361 	6.54217e-06 	25681.8 	25681.8 	0 	
ZONE T = "t = 1.1125e-07 [s]" I = 10 SOLUTIONTIME = 1.1125000000000E-07
0 	7.71562e-10 	0.92 	0.04 	0.04 	-0.125217 	0 	
0.125217 	-0.00293862 	0.128156 	1.11111 	5.75792e-09 	0.555555 	19.4444 	
2.1582e-10 	19163.1 	97.5122 	145.541 	0.35 	1.08333 	1.02564 	5.55556e-06 	
0.000403241 	0.000198611 	0.00281555 	25614.3 	0.000438298 	0.00180936 	25614.3 	25614.3 	0 	
1.11111e-05 	2.31469e-09 	0.92 	0.04 	0.04 	-0.125217 	-3.22887e-10 	
0.125217 	-0.00293862 	0.128156 	2.22222 	1.72738e-08 	2.22222 	17.7778 	
4.3164e-10 	38326.1 	195.024 	291.081 	0.35 	2.16667 	1.02564 	1.11111e-05 	
0.000806481 	0.000397222 	0.00281555 	25614.3 	0.00219149 	0.00160902 	25614.3 	25614.3 	0 	
2.22222e-05 	3.85781e-09 	0.92 	0.04 	0.04 	-0.125217 	-6.07787e-10 	
0.125217 	-0.00293862 	0.128156 	2.22222 	2.87896e-08 	4.44444 	15.5556 	
4.3164e-10 	38326.1 	195.024 	291.081 	0.35 	2.16667 	1.02564 	1.11111e-05 	
0.000806481 	0.000397222 	0.00281555 	25614.3 	0.00745107 	0.00123337 	25614.3 	25614.3 	0 	
3.33333e-05 	5.40093e-09 	0.92 	0.04 	0.04 	-0.125217 	-8.54701e-10 	
0.125217 	-0.00293862 	0.128156 	2.22222 	4.03055e-08 	6.66666 	13.3333 	
4.3164e-10 	38326.1 	195.024 	291.081 	0.35 	2.16667 	1.02564 	1.11111e-05 	
0.000806481 	0.000397222 	0.00281555 	25614.3 	0.016217 	0.000907812 	25614.3 	25614.3 	0 	
4.44444e-05 	6.94406e-09 	0.92 	0.04 	0.04 	-0.125217 	-1.06363e-09 	
0.125217 	-0.00293862 	0.128156 	2.22222 	5.18213e-08 	8.88888 	11.1111 	
4.3164e-10 	38326.1 	195.024 	291.081 	0.35 	2.16667 	1.02564 	1.11111e-05 	
0.000806481 	0.000397222 	0.00281556 	25614.3 	0.0284894 	0.000632338 	25614.3 	25614.3 	0 	
5.55556e-05 	8.48718e-09 	0.92 	0.04 	0.04 	-0.125217 	-1.23457e-09 	
0.125217 	-0.00293862 	0.128156 	2.22222 	6.33372e-08 	11.1111 	8.88889 	
4.31641e-10 	38326.1 	195.024 	291.081 	0.35 	2.16667 	1.02564 	1.11111e-05 	
0.000806481 	0.000397222 	0.00283205 	25593.3 	0.0442681 	0.000406951 	25593.3 	25593.3 	0 	
6.66667e-05 	1.00303e-08 	0.92 	0.04 	0.04 	-0.125217 	-1.36752e-09 	
0.125217 	-0.00293862 	0.128156 	2.22222 	7.4853e-08 	13.3333 	6.66667 	
4.31641e-10 	38326.1 	195.024 	291.081 	0.35 	2.16667 	1.02564 	1.11111e-05 	
0.000806481 	0.000397222 	0.00281409 	25581.1 	0.0635533 	0.000231649 	25581.1 	25581.1 	0 	
7.77778e-05 	1.15734e-08 	0.92 	0.04 	0.04 	-0.125217 	-1.46249e-09 	
0.125217 	-0.00293862 	0.128156 	2.22222 	8.63689e-08 	15.5556 	4.44445 	
4.31641e-10 	38326.1 	195.024 	291.081 	0.35 	2.16667 	1.02564 	1.11111e-05 	
0.000806481 	0.000397222 	0.00281205 	25583 	0.0863448 	0.000106433 	25583 	25583 	0 	
8.88889e-05 	1.31166e-08 	0.92 	0.04 	0.04 	-0.125217 	-1.51947e-09 	
0.125217 	-0.00293862 	0.128156 	2.22222 	9.79021e-08 	17.7778 	2.22222 	
4.31641e-10 	38326.1 	195.024 	291.081 	0.35 	2.16667 	1.02564 	1.11111e-05 	
0.000806481 	0.000397222 	0.0028141 	25581.1 	0.112643 	3.13039e-05 	25581.1 	25581.1 	0 	
0.0001 	1.38881e-08 	0.92 	0.04 	0.04 	-0.125217 	-1.53846e-09 	
0.125217 	-0.00293862 	0.128156 	1.11111 	9.79021e-08 	19.4444 	0.555556 	
2.15821e-10 	19163.1 	97.5122 	145.541 	0.35 	1.08333 	1.02564 	5.55556e-06 	
0.000403241 	0.000198611 	0.00281206 	25583.1 	0.126668 	6.26079e-06 	25583 	25583 	0 	
ZONE T = "t = 1.61875e-07 [s]" I = 10 SOLUTIONTIME = 1.6187500000000E-07
0 	7.71562e-10 	0.92 	0.04 	0.04 	-0.125217 	0 	
0.125217 	-0.00293862 	0.128156 	1.11111 	5.75792e-09 	0.555555 	19.4444 	
3.09806e-10 	19163.1 	97.5122 	145.541 	0.35 	1.08333 	1.02564 	5.55556e-06 	
0.000403241 	0.000198611 	0.0041132 	25632.6 	0.000425166 	0.00175515 	25632.6 	25632.6 	0 	
1.11111e-05 	2.31469e-09 	0.92 	0.04 	0.04 	-0.125217 	-3.22887e-10 	
0.125217 	-0.00293862 	0.128156 	2.22222 	1.72738e-08 	2.22222 	17.7778 	
6.19613e-10 	38326.1 	195.024 	291.081 	0.35 	2.16667 	1.02564 	1.11111e-05 	
0.000806481 	0.000397222 	0.0041132 	25632.6 	0.00212583 	0.00156081 	25632.6 	25632.6 	0 	
2.22222e-05 	3.85781e-09 	0.92 	0.04 	0.04 	-0.125217 	-6.07787e-10 	
0.125217 	-0.00293862 	0.128156 	2.22222 	2.87896e-08 	4.44444 	15.5556 	
6.19613e-10 	38326.1 	195.024 	291.081 	0.35 	2.16667 	1.02564 	1.11111e-05 	
0.000806481 	0.000397222 	0.00411321 	25632.7 	0.00722782 	0.00119642 	25632.7 	25632.7 	0 	
3.33333e-05 	5.40093e-09 	0.92 	0.04 	0.04 	-0.125217 	-8.54701e-10 	
0.125217 	-0.00293862 	0.128156 	2.22222 	4.03055e-08 	6.66666 	13.3333 	
6.19613e-10 	38326.1 	195.024 	291.081 	0.35 	2.16667 	1.02564 	1.11111e-05 	
0.000806481 	0.000397222 	0.00411321 	25632.7 	0.0157311 	0.000880612 	25632.7 	25632.7 	0 	
4.44444e-05 	6.94406e-09 	0.92 	0.04 	0.04 	-0.125217 	-1.06363e-09 	
0.125217 	-0.00293862 	0.128156 	2.22222 	5.18213e-08 	8.88888 	11.1111 	
6.19613e-10 	38326.1 	195.024 	291.081 	0.35 	2.16667 	1.02564 	1.11111e-05 	
0.000806481 	0.000397222 	0.00411321 	25632.7 	0.0276358 	0.000613392 	25632.7 	25632.7 	0 	
5.55556e-05 	8.48718e-09 	0.92 	0.04 	0.04 	-0.125217 	-1.23457e-09 	
0.125217 	-0.00293862 	0.128156 	2.22222 	6.33372e-08 	11.1111 	8.88889 	
6.19613e-10 	38326.1 	195.024 	291.081 	0.35 	2.16667 	1.02564 	1.11111e-05 	
0.000806481 	0.000397222 	0.00412955 	25629.7 	0.0429418 	0.000394757 	25629.7 	25629.7 	0 	
6.66667e-05 	1.00303e-08 	0.92 	0.04 	0.04 	-0.125217 	-1.36752e-09 	
0.125217 	-0.00293862 	0.128156 	2.22222 	7.4853e-08 	13.3333 	6.66667 	
6.19613e-10 	38326.1 	195.024 	291.081 	0.35 	2.16667 	1.02564 	1.11111e-05 	
0.000806481 	0.000397222 	0.00411201 	25637.8 	0.0616491 	0.000224708 	25637.8 	25637.8 	0 	
7.77778e-05 	1.15734e-08 	0.92 	0.04 	0.04 	-0.125217 	-1.46249e-09 	
0.125217 	-0.00293862 	0.128156 	2.22222 	8.6369e-08 	15.5556 	4.44445 	
6.19613e-10 	38326.1 	195.024 	291.081 	0.35 	2.16667 	1.02564 	1.11111e-05 	
0.000806481 	0.000397222 	0.00410875 	25613.9 	0.0837577 	0.000103244 	25613.8 	25613.8 	0 	
8.88889e-05 	1.31166e-08 	0.92 	0.04 	0.04 	-0.125217 	-1.51947e-09 	
0.125217 	-0.00293862 	0.128156 	2.22222 	9.79102e-08 	17.7778 	2.22222 	
6.19614e-10 	38326.1 	195.024 	291.081 	0.35 	2.16667 	1.02564 	1.11111e-05 	
0.000806481 	0.000397222 	0.00411202 	25637.8 	0.109268 	3.0366e-05 	25637.8 	25637.8 	0 	
0.0001 	1.38881e-08 	0.92 	0.04 	0.04 	-0.125217 	-1.53846e-09 	
0.125217 	-0.00293862 	0.128156 	1.11111 	9.79102e-08 	19.4444 	0.555556 	
3.09807e-10 	19163.1 	97.5122 	145.541 	0.35 	1.08333 	1.02564 	5.55556e-06 	
0.000403241 	0.000198611 	0.00410876 	25613.9 	0.122873 	6.0732e-06 	25613.9 	25613.9 	0 	
ZONE T = "t = 2.37813e-07 [s]" I = 10 SOLUTIONTIME = 2.3781250000000E-07
0 	7.71562e-10 	0.92 	0.04 	0.04 	-0.125217 	0 	
0.125217 	-0.00293862 	0.128156 	1.11111 	5.75792e-09 	0.555555 	19.4444 	
4.50786e-10 	19163.1 	97.5122 	145.541 	0.35 	1.08333 	1.02564 	5.55556e-06 	
0.000403241 	0.000198611 	0.00605962 	25631.8 	0.000416411 	0.00171901 	25631.8 	25631.8 	0 	
1.11111e-05 	2.31469e-09 	0.92 	0.04 	0.04 	-0.125217 	-3.22887e-10 	
0.125217 	-0.00293862 	0.128156 	2.22222 	1.72738e-08 	2.22222 	17.7778 	
9.01571e-10 	38326.1 	195.024 	291.081 	0.35 	2.16667 	1.02564 	1.11111e-05 	
0.000806481 	0.000397222 	0.00605962 	25631.8 	0.00208205 	0.00152867 	25631.8 	25631.8 	0 	
2.22222e-05 	3.85781e-09 	0.92 	0.04 	0.04 	-0.125217 	-6.07787e-10 	
0.125217 	-0.00293862 	0.128156 	2.22222 	2.87896e-08 	4.44444 	15.5556 	
9.01571e-10 	38326.1 	195.024 	291.081 	0.35 	2.16667 	1.02564 	1.11111e-05 	
0.000806481 	0.000397222 	0.00605962 	25631.8 	0.00707898 	0.00117178 	25631.8 	25631.8 	0 	
3.33333e-05 	5.40093e-09 	0.92 	0.04 	0.04 	-0.125217 	-8.54701e-10 	
0.125217 	-0.00293862 	0.128156 	2.22222 	4.03055e-08 	6.66666 	13.3333 	
9.01571e-10 	38326.1 	195.024 	291.081 	0.35 	2.16667 	1.02564 	1.11111e-05 	
0.000806481 	0.000397222 	0.00605962 	25631.8 	0.0154072 	0.000862478 	25631.8 	25631.8 	0 	
4.44444e-05 	6.94406e-09 	0.92 	0.04 	0.04 	-0.125217 	-1.06363e-09 	
0.125217 	-0.00293862 	0.128156 	2.22222 	5.18213e-08 	8.88888 	11.1111 	
9.01572e-10 	38326.1 	195.024 	291.081 	0.35 	2.16667 	1.02564 	1.11111e-05 	
0.000806481 	0.000397222 	0.00605963 	25631.8 	0.0270667 	0.000600761 	25631.8 	25631.8 	0 	
5.55556e-05 	8.48718e-09 	0.92 	0.04 	0.04 	-0.125217 	-1.23457e-09 	
0.125217 	-0.00293862 	0.128156 	2.22222 	6.33372e-08 	11.1111 	8.88889 	
9.01572e-10 	38326.1 	195.024 	291.081 	0.35 	2.16667 	1.02564 	1.11111e-05 	
0.000806481 	0.000397222 	0.00607568 	25628.1 	0.0420575 	0.000386629 	25628.1 	25628.1 	0 	