TITLE = "Solution on Domain BulkDomain1D_0"
VARIABLES = "x [m]"  
"Vel_axial(0)" 	"MF_sp(ECDMC)" 	"MF_sp(Li+)" 	"MF_sp(PF6-)" 	"Volt(Electroly)" 	"Volt(AnodeVolt)" 	
"Potential Drop Electrode-Electrolyte [V]" 	"Surf_0 Equilibrium Potential Drop Electrode-Electrolyte [V]" 	"Overpotential_0 [V]" 	"Current Source [A/m^2]" 	"Li+ flux [kmol/m^2/s]" 	"Electrolyte Current [A/m^2]" 	"Electrode Current [A/m^2]" 	
"Capacity discharged [A-s]" 	"Depth of discharge [-]" 	"Capacity remaining [A-s]" 	"Initial capacity [A-s]" 	"Porosity []" 	"Surface Area [m2/m2] (area per area)" 	"Specific current (per particle area) [A/m^2]" 	"Control volume thickness [m]" 	
"Moles Li_C6-bulk [mol/m^2] (per electrode area)" 	"Moles V_C6-bulk [mol/m^2] (per electrode area)" 	

ZONE T = "t = 0 [s]" I = 10 SOLUTIONTIME = 0.0000000000000E+00
0 	0 	0.92 	0.04 	0.04 	-0.07 	0 	
0 	0 	0 	0 	0 	0 	0.230172 	
0 	0 	0 	0 	0.35 	1.38667 	0.331979 	7.11111e-06 	
0.000516148 	0.000254222 	
1.42222e-05 	0 	0.92 	0.04 	0.04 	-0.07 	0 	
0 	0 	0 	0 	0 	0 	-0 	
0 	0 	0 	0 	0.35 	2.77333 	0.331979 	1.42222e-05 	
0.0010323 	0.000508444 	
2.84444e-05 	0 	0.92 	0.04 	0.04 	-0.07 	0 	
0 	0 	0 	0 	0 	0 	-0 	
0 	0 	0 	0 	0.35 	2.77333 	0.331979 	1.42222e-05 	
0.0010323 	0.000508444 	
4.26667e-05 	0 	0.92 	0.04 	0.04 	-0.07 	0 	
0 	0 	0 	0 	0 	0 	-0 	
0 	0 	0 	0 	0.35 	2.77333 	0.331979 	1.42222e-05 	
0.0010323 	0.000508444 	
5.68889e-05 	0 	0.92 	0.04 	0.04 	-0.07 	0 	
0 	0 	0 	0 	0 	0 	-0 	
0 	0 	0 	0 	0.35 	2.77333 	0.331979 	1.42222e-05 	
0.0010323 	0.000508444 	
7.11111e-05 	0 	0.92 	0.04 	0.04 	-0.07 	0 	
0 	0 	0 	0 	0 	0 	-0 	
0 	0 	0 	0 	0.35 	2.77333 	0.331979 	1.42222e-05 	
0.0010323 	0.000508444 	
8.53333e-05 	0 	0.92 	0.04 	0.04 	-0.07 	0 	
0 	0 	0 	0 	0 	0 	-0 	
0 	0 	0 	0 	0.35 	2.77333 	0.331979 	1.42222e-05 	
0.0010323 	0.000508444 	
9.95556e-05 	0 	0.92 	0.04 	0.04 	-0.07 	0 	
0 	0 	0 	0 	0 	0 	-0 	
0 	0 	0 	0 	0.35 	2.77333 	0.331979 	1.42222e-05 	
0.0010323 	0.000508444 	
0.000113778 	0 	0.92 	0.04 	0.04 	-0.07 	0 	
0 	0 	0 	0 	0 	0 	-0 	
0 	0 	0 	0 	0.35 	2.77333 	0.331979 	1.42222e-05 	
0.0010323 	0.000508444 	
0.000128 	0 	0.92 	0.04 	0.04 	-0.07 	0 	
0 	0 	0 	0 	0 	0.230172 	0 	
0 	0 	0 	0 	0.35 	1.38667 	0.331979 	7.11111e-06 	
0.000516148 	0.000254222 	
ZONE T = "t = 1e-08 [s]" I = 10 SOLUTIONTIME = 1.0000000000000E-08
0 	7.71562e-10 	0.92 	0.04 	0.04 	-0.113307 	0 	
0.07 	-0.00293862 	0.0729386 	0.460344 	-0 	0.555555 	19.4444 	
0 	24528.7 	124.816 	186.292 	0.35 	1.38667 	0.801281 	7.11111e-06 	
0.000516148 	0.000254222 	
1.42222e-05 	2.31468e-09 	0.92 	0.04 	0.04 	-0.113307 	-4.13295e-10 	
0.07 	-0.00293862 	0.0729386 	0.920688 	-0 	2.22222 	17.7778 	
0 	49057.4 	249.631 	372.584 	0.35 	2.77333 	0.801281 	1.42222e-05 	
0.0010323 	0.000508444 	
2.84444e-05 	3.85781e-09 	0.92 	0.04 	0.04 	-0.113307 	-7.77968e-10 	
0.07 	-0.00293862 	0.0729386 	0.920688 	-0 	4.44444 	15.5556 	
0 	49057.4 	249.631 	372.584 	0.35 	2.77333 	0.801281 	1.42222e-05 	
0.0010323 	0.000508444 	
4.26667e-05 	5.40093e-09 	0.92 	0.04 	0.04 	-0.113307 	-1.09402e-09 	
0.07 	-0.00293862 	0.0729386 	0.920688 	-0 	6.66666 	13.3333 	
0 	49057.4 	249.631 	372.584 	0.35 	2.77333 	0.801282 	1.42222e-05 	
0.0010323 	0.000508444 	
5.68889e-05 	6.94406e-09 	0.92 	0.04 	0.04 	-0.113307 	-1.36144e-09 	
0.07 	-0.00293862 	0.0729386 	0.920688 	-0 	8.88888 	11.1111 	
0 	49057.4 	249.631 	372.584 	0.35 	2.77333 	0.801282 	1.42222e-05 	
0.0010323 	0.000508444 	
7.11111e-05 	8.48718e-09 	0.92 	0.04 	0.04 	-0.113307 	-1.58025e-09 	
0.07 	-0.00293862 	0.0729386 	0.920688 	-0 	11.1111 	8.8889 	
0 	49057.4 	249.631 	372.584 	0.35 	2.77333 	0.801282 	1.42222e-05 	
0.0010323 	0.000508444 	
8.53333e-05 	1.00303e-08 	0.92 	0.04 	0.04 	-0.113307 	-1.75043e-09 	
0.07 	-0.00293862 	0.0729386 	0.920688 	-0 	13.3333 	6.66667 	
0 	49057.4 	249.631 	372.584 	0.35 	2.77333 	0.801282 	1.42222e-05 	
0.0010323 	0.000508444 	
9.95556e-05 	1.15734e-08 	0.92 	0.04 	0.04 	-0.113307 	-1.87199e-09 	
0.07 	-0.00293862 	0.0729386 	0.920688 	-0 	15.5555 	4.44445 	
0 	49057.4 	249.631 	372.584 	0.35 	2.77333 	0.801283 	1.42222e-05 	
0.0010323 	0.000508444 	
0.000113778 	1.31166e-08 	0.92 	0.04 	0.04 	-0.113307 	-1.94492e-09 	
0.07 	-0.00293862 	0.0729386 	0.920688 	-0 	17.7778 	2.22223 	
0 	49057.4 	249.631 	372.584 	0.35 	2.77333 	0.801283 	1.42222e-05 	
0.0010323 	0.000508444 	
0.000128 	1.38881e-08 	0.92 	0.04 	0.04 	-0.113307 	-1.96923e-09 	
0.07 	-0.00293862 	0.0729386 	0.460344 	-0 	19.4444 	0.555557 	
0 	24528.7 	124.816 	186.292 	0.35 	1.38667 	0.801284 	7.11111e-06 	
0.000516148 	0.000254222 	
ZONE T = "t = 2e-08 [s]" I = 10 SOLUTIONTIME = 2.0000000000000E-08
0 	7.71562e-10 	0.92 	0.04 	0.04 	-0.112753 	0 	
0.113307 	-0.00293862 	0.116246 	1.11111 	5.75792e-09 	0.555555 	19.4444 	
2.78478e-11 	24528.7 	124.816 	186.292 	0.35 	1.38667 	0.801281 	7.11111e-06 	
0.000516148 	0.000254222 	
1.42222e-05 	2.31468e-09 	0.92 	0.04 	0.04 	-0.112753 	-4.13295e-10 	
0.113307 	-0.00293862 	0.116246 	2.22222 	1.72738e-08 	2.22222 	17.7778 	
5.56955e-11 	49057.4 	249.631 	372.584 	0.35 	2.77333 	0.801281 	1.42222e-05 	
0.0010323 	0.000508444 	
2.84444e-05 	3.85781e-09 	0.92 	0.04 	0.04 	-0.112753 	-7.77968e-10 	
0.113307 	-0.00293862 	0.116246 	2.22222 	2.87896e-08 	4.44444 	15.5556 	
5.56955e-11 	49057.4 	249.631 	372.584 	0.35 	2.77333 	0.801281 	1.42222e-05 	
0.0010323 	0.000508444 	
4.26667e-05 	5.40093e-09 	0.92 	0.04 	0.04 	-0.112753 	-1.09402e-09 	
0.113307 	-0.00293862 	0.116246 	2.22222 	4.03055e-08 	6.66666 	13.3333 	
5.56955e-11 	49057.4 	249.631 	372.584 	0.35 	2.77333 	0.801282 	1.42222e-05 	
0.0010323 	0.000508444 	
5.68889e-05 	6.94406e-09 	0.92 	0.04 	0.04 	-0.112753 	-1.36144e-09 	
0.113307 	-0.00293862 	0.116246 	2.22222 	5.18213e-08 	8.88888 	11.1111 	
5.56955e-11 	49057.4 	249.631 	372.584 	0.35 	2.77333 	0.801282 	1.42222e-05 	
0.0010323 	0.000508444 	
7.11111e-05 	8.48718e-09 	0.92 	0.04 	0.04 	-0.112753 	-1.58025e-09 	
0.113307 	-0.00293862 	0.116246 	2.22222 	6.33372e-08 	11.1111 	8.8889 	
5.56956e-11 	49057.4 	249.631 	372.584 	0.35 	2.77333 	0.801282 	1.42222e-05 	
0.0010323 	0.000508444 	
8.53333e-05 	1.00303e-08 	0.92 	0.04 	0.04 	-0.112753 	-1.75043e-09 	
0.113307 	-0.00293862 	0.116246 	2.22222 	7.4853e-08 	13.3333 	6.66667 	
5.56956e-11 	49057.4 	249.631 	372.584 	0.35 	2.77333 	0.801282 	1.42222e-05 	
0.0010323 	0.000508444 	
9.95556e-05 	1.15734e-08 	0.92 	0.04 	0.04 	-0.112753 	-1.87199e-09 	
0.113307 	-0.00293862 	0.116246 	2.22222 	8.63689e-08 	15.5555 	4.44445 	
5.56956e-11 	49057.4 	249.631 	372.584 	0.35 	2.77333 	0.801283 	1.42222e-05 	
0.0010323 	0.000508444 	
0.000113778 	1.31166e-08 	0.92 	0.04 	0.04 	-0.112753 	-1.94492e-09 	
0.113307 	-0.00293862 	0.116246 	2.22223 	9.78879e-08 	17.7778 	2.22223 	
5.56956e-11 	49057.4 	249.631 	372.584 	0.35 	2.77333 	0.801283 	1.42222e-05 	
0.0010323 	0.000508444 	
0.000128 	1.38881e-08 	0.92 	0.04 	0.04 	-0.112753 	-1.96923e-09 	
0.113307 	-0.00293862 	0.116246 	1.11111 	9.78879e-08 	19.4444 	0.555557 	
2.78478e-11 	24528.7 	124.816 	186.292 	0.35 	1.38667 	0.801284 	7.11111e-06 	
0.000516148 	0.000254222 	
ZONE T = "t = 3e-08 [s]" I = 10 SOLUTIONTIME = 3.0000000000000E-08
0 	7.71562e-10 	0.92 	0.04 	0.04 	-0.112753 	0 	
0.112753 	-0.00293862 	0.115692 	1.11111 	5.75792e-09 	0.555555 	19.4444 	
5.56955e-11 	24528.7 	124.816 	186.292 	0.35 	1.38667 	0.801281 	7.11111e-06 	
0.000516148 	0.000254222 	
1.42222e-05 	2.31468e-09 	0.92 	0.04 	0.04 	-0.112753 	-4.13295e-10 	
0.112753 	-0.00293862 	0.115692 	2.22222 	1.72738e-08 	2.22222 	17.7778 	
1.11391e-10 	49057.4 	249.631 	372.584 	0.35 	2.77333 	0.801281 	1.42222e-05 	
0.0010323 	0.000508444 	
2.84444e-05 	3.85781e-09 	0.92 	0.04 	0.04 	-0.112753 	-7.77968e-10 	
0.112753 	-0.00293862 	0.115692 	2.22222 	2.87896e-08 	4.44444 	15.5556 	
1.11391e-10 	49057.4 	249.631 	372.584 	0.35 	2.77333 	0.801281 	1.42222e-05 	
0.0010323 	0.000508444 	
4.26667e-05 	5.40093e-09 	0.92 	0.04 	0.04 	-0.112753 	-1.09402e-09 	
0.112753 	-0.00293862 	0.115692 	2.22222 	4.03055e-08 	6.66666 	13.3333 	
1.11391e-10 	49057.4 	249.631 	372.584 	0.35 	2.77333 	0.801282 	1.42222e-05 	
0.0010323 	0.000508444 	
5.68889e-05 	6.94406e-09 	0.92 	0.04 	0.04 	-0.112753 	-1.36144e-09 	
0.112753 	-0.00293862 	0.115692 	2.22222 	5.18213e-08 	8.88888 	11.1111 	
1.11391e-10 	49057.4 	249.631 	372.584 	0.35 	2.77333 	0.801282 	1.42222e-05 	
0.0010323 	0.000508444 	
7.11111e-05 	8.48718e-09 	0.92 	0.04 	0.04 	-0.112753 	-1.58025e-09 	
0.112753 	-0.00293862 	0.115692 	2.22222 	6.33372e-08 	11.1111 	8.8889 	
1.11391e-10 	49057.4 	249.631 	372.584 	0.35 	2.77333 	0.801282 	1.42222e-05 	
0.0010323 	0.000508444 	
8.53333e-05 	1.00303e-08 	0.92 	0.04 	0.04 	-0.112753 	-1.75043e-09 	
0.112753 	-0.00293862 	0.115692 	2.22222 	7.4853e-08 	13.3333 	6.66667 	
1.11391e-10 	49057.4 	249.631 	372.584 	0.35 	2.77333 	0.801282 	1.42222e-05 	
0.0010323 	0.000508444 	
9.95556e-05 	1.15734e-08 	0.92 	0.04 	0.04 	-0.112753 	-1.87199e-09 	
0.112753 	-0.00293862 	0.115692 	2.22222 	8.63689e-08 	15.5555 	4.44445 	
1.11391e-10 	49057.4 	249.631 	372.584 	0.35 	2.77333 	0.801283 	1.42222e-05 	
0.0010323 	0.000508444 	
0.000113778 	1.31166e-08 	0.92 	0.04 	0.04 	-0.112753 	-1.94492e-09 	
0.112753 	-0.00293862 	0.115692 	2.22222 	9.78909e-08 	17.7778 	2.22223 	
1.11391e-10 	49057.4 	249.631 	372.584 	0.35 	2.77333 	0.801283 	1.42222e-05 	
0.0010323 	0.000508444 	
0.000128 	1.38881e-08 	0.92 	0.04 	0.04 	-0.112753 	-1.96923e-09 	
0.112753 	-0.00293862 	0.115692 	1.11111 	9.78909e-08 	19.4444 	0.555557 	
5.56957e-11 	24528.7 	124.816 	186.292 	0.35 	1.38667 	0.801284 	7.11111e-06 	
0.000516148 	0.000254222 	
ZONE T = "t = 4e-08 [s]" I = 10 SOLUTIONTIME = 4.0000000000000E-08
0 	7.71562e-10 	0.92 	0.04 	0.04 	-0.112753 	0 	
0.112753 	-0.00293862 	0.115692 	1.11111 	5.75792e-09 	0.555555 	19.4444 	
8.35433e-11 	24528.7 	124.816 	186.292 	0.35 	1.38667 	0.801281 	7.11111e-06 	
0.000516148 	0.000254222 	
1.42222e-05 	2.31468e-09 	0.92 	0.04 	0.04 	-0.112753 	-4.13295e-10 	
0.112753 	-0.00293862 	0.115692 	2.22222 	1.72738e-08 	2.22222 	17.7778 	
1.67087e-10 	49057.4 	249.631 	372.584 	0.35 	2.77333 	0.801281 	1.42222e-05 	
0.0010323 	0.000508444 	
2.84444e-05 	3.85781e-09 	0.92 	0.04 	0.04 	-0.112753 	-7.77968e-10 	
0.112753 	-0.00293862 	0.115692 	2.22222 	2.87896e-08 	4.44444 	15.5556 	
1.67087e-10 	49057.4 	249.631 	372.584 	0.35 	2.77333 	0.801281 	1.42222e-05 	
0.0010323 	0.000508444 	
4.26667e-05 	5.40093e-09 	0.92 	0.04 	0.04 	-0.112753 	-1.09402e-09 	
0.112753 	-0.00293862 	0.115692 	2.22222 	4.03055e-08 	6.66666 	13.3333 	
1.67087e-10 	49057.4 	249.631 	372.584 	0.35 	2.77333 	0.801282 	1.42222e-05 	
0.0010323 	0.000508444 	
5.68889e-05 	6.94406e-09 	0.92 	0.04 	0.04 	-0.112753 	-1.36144e-09 	
0.112753 	-0.00293862 	0.115692 	2.22222 	5.18213e-08 	8.88888 	11.1111 	
1.67087e-10 	49057.4 	249.631 	372.584 	0.35 	2.77333 	0.801282 	1.42222e-05 	
0.0010323 	0.000508444 	
7.11111e-05 	8.48718e-09 	0.92 	0.04 	0.04 	-0.112753 	-1.58025e-09 	
0.112753 	-0.00293862 	0.115692 	2.22222 	6.33372e-08 	11.1111 	8.8889 	
1.67087e-10 	49057.4 	249.631 	372.584 	0.35 	2.77333 	0.801282 	1.42222e-05 	
0.0010323 	0.000508444 	
8.53333e-05 	1.00303e-08 	0.92 	0.04 	0.04 	-0.112753 	-1.75043e-09 	
0.112753 	-0.00293862 	0.115692 	2.22222 	7.4853e-08 	13.3333 	6.66667 	
1.67087e-10 	49057.4 	249.631 	372.584 	0.35 	2.77333 	0.801282 	1.42222e-05 	
0.0010323 	0.000508444 	
9.95556e-05 	1.15734e-08 	0.92 	0.04 	0.04 	-0.112753 	-1.87199e-09 	
0.112753 	-0.00293862 	0.115692 	2.22222 	8.63689e-08 	15.5555 	4.44445 	
1.67087e-10 	49057.4 	249.631 	372.584 	0.35 	2.77333 	0.801283 	1.42222e-05 	
0.0010323 	0.000508444 	
0.000113778 	1.31166e-08 	0.92 	0.04 	0.04 	-0.112753 	-1.94492e-09 	
0.112753 	-0.00293862 	0.115692 	2.22222 	9.7894e-08 	17.7778 	2.22223 	
1.67087e-10 	49057.4 	249.631 	372.584 	0.35 	2.77333 	0.801283 	1.42222e-05 	
0.0010323 	0.000508444 	
0.000128 	1.38881e-08 	0.92 	0.04 	0.04 	-0.112753 	-1.96923e-09 	
0.112753 	-0.00293862 	0.115692 	1.11111 	9.7894e-08 	19.4444 	0.555557 	
8.35435e-11 	24528.7 	124.816 	186.292 	0.35 	1.38667 	0.801284 	7.11111e-06 	
0.000516148 	0.000254222 	
ZONE T = "t = 4.57155e-08 [s]" I = 10 SOLUTIONTIME = 4.5715481302889E-08
0 	7.71562e-10 	0.92 	0.04 	0.04 	-0.112753 	0 	
0.112753 	-0.00293862 	0.115692 	1.11111 	5.75792e-09 	0.555555 	19.4444 	
1.11391e-10 	24528.7 	124.816 	186.292 	0.35 	1.38667 	0.801281 	7.11111e-06 	
0.000516148 	0.000254222 	
1.42222e-05 	2.31468e-09 	0.92 	0.04 	0.04 	-0.112753 	-4.13295e-10 	
0.112753 	-0.00293862 	0.115692 	2.22222 	1.72738e-08 	2.22222 	17.7778 	
2.22782e-10 	49057.4 	249.631 	372.584 	0.35 	2.77333 	0.801281 	1.42222e-05 	
0.0010323 	0.000508444 	
2.84444e-05 	3.85781e-09 	0.92 	0.04 	0.04 	-0.112753 	-7.77968e-10 	
0.112753 	-0.00293862 	0.115692 	2.22222 	2.87896e-08 	4.44444 	15.5556 	
2.22782e-10 	49057.4 	249.631 	372.584 	0.35 	2.77333 	0.801281 	1.42222e-05 	
0.0010323 	0.000508444 	
4.26667e-05 	5.40093e-09 	0.92 	0.04 	0.04 	-0.112753 	-1.09402e-09 	
0.112753 	-0.00293862 	0.115692 	2.22222 	4.03055e-08 	6.66666 	13.3333 	
2.22782e-10 	49057.4 	249.631 	372.584 	0.35 	2.77333 	0.801282 	1.42222e-05 	
0.0010323 	0.000508444 	
5.68889e-05 	6.94406e-09 	0.92 	0.04 	0.04 	-0.112753 	-1.36144e-09 	
0.112753 	-0.00293862 	0.115692 	2.22222 	5.18213e-08 	8.88888 	11.1111 	
2.22782e-10 	49057.4 	249.631 	372.584 	0.35 	2.77333 	0.801282 	1.42222e-05 	
0.0010323 	0.000508444 	
7.11111e-05 	8.48718e-09 	0.92 	0.04 	0.04 	-0.112753 	-1.58025e-09 	
0.112753 	-0.00293862 	0.115692 	2.22222 	6.33372e-08 	11.1111 	8.8889 	
2.22782e-10 	49057.4 	249.631 	372.584 	0.35 	2.77333 	0.801282 	1.42222e-05 	
0.0010323 	0.000508444 	
8.53333e-05 	1.00303e-08 	0.92 	0.04 	0.04 	-0.112753 	-1.75043e-09 	
0.112753 	-0.00293862 	0.115692 	2.22222 	7.4853e-08 	13.3333 	6.66667 	
2.22782e-10 	49057.4 	249.631 	372.584 	0.35 	2.77333 	0.801282 	1.42222e-05 	
0.0010323 	0.000508444 	
9.95556e-05 	1.15734e-08 	0.92 	0.04 	0.04 	-0.112753 	-1.87199e-09 	
0.112753 	-0.00293862 	0.115692 	2.22222 	8.63689e-08 	15.5555 	4.44445 	
2.22782e-10 	49057.4 	249.631 	372.584 	0.35 	2.77333 	0.801283 	1.42222e-05 	
0.0010323 	0.000508444 	
0.000113778 	1.31166e-08 	0.92 	0.04 	0.04 	-0.112753 	-1.94492e-09 	
0.112753 	-0.00293862 	0.115692 	2.22222 	9.78971e-08 	17.7778 	2.22223 	
2.22782e-10 	49057.4 	249.631 	372.584 	0.35 	2.77333 	0.801283 	1.42222e-05 	
0.0010323 	0.000508444 	
0.000128 	1.38881e-08 	0.92 	0.04 	0.04 	-0.112753 	-1.96923e-09 	
0.112753 	-0.00293862 	0.115692 	1.11111 	9.78971e-08 	19.4444 	0.555557 	
1.11391e-10 	24528.7 	124.816 	186.292 	0.35 	1.38667 	0.801284 	7.11111e-06 	
0.000516148 	0.000254222 	
ZONE T = "t = 5.42887e-08 [s]" I = 10 SOLUTIONTIME = 5.4288703257222E-08
0 	7.71562e-10 	0.92 	0.04 	0.04 	-0.112753 	0 	
0.112753 	-0.00293862 	0.115692 	1.11111 	5.75792e-09 	0.555555 	19.4444 	
1.27307e-10 	24528.7 	124.816 	186.292 	0.35 	1.38667 	0.801281 	7.11111e-06 	
0.000516148 	0.000254222 	
1.42222e-05 	2.31468e-09 	0.92 	0.04 	0.04 	-0.112753 	-4.13295e-10 	
0.112753 	-0.00293862 	0.115692 	2.22222 	1.72738e-08 	2.22222 	17.7778 	
2.54615e-10 	49057.4 	249.631 	372.584 	0.35 	2.77333 	0.801281 	1.42222e-05 	
0.0010323 	0.000508444 	
2.84444e-05 	3.85781e-09 	0.92 	0.04 	0.04 	-0.112753 	-7.77968e-10 	
0.112753 	-0.00293862 	0.115692 	2.22222 	2.87896e-08 	4.44444 	15.5556 	
2.54615e-10 	49057.4 	249.631 	372.584 	0.35 	2.77333 	0.801281 	1.42222e-05 	
0.0010323 	0.000508444 	
4.26667e-05 	5.40093e-09 	0.92 	0.04 	0.04 	-0.112753 	-1.09402e-09 	
0.112753 	-0.00293862 	0.115692 	2.22222 	4.03055e-08 	6.66666 	13.3333 	
2.54615e-10 	49057.4 	249.631 	372.584 	0.35 	2.77333 	0.801282 	1.42222e-05 	
0.0010323 	0.000508444 	
5.68889e-05 	6.94406e-09 	0.92 	0.04 	0.04 	-0.112753 	-1.36144e-09 	
0.112753 	-0.00293862 	0.115692 	2.22222 	5.18213e-08 	8.88888 	11.1111 	
2.54615e-10 	49057.4 	249.631 	372.584 	0.35 	2.77333 	0.801282 	1.42222e-05 	
0.0010323 	0.000508444 	
7.11111e-05 	8.48718e-09 	0.92 	0.04 	0.04 	-0.112753 	-1.58025e-09 	
0.112753 	-0.00293862 	0.115692 	2.22222 	6.33372e-08 	11.1111 	8.8889 	
2.54615e-10 	49057.4 	249.631 	372.584 	0.35 	2.77333 	0.801282 	1.42222e-05 	
0.0010323 	0.000508444 	
8.53333e-05 	1.00303e-08 	0.92 	0.04 	0.04 	-0.112753 	-1.75043e-09 	
0.112753 	-0.00293862 	0.115692 	2.22222 	7.4853e-08 	13.3333 	6.66667 	
2.54615e-10 	49057.4 	249.631 	372.584 	0.35 	2.77333 	0.801282 	1.42222e-05 	
0.0010323 	0.000508444 	
9.95556e-05 	1.15734e-08 	0.92 	0.04 	0.04 	-0.112753 	-1.87199e-09 	
0.112753 	-0.00293862 	0.115692 	2.22222 	8.63689e-08 	15.5555 	4.44445 	
2.54615e-10 	49057.4 	249.631 	372.584 	0.35 	2.77333 	0.801283 	1.42222e-05 	
0.0010323 	0.000508444 	
0.000113778 	1.31166e-08 	0.92 	0.04 	0.04 	-0.112753 	-1.94492e-09 	
0.112753 	-0.00293862 	0.115692 	2.22222 	9.78989e-08 	17.7778 	2.22223 	
2.54615e-10 	49057.4 	249.631 	372.584 	0.35 	2.77333 	0.801283 	1.42222e-05 	
0.0010323 	0.000508444 	
0.000128 	1.38881e-08 	0.92 	0.04 	0.04 	-0.112753 	-1.96923e-09 	
0.112753 	-0.00293862 	0.115692 	1.11111 	9.78989e-08 	19.4444 	0.555557 	
1.27308e-10 	24528.7 	124.816 	186.292 	0.35 	1.38667 	0.801284 	7.11111e-06 	
0.000516148 	0.000254222 	
ZONE T = "t = 6.71485e-08 [s]" I = 10 SOLUTIONTIME = 6.7148536188721E-08
0 	7.71562e-10 	0.92 	0.04 	0.04 	-0.112753 	0 	
0.112753 	-0.00293862 	0.115692 	1.11111 	5.75792e-09 	0.555555 	19.4444 	
1.51182e-10 	24528.7 	124.816 	186.292 	0.35 	1.38667 	0.801281 	7.11111e-06 	
0.000516148 	0.000254222 	
1.42222e-05 	2.31468e-09 	0.92 	0.04 	0.04 	-0.112753 	-4.13295e-10 	
0.112753 	-0.00293862 	0.115692 	2.22222 	1.72738e-08 	2.22222 	17.7778 	
3.02364e-10 	49057.4 	249.631 	372.584 	0.35 	2.77333 	0.801281 	1.42222e-05 	
0.0010323 	0.000508444 	
2.84444e-05 	3.85781e-09 	0.92 	0.04 	0.04 	-0.112753 	-7.77968e-10 	
0.112753 	-0.00293862 	0.115692 	2.22222 	2.87896e-08 	4.44444 	15.5556 	
3.02364e-10 	49057.4 	249.631 	372.584 	0.35 	2.77333 	0.801281 	1.42222e-05 	
0.0010323 	0.000508444 	
4.26667e-05 	5.40093e-09 	0.92 	0.04 	0.04 	-0.112753 	-1.09402e-09 	
0.112753 	-0.00293862 	0.115692 	2.22222 	4.03055e-08 	6.66666 	13.3333 	
3.02364e-10 	49057.4 	249.631 	372.584 	0.35 	2.77333 	0.801282 	1.42222e-05 	
0.0010323 	0.000508444 	
5.68889e-05 	6.94406e-09 	0.92 	0.04 	0.04 	-0.112753 	-1.36144e-09 	
0.112753 	-0.00293862 	0.115692 	2.22222 	5.18213e-08 	8.88888 	11.1111 	
3.02364e-10 	49057.4 	249.631 	372.584 	0.35 	2.77333 	0.801282 	1.42222e-05 	
0.0010323 	0.000508444 	
7.11111e-05 	8.48718e-09 	0.92 	0.04 	0.04 	-0.112753 	-1.58025e-09 	
0.112753 	-0.00293862 	0.115692 	2.22222 	6.33372e-08 	11.1111 	8.8889 	
3.02364e-10 	49057.4 	249.631 	372.584 	0.35 	2.77333 	0.801282 	1.42222e-05 	
0.0010323 	0.000508444 	
8.53333e-05 	1.00303e-08 	0.92 	0.04 	0.04 	-0.112753 	-1.75043e-09 	
0.112753 	-0.00293862 	0.115692 	2.22222 	7.4853e-08 	13.3333 	6.66667 	
3.02364e-10 	49057.4 	249.631 	372.584 	0.35 	2.77333 	0.801282 	1.42222e-05 	
0.0010323 	0.000508444 	
9.95556e-05 	1.15734e-08 	0.92 	0.04 	0.04 	-0.112753 	-1.87199e-09 	
0.112753 	-0.00293862 	0.115692 	2.22222 	8.63689e-08 	15.5555 	4.44445 	
3.02364e-10 	49057.4 	249.631 	372.584 	0.35 	2.77333 	0.801283 	1.42222e-05 	
0.0010323 	0.000508444 	
0.000113778 	1.31166e-08 	0.92 	0.04 	0.04 	-0.112753 	-1.94492e-09 	
0.112753 	-0.00293862 	0.115692 	2.22222 	9.79016e-08 	17.7778 	2.22223 	
3.02364e-10 	49057.4 	249.631 	372.584 	0.35 	2.77333 	0.801283 	1.42222e-05 	
0.0010323 	0.000508444 	
0.000128 	1.38881e-08 	0.92 	0.04 	0.04 	-0.112753 	-1.96923e-09 	
0.112753 	-0.00293862 	0.115692 	1.11111 	9.79016e-08 	19.4444 	0.555557 	
1.51182e-10 	24528.7 	124.816 	186.292 	0.35 	1.38667 	0.801284 	7.11111e-06 	
0.000516148 	0.000254222 	
ZONE T = "t = 8.64383e-08 [s]" I = 10 SOLUTIONTIME = 8.6438285585971E-08
0 	7.71562e-10 	0.92 	0.04 	0.04 	-0.112753 	0 	
0.112753 	-0.00293862 	0.115692 	1.11111 	5.75792e-09 	0.555555 	19.4444 	
1.86994e-10 	24528.7 	124.816 	186.292 	0.35 	1.38667 	0.801281 	7.11111e-06 	
0.000516148 	0.000254222 	
1.42222e-05 	2.31468e-09 	0.92 	0.04 	0.04 	-0.112753 	-4.13295e-10 	
0.112753 	-0.00293862 	0.115692 	2.22222 	1.72738e-08 	2.22222 	17.7778 	
3.73987e-10 	49057.4 	249.631 	372.584 	0.35 	2.77333 	0.801281 	1.42222e-05 	
0.0010323 	0.000508444 	
2.84444e-05 	3.85781e-09 	0.92 	0.04 	0.04 	-0.112753 	-7.77968e-10 	
0.112753 	-0.00293862 	0.115692 	2.22222 	2.87896e-08 	4.44444 	15.5556 	
3.73987e-10 	49057.4 	249.631 	372.584 	0.35 	2.77333 	0.801281 	1.42222e-05 	
0.0010323 	0.000508444 	
4.26667e-05 	5.40093e-09 	0.92 	0.04 	0.04 	-0.112753 	-1.09402e-09 	
0.112753 	-0.00293862 	0.115692 	2.22222 	4.03055e-08 	6.66666 	13.3333 	
3.73987e-10 	49057.4 	249.631 	372.584 	0.35 	2.77333 	0.801282 	1.42222e-05 	
0.0010323 	0.000508444 	
5.68889e-05 	6.94406e-09 	0.92 	0.04 	0.04 	-0.112753 	-1.36144e-09 	
0.112753 	-0.00293862 	0.115692 	2.22222 	5.18213e-08 	8.88888 	11.1111 	
3.73987e-10 	49057.4 	249.631 	372.584 	0.35 	2.77333 	0.801282 	1.42222e-05 	
0.0010323 	0.000508444 	
7.11111e-05 	8.48718e-09 	0.92 	0.04 	0.04 	-0.112753 	-1.58025e-09 	
0.112753 	-0.00293862 	0.115692 	2.22222 	6.33372e-08 	11.1111 	8.8889 	
3.73987e-10 	49057.4 	249.631 	372.584 	0.35 	2.77333 	0.801282 	1.42222e-05 	
0.0010323 	0.000508444 	
8.53333e-05 	1.00303e-08 	0.92 	0.04 	0.04 	-0.112753 	-1.75043e-09 	
0.112753 	-0.00293862 	0.115692 	2.22222 	7.4853e-08 	13.3333 	6.66667 	
3.73988e-10 	49057.4 	249.631 	372.584 	0.35 	2.77333 	0.801282 	1.42222e-05 	
0.0010323 	0.000508444 	
9.95556e-05 	1.15734e-08 	0.92 	0.04 	0.04 	-0.112753 	-1.87199e-09 	
0.112753 	-0.00293862 	0.115692 	2.22222 	8.63689e-08 	15.5555 	4.44445 	
3.73988e-10 	49057.4 	249.631 	372.584 	0.35 	2.77333 	0.801283 	1.42222e-05 	
0.0010323 	0.000508444 	
0.000113778 	1.31166e-08 	0.92 	0.04 	0.04 	-0.112753 	-1.94492e-09 	
0.112753 	-0.00293862 	0.115692 	2.22222 	9.79055e-08 	17.7778 	2.22223 	
3.73988e-10 	49057.4 	249.631 	372.584 	0.35 	2.77333 	0.801283 	1.42222e-05 	
0.0010323 	0.000508444 	
0.000128 	1.38881e-08 	0.92 	0.04 	0.04 	-0.112753 	-1.96923e-09 	
0.112753 	-0.00293862 	0.115692 	1.11111 	9.79055e-08 	19.4444 	0.555557 	
1.86994e-10 	24528.7 	124.816 	186.292 	0.35 	1.38667 	0.801284 	7.11111e-06 	
0.000516148 	0.000254222 	
ZONE T = "t = 1.15373e-07 [s]" I = 10 SOLUTIONTIME = 1.1537290968184E-07
0 	7.71562e-10 	0.92 	0.04 	0.04 	-0.112753 	0 	
0.112753 	-0.00293862 	0.115692 	1.11111 	5.75792e-09 	0.555555 	19.4444 	
2.40711e-10 	24528.7 	124.816 	186.292 	0.35 	1.38667 	0.801281 	7.11111e-06 	
0.000516148 	0.000254222 	
1.42222e-05 	2.31468e-09 	0.92 	0.04 	0.04 	-0.112753 	-4.13295e-10 	
0.112753 	-0.00293862 	0.115692 	2.22222 	1.72738e-08 	2.22222 	17.7778 	
4.81422e-10 	49057.4 	249.631 	372.584 	0.35 	2.77333 	0.801281 	1.42222e-05 	
0.0010323 	0.000508444 	
2.84444e-05 	3.85781e-09 	0.92 	0.04 	0.04 	-0.112753 	-7.77968e-10 	
0.112753 	-0.00293862 	0.115692 	2.22222 	2.87896e-08 	4.44444 	15.5556 	
4.81422e-10 	49057.4 	249.631 	372.584 	0.35 	2.77333 	0.801281 	1.42222e-05 	
0.0010323 	0.000508444 	
4.26667e-05 	5.40093e-09 	0.92 	0.04 	0.04 	-0.112753 	-1.09402e-09 	
0.112753 	-0.00293862 	0.115692 	2.22222 	4.03055e-08 	6.66666 	13.3333 	
4.81423e-10 	49057.4 	249.631 	372.584 	0.35 	2.77333 	0.801282 	1.42222e-05 	
0.0010323 	0.000508444 	
5.68889e-05 	6.94406e-09 	0.92 	0.04 	0.04 	-0.112753 	-1.36144e-09 	
0.112753 	-0.00293862 	0.115692 	2.22222 	5.18213e-08 	8.88888 	11.1111 	
4.81423e-10 	49057.4 	249.631 	372.584 	0.35 	2.77333 	0.801282 	1.42222e-05 	
0.0010323 	0.000508444 	
7.11111e-05 	8.48718e-09 	0.92 	0.04 	0.04 	-0.112753 	-1.58025e-09 	
0.112753 	-0.00293862 	0.115692 	2.22222 	6.33372e-08 	11.1111 	8.8889 	
4.81423e-10 	49057.4 	249.631 	372.584 	0.35 	2.77333 	0.801282 	1.42222e-05 	
0.0010323 	0.000508444 	
8.53333e-05 	1.00303e-08 	0.92 	0.04 	0.04 	-0.112753 	-1.75043e-09 	
0.112753 	-0.00293862 	0.115692 	2.22222 	7.4853e-08 	13.3333 	6.66667 	
4.81423e-10 	49057.4 	249.631 	372.584 	0.35 	2.77333 	0.801282 	1.42222e-05 	
0.0010323 	0.000508444 	
9.95556e-05 	1.15734e-08 	0.92 	0.04 	0.04 	-0.112753 	-1.87199e-09 	
0.112753 	-0.00293862 	0.115692 	2.22222 	8.63689e-08 	15.5555 	4.44445 	
4.81423e-10 	49057.4 	249.631 	372.584 	0.35 	2.77333 	0.801283 	1.42222e-05 	
0.0010323 	0.000508444 	
0.000113778 	1.31166e-08 	0.92 	0.04 	0.04 	-0.112753 	-1.94492e-09 	
0.112753 	-0.00293862 	0.115692 	2.22222 	9.79115e-08 	17.7778 	2.22223 	
4.81423e-10 	49057.4 	249.631 	372.584 	0.35 	2.77333 	0.801283 	1.42222e-05 	
0.0010323 	0.000508444 	
0.000128 	1.38881e-08 	0.92 	0.04 	0.04 	-0.112753 	-1.96923e-09 	
0.112753 	-0.00293862 	0.115692 	1.11111 	9.79115e-08 	19.4444 	0.555557 	
2.40712e-10 	24528.7 	124.816 	186.292 	0.35 	1.38667 	0.801284 	7.11111e-06 	
0.000516148 	0.000254222 	
ZONE T = "t = 1.58775e-07 [s]" I = 10 SOLUTIONTIME = 1.5877484582566E-07
0 	7.71562e-10 	0.92 	0.04 	0.04 	-0.112753 	0 	
0.112753 	-0.00293862 	0.115692 	1.11111 	5.75792e-09 	0.555555 	19.4444 	
3.21288e-10 	24528.7 	124.816 	186.292 	0.35 	1.38667 	0.801281 	7.11111e-06 	
0.000516148 	0.000254222 	
1.42222e-05 	2.31468e-09 	0.92 	0.04 	0.04 	-0.112753 	-4.13295e-10 	
0.112753 	-0.00293862 	0.115692 	2.22222 	1.72738e-08 	2.22222 	17.7778 	
6.42575e-10 	49057.4 	249.631 	372.584 	0.35 	2.77333 	0.801281 	1.42222e-05 	
0.0010323 	0.000508444 	
2.84444e-05 	3.85781e-09 	0.92 	0.04 	0.04 	-0.112753 	-7.77968e-10 	
0.112753 	-0.00293862 	0.115692 	2.22222 	2.87896e-08 	4.44444 	15.5556 	
6.42575e-10 	49057.4 	249.631 	372.584 	0.35 	2.77333 	0.801281 	1.42222e-05 	
0.0010323 	0.000508444 	
4.26667e-05 	5.40093e-09 	0.92 	0.04 	0.04 	-0.112753 	-1.09402e-09 	
0.112753 	-0.00293862 	0.115692 	2.22222 	4.03055e-08 	6.66666 	13.3333 	
6.42575e-10 	49057.4 	249.631 	372.584 	0.35 	2.77333 	0.801282 	1.42222e-05 	
0.0010323 	0.000508444 	
5.68889e-05 	6.94406e-09 	0.92 	0.04 	0.04 	-0.112753 	-1.36144e-09 	
0.112753 	-0.00293862 	0.115692 	2.22222 	5.18213e-08 	8.88888 	11.1111 	
6.42576e-10 	49057.4 	249.631 	372.584 	0.35 	2.77333 	0.801282 	1.42222e-05 	
0.0010323 	0.000508444 	
7.11111e-05 	8.48718e-09 	0.92 	0.04 	0.04 	-0.112753 	-1.58025e-09 	
0.112753 	-0.00293862 	0.115692 	2.22222 	6.33372e-08 	11.1111 	8.8889 	
6.42576e-10 	49057.4 	249.631 	372.584 	0.35 	2.77333 	0.801282 	1.42222e-05 	
0.0010323 	0.000508444 	
8.53333e-05 	1.00303e-08 	0.92 	0.04 	0.04 	-0.112753 	-1.75043e-09 	
0.112753 	-0.00293862 	0.115692 	2.22222 	7.4853e-08 	13.3333 	6.66667 	
6.42576e-10 	49057.4 	249.631 	372.584 	0.35 	2.77333 	0.801282 	1.42222e-05 	
0.0010323 	0.000508444 	
9.95556e-05 	1.15734e-08 	0.92 	0.04 	0.04 	-0.112753 	-1.87199e-09 	
0.112753 	-0.00293862 	0.115692 	2.22222 	8.6369e-08 	15.5555 	4.44445 	
6.42576e-10 	49057.4 	249.631 	372.584 	0.35 	2.77333 	0.801283 	1.42222e-05 	
0.0010323 	0.000508444 	
0.000113778 	1.31166e-08 	0.92 	0.04 	0.04 	-0.112753 	-1.94492e-09 	
0.112753 	-0.00293862 	0.115692 	2.22222 	9.79204e-08 	17.7778 	2.22223 	
6.42577e-10 	49057.4 	249.631 	372.584 	0.35 	2.77333 	0.801283 	1.42222e-05 	
0.0010323 	0.000508444 	
0.000128 	1.38881e-08 	0.92 	0.04 	0.04 	-0.112753 	-1.96923e-09 	
0.112753 	-0.00293862 	0.115692 	1.11111 	9.79204e-08 	19.4444 	0.555557 	
3.21288e-10 	24528.7 	124.816 	186.292 	0.35 	1.38667 	0.801284 	7.11111e-06 	
0.000516148 	0.000254222 	
ZONE T = "t = 2.23878e-07 [s]" I = 10 SOLUTIONTIME = 2.2387775004137E-07
0 	7.71562e-10 	0.92 	0.04 	0.04 	-0.112753 	0 	
0.112753 	-0.00293862 	0.115692 	1.11111 	5.75792e-09 	0.555555 	19.4444 	
4.42152e-10 	24528.7 	124.816 	186.292 	0.35 	1.38667 	0.801281 	7.11111e-06 	
0.000516148 	0.000254222 	
1.42222e-05 	2.31468e-09 	0.92 	0.04 	0.04 	-0.112753 	-4.13295e-10 	
0.112753 	-0.00293862 	0.115692 	2.22222 	1.72738e-08 	2.22222 	17.7778 	
8.84305e-10 	49057.4 	249.631 	372.584 	0.35 	2.77333 	0.801281 	1.42222e-05 	
0.0010323 	0.000508444 	
2.84444e-05 	3.85781e-09 	0.92 	0.04 	0.04 	-0.112753 	-7.77968e-10 	
0.112753 	-0.00293862 	0.115692 	2.22222 	2.87896e-08 	4.44444 	15.5556 	
8.84305e-10 	49057.4 	249.631 	372.584 	0.35 	2.77333 	0.801281 	1.42222e-05 	
0.0010323 	0.000508444 	
4.26667e-05 	5.40093e-09 	0.92 	0.04 	0.04 	-0.112753 	-1.09402e-09 	
0.112753 	-0.00293862 	0.115692 	2.22222 	4.03055e-08 	6.66666 	13.3333 	
8.84305e-10 	49057.4 	249.631 	372.584 	0.35 	2.77333 	0.801282 	1.42222e-05 	
0.0010323 	0.000508444 	
5.68889e-05 	6.94406e-09 	0.92 	0.04 	0.04 	-0.112753 	-1.36144e-09 	
0.112753 	-0.00293862 	0.115692 	2.22222 	5.18213e-08 	8.88888 	11.1111 	
8.84305e-10 	49057.4 	249.631 	372.584 	0.35 	2.77333 	0.801282 	1.42222e-05 	
0.0010323 	0.000508444 	
7.11111e-05 	8.48718e-09 	0.92 	0.04 	0.04 	-0.112753 	-1.58025e-09 	
0.112753 	-0.00293862 	0.115692 	2.22222 	6.33372e-08 	11.1111 	8.8889 	
8.84305e-10 	49057.4 	249.631 	372.584 	0.35 	2.77333 	0.801282 	1.42222e-05 	
0.0010323 	0.000508444 	
8.53333e-05 	1.00303e-08 	0.92 	0.04 	0.04 	-0.112753 	-1.75043e-09 	
0.112753 	-0.00293862 	0.115692 	2.22222 	7.4853e-08 	13.3333 	6.66667 	
8.84306e-10 	49057.4 	249.631 	372.584 	0.35 	2.77333 	0.801282 	1.42222e-05 	
0.0010323 	0.000508444 	
9.95556e-05 	1.15734e-08 	0.92 	0.04 	0.04 	-0.112753 	-1.87199e-09 	
0.112753 	-0.00293862 	0.115692 	2.22222 	8.6369e-08 	15.5555 	4.44445 	
8.84306e-10 	49057.4 	249.631 	372.584 	0.35 	2.77333 	0.801283 	1.42222e-05 	
0.0010323 	0.000508444 	
0.000113778 	1.31166e-08 	0.92 	0.04 	0.04 	-0.112753 	-1.94492e-09 	
0.112753 	-0.00293862 	0.115692 	2.22222 	9.79338e-08 	17.7778 	2.22223 	
8.84306e-10 	49057.4 	249.631 	372.584 	0.35 	2.77333 	0.801283 	1.42222e-05 	
0.0010323 	0.000508444 	
0.000128 	1.38881e-08 	0.92 	0.04 	0.04 	-0.112753 	-1.96923e-09 	
0.112753 	-0.00293862 	0.115692 	1.11111 	9.79338e-08 	19.4444 	0.555557 	
4.42153e-10 	24528.7 	124.816 	186.292 	0.35 	1.38667 	0.801284 	7.11111e-06 	
0.000516148 	0.000254222 	
ZONE T = "t = 3.21532e-07 [s]" I = 10 SOLUTIONTIME = 3.2153210636495E-07