TITLE = "Solution on Domain BulkDomain1D_0"
VARIABLES = "x [m]"  
"Vel_axial" 
"MF_sp(ECDMC)" 
"MF_sp(Li+)" 
"MF_sp(PF6-)" 
"Volt(Electroly)" 
"Volt(AnodeVolt)" 
"Potential Drop Electrode-Electrolyte [V]" 
"Surf_0 Equilibrium Potential Drop Electrode-Electrolyte [V]" 
"Overpotential_0 [V]" 
"Current Source [A/m^2]" 
"Li+ flux [kmol/m^2/s]" 
"Electrolyte Current [A/m^2]" 
"Electrode Current [A/m^2]" 
"CV Capacity discharged [A-s/m^2]" 
"Depth of discharge in CV [A-s/m^2]" 
"CV Capacity remaining [A-s/m^2]" 
"Initial CV capacity [A-s/m^2]" 
"Porosity []" 
"Surface Area [m2/m2] (area per area)" 
"Specific current (per particle area) [A/m^2]" 
"Control volume thickness [m]" 
"MoleDens Li_C6-bulk [kmol/m^3]" 
"MoleDens V_C6-bulk [kmol/m^3]" 
"MoleDens Li(S) [kmol/m^3]" 
"qHeat_accum [J/m3]" 
"qHeat_step [W/m3]" 
"Joule_Lyte [W/m3]" 
"Joule_Solid [W/m3]" 
"electrodHeat [W/m3]" 
"OverpotHeat [W/m3]" 
"deltaSHeat [W/m3]" 

ZONE T = "ANOD, 0.0000E+00", I = 10, SOLUTIONTIME = 0.000000E+00
ZONETYPE = ORDERED
DATAPACKING = BLOCK
STRANDID = 1
 0.0000000000000E+00  1.1111111111111E-05  2.2222222222222E-05  3.3333333333333E-05  4.4444444444444E-05  5.5555555555556E-05  6.6666666666667E-05  7.7777777777778E-05  8.8888888888889E-05  1.0000000000000E-04 
 0.0000000000000E+00  0.0000000000000E+00  0.0000000000000E+00  0.0000000000000E+00  0.0000000000000E+00  0.0000000000000E+00  0.0000000000000E+00  0.0000000000000E+00  0.0000000000000E+00  0.0000000000000E+00 
 8.4394680000000E-01  8.4394680000000E-01  8.4394680000000E-01  8.4394680000000E-01  8.4394680000000E-01  8.4394680000000E-01  8.4394680000000E-01  8.4394680000000E-01  8.4394680000000E-01  8.4394680000000E-01 
 7.8026600000000E-02  7.8026600000000E-02  7.8026600000000E-02  7.8026600000000E-02  7.8026600000000E-02  7.8026600000000E-02  7.8026600000000E-02  7.8026600000000E-02  7.8026600000000E-02  7.8026600000000E-02 
 7.8026600000000E-02  7.8026600000000E-02  7.8026600000000E-02  7.8026600000000E-02  7.8026600000000E-02  7.8026600000000E-02  7.8026600000000E-02  7.8026600000000E-02  7.8026600000000E-02  7.8026600000000E-02 
-7.0000000000000E-02 -7.0000000000000E-02 -7.0000000000000E-02 -7.0000000000000E-02 -7.0000000000000E-02 -7.0000000000000E-02 -7.0000000000000E-02 -7.0000000000000E-02 -7.0000000000000E-02 -7.0000000000000E-02 
 0.0000000000000E+00  0.0000000000000E+00  0.0000000000000E+00  0.0000000000000E+00  0.0000000000000E+00  0.0000000000000E+00  0.0000000000000E+00  0.0000000000000E+00  0.0000000000000E+00  0.0000000000000E+00 
 7.0000000000000E-02  7.0000000000000E-02  7.0000000000000E-02  7.0000000000000E-02  7.0000000000000E-02  7.0000000000000E-02  7.0000000000000E-02  7.0000000000000E-02  7.0000000000000E-02  7.0000000000000E-02 
 1.1344423570134E-01  1.1344423570134E-01  1.1344423570134E-01  1.1344423570134E-01  1.1344423570134E-01  1.1344423570134E-01  1.1344423570134E-01  1.1344423570134E-01  1.1344423570134E-01  1.1344423570134E-01 
-4.3444235701341E-02 -4.3444235701341E-02 -4.3444235701341E-02 -4.3444235701341E-02 -4.3444235701341E-02 -4.3444235701341E-02 -4.3444235701341E-02 -4.3444235701341E-02 -4.3444235701341E-02 -4.3444235701341E-02 
-6.8612996789997E+00 -1.3722599357999E+01 -1.3722599357999E+01 -1.3722599357999E+01 -1.3722599357999E+01 -1.3722599357999E+01 -1.3722599357999E+01 -1.3722599357999E+01 -1.3722599357999E+01 -6.8612996789997E+00 
-0.0000000000000E+00 -0.0000000000000E+00 -0.0000000000000E+00 -0.0000000000000E+00 -0.0000000000000E+00 -0.0000000000000E+00 -0.0000000000000E+00 -0.0000000000000E+00 -0.0000000000000E+00 -0.0000000000000E+00 
 0.0000000000000E+00  0.0000000000000E+00  0.0000000000000E+00  0.0000000000000E+00  0.0000000000000E+00  0.0000000000000E+00  0.0000000000000E+00  0.0000000000000E+00  0.0000000000000E+00 -6.8612996789997E+00 
-6.8612996789997E+00 -0.0000000000000E+00 -0.0000000000000E+00 -0.0000000000000E+00 -0.0000000000000E+00 -0.0000000000000E+00 -0.0000000000000E+00 -0.0000000000000E+00 -0.0000000000000E+00  0.0000000000000E+00 
 0.0000000000000E+00  0.0000000000000E+00  0.0000000000000E+00  0.0000000000000E+00  0.0000000000000E+00  0.0000000000000E+00  0.0000000000000E+00  0.0000000000000E+00  0.0000000000000E+00  0.0000000000000E+00 
 4.3735667121249E+03  8.7471334242497E+03  8.7471334242497E+03  8.7471334242497E+03  8.7471334242497E+03  8.7471334242497E+03  8.7471334242497E+03  8.7471334242497E+03  8.7471334242497E+03  4.3735667121249E+03 
 6.5603500681873E+03  1.3120700136375E+04  1.3120700136375E+04  1.3120700136375E+04  1.3120700136375E+04  1.3120700136375E+04  1.3120700136375E+04  1.3120700136375E+04  1.3120700136375E+04  6.5603500681873E+03 
 1.0933916780312E+04  2.1867833560624E+04  2.1867833560624E+04  2.1867833560624E+04  2.1867833560624E+04  2.1867833560624E+04  2.1867833560624E+04  2.1867833560624E+04  2.1867833560624E+04  1.0933916780312E+04 
 3.0000000000000E-01  3.0000000000000E-01  3.0000000000000E-01  3.0000000000000E-01  3.0000000000000E-01  3.0000000000000E-01  3.0000000000000E-01  3.0000000000000E-01  3.0000000000000E-01  3.0000000000000E-01 
 9.3333333333333E-01  1.8666666666667E+00  1.8666666666667E+00  1.8666666666667E+00  1.8666666666667E+00  1.8666666666667E+00  1.8666666666667E+00  1.8666666666667E+00  1.8666666666667E+00  9.3333333333333E-01 
-7.3513925132139E+00 -7.3513925132139E+00 -7.3513925132139E+00 -7.3513925132139E+00 -7.3513925132139E+00 -7.3513925132139E+00 -7.3513925132139E+00 -7.3513925132139E+00 -7.3513925132139E+00 -7.3513925132139E+00 
 5.5555555555556E-06  1.1111111111111E-05  1.1111111111111E-05  1.1111111111111E-05  1.1111111111111E-05  1.1111111111111E-05  1.1111111111111E-05  1.1111111111111E-05  1.1111111111111E-05  5.5555555555556E-06 
 1.2238782136274E+01  1.2238782136274E+01  1.2238782136274E+01  1.2238782136274E+01  1.2238782136274E+01  1.2238782136274E+01  1.2238782136274E+01  1.2238782136274E+01  1.2238782136274E+01  1.2238782136274E+01 
 8.1591880908490E+00  8.1591880908490E+00  8.1591880908490E+00  8.1591880908490E+00  8.1591880908490E+00  8.1591880908490E+00  8.1591880908490E+00  8.1591880908490E+00  8.1591880908490E+00  8.1591880908490E+00 
 0.0000000000000E+00  0.0000000000000E+00  0.0000000000000E+00  0.0000000000000E+00  0.0000000000000E+00  0.0000000000000E+00  0.0000000000000E+00  0.0000000000000E+00  0.0000000000000E+00  0.0000000000000E+00 
 0.0000000000000E+00  0.0000000000000E+00  0.0000000000000E+00  0.0000000000000E+00  0.0000000000000E+00  0.0000000000000E+00  0.0000000000000E+00  0.0000000000000E+00  0.0000000000000E+00  0.0000000000000E+00 
 0.0000000000000E+00  0.0000000000000E+00  0.0000000000000E+00  0.0000000000000E+00  0.0000000000000E+00  0.0000000000000E+00  0.0000000000000E+00  0.0000000000000E+00  0.0000000000000E+00  0.0000000000000E+00 
 0.0000000000000E+00  0.0000000000000E+00  0.0000000000000E+00  0.0000000000000E+00  0.0000000000000E+00  0.0000000000000E+00  0.0000000000000E+00  0.0000000000000E+00  0.0000000000000E+00  0.0000000000000E+00 
 0.0000000000000E+00  0.0000000000000E+00  0.0000000000000E+00  0.0000000000000E+00  0.0000000000000E+00  0.0000000000000E+00  0.0000000000000E+00  0.0000000000000E+00  0.0000000000000E+00  0.0000000000000E+00 
 0.0000000000000E+00  0.0000000000000E+00  0.0000000000000E+00  0.0000000000000E+00  0.0000000000000E+00  0.0000000000000E+00  0.0000000000000E+00  0.0000000000000E+00  0.0000000000000E+00  0.0000000000000E+00 
 0.0000000000000E+00  0.0000000000000E+00  0.0000000000000E+00  0.0000000000000E+00  0.0000000000000E+00  0.0000000000000E+00  0.0000000000000E+00  0.0000000000000E+00  0.0000000000000E+00  0.0000000000000E+00 
 0.0000000000000E+00  0.0000000000000E+00  0.0000000000000E+00  0.0000000000000E+00  0.0000000000000E+00  0.0000000000000E+00  0.0000000000000E+00  0.0000000000000E+00  0.0000000000000E+00  0.0000000000000E+00 
ZONE T = "ANOD, 1.0000E-08", I = 10, SOLUTIONTIME = 1.000000E-08
ZONETYPE = ORDERED
DATAPACKING = BLOCK
STRANDID = 1
 0.0000000000000E+00  1.1111111111111E-05  2.2222222222222E-05  3.3333333333333E-05  4.4444444444444E-05  5.5555555555556E-05  6.6666666666667E-05  7.7777777777778E-05  8.8888888888889E-05  1.0000000000000E-04 
 3.4022770632832E-10  1.0204103034315E-09  1.7003115281056E-09  2.3799265795858E-09  3.0593416235213E-09  3.7386475161702E-09  4.4177855035386E-09  5.0967962420615E-09  5.7758887686047E-09  6.1202761954916E-09 
 8.4394679999544E-01  8.4394679999545E-01  8.4394679999545E-01  8.4394679999545E-01  8.4394679999545E-01  8.4394679999545E-01  8.4394679999545E-01  8.4394679999545E-01  8.4394679999545E-01  8.4394679999730E-01 
 7.8026600002278E-02  7.8026600002277E-02  7.8026600002276E-02  7.8026600002276E-02  7.8026600002275E-02  7.8026600002274E-02  7.8026600002274E-02  7.8026600002274E-02  7.8026600002273E-02  7.8026600001352E-02 
 7.8026600002278E-02  7.8026600002277E-02  7.8026600002276E-02  7.8026600002276E-02  7.8026600002275E-02  7.8026600002274E-02  7.8026600002274E-02  7.8026600002274E-02  7.8026600002273E-02  7.8026600001352E-02 
-1.2133005753204E-01 -1.2133005853385E-01 -1.2133006153840E-01 -1.2133006654469E-01 -1.2133007355220E-01 -1.2133008256030E-01 -1.2133009356852E-01 -1.2133010657644E-01 -1.2133012158375E-01 -1.2133013859043E-01 
 0.0000000000000E+00 -3.5832725052673E-06 -6.7445302502663E-06 -9.4839436482600E-06 -1.1801660241273E-05 -1.3697804708690E-05 -1.5172478874471E-05 -1.6225761713049E-05 -1.6857709353906E-05 -1.7068355084837E-05 
 1.2133005753204E-01  1.2132647526135E-01  1.2132331700815E-01  1.2132058260104E-01  1.2131827189196E-01  1.2131638475560E-01  1.2131492108965E-01  1.2131388081473E-01  1.2131326387439E-01  1.2131307023535E-01 
 1.1344423570215E-01  1.1344423570215E-01  1.1344423570215E-01  1.1344423570215E-01  1.1344423570215E-01  1.1344423570215E-01  1.1344423570215E-01  1.1344423570215E-01  1.1344423570215E-01  1.1344423570184E-01 
 7.8858218298952E-03  7.8822395591987E-03  7.8790813060015E-03  7.8763468988945E-03  7.8740361898099E-03  7.8721490534493E-03  7.8706853874998E-03  7.8696451125843E-03  7.8690281722454E-03  7.8688345335057E-03 
 1.1129220880620E+00  2.2248251279640E+00  2.2239267089855E+00  2.2231488670407E+00  2.2224915570799E+00  2.2219547409868E+00  2.2215383876386E+00  2.2212424728908E+00  2.2210669795720E+00  1.1105059487780E+00 
 5.7663315170568E-09  1.7293940865219E-08  2.8815816152532E-08  4.0334665817840E-08  5.1849952185040E-08  6.3362425335479E-08  7.4872579728748E-08  8.6380847521820E-08  9.7890900559210E-08  9.7890900559210E-08 
 0.0000000000000E+00  2.2249777806320E+00  4.4489151052366E+00  6.6720072510355E+00  8.8944636610762E+00  1.1116304828793E+01  1.3337650840003E+01  1.5558591021109E+01  1.7779353104270E+01  2.0000242098469E+01 
 2.0000201564877E+01  1.7775068403165E+01  1.5551095376455E+01  1.3327960314254E+01  1.1105542685886E+01  8.8837220023445E+00  6.6623778091835E+00  4.4413896795652E+00  2.2206372073114E+00  0.0000000000000E+00 
 1.1129220880620E-08  2.2248251279640E-08  2.2239267089855E-08  2.2231488670407E-08  2.2224915570799E-08  2.2219547409868E-08  2.2215383876386E-08  2.2212424728908E-08  2.2210669795720E-08  1.1105059487780E-08 
 4.3735667121360E+03  8.7471334242720E+03  8.7471334242720E+03  8.7471334242720E+03  8.7471334242719E+03  8.7471334242719E+03  8.7471334242719E+03  8.7471334242719E+03  8.7471334242719E+03  4.3735667121360E+03 
 6.5603500681762E+03  1.3120700136352E+04  1.3120700136352E+04  1.3120700136352E+04  1.3120700136352E+04  1.3120700136352E+04  1.3120700136352E+04  1.3120700136352E+04  1.3120700136352E+04  6.5603500681762E+03 
 1.0933916780312E+04  2.1867833560624E+04  2.1867833560624E+04  2.1867833560624E+04  2.1867833560624E+04  2.1867833560624E+04  2.1867833560624E+04  2.1867833560624E+04  2.1867833560624E+04  1.0933916780312E+04 
 3.0000000000000E-01  3.0000000000000E-01  3.0000000000000E-01  3.0000000000000E-01  3.0000000000000E-01  3.0000000000000E-01  3.0000000000000E-01  3.0000000000000E-01  3.0000000000000E-01  3.0000000000000E-01 
 9.3333333333333E-01  1.8666666666667E+00  1.8666666666667E+00  1.8666666666667E+00  1.8666666666667E+00  1.8666666666667E+00  1.8666666666667E+00  1.8666666666667E+00  1.8666666666667E+00  9.3333333333333E-01 
 1.1924165229235E+00  1.1918706042664E+00  1.1913893083851E+00  1.1909726073432E+00  1.1906204770071E+00  1.1903328969572E+00  1.1901098505207E+00  1.1899513247629E+00  1.1898573104850E+00  1.1898278022622E+00 
 5.5555555555556E-06  1.1111111111111E-05  1.1111111111111E-05  1.1111111111111E-05  1.1111111111111E-05  1.1111111111111E-05  1.1111111111111E-05  1.1111111111111E-05  1.1111111111111E-05  5.5555555555556E-06 
 1.2238782136253E+01  1.2238782136253E+01  1.2238782136253E+01  1.2238782136253E+01  1.2238782136253E+01  1.2238782136253E+01  1.2238782136253E+01  1.2238782136253E+01  1.2238782136253E+01  1.2238782136253E+01 
 8.1591880908698E+00  8.1591880908698E+00  8.1591880908698E+00  8.1591880908698E+00  8.1591880908698E+00  8.1591880908698E+00  8.1591880908698E+00  8.1591880908698E+00  8.1591880908698E+00  8.1591880908698E+00 
 0.0000000000000E+00  0.0000000000000E+00  0.0000000000000E+00  0.0000000000000E+00  0.0000000000000E+00  0.0000000000000E+00  0.0000000000000E+00  0.0000000000000E+00  0.0000000000000E+00  0.0000000000000E+00 
-1.1944642829583E-04 -1.1940563492158E-04 -1.1937635985771E-04 -1.1935100570049E-04 -1.1932957447954E-04 -1.1931206790771E-04 -1.1929848738298E-04 -1.1928883398956E-04 -1.1928310849373E-04 -1.1928134734104E-04 
-1.1944642829583E+04 -1.1940563492158E+04 -1.1937635985771E+04 -1.1935100570049E+04 -1.1932957447954E+04 -1.1931206790771E+04 -1.1929848738298E+04 -1.1928883398956E+04 -1.1928310849373E+04 -1.1928134734104E+04 
 1.0032701703252E-04  5.0137155844072E-04  1.7039187619890E-03  3.7071137878716E-03  6.5102886159551E-03  1.0112815634196E-02  1.4514285372218E-02  1.9714387209002E-02  2.5713365095112E-02  2.8912666328560E-02 
 6.0910442323714E+00  5.4159235215891E+00  4.1503900601200E+00  3.0541450641040E+00  2.1269519675371E+00  1.3686108670208E+00  7.7895847728160E-01  3.5786809492930E-01  1.0524957033523E-01  2.1049287632978E-02 
-1.1950733974142E+04 -1.1945979917051E+04 -1.1941788079750E+04 -1.1938158422227E+04 -1.1935090910210E+04 -1.1932585514454E+04 -1.1930642211060E+04 -1.1929260981438E+04 -1.1928441812308E+04 -1.1928184696057E+04 
 2.1269523501600E+04  2.1259068478642E+04  2.1249851601124E+04  2.1241872130768E+04  2.1235129429486E+04  2.1229622957644E+04  2.1225352274643E+04  2.1222317038721E+04  2.1220517006875E+04  2.1219952035591E+04 
-3.3220257475742E+04 -3.3205048395693E+04 -3.3191639680874E+04 -3.3180030552994E+04 -3.3170220339696E+04 -3.3162208472099E+04 -3.3155994485704E+04 -3.3151578020159E+04 -3.3148958819184E+04 -3.3148136731649E+04 
ZONE T = "ANOD, 2.0000E-08", I = 10, SOLUTIONTIME = 2.000000E-08
ZONETYPE = ORDERED
DATAPACKING = BLOCK
STRANDID = 1
 0.0000000000000E+00  1.1111111111111E-05  2.2222222222222E-05  3.3333333333333E-05  4.4444444444444E-05  5.5555555555556E-05  6.6666666666667E-05  7.7777777777778E-05  8.8888888888889E-05  1.0000000000000E-04 
 3.4021184565152E-10  1.0203448244060E-09  1.7001152057681E-09  2.3797881502388E-09  3.0591955472978E-09  3.7384354211340E-09  4.4176013709158E-09  5.0966835096830E-09  5.7759409023799E-09  6.1249838702350E-09 
 8.4394679999089E-01  8.4394679999089E-01  8.4394679999089E-01  8.4394679999090E-01  8.4394679999090E-01  8.4394679999090E-01  8.4394679999090E-01  8.4394679999091E-01  8.4394679999091E-01  8.4394679999461E-01 
 7.8026600004557E-02  7.8026600004554E-02  7.8026600004553E-02  7.8026600004551E-02  7.8026600004550E-02  7.8026600004549E-02  7.8026600004548E-02  7.8026600004547E-02  7.8026600004546E-02  7.8026600002693E-02 
 7.8026600004557E-02  7.8026600004554E-02  7.8026600004553E-02  7.8026600004551E-02  7.8026600004550E-02  7.8026600004549E-02  7.8026600004548E-02  7.8026600004547E-02  7.8026600004546E-02  7.8026600002693E-02 
-1.2132864242873E-01 -1.2132864343053E-01 -1.2132864643500E-01 -1.2132865144135E-01 -1.2132865844886E-01 -1.2132866745695E-01 -1.2132867846514E-01 -1.2132869147304E-01 -1.2132870648040E-01 -1.2132872348705E-01 
 0.0000000000000E+00 -3.5832724508198E-06 -6.7445300599487E-06 -9.4839432736638E-06 -1.1801659662595E-05 -1.3697803930284E-05 -1.5172477920413E-05 -1.6225760622714E-05 -1.6857708177542E-05 -1.7068353879139E-05 
 1.2132864242873E-01  1.2132506015808E-01  1.2132190190494E-01  1.2131916749807E-01  1.2131685678920E-01  1.2131496965302E-01  1.2131350598722E-01  1.2131246571242E-01  1.2131184877222E-01  1.2131165513317E-01 
 1.1344423570296E-01  1.1344423570295E-01  1.1344423570295E-01  1.1344423570295E-01  1.1344423570295E-01  1.1344423570295E-01  1.1344423570295E-01  1.1344423570295E-01  1.1344423570295E-01  1.1344423570234E-01 
 7.8844067257748E-03  7.8808244551226E-03  7.8776662019899E-03  7.8749317951218E-03  7.8726210862474E-03  7.8707339500713E-03  7.8692702842665E-03  7.8682300094684E-03  7.8676130692707E-03  7.8674194308304E-03 
 1.1127208101753E+00  2.2244225764751E+00  2.2235241612796E+00  2.2227463226610E+00  2.2220890155124E+00  2.2215522017191E+00  2.2211358501547E+00  2.2208399366787E+00  2.2206644441343E+00  1.1103046812099E+00 
 5.7662730253046E-09  1.7293529616780E-08  2.8816130734809E-08  4.0334700813007E-08  5.1849864790080E-08  6.3362246731357E-08  7.4872471260398E-08  8.6381164565057E-08  9.7892455637490E-08  9.7892455637490E-08 
 0.0000000000000E+00  2.2249321001545E+00  4.4489054636793E+00  6.6720407081897E+00  8.8944583819362E+00  1.1116278986926E+01  1.3337623009753E+01  1.5558610906180E+01  1.7779363093310E+01  1.9999999998664E+01 
 2.0000000000000E+01  1.7775067901587E+01  1.5551094532710E+01  1.3327959290740E+01  1.1105541621653E+01  8.8837210130371E+00  6.6623769871002E+00  4.4413890936835E+00  2.2206369032770E+00  0.0000000000000E+00 
 2.2256428982372E-08  4.4492477044391E-08  4.4474508702650E-08  4.4458951897017E-08  4.4445805725924E-08  4.4435069427059E-08  4.4426742377933E-08  4.4420824095695E-08  4.4417314237062E-08  2.2208106299879E-08 
 4.3735667121471E+03  8.7471334242942E+03  8.7471334242942E+03  8.7471334242942E+03  8.7471334242942E+03  8.7471334242942E+03  8.7471334242941E+03  8.7471334242942E+03  8.7471334242941E+03  4.3735667121471E+03 
 6.5603500681650E+03  1.3120700136330E+04  1.3120700136330E+04  1.3120700136330E+04  1.3120700136330E+04  1.3120700136330E+04  1.3120700136330E+04  1.3120700136330E+04  1.3120700136330E+04  6.5603500681651E+03 
 1.0933916780312E+04  2.1867833560624E+04  2.1867833560624E+04  2.1867833560624E+04  2.1867833560624E+04  2.1867833560624E+04  2.1867833560624E+04  2.1867833560624E+04  2.1867833560624E+04  1.0933916780312E+04 
 3.0000000000000E-01  3.0000000000000E-01  3.0000000000000E-01  3.0000000000000E-01  3.0000000000000E-01  3.0000000000000E-01  3.0000000000000E-01  3.0000000000000E-01  3.0000000000000E-01  3.0000000000000E-01 
 9.3333333333333E-01  1.8666666666667E+00  1.8666666666667E+00  1.8666666666667E+00  1.8666666666667E+00  1.8666666666667E+00  1.8666666666667E+00  1.8666666666667E+00  1.8666666666667E+00  9.3333333333333E-01 
 1.1922008680449E+00  1.1916549516831E+00  1.1911736578283E+00  1.1907569585684E+00  1.1904048297388E+00  1.1901172509210E+00  1.1898942054400E+00  1.1897356803636E+00  1.1896416665005E+00  1.1896121584392E+00 
 5.5555555555556E-06  1.1111111111111E-05  1.1111111111111E-05  1.1111111111111E-05  1.1111111111111E-05  1.1111111111111E-05  1.1111111111111E-05  1.1111111111111E-05  1.1111111111111E-05  5.5555555555556E-06 
 1.2238782136232E+01  1.2238782136232E+01  1.2238782136232E+01  1.2238782136232E+01  1.2238782136232E+01  1.2238782136232E+01  1.2238782136232E+01  1.2238782136232E+01  1.2238782136232E+01  1.2238782136232E+01 
 8.1591880908906E+00  8.1591880908905E+00  8.1591880908905E+00  8.1591880908905E+00  8.1591880908905E+00  8.1591880908905E+00  8.1591880908905E+00  8.1591880908905E+00  8.1591880908905E+00  8.1591880908905E+00 
 0.0000000000000E+00  0.0000000000000E+00  0.0000000000000E+00  0.0000000000000E+00  0.0000000000000E+00  0.0000000000000E+00  0.0000000000000E+00  0.0000000000000E+00  0.0000000000000E+00  0.0000000000000E+00 
-2.3887407736095E-04 -2.3879248824802E-04 -2.3873393603605E-04 -2.3868322591838E-04 -2.3864036195261E-04 -2.3860534756410E-04 -2.3857818554860E-04 -2.3855887807395E-04 -2.3854742667630E-04 -2.3854390424804E-04 
-1.1942764906512E+04 -1.1938685332645E+04 -1.1935757617834E+04 -1.1933222021790E+04 -1.1931078747307E+04 -1.1929327965638E+04 -1.1927969816562E+04 -1.1927004408439E+04 -1.1926431818258E+04 -1.1926255690701E+04 
 2.0065192991626E-04  1.0027205155128E-03  3.4078431931242E-03  7.4142588967310E-03  1.3020567500529E-02  2.0225583134592E-02  2.9028511812299E-02  3.9428831919414E-02  5.1426749825695E-02  5.7825207660711E-02 
 1.2182088279637E+01  1.0831846746867E+01  8.3007796770041E+00  6.1082896643446E+00  4.2539035310312E+00  2.7372214315047E+00  1.5579167635906E+00  7.1573609597561E-01  2.1049911194912E-01  4.2098569403351E-02 
-1.1948856050884E+04 -1.1944101757219E+04 -1.1939909711375E+04 -1.1936279873535E+04 -1.1933212209150E+04 -1.1930706688970E+04 -1.1928763289075E+04 -1.1927381990885E+04 -1.1926562781184E+04 -1.1926305652524E+04 
 2.1265393364144E+04  2.1254938641706E+04  2.1245722029191E+04  2.1237742788795E+04  2.1231000281853E+04  2.1225493968760E+04  2.1221223408883E+04  2.1218188260509E+04  2.1216388280793E+04  2.1215823326478E+04 
-3.3214249415029E+04 -3.3199040398925E+04 -3.3185631740567E+04 -3.3174022662330E+04 -3.3164212491003E+04 -3.3156200657730E+04 -3.3149986697958E+04 -3.3145570251394E+04 -3.3142951061976E+04 -3.3142128979002E+04 
ZONE T = "ANOD, 3.0000E-08", I = 10, SOLUTIONTIME = 3.000000E-08
ZONETYPE = ORDERED
DATAPACKING = BLOCK
STRANDID = 1
 0.0000000000000E+00  1.1111111111111E-05  2.2222222222222E-05  3.3333333333333E-05  4.4444444444444E-05  5.5555555555556E-05  6.6666666666667E-05  7.7777777777778E-05  8.8888888888889E-05  1.0000000000000E-04 
 3.4023774115880E-10  1.0203706934394E-09  1.7001427319917E-09  2.3797123491316E-09  3.0590705058076E-09  3.7382600802821E-09  4.4172134749613E-09  5.0960892677519E-09  5.7757199986761E-09  6.1296203072213E-09 
 8.4394679998633E-01  8.4394679998634E-01  8.4394679998634E-01  8.4394679998635E-01  8.4394679998635E-01  8.4394679998635E-01  8.4394679998636E-01  8.4394679998636E-01  8.4394679998636E-01  8.4394679999196E-01 
 7.8026600006835E-02  7.8026600006832E-02  7.8026600006829E-02  7.8026600006827E-02  7.8026600006825E-02  7.8026600006823E-02  7.8026600006822E-02  7.8026600006821E-02  7.8026600006818E-02  7.8026600004022E-02 
 7.8026600006835E-02  7.8026600006832E-02  7.8026600006829E-02  7.8026600006827E-02  7.8026600006825E-02  7.8026600006823E-02  7.8026600006822E-02  7.8026600006821E-02  7.8026600006818E-02  7.8026600004022E-02 
-1.2132864242940E-01 -1.2132864343119E-01 -1.2132864643567E-01 -1.2132865144201E-01 -1.2132865844953E-01 -1.2132866745762E-01 -1.2132867846580E-01 -1.2132869147371E-01 -1.2132870648106E-01 -1.2132872348772E-01 
 0.0000000000000E+00 -3.5832724508202E-06 -6.7445300599504E-06 -9.4839432736674E-06 -1.1801659662602E-05 -1.3697803930294E-05 -1.5172477920428E-05 -1.6225760622733E-05 -1.6857708177568E-05 -1.7068353879171E-05 
 1.2132864242940E-01  1.2132506015874E-01  1.2132190190561E-01  1.2131916749874E-01  1.2131685678987E-01  1.2131496965369E-01  1.2131350598788E-01  1.2131246571309E-01  1.2131184877289E-01  1.2131165513384E-01 
 1.1344423570376E-01  1.1344423570376E-01  1.1344423570376E-01  1.1344423570376E-01  1.1344423570376E-01  1.1344423570376E-01  1.1344423570376E-01  1.1344423570376E-01  1.1344423570376E-01  1.1344423570284E-01 
 7.8844067256334E-03  7.8808244549814E-03  7.8776662018492E-03  7.8749317949814E-03  7.8726210861072E-03  7.8707339499313E-03  7.8692702841266E-03  7.8682300093287E-03  7.8676130691314E-03  7.8674194310017E-03 
 1.1127208101731E+00  2.2244225764708E+00  2.2235241612754E+00  2.2227463226568E+00  2.2220890155083E+00  2.2215522017151E+00  2.2211358501506E+00  2.2208399366746E+00  2.2206644441303E+00  1.1103046812450E+00 
 5.7662749060003E-09  1.7293531345110E-08  2.8816132269511E-08  4.0334702076847E-08  5.1849865843873E-08  6.3362247552903E-08  7.4872471849699E-08  8.6381167242527E-08  9.7894243131739E-08  9.7894243131739E-08 
 0.0000000000000E+00  2.2249320925197E+00  4.4489054638240E+00  6.6720407084066E+00  8.8944583822253E+00  1.1116278987287E+01  1.3337623010186E+01  1.5558610906685E+01  1.7779363093824E+01  1.9999999999185E+01 
 2.0000000000000E+01  1.7775067901592E+01  1.5551094532718E+01  1.3327959290752E+01  1.1105541621670E+01  8.8837210130581E+00  6.6623769871252E+00  4.4413890937126E+00  2.2206369033101E+00  0.0000000000000E+00 
 3.3383637084103E-08  6.6736702809099E-08  6.6709750315404E-08  6.6686415123585E-08  6.6666695881007E-08  6.6650591444210E-08  6.6638100879439E-08  6.6629223462441E-08  6.6623958678365E-08  3.3311153112329E-08 
 4.3735667121582E+03  8.7471334243165E+03  8.7471334243164E+03  8.7471334243164E+03  8.7471334243164E+03  8.7471334243164E+03  8.7471334243163E+03  8.7471334243164E+03  8.7471334243163E+03  4.3735667121582E+03 
 6.5603500681539E+03  1.3120700136308E+04  1.3120700136308E+04  1.3120700136308E+04  1.3120700136308E+04  1.3120700136308E+04  1.3120700136308E+04  1.3120700136308E+04  1.3120700136308E+04  6.5603500681540E+03 
 1.0933916780312E+04  2.1867833560624E+04  2.1867833560624E+04  2.1867833560624E+04  2.1867833560624E+04  2.1867833560624E+04  2.1867833560624E+04  2.1867833560624E+04  2.1867833560624E+04  1.0933916780312E+04 
 3.0000000000000E-01  3.0000000000000E-01  3.0000000000000E-01  3.0000000000000E-01  3.0000000000000E-01  3.0000000000000E-01  3.0000000000000E-01  3.0000000000000E-01  3.0000000000000E-01  3.0000000000000E-01 
 9.3333333333333E-01  1.8666666666667E+00  1.8666666666667E+00  1.8666666666667E+00  1.8666666666667E+00  1.8666666666667E+00  1.8666666666667E+00  1.8666666666667E+00  1.8666666666667E+00  9.3333333333333E-01 
 1.1922008680426E+00  1.1916549516808E+00  1.1911736578261E+00  1.1907569585662E+00  1.1904048297366E+00  1.1901172509188E+00  1.1898942054378E+00  1.1897356803614E+00  1.1896416664984E+00  1.1896121584767E+00 
 5.5555555555556E-06  1.1111111111111E-05  1.1111111111111E-05  1.1111111111111E-05  1.1111111111111E-05  1.1111111111111E-05  1.1111111111111E-05  1.1111111111111E-05  1.1111111111111E-05  5.5555555555556E-06 
 1.2238782136211E+01  1.2238782136211E+01  1.2238782136211E+01  1.2238782136211E+01  1.2238782136211E+01  1.2238782136211E+01  1.2238782136211E+01  1.2238782136211E+01  1.2238782136211E+01  1.2238782136211E+01 
 8.1591880909113E+00  8.1591880909113E+00  8.1591880909113E+00  8.1591880909112E+00  8.1591880909112E+00  8.1591880909112E+00  8.1591880909112E+00  8.1591880909112E+00  8.1591880909112E+00  8.1591880909112E+00 
 0.0000000000000E+00  0.0000000000000E+00  0.0000000000000E+00  0.0000000000000E+00  0.0000000000000E+00  0.0000000000000E+00  0.0000000000000E+00  0.0000000000000E+00  0.0000000000000E+00  0.0000000000000E+00 
-3.5830172642395E-04 -3.5817934157234E-04 -3.5809151221227E-04 -3.5801544613417E-04 -3.5795114942357E-04 -3.5789862721838E-04 -3.5785788371212E-04 -3.5782892215623E-04 -3.5781174485678E-04 -3.5780646115693E-04 
-1.1942764906300E+04 -1.1938685332432E+04 -1.1935757617622E+04 -1.1933222021578E+04 -1.1931078747096E+04 -1.1929327965428E+04 -1.1927969816352E+04 -1.1927004408228E+04 -1.1926431818048E+04 -1.1926255690889E+04 
 3.0097684002368E-04  1.5040694712114E-03  5.1117676243149E-03  1.1121404005711E-02  1.9530846385314E-02  3.0338350635316E-02  4.3542738252852E-02  5.9143276630465E-02  7.7140134557015E-02  8.6737748993607E-02 
 1.8273132326904E+01  1.6247769972147E+01  1.2451169293893E+01  9.1624342645910E+00  6.3808550945317E+00  4.1058319959950E+00  2.3368750499051E+00  1.0736040970263E+00  3.1574865356544E-01  6.3147851175053E-02 
-1.1948856050672E+04 -1.1944101757007E+04 -1.1939909711163E+04 -1.1936279873324E+04 -1.1933212208938E+04 -1.1930706688760E+04 -1.1928763288865E+04 -1.1927381990674E+04 -1.1926562780974E+04 -1.1926305652712E+04 
 2.1265393364063E+04  2.1254938641626E+04  2.1245722029112E+04  2.1237742788716E+04  2.1231000281775E+04  2.1225493968682E+04  2.1221223408805E+04  2.1218188260432E+04  2.1216388280716E+04  2.1215823327170E+04 
-3.3214249414735E+04 -3.3199040398632E+04 -3.3185631740276E+04 -3.3174022662040E+04 -3.3164212490714E+04 -3.3156200657442E+04 -3.3149986697670E+04 -3.3145570251106E+04 -3.3142951061690E+04 -3.3142128979882E+04 
ZONE T = "ANOD, 4.0000E-08", I = 10, SOLUTIONTIME = 4.000000E-08
ZONETYPE = ORDERED
DATAPACKING = BLOCK
STRANDID = 1
 0.0000000000000E+00  1.1111111111111E-05  2.2222222222222E-05  3.3333333333333E-05  4.4444444444444E-05  5.5555555555556E-05  6.6666666666667E-05  7.7777777777778E-05  8.8888888888889E-05  1.0000000000000E-04 
 3.4024040226190E-10  1.0204225439334E-09  1.7002469583317E-09  2.3798165455404E-09  3.0592779767208E-09  3.7384637152038E-09  4.4176815634981E-09  5.0967659577873E-09  5.7765532148981E-09  6.1348524484447E-09 
 8.4394679998177E-01  8.4394679998178E-01  8.4394679998179E-01  8.4394679998180E-01  8.4394679998180E-01  8.4394679998181E-01  8.4394679998181E-01  8.4394679998181E-01  8.4394679998182E-01  8.4394679998932E-01 
 7.8026600009113E-02  7.8026600009109E-02  7.8026600009105E-02  7.8026600009102E-02  7.8026600009099E-02  7.8026600009097E-02  7.8026600009095E-02  7.8026600009094E-02  7.8026600009089E-02  7.8026600005339E-02 
 7.8026600009113E-02  7.8026600009109E-02  7.8026600009105E-02  7.8026600009102E-02  7.8026600009099E-02  7.8026600009097E-02  7.8026600009095E-02  7.8026600009094E-02  7.8026600009089E-02  7.8026600005339E-02 
-1.2132864243006E-01 -1.2132864343186E-01 -1.2132864643633E-01 -1.2132865144268E-01 -1.2132865845019E-01 -1.2132866745828E-01 -1.2132867846647E-01 -1.2132869147437E-01 -1.2132870648173E-01 -1.2132872348838E-01 
 0.0000000000000E+00 -3.5832724508206E-06 -6.7445300599520E-06 -9.4839432736712E-06 -1.1801659662608E-05 -1.3697803930304E-05 -1.5172477920442E-05 -1.6225760622753E-05 -1.6857708177594E-05 -1.7068353879204E-05 